<event>
 4    2  0.3388003E-007  0.8202520E+03  0.7818608E-02  0.9668605E-01
          2   -1    0    0  501    0  0.00000000000E+00  0.00000000000E+00  0.14875806681E+04  0.14875806681E+04  0.25500000000E-02 0. -1.
         -2   -1    0    0    0  501 -0.00000000000E+00 -0.00000000000E+00 -0.62934708165E+03  0.62934708165E+03  0.25500000000E-02 0.  1.
    8880023    1    1    2    0    0  0.41656451321E+03 -0.25588501179E+03 -0.28163055452E+03  0.86725377395E+03  0.65864270000E+03 0.  0.
    8880022    1    1    2    0    0 -0.41656451321E+03  0.25588501179E+03  0.11398641410E+04  0.12496739758E+04  0.15294330000E+03 0.  0.
<mgrwt>
<rscale>  0 0.72917181E+03</rscale>
<asrwt>0</asrwt>
<pdfrwt beam="1">  1        2 0.22885856E+00 0.82025200E+03</pdfrwt>
<pdfrwt beam="2">  1       -2 0.96822629E-01 0.82025200E+03</pdfrwt>
<totfact> 0.11675229E+01</totfact>
</mgrwt>
</event>
<event>
 4    2  0.3388003E-007  0.8108170E+03  0.7818608E-02  0.9687878E-01
         -2   -1    0    0    0  501 -0.00000000000E+00  0.00000000000E+00  0.97670802351E+03  0.97670802352E+03  0.25500000000E-02 0.  1.
          2   -1    0    0  501    0  0.00000000000E+00 -0.00000000000E+00 -0.80881745096E+03  0.80881745097E+03  0.25500000000E-02 0. -1.
    8880023    1    1    2    0    0 -0.44151642506E+03  0.16934370495E+03  0.69001378848E+03  0.10646798949E+04  0.65864270000E+03 0.  0.
    8880022    1    1    2    0    0  0.44151642506E+03 -0.16934370495E+03 -0.52212321593E+03  0.72084557960E+03  0.15294330000E+03 0.  0.
<mgrwt>
<rscale>  0 0.71743162E+03</rscale>
<asrwt>0</asrwt>
<pdfrwt beam="1">  1        2 0.12443345E+00 0.81081703E+03</pdfrwt>
<pdfrwt beam="2">  1       -2 0.15026277E+00 0.81081703E+03</pdfrwt>
<totfact> 0.10220812E+01</totfact>
</mgrwt>
</event>
<event>
 4    2  0.3388003E-007  0.8768510E+03  0.7818608E-02  0.9564264E-01
          2   -1    0    0  501    0  0.00000000000E+00  0.00000000000E+00  0.87486734061E+03  0.87486734061E+03  0.25500000000E-02 0. -1.
         -2   -1    0    0    0  501 -0.00000000000E+00 -0.00000000000E+00 -0.97880669790E+03  0.97880669790E+03  0.25500000000E-02 0.  1.
    8880023    1    1    2    0    0 -0.55586228244E+03  0.16147651263E+03 -0.61130012295E+03  0.10689039189E+04  0.65864270000E+03 0.  0.
    8880022    1    1    2    0    0  0.55586228244E+03 -0.16147651263E+03  0.50736076566E+03  0.78477011966E+03  0.15294330000E+03 0.  0.
<mgrwt>
<rscale>  0 0.79707248E+03</rscale>
<asrwt>0</asrwt>
<pdfrwt beam="1">  1        2 0.13459498E+00 0.87685104E+03</pdfrwt>
<pdfrwt beam="2">  1       -2 0.15058565E+00 0.87685104E+03</pdfrwt>
<totfact> 0.90732564E+00</totfact>
</mgrwt>
</event>
<event>
 4    2  0.3388003E-007  0.7811099E+03  0.7818608E-02  0.9753236E-01
          2   -1    0    0  501    0  0.00000000000E+00  0.00000000000E+00  0.25683144993E+04  0.25683144993E+04  0.25500000000E-02 0. -1.
         -2   -1    0    0    0  501 -0.00000000000E+00 -0.00000000000E+00 -0.33005457386E+03  0.33005457387E+03  0.25500000000E-02 0.  1.
    8880023    1    1    2    0    0  0.30475586620E+03  0.28887083325E+03  0.19265496253E+03  0.80451764252E+03  0.65864270000E+03 0.  0.
    8880022    1    1    2    0    0 -0.30475586620E+03 -0.28887083325E+03  0.20456049629E+04  0.20938514307E+04  0.15294330000E+03 0.  0.
<mgrwt>
<rscale>  0 0.67933692E+03</rscale>
<asrwt>0</asrwt>
<pdfrwt beam="1">  1        2 0.39512531E+00 0.78110992E+03</pdfrwt>
<pdfrwt beam="2">  1       -2 0.50777627E-01 0.78110992E+03</pdfrwt>
<totfact> 0.12165075E+01</totfact>
</mgrwt>
</event>
<event>
 4    2  0.3388003E-007  0.8289061E+03  0.7818608E-02  0.9651465E-01
         -2   -1    0    0    0  501 -0.00000000000E+00  0.00000000000E+00  0.96909575643E+03  0.96909575643E+03  0.25500000000E-02 0.  1.
          2   -1    0    0  501    0  0.00000000000E+00 -0.00000000000E+00 -0.64961481687E+03  0.64961481687E+03  0.25500000000E-02 0. -1.
    8880023    1    1    2    0    0 -0.49950342917E+03  0.61412164331E+02  0.59935606510E+03  0.10228944367E+04  0.65864270000E+03 0.  1.
    8880022    1    1    2    0    0  0.49950342917E+03 -0.61412164331E+02 -0.27987512554E+03  0.59581613656E+03  0.15294330000E+03 0.  0.
<mgrwt>
<rscale>  0 0.73981585E+03</rscale>
<asrwt>0</asrwt>
<pdfrwt beam="1">  1        2 0.99940742E-01 0.82890611E+03</pdfrwt>
<pdfrwt beam="2">  1       -2 0.14909165E+00 0.82890611E+03</pdfrwt>
<totfact> 0.13798287E+01</totfact>
</mgrwt>
</event>
<event>
 4    2  0.3388003E-007  0.7079551E+03  0.7818608E-02  0.9965674E-01
         -2   -1    0    0    0  501 -0.00000000000E+00  0.00000000000E+00  0.10798311359E+04  0.10798311359E+04  0.25500000000E-02 0.  1.
          2   -1    0    0  501    0  0.00000000000E+00 -0.00000000000E+00 -0.35720504091E+03  0.35720504092E+03  0.25500000000E-02 0. -1.
    8880023    1    1    2    0    0 -0.18386906548E+03 -0.18325514444E+03  0.85319009261E+03  0.11086630785E+04  0.65864270000E+03 0.  1.
    8880022    1    1    2    0    0  0.18386906548E+03  0.18325514444E+03 -0.13056399764E+03  0.32837309832E+03  0.15294330000E+03 0.  0.
<mgrwt>
<rscale>  0 0.57181328E+03</rscale>
<asrwt>0</asrwt>
<pdfrwt beam="1">  1        2 0.54954623E-01 0.70795515E+03</pdfrwt>
<pdfrwt beam="2">  1       -2 0.16612786E+00 0.70795515E+03</pdfrwt>
<totfact> 0.20878880E+01</totfact>
</mgrwt>
</event>
<event>
 4    2  0.3388003E-007  0.7220912E+03  0.7818608E-02  0.9915572E-01
         -2   -1    0    0    0  501 -0.00000000000E+00  0.00000000000E+00  0.35683451041E+03  0.35683451042E+03  0.25500000000E-02 0.  1.
          2   -1    0    0  501    0  0.00000000000E+00 -0.00000000000E+00 -0.87635853945E+03  0.87635853945E+03  0.25500000000E-02 0. -1.
    8880023    1    1    2    0    0 -0.28950714529E+03  0.61572305039E+02 -0.15345941878E+03  0.73821781027E+03  0.65864270000E+03 0.  1.
    8880022    1    1    2    0    0  0.28950714529E+03 -0.61572305039E+02 -0.36606461026E+03  0.49497523960E+03  0.15294330000E+03 0.  0.
<mgrwt>
<rscale>  0 0.59512480E+03</rscale>
<asrwt>0</asrwt>
<pdfrwt beam="1">  1        2 0.13482439E+00 0.72209123E+03</pdfrwt>
<pdfrwt beam="2">  1       -2 0.54897617E-01 0.72209123E+03</pdfrwt>
<totfact> 0.96390507E+01</totfact>
</mgrwt>
</event>
<event>
 4    2  0.3388003E-007  0.6636592E+03  0.7818608E-02  0.1020686E+00
         -2   -1    0    0    0  501 -0.00000000000E+00  0.00000000000E+00  0.22852536471E+03  0.22852536472E+03  0.25500000000E-02 0.  1.
          2   -1    0    0  501    0  0.00000000000E+00 -0.00000000000E+00 -0.13757151254E+04  0.13757151254E+04  0.25500000000E-02 0. -1.
    8880023    1    1    2    0    0  0.50018662650E+02 -0.64276791099E+02 -0.28067541759E+03  0.72057079374E+03  0.65864270000E+03 0.  0.
    8880022    1    1    2    0    0 -0.50018662650E+02  0.64276791099E+02 -0.86651434312E+03  0.88366969640E+03  0.15294330000E+03 0. -1.
<mgrwt>
<rscale>  0 0.47439956E+03</rscale>
<asrwt>0</asrwt>
<pdfrwt beam="1">  1        2 0.21164848E+00 0.66365923E+03</pdfrwt>
<pdfrwt beam="2">  1       -2 0.35157749E-01 0.66365923E+03</pdfrwt>
<totfact> 0.11619224E+02</totfact>
</mgrwt>
</event>
<event>
 4    2  0.3388003E-007  0.7411394E+03  0.7818608E-02  0.9856640E-01
         -2   -1    0    0    0  501 -0.00000000000E+00  0.00000000000E+00  0.16604518571E+04  0.16604518571E+04  0.25500000000E-02 0.  1.
          2   -1    0    0  501    0  0.00000000000E+00 -0.00000000000E+00 -0.53032724605E+03  0.53032724606E+03  0.25500000000E-02 0. -1.
    8880023    1    1    2    0    0  0.90301859743E+01  0.33969972599E+03  0.14953847122E+04  0.16689706684E+04  0.65864270000E+03 0.  1.
    8880022    1    1    2    0    0 -0.90301859743E+01 -0.33969972599E+03 -0.36526010117E+03  0.52180843479E+03  0.15294330000E+03 0.  0.
<mgrwt>
<rscale>  0 0.62409491E+03</rscale>
<asrwt>0</asrwt>
<pdfrwt beam="1">  1        2 0.81588807E-01 0.74113943E+03</pdfrwt>
<pdfrwt beam="2">  1       -2 0.25545413E+00 0.74113943E+03</pdfrwt>
<totfact> 0.35283045E+00</totfact>
</mgrwt>
</event>
<event>
 4    2  0.3388003E-007  0.7523497E+03  0.7818608E-02  0.9825332E-01
          2   -1    0    0  501    0  0.00000000000E+00  0.00000000000E+00  0.68885914751E+03  0.68885914751E+03  0.25500000000E-02 0. -1.
         -2   -1    0    0    0  501 -0.00000000000E+00 -0.00000000000E+00 -0.10189880179E+04  0.10189880179E+04  0.25500000000E-02 0.  1.
    8880023    1    1    2    0    0 -0.32476087485E+03  0.16355515923E+03 -0.79741879060E+03  0.10963151234E+04  0.65864270000E+03 0.  0.
    8880022    1    1    2    0    0  0.32476087485E+03 -0.16355515923E+03  0.46728992017E+03  0.61153204205E+03  0.15294330000E+03 0.  0.
<mgrwt>
<rscale>  0 0.64020648E+03</rscale>
<asrwt>0</asrwt>
<pdfrwt beam="1">  1        2 0.10597833E+00 0.75234973E+03</pdfrwt>
<pdfrwt beam="2">  1       -2 0.15676739E+00 0.75234973E+03</pdfrwt>
<totfact> 0.11304420E+01</totfact>
</mgrwt>
</event>
<event>
 4    2  0.3388003E-007  0.8416760E+03  0.7818608E-02  0.9627028E-01
          2   -1    0    0  501    0  0.00000000000E+00  0.00000000000E+00  0.27703908464E+04  0.27703908464E+04  0.25500000000E-02 0. -1.
         -2   -1    0    0    0  501 -0.00000000000E+00 -0.00000000000E+00 -0.31126470570E+03  0.31126470571E+03  0.25500000000E-02 0.  1.
    8880023    1    1    2    0    0 -0.51835127534E+03  0.76942564965E+02  0.36476113510E+03  0.91731624585E+03  0.65864270000E+03 0.  1.
    8880022    1    1    2    0    0  0.51835127534E+03 -0.76942564965E+02  0.20943650056E+04  0.21643393063E+04  0.15294330000E+03 0.  0.
<mgrwt>
<rscale>  0 0.75532819E+03</rscale>
<asrwt>0</asrwt>
<pdfrwt beam="1">  1        2 0.42621395E+00 0.84167595E+03</pdfrwt>
<pdfrwt beam="2">  1       -2 0.47886880E-01 0.84167595E+03</pdfrwt>
<totfact> 0.10359264E+01</totfact>
</mgrwt>
</event>
<event>
 4    2  0.3388003E-007  0.8994609E+03  0.7818608E-02  0.9526898E-01
          2   -1    0    0  501    0  0.00000000000E+00  0.00000000000E+00  0.14126382290E+04  0.14126382290E+04  0.25500000000E-02 0. -1.
         -2   -1    0    0    0  501 -0.00000000000E+00 -0.00000000000E+00 -0.68231288683E+03  0.68231288683E+03  0.25500000000E-02 0.  1.
    8880023    1    1    2    0    0 -0.55483082928E+03  0.25958139067E+03 -0.24579842920E+03  0.93244132339E+03  0.65864270000E+03 0.  1.
    8880022    1    1    2    0    0  0.55483082928E+03 -0.25958139067E+03  0.97612377138E+03  0.11625097925E+04  0.15294330000E+03 0.  0.
<mgrwt>
<rscale>  0 0.82329493E+03</rscale>
<asrwt>0</asrwt>
<pdfrwt beam="1">  1        2 0.21732896E+00 0.89946092E+03</pdfrwt>
<pdfrwt beam="2">  1       -2 0.10497121E+00 0.89946092E+03</pdfrwt>
<totfact> 0.10519926E+01</totfact>
</mgrwt>
</event>
<event>
 4    2  0.3388003E-007  0.6971630E+03  0.7818608E-02  0.1000918E+00
          2   -1    0    0  501    0  0.00000000000E+00  0.00000000000E+00  0.74066348637E+03  0.74066348638E+03  0.25500000000E-02 0. -1.
         -2   -1    0    0    0  501 -0.00000000000E+00 -0.00000000000E+00 -0.74131822011E+03  0.74131822011E+03  0.25500000000E-02 0.  1.
    8880023    1    1    2    0    0  0.39354716640E+02 -0.22511599049E+03 -0.53649885653E+03  0.87969723895E+03  0.65864270000E+03 0.  1.
    8880022    1    1    2    0    0 -0.39354716640E+02  0.22511599049E+03  0.53584412279E+03  0.60228446754E+03  0.15294330000E+03 0.  0.
<mgrwt>
<rscale>  0 0.55249536E+03</rscale>
<asrwt>0</asrwt>
<pdfrwt beam="1">  1        2 0.11394823E+00 0.69716297E+03</pdfrwt>
<pdfrwt beam="2">  1       -2 0.11404896E+00 0.69716297E+03</pdfrwt>
<totfact> 0.23372030E+01</totfact>
</mgrwt>
</event>
<event>
 4    2  0.3388003E-007  0.8452990E+03  0.7818608E-02  0.9620268E-01
          2   -1    0    0  501    0  0.00000000000E+00  0.00000000000E+00  0.25417296618E+04  0.25417296618E+04  0.25500000000E-02 0. -1.
         -2   -1    0    0    0  501 -0.00000000000E+00 -0.00000000000E+00 -0.23709263220E+03  0.23709263221E+03  0.25500000000E-02 0.  1.
    8880023    1    1    2    0    0 -0.23736019538E+03  0.47368804940E+03  0.75281771759E+03  0.11319297472E+04  0.65864270000E+03 0.  1.
    8880022    1    1    2    0    0  0.23736019538E+03 -0.47368804940E+03  0.15518193120E+04  0.16468925468E+04  0.15294330000E+03 0. -1.
<mgrwt>
<rscale>  0 0.75969094E+03</rscale>
<asrwt>0</asrwt>
<pdfrwt beam="1">  1        2 0.39103534E+00 0.84529902E+03</pdfrwt>
<pdfrwt beam="2">  1       -2 0.36475789E-01 0.84529902E+03</pdfrwt>
<totfact> 0.24033269E+01</totfact>
</mgrwt>
</event>
<event>
 4    2  0.3388003E-007  0.8254150E+03  0.7818608E-02  0.9658320E-01
          2   -1    0    0  501    0  0.00000000000E+00  0.00000000000E+00  0.57211339131E+03  0.57211339131E+03  0.25500000000E-02 0. -1.
         -2   -1    0    0    0  501 -0.00000000000E+00 -0.00000000000E+00 -0.17279298187E+04  0.17279298187E+04  0.25500000000E-02 0.  1.
    8880023    1    1    2    0    0 -0.31375588005E+03 -0.38607906531E+03 -0.14744606584E+04  0.16897763865E+04  0.65864270000E+03 0.  0.
    8880022    1    1    2    0    0  0.31375588005E+03  0.38607906531E+03  0.31864423099E+03  0.61026682353E+03  0.15294330000E+03 0.  0.
<mgrwt>
<rscale>  0 0.73553560E+03</rscale>
<asrwt>0</asrwt>
<pdfrwt beam="1">  1        2 0.88017446E-01 0.82541505E+03</pdfrwt>
<pdfrwt beam="2">  1       -2 0.26583535E+00 0.82541505E+03</pdfrwt>
<totfact> 0.27603389E+00</totfact>
</mgrwt>
</event>
<event>
 4    2  0.3388003E-007  0.9216615E+03  0.7818608E-02  0.9492116E-01
         -2   -1    0    0    0  501 -0.00000000000E+00  0.00000000000E+00  0.39583420416E+03  0.39583420417E+03  0.25500000000E-02 0.  1.
          2   -1    0    0  501    0  0.00000000000E+00 -0.00000000000E+00 -0.26526180208E+04  0.26526180208E+04  0.25500000000E-02 0. -1.
    8880023    1    1    2    0    0  0.39673338748E+03  0.50818531323E+03 -0.27951416759E+03  0.96311373652E+03  0.65864270000E+03 0.  1.
    8880022    1    1    2    0    0 -0.39673338748E+03 -0.50818531323E+03 -0.19772696490E+04  0.20853384884E+04  0.15294330000E+03 0.  0.
<mgrwt>
<rscale>  0 0.84867568E+03</rscale>
<asrwt>0</asrwt>
<pdfrwt beam="1">  1        2 0.40809507E+00 0.92166149E+03</pdfrwt>
<pdfrwt beam="2">  1       -2 0.60897571E-01 0.92166149E+03</pdfrwt>
<totfact> 0.72929141E+00</totfact>
</mgrwt>
</event>
<event>
 4    2  0.3388003E-007  0.7311696E+03  0.7818608E-02  0.9886459E-01
          2   -1    0    0  501    0  0.00000000000E+00  0.00000000000E+00  0.12084883480E+04  0.12084883480E+04  0.25500000000E-02 0. -1.
         -2   -1    0    0    0  501 -0.00000000000E+00 -0.00000000000E+00 -0.28683191757E+03  0.28683191758E+03  0.25500000000E-02 0.  1.
    8880023    1    1    2    0    0  0.31000212268E+03  0.68537673073E+02  0.32016201578E+03  0.79819336712E+03  0.65864270000E+03 0.  1.
    8880022    1    1    2    0    0 -0.31000212268E+03 -0.68537673073E+02  0.60149441466E+03  0.69712689847E+03  0.15294330000E+03 0. -1.
<mgrwt>
<rscale>  0 0.60922059E+03</rscale>
<asrwt>0</asrwt>
<pdfrwt beam="1">  1        2 0.18592128E+00 0.73116957E+03</pdfrwt>
<pdfrwt beam="2">  1       -2 0.44127987E-01 0.73116957E+03</pdfrwt>
<totfact> 0.92735698E+01</totfact>
</mgrwt>
</event>
<event>
 4    2  0.3388003E-007  0.7802453E+03  0.7818608E-02  0.9755261E-01
         -2   -1    0    0    0  501 -0.00000000000E+00  0.00000000000E+00  0.13508844324E+03  0.13508844326E+03  0.25500000000E-02 0.  1.
          2   -1    0    0  501    0  0.00000000000E+00 -0.00000000000E+00 -0.34050153733E+04  0.34050153733E+04  0.25500000000E-02 0. -1.
    8880023    1    1    2    0    0  0.31964364766E+03 -0.26981564381E+03 -0.12647579421E+04  0.14860670919E+04  0.65864270000E+03 0.  0.
    8880022    1    1    2    0    0 -0.31964364766E+03  0.26981564381E+03 -0.20051689879E+04  0.20540367247E+04  0.15294330000E+03 0.  0.
<mgrwt>
<rscale>  0 0.67819766E+03</rscale>
<asrwt>0</asrwt>
<pdfrwt beam="1">  1        2 0.52384845E+00 0.78024531E+03</pdfrwt>
<pdfrwt beam="2">  1       -2 0.20782840E-01 0.78024531E+03</pdfrwt>
<totfact> 0.20140682E+01</totfact>
</mgrwt>
</event>
<event>
 4    2  0.3388003E-007  0.8043470E+03  0.7818608E-02  0.9701475E-01
         -2   -1    0    0    0  501 -0.00000000000E+00  0.00000000000E+00  0.44639336690E+03  0.44639336690E+03  0.25500000000E-02 0.  1.
          2   -1    0    0  501    0  0.00000000000E+00 -0.00000000000E+00 -0.25206478624E+04  0.25206478624E+04  0.25500000000E-02 0. -1.
    8880023    1    1    2    0    0  0.41998680978E+03  0.19176816289E+03  0.32371833400E+02  0.80499819288E+03  0.65864270000E+03 0.  1.
    8880022    1    1    2    0    0 -0.41998680978E+03 -0.19176816289E+03 -0.21066263289E+04  0.21620430364E+04  0.15294330000E+03 0.  0.
<mgrwt>
<rscale>  0 0.70929068E+03</rscale>
<asrwt>0</asrwt>
<pdfrwt beam="1">  1        2 0.38779197E+00 0.80434704E+03</pdfrwt>
<pdfrwt beam="2">  1       -2 0.68675904E-01 0.80434704E+03</pdfrwt>
<totfact> 0.68284366E+00</totfact>
</mgrwt>
</event>
<event>
 4    2  0.3388003E-007  0.6685504E+03  0.7818608E-02  0.1016724E+00
          2   -1    0    0  501    0  0.00000000000E+00  0.00000000000E+00  0.22935218366E+04  0.22935218366E+04  0.25500000000E-02 0. -1.
         -2   -1    0    0    0  501 -0.00000000000E+00 -0.00000000000E+00 -0.11210483118E+03  0.11210483121E+03  0.25500000000E-02 0.  1.
    8880023    1    1    2    0    0  0.10883161217E+03  0.36125932509E+02  0.96307271317E+03  0.11723773539E+04  0.65864270000E+03 0.  0.
    8880022    1    1    2    0    0 -0.10883161217E+03 -0.36125932509E+02  0.12183442923E+04  0.12332493139E+04  0.15294330000E+03 0.  0.
<mgrwt>
<rscale>  0 0.48887546E+03</rscale>
<asrwt>0</asrwt>
<pdfrwt beam="1">  1        2 0.35284949E+00 0.66855038E+03</pdfrwt>
<pdfrwt beam="2">  1       -2 0.17246898E-01 0.66855038E+03</pdfrwt>
<totfact> 0.13147129E+02</totfact>
</mgrwt>
</event>
<event>
 4    2  0.3388003E-007  0.6663770E+03  0.7818608E-02  0.1018405E+00
          2   -1    0    0  501    0  0.00000000000E+00  0.00000000000E+00  0.27960308951E+04  0.27960308951E+04  0.25500000000E-02 0. -1.
         -2   -1    0    0    0  501 -0.00000000000E+00 -0.00000000000E+00 -0.15845672280E+03  0.15845672282E+03  0.25500000000E-02 0.  1.
    8880023    1    1    2    0    0 -0.68749573966E+02  0.74307533188E+02  0.56456245223E+03  0.87337797210E+03  0.65864270000E+03 0.  1.
    8880022    1    1    2    0    0  0.68749573966E+02 -0.74307533188E+02  0.20730117200E+04  0.20811096458E+04  0.15294330000E+03 0.  0.
<mgrwt>
<rscale>  0 0.48266591E+03</rscale>
<asrwt>0</asrwt>
<pdfrwt beam="1">  1        2 0.43015858E+00 0.66637701E+03</pdfrwt>
<pdfrwt beam="2">  1       -2 0.24377958E-01 0.66637701E+03</pdfrwt>
<totfact> 0.37119575E+01</totfact>
</mgrwt>
</event>
<event>
 4    2  0.3388003E-007  0.6713308E+03  0.7818608E-02  0.1014726E+00
         -2   -1    0    0    0  501 -0.00000000000E+00  0.00000000000E+00  0.17651809281E+03  0.17651809283E+03  0.25500000000E-02 0.  1.
          2   -1    0    0  501    0  0.00000000000E+00 -0.00000000000E+00 -0.12009323612E+04  0.12009323612E+04  0.25500000000E-02 0. -1.
    8880023    1    1    2    0    0  0.11998935193E+02 -0.12934775627E+03 -0.56989095546E+03  0.88060247779E+03  0.65864270000E+03 0.  1.
    8880022    1    1    2    0    0 -0.11998935193E+02  0.12934775627E+03 -0.45452331292E+03  0.49684797625E+03  0.15294330000E+03 0.  1.
<mgrwt>
<rscale>  0 0.49638696E+03</rscale>
<asrwt>0</asrwt>
<pdfrwt beam="1">  1        2 0.18475882E+00 0.67133078E+03</pdfrwt>
<pdfrwt beam="2">  1       -2 0.27156630E-01 0.67133078E+03</pdfrwt>
<totfact> 0.23685382E+02</totfact>
</mgrwt>
</event>
<event>
 4    2  0.3388003E-007  0.7277299E+03  0.7818608E-02  0.9897249E-01
         -2   -1    0    0    0  501 -0.00000000000E+00  0.00000000000E+00  0.60875722371E+03  0.60875722372E+03  0.25500000000E-02 0.  1.
          2   -1    0    0  501    0  0.00000000000E+00 -0.00000000000E+00 -0.13414484168E+04  0.13414484168E+04  0.25500000000E-02 0. -1.
    8880023    1    1    2    0    0  0.30773602120E+03  0.32849439766E+02  0.35452952136E+03  0.80949486238E+03  0.65864270000E+03 0.  0.
    8880022    1    1    2    0    0 -0.30773602120E+03 -0.32849439766E+02 -0.10872207145E+04  0.11407107782E+04  0.15294330000E+03 0.  0.
<mgrwt>
<rscale>  0 0.60394796E+03</rscale>
<asrwt>0</asrwt>
<pdfrwt beam="1">  1        2 0.20637668E+00 0.72772986E+03</pdfrwt>
<pdfrwt beam="2">  1       -2 0.93654958E-01 0.72772986E+03</pdfrwt>
<totfact> 0.15435857E+01</totfact>
</mgrwt>
</event>
<event>
 4    2  0.3388003E-007  0.6738999E+03  0.7818608E-02  0.1013009E+00
          2   -1    0    0  501    0  0.00000000000E+00  0.00000000000E+00  0.22805210857E+03  0.22805210859E+03  0.25500000000E-02 0. -1.
         -2   -1    0    0    0  501 -0.00000000000E+00 -0.00000000000E+00 -0.11583009776E+04  0.11583009776E+04  0.25500000000E-02 0.  1.
    8880023    1    1    2    0    0  0.33064060097E+02 -0.13869983413E+03 -0.96230872677E+03  0.11748102689E+04  0.65864270000E+03 0.  1.
    8880022    1    1    2    0    0 -0.33064060097E+02  0.13869983413E+03  0.32059857728E+02  0.21154281730E+03  0.15294330000E+03 0.  0.
<mgrwt>
<rscale>  0 0.50296146E+03</rscale>
<asrwt>0</asrwt>
<pdfrwt beam="1">  1        2 0.35084940E-01 0.67389991E+03</pdfrwt>
<pdfrwt beam="2">  1       -2 0.17820015E+00 0.67389991E+03</pdfrwt>
<totfact> 0.28377900E+01</totfact>
</mgrwt>
</event>
<event>
 4    2  0.3388003E-007  0.6723295E+03  0.7818608E-02  0.1014045E+00
          2   -1    0    0  501    0  0.00000000000E+00  0.00000000000E+00  0.15744010750E+04  0.15744010750E+04  0.25500000000E-02 0. -1.
         -2   -1    0    0    0  501 -0.00000000000E+00 -0.00000000000E+00 -0.22689592547E+03  0.22689592548E+03  0.25500000000E-02 0.  1.
    8880023    1    1    2    0    0  0.13349548166E+03 -0.19892332394E+02  0.30368728079E+03  0.73773499259E+03  0.65864270000E+03 0.  1.
    8880022    1    1    2    0    0 -0.13349548166E+03  0.19892332394E+02  0.10438178688E+04  0.10635620079E+04  0.15294330000E+03 0.  0.
<mgrwt>
<rscale>  0 0.49898128E+03</rscale>
<asrwt>0</asrwt>
<pdfrwt beam="1">  1        2 0.24221555E+00 0.67232950E+03</pdfrwt>
<pdfrwt beam="2">  1       -2 0.34907066E-01 0.67232950E+03</pdfrwt>
<totfact> 0.91209861E+01</totfact>
</mgrwt>
</event>
<event>
 4    2  0.3388003E-007  0.7788595E+03  0.7818608E-02  0.9758523E-01
         -2   -1    0    0    0  501 -0.00000000000E+00  0.00000000000E+00  0.35885958788E+03  0.35885958789E+03  0.25500000000E-02 0.  1.
          2   -1    0    0  501    0  0.00000000000E+00 -0.00000000000E+00 -0.18868400813E+04  0.18868400813E+04  0.25500000000E-02 0. -1.
    8880023    1    1    2    0    0 -0.25153677961E+03 -0.33097012551E+03 -0.14334667242E+03  0.79194093860E+03  0.65864270000E+03 0.  1.
    8880022    1    1    2    0    0  0.25153677961E+03  0.33097012551E+03 -0.13846338210E+04  0.14537587305E+04  0.15294330000E+03 0.  0.
<mgrwt>
<rscale>  0 0.67636751E+03</rscale>
<asrwt>0</asrwt>
<pdfrwt beam="1">  1        2 0.29028308E+00 0.77885954E+03</pdfrwt>
<pdfrwt beam="2">  1       -2 0.55209168E-01 0.77885954E+03</pdfrwt>
<totfact> 0.24467241E+01</totfact>
</mgrwt>
</event>
<event>
 4    2  0.3388003E-007  0.6668003E+03  0.7818608E-02  0.1018069E+00
         -2   -1    0    0    0  501 -0.00000000000E+00  0.00000000000E+00  0.77986175621E+03  0.77986175621E+03  0.25500000000E-02 0.  1.
          2   -1    0    0  501    0  0.00000000000E+00 -0.00000000000E+00 -0.32279855344E+03  0.32279855345E+03  0.25500000000E-02 0. -1.
    8880023    1    1    2    0    0 -0.82174260785E+02  0.63716367264E+02  0.57736910005E+03  0.88203042382E+03  0.65864270000E+03 0.  1.
    8880022    1    1    2    0    0  0.82174260785E+02 -0.63716367264E+02 -0.12030589728E+03  0.22062988584E+03  0.15294330000E+03 0.  0.
<mgrwt>
<rscale>  0 0.48390097E+03</rscale>
<asrwt>0</asrwt>
<pdfrwt beam="1">  1        2 0.49661316E-01 0.66680026E+03</pdfrwt>
<pdfrwt beam="2">  1       -2 0.11997873E+00 0.66680026E+03</pdfrwt>
<totfact> 0.54587495E+01</totfact>
</mgrwt>
</event>
<event>
 4    2  0.3388003E-007  0.7785754E+03  0.7818608E-02  0.9759194E-01
          2   -1    0    0  501    0  0.00000000000E+00  0.00000000000E+00  0.35195628085E+04  0.35195628085E+04  0.25500000000E-02 0. -1.
         -2   -1    0    0    0  501 -0.00000000000E+00 -0.00000000000E+00 -0.35892119095E+03  0.35892119096E+03  0.25500000000E-02 0.  1.
    8880023    1    1    2    0    0  0.41394334596E+03 -0.31942691543E+02  0.98776217016E+02  0.78481614186E+03  0.65864270000E+03 0.  1.
    8880022    1    1    2    0    0 -0.41394334596E+03  0.31942691543E+02  0.30618654005E+04  0.30936678576E+04  0.15294330000E+03 0.  0.
<mgrwt>
<rscale>  0 0.67599160E+03</rscale>
<asrwt>0</asrwt>
<pdfrwt beam="1">  1        2 0.54147121E+00 0.77857539E+03</pdfrwt>
<pdfrwt beam="2">  1       -2 0.55218643E-01 0.77857539E+03</pdfrwt>
<totfact> 0.26249434E+00</totfact>
</mgrwt>
</event>
<event>
 4    2  0.3388003E-007  0.7582429E+03  0.7818608E-02  0.9809678E-01
          2   -1    0    0  501    0  0.00000000000E+00  0.00000000000E+00  0.85208875717E+03  0.85208875718E+03  0.25500000000E-02 0. -1.
         -2   -1    0    0    0  501 -0.00000000000E+00 -0.00000000000E+00 -0.65423524144E+03  0.65423524145E+03  0.25500000000E-02 0.  1.
    8880023    1    1    2    0    0 -0.13816837056E+03 -0.34933029818E+03 -0.34140179185E+03  0.83155730145E+03  0.65864270000E+03 0.  1.
    8880022    1    1    2    0    0  0.13816837056E+03  0.34933029818E+03  0.53925530758E+03  0.67476669718E+03  0.15294330000E+03 0.  0.
<mgrwt>
<rscale>  0 0.64845759E+03</rscale>
<asrwt>0</asrwt>
<pdfrwt beam="1">  1        2 0.13109058E+00 0.75824294E+03</pdfrwt>
<pdfrwt beam="2">  1       -2 0.10065158E+00 0.75824294E+03</pdfrwt>
<totfact> 0.26087514E+01</totfact>
</mgrwt>
</event>
<event>
 4    2  0.3388003E-007  0.9475122E+03  0.7818608E-02  0.9453703E-01
         -2   -1    0    0    0  501 -0.00000000000E+00  0.00000000000E+00  0.33359784107E+03  0.33359784108E+03  0.25500000000E-02 0.  1.
          2   -1    0    0  501    0  0.00000000000E+00 -0.00000000000E+00 -0.27082702103E+04  0.27082702103E+04  0.25500000000E-02 0. -1.
    8880023    1    1    2    0    0 -0.17657769895E+02 -0.68092394533E+03 -0.20770477612E+04  0.22829601015E+04  0.65864270000E+03 0.  0.
    8880022    1    1    2    0    0  0.17657769895E+02  0.68092394533E+03 -0.29762460801E+03  0.75890794993E+03  0.15294330000E+03 0.  0.
<mgrwt>
<rscale>  0 0.87784926E+03</rscale>
<asrwt>0</asrwt>
<pdfrwt beam="1">  1        2 0.41665694E+00 0.94751223E+03</pdfrwt>
<pdfrwt beam="2">  1       -2 0.51322747E-01 0.94751223E+03</pdfrwt>
<totfact> 0.96384179E+00</totfact>
</mgrwt>
</event>
<event>
 4    2  0.3388003E-007  0.7574711E+03  0.7818608E-02  0.9811699E-01
         -2   -1    0    0    0  501 -0.00000000000E+00  0.00000000000E+00  0.56198323394E+03  0.56198323395E+03  0.25500000000E-02 0.  1.
          2   -1    0    0  501    0  0.00000000000E+00 -0.00000000000E+00 -0.62751714993E+03  0.62751714993E+03  0.25500000000E-02 0. -1.
    8880023    1    1    2    0    0 -0.69687689100E+02 -0.36755400223E+03  0.76004823010E+02  0.76127475852E+03  0.65864270000E+03 0.  1.
    8880022    1    1    2    0    0  0.69687689100E+02  0.36755400223E+03 -0.14153873899E+03  0.42822562537E+03  0.15294330000E+03 0. -1.
<mgrwt>
<rscale>  0 0.64738474E+03</rscale>
<asrwt>0</asrwt>
<pdfrwt beam="1">  1        2 0.96541100E-01 0.75747114E+03</pdfrwt>
<pdfrwt beam="2">  1       -2 0.86458959E-01 0.75747114E+03</pdfrwt>
<totfact> 0.55065875E+01</totfact>
</mgrwt>
</event>
<event>
 4    2  0.3388003E-007  0.9335109E+03  0.7818608E-02  0.9474246E-01
         -2   -1    0    0    0  501 -0.00000000000E+00  0.00000000000E+00  0.50567563989E+03  0.50567563990E+03  0.25500000000E-02 0.  1.
          2   -1    0    0  501    0  0.00000000000E+00 -0.00000000000E+00 -0.16263345078E+04  0.16263345078E+04  0.25500000000E-02 0. -1.
    8880023    1    1    2    0    0  0.35353341805E+03 -0.55914797905E+03 -0.14704806162E+03  0.94502152295E+03  0.65864270000E+03 0.  0.
    8880022    1    1    2    0    0 -0.35353341805E+03  0.55914797905E+03 -0.97361080630E+03  0.11869886248E+04  0.15294330000E+03 0.  0.
<mgrwt>
<rscale>  0 0.86209470E+03</rscale>
<asrwt>0</asrwt>
<pdfrwt beam="1">  1        2 0.25020531E+00 0.93351087E+03</pdfrwt>
<pdfrwt beam="2">  1       -2 0.77796253E-01 0.93351087E+03</pdfrwt>
<totfact> 0.15943668E+01</totfact>
</mgrwt>
</event>
<event>
 4    2  0.3388003E-007  0.6760107E+03  0.7818608E-02  0.1011677E+00
          2   -1    0    0  501    0  0.00000000000E+00  0.00000000000E+00  0.17230942202E+04  0.17230942202E+04  0.25500000000E-02 0. -1.
         -2   -1    0    0    0  501 -0.00000000000E+00 -0.00000000000E+00 -0.23668107673E+03  0.23668107674E+03  0.25500000000E-02 0.  1.
    8880023    1    1    2    0    0  0.13332527129E+03  0.73515954363E+02  0.27584803105E+03  0.73012503450E+03  0.65864270000E+03 0.  1.
    8880022    1    1    2    0    0 -0.13332527129E+03 -0.73515954363E+02  0.12105651124E+04  0.12296502624E+04  0.15294330000E+03 0.  0.
<mgrwt>
<rscale>  0 0.50813678E+03</rscale>
<asrwt>0</asrwt>
<pdfrwt beam="1">  1        2 0.26509141E+00 0.67601067E+03</pdfrwt>
<pdfrwt beam="2">  1       -2 0.36412474E-01 0.67601067E+03</pdfrwt>
<totfact> 0.69746102E+01</totfact>
</mgrwt>
</event>
<event>
 4    2  0.3388003E-007  0.8283764E+03  0.7818608E-02  0.9652500E-01
          2   -1    0    0  501    0  0.00000000000E+00  0.00000000000E+00  0.13570026220E+04  0.13570026220E+04  0.25500000000E-02 0. -1.
         -2   -1    0    0    0  501 -0.00000000000E+00 -0.00000000000E+00 -0.40363768795E+03  0.40363768796E+03  0.25500000000E-02 0.  1.
    8880023    1    1    2    0    0 -0.17530662114E+03 -0.47081304399E+03  0.21723707551E+03  0.85638746316E+03  0.65864270000E+03 0.  0.
    8880022    1    1    2    0    0  0.17530662114E+03  0.47081304399E+03  0.73612785850E+03  0.90425284676E+03  0.15294330000E+03 0.  0.
<mgrwt>
<rscale>  0 0.73916760E+03</rscale>
<asrwt>0</asrwt>
<pdfrwt beam="1">  1        2 0.20876963E+00 0.82837645E+03</pdfrwt>
<pdfrwt beam="2">  1       -2 0.62098107E-01 0.82837645E+03</pdfrwt>
<totfact> 0.37342670E+01</totfact>
</mgrwt>
</event>
<event>
 4    2  0.3388003E-007  0.7947410E+03  0.7818608E-02  0.9722285E-01
         -2   -1    0    0    0  501 -0.00000000000E+00  0.00000000000E+00  0.38527114518E+03  0.38527114519E+03  0.25500000000E-02 0.  1.
          2   -1    0    0  501    0  0.00000000000E+00 -0.00000000000E+00 -0.16657286777E+04  0.16657286777E+04  0.25500000000E-02 0. -1.
    8880023    1    1    2    0    0 -0.26825860762E+03 -0.35473985204E+03 -0.13588538485E+04  0.15741972656E+04  0.65864270000E+03 0. -1.
    8880022    1    1    2    0    0  0.26825860762E+03  0.35473985204E+03  0.78396316043E+02  0.47680255722E+03  0.15294330000E+03 0.  0.
<mgrwt>
<rscale>  0 0.69705340E+03</rscale>
<asrwt>0</asrwt>
<pdfrwt beam="1">  1        2 0.25626595E+00 0.79474100E+03</pdfrwt>
<pdfrwt beam="2">  1       -2 0.59272485E-01 0.79474100E+03</pdfrwt>
<totfact> 0.27805346E+01</totfact>
</mgrwt>
</event>
<event>
 4    2  0.3388003E-007  0.1437478E+04  0.7818608E-02  0.8955095E-01
         -2   -1    0    0    0  501 -0.00000000000E+00  0.00000000000E+00  0.16563362095E+04  0.16563362095E+04  0.25500000000E-02 0.  1.
          2   -1    0    0  501    0  0.00000000000E+00 -0.00000000000E+00 -0.16613393507E+04  0.16613393507E+04  0.25500000000E-02 0. -1.
    8880023    1    1    2    0    0 -0.30790699657E+03  0.12400509484E+04  0.94314845663E+03  0.17192650438E+04  0.65864270000E+03 0.  0.
    8880022    1    1    2    0    0  0.30790699657E+03 -0.12400509484E+04 -0.94815159785E+03  0.15984105164E+04  0.15294330000E+03 0.  0.
<mgrwt>
<rscale>  0 0.13982377E+04</rscale>
<asrwt>0</asrwt>
<pdfrwt beam="1">  1        2 0.25559067E+00 0.14374781E+04</pdfrwt>
<pdfrwt beam="2">  1       -2 0.25482096E+00 0.14374781E+04</pdfrwt>
<totfact> 0.58474164E-01</totfact>
</mgrwt>
</event>
<event>
 4    2  0.3388003E-007  0.6653017E+03  0.7818608E-02  0.1019282E+00
         -2   -1    0    0    0  501 -0.00000000000E+00  0.00000000000E+00  0.32458851669E+03  0.32458851670E+03  0.25500000000E-02 0.  1.
          2   -1    0    0  501    0  0.00000000000E+00 -0.00000000000E+00 -0.86697364848E+03  0.86697364848E+03  0.25500000000E-02 0. -1.
    8880023    1    1    2    0    0 -0.78637569436E+02  0.51306282504E+02 -0.49638471965E+02  0.66715094702E+03  0.65864270000E+03 0.  1.
    8880022    1    1    2    0    0  0.78637569436E+02 -0.51306282504E+02 -0.49274665982E+03  0.52441121816E+03  0.15294330000E+03 0.  0.
<mgrwt>
<rscale>  0 0.47946755E+03</rscale>
<asrwt>0</asrwt>
<pdfrwt beam="1">  1        2 0.13338056E+00 0.66530174E+03</pdfrwt>
<pdfrwt beam="2">  1       -2 0.49936695E-01 0.66530174E+03</pdfrwt>
<totfact> 0.11930119E+02</totfact>
</mgrwt>
</event>
<event>
 4    2  0.3388003E-007  0.7032830E+03  0.7818608E-02  0.9983845E-01
         -2   -1    0    0    0  501 -0.00000000000E+00  0.00000000000E+00  0.29599739493E+03  0.29599739494E+03  0.25500000000E-02 0.  1.
          2   -1    0    0  501    0  0.00000000000E+00 -0.00000000000E+00 -0.11440212568E+04  0.11440212568E+04  0.25500000000E-02 0. -1.
    8880023    1    1    2    0    0  0.21004975972E+03 -0.12913486495E+03 -0.20182811773E+03  0.73167035629E+03  0.65864270000E+03 0.  0.
    8880022    1    1    2    0    0 -0.21004975972E+03  0.12913486495E+03 -0.64619574418E+03  0.70834829548E+03  0.15294330000E+03 0. -1.
<mgrwt>
<rscale>  0 0.56364295E+03</rscale>
<asrwt>0</asrwt>
<pdfrwt beam="1">  1        2 0.17600327E+00 0.70328296E+03</pdfrwt>
<pdfrwt beam="2">  1       -2 0.45538061E-01 0.70328296E+03</pdfrwt>
<totfact> 0.95378797E+01</totfact>
</mgrwt>
</event>
<event>
 4    2  0.3388003E-007  0.7127486E+03  0.7818608E-02  0.9947933E-01
          2   -1    0    0  501    0  0.00000000000E+00  0.00000000000E+00  0.18857603397E+04  0.18857603397E+04  0.25500000000E-02 0. -1.
         -2   -1    0    0    0  501 -0.00000000000E+00 -0.00000000000E+00 -0.17181583100E+03  0.17181583102E+03  0.25500000000E-02 0.  1.
    8880023    1    1    2    0    0 -0.15751364991E+03  0.22223814065E+03  0.70954600888E+03  0.10057167027E+04  0.65864270000E+03 0.  0.
    8880022    1    1    2    0    0  0.15751364991E+03 -0.22223814065E+03  0.10043984998E+04  0.10518594680E+04  0.15294330000E+03 0.  0.
<mgrwt>
<rscale>  0 0.57993464E+03</rscale>
<asrwt>0</asrwt>
<pdfrwt beam="1">  1        2 0.29011696E+00 0.71274859E+03</pdfrwt>
<pdfrwt beam="2">  1       -2 0.26433206E-01 0.71274859E+03</pdfrwt>
<totfact> 0.10294670E+02</totfact>
</mgrwt>
</event>
<event>
 4    2  0.3388003E-007  0.6606429E+03  0.7818608E-02  0.1023507E+00
         -2   -1    0    0    0  501 -0.00000000000E+00  0.00000000000E+00  0.70835811069E+03  0.70835811070E+03  0.25500000000E-02 0.  1.
          2   -1    0    0  501    0  0.00000000000E+00 -0.00000000000E+00 -0.76490762048E+03  0.76490762048E+03  0.25500000000E-02 0. -1.
    8880023    1    1    2    0    0 -0.31077970843E+02  0.40901689494E+02  0.54126718746E+03  0.85406039772E+03  0.65864270000E+03 0.  0.
    8880022    1    1    2    0    0  0.31077970843E+02 -0.40901689494E+02 -0.59781669724E+03  0.61920533346E+03  0.15294330000E+03 0.  0.
<mgrwt>
<rscale>  0 0.46441929E+03</rscale>
<asrwt>0</asrwt>
<pdfrwt beam="1">  1        2 0.11767810E+00 0.66064286E+03</pdfrwt>
<pdfrwt beam="2">  1       -2 0.10897817E+00 0.66064286E+03</pdfrwt>
<totfact> 0.25126263E+01</totfact>
</mgrwt>
</event>
<event>
 4    2  0.3388003E-007  0.6643992E+03  0.7818608E-02  0.1020043E+00
         -2   -1    0    0    0  501 -0.00000000000E+00  0.00000000000E+00  0.30356414497E+03  0.30356414498E+03  0.25500000000E-02 0.  1.
          2   -1    0    0  501    0  0.00000000000E+00 -0.00000000000E+00 -0.72268616343E+03  0.72268616344E+03  0.25500000000E-02 0. -1.
    8880023    1    1    2    0    0 -0.85565445114E+02 -0.17166511364E+02 -0.11421069950E+03  0.67414421651E+03  0.65864270000E+03 0.  1.
    8880022    1    1    2    0    0  0.85565445114E+02  0.17166511364E+02 -0.30491131896E+03  0.35210609190E+03  0.15294330000E+03 0.  0.
<mgrwt>
<rscale>  0 0.47671157E+03</rscale>
<asrwt>0</asrwt>
<pdfrwt beam="1">  1        2 0.11118249E+00 0.66439923E+03</pdfrwt>
<pdfrwt beam="2">  1       -2 0.46702176E-01 0.66439923E+03</pdfrwt>
<totfact> 0.17353140E+02</totfact>
</mgrwt>
</event>
<event>
 4    2  0.3388003E-007  0.6698758E+03  0.7818608E-02  0.1015752E+00
          2   -1    0    0  501    0  0.00000000000E+00  0.00000000000E+00  0.22430972350E+04  0.22430972350E+04  0.25500000000E-02 0. -1.
         -2   -1    0    0    0  501 -0.00000000000E+00 -0.00000000000E+00 -0.19676550991E+03  0.19676550993E+03  0.25500000000E-02 0.  1.
    8880023    1    1    2    0    0  0.11869243562E+03 -0.28905495506E+02  0.39642861521E+03  0.77838889712E+03  0.65864270000E+03 0.  1.
    8880022    1    1    2    0    0 -0.11869243562E+03  0.28905495506E+02  0.16499031099E+04  0.16614738478E+04  0.15294330000E+03 0.  0.
<mgrwt>
<rscale>  0 0.49251214E+03</rscale>
<asrwt>0</asrwt>
<pdfrwt beam="1">  1        2 0.34509185E+00 0.66987583E+03</pdfrwt>
<pdfrwt beam="2">  1       -2 0.30271619E-01 0.66987583E+03</pdfrwt>
<totfact> 0.51474575E+01</totfact>
</mgrwt>
</event>
<event>
 4    2  0.3388003E-007  0.8347628E+03  0.7818608E-02  0.9640136E-01
         -2   -1    0    0    0  501 -0.00000000000E+00  0.00000000000E+00  0.48950635163E+04  0.48950635163E+04  0.25500000000E-02 0.  1.
          2   -1    0    0  501    0  0.00000000000E+00 -0.00000000000E+00 -0.75630078469E+03  0.75630078469E+03  0.25500000000E-02 0. -1.
    8880023    1    1    2    0    0 -0.44952664208E+02  0.51087953930E+03  0.47592855828E+04  0.48319383388E+04  0.65864270000E+03 0.  1.
    8880022    1    1    2    0    0  0.44952664208E+02 -0.51087953930E+03 -0.62052285114E+03  0.81942596218E+03  0.15294330000E+03 0.  0.
<mgrwt>
<rscale>  0 0.74695747E+03</rscale>
<asrwt>0</asrwt>
<pdfrwt beam="1">  1        2 0.11635396E+00 0.83476275E+03</pdfrwt>
<pdfrwt beam="2">  1       -2 0.75308673E+00 0.83476275E+03</pdfrwt>
<totfact> 0.55770614E-03</totfact>
</mgrwt>
</event>
<event>
 4    2  0.3388003E-007  0.6981560E+03  0.7818608E-02  0.1000494E+00
         -2   -1    0    0    0  501 -0.00000000000E+00  0.00000000000E+00  0.21495749067E+03  0.21495749068E+03  0.25500000000E-02 0.  1.
          2   -1    0    0  501    0  0.00000000000E+00 -0.00000000000E+00 -0.18857656236E+04  0.18857656236E+04  0.25500000000E-02 0. -1.
    8880023    1    1    2    0    0 -0.92795246454E+02 -0.21213358565E+03 -0.40979628926E+03  0.80953988220E+03  0.65864270000E+03 0.  1.
    8880022    1    1    2    0    0  0.92795246454E+02  0.21213358565E+03 -0.12610118437E+04  0.12911832321E+04  0.15294330000E+03 0.  0.
<mgrwt>
<rscale>  0 0.55434229E+03</rscale>
<asrwt>0</asrwt>
<pdfrwt beam="1">  1        2 0.29011778E+00 0.69815602E+03</pdfrwt>
<pdfrwt beam="2">  1       -2 0.33070384E-01 0.69815602E+03</pdfrwt>
<totfact> 0.68125405E+01</totfact>
</mgrwt>
</event>
<event>
 4    2  0.3388003E-007  0.7369319E+03  0.7818608E-02  0.9868976E-01
          2   -1    0    0  501    0  0.00000000000E+00  0.00000000000E+00  0.31360488427E+03  0.31360488428E+03  0.25500000000E-02 0. -1.
         -2   -1    0    0    0  501 -0.00000000000E+00 -0.00000000000E+00 -0.12734673164E+04  0.12734673164E+04  0.25500000000E-02 0.  1.
    8880023    1    1    2    0    0 -0.31227337512E+03  0.10836872478E+03 -0.97545066853E+03  0.12225271589E+04  0.65864270000E+03 0.  0.
    8880022    1    1    2    0    0  0.31227337512E+03 -0.10836872478E+03  0.15588236426E+02  0.36454504173E+03  0.15294330000E+03 0.  0.
<mgrwt>
<rscale>  0 0.61788687E+03</rscale>
<asrwt>0</asrwt>
<pdfrwt beam="1">  1        2 0.48246906E-01 0.73693192E+03</pdfrwt>
<pdfrwt beam="2">  1       -2 0.19591805E+00 0.73693192E+03</pdfrwt>
<totfact> 0.15056224E+01</totfact>
</mgrwt>
</event>
<event>
 4    2  0.3388003E-007  0.6680706E+03  0.7818608E-02  0.1017085E+00
          2   -1    0    0  501    0  0.00000000000E+00  0.00000000000E+00  0.28764056458E+04  0.28764056458E+04  0.25500000000E-02 0. -1.
         -2   -1    0    0    0  501 -0.00000000000E+00 -0.00000000000E+00 -0.16920024313E+03  0.16920024315E+03  0.25500000000E-02 0.  1.
    8880023    1    1    2    0    0  0.10656162206E+03  0.33952614920E+02  0.51061855392E+03  0.84086245797E+03  0.65864270000E+03 0.  1.
    8880022    1    1    2    0    0 -0.10656162206E+03 -0.33952614920E+02  0.21965868487E+04  0.22047434310E+04  0.15294330000E+03 0.  0.
<mgrwt>
<rscale>  0 0.48753220E+03</rscale>
<asrwt>0</asrwt>
<pdfrwt beam="1">  1        2 0.44252393E+00 0.66807063E+03</pdfrwt>
<pdfrwt beam="2">  1       -2 0.26030808E-01 0.66807063E+03</pdfrwt>
<totfact> 0.29545683E+01</totfact>
</mgrwt>
</event>
<event>
 4    2  0.3388003E-007  0.6707006E+03  0.7818608E-02  0.1015166E+00
         -2   -1    0    0    0  501 -0.00000000000E+00  0.00000000000E+00  0.81317346396E+03  0.81317346397E+03  0.25500000000E-02 0.  1.
          2   -1    0    0  501    0  0.00000000000E+00 -0.00000000000E+00 -0.44129844832E+03  0.44129844833E+03  0.25500000000E-02 0. -1.
    8880023    1    1    2    0    0  0.12613891727E+03  0.10862924582E+02  0.63582606177E+03  0.92418289136E+03  0.65864270000E+03 0.  1.
    8880022    1    1    2    0    0 -0.12613891727E+03 -0.10862924582E+02 -0.26395104614E+03  0.33028902094E+03  0.15294330000E+03 0.  0.
<mgrwt>
<rscale>  0 0.49472290E+03</rscale>
<asrwt>0</asrwt>
<pdfrwt beam="1">  1        2 0.67892070E-01 0.67070056E+03</pdfrwt>
<pdfrwt beam="2">  1       -2 0.12510361E+00 0.67070056E+03</pdfrwt>
<totfact> 0.34643247E+01</totfact>
</mgrwt>
</event>
<event>
 4    2  0.3388003E-007  0.6654042E+03  0.7818608E-02  0.1019197E+00
          2   -1    0    0  501    0  0.00000000000E+00  0.00000000000E+00  0.36436889783E+03  0.36436889784E+03  0.25500000000E-02 0. -1.
         -2   -1    0    0    0  501 -0.00000000000E+00 -0.00000000000E+00 -0.78760148300E+03  0.78760148301E+03  0.25500000000E-02 0.  1.
    8880023    1    1    2    0    0  0.67004342129E+02  0.66805243763E+02 -0.60278526937E+03  0.89783785267E+03  0.65864270000E+03 0.  1.
    8880022    1    1    2    0    0 -0.67004342129E+02 -0.66805243763E+02  0.17955268420E+03  0.25413252817E+03  0.15294330000E+03 0.  0.
<mgrwt>
<rscale>  0 0.47977615E+03</rscale>
<asrwt>0</asrwt>
<pdfrwt beam="1">  1        2 0.56056754E-01 0.66540418E+03</pdfrwt>
<pdfrwt beam="2">  1       -2 0.12116946E+00 0.66540418E+03</pdfrwt>
<totfact> 0.46550794E+01</totfact>
</mgrwt>
</event>
<event>
 4    2  0.3388003E-007  0.8341798E+03  0.7818608E-02  0.9641254E-01
         -2   -1    0    0    0  501 -0.00000000000E+00  0.00000000000E+00  0.41424355505E+03  0.41424355506E+03  0.25500000000E-02 0.  1.
          2   -1    0    0  501    0  0.00000000000E+00 -0.00000000000E+00 -0.12147830771E+04  0.12147830771E+04  0.25500000000E-02 0. -1.
    8880023    1    1    2    0    0 -0.38246705376E+03 -0.34024208812E+03 -0.27175766958E+03  0.87733013340E+03  0.65864270000E+03 0.  1.
    8880022    1    1    2    0    0  0.38246705376E+03  0.34024208812E+03 -0.52878185250E+03  0.75169649879E+03  0.15294330000E+03 0.  0.
<mgrwt>
<rscale>  0 0.74624873E+03</rscale>
<asrwt>0</asrwt>
<pdfrwt beam="1">  1        2 0.18688970E+00 0.83417980E+03</pdfrwt>
<pdfrwt beam="2">  1       -2 0.63729778E-01 0.83417980E+03</pdfrwt>
<totfact> 0.42710610E+01</totfact>
</mgrwt>
</event>
<event>
 4    2  0.3388003E-007  0.6913989E+03  0.7818608E-02  0.1003495E+00
          2   -1    0    0  501    0  0.00000000000E+00  0.00000000000E+00  0.25154533490E+04  0.25154533490E+04  0.25500000000E-02 0. -1.
         -2   -1    0    0    0  501 -0.00000000000E+00 -0.00000000000E+00 -0.23211467918E+03  0.23211467919E+03  0.25500000000E-02 0.  1.
    8880023    1    1    2    0    0 -0.17735757491E+03  0.11298894773E+03  0.31093508488E+03  0.75809830824E+03  0.65864270000E+03 0.  1.
    8880022    1    1    2    0    0  0.17735757491E+03 -0.11298894773E+03  0.19724035850E+04  0.19894697200E+04  0.15294330000E+03 0.  0.
<mgrwt>
<rscale>  0 0.54144080E+03</rscale>
<asrwt>0</asrwt>
<pdfrwt beam="1">  1        2 0.38699283E+00 0.69139888E+03</pdfrwt>
<pdfrwt beam="2">  1       -2 0.35709950E-01 0.69139888E+03</pdfrwt>
<totfact> 0.26493251E+01</totfact>
</mgrwt>
</event>
<event>
 4    2  0.3388003E-007  0.8593712E+03  0.7818608E-02  0.9594683E-01
         -2   -1    0    0    0  501 -0.00000000000E+00  0.00000000000E+00  0.84605001200E+03  0.84605001200E+03  0.25500000000E-02 0.  1.
          2   -1    0    0  501    0  0.00000000000E+00 -0.00000000000E+00 -0.78833585729E+03  0.78833585729E+03  0.25500000000E-02 0. -1.
    8880023    1    1    2    0    0  0.27197936418E+03  0.48034968886E+03  0.42012056306E+03  0.95656682563E+03  0.65864270000E+03 0.  1.
    8880022    1    1    2    0    0 -0.27197936418E+03 -0.48034968886E+03 -0.36240640835E+03  0.67781904366E+03  0.15294330000E+03 0.  0.
<mgrwt>
<rscale>  0 0.77649096E+03</rscale>
<asrwt>0</asrwt>
<pdfrwt beam="1">  1        2 0.12128244E+00 0.85937117E+03</pdfrwt>
<pdfrwt beam="2">  1       -2 0.13016154E+00 0.85937117E+03</pdfrwt>
<totfact> 0.15273429E+01</totfact>
</mgrwt>
</event>
<event>
 4    2  0.3388003E-007  0.9978540E+03  0.7818608E-02  0.9384371E-01
         -2   -1    0    0    0  501 -0.00000000000E+00  0.00000000000E+00  0.83124074307E+03  0.83124074307E+03  0.25500000000E-02 0.  1.
          2   -1    0    0  501    0  0.00000000000E+00 -0.00000000000E+00 -0.14342374729E+04  0.14342374729E+04  0.25500000000E-02 0. -1.
    8880023    1    1    2    0    0 -0.72924321615E+03  0.17351273552E+03  0.33725282942E+03  0.10533052810E+04  0.65864270000E+03 0.  0.
    8880022    1    1    2    0    0  0.72924321615E+03 -0.17351273552E+03 -0.94024955927E+03  0.12121729350E+04  0.15294330000E+03 0.  0.
<mgrwt>
<rscale>  0 0.93373148E+03</rscale>
<asrwt>0</asrwt>
<pdfrwt beam="1">  1        2 0.22065192E+00 0.99785397E+03</pdfrwt>
<pdfrwt beam="2">  1       -2 0.12788319E+00 0.99785397E+03</pdfrwt>
<totfact> 0.62210759E+00</totfact>
</mgrwt>
</event>
<event>
 4    2  0.3388003E-007  0.1023178E+04  0.7818608E-02  0.9351842E-01
         -2   -1    0    0    0  501 -0.00000000000E+00  0.00000000000E+00  0.14929422242E+04  0.14929422242E+04  0.25500000000E-02 0.  1.
          2   -1    0    0  501    0  0.00000000000E+00 -0.00000000000E+00 -0.10155798789E+04  0.10155798789E+04  0.25500000000E-02 0. -1.
    8880023    1    1    2    0    0 -0.49340067049E+03 -0.60797984708E+03  0.10957051916E+04  0.14991543581E+04  0.65864270000E+03 0.  1.
    8880022    1    1    2    0    0  0.49340067049E+03  0.60797984708E+03 -0.61834284627E+03  0.10093677450E+04  0.15294330000E+03 0.  0.
<mgrwt>
<rscale>  0 0.96147103E+03</rscale>
<asrwt>0</asrwt>
<pdfrwt beam="1">  1        2 0.15624306E+00 0.10231783E+04</pdfrwt>
<pdfrwt beam="2">  1       -2 0.22968342E+00 0.10231783E+04</pdfrwt>
<totfact> 0.20968627E+00</totfact>
</mgrwt>
</event>
<event>
 4    2  0.3388003E-007  0.7196567E+03  0.7818608E-02  0.9923749E-01
          2   -1    0    0  501    0  0.00000000000E+00  0.00000000000E+00  0.30499214404E+03  0.30499214405E+03  0.25500000000E-02 0. -1.
         -2   -1    0    0    0  501 -0.00000000000E+00 -0.00000000000E+00 -0.19873620299E+04  0.19873620299E+04  0.25500000000E-02 0.  1.
    8880023    1    1    2    0    0  0.27527700282E+03  0.91203598944E+02 -0.18043292795E+04  0.19425524137E+04  0.65864270000E+03 0.  1.
    8880022    1    1    2    0    0 -0.27527700282E+03 -0.91203598944E+02  0.12195939368E+03  0.34980176023E+03  0.15294330000E+03 0.  0.
<mgrwt>
<rscale>  0 0.59123972E+03</rscale>
<asrwt>0</asrwt>
<pdfrwt beam="1">  1        2 0.46921870E-01 0.71965668E+03</pdfrwt>
<pdfrwt beam="2">  1       -2 0.30574800E+00 0.71965668E+03</pdfrwt>
<totfact> 0.33028125E+00</totfact>
</mgrwt>
</event>
<event>
 4    2  0.3388003E-007  0.6874051E+03  0.7818608E-02  0.1005411E+00
          2   -1    0    0  501    0  0.00000000000E+00  0.00000000000E+00  0.13351306418E+04  0.13351306418E+04  0.25500000000E-02 0. -1.
         -2   -1    0    0    0  501 -0.00000000000E+00 -0.00000000000E+00 -0.30199743547E+03  0.30199743548E+03  0.25500000000E-02 0.  1.
    8880023    1    1    2    0    0 -0.18185864023E+03  0.75120143139E+02  0.12916334364E+03  0.69943475502E+03  0.65864270000E+03 0.  1.
    8880022    1    1    2    0    0  0.18185864023E+03 -0.75120143139E+02  0.90396986265E+03  0.93769332221E+03  0.15294330000E+03 0.  0.
<mgrwt>
<rscale>  0 0.53339921E+03</rscale>
<asrwt>0</asrwt>
<pdfrwt beam="1">  1        2 0.20540471E+00 0.68740513E+03</pdfrwt>
<pdfrwt beam="2">  1       -2 0.46461144E-01 0.68740513E+03</pdfrwt>
<totfact> 0.70950376E+01</totfact>
</mgrwt>
</event>
<event>
 4    2  0.3388003E-007  0.7675750E+03  0.7818608E-02  0.9785877E-01
          2   -1    0    0  501    0  0.00000000000E+00  0.00000000000E+00  0.28286110448E+04  0.28286110448E+04  0.25500000000E-02 0. -1.
         -2   -1    0    0    0  501 -0.00000000000E+00 -0.00000000000E+00 -0.15494378312E+03  0.15494378314E+03  0.25500000000E-02 0.  1.
    8880023    1    1    2    0    0 -0.32032085924E+03  0.22968609135E+03  0.10191232127E+04  0.12758461829E+04  0.65864270000E+03 0.  1.
    8880022    1    1    2    0    0  0.32032085924E+03 -0.22968609135E+03  0.16545440490E+04  0.17077086451E+04  0.15294330000E+03 0.  0.
<mgrwt>
<rscale>  0 0.66125995E+03</rscale>
<asrwt>0</asrwt>
<pdfrwt beam="1">  1        2 0.43517094E+00 0.76757499E+03</pdfrwt>
<pdfrwt beam="2">  1       -2 0.23837504E-01 0.76757499E+03</pdfrwt>
<totfact> 0.36390695E+01</totfact>
</mgrwt>
</event>
<event>
 4    2  0.3388003E-007  0.6709152E+03  0.7818608E-02  0.1015015E+00
         -2   -1    0    0    0  501 -0.00000000000E+00  0.00000000000E+00  0.51668340365E+03  0.51668340366E+03  0.25500000000E-02 0.  1.
          2   -1    0    0  501    0  0.00000000000E+00 -0.00000000000E+00 -0.38134941168E+03  0.38134941169E+03  0.25500000000E-02 0. -1.
    8880023    1    1    2    0    0 -0.58128679214E+02  0.11374558135E+03  0.27550714520E+02  0.67148063915E+03  0.65864270000E+03 0.  1.
    8880022    1    1    2    0    0  0.58128679214E+02 -0.11374558135E+03  0.10778327745E+03  0.22655217619E+03  0.15294330000E+03 0.  0.
<mgrwt>
<rscale>  0 0.49529206E+03</rscale>
<asrwt>0</asrwt>
<pdfrwt beam="1">  1        2 0.58669140E-01 0.67091520E+03</pdfrwt>
<pdfrwt beam="2">  1       -2 0.79489754E-01 0.67091520E+03</pdfrwt>
<totfact> 0.11932429E+02</totfact>
</mgrwt>
</event>
<event>
 4    2  0.3388003E-007  0.9620415E+03  0.7818608E-02  0.9432997E-01
          2   -1    0    0  501    0  0.00000000000E+00  0.00000000000E+00  0.19299285675E+04  0.19299285675E+04  0.25500000000E-02 0. -1.
         -2   -1    0    0    0  501 -0.00000000000E+00 -0.00000000000E+00 -0.42921323428E+03  0.42921323429E+03  0.25500000000E-02 0.  1.
    8880023    1    1    2    0    0  0.21901928457E+03  0.66614128639E+03  0.12936539209E+04  0.16121613858E+04  0.65864270000E+03 0.  0.
    8880022    1    1    2    0    0 -0.21901928457E+03 -0.66614128639E+03  0.20706141234E+03  0.74698041604E+03  0.15294330000E+03 0.  0.
<mgrwt>
<rscale>  0 0.89409232E+03</rscale>
<asrwt>0</asrwt>
<pdfrwt beam="1">  1        2 0.29691208E+00 0.96204151E+03</pdfrwt>
<pdfrwt beam="2">  1       -2 0.66032807E-01 0.96204151E+03</pdfrwt>
<totfact> 0.15520919E+01</totfact>
</mgrwt>
</event>
<event>
 4    2  0.3388003E-007  0.1038129E+04  0.7818608E-02  0.9333290E-01
         -2   -1    0    0    0  501 -0.00000000000E+00  0.00000000000E+00  0.10254128298E+04  0.10254128298E+04  0.25500000000E-02 0.  1.
          2   -1    0    0  501    0  0.00000000000E+00 -0.00000000000E+00 -0.97799366190E+03  0.97799366191E+03  0.25500000000E-02 0. -1.
    8880023    1    1    2    0    0  0.47124411040E+03 -0.64948413016E+03 -0.34926099125E+03  0.10953054794E+04  0.65864270000E+03 0. -1.
    8880022    1    1    2    0    0 -0.47124411040E+03  0.64948413016E+03  0.39668015917E+03  0.90810101234E+03  0.15294330000E+03 0.  1.
<mgrwt>
<rscale>  0 0.97775008E+03</rscale>
<asrwt>0</asrwt>
<pdfrwt beam="1">  1        2 0.15046056E+00 0.10381285E+04</pdfrwt>
<pdfrwt beam="2">  1       -2 0.15775582E+00 0.10381285E+04</pdfrwt>
<totfact> 0.67289290E+00</totfact>
</mgrwt>
</event>
<event>
 4    2  0.3388003E-007  0.8432656E+03  0.7818608E-02  0.9624053E-01
          2   -1    0    0  501    0  0.00000000000E+00  0.00000000000E+00  0.82686925501E+03  0.82686925502E+03  0.25500000000E-02 0. -1.
         -2   -1    0    0    0  501 -0.00000000000E+00 -0.00000000000E+00 -0.74595188147E+03  0.74595188148E+03  0.25500000000E-02 0.  1.
    8880023    1    1    2    0    0 -0.23940512724E+03 -0.46901157202E+03 -0.31103568071E+03  0.89879923819E+03  0.65864270000E+03 0.  0.
    8880022    1    1    2    0    0  0.23940512724E+03  0.46901157202E+03  0.39195305425E+03  0.67402189830E+03  0.15294330000E+03 0.  0.
<mgrwt>
<rscale>  0 0.75724437E+03</rscale>
<asrwt>0</asrwt>
<pdfrwt beam="1">  1        2 0.12721065E+00 0.84326560E+03</pdfrwt>
<pdfrwt beam="2">  1       -2 0.11476183E+00 0.84326560E+03</pdfrwt>
<totfact> 0.19647175E+01</totfact>
</mgrwt>
</event>
<event>
 4    2  0.3388003E-007  0.6989395E+03  0.7818608E-02  0.1000163E+00
          2   -1    0    0  501    0  0.00000000000E+00  0.00000000000E+00  0.13803630348E+04  0.13803630348E+04  0.25500000000E-02 0. -1.
         -2   -1    0    0    0  501 -0.00000000000E+00 -0.00000000000E+00 -0.17592569952E+03  0.17592569954E+03  0.25500000000E-02 0.  1.
    8880023    1    1    2    0    0 -0.72881446691E+02 -0.22224873644E+03  0.77183070249E+03  0.10412679990E+04  0.65864270000E+03 0.  1.
    8880022    1    1    2    0    0  0.72881446691E+02  0.22224873644E+03  0.43260663283E+03  0.51502073541E+03  0.15294330000E+03 0. -1.
<mgrwt>
<rscale>  0 0.55578852E+03</rscale>
<asrwt>0</asrwt>
<pdfrwt beam="1">  1        2 0.21236354E+00 0.69893949E+03</pdfrwt>
<pdfrwt beam="2">  1       -2 0.27065492E-01 0.69893949E+03</pdfrwt>
<totfact> 0.18740576E+02</totfact>
</mgrwt>
</event>
<event>
 4    2  0.3388003E-007  0.6929404E+03  0.7818608E-02  0.1002785E+00
          2   -1    0    0  501    0  0.00000000000E+00  0.00000000000E+00  0.40814735020E+03  0.40814735021E+03  0.25500000000E-02 0. -1.
         -2   -1    0    0    0  501 -0.00000000000E+00 -0.00000000000E+00 -0.58120209457E+03  0.58120209458E+03  0.25500000000E-02 0.  1.
    8880023    1    1    2    0    0 -0.21345938776E+03 -0.28130422424E+02 -0.20671073467E+03  0.72311531928E+03  0.65864270000E+03 0.  1.
    8880022    1    1    2    0    0  0.21345938776E+03  0.28130422424E+02  0.33655990294E+02  0.26623412551E+03  0.15294330000E+03 0.  0.
<mgrwt>
<rscale>  0 0.54445665E+03</rscale>
<asrwt>0</asrwt>
<pdfrwt beam="1">  1        2 0.62791900E-01 0.69294043E+03</pdfrwt>
<pdfrwt beam="2">  1       -2 0.89415707E-01 0.69294043E+03</pdfrwt>
<totfact> 0.84542019E+01</totfact>
</mgrwt>
</event>
<event>
 4    2  0.3388003E-007  0.6838433E+03  0.7818608E-02  0.1007228E+00
          2   -1    0    0  501    0  0.00000000000E+00  0.00000000000E+00  0.16179189110E+04  0.16179189110E+04  0.25500000000E-02 0. -1.
         -2   -1    0    0    0  501 -0.00000000000E+00 -0.00000000000E+00 -0.32466770569E+03  0.32466770570E+03  0.25500000000E-02 0.  1.
    8880023    1    1    2    0    0  0.17505165074E+03 -0.56465215698E+02  0.60135156195E+02  0.68648222430E+03  0.65864270000E+03 0.  1.
    8880022    1    1    2    0    0 -0.17505165074E+03  0.56465215698E+02  0.12331160492E+04  0.12561043924E+04  0.15294330000E+03 0.  0.
<mgrwt>
<rscale>  0 0.52591288E+03</rscale>
<asrwt>0</asrwt>
<pdfrwt beam="1">  1        2 0.24891060E+00 0.68384326E+03</pdfrwt>
<pdfrwt beam="2">  1       -2 0.49948877E-01 0.68384326E+03</pdfrwt>
<totfact> 0.42652573E+01</totfact>
</mgrwt>
</event>
<event>
 4    2  0.3388003E-007  0.1279160E+04  0.7818608E-02  0.9083768E-01
         -2   -1    0    0    0  501 -0.00000000000E+00  0.00000000000E+00  0.39292107786E+03  0.39292107786E+03  0.25500000000E-02 0.  1.
          2   -1    0    0  501    0  0.00000000000E+00 -0.00000000000E+00 -0.38362806230E+04  0.38362806230E+04  0.25500000000E-02 0. -1.
    8880023    1    1    2    0    0 -0.75684745829E+02  0.10939437501E+04 -0.23359656553E+04  0.26632662012E+04  0.65864270000E+03 0.  0.
    8880022    1    1    2    0    0  0.75684745829E+02 -0.10939437501E+04 -0.11073938898E+04  0.15659354997E+04  0.15294330000E+03 0.  0.
<mgrwt>
<rscale>  0 0.12338082E+04</rscale>
<asrwt>0</asrwt>
<pdfrwt beam="1">  1        2 0.59019699E+00 0.12791604E+04</pdfrwt>
<pdfrwt beam="2">  1       -2 0.60449399E-01 0.12791604E+04</pdfrwt>
<totfact> 0.11786948E+00</totfact>
</mgrwt>
</event>
<event>
 4    2  0.3388003E-007  0.6829102E+03  0.7818608E-02  0.1007723E+00
         -2   -1    0    0    0  501 -0.00000000000E+00  0.00000000000E+00  0.73060430439E+03  0.73060430439E+03  0.25500000000E-02 0.  1.
          2   -1    0    0  501    0  0.00000000000E+00 -0.00000000000E+00 -0.12702866748E+04  0.12702866748E+04  0.25500000000E-02 0. -1.
    8880023    1    1    2    0    0  0.16077623565E+03  0.81897297058E+02  0.55559107781E+03  0.88036800102E+03  0.65864270000E+03 0.  1.
    8880022    1    1    2    0    0 -0.16077623565E+03 -0.81897297058E+02 -0.10952734482E+04  0.11205229782E+04  0.15294330000E+03 0.  0.
<mgrwt>
<rscale>  0 0.52389663E+03</rscale>
<asrwt>0</asrwt>
<pdfrwt beam="1">  1        2 0.19542872E+00 0.68291022E+03</pdfrwt>
<pdfrwt beam="2">  1       -2 0.11240066E+00 0.68291022E+03</pdfrwt>
<totfact> 0.11048584E+01</totfact>
</mgrwt>
</event>
<event>
 4    2  0.3388003E-007  0.7279480E+03  0.7818608E-02  0.9896556E-01
          2   -1    0    0  501    0  0.00000000000E+00  0.00000000000E+00  0.66688539369E+03  0.66688539370E+03  0.25500000000E-02 0. -1.
         -2   -1    0    0    0  501 -0.00000000000E+00 -0.00000000000E+00 -0.43236701401E+03  0.43236701401E+03  0.25500000000E-02 0.  1.
    8880023    1    1    2    0    0  0.16271642266E+03 -0.26385868763E+03  0.17159748244E+03  0.74789968812E+03  0.65864270000E+03 0. -1.
    8880022    1    1    2    0    0 -0.16271642266E+03  0.26385868763E+03  0.62920897246E+02  0.35135271959E+03  0.15294330000E+03 0.  1.
<mgrwt>
<rscale>  0 0.60428465E+03</rscale>
<asrwt>0</asrwt>
<pdfrwt beam="1">  1        2 0.10259775E+00 0.72794797E+03</pdfrwt>
<pdfrwt beam="2">  1       -2 0.66518002E-01 0.72794797E+03</pdfrwt>
<totfact> 0.91660058E+01</totfact>
</mgrwt>
</event>
<event>
 4    2  0.3388003E-007  0.7540033E+03  0.7818608E-02  0.9820887E-01
          2   -1    0    0  501    0  0.00000000000E+00  0.00000000000E+00  0.46297302961E+03  0.46297302962E+03  0.25500000000E-02 0. -1.
         -2   -1    0    0    0  501 -0.00000000000E+00 -0.00000000000E+00 -0.79638931002E+03  0.79638931002E+03  0.25500000000E-02 0.  1.
    8880023    1    1    2    0    0 -0.32164489038E+03  0.17679197279E+03 -0.22032187199E+02  0.75432516906E+03  0.65864270000E+03 0. -1.
    8880022    1    1    2    0    0  0.32164489038E+03 -0.17679197279E+03 -0.31138409321E+03  0.50503717058E+03  0.15294330000E+03 0.  0.
<mgrwt>
<rscale>  0 0.64253574E+03</rscale>
<asrwt>0</asrwt>
<pdfrwt beam="1">  1        2 0.71226620E-01 0.75400334E+03</pdfrwt>
<pdfrwt beam="2">  1       -2 0.12252143E+00 0.75400334E+03</pdfrwt>
<totfact> 0.34334338E+01</totfact>
</mgrwt>
</event>
<event>
 4    2  0.3388003E-007  0.7029688E+03  0.7818608E-02  0.9985101E-01
          2   -1    0    0  501    0  0.00000000000E+00  0.00000000000E+00  0.18186086187E+04  0.18186086187E+04  0.25500000000E-02 0. -1.
         -2   -1    0    0    0  501 -0.00000000000E+00 -0.00000000000E+00 -0.30210272975E+03  0.30210272976E+03  0.25500000000E-02 0.  1.
    8880023    1    1    2    0    0 -0.44769492926E+02  0.24155878430E+03  0.14340579662E+03  0.71744712874E+03  0.65864270000E+03 0.  1.
    8880022    1    1    2    0    0  0.44769492926E+02 -0.24155878430E+03  0.13731000923E+04  0.14032642197E+04  0.15294330000E+03 0.  0.
<mgrwt>
<rscale>  0 0.56308369E+03</rscale>
<asrwt>0</asrwt>
<pdfrwt beam="1">  1        2 0.27978594E+00 0.70296882E+03</pdfrwt>
<pdfrwt beam="2">  1       -2 0.46477344E-01 0.70296882E+03</pdfrwt>
<totfact> 0.38239993E+01</totfact>
</mgrwt>
</event>
<event>
 4    2  0.3388003E-007  0.6718346E+03  0.7818608E-02  0.1014380E+00
         -2   -1    0    0    0  501 -0.00000000000E+00  0.00000000000E+00  0.27534107319E+03  0.27534107320E+03  0.25500000000E-02 0.  1.
          2   -1    0    0  501    0  0.00000000000E+00 -0.00000000000E+00 -0.17233254411E+04  0.17233254411E+04  0.25500000000E-02 0. -1.
    8880023    1    1    2    0    0  0.81138581839E+02  0.10472867733E+03 -0.15439482638E+03  0.68934717958E+03  0.65864270000E+03 0.  1.
    8880022    1    1    2    0    0 -0.81138581839E+02 -0.10472867733E+03 -0.12935895415E+04  0.13093193347E+04  0.15294330000E+03 0.  0.
<mgrwt>
<rscale>  0 0.49770217E+03</rscale>
<asrwt>0</asrwt>
<pdfrwt beam="1">  1        2 0.26512698E+00 0.67183463E+03</pdfrwt>
<pdfrwt beam="2">  1       -2 0.42360166E-01 0.67183463E+03</pdfrwt>
<totfact> 0.52010999E+01</totfact>
</mgrwt>
</event>
<event>
 4    2  0.3388003E-007  0.7076036E+03  0.7818608E-02  0.9967010E-01
          2   -1    0    0  501    0  0.00000000000E+00  0.00000000000E+00  0.20140388529E+04  0.20140388529E+04  0.25500000000E-02 0. -1.
         -2   -1    0    0    0  501 -0.00000000000E+00 -0.00000000000E+00 -0.18125033676E+03  0.18125033678E+03  0.25500000000E-02 0.  1.
    8880023    1    1    2    0    0  0.22753966846E+03  0.12295684867E+03  0.60411115547E+03  0.93040484832E+03  0.65864270000E+03 0.  0.
    8880022    1    1    2    0    0 -0.22753966846E+03 -0.12295684867E+03  0.12286773607E+04  0.12648843414E+04  0.15294330000E+03 0.  1.
<mgrwt>
<rscale>  0 0.57120775E+03</rscale>
<asrwt>0</asrwt>
<pdfrwt beam="1">  1        2 0.30985213E+00 0.70760363E+03</pdfrwt>
<pdfrwt beam="2">  1       -2 0.27884668E-01 0.70760363E+03</pdfrwt>
<totfact> 0.79553818E+01</totfact>
</mgrwt>
</event>
<event>
 4    2  0.3388003E-007  0.7834814E+03  0.7818608E-02  0.9747722E-01
          2   -1    0    0  501    0  0.00000000000E+00  0.00000000000E+00  0.48239141891E+03  0.48239141891E+03  0.25500000000E-02 0. -1.
         -2   -1    0    0    0  501 -0.00000000000E+00 -0.00000000000E+00 -0.23083743792E+04  0.23083743792E+04  0.25500000000E-02 0.  1.
    8880023    1    1    2    0    0 -0.15516404349E+03  0.39491389923E+03 -0.21147499668E+04  0.22552185031E+04  0.65864270000E+03 0.  1.
    8880022    1    1    2    0    0  0.15516404349E+03 -0.39491389923E+03  0.28876700650E+03  0.53554729507E+03  0.15294330000E+03 0.  0.
<mgrwt>
<rscale>  0 0.68245170E+03</rscale>
<asrwt>0</asrwt>
<pdfrwt beam="1">  1        2 0.74214066E-01 0.78348138E+03</pdfrwt>
<pdfrwt beam="2">  1       -2 0.35513451E+00 0.78348138E+03</pdfrwt>
<totfact> 0.97231193E-01</totfact>
</mgrwt>
</event>
<event>
 4    2  0.3388003E-007  0.8941584E+03  0.7818608E-02  0.9535475E-01
          2   -1    0    0  501    0  0.00000000000E+00  0.00000000000E+00  0.20968598991E+04  0.20968598991E+04  0.25500000000E-02 0. -1.
         -2   -1    0    0    0  501 -0.00000000000E+00 -0.00000000000E+00 -0.32738660102E+03  0.32738660103E+03  0.25500000000E-02 0.  1.
    8880023    1    1    2    0    0  0.44955180114E+03  0.40449002839E+03  0.53728892874E+03  0.10431675820E+04  0.65864270000E+03 0.  1.
    8880022    1    1    2    0    0 -0.44955180114E+03 -0.40449002839E+03  0.12321843694E+04  0.13810789181E+04  0.15294330000E+03 0.  0.
<mgrwt>
<rscale>  0 0.81718161E+03</rscale>
<asrwt>0</asrwt>
<pdfrwt beam="1">  1        2 0.32259383E+00 0.89415838E+03</pdfrwt>
<pdfrwt beam="2">  1       -2 0.50367170E-01 0.89415838E+03</pdfrwt>
<totfact> 0.22368250E+01</totfact>
</mgrwt>
</event>
<event>
 4    2  0.3388003E-007  0.7829454E+03  0.7818608E-02  0.9748963E-01
         -2   -1    0    0    0  501 -0.00000000000E+00  0.00000000000E+00  0.18575704960E+03  0.18575704962E+03  0.25500000000E-02 0.  1.
          2   -1    0    0  501    0  0.00000000000E+00 -0.00000000000E+00 -0.23238671837E+04  0.23238671837E+04  0.25500000000E-02 0. -1.
    8880023    1    1    2    0    0  0.19517139074E+03  0.37563463138E+03 -0.90356109051E+03  0.11955860900E+04  0.65864270000E+03 0.  1.
    8880022    1    1    2    0    0 -0.19517139074E+03 -0.37563463138E+03 -0.12345490436E+04  0.13140381434E+04  0.15294330000E+03 0. -1.
<mgrwt>
<rscale>  0 0.68174895E+03</rscale>
<asrwt>0</asrwt>
<pdfrwt beam="1">  1        2 0.35751801E+00 0.78294537E+03</pdfrwt>
<pdfrwt beam="2">  1       -2 0.28578009E-01 0.78294537E+03</pdfrwt>
<totfact> 0.50887427E+01</totfact>
</mgrwt>
</event>
<event>
 4    2  0.3388003E-007  0.8229973E+03  0.7818608E-02  0.9663114E-01
          2   -1    0    0  501    0  0.00000000000E+00  0.00000000000E+00  0.15690569633E+04  0.15690569633E+04  0.25500000000E-02 0. -1.
         -2   -1    0    0    0  501 -0.00000000000E+00 -0.00000000000E+00 -0.73701515429E+03  0.73701515430E+03  0.25500000000E-02 0.  1.
    8880023    1    1    2    0    0 -0.47672350590E+03  0.12747153907E+03 -0.43991922497E+03  0.93319527705E+03  0.65864270000E+03 0.  1.
    8880022    1    1    2    0    0  0.47672350590E+03 -0.12747153907E+03  0.12719610339E+04  0.13728768405E+04  0.15294330000E+03 0.  0.
<mgrwt>
<rscale>  0 0.73256063E+03</rscale>
<asrwt>0</asrwt>
<pdfrwt beam="1">  1        2 0.24139338E+00 0.82299727E+03</pdfrwt>
<pdfrwt beam="2">  1       -2 0.11338695E+00 0.82299727E+03</pdfrwt>
<totfact> 0.71974233E+00</totfact>
</mgrwt>
</event>
<event>
 4    2  0.3388003E-007  0.7697924E+03  0.7818608E-02  0.9780385E-01
         -2   -1    0    0    0  501 -0.00000000000E+00  0.00000000000E+00  0.57757329269E+03  0.57757329269E+03  0.25500000000E-02 0.  1.
          2   -1    0    0  501    0  0.00000000000E+00 -0.00000000000E+00 -0.11528252533E+04  0.11528252533E+04  0.25500000000E-02 0. -1.
    8880023    1    1    2    0    0 -0.39515211228E+03  0.51234875401E+02  0.24324242658E+03  0.80730866999E+03  0.65864270000E+03 0.  0.
    8880022    1    1    2    0    0  0.39515211228E+03 -0.51234875401E+02 -0.81849438722E+03  0.92308987602E+03  0.15294330000E+03 0.  0.
<mgrwt>
<rscale>  0 0.66425895E+03</rscale>
<asrwt>0</asrwt>
<pdfrwt beam="1">  1        2 0.17735773E+00 0.76979245E+03</pdfrwt>
<pdfrwt beam="2">  1       -2 0.88857430E-01 0.76979245E+03</pdfrwt>
<totfact> 0.22366869E+01</totfact>
</mgrwt>
</event>
<event>
 4    2  0.3388003E-007  0.7420485E+03  0.7818608E-02  0.9854020E-01
          2   -1    0    0  501    0  0.00000000000E+00  0.00000000000E+00  0.15123693284E+04  0.15123693284E+04  0.25500000000E-02 0. -1.
         -2   -1    0    0    0  501 -0.00000000000E+00 -0.00000000000E+00 -0.34753538787E+03  0.34753538788E+03  0.25500000000E-02 0.  1.
    8880023    1    1    2    0    0 -0.34103198526E+03  0.22866809349E+02  0.12216836852E+03  0.75203791292E+03  0.65864270000E+03 0.  1.
    8880022    1    1    2    0    0  0.34103198526E+03 -0.22866809349E+02  0.10426655720E+04  0.11078668034E+04  0.15294330000E+03 0.  0.
<mgrwt>
<rscale>  0 0.62542383E+03</rscale>
<asrwt>0</asrwt>
<pdfrwt beam="1">  1        2 0.23267221E+00 0.74204846E+03</pdfrwt>
<pdfrwt beam="2">  1       -2 0.53466982E-01 0.74204846E+03</pdfrwt>
<totfact> 0.42145805E+01</totfact>
</mgrwt>
</event>
<event>
 4    2  0.3388003E-007  0.7292340E+03  0.7818608E-02  0.9892496E-01
          2   -1    0    0  501    0  0.00000000000E+00  0.00000000000E+00  0.14500154821E+04  0.14500154821E+04  0.25500000000E-02 0. -1.
         -2   -1    0    0    0  501 -0.00000000000E+00 -0.00000000000E+00 -0.47945747065E+03  0.47945747066E+03  0.25500000000E-02 0.  1.
    8880023    1    1    2    0    0  0.31004316719E+03  0.42956378946E+02 -0.15989516062E+03  0.74655789103E+03  0.65864270000E+03 0.  1.
    8880022    1    1    2    0    0 -0.31004316719E+03 -0.42956378946E+02  0.11304531721E+04  0.11829150617E+04  0.15294330000E+03 0.  0.
<mgrwt>
<rscale>  0 0.60626328E+03</rscale>
<asrwt>0</asrwt>
<pdfrwt beam="1">  1        2 0.22307931E+00 0.72923400E+03</pdfrwt>
<pdfrwt beam="2">  1       -2 0.73762688E-01 0.72923400E+03</pdfrwt>
<totfact> 0.23019780E+01</totfact>
</mgrwt>
</event>
<event>
 4    2  0.3388003E-007  0.7996802E+03  0.7818608E-02  0.9711488E-01
          2   -1    0    0  501    0  0.00000000000E+00  0.00000000000E+00  0.10995477676E+04  0.10995477676E+04  0.25500000000E-02 0. -1.
         -2   -1    0    0    0  501 -0.00000000000E+00 -0.00000000000E+00 -0.55543899314E+03  0.55543899315E+03  0.25500000000E-02 0.  1.
    8880023    1    1    2    0    0  0.17423678127E+03  0.41871208270E+03 -0.14824765546E+03  0.81330550088E+03  0.65864270000E+03 0.  0.
    8880022    1    1    2    0    0 -0.17423678127E+03 -0.41871208270E+03  0.69235642991E+03  0.84168125986E+03  0.15294330000E+03 0.  0.
<mgrwt>
<rscale>  0 0.70336909E+03</rscale>
<asrwt>0</asrwt>
<pdfrwt beam="1">  1        2 0.16916119E+00 0.79968023E+03</pdfrwt>
<pdfrwt beam="2">  1       -2 0.85452153E-01 0.79968023E+03</pdfrwt>
<totfact> 0.26274637E+01</totfact>
</mgrwt>
</event>
<event>
 4    2  0.3388003E-007  0.8875799E+03  0.7818608E-02  0.9546271E-01
          2   -1    0    0  501    0  0.00000000000E+00  0.00000000000E+00  0.13471251703E+04  0.13471251703E+04  0.25500000000E-02 0. -1.
         -2   -1    0    0    0  501 -0.00000000000E+00 -0.00000000000E+00 -0.63519416468E+03  0.63519416468E+03  0.25500000000E-02 0.  1.
    8880023    1    1    2    0    0 -0.42130196428E+03  0.42011021849E+03 -0.17376950387E+03  0.90443020047E+03  0.65864270000E+03 0.  0.
    8880022    1    1    2    0    0  0.42130196428E+03 -0.42011021849E+03  0.88570050953E+03  0.10778891346E+04  0.15294330000E+03 0.  0.
<mgrwt>
<rscale>  0 0.80956721E+03</rscale>
<asrwt>0</asrwt>
<pdfrwt beam="1">  1        2 0.20725003E+00 0.88757994E+03</pdfrwt>
<pdfrwt beam="2">  1       -2 0.97722180E-01 0.88757994E+03</pdfrwt>
<totfact> 0.13616720E+01</totfact>
</mgrwt>
</event>
<event>
 4    2  0.3388003E-007  0.7134340E+03  0.7818608E-02  0.9945463E-01
         -2   -1    0    0    0  501 -0.00000000000E+00  0.00000000000E+00  0.12454303974E+04  0.12454303974E+04  0.25500000000E-02 0.  1.
          2   -1    0    0  501    0  0.00000000000E+00 -0.00000000000E+00 -0.66951745340E+03  0.66951745341E+03  0.25500000000E-02 0. -1.
    8880023    1    1    2    0    0  0.20634560171E+03 -0.18055305687E+03  0.10958211138E+04  0.13075978102E+04  0.65864270000E+03 0.  1.
    8880022    1    1    2    0    0 -0.20634560171E+03  0.18055305687E+03 -0.51990816981E+03  0.60735004054E+03  0.15294330000E+03 0.  0.
<mgrwt>
<rscale>  0 0.58107638E+03</rscale>
<asrwt>0</asrwt>
<pdfrwt beam="1">  1        2 0.10300269E+00 0.71343403E+03</pdfrwt>
<pdfrwt beam="2">  1       -2 0.19160467E+00 0.71343403E+03</pdfrwt>
<totfact> 0.67105089E+00</totfact>
</mgrwt>
</event>
<event>
 4    2  0.3388003E-007  0.8719942E+03  0.7818608E-02  0.9572574E-01
          2   -1    0    0  501    0  0.00000000000E+00  0.00000000000E+00  0.94554639652E+03  0.94554639652E+03  0.25500000000E-02 0. -1.
         -2   -1    0    0    0  501 -0.00000000000E+00 -0.00000000000E+00 -0.11877541835E+04  0.11877541835E+04  0.25500000000E-02 0.  1.
    8880023    1    1    2    0    0  0.13635475917E+03 -0.55495139762E+03 -0.89690637054E+03  0.12509256244E+04  0.65864270000E+03 0.  0.
    8880022    1    1    2    0    0 -0.13635475917E+03  0.55495139762E+03  0.65469858351E+03  0.88237495564E+03  0.15294330000E+03 0.  0.
<mgrwt>
<rscale>  0 0.79138310E+03</rscale>
<asrwt>0</asrwt>
<pdfrwt beam="1">  1        2 0.14546868E+00 0.87199420E+03</pdfrwt>
<pdfrwt beam="2">  1       -2 0.18273141E+00 0.87199420E+03</pdfrwt>
<totfact> 0.47720752E+00</totfact>
</mgrwt>
</event>
<event>
 4    2  0.3388003E-007  0.6704474E+03  0.7818608E-02  0.1015344E+00
         -2   -1    0    0    0  501 -0.00000000000E+00  0.00000000000E+00  0.13355715062E+03  0.13355715065E+03  0.25500000000E-02 0.  1.
          2   -1    0    0  501    0  0.00000000000E+00 -0.00000000000E+00 -0.14108491560E+04  0.14108491560E+04  0.25500000000E-02 0. -1.
    8880023    1    1    2    0    0  0.85396117669E+02  0.91635571900E+02 -0.98093299580E+03  0.11881621621E+04  0.65864270000E+03 0. -1.
    8880022    1    1    2    0    0 -0.85396117669E+02 -0.91635571900E+02 -0.29635900961E+03  0.35624414458E+03  0.15294330000E+03 0.  1.
<mgrwt>
<rscale>  0 0.49404850E+03</rscale>
<asrwt>0</asrwt>
<pdfrwt beam="1">  1        2 0.21705371E+00 0.67044745E+03</pdfrwt>
<pdfrwt beam="2">  1       -2 0.20547255E-01 0.67044745E+03</pdfrwt>
<totfact> 0.29537360E+02</totfact>
</mgrwt>
</event>
<event>
 4    2  0.3388003E-007  0.6809481E+03  0.7818608E-02  0.1008792E+00
         -2   -1    0    0    0  501 -0.00000000000E+00  0.00000000000E+00  0.18683018199E+03  0.18683018201E+03  0.25500000000E-02 0.  1.
          2   -1    0    0  501    0  0.00000000000E+00 -0.00000000000E+00 -0.16165707486E+04  0.16165707486E+04  0.25500000000E-02 0. -1.
    8880023    1    1    2    0    0  0.16258983819E+03  0.58690776934E+02 -0.49831822287E+03  0.84380763228E+03  0.65864270000E+03 0.  1.
    8880022    1    1    2    0    0 -0.16258983819E+03 -0.58690776934E+02 -0.93142234371E+03  0.95959329831E+03  0.15294330000E+03 0.  0.
<mgrwt>
<rscale>  0 0.51957420E+03</rscale>
<asrwt>0</asrwt>
<pdfrwt beam="1">  1        2 0.24870318E+00 0.68094807E+03</pdfrwt>
<pdfrwt beam="2">  1       -2 0.28743106E-01 0.68094807E+03</pdfrwt>
<totfact> 0.12424195E+02</totfact>
</mgrwt>
</event>
<event>
 4    2  0.3388003E-007  0.7546324E+03  0.7818608E-02  0.9819207E-01
          2   -1    0    0  501    0  0.00000000000E+00  0.00000000000E+00  0.43082560365E+03  0.43082560366E+03  0.25500000000E-02 0. -1.
         -2   -1    0    0    0  501 -0.00000000000E+00 -0.00000000000E+00 -0.11850109293E+04  0.11850109293E+04  0.25500000000E-02 0.  1.
    8880023    1    1    2    0    0 -0.33665295882E+03  0.14941436655E+03 -0.91480771350E+03  0.11858934297E+04  0.65864270000E+03 0.  1.
    8880022    1    1    2    0    0  0.33665295882E+03 -0.14941436655E+03  0.16062238782E+03  0.42994310332E+03  0.15294330000E+03 0.  0.
<mgrwt>
<rscale>  0 0.64341891E+03</rscale>
<asrwt>0</asrwt>
<pdfrwt beam="1">  1        2 0.66280863E-01 0.75463241E+03</pdfrwt>
<pdfrwt beam="2">  1       -2 0.18230937E+00 0.75463241E+03</pdfrwt>
<totfact> 0.12980231E+01</totfact>
</mgrwt>
</event>
<event>
 4    2  0.3388003E-007  0.8948758E+03  0.7818608E-02  0.9534308E-01
         -2   -1    0    0    0  501 -0.00000000000E+00  0.00000000000E+00  0.13357810345E+04  0.13357810345E+04  0.25500000000E-02 0.  1.
          2   -1    0    0  501    0  0.00000000000E+00 -0.00000000000E+00 -0.16469258864E+04  0.16469258864E+04  0.25500000000E-02 0. -1.
    8880023    1    1    2    0    0  0.60471681313E+03  0.36194031638E+02  0.11126431408E+04  0.14278576249E+04  0.65864270000E+03 0.  1.
    8880022    1    1    2    0    0 -0.60471681313E+03 -0.36194031638E+02 -0.14237879928E+04  0.15548492960E+04  0.15294330000E+03 0.  0.
<mgrwt>
<rscale>  0 0.81800993E+03</rscale>
<asrwt>0</asrwt>
<pdfrwt beam="1">  1        2 0.25337321E+00 0.89487577E+03</pdfrwt>
<pdfrwt beam="2">  1       -2 0.20550478E+00 0.89487577E+03</pdfrwt>
<totfact> 0.12990952E+00</totfact>
</mgrwt>
</event>
<event>
 4    2  0.3388003E-007  0.7055228E+03  0.7818608E-02  0.9975018E-01
          2   -1    0    0  501    0  0.00000000000E+00  0.00000000000E+00  0.90824927927E+03  0.90824927928E+03  0.25500000000E-02 0. -1.
         -2   -1    0    0    0  501 -0.00000000000E+00 -0.00000000000E+00 -0.10069318402E+04  0.10069318402E+04  0.25500000000E-02 0.  1.
    8880023    1    1    2    0    0 -0.19805190500E+03  0.15725052487E+03 -0.85186489290E+03  0.11060905418E+04  0.65864270000E+03 0.  1.
    8880022    1    1    2    0    0  0.19805190500E+03 -0.15725052487E+03  0.75318233198E+03  0.80909057767E+03  0.15294330000E+03 0.  0.
<mgrwt>
<rscale>  0 0.56759349E+03</rscale>
<asrwt>0</asrwt>
<pdfrwt beam="1">  1        2 0.13973066E+00 0.70552285E+03</pdfrwt>
<pdfrwt beam="2">  1       -2 0.15491259E+00 0.70552285E+03</pdfrwt>
<totfact> 0.81449658E+00</totfact>
</mgrwt>
</event>
<event>
 4    2  0.3388003E-007  0.7286387E+03  0.7818608E-02  0.9894371E-01
          2   -1    0    0  501    0  0.00000000000E+00  0.00000000000E+00  0.38494588616E+03  0.38494588617E+03  0.25500000000E-02 0. -1.
         -2   -1    0    0    0  501 -0.00000000000E+00 -0.00000000000E+00 -0.77291412918E+03  0.77291412918E+03  0.25500000000E-02 0.  1.
    8880023    1    1    2    0    0  0.13251065019E+02 -0.31133356276E+03 -0.35099372886E+03  0.80877127916E+03  0.65864270000E+03 0.  0.
    8880022    1    1    2    0    0 -0.13251065019E+02  0.31133356276E+03 -0.36974514162E+02  0.34908873619E+03  0.15294330000E+03 0.  1.
<mgrwt>
<rscale>  0 0.60534880E+03</rscale>
<asrwt>0</asrwt>
<pdfrwt beam="1">  1        2 0.59222444E-01 0.72863872E+03</pdfrwt>
<pdfrwt beam="2">  1       -2 0.11890987E+00 0.72863872E+03</pdfrwt>
<totfact> 0.45671772E+01</totfact>
</mgrwt>
</event>
<event>
 4    2  0.3388003E-007  0.8138076E+03  0.7818608E-02  0.9681700E-01
         -2   -1    0    0    0  501 -0.00000000000E+00  0.00000000000E+00  0.82004869654E+03  0.82004869654E+03  0.25500000000E-02 0.  1.
          2   -1    0    0  501    0  0.00000000000E+00 -0.00000000000E+00 -0.66487939710E+03  0.66487939711E+03  0.25500000000E-02 0. -1.
    8880023    1    1    2    0    0  0.23176531916E+03 -0.41804006450E+03  0.42181344415E+03  0.91662939436E+03  0.65864270000E+03 0.  0.
    8880022    1    1    2    0    0 -0.23176531916E+03  0.41804006450E+03 -0.26664414471E+03  0.56829869929E+03  0.15294330000E+03 0.  0.
<mgrwt>
<rscale>  0 0.72116916E+03</rscale>
<asrwt>0</asrwt>
<pdfrwt beam="1">  1        2 0.10228914E+00 0.81380763E+03</pdfrwt>
<pdfrwt beam="2">  1       -2 0.12616134E+00 0.81380763E+03</pdfrwt>
<totfact> 0.20642325E+01</totfact>
</mgrwt>
</event>
<event>
 4    2  0.3388003E-007  0.6738753E+03  0.7818608E-02  0.1013025E+00
          2   -1    0    0  501    0  0.00000000000E+00  0.00000000000E+00  0.14787437029E+04  0.14787437029E+04  0.25500000000E-02 0. -1.
         -2   -1    0    0    0  501 -0.00000000000E+00 -0.00000000000E+00 -0.23220444164E+03  0.23220444166E+03  0.25500000000E-02 0.  1.
    8880023    1    1    2    0    0 -0.42226598914E+02 -0.13606837130E+03  0.29308472309E+03  0.73485137851E+03  0.65864270000E+03 0.  1.
    8880022    1    1    2    0    0  0.42226598914E+02  0.13606837130E+03  0.95345453818E+03  0.97609676606E+03  0.15294330000E+03 0.  0.
<mgrwt>
<rscale>  0 0.50289994E+03</rscale>
<asrwt>0</asrwt>
<pdfrwt beam="1">  1        2 0.22749904E+00 0.67387528E+03</pdfrwt>
<pdfrwt beam="2">  1       -2 0.35723759E-01 0.67387528E+03</pdfrwt>
<totfact> 0.98575149E+01</totfact>
</mgrwt>
</event>
<event>
 4    2  0.3388003E-007  0.9398852E+03  0.7818608E-02  0.9464819E-01
          2   -1    0    0  501    0  0.00000000000E+00  0.00000000000E+00  0.20515771680E+04  0.20515771680E+04  0.25500000000E-02 0. -1.
         -2   -1    0    0    0  501 -0.00000000000E+00 -0.00000000000E+00 -0.57286478702E+03  0.57286478702E+03  0.25500000000E-02 0.  1.
    8880023    1    1    2    0    0  0.14582530047E+03  0.65445323732E+03  0.16649720833E+04  0.19119404547E+04  0.65864270000E+03 0. -1.
    8880022    1    1    2    0    0 -0.14582530047E+03 -0.65445323732E+03 -0.18625970236E+03  0.71250150023E+03  0.15294330000E+03 0.  0.
<mgrwt>
<rscale>  0 0.86928028E+03</rscale>
<asrwt>0</asrwt>
<pdfrwt beam="1">  1        2 0.31562726E+00 0.93988524E+03</pdfrwt>
<pdfrwt beam="2">  1       -2 0.88133043E-01 0.93988524E+03</pdfrwt>
<totfact> 0.70019838E+00</totfact>
</mgrwt>
</event>
<event>
 4    2  0.3388003E-007  0.6974335E+03  0.7818608E-02  0.1000802E+00
         -2   -1    0    0    0  501 -0.00000000000E+00  0.00000000000E+00  0.14368683254E+03  0.14368683257E+03  0.25500000000E-02 0.  1.
          2   -1    0    0  501    0  0.00000000000E+00 -0.00000000000E+00 -0.16972922377E+04  0.16972922377E+04  0.25500000000E-02 0. -1.
    8880023    1    1    2    0    0 -0.14865599546E+03 -0.17465598072E+03 -0.96115100290E+03  0.11875288515E+04  0.65864270000E+03 0.  0.
    8880022    1    1    2    0    0  0.14865599546E+03  0.17465598072E+03 -0.59245440221E+03  0.65345021869E+03  0.15294330000E+03 0.  1.
<mgrwt>
<rscale>  0 0.55300011E+03</rscale>
<asrwt>0</asrwt>
<pdfrwt beam="1">  1        2 0.26112187E+00 0.69743353E+03</pdfrwt>
<pdfrwt beam="2">  1       -2 0.22105668E-01 0.69743353E+03</pdfrwt>
<totfact> 0.17997139E+02</totfact>
</mgrwt>
</event>
<event>
 4    2  0.3388003E-007  0.8269537E+03  0.7818608E-02  0.9655289E-01
         -2   -1    0    0    0  501 -0.00000000000E+00  0.00000000000E+00  0.90429185630E+03  0.90429185631E+03  0.25500000000E-02 0.  1.
          2   -1    0    0  501    0  0.00000000000E+00 -0.00000000000E+00 -0.11050843723E+04  0.11050843724E+04  0.25500000000E-02 0. -1.
    8880023    1    1    2    0    0 -0.35664267751E+03  0.35049709819E+03  0.62180394617E+03  0.10346461081E+04  0.65864270000E+03 0.  1.
    8880022    1    1    2    0    0  0.35664267751E+03 -0.35049709819E+03 -0.82259646222E+03  0.97473012056E+03  0.15294330000E+03 0.  0.
<mgrwt>
<rscale>  0 0.73742428E+03</rscale>
<asrwt>0</asrwt>
<pdfrwt beam="1">  1        2 0.17001298E+00 0.82695370E+03</pdfrwt>
<pdfrwt beam="2">  1       -2 0.13912182E+00 0.82695370E+03</pdfrwt>
<totfact> 0.79730078E+00</totfact>
</mgrwt>
</event>
<event>
 4    2  0.3388003E-007  0.8723712E+03  0.7818608E-02  0.9571925E-01
          2   -1    0    0  501    0  0.00000000000E+00  0.00000000000E+00  0.24537564424E+04  0.24537564424E+04  0.25500000000E-02 0. -1.
         -2   -1    0    0    0  501 -0.00000000000E+00 -0.00000000000E+00 -0.22390922000E+03  0.22390922001E+03  0.25500000000E-02 0.  1.
    8880023    1    1    2    0    0 -0.93096462815E+02 -0.56440615139E+03  0.11191197859E+04  0.14189646072E+04  0.65864270000E+03 0.  0.
    8880022    1    1    2    0    0  0.93096462815E+02  0.56440615139E+03  0.11107274365E+04  0.12587010552E+04  0.15294330000E+03 0.  0.
<mgrwt>
<rscale>  0 0.79182547E+03</rscale>
<asrwt>0</asrwt>
<pdfrwt beam="1">  1        2 0.37750100E+00 0.87237117E+03</pdfrwt>
<pdfrwt beam="2">  1       -2 0.34447571E-01 0.87237117E+03</pdfrwt>
<totfact> 0.29985109E+01</totfact>
</mgrwt>
</event>
<event>
 4    2  0.3388003E-007  0.8050451E+03  0.7818608E-02  0.9699992E-01
          2   -1    0    0  501    0  0.00000000000E+00  0.00000000000E+00  0.18206883663E+04  0.18206883663E+04  0.25500000000E-02 0. -1.
         -2   -1    0    0    0  501 -0.00000000000E+00 -0.00000000000E+00 -0.35121734619E+03  0.35121734620E+03  0.25500000000E-02 0.  1.
    8880023    1    1    2    0    0  0.43399404724E+03 -0.16104829067E+03  0.22582929549E+03  0.83611988490E+03  0.65864270000E+03 0.  1.
    8880022    1    1    2    0    0 -0.43399404724E+03  0.16104829067E+03  0.12436417246E+04  0.13357858276E+04  0.15294330000E+03 0.  0.
<mgrwt>
<rscale>  0 0.71017276E+03</rscale>
<asrwt>0</asrwt>
<pdfrwt beam="1">  1        2 0.28010590E+00 0.80504509E+03</pdfrwt>
<pdfrwt beam="2">  1       -2 0.54033438E-01 0.80504509E+03</pdfrwt>
<totfact> 0.27714458E+01</totfact>
</mgrwt>
</event>
<event>
 4    2  0.3388003E-007  0.1113755E+04  0.7818608E-02  0.9245894E-01
         -2   -1    0    0    0  501 -0.00000000000E+00  0.00000000000E+00  0.11163417603E+04  0.11163417603E+04  0.25500000000E-02 0.  1.
          2   -1    0    0  501    0  0.00000000000E+00 -0.00000000000E+00 -0.10054495007E+04  0.10054495007E+04  0.25500000000E-02 0. -1.
    8880023    1    1    2    0    0  0.66513625907E+03 -0.60351718833E+03  0.37168825376E+03  0.11741386647E+04  0.65864270000E+03 0. -1.
    8880022    1    1    2    0    0 -0.66513625907E+03  0.60351718833E+03 -0.26079599420E+03  0.94765259634E+03  0.15294330000E+03 0.  1.
<mgrwt>
<rscale>  0 0.10592023E+04</rscale>
<asrwt>0</asrwt>
<pdfrwt beam="1">  1        2 0.15468454E+00 0.11137547E+04</pdfrwt>
<pdfrwt beam="2">  1       -2 0.17174489E+00 0.11137547E+04</pdfrwt>
<totfact> 0.50747715E+00</totfact>
</mgrwt>
</event>
<event>
 4    2  0.3388003E-007  0.8397550E+03  0.7818608E-02  0.9630642E-01
          2   -1    0    0  501    0  0.00000000000E+00  0.00000000000E+00  0.17297767825E+04  0.17297767825E+04  0.25500000000E-02 0. -1.
         -2   -1    0    0    0  501 -0.00000000000E+00 -0.00000000000E+00 -0.83738717337E+03  0.83738717337E+03  0.25500000000E-02 0.  1.
    8880023    1    1    2    0    0 -0.37353410330E+03 -0.36311224859E+03 -0.56486379707E+03  0.10120570868E+04  0.65864270000E+03 0.  1.
    8880022    1    1    2    0    0  0.37353410330E+03  0.36311224859E+03  0.14572534062E+04  0.15551068691E+04  0.15294330000E+03 0.  0.
<mgrwt>
<rscale>  0 0.75300842E+03</rscale>
<asrwt>0</asrwt>
<pdfrwt beam="1">  1        2 0.26611950E+00 0.83975499E+03</pdfrwt>
<pdfrwt beam="2">  1       -2 0.12882880E+00 0.83975499E+03</pdfrwt>
<totfact> 0.42633858E+00</totfact>
</mgrwt>
</event>
<event>
 4    2  0.3388003E-007  0.6970014E+03  0.7818608E-02  0.1000988E+00
          2   -1    0    0  501    0  0.00000000000E+00  0.00000000000E+00  0.87638096112E+03  0.87638096113E+03  0.25500000000E-02 0. -1.
         -2   -1    0    0    0  501 -0.00000000000E+00 -0.00000000000E+00 -0.43200659939E+03  0.43200659940E+03  0.25500000000E-02 0.  1.
    8880023    1    1    2    0    0  0.43936208318E+02 -0.22376418054E+03 -0.94707935255E+02  0.70340642459E+03  0.65864270000E+03 0.  1.
    8880022    1    1    2    0    0 -0.43936208318E+02  0.22376418054E+03  0.53908229699E+03  0.60498113593E+03  0.15294330000E+03 0.  1.
<mgrwt>
<rscale>  0 0.55219344E+03</rscale>
<asrwt>0</asrwt>
<pdfrwt beam="1">  1        2 0.13482784E+00 0.69700144E+03</pdfrwt>
<pdfrwt beam="2">  1       -2 0.66462554E-01 0.69700144E+03</pdfrwt>
<totfact> 0.64472559E+01</totfact>
</mgrwt>
</event>
<event>
 4    2  0.3388003E-007  0.7504636E+03  0.7818608E-02  0.9830453E-01
         -2   -1    0    0    0  501 -0.00000000000E+00  0.00000000000E+00  0.80897834021E+03  0.80897834021E+03  0.25500000000E-02 0.  1.
          2   -1    0    0  501    0  0.00000000000E+00 -0.00000000000E+00 -0.97558468408E+03  0.97558468408E+03  0.25500000000E-02 0. -1.
    8880023    1    1    2    0    0 -0.33235290718E+03 -0.13757553152E+03  0.57555992605E+03  0.94576155374E+03  0.65864270000E+03 0.  1.
    8880022    1    1    2    0    0  0.33235290718E+03  0.13757553152E+03 -0.74216626992E+03  0.83880147056E+03  0.15294330000E+03 0.  0.
<mgrwt>
<rscale>  0 0.63753575E+03</rscale>
<asrwt>0</asrwt>
<pdfrwt beam="1">  1        2 0.15008995E+00 0.75046365E+03</pdfrwt>
<pdfrwt beam="2">  1       -2 0.12445821E+00 0.75046365E+03</pdfrwt>
<totfact> 0.12874283E+01</totfact>
</mgrwt>
</event>
<event>
 4    2  0.3388003E-007  0.1164366E+04  0.7818608E-02  0.9192564E-01
         -2   -1    0    0    0  501 -0.00000000000E+00  0.00000000000E+00  0.70085239270E+03  0.70085239271E+03  0.25500000000E-02 0.  1.
          2   -1    0    0  501    0  0.00000000000E+00 -0.00000000000E+00 -0.16285435923E+04  0.16285435923E+04  0.25500000000E-02 0. -1.
    8880023    1    1    2    0    0  0.79971653490E+03 -0.53140600091E+03 -0.49763456454E+03  0.12662500701E+04  0.65864270000E+03 0. -1.
    8880022    1    1    2    0    0 -0.79971653490E+03  0.53140600091E+03 -0.43005663509E+03  0.10631459149E+04  0.15294330000E+03 0.  1.
<mgrwt>
<rscale>  0 0.11130514E+04</rscale>
<asrwt>0</asrwt>
<pdfrwt beam="1">  1        2 0.25054517E+00 0.11643664E+04</pdfrwt>
<pdfrwt beam="2">  1       -2 0.10782345E+00 0.11643664E+04</pdfrwt>
<totfact> 0.72621836E+00</totfact>
</mgrwt>
</event>
<event>
 4    2  0.3388003E-007  0.6700475E+03  0.7818608E-02  0.1015629E+00
          2   -1    0    0  501    0  0.00000000000E+00  0.00000000000E+00  0.80608890055E+03  0.80608890056E+03  0.25500000000E-02 0. -1.
         -2   -1    0    0    0  501 -0.00000000000E+00 -0.00000000000E+00 -0.38219267722E+03  0.38219267723E+03  0.25500000000E-02 0.  1.
    8880023    1    1    2    0    0 -0.98549943683E+02 -0.73765894154E+02 -0.53411777062E+02  0.67217298572E+03  0.65864270000E+03 0.  1.
    8880022    1    1    2    0    0  0.98549943683E+02  0.73765894154E+02  0.47730800040E+03  0.51610859206E+03  0.15294330000E+03 0.  0.
<mgrwt>
<rscale>  0 0.49297561E+03</rscale>
<asrwt>0</asrwt>
<pdfrwt beam="1">  1        2 0.12401368E+00 0.67004754E+03</pdfrwt>
<pdfrwt beam="2">  1       -2 0.58798874E-01 0.67004754E+03</pdfrwt>
<totfact> 0.93858839E+01</totfact>
</mgrwt>
</event>
<event>
 4    2  0.3388003E-007  0.1064188E+04  0.7818608E-02  0.9302016E-01
         -2   -1    0    0    0  501 -0.00000000000E+00  0.00000000000E+00  0.32412202070E+04  0.32412202070E+04  0.25500000000E-02 0.  1.
          2   -1    0    0  501    0  0.00000000000E+00 -0.00000000000E+00 -0.61893116883E+03  0.61893116884E+03  0.25500000000E-02 0. -1.
    8880023    1    1    2    0    0  0.77181982499E+02  0.83230392258E+03  0.27970142356E+04  0.29926218803E+04  0.65864270000E+03 0.  0.
    8880022    1    1    2    0    0 -0.77181982499E+02 -0.83230392258E+03 -0.17472519746E+03  0.86752949553E+03  0.15294330000E+03 0.  0.
<mgrwt>
<rscale>  0 0.10059745E+04</rscale>
<asrwt>0</asrwt>
<pdfrwt beam="1">  1        2 0.95220179E-01 0.10641885E+04</pdfrwt>
<pdfrwt beam="2">  1       -2 0.49864926E+00 0.10641885E+04</pdfrwt>
<totfact> 0.80471308E-02</totfact>
</mgrwt>
</event>
<event>
 4    2  0.3388003E-007  0.8391659E+03  0.7818608E-02  0.9631755E-01
          2   -1    0    0  501    0  0.00000000000E+00  0.00000000000E+00  0.19457032658E+04  0.19457032658E+04  0.25500000000E-02 0. -1.
         -2   -1    0    0    0  501 -0.00000000000E+00 -0.00000000000E+00 -0.31190181403E+03  0.31190181404E+03  0.25500000000E-02 0.  1.
    8880023    1    1    2    0    0 -0.32246489406E+03 -0.40792837560E+03  0.14677803139E+04  0.16907331024E+04  0.65864270000E+03 0.  0.
    8880022    1    1    2    0    0  0.32246489406E+03  0.40792837560E+03  0.16602113783E+03  0.56687197738E+03  0.15294330000E+03 0.  0.
<mgrwt>
<rscale>  0 0.75229607E+03</rscale>
<asrwt>0</asrwt>
<pdfrwt beam="1">  1        2 0.29933897E+00 0.83916588E+03</pdfrwt>
<pdfrwt beam="2">  1       -2 0.47984894E-01 0.83916588E+03</pdfrwt>
<totfact> 0.30069421E+01</totfact>
</mgrwt>
</event>
<event>
 4    2  0.3388003E-007  0.6752800E+03  0.7818608E-02  0.1012130E+00
          2   -1    0    0  501    0  0.00000000000E+00  0.00000000000E+00  0.48028528940E+03  0.48028528941E+03  0.25500000000E-02 0. -1.
         -2   -1    0    0    0  501 -0.00000000000E+00 -0.00000000000E+00 -0.44832415777E+03  0.44832415777E+03  0.25500000000E-02 0.  1.
    8880023    1    1    2    0    0 -0.55596586260E+02  0.13820949309E+03 -0.92327630836E+02  0.68156250048E+03  0.65864270000E+03 0.  1.
    8880022    1    1    2    0    0  0.55596586260E+02 -0.13820949309E+03  0.12428876247E+03  0.24704694670E+03  0.15294330000E+03 0. -1.
<mgrwt>
<rscale>  0 0.50636660E+03</rscale>
<asrwt>0</asrwt>
<pdfrwt beam="1">  1        2 0.73890044E-01 0.67527998E+03</pdfrwt>
<pdfrwt beam="2">  1       -2 0.68972947E-01 0.67527998E+03</pdfrwt>
<totfact> 0.12566279E+02</totfact>
</mgrwt>
</event>
<event>
 4    2  0.3388003E-007  0.9867747E+03  0.7818608E-02  0.9399069E-01
         -2   -1    0    0    0  501 -0.00000000000E+00  0.00000000000E+00  0.78765891383E+03  0.78765891384E+03  0.25500000000E-02 0.  1.
          2   -1    0    0  501    0  0.00000000000E+00 -0.00000000000E+00 -0.10589593463E+04  0.10589593463E+04  0.25500000000E-02 0. -1.
    8880023    1    1    2    0    0  0.52964099093E+03  0.50930793910E+03  0.13038314823E+03  0.99535125846E+03  0.65864270000E+03 0.  0.
    8880022    1    1    2    0    0 -0.52964099093E+03 -0.50930793910E+03 -0.40168358067E+03  0.85126700165E+03  0.15294330000E+03 0.  0.
<mgrwt>
<rscale>  0 0.92152377E+03</rscale>
<asrwt>0</asrwt>
<pdfrwt beam="1">  1        2 0.16291682E+00 0.98677473E+03</pdfrwt>
<pdfrwt beam="2">  1       -2 0.12117829E+00 0.98677473E+03</pdfrwt>
<totfact> 0.11898442E+01</totfact>
</mgrwt>
</event>
<event>
 4    2  0.3388003E-007  0.6889314E+03  0.7818608E-02  0.1004665E+00
          2   -1    0    0  501    0  0.00000000000E+00  0.00000000000E+00  0.20433349394E+04  0.20433349394E+04  0.25500000000E-02 0. -1.
         -2   -1    0    0    0  501 -0.00000000000E+00 -0.00000000000E+00 -0.18993946842E+03  0.18993946844E+03  0.25500000000E-02 0.  1.
    8880023    1    1    2    0    0 -0.14838073051E+03  0.13711105154E+03  0.48724035508E+03  0.84381849442E+03  0.65864270000E+03 0.  1.
    8880022    1    1    2    0    0  0.14838073051E+03 -0.13711105154E+03  0.13661551159E+04  0.13894559134E+04  0.15294330000E+03 0.  0.
<mgrwt>
<rscale>  0 0.53651340E+03</rscale>
<asrwt>0</asrwt>
<pdfrwt beam="1">  1        2 0.31435923E+00 0.68893141E+03</pdfrwt>
<pdfrwt beam="2">  1       -2 0.29221455E-01 0.68893141E+03</pdfrwt>
<totfact> 0.70512984E+01</totfact>
</mgrwt>
</event>
<event>
 4    2  0.3388003E-007  0.6602362E+03  0.7818608E-02  0.1023916E+00
          2   -1    0    0  501    0  0.00000000000E+00  0.00000000000E+00  0.12788600507E+04  0.12788600507E+04  0.25500000000E-02 0. -1.
         -2   -1    0    0    0  501 -0.00000000000E+00 -0.00000000000E+00 -0.53578189055E+03  0.53578189055E+03  0.25500000000E-02 0.  1.
    8880023    1    1    2    0    0 -0.25364348890E+02  0.38186821895E+02 -0.32416355173E+03  0.73552280596E+03  0.65864270000E+03 0.  1.
    8880022    1    1    2    0    0  0.25364348890E+02 -0.38186821895E+02  0.10672417118E+04  0.10791191352E+04  0.15294330000E+03 0.  0.
<mgrwt>
<rscale>  0 0.46299639E+03</rscale>
<asrwt>0</asrwt>
<pdfrwt beam="1">  1        2 0.19674770E+00 0.66023616E+03</pdfrwt>
<pdfrwt beam="2">  1       -2 0.82427984E-01 0.66023616E+03</pdfrwt>
<totfact> 0.22662370E+01</totfact>
</mgrwt>
</event>
<event>
 4    2  0.3388003E-007  0.1071287E+04  0.7818608E-02  0.9293719E-01
          2   -1    0    0  501    0  0.00000000000E+00  0.00000000000E+00  0.38947056168E+04  0.38947056168E+04  0.25500000000E-02 0. -1.
         -2   -1    0    0    0  501 -0.00000000000E+00 -0.00000000000E+00 -0.32630622040E+03  0.32630622041E+03  0.25500000000E-02 0.  1.
    8880023    1    1    2    0    0 -0.66797758598E+03  0.51735027924E+03  0.30145765440E+04  0.31992698093E+04  0.65864270000E+03 0. -1.
    8880022    1    1    2    0    0  0.66797758598E+03 -0.51735027924E+03  0.55382285246E+03  0.10217420280E+04  0.15294330000E+03 0.  0.
<mgrwt>
<rscale>  0 0.10136318E+04</rscale>
<asrwt>0</asrwt>
<pdfrwt beam="1">  1        2 0.59918547E+00 0.10712869E+04</pdfrwt>
<pdfrwt beam="2">  1       -2 0.50200957E-01 0.10712869E+04</pdfrwt>
<totfact> 0.16171559E+00</totfact>
</mgrwt>
</event>
<event>
 4    2  0.3388003E-007  0.9154130E+03  0.7818608E-02  0.9501728E-01
          2   -1    0    0  501    0  0.00000000000E+00  0.00000000000E+00  0.83838839742E+03  0.83838839742E+03  0.25500000000E-02 0. -1.
         -2   -1    0    0    0  501 -0.00000000000E+00 -0.00000000000E+00 -0.81902147345E+03  0.81902147345E+03  0.25500000000E-02 0.  1.
    8880023    1    1    2    0    0 -0.64997096087E+02 -0.63241297975E+03 -0.25198102447E+03  0.94946060603E+03  0.65864270000E+03 0.  0.
    8880022    1    1    2    0    0  0.64997096087E+02  0.63241297975E+03  0.27134794844E+03  0.70794926484E+03  0.15294330000E+03 0.  0.
<mgrwt>
<rscale>  0 0.84156518E+03</rscale>
<asrwt>0</asrwt>
<pdfrwt beam="1">  1        2 0.12898283E+00 0.91541302E+03</pdfrwt>
<pdfrwt beam="2">  1       -2 0.12600330E+00 0.91541302E+03</pdfrwt>
<totfact> 0.15191602E+01</totfact>
</mgrwt>
</event>
<event>
 4    2  0.3388003E-007  0.6612205E+03  0.7818608E-02  0.1022939E+00
          2   -1    0    0  501    0  0.00000000000E+00  0.00000000000E+00  0.25310400195E+04  0.25310400195E+04  0.25500000000E-02 0. -1.
         -2   -1    0    0    0  501 -0.00000000000E+00 -0.00000000000E+00 -0.11843121355E+03  0.11843121358E+03  0.25500000000E-02 0.  1.
    8880023    1    1    2    0    0 -0.58262362862E+02  0.27965370666E+01  0.84315755250E+03  0.10715069707E+04  0.65864270000E+03 0.  1.
    8880022    1    1    2    0    0  0.58262362862E+02 -0.27965370666E+01  0.15694512535E+04  0.15779642625E+04  0.15294330000E+03 0.  0.
<mgrwt>
<rscale>  0 0.46640626E+03</rscale>
<asrwt>0</asrwt>
<pdfrwt beam="1">  1        2 0.38939074E+00 0.66122049E+03</pdfrwt>
<pdfrwt beam="2">  1       -2 0.18220188E-01 0.66122049E+03</pdfrwt>
<totfact> 0.88170386E+01</totfact>
</mgrwt>
</event>
<event>
 4    2  0.3388003E-007  0.9366228E+03  0.7818608E-02  0.9469628E-01
          2   -1    0    0  501    0  0.00000000000E+00  0.00000000000E+00  0.21942068469E+04  0.21942068469E+04  0.25500000000E-02 0. -1.
         -2   -1    0    0    0  501 -0.00000000000E+00 -0.00000000000E+00 -0.31226442621E+03  0.31226442622E+03  0.25500000000E-02 0.  1.
    8880023    1    1    2    0    0  0.62863983639E+03 -0.21969066349E+03  0.13374102688E+04  0.16327671190E+04  0.65864270000E+03 0.  0.
    8880022    1    1    2    0    0 -0.62863983639E+03  0.21969066349E+03  0.54453215195E+03  0.87370415418E+03  0.15294330000E+03 0.  0.
<mgrwt>
<rscale>  0 0.86560543E+03</rscale>
<asrwt>0</asrwt>
<pdfrwt beam="1">  1        2 0.33757029E+00 0.93662278E+03</pdfrwt>
<pdfrwt beam="2">  1       -2 0.48040681E-01 0.93662278E+03</pdfrwt>
<totfact> 0.21652946E+01</totfact>
</mgrwt>
</event>
<event>
 4    2  0.3388003E-007  0.7499051E+03  0.7818608E-02  0.9831980E-01
         -2   -1    0    0    0  501 -0.00000000000E+00  0.00000000000E+00  0.90603927095E+03  0.90603927095E+03  0.25500000000E-02 0.  1.
          2   -1    0    0  501    0  0.00000000000E+00 -0.00000000000E+00 -0.41541578045E+03  0.41541578046E+03  0.25500000000E-02 0. -1.
    8880023    1    1    2    0    0  0.27671215219E+03  0.22798662075E+03  0.54617841190E+03  0.92772225278E+03  0.65864270000E+03 0.  0.
    8880022    1    1    2    0    0 -0.27671215219E+03 -0.22798662075E+03 -0.55554921402E+02  0.39373279863E+03  0.15294330000E+03 0.  1.
<mgrwt>
<rscale>  0 0.63674195E+03</rscale>
<asrwt>0</asrwt>
<pdfrwt beam="1">  1        2 0.63910121E-01 0.74990514E+03</pdfrwt>
<pdfrwt beam="2">  1       -2 0.13939065E+00 0.74990514E+03</pdfrwt>
<totfact> 0.28016168E+01</totfact>
</mgrwt>
</event>
<event>
 4    2  0.3388003E-007  0.1094981E+04  0.7818608E-02  0.9266665E-01
         -2   -1    0    0    0  501 -0.00000000000E+00  0.00000000000E+00  0.97750971253E+03  0.97750971253E+03  0.25500000000E-02 0.  1.
          2   -1    0    0  501    0  0.00000000000E+00 -0.00000000000E+00 -0.10397504126E+04  0.10397504126E+04  0.25500000000E-02 0. -1.
    8880023    1    1    2    0    0  0.87418339692E+03 -0.31254546344E+02  0.14734558723E+03  0.11048503910E+04  0.65864270000E+03 0.  0.
    8880022    1    1    2    0    0 -0.87418339692E+03  0.31254546344E+02 -0.20958628730E+03  0.91240973414E+03  0.15294330000E+03 0.  0.
<mgrwt>
<rscale>  0 0.10391056E+04</rscale>
<asrwt>0</asrwt>
<pdfrwt beam="1">  1        2 0.15996160E+00 0.10949811E+04</pdfrwt>
<pdfrwt beam="2">  1       -2 0.15038611E+00 0.10949811E+04</pdfrwt>
<totfact> 0.69481416E+00</totfact>
</mgrwt>
</event>
<event>
 4    2  0.3388003E-007  0.8256973E+03  0.7818608E-02  0.9657763E-01
         -2   -1    0    0    0  501 -0.00000000000E+00  0.00000000000E+00  0.14855284468E+04  0.14855284468E+04  0.25500000000E-02 0.  1.
          2   -1    0    0  501    0  0.00000000000E+00 -0.00000000000E+00 -0.55556102169E+03  0.55556102170E+03  0.25500000000E-02 0. -1.
    8880023    1    1    2    0    0  0.15273914619E+03  0.47395838592E+03  0.11982131958E+04  0.14551600830E+04  0.65864270000E+03 0.  1.
    8880022    1    1    2    0    0 -0.15273914619E+03 -0.47395838592E+03 -0.26824577062E+03  0.58592938554E+03  0.15294330000E+03 0.  0.
<mgrwt>
<rscale>  0 0.73588231E+03</rscale>
<asrwt>0</asrwt>
<pdfrwt beam="1">  1        2 0.85470928E-01 0.82569728E+03</pdfrwt>
<pdfrwt beam="2">  1       -2 0.22854283E+00 0.82569728E+03</pdfrwt>
<totfact> 0.48234785E+00</totfact>
</mgrwt>
</event>
<event>
 4    2  0.3388003E-007  0.7070691E+03  0.7818608E-02  0.9969050E-01
          2   -1    0    0  501    0  0.00000000000E+00  0.00000000000E+00  0.16876980267E+04  0.16876980267E+04  0.25500000000E-02 0. -1.
         -2   -1    0    0    0  501 -0.00000000000E+00 -0.00000000000E+00 -0.34052123512E+03  0.34052123513E+03  0.25500000000E-02 0.  1.
    8880023    1    1    2    0    0  0.13903920051E+03  0.21634373707E+03  0.63254530672E+02  0.70989284667E+03  0.65864270000E+03 0.  1.
    8880022    1    1    2    0    0 -0.13903920051E+03 -0.21634373707E+03  0.12839222609E+04  0.13183264151E+04  0.15294330000E+03 0.  0.
<mgrwt>
<rscale>  0 0.57028422E+03</rscale>
<asrwt>0</asrwt>
<pdfrwt beam="1">  1        2 0.25964585E+00 0.70706910E+03</pdfrwt>
<pdfrwt beam="2">  1       -2 0.52387882E-01 0.70706910E+03</pdfrwt>
<totfact> 0.35333866E+01</totfact>
</mgrwt>
</event>
<event>
 4    2  0.3388003E-007  0.8555572E+03  0.7818608E-02  0.9601516E-01
         -2   -1    0    0    0  501 -0.00000000000E+00  0.00000000000E+00  0.58437674441E+03  0.58437674441E+03  0.25500000000E-02 0.  1.
          2   -1    0    0  501    0  0.00000000000E+00 -0.00000000000E+00 -0.12916457078E+04  0.12916457078E+04  0.25500000000E-02 0. -1.
    8880023    1    1    2    0    0  0.29717034087E+03 -0.45810225735E+03  0.12940538993E+03  0.86528830507E+03  0.65864270000E+03 0.  1.
    8880022    1    1    2    0    0 -0.29717034087E+03  0.45810225735E+03 -0.83667435331E+03  0.10107341471E+04  0.15294330000E+03 0.  0.
<mgrwt>
<rscale>  0 0.77195940E+03</rscale>
<asrwt>0</asrwt>
<pdfrwt beam="1">  1        2 0.19871472E+00 0.85555718E+03</pdfrwt>
<pdfrwt beam="2">  1       -2 0.89904115E-01 0.85555718E+03</pdfrwt>
<totfact> 0.17868493E+01</totfact>
</mgrwt>
</event>
<event>
 4    2  0.3388003E-007  0.7344216E+03  0.7818608E-02  0.9876505E-01
          2   -1    0    0  501    0  0.00000000000E+00  0.00000000000E+00  0.61156034636E+03  0.61156034637E+03  0.25500000000E-02 0. -1.
         -2   -1    0    0    0  501 -0.00000000000E+00 -0.00000000000E+00 -0.76648069136E+03  0.76648069136E+03  0.25500000000E-02 0.  1.
    8880023    1    1    2    0    0 -0.30560054723E+03  0.11033209399E+03 -0.49322960960E+03  0.88467537520E+03  0.65864270000E+03 0.  1.
    8880022    1    1    2    0    0  0.30560054723E+03 -0.11033209399E+03  0.33830926460E+03  0.49336566253E+03  0.15294330000E+03 0.  0.
<mgrwt>
<rscale>  0 0.61413591E+03</rscale>
<asrwt>0</asrwt>
<pdfrwt beam="1">  1        2 0.94086207E-01 0.73442159E+03</pdfrwt>
<pdfrwt beam="2">  1       -2 0.11792011E+00 0.73442159E+03</pdfrwt>
<totfact> 0.27255267E+01</totfact>
</mgrwt>
</event>
<event>
 4    2  0.3388003E-007  0.7015115E+03  0.7818608E-02  0.9990988E-01
          2   -1    0    0  501    0  0.00000000000E+00  0.00000000000E+00  0.28739589482E+04  0.28739589482E+04  0.25500000000E-02 0. -1.
         -2   -1    0    0    0  501 -0.00000000000E+00 -0.00000000000E+00 -0.48175398978E+03  0.48175398978E+03  0.25500000000E-02 0.  1.
    8880023    1    1    2    0    0  0.98132826821E+02 -0.22063118660E+03 -0.21435323025E+03  0.73352960798E+03  0.65864270000E+03 0.  1.
    8880022    1    1    2    0    0 -0.98132826821E+02  0.22063118660E+03  0.26065581886E+04  0.26221833300E+04  0.15294330000E+03 0.  0.
<mgrwt>
<rscale>  0 0.56047176E+03</rscale>
<asrwt>0</asrwt>
<pdfrwt beam="1">  1        2 0.44214753E+00 0.70151150E+03</pdfrwt>
<pdfrwt beam="2">  1       -2 0.74115998E-01 0.70151150E+03</pdfrwt>
<totfact> 0.36660874E+00</totfact>
</mgrwt>
</event>
<event>
 4    2  0.3388003E-007  0.6849030E+03  0.7818608E-02  0.1006676E+00
         -2   -1    0    0    0  501 -0.00000000000E+00  0.00000000000E+00  0.50945895336E+03  0.50945895337E+03  0.25500000000E-02 0.  1.
          2   -1    0    0  501    0  0.00000000000E+00 -0.00000000000E+00 -0.16399222339E+04  0.16399222339E+04  0.25500000000E-02 0. -1.
    8880023    1    1    2    0    0  0.18223775769E+03  0.45512060223E+02  0.26401062805E+03  0.73402572567E+03  0.65864270000E+03 0.  1.
    8880022    1    1    2    0    0 -0.18223775769E+03 -0.45512060223E+02 -0.13944739086E+04  0.14153554616E+04  0.15294330000E+03 0.  0.
<mgrwt>
<rscale>  0 0.52817417E+03</rscale>
<asrwt>0</asrwt>
<pdfrwt beam="1">  1        2 0.25229573E+00 0.68490303E+03</pdfrwt>
<pdfrwt beam="2">  1       -2 0.78378301E-01 0.68490303E+03</pdfrwt>
<totfact> 0.15886776E+01</totfact>
</mgrwt>
</event>
<event>
 4    2  0.3388003E-007  0.7522558E+03  0.7818608E-02  0.9825585E-01
          2   -1    0    0  501    0  0.00000000000E+00  0.00000000000E+00  0.12444164767E+04  0.12444164767E+04  0.25500000000E-02 0. -1.
         -2   -1    0    0    0  501 -0.00000000000E+00 -0.00000000000E+00 -0.37009685503E+03  0.37009685504E+03  0.25500000000E-02 0.  1.
    8880023    1    1    2    0    0  0.26759433440E+03 -0.24591030910E+03  0.11782388630E+03  0.76142713530E+03  0.65864270000E+03 0.  1.
    8880022    1    1    2    0    0 -0.26759433440E+03  0.24591030910E+03  0.75649573533E+03  0.85308619641E+03  0.15294330000E+03 0.  0.
<mgrwt>
<rscale>  0 0.64007385E+03</rscale>
<asrwt>0</asrwt>
<pdfrwt beam="1">  1        2 0.19144869E+00 0.75225582E+03</pdfrwt>
<pdfrwt beam="2">  1       -2 0.56937978E-01 0.75225582E+03</pdfrwt>
<totfact> 0.52466215E+01</totfact>
</mgrwt>
</event>
<event>
 4    2  0.3388003E-007  0.1037958E+04  0.7818608E-02  0.9333499E-01
          2   -1    0    0  501    0  0.00000000000E+00  0.00000000000E+00  0.37230815536E+04  0.37230815536E+04  0.25500000000E-02 0. -1.
         -2   -1    0    0    0  501 -0.00000000000E+00 -0.00000000000E+00 -0.63107650560E+03  0.63107650561E+03  0.25500000000E-02 0.  1.
    8880023    1    1    2    0    0  0.79636669742E+03 -0.96682513973E+02  0.33424911945E+04  0.34999435733E+04  0.65864270000E+03 0. -1.
    8880022    1    1    2    0    0 -0.79636669742E+03  0.96682513973E+02 -0.25048614647E+03  0.85421448586E+03  0.15294330000E+03 0.  0.
<mgrwt>
<rscale>  0 0.97756519E+03</rscale>
<asrwt>0</asrwt>
<pdfrwt beam="1">  1        2 0.57278179E+00 0.10379584E+04</pdfrwt>
<pdfrwt beam="2">  1       -2 0.97088690E-01 0.10379584E+04</pdfrwt>
<totfact> 0.51376510E-01</totfact>
</mgrwt>
</event>
<event>
 4    2  0.3388003E-007  0.8046910E+03  0.7818608E-02  0.9700743E-01
         -2   -1    0    0    0  501 -0.00000000000E+00  0.00000000000E+00  0.31525884013E+03  0.31525884014E+03  0.25500000000E-02 0.  1.
          2   -1    0    0  501    0  0.00000000000E+00 -0.00000000000E+00 -0.23643829921E+04  0.23643829921E+04  0.25500000000E-02 0. -1.
    8880023    1    1    2    0    0 -0.36650302193E+03 -0.28176759383E+03 -0.29157883412E+03  0.85588893251E+03  0.65864270000E+03 0.  1.
    8880022    1    1    2    0    0  0.36650302193E+03  0.28176759383E+03 -0.17575453179E+04  0.18237528998E+04  0.15294330000E+03 0.  0.
<mgrwt>
<rscale>  0 0.70972548E+03</rscale>
<asrwt>0</asrwt>
<pdfrwt beam="1">  1        2 0.36375122E+00 0.80469103E+03</pdfrwt>
<pdfrwt beam="2">  1       -2 0.48501362E-01 0.80469103E+03</pdfrwt>
<totfact> 0.17358506E+01</totfact>
</mgrwt>
</event>
<event>
 4    2  0.3388003E-007  0.6853676E+03  0.7818608E-02  0.1006437E+00
         -2   -1    0    0    0  501 -0.00000000000E+00  0.00000000000E+00  0.30299001351E+03  0.30299001352E+03  0.25500000000E-02 0.  1.
          2   -1    0    0  501    0  0.00000000000E+00 -0.00000000000E+00 -0.12451705488E+04  0.12451705488E+04  0.25500000000E-02 0. -1.
    8880023    1    1    2    0    0 -0.16704942933E+03  0.89515757978E+02 -0.12655706808E+03  0.69695443216E+03  0.65864270000E+03 0.  1.
    8880022    1    1    2    0    0  0.16704942933E+03 -0.89515757978E+02 -0.81562346721E+03  0.85120613017E+03  0.15294330000E+03 0.  0.
<mgrwt>
<rscale>  0 0.52915621E+03</rscale>
<asrwt>0</asrwt>
<pdfrwt beam="1">  1        2 0.19156470E+00 0.68536763E+03</pdfrwt>
<pdfrwt beam="2">  1       -2 0.46613849E-01 0.68536763E+03</pdfrwt>
<totfact> 0.79439486E+01</totfact>
</mgrwt>
</event>
<event>
 4    2  0.3388003E-007  0.1201165E+04  0.7818608E-02  0.9155990E-01
          2   -1    0    0  501    0  0.00000000000E+00  0.00000000000E+00  0.12336920821E+04  0.12336920821E+04  0.25500000000E-02 0. -1.
         -2   -1    0    0    0  501 -0.00000000000E+00 -0.00000000000E+00 -0.14809496049E+04  0.14809496049E+04  0.25500000000E-02 0.  1.
    8880023    1    1    2    0    0 -0.76138312580E+03 -0.65519724543E+03 -0.90529002791E+03  0.15041103469E+04  0.65864270000E+03 0.  0.
    8880022    1    1    2    0    0  0.76138312580E+03  0.65519724543E+03  0.65803250515E+03  0.12105313402E+04  0.15294330000E+03 0.  0.
<mgrwt>
<rscale>  0 0.11519456E+04</rscale>
<asrwt>0</asrwt>
<pdfrwt beam="1">  1        2 0.18979878E+00 0.12011652E+04</pdfrwt>
<pdfrwt beam="2">  1       -2 0.22783840E+00 0.12011652E+04</pdfrwt>
<totfact> 0.15494523E+00</totfact>
</mgrwt>
</event>
<event>
 4    2  0.3388003E-007  0.1003961E+04  0.7818608E-02  0.9376393E-01
         -2   -1    0    0    0  501 -0.00000000000E+00  0.00000000000E+00  0.69737236197E+03  0.69737236198E+03  0.25500000000E-02 0.  1.
          2   -1    0    0  501    0  0.00000000000E+00 -0.00000000000E+00 -0.17241637625E+04  0.17241637625E+04  0.25500000000E-02 0. -1.
    8880023    1    1    2    0    0  0.47943314775E+03 -0.58674720267E+03  0.14844148709E+03  0.10148761030E+04  0.65864270000E+03 0.  0.
    8880022    1    1    2    0    0 -0.47943314775E+03  0.58674720267E+03 -0.11752328876E+04  0.14066600215E+04  0.15294330000E+03 0.  0.
<mgrwt>
<rscale>  0 0.94044163E+03</rscale>
<asrwt>0</asrwt>
<pdfrwt beam="1">  1        2 0.26525596E+00 0.10039615E+04</pdfrwt>
<pdfrwt beam="2">  1       -2 0.10728806E+00 0.10039615E+04</pdfrwt>
<totfact> 0.66113086E+00</totfact>
</mgrwt>
</event>
<event>
 4    2  0.3388003E-007  0.6754046E+03  0.7818608E-02  0.1012052E+00
          2   -1    0    0  501    0  0.00000000000E+00  0.00000000000E+00  0.71650279685E+03  0.71650279686E+03  0.25500000000E-02 0. -1.
         -2   -1    0    0    0  501 -0.00000000000E+00 -0.00000000000E+00 -0.41082994779E+03  0.41082994780E+03  0.25500000000E-02 0.  1.
    8880023    1    1    2    0    0 -0.12924378478E+03 -0.75214298150E+02 -0.86200175990E+02  0.68088312004E+03  0.65864270000E+03 0.  1.
    8880022    1    1    2    0    0  0.12924378478E+03  0.75214298150E+02  0.39187302505E+03  0.44644962462E+03  0.15294330000E+03 0.  0.
<mgrwt>
<rscale>  0 0.50667003E+03</rscale>
<asrwt>0</asrwt>
<pdfrwt beam="1">  1        2 0.11023120E+00 0.67540458E+03</pdfrwt>
<pdfrwt beam="2">  1       -2 0.63204608E-01 0.67540458E+03</pdfrwt>
<totfact> 0.93797438E+01</totfact>
</mgrwt>
</event>
<event>
 4    2  0.3388003E-007  0.6618356E+03  0.7818608E-02  0.1022350E+00
         -2   -1    0    0    0  501 -0.00000000000E+00  0.00000000000E+00  0.74195593077E+03  0.74195593077E+03  0.25500000000E-02 0.  1.
          2   -1    0    0  501    0  0.00000000000E+00 -0.00000000000E+00 -0.14383328650E+04  0.14383328650E+04  0.25500000000E-02 0. -1.
    8880023    1    1    2    0    0  0.62350307050E+02 -0.18127475340E+02  0.58794011490E+03  0.88526829330E+03  0.65864270000E+03 0.  0.
    8880022    1    1    2    0    0 -0.62350307050E+02  0.18127475340E+02 -0.12843170492E+04  0.12950205025E+04  0.15294330000E+03 0. -1.
<mgrwt>
<rscale>  0 0.46848060E+03</rscale>
<asrwt>0</asrwt>
<pdfrwt beam="1">  1        2 0.22128198E+00 0.66183561E+03</pdfrwt>
<pdfrwt beam="2">  1       -2 0.11414707E+00 0.66183561E+03</pdfrwt>
<totfact> 0.85680166E+00</totfact>
</mgrwt>
</event>
<event>
 4    2  0.3388003E-007  0.7077897E+03  0.7818608E-02  0.9966302E-01
         -2   -1    0    0    0  501 -0.00000000000E+00  0.00000000000E+00  0.29264754129E+03  0.29264754130E+03  0.25500000000E-02 0.  1.
          2   -1    0    0  501    0  0.00000000000E+00 -0.00000000000E+00 -0.14015675031E+04  0.14015675031E+04  0.25500000000E-02 0. -1.
    8880023    1    1    2    0    0 -0.52562462270E+02  0.25375829987E+03 -0.19812111091E+03  0.73499542042E+03  0.65864270000E+03 0.  0.
    8880022    1    1    2    0    0  0.52562462270E+02 -0.25375829987E+03 -0.91079885090E+03  0.95921962397E+03  0.15294330000E+03 0.  0.
<mgrwt>
<rscale>  0 0.57152850E+03</rscale>
<asrwt>0</asrwt>
<pdfrwt beam="1">  1        2 0.21562577E+00 0.70778972E+03</pdfrwt>
<pdfrwt beam="2">  1       -2 0.45022699E-01 0.70778972E+03</pdfrwt>
<totfact> 0.69130088E+01</totfact>
</mgrwt>
</event>
<event>
 4    2  0.3388003E-007  0.8202468E+03  0.7818608E-02  0.9668616E-01
          2   -1    0    0  501    0  0.00000000000E+00  0.00000000000E+00  0.93071407179E+03  0.93071407179E+03  0.25500000000E-02 0. -1.
         -2   -1    0    0    0  501 -0.00000000000E+00 -0.00000000000E+00 -0.12084735496E+04  0.12084735496E+04  0.25500000000E-02 0.  1.
    8880023    1    1    2    0    0 -0.40188801072E+03 -0.27835355900E+03 -0.97491857175E+03  0.12740765694E+04  0.65864270000E+03 0.  1.
    8880022    1    1    2    0    0  0.40188801072E+03  0.27835355900E+03  0.69715909393E+03  0.86511105197E+03  0.15294330000E+03 0.  0.
<mgrwt>
<rscale>  0 0.72916544E+03</rscale>
<asrwt>0</asrwt>
<pdfrwt beam="1">  1        2 0.14318678E+00 0.82024684E+03</pdfrwt>
<pdfrwt beam="2">  1       -2 0.18591901E+00 0.82024684E+03</pdfrwt>
<totfact> 0.46731076E+00</totfact>
</mgrwt>
</event>
<event>
 4    2  0.3388003E-007  0.1025338E+04  0.7818608E-02  0.9349134E-01
          2   -1    0    0  501    0  0.00000000000E+00  0.00000000000E+00  0.15637057243E+04  0.15637057243E+04  0.25500000000E-02 0. -1.
         -2   -1    0    0    0  501 -0.00000000000E+00 -0.00000000000E+00 -0.10747090560E+04  0.10747090560E+04  0.25500000000E-02 0.  1.
    8880023    1    1    2    0    0  0.44362038883E+03 -0.64862003743E+03 -0.67362794344E+03  0.12268218350E+04  0.65864270000E+03 0.  0.
    8880022    1    1    2    0    0 -0.44362038883E+03  0.64862003743E+03  0.11626246117E+04  0.14115929453E+04  0.15294330000E+03 0.  0.
<mgrwt>
<rscale>  0 0.96382644E+03</rscale>
<asrwt>0</asrwt>
<pdfrwt beam="1">  1        2 0.24057011E+00 0.10253376E+04</pdfrwt>
<pdfrwt beam="2">  1       -2 0.16533986E+00 0.10253376E+04</pdfrwt>
<totfact> 0.26633655E+00</totfact>
</mgrwt>
</event>
<event>
 4    2  0.3388003E-007  0.8220529E+03  0.7818608E-02  0.9664997E-01
          2   -1    0    0  501    0  0.00000000000E+00  0.00000000000E+00  0.20669499838E+04  0.20669499838E+04  0.25500000000E-02 0. -1.
         -2   -1    0    0    0  501 -0.00000000000E+00 -0.00000000000E+00 -0.34882530974E+03  0.34882530975E+03  0.25500000000E-02 0.  1.
    8880023    1    1    2    0    0 -0.25534580199E+03  0.42042758378E+03  0.24896708448E+03  0.85892703253E+03  0.65864270000E+03 0.  0.
    8880022    1    1    2    0    0  0.25534580199E+03 -0.42042758378E+03  0.14691575896E+04  0.15568482610E+04  0.15294330000E+03 0.  0.
<mgrwt>
<rscale>  0 0.73139626E+03</rscale>
<asrwt>0</asrwt>
<pdfrwt beam="1">  1        2 0.31799230E+00 0.82205294E+03</pdfrwt>
<pdfrwt beam="2">  1       -2 0.53665433E-01 0.82205294E+03</pdfrwt>
<totfact> 0.20570691E+01</totfact>
</mgrwt>
</event>
<event>
 4    2  0.3388003E-007  0.9999977E+03  0.7818608E-02  0.9381561E-01
         -2   -1    0    0    0  501 -0.00000000000E+00  0.00000000000E+00  0.12853721096E+04  0.12853721096E+04  0.25500000000E-02 0.  1.
          2   -1    0    0  501    0  0.00000000000E+00 -0.00000000000E+00 -0.72559353525E+03  0.72559353526E+03  0.25500000000E-02 0. -1.
    8880023    1    1    2    0    0  0.28264710908E+03  0.69734916116E+03  0.71278518280E+03  0.12280301967E+04  0.65864270000E+03 0.  0.
    8880022    1    1    2    0    0 -0.28264710908E+03 -0.69734916116E+03 -0.15300660843E+03  0.78293544822E+03  0.15294330000E+03 0.  0.
<mgrwt>
<rscale>  0 0.93608830E+03</rscale>
<asrwt>0</asrwt>
<pdfrwt beam="1">  1        2 0.11162978E+00 0.99999772E+03</pdfrwt>
<pdfrwt beam="2">  1       -2 0.19774955E+00 0.99999772E+03</pdfrwt>
<totfact> 0.53494441E+00</totfact>
</mgrwt>
</event>
<event>
 4    2  0.3388003E-007  0.8411314E+03  0.7818608E-02  0.9628051E-01
          2   -1    0    0  501    0  0.00000000000E+00  0.00000000000E+00  0.78680231034E+03  0.78680231034E+03  0.25500000000E-02 0. -1.
         -2   -1    0    0    0  501 -0.00000000000E+00 -0.00000000000E+00 -0.97575396792E+03  0.97575396792E+03  0.25500000000E-02 0.  1.
    8880023    1    1    2    0    0 -0.45722552841E+03 -0.25423739442E+03 -0.63850699258E+03  0.10560270936E+04  0.65864270000E+03 0.  0.
    8880022    1    1    2    0    0  0.45722552841E+03  0.25423739442E+03  0.44955533500E+03  0.70652918467E+03  0.15294330000E+03 0.  0.
<mgrwt>
<rscale>  0 0.75467107E+03</rscale>
<asrwt>0</asrwt>
<pdfrwt beam="1">  1        2 0.12104651E+00 0.84113141E+03</pdfrwt>
<pdfrwt beam="2">  1       -2 0.15011600E+00 0.84113141E+03</pdfrwt>
<totfact> 0.10597065E+01</totfact>
</mgrwt>
</event>
<event>
 4    2  0.3388003E-007  0.1749516E+04  0.7818608E-02  0.8750989E-01
          2   -1    0    0  501    0  0.00000000000E+00  0.00000000000E+00  0.13286483023E+04  0.13286483023E+04  0.25500000000E-02 0. -1.
         -2   -1    0    0    0  501 -0.00000000000E+00 -0.00000000000E+00 -0.25234119619E+04  0.25234119619E+04  0.25500000000E-02 0.  1.
    8880023    1    1    2    0    0  0.14429000472E+04 -0.73826432200E+03 -0.13596532116E+04  0.22157305381E+04  0.65864270000E+03 0.  0.
    8880022    1    1    2    0    0 -0.14429000472E+04  0.73826432200E+03  0.16488955196E+03  0.16363297261E+04  0.15294330000E+03 0.  0.
<mgrwt>
<rscale>  0 0.17183120E+04</rscale>
<asrwt>0</asrwt>
<pdfrwt beam="1">  1        2 0.20440743E+00 0.17495156E+04</pdfrwt>
<pdfrwt beam="2">  1       -2 0.38821722E+00 0.17495156E+04</pdfrwt>
<totfact> 0.12955499E-01</totfact>
</mgrwt>
</event>
<event>
 4    2  0.3388003E-007  0.8701262E+03  0.7818608E-02  0.9575799E-01
         -2   -1    0    0    0  501 -0.00000000000E+00  0.00000000000E+00  0.69963908424E+03  0.69963908424E+03  0.25500000000E-02 0.  1.
          2   -1    0    0  501    0  0.00000000000E+00 -0.00000000000E+00 -0.10293527376E+04  0.10293527376E+04  0.25500000000E-02 0. -1.
    8880023    1    1    2    0    0  0.42666584001E+03  0.37585319954E+03  0.24729890526E+03  0.90458627087E+03  0.65864270000E+03 0.  1.
    8880022    1    1    2    0    0 -0.42666584001E+03 -0.37585319954E+03 -0.57701255860E+03  0.82440555094E+03  0.15294330000E+03 0. -1.
<mgrwt>
<rscale>  0 0.78918908E+03</rscale>
<asrwt>0</asrwt>
<pdfrwt beam="1">  1        2 0.15836196E+00 0.87012618E+03</pdfrwt>
<pdfrwt beam="2">  1       -2 0.10763678E+00 0.87012618E+03</pdfrwt>
<totfact> 0.16783638E+01</totfact>
</mgrwt>
</event>
<event>
 4    2  0.3388003E-007  0.7113756E+03  0.7818608E-02  0.9952928E-01
          2   -1    0    0  501    0  0.00000000000E+00  0.00000000000E+00  0.26132127076E+04  0.26132127076E+04  0.25500000000E-02 0. -1.
         -2   -1    0    0    0  501 -0.00000000000E+00 -0.00000000000E+00 -0.21000762269E+03  0.21000762270E+03  0.25500000000E-02 0.  1.
    8880023    1    1    2    0    0 -0.13073831503E+03 -0.23484565143E+03  0.44140231689E+03  0.83719245018E+03  0.65864270000E+03 0.  1.
    8880022    1    1    2    0    0  0.13073831503E+03  0.23484565143E+03  0.19618027680E+04  0.19860278801E+04  0.15294330000E+03 0.  0.
<mgrwt>
<rscale>  0 0.57763333E+03</rscale>
<asrwt>0</asrwt>
<pdfrwt beam="1">  1        2 0.40203272E+00 0.71137556E+03</pdfrwt>
<pdfrwt beam="2">  1       -2 0.32308865E-01 0.71137556E+03</pdfrwt>
<totfact> 0.28071217E+01</totfact>
</mgrwt>
</event>
<event>
 4    2  0.3388003E-007  0.7554948E+03  0.7818608E-02  0.9816914E-01
         -2   -1    0    0    0  501 -0.00000000000E+00  0.00000000000E+00  0.58875414097E+03  0.58875414097E+03  0.25500000000E-02 0.  1.
          2   -1    0    0  501    0  0.00000000000E+00 -0.00000000000E+00 -0.19415180313E+04  0.19415180313E+04  0.25500000000E-02 0. -1.
    8880023    1    1    2    0    0  0.59003154152E+02  0.36535021559E+03 -0.17866633832E+04  0.19398294780E+04  0.65864270000E+03 0. -1.
    8880022    1    1    2    0    0 -0.59003154152E+02 -0.36535021559E+03  0.43389949295E+03  0.59044269428E+03  0.15294330000E+03 0.  0.
<mgrwt>
<rscale>  0 0.64462702E+03</rscale>
<asrwt>0</asrwt>
<pdfrwt beam="1">  1        2 0.29869508E+00 0.75549478E+03</pdfrwt>
<pdfrwt beam="2">  1       -2 0.90577561E-01 0.75549478E+03</pdfrwt>
<totfact> 0.77485157E+00</totfact>
</mgrwt>
</event>
<event>
 4    2  0.3388003E-007  0.9998510E+03  0.7818608E-02  0.9381753E-01
         -2   -1    0    0    0  501 -0.00000000000E+00  0.00000000000E+00  0.45760390555E+03  0.45760390555E+03  0.25500000000E-02 0.  1.
          2   -1    0    0  501    0  0.00000000000E+00 -0.00000000000E+00 -0.17624632125E+04  0.17624632125E+04  0.25500000000E-02 0. -1.
    8880023    1    1    2    0    0  0.72887451419E+03 -0.18610156261E+03 -0.93114269764E+03  0.13662828326E+04  0.65864270000E+03 0.  0.
    8880022    1    1    2    0    0 -0.72887451419E+03  0.18610156261E+03 -0.37371660936E+03  0.85378428550E+03  0.15294330000E+03 0.  0.
<mgrwt>
<rscale>  0 0.93592706E+03</rscale>
<asrwt>0</asrwt>
<pdfrwt beam="1">  1        2 0.27114818E+00 0.99985102E+03</pdfrwt>
<pdfrwt beam="2">  1       -2 0.70400602E-01 0.99985102E+03</pdfrwt>
<totfact> 0.16622589E+01</totfact>
</mgrwt>
</event>
<event>
 4    2  0.3388003E-007  0.7646847E+03  0.7818608E-02  0.9793127E-01
          2   -1    0    0  501    0  0.00000000000E+00  0.00000000000E+00  0.41746380688E+04  0.41746380688E+04  0.25500000000E-02 0. -1.
         -2   -1    0    0    0  501 -0.00000000000E+00 -0.00000000000E+00 -0.12232848014E+03  0.12232848017E+03  0.25500000000E-02 0.  1.
    8880023    1    1    2    0    0 -0.38326824530E+03 -0.63544815984E+02  0.12620344250E+04  0.14756265068E+04  0.65864270000E+03 0.  1.
    8880022    1    1    2    0    0  0.38326824530E+03  0.63544815984E+02  0.27902751636E+04  0.28213400421E+04  0.15294330000E+03 0.  0.
<mgrwt>
<rscale>  0 0.65732704E+03</rscale>
<asrwt>0</asrwt>
<pdfrwt beam="1">  1        2 0.64225192E+00 0.76468470E+03</pdfrwt>
<pdfrwt beam="2">  1       -2 0.18819769E-01 0.76468470E+03</pdfrwt>
<totfact> 0.64346200E+00</totfact>
</mgrwt>
</event>
<event>
 4    2  0.3388003E-007  0.8261139E+03  0.7818608E-02  0.9656941E-01
         -2   -1    0    0    0  501 -0.00000000000E+00  0.00000000000E+00  0.12497612805E+04  0.12497612805E+04  0.25500000000E-02 0.  1.
          2   -1    0    0  501    0  0.00000000000E+00 -0.00000000000E+00 -0.62889367093E+03  0.62889367094E+03  0.25500000000E-02 0. -1.
    8880023    1    1    2    0    0 -0.24942772283E+03  0.43178679202E+03  0.95229214327E+03  0.12606841615E+04  0.65864270000E+03 0.  1.
    8880022    1    1    2    0    0  0.24942772283E+03 -0.43178679202E+03 -0.33142453368E+03  0.61797078995E+03  0.15294330000E+03 0.  0.
<mgrwt>
<rscale>  0 0.73639391E+03</rscale>
<asrwt>0</asrwt>
<pdfrwt beam="1">  1        2 0.96752872E-01 0.82611393E+03</pdfrwt>
<pdfrwt beam="2">  1       -2 0.19227097E+00 0.82611393E+03</pdfrwt>
<totfact> 0.70827950E+00</totfact>
</mgrwt>
</event>
<event>
 4    2  0.3388003E-007  0.6703722E+03  0.7818608E-02  0.1015397E+00
         -2   -1    0    0    0  501 -0.00000000000E+00  0.00000000000E+00  0.30882818006E+03  0.30882818007E+03  0.25500000000E-02 0.  1.
          2   -1    0    0  501    0  0.00000000000E+00 -0.00000000000E+00 -0.13414455047E+04  0.13414455047E+04  0.25500000000E-02 0. -1.
    8880023    1    1    2    0    0 -0.10877853827E+03  0.61285275041E+02 -0.77353476378E+02  0.67482028859E+03  0.65864270000E+03 0.  1.
    8880022    1    1    2    0    0  0.10877853827E+03 -0.61285275041E+02 -0.95526384826E+03  0.97545339619E+03  0.15294330000E+03 0.  0.
<mgrwt>
<rscale>  0 0.49384726E+03</rscale>
<asrwt>0</asrwt>
<pdfrwt beam="1">  1        2 0.20637623E+00 0.67037218E+03</pdfrwt>
<pdfrwt beam="2">  1       -2 0.47512028E-01 0.67037218E+03</pdfrwt>
<totfact> 0.67392882E+01</totfact>
</mgrwt>
</event>
<event>
 4    2  0.3388003E-007  0.8223151E+03  0.7818608E-02  0.9664474E-01
         -2   -1    0    0    0  501 -0.00000000000E+00  0.00000000000E+00  0.42087494794E+03  0.42087494795E+03  0.25500000000E-02 0.  1.
          2   -1    0    0  501    0  0.00000000000E+00 -0.00000000000E+00 -0.27082952022E+04  0.27082952022E+04  0.25500000000E-02 0. -1.
    8880023    1    1    2    0    0  0.39159009171E+03 -0.29841098108E+03 -0.39903080593E+02  0.82328268272E+03  0.65864270000E+03 0.  0.
    8880022    1    1    2    0    0 -0.39159009171E+03  0.29841098108E+03 -0.22475171737E+04  0.23058874674E+04  0.15294330000E+03 0.  0.
<mgrwt>
<rscale>  0 0.73171964E+03</rscale>
<asrwt>0</asrwt>
<pdfrwt beam="1">  1        2 0.41666079E+00 0.82231510E+03</pdfrwt>
<pdfrwt beam="2">  1       -2 0.64749994E-01 0.82231510E+03</pdfrwt>
<totfact> 0.60270316E+00</totfact>
</mgrwt>
</event>
<event>
 4    2  0.4668458E-007  0.7814991E+03  0.7818608E-02  0.9752327E-01
          2   -1    0    0  501    0  0.00000000000E+00  0.00000000000E+00  0.16360576929E+04  0.16360576929E+04  0.25500000000E-02 0. -1.
         -2   -1    0    0    0  501 -0.00000000000E+00 -0.00000000000E+00 -0.13634148776E+04  0.13634148776E+04  0.25500000000E-02 0.  1.
    8880023    1    1    2    0    0 -0.19529020667E+03 -0.37254854741E+03 -0.12157370835E+04  0.14452534544E+04  0.65864270000E+03 0.  1.
    8880022    1    1    2    0    0  0.19529020667E+03  0.37254854741E+03  0.14883798988E+04  0.15542191162E+04  0.15294330000E+03 0.  0.
<mgrwt>
<rscale>  0 0.67984913E+03</rscale>
<asrwt>0</asrwt>
<pdfrwt beam="1">  1        2 0.25170118E+00 0.78149913E+03</pdfrwt>
<pdfrwt beam="2">  1       -2 0.20975613E+00 0.78149913E+03</pdfrwt>
<totfact> 0.12611193E+00</totfact>
</mgrwt>
</event>
<event>
 4    2  0.3388003E-007  0.1038669E+04  0.7818608E-02  0.9332628E-01
          2   -1    0    0  501    0  0.00000000000E+00  0.00000000000E+00  0.39292659046E+03  0.39292659046E+03  0.25500000000E-02 0. -1.
         -2   -1    0    0    0  501 -0.00000000000E+00 -0.00000000000E+00 -0.23184854288E+04  0.23184854288E+04  0.25500000000E-02 0.  1.
    8880023    1    1    2    0    0  0.14512332930E+03  0.78991284713E+03 -0.13853984865E+04  0.17315202163E+04  0.65864270000E+03 0. -1.
    8880022    1    1    2    0    0 -0.14512332930E+03 -0.78991284713E+03 -0.54016035179E+03  0.97989180292E+03  0.15294330000E+03 0.  0.
<mgrwt>
<rscale>  0 0.97833734E+03</rscale>
<asrwt>0</asrwt>
<pdfrwt beam="1">  1        2 0.60450246E-01 0.10386690E+04</pdfrwt>
<pdfrwt beam="2">  1       -2 0.35669006E+00 0.10386690E+04</pdfrwt>
<totfact> 0.11589042E+00</totfact>
</mgrwt>
</event>
<event>
 4    2  0.3388003E-007  0.9701669E+03  0.7818608E-02  0.9421673E-01
         -2   -1    0    0    0  501 -0.00000000000E+00  0.00000000000E+00  0.38893083892E+03  0.38893083893E+03  0.25500000000E-02 0.  1.
          2   -1    0    0  501    0  0.00000000000E+00 -0.00000000000E+00 -0.30128921235E+04  0.30128921236E+04  0.25500000000E-02 0. -1.
    8880023    1    1    2    0    0  0.30566003925E+03  0.64341712094E+03 -0.37894775581E+03  0.10415494511E+04  0.65864270000E+03 0.  0.
    8880022    1    1    2    0    0 -0.30566003925E+03 -0.64341712094E+03 -0.22450135288E+04  0.23602735114E+04  0.15294330000E+03 0.  0.
<mgrwt>
<rscale>  0 0.90313309E+03</rscale>
<asrwt>0</asrwt>
<pdfrwt beam="1">  1        2 0.46352185E+00 0.97016692E+03</pdfrwt>
<pdfrwt beam="2">  1       -2 0.59835516E-01 0.97016692E+03</pdfrwt>
<totfact> 0.45746647E+00</totfact>
</mgrwt>
</event>
<event>
 4    2  0.3388003E-007  0.1510997E+04  0.7818608E-02  0.8901909E-01
          2   -1    0    0  501    0  0.00000000000E+00  0.00000000000E+00  0.19213738145E+04  0.19213738145E+04  0.25500000000E-02 0. -1.
         -2   -1    0    0    0  501 -0.00000000000E+00 -0.00000000000E+00 -0.13250862191E+04  0.13250862191E+04  0.25500000000E-02 0.  1.
    8880023    1    1    2    0    0  0.11605219333E+04  0.70886583491E+03  0.10092335433E+04  0.18170482880E+04  0.65864270000E+03 0.  0.
    8880022    1    1    2    0    0 -0.11605219333E+04 -0.70886583491E+03 -0.41294594795E+03  0.14294117456E+04  0.15294330000E+03 0.  0.
<mgrwt>
<rscale>  0 0.14740291E+04</rscale>
<asrwt>0</asrwt>
<pdfrwt beam="1">  1        2 0.29559597E+00 0.15109971E+04</pdfrwt>
<pdfrwt beam="2">  1       -2 0.20385942E+00 0.15109971E+04</pdfrwt>
<totfact> 0.87003307E-01</totfact>
</mgrwt>
</event>
<event>
 4    2  0.3388003E-007  0.6724231E+03  0.7818608E-02  0.1013982E+00
          2   -1    0    0  501    0  0.00000000000E+00  0.00000000000E+00  0.29208817492E+04  0.29208817492E+04  0.25500000000E-02 0. -1.
         -2   -1    0    0    0  501 -0.00000000000E+00 -0.00000000000E+00 -0.10128046002E+03  0.10128046005E+03  0.25500000000E-02 0.  1.
    8880023    1    1    2    0    0  0.11410510932E+03 -0.72956177230E+02  0.10913077531E+04  0.12818367283E+04  0.65864270000E+03 0.  1.
    8880022    1    1    2    0    0 -0.11410510932E+03  0.72956177230E+02  0.17282935361E+04  0.17403254810E+04  0.15294330000E+03 0.  0.
<mgrwt>
<rscale>  0 0.49922176E+03</rscale>
<asrwt>0</asrwt>
<pdfrwt beam="1">  1        2 0.44936637E+00 0.67242307E+03</pdfrwt>
<pdfrwt beam="2">  1       -2 0.15581611E-01 0.67242307E+03</pdfrwt>
<totfact> 0.68166083E+01</totfact>
</mgrwt>
</event>
<event>
 4    2  0.3388003E-007  0.1194726E+04  0.7818608E-02  0.9162266E-01
         -2   -1    0    0    0  501 -0.00000000000E+00  0.00000000000E+00  0.93285744371E+03  0.93285744371E+03  0.25500000000E-02 0.  1.
          2   -1    0    0  501    0  0.00000000000E+00 -0.00000000000E+00 -0.17280645149E+04  0.17280645149E+04  0.25500000000E-02 0. -1.
    8880023    1    1    2    0    0 -0.33443081261E+01  0.99676939722E+03 -0.10826695541E+04  0.16123101393E+04  0.65864270000E+03 0.  0.
    8880022    1    1    2    0    0  0.33443081261E+01 -0.99676939722E+03  0.28746248286E+03  0.10486118194E+04  0.15294330000E+03 0.  0.
<mgrwt>
<rscale>  0 0.11451539E+04</rscale>
<asrwt>0</asrwt>
<pdfrwt beam="1">  1        2 0.26585608E+00 0.11947262E+04</pdfrwt>
<pdfrwt beam="2">  1       -2 0.14351653E+00 0.11947262E+04</pdfrwt>
<totfact> 0.30996796E+00</totfact>
</mgrwt>
</event>
<event>
 4    2  0.3388003E-007  0.6995241E+03  0.7818608E-02  0.9999181E-01
         -2   -1    0    0    0  501 -0.00000000000E+00  0.00000000000E+00  0.11296150897E+04  0.11296150897E+04  0.25500000000E-02 0.  1.
          2   -1    0    0  501    0  0.00000000000E+00 -0.00000000000E+00 -0.36260713862E+03  0.36260713863E+03  0.25500000000E-02 0. -1.
    8880023    1    1    2    0    0  0.23430925658E+03  0.24957655966E+02  0.93285658018E+03  0.11659997074E+04  0.65864270000E+03 0.  1.
    8880022    1    1    2    0    0 -0.23430925658E+03 -0.24957655966E+02 -0.16584862913E+03  0.32622252085E+03  0.15294330000E+03 0.  0.
<mgrwt>
<rscale>  0 0.55686150E+03</rscale>
<asrwt>0</asrwt>
<pdfrwt beam="1">  1        2 0.55785715E-01 0.69952407E+03</pdfrwt>
<pdfrwt beam="2">  1       -2 0.17378693E+00 0.69952407E+03</pdfrwt>
<totfact> 0.18138274E+01</totfact>
</mgrwt>
</event>
<event>
 4    2  0.3388003E-007  0.7156242E+03  0.7818608E-02  0.9937680E-01
         -2   -1    0    0    0  501 -0.00000000000E+00  0.00000000000E+00  0.41204736932E+03  0.41204736933E+03  0.25500000000E-02 0.  1.
          2   -1    0    0  501    0  0.00000000000E+00 -0.00000000000E+00 -0.13130721278E+04  0.13130721278E+04  0.25500000000E-02 0. -1.
    8880023    1    1    2    0    0 -0.22974646649E+03  0.15976344681E+03  0.54584339060E+02  0.71770290102E+03  0.65864270000E+03 0.  1.
    8880022    1    1    2    0    0  0.22974646649E+03 -0.15976344681E+03 -0.95560909753E+03  0.10074165961E+04  0.15294330000E+03 0.  0.
<mgrwt>
<rscale>  0 0.58469394E+03</rscale>
<asrwt>0</asrwt>
<pdfrwt beam="1">  1        2 0.20201110E+00 0.71562421E+03</pdfrwt>
<pdfrwt beam="2">  1       -2 0.63391903E-01 0.71562421E+03</pdfrwt>
<totfact> 0.38303426E+01</totfact>
</mgrwt>
</event>
<event>
 4    2  0.3388003E-007  0.6927336E+03  0.7818608E-02  0.1002879E+00
         -2   -1    0    0    0  501 -0.00000000000E+00  0.00000000000E+00  0.35611171089E+03  0.35611171090E+03  0.25500000000E-02 0.  1.
          2   -1    0    0  501    0  0.00000000000E+00 -0.00000000000E+00 -0.91589444037E+03  0.91589444038E+03  0.25500000000E-02 0. -1.
    8880023    1    1    2    0    0  0.71112378941E+02 -0.20251593021E+03 -0.45624367025E+02  0.69423444279E+03  0.65864270000E+03 0.  1.
    8880022    1    1    2    0    0 -0.71112378941E+02  0.20251593021E+03 -0.51415836246E+03  0.57777170849E+03  0.15294330000E+03 0.  0.
<mgrwt>
<rscale>  0 0.54405472E+03</rscale>
<asrwt>0</asrwt>
<pdfrwt beam="1">  1        2 0.14090684E+00 0.69273363E+03</pdfrwt>
<pdfrwt beam="2">  1       -2 0.54786417E-01 0.69273363E+03</pdfrwt>
<totfact> 0.91242958E+01</totfact>
</mgrwt>
</event>
<event>
 4    2  0.3388003E-007  0.1096426E+04  0.7818608E-02  0.9265046E-01
         -2   -1    0    0    0  501 -0.00000000000E+00  0.00000000000E+00  0.96038099455E+03  0.96038099455E+03  0.25500000000E-02 0.  1.
          2   -1    0    0  501    0  0.00000000000E+00 -0.00000000000E+00 -0.14010328131E+04  0.14010328131E+04  0.25500000000E-02 0. -1.
    8880023    1    1    2    0    0 -0.86853355305E+03 -0.11827718750E+03  0.37054629463E+03  0.11573481709E+04  0.65864270000E+03 0.  0.
    8880022    1    1    2    0    0  0.86853355305E+03  0.11827718750E+03 -0.81119811317E+03  0.12040656368E+04  0.15294330000E+03 0.  0.
<mgrwt>
<rscale>  0 0.10406550E+04</rscale>
<asrwt>0</asrwt>
<pdfrwt beam="1">  1        2 0.21554351E+00 0.10964261E+04</pdfrwt>
<pdfrwt beam="2">  1       -2 0.14775092E+00 0.10964261E+04</pdfrwt>
<totfact> 0.44258704E+00</totfact>
</mgrwt>
</event>
<event>
 4    2  0.3388003E-007  0.6947129E+03  0.7818608E-02  0.1001988E+00
         -2   -1    0    0    0  501 -0.00000000000E+00  0.00000000000E+00  0.25470143994E+03  0.25470143996E+03  0.25500000000E-02 0.  1.
          2   -1    0    0  501    0  0.00000000000E+00 -0.00000000000E+00 -0.11245186842E+04  0.11245186842E+04  0.25500000000E-02 0. -1.
    8880023    1    1    2    0    0 -0.17115660890E+03  0.13971814805E+03 -0.31507559694E+03  0.76282277346E+03  0.65864270000E+03 0.  0.
    8880022    1    1    2    0    0  0.17115660890E+03 -0.13971814805E+03 -0.55474164734E+03  0.61639735072E+03  0.15294330000E+03 0.  0.
<mgrwt>
<rscale>  0 0.54786898E+03</rscale>
<asrwt>0</asrwt>
<pdfrwt beam="1">  1        2 0.17300287E+00 0.69471286E+03</pdfrwt>
<pdfrwt beam="2">  1       -2 0.39184838E-01 0.69471286E+03</pdfrwt>
<totfact> 0.13181183E+02</totfact>
</mgrwt>
</event>
<event>
 4    2  0.3482435E-007  0.7917904E+03  0.7818608E-02  0.9728836E-01
         -2   -1    0    0    0  501 -0.00000000000E+00  0.00000000000E+00  0.12993309550E+04  0.12993309550E+04  0.25500000000E-02 0.  1.
          2   -1    0    0  501    0  0.00000000000E+00 -0.00000000000E+00 -0.15759477970E+04  0.15759477970E+04  0.25500000000E-02 0. -1.
    8880023    1    1    2    0    0  0.27441677735E+03  0.34324518659E+03  0.11378566638E+04  0.13862358455E+04  0.65864270000E+03 0.  0.
    8880022    1    1    2    0    0 -0.27441677735E+03 -0.34324518659E+03 -0.14144735058E+04  0.14890429065E+04  0.15294330000E+03 0.  0.
<mgrwt>
<rscale>  0 0.69325545E+03</rscale>
<asrwt>0</asrwt>
<pdfrwt beam="1">  1        2 0.24245351E+00 0.79179040E+03</pdfrwt>
<pdfrwt beam="2">  1       -2 0.19989707E+00 0.79179040E+03</pdfrwt>
<totfact> 0.15726061E+00</totfact>
</mgrwt>
</event>
<event>
 4    2  0.3388003E-007  0.7763301E+03  0.7818608E-02  0.9764529E-01
         -2   -1    0    0    0  501 -0.00000000000E+00  0.00000000000E+00  0.17904894330E+03  0.17904894332E+03  0.25500000000E-02 0.  1.
          2   -1    0    0  501    0  0.00000000000E+00 -0.00000000000E+00 -0.27782123500E+04  0.27782123500E+04  0.25500000000E-02 0. -1.
    8880023    1    1    2    0    0  0.21467411013E+03 -0.35041856398E+03 -0.83801607065E+03  0.11423481450E+04  0.65864270000E+03 0.  0.
    8880022    1    1    2    0    0 -0.21467411013E+03  0.35041856398E+03 -0.17611473361E+04  0.18149131483E+04  0.15294330000E+03 0.  0.
<mgrwt>
<rscale>  0 0.67301335E+03</rscale>
<asrwt>0</asrwt>
<pdfrwt beam="1">  1        2 0.42741725E+00 0.77633005E+03</pdfrwt>
<pdfrwt beam="2">  1       -2 0.27545993E-01 0.77633005E+03</pdfrwt>
<totfact> 0.29956391E+01</totfact>
</mgrwt>
</event>
<event>
 4    2  0.3388003E-007  0.6740265E+03  0.7818608E-02  0.1012927E+00
          2   -1    0    0  501    0  0.00000000000E+00  0.00000000000E+00  0.21798717032E+04  0.21798717032E+04  0.25500000000E-02 0. -1.
         -2   -1    0    0    0  501 -0.00000000000E+00 -0.00000000000E+00 -0.10462691125E+03  0.10462691129E+03  0.25500000000E-02 0.  1.
    8880023    1    1    2    0    0  0.93232797791E+02 -0.10866974112E+03  0.11252643875E+04  0.13116903656E+04  0.65864270000E+03 0.  1.
    8880022    1    1    2    0    0 -0.93232797791E+02  0.10866974112E+03  0.94998040444E+03  0.97280824886E+03  0.15294330000E+03 0.  0.
<mgrwt>
<rscale>  0 0.50327721E+03</rscale>
<asrwt>0</asrwt>
<pdfrwt beam="1">  1        2 0.33536489E+00 0.67402646E+03</pdfrwt>
<pdfrwt beam="2">  1       -2 0.16096447E-01 0.67402646E+03</pdfrwt>
<totfact> 0.17075004E+02</totfact>
</mgrwt>
</event>
<event>
 4    2  0.3388003E-007  0.6978407E+03  0.7818608E-02  0.1000628E+00
         -2   -1    0    0    0  501 -0.00000000000E+00  0.00000000000E+00  0.23580987915E+03  0.23580987917E+03  0.25500000000E-02 0.  1.
          2   -1    0    0  501    0  0.00000000000E+00 -0.00000000000E+00 -0.43167169706E+04  0.43167169706E+04  0.25500000000E-02 0. -1.
    8880023    1    1    2    0    0  0.23045780856E+03 -0.77861111193E+01 -0.29682985149E+03  0.75834661735E+03  0.65864270000E+03 0.  1.
    8880022    1    1    2    0    0 -0.23045780856E+03  0.77861111193E+01 -0.37840772400E+04  0.37941802325E+04  0.15294330000E+03 0.  0.
<mgrwt>
<rscale>  0 0.55375752E+03</rscale>
<asrwt>0</asrwt>
<pdfrwt beam="1">  1        2 0.66411024E+00 0.69784069E+03</pdfrwt>
<pdfrwt beam="2">  1       -2 0.36278446E-01 0.69784069E+03</pdfrwt>
<totfact> 0.14958481E+00</totfact>
</mgrwt>
</event>
<event>
 4    2  0.3388003E-007  0.6845614E+03  0.7818608E-02  0.1006853E+00
         -2   -1    0    0    0  501 -0.00000000000E+00  0.00000000000E+00  0.84961584998E+03  0.84961584999E+03  0.25500000000E-02 0.  1.
          2   -1    0    0  501    0  0.00000000000E+00 -0.00000000000E+00 -0.34952163886E+03  0.34952163887E+03  0.25500000000E-02 0. -1.
    8880023    1    1    2    0    0  0.18651220579E+03  0.52197056725E+01  0.62544570000E+03  0.92725755761E+03  0.65864270000E+03 0.  1.
    8880022    1    1    2    0    0 -0.18651220579E+03 -0.52197056725E+01 -0.12535148888E+03  0.27187993125E+03  0.15294330000E+03 0.  0.
<mgrwt>
<rscale>  0 0.52744840E+03</rscale>
<asrwt>0</asrwt>
<pdfrwt beam="1">  1        2 0.53772560E-01 0.68456136E+03</pdfrwt>
<pdfrwt beam="2">  1       -2 0.13071013E+00 0.68456136E+03</pdfrwt>
<totfact> 0.40270265E+01</totfact>
</mgrwt>
</event>
<event>
 4    2  0.3388003E-007  0.7821761E+03  0.7818608E-02  0.9750750E-01
          2   -1    0    0  501    0  0.00000000000E+00  0.00000000000E+00  0.77327821826E+03  0.77327821826E+03  0.25500000000E-02 0. -1.
         -2   -1    0    0    0  501 -0.00000000000E+00 -0.00000000000E+00 -0.60544549535E+03  0.60544549536E+03  0.25500000000E-02 0.  1.
    8880023    1    1    2    0    0 -0.38378672312E+03 -0.17520553236E+03 -0.18982080181E+03  0.80487972423E+03  0.65864270000E+03 0.  0.
    8880022    1    1    2    0    0  0.38378672312E+03  0.17520553236E+03  0.35765352471E+03  0.57384398939E+03  0.15294330000E+03 0.  0.
<mgrwt>
<rscale>  0 0.68073908E+03</rscale>
<asrwt>0</asrwt>
<pdfrwt beam="1">  1        2 0.11896588E+00 0.78217609E+03</pdfrwt>
<pdfrwt beam="2">  1       -2 0.93145461E-01 0.78217609E+03</pdfrwt>
<totfact> 0.35552383E+01</totfact>
</mgrwt>
</event>
<event>
 4    2  0.3388003E-007  0.1050743E+04  0.7818608E-02  0.9317989E-01
          2   -1    0    0  501    0  0.00000000000E+00  0.00000000000E+00  0.76427506718E+03  0.76427506718E+03  0.25500000000E-02 0. -1.
         -2   -1    0    0    0  501 -0.00000000000E+00 -0.00000000000E+00 -0.18433617161E+04  0.18433617161E+04  0.25500000000E-02 0.  1.
    8880023    1    1    2    0    0 -0.78189609083E+03  0.24267129645E+03 -0.13690138660E+04  0.17257636068E+04  0.65864270000E+03 0.  0.
    8880022    1    1    2    0    0  0.78189609083E+03 -0.24267129645E+03  0.28992721718E+03  0.88187317640E+03  0.15294330000E+03 0.  0.
<mgrwt>
<rscale>  0 0.99143529E+03</rscale>
<asrwt>0</asrwt>
<pdfrwt beam="1">  1        2 0.11758078E+00 0.10507431E+04</pdfrwt>
<pdfrwt beam="2">  1       -2 0.28359411E+00 0.10507431E+04</pdfrwt>
<totfact> 0.14591888E+00</totfact>
</mgrwt>
</event>
<event>
 4    2  0.3388003E-007  0.1078507E+04  0.7818608E-02  0.9285372E-01
         -2   -1    0    0    0  501 -0.00000000000E+00  0.00000000000E+00  0.12878104275E+04  0.12878104275E+04  0.25500000000E-02 0.  1.
          2   -1    0    0  501    0  0.00000000000E+00 -0.00000000000E+00 -0.10551491647E+04  0.10551491647E+04  0.25500000000E-02 0. -1.
    8880023    1    1    2    0    0 -0.13366537138E+02  0.85392520359E+03  0.76751744268E+03  0.13237296358E+04  0.65864270000E+03 0.  0.
    8880022    1    1    2    0    0  0.13366537138E+02 -0.85392520359E+03 -0.53485617988E+03  0.10192299563E+04  0.15294330000E+03 0.  0.
<mgrwt>
<rscale>  0 0.10214078E+04</rscale>
<asrwt>0</asrwt>
<pdfrwt beam="1">  1        2 0.16233064E+00 0.10785069E+04</pdfrwt>
<pdfrwt beam="2">  1       -2 0.19812468E+00 0.10785069E+04</pdfrwt>
<totfact> 0.31275078E+00</totfact>
</mgrwt>
</event>
<event>
 4    2  0.3388003E-007  0.7133253E+03  0.7818608E-02  0.9945854E-01
         -2   -1    0    0    0  501 -0.00000000000E+00  0.00000000000E+00  0.31370851520E+03  0.31370851521E+03  0.25500000000E-02 0.  1.
          2   -1    0    0  501    0  0.00000000000E+00 -0.00000000000E+00 -0.19585755080E+04  0.19585755080E+04  0.25500000000E-02 0. -1.
    8880023    1    1    2    0    0 -0.19963881381E+03 -0.18752903706E+03 -0.12974919519E+03  0.72502955501E+03  0.65864270000E+03 0.  1.
    8880022    1    1    2    0    0  0.19963881381E+03  0.18752903706E+03 -0.15151177976E+04  0.15472544682E+04  0.15294330000E+03 0.  0.
<mgrwt>
<rscale>  0 0.58089560E+03</rscale>
<asrwt>0</asrwt>
<pdfrwt beam="1">  1        2 0.30131930E+00 0.71332531E+03</pdfrwt>
<pdfrwt beam="2">  1       -2 0.48262850E-01 0.71332531E+03</pdfrwt>
<totfact> 0.29705350E+01</totfact>
</mgrwt>
</event>
<event>
 4    2  0.3388003E-007  0.7812912E+03  0.7818608E-02  0.9752813E-01
         -2   -1    0    0    0  501 -0.00000000000E+00  0.00000000000E+00  0.58378954553E+03  0.58378954554E+03  0.25500000000E-02 0.  1.
          2   -1    0    0  501    0  0.00000000000E+00 -0.00000000000E+00 -0.97213321406E+03  0.97213321407E+03  0.25500000000E-02 0. -1.
    8880023    1    1    2    0    0 -0.11411127587E+03  0.40445565933E+03  0.20990453679E+03  0.80899683836E+03  0.65864270000E+03 0.  1.
    8880022    1    1    2    0    0  0.11411127587E+03 -0.40445565933E+03 -0.59824820532E+03  0.74692592125E+03  0.15294330000E+03 0.  0.
<mgrwt>
<rscale>  0 0.67957557E+03</rscale>
<asrwt>0</asrwt>
<pdfrwt beam="1">  1        2 0.14955896E+00 0.78129122E+03</pdfrwt>
<pdfrwt beam="2">  1       -2 0.89813776E-01 0.78129122E+03</pdfrwt>
<totfact> 0.28241486E+01</totfact>
</mgrwt>
</event>
<event>
 4    2  0.3388003E-007  0.7544673E+03  0.7818608E-02  0.9819647E-01
         -2   -1    0    0    0  501 -0.00000000000E+00  0.00000000000E+00  0.45593474843E+03  0.45593474844E+03  0.25500000000E-02 0.  1.
          2   -1    0    0  501    0  0.00000000000E+00 -0.00000000000E+00 -0.18300552341E+04  0.18300552341E+04  0.25500000000E-02 0. -1.
    8880023    1    1    2    0    0 -0.27523354801E+02  0.36695127311E+03  0.98073895705E+02  0.76081500194E+03  0.65864270000E+03 0.  1.
    8880022    1    1    2    0    0  0.27523354801E+02 -0.36695127311E+03 -0.14721943813E+04  0.15251749806E+04  0.15294330000E+03 0. -1.
<mgrwt>
<rscale>  0 0.64318733E+03</rscale>
<asrwt>0</asrwt>
<pdfrwt beam="1">  1        2 0.28154695E+00 0.75446735E+03</pdfrwt>
<pdfrwt beam="2">  1       -2 0.70143809E-01 0.75446735E+03</pdfrwt>
<totfact> 0.15830889E+01</totfact>
</mgrwt>
</event>
<event>
 4    2  0.3388003E-007  0.6824390E+03  0.7818608E-02  0.1007976E+00
          2   -1    0    0  501    0  0.00000000000E+00  0.00000000000E+00  0.22751588364E+03  0.22751588366E+03  0.25500000000E-02 0. -1.
         -2   -1    0    0    0  501 -0.00000000000E+00 -0.00000000000E+00 -0.11885497287E+04  0.11885497287E+04  0.25500000000E-02 0.  1.
    8880023    1    1    2    0    0  0.17863111499E+03  0.19109394784E+01 -0.96372092177E+03  0.11808814285E+04  0.65864270000E+03 0.  1.
    8880022    1    1    2    0    0 -0.17863111499E+03 -0.19109394784E+01  0.26870767040E+01  0.23518418384E+03  0.15294330000E+03 0. -1.
<mgrwt>
<rscale>  0 0.52286889E+03</rscale>
<asrwt>0</asrwt>
<pdfrwt beam="1">  1        2 0.35002444E-01 0.68243896E+03</pdfrwt>
<pdfrwt beam="2">  1       -2 0.18285380E+00 0.68243896E+03</pdfrwt>
<totfact> 0.26424965E+01</totfact>
</mgrwt>
</event>
<event>
 4    2  0.3388003E-007  0.1009101E+04  0.7818608E-02  0.9369746E-01
          2   -1    0    0  501    0  0.00000000000E+00  0.00000000000E+00  0.29816919635E+04  0.29816919635E+04  0.25500000000E-02 0. -1.
         -2   -1    0    0    0  501 -0.00000000000E+00 -0.00000000000E+00 -0.52124022211E+03  0.52124022212E+03  0.25500000000E-02 0.  1.
    8880023    1    1    2    0    0 -0.51767562323E+03 -0.56257200873E+03  0.96472423634E+02  0.10137023482E+04  0.65864270000E+03 0.  1.
    8880022    1    1    2    0    0  0.51767562323E+03  0.56257200873E+03  0.23639793178E+04  0.24892298375E+04  0.15294330000E+03 0.  0.
<mgrwt>
<rscale>  0 0.94607846E+03</rscale>
<asrwt>0</asrwt>
<pdfrwt beam="1">  1        2 0.45872184E+00 0.10091013E+04</pdfrwt>
<pdfrwt beam="2">  1       -2 0.80190804E-01 0.10091013E+04</pdfrwt>
<totfact> 0.25055324E+00</totfact>
</mgrwt>
</event>
<event>
 4    2  0.3388003E-007  0.7689359E+03  0.7818608E-02  0.9782500E-01
         -2   -1    0    0    0  501 -0.00000000000E+00  0.00000000000E+00  0.25035108842E+03  0.25035108844E+03  0.25500000000E-02 0.  1.
          2   -1    0    0  501    0  0.00000000000E+00 -0.00000000000E+00 -0.19391314095E+04  0.19391314095E+04  0.25500000000E-02 0. -1.
    8880023    1    1    2    0    0 -0.37333859238E+02 -0.39504221484E+03 -0.47609267978E+03  0.90439295362E+03  0.65864270000E+03 0.  1.
    8880022    1    1    2    0    0  0.37333859238E+02  0.39504221484E+03 -0.12126876413E+04  0.12850895443E+04  0.15294330000E+03 0.  0.
<mgrwt>
<rscale>  0 0.66310233E+03</rscale>
<asrwt>0</asrwt>
<pdfrwt beam="1">  1        2 0.29832790E+00 0.76893587E+03</pdfrwt>
<pdfrwt beam="2">  1       -2 0.38515553E-01 0.76893587E+03</pdfrwt>
<totfact> 0.47226655E+01</totfact>
</mgrwt>
</event>
<event>
 4    2  0.3388003E-007  0.7588612E+03  0.7818608E-02  0.9808065E-01
          2   -1    0    0  501    0  0.00000000000E+00  0.00000000000E+00  0.71848324223E+03  0.71848324223E+03  0.25500000000E-02 0. -1.
         -2   -1    0    0    0  501 -0.00000000000E+00 -0.00000000000E+00 -0.65485305549E+03  0.65485305549E+03  0.25500000000E-02 0.  1.
    8880023    1    1    2    0    0 -0.27313772748E+03 -0.25972262609E+03 -0.31121598952E+03  0.82019854856E+03  0.65864270000E+03 0.  0.
    8880022    1    1    2    0    0  0.27313772748E+03  0.25972262609E+03  0.37484617626E+03  0.55313774916E+03  0.15294330000E+03 0.  0.
<mgrwt>
<rscale>  0 0.64931533E+03</rscale>
<asrwt>0</asrwt>
<pdfrwt beam="1">  1        2 0.11053588E+00 0.75886116E+03</pdfrwt>
<pdfrwt beam="2">  1       -2 0.10074662E+00 0.75886116E+03</pdfrwt>
<totfact> 0.32573073E+01</totfact>
</mgrwt>
</event>
<event>
 4    2  0.3388003E-007  0.7290140E+03  0.7818608E-02  0.9893188E-01
         -2   -1    0    0    0  501 -0.00000000000E+00  0.00000000000E+00  0.49764193366E+03  0.49764193367E+03  0.25500000000E-02 0.  1.
          2   -1    0    0  501    0  0.00000000000E+00 -0.00000000000E+00 -0.10888302035E+04  0.10888302035E+04  0.25500000000E-02 0. -1.
    8880023    1    1    2    0    0 -0.25730604041E+03  0.17732679109E+03  0.17085301058E+03  0.74876708445E+03  0.65864270000E+03 0.  1.
    8880022    1    1    2    0    0  0.25730604041E+03 -0.17732679109E+03 -0.76204128040E+03  0.83770505270E+03  0.15294330000E+03 0. -1.
<mgrwt>
<rscale>  0 0.60592558E+03</rscale>
<asrwt>0</asrwt>
<pdfrwt beam="1">  1        2 0.16751234E+00 0.72901399E+03</pdfrwt>
<pdfrwt beam="2">  1       -2 0.76560298E-01 0.72901399E+03</pdfrwt>
<totfact> 0.34410778E+01</totfact>
</mgrwt>
</event>
<event>
 4    2  0.3388003E-007  0.6777839E+03  0.7818608E-02  0.1010606E+00
          2   -1    0    0  501    0  0.00000000000E+00  0.00000000000E+00  0.74064049077E+03  0.74064049077E+03  0.25500000000E-02 0. -1.
         -2   -1    0    0    0  501 -0.00000000000E+00 -0.00000000000E+00 -0.17068828364E+04  0.17068828364E+04  0.25500000000E-02 0.  1.
    8880023    1    1    2    0    0  0.73932747274E+01 -0.15976886184E+03 -0.16206706833E+04  0.17566913274E+04  0.65864270000E+03 0.  1.
    8880022    1    1    2    0    0 -0.73932747274E+01  0.15976886184E+03  0.65442833769E+03  0.69083199977E+03  0.15294330000E+03 0.  0.
<mgrwt>
<rscale>  0 0.51234481E+03</rscale>
<asrwt>0</asrwt>
<pdfrwt beam="1">  1        2 0.11394469E+00 0.67778386E+03</pdfrwt>
<pdfrwt beam="2">  1       -2 0.26259736E+00 0.67778386E+03</pdfrwt>
<totfact> 0.21459320E+00</totfact>
</mgrwt>
</event>
<event>
 4    2  0.3388003E-007  0.6923336E+03  0.7818608E-02  0.1003063E+00
         -2   -1    0    0    0  501 -0.00000000000E+00  0.00000000000E+00  0.25034858775E+03  0.25034858777E+03  0.25500000000E-02 0.  1.
          2   -1    0    0  501    0  0.00000000000E+00 -0.00000000000E+00 -0.17327552534E+04  0.17327552534E+04  0.25500000000E-02 0. -1.
    8880023    1    1    2    0    0  0.84811198362E+02 -0.19576163129E+03 -0.27083753860E+03  0.74342365730E+03  0.65864270000E+03 0.  1.
    8880022    1    1    2    0    0 -0.84811198362E+02  0.19576163129E+03 -0.12115691270E+04  0.12396801839E+04  0.15294330000E+03 0.  1.
<mgrwt>
<rscale>  0 0.54327488E+03</rscale>
<asrwt>0</asrwt>
<pdfrwt beam="1">  1        2 0.26657772E+00 0.69233356E+03</pdfrwt>
<pdfrwt beam="2">  1       -2 0.38515168E-01 0.69233356E+03</pdfrwt>
<totfact> 0.61731480E+01</totfact>
</mgrwt>
</event>
<event>
 4    2  0.3388003E-007  0.9522695E+03  0.7818608E-02  0.9446856E-01
         -2   -1    0    0    0  501 -0.00000000000E+00  0.00000000000E+00  0.17380196929E+04  0.17380196929E+04  0.25500000000E-02 0.  1.
          2   -1    0    0  501    0  0.00000000000E+00 -0.00000000000E+00 -0.86523591112E+03  0.86523591112E+03  0.25500000000E-02 0. -1.
    8880023    1    1    2    0    0 -0.52623631542E+01  0.68773488396E+03  0.14209781136E+04  0.17105542869E+04  0.65864270000E+03 0.  0.
    8880022    1    1    2    0    0  0.52623631542E+01 -0.68773488396E+03 -0.54819433180E+03  0.89270131707E+03  0.15294330000E+03 0.  0.
<mgrwt>
<rscale>  0 0.88317897E+03</rscale>
<asrwt>0</asrwt>
<pdfrwt beam="1">  1        2 0.13311322E+00 0.95226948E+03</pdfrwt>
<pdfrwt beam="2">  1       -2 0.26738764E+00 0.95226948E+03</pdfrwt>
<totfact> 0.15662101E+00</totfact>
</mgrwt>
</event>
<event>
 4    2  0.3388003E-007  0.8063466E+03  0.7818608E-02  0.9697238E-01
          2   -1    0    0  501    0  0.00000000000E+00  0.00000000000E+00  0.17761695721E+04  0.17761695721E+04  0.25500000000E-02 0. -1.
         -2   -1    0    0    0  501 -0.00000000000E+00 -0.00000000000E+00 -0.44554452177E+03  0.44554452177E+03  0.25500000000E-02 0.  1.
    8880023    1    1    2    0    0  0.14364349132E+03 -0.44243785990E+03  0.26656513372E+01  0.80635105533E+03  0.65864270000E+03 0.  0.
    8880022    1    1    2    0    0 -0.14364349132E+03  0.44243785990E+03  0.13279593989E+04  0.14153630385E+04  0.15294330000E+03 0.  0.
<mgrwt>
<rscale>  0 0.71181500E+03</rscale>
<asrwt>0</asrwt>
<pdfrwt beam="1">  1        2 0.27325686E+00 0.80634665E+03</pdfrwt>
<pdfrwt beam="2">  1       -2 0.68545311E-01 0.80634665E+03</pdfrwt>
<totfact> 0.17693979E+01</totfact>
</mgrwt>
</event>
<event>
 4    2  0.3388003E-007  0.7709023E+03  0.7818608E-02  0.9777659E-01
         -2   -1    0    0    0  501 -0.00000000000E+00  0.00000000000E+00  0.99780263291E+03  0.99780263291E+03  0.25500000000E-02 0.  1.
          2   -1    0    0  501    0  0.00000000000E+00 -0.00000000000E+00 -0.58045677508E+03  0.58045677509E+03  0.25500000000E-02 0. -1.
    8880023    1    1    2    0    0  0.27605081370E+03 -0.29030350343E+03  0.71885896354E+03  0.10540628974E+04  0.65864270000E+03 0.  0.
    8880022    1    1    2    0    0 -0.27605081370E+03  0.29030350343E+03 -0.30151310571E+03  0.52419651065E+03  0.15294330000E+03 0.  0.
<mgrwt>
<rscale>  0 0.66575420E+03</rscale>
<asrwt>0</asrwt>
<pdfrwt beam="1">  1        2 0.89301044E-01 0.77090232E+03</pdfrwt>
<pdfrwt beam="2">  1       -2 0.15350809E+00 0.77090232E+03</pdfrwt>
<totfact> 0.14724399E+01</totfact>
</mgrwt>
</event>
<event>
 4    2  0.3388003E-007  0.8063215E+03  0.7818608E-02  0.9697291E-01
         -2   -1    0    0    0  501 -0.00000000000E+00  0.00000000000E+00  0.17406376023E+03  0.17406376025E+03  0.25500000000E-02 0.  1.
          2   -1    0    0  501    0  0.00000000000E+00 -0.00000000000E+00 -0.28248323737E+04  0.28248323737E+04  0.25500000000E-02 0. -1.
    8880023    1    1    2    0    0  0.32395478563E+03 -0.33376265826E+03 -0.21602548779E+04  0.23058307741E+04  0.65864270000E+03 0. -1.
    8880022    1    1    2    0    0 -0.32395478563E+03  0.33376265826E+03 -0.49051373559E+03  0.69306535983E+03  0.15294330000E+03 0.  0.
<mgrwt>
<rscale>  0 0.71178335E+03</rscale>
<asrwt>0</asrwt>
<pdfrwt beam="1">  1        2 0.43458956E+00 0.80632154E+03</pdfrwt>
<pdfrwt beam="2">  1       -2 0.26779042E-01 0.80632154E+03</pdfrwt>
<totfact> 0.29474151E+01</totfact>
</mgrwt>
</event>
<event>
 4    2  0.3388003E-007  0.1017121E+04  0.7818608E-02  0.9359493E-01
         -2   -1    0    0    0  501 -0.00000000000E+00  0.00000000000E+00  0.83981032560E+03  0.83981032560E+03  0.25500000000E-02 0.  1.
          2   -1    0    0  501    0  0.00000000000E+00 -0.00000000000E+00 -0.10776452094E+04  0.10776452094E+04  0.25500000000E-02 0. -1.
    8880023    1    1    2    0    0 -0.30811570637E+02 -0.77445203305E+03  0.16540654092E+03  0.10304828162E+04  0.65864270000E+03 0.  1.
    8880022    1    1    2    0    0  0.30811570637E+02  0.77445203305E+03 -0.40324142475E+03  0.88697271887E+03  0.15294330000E+03 0.  0.
<mgrwt>
<rscale>  0 0.95485576E+03</rscale>
<asrwt>0</asrwt>
<pdfrwt beam="1">  1        2 0.16579157E+00 0.10171212E+04</pdfrwt>
<pdfrwt beam="2">  1       -2 0.12920159E+00 0.10171212E+04</pdfrwt>
<totfact> 0.98281965E+00</totfact>
</mgrwt>
</event>
<event>
 4    2  0.3388003E-007  0.9063672E+03  0.7818608E-02  0.9515886E-01
         -2   -1    0    0    0  501 -0.00000000000E+00  0.00000000000E+00  0.64972639371E+03  0.64972639372E+03  0.25500000000E-02 0.  1.
          2   -1    0    0  501    0  0.00000000000E+00 -0.00000000000E+00 -0.15136693621E+04  0.15136693621E+04  0.25500000000E-02 0. -1.
    8880023    1    1    2    0    0  0.48176795713E+03  0.39445021707E+03  0.19346948708E+03  0.92678583662E+03  0.65864270000E+03 0.  1.
    8880022    1    1    2    0    0 -0.48176795713E+03 -0.39445021707E+03 -0.10574124555E+04  0.12366099192E+04  0.15294330000E+03 0.  0.
<mgrwt>
<rscale>  0 0.83122641E+03</rscale>
<asrwt>0</asrwt>
<pdfrwt beam="1">  1        2 0.23287221E+00 0.90636722E+03</pdfrwt>
<pdfrwt beam="2">  1       -2 0.99957907E-01 0.90636722E+03</pdfrwt>
<totfact> 0.10367039E+01</totfact>
</mgrwt>
</event>
<event>
 4    2  0.3388003E-007  0.9803762E+03  0.7818608E-02  0.9407694E-01
          2   -1    0    0  501    0  0.00000000000E+00  0.00000000000E+00  0.10914719035E+04  0.10914719035E+04  0.25500000000E-02 0. -1.
         -2   -1    0    0    0  501 -0.00000000000E+00 -0.00000000000E+00 -0.88006758579E+03  0.88006758580E+03  0.25500000000E-02 0.  1.
    8880023    1    1    2    0    0  0.45600792253E+03  0.56514081175E+03 -0.35002787438E+03  0.10409885118E+04  0.65864270000E+03 0.  1.
    8880022    1    1    2    0    0 -0.45600792253E+03 -0.56514081175E+03  0.56143219212E+03  0.93055097758E+03  0.15294330000E+03 0.  0.
<mgrwt>
<rscale>  0 0.91445185E+03</rscale>
<asrwt>0</asrwt>
<pdfrwt beam="1">  1        2 0.16791876E+00 0.98037624E+03</pdfrwt>
<pdfrwt beam="2">  1       -2 0.13539501E+00 0.98037624E+03</pdfrwt>
<totfact> 0.85796502E+00</totfact>
</mgrwt>
</event>
<event>
 4    2  0.3388003E-007  0.8753175E+03  0.7818608E-02  0.9566877E-01
          2   -1    0    0  501    0  0.00000000000E+00  0.00000000000E+00  0.35165655301E+04  0.35165655301E+04  0.25500000000E-02 0. -1.
         -2   -1    0    0    0  501 -0.00000000000E+00 -0.00000000000E+00 -0.20010020831E+03  0.20010020832E+03  0.25500000000E-02 0.  1.
    8880023    1    1    2    0    0 -0.54685131833E+03 -0.18254890311E+03  0.10204077833E+04  0.13444005047E+04  0.65864270000E+03 0.  0.
    8880022    1    1    2    0    0  0.54685131833E+03  0.18254890311E+03  0.22960575384E+04  0.23722652337E+04  0.15294330000E+03 0.  0.
<mgrwt>
<rscale>  0 0.79527835E+03</rscale>
<asrwt>0</asrwt>
<pdfrwt beam="1">  1        2 0.54101004E+00 0.87531747E+03</pdfrwt>
<pdfrwt beam="2">  1       -2 0.30784650E-01 0.87531747E+03</pdfrwt>
<totfact> 0.81738520E+00</totfact>
</mgrwt>
</event>
<event>
 4    2  0.3388003E-007  0.1095975E+04  0.7818608E-02  0.9265551E-01
         -2   -1    0    0    0  501 -0.00000000000E+00  0.00000000000E+00  0.75165084073E+03  0.75165084074E+03  0.25500000000E-02 0.  1.
          2   -1    0    0  501    0  0.00000000000E+00 -0.00000000000E+00 -0.23146962708E+04  0.23146962708E+04  0.25500000000E-02 0. -1.
    8880023    1    1    2    0    0  0.85560021391E+03  0.18788153476E+03  0.17897244233E+03  0.11104920254E+04  0.65864270000E+03 0.  1.
    8880022    1    1    2    0    0 -0.85560021391E+03 -0.18788153476E+03 -0.17420178724E+04  0.19558550861E+04  0.15294330000E+03 0.  0.
<mgrwt>
<rscale>  0 0.10401714E+04</rscale>
<asrwt>0</asrwt>
<pdfrwt beam="1">  1        2 0.35610712E+00 0.10959751E+04</pdfrwt>
<pdfrwt beam="2">  1       -2 0.11563859E+00 0.10959751E+04</pdfrwt>
<totfact> 0.25651119E+00</totfact>
</mgrwt>
</event>
<event>
 4    2  0.3388003E-007  0.1026114E+04  0.7818608E-02  0.9348163E-01
          2   -1    0    0  501    0  0.00000000000E+00  0.00000000000E+00  0.23195104297E+04  0.23195104297E+04  0.25500000000E-02 0. -1.
         -2   -1    0    0    0  501 -0.00000000000E+00 -0.00000000000E+00 -0.50854416477E+03  0.50854416478E+03  0.25500000000E-02 0.  1.
    8880023    1    1    2    0    0 -0.69985429364E+03  0.35958822441E+03  0.22419343008E+03  0.10503202482E+04  0.65864270000E+03 0.  0.
    8880022    1    1    2    0    0  0.69985429364E+03 -0.35958822441E+03  0.15867728348E+04  0.17777343462E+04  0.15294330000E+03 0.  0.
<mgrwt>
<rscale>  0 0.96467299E+03</rscale>
<asrwt>0</asrwt>
<pdfrwt beam="1">  1        2 0.35684777E+00 0.10261140E+04</pdfrwt>
<pdfrwt beam="2">  1       -2 0.78237562E-01 0.10261140E+04</pdfrwt>
<totfact> 0.64471878E+00</totfact>
</mgrwt>
</event>
<event>
 4    2  0.3388003E-007  0.9673016E+03  0.7818608E-02  0.9425646E-01
          2   -1    0    0  501    0  0.00000000000E+00  0.00000000000E+00  0.30338169703E+04  0.30338169703E+04  0.25500000000E-02 0. -1.
         -2   -1    0    0    0  501 -0.00000000000E+00 -0.00000000000E+00 -0.57886320985E+03  0.57886320986E+03  0.25500000000E-02 0.  1.
    8880023    1    1    2    0    0 -0.16041173642E+03  0.69002197595E+03 -0.85306946916E+02  0.97105598908E+03  0.65864270000E+03 0.  0.
    8880022    1    1    2    0    0  0.16041173642E+03 -0.69002197595E+03  0.25402607073E+04  0.26416241910E+04  0.15294330000E+03 0.  0.
<mgrwt>
<rscale>  0 0.89994839E+03</rscale>
<asrwt>0</asrwt>
<pdfrwt beam="1">  1        2 0.46674108E+00 0.96730164E+03</pdfrwt>
<pdfrwt beam="2">  1       -2 0.89055877E-01 0.96730164E+03</pdfrwt>
<totfact> 0.18431006E+00</totfact>
</mgrwt>
</event>
<event>
 4    2  0.3388003E-007  0.6759553E+03  0.7818608E-02  0.1011711E+00
         -2   -1    0    0    0  501 -0.00000000000E+00  0.00000000000E+00  0.19063842965E+03  0.19063842966E+03  0.25500000000E-02 0.  1.
          2   -1    0    0  501    0  0.00000000000E+00 -0.00000000000E+00 -0.14642572032E+04  0.14642572032E+04  0.25500000000E-02 0. -1.
    8880023    1    1    2    0    0 -0.68885030531E+02  0.13549995313E+03 -0.47112994879E+03  0.82394115059E+03  0.65864270000E+03 0.  1.
    8880022    1    1    2    0    0  0.68885030531E+02 -0.13549995313E+03 -0.80248882475E+03  0.83095448226E+03  0.15294330000E+03 0.  0.
<mgrwt>
<rscale>  0 0.50800344E+03</rscale>
<asrwt>0</asrwt>
<pdfrwt beam="1">  1        2 0.22527033E+00 0.67595532E+03</pdfrwt>
<pdfrwt beam="2">  1       -2 0.29328990E-01 0.67595532E+03</pdfrwt>
<totfact> 0.14537620E+02</totfact>
</mgrwt>
</event>
<event>
 4    2  0.3388003E-007  0.1166487E+04  0.7818608E-02  0.9190408E-01
          2   -1    0    0  501    0  0.00000000000E+00  0.00000000000E+00  0.20389430968E+04  0.20389430969E+04  0.25500000000E-02 0. -1.
         -2   -1    0    0    0  501 -0.00000000000E+00 -0.00000000000E+00 -0.61640829323E+03  0.61640829324E+03  0.25500000000E-02 0.  1.
    8880023    1    1    2    0    0 -0.36036009808E+01  0.96273998641E+03  0.11616080559E+04  0.16462152803E+04  0.65864270000E+03 0.  0.
    8880022    1    1    2    0    0  0.36036009808E+01 -0.96273998641E+03  0.26092674775E+03  0.10091361098E+04  0.15294330000E+03 0.  0.
<mgrwt>
<rscale>  0 0.11152980E+04</rscale>
<asrwt>0</asrwt>
<pdfrwt beam="1">  1        2 0.31368355E+00 0.11664868E+04</pdfrwt>
<pdfrwt beam="2">  1       -2 0.94832045E-01 0.11664868E+04</pdfrwt>
<totfact> 0.58482631E+00</totfact>
</mgrwt>
</event>
<event>
 4    2  0.3388003E-007  0.6632289E+03  0.7818608E-02  0.1021068E+00
          2   -1    0    0  501    0  0.00000000000E+00  0.00000000000E+00  0.33704967388E+03  0.33704967389E+03  0.25500000000E-02 0. -1.
         -2   -1    0    0    0  501 -0.00000000000E+00 -0.00000000000E+00 -0.91734160879E+03  0.91734160879E+03  0.25500000000E-02 0.  1.
    8880023    1    1    2    0    0  0.64112724765E+02 -0.44181218728E+02 -0.75810038210E+03  0.10072679967E+04  0.65864270000E+03 0.  1.
    8880022    1    1    2    0    0 -0.64112724765E+02  0.44181218728E+02  0.17780844719E+03  0.24712328598E+03  0.15294330000E+03 0.  0.
<mgrwt>
<rscale>  0 0.47303228E+03</rscale>
<asrwt>0</asrwt>
<pdfrwt beam="1">  1        2 0.51853796E-01 0.66322894E+03</pdfrwt>
<pdfrwt beam="2">  1       -2 0.14112948E+00 0.66322894E+03</pdfrwt>
<totfact> 0.34516853E+01</totfact>
</mgrwt>
</event>
<event>
 4    2  0.3388003E-007  0.6706287E+03  0.7818608E-02  0.1015216E+00
         -2   -1    0    0    0  501 -0.00000000000E+00  0.00000000000E+00  0.70496080304E+03  0.70496080304E+03  0.25500000000E-02 0.  1.
          2   -1    0    0  501    0  0.00000000000E+00 -0.00000000000E+00 -0.83807069594E+03  0.83807069594E+03  0.25500000000E-02 0. -1.
    8880023    1    1    2    0    0 -0.12271835088E+03 -0.29543538869E+02  0.52754522123E+03  0.85325657398E+03  0.65864270000E+03 0.  1.
    8880022    1    1    2    0    0  0.12271835088E+03  0.29543538869E+02 -0.66065511413E+03  0.68977492501E+03  0.15294330000E+03 0.  0.
<mgrwt>
<rscale>  0 0.49453174E+03</rscale>
<asrwt>0</asrwt>
<pdfrwt beam="1">  1        2 0.12893395E+00 0.67062868E+03</pdfrwt>
<pdfrwt beam="2">  1       -2 0.10845551E+00 0.67062868E+03</pdfrwt>
<totfact> 0.22506077E+01</totfact>
</mgrwt>
</event>
<event>
 4    2  0.3388003E-007  0.7467570E+03  0.7818608E-02  0.9840684E-01
         -2   -1    0    0    0  501 -0.00000000000E+00  0.00000000000E+00  0.19767142002E+03  0.19767142003E+03  0.25500000000E-02 0.  1.
          2   -1    0    0  501    0  0.00000000000E+00 -0.00000000000E+00 -0.16524501245E+04  0.16524501245E+04  0.25500000000E-02 0. -1.
    8880023    1    1    2    0    0 -0.19188226268E+03  0.29498644579E+03 -0.82603109484E+03  0.11135409206E+04  0.65864270000E+03 0.  0.
    8880022    1    1    2    0    0  0.19188226268E+03 -0.29498644579E+03 -0.62874760968E+03  0.73658062398E+03  0.15294330000E+03 0.  0.
<mgrwt>
<rscale>  0 0.63224161E+03</rscale>
<asrwt>0</asrwt>
<pdfrwt beam="1">  1        2 0.25422309E+00 0.74675700E+03</pdfrwt>
<pdfrwt beam="2">  1       -2 0.30410989E-01 0.74675700E+03</pdfrwt>
<totfact> 0.10629213E+02</totfact>
</mgrwt>
</event>
<event>
 4    2  0.3388003E-007  0.9582254E+03  0.7818608E-02  0.9438377E-01
          2   -1    0    0  501    0  0.00000000000E+00  0.00000000000E+00  0.15697604033E+04  0.15697604033E+04  0.25500000000E-02 0. -1.
         -2   -1    0    0    0  501 -0.00000000000E+00 -0.00000000000E+00 -0.11295803868E+04  0.11295803868E+04  0.25500000000E-02 0.  1.
    8880023    1    1    2    0    0  0.32295104384E+03 -0.61651311724E+03 -0.81371421226E+03  0.12571105067E+04  0.65864270000E+03 0.  1.
    8880022    1    1    2    0    0 -0.32295104384E+03  0.61651311724E+03  0.12538942288E+04  0.14422302834E+04  0.15294330000E+03 0.  0.
<mgrwt>
<rscale>  0 0.88983596E+03</rscale>
<asrwt>0</asrwt>
<pdfrwt beam="1">  1        2 0.24150160E+00 0.95822545E+03</pdfrwt>
<pdfrwt beam="2">  1       -2 0.17378160E+00 0.95822545E+03</pdfrwt>
<totfact> 0.23203728E+00</totfact>
</mgrwt>
</event>
<event>
 4    2  0.3388003E-007  0.7360826E+03  0.7818608E-02  0.9871509E-01
          2   -1    0    0  501    0  0.00000000000E+00  0.00000000000E+00  0.64286418968E+03  0.64286418969E+03  0.25500000000E-02 0. -1.
         -2   -1    0    0    0  501 -0.00000000000E+00 -0.00000000000E+00 -0.57650786631E+03  0.57650786631E+03  0.25500000000E-02 0.  1.
    8880023    1    1    2    0    0 -0.31926209232E+01 -0.32862932825E+03 -0.20783492133E+03  0.76486141817E+03  0.65864270000E+03 0.  0.
    8880022    1    1    2    0    0  0.31926209232E+01  0.32862932825E+03  0.27419124471E+03  0.45451063783E+03  0.15294330000E+03 0.  0.
<mgrwt>
<rscale>  0 0.61662193E+03</rscale>
<asrwt>0</asrwt>
<pdfrwt beam="1">  1        2 0.98902182E-01 0.73608263E+03</pdfrwt>
<pdfrwt beam="2">  1       -2 0.88693518E-01 0.73608263E+03</pdfrwt>
<totfact> 0.50498360E+01</totfact>
</mgrwt>
</event>
<event>
 4    2  0.3388003E-007  0.6615555E+03  0.7818608E-02  0.1022617E+00
          2   -1    0    0  501    0  0.00000000000E+00  0.00000000000E+00  0.11854095850E+03  0.11854095853E+03  0.25500000000E-02 0. -1.
         -2   -1    0    0    0  501 -0.00000000000E+00 -0.00000000000E+00 -0.39981091653E+04  0.39981091653E+04  0.25500000000E-02 0.  1.
    8880023    1    1    2    0    0 -0.62138952751E+01  0.61699341354E+02 -0.38951031715E+04  0.39508839953E+04  0.65864270000E+03 0.  1.
    8880022    1    1    2    0    0  0.62138952751E+01 -0.61699341354E+02  0.15534964737E+02  0.16576612851E+03  0.15294330000E+03 0.  0.
<mgrwt>
<rscale>  0 0.46754105E+03</rscale>
<asrwt>0</asrwt>
<pdfrwt beam="1">  1        2 0.18237074E-01 0.66155546E+03</pdfrwt>
<pdfrwt beam="2">  1       -2 0.61509361E+00 0.66155546E+03</pdfrwt>
<totfact> 0.14570308E-01</totfact>
</mgrwt>
</event>
<event>
 4    2  0.3388003E-007  0.1182123E+04  0.7818608E-02  0.9174699E-01
          2   -1    0    0  501    0  0.00000000000E+00  0.00000000000E+00  0.15974129194E+04  0.15974129194E+04  0.25500000000E-02 0. -1.
         -2   -1    0    0    0  501 -0.00000000000E+00 -0.00000000000E+00 -0.10772887115E+04  0.10772887115E+04  0.25500000000E-02 0.  1.
    8880023    1    1    2    0    0 -0.22688143523E+03 -0.95505434368E+03 -0.46995564343E+03  0.12721133983E+04  0.65864270000E+03 0.  0.
    8880022    1    1    2    0    0  0.22688143523E+03  0.95505434368E+03  0.99007985133E+03  0.14025882325E+04  0.15294330000E+03 0.  0.
<mgrwt>
<rscale>  0 0.11318434E+04</rscale>
<asrwt>0</asrwt>
<pdfrwt beam="1">  1        2 0.24575583E+00 0.11821227E+04</pdfrwt>
<pdfrwt beam="2">  1       -2 0.16573673E+00 0.11821227E+04</pdfrwt>
<totfact> 0.24892901E+00</totfact>
</mgrwt>
</event>
<event>
 4    2  0.3388003E-007  0.7110156E+03  0.7818608E-02  0.9954249E-01
         -2   -1    0    0    0  501 -0.00000000000E+00  0.00000000000E+00  0.48259131374E+03  0.48259131374E+03  0.25500000000E-02 0.  1.
          2   -1    0    0  501    0  0.00000000000E+00 -0.00000000000E+00 -0.61443344179E+03  0.61443344180E+03  0.25500000000E-02 0. -1.
    8880023    1    1    2    0    0  0.20298706504E+03  0.17472618374E+03  0.90586342986E+02  0.71676291733E+03  0.65864270000E+03 0.  1.
    8880022    1    1    2    0    0 -0.20298706504E+03 -0.17472618374E+03 -0.22242847104E+03  0.38026183821E+03  0.15294330000E+03 0.  0.
<mgrwt>
<rscale>  0 0.57702679E+03</rscale>
<asrwt>0</asrwt>
<pdfrwt beam="1">  1        2 0.94528223E-01 0.71101561E+03</pdfrwt>
<pdfrwt beam="2">  1       -2 0.74244817E-01 0.71101561E+03</pdfrwt>
<totfact> 0.79818199E+01</totfact>
</mgrwt>
</event>
<event>
 4    2  0.3388003E-007  0.7207214E+03  0.7818608E-02  0.9920153E-01
         -2   -1    0    0    0  501 -0.00000000000E+00  0.00000000000E+00  0.17859924975E+04  0.17859924975E+04  0.25500000000E-02 0.  1.
          2   -1    0    0  501    0  0.00000000000E+00 -0.00000000000E+00 -0.70478642923E+03  0.70478642923E+03  0.25500000000E-02 0. -1.
    8880023    1    1    2    0    0  0.87342574481E+01 -0.29249406595E+03  0.16682346268E+04  0.18172633387E+04  0.65864270000E+03 0.  1.
    8880022    1    1    2    0    0 -0.87342574481E+01  0.29249406595E+03 -0.58702855849E+03  0.67351558806E+03  0.15294330000E+03 0.  0.
<mgrwt>
<rscale>  0 0.59294467E+03</rscale>
<asrwt>0</asrwt>
<pdfrwt beam="1">  1        2 0.10842868E+00 0.72072136E+03</pdfrwt>
<pdfrwt beam="2">  1       -2 0.27476807E+00 0.72072136E+03</pdfrwt>
<totfact> 0.19179347E+00</totfact>
</mgrwt>
</event>
<event>
 4    2  0.3388003E-007  0.7023300E+03  0.7818608E-02  0.9987669E-01
          2   -1    0    0  501    0  0.00000000000E+00  0.00000000000E+00  0.21549404075E+03  0.21549404076E+03  0.25500000000E-02 0. -1.
         -2   -1    0    0    0  501 -0.00000000000E+00 -0.00000000000E+00 -0.20974498401E+04  0.20974498401E+04  0.25500000000E-02 0.  1.
    8880023    1    1    2    0    0 -0.22722929367E+02 -0.24277757160E+03 -0.18988900074E+04  0.20246112583E+04  0.65864270000E+03 0.  0.
    8880022    1    1    2    0    0  0.22722929367E+02  0.24277757160E+03  0.16934208091E+02  0.28833262252E+03  0.15294330000E+03 0. -1.
<mgrwt>
<rscale>  0 0.56194240E+03</rscale>
<asrwt>0</asrwt>
<pdfrwt beam="1">  1        2 0.33152931E-01 0.70233004E+03</pdfrwt>
<pdfrwt beam="2">  1       -2 0.32268458E+00 0.70233004E+03</pdfrwt>
<totfact> 0.38520987E+00</totfact>
</mgrwt>
</event>
<event>
 4    2  0.3388003E-007  0.7284324E+03  0.7818608E-02  0.9895022E-01
         -2   -1    0    0    0  501 -0.00000000000E+00  0.00000000000E+00  0.16154486439E+03  0.16154486441E+03  0.25500000000E-02 0.  1.
          2   -1    0    0  501    0  0.00000000000E+00 -0.00000000000E+00 -0.22395856783E+04  0.22395856783E+04  0.25500000000E-02 0. -1.
    8880023    1    1    2    0    0 -0.30880564305E+03 -0.37982753714E+02 -0.82290500248E+03  0.10989933868E+04  0.65864270000E+03 0.  1.
    8880022    1    1    2    0    0  0.30880564305E+03  0.37982753714E+02 -0.12551358114E+04  0.13021371559E+04  0.15294330000E+03 0.  0.
<mgrwt>
<rscale>  0 0.60503135E+03</rscale>
<asrwt>0</asrwt>
<pdfrwt beam="1">  1        2 0.34455162E+00 0.72843244E+03</pdfrwt>
<pdfrwt beam="2">  1       -2 0.24853058E-01 0.72843244E+03</pdfrwt>
<totfact> 0.73579860E+01</totfact>
</mgrwt>
</event>
<event>
 4    2  0.3388003E-007  0.6841871E+03  0.7818608E-02  0.1007048E+00
         -2   -1    0    0    0  501 -0.00000000000E+00  0.00000000000E+00  0.32720969569E+03  0.32720969570E+03  0.25500000000E-02 0.  1.
          2   -1    0    0  501    0  0.00000000000E+00 -0.00000000000E+00 -0.11896262355E+04  0.11896262355E+04  0.25500000000E-02 0. -1.
    8880023    1    1    2    0    0 -0.15760658013E+03  0.97272545552E+02 -0.68765333905E+02  0.68763410302E+03  0.65864270000E+03 0.  1.
    8880022    1    1    2    0    0  0.15760658013E+03 -0.97272545552E+02 -0.79365120588E+03  0.82920182816E+03  0.15294330000E+03 0.  0.
<mgrwt>
<rscale>  0 0.52664985E+03</rscale>
<asrwt>0</asrwt>
<pdfrwt beam="1">  1        2 0.18301942E+00 0.68418710E+03</pdfrwt>
<pdfrwt beam="2">  1       -2 0.50339954E-01 0.68418710E+03</pdfrwt>
<totfact> 0.73321894E+01</totfact>
</mgrwt>
</event>
<event>
 4    2  0.3388003E-007  0.7242217E+03  0.7818608E-02  0.9908552E-01
          2   -1    0    0  501    0  0.00000000000E+00  0.00000000000E+00  0.34929417540E+03  0.34929417541E+03  0.25500000000E-02 0. -1.
         -2   -1    0    0    0  501 -0.00000000000E+00 -0.00000000000E+00 -0.99468078016E+03  0.99468078017E+03  0.25500000000E-02 0.  1.
    8880023    1    1    2    0    0  0.21263350283E+03 -0.21324604095E+03 -0.69361305713E+03  0.10027941762E+04  0.65864270000E+03 0.  1.
    8880022    1    1    2    0    0 -0.21263350283E+03  0.21324604095E+03  0.48226452369E+02  0.34118077940E+03  0.15294330000E+03 0.  0.
<mgrwt>
<rscale>  0 0.59848621E+03</rscale>
<asrwt>0</asrwt>
<pdfrwt beam="1">  1        2 0.53737566E-01 0.72422171E+03</pdfrwt>
<pdfrwt beam="2">  1       -2 0.15302781E+00 0.72422171E+03</pdfrwt>
<totfact> 0.26696281E+01</totfact>
</mgrwt>
</event>
<event>
 4    2  0.3388003E-007  0.6722756E+03  0.7818608E-02  0.1014081E+00
          2   -1    0    0  501    0  0.00000000000E+00  0.00000000000E+00  0.15209504180E+04  0.15209504180E+04  0.25500000000E-02 0. -1.
         -2   -1    0    0    0  501 -0.00000000000E+00 -0.00000000000E+00 -0.34276594159E+03  0.34276594160E+03  0.25500000000E-02 0.  1.
    8880023    1    1    2    0    0  0.12497506015E+03 -0.50254199062E+02  0.43181377808E+01  0.67228944865E+03  0.65864270000E+03 0.  1.
    8880022    1    1    2    0    0 -0.12497506015E+03  0.50254199062E+02  0.11738663387E+04  0.11914269110E+04  0.15294330000E+03 0.  0.
<mgrwt>
<rscale>  0 0.49884251E+03</rscale>
<asrwt>0</asrwt>
<pdfrwt beam="1">  1        2 0.23399237E+00 0.67227558E+03</pdfrwt>
<pdfrwt beam="2">  1       -2 0.52733223E-01 0.67227558E+03</pdfrwt>
<totfact> 0.43235586E+01</totfact>
</mgrwt>
</event>
<event>
 4    2  0.3388003E-007  0.7136585E+03  0.7818608E-02  0.9944658E-01
         -2   -1    0    0    0  501 -0.00000000000E+00  0.00000000000E+00  0.60927065540E+03  0.60927065540E+03  0.25500000000E-02 0.  1.
          2   -1    0    0  501    0  0.00000000000E+00 -0.00000000000E+00 -0.85660454376E+03  0.85660454376E+03  0.25500000000E-02 0. -1.
    8880023    1    1    2    0    0 -0.11484268924E+03 -0.24961844199E+03  0.34694488634E+03  0.79352326385E+03  0.65864270000E+03 0.  1.
    8880022    1    1    2    0    0  0.11484268924E+03  0.24961844199E+03 -0.59427877470E+03  0.67235193532E+03  0.15294330000E+03 0.  0.
<mgrwt>
<rscale>  0 0.58144922E+03</rscale>
<asrwt>0</asrwt>
<pdfrwt beam="1">  1        2 0.13178531E+00 0.71365847E+03</pdfrwt>
<pdfrwt beam="2">  1       -2 0.93733947E-01 0.71365847E+03</pdfrwt>
<totfact> 0.30746227E+01</totfact>
</mgrwt>
</event>
<event>
 4    2  0.3388003E-007  0.8122368E+03  0.7818608E-02  0.9684936E-01
          2   -1    0    0  501    0  0.00000000000E+00  0.00000000000E+00  0.95763902949E+03  0.95763902949E+03  0.25500000000E-02 0. -1.
         -2   -1    0    0    0  501 -0.00000000000E+00 -0.00000000000E+00 -0.49308022980E+03  0.49308022980E+03  0.25500000000E-02 0.  1.
    8880023    1    1    2    0    0 -0.32734051966E+03 -0.34462535886E+03  0.71717290036E+02  0.81539685413E+03  0.65864270000E+03 0.  1.
    8880022    1    1    2    0    0  0.32734051966E+03  0.34462535886E+03  0.39284150965E+03  0.63532240516E+03  0.15294330000E+03 0. -1.
<mgrwt>
<rscale>  0 0.71920797E+03</rscale>
<asrwt>0</asrwt>
<pdfrwt beam="1">  1        2 0.14732908E+00 0.81223683E+03</pdfrwt>
<pdfrwt beam="2">  1       -2 0.75858497E-01 0.81223683E+03</pdfrwt>
<totfact> 0.42199299E+01</totfact>
</mgrwt>
</event>
<event>
 4    2  0.3388003E-007  0.7994031E+03  0.7818608E-02  0.9712088E-01
         -2   -1    0    0    0  501 -0.00000000000E+00  0.00000000000E+00  0.18985606949E+03  0.18985606951E+03  0.25500000000E-02 0.  1.
          2   -1    0    0  501    0  0.00000000000E+00 -0.00000000000E+00 -0.27661029231E+04  0.27661029231E+04  0.25500000000E-02 0. -1.
    8880023    1    1    2    0    0 -0.41547171501E+03 -0.18060541651E+03 -0.22204220266E+04  0.23599405173E+04  0.65864270000E+03 0. -1.
    8880022    1    1    2    0    0  0.41547171501E+03  0.18060541651E+03 -0.35582482699E+03  0.59601847536E+03  0.15294330000E+03 0.  0.
<mgrwt>
<rscale>  0 0.70301604E+03</rscale>
<asrwt>0</asrwt>
<pdfrwt beam="1">  1        2 0.42555427E+00 0.79940307E+03</pdfrwt>
<pdfrwt beam="2">  1       -2 0.29208628E-01 0.79940307E+03</pdfrwt>
<totfact> 0.27246790E+01</totfact>
</mgrwt>
</event>
<event>
 4    2  0.3388003E-007  0.1000378E+04  0.7818608E-02  0.9381064E-01
         -2   -1    0    0    0  501 -0.00000000000E+00  0.00000000000E+00  0.39549412719E+03  0.39549412719E+03  0.25500000000E-02 0.  1.
          2   -1    0    0  501    0  0.00000000000E+00 -0.00000000000E+00 -0.20367426685E+04  0.20367426685E+04  0.25500000000E-02 0. -1.
    8880023    1    1    2    0    0 -0.15763025989E+03  0.73627326702E+03 -0.71946711937E+03  0.12322291851E+04  0.65864270000E+03 0.  0.
    8880022    1    1    2    0    0  0.15763025989E+03 -0.73627326702E+03 -0.92178142194E+03  0.12000076106E+04  0.15294330000E+03 0.  0.
<mgrwt>
<rscale>  0 0.93650602E+03</rscale>
<asrwt>0</asrwt>
<pdfrwt beam="1">  1        2 0.31334502E+00 0.10003778E+04</pdfrwt>
<pdfrwt beam="2">  1       -2 0.60845251E-01 0.10003778E+04</pdfrwt>
<totfact> 0.16089768E+01</totfact>
</mgrwt>
</event>
<event>
 4    2  0.3388003E-007  0.1288691E+04  0.7818608E-02  0.9075388E-01
         -2   -1    0    0    0  501 -0.00000000000E+00  0.00000000000E+00  0.65370397478E+03  0.65370397478E+03  0.25500000000E-02 0.  1.
          2   -1    0    0  501    0  0.00000000000E+00 -0.00000000000E+00 -0.31106249406E+04  0.31106249406E+04  0.25500000000E-02 0. -1.
    8880023    1    1    2    0    0  0.10404241342E+04 -0.38004158796E+03 -0.28256206836E+03  0.13193049368E+04  0.65864270000E+03 0.  1.
    8880022    1    1    2    0    0 -0.10404241342E+04  0.38004158796E+03 -0.21743588974E+04  0.24450239785E+04  0.15294330000E+03 0.  0.
<mgrwt>
<rscale>  0 0.12437657E+04</rscale>
<asrwt>0</asrwt>
<pdfrwt beam="1">  1        2 0.47855767E+00 0.12886909E+04</pdfrwt>
<pdfrwt beam="2">  1       -2 0.10056984E+00 0.12886909E+04</pdfrwt>
<totfact> 0.11843598E+00</totfact>
</mgrwt>
</event>
<event>
 4    2  0.3388003E-007  0.8148045E+03  0.7818608E-02  0.9679655E-01
          2   -1    0    0  501    0  0.00000000000E+00  0.00000000000E+00  0.39704644605E+04  0.39704644605E+04  0.25500000000E-02 0. -1.
         -2   -1    0    0    0  501 -0.00000000000E+00 -0.00000000000E+00 -0.25704376113E+03  0.25704376114E+03  0.25500000000E-02 0.  1.
    8880023    1    1    2    0    0  0.32129007432E+02  0.47860625529E+03  0.46065301402E+03  0.93600621061E+03  0.65864270000E+03 0.  0.
    8880022    1    1    2    0    0 -0.32129007432E+02 -0.47860625529E+03  0.32527676853E+04  0.32915020110E+04  0.15294330000E+03 0.  0.
<mgrwt>
<rscale>  0 0.72241162E+03</rscale>
<asrwt>0</asrwt>
<pdfrwt beam="1">  1        2 0.61084063E+00 0.81480453E+03</pdfrwt>
<pdfrwt beam="2">  1       -2 0.39545198E-01 0.81480453E+03</pdfrwt>
<totfact> 0.23857365E+00</totfact>
</mgrwt>
</event>
<event>
 4    2  0.3388003E-007  0.8180332E+03  0.7818608E-02  0.9673081E-01
         -2   -1    0    0    0  501 -0.00000000000E+00  0.00000000000E+00  0.17762709792E+03  0.17762709794E+03  0.25500000000E-02 0.  1.
          2   -1    0    0  501    0  0.00000000000E+00 -0.00000000000E+00 -0.27023922109E+04  0.27023922109E+04  0.25500000000E-02 0. -1.
    8880023    1    1    2    0    0 -0.23590501547E+03 -0.42393042385E+03 -0.19372786442E+04  0.21029091592E+04  0.65864270000E+03 0.  0.
    8880022    1    1    2    0    0  0.23590501547E+03  0.42393042385E+03 -0.58748646884E+03  0.77711014964E+03  0.15294330000E+03 0.  0.
<mgrwt>
<rscale>  0 0.72642423E+03</rscale>
<asrwt>0</asrwt>
<pdfrwt beam="1">  1        2 0.41575262E+00 0.81803324E+03</pdfrwt>
<pdfrwt beam="2">  1       -2 0.27327248E-01 0.81803324E+03</pdfrwt>
<totfact> 0.33479948E+01</totfact>
</mgrwt>
</event>
<event>
 4    2  0.3388003E-007  0.7533724E+03  0.7818608E-02  0.9822578E-01
          2   -1    0    0  501    0  0.00000000000E+00  0.00000000000E+00  0.11458968856E+04  0.11458968856E+04  0.25500000000E-02 0. -1.
         -2   -1    0    0    0  501 -0.00000000000E+00 -0.00000000000E+00 -0.62116195002E+03  0.62116195003E+03  0.25500000000E-02 0.  1.
    8880023    1    1    2    0    0 -0.35871796148E+03 -0.71282279626E+02 -0.33182531800E+03  0.82321199408E+03  0.65864270000E+03 0.  1.
    8880022    1    1    2    0    0  0.35871796148E+03  0.71282279626E+02  0.85656025358E+03  0.94384684155E+03  0.15294330000E+03 0.  0.
<mgrwt>
<rscale>  0 0.64164830E+03</rscale>
<asrwt>0</asrwt>
<pdfrwt beam="1">  1        2 0.17629182E+00 0.75337238E+03</pdfrwt>
<pdfrwt beam="2">  1       -2 0.95563379E-01 0.75337238E+03</pdfrwt>
<totfact> 0.19107528E+01</totfact>
</mgrwt>
</event>
<event>
 4    2  0.3388003E-007  0.6780139E+03  0.7818608E-02  0.1010470E+00
          2   -1    0    0  501    0  0.00000000000E+00  0.00000000000E+00  0.53232896249E+03  0.53232896249E+03  0.25500000000E-02 0. -1.
         -2   -1    0    0    0  501 -0.00000000000E+00 -0.00000000000E+00 -0.91511819070E+03  0.91511819070E+03  0.25500000000E-02 0.  1.
    8880023    1    1    2    0    0  0.15491104805E+03 -0.43533487404E+02 -0.75456581758E+03  0.10144320464E+04  0.65864270000E+03 0.  1.
    8880022    1    1    2    0    0 -0.15491104805E+03  0.43533487404E+02  0.37177658937E+03  0.43301510684E+03  0.15294330000E+03 0.  0.
<mgrwt>
<rscale>  0 0.51288199E+03</rscale>
<asrwt>0</asrwt>
<pdfrwt beam="1">  1        2 0.81896764E-01 0.67801387E+03</pdfrwt>
<pdfrwt beam="2">  1       -2 0.14078741E+00 0.67801387E+03</pdfrwt>
<totfact> 0.20658832E+01</totfact>
</mgrwt>
</event>
<event>
 4    2  0.3388003E-007  0.8290158E+03  0.7818608E-02  0.9651250E-01
         -2   -1    0    0    0  501 -0.00000000000E+00  0.00000000000E+00  0.19515651493E+03  0.19515651494E+03  0.25500000000E-02 0.  1.
          2   -1    0    0  501    0  0.00000000000E+00 -0.00000000000E+00 -0.27448650709E+04  0.27448650709E+04  0.25500000000E-02 0. -1.
    8880023    1    1    2    0    0 -0.90927767701E+02  0.49516572115E+03 -0.20627199547E+04  0.22230791187E+04  0.65864270000E+03 0. -1.
    8880022    1    1    2    0    0  0.90927767701E+02 -0.49516572115E+03 -0.48698860121E+03  0.71694246705E+03  0.15294330000E+03 0.  1.
<mgrwt>
<rscale>  0 0.73995002E+03</rscale>
<asrwt>0</asrwt>
<pdfrwt beam="1">  1        2 0.42228691E+00 0.82901578E+03</pdfrwt>
<pdfrwt beam="2">  1       -2 0.30024081E-01 0.82901578E+03</pdfrwt>
<totfact> 0.26535065E+01</totfact>
</mgrwt>
</event>
<event>
 4    2  0.3388003E-007  0.7708772E+03  0.7818608E-02  0.9777720E-01
         -2   -1    0    0    0  501 -0.00000000000E+00  0.00000000000E+00  0.43660960158E+03  0.43660960159E+03  0.25500000000E-02 0.  1.
          2   -1    0    0  501    0  0.00000000000E+00 -0.00000000000E+00 -0.20239839465E+04  0.20239839465E+04  0.25500000000E-02 0. -1.
    8880023    1    1    2    0    0 -0.23351773802E+03 -0.32543966507E+03  0.45643514807E+02  0.77222732811E+03  0.65864270000E+03 0.  1.
    8880022    1    1    2    0    0  0.23351773802E+03  0.32543966507E+03 -0.16330178597E+04  0.16883662200E+04  0.15294330000E+03 0.  0.
<mgrwt>
<rscale>  0 0.66572045E+03</rscale>
<asrwt>0</asrwt>
<pdfrwt beam="1">  1        2 0.31138214E+00 0.77087724E+03</pdfrwt>
<pdfrwt beam="2">  1       -2 0.67170709E-01 0.77087724E+03</pdfrwt>
<totfact> 0.13602319E+01</totfact>
</mgrwt>
</event>
<event>
 4    2  0.3388003E-007  0.6902672E+03  0.7818608E-02  0.1004026E+00
         -2   -1    0    0    0  501 -0.00000000000E+00  0.00000000000E+00  0.52117273584E+03  0.52117273585E+03  0.25500000000E-02 0.  1.
          2   -1    0    0  501    0  0.00000000000E+00 -0.00000000000E+00 -0.16264128282E+04  0.16264128282E+04  0.25500000000E-02 0. -1.
    8880023    1    1    2    0    0  0.20542258763E+03 -0.21452378508E+02  0.27543743977E+03  0.74319219152E+03  0.65864270000E+03 0.  1.
    8880022    1    1    2    0    0 -0.20542258763E+03  0.21452378508E+02 -0.13806775321E+04  0.14043933725E+04  0.15294330000E+03 0.  0.
<mgrwt>
<rscale>  0 0.53919678E+03</rscale>
<asrwt>0</asrwt>
<pdfrwt beam="1">  1        2 0.25021736E+00 0.69026723E+03</pdfrwt>
<pdfrwt beam="2">  1       -2 0.80180421E-01 0.69026723E+03</pdfrwt>
<totfact> 0.15345287E+01</totfact>
</mgrwt>
</event>
<event>
 4    2  0.3388003E-007  0.7522969E+03  0.7818608E-02  0.9825474E-01
          2   -1    0    0  501    0  0.00000000000E+00  0.00000000000E+00  0.20573150194E+04  0.20573150194E+04  0.25500000000E-02 0. -1.
         -2   -1    0    0    0  501 -0.00000000000E+00 -0.00000000000E+00 -0.34437042392E+03  0.34437042393E+03  0.25500000000E-02 0.  1.
    8880023    1    1    2    0    0 -0.25046664786E+03 -0.26345182106E+03  0.12142774096E+03  0.76203366477E+03  0.65864270000E+03 0.  1.
    8880022    1    1    2    0    0  0.25046664786E+03  0.26345182106E+03  0.15915168546E+04  0.16396517786E+04  0.15294330000E+03 0.  0.
<mgrwt>
<rscale>  0 0.64013185E+03</rscale>
<asrwt>0</asrwt>
<pdfrwt beam="1">  1        2 0.31651000E+00 0.75229689E+03</pdfrwt>
<pdfrwt beam="2">  1       -2 0.52980066E-01 0.75229689E+03</pdfrwt>
<totfact> 0.21580097E+01</totfact>
</mgrwt>
</event>
<event>
 4    2  0.3388003E-007  0.6694715E+03  0.7818608E-02  0.1016045E+00
         -2   -1    0    0    0  501 -0.00000000000E+00  0.00000000000E+00  0.13209385184E+03  0.13209385187E+03  0.25500000000E-02 0.  1.
          2   -1    0    0  501    0  0.00000000000E+00 -0.00000000000E+00 -0.18104063013E+04  0.18104063013E+04  0.25500000000E-02 0. -1.
    8880023    1    1    2    0    0  0.38648920302E+02  0.11352591672E+03 -0.80106688081E+03  0.10439828670E+04  0.65864270000E+03 0.  1.
    8880022    1    1    2    0    0 -0.38648920302E+02 -0.11352591672E+03 -0.87724556862E+03  0.89851728614E+03  0.15294330000E+03 0.  0.
<mgrwt>
<rscale>  0 0.49141398E+03</rscale>
<asrwt>0</asrwt>
<pdfrwt beam="1">  1        2 0.27852403E+00 0.66947149E+03</pdfrwt>
<pdfrwt beam="2">  1       -2 0.20322132E-01 0.66947149E+03</pdfrwt>
<totfact> 0.18158646E+02</totfact>
</mgrwt>
</event>
<event>
 4    2  0.3388003E-007  0.8649863E+03  0.7818608E-02  0.9584755E-01
         -2   -1    0    0    0  501 -0.00000000000E+00  0.00000000000E+00  0.22678224458E+03  0.22678224459E+03  0.25500000000E-02 0.  1.
          2   -1    0    0  501    0  0.00000000000E+00 -0.00000000000E+00 -0.24068062886E+04  0.24068062886E+04  0.25500000000E-02 0. -1.
    8880023    1    1    2    0    0 -0.23902190401E+02 -0.56019622949E+03 -0.15599804199E+04  0.17837433243E+04  0.65864270000E+03 0.  0.
    8880022    1    1    2    0    0  0.23902190401E+02  0.56019622949E+03 -0.62004362412E+03  0.84984520889E+03  0.15294330000E+03 0.  0.
<mgrwt>
<rscale>  0 0.78313497E+03</rscale>
<asrwt>0</asrwt>
<pdfrwt beam="1">  1        2 0.37027787E+00 0.86498632E+03</pdfrwt>
<pdfrwt beam="2">  1       -2 0.34889578E-01 0.86498632E+03</pdfrwt>
<totfact> 0.31136947E+01</totfact>
</mgrwt>
</event>
<event>
 4    2  0.3388003E-007  0.9123888E+03  0.7818608E-02  0.9506429E-01
         -2   -1    0    0    0  501 -0.00000000000E+00  0.00000000000E+00  0.42588633779E+03  0.42588633780E+03  0.25500000000E-02 0.  1.
          2   -1    0    0  501    0  0.00000000000E+00 -0.00000000000E+00 -0.15830424539E+04  0.15830424539E+04  0.25500000000E-02 0. -1.
    8880023    1    1    2    0    0 -0.41958188048E+03  0.47179894828E+03 -0.36063538023E+03  0.98107659526E+03  0.65864270000E+03 0.  0.
    8880022    1    1    2    0    0  0.41958188048E+03 -0.47179894828E+03 -0.79652073590E+03  0.10278521965E+04  0.15294330000E+03 0.  0.
<mgrwt>
<rscale>  0 0.83811481E+03</rscale>
<asrwt>0</asrwt>
<pdfrwt beam="1">  1        2 0.24354499E+00 0.91238885E+03</pdfrwt>
<pdfrwt beam="2">  1       -2 0.65520976E-01 0.91238885E+03</pdfrwt>
<totfact> 0.24634602E+01</totfact>
</mgrwt>
</event>
<event>
 4    2  0.3388003E-007  0.8048062E+03  0.7818608E-02  0.9700499E-01
          2   -1    0    0  501    0  0.00000000000E+00  0.00000000000E+00  0.77117884440E+03  0.77117884441E+03  0.25500000000E-02 0. -1.
         -2   -1    0    0    0  501 -0.00000000000E+00 -0.00000000000E+00 -0.72104817778E+03  0.72104817778E+03  0.25500000000E-02 0.  1.
    8880023    1    1    2    0    0  0.12320837520E+03 -0.44578297199E+03 -0.33450167299E+03  0.87155283106E+03  0.65864270000E+03 0.  0.
    8880022    1    1    2    0    0 -0.12320837520E+03  0.44578297199E+03  0.38463233961E+03  0.62067419112E+03  0.15294330000E+03 0.  0.
<mgrwt>
<rscale>  0 0.70987096E+03</rscale>
<asrwt>0</asrwt>
<pdfrwt beam="1">  1        2 0.11864290E+00 0.80480617E+03</pdfrwt>
<pdfrwt beam="2">  1       -2 0.11093049E+00 0.80480617E+03</pdfrwt>
<totfact> 0.23491836E+01</totfact>
</mgrwt>
</event>
<event>
 4    2  0.3388003E-007  0.8121829E+03  0.7818608E-02  0.9685048E-01
         -2   -1    0    0    0  501 -0.00000000000E+00  0.00000000000E+00  0.27577633134E+03  0.27577633136E+03  0.25500000000E-02 0.  1.
          2   -1    0    0  501    0  0.00000000000E+00 -0.00000000000E+00 -0.17881270498E+04  0.17881270498E+04  0.25500000000E-02 0. -1.
    8880023    1    1    2    0    0  0.37594420419E+01  0.47520168756E+03 -0.55342964774E+03  0.98281501745E+03  0.65864270000E+03 0.  0.
    8880022    1    1    2    0    0 -0.37594420419E+01 -0.47520168756E+03 -0.95892107072E+03  0.10810883637E+04  0.15294330000E+03 0.  0.
<mgrwt>
<rscale>  0 0.71914051E+03</rscale>
<asrwt>0</asrwt>
<pdfrwt beam="1">  1        2 0.27509646E+00 0.81218285E+03</pdfrwt>
<pdfrwt beam="2">  1       -2 0.42427129E-01 0.81218285E+03</pdfrwt>
<totfact> 0.47032548E+01</totfact>
</mgrwt>
</event>
<event>
 4    2  0.3388003E-007  0.9042742E+03  0.7818608E-02  0.9519205E-01
         -2   -1    0    0    0  501 -0.00000000000E+00  0.00000000000E+00  0.97316026066E+03  0.97316026066E+03  0.25500000000E-02 0.  1.
          2   -1    0    0  501    0  0.00000000000E+00 -0.00000000000E+00 -0.12414124008E+04  0.12414124008E+04  0.25500000000E-02 0. -1.
    8880023    1    1    2    0    0  0.54570488509E+03  0.29344118618E+03  0.63761961660E+03  0.11064675924E+04  0.65864270000E+03 0.  0.
    8880022    1    1    2    0    0 -0.54570488509E+03 -0.29344118618E+03 -0.90587175677E+03  0.11081050691E+04  0.15294330000E+03 0.  0.
<mgrwt>
<rscale>  0 0.82882623E+03</rscale>
<asrwt>0</asrwt>
<pdfrwt beam="1">  1        2 0.19098652E+00 0.90427416E+03</pdfrwt>
<pdfrwt beam="2">  1       -2 0.14971696E+00 0.90427416E+03</pdfrwt>
<totfact> 0.53995892E+00</totfact>
</mgrwt>
</event>
<event>
 4    2  0.3388003E-007  0.1522192E+04  0.7818608E-02  0.8894122E-01
          2   -1    0    0  501    0  0.00000000000E+00  0.00000000000E+00  0.89640894554E+03  0.89640894555E+03  0.25500000000E-02 0. -1.
         -2   -1    0    0    0  501 -0.00000000000E+00 -0.00000000000E+00 -0.34482762852E+04  0.34482762852E+04  0.25500000000E-02 0.  1.
    8880023    1    1    2    0    0  0.79451870795E+03 -0.11189271698E+04 -0.93486368544E+02  0.15250599647E+04  0.65864270000E+03 0.  0.
    8880022    1    1    2    0    0 -0.79451870795E+03  0.11189271698E+04 -0.24583809711E+04  0.28196252660E+04  0.15294330000E+03 0.  0.
<mgrwt>
<rscale>  0 0.14855454E+04</rscale>
<asrwt>0</asrwt>
<pdfrwt beam="1">  1        2 0.13790907E+00 0.15221919E+04</pdfrwt>
<pdfrwt beam="2">  1       -2 0.53050404E+00 0.15221919E+04</pdfrwt>
<totfact> 0.29914125E-02</totfact>
</mgrwt>
</event>
<event>
 4    2  0.3388003E-007  0.9498889E+03  0.7818608E-02  0.9450274E-01
          2   -1    0    0  501    0  0.00000000000E+00  0.00000000000E+00  0.17054232486E+04  0.17054232486E+04  0.25500000000E-02 0. -1.
         -2   -1    0    0    0  501 -0.00000000000E+00 -0.00000000000E+00 -0.67069209630E+03  0.67069209630E+03  0.25500000000E-02 0.  1.
    8880023    1    1    2    0    0 -0.25474884646E+03  0.63528089716E+03 -0.18631375010E+03  0.96798853961E+03  0.65864270000E+03 0.  1.
    8880022    1    1    2    0    0  0.25474884646E+03 -0.63528089716E+03  0.12210449024E+04  0.14081268053E+04  0.15294330000E+03 0.  0.
<mgrwt>
<rscale>  0 0.88051339E+03</rscale>
<asrwt>0</asrwt>
<pdfrwt beam="1">  1        2 0.26237281E+00 0.94988894E+03</pdfrwt>
<pdfrwt beam="2">  1       -2 0.10318340E+00 0.94988894E+03</pdfrwt>
<totfact> 0.74839874E+00</totfact>
</mgrwt>
</event>
<event>
 4    2  0.3388003E-007  0.6889108E+03  0.7818608E-02  0.1004675E+00
         -2   -1    0    0    0  501 -0.00000000000E+00  0.00000000000E+00  0.19300191637E+03  0.19300191638E+03  0.25500000000E-02 0.  1.
          2   -1    0    0  501    0  0.00000000000E+00 -0.00000000000E+00 -0.32275564400E+04  0.32275564400E+04  0.25500000000E-02 0. -1.
    8880023    1    1    2    0    0 -0.14589279069E+03  0.13965357308E+03 -0.44831237240E+03  0.82193796381E+03  0.65864270000E+03 0.  1.
    8880022    1    1    2    0    0  0.14589279069E+03 -0.13965357308E+03 -0.25862421512E+04  0.25986203925E+04  0.15294330000E+03 0.  0.
<mgrwt>
<rscale>  0 0.53647162E+03</rscale>
<asrwt>0</asrwt>
<pdfrwt beam="1">  1        2 0.49654711E+00 0.68891076E+03</pdfrwt>
<pdfrwt beam="2">  1       -2 0.29692605E-01 0.68891076E+03</pdfrwt>
<totfact> 0.14049031E+01</totfact>
</mgrwt>
</event>
<event>
 4    2  0.3388003E-007  0.7881091E+03  0.7818608E-02  0.9737122E-01
         -2   -1    0    0    0  501 -0.00000000000E+00  0.00000000000E+00  0.10444378689E+04  0.10444378689E+04  0.25500000000E-02 0.  1.
          2   -1    0    0  501    0  0.00000000000E+00 -0.00000000000E+00 -0.77903287025E+03  0.77903287026E+03  0.25500000000E-02 0. -1.
    8880023    1    1    2    0    0  0.41055480794E+03  0.13693257909E+03  0.79718061238E+03  0.11209874739E+04  0.65864270000E+03 0.  0.
    8880022    1    1    2    0    0 -0.41055480794E+03 -0.13693257909E+03 -0.53177561378E+03  0.70248326525E+03  0.15294330000E+03 0.  0.
<mgrwt>
<rscale>  0 0.68848926E+03</rscale>
<asrwt>0</asrwt>
<pdfrwt beam="1">  1        2 0.11985121E+00 0.78810912E+03</pdfrwt>
<pdfrwt beam="2">  1       -2 0.16068275E+00 0.78810912E+03</pdfrwt>
<totfact> 0.89949924E+00</totfact>
</mgrwt>
</event>
<event>
 4    2  0.3388003E-007  0.7106641E+03  0.7818608E-02  0.9955543E-01
         -2   -1    0    0    0  501 -0.00000000000E+00  0.00000000000E+00  0.15295225903E+03  0.15295225905E+03  0.25500000000E-02 0.  1.
          2   -1    0    0  501    0  0.00000000000E+00 -0.00000000000E+00 -0.29022693405E+04  0.29022693405E+04  0.25500000000E-02 0. -1.
    8880023    1    1    2    0    0 -0.26582326603E+03  0.23901424904E+02 -0.75321454560E+03  0.10355557179E+04  0.65864270000E+03 0.  1.
    8880022    1    1    2    0    0  0.26582326603E+03 -0.23901424904E+02 -0.19961025359E+04  0.20196658817E+04  0.15294330000E+03 0.  0.
<mgrwt>
<rscale>  0 0.57643321E+03</rscale>
<asrwt>0</asrwt>
<pdfrwt beam="1">  1        2 0.44650293E+00 0.71066412E+03</pdfrwt>
<pdfrwt beam="2">  1       -2 0.23531119E-01 0.71066412E+03</pdfrwt>
<totfact> 0.33946060E+01</totfact>
</mgrwt>
</event>
<event>
 4    2  0.3388003E-007  0.9504971E+03  0.7818608E-02  0.9449399E-01
          2   -1    0    0  501    0  0.00000000000E+00  0.00000000000E+00  0.30849569870E+04  0.30849569870E+04  0.25500000000E-02 0. -1.
         -2   -1    0    0    0  501 -0.00000000000E+00 -0.00000000000E+00 -0.33130341471E+03  0.33130341472E+03  0.25500000000E-02 0.  1.
    8880023    1    1    2    0    0  0.13812915540E+03  0.67123380744E+03  0.53840373676E+03  0.10923933714E+04  0.65864270000E+03 0.  0.
    8880022    1    1    2    0    0 -0.13812915540E+03 -0.67123380744E+03  0.22152498355E+04  0.23238670303E+04  0.15294330000E+03 0.  0.
<mgrwt>
<rscale>  0 0.88119461E+03</rscale>
<asrwt>0</asrwt>
<pdfrwt beam="1">  1        2 0.47460877E+00 0.95049708E+03</pdfrwt>
<pdfrwt beam="2">  1       -2 0.50969756E-01 0.95049708E+03</pdfrwt>
<totfact> 0.57807817E+00</totfact>
</mgrwt>
</event>
<event>
 4    2  0.3388003E-007  0.1465249E+04  0.7818608E-02  0.8934573E-01
         -2   -1    0    0    0  501 -0.00000000000E+00  0.00000000000E+00  0.23605360552E+04  0.23605360552E+04  0.25500000000E-02 0.  1.
          2   -1    0    0  501    0  0.00000000000E+00 -0.00000000000E+00 -0.97124439679E+03  0.97124439680E+03  0.25500000000E-02 0. -1.
    8880023    1    1    2    0    0 -0.12517407194E+04  0.38247761010E+03  0.13817269026E+04  0.20139819737E+04  0.65864270000E+03 0.  0.
    8880022    1    1    2    0    0  0.12517407194E+04 -0.38247761010E+03  0.75647557876E+01  0.13177984783E+04  0.15294330000E+03 0.  0.
<mgrwt>
<rscale>  0 0.14269015E+04</rscale>
<asrwt>0</asrwt>
<pdfrwt beam="1">  1        2 0.14942221E+00 0.14652488E+04</pdfrwt>
<pdfrwt beam="2">  1       -2 0.36315940E+00 0.14652488E+04</pdfrwt>
<totfact> 0.32192200E-01</totfact>
</mgrwt>
</event>
<event>
 4    2  0.3388003E-007  0.7071995E+03  0.7818608E-02  0.9968551E-01
          2   -1    0    0  501    0  0.00000000000E+00  0.00000000000E+00  0.11056298572E+04  0.11056298572E+04  0.25500000000E-02 0. -1.
         -2   -1    0    0    0  501 -0.00000000000E+00 -0.00000000000E+00 -0.22995569230E+03  0.22995569231E+03  0.25500000000E-02 0.  1.
    8880023    1    1    2    0    0 -0.22796963027E+03  0.11979468076E+03  0.65035556879E+03  0.96077754449E+03  0.65864270000E+03 0. -1.
    8880022    1    1    2    0    0  0.22796963027E+03 -0.11979468076E+03  0.22531859610E+03  0.37480800502E+03  0.15294330000E+03 0.  1.
<mgrwt>
<rscale>  0 0.57050981E+03</rscale>
<asrwt>0</asrwt>
<pdfrwt beam="1">  1        2 0.17009690E+00 0.70719949E+03</pdfrwt>
<pdfrwt beam="2">  1       -2 0.35377798E-01 0.70719949E+03</pdfrwt>
<totfact> 0.16458176E+02</totfact>
</mgrwt>
</event>
<event>
 4    2  0.3388003E-007  0.1157659E+04  0.7818608E-02  0.9199422E-01
         -2   -1    0    0    0  501 -0.00000000000E+00  0.00000000000E+00  0.62875305897E+03  0.62875305898E+03  0.25500000000E-02 0.  1.
          2   -1    0    0  501    0  0.00000000000E+00 -0.00000000000E+00 -0.22326008273E+04  0.22326008273E+04  0.25500000000E-02 0. -1.
    8880023    1    1    2    0    0 -0.58054237605E+03 -0.75454221511E+03 -0.14952535593E+04  0.18910200468E+04  0.65864270000E+03 0.  0.
    8880022    1    1    2    0    0  0.58054237605E+03  0.75454221511E+03 -0.10859420911E+03  0.97033383948E+03  0.15294330000E+03 0.  0.
<mgrwt>
<rscale>  0 0.11059397E+04</rscale>
<asrwt>0</asrwt>
<pdfrwt beam="1">  1        2 0.34347705E+00 0.11576587E+04</pdfrwt>
<pdfrwt beam="2">  1       -2 0.96731241E-01 0.11576587E+04</pdfrwt>
<totfact> 0.43583720E+00</totfact>
</mgrwt>
</event>
<event>
 4    2  0.3388003E-007  0.7272888E+03  0.7818608E-02  0.9898653E-01
         -2   -1    0    0    0  501 -0.00000000000E+00  0.00000000000E+00  0.22254261058E+03  0.22254261060E+03  0.25500000000E-02 0.  1.
          2   -1    0    0  501    0  0.00000000000E+00 -0.00000000000E+00 -0.19022677361E+04  0.19022677361E+04  0.25500000000E-02 0. -1.
    8880023    1    1    2    0    0 -0.15604953499E+03 -0.26605895030E+03 -0.46735823824E+03  0.86450723046E+03  0.65864270000E+03 0.  1.
    8880022    1    1    2    0    0  0.15604953499E+03  0.26605895030E+03 -0.12123668873E+04  0.12603031162E+04  0.15294330000E+03 0.  0.
<mgrwt>
<rscale>  0 0.60326612E+03</rscale>
<asrwt>0</asrwt>
<pdfrwt beam="1">  1        2 0.29265656E+00 0.72728882E+03</pdfrwt>
<pdfrwt beam="2">  1       -2 0.34237326E-01 0.72728882E+03</pdfrwt>
<totfact> 0.62283950E+01</totfact>
</mgrwt>
</event>
<event>
 4    2  0.3388003E-007  0.1185819E+04  0.7818608E-02  0.9171032E-01
         -2   -1    0    0    0  501 -0.00000000000E+00  0.00000000000E+00  0.19297993116E+04  0.19297993116E+04  0.25500000000E-02 0.  1.
          2   -1    0    0  501    0  0.00000000000E+00 -0.00000000000E+00 -0.11818048715E+04  0.11818048715E+04  0.25500000000E-02 0. -1.
    8880023    1    1    2    0    0  0.88335843974E+03  0.43821668992E+03 -0.68193352792E+03  0.13679179592E+04  0.65864270000E+03 0.  0.
    8880022    1    1    2    0    0 -0.88335843974E+03 -0.43821668992E+03  0.14299279680E+04  0.17436862238E+04  0.15294330000E+03 0.  0.
<mgrwt>
<rscale>  0 0.11357491E+04</rscale>
<asrwt>0</asrwt>
<pdfrwt beam="1">  1        2 0.18181614E+00 0.11858188E+04</pdfrwt>
<pdfrwt beam="2">  1       -2 0.29689220E+00 0.11858188E+04</pdfrwt>
<totfact> 0.63090962E-01</totfact>
</mgrwt>
</event>
<event>
 4    2  0.3388003E-007  0.7069866E+03  0.7818608E-02  0.9969366E-01
          2   -1    0    0  501    0  0.00000000000E+00  0.00000000000E+00  0.13120985815E+04  0.13120985815E+04  0.25500000000E-02 0. -1.
         -2   -1    0    0    0  501 -0.00000000000E+00 -0.00000000000E+00 -0.31868572081E+03  0.31868572082E+03  0.25500000000E-02 0.  1.
    8880023    1    1    2    0    0  0.25693612096E+03 -0.19233826938E+01  0.13233484472E+03  0.71926531061E+03  0.65864270000E+03 0.  1.
    8880022    1    1    2    0    0 -0.25693612096E+03  0.19233826938E+01  0.86107801594E+03  0.91151899169E+03  0.15294330000E+03 0.  0.
<mgrwt>
<rscale>  0 0.57014140E+03</rscale>
<asrwt>0</asrwt>
<pdfrwt beam="1">  1        2 0.20186132E+00 0.70698662E+03</pdfrwt>
<pdfrwt beam="2">  1       -2 0.49028571E-01 0.70698662E+03</pdfrwt>
<totfact> 0.65497387E+01</totfact>
</mgrwt>
</event>
<event>
 4    2  0.3388003E-007  0.6790515E+03  0.7818608E-02  0.1009865E+00
         -2   -1    0    0    0  501 -0.00000000000E+00  0.00000000000E+00  0.24045812404E+03  0.24045812405E+03  0.25500000000E-02 0.  1.
          2   -1    0    0  501    0  0.00000000000E+00 -0.00000000000E+00 -0.94077494472E+03  0.94077494472E+03  0.25500000000E-02 0. -1.
    8880023    1    1    2    0    0 -0.12201276992E+03 -0.11141640851E+03 -0.67018705489E+03  0.95407632133E+03  0.65864270000E+03 0. -1.
    8880022    1    1    2    0    0  0.12201276992E+03  0.11141640851E+03 -0.30129765787E+02  0.22715674745E+03  0.15294330000E+03 0.  0.
<mgrwt>
<rscale>  0 0.51528189E+03</rscale>
<asrwt>0</asrwt>
<pdfrwt beam="1">  1        2 0.14473460E+00 0.67905150E+03</pdfrwt>
<pdfrwt beam="2">  1       -2 0.36993558E-01 0.67905150E+03</pdfrwt>
<totfact> 0.19233485E+02</totfact>
</mgrwt>
</event>
<event>
 4    2  0.3388003E-007  0.6657870E+03  0.7818608E-02  0.1018882E+00
          2   -1    0    0  501    0  0.00000000000E+00  0.00000000000E+00  0.38393970704E+04  0.38393970704E+04  0.25500000000E-02 0. -1.
         -2   -1    0    0    0  501 -0.00000000000E+00 -0.00000000000E+00 -0.18742656838E+03  0.18742656840E+03  0.25500000000E-02 0.  1.
    8880023    1    1    2    0    0  0.95323646174E+02 -0.19377699516E+02  0.41447630236E+03  0.78425946232E+03  0.65864270000E+03 0.  1.
    8880022    1    1    2    0    0 -0.95323646174E+02  0.19377699516E+02  0.32374941997E+04  0.32425641765E+04  0.15294330000E+03 0.  0.
<mgrwt>
<rscale>  0 0.48092193E+03</rscale>
<asrwt>0</asrwt>
<pdfrwt beam="1">  1        2 0.59067641E+00 0.66578698E+03</pdfrwt>
<pdfrwt beam="2">  1       -2 0.28834860E-01 0.66578698E+03</pdfrwt>
<totfact> 0.56513180E+00</totfact>
</mgrwt>
</event>
<event>
 4    2  0.3388003E-007  0.7261387E+03  0.7818608E-02  0.9902337E-01
         -2   -1    0    0    0  501 -0.00000000000E+00  0.00000000000E+00  0.63247118540E+03  0.63247118540E+03  0.25500000000E-02 0.  1.
          2   -1    0    0  501    0  0.00000000000E+00 -0.00000000000E+00 -0.97176226479E+03  0.97176226480E+03  0.25500000000E-02 0. -1.
    8880023    1    1    2    0    0  0.22559165041E+03 -0.20633874641E+03  0.37139546952E+03  0.81560534087E+03  0.65864270000E+03 0.  1.
    8880022    1    1    2    0    0 -0.22559165041E+03  0.20633874641E+03 -0.71068654892E+03  0.78862810934E+03  0.15294330000E+03 0.  0.
<mgrwt>
<rscale>  0 0.60148173E+03</rscale>
<asrwt>0</asrwt>
<pdfrwt beam="1">  1        2 0.14950189E+00 0.72613875E+03</pdfrwt>
<pdfrwt beam="2">  1       -2 0.97303260E-01 0.72613875E+03</pdfrwt>
<totfact> 0.23576454E+01</totfact>
</mgrwt>
</event>
<event>
 4    2  0.3388003E-007  0.8045066E+03  0.7818608E-02  0.9701135E-01
          2   -1    0    0  501    0  0.00000000000E+00  0.00000000000E+00  0.42959779187E+03  0.42959779188E+03  0.25500000000E-02 0. -1.
         -2   -1    0    0    0  501 -0.00000000000E+00 -0.00000000000E+00 -0.11581311546E+04  0.11581311546E+04  0.25500000000E-02 0.  1.
    8880023    1    1    2    0    0  0.22901978565E+03 -0.40121134148E+03 -0.75102366829E+03  0.11005759217E+04  0.65864270000E+03 0.  0.
    8880022    1    1    2    0    0 -0.22901978565E+03  0.40121134148E+03  0.22490305547E+02  0.48715302484E+03  0.15294330000E+03 0.  0.
<mgrwt>
<rscale>  0 0.70949235E+03</rscale>
<asrwt>0</asrwt>
<pdfrwt beam="1">  1        2 0.66091969E-01 0.80450656E+03</pdfrwt>
<pdfrwt beam="2">  1       -2 0.17817402E+00 0.80450656E+03</pdfrwt>
<totfact> 0.13838410E+01</totfact>
</mgrwt>
</event>
<event>
 4    2  0.3388003E-007  0.9082374E+03  0.7818608E-02  0.9512935E-01
         -2   -1    0    0    0  501 -0.00000000000E+00  0.00000000000E+00  0.63096015738E+03  0.63096015739E+03  0.25500000000E-02 0.  1.
          2   -1    0    0  501    0  0.00000000000E+00 -0.00000000000E+00 -0.23890201582E+04  0.23890201582E+04  0.25500000000E-02 0. -1.
    8880023    1    1    2    0    0  0.44765995929E+03  0.43667564087E+03  0.22444682116E+03  0.93555953112E+03  0.65864270000E+03 0.  1.
    8880022    1    1    2    0    0 -0.44765995929E+03 -0.43667564087E+03 -0.19825068219E+04  0.20844207844E+04  0.15294330000E+03 0.  0.
<mgrwt>
<rscale>  0 0.83336848E+03</rscale>
<asrwt>0</asrwt>
<pdfrwt beam="1">  1        2 0.36754156E+00 0.90823745E+03</pdfrwt>
<pdfrwt beam="2">  1       -2 0.97070795E-01 0.90823745E+03</pdfrwt>
<totfact> 0.36451497E+00</totfact>
</mgrwt>
</event>
<event>
 4    2  0.3388003E-007  0.7792665E+03  0.7818608E-02  0.9757563E-01
          2   -1    0    0  501    0  0.00000000000E+00  0.00000000000E+00  0.18267334768E+04  0.18267334768E+04  0.25500000000E-02 0. -1.
         -2   -1    0    0    0  501 -0.00000000000E+00 -0.00000000000E+00 -0.32696035232E+03  0.32696035233E+03  0.25500000000E-02 0.  1.
    8880023    1    1    2    0    0  0.41562598924E+03 -0.26477879147E+02  0.23586687009E+03  0.81418021819E+03  0.65864270000E+03 0.  1.
    8880022    1    1    2    0    0 -0.41562598924E+03  0.26477879147E+02  0.12639062544E+04  0.13395136109E+04  0.15294330000E+03 0.  0.
<mgrwt>
<rscale>  0 0.67690548E+03</rscale>
<asrwt>0</asrwt>
<pdfrwt beam="1">  1        2 0.28103593E+00 0.77926648E+03</pdfrwt>
<pdfrwt beam="2">  1       -2 0.50301591E-01 0.77926648E+03</pdfrwt>
<totfact> 0.31958074E+01</totfact>
</mgrwt>
</event>
<event>
 4    2  0.3388003E-007  0.6674151E+03  0.7818608E-02  0.1017588E+00
          2   -1    0    0  501    0  0.00000000000E+00  0.00000000000E+00  0.21523471931E+04  0.21523471931E+04  0.25500000000E-02 0. -1.
         -2   -1    0    0    0  501 -0.00000000000E+00 -0.00000000000E+00 -0.22234779363E+03  0.22234779365E+03  0.25500000000E-02 0.  1.
    8880023    1    1    2    0    0 -0.10305948843E+03  0.31802622687E+02  0.29616269137E+03  0.73017478112E+03  0.65864270000E+03 0.  1.
    8880022    1    1    2    0    0  0.10305948843E+03 -0.31802622687E+02  0.16338367081E+04  0.16445202056E+04  0.15294330000E+03 0.  0.
<mgrwt>
<rscale>  0 0.48567217E+03</rscale>
<asrwt>0</asrwt>
<pdfrwt beam="1">  1        2 0.33113032E+00 0.66741507E+03</pdfrwt>
<pdfrwt beam="2">  1       -2 0.34207354E-01 0.66741507E+03</pdfrwt>
<totfact> 0.45929230E+01</totfact>
</mgrwt>
</event>
<event>
 4    2  0.3388003E-007  0.7543422E+03  0.7818608E-02  0.9819981E-01
         -2   -1    0    0    0  501 -0.00000000000E+00  0.00000000000E+00  0.27573483505E+03  0.27573483506E+03  0.25500000000E-02 0.  1.
          2   -1    0    0  501    0  0.00000000000E+00 -0.00000000000E+00 -0.13630983779E+04  0.13630983779E+04  0.25500000000E-02 0. -1.
    8880023    1    1    2    0    0 -0.19776496263E+03  0.31001769456E+03 -0.42464888520E+03  0.86565514689E+03  0.65864270000E+03 0.  1.
    8880022    1    1    2    0    0  0.19776496263E+03 -0.31001769456E+03 -0.66271465766E+03  0.77317806609E+03  0.15294330000E+03 0. -1.
<mgrwt>
<rscale>  0 0.64301167E+03</rscale>
<asrwt>0</asrwt>
<pdfrwt beam="1">  1        2 0.20970744E+00 0.75434220E+03</pdfrwt>
<pdfrwt beam="2">  1       -2 0.42420745E-01 0.75434220E+03</pdfrwt>
<totfact> 0.81431163E+01</totfact>
</mgrwt>
</event>
<event>
 4    2  0.3388003E-007  0.6953638E+03  0.7818608E-02  0.1001701E+00
         -2   -1    0    0    0  501 -0.00000000000E+00  0.00000000000E+00  0.28676062201E+03  0.28676062202E+03  0.25500000000E-02 0.  1.
          2   -1    0    0  501    0  0.00000000000E+00 -0.00000000000E+00 -0.15237955947E+04  0.15237955947E+04  0.25500000000E-02 0. -1.
    8880023    1    1    2    0    0 -0.19473899670E+03 -0.10861572229E+03 -0.17832867459E+03  0.71786626499E+03  0.65864270000E+03 0.  1.
    8880022    1    1    2    0    0  0.19473899670E+03  0.10861572229E+03 -0.10587062981E+04  0.10926899517E+04  0.15294330000E+03 0.  0.
<mgrwt>
<rscale>  0 0.54910814E+03</rscale>
<asrwt>0</asrwt>
<pdfrwt beam="1">  1        2 0.23443009E+00 0.69536383E+03</pdfrwt>
<pdfrwt beam="2">  1       -2 0.44117020E-01 0.69536383E+03</pdfrwt>
<totfact> 0.61588528E+01</totfact>
</mgrwt>
</event>
<event>
 4    2  0.3388003E-007  0.6857139E+03  0.7818608E-02  0.1006260E+00
          2   -1    0    0  501    0  0.00000000000E+00  0.00000000000E+00  0.20612380435E+03  0.20612380436E+03  0.25500000000E-02 0. -1.
         -2   -1    0    0    0  501 -0.00000000000E+00 -0.00000000000E+00 -0.16893279158E+04  0.16893279158E+04  0.25500000000E-02 0.  1.
    8880023    1    1    2    0    0 -0.15644718640E+03 -0.10916809509E+03 -0.15010831202E+04  0.16502891066E+04  0.65864270000E+03 0.  1.
    8880022    1    1    2    0    0  0.15644718640E+03  0.10916809509E+03  0.17879008821E+02  0.24516261356E+03  0.15294330000E+03 0.  0.
<mgrwt>
<rscale>  0 0.52988461E+03</rscale>
<asrwt>0</asrwt>
<pdfrwt beam="1">  1        2 0.31711356E-01 0.68571394E+03</pdfrwt>
<pdfrwt beam="2">  1       -2 0.25989659E+00 0.68571394E+03</pdfrwt>
<totfact> 0.96743015E+00</totfact>
</mgrwt>
</event>
<event>
 4    2  0.3388003E-007  0.1106657E+04  0.7818608E-02  0.9253681E-01
         -2   -1    0    0    0  501 -0.00000000000E+00  0.00000000000E+00  0.46989625280E+03  0.46989625281E+03  0.25500000000E-02 0.  1.
          2   -1    0    0  501    0  0.00000000000E+00 -0.00000000000E+00 -0.24066611896E+04  0.24066611896E+04  0.25500000000E-02 0. -1.
    8880023    1    1    2    0    0 -0.82202409699E+03 -0.33934527837E+03 -0.58634161656E+03  0.12523919241E+04  0.65864270000E+03 0.  1.
    8880022    1    1    2    0    0  0.82202409699E+03  0.33934527837E+03 -0.13504233202E+04  0.16241655183E+04  0.15294330000E+03 0.  0.
<mgrwt>
<rscale>  0 0.10516126E+04</rscale>
<asrwt>0</asrwt>
<pdfrwt beam="1">  1        2 0.37025556E+00 0.11066567E+04</pdfrwt>
<pdfrwt beam="2">  1       -2 0.72291733E-01 0.11066567E+04</pdfrwt>
<totfact> 0.68011430E+00</totfact>
</mgrwt>
</event>
<event>
 4    2  0.3388003E-007  0.6714065E+03  0.7818608E-02  0.1014674E+00
          2   -1    0    0  501    0  0.00000000000E+00  0.00000000000E+00  0.12756419974E+04  0.12756419974E+04  0.25500000000E-02 0. -1.
         -2   -1    0    0    0  501 -0.00000000000E+00 -0.00000000000E+00 -0.28171099757E+03  0.28171099759E+03  0.25500000000E-02 0.  1.
    8880023    1    1    2    0    0 -0.12497743360E+03  0.36839037912E+02  0.14751965800E+03  0.68742179874E+03  0.65864270000E+03 0.  1.
    8880022    1    1    2    0    0  0.12497743360E+03 -0.36839037912E+02  0.84641134186E+03  0.86993119628E+03  0.15294330000E+03 0.  0.
<mgrwt>
<rscale>  0 0.49658544E+03</rscale>
<asrwt>0</asrwt>
<pdfrwt beam="1">  1        2 0.19625261E+00 0.67140649E+03</pdfrwt>
<pdfrwt beam="2">  1       -2 0.43340154E-01 0.67140649E+03</pdfrwt>
<totfact> 0.88284494E+01</totfact>
</mgrwt>
</event>
<event>
 4    2  0.3388003E-007  0.1133102E+04  0.7818608E-02  0.9225066E-01
         -2   -1    0    0    0  501 -0.00000000000E+00  0.00000000000E+00  0.73590278241E+03  0.73590278242E+03  0.25500000000E-02 0.  1.
          2   -1    0    0  501    0  0.00000000000E+00 -0.00000000000E+00 -0.19908649586E+04  0.19908649586E+04  0.25500000000E-02 0. -1.
    8880023    1    1    2    0    0 -0.85651788109E+03 -0.34130258108E+03  0.35202823998E+02  0.11336488775E+04  0.65864270000E+03 0.  0.
    8880022    1    1    2    0    0  0.85651788109E+03  0.34130258108E+03 -0.12901650002E+04  0.15931188635E+04  0.15294330000E+03 0.  0.
<mgrwt>
<rscale>  0 0.10798409E+04</rscale>
<asrwt>0</asrwt>
<pdfrwt beam="1">  1        2 0.30628691E+00 0.11331022E+04</pdfrwt>
<pdfrwt beam="2">  1       -2 0.11321581E+00 0.11331022E+04</pdfrwt>
<totfact> 0.40749800E+00</totfact>
</mgrwt>
</event>
<event>
 4    2  0.3388003E-007  0.6624627E+03  0.7818608E-02  0.1021764E+00
          2   -1    0    0  501    0  0.00000000000E+00  0.00000000000E+00  0.87966634996E+03  0.87966634996E+03  0.25500000000E-02 0. -1.
         -2   -1    0    0    0  501 -0.00000000000E+00 -0.00000000000E+00 -0.72597269800E+03  0.72597269800E+03  0.25500000000E-02 0.  1.
    8880023    1    1    2    0    0  0.70516065881E+02  0.86093604832E+01 -0.56299400865E+03  0.86937856925E+03  0.65864270000E+03 0.  1.
    8880022    1    1    2    0    0 -0.70516065881E+02 -0.86093604832E+01  0.71668766061E+03  0.73626047872E+03  0.15294330000E+03 0.  0.
<mgrwt>
<rscale>  0 0.47055350E+03</rscale>
<asrwt>0</asrwt>
<pdfrwt beam="1">  1        2 0.13533328E+00 0.66246271E+03</pdfrwt>
<pdfrwt beam="2">  1       -2 0.11168811E+00 0.66246271E+03</pdfrwt>
<totfact> 0.19645110E+01</totfact>
</mgrwt>
</event>
<event>
 4    2  0.3388003E-007  0.6891817E+03  0.7818608E-02  0.1004544E+00
         -2   -1    0    0    0  501 -0.00000000000E+00  0.00000000000E+00  0.59124802484E+03  0.59124802485E+03  0.25500000000E-02 0.  1.
          2   -1    0    0  501    0  0.00000000000E+00 -0.00000000000E+00 -0.59735834705E+03  0.59735834706E+03  0.25500000000E-02 0. -1.
    8880023    1    1    2    0    0 -0.11950788555E+03 -0.16394837606E+03  0.33256220187E+03  0.76522482258E+03  0.65864270000E+03 0.  1.
    8880022    1    1    2    0    0  0.11950788555E+03  0.16394837606E+03 -0.33867252408E+03  0.42338154932E+03  0.15294330000E+03 0.  0.
<mgrwt>
<rscale>  0 0.53701910E+03</rscale>
<asrwt>0</asrwt>
<pdfrwt beam="1">  1        2 0.91901284E-01 0.68918170E+03</pdfrwt>
<pdfrwt beam="2">  1       -2 0.90961235E-01 0.68918170E+03</pdfrwt>
<totfact> 0.52276549E+01</totfact>
</mgrwt>
</event>
<event>
 4    2  0.3388003E-007  0.9233119E+03  0.7818608E-02  0.9489599E-01
         -2   -1    0    0    0  501 -0.00000000000E+00  0.00000000000E+00  0.15564913902E+04  0.15564913902E+04  0.25500000000E-02 0.  1.
          2   -1    0    0  501    0  0.00000000000E+00 -0.00000000000E+00 -0.48181946866E+03  0.48181946866E+03  0.25500000000E-02 0. -1.
    8880023    1    1    2    0    0  0.38381915485E+03 -0.52093911378E+03  0.10128666984E+04  0.13705487437E+04  0.65864270000E+03 0.  1.
    8880022    1    1    2    0    0 -0.38381915485E+03  0.52093911378E+03  0.61805223226E+02  0.66776211522E+03  0.15294330000E+03 0.  0.
<mgrwt>
<rscale>  0 0.85054975E+03</rscale>
<asrwt>0</asrwt>
<pdfrwt beam="1">  1        2 0.74126073E-01 0.92331192E+03</pdfrwt>
<pdfrwt beam="2">  1       -2 0.23946021E+00 0.92331192E+03</pdfrwt>
<totfact> 0.48305270E+00</totfact>
</mgrwt>
</event>
<event>
 4    2  0.3388003E-007  0.8018892E+03  0.7818608E-02  0.9706726E-01
          2   -1    0    0  501    0  0.00000000000E+00  0.00000000000E+00  0.59256744989E+03  0.59256744990E+03  0.25500000000E-02 0. -1.
         -2   -1    0    0    0  501 -0.00000000000E+00 -0.00000000000E+00 -0.87575478622E+03  0.87575478623E+03  0.25500000000E-02 0.  1.
    8880023    1    1    2    0    0 -0.34535771045E+03 -0.29990696528E+03 -0.49413747813E+03  0.94191198609E+03  0.65864270000E+03 0.  0.
    8880022    1    1    2    0    0  0.34535771045E+03  0.29990696528E+03  0.21095014179E+03  0.52641025003E+03  0.15294330000E+03 0.  0.
<mgrwt>
<rscale>  0 0.70617741E+03</rscale>
<asrwt>0</asrwt>
<pdfrwt beam="1">  1        2 0.91164223E-01 0.80188923E+03</pdfrwt>
<pdfrwt beam="2">  1       -2 0.13473151E+00 0.80188923E+03</pdfrwt>
<totfact> 0.20142979E+01</totfact>
</mgrwt>
</event>
<event>
 4    2  0.3388003E-007  0.1007856E+04  0.7818608E-02  0.9371351E-01
          2   -1    0    0  501    0  0.00000000000E+00  0.00000000000E+00  0.11649207987E+04  0.11649207987E+04  0.25500000000E-02 0. -1.
         -2   -1    0    0    0  501 -0.00000000000E+00 -0.00000000000E+00 -0.92855551905E+03  0.92855551905E+03  0.25500000000E-02 0.  1.
    8880023    1    1    2    0    0 -0.72625886438E+03  0.23347707692E+03 -0.40398163160E+03  0.10858060824E+04  0.65864270000E+03 0.  0.
    8880022    1    1    2    0    0  0.72625886438E+03 -0.23347707692E+03  0.64034691122E+03  0.10076702354E+04  0.15294330000E+03 0.  0.
<mgrwt>
<rscale>  0 0.94471354E+03</rscale>
<asrwt>0</asrwt>
<pdfrwt beam="1">  1        2 0.17921858E+00 0.10078560E+04</pdfrwt>
<pdfrwt beam="2">  1       -2 0.14285470E+00 0.10078560E+04</pdfrwt>
<totfact> 0.67124805E+00</totfact>
</mgrwt>
</event>
<event>
 4    2  0.3388003E-007  0.6924838E+03  0.7818608E-02  0.1002994E+00
         -2   -1    0    0    0  501 -0.00000000000E+00  0.00000000000E+00  0.10317496717E+04  0.10317496717E+04  0.25500000000E-02 0.  1.
          2   -1    0    0  501    0  0.00000000000E+00 -0.00000000000E+00 -0.10511804139E+04  0.10511804139E+04  0.25500000000E-02 0. -1.
    8880023    1    1    2    0    0  0.20285377536E+03 -0.67631134348E+02  0.89490887215E+03  0.11315457217E+04  0.65864270000E+03 0.  1.
    8880022    1    1    2    0    0 -0.20285377536E+03  0.67631134348E+02 -0.91433961441E+03  0.95138436397E+03  0.15294330000E+03 0.  0.
<mgrwt>
<rscale>  0 0.54356812E+03</rscale>
<asrwt>0</asrwt>
<pdfrwt beam="1">  1        2 0.16172006E+00 0.69248381E+03</pdfrwt>
<pdfrwt beam="2">  1       -2 0.15873072E+00 0.69248381E+03</pdfrwt>
<totfact> 0.61835588E+00</totfact>
</mgrwt>
</event>
<event>
 4    2  0.3388003E-007  0.9667816E+03  0.7818608E-02  0.9426369E-01
         -2   -1    0    0    0  501 -0.00000000000E+00  0.00000000000E+00  0.10542825223E+04  0.10542825223E+04  0.25500000000E-02 0.  1.
          2   -1    0    0  501    0  0.00000000000E+00 -0.00000000000E+00 -0.70764603235E+03  0.70764603236E+03  0.25500000000E-02 0. -1.
    8880023    1    1    2    0    0 -0.27018244328E+03 -0.65410848321E+03  0.18411226445E+02  0.96695689665E+03  0.65864270000E+03 0.  0.
    8880022    1    1    2    0    0  0.27018244328E+03  0.65410848321E+03  0.32822526354E+03  0.79497165805E+03  0.15294330000E+03 0.  0.
<mgrwt>
<rscale>  0 0.89936999E+03</rscale>
<asrwt>0</asrwt>
<pdfrwt beam="1">  1        2 0.10886862E+00 0.96678160E+03</pdfrwt>
<pdfrwt beam="2">  1       -2 0.16219731E+00 0.96678160E+03</pdfrwt>
<totfact> 0.97596328E+00</totfact>
</mgrwt>
</event>
<event>
 4    2  0.4824136E-007  0.8634783E+03  0.7818608E-02  0.9587406E-01
         -2   -1    0    0    0  501 -0.00000000000E+00  0.00000000000E+00  0.21531563998E+04  0.21531563998E+04  0.25500000000E-02 0.  1.
          2   -1    0    0  501    0  0.00000000000E+00 -0.00000000000E+00 -0.12691912086E+04  0.12691912086E+04  0.25500000000E-02 0. -1.
    8880023    1    1    2    0    0  0.55086803502E+03  0.91263162827E+02  0.19926011826E+04  0.21716478158E+04  0.65864270000E+03 0.  1.
    8880022    1    1    2    0    0 -0.55086803502E+03 -0.91263162827E+02 -0.11086359913E+04  0.12506997926E+04  0.15294330000E+03 0.  0.
<mgrwt>
<rscale>  0 0.78135378E+03</rscale>
<asrwt>0</asrwt>
<pdfrwt beam="1">  1        2 0.19526019E+00 0.86347829E+03</pdfrwt>
<pdfrwt beam="2">  1       -2 0.33125483E+00 0.86347829E+03</pdfrwt>
<totfact> 0.36322276E-01</totfact>
</mgrwt>
</event>
<event>
 4    2  0.3388003E-007  0.6794903E+03  0.7818608E-02  0.1009613E+00
          2   -1    0    0  501    0  0.00000000000E+00  0.00000000000E+00  0.21603046994E+04  0.21603046994E+04  0.25500000000E-02 0. -1.
         -2   -1    0    0    0  501 -0.00000000000E+00 -0.00000000000E+00 -0.16869266073E+03  0.16869266075E+03  0.25500000000E-02 0.  1.
    8880023    1    1    2    0    0 -0.50837396147E+02 -0.15909885659E+03  0.56265701157E+03  0.88220746197E+03  0.65864270000E+03 0.  1.
    8880022    1    1    2    0    0  0.50837396147E+02  0.15909885659E+03  0.14289550271E+04  0.14467898982E+04  0.15294330000E+03 0.  0.
<mgrwt>
<rscale>  0 0.51628558E+03</rscale>
<asrwt>0</asrwt>
<pdfrwt beam="1">  1        2 0.33235457E+00 0.67949032E+03</pdfrwt>
<pdfrwt beam="2">  1       -2 0.25952717E-01 0.67949032E+03</pdfrwt>
<totfact> 0.75695196E+01</totfact>
</mgrwt>
</event>
<event>
 4    2  0.3388003E-007  0.9927737E+03  0.7818608E-02  0.9391074E-01
         -2   -1    0    0    0  501 -0.00000000000E+00  0.00000000000E+00  0.75170072059E+03  0.75170072059E+03  0.25500000000E-02 0.  1.
          2   -1    0    0  501    0  0.00000000000E+00 -0.00000000000E+00 -0.11353541387E+04  0.11353541387E+04  0.25500000000E-02 0. -1.
    8880023    1    1    2    0    0 -0.24858426138E+03 -0.69999660687E+03 -0.51334072020E+03  0.11176396047E+04  0.65864270000E+03 0.  0.
    8880022    1    1    2    0    0  0.24858426138E+03  0.69999660687E+03  0.12968730214E+03  0.76941525458E+03  0.15294330000E+03 0.  0.
<mgrwt>
<rscale>  0 0.92813952E+03</rscale>
<asrwt>0</asrwt>
<pdfrwt beam="1">  1        2 0.17466987E+00 0.99277369E+03</pdfrwt>
<pdfrwt beam="2">  1       -2 0.11564626E+00 0.99277369E+03</pdfrwt>
<totfact> 0.11975276E+01</totfact>
</mgrwt>
</event>
<event>
 4    2  0.3388003E-007  0.7165247E+03  0.7818608E-02  0.9934526E-01
         -2   -1    0    0    0  501 -0.00000000000E+00  0.00000000000E+00  0.73896341907E+03  0.73896341908E+03  0.25500000000E-02 0.  1.
          2   -1    0    0  501    0  0.00000000000E+00 -0.00000000000E+00 -0.11406820096E+04  0.11406820096E+04  0.25500000000E-02 0. -1.
    8880023    1    1    2    0    0  0.19240603686E+03 -0.20634275622E+03  0.53192592037E+03  0.89238601910E+03  0.65864270000E+03 0.  0.
    8880022    1    1    2    0    0 -0.19240603686E+03  0.20634275622E+03 -0.93364451094E+03  0.98725940962E+03  0.15294330000E+03 0.  0.
<mgrwt>
<rscale>  0 0.58616821E+03</rscale>
<asrwt>0</asrwt>
<pdfrwt beam="1">  1        2 0.17548954E+00 0.71652468E+03</pdfrwt>
<pdfrwt beam="2">  1       -2 0.11368668E+00 0.71652468E+03</pdfrwt>
<totfact> 0.12758847E+01</totfact>
</mgrwt>
</event>
<event>
 4    2  0.3388003E-007  0.1128128E+04  0.7818608E-02  0.9230367E-01
          2   -1    0    0  501    0  0.00000000000E+00  0.00000000000E+00  0.31678534483E+04  0.31678534483E+04  0.25500000000E-02 0. -1.
         -2   -1    0    0    0  501 -0.00000000000E+00 -0.00000000000E+00 -0.46651861950E+03  0.46651861951E+03  0.25500000000E-02 0.  1.
    8880023    1    1    2    0    0  0.88054693590E+03  0.25199179195E+03  0.47856309169E+03  0.12254369052E+04  0.65864270000E+03 0.  0.
    8880022    1    1    2    0    0 -0.88054693590E+03 -0.25199179195E+03  0.22227717371E+04  0.24089351626E+04  0.15294330000E+03 0.  0.
<mgrwt>
<rscale>  0 0.10745416E+04</rscale>
<asrwt>0</asrwt>
<pdfrwt beam="1">  1        2 0.48736205E+00 0.11281281E+04</pdfrwt>
<pdfrwt beam="2">  1       -2 0.71772098E-01 0.11281281E+04</pdfrwt>
<totfact> 0.24122012E+00</totfact>
</mgrwt>
</event>
<event>
 4    2  0.3388003E-007  0.6670585E+03  0.7818608E-02  0.1017865E+00
         -2   -1    0    0    0  501 -0.00000000000E+00  0.00000000000E+00  0.19286503318E+03  0.19286503319E+03  0.25500000000E-02 0.  1.
          2   -1    0    0  501    0  0.00000000000E+00 -0.00000000000E+00 -0.25784969266E+04  0.25784969266E+04  0.25500000000E-02 0. -1.
    8880023    1    1    2    0    0  0.19433353677E+02  0.10382302708E+03 -0.40155395748E+03  0.77859659851E+03  0.65864270000E+03 0.  1.
    8880022    1    1    2    0    0 -0.19433353677E+02 -0.10382302708E+03 -0.19840779360E+04  0.19927653613E+04  0.15294330000E+03 0.  0.
<mgrwt>
<rscale>  0 0.48464825E+03</rscale>
<asrwt>0</asrwt>
<pdfrwt beam="1">  1        2 0.39669181E+00 0.66705853E+03</pdfrwt>
<pdfrwt beam="2">  1       -2 0.29671545E-01 0.66705853E+03</pdfrwt>
<totfact> 0.34683749E+01</totfact>
</mgrwt>
</event>
<event>
 4    2  0.3388003E-007  0.7235398E+03  0.7818608E-02  0.9910786E-01
         -2   -1    0    0    0  501 -0.00000000000E+00  0.00000000000E+00  0.18570543366E+03  0.18570543368E+03  0.25500000000E-02 0.  1.
          2   -1    0    0  501    0  0.00000000000E+00 -0.00000000000E+00 -0.22478275774E+04  0.22478275774E+04  0.25500000000E-02 0. -1.
    8880023    1    1    2    0    0  0.12031929408E+03 -0.27426781958E+03 -0.62038105708E+03  0.95309098812E+03  0.65864270000E+03 0.  1.
    8880022    1    1    2    0    0 -0.12031929408E+03  0.27426781958E+03 -0.14417410866E+04  0.14804420229E+04  0.15294330000E+03 0.  0.
<mgrwt>
<rscale>  0 0.59741402E+03</rscale>
<asrwt>0</asrwt>
<pdfrwt beam="1">  1        2 0.34581961E+00 0.72353975E+03</pdfrwt>
<pdfrwt beam="2">  1       -2 0.28570068E-01 0.72353975E+03</pdfrwt>
<totfact> 0.56525978E+01</totfact>
</mgrwt>
</event>
<event>
 4    2  0.3388003E-007  0.7263280E+03  0.7818608E-02  0.9901728E-01
          2   -1    0    0  501    0  0.00000000000E+00  0.00000000000E+00  0.23588797855E+04  0.23588797855E+04  0.25500000000E-02 0. -1.
         -2   -1    0    0    0  501 -0.00000000000E+00 -0.00000000000E+00 -0.35411711592E+03  0.35411711593E+03  0.25500000000E-02 0.  1.
    8880023    1    1    2    0    0  0.14848608496E+03 -0.26775729416E+03  0.49506511321E+02  0.72801317772E+03  0.65864270000E+03 0.  1.
    8880022    1    1    2    0    0 -0.14848608496E+03  0.26775729416E+03  0.19552561582E+04  0.19849837237E+04  0.15294330000E+03 0.  0.
<mgrwt>
<rscale>  0 0.60177594E+03</rscale>
<asrwt>0</asrwt>
<pdfrwt beam="1">  1        2 0.36290459E+00 0.72632795E+03</pdfrwt>
<pdfrwt beam="2">  1       -2 0.54479555E-01 0.72632795E+03</pdfrwt>
<totfact> 0.13942181E+01</totfact>
</mgrwt>
</event>
<event>
 4    2  0.3388003E-007  0.6819626E+03  0.7818608E-02  0.1008235E+00
         -2   -1    0    0    0  501 -0.00000000000E+00  0.00000000000E+00  0.65699574030E+03  0.65699574030E+03  0.25500000000E-02 0.  1.
          2   -1    0    0  501    0  0.00000000000E+00 -0.00000000000E+00 -0.58463558773E+03  0.58463558773E+03  0.25500000000E-02 0. -1.
    8880023    1    1    2    0    0 -0.89570185236E+02 -0.15244667290E+03  0.43592774695E+03  0.80938619520E+03  0.65864270000E+03 0.  1.
    8880022    1    1    2    0    0  0.89570185236E+02  0.15244667290E+03 -0.36356759438E+03  0.43224513283E+03  0.15294330000E+03 0.  0.
<mgrwt>
<rscale>  0 0.52182349E+03</rscale>
<asrwt>0</asrwt>
<pdfrwt beam="1">  1        2 0.89943937E-01 0.68196262E+03</pdfrwt>
<pdfrwt beam="2">  1       -2 0.10107627E+00 0.68196262E+03</pdfrwt>
<totfact> 0.41937616E+01</totfact>
</mgrwt>
</event>
<event>
 4    2  0.3388003E-007  0.9043351E+03  0.7818608E-02  0.9519108E-01
          2   -1    0    0  501    0  0.00000000000E+00  0.00000000000E+00  0.48932862355E+03  0.48932862356E+03  0.25500000000E-02 0. -1.
         -2   -1    0    0    0  501 -0.00000000000E+00 -0.00000000000E+00 -0.17595891389E+04  0.17595891389E+04  0.25500000000E-02 0.  1.
    8880023    1    1    2    0    0 -0.45505180500E+03 -0.42064180944E+03 -0.13294756489E+04  0.16078953275E+04  0.65864270000E+03 0.  0.
    8880022    1    1    2    0    0  0.45505180500E+03  0.42064180944E+03  0.59215133492E+02  0.64102243497E+03  0.15294330000E+03 0.  0.
<mgrwt>
<rscale>  0 0.82889610E+03</rscale>
<asrwt>0</asrwt>
<pdfrwt beam="1">  1        2 0.75281327E-01 0.90433505E+03</pdfrwt>
<pdfrwt beam="2">  1       -2 0.27070602E+00 0.90433505E+03</pdfrwt>
<totfact> 0.30714560E+00</totfact>
</mgrwt>
</event>
<event>
 4    2  0.3388003E-007  0.7727537E+03  0.7818608E-02  0.9773142E-01
          2   -1    0    0  501    0  0.00000000000E+00  0.00000000000E+00  0.13901954891E+04  0.13901954891E+04  0.25500000000E-02 0. -1.
         -2   -1    0    0    0  501 -0.00000000000E+00 -0.00000000000E+00 -0.94468981135E+03  0.94468981135E+03  0.25500000000E-02 0.  1.
    8880023    1    1    2    0    0 -0.39761270500E+03  0.72403525924E+02 -0.74193079166E+03  0.10712654385E+04  0.65864270000E+03 0.  0.
    8880022    1    1    2    0    0  0.39761270500E+03 -0.72403525924E+02  0.11874364695E+04  0.12636198620E+04  0.15294330000E+03 0.  0.
<mgrwt>
<rscale>  0 0.66824010E+03</rscale>
<asrwt>0</asrwt>
<pdfrwt beam="1">  1        2 0.21387623E+00 0.77275374E+03</pdfrwt>
<pdfrwt beam="2">  1       -2 0.14533689E+00 0.77275374E+03</pdfrwt>
<totfact> 0.48737175E+00</totfact>
</mgrwt>
</event>
<event>
 4    2  0.3526756E-007  0.7704413E+03  0.7818608E-02  0.9778789E-01
          2   -1    0    0  501    0  0.00000000000E+00  0.00000000000E+00  0.24169375014E+04  0.24169375014E+04  0.25500000000E-02 0. -1.
         -2   -1    0    0    0  501 -0.00000000000E+00 -0.00000000000E+00 -0.69904351233E+03  0.69904351234E+03  0.25500000000E-02 0.  1.
    8880023    1    1    2    0    0  0.31075912312E+03 -0.25139284069E+03 -0.45940889980E+03  0.89701523757E+03  0.65864270000E+03 0.  0.
    8880022    1    1    2    0    0 -0.31075912312E+03  0.25139284069E+03  0.21773028889E+04  0.22189657762E+04  0.15294330000E+03 0.  0.
<mgrwt>
<rscale>  0 0.66513357E+03</rscale>
<asrwt>0</asrwt>
<pdfrwt beam="1">  1        2 0.37183654E+00 0.77044130E+03</pdfrwt>
<pdfrwt beam="2">  1       -2 0.10754516E+00 0.77044130E+03</pdfrwt>
<totfact> 0.28161075E+00</totfact>
</mgrwt>
</event>
<event>
 4    2  0.3388003E-007  0.8305405E+03  0.7818608E-02  0.9648282E-01
         -2   -1    0    0    0  501 -0.00000000000E+00  0.00000000000E+00  0.29763603075E+03  0.29763603076E+03  0.25500000000E-02 0.  1.
          2   -1    0    0  501    0  0.00000000000E+00 -0.00000000000E+00 -0.27364285556E+04  0.27364285556E+04  0.25500000000E-02 0. -1.
    8880023    1    1    2    0    0 -0.48402302573E+03 -0.14734004739E+03 -0.38882465153E+03  0.91705081370E+03  0.65864270000E+03 0.  1.
    8880022    1    1    2    0    0  0.48402302573E+03  0.14734004739E+03 -0.20499678733E+04  0.21170137727E+04  0.15294330000E+03 0.  0.
<mgrwt>
<rscale>  0 0.74181370E+03</rscale>
<asrwt>0</asrwt>
<pdfrwt beam="1">  1        2 0.42098899E+00 0.83054054E+03</pdfrwt>
<pdfrwt beam="2">  1       -2 0.45790160E-01 0.83054054E+03</pdfrwt>
<totfact> 0.11890524E+01</totfact>
</mgrwt>
</event>
<event>
 4    2  0.3388003E-007  0.8191312E+03  0.7818608E-02  0.9670862E-01
         -2   -1    0    0    0  501 -0.00000000000E+00  0.00000000000E+00  0.13557290983E+04  0.13557290983E+04  0.25500000000E-02 0.  1.
          2   -1    0    0  501    0  0.00000000000E+00 -0.00000000000E+00 -0.99059491494E+03  0.99059491494E+03  0.25500000000E-02 0. -1.
    8880023    1    1    2    0    0 -0.55303772967E+02  0.48384624860E+03  0.11488894813E+04  0.14110006896E+04  0.65864270000E+03 0.  0.
    8880022    1    1    2    0    0  0.55303772967E+02 -0.48384624860E+03 -0.78375529796E+03  0.93532332360E+03  0.15294330000E+03 0.  0.
<mgrwt>
<rscale>  0 0.72778485E+03</rscale>
<asrwt>0</asrwt>
<pdfrwt beam="1">  1        2 0.15239922E+00 0.81913119E+03</pdfrwt>
<pdfrwt beam="2">  1       -2 0.20857371E+00 0.81913119E+03</pdfrwt>
<totfact> 0.30331642E+00</totfact>
</mgrwt>
</event>
<event>
 4    2  0.3388003E-007  0.7321047E+03  0.7818608E-02  0.9883573E-01
         -2   -1    0    0    0  501 -0.00000000000E+00  0.00000000000E+00  0.37505822199E+03  0.37505822199E+03  0.25500000000E-02 0.  1.
          2   -1    0    0  501    0  0.00000000000E+00 -0.00000000000E+00 -0.12119300694E+04  0.12119300694E+04  0.25500000000E-02 0. -1.
    8880023    1    1    2    0    0 -0.16017897772E+03  0.27660405648E+03 -0.61739056669E+02  0.73470335942E+03  0.65864270000E+03 0.  1.
    8880022    1    1    2    0    0  0.16017897772E+03 -0.27660405648E+03 -0.77513279072E+03  0.85228493195E+03  0.15294330000E+03 0.  0.
<mgrwt>
<rscale>  0 0.61064075E+03</rscale>
<asrwt>0</asrwt>
<pdfrwt beam="1">  1        2 0.18645078E+00 0.73210472E+03</pdfrwt>
<pdfrwt beam="2">  1       -2 0.57701265E-01 0.73210472E+03</pdfrwt>
<totfact> 0.53417194E+01</totfact>
</mgrwt>
</event>
<event>
 4    2  0.3388003E-007  0.8856137E+03  0.7818608E-02  0.9549532E-01
         -2   -1    0    0    0  501 -0.00000000000E+00  0.00000000000E+00  0.44042041213E+03  0.44042041214E+03  0.25500000000E-02 0.  1.
          2   -1    0    0  501    0  0.00000000000E+00 -0.00000000000E+00 -0.15473250589E+04  0.15473250589E+04  0.25500000000E-02 0. -1.
    8880023    1    1    2    0    0 -0.56803809768E+03 -0.16683576364E+03 -0.22352961421E+03  0.91338773100E+03  0.65864270000E+03 0.  0.
    8880022    1    1    2    0    0  0.56803809768E+03  0.16683576364E+03 -0.88337503259E+03  0.10743577401E+04  0.15294330000E+03 0.  0.
<mgrwt>
<rscale>  0 0.80728463E+03</rscale>
<asrwt>0</asrwt>
<pdfrwt beam="1">  1        2 0.23805001E+00 0.88561372E+03</pdfrwt>
<pdfrwt beam="2">  1       -2 0.67756987E-01 0.88561372E+03</pdfrwt>
<totfact> 0.24044460E+01</totfact>
</mgrwt>
</event>
<event>
 4    2  0.3388003E-007  0.6639379E+03  0.7818608E-02  0.1020442E+00
         -2   -1    0    0    0  501 -0.00000000000E+00  0.00000000000E+00  0.17767752869E+03  0.17767752871E+03  0.25500000000E-02 0.  1.
          2   -1    0    0  501    0  0.00000000000E+00 -0.00000000000E+00 -0.10886992249E+04  0.10886992249E+04  0.25500000000E-02 0. -1.
    8880023    1    1    2    0    0  0.83292825357E+02  0.81023758443E+01 -0.53773564376E+03  0.85438467454E+03  0.65864270000E+03 0.  1.
    8880022    1    1    2    0    0 -0.83292825357E+02 -0.81023758443E+01 -0.37328605245E+03  0.41199207908E+03  0.15294330000E+03 0.  1.
<mgrwt>
<rscale>  0 0.47527598E+03</rscale>
<asrwt>0</asrwt>
<pdfrwt beam="1">  1        2 0.16749218E+00 0.66393791E+03</pdfrwt>
<pdfrwt beam="2">  1       -2 0.27335005E-01 0.66393791E+03</pdfrwt>
<totfact> 0.27343709E+02</totfact>
</mgrwt>
</event>
<event>
 4    2  0.3388003E-007  0.9117361E+03  0.7818608E-02  0.9507448E-01
          2   -1    0    0  501    0  0.00000000000E+00  0.00000000000E+00  0.20966603396E+04  0.20966603396E+04  0.25500000000E-02 0. -1.
         -2   -1    0    0    0  501 -0.00000000000E+00 -0.00000000000E+00 -0.41037803122E+03  0.41037803123E+03  0.25500000000E-02 0.  1.
    8880023    1    1    2    0    0  0.47941205338E+02 -0.62861287910E+03  0.16147678325E+04  0.18543834205E+04  0.65864270000E+03 0. -1.
    8880022    1    1    2    0    0 -0.47941205338E+02  0.62861287910E+03  0.71514475850E+02  0.65265495034E+03  0.15294330000E+03 0.  0.
<mgrwt>
<rscale>  0 0.83736929E+03</rscale>
<asrwt>0</asrwt>
<pdfrwt beam="1">  1        2 0.32256312E+00 0.91173610E+03</pdfrwt>
<pdfrwt beam="2">  1       -2 0.63135083E-01 0.91173610E+03</pdfrwt>
<totfact> 0.13919612E+01</totfact>
</mgrwt>
</event>
<event>
 4    2  0.3388003E-007  0.7584359E+03  0.7818608E-02  0.9809174E-01
         -2   -1    0    0    0  501 -0.00000000000E+00  0.00000000000E+00  0.33939368698E+03  0.33939368699E+03  0.25500000000E-02 0.  1.
          2   -1    0    0  501    0  0.00000000000E+00 -0.00000000000E+00 -0.19693890232E+04  0.19693890232E+04  0.25500000000E-02 0. -1.
    8880023    1    1    2    0    0 -0.25007332349E+02  0.37521925857E+03 -0.14871343286E+03  0.77287822459E+03  0.65864270000E+03 0.  1.
    8880022    1    1    2    0    0  0.25007332349E+02 -0.37521925857E+03 -0.14812819034E+04  0.15359044856E+04  0.15294330000E+03 0.  0.
<mgrwt>
<rscale>  0 0.64872550E+03</rscale>
<asrwt>0</asrwt>
<pdfrwt beam="1">  1        2 0.30298292E+00 0.75843593E+03</pdfrwt>
<pdfrwt beam="2">  1       -2 0.52214415E-01 0.75843593E+03</pdfrwt>
<totfact> 0.24815580E+01</totfact>
</mgrwt>
</event>
<event>
 4    2  0.3388003E-007  0.8953398E+03  0.7818608E-02  0.9533554E-01
         -2   -1    0    0    0  501 -0.00000000000E+00  0.00000000000E+00  0.55472708562E+03  0.55472708562E+03  0.25500000000E-02 0.  1.
          2   -1    0    0  501    0  0.00000000000E+00 -0.00000000000E+00 -0.16200407016E+04  0.16200407016E+04  0.25500000000E-02 0. -1.
    8880023    1    1    2    0    0  0.57527212972E+03  0.19205514571E+03  0.49253100920E+02  0.89669352425E+03  0.65864270000E+03 0.  0.
    8880022    1    1    2    0    0 -0.57527212972E+03 -0.19205514571E+03 -0.11145667169E+04  0.12780742630E+04  0.15294330000E+03 0. -1.
<mgrwt>
<rscale>  0 0.81854554E+03</rscale>
<asrwt>0</asrwt>
<pdfrwt beam="1">  1        2 0.24923703E+00 0.89533983E+03</pdfrwt>
<pdfrwt beam="2">  1       -2 0.85342629E-01 0.89533983E+03</pdfrwt>
<totfact> 0.13086858E+01</totfact>
</mgrwt>
</event>
<event>
 4    2  0.3388003E-007  0.6861699E+03  0.7818608E-02  0.1006029E+00
          2   -1    0    0  501    0  0.00000000000E+00  0.00000000000E+00  0.94375704920E+03  0.94375704920E+03  0.25500000000E-02 0. -1.
         -2   -1    0    0    0  501 -0.00000000000E+00 -0.00000000000E+00 -0.33092867805E+03  0.33092867806E+03  0.25500000000E-02 0.  1.
    8880023    1    1    2    0    0 -0.13125224692E+02 -0.19195485463E+03  0.83696900025E+02  0.69125560763E+03  0.65864270000E+03 0.  1.
    8880022    1    1    2    0    0  0.13125224692E+02  0.19195485463E+03  0.52913147113E+03  0.58343011963E+03  0.15294330000E+03 0.  0.
<mgrwt>
<rscale>  0 0.53083908E+03</rscale>
<asrwt>0</asrwt>
<pdfrwt beam="1">  1        2 0.14519339E+00 0.68616991E+03</pdfrwt>
<pdfrwt beam="2">  1       -2 0.50912104E-01 0.68616991E+03</pdfrwt>
<totfact> 0.10174552E+02</totfact>
</mgrwt>
</event>
<event>
 4    2  0.3388003E-007  0.7178852E+03  0.7818608E-02  0.9929808E-01
         -2   -1    0    0    0  501 -0.00000000000E+00  0.00000000000E+00  0.32173022259E+03  0.32173022260E+03  0.25500000000E-02 0.  1.
          2   -1    0    0  501    0  0.00000000000E+00 -0.00000000000E+00 -0.97323070243E+03  0.97323070244E+03  0.25500000000E-02 0. -1.
    8880023    1    1    2    0    0  0.28151626084E+03  0.47932980018E+02 -0.21115725349E+03  0.74829577552E+03  0.65864270000E+03 0.  1.
    8880022    1    1    2    0    0 -0.28151626084E+03 -0.47932980018E+02 -0.44034322635E+03  0.54666514952E+03  0.15294330000E+03 0.  0.
<mgrwt>
<rscale>  0 0.58838178E+03</rscale>
<asrwt>0</asrwt>
<pdfrwt beam="1">  1        2 0.14972780E+00 0.71788522E+03</pdfrwt>
<pdfrwt beam="2">  1       -2 0.49496958E-01 0.71788522E+03</pdfrwt>
<totfact> 0.10285447E+02</totfact>
</mgrwt>
</event>
<event>
 4    2  0.3388003E-007  0.8164256E+03  0.7818608E-02  0.9676345E-01
          2   -1    0    0  501    0  0.00000000000E+00  0.00000000000E+00  0.14354747839E+04  0.14354747839E+04  0.25500000000E-02 0. -1.
         -2   -1    0    0    0  501 -0.00000000000E+00 -0.00000000000E+00 -0.38205469099E+03  0.38205469100E+03  0.25500000000E-02 0.  1.
    8880023    1    1    2    0    0  0.16677082835E+03  0.45268971854E+03  0.10253119509E+04  0.13106545286E+04  0.65864270000E+03 0. -1.
    8880022    1    1    2    0    0 -0.16677082835E+03 -0.45268971854E+03  0.28108141934E+02  0.50687494623E+03  0.15294330000E+03 0.  0.
<mgrwt>
<rscale>  0 0.72442838E+03</rscale>
<asrwt>0</asrwt>
<pdfrwt beam="1">  1        2 0.22084228E+00 0.81642556E+03</pdfrwt>
<pdfrwt beam="2">  1       -2 0.58777644E-01 0.81642556E+03</pdfrwt>
<totfact> 0.37906802E+01</totfact>
</mgrwt>
</event>
<event>
 4    2  0.3388003E-007  0.1242233E+04  0.7818608E-02  0.9117123E-01
         -2   -1    0    0    0  501 -0.00000000000E+00  0.00000000000E+00  0.68646674346E+03  0.68646674346E+03  0.25500000000E-02 0.  1.
          2   -1    0    0  501    0  0.00000000000E+00 -0.00000000000E+00 -0.31230472032E+04  0.31230472032E+04  0.25500000000E-02 0. -1.
    8880023    1    1    2    0    0 -0.48449088529E+03 -0.93520174018E+03 -0.10518634733E+03  0.12466788226E+04  0.65864270000E+03 0.  0.
    8880022    1    1    2    0    0  0.48449088529E+03  0.93520174018E+03 -0.23313941124E+04  0.25628351241E+04  0.15294330000E+03 0.  0.
<mgrwt>
<rscale>  0 0.11951378E+04</rscale>
<asrwt>0</asrwt>
<pdfrwt beam="1">  1        2 0.48046879E+00 0.12422334E+04</pdfrwt>
<pdfrwt beam="2">  1       -2 0.10561027E+00 0.12422334E+04</pdfrwt>
<totfact> 0.10399517E+00</totfact>
</mgrwt>
</event>
<event>
 4    2  0.3388003E-007  0.9851358E+03  0.7818608E-02  0.9401268E-01
         -2   -1    0    0    0  501 -0.00000000000E+00  0.00000000000E+00  0.77678275613E+03  0.77678275613E+03  0.25500000000E-02 0.  1.
          2   -1    0    0  501    0  0.00000000000E+00 -0.00000000000E+00 -0.13455351571E+04  0.13455351571E+04  0.25500000000E-02 0. -1.
    8880023    1    1    2    0    0  0.73141212169E+03  0.41457666970E+02  0.24664730765E+03  0.10155429733E+04  0.65864270000E+03 0.  0.
    8880022    1    1    2    0    0 -0.73141212169E+03 -0.41457666970E+02 -0.81539970862E+03  0.11067749400E+04  0.15294330000E+03 0.  0.
<mgrwt>
<rscale>  0 0.91971396E+03</rscale>
<asrwt>0</asrwt>
<pdfrwt beam="1">  1        2 0.20700541E+00 0.98513585E+03</pdfrwt>
<pdfrwt beam="2">  1       -2 0.11950504E+00 0.98513585E+03</pdfrwt>
<totfact> 0.83001689E+00</totfact>
</mgrwt>
</event>
<event>
 4    2  0.3388003E-007  0.9176245E+03  0.7818608E-02  0.9498311E-01
         -2   -1    0    0    0  501 -0.00000000000E+00  0.00000000000E+00  0.11842080775E+04  0.11842080775E+04  0.25500000000E-02 0.  1.
          2   -1    0    0  501    0  0.00000000000E+00 -0.00000000000E+00 -0.53890617356E+03  0.53890617357E+03  0.25500000000E-02 0. -1.
    8880023    1    1    2    0    0  0.34606952772E+03  0.53708508243E+03  0.23044391642E+03  0.94611791478E+03  0.65864270000E+03 0. -1.
    8880022    1    1    2    0    0 -0.34606952772E+03 -0.53708508243E+03  0.41485798752E+03  0.77699633629E+03  0.15294330000E+03 0.  1.
<mgrwt>
<rscale>  0 0.84408457E+03</rscale>
<asrwt>0</asrwt>
<pdfrwt beam="1">  1        2 0.82908643E-01 0.91762449E+03</pdfrwt>
<pdfrwt beam="2">  1       -2 0.18218586E+00 0.91762449E+03</pdfrwt>
<totfact> 0.98873018E+00</totfact>
</mgrwt>
</event>
<event>
 4    2  0.3388003E-007  0.7215351E+03  0.7818608E-02  0.9917426E-01
         -2   -1    0    0    0  501 -0.00000000000E+00  0.00000000000E+00  0.89886727707E+03  0.89886727708E+03  0.25500000000E-02 0.  1.
          2   -1    0    0  501    0  0.00000000000E+00 -0.00000000000E+00 -0.51733670058E+03  0.51733670059E+03  0.25500000000E-02 0. -1.
    8880023    1    1    2    0    0  0.93800443100E+02  0.27929229094E+03  0.66382460384E+03  0.98044684600E+03  0.65864270000E+03 0.  0.
    8880022    1    1    2    0    0 -0.93800443100E+02 -0.27929229094E+03 -0.28229402735E+03  0.43575713167E+03  0.15294330000E+03 0.  0.
<mgrwt>
<rscale>  0 0.59424156E+03</rscale>
<asrwt>0</asrwt>
<pdfrwt beam="1">  1        2 0.79590264E-01 0.72153511E+03</pdfrwt>
<pdfrwt beam="2">  1       -2 0.13828727E+00 0.72153511E+03</pdfrwt>
<totfact> 0.22284602E+01</totfact>
</mgrwt>
</event>
<event>
 4    2  0.3388003E-007  0.9110820E+03  0.7818608E-02  0.9508471E-01
         -2   -1    0    0    0  501 -0.00000000000E+00  0.00000000000E+00  0.38511474633E+03  0.38511474634E+03  0.25500000000E-02 0.  1.
          2   -1    0    0  501    0  0.00000000000E+00 -0.00000000000E+00 -0.22297938289E+04  0.22297938289E+04  0.25500000000E-02 0. -1.
    8880023    1    1    2    0    0  0.54531715254E+03  0.31446694135E+03 -0.33257898403E+03  0.96988619999E+03  0.65864270000E+03 0. -1.
    8880022    1    1    2    0    0 -0.54531715254E+03 -0.31446694135E+03 -0.15121000985E+04  0.16450223752E+04  0.15294330000E+03 0. -1.
<mgrwt>
<rscale>  0 0.83662196E+03</rscale>
<asrwt>0</asrwt>
<pdfrwt beam="1">  1        2 0.34304519E+00 0.91108203E+03</pdfrwt>
<pdfrwt beam="2">  1       -2 0.59248424E-01 0.91108203E+03</pdfrwt>
<totfact> 0.13448163E+01</totfact>
</mgrwt>
</event>
<event>
 4    2  0.3388003E-007  0.7016312E+03  0.7818608E-02  0.9990500E-01
          2   -1    0    0  501    0  0.00000000000E+00  0.00000000000E+00  0.11640393284E+04  0.11640393284E+04  0.25500000000E-02 0. -1.
         -2   -1    0    0    0  501 -0.00000000000E+00 -0.00000000000E+00 -0.26147739189E+03  0.26147739190E+03  0.25500000000E-02 0.  1.
    8880023    1    1    2    0    0  0.24159069735E+03  0.10493909424E+02  0.30913921090E+03  0.76671601337E+03  0.65864270000E+03 0.  0.
    8880022    1    1    2    0    0 -0.24159069735E+03 -0.10493909424E+02  0.59342272566E+03  0.65880070698E+03  0.15294330000E+03 0.  0.
<mgrwt>
<rscale>  0 0.56068747E+03</rscale>
<asrwt>0</asrwt>
<pdfrwt beam="1">  1        2 0.17908297E+00 0.70163124E+03</pdfrwt>
<pdfrwt beam="2">  1       -2 0.40227291E-01 0.70163124E+03</pdfrwt>
<totfact> 0.11851773E+02</totfact>
</mgrwt>
</event>
<event>
 4    2  0.3388003E-007  0.6594886E+03  0.7818608E-02  0.1024687E+00
         -2   -1    0    0    0  501 -0.00000000000E+00  0.00000000000E+00  0.22967697830E+03  0.22967697832E+03  0.25500000000E-02 0.  1.
          2   -1    0    0  501    0  0.00000000000E+00 -0.00000000000E+00 -0.10640309950E+04  0.10640309950E+04  0.25500000000E-02 0. -1.
    8880023    1    1    2    0    0  0.95662553537E+01 -0.31991222478E+02 -0.27789331681E+03  0.71564645835E+03  0.65864270000E+03 0.  1.
    8880022    1    1    2    0    0 -0.95662553537E+01  0.31991222478E+02 -0.55646069989E+03  0.57806151498E+03  0.15294330000E+03 0.  0.
<mgrwt>
<rscale>  0 0.46032636E+03</rscale>
<asrwt>0</asrwt>
<pdfrwt beam="1">  1        2 0.16369707E+00 0.65948856E+03</pdfrwt>
<pdfrwt beam="2">  1       -2 0.35334920E-01 0.65948856E+03</pdfrwt>
<totfact> 0.17554698E+02</totfact>
</mgrwt>
</event>
<event>
 4    2  0.3388003E-007  0.7635354E+03  0.7818608E-02  0.9796039E-01
         -2   -1    0    0    0  501 -0.00000000000E+00  0.00000000000E+00  0.73058703908E+03  0.73058703909E+03  0.25500000000E-02 0.  1.
          2   -1    0    0  501    0  0.00000000000E+00 -0.00000000000E+00 -0.84437422001E+03  0.84437422001E+03  0.25500000000E-02 0. -1.
    8880023    1    1    2    0    0  0.37751117667E+03  0.81617056816E+02  0.44110969087E+03  0.88179589368E+03  0.65864270000E+03 0.  1.
    8880022    1    1    2    0    0 -0.37751117667E+03 -0.81617056816E+02 -0.55489687179E+03  0.69316536542E+03  0.15294330000E+03 0.  0.
<mgrwt>
<rscale>  0 0.65575528E+03</rscale>
<asrwt>0</asrwt>
<pdfrwt beam="1">  1        2 0.12990373E+00 0.76353536E+03</pdfrwt>
<pdfrwt beam="2">  1       -2 0.11239801E+00 0.76353536E+03</pdfrwt>
<totfact> 0.20240845E+01</totfact>
</mgrwt>
</event>
<event>
 4    2  0.3388003E-007  0.8115878E+03  0.7818608E-02  0.9686279E-01
          2   -1    0    0  501    0  0.00000000000E+00  0.00000000000E+00  0.18590762434E+04  0.18590762434E+04  0.25500000000E-02 0. -1.
         -2   -1    0    0    0  501 -0.00000000000E+00 -0.00000000000E+00 -0.29991341736E+03  0.29991341737E+03  0.25500000000E-02 0.  1.
    8880023    1    1    2    0    0  0.37883836155E+03  0.28521218184E+03  0.41606616164E+03  0.91202288895E+03  0.65864270000E+03 0.  0.
    8880022    1    1    2    0    0 -0.37883836155E+03 -0.28521218184E+03  0.11430966644E+04  0.12469667719E+04  0.15294330000E+03 0.  0.
<mgrwt>
<rscale>  0 0.71839635E+03</rscale>
<asrwt>0</asrwt>
<pdfrwt beam="1">  1        2 0.28601172E+00 0.81158776E+03</pdfrwt>
<pdfrwt beam="2">  1       -2 0.46140527E-01 0.81158776E+03</pdfrwt>
<totfact> 0.36402701E+01</totfact>
</mgrwt>
</event>
<event>
 4    2  0.3388003E-007  0.8210615E+03  0.7818608E-02  0.9666981E-01
          2   -1    0    0  501    0  0.00000000000E+00  0.00000000000E+00  0.44840320673E+03  0.44840320674E+03  0.25500000000E-02 0. -1.
         -2   -1    0    0    0  501 -0.00000000000E+00 -0.00000000000E+00 -0.10038878381E+04  0.10038878381E+04  0.25500000000E-02 0.  1.
    8880023    1    1    2    0    0 -0.49002415189E+03 -0.14427187147E+02 -0.41446345030E+03  0.91974016497E+03  0.65864270000E+03 0. -1.
    8880022    1    1    2    0    0  0.49002415189E+03  0.14427187147E+02 -0.14102118110E+03  0.53255087991E+03  0.15294330000E+03 0.  1.
<mgrwt>
<rscale>  0 0.73017233E+03</rscale>
<asrwt>0</asrwt>
<pdfrwt beam="1">  1        2 0.68985109E-01 0.82106152E+03</pdfrwt>
<pdfrwt beam="2">  1       -2 0.15444428E+00 0.82106152E+03</pdfrwt>
<totfact> 0.19505393E+01</totfact>
</mgrwt>
</event>
<event>
 4    2  0.3388003E-007  0.7951474E+03  0.7818608E-02  0.9721388E-01
         -2   -1    0    0    0  501 -0.00000000000E+00  0.00000000000E+00  0.28681143061E+03  0.28681143062E+03  0.25500000000E-02 0.  1.
          2   -1    0    0  501    0  0.00000000000E+00 -0.00000000000E+00 -0.24552282873E+04  0.24552282873E+04  0.25500000000E-02 0. -1.
    8880023    1    1    2    0    0  0.38940061353E+03 -0.21637079852E+03 -0.35919382686E+03  0.87251336482E+03  0.65864270000E+03 0.  0.
    8880022    1    1    2    0    0 -0.38940061353E+03  0.21637079852E+03 -0.18092230299E+04  0.18695263531E+04  0.15294330000E+03 0.  0.
<mgrwt>
<rscale>  0 0.69757500E+03</rscale>
<asrwt>0</asrwt>
<pdfrwt beam="1">  1        2 0.37772741E+00 0.79514739E+03</pdfrwt>
<pdfrwt beam="2">  1       -2 0.44124837E-01 0.79514739E+03</pdfrwt>
<totfact> 0.18681751E+01</totfact>
</mgrwt>
</event>
<event>
 4    2  0.3388003E-007  0.7197642E+03  0.7818608E-02  0.9923385E-01
         -2   -1    0    0    0  501 -0.00000000000E+00  0.00000000000E+00  0.44676602228E+03  0.44676602229E+03  0.25500000000E-02 0.  1.
          2   -1    0    0  501    0  0.00000000000E+00 -0.00000000000E+00 -0.15333088084E+04  0.15333088084E+04  0.25500000000E-02 0. -1.
    8880023    1    1    2    0    0  0.22489532090E+03 -0.18350032896E+03  0.12001860516E+03  0.72970195830E+03  0.65864270000E+03 0.  1.
    8880022    1    1    2    0    0 -0.22489532090E+03  0.18350032896E+03 -0.12065613913E+04  0.12503728724E+04  0.15294330000E+03 0.  0.
<mgrwt>
<rscale>  0 0.59141231E+03</rscale>
<asrwt>0</asrwt>
<pdfrwt beam="1">  1        2 0.23589366E+00 0.71976419E+03</pdfrwt>
<pdfrwt beam="2">  1       -2 0.68733235E-01 0.71976419E+03</pdfrwt>
<totfact> 0.24175959E+01</totfact>
</mgrwt>
</event>
<event>
 4    2  0.3388003E-007  0.7107516E+03  0.7818608E-02  0.9955221E-01
         -2   -1    0    0    0  501 -0.00000000000E+00  0.00000000000E+00  0.86996889165E+02  0.86996889203E+02  0.25500000000E-02 0.  1.
          2   -1    0    0  501    0  0.00000000000E+00 -0.00000000000E+00 -0.44734693956E+04  0.44734693956E+04  0.25500000000E-02 0. -1.
    8880023    1    1    2    0    0  0.99177101535E+02 -0.24803524663E+03 -0.15251209573E+04  0.16826056346E+04  0.65864270000E+03 0.  0.
    8880022    1    1    2    0    0 -0.99177101535E+02  0.24803524663E+03 -0.28613515492E+04  0.28778606502E+04  0.15294330000E+03 0.  0.
<mgrwt>
<rscale>  0 0.57658101E+03</rscale>
<asrwt>0</asrwt>
<pdfrwt beam="1">  1        2 0.68822588E+00 0.71075157E+03</pdfrwt>
<pdfrwt beam="2">  1       -2 0.13384140E-01 0.71075157E+03</pdfrwt>
<totfact> 0.63191139E+00</totfact>
</mgrwt>
</event>
<event>
 4    2  0.3388003E-007  0.7114527E+03  0.7818608E-02  0.9952646E-01
         -2   -1    0    0    0  501 -0.00000000000E+00  0.00000000000E+00  0.32354439550E+03  0.32354439551E+03  0.25500000000E-02 0.  1.
          2   -1    0    0  501    0  0.00000000000E+00 -0.00000000000E+00 -0.86655699026E+03  0.86655699026E+03  0.25500000000E-02 0. -1.
    8880023    1    1    2    0    0 -0.21740799932E+03  0.15839346664E+03 -0.22449970808E+03  0.74603287705E+03  0.65864270000E+03 0. -1.
    8880022    1    1    2    0    0  0.21740799932E+03 -0.15839346664E+03 -0.31851288668E+03  0.44406850872E+03  0.15294330000E+03 0.  0.
<mgrwt>
<rscale>  0 0.57776312E+03</rscale>
<asrwt>0</asrwt>
<pdfrwt beam="1">  1        2 0.13331646E+00 0.71145269E+03</pdfrwt>
<pdfrwt beam="2">  1       -2 0.49776061E-01 0.71145269E+03</pdfrwt>
<totfact> 0.11977339E+02</totfact>
</mgrwt>
</event>
<event>
 4    2  0.3388003E-007  0.1064191E+04  0.7818608E-02  0.9302013E-01
          2   -1    0    0  501    0  0.00000000000E+00  0.00000000000E+00  0.50193402104E+03  0.50193402104E+03  0.25500000000E-02 0. -1.
         -2   -1    0    0    0  501 -0.00000000000E+00 -0.00000000000E+00 -0.28889869850E+04  0.28889869850E+04  0.25500000000E-02 0.  1.
    8880023    1    1    2    0    0 -0.72908225759E+03 -0.40881766117E+03 -0.23030368166E+04  0.25370221921E+04  0.65864270000E+03 0.  1.
    8880022    1    1    2    0    0  0.72908225759E+03  0.40881766117E+03 -0.84016147386E+02  0.85389881395E+03  0.15294330000E+03 0.  0.
<mgrwt>
<rscale>  0 0.10059775E+04</rscale>
<asrwt>0</asrwt>
<pdfrwt beam="1">  1        2 0.77220620E-01 0.10641913E+04</pdfrwt>
<pdfrwt beam="2">  1       -2 0.44445953E+00 0.10641913E+04</pdfrwt>
<totfact> 0.23417986E-01</totfact>
</mgrwt>
</event>
<event>
 4    2  0.3388003E-007  0.6932143E+03  0.7818608E-02  0.1002661E+00
          2   -1    0    0  501    0  0.00000000000E+00  0.00000000000E+00  0.12406478462E+04  0.12406478462E+04  0.25500000000E-02 0. -1.
         -2   -1    0    0    0  501 -0.00000000000E+00 -0.00000000000E+00 -0.28291948004E+03  0.28291948006E+03  0.25500000000E-02 0.  1.
    8880023    1    1    2    0    0  0.17978965171E+03  0.12004783594E+03  0.20088834350E+03  0.72173550182E+03  0.65864270000E+03 0.  1.
    8880022    1    1    2    0    0 -0.17978965171E+03 -0.12004783594E+03  0.75684002268E+03  0.80183182446E+03  0.15294330000E+03 0.  1.
<mgrwt>
<rscale>  0 0.54498760E+03</rscale>
<asrwt>0</asrwt>
<pdfrwt beam="1">  1        2 0.19086890E+00 0.69321426E+03</pdfrwt>
<pdfrwt beam="2">  1       -2 0.43526073E-01 0.69321426E+03</pdfrwt>
<totfact> 0.91546979E+01</totfact>
</mgrwt>
</event>
<event>
 4    2  0.3388003E-007  0.7103330E+03  0.7818608E-02  0.9956766E-01
         -2   -1    0    0    0  501 -0.00000000000E+00  0.00000000000E+00  0.32224241885E+03  0.32224241886E+03  0.25500000000E-02 0.  1.
          2   -1    0    0  501    0  0.00000000000E+00 -0.00000000000E+00 -0.81952360037E+03  0.81952360038E+03  0.25500000000E-02 0. -1.
    8880023    1    1    2    0    0 -0.20188982342E+03 -0.17321466652E+03 -0.27001159859E+03  0.75992058212E+03  0.65864270000E+03 0.  0.
    8880022    1    1    2    0    0  0.20188982342E+03  0.17321466652E+03 -0.22726958293E+03  0.38184543711E+03  0.15294330000E+03 0.  1.
<mgrwt>
<rscale>  0 0.57587289E+03</rscale>
<asrwt>0</asrwt>
<pdfrwt beam="1">  1        2 0.12608055E+00 0.71033304E+03</pdfrwt>
<pdfrwt beam="2">  1       -2 0.49575757E-01 0.71033304E+03</pdfrwt>
<totfact> 0.13023048E+02</totfact>
</mgrwt>
</event>
<event>
 4    2  0.3388003E-007  0.6805571E+03  0.7818608E-02  0.1009010E+00
          2   -1    0    0  501    0  0.00000000000E+00  0.00000000000E+00  0.18655237401E+04  0.18655237401E+04  0.25500000000E-02 0. -1.
         -2   -1    0    0    0  501 -0.00000000000E+00 -0.00000000000E+00 -0.22312481797E+03  0.22312481799E+03  0.25500000000E-02 0.  1.
    8880023    1    1    2    0    0 -0.94284545013E+02 -0.14303231456E+03  0.33006709682E+03  0.75637445297E+03  0.65864270000E+03 0.  1.
    8880022    1    1    2    0    0  0.94284545013E+02  0.14303231456E+03  0.13123318253E+04  0.13322741051E+04  0.15294330000E+03 0.  0.
<mgrwt>
<rscale>  0 0.51869901E+03</rscale>
<asrwt>0</asrwt>
<pdfrwt beam="1">  1        2 0.28700366E+00 0.68055714E+03</pdfrwt>
<pdfrwt beam="2">  1       -2 0.34326895E-01 0.68055714E+03</pdfrwt>
<totfact> 0.65257530E+01</totfact>
</mgrwt>
</event>
<event>
 4    2  0.3388003E-007  0.1031496E+04  0.7818608E-02  0.9341464E-01
          2   -1    0    0  501    0  0.00000000000E+00  0.00000000000E+00  0.62236563432E+03  0.62236563432E+03  0.25500000000E-02 0. -1.
         -2   -1    0    0    0  501 -0.00000000000E+00 -0.00000000000E+00 -0.23701725196E+04  0.23701725196E+04  0.25500000000E-02 0.  1.
    8880023    1    1    2    0    0  0.78461380903E+03  0.12064274051E+03 -0.19074523504E+04  0.21684921433E+04  0.65864270000E+03 0.  1.
    8880022    1    1    2    0    0 -0.78461380903E+03 -0.12064274051E+03  0.15964546509E+03  0.82404601067E+03  0.15294330000E+03 0.  0.
<mgrwt>
<rscale>  0 0.97053617E+03</rscale>
<asrwt>0</asrwt>
<pdfrwt beam="1">  1        2 0.95748560E-01 0.10314959E+04</pdfrwt>
<pdfrwt beam="2">  1       -2 0.36464192E+00 0.10314959E+04</pdfrwt>
<totfact> 0.60232878E-01</totfact>
</mgrwt>
</event>
<event>
 4    2  0.3388003E-007  0.8878549E+03  0.7818608E-02  0.9545816E-01
         -2   -1    0    0    0  501 -0.00000000000E+00  0.00000000000E+00  0.22146051486E+04  0.22146051486E+04  0.25500000000E-02 0.  1.
          2   -1    0    0  501    0  0.00000000000E+00 -0.00000000000E+00 -0.48855122729E+03  0.48855122730E+03  0.25500000000E-02 0. -1.
    8880023    1    1    2    0    0 -0.59008505628E+03  0.79220150604E+02  0.18715439712E+04  0.20714640350E+04  0.65864270000E+03 0.  0.
    8880022    1    1    2    0    0  0.59008505628E+03 -0.79220150604E+02 -0.14549004990E+03  0.63169234089E+03  0.15294330000E+03 0.  0.
<mgrwt>
<rscale>  0 0.80988622E+03</rscale>
<asrwt>0</asrwt>
<pdfrwt beam="1">  1        2 0.75161727E-01 0.88785495E+03</pdfrwt>
<pdfrwt beam="2">  1       -2 0.34070848E+00 0.88785495E+03</pdfrwt>
<totfact> 0.11585705E+00</totfact>
</mgrwt>
</event>
<event>
 4    2  0.3388003E-007  0.8042550E+03  0.7818608E-02  0.9701670E-01
          2   -1    0    0  501    0  0.00000000000E+00  0.00000000000E+00  0.18733279878E+04  0.18733279878E+04  0.25500000000E-02 0. -1.
         -2   -1    0    0    0  501 -0.00000000000E+00 -0.00000000000E+00 -0.43629784640E+03  0.43629784640E+03  0.25500000000E-02 0.  1.
    8880023    1    1    2    0    0  0.43807843323E+03  0.14526911749E+03  0.12444535790E+02  0.80435123105E+03  0.65864270000E+03 0.  1.
    8880022    1    1    2    0    0 -0.43807843323E+03 -0.14526911749E+03  0.14245856056E+04  0.15052746031E+04  0.15294330000E+03 0.  0.
<mgrwt>
<rscale>  0 0.70917426E+03</rscale>
<asrwt>0</asrwt>
<pdfrwt beam="1">  1        2 0.28820431E+00 0.80425496E+03</pdfrwt>
<pdfrwt beam="2">  1       -2 0.67122744E-01 0.80425496E+03</pdfrwt>
<totfact> 0.16391271E+01</totfact>
</mgrwt>
</event>
<event>
 4    2  0.3388003E-007  0.8127187E+03  0.7818608E-02  0.9683942E-01
         -2   -1    0    0    0  501 -0.00000000000E+00  0.00000000000E+00  0.11582160834E+04  0.11582160834E+04  0.25500000000E-02 0.  1.
          2   -1    0    0  501    0  0.00000000000E+00 -0.00000000000E+00 -0.13024984903E+04  0.13024984903E+04  0.25500000000E-02 0. -1.
    8880023    1    1    2    0    0  0.43689689306E+03 -0.18926842054E+03 -0.11085073005E+04  0.13745181234E+04  0.65864270000E+03 0. -1.
    8880022    1    1    2    0    0 -0.43689689306E+03  0.18926842054E+03  0.96422489357E+03  0.10861964503E+04  0.15294330000E+03 0.  0.
<mgrwt>
<rscale>  0 0.71981002E+03</rscale>
<asrwt>0</asrwt>
<pdfrwt beam="1">  1        2 0.20038438E+00 0.81271867E+03</pdfrwt>
<pdfrwt beam="2">  1       -2 0.17818709E+00 0.81271867E+03</pdfrwt>
<totfact> 0.31246780E+00</totfact>
</mgrwt>
</event>
<event>
 4    2  0.3388003E-007  0.7004548E+03  0.7818608E-02  0.9995320E-01
          2   -1    0    0  501    0  0.00000000000E+00  0.00000000000E+00  0.14871208360E+04  0.14871208360E+04  0.25500000000E-02 0. -1.
         -2   -1    0    0    0  501 -0.00000000000E+00 -0.00000000000E+00 -0.51779512753E+03  0.51779512753E+03  0.25500000000E-02 0.  1.
    8880023    1    1    2    0    0 -0.93951097613E+02 -0.21908894694E+03 -0.25714740500E+03  0.74616470673E+03  0.65864270000E+03 0.  1.
    8880022    1    1    2    0    0  0.93951097613E+02  0.21908894694E+03  0.12264731134E+04  0.12587512568E+04  0.15294330000E+03 0.  0.
<mgrwt>
<rscale>  0 0.55855941E+03</rscale>
<asrwt>0</asrwt>
<pdfrwt beam="1">  1        2 0.22878782E+00 0.70045484E+03</pdfrwt>
<pdfrwt beam="2">  1       -2 0.79660790E-01 0.70045484E+03</pdfrwt>
<totfact> 0.18561322E+01</totfact>
</mgrwt>
</event>
<event>
 4    2  0.3388003E-007  0.6988155E+03  0.7818608E-02  0.1000215E+00
         -2   -1    0    0    0  501 -0.00000000000E+00  0.00000000000E+00  0.77466751787E+03  0.77466751787E+03  0.25500000000E-02 0.  1.
          2   -1    0    0  501    0  0.00000000000E+00 -0.00000000000E+00 -0.80815129725E+03  0.80815129726E+03  0.25500000000E-02 0. -1.
    8880023    1    1    2    0    0  0.20240037704E+03  0.11647721097E+03  0.58042420055E+03  0.90842463207E+03  0.65864270000E+03 0.  1.
    8880022    1    1    2    0    0 -0.20240037704E+03 -0.11647721097E+03 -0.61390797994E+03  0.67439418306E+03  0.15294330000E+03 0.  0.
<mgrwt>
<rscale>  0 0.55556022E+03</rscale>
<asrwt>0</asrwt>
<pdfrwt beam="1">  1        2 0.12433097E+00 0.69881547E+03</pdfrwt>
<pdfrwt beam="2">  1       -2 0.11917962E+00 0.69881547E+03</pdfrwt>
<totfact> 0.18723676E+01</totfact>
</mgrwt>
</event>
<event>
 4    2  0.3388003E-007  0.7303609E+03  0.7818608E-02  0.9888971E-01
          2   -1    0    0  501    0  0.00000000000E+00  0.00000000000E+00  0.99288985313E+03  0.99288985313E+03  0.25500000000E-02 0. -1.
         -2   -1    0    0    0  501 -0.00000000000E+00 -0.00000000000E+00 -0.32837762089E+03  0.32837762090E+03  0.25500000000E-02 0.  1.
    8880023    1    1    2    0    0 -0.31419696133E+03 -0.29950795018E+02  0.23604046930E+03  0.76755591982E+03  0.65864270000E+03 0.  0.
    8880022    1    1    2    0    0  0.31419696133E+03  0.29950795018E+02  0.42847176293E+03  0.55371155422E+03  0.15294330000E+03 0.  0.
<mgrwt>
<rscale>  0 0.60798796E+03</rscale>
<asrwt>0</asrwt>
<pdfrwt beam="1">  1        2 0.15275229E+00 0.73036086E+03</pdfrwt>
<pdfrwt beam="2">  1       -2 0.50519634E-01 0.73036086E+03</pdfrwt>
<totfact> 0.95743888E+01</totfact>
</mgrwt>
</event>
<event>
 4    2  0.3388003E-007  0.8796271E+03  0.7818608E-02  0.9559561E-01
         -2   -1    0    0    0  501 -0.00000000000E+00  0.00000000000E+00  0.32241501267E+03  0.32241501268E+03  0.25500000000E-02 0.  1.
          2   -1    0    0  501    0  0.00000000000E+00 -0.00000000000E+00 -0.43386443229E+04  0.43386443229E+04  0.25500000000E-02 0. -1.
    8880023    1    1    2    0    0  0.41021771703E+03  0.41431270109E+03 -0.35177104218E+03  0.94735772654E+03  0.65864270000E+03 0.  1.
    8880022    1    1    2    0    0 -0.41021771703E+03 -0.41431270109E+03 -0.36644582680E+04  0.37137016090E+04  0.15294330000E+03 0.  0.
<mgrwt>
<rscale>  0 0.80031487E+03</rscale>
<asrwt>0</asrwt>
<pdfrwt beam="1">  1        2 0.66748370E+00 0.87962708E+03</pdfrwt>
<pdfrwt beam="2">  1       -2 0.49602313E-01 0.87962708E+03</pdfrwt>
<totfact> 0.73754710E-01</totfact>
</mgrwt>
</event>
<event>
 4    2  0.3388003E-007  0.1112058E+04  0.7818608E-02  0.9247748E-01
          2   -1    0    0  501    0  0.00000000000E+00  0.00000000000E+00  0.25707366119E+04  0.25707366119E+04  0.25500000000E-02 0. -1.
         -2   -1    0    0    0  501 -0.00000000000E+00 -0.00000000000E+00 -0.61189864306E+03  0.61189864307E+03  0.25500000000E-02 0.  1.
    8880023    1    1    2    0    0 -0.59194999489E+03  0.67264996754E+03  0.19827703980E+04  0.22733348704E+04  0.65864270000E+03 0.  0.
    8880022    1    1    2    0    0  0.59194999489E+03 -0.67264996754E+03 -0.23932429172E+02  0.90930038462E+03  0.15294330000E+03 0.  0.
<mgrwt>
<rscale>  0 0.10573890E+04</rscale>
<asrwt>0</asrwt>
<pdfrwt beam="1">  1        2 0.39549794E+00 0.11120580E+04</pdfrwt>
<pdfrwt beam="2">  1       -2 0.94138252E-01 0.11120580E+04</pdfrwt>
<totfact> 0.30007774E+00</totfact>
</mgrwt>
</event>
<event>
 4    2  0.3388003E-007  0.8233546E+03  0.7818608E-02  0.9662403E-01
          2   -1    0    0  501    0  0.00000000000E+00  0.00000000000E+00  0.15796268546E+04  0.15796268546E+04  0.25500000000E-02 0. -1.
         -2   -1    0    0    0  501 -0.00000000000E+00 -0.00000000000E+00 -0.58934538231E+03  0.58934538232E+03  0.25500000000E-02 0.  1.
    8880023    1    1    2    0    0 -0.33987879418E+03 -0.35858753138E+03 -0.22048639988E+03  0.85236557368E+03  0.65864270000E+03 0.  0.
    8880022    1    1    2    0    0  0.33987879418E+03  0.35858753138E+03  0.12107678722E+04  0.13166066632E+04  0.15294330000E+03 0.  0.
<mgrwt>
<rscale>  0 0.73300089E+03</rscale>
<asrwt>0</asrwt>
<pdfrwt beam="1">  1        2 0.24301952E+00 0.82335461E+03</pdfrwt>
<pdfrwt beam="2">  1       -2 0.90668519E-01 0.82335461E+03</pdfrwt>
<totfact> 0.12089304E+01</totfact>
</mgrwt>
</event>
<event>
 4    2  0.3388003E-007  0.1101907E+04  0.7818608E-02  0.9258936E-01
          2   -1    0    0  501    0  0.00000000000E+00  0.00000000000E+00  0.23067305424E+04  0.23067305424E+04  0.25500000000E-02 0. -1.
         -2   -1    0    0    0  501 -0.00000000000E+00 -0.00000000000E+00 -0.57281422181E+03  0.57281422181E+03  0.25500000000E-02 0.  1.
    8880023    1    1    2    0    0 -0.87234485373E+03  0.13929463256E+03  0.22540237676E+03  0.11247244001E+04  0.65864270000E+03 0.  0.
    8880022    1    1    2    0    0  0.87234485373E+03 -0.13929463256E+03  0.15085139438E+04  0.17548203641E+04  0.15294330000E+03 0.  0.
<mgrwt>
<rscale>  0 0.10465279E+04</rscale>
<asrwt>0</asrwt>
<pdfrwt beam="1">  1        2 0.35488163E+00 0.11019069E+04</pdfrwt>
<pdfrwt beam="2">  1       -2 0.88125264E-01 0.11019069E+04</pdfrwt>
<totfact> 0.49538701E+00</totfact>
</mgrwt>
</event>
<event>
 4    2  0.3388003E-007  0.1047645E+04  0.7818608E-02  0.9321718E-01
          2   -1    0    0  501    0  0.00000000000E+00  0.00000000000E+00  0.28498294828E+04  0.28498294828E+04  0.25500000000E-02 0. -1.
         -2   -1    0    0    0  501 -0.00000000000E+00 -0.00000000000E+00 -0.49599106532E+03  0.49599106533E+03  0.25500000000E-02 0.  1.
    8880023    1    1    2    0    0  0.30737640133E+02  0.81412866018E+03  0.23933054853E+03  0.10746346335E+04  0.65864270000E+03 0.  0.
    8880022    1    1    2    0    0 -0.30737640133E+02 -0.81412866018E+03  0.21145078690E+04  0.22711859146E+04  0.15294330000E+03 0.  0.
<mgrwt>
<rscale>  0 0.98807857E+03</rscale>
<asrwt>0</asrwt>
<pdfrwt beam="1">  1        2 0.43843529E+00 0.10476452E+04</pdfrwt>
<pdfrwt beam="2">  1       -2 0.76306321E-01 0.10476452E+04</pdfrwt>
<totfact> 0.33505546E+00</totfact>
</mgrwt>
</event>
<event>
 4    2  0.3388003E-007  0.6969169E+03  0.7818608E-02  0.1001024E+00
          2   -1    0    0  501    0  0.00000000000E+00  0.00000000000E+00  0.29846700602E+04  0.29846700602E+04  0.25500000000E-02 0. -1.
         -2   -1    0    0    0  501 -0.00000000000E+00 -0.00000000000E+00 -0.85804198151E+02  0.85804198189E+02  0.25500000000E-02 0.  1.
    8880023    1    1    2    0    0  0.13394031292E+03  0.18423609940E+03  0.16378498674E+04  0.17799565562E+04  0.65864270000E+03 0.  1.
    8880022    1    1    2    0    0 -0.13394031292E+03 -0.18423609940E+03  0.12610159947E+04  0.12905177022E+04  0.15294330000E+03 0. -1.
<mgrwt>
<rscale>  0 0.55203524E+03</rscale>
<asrwt>0</asrwt>
<pdfrwt beam="1">  1        2 0.45918003E+00 0.69691689E+03</pdfrwt>
<pdfrwt beam="2">  1       -2 0.13200645E-01 0.69691689E+03</pdfrwt>
<totfact> 0.82124608E+01</totfact>
</mgrwt>
</event>
<event>
 4    2  0.3388003E-007  0.6894759E+03  0.7818608E-02  0.1004403E+00
         -2   -1    0    0    0  501 -0.00000000000E+00  0.00000000000E+00  0.27806475153E+03  0.27806475154E+03  0.25500000000E-02 0.  1.
          2   -1    0    0  501    0  0.00000000000E+00 -0.00000000000E+00 -0.36618997414E+04  0.36618997414E+04  0.25500000000E-02 0. -1.
    8880023    1    1    2    0    0 -0.87616171105E+02 -0.18409295610E+03 -0.16224457726E+03  0.70830806789E+03  0.65864270000E+03 0.  1.
    8880022    1    1    2    0    0  0.87616171105E+02  0.18409295610E+03 -0.32215904127E+04  0.32316564251E+04  0.15294330000E+03 0.  0.
<mgrwt>
<rscale>  0 0.53761179E+03</rscale>
<asrwt>0</asrwt>
<pdfrwt beam="1">  1        2 0.56336916E+00 0.68947590E+03</pdfrwt>
<pdfrwt beam="2">  1       -2 0.42779195E-01 0.68947590E+03</pdfrwt>
<totfact> 0.35707968E+00</totfact>
</mgrwt>
</event>
<event>
 4    2  0.3388003E-007  0.6936195E+03  0.7818608E-02  0.1002478E+00
         -2   -1    0    0    0  501 -0.00000000000E+00  0.00000000000E+00  0.54362630456E+03  0.54362630456E+03  0.25500000000E-02 0.  1.
          2   -1    0    0  501    0  0.00000000000E+00 -0.00000000000E+00 -0.67315050963E+03  0.67315050963E+03  0.25500000000E-02 0. -1.
    8880023    1    1    2    0    0 -0.95498229483E+02  0.19539166610E+03  0.26374092953E+03  0.74206960535E+03  0.65864270000E+03 0.  1.
    8880022    1    1    2    0    0  0.95498229483E+02 -0.19539166610E+03 -0.39326513461E+03  0.47470720884E+03  0.15294330000E+03 0.  0.
<mgrwt>
<rscale>  0 0.54577082E+03</rscale>
<asrwt>0</asrwt>
<pdfrwt beam="1">  1        2 0.10356162E+00 0.69361951E+03</pdfrwt>
<pdfrwt beam="2">  1       -2 0.83634817E-01 0.69361951E+03</pdfrwt>
<totfact> 0.54722393E+01</totfact>
</mgrwt>
</event>
<event>
 4    2  0.3388003E-007  0.1155213E+04  0.7818608E-02  0.9201938E-01
         -2   -1    0    0    0  501 -0.00000000000E+00  0.00000000000E+00  0.10292576371E+04  0.10292576371E+04  0.25500000000E-02 0.  1.
          2   -1    0    0  501    0  0.00000000000E+00 -0.00000000000E+00 -0.15164486565E+04  0.15164486565E+04  0.25500000000E-02 0. -1.
    8880023    1    1    2    0    0  0.75568522254E+03  0.57414801045E+03  0.41486551756E+03  0.12274484500E+04  0.65864270000E+03 0.  0.
    8880022    1    1    2    0    0 -0.75568522254E+03 -0.57414801045E+03 -0.90205653699E+03  0.13182578437E+04  0.15294330000E+03 0.  0.
<mgrwt>
<rscale>  0 0.11033447E+04</rscale>
<asrwt>0</asrwt>
<pdfrwt beam="1">  1        2 0.23329979E+00 0.11552127E+04</pdfrwt>
<pdfrwt beam="2">  1       -2 0.15834733E+00 0.11552127E+04</pdfrwt>
<totfact> 0.31416589E+00</totfact>
</mgrwt>
</event>
<event>
 4    2  0.3388003E-007  0.6792010E+03  0.7818608E-02  0.1009779E+00
          2   -1    0    0  501    0  0.00000000000E+00  0.00000000000E+00  0.16523146298E+04  0.16523146298E+04  0.25500000000E-02 0. -1.
         -2   -1    0    0    0  501 -0.00000000000E+00 -0.00000000000E+00 -0.66909965367E+03  0.66909965367E+03  0.25500000000E-02 0.  1.
    8880023    1    1    2    0    0  0.14430883135E+03 -0.81723265194E+02 -0.48587837180E+03  0.83509983195E+03  0.65864270000E+03 0.  1.
    8880022    1    1    2    0    0 -0.14430883135E+03  0.81723265194E+02  0.14690933479E+04  0.14863144515E+04  0.15294330000E+03 0.  0.
<mgrwt>
<rscale>  0 0.51562446E+03</rscale>
<asrwt>0</asrwt>
<pdfrwt beam="1">  1        2 0.25420225E+00 0.67920095E+03</pdfrwt>
<pdfrwt beam="2">  1       -2 0.10293841E+00 0.67920095E+03</pdfrwt>
<totfact> 0.83500909E+00</totfact>
</mgrwt>
</event>
<event>
 4    2  0.3388003E-007  0.6989274E+03  0.7818608E-02  0.1000168E+00
          2   -1    0    0  501    0  0.00000000000E+00  0.00000000000E+00  0.10746054508E+04  0.10746054508E+04  0.25500000000E-02 0. -1.
         -2   -1    0    0    0  501 -0.00000000000E+00 -0.00000000000E+00 -0.30053726223E+03  0.30053726224E+03  0.25500000000E-02 0.  1.
    8880023    1    1    2    0    0  0.13885484585E+03  0.18817193979E+03  0.18474930413E+03  0.72293281761E+03  0.65864270000E+03 0.  1.
    8880022    1    1    2    0    0 -0.13885484585E+03 -0.18817193979E+03  0.58931888447E+03  0.65220989547E+03  0.15294330000E+03 0.  0.
<mgrwt>
<rscale>  0 0.55576633E+03</rscale>
<asrwt>0</asrwt>
<pdfrwt beam="1">  1        2 0.16532391E+00 0.69892743E+03</pdfrwt>
<pdfrwt beam="2">  1       -2 0.46236502E-01 0.69892743E+03</pdfrwt>
<totfact> 0.10200761E+02</totfact>
</mgrwt>
</event>
<event>
 4    2  0.3388003E-007  0.7063940E+03  0.7818608E-02  0.9971643E-01
         -2   -1    0    0    0  501 -0.00000000000E+00  0.00000000000E+00  0.43337075917E+03  0.43337075918E+03  0.25500000000E-02 0.  1.
          2   -1    0    0  501    0  0.00000000000E+00 -0.00000000000E+00 -0.72287433346E+03  0.72287433346E+03  0.25500000000E-02 0. -1.
    8880023    1    1    2    0    0 -0.36042716738E+02 -0.25275119604E+03  0.45843101191E+02  0.70787996208E+03  0.65864270000E+03 0.  1.
    8880022    1    1    2    0    0  0.36042716738E+02  0.25275119604E+03 -0.33534667548E+03  0.44836513056E+03  0.15294330000E+03 0.  0.
<mgrwt>
<rscale>  0 0.56911294E+03</rscale>
<asrwt>0</asrwt>
<pdfrwt beam="1">  1        2 0.11121144E+00 0.70639398E+03</pdfrwt>
<pdfrwt beam="2">  1       -2 0.66672424E-01 0.70639398E+03</pdfrwt>
<totfact> 0.82527337E+01</totfact>
</mgrwt>
</event>
<event>
 4    2  0.3388003E-007  0.9632495E+03  0.7818608E-02  0.9431302E-01
         -2   -1    0    0    0  501 -0.00000000000E+00  0.00000000000E+00  0.93845096176E+03  0.93845096176E+03  0.25500000000E-02 0.  1.
          2   -1    0    0  501    0  0.00000000000E+00 -0.00000000000E+00 -0.21563922102E+04  0.21563922102E+04  0.25500000000E-02 0. -1.
    8880023    1    1    2    0    0  0.25859070537E+03 -0.65358257337E+03  0.60337569103E+03  0.11366229647E+04  0.65864270000E+03 0.  1.
    8880022    1    1    2    0    0 -0.25859070537E+03  0.65358257337E+03 -0.18213169395E+04  0.19582202073E+04  0.15294330000E+03 0.  0.
<mgrwt>
<rscale>  0 0.89543824E+03</rscale>
<asrwt>0</asrwt>
<pdfrwt beam="1">  1        2 0.33175265E+00 0.96324947E+03</pdfrwt>
<pdfrwt beam="2">  1       -2 0.14437707E+00 0.96324947E+03</pdfrwt>
<totfact> 0.18204359E+00</totfact>
</mgrwt>
</event>
<event>
 4    2  0.3388003E-007  0.9352431E+03  0.7818608E-02  0.9471672E-01
          2   -1    0    0  501    0  0.00000000000E+00  0.00000000000E+00  0.15109738703E+04  0.15109738703E+04  0.25500000000E-02 0. -1.
         -2   -1    0    0    0  501 -0.00000000000E+00 -0.00000000000E+00 -0.83161142339E+03  0.83161142340E+03  0.25500000000E-02 0.  1.
    8880023    1    1    2    0    0 -0.40297579823E+03 -0.52771203267E+03 -0.43888739457E+03  0.10331030127E+04  0.65864270000E+03 0.  1.
    8880022    1    1    2    0    0  0.40297579823E+03  0.52771203267E+03  0.11182498415E+04  0.13094822811E+04  0.15294330000E+03 0. -1.
<mgrwt>
<rscale>  0 0.86404962E+03</rscale>
<asrwt>0</asrwt>
<pdfrwt beam="1">  1        2 0.23245752E+00 0.93524312E+03</pdfrwt>
<pdfrwt beam="2">  1       -2 0.12794022E+00 0.93524312E+03</pdfrwt>
<totfact> 0.56643415E+00</totfact>
</mgrwt>
</event>
<event>
 4    2  0.3388003E-007  0.6613933E+03  0.7818608E-02  0.1022772E+00
          2   -1    0    0  501    0  0.00000000000E+00  0.00000000000E+00  0.76150635364E+03  0.76150635364E+03  0.25500000000E-02 0. -1.
         -2   -1    0    0    0  501 -0.00000000000E+00 -0.00000000000E+00 -0.28914817424E+03  0.28914817426E+03  0.25500000000E-02 0.  1.
    8880023    1    1    2    0    0 -0.36309600662E+02 -0.48087863635E+02  0.13450408031E+03  0.67493139178E+03  0.65864270000E+03 0.  1.
    8880022    1    1    2    0    0  0.36309600662E+02  0.48087863635E+02  0.33785409909E+03  0.37572313612E+03  0.15294330000E+03 0.  0.
<mgrwt>
<rscale>  0 0.46699311E+03</rscale>
<asrwt>0</asrwt>
<pdfrwt beam="1">  1        2 0.11715482E+00 0.66139325E+03</pdfrwt>
<pdfrwt beam="2">  1       -2 0.44484335E-01 0.66139325E+03</pdfrwt>
<totfact> 0.17883861E+02</totfact>
</mgrwt>
</event>
<event>
 4    2  0.3388003E-007  0.9488400E+03  0.7818608E-02  0.9451785E-01
         -2   -1    0    0    0  501 -0.00000000000E+00  0.00000000000E+00  0.98971576764E+03  0.98971576764E+03  0.25500000000E-02 0.  1.
          2   -1    0    0  501    0  0.00000000000E+00 -0.00000000000E+00 -0.11345991948E+04  0.11345991948E+04  0.25500000000E-02 0. -1.
    8880023    1    1    2    0    0 -0.26658744978E+03  0.62882291134E+03  0.58370690507E+03  0.11140067682E+04  0.65864270000E+03 0.  0.
    8880022    1    1    2    0    0  0.26658744978E+03 -0.62882291134E+03 -0.72859033219E+03  0.10103081943E+04  0.15294330000E+03 0.  0.
<mgrwt>
<rscale>  0 0.87933794E+03</rscale>
<asrwt>0</asrwt>
<pdfrwt beam="1">  1        2 0.17455372E+00 0.94883999E+03</pdfrwt>
<pdfrwt beam="2">  1       -2 0.15226396E+00 0.94883999E+03</pdfrwt>
<totfact> 0.59520277E+00</totfact>
</mgrwt>
</event>
<event>
 4    2  0.3388003E-007  0.6859986E+03  0.7818608E-02  0.1006116E+00
         -2   -1    0    0    0  501 -0.00000000000E+00  0.00000000000E+00  0.11208373503E+03  0.11208373506E+03  0.25500000000E-02 0.  1.
          2   -1    0    0  501    0  0.00000000000E+00 -0.00000000000E+00 -0.23895445741E+04  0.23895445741E+04  0.25500000000E-02 0. -1.
    8880023    1    1    2    0    0  0.25708418097E+02  0.19006040971E+03 -0.10811175252E+04  0.12803941548E+04  0.65864270000E+03 0.  0.
    8880022    1    1    2    0    0 -0.25708418097E+02 -0.19006040971E+03 -0.11963433139E+04  0.12212341544E+04  0.15294330000E+03 0.  0.
<mgrwt>
<rscale>  0 0.53048111E+03</rscale>
<asrwt>0</asrwt>
<pdfrwt beam="1">  1        2 0.36762220E+00 0.68599861E+03</pdfrwt>
<pdfrwt beam="2">  1       -2 0.17243653E-01 0.68599861E+03</pdfrwt>
<totfact> 0.11605928E+02</totfact>
</mgrwt>
</event>
<event>
 4    2  0.3388003E-007  0.6896586E+03  0.7818608E-02  0.1004315E+00
          2   -1    0    0  501    0  0.00000000000E+00  0.00000000000E+00  0.16771549768E+04  0.16771549768E+04  0.25500000000E-02 0. -1.
         -2   -1    0    0    0  501 -0.00000000000E+00 -0.00000000000E+00 -0.24023654046E+03  0.24023654048E+03  0.25500000000E-02 0.  1.
    8880023    1    1    2    0    0  0.10728712837E+03 -0.17409253034E+03  0.29988853282E+03  0.75203861298E+03  0.65864270000E+03 0.  1.
    8880022    1    1    2    0    0 -0.10728712837E+03  0.17409253034E+03  0.11370299035E+04  0.11653529043E+04  0.15294330000E+03 0.  0.
<mgrwt>
<rscale>  0 0.53797885E+03</rscale>
<asrwt>0</asrwt>
<pdfrwt beam="1">  1        2 0.25802384E+00 0.68965857E+03</pdfrwt>
<pdfrwt beam="2">  1       -2 0.36959469E-01 0.68965857E+03</pdfrwt>
<totfact> 0.71695467E+01</totfact>
</mgrwt>
</event>
<event>
 4    2  0.3388003E-007  0.6602357E+03  0.7818608E-02  0.1023916E+00
          2   -1    0    0  501    0  0.00000000000E+00  0.00000000000E+00  0.24974420600E+04  0.24974420600E+04  0.25500000000E-02 0. -1.
         -2   -1    0    0    0  501 -0.00000000000E+00 -0.00000000000E+00 -0.76797373895E+02  0.76797373937E+02  0.25500000000E-02 0.  1.
    8880023    1    1    2    0    0 -0.45518273631E+02  0.53914485983E+01  0.14862210200E+04  0.16262730729E+04  0.65864270000E+03 0.  1.
    8880022    1    1    2    0    0  0.45518273631E+02 -0.53914485983E+01  0.93442366604E+03  0.94796636102E+03  0.15294330000E+03 0.  0.
<mgrwt>
<rscale>  0 0.46299478E+03</rscale>
<asrwt>0</asrwt>
<pdfrwt beam="1">  1        2 0.38422183E+00 0.66023571E+03</pdfrwt>
<pdfrwt beam="2">  1       -2 0.11814981E-01 0.66023571E+03</pdfrwt>
<totfact> 0.19113548E+02</totfact>
</mgrwt>
</event>
<event>
 4    2  0.3388003E-007  0.7223787E+03  0.7818608E-02  0.9914618E-01
          2   -1    0    0  501    0  0.00000000000E+00  0.00000000000E+00  0.14877694239E+04  0.14877694239E+04  0.25500000000E-02 0. -1.
         -2   -1    0    0    0  501 -0.00000000000E+00 -0.00000000000E+00 -0.19154378706E+03  0.19154378708E+03  0.25500000000E-02 0.  1.
    8880023    1    1    2    0    0 -0.85088072531E+02 -0.28421959789E+03  0.76702088855E+03  0.10536375134E+04  0.65864270000E+03 0. -1.
    8880022    1    1    2    0    0  0.85088072531E+02  0.28421959789E+03  0.52920474826E+03  0.62567569755E+03  0.15294330000E+03 0.  0.
<mgrwt>
<rscale>  0 0.59558039E+03</rscale>
<asrwt>0</asrwt>
<pdfrwt beam="1">  1        2 0.22888760E+00 0.72237869E+03</pdfrwt>
<pdfrwt beam="2">  1       -2 0.29468276E-01 0.72237869E+03</pdfrwt>
<totfact> 0.13925276E+02</totfact>
</mgrwt>
</event>
<event>
 4    2  0.3388003E-007  0.6984458E+03  0.7818608E-02  0.1000371E+00
         -2   -1    0    0    0  501 -0.00000000000E+00  0.00000000000E+00  0.61395420329E+03  0.61395420329E+03  0.25500000000E-02 0.  1.
          2   -1    0    0  501    0  0.00000000000E+00 -0.00000000000E+00 -0.12989820687E+04  0.12989820687E+04  0.25500000000E-02 0. -1.
    8880023    1    1    2    0    0 -0.18902219530E+03  0.13522905278E+03  0.39174051408E+03  0.80080404823E+03  0.65864270000E+03 0.  1.
    8880022    1    1    2    0    0  0.18902219530E+03 -0.13522905278E+03 -0.10767683795E+04  0.11121322238E+04  0.15294330000E+03 0.  0.
<mgrwt>
<rscale>  0 0.55487826E+03</rscale>
<asrwt>0</asrwt>
<pdfrwt beam="1">  1        2 0.19984339E+00 0.69844577E+03</pdfrwt>
<pdfrwt beam="2">  1       -2 0.94454493E-01 0.69844577E+03</pdfrwt>
<totfact> 0.16065466E+01</totfact>
</mgrwt>
</event>
<event>
 4    2  0.3388003E-007  0.1022938E+04  0.7818608E-02  0.9352144E-01
          2   -1    0    0  501    0  0.00000000000E+00  0.00000000000E+00  0.25057092657E+04  0.25057092657E+04  0.25500000000E-02 0. -1.
         -2   -1    0    0    0  501 -0.00000000000E+00 -0.00000000000E+00 -0.75367937688E+03  0.75367937688E+03  0.25500000000E-02 0.  1.
    8880023    1    1    2    0    0  0.61916363148E+03  0.47877852474E+03 -0.29324127655E+03  0.10641396200E+04  0.65864270000E+03 0.  0.
    8880022    1    1    2    0    0 -0.61916363148E+03 -0.47877852474E+03  0.20452711654E+04  0.21952490226E+04  0.15294330000E+03 0. -1.
<mgrwt>
<rscale>  0 0.96120905E+03</rscale>
<asrwt>0</asrwt>
<pdfrwt beam="1">  1        2 0.38549373E+00 0.10229383E+04</pdfrwt>
<pdfrwt beam="2">  1       -2 0.11595067E+00 0.10229383E+04</pdfrwt>
<totfact> 0.20047618E+00</totfact>
</mgrwt>
</event>
<event>
 4    2  0.3388003E-007  0.1049402E+04  0.7818608E-02  0.9319601E-01
         -2   -1    0    0    0  501 -0.00000000000E+00  0.00000000000E+00  0.85809165891E+03  0.85809165891E+03  0.25500000000E-02 0.  1.
          2   -1    0    0  501    0  0.00000000000E+00 -0.00000000000E+00 -0.10756794756E+04  0.10756794756E+04  0.25500000000E-02 0. -1.
    8880023    1    1    2    0    0 -0.22493310481E+03 -0.78539115480E+03  0.76329400751E+02  0.10521742020E+04  0.65864270000E+03 0.  1.
    8880022    1    1    2    0    0  0.22493310481E+03  0.78539115480E+03 -0.29391721742E+03  0.88159693250E+03  0.15294330000E+03 0. -1.
<mgrwt>
<rscale>  0 0.98998237E+03</rscale>
<asrwt>0</asrwt>
<pdfrwt beam="1">  1        2 0.16548915E+00 0.10494019E+04</pdfrwt>
<pdfrwt beam="2">  1       -2 0.13201410E+00 0.10494019E+04</pdfrwt>
<totfact> 0.93036718E+00</totfact>
</mgrwt>
</event>
<event>
 4    2  0.3388003E-007  0.7718465E+03  0.7818608E-02  0.9775350E-01
          2   -1    0    0  501    0  0.00000000000E+00  0.00000000000E+00  0.25480820255E+04  0.25480820255E+04  0.25500000000E-02 0. -1.
         -2   -1    0    0    0  501 -0.00000000000E+00 -0.00000000000E+00 -0.15300622224E+03  0.15300622226E+03  0.25500000000E-02 0.  1.
    8880023    1    1    2    0    0 -0.38097119820E+03  0.12960598912E+03  0.11616762900E+04  0.13947181705E+04  0.65864270000E+03 0.  0.
    8880022    1    1    2    0    0  0.38097119820E+03 -0.12960598912E+03  0.12333995133E+04  0.13063700772E+04  0.15294330000E+03 0.  0.
<mgrwt>
<rscale>  0 0.66702321E+03</rscale>
<asrwt>0</asrwt>
<pdfrwt beam="1">  1        2 0.39201257E+00 0.77184647E+03</pdfrwt>
<pdfrwt beam="2">  1       -2 0.23539422E-01 0.77184647E+03</pdfrwt>
<totfact> 0.54170768E+01</totfact>
</mgrwt>
</event>
<event>
 4    2  0.3388003E-007  0.7426031E+03  0.7818608E-02  0.9852428E-01
          2   -1    0    0  501    0  0.00000000000E+00  0.00000000000E+00  0.25948656840E+04  0.25948656840E+04  0.25500000000E-02 0. -1.
         -2   -1    0    0    0  501 -0.00000000000E+00 -0.00000000000E+00 -0.20088343928E+03  0.20088343929E+03  0.25500000000E-02 0.  1.
    8880023    1    1    2    0    0 -0.13961335880E+03 -0.31330064749E+03  0.57715949436E+03  0.94051713109E+03  0.65864270000E+03 0.  1.
    8880022    1    1    2    0    0  0.13961335880E+03  0.31330064749E+03  0.18168227503E+04  0.18552319922E+04  0.15294330000E+03 0.  0.
<mgrwt>
<rscale>  0 0.62623262E+03</rscale>
<asrwt>0</asrwt>
<pdfrwt beam="1">  1        2 0.39921010E+00 0.74260312E+03</pdfrwt>
<pdfrwt beam="2">  1       -2 0.30905145E-01 0.74260312E+03</pdfrwt>
<totfact> 0.31105146E+01</totfact>
</mgrwt>
</event>
<event>
 4    2  0.3388003E-007  0.7261370E+03  0.7818608E-02  0.9902342E-01
         -2   -1    0    0    0  501 -0.00000000000E+00  0.00000000000E+00  0.18267158084E+03  0.18267158086E+03  0.25500000000E-02 0.  1.
          2   -1    0    0  501    0  0.00000000000E+00 -0.00000000000E+00 -0.15610769251E+04  0.15610769251E+04  0.25500000000E-02 0. -1.
    8880023    1    1    2    0    0 -0.28464870120E+03  0.11153378956E+03 -0.93048458966E+03  0.11802865954E+04  0.65864270000E+03 0. -1.
    8880022    1    1    2    0    0  0.28464870120E+03 -0.11153378956E+03 -0.44792075461E+03  0.56346191063E+03  0.15294330000E+03 0.  0.
<mgrwt>
<rscale>  0 0.60147895E+03</rscale>
<asrwt>0</asrwt>
<pdfrwt beam="1">  1        2 0.24016567E+00 0.72613695E+03</pdfrwt>
<pdfrwt beam="2">  1       -2 0.28103321E-01 0.72613695E+03</pdfrwt>
<totfact> 0.13834304E+02</totfact>
</mgrwt>
</event>
<event>
 4    2  0.3388003E-007  0.9479930E+03  0.7818608E-02  0.9453008E-01
         -2   -1    0    0    0  501 -0.00000000000E+00  0.00000000000E+00  0.55058113101E+03  0.55058113101E+03  0.25500000000E-02 0.  1.
          2   -1    0    0  501    0  0.00000000000E+00 -0.00000000000E+00 -0.20679711944E+04  0.20679711944E+04  0.25500000000E-02 0. -1.
    8880023    1    1    2    0    0 -0.48128309652E+03  0.48295669826E+03  0.77396073177E-02  0.94799303674E+03  0.65864270000E+03 0.  1.
    8880022    1    1    2    0    0  0.48128309652E+03 -0.48295669826E+03 -0.15173978030E+04  0.16705592886E+04  0.15294330000E+03 0.  0.
<mgrwt>
<rscale>  0 0.87838845E+03</rscale>
<asrwt>0</asrwt>
<pdfrwt beam="1">  1        2 0.31814941E+00 0.94799304E+03</pdfrwt>
<pdfrwt beam="2">  1       -2 0.84704791E-01 0.94799304E+03</pdfrwt>
<totfact> 0.75035009E+00</totfact>
</mgrwt>
</event>
<event>
 4    2  0.3388003E-007  0.6911210E+03  0.7818608E-02  0.1003624E+00
         -2   -1    0    0    0  501 -0.00000000000E+00  0.00000000000E+00  0.10327099325E+04  0.10327099325E+04  0.25500000000E-02 0.  1.
          2   -1    0    0  501    0  0.00000000000E+00 -0.00000000000E+00 -0.37580774111E+03  0.37580774112E+03  0.25500000000E-02 0. -1.
    8880023    1    1    2    0    0 -0.94724549135E+02 -0.18672251523E+03  0.84246066991E+03  0.10896734486E+04  0.65864270000E+03 0.  1.
    8880022    1    1    2    0    0  0.94724549135E+02  0.18672251523E+03 -0.18555847850E+03  0.31884422507E+03  0.15294330000E+03 0. -1.
<mgrwt>
<rscale>  0 0.54089219E+03</rscale>
<asrwt>0</asrwt>
<pdfrwt beam="1">  1        2 0.57816576E-01 0.69112101E+03</pdfrwt>
<pdfrwt beam="2">  1       -2 0.15887845E+00 0.69112101E+03</pdfrwt>
<totfact> 0.22306865E+01</totfact>
</mgrwt>
</event>
<event>
 4    2  0.3388003E-007  0.7584646E+03  0.7818608E-02  0.9809099E-01
         -2   -1    0    0    0  501 -0.00000000000E+00  0.00000000000E+00  0.16952259429E+03  0.16952259431E+03  0.25500000000E-02 0.  1.
          2   -1    0    0  501    0  0.00000000000E+00 -0.00000000000E+00 -0.24532536056E+04  0.24532536056E+04  0.25500000000E-02 0. -1.
    8880023    1    1    2    0    0  0.37239000154E+03 -0.52764598064E+02 -0.88121477802E+03  0.11626728290E+04  0.65864270000E+03 0.  0.
    8880022    1    1    2    0    0 -0.37239000154E+03  0.52764598064E+02 -0.14025162333E+04  0.14601033709E+04  0.15294330000E+03 0.  0.
<mgrwt>
<rscale>  0 0.64876535E+03</rscale>
<asrwt>0</asrwt>
<pdfrwt beam="1">  1        2 0.37742361E+00 0.75846465E+03</pdfrwt>
<pdfrwt beam="2">  1       -2 0.26080401E-01 0.75846465E+03</pdfrwt>
<totfact> 0.51058407E+01</totfact>
</mgrwt>
</event>
<event>
 4    2  0.3388003E-007  0.1154722E+04  0.7818608E-02  0.9202444E-01
          2   -1    0    0  501    0  0.00000000000E+00  0.00000000000E+00  0.23051507944E+04  0.23051507944E+04  0.25500000000E-02 0. -1.
         -2   -1    0    0    0  501 -0.00000000000E+00 -0.00000000000E+00 -0.81965613762E+03  0.81965613763E+03  0.25500000000E-02 0.  1.
    8880023    1    1    2    0    0 -0.65123752873E+03  0.68953792266E+03 -0.21227076477E+03  0.11740706748E+04  0.65864270000E+03 0.  0.
    8880022    1    1    2    0    0  0.65123752873E+03 -0.68953792266E+03  0.16977654215E+04  0.19507362572E+04  0.15294330000E+03 0.  0.
<mgrwt>
<rscale>  0 0.11028240E+04</rscale>
<asrwt>0</asrwt>
<pdfrwt beam="1">  1        2 0.35463858E+00 0.11547221E+04</pdfrwt>
<pdfrwt beam="2">  1       -2 0.12610095E+00 0.11547221E+04</pdfrwt>
<totfact> 0.20767247E+00</totfact>
</mgrwt>
</event>
<event>
 4    2  0.3388003E-007  0.8390328E+03  0.7818608E-02  0.9632007E-01
         -2   -1    0    0    0  501 -0.00000000000E+00  0.00000000000E+00  0.97224231322E+03  0.97224231322E+03  0.25500000000E-02 0.  1.
          2   -1    0    0  501    0  0.00000000000E+00 -0.00000000000E+00 -0.14176004135E+04  0.14176004135E+04  0.25500000000E-02 0. -1.
    8880023    1    1    2    0    0  0.29393553670E+03  0.42868143721E+03  0.71940879706E+03  0.11052262655E+04  0.65864270000E+03 0.  0.
    8880022    1    1    2    0    0 -0.29393553670E+03 -0.42868143721E+03 -0.11647668973E+04  0.12846164612E+04  0.15294330000E+03 0.  0.
<mgrwt>
<rscale>  0 0.75213512E+03</rscale>
<asrwt>0</asrwt>
<pdfrwt beam="1">  1        2 0.21809237E+00 0.83903282E+03</pdfrwt>
<pdfrwt beam="2">  1       -2 0.14957574E+00 0.83903282E+03</pdfrwt>
<totfact> 0.43195982E+00</totfact>
</mgrwt>
</event>
<event>
 4    2  0.3388003E-007  0.8429848E+03  0.7818608E-02  0.9624578E-01
          2   -1    0    0  501    0  0.00000000000E+00  0.00000000000E+00  0.50515979526E+03  0.50515979527E+03  0.25500000000E-02 0. -1.
         -2   -1    0    0    0  501 -0.00000000000E+00 -0.00000000000E+00 -0.17966007311E+04  0.17966007311E+04  0.25500000000E-02 0.  1.
    8880023    1    1    2    0    0  0.35467255604E+03 -0.38861372192E+03 -0.14957955605E+04  0.17169821816E+04  0.65864270000E+03 0.  0.
    8880022    1    1    2    0    0 -0.35467255604E+03  0.38861372192E+03  0.20435462465E+03  0.58477834477E+03  0.15294330000E+03 0.  0.
<mgrwt>
<rscale>  0 0.75690617E+03</rscale>
<asrwt>0</asrwt>
<pdfrwt beam="1">  1        2 0.77716892E-01 0.84298485E+03</pdfrwt>
<pdfrwt beam="2">  1       -2 0.27640011E+00 0.84298485E+03</pdfrwt>
<totfact> 0.27555992E+00</totfact>
</mgrwt>
</event>
<event>
 4    2  0.3388003E-007  0.1231206E+04  0.7818608E-02  0.9127369E-01
          2   -1    0    0  501    0  0.00000000000E+00  0.00000000000E+00  0.33907086785E+04  0.33907086785E+04  0.25500000000E-02 0. -1.
         -2   -1    0    0    0  501 -0.00000000000E+00 -0.00000000000E+00 -0.57830570176E+03  0.57830570177E+03  0.25500000000E-02 0.  1.
    8880023    1    1    2    0    0 -0.94978174590E+03  0.42423190137E+03  0.33231553023E+03  0.12752654190E+04  0.65864270000E+03 0.  0.
    8880022    1    1    2    0    0  0.94978174590E+03 -0.42423190137E+03  0.24800874465E+04  0.26937489613E+04  0.15294330000E+03 0.  0.
<mgrwt>
<rscale>  0 0.11835604E+04</rscale>
<asrwt>0</asrwt>
<pdfrwt beam="1">  1        2 0.52164750E+00 0.12312060E+04</pdfrwt>
<pdfrwt beam="2">  1       -2 0.88970106E-01 0.12312060E+04</pdfrwt>
<totfact> 0.10449793E+00</totfact>
</mgrwt>
</event>
<event>
 4    2  0.3388003E-007  0.8747515E+03  0.7818608E-02  0.9567843E-01
         -2   -1    0    0    0  501 -0.00000000000E+00  0.00000000000E+00  0.36850181383E+03  0.36850181383E+03  0.25500000000E-02 0.  1.
          2   -1    0    0  501    0  0.00000000000E+00 -0.00000000000E+00 -0.34656659481E+04  0.34656659481E+04  0.25500000000E-02 0. -1.
    8880023    1    1    2    0    0 -0.33477778168E+03 -0.46829890205E+03 -0.22820096686E+03  0.90402760594E+03  0.65864270000E+03 0.  0.
    8880022    1    1    2    0    0  0.33477778168E+03  0.46829890205E+03 -0.28689631674E+04  0.29301401560E+04  0.15294330000E+03 0.  0.
<mgrwt>
<rscale>  0 0.79461571E+03</rscale>
<asrwt>0</asrwt>
<pdfrwt beam="1">  1        2 0.53317935E+00 0.87475153E+03</pdfrwt>
<pdfrwt beam="2">  1       -2 0.56692589E-01 0.87475153E+03</pdfrwt>
<totfact> 0.26531909E+00</totfact>
</mgrwt>
</event>
<event>
 4    2  0.3388003E-007  0.1002291E+04  0.7818608E-02  0.9378566E-01
          2   -1    0    0  501    0  0.00000000000E+00  0.00000000000E+00  0.23754402753E+04  0.23754402753E+04  0.25500000000E-02 0. -1.
         -2   -1    0    0    0  501 -0.00000000000E+00 -0.00000000000E+00 -0.38419423706E+03  0.38419423707E+03  0.25500000000E-02 0.  1.
    8880023    1    1    2    0    0 -0.27111882417E+03 -0.70517514016E+03  0.59733533373E+03  0.11667892279E+04  0.65864270000E+03 0.  0.
    8880022    1    1    2    0    0  0.27111882417E+03  0.70517514016E+03  0.13939107045E+04  0.15928452844E+04  0.15294330000E+03 0.  0.
<mgrwt>
<rscale>  0 0.93860785E+03</rscale>
<asrwt>0</asrwt>
<pdfrwt beam="1">  1        2 0.36545234E+00 0.10022912E+04</pdfrwt>
<pdfrwt beam="2">  1       -2 0.59106807E-01 0.10022912E+04</pdfrwt>
<totfact> 0.11079245E+01</totfact>
</mgrwt>
</event>
<event>
 4    2  0.3388003E-007  0.6748772E+03  0.7818608E-02  0.1012384E+00
         -2   -1    0    0    0  501 -0.00000000000E+00  0.00000000000E+00  0.21572844138E+03  0.21572844140E+03  0.25500000000E-02 0.  1.
          2   -1    0    0  501    0  0.00000000000E+00 -0.00000000000E+00 -0.95457048821E+03  0.95457048821E+03  0.25500000000E-02 0. -1.
    8880023    1    1    2    0    0  0.49870224986E+02 -0.13842706322E+03 -0.44714521172E+03  0.80956663580E+03  0.65864270000E+03 0.  1.
    8880022    1    1    2    0    0 -0.49870224986E+02  0.13842706322E+03 -0.29169683511E+03  0.36073229381E+03  0.15294330000E+03 0.  0.
<mgrwt>
<rscale>  0 0.50538143E+03</rscale>
<asrwt>0</asrwt>
<pdfrwt beam="1">  1        2 0.14685700E+00 0.67487725E+03</pdfrwt>
<pdfrwt beam="2">  1       -2 0.33188992E-01 0.67487725E+03</pdfrwt>
<totfact> 0.23163161E+02</totfact>
</mgrwt>
</event>
<event>
 4    2  0.3388003E-007  0.7082261E+03  0.7818608E-02  0.9964648E-01
         -2   -1    0    0    0  501 -0.00000000000E+00  0.00000000000E+00  0.80119954540E+03  0.80119954540E+03  0.25500000000E-02 0.  1.
          2   -1    0    0  501    0  0.00000000000E+00 -0.00000000000E+00 -0.60256802202E+03  0.60256802202E+03  0.25500000000E-02 0. -1.
    8880023    1    1    2    0    0 -0.25941250593E+03  0.21888191524E+02  0.58136024737E+03  0.91627718767E+03  0.65864270000E+03 0.  1.
    8880022    1    1    2    0    0  0.25941250593E+03 -0.21888191524E+02 -0.38272872400E+03  0.48749037975E+03  0.15294330000E+03 0.  0.
<mgrwt>
<rscale>  0 0.57227898E+03</rscale>
<asrwt>0</asrwt>
<pdfrwt beam="1">  1        2 0.92702773E-01 0.70822606E+03</pdfrwt>
<pdfrwt beam="2">  1       -2 0.12326147E+00 0.70822606E+03</pdfrwt>
<totfact> 0.24914728E+01</totfact>
</mgrwt>
</event>
<event>
 4    2  0.3388003E-007  0.7658893E+03  0.7818608E-02  0.9790093E-01
         -2   -1    0    0    0  501 -0.00000000000E+00  0.00000000000E+00  0.14897439334E+04  0.14897439334E+04  0.25500000000E-02 0.  1.
          2   -1    0    0  501    0  0.00000000000E+00 -0.00000000000E+00 -0.74799757416E+03  0.74799757416E+03  0.25500000000E-02 0. -1.
    8880023    1    1    2    0    0  0.62687033834E+02 -0.38580637115E+03  0.13182764739E+04  0.15246111924E+04  0.65864270000E+03 0.  1.
    8880022    1    1    2    0    0 -0.62687033834E+02  0.38580637115E+03 -0.57653011465E+03  0.71313031512E+03  0.15294330000E+03 0.  0.
<mgrwt>
<rscale>  0 0.65896954E+03</rscale>
<asrwt>0</asrwt>
<pdfrwt beam="1">  1        2 0.11507655E+00 0.76588930E+03</pdfrwt>
<pdfrwt beam="2">  1       -2 0.22919137E+00 0.76588930E+03</pdfrwt>
<totfact> 0.33345301E+00</totfact>
</mgrwt>
</event>
<event>
 4    2  0.4925830E-007  0.6806163E+03  0.7818608E-02  0.1008977E+00
          2   -1    0    0  501    0  0.00000000000E+00  0.00000000000E+00  0.28193015410E+04  0.28193015410E+04  0.25500000000E-02 0. -1.
         -2   -1    0    0    0  501 -0.00000000000E+00 -0.00000000000E+00 -0.60672574649E+03  0.60672574649E+03  0.25500000000E-02 0.  1.
    8880023    1    1    2    0    0 -0.13793250177E+03  0.10199483957E+03 -0.40922766721E+03  0.79416988876E+03  0.65864270000E+03 0.  1.
    8880022    1    1    2    0    0  0.13793250177E+03 -0.10199483957E+03  0.26218034617E+04  0.26318573987E+04  0.15294330000E+03 0.  0.
<mgrwt>
<rscale>  0 0.51883173E+03</rscale>
<asrwt>0</asrwt>
<pdfrwt beam="1">  1        2 0.43373870E+00 0.68061629E+03</pdfrwt>
<pdfrwt beam="2">  1       -2 0.93342423E-01 0.68061629E+03</pdfrwt>
<totfact> 0.23538814E+00</totfact>
</mgrwt>
</event>
<event>
 4    2  0.3388003E-007  0.7103853E+03  0.7818608E-02  0.9956573E-01
          2   -1    0    0  501    0  0.00000000000E+00  0.00000000000E+00  0.11398363975E+04  0.11398363975E+04  0.25500000000E-02 0. -1.
         -2   -1    0    0    0  501 -0.00000000000E+00 -0.00000000000E+00 -0.26392859077E+03  0.26392859078E+03  0.25500000000E-02 0.  1.
    8880023    1    1    2    0    0 -0.26526490382E+03 -0.21715474998E+02  0.83144594911E+03  0.10935948078E+04  0.65864270000E+03 0.  0.
    8880022    1    1    2    0    0  0.26526490382E+03  0.21715474998E+02  0.44461857585E+02  0.31017018046E+03  0.15294330000E+03 0.  0.
<mgrwt>
<rscale>  0 0.57596137E+03</rscale>
<asrwt>0</asrwt>
<pdfrwt beam="1">  1        2 0.17535944E+00 0.71038527E+03</pdfrwt>
<pdfrwt beam="2">  1       -2 0.40604399E-01 0.71038527E+03</pdfrwt>
<totfact> 0.12024854E+02</totfact>
</mgrwt>
</event>
<event>
 4    2  0.3388003E-007  0.9469251E+03  0.7818608E-02  0.9454552E-01
          2   -1    0    0  501    0  0.00000000000E+00  0.00000000000E+00  0.17052946056E+04  0.17052946056E+04  0.25500000000E-02 0. -1.
         -2   -1    0    0    0  501 -0.00000000000E+00 -0.00000000000E+00 -0.72128936188E+03  0.72128936188E+03  0.25500000000E-02 0.  1.
    8880023    1    1    2    0    0 -0.36755679005E+03  0.57250231975E+03 -0.27614286354E+03  0.98636807905E+03  0.65864270000E+03 0.  1.
    8880022    1    1    2    0    0  0.36755679005E+03 -0.57250231975E+03  0.12601481072E+04  0.14402158884E+04  0.15294330000E+03 0.  0.
<mgrwt>
<rscale>  0 0.87719067E+03</rscale>
<asrwt>0</asrwt>
<pdfrwt beam="1">  1        2 0.26235301E+00 0.94692508E+03</pdfrwt>
<pdfrwt beam="2">  1       -2 0.11096759E+00 0.94692508E+03</pdfrwt>
<totfact> 0.62805490E+00</totfact>
</mgrwt>
</event>
<event>
 4    2  0.3388003E-007  0.6630136E+03  0.7818608E-02  0.1021261E+00
         -2   -1    0    0    0  501 -0.00000000000E+00  0.00000000000E+00  0.57138929460E+03  0.57138929461E+03  0.25500000000E-02 0.  1.
          2   -1    0    0  501    0  0.00000000000E+00 -0.00000000000E+00 -0.10704188415E+04  0.10704188415E+04  0.25500000000E-02 0. -1.
    8880023    1    1    2    0    0 -0.73193679987E+02  0.20480549944E+02  0.36787929048E+03  0.75823620749E+03  0.65864270000E+03 0.  1.
    8880022    1    1    2    0    0  0.73193679987E+02 -0.20480549944E+02 -0.86690883740E+03  0.88357192865E+03  0.15294330000E+03 0.  0.
<mgrwt>
<rscale>  0 0.47234130E+03</rscale>
<asrwt>0</asrwt>
<pdfrwt beam="1">  1        2 0.16467982E+00 0.66301355E+03</pdfrwt>
<pdfrwt beam="2">  1       -2 0.87906045E-01 0.66301355E+03</pdfrwt>
<totfact> 0.26037178E+01</totfact>
</mgrwt>
</event>
<event>
 4    2  0.3388003E-007  0.6858311E+03  0.7818608E-02  0.1006201E+00
         -2   -1    0    0    0  501 -0.00000000000E+00  0.00000000000E+00  0.52956283951E+03  0.52956283952E+03  0.25500000000E-02 0.  1.
          2   -1    0    0  501    0  0.00000000000E+00 -0.00000000000E+00 -0.45505808062E+03  0.45505808063E+03  0.25500000000E-02 0. -1.
    8880023    1    1    2    0    0  0.12802348822E+02 -0.19076211521E+03  0.19320624808E+03  0.71252575062E+03  0.65864270000E+03 0. -1.
    8880022    1    1    2    0    0 -0.12802348822E+02  0.19076211521E+03 -0.11870148919E+03  0.27209516953E+03  0.15294330000E+03 0.  0.
<mgrwt>
<rscale>  0 0.53013035E+03</rscale>
<asrwt>0</asrwt>
<pdfrwt beam="1">  1        2 0.70008936E-01 0.68583110E+03</pdfrwt>
<pdfrwt beam="2">  1       -2 0.81471206E-01 0.68583110E+03</pdfrwt>
<totfact> 0.92408423E+01</totfact>
</mgrwt>
</event>
<event>
 4    2  0.3388003E-007  0.9126073E+03  0.7818608E-02  0.9506088E-01
         -2   -1    0    0    0  501 -0.00000000000E+00  0.00000000000E+00  0.11925583008E+04  0.11925583008E+04  0.25500000000E-02 0.  1.
          2   -1    0    0  501    0  0.00000000000E+00 -0.00000000000E+00 -0.93273692659E+03  0.93273692659E+03  0.25500000000E-02 0. -1.
    8880023    1    1    2    0    0  0.57080404852E+03 -0.27060056570E+03  0.85017516709E+03  0.12472569699E+04  0.65864270000E+03 0.  1.
    8880022    1    1    2    0    0 -0.57080404852E+03  0.27060056570E+03 -0.59035379283E+03  0.87803825753E+03  0.15294330000E+03 0.  0.
<mgrwt>
<rscale>  0 0.83836428E+03</rscale>
<asrwt>0</asrwt>
<pdfrwt beam="1">  1        2 0.14349799E+00 0.91260733E+03</pdfrwt>
<pdfrwt beam="2">  1       -2 0.18347051E+00 0.91260733E+03</pdfrwt>
<totfact> 0.47879275E+00</totfact>
</mgrwt>
</event>
<event>
 4    2  0.3388003E-007  0.7397639E+03  0.7818608E-02  0.9860635E-01
         -2   -1    0    0    0  501 -0.00000000000E+00  0.00000000000E+00  0.16719983136E+04  0.16719983136E+04  0.25500000000E-02 0.  1.
          2   -1    0    0  501    0  0.00000000000E+00 -0.00000000000E+00 -0.33165020341E+03  0.33165020342E+03  0.25500000000E-02 0. -1.
    8880023    1    1    2    0    0  0.21357490458E+03  0.26043469786E+03  0.14414314658E+04  0.16201775670E+04  0.65864270000E+03 0.  0.
    8880022    1    1    2    0    0 -0.21357490458E+03 -0.26043469786E+03 -0.10108335562E+03  0.38347095002E+03  0.15294330000E+03 0.  0.
<mgrwt>
<rscale>  0 0.62207590E+03</rscale>
<asrwt>0</asrwt>
<pdfrwt beam="1">  1        2 0.51023107E-01 0.73976393E+03</pdfrwt>
<pdfrwt beam="2">  1       -2 0.25723051E+00 0.73976393E+03</pdfrwt>
<totfact> 0.58686753E+00</totfact>
</mgrwt>
</event>
<event>
 4    2  0.3388003E-007  0.6810410E+03  0.7818608E-02  0.1008741E+00
         -2   -1    0    0    0  501 -0.00000000000E+00  0.00000000000E+00  0.21122634273E+03  0.21122634275E+03  0.25500000000E-02 0.  1.
          2   -1    0    0  501    0  0.00000000000E+00 -0.00000000000E+00 -0.98946602631E+03  0.98946602631E+03  0.25500000000E-02 0. -1.
    8880023    1    1    2    0    0  0.99533024836E+02 -0.14177370067E+03 -0.61647721580E+03  0.91861905548E+03  0.65864270000E+03 0.  0.
    8880022    1    1    2    0    0 -0.99533024836E+02  0.14177370067E+03 -0.16176246777E+03  0.28207331357E+03  0.15294330000E+03 0. -1.
<mgrwt>
<rscale>  0 0.51978150E+03</rscale>
<asrwt>0</asrwt>
<pdfrwt beam="1">  1        2 0.15222554E+00 0.68104098E+03</pdfrwt>
<pdfrwt beam="2">  1       -2 0.32496361E-01 0.68104098E+03</pdfrwt>
<totfact> 0.22875180E+02</totfact>
</mgrwt>
</event>
<event>
 4    2  0.3388003E-007  0.7031904E+03  0.7818608E-02  0.9984215E-01
         -2   -1    0    0    0  501 -0.00000000000E+00  0.00000000000E+00  0.57652915401E+03  0.57652915401E+03  0.25500000000E-02 0.  1.
          2   -1    0    0  501    0  0.00000000000E+00 -0.00000000000E+00 -0.75834134535E+03  0.75834134535E+03  0.25500000000E-02 0. -1.
    8880023    1    1    2    0    0  0.12137232180E+00  0.24630577115E+03  0.30641166982E+03  0.76704945427E+03  0.65864270000E+03 0.  1.
    8880022    1    1    2    0    0 -0.12137232180E+00 -0.24630577115E+03 -0.48822386116E+03  0.56782104509E+03  0.15294330000E+03 0.  0.
<mgrwt>
<rscale>  0 0.56347833E+03</rscale>
<asrwt>0</asrwt>
<pdfrwt beam="1">  1        2 0.11666790E+00 0.70319041E+03</pdfrwt>
<pdfrwt beam="2">  1       -2 0.88696793E-01 0.70319041E+03</pdfrwt>
<totfact> 0.41107916E+01</totfact>
</mgrwt>
</event>
<event>
 4    2  0.3388003E-007  0.7000850E+03  0.7818608E-02  0.9996849E-01
         -2   -1    0    0    0  501 -0.00000000000E+00  0.00000000000E+00  0.96265833473E+02  0.96265833507E+02  0.25500000000E-02 0.  1.
          2   -1    0    0  501    0  0.00000000000E+00 -0.00000000000E+00 -0.31786035517E+04  0.31786035517E+04  0.25500000000E-02 0. -1.
    8880023    1    1    2    0    0 -0.23687739181E+03 -0.14070223870E+02 -0.27552258159E+04  0.28427782842E+04  0.65864270000E+03 0. -1.
    8880022    1    1    2    0    0  0.23687739181E+03  0.14070223870E+02 -0.32711190229E+03  0.43209110102E+03  0.15294330000E+03 0.  0.
<mgrwt>
<rscale>  0 0.55788637E+03</rscale>
<asrwt>0</asrwt>
<pdfrwt beam="1">  1        2 0.48901585E+00 0.70008505E+03</pdfrwt>
<pdfrwt beam="2">  1       -2 0.14810131E-01 0.70008505E+03</pdfrwt>
<totfact> 0.51304546E+01</totfact>
</mgrwt>
</event>
<event>
 4    2  0.3388003E-007  0.7105957E+03  0.7818608E-02  0.9955796E-01
         -2   -1    0    0    0  501 -0.00000000000E+00  0.00000000000E+00  0.57431357404E+03  0.57431357404E+03  0.25500000000E-02 0.  1.
          2   -1    0    0  501    0  0.00000000000E+00 -0.00000000000E+00 -0.21052903285E+04  0.21052903285E+04  0.25500000000E-02 0. -1.
    8880023    1    1    2    0    0 -0.68353645819E+02  0.25780568750E+03  0.33702593660E+03  0.78646848736E+03  0.65864270000E+03 0.  0.
    8880022    1    1    2    0    0  0.68353645819E+02 -0.25780568750E+03 -0.18680026911E+04  0.18931354152E+04  0.15294330000E+03 0. -1.
<mgrwt>
<rscale>  0 0.57631745E+03</rscale>
<asrwt>0</asrwt>
<pdfrwt beam="1">  1        2 0.32389082E+00 0.71059567E+03</pdfrwt>
<pdfrwt beam="2">  1       -2 0.88355935E-01 0.71059567E+03</pdfrwt>
<totfact> 0.67267526E+00</totfact>
</mgrwt>
</event>
<event>
 4    2  0.3388003E-007  0.6919389E+03  0.7818608E-02  0.1003244E+00
          2   -1    0    0  501    0  0.00000000000E+00  0.00000000000E+00  0.11656235213E+04  0.11656235213E+04  0.25500000000E-02 0. -1.
         -2   -1    0    0    0  501 -0.00000000000E+00 -0.00000000000E+00 -0.65319321053E+03  0.65319321053E+03  0.25500000000E-02 0.  1.
    8880023    1    1    2    0    0  0.13727460487E+03 -0.16163211572E+03 -0.44742038064E+03  0.82399299830E+03  0.65864270000E+03 0.  1.
    8880022    1    1    2    0    0 -0.13727460487E+03  0.16163211572E+03  0.95985069139E+03  0.99482373350E+03  0.15294330000E+03 0.  0.
<mgrwt>
<rscale>  0 0.54250257E+03</rscale>
<asrwt>0</asrwt>
<pdfrwt beam="1">  1        2 0.17932669E+00 0.69193892E+03</pdfrwt>
<pdfrwt beam="2">  1       -2 0.10049126E+00 0.69193892E+03</pdfrwt>
<totfact> 0.16637855E+01</totfact>
</mgrwt>
</event>
<event>
 4    2  0.3388003E-007  0.8497908E+03  0.7818608E-02  0.9611988E-01
         -2   -1    0    0    0  501 -0.00000000000E+00  0.00000000000E+00  0.60994524108E+03  0.60994524109E+03  0.25500000000E-02 0.  1.
          2   -1    0    0  501    0  0.00000000000E+00 -0.00000000000E+00 -0.26886065499E+04  0.26886065499E+04  0.25500000000E-02 0. -1.
    8880023    1    1    2    0    0 -0.45372056384E+03  0.28717918839E+03  0.26433297060E+03  0.88995301106E+03  0.65864270000E+03 0.  0.
    8880022    1    1    2    0    0  0.45372056384E+03 -0.28717918839E+03 -0.23429942795E+04  0.24085987800E+04  0.15294330000E+03 0. -1.
<mgrwt>
<rscale>  0 0.76507786E+03</rscale>
<asrwt>0</asrwt>
<pdfrwt beam="1">  1        2 0.41363177E+00 0.84979082E+03</pdfrwt>
<pdfrwt beam="2">  1       -2 0.93837731E-01 0.84979082E+03</pdfrwt>
<totfact> 0.26834512E+00</totfact>
</mgrwt>
</event>
<event>
 4    2  0.3388003E-007  0.9334993E+03  0.7818608E-02  0.9474263E-01
         -2   -1    0    0    0  501 -0.00000000000E+00  0.00000000000E+00  0.11696358597E+04  0.11696358597E+04  0.25500000000E-02 0.  1.
          2   -1    0    0  501    0  0.00000000000E+00 -0.00000000000E+00 -0.13175604762E+04  0.13175604762E+04  0.25500000000E-02 0. -1.
    8880023    1    1    2    0    0 -0.13943265202E+03  0.64666013495E+03  0.86175956941E+03  0.12704528942E+04  0.65864270000E+03 0.  0.
    8880022    1    1    2    0    0  0.13943265202E+03 -0.64666013495E+03 -0.10096841860E+04  0.12167434417E+04  0.15294330000E+03 0.  0.
<mgrwt>
<rscale>  0 0.86208167E+03</rscale>
<asrwt>0</asrwt>
<pdfrwt beam="1">  1        2 0.20270161E+00 0.93349933E+03</pdfrwt>
<pdfrwt beam="2">  1       -2 0.17994398E+00 0.93349933E+03</pdfrwt>
<totfact> 0.29300558E+00</totfact>
</mgrwt>
</event>
<event>
 4    2  0.3388003E-007  0.7129541E+03  0.7818608E-02  0.9947191E-01
          2   -1    0    0  501    0  0.00000000000E+00  0.00000000000E+00  0.36797504366E+04  0.36797504366E+04  0.25500000000E-02 0. -1.
         -2   -1    0    0    0  501 -0.00000000000E+00 -0.00000000000E+00 -0.20473976691E+03  0.20473976692E+03  0.25500000000E-02 0.  1.
    8880023    1    1    2    0    0 -0.20731425795E+03 -0.17752204432E+03  0.44945426888E+03  0.84280046503E+03  0.65864270000E+03 0.  1.
    8880022    1    1    2    0    0  0.20731425795E+03  0.17752204432E+03  0.30255564008E+04  0.30416897385E+04  0.15294330000E+03 0.  0.
<mgrwt>
<rscale>  0 0.58027737E+03</rscale>
<asrwt>0</asrwt>
<pdfrwt beam="1">  1        2 0.56611543E+00 0.71295405E+03</pdfrwt>
<pdfrwt beam="2">  1       -2 0.31498427E-01 0.71295405E+03</pdfrwt>
<totfact> 0.62062540E+00</totfact>
</mgrwt>
</event>
<event>
 4    2  0.3388003E-007  0.7180873E+03  0.7818608E-02  0.9929112E-01
         -2   -1    0    0    0  501 -0.00000000000E+00  0.00000000000E+00  0.43076095889E+03  0.43076095890E+03  0.25500000000E-02 0.  1.
          2   -1    0    0  501    0  0.00000000000E+00 -0.00000000000E+00 -0.31064480814E+04  0.31064480814E+04  0.25500000000E-02 0. -1.
    8880023    1    1    2    0    0 -0.12238982371E+03  0.25857291180E+03  0.11542867004E+03  0.72730544051E+03  0.65864270000E+03 0.  1.
    8880022    1    1    2    0    0  0.12238982371E+03 -0.25857291180E+03 -0.27911157925E+04  0.28099035998E+04  0.15294330000E+03 0.  0.
<mgrwt>
<rscale>  0 0.58870923E+03</rscale>
<asrwt>0</asrwt>
<pdfrwt beam="1">  1        2 0.47791508E+00 0.71808734E+03</pdfrwt>
<pdfrwt beam="2">  1       -2 0.66270919E-01 0.71808734E+03</pdfrwt>
<totfact> 0.33640601E+00</totfact>
</mgrwt>
</event>
<event>
 4    2  0.3388003E-007  0.9594893E+03  0.7818608E-02  0.9436590E-01
          2   -1    0    0  501    0  0.00000000000E+00  0.00000000000E+00  0.30708334536E+04  0.30708334536E+04  0.25500000000E-02 0. -1.
         -2   -1    0    0    0  501 -0.00000000000E+00 -0.00000000000E+00 -0.48005813212E+03  0.48005813212E+03  0.25500000000E-02 0.  1.
    8880023    1    1    2    0    0 -0.40931977108E+03  0.56503706755E+03  0.10581014663E+03  0.96530593912E+03  0.65864270000E+03 0.  0.
    8880022    1    1    2    0    0  0.40931977108E+03 -0.56503706755E+03  0.24849651749E+04  0.25855856466E+04  0.15294330000E+03 0.  0.
<mgrwt>
<rscale>  0 0.89124642E+03</rscale>
<asrwt>0</asrwt>
<pdfrwt beam="1">  1        2 0.47243590E+00 0.95948933E+03</pdfrwt>
<pdfrwt beam="2">  1       -2 0.73855100E-01 0.95948933E+03</pdfrwt>
<totfact> 0.26730426E+00</totfact>
</mgrwt>
</event>
<event>
 4    2  0.3388003E-007  0.7360359E+03  0.7818608E-02  0.9871648E-01
          2   -1    0    0  501    0  0.00000000000E+00  0.00000000000E+00  0.38738140638E+03  0.38738140639E+03  0.25500000000E-02 0. -1.
         -2   -1    0    0    0  501 -0.00000000000E+00 -0.00000000000E+00 -0.11330871747E+04  0.11330871747E+04  0.25500000000E-02 0.  1.
    8880023    1    1    2    0    0 -0.32407871126E+03 -0.53959565670E+02 -0.52076910818E+02  0.73787590876E+03  0.65864270000E+03 0.  0.
    8880022    1    1    2    0    0  0.32407871126E+03  0.53959565670E+02 -0.69362885750E+03  0.78259267234E+03  0.15294330000E+03 0.  0.
<mgrwt>
<rscale>  0 0.61655222E+03</rscale>
<asrwt>0</asrwt>
<pdfrwt beam="1">  1        2 0.59597140E-01 0.73603590E+03</pdfrwt>
<pdfrwt beam="2">  1       -2 0.17432110E+00 0.73603590E+03</pdfrwt>
<totfact> 0.16644549E+01</totfact>
</mgrwt>
</event>
<event>
 4    2  0.3388003E-007  0.1347182E+04  0.7818608E-02  0.9025850E-01
         -2   -1    0    0    0  501 -0.00000000000E+00  0.00000000000E+00  0.19090499643E+04  0.19090499643E+04  0.25500000000E-02 0.  1.
          2   -1    0    0  501    0  0.00000000000E+00 -0.00000000000E+00 -0.14998520535E+04  0.14998520535E+04  0.25500000000E-02 0. -1.
    8880023    1    1    2    0    0  0.11698500768E+04  0.11198397823E+03  0.13413818060E+04  0.19011062488E+04  0.65864270000E+03 0.  1.
    8880022    1    1    2    0    0 -0.11698500768E+04 -0.11198397823E+03 -0.93218389512E+03  0.15077957690E+04  0.15294330000E+03 0.  0.
<mgrwt>
<rscale>  0 0.13046957E+04</rscale>
<asrwt>0</asrwt>
<pdfrwt beam="1">  1        2 0.23074647E+00 0.13471822E+04</pdfrwt>
<pdfrwt beam="2">  1       -2 0.29369999E+00 0.13471822E+04</pdfrwt>
<totfact> 0.42206402E-01</totfact>
</mgrwt>
</event>
<event>
 4    2  0.3388003E-007  0.6677402E+03  0.7818608E-02  0.1017337E+00
          2   -1    0    0  501    0  0.00000000000E+00  0.00000000000E+00  0.75771498086E+03  0.75771498086E+03  0.25500000000E-02 0. -1.
         -2   -1    0    0    0  501 -0.00000000000E+00 -0.00000000000E+00 -0.28346765974E+03  0.28346765976E+03  0.25500000000E-02 0.  1.
    8880023    1    1    2    0    0 -0.84827657188E+02 -0.69792484588E+02  0.17954521896E+03  0.69145745657E+03  0.65864270000E+03 0.  0.
    8880022    1    1    2    0    0  0.84827657188E+02  0.69792484588E+02  0.29470210216E+03  0.34972518405E+03  0.15294330000E+03 0.  0.
<mgrwt>
<rscale>  0 0.48659818E+03</rscale>
<asrwt>0</asrwt>
<pdfrwt beam="1">  1        2 0.11657153E+00 0.66774017E+03</pdfrwt>
<pdfrwt beam="2">  1       -2 0.43610409E-01 0.66774017E+03</pdfrwt>
<totfact> 0.18714772E+02</totfact>
</mgrwt>
</event>
<event>
 4    2  0.3388003E-007  0.9474593E+03  0.7818608E-02  0.9453779E-01
          2   -1    0    0  501    0  0.00000000000E+00  0.00000000000E+00  0.16392772380E+04  0.16392772380E+04  0.25500000000E-02 0. -1.
         -2   -1    0    0    0  501 -0.00000000000E+00 -0.00000000000E+00 -0.13073062568E+04  0.13073062568E+04  0.25500000000E-02 0.  1.
    8880023    1    1    2    0    0 -0.44101916024E+03  0.51900972474E+03 -0.10402304519E+04  0.14070389452E+04  0.65864270000E+03 0.  0.
    8880022    1    1    2    0    0  0.44101916024E+03 -0.51900972474E+03  0.13722014331E+04  0.15395445495E+04  0.15294330000E+03 0.  0.
<mgrwt>
<rscale>  0 0.87778995E+03</rscale>
<asrwt>0</asrwt>
<pdfrwt beam="1">  1        2 0.25219650E+00 0.94745934E+03</pdfrwt>
<pdfrwt beam="2">  1       -2 0.20112404E+00 0.94745934E+03</pdfrwt>
<totfact> 0.13893930E+00</totfact>
</mgrwt>
</event>
<event>
 4    2  0.3388003E-007  0.6791823E+03  0.7818608E-02  0.1009790E+00
         -2   -1    0    0    0  501 -0.00000000000E+00  0.00000000000E+00  0.11612694275E+04  0.11612694275E+04  0.25500000000E-02 0.  1.
          2   -1    0    0  501    0  0.00000000000E+00 -0.00000000000E+00 -0.21177748844E+03  0.21177748846E+03  0.25500000000E-02 0. -1.
    8880023    1    1    2    0    0 -0.16071379419E+03  0.40614422430E+02  0.92299314779E+03  0.11459515749E+04  0.65864270000E+03 0.  1.
    8880022    1    1    2    0    0  0.16071379419E+03 -0.40614422430E+02  0.26498791228E+02  0.22709534100E+03  0.15294330000E+03 0.  0.
<mgrwt>
<rscale>  0 0.51558186E+03</rscale>
<asrwt>0</asrwt>
<pdfrwt beam="1">  1        2 0.32581153E-01 0.67918235E+03</pdfrwt>
<pdfrwt beam="2">  1       -2 0.17865683E+00 0.67918235E+03</pdfrwt>
<totfact> 0.30597927E+01</totfact>
</mgrwt>
</event>
<event>
 4    2  0.3388003E-007  0.8050581E+03  0.7818608E-02  0.9699964E-01
          2   -1    0    0  501    0  0.00000000000E+00  0.00000000000E+00  0.15427869264E+04  0.15427869264E+04  0.25500000000E-02 0. -1.
         -2   -1    0    0    0  501 -0.00000000000E+00 -0.00000000000E+00 -0.36319750279E+03  0.36319750280E+03  0.25500000000E-02 0.  1.
    8880023    1    1    2    0    0 -0.45526950659E+03 -0.83893219890E+02  0.22792346560E+03  0.83670048907E+03  0.65864270000E+03 0. -1.
    8880022    1    1    2    0    0  0.45526950659E+03  0.83893219890E+02  0.95166595797E+03  0.10692839401E+04  0.15294330000E+03 0.  0.
<mgrwt>
<rscale>  0 0.71018925E+03</rscale>
<asrwt>0</asrwt>
<pdfrwt beam="1">  1        2 0.23735184E+00 0.80505814E+03</pdfrwt>
<pdfrwt beam="2">  1       -2 0.55876538E-01 0.80505814E+03</pdfrwt>
<totfact> 0.36748622E+01</totfact>
</mgrwt>
</event>
<event>
 4    2  0.3388003E-007  0.6817945E+03  0.7818608E-02  0.1008326E+00
          2   -1    0    0  501    0  0.00000000000E+00  0.00000000000E+00  0.47935238794E+03  0.47935238794E+03  0.25500000000E-02 0. -1.
         -2   -1    0    0    0  501 -0.00000000000E+00 -0.00000000000E+00 -0.10641156462E+04  0.10641156462E+04  0.25500000000E-02 0.  1.
    8880023    1    1    2    0    0  0.11937829891E+03  0.12954647875E+03 -0.91379935679E+03  0.11401197039E+04  0.65864270000E+03 0.  1.
    8880022    1    1    2    0    0 -0.11937829891E+03 -0.12954647875E+03  0.32903609852E+03  0.40334833029E+03  0.15294330000E+03 0.  0.
<mgrwt>
<rscale>  0 0.52145282E+03</rscale>
<asrwt>0</asrwt>
<pdfrwt beam="1">  1        2 0.73746522E-01 0.68179445E+03</pdfrwt>
<pdfrwt beam="2">  1       -2 0.16371010E+00 0.68179445E+03</pdfrwt>
<totfact> 0.15626417E+01</totfact>
</mgrwt>
</event>
<event>
 4    2  0.3388003E-007  0.7995469E+03  0.7818608E-02  0.9711777E-01
         -2   -1    0    0    0  501 -0.00000000000E+00  0.00000000000E+00  0.33385148053E+03  0.33385148054E+03  0.25500000000E-02 0.  1.
          2   -1    0    0  501    0  0.00000000000E+00 -0.00000000000E+00 -0.37112587500E+04  0.37112587500E+04  0.25500000000E-02 0. -1.
    8880023    1    1    2    0    0  0.38600147686E+03  0.23762980069E+03 -0.18974855085E+03  0.82175408799E+03  0.65864270000E+03 0.  1.
    8880022    1    1    2    0    0 -0.38600147686E+03 -0.23762980069E+03 -0.31876587186E+04  0.32233561425E+04  0.15294330000E+03 0.  0.
<mgrwt>
<rscale>  0 0.70319929E+03</rscale>
<asrwt>0</asrwt>
<pdfrwt beam="1">  1        2 0.57096285E+00 0.79954691E+03</pdfrwt>
<pdfrwt beam="2">  1       -2 0.51361769E-01 0.79954691E+03</pdfrwt>
<totfact> 0.22237062E+00</totfact>
</mgrwt>
</event>
<event>
 4    2  0.3388003E-007  0.6978975E+03  0.7818608E-02  0.1000604E+00
         -2   -1    0    0    0  501 -0.00000000000E+00  0.00000000000E+00  0.25162495734E+04  0.25162495734E+04  0.25500000000E-02 0.  1.
          2   -1    0    0  501    0  0.00000000000E+00 -0.00000000000E+00 -0.34718365626E+03  0.34718365627E+03  0.25500000000E-02 0. -1.
    8880023    1    1    2    0    0  0.21675926161E+02 -0.22974101332E+03  0.24021860948E+04  0.25015113470E+04  0.65864270000E+03 0.  1.
    8880022    1    1    2    0    0 -0.21675926161E+02  0.22974101332E+03 -0.23312017758E+03  0.36192188271E+03  0.15294330000E+03 0.  0.
<mgrwt>
<rscale>  0 0.55386308E+03</rscale>
<asrwt>0</asrwt>
<pdfrwt beam="1">  1        2 0.53412871E-01 0.69789755E+03</pdfrwt>
<pdfrwt beam="2">  1       -2 0.38711531E+00 0.69789755E+03</pdfrwt>
<totfact> 0.89897306E-01</totfact>
</mgrwt>
</event>
<event>
 4    2  0.3388003E-007  0.7711861E+03  0.7818608E-02  0.9776964E-01
         -2   -1    0    0    0  501 -0.00000000000E+00  0.00000000000E+00  0.50094801742E+03  0.50094801743E+03  0.25500000000E-02 0.  1.
          2   -1    0    0  501    0  0.00000000000E+00 -0.00000000000E+00 -0.16689592645E+04  0.16689592645E+04  0.25500000000E-02 0. -1.
    8880023    1    1    2    0    0  0.33286755030E+03  0.22386833233E+03  0.14833445760E+03  0.78532232481E+03  0.65864270000E+03 0.  1.
    8880022    1    1    2    0    0 -0.33286755030E+03 -0.22386833233E+03 -0.13163457046E+04  0.13845849571E+04  0.15294330000E+03 0.  0.
<mgrwt>
<rscale>  0 0.66613594E+03</rscale>
<asrwt>0</asrwt>
<pdfrwt beam="1">  1        2 0.25676296E+00 0.77118613E+03</pdfrwt>
<pdfrwt beam="2">  1       -2 0.77068927E-01 0.77118613E+03</pdfrwt>
<totfact> 0.15716297E+01</totfact>
</mgrwt>
</event>
<event>
 4    2  0.3388003E-007  0.6641279E+03  0.7818608E-02  0.1020277E+00
         -2   -1    0    0    0  501 -0.00000000000E+00  0.00000000000E+00  0.71160449214E+03  0.71160449215E+03  0.25500000000E-02 0.  1.
          2   -1    0    0  501    0  0.00000000000E+00 -0.00000000000E+00 -0.14459139301E+04  0.14459139301E+04  0.25500000000E-02 0. -1.
    8880023    1    1    2    0    0 -0.58571778480E+02 -0.61846173649E+02  0.54940425957E+03  0.86192276285E+03  0.65864270000E+03 0.  1.
    8880022    1    1    2    0    0  0.58571778480E+02  0.61846173649E+02 -0.12837136975E+04  0.12955956594E+04  0.15294330000E+03 0.  0.
<mgrwt>
<rscale>  0 0.47586934E+03</rscale>
<asrwt>0</asrwt>
<pdfrwt beam="1">  1        2 0.22244830E+00 0.66412786E+03</pdfrwt>
<pdfrwt beam="2">  1       -2 0.10947761E+00 0.66412786E+03</pdfrwt>
<totfact> 0.93854936E+00</totfact>
</mgrwt>
</event>
<event>
 4    2  0.3388003E-007  0.1736026E+04  0.7818608E-02  0.8758775E-01
         -2   -1    0    0    0  501 -0.00000000000E+00  0.00000000000E+00  0.16125335639E+04  0.16125335639E+04  0.25500000000E-02 0.  1.
          2   -1    0    0  501    0  0.00000000000E+00 -0.00000000000E+00 -0.18925562593E+04  0.18925562593E+04  0.25500000000E-02 0. -1.
    8880023    1    1    2    0    0  0.15547895962E+04  0.40324187258E+03  0.35354742973E+03  0.17716604324E+04  0.65864270000E+03 0.  0.
    8880022    1    1    2    0    0 -0.15547895962E+04 -0.40324187258E+03 -0.63357012515E+03  0.17334293908E+04  0.15294330000E+03 0.  0.
<mgrwt>
<rscale>  0 0.17045471E+04</rscale>
<asrwt>0</asrwt>
<pdfrwt beam="1">  1        2 0.29116250E+00 0.17360256E+04</pdfrwt>
<pdfrwt beam="2">  1       -2 0.24808209E+00 0.17360256E+04</pdfrwt>
<totfact> 0.46388496E-01</totfact>
</mgrwt>
</event>
<event>
 4    2  0.3388003E-007  0.7219956E+03  0.7818608E-02  0.9915891E-01
         -2   -1    0    0    0  501 -0.00000000000E+00  0.00000000000E+00  0.11648132163E+03  0.11648132166E+03  0.25500000000E-02 0.  1.
          2   -1    0    0  501    0  0.00000000000E+00 -0.00000000000E+00 -0.27620658183E+04  0.27620658183E+04  0.25500000000E-02 0. -1.
    8880023    1    1    2    0    0 -0.29367248528E+03 -0.34984108334E+02 -0.12475247504E+04  0.14413867023E+04  0.65864270000E+03 0.  0.
    8880022    1    1    2    0    0  0.29367248528E+03  0.34984108334E+02 -0.13980597463E+04  0.14371604377E+04  0.15294330000E+03 0.  0.
<mgrwt>
<rscale>  0 0.59497307E+03</rscale>
<asrwt>0</asrwt>
<pdfrwt beam="1">  1        2 0.42493316E+00 0.72199558E+03</pdfrwt>
<pdfrwt beam="2">  1       -2 0.17920205E-01 0.72199558E+03</pdfrwt>
<totfact> 0.66205829E+01</totfact>
</mgrwt>
</event>
<event>
 4    2  0.3388003E-007  0.8121851E+03  0.7818608E-02  0.9685043E-01
          2   -1    0    0  501    0  0.00000000000E+00  0.00000000000E+00  0.15847106017E+04  0.15847106017E+04  0.25500000000E-02 0. -1.
         -2   -1    0    0    0  501 -0.00000000000E+00 -0.00000000000E+00 -0.34590662435E+03  0.34590662436E+03  0.25500000000E-02 0.  1.
    8880023    1    1    2    0    0  0.64807019350E+02  0.47078062986E+03  0.29719369650E+03  0.86485180852E+03  0.65864270000E+03 0.  1.
    8880022    1    1    2    0    0 -0.64807019350E+02 -0.47078062986E+03  0.94161028080E+03  0.10657654175E+04  0.15294330000E+03 0.  0.
<mgrwt>
<rscale>  0 0.71914326E+03</rscale>
<asrwt>0</asrwt>
<pdfrwt beam="1">  1        2 0.24380163E+00 0.81218505E+03</pdfrwt>
<pdfrwt beam="2">  1       -2 0.53216404E-01 0.81218505E+03</pdfrwt>
<totfact> 0.38513150E+01</totfact>
</mgrwt>
</event>
<event>
 4    2  0.3388003E-007  0.6877194E+03  0.7818608E-02  0.1005256E+00
          2   -1    0    0  501    0  0.00000000000E+00  0.00000000000E+00  0.14067986592E+04  0.14067986592E+04  0.25500000000E-02 0. -1.
         -2   -1    0    0    0  501 -0.00000000000E+00 -0.00000000000E+00 -0.29600425939E+03  0.29600425940E+03  0.25500000000E-02 0.  1.
    8880023    1    1    2    0    0  0.19197347202E+03  0.47895255209E+02  0.14196655316E+03  0.70221967924E+03  0.65864270000E+03 0.  1.
    8880022    1    1    2    0    0 -0.19197347202E+03 -0.47895255209E+02  0.96882784665E+03  0.10005832394E+04  0.15294330000E+03 0.  0.
<mgrwt>
<rscale>  0 0.53404480E+03</rscale>
<asrwt>0</asrwt>
<pdfrwt beam="1">  1        2 0.21643056E+00 0.68771940E+03</pdfrwt>
<pdfrwt beam="2">  1       -2 0.45539117E-01 0.68771940E+03</pdfrwt>
<totfact> 0.67257214E+01</totfact>
</mgrwt>
</event>
<event>
 4    2  0.3388003E-007  0.6676034E+03  0.7818608E-02  0.1017442E+00
          2   -1    0    0  501    0  0.00000000000E+00  0.00000000000E+00  0.50099728924E+03  0.50099728925E+03  0.25500000000E-02 0. -1.
         -2   -1    0    0    0  501 -0.00000000000E+00 -0.00000000000E+00 -0.93812366007E+03  0.93812366007E+03  0.25500000000E-02 0.  1.
    8880023    1    1    2    0    0  0.10304515386E+03  0.35578771654E+02 -0.79307516605E+03  0.10366593356E+04  0.65864270000E+03 0.  1.
    8880022    1    1    2    0    0 -0.10304515386E+03 -0.35578771654E+02  0.35594879521E+03  0.40246161377E+03  0.15294330000E+03 0.  0.
<mgrwt>
<rscale>  0 0.48620962E+03</rscale>
<asrwt>0</asrwt>
<pdfrwt beam="1">  1        2 0.77076506E-01 0.66760344E+03</pdfrwt>
<pdfrwt beam="2">  1       -2 0.14432672E+00 0.66760344E+03</pdfrwt>
<totfact> 0.20805648E+01</totfact>
</mgrwt>
</event>
<event>
 4    2  0.3388003E-007  0.9485617E+03  0.7818608E-02  0.9452186E-01
         -2   -1    0    0    0  501 -0.00000000000E+00  0.00000000000E+00  0.13265812550E+04  0.13265812550E+04  0.25500000000E-02 0.  1.
          2   -1    0    0  501    0  0.00000000000E+00 -0.00000000000E+00 -0.72441016110E+03  0.72441016111E+03  0.25500000000E-02 0. -1.
    8880023    1    1    2    0    0  0.68082700462E+03  0.49332983714E+02  0.88418636173E+03  0.12967478097E+04  0.65864270000E+03 0.  0.
    8880022    1    1    2    0    0 -0.68082700462E+03 -0.49332983714E+02 -0.28201526781E+03  0.75424360640E+03  0.15294330000E+03 0.  0.
<mgrwt>
<rscale>  0 0.87902604E+03</rscale>
<asrwt>0</asrwt>
<pdfrwt beam="1">  1        2 0.11144772E+00 0.94856173E+03</pdfrwt>
<pdfrwt beam="2">  1       -2 0.20408942E+00 0.94856173E+03</pdfrwt>
<totfact> 0.48982019E+00</totfact>
</mgrwt>
</event>
<event>
 4    2  0.3388003E-007  0.1996732E+04  0.7818608E-02  0.8620871E-01
         -2   -1    0    0    0  501 -0.00000000000E+00  0.00000000000E+00  0.11344677578E+04  0.11344677578E+04  0.25500000000E-02 0.  1.
          2   -1    0    0  501    0  0.00000000000E+00 -0.00000000000E+00 -0.34311474296E+04  0.34311474296E+04  0.25500000000E-02 0. -1.
    8880023    1    1    2    0    0 -0.14811822572E+04  0.11658589817E+04 -0.78879771999E+03  0.21468907968E+04  0.65864270000E+03 0.  0.
    8880022    1    1    2    0    0  0.14811822572E+04 -0.11658589817E+04 -0.15078819518E+04  0.24187243906E+04  0.15294330000E+03 0.  0.
<mgrwt>
<rscale>  0 0.19698012E+04</rscale>
<asrwt>0</asrwt>
<pdfrwt beam="1">  1        2 0.52786883E+00 0.19967319E+04</pdfrwt>
<pdfrwt beam="2">  1       -2 0.17453350E+00 0.19967319E+04</pdfrwt>
<totfact> 0.16141399E-01</totfact>
</mgrwt>
</event>
<event>
 4    2  0.3388003E-007  0.9305971E+03  0.7818608E-02  0.9478598E-01
         -2   -1    0    0    0  501 -0.00000000000E+00  0.00000000000E+00  0.54139301219E+03  0.54139301219E+03  0.25500000000E-02 0.  1.
          2   -1    0    0  501    0  0.00000000000E+00 -0.00000000000E+00 -0.17809729140E+04  0.17809729140E+04  0.25500000000E-02 0. -1.
    8880023    1    1    2    0    0 -0.29312720592E+03  0.58845324072E+03 -0.13487292139E+04  0.16386218215E+04  0.65864270000E+03 0.  0.
    8880022    1    1    2    0    0  0.29312720592E+03 -0.58845324072E+03  0.10914931204E+03  0.68374410469E+03  0.15294330000E+03 0.  0.
<mgrwt>
<rscale>  0 0.85880257E+03</rscale>
<asrwt>0</asrwt>
<pdfrwt beam="1">  1        2 0.27399583E+00 0.93059711E+03</pdfrwt>
<pdfrwt beam="2">  1       -2 0.83291233E-01 0.93059711E+03</pdfrwt>
<totfact> 0.11233413E+01</totfact>
</mgrwt>
</event>
<event>
 4    2  0.3388003E-007  0.1026213E+04  0.7818608E-02  0.9348039E-01
          2   -1    0    0  501    0  0.00000000000E+00  0.00000000000E+00  0.19676823463E+04  0.19676823463E+04  0.25500000000E-02 0. -1.
         -2   -1    0    0    0  501 -0.00000000000E+00 -0.00000000000E+00 -0.87160737920E+03  0.87160737920E+03  0.25500000000E-02 0.  1.
    8880023    1    1    2    0    0 -0.45955077974E+03 -0.63883882374E+03 -0.43219788801E+03  0.11135111955E+04  0.65864270000E+03 0.  0.
    8880022    1    1    2    0    0  0.45955077974E+03  0.63883882374E+03  0.15282728551E+04  0.17257785300E+04  0.15294330000E+03 0.  0.
<mgrwt>
<rscale>  0 0.96478043E+03</rscale>
<asrwt>0</asrwt>
<pdfrwt beam="1">  1        2 0.30272036E+00 0.10262125E+04</pdfrwt>
<pdfrwt beam="2">  1       -2 0.13409344E+00 0.10262125E+04</pdfrwt>
<totfact> 0.27795008E+00</totfact>
</mgrwt>
</event>
<event>
 4    2  0.3388003E-007  0.9013367E+03  0.7818608E-02  0.9523889E-01
          2   -1    0    0  501    0  0.00000000000E+00  0.00000000000E+00  0.67719939983E+03  0.67719939983E+03  0.25500000000E-02 0. -1.
         -2   -1    0    0    0  501 -0.00000000000E+00 -0.00000000000E+00 -0.10676500504E+04  0.10676500504E+04  0.25500000000E-02 0.  1.
    8880023    1    1    2    0    0 -0.39224442555E+03  0.47406948901E+03 -0.59339885095E+03  0.10791338992E+04  0.65864270000E+03 0.  1.
    8880022    1    1    2    0    0  0.39224442555E+03 -0.47406948901E+03  0.20294820043E+03  0.66571555101E+03  0.15294330000E+03 0.  0.
<mgrwt>
<rscale>  0 0.82545248E+03</rscale>
<asrwt>0</asrwt>
<pdfrwt beam="1">  1        2 0.10418452E+00 0.90133666E+03</pdfrwt>
<pdfrwt beam="2">  1       -2 0.16425385E+00 0.90133666E+03</pdfrwt>
<totfact> 0.10025852E+01</totfact>
</mgrwt>
</event>
<event>
 4    2  0.3388003E-007  0.6720036E+03  0.7818608E-02  0.1014265E+00
          2   -1    0    0  501    0  0.00000000000E+00  0.00000000000E+00  0.65774364458E+03  0.65774364458E+03  0.25500000000E-02 0. -1.
         -2   -1    0    0    0  501 -0.00000000000E+00 -0.00000000000E+00 -0.38067268655E+03  0.38067268656E+03  0.25500000000E-02 0.  1.
    8880023    1    1    2    0    0 -0.10136342982E+03  0.86626459754E+02 -0.27363174863E+02  0.67256050883E+03  0.65864270000E+03 0.  1.
    8880022    1    1    2    0    0  0.10136342982E+03 -0.86626459754E+02  0.30443413289E+03  0.36585582231E+03  0.15294330000E+03 0.  0.
<mgrwt>
<rscale>  0 0.49814042E+03</rscale>
<asrwt>0</asrwt>
<pdfrwt beam="1">  1        2 0.10119133E+00 0.67200364E+03</pdfrwt>
<pdfrwt beam="2">  1       -2 0.58565030E-01 0.67200364E+03</pdfrwt>
<totfact> 0.12268495E+02</totfact>
</mgrwt>
</event>
<event>
 4    2  0.3388003E-007  0.7521144E+03  0.7818608E-02  0.9825967E-01
          2   -1    0    0  501    0  0.00000000000E+00  0.00000000000E+00  0.16321021791E+04  0.16321021791E+04  0.25500000000E-02 0. -1.
         -2   -1    0    0    0  501 -0.00000000000E+00 -0.00000000000E+00 -0.24963813499E+03  0.24963813500E+03  0.25500000000E-02 0.  1.
    8880023    1    1    2    0    0  0.29983925022E+03 -0.20484699276E+03  0.46757620087E+03  0.88560915549E+03  0.65864270000E+03 0.  0.
    8880022    1    1    2    0    0 -0.29983925022E+03  0.20484699276E+03  0.91488784325E+03  0.99613115861E+03  0.15294330000E+03 0.  0.
<mgrwt>
<rscale>  0 0.63987407E+03</rscale>
<asrwt>0</asrwt>
<pdfrwt beam="1">  1        2 0.25109264E+00 0.75211440E+03</pdfrwt>
<pdfrwt beam="2">  1       -2 0.38405867E-01 0.75211440E+03</pdfrwt>
<totfact> 0.70008307E+01</totfact>
</mgrwt>
</event>
<event>
 4    2  0.3388003E-007  0.9259133E+03  0.7818608E-02  0.9485651E-01
          2   -1    0    0  501    0  0.00000000000E+00  0.00000000000E+00  0.24972240412E+04  0.24972240413E+04  0.25500000000E-02 0. -1.
         -2   -1    0    0    0  501 -0.00000000000E+00 -0.00000000000E+00 -0.48053775933E+03  0.48053775934E+03  0.25500000000E-02 0.  1.
    8880023    1    1    2    0    0 -0.38186424740E+03 -0.52695816720E+03  0.80486651218E+02  0.92940492828E+03  0.65864270000E+03 0.  1.
    8880022    1    1    2    0    0  0.38186424740E+03  0.52695816720E+03  0.19361996307E+04  0.20483568723E+04  0.15294330000E+03 0.  0.
<mgrwt>
<rscale>  0 0.85350025E+03</rscale>
<asrwt>0</asrwt>
<pdfrwt beam="1">  1        2 0.38418832E+00 0.92591329E+03</pdfrwt>
<pdfrwt beam="2">  1       -2 0.73928886E-01 0.92591329E+03</pdfrwt>
<totfact> 0.58804882E+00</totfact>
</mgrwt>
</event>
<event>
 4    2  0.3871298E-007  0.1130864E+04  0.7818608E-02  0.9227447E-01
          2   -1    0    0  501    0  0.00000000000E+00  0.00000000000E+00  0.28454021882E+04  0.28454021882E+04  0.25500000000E-02 0. -1.
         -2   -1    0    0    0  501 -0.00000000000E+00 -0.00000000000E+00 -0.12634379272E+04  0.12634379272E+04  0.25500000000E-02 0.  1.
    8880023    1    1    2    0    0 -0.17331713396E+02 -0.91909839229E+03 -0.90794920540E+03  0.14502497057E+04  0.65864270000E+03 0.  0.
    8880022    1    1    2    0    0  0.17331713396E+02  0.91909839229E+03  0.24899134665E+04  0.26585904097E+04  0.15294330000E+03 0.  0.
<mgrwt>
<rscale>  0 0.10774565E+04</rscale>
<asrwt>0</asrwt>
<pdfrwt beam="1">  1        2 0.43775418E+00 0.11308636E+04</pdfrwt>
<pdfrwt beam="2">  1       -2 0.19437507E+00 0.11308636E+04</pdfrwt>
<totfact> 0.31164562E-01</totfact>
</mgrwt>
</event>
<event>
 4    2  0.3388003E-007  0.9137077E+03  0.7818608E-02  0.9504375E-01
         -2   -1    0    0    0  501 -0.00000000000E+00  0.00000000000E+00  0.45256881928E+03  0.45256881929E+03  0.25500000000E-02 0.  1.
          2   -1    0    0  501    0  0.00000000000E+00 -0.00000000000E+00 -0.13599149502E+04  0.13599149502E+04  0.25500000000E-02 0. -1.
    8880023    1    1    2    0    0 -0.29638316119E+03  0.55965046835E+03 -0.59160131953E+03  0.10885099689E+04  0.65864270000E+03 0. -1.
    8880022    1    1    2    0    0  0.29638316119E+03 -0.55965046835E+03 -0.31574481141E+03  0.72397380057E+03  0.15294330000E+03 0.  1.
<mgrwt>
<rscale>  0 0.83962031E+03</rscale>
<asrwt>0</asrwt>
<pdfrwt beam="1">  1        2 0.20921768E+00 0.91370774E+03</pdfrwt>
<pdfrwt beam="2">  1       -2 0.69625973E-01 0.91370774E+03</pdfrwt>
<totfact> 0.28831291E+01</totfact>
</mgrwt>
</event>
<event>
 4    2  0.3388003E-007  0.7092450E+03  0.7818608E-02  0.9960815E-01
         -2   -1    0    0    0  501 -0.00000000000E+00  0.00000000000E+00  0.32776229068E+03  0.32776229069E+03  0.25500000000E-02 0.  1.
          2   -1    0    0  501    0  0.00000000000E+00 -0.00000000000E+00 -0.28243298259E+04  0.28243298259E+04  0.25500000000E-02 0. -1.
    8880023    1    1    2    0    0 -0.20319173136E+03 -0.16712665784E+03 -0.76944046194E+02  0.71340647037E+03  0.65864270000E+03 0.  1.
    8880022    1    1    2    0    0  0.20319173136E+03  0.16712665784E+03 -0.24196234890E+04  0.24386856462E+04  0.15294330000E+03 0.  0.
<mgrwt>
<rscale>  0 0.57402306E+03</rscale>
<asrwt>0</asrwt>
<pdfrwt beam="1">  1        2 0.43451226E+00 0.70924495E+03</pdfrwt>
<pdfrwt beam="2">  1       -2 0.50424970E-01 0.70924495E+03</pdfrwt>
<totfact> 0.88645674E+00</totfact>
</mgrwt>
</event>
<event>
 4    2  0.3388003E-007  0.6615468E+03  0.7818608E-02  0.1022625E+00
         -2   -1    0    0    0  501 -0.00000000000E+00  0.00000000000E+00  0.52621347729E+03  0.52621347730E+03  0.25500000000E-02 0.  1.
          2   -1    0    0  501    0  0.00000000000E+00 -0.00000000000E+00 -0.80828781964E+03  0.80828781964E+03  0.25500000000E-02 0. -1.
    8880023    1    1    2    0    0 -0.14108569895E+02  0.60289699384E+02  0.30225277433E+03  0.72732444305E+03  0.65864270000E+03 0.  1.
    8880022    1    1    2    0    0  0.14108569895E+02 -0.60289699384E+02 -0.58432711668E+03  0.60717685389E+03  0.15294330000E+03 0.  0.
<mgrwt>
<rscale>  0 0.46751171E+03</rscale>
<asrwt>0</asrwt>
<pdfrwt beam="1">  1        2 0.12435197E+00 0.66154675E+03</pdfrwt>
<pdfrwt beam="2">  1       -2 0.80955920E-01 0.66154675E+03</pdfrwt>
<totfact> 0.46708470E+01</totfact>
</mgrwt>
</event>
<event>
 4    2  0.3388003E-007  0.8412029E+03  0.7818608E-02  0.9627916E-01
         -2   -1    0    0    0  501 -0.00000000000E+00  0.00000000000E+00  0.84764196606E+03  0.84764196606E+03  0.25500000000E-02 0.  1.
          2   -1    0    0  501    0  0.00000000000E+00 -0.00000000000E+00 -0.19503904922E+04  0.19503904922E+04  0.25500000000E-02 0. -1.
    8880023    1    1    2    0    0 -0.12710507226E+03  0.50759872026E+03  0.58486866099E+03  0.10245456149E+04  0.65864270000E+03 0.  0.
    8880022    1    1    2    0    0  0.12710507226E+03 -0.50759872026E+03 -0.16876171871E+04  0.17734868434E+04  0.15294330000E+03 0.  0.
<mgrwt>
<rscale>  0 0.75475740E+03</rscale>
<asrwt>0</asrwt>
<pdfrwt beam="1">  1        2 0.30006007E+00 0.84120293E+03</pdfrwt>
<pdfrwt beam="2">  1       -2 0.13040646E+00 0.84120293E+03</pdfrwt>
<totfact> 0.31297907E+00</totfact>
</mgrwt>
</event>
<event>
 4    2  0.3388003E-007  0.8150587E+03  0.7818608E-02  0.9679135E-01
         -2   -1    0    0    0  501 -0.00000000000E+00  0.00000000000E+00  0.15854709575E+04  0.15854709575E+04  0.25500000000E-02 0.  1.
          2   -1    0    0  501    0  0.00000000000E+00 -0.00000000000E+00 -0.68123285189E+03  0.68123285189E+03  0.25500000000E-02 0. -1.
    8880023    1    1    2    0    0  0.38410840843E+03  0.28804719263E+03  0.13611392336E+04  0.15865121097E+04  0.65864270000E+03 0.  0.
    8880022    1    1    2    0    0 -0.38410840843E+03 -0.28804719263E+03 -0.45690112798E+03  0.68019169973E+03  0.15294330000E+03 0.  0.
<mgrwt>
<rscale>  0 0.72272811E+03</rscale>
<asrwt>0</asrwt>
<pdfrwt beam="1">  1        2 0.10480506E+00 0.81505869E+03</pdfrwt>
<pdfrwt beam="2">  1       -2 0.24391861E+00 0.81505869E+03</pdfrwt>
<totfact> 0.30298973E+00</totfact>
</mgrwt>
</event>
<event>
 4    2  0.3388003E-007  0.7036434E+03  0.7818608E-02  0.9982410E-01
         -2   -1    0    0    0  501 -0.00000000000E+00  0.00000000000E+00  0.54316868362E+03  0.54316868363E+03  0.25500000000E-02 0.  1.
          2   -1    0    0  501    0  0.00000000000E+00 -0.00000000000E+00 -0.12697361191E+04  0.12697361191E+04  0.25500000000E-02 0. -1.
    8880023    1    1    2    0    0 -0.23109493476E+03 -0.88876076970E+02  0.28584975907E+03  0.75948937909E+03  0.65864270000E+03 0.  1.
    8880022    1    1    2    0    0  0.23109493476E+03  0.88876076970E+02 -0.10124171945E+04  0.10534154236E+04  0.15294330000E+03 0.  0.
<mgrwt>
<rscale>  0 0.56428303E+03</rscale>
<asrwt>0</asrwt>
<pdfrwt beam="1">  1        2 0.19534402E+00 0.70364340E+03</pdfrwt>
<pdfrwt beam="2">  1       -2 0.83564413E-01 0.70364340E+03</pdfrwt>
<totfact> 0.22119747E+01</totfact>
</mgrwt>
</event>
<event>
 4    2  0.3388003E-007  0.8171693E+03  0.7818608E-02  0.9674833E-01
         -2   -1    0    0    0  501 -0.00000000000E+00  0.00000000000E+00  0.75637990051E+03  0.75637990051E+03  0.25500000000E-02 0.  1.
          2   -1    0    0  501    0  0.00000000000E+00 -0.00000000000E+00 -0.28338177809E+04  0.28338177809E+04  0.25500000000E-02 0. -1.
    8880023    1    1    2    0    0  0.47288786983E+03  0.10164885862E+03  0.50352967270E+03  0.95984778244E+03  0.65864270000E+03 0.  1.
    8880022    1    1    2    0    0 -0.47288786983E+03 -0.10164885862E+03 -0.25809675531E+04  0.26303498990E+04  0.15294330000E+03 0.  0.
<mgrwt>
<rscale>  0 0.72535220E+03</rscale>
<asrwt>0</asrwt>
<pdfrwt beam="1">  1        2 0.43597196E+00 0.81716928E+03</pdfrwt>
<pdfrwt beam="2">  1       -2 0.11636614E+00 0.81716928E+03</pdfrwt>
<totfact> 0.13235305E+00</totfact>
</mgrwt>
</event>
<event>
 4    2  0.3388003E-007  0.1138115E+04  0.7818608E-02  0.9219761E-01
          2   -1    0    0  501    0  0.00000000000E+00  0.00000000000E+00  0.14961813368E+04  0.14961813368E+04  0.25500000000E-02 0. -1.
         -2   -1    0    0    0  501 -0.00000000000E+00 -0.00000000000E+00 -0.11230173260E+04  0.11230173260E+04  0.25500000000E-02 0.  1.
    8880023    1    1    2    0    0 -0.32883959696E+03  0.86796261714E+03 -0.58225796279E+03  0.12784088261E+04  0.65864270000E+03 0.  0.
    8880022    1    1    2    0    0  0.32883959696E+03 -0.86796261714E+03  0.95542197358E+03  0.13407898366E+04  0.15294330000E+03 0.  0.
<mgrwt>
<rscale>  0 0.10851766E+04</rscale>
<asrwt>0</asrwt>
<pdfrwt beam="1">  1        2 0.23018174E+00 0.11381146E+04</pdfrwt>
<pdfrwt beam="2">  1       -2 0.17277190E+00 0.11381146E+04</pdfrwt>
<totfact> 0.25389143E+00</totfact>
</mgrwt>
</event>
<event>
 4    2  0.3388003E-007  0.6673369E+03  0.7818608E-02  0.1017648E+00
         -2   -1    0    0    0  501 -0.00000000000E+00  0.00000000000E+00  0.12133550371E+03  0.12133550373E+03  0.25500000000E-02 0.  1.
          2   -1    0    0  501    0  0.00000000000E+00 -0.00000000000E+00 -0.45001838819E+04  0.45001838819E+04  0.25500000000E-02 0. -1.
    8880023    1    1    2    0    0  0.97478998726E+02 -0.45013403595E+02 -0.81759812322E+03  0.10553697262E+04  0.65864270000E+03 0.  1.
    8880022    1    1    2    0    0 -0.97478998726E+02  0.45013403595E+02 -0.35612502550E+04  0.35661496594E+04  0.15294330000E+03 0.  0.
<mgrwt>
<rscale>  0 0.48544850E+03</rscale>
<asrwt>0</asrwt>
<pdfrwt beam="1">  1        2 0.69233585E+00 0.66733692E+03</pdfrwt>
<pdfrwt beam="2">  1       -2 0.18667004E-01 0.66733692E+03</pdfrwt>
<totfact> 0.34252054E+00</totfact>
</mgrwt>
</event>
<event>
 4    2  0.3388003E-007  0.8005963E+03  0.7818608E-02  0.9709508E-01
          2   -1    0    0  501    0  0.00000000000E+00  0.00000000000E+00  0.58900817541E+03  0.58900817541E+03  0.25500000000E-02 0. -1.
         -2   -1    0    0    0  501 -0.00000000000E+00 -0.00000000000E+00 -0.11539970636E+04  0.11539970636E+04  0.25500000000E-02 0.  1.
    8880023    1    1    2    0    0 -0.43676677582E+03 -0.12798065630E+03 -0.86357902941E+03  0.11775921243E+04  0.65864270000E+03 0.  0.
    8880022    1    1    2    0    0  0.43676677582E+03  0.12798065630E+03  0.29859014123E+03  0.56541311473E+03  0.15294330000E+03 0.  0.
<mgrwt>
<rscale>  0 0.70453491E+03</rscale>
<asrwt>0</asrwt>
<pdfrwt beam="1">  1        2 0.90616642E-01 0.80059632E+03</pdfrwt>
<pdfrwt beam="2">  1       -2 0.17753801E+00 0.80059632E+03</pdfrwt>
<totfact> 0.96765950E+00</totfact>
</mgrwt>
</event>
<event>
 4    2  0.3388003E-007  0.8520014E+03  0.7818608E-02  0.9607953E-01
          2   -1    0    0  501    0  0.00000000000E+00  0.00000000000E+00  0.25345178799E+04  0.25345178799E+04  0.25500000000E-02 0. -1.
         -2   -1    0    0    0  501 -0.00000000000E+00 -0.00000000000E+00 -0.30708800491E+03  0.30708800492E+03  0.25500000000E-02 0.  1.
    8880023    1    1    2    0    0  0.53752885694E+03 -0.56204756104E+02  0.42192652649E+03  0.95075151679E+03  0.65864270000E+03 0.  0.
    8880022    1    1    2    0    0 -0.53752885694E+03  0.56204756104E+02  0.18055033485E+04  0.18908543680E+04  0.15294330000E+03 0.  0.
<mgrwt>
<rscale>  0 0.76772041E+03</rscale>
<asrwt>0</asrwt>
<pdfrwt beam="1">  1        2 0.38992582E+00 0.85200144E+03</pdfrwt>
<pdfrwt beam="2">  1       -2 0.47244309E-01 0.85200144E+03</pdfrwt>
<totfact> 0.14569330E+01</totfact>
</mgrwt>
</event>
<event>
 4    2  0.3388003E-007  0.1517907E+04  0.7818608E-02  0.8897094E-01
         -2   -1    0    0    0  501 -0.00000000000E+00  0.00000000000E+00  0.20096175086E+04  0.20096175086E+04  0.25500000000E-02 0.  1.
          2   -1    0    0  501    0  0.00000000000E+00 -0.00000000000E+00 -0.14690665273E+04  0.14690665273E+04  0.25500000000E-02 0. -1.
    8880023    1    1    2    0    0 -0.77407355246E+03  0.11274045071E+04  0.12167926115E+04  0.19454113326E+04  0.65864270000E+03 0.  0.
    8880022    1    1    2    0    0  0.77407355246E+03 -0.11274045071E+04 -0.67624163012E+03  0.15332727033E+04  0.15294330000E+03 0.  0.
<mgrwt>
<rscale>  0 0.14811379E+04</rscale>
<asrwt>0</asrwt>
<pdfrwt beam="1">  1        2 0.22601024E+00 0.15179068E+04</pdfrwt>
<pdfrwt beam="2">  1       -2 0.30917192E+00 0.15179068E+04</pdfrwt>
<totfact> 0.34671575E-01</totfact>
</mgrwt>
</event>
<event>
 4    2  0.3388003E-007  0.6908182E+03  0.7818608E-02  0.1003766E+00
          2   -1    0    0  501    0  0.00000000000E+00  0.00000000000E+00  0.96494683831E+03  0.96494683831E+03  0.25500000000E-02 0. -1.
         -2   -1    0    0    0  501 -0.00000000000E+00 -0.00000000000E+00 -0.37619523056E+03  0.37619523056E+03  0.25500000000E-02 0.  1.
    8880023    1    1    2    0    0  0.11136262854E+03  0.17611923820E+03 -0.79479464276E+01  0.69086394986E+03  0.65864270000E+03 0.  1.
    8880022    1    1    2    0    0 -0.11136262854E+03 -0.17611923820E+03  0.59669955418E+03  0.65027811902E+03  0.15294330000E+03 0.  0.
<mgrwt>
<rscale>  0 0.54029265E+03</rscale>
<asrwt>0</asrwt>
<pdfrwt beam="1">  1        2 0.14845336E+00 0.69081823E+03</pdfrwt>
<pdfrwt beam="2">  1       -2 0.57876190E-01 0.69081823E+03</pdfrwt>
<totfact> 0.75590531E+01</totfact>
</mgrwt>
</event>
<event>
 4    2  0.3388003E-007  0.7027614E+03  0.7818608E-02  0.9985933E-01
          2   -1    0    0  501    0  0.00000000000E+00  0.00000000000E+00  0.43444182050E+03  0.43444182051E+03  0.25500000000E-02 0. -1.
         -2   -1    0    0    0  501 -0.00000000000E+00 -0.00000000000E+00 -0.11964486033E+04  0.11964486033E+04  0.25500000000E-02 0.  1.
    8880023    1    1    2    0    0  0.24047879319E+03 -0.47257449922E+02 -0.10232929011E+04  0.12413709697E+04  0.65864270000E+03 0.  0.
    8880022    1    1    2    0    0 -0.24047879319E+03  0.47257449922E+02  0.26128611830E+03  0.38951945418E+03  0.15294330000E+03 0.  0.
<mgrwt>
<rscale>  0 0.56271362E+03</rscale>
<asrwt>0</asrwt>
<pdfrwt beam="1">  1        2 0.66837204E-01 0.70276136E+03</pdfrwt>
<pdfrwt beam="2">  1       -2 0.18406901E+00 0.70276136E+03</pdfrwt>
<totfact> 0.12573597E+01</totfact>
</mgrwt>
</event>
<event>
 4    2  0.3388003E-007  0.7309369E+03  0.7818608E-02  0.9887180E-01
         -2   -1    0    0    0  501 -0.00000000000E+00  0.00000000000E+00  0.37632414007E+03  0.37632414008E+03  0.25500000000E-02 0.  1.
          2   -1    0    0  501    0  0.00000000000E+00 -0.00000000000E+00 -0.24836740587E+04  0.24836740587E+04  0.25500000000E-02 0. -1.
    8880023    1    1    2    0    0 -0.16508426320E+03 -0.27056559538E+03 -0.76159272021E+01  0.73097658237E+03  0.65864270000E+03 0.  1.
    8880022    1    1    2    0    0  0.16508426320E+03  0.27056559538E+03 -0.20997339914E+04  0.21290216164E+04  0.15294330000E+03 0.  0.
<mgrwt>
<rscale>  0 0.60886640E+03</rscale>
<asrwt>0</asrwt>
<pdfrwt beam="1">  1        2 0.38210369E+00 0.73093691E+03</pdfrwt>
<pdfrwt beam="2">  1       -2 0.57896023E-01 0.73093691E+03</pdfrwt>
<totfact> 0.10444679E+01</totfact>
</mgrwt>
</event>
<event>
 4    2  0.3388003E-007  0.9044473E+03  0.7818608E-02  0.9518930E-01
         -2   -1    0    0    0  501 -0.00000000000E+00  0.00000000000E+00  0.42199705195E+03  0.42199705196E+03  0.25500000000E-02 0.  1.
          2   -1    0    0  501    0  0.00000000000E+00 -0.00000000000E+00 -0.18987574211E+04  0.18987574211E+04  0.25500000000E-02 0. -1.
    8880023    1    1    2    0    0 -0.61853941465E+03 -0.40295225613E+02 -0.14149646888E+04  0.16793302205E+04  0.65864270000E+03 0.  0.
    8880022    1    1    2    0    0  0.61853941465E+03  0.40295225613E+02 -0.61795680395E+02  0.64142425260E+03  0.15294330000E+03 0.  0.
<mgrwt>
<rscale>  0 0.82902489E+03</rscale>
<asrwt>0</asrwt>
<pdfrwt beam="1">  1        2 0.29211652E+00 0.90444730E+03</pdfrwt>
<pdfrwt beam="2">  1       -2 0.64922624E-01 0.90444730E+03</pdfrwt>
<totfact> 0.16853421E+01</totfact>
</mgrwt>
</event>
<event>
 4    2  0.3388003E-007  0.6802949E+03  0.7818608E-02  0.1009157E+00
          2   -1    0    0  501    0  0.00000000000E+00  0.00000000000E+00  0.36199405457E+03  0.36199405458E+03  0.25500000000E-02 0. -1.
         -2   -1    0    0    0  501 -0.00000000000E+00 -0.00000000000E+00 -0.61183294292E+03  0.61183294293E+03  0.25500000000E-02 0.  1.
    8880023    1    1    2    0    0 -0.14250284322E+03  0.93187001804E+02 -0.72218068411E+02  0.68411733884E+03  0.65864270000E+03 0.  0.
    8880022    1    1    2    0    0  0.14250284322E+03 -0.93187001804E+02 -0.17762081995E+03  0.28970965867E+03  0.15294330000E+03 0.  0.
<mgrwt>
<rscale>  0 0.51810907E+03</rscale>
<asrwt>0</asrwt>
<pdfrwt beam="1">  1        2 0.55691393E-01 0.68029485E+03</pdfrwt>
<pdfrwt beam="2">  1       -2 0.94128145E-01 0.68029485E+03</pdfrwt>
<totfact> 0.85930759E+01</totfact>
</mgrwt>
</event>
<event>
 4    2  0.3388003E-007  0.8712210E+03  0.7818608E-02  0.9573907E-01
          2   -1    0    0  501    0  0.00000000000E+00  0.00000000000E+00  0.17721599165E+04  0.17721599165E+04  0.25500000000E-02 0. -1.
         -2   -1    0    0    0  501 -0.00000000000E+00 -0.00000000000E+00 -0.51407590479E+03  0.51407590480E+03  0.25500000000E-02 0.  1.
    8880023    1    1    2    0    0  0.12617356563E+03  0.55614395659E+03 -0.27389220359E+02  0.87165144683E+03  0.65864270000E+03 0.  1.
    8880022    1    1    2    0    0 -0.12617356563E+03 -0.55614395659E+03  0.12854732320E+04  0.14145843744E+04  0.15294330000E+03 0.  0.
<mgrwt>
<rscale>  0 0.79047539E+03</rscale>
<asrwt>0</asrwt>
<pdfrwt beam="1">  1        2 0.27263998E+00 0.87122103E+03</pdfrwt>
<pdfrwt beam="2">  1       -2 0.79088603E-01 0.87122103E+03</pdfrwt>
<totfact> 0.12858355E+01</totfact>
</mgrwt>
</event>
<event>
 4    2  0.3388003E-007  0.6808051E+03  0.7818608E-02  0.1008872E+00
         -2   -1    0    0    0  501 -0.00000000000E+00  0.00000000000E+00  0.10668029086E+04  0.10668029086E+04  0.25500000000E-02 0.  1.
          2   -1    0    0  501    0  0.00000000000E+00 -0.00000000000E+00 -0.11517042442E+04  0.11517042442E+04  0.25500000000E-02 0. -1.
    8880023    1    1    2    0    0 -0.16721558387E+03 -0.41524857255E+02  0.94413531067E+03  0.11639961582E+04  0.65864270000E+03 0.  0.
    8880022    1    1    2    0    0  0.16721558387E+03  0.41524857255E+02 -0.10290366463E+04  0.10545109946E+04  0.15294330000E+03 0. -1.
<mgrwt>
<rscale>  0 0.51925467E+03</rscale>
<asrwt>0</asrwt>
<pdfrwt beam="1">  1        2 0.17718527E+00 0.68080509E+03</pdfrwt>
<pdfrwt beam="2">  1       -2 0.16412352E+00 0.68080509E+03</pdfrwt>
<totfact> 0.49123954E+00</totfact>
</mgrwt>
</event>
<event>
 4    2  0.3388003E-007  0.8877793E+03  0.7818608E-02  0.9545942E-01
         -2   -1    0    0    0  501 -0.00000000000E+00  0.00000000000E+00  0.32043589985E+03  0.32043589986E+03  0.25500000000E-02 0.  1.
          2   -1    0    0  501    0  0.00000000000E+00 -0.00000000000E+00 -0.20694793019E+04  0.20694793019E+04  0.25500000000E-02 0. -1.
    8880023    1    1    2    0    0 -0.58352406889E+03  0.11764976318E+03 -0.55501123736E+03  0.10469906808E+04  0.65864270000E+03 0.  1.
    8880022    1    1    2    0    0  0.58352406889E+03 -0.11764976318E+03 -0.11940321647E+04  0.13429245210E+04  0.15294330000E+03 0.  0.
<mgrwt>
<rscale>  0 0.80979842E+03</rscale>
<asrwt>0</asrwt>
<pdfrwt beam="1">  1        2 0.31838142E+00 0.88777926E+03</pdfrwt>
<pdfrwt beam="2">  1       -2 0.49297832E-01 0.88777926E+03</pdfrwt>
<totfact> 0.24211885E+01</totfact>
</mgrwt>
</event>
<event>
 4    2  0.3388003E-007  0.7369142E+03  0.7818608E-02  0.9869029E-01
          2   -1    0    0  501    0  0.00000000000E+00  0.00000000000E+00  0.29185389285E+04  0.29185389285E+04  0.25500000000E-02 0. -1.
         -2   -1    0    0    0  501 -0.00000000000E+00 -0.00000000000E+00 -0.35014759654E+03  0.35014759655E+03  0.25500000000E-02 0.  1.
    8880023    1    1    2    0    0  0.20629853107E+03 -0.25821165854E+03  0.65921468511E+02  0.73985687184E+03  0.65864270000E+03 0.  1.
    8880022    1    1    2    0    0 -0.20629853107E+03  0.25821165854E+03  0.25024698634E+04  0.25288296532E+04  0.15294330000E+03 0.  0.
<mgrwt>
<rscale>  0 0.61786054E+03</rscale>
<asrwt>0</asrwt>
<pdfrwt beam="1">  1        2 0.44900601E+00 0.73691421E+03</pdfrwt>
<pdfrwt beam="2">  1       -2 0.53868859E-01 0.73691421E+03</pdfrwt>
<totfact> 0.67647016E+00</totfact>
</mgrwt>
</event>
<event>
 4    2  0.3388003E-007  0.7250776E+03  0.7818608E-02  0.9905765E-01
         -2   -1    0    0    0  501 -0.00000000000E+00  0.00000000000E+00  0.52486016626E+03  0.52486016627E+03  0.25500000000E-02 0.  1.
          2   -1    0    0  501    0  0.00000000000E+00 -0.00000000000E+00 -0.12135529141E+04  0.12135529141E+04  0.25500000000E-02 0. -1.
    8880023    1    1    2    0    0 -0.29250243600E+03 -0.79809885072E+02  0.22861579593E+03  0.76026487571E+03  0.65864270000E+03 0.  1.
    8880022    1    1    2    0    0  0.29250243600E+03  0.79809885072E+02 -0.91730854380E+03  0.97814820470E+03  0.15294330000E+03 0.  0.
<mgrwt>
<rscale>  0 0.59982690E+03</rscale>
<asrwt>0</asrwt>
<pdfrwt beam="1">  1        2 0.18670045E+00 0.72507758E+03</pdfrwt>
<pdfrwt beam="2">  1       -2 0.80747718E-01 0.72507758E+03</pdfrwt>
<totfact> 0.25714200E+01</totfact>
</mgrwt>
</event>
<event>
 4    2  0.3388003E-007  0.9120481E+03  0.7818608E-02  0.9506961E-01
         -2   -1    0    0    0  501 -0.00000000000E+00  0.00000000000E+00  0.17963254534E+03  0.17963254536E+03  0.25500000000E-02 0.  1.
          2   -1    0    0  501    0  0.00000000000E+00 -0.00000000000E+00 -0.37028269161E+04  0.37028269161E+04  0.25500000000E-02 0. -1.
    8880023    1    1    2    0    0 -0.46629622660E+03  0.42495809297E+03 -0.14784174959E+04  0.17371096828E+04  0.65864270000E+03 0.  1.
    8880022    1    1    2    0    0  0.46629622660E+03 -0.42495809297E+03 -0.20447768749E+04  0.21453497786E+04  0.15294330000E+03 0.  0.
<mgrwt>
<rscale>  0 0.83772568E+03</rscale>
<asrwt>0</asrwt>
<pdfrwt beam="1">  1        2 0.56966562E+00 0.91204811E+03</pdfrwt>
<pdfrwt beam="2">  1       -2 0.27635779E-01 0.91204811E+03</pdfrwt>
<totfact> 0.73329498E+00</totfact>
</mgrwt>
</event>
<event>
 4    2  0.3388003E-007  0.7758798E+03  0.7818608E-02  0.9765606E-01
          2   -1    0    0  501    0  0.00000000000E+00  0.00000000000E+00  0.14171614629E+04  0.14171614629E+04  0.25500000000E-02 0. -1.
         -2   -1    0    0    0  501 -0.00000000000E+00 -0.00000000000E+00 -0.65900337982E+03  0.65900337982E+03  0.25500000000E-02 0.  1.
    8880023    1    1    2    0    0  0.17823544343E+03 -0.36933907663E+03 -0.37475422818E+03  0.86164387343E+03  0.65864270000E+03 0.  1.
    8880022    1    1    2    0    0 -0.17823544343E+03  0.36933907663E+03  0.11329123112E+04  0.12145209693E+04  0.15294330000E+03 0.  0.
<mgrwt>
<rscale>  0 0.67241441E+03</rscale>
<asrwt>0</asrwt>
<pdfrwt beam="1">  1        2 0.21802484E+00 0.77587978E+03</pdfrwt>
<pdfrwt beam="2">  1       -2 0.10138514E+00 0.77587978E+03</pdfrwt>
<totfact> 0.11531749E+01</totfact>
</mgrwt>
</event>
<event>
 4    2  0.3388003E-007  0.9453010E+03  0.7818608E-02  0.9456907E-01
         -2   -1    0    0    0  501 -0.00000000000E+00  0.00000000000E+00  0.42071867399E+03  0.42071867400E+03  0.25500000000E-02 0.  1.
          2   -1    0    0  501    0  0.00000000000E+00 -0.00000000000E+00 -0.26476201907E+04  0.26476201907E+04  0.25500000000E-02 0. -1.
    8880023    1    1    2    0    0 -0.60600615720E+03 -0.30420446900E+03 -0.25732174800E+03  0.97969817280E+03  0.65864270000E+03 0.  1.
    8880022    1    1    2    0    0  0.60600615720E+03  0.30420446900E+03 -0.19695797687E+04  0.20886406919E+04  0.15294330000E+03 0.  0.
<mgrwt>
<rscale>  0 0.87536808E+03</rscale>
<asrwt>0</asrwt>
<pdfrwt beam="1">  1        2 0.40732617E+00 0.94530102E+03</pdfrwt>
<pdfrwt beam="2">  1       -2 0.64725952E-01 0.94530102E+03</pdfrwt>
<totfact> 0.64229408E+00</totfact>
</mgrwt>
</event>
<event>
 4    2  0.3388003E-007  0.6774358E+03  0.7818608E-02  0.1010813E+00
         -2   -1    0    0    0  501 -0.00000000000E+00  0.00000000000E+00  0.17499455161E+03  0.17499455163E+03  0.25500000000E-02 0.  1.
          2   -1    0    0  501    0  0.00000000000E+00 -0.00000000000E+00 -0.13471968777E+04  0.13471968777E+04  0.25500000000E-02 0. -1.
    8880023    1    1    2    0    0  0.32332914815E+02 -0.15512473848E+03 -0.58506158661E+03  0.89510690326E+03  0.65864270000E+03 0.  0.
    8880022    1    1    2    0    0 -0.32332914815E+02  0.15512473848E+03 -0.58714073948E+03  0.62708452608E+03  0.15294330000E+03 0.  0.
<mgrwt>
<rscale>  0 0.51152832E+03</rscale>
<asrwt>0</asrwt>
<pdfrwt beam="1">  1        2 0.20726105E+00 0.67743583E+03</pdfrwt>
<pdfrwt beam="2">  1       -2 0.26922240E-01 0.67743583E+03</pdfrwt>
<totfact> 0.19794014E+02</totfact>
</mgrwt>
</event>
<event>
 4    2  0.3388003E-007  0.7931594E+03  0.7818608E-02  0.9725787E-01
         -2   -1    0    0    0  501 -0.00000000000E+00  0.00000000000E+00  0.10079938705E+04  0.10079938705E+04  0.25500000000E-02 0.  1.
          2   -1    0    0  501    0  0.00000000000E+00 -0.00000000000E+00 -0.77630078921E+03  0.77630078921E+03  0.25500000000E-02 0. -1.
    8880023    1    1    2    0    0  0.17790026463E+03  0.40452836385E+03  0.74621862392E+03  0.10890106254E+04  0.65864270000E+03 0.  0.
    8880022    1    1    2    0    0 -0.17790026463E+03 -0.40452836385E+03 -0.51452554264E+03  0.69528403430E+03  0.15294330000E+03 0.  0.
<mgrwt>
<rscale>  0 0.69502006E+03</rscale>
<asrwt>0</asrwt>
<pdfrwt beam="1">  1        2 0.11943089E+00 0.79315945E+03</pdfrwt>
<pdfrwt beam="2">  1       -2 0.15507598E+00 0.79315945E+03</pdfrwt>
<totfact> 0.99412693E+00</totfact>
</mgrwt>
</event>
<event>
 4    2  0.3388003E-007  0.7279267E+03  0.7818608E-02  0.9896624E-01
          2   -1    0    0  501    0  0.00000000000E+00  0.00000000000E+00  0.31207653274E+04  0.31207653274E+04  0.25500000000E-02 0. -1.
         -2   -1    0    0    0  501 -0.00000000000E+00 -0.00000000000E+00 -0.11770011243E+03  0.11770011245E+03  0.25500000000E-02 0.  1.
    8880023    1    1    2    0    0 -0.29845121370E+03  0.83629881099E+02  0.12075249224E+04  0.14099623146E+04  0.65864270000E+03 0.  0.
    8880022    1    1    2    0    0  0.29845121370E+03 -0.83629881099E+02  0.17955402925E+04  0.18285031252E+04  0.15294330000E+03 0.  0.
<mgrwt>
<rscale>  0 0.60425184E+03</rscale>
<asrwt>0</asrwt>
<pdfrwt beam="1">  1        2 0.48011774E+00 0.72792671E+03</pdfrwt>
<pdfrwt beam="2">  1       -2 0.18107710E-01 0.72792671E+03</pdfrwt>
<totfact> 0.39410158E+01</totfact>
</mgrwt>
</event>
<event>
 4    2  0.3388003E-007  0.1253402E+04  0.7818608E-02  0.9106883E-01
         -2   -1    0    0    0  501 -0.00000000000E+00  0.00000000000E+00  0.14669927861E+04  0.14669927861E+04  0.25500000000E-02 0.  1.
          2   -1    0    0  501    0  0.00000000000E+00 -0.00000000000E+00 -0.14629586894E+04  0.14629586894E+04  0.25500000000E-02 0. -1.
    8880023    1    1    2    0    0 -0.29442757866E+02  0.10659919391E+04  0.88825687040E+03  0.15362344106E+04  0.65864270000E+03 0.  0.
    8880022    1    1    2    0    0  0.29442757866E+02 -0.10659919391E+04 -0.88422277374E+03  0.13937170649E+04  0.15294330000E+03 0.  0.
<mgrwt>
<rscale>  0 0.12068489E+04</rscale>
<asrwt>0</asrwt>
<pdfrwt beam="1">  1        2 0.22507057E+00 0.12534017E+04</pdfrwt>
<pdfrwt beam="2">  1       -2 0.22569120E+00 0.12534017E+04</pdfrwt>
<totfact> 0.11694154E+00</totfact>
</mgrwt>
</event>
<event>
 4    2  0.3388003E-007  0.1086381E+04  0.7818608E-02  0.9276373E-01
          2   -1    0    0  501    0  0.00000000000E+00  0.00000000000E+00  0.52570239855E+03  0.52570239855E+03  0.25500000000E-02 0. -1.
         -2   -1    0    0    0  501 -0.00000000000E+00 -0.00000000000E+00 -0.18833391176E+04  0.18833391176E+04  0.25500000000E-02 0.  1.
    8880023    1    1    2    0    0 -0.83679127993E+03  0.21492798658E+03 -0.55512240181E+03  0.12199937593E+04  0.65864270000E+03 0.  0.
    8880022    1    1    2    0    0  0.83679127993E+03 -0.21492798658E+03 -0.80251431722E+03  0.11890477568E+04  0.15294330000E+03 0.  0.
<mgrwt>
<rscale>  0 0.10298744E+04</rscale>
<asrwt>0</asrwt>
<pdfrwt beam="1">  1        2 0.80877293E-01 0.10863811E+04</pdfrwt>
<pdfrwt beam="2">  1       -2 0.28974448E+00 0.10863811E+04</pdfrwt>
<totfact> 0.21235107E+00</totfact>
</mgrwt>
</event>
<event>
 4    2  0.3388003E-007  0.8532157E+03  0.7818608E-02  0.9605747E-01
         -2   -1    0    0    0  501 -0.00000000000E+00  0.00000000000E+00  0.48606168680E+03  0.48606168681E+03  0.25500000000E-02 0.  1.
          2   -1    0    0  501    0  0.00000000000E+00 -0.00000000000E+00 -0.18260475785E+04  0.18260475785E+04  0.25500000000E-02 0. -1.
    8880023    1    1    2    0    0 -0.16480833506E+03 -0.51672536618E+03 -0.15005481231E+04  0.17261580946E+04  0.65864270000E+03 0.  0.
    8880022    1    1    2    0    0  0.16480833506E+03  0.51672536618E+03  0.16056223140E+03  0.58595117077E+03  0.15294330000E+03 0.  0.
<mgrwt>
<rscale>  0 0.76916961E+03</rscale>
<asrwt>0</asrwt>
<pdfrwt beam="1">  1        2 0.28093039E+00 0.85321574E+03</pdfrwt>
<pdfrwt beam="2">  1       -2 0.74778722E-01 0.85321574E+03</pdfrwt>
<totfact> 0.13644593E+01</totfact>
</mgrwt>
</event>
<event>
 4    2  0.3388003E-007  0.6638328E+03  0.7818608E-02  0.1020533E+00
         -2   -1    0    0    0  501 -0.00000000000E+00  0.00000000000E+00  0.91316673998E+02  0.91316674033E+02  0.25500000000E-02 0.  1.
          2   -1    0    0  501    0  0.00000000000E+00 -0.00000000000E+00 -0.25114082240E+04  0.25114082240E+04  0.25500000000E-02 0. -1.
    8880023    1    1    2    0    0 -0.71033893494E+01  0.82543217594E+02 -0.12094659993E+04  0.13796673695E+04  0.65864270000E+03 0.  0.
    8880022    1    1    2    0    0  0.71033893494E+01 -0.82543217594E+02 -0.12106255508E+04  0.12230575285E+04  0.15294330000E+03 0.  0.
<mgrwt>
<rscale>  0 0.47494638E+03</rscale>
<asrwt>0</asrwt>
<pdfrwt beam="1">  1        2 0.38637044E+00 0.66383285E+03</pdfrwt>
<pdfrwt beam="2">  1       -2 0.14048721E-01 0.66383285E+03</pdfrwt>
<totfact> 0.14069307E+02</totfact>
</mgrwt>
</event>
<event>
 4    2  0.3388003E-007  0.9346853E+03  0.7818608E-02  0.9472500E-01
          2   -1    0    0  501    0  0.00000000000E+00  0.00000000000E+00  0.23133915412E+04  0.23133915412E+04  0.25500000000E-02 0. -1.
         -2   -1    0    0    0  501 -0.00000000000E+00 -0.00000000000E+00 -0.37086573370E+03  0.37086573371E+03  0.25500000000E-02 0.  1.
    8880023    1    1    2    0    0  0.51684227689E+03  0.41557246578E+03  0.43650506109E+03  0.10315877510E+04  0.65864270000E+03 0.  0.
    8880022    1    1    2    0    0 -0.51684227689E+03 -0.41557246578E+03  0.15060207464E+04  0.16526695239E+04  0.15294330000E+03 0.  0.
<mgrwt>
<rscale>  0 0.86342028E+03</rscale>
<asrwt>0</asrwt>
<pdfrwt beam="1">  1        2 0.35590639E+00 0.93468531E+03</pdfrwt>
<pdfrwt beam="2">  1       -2 0.57056266E-01 0.93468531E+03</pdfrwt>
<totfact> 0.13038367E+01</totfact>
</mgrwt>
</event>
<event>
 4    2  0.3388003E-007  0.8222742E+03  0.7818608E-02  0.9664556E-01
          2   -1    0    0  501    0  0.00000000000E+00  0.00000000000E+00  0.42635297424E+04  0.42635297424E+04  0.25500000000E-02 0. -1.
         -2   -1    0    0    0  501 -0.00000000000E+00 -0.00000000000E+00 -0.23312840754E+03  0.23312840755E+03  0.25500000000E-02 0.  1.
    8880023    1    1    2    0    0  0.45449816491E+03  0.18909272035E+03  0.57585459118E+03  0.10038642116E+04  0.65864270000E+03 0.  0.
    8880022    1    1    2    0    0 -0.45449816491E+03 -0.18909272035E+03  0.34545467436E+04  0.34927939384E+04  0.15294330000E+03 0.  0.
<mgrwt>
<rscale>  0 0.73166919E+03</rscale>
<asrwt>0</asrwt>
<pdfrwt beam="1">  1        2 0.65592763E+00 0.82227419E+03</pdfrwt>
<pdfrwt beam="2">  1       -2 0.35865910E-01 0.82227419E+03</pdfrwt>
<totfact> 0.16504475E+00</totfact>
</mgrwt>
</event>
<event>
 4    2  0.3388003E-007  0.7005611E+03  0.7818608E-02  0.9994881E-01
          2   -1    0    0  501    0  0.00000000000E+00  0.00000000000E+00  0.97233304486E+03  0.97233304487E+03  0.25500000000E-02 0. -1.
         -2   -1    0    0    0  501 -0.00000000000E+00 -0.00000000000E+00 -0.81477972900E+03  0.81477972900E+03  0.25500000000E-02 0.  1.
    8880023    1    1    2    0    0  0.19061181240E+03  0.14367609450E+03  0.81287292776E+03  0.10731021788E+04  0.65864270000E+03 0. -1.
    8880022    1    1    2    0    0 -0.19061181240E+03 -0.14367609450E+03 -0.65531961189E+03  0.71401059509E+03  0.15294330000E+03 0.  0.
<mgrwt>
<rscale>  0 0.55875249E+03</rscale>
<asrwt>0</asrwt>
<pdfrwt beam="1">  1        2 0.14958970E+00 0.70056112E+03</pdfrwt>
<pdfrwt beam="2">  1       -2 0.12535073E+00 0.70056112E+03</pdfrwt>
<totfact> 0.12781489E+01</totfact>
</mgrwt>
</event>
<event>
 4    2  0.3388003E-007  0.8510732E+03  0.7818608E-02  0.9609644E-01
         -2   -1    0    0    0  501 -0.00000000000E+00  0.00000000000E+00  0.88435889954E+03  0.88435889954E+03  0.25500000000E-02 0.  1.
          2   -1    0    0  501    0  0.00000000000E+00 -0.00000000000E+00 -0.68218682001E+03  0.68218682001E+03  0.25500000000E-02 0. -1.
    8880023    1    1    2    0    0  0.53324152112E+03 -0.78542203099E+02  0.43976415081E+03  0.95797604986E+03  0.65864270000E+03 0.  0.
    8880022    1    1    2    0    0 -0.53324152112E+03  0.78542203099E+02 -0.23759207128E+03  0.60856966969E+03  0.15294330000E+03 0.  0.
<mgrwt>
<rscale>  0 0.76661149E+03</rscale>
<asrwt>0</asrwt>
<pdfrwt beam="1">  1        2 0.10495182E+00 0.85107321E+03</pdfrwt>
<pdfrwt beam="2">  1       -2 0.13605521E+00 0.85107321E+03</pdfrwt>
<totfact> 0.16450444E+01</totfact>
</mgrwt>
</event>
<event>
 4    2  0.3388003E-007  0.7174226E+03  0.7818608E-02  0.9931405E-01
          2   -1    0    0  501    0  0.00000000000E+00  0.00000000000E+00  0.10333033377E+04  0.10333033377E+04  0.25500000000E-02 0. -1.
         -2   -1    0    0    0  501 -0.00000000000E+00 -0.00000000000E+00 -0.35661336964E+03  0.35661336965E+03  0.25500000000E-02 0.  1.
    8880023    1    1    2    0    0 -0.12306944297E+02  0.28413639941E+03  0.93763930735E+02  0.72352390100E+03  0.65864270000E+03 0.  1.
    8880022    1    1    2    0    0  0.12306944297E+02 -0.28413639941E+03  0.58292603732E+03  0.66639280635E+03  0.15294330000E+03 0.  0.
<mgrwt>
<rscale>  0 0.58763093E+03</rscale>
<asrwt>0</asrwt>
<pdfrwt beam="1">  1        2 0.15896974E+00 0.71742258E+03</pdfrwt>
<pdfrwt beam="2">  1       -2 0.54863595E-01 0.71742258E+03</pdfrwt>
<totfact> 0.76261837E+01</totfact>
</mgrwt>
</event>
<event>
 4    2  0.3388003E-007  0.7087070E+03  0.7818608E-02  0.9962834E-01
          2   -1    0    0  501    0  0.00000000000E+00  0.00000000000E+00  0.14582327777E+04  0.14582327777E+04  0.25500000000E-02 0. -1.
         -2   -1    0    0    0  501 -0.00000000000E+00 -0.00000000000E+00 -0.40165168248E+03  0.40165168249E+03  0.25500000000E-02 0.  1.
    8880023    1    1    2    0    0 -0.49044742294E+02  0.25700186721E+03 -0.52011704594E+02  0.71061295385E+03  0.65864270000E+03 0.  0.
    8880022    1    1    2    0    0  0.49044742294E+02 -0.25700186721E+03  0.11085927999E+04  0.11492715064E+04  0.15294330000E+03 0.  0.
<mgrwt>
<rscale>  0 0.57310361E+03</rscale>
<asrwt>0</asrwt>
<pdfrwt beam="1">  1        2 0.22434350E+00 0.70870696E+03</pdfrwt>
<pdfrwt beam="2">  1       -2 0.61792567E-01 0.70870696E+03</pdfrwt>
<totfact> 0.33499920E+01</totfact>
</mgrwt>
</event>
<event>
 4    2  0.3388003E-007  0.1114888E+04  0.7818608E-02  0.9244658E-01
         -2   -1    0    0    0  501 -0.00000000000E+00  0.00000000000E+00  0.32087019224E+03  0.32087019225E+03  0.25500000000E-02 0.  1.
          2   -1    0    0  501    0  0.00000000000E+00 -0.00000000000E+00 -0.32395932292E+04  0.32395932292E+04  0.25500000000E-02 0. -1.
    8880023    1    1    2    0    0  0.63891724824E+03  0.63320620201E+03 -0.14133318536E+04  0.18001340170E+04  0.65864270000E+03 0.  0.
    8880022    1    1    2    0    0 -0.63891724824E+03 -0.63320620201E+03 -0.15053911834E+04  0.17603294045E+04  0.15294330000E+03 0.  0.
<mgrwt>
<rscale>  0 0.10604134E+04</rscale>
<asrwt>0</asrwt>
<pdfrwt beam="1">  1        2 0.49839894E+00 0.11148881E+04</pdfrwt>
<pdfrwt beam="2">  1       -2 0.49364647E-01 0.11148881E+04</pdfrwt>
<totfact> 0.48073674E+00</totfact>
</mgrwt>
</event>
<event>
 4    2  0.3388003E-007  0.6707910E+03  0.7818608E-02  0.1015102E+00
         -2   -1    0    0    0  501 -0.00000000000E+00  0.00000000000E+00  0.32618233731E+03  0.32618233732E+03  0.25500000000E-02 0.  1.
          2   -1    0    0  501    0  0.00000000000E+00 -0.00000000000E+00 -0.18631979674E+04  0.18631979674E+04  0.25500000000E-02 0. -1.
    8880023    1    1    2    0    0  0.79931004917E+02 -0.98799893113E+02 -0.32285212107E+02  0.67156751381E+03  0.65864270000E+03 0.  1.
    8880022    1    1    2    0    0 -0.79931004917E+02  0.98799893113E+02 -0.15047304180E+04  0.15178127909E+04  0.15294330000E+03 0.  0.
<mgrwt>
<rscale>  0 0.49496308E+03</rscale>
<asrwt>0</asrwt>
<pdfrwt beam="1">  1        2 0.28664584E+00 0.67079102E+03</pdfrwt>
<pdfrwt beam="2">  1       -2 0.50181899E-01 0.67079102E+03</pdfrwt>
<totfact> 0.31112531E+01</totfact>
</mgrwt>
</event>
<event>
 4    2  0.3388003E-007  0.6732061E+03  0.7818608E-02  0.1013462E+00
         -2   -1    0    0    0  501 -0.00000000000E+00  0.00000000000E+00  0.70145472919E+02  0.70145472965E+02  0.25500000000E-02 0.  1.
          2   -1    0    0  501    0  0.00000000000E+00 -0.00000000000E+00 -0.27631467727E+04  0.27631467727E+04  0.25500000000E-02 0. -1.
    8880023    1    1    2    0    0 -0.16468716995E+02 -0.13829328499E+03 -0.20210433254E+04  0.21302165573E+04  0.65864270000E+03 0.  0.
    8880022    1    1    2    0    0  0.16468716995E+02  0.13829328499E+03 -0.67195797431E+03  0.70307568836E+03  0.15294330000E+03 0. -1.
<mgrwt>
<rscale>  0 0.50121742E+03</rscale>
<asrwt>0</asrwt>
<pdfrwt beam="1">  1        2 0.42509942E+00 0.67320610E+03</pdfrwt>
<pdfrwt beam="2">  1       -2 0.10791613E-01 0.67320610E+03</pdfrwt>
<totfact> 0.15580158E+02</totfact>
</mgrwt>
</event>
<event>
 4    2  0.3388003E-007  0.6617234E+03  0.7818608E-02  0.1022456E+00
         -2   -1    0    0    0  501 -0.00000000000E+00  0.00000000000E+00  0.94165795906E+02  0.94165795941E+02  0.25500000000E-02 0.  1.
          2   -1    0    0  501    0  0.00000000000E+00 -0.00000000000E+00 -0.34969021740E+04  0.34969021740E+04  0.25500000000E-02 0. -1.
    8880023    1    1    2    0    0  0.62131689194E+02  0.14399225489E+02 -0.11094598365E+04  0.12918123004E+04  0.65864270000E+03 0.  1.
    8880022    1    1    2    0    0 -0.62131689194E+02 -0.14399225489E+02 -0.22932765416E+04  0.22992556695E+04  0.15294330000E+03 0.  0.
<mgrwt>
<rscale>  0 0.46810539E+03</rscale>
<asrwt>0</asrwt>
<pdfrwt beam="1">  1        2 0.53798485E+00 0.66172342E+03</pdfrwt>
<pdfrwt beam="2">  1       -2 0.14487048E-01 0.66172342E+03</pdfrwt>
<totfact> 0.33169855E+01</totfact>
</mgrwt>
</event>
<event>
 4    2  0.3388003E-007  0.1439586E+04  0.7818608E-02  0.8953518E-01
         -2   -1    0    0    0  501 -0.00000000000E+00  0.00000000000E+00  0.75551557584E+03  0.75551557584E+03  0.25500000000E-02 0.  1.
          2   -1    0    0  501    0  0.00000000000E+00 -0.00000000000E+00 -0.32003004185E+04  0.32003004185E+04  0.25500000000E-02 0. -1.
    8880023    1    1    2    0    0  0.68684066040E+03 -0.10802076310E+04 -0.32661610324E+03  0.14761730603E+04  0.65864270000E+03 0.  0.
    8880022    1    1    2    0    0 -0.68684066040E+03  0.10802076310E+04 -0.21181687394E+04  0.24796429341E+04  0.15294330000E+03 0.  0.
<mgrwt>
<rscale>  0 0.14004153E+04</rscale>
<asrwt>0</asrwt>
<pdfrwt beam="1">  1        2 0.49235390E+00 0.14395863E+04</pdfrwt>
<pdfrwt beam="2">  1       -2 0.11623317E+00 0.14395863E+04</pdfrwt>
<totfact> 0.71622938E-01</totfact>
</mgrwt>
</event>
<event>
 4    2  0.3388003E-007  0.1051643E+04  0.7818608E-02  0.9316909E-01
          2   -1    0    0  501    0  0.00000000000E+00  0.00000000000E+00  0.97199902959E+03  0.97199902960E+03  0.25500000000E-02 0. -1.
         -2   -1    0    0    0  501 -0.00000000000E+00 -0.00000000000E+00 -0.98738829525E+03  0.98738829525E+03  0.25500000000E-02 0.  1.
    8880023    1    1    2    0    0  0.73706949855E+03 -0.35898610068E+03 -0.27303704253E+03  0.10865090423E+04  0.65864270000E+03 0.  0.
    8880022    1    1    2    0    0 -0.73706949855E+03  0.35898610068E+03  0.25764777688E+03  0.87287828253E+03  0.15294330000E+03 0.  0.
<mgrwt>
<rscale>  0 0.99240972E+03</rscale>
<asrwt>0</asrwt>
<pdfrwt beam="1">  1        2 0.14953831E+00 0.10516428E+04</pdfrwt>
<pdfrwt beam="2">  1       -2 0.15190589E+00 0.10516428E+04</pdfrwt>
<totfact> 0.75075774E+00</totfact>
</mgrwt>
</event>
<event>
 4    2  0.3388003E-007  0.8274263E+03  0.7818608E-02  0.9654361E-01
         -2   -1    0    0    0  501 -0.00000000000E+00  0.00000000000E+00  0.33170719769E+03  0.33170719770E+03  0.25500000000E-02 0.  1.
          2   -1    0    0  501    0  0.00000000000E+00 -0.00000000000E+00 -0.24170315168E+04  0.24170315168E+04  0.25500000000E-02 0. -1.
    8880023    1    1    2    0    0 -0.27088529265E+03  0.42124252349E+03 -0.28710086736E+03  0.87582031243E+03  0.65864270000E+03 0.  1.
    8880022    1    1    2    0    0  0.27088529265E+03 -0.42124252349E+03 -0.17982234518E+04  0.18729184021E+04  0.15294330000E+03 0.  0.
<mgrwt>
<rscale>  0 0.73800372E+03</rscale>
<asrwt>0</asrwt>
<pdfrwt beam="1">  1        2 0.37185099E+00 0.82742632E+03</pdfrwt>
<pdfrwt beam="2">  1       -2 0.51031878E-01 0.82742632E+03</pdfrwt>
<totfact> 0.14573648E+01</totfact>
</mgrwt>
</event>
<event>
 4    2  0.3388003E-007  0.9819245E+03  0.7818608E-02  0.9405598E-01
          2   -1    0    0  501    0  0.00000000000E+00  0.00000000000E+00  0.34834523252E+04  0.34834523252E+04  0.25500000000E-02 0. -1.
         -2   -1    0    0    0  501 -0.00000000000E+00 -0.00000000000E+00 -0.22089819558E+03  0.22089819559E+03  0.25500000000E-02 0.  1.
    8880023    1    1    2    0    0  0.62126392917E+03 -0.37999549089E+03  0.21772816409E+04  0.23884578692E+04  0.65864270000E+03 0.  0.
    8880022    1    1    2    0    0 -0.62126392917E+03  0.37999549089E+03  0.10852724887E+04  0.13158926516E+04  0.15294330000E+03 0.  0.
<mgrwt>
<rscale>  0 0.91616453E+03</rscale>
<asrwt>0</asrwt>
<pdfrwt beam="1">  1        2 0.53591577E+00 0.98192446E+03</pdfrwt>
<pdfrwt beam="2">  1       -2 0.33984336E-01 0.98192446E+03</pdfrwt>
<totfact> 0.70297915E+00</totfact>
</mgrwt>
</event>
<event>
 4    2  0.3388003E-007  0.7063313E+03  0.7818608E-02  0.9971885E-01
          2   -1    0    0  501    0  0.00000000000E+00  0.00000000000E+00  0.12380062345E+04  0.12380062345E+04  0.25500000000E-02 0. -1.
         -2   -1    0    0    0  501 -0.00000000000E+00 -0.00000000000E+00 -0.30812209177E+03  0.30812209178E+03  0.25500000000E-02 0.  1.
    8880023    1    1    2    0    0  0.24789511636E+03 -0.60347083545E+02  0.10151331390E+04  0.12366888273E+04  0.65864270000E+03 0. -1.
    8880022    1    1    2    0    0 -0.24789511636E+03  0.60347083545E+02 -0.85248996279E+02  0.30943949907E+03  0.15294330000E+03 0.  1.
<mgrwt>
<rscale>  0 0.56900400E+03</rscale>
<asrwt>0</asrwt>
<pdfrwt beam="1">  1        2 0.19046250E+00 0.70633134E+03</pdfrwt>
<pdfrwt beam="2">  1       -2 0.47403399E-01 0.70633134E+03</pdfrwt>
<totfact> 0.77394528E+01</totfact>
</mgrwt>
</event>
<event>
 4    2  0.3388003E-007  0.8100024E+03  0.7818608E-02  0.9689572E-01
          2   -1    0    0  501    0  0.00000000000E+00  0.00000000000E+00  0.63039513526E+03  0.63039513527E+03  0.25500000000E-02 0. -1.
         -2   -1    0    0    0  501 -0.00000000000E+00 -0.00000000000E+00 -0.73164616580E+03  0.73164616580E+03  0.25500000000E-02 0.  1.
    8880023    1    1    2    0    0  0.16986956794E+03 -0.43981590325E+03 -0.24448366620E+03  0.84609465674E+03  0.65864270000E+03 0.  1.
    8880022    1    1    2    0    0 -0.16986956794E+03  0.43981590325E+03  0.14323263566E+03  0.51594664433E+03  0.15294330000E+03 0. -1.
<mgrwt>
<rscale>  0 0.71641083E+03</rscale>
<asrwt>0</asrwt>
<pdfrwt beam="1">  1        2 0.96983867E-01 0.81000241E+03</pdfrwt>
<pdfrwt beam="2">  1       -2 0.11256095E+00 0.81000241E+03</pdfrwt>
<totfact> 0.29247445E+01</totfact>
</mgrwt>
</event>
<event>
 4    2  0.3388003E-007  0.7476859E+03  0.7818608E-02  0.9838099E-01
         -2   -1    0    0    0  501 -0.00000000000E+00  0.00000000000E+00  0.34799670523E+03  0.34799670524E+03  0.25500000000E-02 0.  1.
          2   -1    0    0  501    0  0.00000000000E+00 -0.00000000000E+00 -0.17381713301E+04  0.17381713301E+04  0.25500000000E-02 0. -1.
    8880023    1    1    2    0    0  0.17079173692E+03  0.30992618467E+03 -0.11809249886E+03  0.75695449130E+03  0.65864270000E+03 0.  0.
    8880022    1    1    2    0    0 -0.17079173692E+03 -0.30992618467E+03 -0.12720821260E+04  0.13292135441E+04  0.15294330000E+03 0.  0.
<mgrwt>
<rscale>  0 0.63357422E+03</rscale>
<asrwt>0</asrwt>
<pdfrwt beam="1">  1        2 0.26741097E+00 0.74768594E+03</pdfrwt>
<pdfrwt beam="2">  1       -2 0.53537956E-01 0.74768594E+03</pdfrwt>
<totfact> 0.31552002E+01</totfact>
</mgrwt>
</event>
<event>
 4    2  0.3388003E-007  0.6698454E+03  0.7818608E-02  0.1015774E+00
          2   -1    0    0  501    0  0.00000000000E+00  0.00000000000E+00  0.27379608330E+04  0.27379608330E+04  0.25500000000E-02 0. -1.
         -2   -1    0    0    0  501 -0.00000000000E+00 -0.00000000000E+00 -0.38450049312E+03  0.38450049313E+03  0.25500000000E-02 0.  1.
    8880023    1    1    2    0    0 -0.55699130834E+02  0.10853689290E+03 -0.85844505348E+02  0.67532372656E+03  0.65864270000E+03 0.  1.
    8880022    1    1    2    0    0  0.55699130834E+02 -0.10853689290E+03  0.24393048452E+04  0.24471375996E+04  0.15294330000E+03 0.  0.
<mgrwt>
<rscale>  0 0.49242982E+03</rscale>
<asrwt>0</asrwt>
<pdfrwt beam="1">  1        2 0.42122476E+00 0.66984540E+03</pdfrwt>
<pdfrwt beam="2">  1       -2 0.59153920E-01 0.66984540E+03</pdfrwt>
<totfact> 0.72160599E+00</totfact>
</mgrwt>
</event>
<event>
 4    2  0.3388003E-007  0.6739294E+03  0.7818608E-02  0.1012990E+00
         -2   -1    0    0    0  501 -0.00000000000E+00  0.00000000000E+00  0.85901937032E+03  0.85901937033E+03  0.25500000000E-02 0.  1.
          2   -1    0    0  501    0  0.00000000000E+00 -0.00000000000E+00 -0.49612444751E+03  0.49612444751E+03  0.25500000000E-02 0. -1.
    8880023    1    1    2    0    0  0.95219325828E+02  0.10631988626E+03  0.69151070468E+03  0.96559199416E+03  0.65864270000E+03 0.  1.
    8880022    1    1    2    0    0 -0.95219325828E+02 -0.10631988626E+03 -0.32861578187E+03  0.38955182368E+03  0.15294330000E+03 0.  0.
<mgrwt>
<rscale>  0 0.50303513E+03</rscale>
<asrwt>0</asrwt>
<pdfrwt beam="1">  1        2 0.76326839E-01 0.67392941E+03</pdfrwt>
<pdfrwt beam="2">  1       -2 0.13215682E+00 0.67392941E+03</pdfrwt>
<totfact> 0.26378661E+01</totfact>
</mgrwt>
</event>
<event>
 4    2  0.3388003E-007  0.6800481E+03  0.7818608E-02  0.1009296E+00
          2   -1    0    0  501    0  0.00000000000E+00  0.00000000000E+00  0.31248966759E+04  0.31248966759E+04  0.25500000000E-02 0. -1.
         -2   -1    0    0    0  501 -0.00000000000E+00 -0.00000000000E+00 -0.28844937225E+03  0.28844937226E+03  0.25500000000E-02 0.  1.
    8880023    1    1    2    0    0  0.16804665999E+03 -0.20385124803E+02  0.12392558436E+03  0.69124741589E+03  0.65864270000E+03 0.  0.
    8880022    1    1    2    0    0 -0.16804665999E+03  0.20385124803E+02  0.27125217193E+04  0.27220986323E+04  0.15294330000E+03 0. -1.
<mgrwt>
<rscale>  0 0.51755210E+03</rscale>
<asrwt>0</asrwt>
<pdfrwt beam="1">  1        2 0.48075334E+00 0.68004812E+03</pdfrwt>
<pdfrwt beam="2">  1       -2 0.44376826E-01 0.68004812E+03</pdfrwt>
<totfact> 0.75694886E+00</totfact>
</mgrwt>
</event>
<event>
 4    2  0.3388003E-007  0.8849644E+03  0.7818608E-02  0.9550613E-01
         -2   -1    0    0    0  501 -0.00000000000E+00  0.00000000000E+00  0.45465634594E+03  0.45465634595E+03  0.25500000000E-02 0.  1.
          2   -1    0    0  501    0  0.00000000000E+00 -0.00000000000E+00 -0.29509997711E+04  0.29509997711E+04  0.25500000000E-02 0. -1.
    8880023    1    1    2    0    0 -0.80663654020E+01  0.59100487108E+03 -0.52297173361E+02  0.88650833301E+03  0.65864270000E+03 0.  0.
    8880022    1    1    2    0    0  0.80663654020E+01 -0.59100487108E+03 -0.24440462518E+04  0.25191477841E+04  0.15294330000E+03 0.  0.
<mgrwt>
<rscale>  0 0.80653017E+03</rscale>
<asrwt>0</asrwt>
<pdfrwt beam="1">  1        2 0.45399995E+00 0.88496442E+03</pdfrwt>
<pdfrwt beam="2">  1       -2 0.69947132E-01 0.88496442E+03</pdfrwt>
<totfact> 0.36151660E+00</totfact>
</mgrwt>
</event>
<event>
 4    2  0.3388003E-007  0.9506260E+03  0.7818608E-02  0.9449214E-01
         -2   -1    0    0    0  501 -0.00000000000E+00  0.00000000000E+00  0.10230219458E+04  0.10230219458E+04  0.25500000000E-02 0.  1.
          2   -1    0    0  501    0  0.00000000000E+00 -0.00000000000E+00 -0.94404574545E+03  0.94404574545E+03  0.25500000000E-02 0. -1.
    8880023    1    1    2    0    0  0.22373081594E+03  0.64793841856E+03  0.57155530231E+03  0.11092183474E+04  0.65864270000E+03 0.  0.
    8880022    1    1    2    0    0 -0.22373081594E+03 -0.64793841856E+03 -0.49257910192E+03  0.85784934394E+03  0.15294330000E+03 0.  0.
<mgrwt>
<rscale>  0 0.88133905E+03</rscale>
<asrwt>0</asrwt>
<pdfrwt beam="1">  1        2 0.14523781E+00 0.95062605E+03</pdfrwt>
<pdfrwt beam="2">  1       -2 0.15738799E+00 0.95062605E+03</pdfrwt>
<totfact> 0.71877714E+00</totfact>
</mgrwt>
</event>
<event>
 4    2  0.3388003E-007  0.7075045E+03  0.7818608E-02  0.9967387E-01
          2   -1    0    0  501    0  0.00000000000E+00  0.00000000000E+00  0.37747161426E+03  0.37747161427E+03  0.25500000000E-02 0. -1.
         -2   -1    0    0    0  501 -0.00000000000E+00 -0.00000000000E+00 -0.81522995701E+03  0.81522995702E+03  0.25500000000E-02 0.  1.
    8880023    1    1    2    0    0  0.12271328791E+03  0.22736285968E+03 -0.59832707412E+02  0.71002998537E+03  0.65864270000E+03 0. -1.
    8880022    1    1    2    0    0 -0.12271328791E+03 -0.22736285968E+03 -0.37792563534E+03  0.48267158592E+03  0.15294330000E+03 0.  0.
<mgrwt>
<rscale>  0 0.57103675E+03</rscale>
<asrwt>0</asrwt>
<pdfrwt beam="1">  1        2 0.58072556E-01 0.70750451E+03</pdfrwt>
<pdfrwt beam="2">  1       -2 0.12541999E+00 0.70750451E+03</pdfrwt>
<totfact> 0.40937391E+01</totfact>
</mgrwt>
</event>
<event>
 4    2  0.3388003E-007  0.7317820E+03  0.7818608E-02  0.9884566E-01
          2   -1    0    0  501    0  0.00000000000E+00  0.00000000000E+00  0.83939342553E+03  0.83939342553E+03  0.25500000000E-02 0. -1.
         -2   -1    0    0    0  501 -0.00000000000E+00 -0.00000000000E+00 -0.10380806522E+04  0.10380806522E+04  0.25500000000E-02 0.  1.
    8880023    1    1    2    0    0 -0.31541788941E+03  0.46971054299E+02 -0.85897833141E+03  0.11284275364E+04  0.65864270000E+03 0.  1.
    8880022    1    1    2    0    0  0.31541788941E+03 -0.46971054299E+02  0.66029110478E+03  0.74904654126E+03  0.15294330000E+03 0.  0.
<mgrwt>
<rscale>  0 0.61015132E+03</rscale>
<asrwt>0</asrwt>
<pdfrwt beam="1">  1        2 0.12913745E+00 0.73178202E+03</pdfrwt>
<pdfrwt beam="2">  1       -2 0.15970472E+00 0.73178202E+03</pdfrwt>
<totfact> 0.83339713E+00</totfact>
</mgrwt>
</event>
<event>
 4    2  0.3388003E-007  0.1023765E+04  0.7818608E-02  0.9351106E-01
         -2   -1    0    0    0  501 -0.00000000000E+00  0.00000000000E+00  0.17119180341E+04  0.17119180341E+04  0.25500000000E-02 0.  1.
          2   -1    0    0  501    0  0.00000000000E+00 -0.00000000000E+00 -0.87313808129E+03  0.87313808130E+03  0.25500000000E-02 0. -1.
    8880023    1    1    2    0    0 -0.21481758498E+03  0.75374872246E+03  0.13063351202E+04  0.16597003898E+04  0.65864270000E+03 0.  1.
    8880022    1    1    2    0    0  0.21481758498E+03 -0.75374872246E+03 -0.46755516735E+03  0.92535572563E+03  0.15294330000E+03 0.  0.
<mgrwt>
<rscale>  0 0.96211068E+03</rscale>
<asrwt>0</asrwt>
<pdfrwt beam="1">  1        2 0.13432894E+00 0.10237646E+04</pdfrwt>
<pdfrwt beam="2">  1       -2 0.26337200E+00 0.10237646E+04</pdfrwt>
<totfact> 0.16207980E+00</totfact>
</mgrwt>
</event>
<event>
 4    2  0.3388003E-007  0.8349877E+03  0.7818608E-02  0.9639705E-01
         -2   -1    0    0    0  501 -0.00000000000E+00  0.00000000000E+00  0.98610974151E+03  0.98610974151E+03  0.25500000000E-02 0.  1.
          2   -1    0    0  501    0  0.00000000000E+00 -0.00000000000E+00 -0.11159382871E+04  0.11159382871E+04  0.25500000000E-02 0. -1.
    8880023    1    1    2    0    0  0.47475892063E+03  0.19493150587E+03  0.71667246455E+03  0.11003744601E+04  0.65864270000E+03 0.  1.
    8880022    1    1    2    0    0 -0.47475892063E+03 -0.19493150587E+03 -0.84650101013E+03  0.10016735685E+04  0.15294330000E+03 0.  0.
<mgrwt>
<rscale>  0 0.74723089E+03</rscale>
<asrwt>0</asrwt>
<pdfrwt beam="1">  1        2 0.17168281E+00 0.83498774E+03</pdfrwt>
<pdfrwt beam="2">  1       -2 0.15170919E+00 0.83498774E+03</pdfrwt>
<totfact> 0.62493660E+00</totfact>
</mgrwt>
</event>
<event>
 4    2  0.3388003E-007  0.6902800E+03  0.7818608E-02  0.1004020E+00
          2   -1    0    0  501    0  0.00000000000E+00  0.00000000000E+00  0.25555970958E+04  0.25555970958E+04  0.25500000000E-02 0. -1.
         -2   -1    0    0    0  501 -0.00000000000E+00 -0.00000000000E+00 -0.16371625302E+03  0.16371625304E+03  0.25500000000E-02 0.  1.
    8880023    1    1    2    0    0 -0.13532755750E+03  0.15608554556E+03  0.61675426345E+03  0.92567395615E+03  0.65864270000E+03 0.  1.
    8880022    1    1    2    0    0  0.13532755750E+03 -0.15608554556E+03  0.17751265793E+04  0.17936393927E+04  0.15294330000E+03 0.  0.
<mgrwt>
<rscale>  0 0.53922221E+03</rscale>
<asrwt>0</asrwt>
<pdfrwt beam="1">  1        2 0.39316880E+00 0.69027998E+03</pdfrwt>
<pdfrwt beam="2">  1       -2 0.25187115E-01 0.69027998E+03</pdfrwt>
<totfact> 0.48035186E+01</totfact>
</mgrwt>
</event>
<event>
 4    2  0.3388003E-007  0.6839459E+03  0.7818608E-02  0.1007174E+00
          2   -1    0    0  501    0  0.00000000000E+00  0.00000000000E+00  0.20177580953E+04  0.20177580953E+04  0.25500000000E-02 0. -1.
         -2   -1    0    0    0  501 -0.00000000000E+00 -0.00000000000E+00 -0.21517596971E+03  0.21517596973E+03  0.25500000000E-02 0.  1.
    8880023    1    1    2    0    0 -0.16063112179E+02  0.18361324634E+03  0.36443655216E+03  0.77498132534E+03  0.65864270000E+03 0.  1.
    8880022    1    1    2    0    0  0.16063112179E+02 -0.18361324634E+03  0.14381455734E+04  0.14579527397E+04  0.15294330000E+03 0.  0.
<mgrwt>
<rscale>  0 0.52613330E+03</rscale>
<asrwt>0</asrwt>
<pdfrwt beam="1">  1        2 0.31042433E+00 0.68394594E+03</pdfrwt>
<pdfrwt beam="2">  1       -2 0.33103995E-01 0.68394594E+03</pdfrwt>
<totfact> 0.57737930E+01</totfact>
</mgrwt>
</event>
<event>
 4    2  0.3388003E-007  0.6739615E+03  0.7818608E-02  0.1012969E+00
         -2   -1    0    0    0  501 -0.00000000000E+00  0.00000000000E+00  0.15949217352E+04  0.15949217352E+04  0.25500000000E-02 0.  1.
          2   -1    0    0  501    0  0.00000000000E+00 -0.00000000000E+00 -0.43637749243E+03  0.43637749244E+03  0.25500000000E-02 0. -1.
    8880023    1    1    2    0    0 -0.93854216110E+02  0.10772803300E+03  0.14922515808E+04  0.16373878373E+04  0.65864270000E+03 0.  1.
    8880022    1    1    2    0    0  0.93854216110E+02 -0.10772803300E+03 -0.33370733804E+03  0.39391139036E+03  0.15294330000E+03 0.  0.
<mgrwt>
<rscale>  0 0.50311531E+03</rscale>
<asrwt>0</asrwt>
<pdfrwt beam="1">  1        2 0.67134998E-01 0.67396153E+03</pdfrwt>
<pdfrwt beam="2">  1       -2 0.24537258E+00 0.67396153E+03</pdfrwt>
<totfact> 0.51315275E+00</totfact>
</mgrwt>
</event>
<event>
 4    2  0.3388003E-007  0.9047458E+03  0.7818608E-02  0.9518456E-01
         -2   -1    0    0    0  501 -0.00000000000E+00  0.00000000000E+00  0.28795742925E+03  0.28795742926E+03  0.25500000000E-02 0.  1.
          2   -1    0    0  501    0  0.00000000000E+00 -0.00000000000E+00 -0.36855127946E+04  0.36855127947E+04  0.25500000000E-02 0. -1.
    8880023    1    1    2    0    0 -0.37258044743E+03  0.49592194581E+03 -0.55810467185E+03  0.10630361222E+04  0.65864270000E+03 0.  1.
    8880022    1    1    2    0    0  0.37258044743E+03 -0.49592194581E+03 -0.28394506936E+04  0.29104341017E+04  0.15294330000E+03 0.  0.
<mgrwt>
<rscale>  0 0.82936735E+03</rscale>
<asrwt>0</asrwt>
<pdfrwt beam="1">  1        2 0.56700193E+00 0.90474581E+03</pdfrwt>
<pdfrwt beam="2">  1       -2 0.44301146E-01 0.90474581E+03</pdfrwt>
<totfact> 0.30652579E+00</totfact>
</mgrwt>
</event>
<event>
 4    2  0.3388003E-007  0.9158404E+03  0.7818608E-02  0.9501067E-01
         -2   -1    0    0    0  501 -0.00000000000E+00  0.00000000000E+00  0.12578604854E+04  0.12578604854E+04  0.25500000000E-02 0.  1.
          2   -1    0    0  501    0  0.00000000000E+00 -0.00000000000E+00 -0.14443354458E+04  0.14443354458E+04  0.25500000000E-02 0. -1.
    8880023    1    1    2    0    0  0.24963350875E+03 -0.58535162426E+03  0.99452118403E+03  0.13519748535E+04  0.65864270000E+03 0.  0.
    8880022    1    1    2    0    0 -0.24963350875E+03  0.58535162426E+03 -0.11809961444E+04  0.13502210778E+04  0.15294330000E+03 0.  0.
<mgrwt>
<rscale>  0 0.84205230E+03</rscale>
<asrwt>0</asrwt>
<pdfrwt beam="1">  1        2 0.22220545E+00 0.91584039E+03</pdfrwt>
<pdfrwt beam="2">  1       -2 0.19351700E+00 0.91584039E+03</pdfrwt>
<totfact> 0.20125627E+00</totfact>
</mgrwt>
</event>
<event>
 4    2  0.3388003E-007  0.7669801E+03  0.7818608E-02  0.9787361E-01
          2   -1    0    0  501    0  0.00000000000E+00  0.00000000000E+00  0.67953564920E+03  0.67953564921E+03  0.25500000000E-02 0. -1.
         -2   -1    0    0    0  501 -0.00000000000E+00 -0.00000000000E+00 -0.10553091911E+04  0.10553091911E+04  0.25500000000E-02 0.  1.
    8880023    1    1    2    0    0  0.13251804243E+03 -0.36998272316E+03 -0.81968213700E+03  0.11225583544E+04  0.65864270000E+03 0.  1.
    8880022    1    1    2    0    0 -0.13251804243E+03  0.36998272316E+03  0.44390859512E+03  0.61228648592E+03  0.15294330000E+03 0.  0.
<mgrwt>
<rscale>  0 0.66045270E+03</rscale>
<asrwt>0</asrwt>
<pdfrwt beam="1">  1        2 0.10454395E+00 0.76698009E+03</pdfrwt>
<pdfrwt beam="2">  1       -2 0.16235526E+00 0.76698009E+03</pdfrwt>
<totfact> 0.10441930E+01</totfact>
</mgrwt>
</event>
<event>
 4    2  0.4681191E-007  0.7216351E+03  0.7818608E-02  0.9917092E-01
         -2   -1    0    0    0  501 -0.00000000000E+00  0.00000000000E+00  0.16066133410E+04  0.16066133410E+04  0.25500000000E-02 0.  1.
          2   -1    0    0  501    0  0.00000000000E+00 -0.00000000000E+00 -0.14244493672E+04  0.14244493672E+04  0.25500000000E-02 0. -1.
    8880023    1    1    2    0    0  0.20520151859E+03  0.21175308600E+03  0.15039807891E+04  0.16681473115E+04  0.65864270000E+03 0.  1.
    8880022    1    1    2    0    0 -0.20520151859E+03 -0.21175308600E+03 -0.13218168152E+04  0.13629153968E+04  0.15294330000E+03 0.  0.
<mgrwt>
<rscale>  0 0.59440057E+03</rscale>
<asrwt>0</asrwt>
<pdfrwt beam="1">  1        2 0.21914606E+00 0.72163511E+03</pdfrwt>
<pdfrwt beam="2">  1       -2 0.24717128E+00 0.72163511E+03</pdfrwt>
<totfact> 0.98048491E-01</totfact>
</mgrwt>
</event>
<event>
 4    2  0.3388003E-007  0.1363831E+04  0.7818608E-02  0.9012309E-01
          2   -1    0    0  501    0  0.00000000000E+00  0.00000000000E+00  0.10247453230E+04  0.10247453230E+04  0.25500000000E-02 0. -1.
         -2   -1    0    0    0  501 -0.00000000000E+00 -0.00000000000E+00 -0.19072341631E+04  0.19072341631E+04  0.25500000000E-02 0.  1.
    8880023    1    1    2    0    0 -0.71335401778E+03 -0.95778393832E+03  0.11470536083E+03  0.13686458831E+04  0.65864270000E+03 0.  0.
    8880022    1    1    2    0    0  0.71335401778E+03  0.95778393832E+03 -0.99719420090E+03  0.15633336031E+04  0.15294330000E+03 0.  0.
<mgrwt>
<rscale>  0 0.13219863E+04</rscale>
<asrwt>0</asrwt>
<pdfrwt beam="1">  1        2 0.15765313E+00 0.13638307E+04</pdfrwt>
<pdfrwt beam="2">  1       -2 0.29342064E+00 0.13638307E+04</pdfrwt>
<totfact> 0.81300794E-01</totfact>
</mgrwt>
</event>
<event>
 4    2  0.3388003E-007  0.9471279E+03  0.7818608E-02  0.9454258E-01
         -2   -1    0    0    0  501 -0.00000000000E+00  0.00000000000E+00  0.10097132405E+04  0.10097132405E+04  0.25500000000E-02 0.  1.
          2   -1    0    0  501    0  0.00000000000E+00 -0.00000000000E+00 -0.97856494859E+03  0.97856494860E+03  0.25500000000E-02 0. -1.
    8880023    1    1    2    0    0 -0.22255697499E+03 -0.64320255260E+03  0.57122939970E+03  0.11060535087E+04  0.65864270000E+03 0. -1.
    8880022    1    1    2    0    0  0.22255697499E+03  0.64320255260E+03 -0.54008110775E+03  0.88222468043E+03  0.15294330000E+03 0.  0.
<mgrwt>
<rscale>  0 0.87741824E+03</rscale>
<asrwt>0</asrwt>
<pdfrwt beam="1">  1        2 0.15054845E+00 0.94712794E+03</pdfrwt>
<pdfrwt beam="2">  1       -2 0.15534050E+00 0.94712794E+03</pdfrwt>
<totfact> 0.70710475E+00</totfact>
</mgrwt>
</event>
<event>
 4    2  0.3388003E-007  0.9069868E+03  0.7818608E-02  0.9514907E-01
          2   -1    0    0  501    0  0.00000000000E+00  0.00000000000E+00  0.41545189865E+03  0.41545189865E+03  0.25500000000E-02 0. -1.
         -2   -1    0    0    0  501 -0.00000000000E+00 -0.00000000000E+00 -0.17575878945E+04  0.17575878945E+04  0.25500000000E-02 0.  1.
    8880023    1    1    2    0    0  0.14065100969E+03  0.60748014125E+03 -0.12188403181E+04  0.15192750757E+04  0.65864270000E+03 0.  0.
    8880022    1    1    2    0    0 -0.14065100969E+03 -0.60748014125E+03 -0.12329567776E+03  0.65376471740E+03  0.15294330000E+03 0.  0.
<mgrwt>
<rscale>  0 0.83193630E+03</rscale>
<asrwt>0</asrwt>
<pdfrwt beam="1">  1        2 0.63915678E-01 0.90698679E+03</pdfrwt>
<pdfrwt beam="2">  1       -2 0.27039813E+00 0.90698679E+03</pdfrwt>
<totfact> 0.37216594E+00</totfact>
</mgrwt>
</event>
<event>
 4    2  0.3388003E-007  0.6772395E+03  0.7818608E-02  0.1010930E+00
          2   -1    0    0  501    0  0.00000000000E+00  0.00000000000E+00  0.15329185361E+04  0.15329185361E+04  0.25500000000E-02 0. -1.
         -2   -1    0    0    0  501 -0.00000000000E+00 -0.00000000000E+00 -0.17374782177E+03  0.17374782179E+03  0.25500000000E-02 0.  1.
    8880023    1    1    2    0    0  0.15010805637E+03  0.48069766253E+02  0.56279990903E+03  0.88056633758E+03  0.65864270000E+03 0.  1.
    8880022    1    1    2    0    0 -0.15010805637E+03 -0.48069766253E+02  0.79637080529E+03  0.82610002030E+03  0.15294330000E+03 0.  0.
<mgrwt>
<rscale>  0 0.51106572E+03</rscale>
<asrwt>0</asrwt>
<pdfrwt beam="1">  1        2 0.23583362E+00 0.67723950E+03</pdfrwt>
<pdfrwt beam="2">  1       -2 0.26730435E-01 0.67723950E+03</pdfrwt>
<totfact> 0.15782522E+02</totfact>
</mgrwt>
</event>
<event>
 4    2  0.3388003E-007  0.7207531E+03  0.7818608E-02  0.9920046E-01
         -2   -1    0    0    0  501 -0.00000000000E+00  0.00000000000E+00  0.53307628505E+03  0.53307628506E+03  0.25500000000E-02 0.  1.
          2   -1    0    0  501    0  0.00000000000E+00 -0.00000000000E+00 -0.10699861562E+04  0.10699861562E+04  0.25500000000E-02 0. -1.
    8880023    1    1    2    0    0  0.57167158494E+02 -0.28706577830E+03  0.23936241566E+03  0.75945995113E+03  0.65864270000E+03 0.  1.
    8880022    1    1    2    0    0 -0.57167158494E+02  0.28706577830E+03 -0.77627228685E+03  0.84360249018E+03  0.15294330000E+03 0.  0.
<mgrwt>
<rscale>  0 0.59299539E+03</rscale>
<asrwt>0</asrwt>
<pdfrwt beam="1">  1        2 0.16461325E+00 0.72075311E+03</pdfrwt>
<pdfrwt beam="2">  1       -2 0.82011737E-01 0.72075311E+03</pdfrwt>
<totfact> 0.30315751E+01</totfact>
</mgrwt>
</event>
<event>
 4    2  0.3388003E-007  0.9953127E+03  0.7818608E-02  0.9387716E-01
         -2   -1    0    0    0  501 -0.00000000000E+00  0.00000000000E+00  0.34709862242E+03  0.34709862243E+03  0.25500000000E-02 0.  1.
          2   -1    0    0  501    0  0.00000000000E+00 -0.00000000000E+00 -0.24507800925E+04  0.24507800925E+04  0.25500000000E-02 0. -1.
    8880023    1    1    2    0    0  0.24861275153E+03 -0.70358294300E+03 -0.16012350138E+04  0.18853649603E+04  0.65864270000E+03 0. -1.
    8880022    1    1    2    0    0 -0.24861275153E+03  0.70358294300E+03 -0.50244645625E+03  0.91251375459E+03  0.15294330000E+03 0.  0.
<mgrwt>
<rscale>  0 0.93093551E+03</rscale>
<asrwt>0</asrwt>
<pdfrwt beam="1">  1        2 0.37704308E+00 0.99531275E+03</pdfrwt>
<pdfrwt beam="2">  1       -2 0.53399790E-01 0.99531275E+03</pdfrwt>
<totfact> 0.12430103E+01</totfact>
</mgrwt>
</event>
<event>
 4    2  0.3388003E-007  0.6683311E+03  0.7818608E-02  0.1016889E+00
         -2   -1    0    0    0  501 -0.00000000000E+00  0.00000000000E+00  0.28799132792E+03  0.28799132793E+03  0.25500000000E-02 0.  1.
          2   -1    0    0  501    0  0.00000000000E+00 -0.00000000000E+00 -0.99474402684E+03  0.99474402685E+03  0.25500000000E-02 0. -1.
    8880023    1    1    2    0    0 -0.35946270226E+02  0.10753646990E+03 -0.13728656062E+03  0.68228588780E+03  0.65864270000E+03 0.  1.
    8880022    1    1    2    0    0  0.35946270226E+02 -0.10753646990E+03 -0.56946613831E+03  0.60044946698E+03  0.15294330000E+03 0.  0.
<mgrwt>
<rscale>  0 0.48826329E+03</rscale>
<asrwt>0</asrwt>
<pdfrwt beam="1">  1        2 0.15303754E+00 0.66833108E+03</pdfrwt>
<pdfrwt beam="2">  1       -2 0.44306359E-01 0.66833108E+03</pdfrwt>
<totfact> 0.12491857E+02</totfact>
</mgrwt>
</event>
<event>
 4    2  0.3388003E-007  0.8498342E+03  0.7818608E-02  0.9611909E-01
          2   -1    0    0  501    0  0.00000000000E+00  0.00000000000E+00  0.11331747221E+04  0.11331747221E+04  0.25500000000E-02 0. -1.
         -2   -1    0    0    0  501 -0.00000000000E+00 -0.00000000000E+00 -0.13212788097E+04  0.13212788097E+04  0.25500000000E-02 0.  1.
    8880023    1    1    2    0    0  0.50635160980E+03  0.17893036823E+03 -0.10970388793E+04  0.13877004498E+04  0.65864270000E+03 0.  1.
    8880022    1    1    2    0    0 -0.50635160980E+03 -0.17893036823E+03  0.90893479169E+03  0.10667530820E+04  0.15294330000E+03 0.  0.
<mgrwt>
<rscale>  0 0.76512982E+03</rscale>
<asrwt>0</asrwt>
<pdfrwt beam="1">  1        2 0.17433457E+00 0.84983424E+03</pdfrwt>
<pdfrwt beam="2">  1       -2 0.20327366E+00 0.84983424E+03</pdfrwt>
<totfact> 0.26618160E+00</totfact>
</mgrwt>
</event>
<event>
 4    2  0.3388003E-007  0.1168090E+04  0.7818608E-02  0.9188783E-01
          2   -1    0    0  501    0  0.00000000000E+00  0.00000000000E+00  0.14619140377E+04  0.14619140377E+04  0.25500000000E-02 0. -1.
         -2   -1    0    0    0  501 -0.00000000000E+00 -0.00000000000E+00 -0.11933650074E+04  0.11933650074E+04  0.25500000000E-02 0.  1.
    8880023    1    1    2    0    0  0.46993984918E+03  0.84248467981E+03 -0.63082171316E+03  0.13275428948E+04  0.65864270000E+03 0.  1.
    8880022    1    1    2    0    0 -0.46993984918E+03 -0.84248467981E+03  0.89937074348E+03  0.13277361503E+04  0.15294330000E+03 0.  0.
<mgrwt>
<rscale>  0 0.11169961E+04</rscale>
<asrwt>0</asrwt>
<pdfrwt beam="1">  1        2 0.22490985E+00 0.11680899E+04</pdfrwt>
<pdfrwt beam="2">  1       -2 0.18359462E+00 0.11680899E+04</pdfrwt>
<totfact> 0.22248455E+00</totfact>
</mgrwt>
</event>
<event>
 4    2  0.3388003E-007  0.6671623E+03  0.7818608E-02  0.1017784E+00
         -2   -1    0    0    0  501 -0.00000000000E+00  0.00000000000E+00  0.55633276227E+03  0.55633276227E+03  0.25500000000E-02 0.  1.
          2   -1    0    0  501    0  0.00000000000E+00 -0.00000000000E+00 -0.13523416037E+04  0.13523416037E+04  0.25500000000E-02 0. -1.
    8880023    1    1    2    0    0  0.45306614654E+02  0.96138888510E+02  0.34602225358E+03  0.75155637277E+03  0.65864270000E+03 0.  1.
    8880022    1    1    2    0    0 -0.45306614654E+02 -0.96138888510E+02 -0.11420310950E+04  0.11571179932E+04  0.15294330000E+03 0.  0.
<mgrwt>
<rscale>  0 0.48494728E+03</rscale>
<asrwt>0</asrwt>
<pdfrwt beam="1">  1        2 0.20805255E+00 0.66716234E+03</pdfrwt>
<pdfrwt beam="2">  1       -2 0.85589656E-01 0.66716234E+03</pdfrwt>
<totfact> 0.18870745E+01</totfact>
</mgrwt>
</event>
<event>
 4    2  0.3388003E-007  0.6841942E+03  0.7818608E-02  0.1007044E+00
          2   -1    0    0  501    0  0.00000000000E+00  0.00000000000E+00  0.96252401342E+03  0.96252401343E+03  0.25500000000E-02 0. -1.
         -2   -1    0    0    0  501 -0.00000000000E+00 -0.00000000000E+00 -0.35657519049E+03  0.35657519050E+03  0.25500000000E-02 0.  1.
    8880023    1    1    2    0    0 -0.36427086224E+02 -0.18161656944E+03  0.18510877159E+02  0.68444457025E+03  0.65864270000E+03 0.  1.
    8880022    1    1    2    0    0  0.36427086224E+02  0.18161656944E+03  0.58743794577E+03  0.63465463368E+03  0.15294330000E+03 0.  0.
<mgrwt>
<rscale>  0 0.52666505E+03</rscale>
<asrwt>0</asrwt>
<pdfrwt beam="1">  1        2 0.14808062E+00 0.68419421E+03</pdfrwt>
<pdfrwt beam="2">  1       -2 0.54857722E-01 0.68419421E+03</pdfrwt>
<totfact> 0.84864260E+01</totfact>
</mgrwt>
</event>
<event>
 4    2  0.3388003E-007  0.6757789E+03  0.7818608E-02  0.1011820E+00
         -2   -1    0    0    0  501 -0.00000000000E+00  0.00000000000E+00  0.55136535313E+03  0.55136535313E+03  0.25500000000E-02 0.  1.
          2   -1    0    0  501    0  0.00000000000E+00 -0.00000000000E+00 -0.42226727719E+03  0.42226727720E+03  0.25500000000E-02 0. -1.
    8880023    1    1    2    0    0  0.34438605731E+02 -0.14724453388E+03  0.25746065657E+03  0.72316192258E+03  0.65864270000E+03 0. -1.
    8880022    1    1    2    0    0 -0.34438605731E+02  0.14724453388E+03 -0.12836258063E+03  0.25047070775E+03  0.15294330000E+03 0.  0.
<mgrwt>
<rscale>  0 0.50757775E+03</rscale>
<asrwt>0</asrwt>
<pdfrwt beam="1">  1        2 0.64964197E-01 0.67577894E+03</pdfrwt>
<pdfrwt beam="2">  1       -2 0.84825439E-01 0.67577894E+03</pdfrwt>
<totfact> 0.91869459E+01</totfact>
</mgrwt>
</event>
<event>
 4    2  0.3388003E-007  0.1005963E+04  0.7818608E-02  0.9373798E-01
         -2   -1    0    0    0  501 -0.00000000000E+00  0.00000000000E+00  0.11915484179E+04  0.11915484179E+04  0.25500000000E-02 0.  1.
          2   -1    0    0  501    0  0.00000000000E+00 -0.00000000000E+00 -0.96412955400E+03  0.96412955401E+03  0.25500000000E-02 0. -1.
    8880023    1    1    2    0    0 -0.75160602954E+03  0.11506135053E+03  0.71982870090E+03  0.12369778910E+04  0.65864270000E+03 0.  1.
    8880022    1    1    2    0    0  0.75160602954E+03 -0.11506135053E+03 -0.49240983699E+03  0.91870008088E+03  0.15294330000E+03 0.  0.
<mgrwt>
<rscale>  0 0.94263744E+03</rscale>
<asrwt>0</asrwt>
<pdfrwt beam="1">  1        2 0.14832762E+00 0.10059627E+04</pdfrwt>
<pdfrwt beam="2">  1       -2 0.18331514E+00 0.10059627E+04</pdfrwt>
<totfact> 0.45307682E+00</totfact>
</mgrwt>
</event>
<event>
 4    2  0.3388003E-007  0.6954227E+03  0.7818608E-02  0.1001675E+00
         -2   -1    0    0    0  501 -0.00000000000E+00  0.00000000000E+00  0.10787386198E+04  0.10787386198E+04  0.25500000000E-02 0.  1.
          2   -1    0    0  501    0  0.00000000000E+00 -0.00000000000E+00 -0.47334706274E+03  0.47334706274E+03  0.25500000000E-02 0. -1.
    8880023    1    1    2    0    0 -0.22219958966E+03  0.20732044413E+02  0.90959691372E+03  0.11449800116E+04  0.65864270000E+03 0.  1.
    8880022    1    1    2    0    0  0.22219958966E+03 -0.20732044413E+02 -0.30420535662E+03  0.40710567096E+03  0.15294330000E+03 0.  0.
<mgrwt>
<rscale>  0 0.54921977E+03</rscale>
<asrwt>0</asrwt>
<pdfrwt beam="1">  1        2 0.72822625E-01 0.69542266E+03</pdfrwt>
<pdfrwt beam="2">  1       -2 0.16595979E+00 0.69542266E+03</pdfrwt>
<totfact> 0.15252507E+01</totfact>
</mgrwt>
</event>
<event>
 4    2  0.3388003E-007  0.8561477E+03  0.7818608E-02  0.9600453E-01
         -2   -1    0    0    0  501 -0.00000000000E+00  0.00000000000E+00  0.70986609015E+03  0.70986609015E+03  0.25500000000E-02 0.  1.
          2   -1    0    0  501    0  0.00000000000E+00 -0.00000000000E+00 -0.86683358115E+03  0.86683358115E+03  0.25500000000E-02 0. -1.
    8880023    1    1    2    0    0  0.28051704859E+03 -0.46956243029E+03 -0.41670557127E+03  0.95217247906E+03  0.65864270000E+03 0.  1.
    8880022    1    1    2    0    0 -0.28051704859E+03  0.46956243029E+03  0.25973808027E+03  0.62452719224E+03  0.15294330000E+03 0.  0.
<mgrwt>
<rscale>  0 0.77266204E+03</rscale>
<asrwt>0</asrwt>
<pdfrwt beam="1">  1        2 0.13335901E+00 0.85614771E+03</pdfrwt>
<pdfrwt beam="2">  1       -2 0.10921017E+00 0.85614771E+03</pdfrwt>
<totfact> 0.20763426E+01</totfact>
</mgrwt>
</event>
<event>
 4    2  0.3547123E-007  0.6783837E+03  0.7818608E-02  0.1010253E+00
         -2   -1    0    0    0  501 -0.00000000000E+00  0.00000000000E+00  0.17380633156E+04  0.17380633156E+04  0.25500000000E-02 0.  1.
          2   -1    0    0  501    0  0.00000000000E+00 -0.00000000000E+00 -0.94551551186E+03  0.94551551186E+03  0.25500000000E-02 0. -1.
    8880023    1    1    2    0    0 -0.95466054333E+01 -0.16218225731E+03  0.16571610560E+04  0.17906387671E+04  0.65864270000E+03 0.  1.
    8880022    1    1    2    0    0  0.95466054333E+01  0.16218225731E+03 -0.86461325233E+03  0.89294006035E+03  0.15294330000E+03 0.  0.
<mgrwt>
<rscale>  0 0.51374170E+03</rscale>
<asrwt>0</asrwt>
<pdfrwt beam="1">  1        2 0.14546393E+00 0.67838369E+03</pdfrwt>
<pdfrwt beam="2">  1       -2 0.26739436E+00 0.67838369E+03</pdfrwt>
<totfact> 0.14448766E+00</totfact>
</mgrwt>
</event>
<event>
 4    2  0.3388003E-007  0.7628032E+03  0.7818608E-02  0.9797904E-01
         -2   -1    0    0    0  501 -0.00000000000E+00  0.00000000000E+00  0.29110868923E+03  0.29110868924E+03  0.25500000000E-02 0.  1.
          2   -1    0    0  501    0  0.00000000000E+00 -0.00000000000E+00 -0.16914804714E+04  0.16914804714E+04  0.25500000000E-02 0. -1.
    8880023    1    1    2    0    0  0.16301834297E+03  0.34854488682E+03 -0.32296769457E+03  0.82835792763E+03  0.65864270000E+03 0.  1.
    8880022    1    1    2    0    0 -0.16301834297E+03 -0.34854488682E+03 -0.10774040876E+04  0.11542312330E+04  0.15294330000E+03 0.  0.
<mgrwt>
<rscale>  0 0.65475168E+03</rscale>
<asrwt>0</asrwt>
<pdfrwt beam="1">  1        2 0.26022776E+00 0.76280320E+03</pdfrwt>
<pdfrwt beam="2">  1       -2 0.44785953E-01 0.76280320E+03</pdfrwt>
<totfact> 0.47972934E+01</totfact>
</mgrwt>
</event>
<event>
 4    2  0.3388003E-007  0.8149355E+03  0.7818608E-02  0.9679387E-01
          2   -1    0    0  501    0  0.00000000000E+00  0.00000000000E+00  0.19168176541E+04  0.19168176541E+04  0.25500000000E-02 0. -1.
         -2   -1    0    0    0  501 -0.00000000000E+00 -0.00000000000E+00 -0.26208441252E+03  0.26208441253E+03  0.25500000000E-02 0.  1.
    8880023    1    1    2    0    0 -0.15993788908E+03  0.45247039360E+03  0.60624076558E+03  0.10157005748E+04  0.65864270000E+03 0.  0.
    8880022    1    1    2    0    0  0.15993788908E+03 -0.45247039360E+03  0.10484924760E+04  0.11632014919E+04  0.15294330000E+03 0.  0.
<mgrwt>
<rscale>  0 0.72257467E+03</rscale>
<asrwt>0</asrwt>
<pdfrwt beam="1">  1        2 0.29489502E+00 0.81493545E+03</pdfrwt>
<pdfrwt beam="2">  1       -2 0.40320679E-01 0.81493545E+03</pdfrwt>
<totfact> 0.44196921E+01</totfact>
</mgrwt>
</event>
<event>
 4    2  0.3388003E-007  0.1175282E+04  0.7818608E-02  0.9181532E-01
         -2   -1    0    0    0  501 -0.00000000000E+00  0.00000000000E+00  0.10514939022E+04  0.10514939022E+04  0.25500000000E-02 0.  1.
          2   -1    0    0  501    0  0.00000000000E+00 -0.00000000000E+00 -0.19487491990E+04  0.19487491990E+04  0.25500000000E-02 0. -1.
    8880023    1    1    2    0    0  0.68627925883E+03 -0.69028944817E+03  0.51095212852E+03  0.12815463422E+04  0.65864270000E+03 0.  1.
    8880022    1    1    2    0    0 -0.68627925883E+03  0.69028944817E+03 -0.14082074253E+04  0.17186967589E+04  0.15294330000E+03 0.  0.
<mgrwt>
<rscale>  0 0.11246098E+04</rscale>
<asrwt>0</asrwt>
<pdfrwt beam="1">  1        2 0.29980757E+00 0.11752825E+04</pdfrwt>
<pdfrwt beam="2">  1       -2 0.16176829E+00 0.11752825E+04</pdfrwt>
<totfact> 0.17004341E+00</totfact>
</mgrwt>
</event>
<event>
 4    2  0.3388003E-007  0.6884653E+03  0.7818608E-02  0.1004891E+00
         -2   -1    0    0    0  501 -0.00000000000E+00  0.00000000000E+00  0.26164086314E+03  0.26164086315E+03  0.25500000000E-02 0.  1.
          2   -1    0    0  501    0  0.00000000000E+00 -0.00000000000E+00 -0.94740093554E+03  0.94740093555E+03  0.25500000000E-02 0. -1.
    8880023    1    1    2    0    0  0.16636523742E+03 -0.11178910744E+03 -0.30646159792E+03  0.75359346734E+03  0.65864270000E+03 0.  1.
    8880022    1    1    2    0    0 -0.16636523742E+03  0.11178910744E+03 -0.37929847449E+03  0.45544833135E+03  0.15294330000E+03 0.  0.
<mgrwt>
<rscale>  0 0.53556785E+03</rscale>
<asrwt>0</asrwt>
<pdfrwt beam="1">  1        2 0.14575399E+00 0.68846525E+03</pdfrwt>
<pdfrwt beam="2">  1       -2 0.40252441E-01 0.68846525E+03</pdfrwt>
<totfact> 0.16162773E+02</totfact>
</mgrwt>
</event>
<event>
 4    2  0.4721378E-007  0.8977224E+03  0.7818608E-02  0.9529698E-01
          2   -1    0    0  501    0  0.00000000000E+00  0.00000000000E+00  0.13937635458E+04  0.13937635458E+04  0.25500000000E-02 0. -1.
         -2   -1    0    0    0  501 -0.00000000000E+00 -0.00000000000E+00 -0.20081251803E+04  0.20081251803E+04  0.25500000000E-02 0.  1.
    8880023    1    1    2    0    0  0.91073198446E+02  0.60315910045E+03 -0.18271340904E+04  0.20357613855E+04  0.65864270000E+03 0.  1.
    8880022    1    1    2    0    0 -0.91073198446E+02 -0.60315910045E+03  0.12127724559E+04  0.13661273406E+04  0.15294330000E+03 0.  0.
<mgrwt>
<rscale>  0 0.82129285E+03</rscale>
<asrwt>0</asrwt>
<pdfrwt beam="1">  1        2 0.21442516E+00 0.89772236E+03</pdfrwt>
<pdfrwt beam="2">  1       -2 0.30894233E+00 0.89772236E+03</pdfrwt>
<totfact> 0.41851553E-01</totfact>
</mgrwt>
</event>
<event>
 4    2  0.3388003E-007  0.6683142E+03  0.7818608E-02  0.1016901E+00
         -2   -1    0    0    0  501 -0.00000000000E+00  0.00000000000E+00  0.58223731683E+03  0.58223731684E+03  0.25500000000E-02 0.  1.
          2   -1    0    0  501    0  0.00000000000E+00 -0.00000000000E+00 -0.82251175388E+03  0.82251175389E+03  0.25500000000E-02 0. -1.
    8880023    1    1    2    0    0 -0.36688397443E+02 -0.10718050686E+03  0.37109974140E+03  0.76443372760E+03  0.65864270000E+03 0.  1.
    8880022    1    1    2    0    0  0.36688397443E+02  0.10718050686E+03 -0.61137417845E+03  0.64031534313E+03  0.15294330000E+03 0.  0.
<mgrwt>
<rscale>  0 0.48821611E+03</rscale>
<asrwt>0</asrwt>
<pdfrwt beam="1">  1        2 0.12654027E+00 0.66831423E+03</pdfrwt>
<pdfrwt beam="2">  1       -2 0.89574972E-01 0.66831423E+03</pdfrwt>
<totfact> 0.36231590E+01</totfact>
</mgrwt>
</event>
<event>
 4    2  0.3388003E-007  0.7615917E+03  0.7818608E-02  0.9801004E-01
          2   -1    0    0  501    0  0.00000000000E+00  0.00000000000E+00  0.98315403639E+03  0.98315403640E+03  0.25500000000E-02 0. -1.
         -2   -1    0    0    0  501 -0.00000000000E+00 -0.00000000000E+00 -0.75988644913E+03  0.75988644913E+03  0.25500000000E-02 0.  1.
    8880023    1    1    2    0    0  0.27123054721E+03  0.26952853362E+03 -0.49977959858E+03  0.91093440686E+03  0.65864270000E+03 0.  0.
    8880022    1    1    2    0    0 -0.27123054721E+03 -0.26952853362E+03  0.72304718585E+03  0.83210607867E+03  0.15294330000E+03 0.  0.
<mgrwt>
<rscale>  0 0.65308682E+03</rscale>
<asrwt>0</asrwt>
<pdfrwt beam="1">  1        2 0.15125447E+00 0.76159165E+03</pdfrwt>
<pdfrwt beam="2">  1       -2 0.11690561E+00 0.76159165E+03</pdfrwt>
<totfact> 0.14853397E+01</totfact>
</mgrwt>
</event>
<event>
 4    2  0.3388003E-007  0.7057195E+03  0.7818608E-02  0.9974254E-01
          2   -1    0    0  501    0  0.00000000000E+00  0.00000000000E+00  0.15967712697E+04  0.15967712697E+04  0.25500000000E-02 0. -1.
         -2   -1    0    0    0  501 -0.00000000000E+00 -0.00000000000E+00 -0.23893735054E+03  0.23893735056E+03  0.25500000000E-02 0.  1.
    8880023    1    1    2    0    0 -0.23325316722E+03 -0.99109614856E+02  0.35476026257E+03  0.78987011966E+03  0.65864270000E+03 0.  0.
    8880022    1    1    2    0    0  0.23325316722E+03  0.99109614856E+02  0.10030736566E+04  0.10458385006E+04  0.15294330000E+03 0.  0.
<mgrwt>
<rscale>  0 0.56793725E+03</rscale>
<asrwt>0</asrwt>
<pdfrwt beam="1">  1        2 0.24565712E+00 0.70571946E+03</pdfrwt>
<pdfrwt beam="2">  1       -2 0.36759592E-01 0.70571946E+03</pdfrwt>
<totfact> 0.80042497E+01</totfact>
</mgrwt>
</event>
<event>
 4    2  0.3388003E-007  0.8329017E+03  0.7818608E-02  0.9643713E-01
         -2   -1    0    0    0  501 -0.00000000000E+00  0.00000000000E+00  0.46577361962E+03  0.46577361962E+03  0.25500000000E-02 0.  1.
          2   -1    0    0  501    0  0.00000000000E+00 -0.00000000000E+00 -0.17871354592E+04  0.17871354592E+04  0.25500000000E-02 0. -1.
    8880023    1    1    2    0    0  0.23133978034E+03 -0.45430936558E+03 -0.48994643467E+01  0.83291614502E+03  0.65864270000E+03 0.  1.
    8880022    1    1    2    0    0 -0.23133978034E+03  0.45430936558E+03 -0.13164623753E+04  0.14199929338E+04  0.15294330000E+03 0.  0.
<mgrwt>
<rscale>  0 0.74469329E+03</rscale>
<asrwt>0</asrwt>
<pdfrwt beam="1">  1        2 0.27494391E+00 0.83290173E+03</pdfrwt>
<pdfrwt beam="2">  1       -2 0.71657481E-01 0.83290173E+03</pdfrwt>
<totfact> 0.15784813E+01</totfact>
</mgrwt>
</event>
<event>
 4    2  0.3388003E-007  0.1330815E+04  0.7818608E-02  0.9039396E-01
         -2   -1    0    0    0  501 -0.00000000000E+00  0.00000000000E+00  0.64228849638E+03  0.64228849638E+03  0.25500000000E-02 0.  1.
          2   -1    0    0  501    0  0.00000000000E+00 -0.00000000000E+00 -0.38812663649E+04  0.38812663649E+04  0.25500000000E-02 0. -1.
    8880023    1    1    2    0    0  0.94447407126E+03 -0.66725330165E+03 -0.30374831721E+03  0.13650390054E+04  0.65864270000E+03 0.  0.
    8880022    1    1    2    0    0 -0.94447407126E+03  0.66725330165E+03 -0.29352295513E+04  0.31585158558E+04  0.15294330000E+03 0.  0.
<mgrwt>
<rscale>  0 0.12876759E+04</rscale>
<asrwt>0</asrwt>
<pdfrwt beam="1">  1        2 0.59711789E+00 0.13308150E+04</pdfrwt>
<pdfrwt beam="2">  1       -2 0.98813617E-01 0.13308150E+04</pdfrwt>
<totfact> 0.35782365E-01</totfact>
</mgrwt>
</event>
<event>
 4    2  0.3388003E-007  0.8505088E+03  0.7818608E-02  0.9610675E-01
          2   -1    0    0  501    0  0.00000000000E+00  0.00000000000E+00  0.65409643393E+03  0.65409643394E+03  0.25500000000E-02 0. -1.
         -2   -1    0    0    0  501 -0.00000000000E+00 -0.00000000000E+00 -0.99118411120E+03  0.99118411120E+03  0.25500000000E-02 0.  1.
    8880023    1    1    2    0    0  0.52471042712E+03  0.11930603684E+03 -0.58614909211E+03  0.10329259060E+04  0.65864270000E+03 0.  1.
    8880022    1    1    2    0    0 -0.52471042712E+03 -0.11930603684E+03  0.24906141485E+03  0.61235463918E+03  0.15294330000E+03 0.  0.
<mgrwt>
<rscale>  0 0.76593670E+03</rscale>
<asrwt>0</asrwt>
<pdfrwt beam="1">  1        2 0.10063022E+00 0.85050877E+03</pdfrwt>
<pdfrwt beam="2">  1       -2 0.15248986E+00 0.85050877E+03</pdfrwt>
<totfact> 0.12861918E+01</totfact>
</mgrwt>
</event>
<event>
 4    2  0.3388003E-007  0.6737729E+03  0.7818608E-02  0.1013091E+00
         -2   -1    0    0    0  501 -0.00000000000E+00  0.00000000000E+00  0.67804187120E+03  0.67804187120E+03  0.25500000000E-02 0.  1.
          2   -1    0    0  501    0  0.00000000000E+00 -0.00000000000E+00 -0.29013996451E+03  0.29013996453E+03  0.25500000000E-02 0. -1.
    8880023    1    1    2    0    0  0.42037167369E+02 -0.13561946205E+03  0.33710513813E+03  0.75339886006E+03  0.65864270000E+03 0. -1.
    8880022    1    1    2    0    0 -0.42037167369E+02  0.13561946205E+03  0.50796768558E+02  0.21478297567E+03  0.15294330000E+03 0.  0.
<mgrwt>
<rscale>  0 0.50264394E+03</rscale>
<asrwt>0</asrwt>
<pdfrwt beam="1">  1        2 0.44636918E-01 0.67377294E+03</pdfrwt>
<pdfrwt beam="2">  1       -2 0.10431413E+00 0.67377294E+03</pdfrwt>
<totfact> 0.86254456E+01</totfact>
</mgrwt>
</event>
<event>
 4    2  0.3388003E-007  0.6612769E+03  0.7818608E-02  0.1022885E+00
         -2   -1    0    0    0  501 -0.00000000000E+00  0.00000000000E+00  0.31563441199E+03  0.31563441200E+03  0.25500000000E-02 0.  1.
          2   -1    0    0  501    0  0.00000000000E+00 -0.00000000000E+00 -0.73743184122E+03  0.73743184122E+03  0.25500000000E-02 0. -1.
    8880023    1    1    2    0    0 -0.43823377829E+02 -0.39452016684E+02 -0.70020152788E+02  0.66497366724E+03  0.65864270000E+03 0.  1.
    8880022    1    1    2    0    0  0.43823377829E+02  0.39452016684E+02 -0.35177727643E+03  0.38809258598E+03  0.15294330000E+03 0.  0.
<mgrwt>
<rscale>  0 0.46659830E+03</rscale>
<asrwt>0</asrwt>
<pdfrwt beam="1">  1        2 0.11345105E+00 0.66127691E+03</pdfrwt>
<pdfrwt beam="2">  1       -2 0.48559141E-01 0.66127691E+03</pdfrwt>
<totfact> 0.15638497E+02</totfact>
</mgrwt>
</event>
<event>
 4    2  0.3388003E-007  0.7575481E+03  0.7818608E-02  0.9811497E-01
         -2   -1    0    0    0  501 -0.00000000000E+00  0.00000000000E+00  0.70288081557E+03  0.70288081557E+03  0.25500000000E-02 0.  1.
          2   -1    0    0  501    0  0.00000000000E+00 -0.00000000000E+00 -0.92530169143E+03  0.92530169144E+03  0.25500000000E-02 0. -1.
    8880023    1    1    2    0    0  0.33204088989E+03 -0.17267808942E+03  0.42220663357E+03  0.86725862510E+03  0.65864270000E+03 0.  1.
    8880022    1    1    2    0    0 -0.33204088989E+03  0.17267808942E+03 -0.64462750943E+03  0.76092388191E+03  0.15294330000E+03 0.  0.
<mgrwt>
<rscale>  0 0.64749178E+03</rscale>
<asrwt>0</asrwt>
<pdfrwt beam="1">  1        2 0.14235411E+00 0.75754807E+03</pdfrwt>
<pdfrwt beam="2">  1       -2 0.10813551E+00 0.75754807E+03</pdfrwt>
<totfact> 0.19595669E+01</totfact>
</mgrwt>
</event>
<event>
 4    2  0.3388003E-007  0.7662670E+03  0.7818608E-02  0.9789145E-01
         -2   -1    0    0    0  501 -0.00000000000E+00  0.00000000000E+00  0.39105867498E+03  0.39105867499E+03  0.25500000000E-02 0.  1.
          2   -1    0    0  501    0  0.00000000000E+00 -0.00000000000E+00 -0.13303025485E+04  0.13303025485E+04  0.25500000000E-02 0. -1.
    8880023    1    1    2    0    0  0.26702074634E+03 -0.28645210280E+03 -0.87161704626E+02  0.77120830856E+03  0.65864270000E+03 0.  1.
    8880022    1    1    2    0    0 -0.26702074634E+03  0.28645210280E+03 -0.85208216885E+03  0.95015291489E+03  0.15294330000E+03 0.  0.
<mgrwt>
<rscale>  0 0.65948352E+03</rscale>
<asrwt>0</asrwt>
<pdfrwt beam="1">  1        2 0.20466193E+00 0.76626699E+03</pdfrwt>
<pdfrwt beam="2">  1       -2 0.60162874E-01 0.76626699E+03</pdfrwt>
<totfact> 0.41620008E+01</totfact>
</mgrwt>
</event>
<event>
 4    2  0.3388003E-007  0.8309602E+03  0.7818608E-02  0.9647467E-01
         -2   -1    0    0    0  501 -0.00000000000E+00  0.00000000000E+00  0.34144950364E+03  0.34144950365E+03  0.25500000000E-02 0.  1.
          2   -1    0    0  501    0  0.00000000000E+00 -0.00000000000E+00 -0.18069262406E+04  0.18069262406E+04  0.25500000000E-02 0. -1.
    8880023    1    1    2    0    0 -0.12015060179E+03 -0.49218740660E+03 -0.32714874541E+03  0.89304037882E+03  0.65864270000E+03 0.  1.
    8880022    1    1    2    0    0  0.12015060179E+03  0.49218740660E+03 -0.11383279916E+04  0.12553353655E+04  0.15294330000E+03 0.  0.
<mgrwt>
<rscale>  0 0.74232604E+03</rscale>
<asrwt>0</asrwt>
<pdfrwt beam="1">  1        2 0.27798865E+00 0.83096018E+03</pdfrwt>
<pdfrwt beam="2">  1       -2 0.52530694E-01 0.83096018E+03</pdfrwt>
<totfact> 0.29800581E+01</totfact>
</mgrwt>
</event>
<event>
 4    2  0.3388003E-007  0.6703762E+03  0.7818608E-02  0.1015395E+00
          2   -1    0    0  501    0  0.00000000000E+00  0.00000000000E+00  0.12991938466E+04  0.12991938466E+04  0.25500000000E-02 0. -1.
         -2   -1    0    0    0  501 -0.00000000000E+00 -0.00000000000E+00 -0.34038910793E+03  0.34038910794E+03  0.25500000000E-02 0.  1.
    8880023    1    1    2    0    0  0.84817700978E+02 -0.91651814925E+02  0.99995136291E+01  0.67045081409E+03  0.65864270000E+03 0.  1.
    8880022    1    1    2    0    0 -0.84817700978E+02  0.91651814925E+02  0.94880522503E+03  0.96913214044E+03  0.15294330000E+03 0.  0.
<mgrwt>
<rscale>  0 0.49385812E+03</rscale>
<asrwt>0</asrwt>
<pdfrwt beam="1">  1        2 0.19987598E+00 0.67037624E+03</pdfrwt>
<pdfrwt beam="2">  1       -2 0.52367555E-01 0.67037624E+03</pdfrwt>
<totfact> 0.58471192E+01</totfact>
</mgrwt>
</event>
<event>
 4    2  0.3388003E-007  0.6729770E+03  0.7818608E-02  0.1013613E+00
          2   -1    0    0  501    0  0.00000000000E+00  0.00000000000E+00  0.17803120661E+04  0.17803120661E+04  0.25500000000E-02 0. -1.
         -2   -1    0    0    0  501 -0.00000000000E+00 -0.00000000000E+00 -0.14799100755E+03  0.14799100757E+03  0.25500000000E-02 0.  1.
    8880023    1    1    2    0    0 -0.39458116503E+02  0.13240424036E+03  0.69053637935E+03  0.96422949721E+03  0.65864270000E+03 0.  1.
    8880022    1    1    2    0    0  0.39458116503E+02 -0.13240424036E+03  0.94178467922E+03  0.96407357647E+03  0.15294330000E+03 0.  0.
<mgrwt>
<rscale>  0 0.50063656E+03</rscale>
<asrwt>0</asrwt>
<pdfrwt beam="1">  1        2 0.27389418E+00 0.67297699E+03</pdfrwt>
<pdfrwt beam="2">  1       -2 0.22767846E-01 0.67297699E+03</pdfrwt>
<totfact> 0.15425547E+02</totfact>
</mgrwt>
</event>
<event>
 4    2  0.3388003E-007  0.7264227E+03  0.7818608E-02  0.9901424E-01
         -2   -1    0    0    0  501 -0.00000000000E+00  0.00000000000E+00  0.46449177370E+03  0.46449177371E+03  0.25500000000E-02 0.  1.
          2   -1    0    0  501    0  0.00000000000E+00 -0.00000000000E+00 -0.25816768984E+04  0.25816768984E+04  0.25500000000E-02 0. -1.
    8880023    1    1    2    0    0 -0.26663442572E+03 -0.15094957149E+03  0.15962095075E+03  0.74375314742E+03  0.65864270000E+03 0.  1.
    8880022    1    1    2    0    0  0.26663442572E+03  0.15094957149E+03 -0.22768060754E+04  0.23024155246E+04  0.15294330000E+03 0.  0.
<mgrwt>
<rscale>  0 0.60192313E+03</rscale>
<asrwt>0</asrwt>
<pdfrwt beam="1">  1        2 0.39718105E+00 0.72642267E+03</pdfrwt>
<pdfrwt beam="2">  1       -2 0.71460275E-01 0.72642267E+03</pdfrwt>
<totfact> 0.58561369E+00</totfact>
</mgrwt>
</event>
<event>
 4    2  0.3388003E-007  0.7533510E+03  0.7818608E-02  0.9822635E-01
          2   -1    0    0  501    0  0.00000000000E+00  0.00000000000E+00  0.13664196671E+04  0.13664196671E+04  0.25500000000E-02 0. -1.
         -2   -1    0    0    0  501 -0.00000000000E+00 -0.00000000000E+00 -0.24202683428E+03  0.24202683429E+03  0.25500000000E-02 0.  1.
    8880023    1    1    2    0    0 -0.34248443143E+03  0.12818726595E+03  0.75714460732E+03  0.10680850732E+04  0.65864270000E+03 0.  0.
    8880022    1    1    2    0    0  0.34248443143E+03 -0.12818726595E+03  0.36724822546E+03  0.54036142816E+03  0.15294330000E+03 0.  1.
<mgrwt>
<rscale>  0 0.64161824E+03</rscale>
<asrwt>0</asrwt>
<pdfrwt beam="1">  1        2 0.21021841E+00 0.75335103E+03</pdfrwt>
<pdfrwt beam="2">  1       -2 0.37234898E-01 0.75335103E+03</pdfrwt>
<totfact> 0.10453580E+02</totfact>
</mgrwt>
</event>
<event>
 4    2  0.3388003E-007  0.6907532E+03  0.7818608E-02  0.1003797E+00
         -2   -1    0    0    0  501 -0.00000000000E+00  0.00000000000E+00  0.43497452445E+03  0.43497452446E+03  0.25500000000E-02 0.  1.
          2   -1    0    0  501    0  0.00000000000E+00 -0.00000000000E+00 -0.98130893071E+03  0.98130893072E+03  0.25500000000E-02 0. -1.
    8880023    1    1    2    0    0 -0.59653346519E+02  0.19942738095E+03  0.12048503820E+03  0.70118232487E+03  0.65864270000E+03 0.  0.
    8880022    1    1    2    0    0  0.59653346519E+02 -0.19942738095E+03 -0.66681944447E+03  0.71510113030E+03  0.15294330000E+03 0.  0.
<mgrwt>
<rscale>  0 0.54016368E+03</rscale>
<asrwt>0</asrwt>
<pdfrwt beam="1">  1        2 0.15097060E+00 0.69075322E+03</pdfrwt>
<pdfrwt beam="2">  1       -2 0.66919158E-01 0.69075322E+03</pdfrwt>
<totfact> 0.54185427E+01</totfact>
</mgrwt>
</event>
<event>
 4    2  0.3388003E-007  0.9539761E+03  0.7818608E-02  0.9444416E-01
          2   -1    0    0  501    0  0.00000000000E+00  0.00000000000E+00  0.25856746069E+04  0.25856746069E+04  0.25500000000E-02 0. -1.
         -2   -1    0    0    0  501 -0.00000000000E+00 -0.00000000000E+00 -0.30263909081E+03  0.30263909082E+03  0.25500000000E-02 0.  1.
    8880023    1    1    2    0    0 -0.17787841575E+03 -0.66679797458E+03  0.79839609586E+03  0.12439882644E+04  0.65864270000E+03 0.  0.
    8880022    1    1    2    0    0  0.17787841575E+03  0.66679797458E+03  0.14846394202E+04  0.16443254334E+04  0.15294330000E+03 0.  0.
<mgrwt>
<rscale>  0 0.88508826E+03</rscale>
<asrwt>0</asrwt>
<pdfrwt beam="1">  1        2 0.39779608E+00 0.95397614E+03</pdfrwt>
<pdfrwt beam="2">  1       -2 0.46559861E-01 0.95397614E+03</pdfrwt>
<totfact> 0.13835465E+01</totfact>
</mgrwt>
</event>
<event>
 4    2  0.3388003E-007  0.9382609E+03  0.7818608E-02  0.9467209E-01
         -2   -1    0    0    0  501 -0.00000000000E+00  0.00000000000E+00  0.37658116997E+03  0.37658116998E+03  0.25500000000E-02 0.  1.
          2   -1    0    0  501    0  0.00000000000E+00 -0.00000000000E+00 -0.18646757885E+04  0.18646757885E+04  0.25500000000E-02 0. -1.
    8880023    1    1    2    0    0 -0.46507621104E+03 -0.47982016224E+03 -0.57847187861E+03  0.11022536871E+04  0.65864270000E+03 0.  0.
    8880022    1    1    2    0    0  0.46507621104E+03  0.47982016224E+03 -0.90962273992E+03  0.11390032714E+04  0.15294330000E+03 0.  1.
<mgrwt>
<rscale>  0 0.86745132E+03</rscale>
<asrwt>0</asrwt>
<pdfrwt beam="1">  1        2 0.28687319E+00 0.93826088E+03</pdfrwt>
<pdfrwt beam="2">  1       -2 0.57935566E-01 0.93826088E+03</pdfrwt>
<totfact> 0.22336904E+01</totfact>
</mgrwt>
</event>
<event>
 4    2  0.3388003E-007  0.6958953E+03  0.7818608E-02  0.1001467E+00
         -2   -1    0    0    0  501 -0.00000000000E+00  0.00000000000E+00  0.50736738090E+03  0.50736738091E+03  0.25500000000E-02 0.  1.
          2   -1    0    0  501    0  0.00000000000E+00 -0.00000000000E+00 -0.17372607515E+04  0.17372607515E+04  0.25500000000E-02 0. -1.
    8880023    1    1    2    0    0  0.69601271976E+00 -0.22463197843E+03  0.25041669485E+03  0.73958010891E+03  0.65864270000E+03 0.  1.
    8880022    1    1    2    0    0 -0.69601271976E+00  0.22463197843E+03 -0.14803100655E+04  0.15050480235E+04  0.15294330000E+03 0.  0.
<mgrwt>
<rscale>  0 0.55011431E+03</rscale>
<asrwt>0</asrwt>
<pdfrwt beam="1">  1        2 0.26727088E+00 0.69589526E+03</pdfrwt>
<pdfrwt beam="2">  1       -2 0.78056521E-01 0.69589526E+03</pdfrwt>
<totfact> 0.14163038E+01</totfact>
</mgrwt>
</event>
<event>
 4    2  0.3388003E-007  0.9425687E+03  0.7818608E-02  0.9460888E-01
          2   -1    0    0  501    0  0.00000000000E+00  0.00000000000E+00  0.95582239942E+03  0.95582239942E+03  0.25500000000E-02 0. -1.
         -2   -1    0    0    0  501 -0.00000000000E+00 -0.00000000000E+00 -0.89774153651E+03  0.89774153651E+03  0.25500000000E-02 0.  1.
    8880023    1    1    2    0    0  0.39412069038E+03 -0.54707805868E+03 -0.40027781477E+03  0.10240400657E+04  0.65864270000E+03 0.  1.
    8880022    1    1    2    0    0 -0.39412069038E+03  0.54707805868E+03  0.45835867768E+03  0.82952387024E+03  0.15294330000E+03 0.  1.
<mgrwt>
<rscale>  0 0.87229864E+03</rscale>
<asrwt>0</asrwt>
<pdfrwt beam="1">  1        2 0.14704960E+00 0.94256869E+03</pdfrwt>
<pdfrwt beam="2">  1       -2 0.13811408E+00 0.94256869E+03</pdfrwt>
<totfact> 0.99807791E+00</totfact>
</mgrwt>
</event>
<event>
 4    2  0.3388003E-007  0.7294381E+03  0.7818608E-02  0.9891856E-01
         -2   -1    0    0    0  501 -0.00000000000E+00  0.00000000000E+00  0.62237614709E+03  0.62237614710E+03  0.25500000000E-02 0.  1.
          2   -1    0    0  501    0  0.00000000000E+00 -0.00000000000E+00 -0.46706691985E+03  0.46706691986E+03  0.25500000000E-02 0. -1.
    8880023    1    1    2    0    0  0.10522979605E+03 -0.29529031955E+03  0.11119467024E+03  0.73786458361E+03  0.65864270000E+03 0.  0.
    8880022    1    1    2    0    0 -0.10522979605E+03  0.29529031955E+03  0.44114556994E+02  0.35157848334E+03  0.15294330000E+03 0.  1.
<mgrwt>
<rscale>  0 0.60657623E+03</rscale>
<asrwt>0</asrwt>
<pdfrwt beam="1">  1        2 0.71856449E-01 0.72943806E+03</pdfrwt>
<pdfrwt beam="2">  1       -2 0.95750177E-01 0.72943806E+03</pdfrwt>
<totfact> 0.61743710E+01</totfact>
</mgrwt>
</event>
<event>
 4    2  0.3388003E-007  0.9585672E+03  0.7818608E-02  0.9437893E-01
         -2   -1    0    0    0  501 -0.00000000000E+00  0.00000000000E+00  0.49368928018E+03  0.49368928018E+03  0.25500000000E-02 0.  1.
          2   -1    0    0  501    0  0.00000000000E+00 -0.00000000000E+00 -0.20422783242E+04  0.20422783242E+04  0.25500000000E-02 0. -1.
    8880023    1    1    2    0    0  0.30457450598E+02  0.69578250280E+03 -0.15563697042E+03  0.97111998245E+03  0.65864270000E+03 0.  1.
    8880022    1    1    2    0    0 -0.30457450598E+02 -0.69578250280E+03 -0.13929520736E+04  0.15648476219E+04  0.15294330000E+03 0.  0.
<mgrwt>
<rscale>  0 0.89021747E+03</rscale>
<asrwt>0</asrwt>
<pdfrwt beam="1">  1        2 0.31419666E+00 0.95856724E+03</pdfrwt>
<pdfrwt beam="2">  1       -2 0.75952198E-01 0.95856724E+03</pdfrwt>
<totfact> 0.99035113E+00</totfact>
</mgrwt>
</event>
<event>
 4    2  0.3388003E-007  0.1137829E+04  0.7818608E-02  0.9220063E-01
         -2   -1    0    0    0  501 -0.00000000000E+00  0.00000000000E+00  0.78741847565E+03  0.78741847565E+03  0.25500000000E-02 0.  1.
          2   -1    0    0  501    0  0.00000000000E+00 -0.00000000000E+00 -0.16429535038E+04  0.16429535038E+04  0.25500000000E-02 0. -1.
    8880023    1    1    2    0    0 -0.92743463957E+03 -0.26641978438E+02  0.30671711861E+02  0.11382424021E+04  0.65864270000E+03 0.  1.
    8880022    1    1    2    0    0  0.92743463957E+03  0.26641978438E+02 -0.88620674000E+03  0.12921295774E+04  0.15294330000E+03 0. -1.
<mgrwt>
<rscale>  0 0.10848728E+04</rscale>
<asrwt>0</asrwt>
<pdfrwt beam="1">  1        2 0.25276208E+00 0.11378291E+04</pdfrwt>
<pdfrwt beam="2">  1       -2 0.12114130E+00 0.11378291E+04</pdfrwt>
<totfact> 0.53670783E+00</totfact>
</mgrwt>
</event>
<event>
 4    2  0.3388003E-007  0.7089505E+03  0.7818608E-02  0.9961919E-01
         -2   -1    0    0    0  501 -0.00000000000E+00  0.00000000000E+00  0.20705540754E+03  0.20705540756E+03  0.25500000000E-02 0.  1.
          2   -1    0    0  501    0  0.00000000000E+00 -0.00000000000E+00 -0.16641863821E+04  0.16641863821E+04  0.25500000000E-02 0. -1.
    8880023    1    1    2    0    0 -0.12110759666E+03 -0.23266630342E+03 -0.50113494049E+03  0.86818609385E+03  0.65864270000E+03 0.  0.
    8880022    1    1    2    0    0  0.12110759666E+03  0.23266630342E+03 -0.95599603405E+03  0.10030556958E+04  0.15294330000E+03 0.  0.
<mgrwt>
<rscale>  0 0.57352029E+03</rscale>
<asrwt>0</asrwt>
<pdfrwt beam="1">  1        2 0.25602867E+00 0.70895054E+03</pdfrwt>
<pdfrwt beam="2">  1       -2 0.31854679E-01 0.70895054E+03</pdfrwt>
<totfact> 0.96399872E+01</totfact>
</mgrwt>
</event>
<event>
 4    2  0.3388003E-007  0.8896519E+03  0.7818608E-02  0.9542852E-01
         -2   -1    0    0    0  501 -0.00000000000E+00  0.00000000000E+00  0.95331545371E+03  0.95331545371E+03  0.25500000000E-02 0.  1.
          2   -1    0    0  501    0  0.00000000000E+00 -0.00000000000E+00 -0.64661054810E+03  0.64661054811E+03  0.25500000000E-02 0. -1.
    8880023    1    1    2    0    0  0.46657512908E+02 -0.59623270642E+03 -0.42556060582E+02  0.89066918004E+03  0.65864270000E+03 0.  0.
    8880022    1    1    2    0    0 -0.46657512908E+02  0.59623270642E+03  0.34926096619E+03  0.70925682178E+03  0.15294330000E+03 0.  0.
<mgrwt>
<rscale>  0 0.81196920E+03</rscale>
<asrwt>0</asrwt>
<pdfrwt beam="1">  1        2 0.99478546E-01 0.88965194E+03</pdfrwt>
<pdfrwt beam="2">  1       -2 0.14666392E+00 0.88965194E+03</pdfrwt>
<totfact> 0.14415720E+01</totfact>
</mgrwt>
</event>
<event>
 4    2  0.3388003E-007  0.6652875E+03  0.7818608E-02  0.1019293E+00
         -2   -1    0    0    0  501 -0.00000000000E+00  0.00000000000E+00  0.25324281974E+03  0.25324281976E+03  0.25500000000E-02 0.  1.
          2   -1    0    0  501    0  0.00000000000E+00 -0.00000000000E+00 -0.72578460838E+03  0.72578460838E+03  0.25500000000E-02 0. -1.
    8880023    1    1    2    0    0  0.18412986034E+02 -0.91968342004E+02 -0.29890395257E+03  0.72934970564E+03  0.65864270000E+03 0.  0.
    8880022    1    1    2    0    0 -0.18412986034E+02  0.91968342004E+02 -0.17363783606E+03  0.24967772250E+03  0.15294330000E+03 0.  1.
<mgrwt>
<rscale>  0 0.47942450E+03</rscale>
<asrwt>0</asrwt>
<pdfrwt beam="1">  1        2 0.11165917E+00 0.66528747E+03</pdfrwt>
<pdfrwt beam="2">  1       -2 0.38960434E-01 0.66528747E+03</pdfrwt>
<totfact> 0.24665481E+02</totfact>
</mgrwt>
</event>
<event>
 4    2  0.3388003E-007  0.6902635E+03  0.7818608E-02  0.1004028E+00
          2   -1    0    0  501    0  0.00000000000E+00  0.00000000000E+00  0.17258959514E+04  0.17258959514E+04  0.25500000000E-02 0. -1.
         -2   -1    0    0    0  501 -0.00000000000E+00 -0.00000000000E+00 -0.37673730089E+03  0.37673730090E+03  0.25500000000E-02 0.  1.
    8880023    1    1    2    0    0 -0.17950995135E+03  0.10212559544E+03 -0.38540022125E+02  0.69133855632E+03  0.65864270000E+03 0.  1.
    8880022    1    1    2    0    0  0.17950995135E+03 -0.10212559544E+03  0.13876986726E+04  0.14112946960E+04  0.15294330000E+03 0.  0.
<mgrwt>
<rscale>  0 0.53918929E+03</rscale>
<asrwt>0</asrwt>
<pdfrwt beam="1">  1        2 0.26552246E+00 0.69026348E+03</pdfrwt>
<pdfrwt beam="2">  1       -2 0.57959584E-01 0.69026348E+03</pdfrwt>
<totfact> 0.27369390E+01</totfact>
</mgrwt>
</event>
<event>
 4    2  0.3388003E-007  0.9455478E+03  0.7818608E-02  0.9456549E-01
         -2   -1    0    0    0  501 -0.00000000000E+00  0.00000000000E+00  0.48447251150E+03  0.48447251151E+03  0.25500000000E-02 0.  1.
          2   -1    0    0  501    0  0.00000000000E+00 -0.00000000000E+00 -0.20409256437E+04  0.20409256437E+04  0.25500000000E-02 0. -1.
    8880023    1    1    2    0    0  0.53705190494E+03 -0.41451852327E+03 -0.15666521239E+04  0.18298796240E+04  0.65864270000E+03 0. -1.
    8880022    1    1    2    0    0 -0.53705190494E+03  0.41451852327E+03  0.10198991765E+02  0.69551853116E+03  0.15294330000E+03 0.  0.
<mgrwt>
<rscale>  0 0.87564506E+03</rscale>
<asrwt>0</asrwt>
<pdfrwt beam="1">  1        2 0.31398856E+00 0.94554776E+03</pdfrwt>
<pdfrwt beam="2">  1       -2 0.74534233E-01 0.94554776E+03</pdfrwt>
<totfact> 0.10361433E+01</totfact>
</mgrwt>
</event>
<event>
 4    2  0.5956556E-007  0.9708273E+03  0.7818608E-02  0.9420761E-01
         -2   -1    0    0    0  501 -0.00000000000E+00  0.00000000000E+00  0.19510524256E+04  0.19510524256E+04  0.25500000000E-02 0.  1.
          2   -1    0    0  501    0  0.00000000000E+00 -0.00000000000E+00 -0.15178594682E+04  0.15178594682E+04  0.25500000000E-02 0. -1.
    8880023    1    1    2    0    0  0.60504357998E+03  0.37764770340E+03  0.17284187652E+04  0.19824069097E+04  0.65864270000E+03 0.  0.
    8880022    1    1    2    0    0 -0.60504357998E+03 -0.37764770340E+03 -0.12952258078E+04  0.14865049841E+04  0.15294330000E+03 0.  0.
<mgrwt>
<rscale>  0 0.90386662E+03</rscale>
<asrwt>0</asrwt>
<pdfrwt beam="1">  1        2 0.23351684E+00 0.97082734E+03</pdfrwt>
<pdfrwt beam="2">  1       -2 0.30016191E+00 0.97082734E+03</pdfrwt>
<totfact> 0.39740549E-01</totfact>
</mgrwt>
</event>
<event>
 4    2  0.3388003E-007  0.9285777E+03  0.7818608E-02  0.9481630E-01
         -2   -1    0    0    0  501 -0.00000000000E+00  0.00000000000E+00  0.89968326204E+03  0.89968326204E+03  0.25500000000E-02 0.  1.
          2   -1    0    0  501    0  0.00000000000E+00 -0.00000000000E+00 -0.95297879767E+03  0.95297879767E+03  0.25500000000E-02 0. -1.
    8880023    1    1    2    0    0 -0.76597576269E+02 -0.65006087119E+03  0.43145148493E+03  0.10239174357E+04  0.65864270000E+03 0. -1.
    8880022    1    1    2    0    0  0.76597576269E+02  0.65006087119E+03 -0.48474702056E+03  0.82874462405E+03  0.15294330000E+03 0.  1.
<mgrwt>
<rscale>  0 0.85651806E+03</rscale>
<asrwt>0</asrwt>
<pdfrwt beam="1">  1        2 0.14661212E+00 0.92857769E+03</pdfrwt>
<pdfrwt beam="2">  1       -2 0.13841281E+00 0.92857769E+03</pdfrwt>
<totfact> 0.99808919E+00</totfact>
</mgrwt>
</event>
<event>
 4    2  0.3388003E-007  0.6913096E+03  0.7818608E-02  0.1003536E+00
         -2   -1    0    0    0  501 -0.00000000000E+00  0.00000000000E+00  0.28924772119E+03  0.28924772120E+03  0.25500000000E-02 0.  1.
          2   -1    0    0  501    0  0.00000000000E+00 -0.00000000000E+00 -0.88320046916E+03  0.88320046917E+03  0.25500000000E-02 0. -1.
    8880023    1    1    2    0    0  0.20573430632E+03 -0.42096977703E+02 -0.23666861614E+03  0.73069898074E+03  0.65864270000E+03 0.  0.
    8880022    1    1    2    0    0 -0.20573430632E+03  0.42096977703E+02 -0.35728413184E+03  0.44174920963E+03  0.15294330000E+03 0.  0.
<mgrwt>
<rscale>  0 0.54126470E+03</rscale>
<asrwt>0</asrwt>
<pdfrwt beam="1">  1        2 0.13587699E+00 0.69130960E+03</pdfrwt>
<pdfrwt beam="2">  1       -2 0.44499650E-01 0.69130960E+03</pdfrwt>
<totfact> 0.14634857E+02</totfact>
</mgrwt>
</event>
<event>
 4    2  0.3388003E-007  0.7283804E+03  0.7818608E-02  0.9895187E-01
         -2   -1    0    0    0  501 -0.00000000000E+00  0.00000000000E+00  0.30457714856E+03  0.30457714857E+03  0.25500000000E-02 0.  1.
          2   -1    0    0  501    0  0.00000000000E+00 -0.00000000000E+00 -0.10814042096E+04  0.10814042096E+04  0.25500000000E-02 0. -1.
    8880023    1    1    2    0    0 -0.97573005575E+02 -0.29530871465E+03 -0.28028789416E+03  0.78044810093E+03  0.65864270000E+03 0.  0.
    8880022    1    1    2    0    0  0.97573005575E+02  0.29530871465E+03 -0.49653916686E+03  0.60553325723E+03  0.15294330000E+03 0.  0.
<mgrwt>
<rscale>  0 0.60495114E+03</rscale>
<asrwt>0</asrwt>
<pdfrwt beam="1">  1        2 0.16636988E+00 0.72838035E+03</pdfrwt>
<pdfrwt beam="2">  1       -2 0.46858023E-01 0.72838035E+03</pdfrwt>
<totfact> 0.98127241E+01</totfact>
</mgrwt>
</event>
<event>
 4    2  0.3388003E-007  0.1027477E+04  0.7818608E-02  0.9346461E-01
          2   -1    0    0  501    0  0.00000000000E+00  0.00000000000E+00  0.11205511664E+04  0.11205511664E+04  0.25500000000E-02 0. -1.
         -2   -1    0    0    0  501 -0.00000000000E+00 -0.00000000000E+00 -0.79513257129E+03  0.79513257129E+03  0.25500000000E-02 0.  1.
    8880023    1    1    2    0    0  0.78855028080E+03  0.93291059171E+01 -0.50624716349E+02  0.10287233086E+04  0.65864270000E+03 0.  0.
    8880022    1    1    2    0    0 -0.78855028080E+03 -0.93291059171E+01  0.37604331142E+03  0.88696042902E+03  0.15294330000E+03 0.  0.
<mgrwt>
<rscale>  0 0.96615863E+03</rscale>
<asrwt>0</asrwt>
<pdfrwt beam="1">  1        2 0.17239249E+00 0.10274769E+04</pdfrwt>
<pdfrwt beam="2">  1       -2 0.12232809E+00 0.10274769E+04</pdfrwt>
<totfact> 0.10603348E+01</totfact>
</mgrwt>
</event>
<event>
 4    2  0.3388003E-007  0.8040403E+03  0.7818608E-02  0.9702127E-01
          2   -1    0    0  501    0  0.00000000000E+00  0.00000000000E+00  0.20046067287E+04  0.20046067287E+04  0.25500000000E-02 0. -1.
         -2   -1    0    0    0  501 -0.00000000000E+00 -0.00000000000E+00 -0.30797204272E+03  0.30797204273E+03  0.25500000000E-02 0.  1.
    8880023    1    1    2    0    0  0.43621582406E+03 -0.14962058058E+03  0.34255543411E+03  0.87397082045E+03  0.65864270000E+03 0.  0.
    8880022    1    1    2    0    0 -0.43621582406E+03  0.14962058058E+03  0.13540792519E+04  0.14386079510E+04  0.15294330000E+03 0.  0.
<mgrwt>
<rscale>  0 0.70890275E+03</rscale>
<asrwt>0</asrwt>
<pdfrwt beam="1">  1        2 0.30840103E+00 0.80404028E+03</pdfrwt>
<pdfrwt beam="2">  1       -2 0.47380315E-01 0.80404028E+03</pdfrwt>
<totfact> 0.28762493E+01</totfact>
</mgrwt>
</event>
<event>
 4    2  0.3388003E-007  0.7409855E+03  0.7818608E-02  0.9857086E-01
          2   -1    0    0  501    0  0.00000000000E+00  0.00000000000E+00  0.10841136698E+04  0.10841136698E+04  0.25500000000E-02 0. -1.
         -2   -1    0    0    0  501 -0.00000000000E+00 -0.00000000000E+00 -0.85451128954E+03  0.85451128954E+03  0.25500000000E-02 0.  1.
    8880023    1    1    2    0    0  0.31375160817E+03 -0.12965016699E+03 -0.64859620400E+03  0.98475198885E+03  0.65864270000E+03 0.  1.
    8880022    1    1    2    0    0 -0.31375160817E+03  0.12965016699E+03  0.87819858421E+03  0.95387297045E+03  0.15294330000E+03 0.  0.
<mgrwt>
<rscale>  0 0.62386939E+03</rscale>
<asrwt>0</asrwt>
<pdfrwt beam="1">  1        2 0.16678672E+00 0.74098545E+03</pdfrwt>
<pdfrwt beam="2">  1       -2 0.13146328E+00 0.74098545E+03</pdfrwt>
<totfact> 0.95924742E+00</totfact>
</mgrwt>
</event>
<event>
 4    2  0.3388003E-007  0.6753578E+03  0.7818608E-02  0.1012082E+00
         -2   -1    0    0    0  501 -0.00000000000E+00  0.00000000000E+00  0.15770528912E+03  0.15770528914E+03  0.25500000000E-02 0.  1.
          2   -1    0    0  501    0  0.00000000000E+00 -0.00000000000E+00 -0.26218611287E+04  0.26218611287E+04  0.25500000000E-02 0. -1.
    8880023    1    1    2    0    0 -0.14390707540E+03  0.39857964307E+02 -0.60058085236E+03  0.90377290851E+03  0.65864270000E+03 0.  1.
    8880022    1    1    2    0    0  0.14390707540E+03 -0.39857964307E+02 -0.18635749872E+04  0.18757935094E+04  0.15294330000E+03 0.  0.
<mgrwt>
<rscale>  0 0.50655609E+03</rscale>
<asrwt>0</asrwt>
<pdfrwt beam="1">  1        2 0.40336322E+00 0.67535776E+03</pdfrwt>
<pdfrwt beam="2">  1       -2 0.24262354E-01 0.67535776E+03</pdfrwt>
<totfact> 0.47193484E+01</totfact>
</mgrwt>
</event>
<event>
 4    2  0.3388003E-007  0.7929727E+03  0.7818608E-02  0.9726202E-01
          2   -1    0    0  501    0  0.00000000000E+00  0.00000000000E+00  0.59830639690E+03  0.59830639690E+03  0.25500000000E-02 0. -1.
         -2   -1    0    0    0  501 -0.00000000000E+00 -0.00000000000E+00 -0.66404738252E+03  0.66404738253E+03  0.25500000000E-02 0.  1.
    8880023    1    1    2    0    0  0.43937399078E+03  0.44112890676E+02 -0.27011436241E+02  0.79343258998E+03  0.65864270000E+03 0. -1.
    8880022    1    1    2    0    0 -0.43937399078E+03 -0.44112890676E+02 -0.38729549382E+02  0.46892118944E+03  0.15294330000E+03 0.  1.
<mgrwt>
<rscale>  0 0.69477957E+03</rscale>
<asrwt>0</asrwt>
<pdfrwt beam="1">  1        2 0.92047138E-01 0.79297267E+03</pdfrwt>
<pdfrwt beam="2">  1       -2 0.10216114E+00 0.79297267E+03</pdfrwt>
<totfact> 0.39428825E+01</totfact>
</mgrwt>
</event>
<event>
 4    2  0.3388003E-007  0.7167687E+03  0.7818608E-02  0.9933675E-01
          2   -1    0    0  501    0  0.00000000000E+00  0.00000000000E+00  0.12907789306E+04  0.12907789306E+04  0.25500000000E-02 0. -1.
         -2   -1    0    0    0  501 -0.00000000000E+00 -0.00000000000E+00 -0.64100468509E+03  0.64100468510E+03  0.25500000000E-02 0.  1.
    8880023    1    1    2    0    0  0.10931041957E+03 -0.26076503850E+03 -0.40902296486E+03  0.82526187672E+03  0.65864270000E+03 0.  1.
    8880022    1    1    2    0    0 -0.10931041957E+03  0.26076503850E+03  0.10587972104E+04  0.11065217390E+04  0.15294330000E+03 0.  0.
<mgrwt>
<rscale>  0 0.58656645E+03</rscale>
<asrwt>0</asrwt>
<pdfrwt beam="1">  1        2 0.19858137E+00 0.71676871E+03</pdfrwt>
<pdfrwt beam="2">  1       -2 0.98616107E-01 0.71676871E+03</pdfrwt>
<totfact> 0.14645488E+01</totfact>
</mgrwt>
</event>
<event>
 4    2  0.3388003E-007  0.6699480E+03  0.7818608E-02  0.1015700E+00
          2   -1    0    0  501    0  0.00000000000E+00  0.00000000000E+00  0.14202767653E+04  0.14202767653E+04  0.25500000000E-02 0. -1.
         -2   -1    0    0    0  501 -0.00000000000E+00 -0.00000000000E+00 -0.32943124547E+03  0.32943124548E+03  0.25500000000E-02 0.  1.
    8880023    1    1    2    0    0 -0.10850003048E+03  0.56990377899E+02  0.29690406200E+02  0.67060561157E+03  0.65864270000E+03 0.  1.
    8880022    1    1    2    0    0  0.10850003048E+03 -0.56990377899E+02  0.10611551137E+04  0.10791023993E+04  0.15294330000E+03 0.  0.
<mgrwt>
<rscale>  0 0.49270723E+03</rscale>
<asrwt>0</asrwt>
<pdfrwt beam="1">  1        2 0.21850412E+00 0.66994803E+03</pdfrwt>
<pdfrwt beam="2">  1       -2 0.50681730E-01 0.66994803E+03</pdfrwt>
<totfact> 0.53370533E+01</totfact>
</mgrwt>
</event>
<event>
 4    2  0.3388003E-007  0.8971915E+03  0.7818608E-02  0.9530555E-01
         -2   -1    0    0    0  501 -0.00000000000E+00  0.00000000000E+00  0.49881503754E+03  0.49881503754E+03  0.25500000000E-02 0.  1.
          2   -1    0    0  501    0  0.00000000000E+00 -0.00000000000E+00 -0.18562324753E+04  0.18562324753E+04  0.25500000000E-02 0. -1.
    8880023    1    1    2    0    0 -0.50040445851E+03 -0.34747346009E+03 -0.42953756372E+02  0.89821915979E+03  0.65864270000E+03 0.  0.
    8880022    1    1    2    0    0  0.50040445851E+03  0.34747346009E+03 -0.13144636814E+04  0.14568283531E+04  0.15294330000E+03 0.  0.
<mgrwt>
<rscale>  0 0.82068111E+03</rscale>
<asrwt>0</asrwt>
<pdfrwt beam="1">  1        2 0.28557422E+00 0.89719153E+03</pdfrwt>
<pdfrwt beam="2">  1       -2 0.76740776E-01 0.89719153E+03</pdfrwt>
<totfact> 0.12333548E+01</totfact>
</mgrwt>
</event>
<event>
 4    2  0.3388003E-007  0.6969224E+03  0.7818608E-02  0.1001022E+00
         -2   -1    0    0    0  501 -0.00000000000E+00  0.00000000000E+00  0.76168185657E+03  0.76168185657E+03  0.25500000000E-02 0.  1.
          2   -1    0    0  501    0  0.00000000000E+00 -0.00000000000E+00 -0.61124583860E+03  0.61124583860E+03  0.25500000000E-02 0. -1.
    8880023    1    1    2    0    0  0.19889797931E+03  0.11104166044E+03  0.55029177655E+03  0.88798755742E+03  0.65864270000E+03 0.  1.
    8880022    1    1    2    0    0 -0.19889797931E+03 -0.11104166044E+03 -0.39985575858E+03  0.48494013776E+03  0.15294330000E+03 0.  0.
<mgrwt>
<rscale>  0 0.55204559E+03</rscale>
<asrwt>0</asrwt>
<pdfrwt beam="1">  1        2 0.94037822E-01 0.69692242E+03</pdfrwt>
<pdfrwt beam="2">  1       -2 0.11718182E+00 0.69692242E+03</pdfrwt>
<totfact> 0.27786406E+01</totfact>
</mgrwt>
</event>
<event>
 4    2  0.3388003E-007  0.6679089E+03  0.7818608E-02  0.1017208E+00
         -2   -1    0    0    0  501 -0.00000000000E+00  0.00000000000E+00  0.21492107450E+03  0.21492107451E+03  0.25500000000E-02 0.  1.
          2   -1    0    0  501    0  0.00000000000E+00 -0.00000000000E+00 -0.99526249314E+03  0.99526249314E+03  0.25500000000E-02 0. -1.
    8880023    1    1    2    0    0  0.10813286109E+03  0.24482679631E+02 -0.38227354140E+03  0.76956831014E+03  0.65864270000E+03 0.  1.
    8880022    1    1    2    0    0 -0.10813286109E+03 -0.24482679631E+02 -0.39806787724E+03  0.44061525752E+03  0.15294330000E+03 0.  0.
<mgrwt>
<rscale>  0 0.48707605E+03</rscale>
<asrwt>0</asrwt>
<pdfrwt beam="1">  1        2 0.15311730E+00 0.66790892E+03</pdfrwt>
<pdfrwt beam="2">  1       -2 0.33064781E-01 0.66790892E+03</pdfrwt>
<totfact> 0.21971622E+02</totfact>
</mgrwt>
</event>
<event>
 4    2  0.3388003E-007  0.6861190E+03  0.7818608E-02  0.1006055E+00
          2   -1    0    0  501    0  0.00000000000E+00  0.00000000000E+00  0.28981587466E+04  0.28981587466E+04  0.25500000000E-02 0. -1.
         -2   -1    0    0    0  501 -0.00000000000E+00 -0.00000000000E+00 -0.11904789693E+03  0.11904789696E+03  0.25500000000E-02 0.  1.
    8880023    1    1    2    0    0 -0.18847482070E+03  0.37766895374E+02  0.95103469110E+03  0.11727004248E+04  0.65864270000E+03 0.  1.
    8880022    1    1    2    0    0  0.18847482070E+03 -0.37766895374E+02  0.18280761586E+04  0.18445062188E+04  0.15294330000E+03 0.  0.
<mgrwt>
<rscale>  0 0.53073280E+03</rscale>
<asrwt>0</asrwt>
<pdfrwt beam="1">  1        2 0.44587052E+00 0.68611901E+03</pdfrwt>
<pdfrwt beam="2">  1       -2 0.18315063E-01 0.68611901E+03</pdfrwt>
<totfact> 0.53231780E+01</totfact>
</mgrwt>
</event>
<event>
 4    2  0.3388003E-007  0.9284228E+03  0.7818608E-02  0.9481863E-01
         -2   -1    0    0    0  501 -0.00000000000E+00  0.00000000000E+00  0.75172403340E+03  0.75172403340E+03  0.25500000000E-02 0.  1.
          2   -1    0    0  501    0  0.00000000000E+00 -0.00000000000E+00 -0.22542583928E+04  0.22542583928E+04  0.25500000000E-02 0. -1.
    8880023    1    1    2    0    0  0.52297310780E+03  0.39326558741E+03  0.38297429456E+03  0.10043098179E+04  0.65864270000E+03 0.  1.
    8880022    1    1    2    0    0 -0.52297310780E+03 -0.39326558741E+03 -0.18855086539E+04  0.20016726083E+04  0.15294330000E+03 0.  0.
<mgrwt>
<rscale>  0 0.85634274E+03</rscale>
<asrwt>0</asrwt>
<pdfrwt beam="1">  1        2 0.34680898E+00 0.92842280E+03</pdfrwt>
<pdfrwt beam="2">  1       -2 0.11564985E+00 0.92842280E+03</pdfrwt>
<totfact> 0.28358818E+00</totfact>
</mgrwt>
</event>
<event>
 4    2  0.3388003E-007  0.8030710E+03  0.7818608E-02  0.9704195E-01
          2   -1    0    0  501    0  0.00000000000E+00  0.00000000000E+00  0.34128875915E+04  0.34128875915E+04  0.25500000000E-02 0. -1.
         -2   -1    0    0    0  501 -0.00000000000E+00 -0.00000000000E+00 -0.17972742042E+03  0.17972742044E+03  0.25500000000E-02 0.  1.
    8880023    1    1    2    0    0 -0.24108888688E+03 -0.39113803712E+03  0.88504342555E+03  0.11950836317E+04  0.65864270000E+03 0.  1.
    8880022    1    1    2    0    0  0.24108888688E+03  0.39113803712E+03  0.23481167455E+04  0.23975313802E+04  0.15294330000E+03 0.  0.
<mgrwt>
<rscale>  0 0.70767580E+03</rscale>
<asrwt>0</asrwt>
<pdfrwt beam="1">  1        2 0.52505961E+00 0.80307099E+03</pdfrwt>
<pdfrwt beam="2">  1       -2 0.27650374E-01 0.80307099E+03</pdfrwt>
<totfact> 0.11870380E+01</totfact>
</mgrwt>
</event>
<event>
 4    2  0.3388003E-007  0.7329365E+03  0.7818608E-02  0.9881022E-01
          2   -1    0    0  501    0  0.00000000000E+00  0.00000000000E+00  0.16985311027E+03  0.16985311029E+03  0.25500000000E-02 0. -1.
         -2   -1    0    0    0  501 -0.00000000000E+00 -0.00000000000E+00 -0.33227165541E+04  0.33227165541E+04  0.25500000000E-02 0.  1.
    8880023    1    1    2    0    0 -0.16821455858E+03  0.27402477685E+03 -0.30277039297E+04  0.31151544116E+04  0.65864270000E+03 0.  1.
    8880022    1    1    2    0    0  0.16821455858E+03 -0.27402477685E+03 -0.12515951416E+03  0.37741525280E+03  0.15294330000E+03 0.  0.
<mgrwt>
<rscale>  0 0.61189934E+03</rscale>
<asrwt>0</asrwt>
<pdfrwt beam="1">  1        2 0.26131250E-01 0.73293651E+03</pdfrwt>
<pdfrwt beam="2">  1       -2 0.51118712E+00 0.73293651E+03</pdfrwt>
<totfact> 0.30942341E-01</totfact>
</mgrwt>
</event>
<event>
 4    2  0.3388003E-007  0.7053746E+03  0.7818608E-02  0.9975595E-01
          2   -1    0    0  501    0  0.00000000000E+00  0.00000000000E+00  0.14090336143E+04  0.14090336143E+04  0.25500000000E-02 0. -1.
         -2   -1    0    0    0  501 -0.00000000000E+00 -0.00000000000E+00 -0.20750131859E+03  0.20750131861E+03  0.25500000000E-02 0.  1.
    8880023    1    1    2    0    0 -0.22324776240E+03  0.11791355576E+03  0.52782006185E+03  0.88099227806E+03  0.65864270000E+03 0. -1.
    8880022    1    1    2    0    0  0.22324776240E+03 -0.11791355576E+03  0.67371223389E+03  0.73554265489E+03  0.15294330000E+03 0.  1.
<mgrwt>
<rscale>  0 0.56733405E+03</rscale>
<asrwt>0</asrwt>
<pdfrwt beam="1">  1        2 0.21677441E+00 0.70537464E+03</pdfrwt>
<pdfrwt beam="2">  1       -2 0.31923279E-01 0.70537464E+03</pdfrwt>
<totfact> 0.13299986E+02</totfact>
</mgrwt>
</event>
<event>
 4    2  0.3388003E-007  0.7078135E+03  0.7818608E-02  0.9966212E-01
          2   -1    0    0  501    0  0.00000000000E+00  0.00000000000E+00  0.36336369685E+04  0.36336369685E+04  0.25500000000E-02 0. -1.
         -2   -1    0    0    0  501 -0.00000000000E+00 -0.00000000000E+00 -0.13890042559E+03  0.13890042562E+03  0.25500000000E-02 0.  1.
    8880023    1    1    2    0    0  0.14907031755E+03 -0.21205610208E+03  0.82985808238E+03  0.10907173755E+04  0.65864270000E+03 0.  1.
    8880022    1    1    2    0    0 -0.14907031755E+03  0.21205610208E+03  0.26648784605E+04  0.26818200186E+04  0.15294330000E+03 0.  0.
<mgrwt>
<rscale>  0 0.57156946E+03</rscale>
<asrwt>0</asrwt>
<pdfrwt beam="1">  1        2 0.55902102E+00 0.70781350E+03</pdfrwt>
<pdfrwt beam="2">  1       -2 0.21369298E-01 0.70781350E+03</pdfrwt>
<totfact> 0.13542811E+01</totfact>
</mgrwt>
</event>
<event>
 4    2  0.3388003E-007  0.8045500E+03  0.7818608E-02  0.9701043E-01
          2   -1    0    0  501    0  0.00000000000E+00  0.00000000000E+00  0.23346688080E+04  0.23346688080E+04  0.25500000000E-02 0. -1.
         -2   -1    0    0    0  501 -0.00000000000E+00 -0.00000000000E+00 -0.52462458543E+03  0.52462458543E+03  0.25500000000E-02 0.  1.
    8880023    1    1    2    0    0 -0.23802829855E+03  0.39602152246E+03 -0.16829604483E+03  0.82196367446E+03  0.65864270000E+03 0.  0.
    8880022    1    1    2    0    0  0.23802829855E+03 -0.39602152246E+03  0.19783402675E+04  0.20373297190E+04  0.15294330000E+03 0.  0.
<mgrwt>
<rscale>  0 0.70954727E+03</rscale>
<asrwt>0</asrwt>
<pdfrwt beam="1">  1        2 0.35917982E+00 0.80455001E+03</pdfrwt>
<pdfrwt beam="2">  1       -2 0.80711474E-01 0.80455001E+03</pdfrwt>
<totfact> 0.60783684E+00</totfact>
</mgrwt>
</event>
<event>
 4    2  0.3388003E-007  0.7665275E+03  0.7818608E-02  0.9788492E-01
         -2   -1    0    0    0  501 -0.00000000000E+00  0.00000000000E+00  0.21154822735E+03  0.21154822736E+03  0.25500000000E-02 0.  1.
          2   -1    0    0  501    0  0.00000000000E+00 -0.00000000000E+00 -0.33082280926E+04  0.33082280926E+04  0.25500000000E-02 0. -1.
    8880023    1    1    2    0    0 -0.39166818291E+03 -0.18714628809E+02 -0.56222357730E+03  0.95061020401E+03  0.65864270000E+03 0.  0.
    8880022    1    1    2    0    0  0.39166818291E+03  0.18714628809E+02 -0.25344562879E+04  0.25691661159E+04  0.15294330000E+03 0. -1.
<mgrwt>
<rscale>  0 0.65983778E+03</rscale>
<asrwt>0</asrwt>
<pdfrwt beam="1">  1        2 0.50895813E+00 0.76652750E+03</pdfrwt>
<pdfrwt beam="2">  1       -2 0.32545883E-01 0.76652750E+03</pdfrwt>
<totfact> 0.10348581E+01</totfact>
</mgrwt>
</event>
<event>
 4    2  0.3388003E-007  0.7897611E+03  0.7818608E-02  0.9733388E-01
         -2   -1    0    0    0  501 -0.00000000000E+00  0.00000000000E+00  0.71361078494E+03  0.71361078495E+03  0.25500000000E-02 0.  1.
          2   -1    0    0  501    0  0.00000000000E+00 -0.00000000000E+00 -0.69443254392E+03  0.69443254392E+03  0.25500000000E-02 0. -1.
    8880023    1    1    2    0    0  0.31302079557E+03  0.30320024334E+03 -0.30195975299E+03  0.84551895585E+03  0.65864270000E+03 0.  0.
    8880022    1    1    2    0    0 -0.31302079557E+03 -0.30320024334E+03  0.32113799402E+03  0.56252437301E+03  0.15294330000E+03 0.  0.
<mgrwt>
<rscale>  0 0.69063200E+03</rscale>
<asrwt>0</asrwt>
<pdfrwt beam="1">  1        2 0.10683578E+00 0.78976111E+03</pdfrwt>
<pdfrwt beam="2">  1       -2 0.10978627E+00 0.78976111E+03</pdfrwt>
<totfact> 0.27597336E+01</totfact>
</mgrwt>
</event>
<event>
 4    2  0.3388003E-007  0.7257641E+03  0.7818608E-02  0.9903544E-01
          2   -1    0    0  501    0  0.00000000000E+00  0.00000000000E+00  0.17075170537E+03  0.17075170539E+03  0.25500000000E-02 0. -1.
         -2   -1    0    0    0  501 -0.00000000000E+00 -0.00000000000E+00 -0.16675791887E+04  0.16675791887E+04  0.25500000000E-02 0.  1.
    8880023    1    1    2    0    0  0.16679306383E+03  0.25515358528E+03 -0.10418795684E+04  0.12697426982E+04  0.65864270000E+03 0.  1.
    8880022    1    1    2    0    0 -0.16679306383E+03 -0.25515358528E+03 -0.45494791490E+03  0.56858819590E+03  0.15294330000E+03 0. -1.
<mgrwt>
<rscale>  0 0.60089838E+03</rscale>
<asrwt>0</asrwt>
<pdfrwt beam="1">  1        2 0.26269494E-01 0.72576407E+03</pdfrwt>
<pdfrwt beam="2">  1       -2 0.25655063E+00 0.72576407E+03</pdfrwt>
<totfact> 0.12492566E+01</totfact>
</mgrwt>
</event>
<event>
 4    2  0.3388003E-007  0.7008018E+03  0.7818608E-02  0.9993891E-01
          2   -1    0    0  501    0  0.00000000000E+00  0.00000000000E+00  0.18715174078E+04  0.18715174078E+04  0.25500000000E-02 0. -1.
         -2   -1    0    0    0  501 -0.00000000000E+00 -0.00000000000E+00 -0.13531617936E+03  0.13531617938E+03  0.25500000000E-02 0.  1.
    8880023    1    1    2    0    0  0.20899127767E+03 -0.11677187595E+03  0.10316725834E+04  0.12471854516E+04  0.65864270000E+03 0.  1.
    8880022    1    1    2    0    0 -0.20899127767E+03  0.11677187595E+03  0.70452864504E+03  0.75964813555E+03  0.15294330000E+03 0.  0.
<mgrwt>
<rscale>  0 0.55918919E+03</rscale>
<asrwt>0</asrwt>
<pdfrwt beam="1">  1        2 0.28792574E+00 0.70080185E+03</pdfrwt>
<pdfrwt beam="2">  1       -2 0.20817875E-01 0.70080185E+03</pdfrwt>
<totfact> 0.16076504E+02</totfact>
</mgrwt>
</event>
<event>
 4    2  0.3388003E-007  0.8009640E+03  0.7818608E-02  0.9708716E-01
          2   -1    0    0  501    0  0.00000000000E+00  0.00000000000E+00  0.11862559717E+04  0.11862559717E+04  0.25500000000E-02 0. -1.
         -2   -1    0    0    0  501 -0.00000000000E+00 -0.00000000000E+00 -0.41250797003E+03  0.41250797003E+03  0.25500000000E-02 0.  1.
    8880023    1    1    2    0    0  0.26235251533E+03  0.37269862004E+03  0.77994412225E+03  0.11179696524E+04  0.65864270000E+03 0.  0.
    8880022    1    1    2    0    0 -0.26235251533E+03 -0.37269862004E+03 -0.61961205962E+01  0.48079428928E+03  0.15294330000E+03 0.  0.
<mgrwt>
<rscale>  0 0.70500233E+03</rscale>
<asrwt>0</asrwt>
<pdfrwt beam="1">  1        2 0.18250092E+00 0.80096399E+03</pdfrwt>
<pdfrwt beam="2">  1       -2 0.63462765E-01 0.80096399E+03</pdfrwt>
<totfact> 0.44942024E+01</totfact>
</mgrwt>
</event>
<event>
 4    2  0.3388003E-007  0.9832310E+03  0.7818608E-02  0.9403833E-01
          2   -1    0    0  501    0  0.00000000000E+00  0.00000000000E+00  0.11694334044E+04  0.11694334044E+04  0.25500000000E-02 0. -1.
         -2   -1    0    0    0  501 -0.00000000000E+00 -0.00000000000E+00 -0.13546704027E+04  0.13546704027E+04  0.25500000000E-02 0.  1.
    8880023    1    1    2    0    0  0.69648582778E+03  0.21872472994E+03 -0.10117430791E+04  0.14108037709E+04  0.65864270000E+03 0.  0.
    8880022    1    1    2    0    0 -0.69648582778E+03 -0.21872472994E+03  0.82650608083E+03  0.11133000361E+04  0.15294330000E+03 0.  0.
<mgrwt>
<rscale>  0 0.91760911E+03</rscale>
<asrwt>0</asrwt>
<pdfrwt beam="1">  1        2 0.17991283E+00 0.98323101E+03</pdfrwt>
<pdfrwt beam="2">  1       -2 0.20841083E+00 0.98323101E+03</pdfrwt>
<totfact> 0.23045721E+00</totfact>
</mgrwt>
</event>
<event>
 4    2  0.3388003E-007  0.1198603E+04  0.7818608E-02  0.9158482E-01
         -2   -1    0    0    0  501 -0.00000000000E+00  0.00000000000E+00  0.79977674824E+03  0.79977674825E+03  0.25500000000E-02 0.  1.
          2   -1    0    0  501    0  0.00000000000E+00 -0.00000000000E+00 -0.18127086569E+04  0.18127086569E+04  0.25500000000E-02 0. -1.
    8880023    1    1    2    0    0  0.76220726066E+03 -0.64952124417E+03 -0.27045076447E+02  0.11989075850E+04  0.65864270000E+03 0.  0.
    8880022    1    1    2    0    0 -0.76220726066E+03  0.64952124417E+03 -0.98588683224E+03  0.14135778202E+04  0.15294330000E+03 0.  0.
<mgrwt>
<rscale>  0 0.11492432E+04</rscale>
<asrwt>0</asrwt>
<pdfrwt beam="1">  1        2 0.27887825E+00 0.11986025E+04</pdfrwt>
<pdfrwt beam="2">  1       -2 0.12304258E+00 0.11986025E+04</pdfrwt>
<totfact> 0.41300527E+00</totfact>
</mgrwt>
</event>
<event>
 4    2  0.3388003E-007  0.1392512E+04  0.7818608E-02  0.8989523E-01
          2   -1    0    0  501    0  0.00000000000E+00  0.00000000000E+00  0.37986590019E+04  0.37986590019E+04  0.25500000000E-02 0. -1.
         -2   -1    0    0    0  501 -0.00000000000E+00 -0.00000000000E+00 -0.82006715434E+03  0.82006715435E+03  0.25500000000E-02 0.  1.
    8880023    1    1    2    0    0 -0.11911650770E+04  0.29394968693E+03 -0.13039160144E+01  0.13925130396E+04  0.65864270000E+03 0.  0.
    8880022    1    1    2    0    0  0.11911650770E+04 -0.29394968693E+03  0.29798957635E+04  0.32262131166E+04  0.15294330000E+03 0.  0.
<mgrwt>
<rscale>  0 0.13517258E+04</rscale>
<asrwt>0</asrwt>
<pdfrwt beam="1">  1        2 0.58440908E+00 0.13925124E+04</pdfrwt>
<pdfrwt beam="2">  1       -2 0.12616418E+00 0.13925124E+04</pdfrwt>
<totfact> 0.22495641E-01</totfact>
</mgrwt>
</event>
<event>
 4    2  0.3388003E-007  0.8351490E+03  0.7818608E-02  0.9639396E-01
         -2   -1    0    0    0  501 -0.00000000000E+00  0.00000000000E+00  0.59461051534E+03  0.59461051534E+03  0.25500000000E-02 0.  1.
          2   -1    0    0  501    0  0.00000000000E+00 -0.00000000000E+00 -0.89429665886E+03  0.89429665887E+03  0.25500000000E-02 0. -1.
    8880023    1    1    2    0    0  0.51312389419E+03 -0.19171021764E+02  0.69830303247E+02  0.83806332480E+03  0.65864270000E+03 0.  1.
    8880022    1    1    2    0    0 -0.51312389419E+03  0.19171021764E+02 -0.36951644677E+03  0.65084384941E+03  0.15294330000E+03 0.  0.
<mgrwt>
<rscale>  0 0.74742682E+03</rscale>
<asrwt>0</asrwt>
<pdfrwt beam="1">  1        2 0.13758410E+00 0.83514901E+03</pdfrwt>
<pdfrwt beam="2">  1       -2 0.91478541E-01 0.83514901E+03</pdfrwt>
<totfact> 0.30333016E+01</totfact>
</mgrwt>
</event>
<event>
 4    2  0.3388003E-007  0.7934309E+03  0.7818608E-02  0.9725184E-01
         -2   -1    0    0    0  501 -0.00000000000E+00  0.00000000000E+00  0.51749476681E+03  0.51749476682E+03  0.25500000000E-02 0.  1.
          2   -1    0    0  501    0  0.00000000000E+00 -0.00000000000E+00 -0.12695476972E+04  0.12695476972E+04  0.25500000000E-02 0. -1.
    8880023    1    1    2    0    0 -0.40487651937E+03  0.17831831310E+03  0.11498127146E+03  0.80171897556E+03  0.65864270000E+03 0.  1.
    8880022    1    1    2    0    0  0.40487651937E+03 -0.17831831310E+03 -0.86703420186E+03  0.98532348847E+03  0.15294330000E+03 0.  0.
<mgrwt>
<rscale>  0 0.69536948E+03</rscale>
<asrwt>0</asrwt>
<pdfrwt beam="1">  1        2 0.19531503E+00 0.79343092E+03</pdfrwt>
<pdfrwt beam="2">  1       -2 0.79614580E-01 0.79343092E+03</pdfrwt>
<totfact> 0.24435415E+01</totfact>
</mgrwt>
</event>
<event>
 4    2  0.3388003E-007  0.1002049E+04  0.7818608E-02  0.9378882E-01
          2   -1    0    0  501    0  0.00000000000E+00  0.00000000000E+00  0.95486523266E+03  0.95486523267E+03  0.25500000000E-02 0. -1.
         -2   -1    0    0    0  501 -0.00000000000E+00 -0.00000000000E+00 -0.10062307883E+04  0.10062307883E+04  0.25500000000E-02 0.  1.
    8880023    1    1    2    0    0 -0.68274780102E+03 -0.32271843574E+03 -0.44435554357E+03  0.10961540968E+04  0.65864270000E+03 0.  0.
    8880022    1    1    2    0    0  0.68274780102E+03  0.32271843574E+03  0.39298998793E+03  0.86494192418E+03  0.15294330000E+03 0.  0.
<mgrwt>
<rscale>  0 0.93834176E+03</rscale>
<asrwt>0</asrwt>
<pdfrwt beam="1">  1        2 0.14690234E+00 0.10020489E+04</pdfrwt>
<pdfrwt beam="2">  1       -2 0.15480474E+00 0.10020489E+04</pdfrwt>
<totfact> 0.73574816E+00</totfact>
</mgrwt>
</event>
<event>
 4    2  0.3388003E-007  0.7492800E+03  0.7818608E-02  0.9833696E-01
         -2   -1    0    0    0  501 -0.00000000000E+00  0.00000000000E+00  0.24001876055E+03  0.24001876057E+03  0.25500000000E-02 0.  1.
          2   -1    0    0  501    0  0.00000000000E+00 -0.00000000000E+00 -0.23604485447E+04  0.23604485447E+04  0.25500000000E-02 0. -1.
    8880023    1    1    2    0    0  0.30897285351E+03 -0.17929320830E+03 -0.42571760107E+03  0.86177488990E+03  0.65864270000E+03 0.  1.
    8880022    1    1    2    0    0 -0.30897285351E+03  0.17929320830E+03 -0.16947121831E+04  0.17386924154E+04  0.15294330000E+03 0.  0.
<mgrwt>
<rscale>  0 0.63585181E+03</rscale>
<asrwt>0</asrwt>
<pdfrwt beam="1">  1        2 0.36314591E+00 0.74927998E+03</pdfrwt>
<pdfrwt beam="2">  1       -2 0.36925965E-01 0.74927998E+03</pdfrwt>
<totfact> 0.30107875E+01</totfact>
</mgrwt>
</event>
<event>
 4    2  0.3388003E-007  0.8656131E+03  0.7818608E-02  0.9583656E-01
         -2   -1    0    0    0  501 -0.00000000000E+00  0.00000000000E+00  0.56420436230E+03  0.56420436230E+03  0.25500000000E-02 0.  1.
          2   -1    0    0  501    0  0.00000000000E+00 -0.00000000000E+00 -0.17525171481E+04  0.17525171481E+04  0.25500000000E-02 0. -1.
    8880023    1    1    2    0    0  0.98956494560E+02  0.55288645174E+03  0.13026773382E+03  0.87536032871E+03  0.65864270000E+03 0.  0.
    8880022    1    1    2    0    0 -0.98956494560E+02 -0.55288645174E+03 -0.13185805196E+04  0.14413611817E+04  0.15294330000E+03 0.  0.
<mgrwt>
<rscale>  0 0.78387461E+03</rscale>
<asrwt>0</asrwt>
<pdfrwt beam="1">  1        2 0.26961802E+00 0.86561309E+03</pdfrwt>
<pdfrwt beam="2">  1       -2 0.86800672E-01 0.86561309E+03</pdfrwt>
<totfact> 0.10678780E+01</totfact>
</mgrwt>
</event>
<event>
 4    2  0.3388003E-007  0.7839485E+03  0.7818608E-02  0.9746642E-01
          2   -1    0    0  501    0  0.00000000000E+00  0.00000000000E+00  0.24936274693E+04  0.24936274693E+04  0.25500000000E-02 0. -1.
         -2   -1    0    0    0  501 -0.00000000000E+00 -0.00000000000E+00 -0.30766663160E+03  0.30766663161E+03  0.25500000000E-02 0.  1.
    8880023    1    1    2    0    0  0.46835453713E+02 -0.42257727863E+03  0.26441435260E+03  0.82733927277E+03  0.65864270000E+03 0.  1.
    8880022    1    1    2    0    0 -0.46835453713E+02  0.42257727863E+03  0.19215464851E+04  0.19739548282E+04  0.15294330000E+03 0.  0.
<mgrwt>
<rscale>  0 0.68306360E+03</rscale>
<asrwt>0</asrwt>
<pdfrwt beam="1">  1        2 0.38363500E+00 0.78394855E+03</pdfrwt>
<pdfrwt beam="2">  1       -2 0.47333327E-01 0.78394855E+03</pdfrwt>
<totfact> 0.15465990E+01</totfact>
</mgrwt>
</event>
<event>
 4    2  0.3388003E-007  0.9423406E+03  0.7818608E-02  0.9461221E-01
         -2   -1    0    0    0  501 -0.00000000000E+00  0.00000000000E+00  0.28439013388E+03  0.28439013389E+03  0.25500000000E-02 0.  1.
          2   -1    0    0  501    0  0.00000000000E+00 -0.00000000000E+00 -0.46929476307E+04  0.46929476307E+04  0.25500000000E-02 0. -1.
    8880023    1    1    2    0    0  0.32621442425E+03 -0.58972858145E+03 -0.62402868554E+03  0.11302290286E+04  0.65864270000E+03 0.  1.
    8880022    1    1    2    0    0 -0.32621442425E+03  0.58972858145E+03 -0.37845288113E+04  0.38471087361E+04  0.15294330000E+03 0.  0.
<mgrwt>
<rscale>  0 0.87204226E+03</rscale>
<asrwt>0</asrwt>
<pdfrwt beam="1">  1        2 0.72199189E+00 0.94234063E+03</pdfrwt>
<pdfrwt beam="2">  1       -2 0.43752332E-01 0.94234063E+03</pdfrwt>
<totfact> 0.42560766E-01</totfact>
</mgrwt>
</event>
<event>
 4    2  0.3388003E-007  0.9576203E+03  0.7818608E-02  0.9439234E-01
          2   -1    0    0  501    0  0.00000000000E+00  0.00000000000E+00  0.17259351971E+04  0.17259351971E+04  0.25500000000E-02 0. -1.
         -2   -1    0    0    0  501 -0.00000000000E+00 -0.00000000000E+00 -0.44307958897E+03  0.44307958898E+03  0.25500000000E-02 0.  1.
    8880023    1    1    2    0    0 -0.68524548909E+03 -0.11689768594E+03  0.10476965962E+04  0.14194029778E+04  0.65864270000E+03 0.  0.
    8880022    1    1    2    0    0  0.68524548909E+03  0.11689768594E+03  0.23515901196E+03  0.74961180835E+03  0.15294330000E+03 0.  0.
<mgrwt>
<rscale>  0 0.88916037E+03</rscale>
<asrwt>0</asrwt>
<pdfrwt beam="1">  1        2 0.26552849E+00 0.95762031E+03</pdfrwt>
<pdfrwt beam="2">  1       -2 0.68166091E-01 0.95762031E+03</pdfrwt>
<totfact> 0.18762816E+01</totfact>
</mgrwt>
</event>
<event>
 4    2  0.3388003E-007  0.8099214E+03  0.7818608E-02  0.9689741E-01
          2   -1    0    0  501    0  0.00000000000E+00  0.00000000000E+00  0.22075522296E+04  0.22075522296E+04  0.25500000000E-02 0. -1.
         -2   -1    0    0    0  501 -0.00000000000E+00 -0.00000000000E+00 -0.34130473047E+03  0.34130473048E+03  0.25500000000E-02 0.  1.
    8880023    1    1    2    0    0 -0.33411885643E+03 -0.33245620567E+03  0.23399977739E+03  0.84304723533E+03  0.65864270000E+03 0.  1.
    8880022    1    1    2    0    0  0.33411885643E+03  0.33245620567E+03  0.16322477218E+04  0.17058097248E+04  0.15294330000E+03 0.  0.
<mgrwt>
<rscale>  0 0.71630930E+03</rscale>
<asrwt>0</asrwt>
<pdfrwt beam="1">  1        2 0.33962343E+00 0.80992144E+03</pdfrwt>
<pdfrwt beam="2">  1       -2 0.52508419E-01 0.80992144E+03</pdfrwt>
<totfact> 0.18032159E+01</totfact>
</mgrwt>
</event>
<event>
 4    2  0.3388003E-007  0.6839954E+03  0.7818608E-02  0.1007148E+00
         -2   -1    0    0    0  501 -0.00000000000E+00  0.00000000000E+00  0.25185020349E+03  0.25185020350E+03  0.25500000000E-02 0.  1.
          2   -1    0    0  501    0  0.00000000000E+00 -0.00000000000E+00 -0.20775223537E+04  0.20775223537E+04  0.25500000000E-02 0. -1.
    8880023    1    1    2    0    0  0.18113879982E+03  0.35046033609E+02 -0.23876351618E+03  0.72447064274E+03  0.65864270000E+03 0.  1.
    8880022    1    1    2    0    0 -0.18113879982E+03 -0.35046033609E+02 -0.15869086340E+04  0.16049019145E+04  0.15294330000E+03 0.  0.
<mgrwt>
<rscale>  0 0.52623934E+03</rscale>
<asrwt>0</asrwt>
<pdfrwt beam="1">  1        2 0.31961881E+00 0.68399539E+03</pdfrwt>
<pdfrwt beam="2">  1       -2 0.38746186E-01 0.68399539E+03</pdfrwt>
<totfact> 0.39662054E+01</totfact>
</mgrwt>
</event>
<event>
 4    2  0.3388003E-007  0.6931981E+03  0.7818608E-02  0.1002668E+00
          2   -1    0    0  501    0  0.00000000000E+00  0.00000000000E+00  0.29658035931E+04  0.29658035931E+04  0.25500000000E-02 0. -1.
         -2   -1    0    0    0  501 -0.00000000000E+00 -0.00000000000E+00 -0.78255738031E+02  0.78255738072E+02  0.25500000000E-02 0.  1.
    8880023    1    1    2    0    0  0.73867582333E+02  0.20311823545E+03  0.22280977473E+04  0.23334402103E+04  0.65864270000E+03 0. -1.
    8880022    1    1    2    0    0 -0.73867582333E+02 -0.20311823545E+03  0.65945010783E+03  0.71061912092E+03  0.15294330000E+03 0.  1.
<mgrwt>
<rscale>  0 0.54495637E+03</rscale>
<asrwt>0</asrwt>
<pdfrwt beam="1">  1        2 0.45627740E+00 0.69319813E+03</pdfrwt>
<pdfrwt beam="2">  1       -2 0.12039346E-01 0.69319813E+03</pdfrwt>
<totfact> 0.98297986E+01</totfact>
</mgrwt>
</event>
<event>
 4    2  0.3388003E-007  0.7098001E+03  0.7818608E-02  0.9958744E-01
          2   -1    0    0  501    0  0.00000000000E+00  0.00000000000E+00  0.72502049679E+03  0.72502049679E+03  0.25500000000E-02 0. -1.
         -2   -1    0    0    0  501 -0.00000000000E+00 -0.00000000000E+00 -0.58668280586E+03  0.58668280587E+03  0.25500000000E-02 0.  1.
    8880023    1    1    2    0    0 -0.12062486305E+03  0.23549030151E+03 -0.30555961685E+03  0.77277611596E+03  0.65864270000E+03 0.  1.
    8880022    1    1    2    0    0  0.12062486305E+03 -0.23549030151E+03  0.44389730778E+03  0.53892718670E+03  0.15294330000E+03 0.  0.
<mgrwt>
<rscale>  0 0.57496854E+03</rscale>
<asrwt>0</asrwt>
<pdfrwt beam="1">  1        2 0.11154161E+00 0.70980015E+03</pdfrwt>
<pdfrwt beam="2">  1       -2 0.90258894E-01 0.70980015E+03</pdfrwt>
<totfact> 0.41812328E+01</totfact>
</mgrwt>
</event>
<event>
 4    2  0.3388003E-007  0.7114202E+03  0.7818608E-02  0.9952765E-01
         -2   -1    0    0    0  501 -0.00000000000E+00  0.00000000000E+00  0.16156717182E+03  0.16156717185E+03  0.25500000000E-02 0.  1.
          2   -1    0    0  501    0  0.00000000000E+00 -0.00000000000E+00 -0.16664464483E+04  0.16664464483E+04  0.25500000000E-02 0. -1.
    8880023    1    1    2    0    0  0.11680473864E+03 -0.24220889694E+03 -0.88729999728E+03  0.11372862384E+04  0.65864270000E+03 0. -1.
    8880022    1    1    2    0    0 -0.11680473864E+03  0.24220889694E+03 -0.61757927923E+03  0.69072738173E+03  0.15294330000E+03 0.  0.
<mgrwt>
<rscale>  0 0.57770845E+03</rscale>
<asrwt>0</asrwt>
<pdfrwt beam="1">  1        2 0.25637636E+00 0.71142020E+03</pdfrwt>
<pdfrwt beam="2">  1       -2 0.24856489E-01 0.71142020E+03</pdfrwt>
<totfact> 0.15154514E+02</totfact>
</mgrwt>
</event>
<event>
 4    2  0.3388003E-007  0.7706597E+03  0.7818608E-02  0.9778253E-01
          2   -1    0    0  501    0  0.00000000000E+00  0.00000000000E+00  0.77422657809E+03  0.77422657810E+03  0.25500000000E-02 0. -1.
         -2   -1    0    0    0  501 -0.00000000000E+00 -0.00000000000E+00 -0.10825123979E+04  0.10825123979E+04  0.25500000000E-02 0.  1.
    8880023    1    1    2    0    0  0.26516643086E+03  0.29965476627E+03 -0.86225997014E+03  0.11564638677E+04  0.65864270000E+03 0.  0.
    8880022    1    1    2    0    0 -0.26516643086E+03 -0.29965476627E+03  0.55397415033E+03  0.70027510826E+03  0.15294330000E+03 0.  0.
<mgrwt>
<rscale>  0 0.66542770E+03</rscale>
<asrwt>0</asrwt>
<pdfrwt beam="1">  1        2 0.11911178E+00 0.77065973E+03</pdfrwt>
<pdfrwt beam="2">  1       -2 0.16654037E+00 0.77065973E+03</pdfrwt>
<totfact> 0.82385874E+00</totfact>
</mgrwt>
</event>
<event>
 4    2  0.3388003E-007  0.7441046E+03  0.7818608E-02  0.9848148E-01
          2   -1    0    0  501    0  0.00000000000E+00  0.00000000000E+00  0.60018975788E+03  0.60018975788E+03  0.25500000000E-02 0. -1.
         -2   -1    0    0    0  501 -0.00000000000E+00 -0.00000000000E+00 -0.65630557809E+03  0.65630557810E+03  0.25500000000E-02 0.  1.
    8880023    1    1    2    0    0  0.27477739249E+03  0.21066297292E+03 -0.30424551977E+03  0.80390114203E+03  0.65864270000E+03 0.  0.
    8880022    1    1    2    0    0 -0.27477739249E+03 -0.21066297292E+03  0.24812969956E+03  0.45259419396E+03  0.15294330000E+03 0.  0.
<mgrwt>
<rscale>  0 0.62841438E+03</rscale>
<asrwt>0</asrwt>
<pdfrwt beam="1">  1        2 0.92336885E-01 0.74410464E+03</pdfrwt>
<pdfrwt beam="2">  1       -2 0.10097009E+00 0.74410464E+03</pdfrwt>
<totfact> 0.40538735E+01</totfact>
</mgrwt>
</event>
<event>
 4    2  0.3388003E-007  0.6718088E+03  0.7818608E-02  0.1014398E+00
          2   -1    0    0  501    0  0.00000000000E+00  0.00000000000E+00  0.35262362668E+03  0.35262362669E+03  0.25500000000E-02 0. -1.
         -2   -1    0    0    0  501 -0.00000000000E+00 -0.00000000000E+00 -0.63120942712E+03  0.63120942713E+03  0.25500000000E-02 0.  1.
    8880023    1    1    2    0    0  0.10873281399E+03  0.75458412625E+02 -0.36422606571E+03  0.76419083355E+03  0.65864270000E+03 0.  1.
    8880022    1    1    2    0    0 -0.10873281399E+03 -0.75458412625E+02  0.85640265266E+02  0.21964222026E+03  0.15294330000E+03 0.  0.
<mgrwt>
<rscale>  0 0.49763495E+03</rscale>
<asrwt>0</asrwt>
<pdfrwt beam="1">  1        2 0.54249789E-01 0.67180875E+03</pdfrwt>
<pdfrwt beam="2">  1       -2 0.97109142E-01 0.67180875E+03</pdfrwt>
<totfact> 0.82302790E+01</totfact>
</mgrwt>
</event>
<event>
 4    2  0.3388003E-007  0.7688796E+03  0.7818608E-02  0.9782639E-01
         -2   -1    0    0    0  501 -0.00000000000E+00  0.00000000000E+00  0.34328287036E+03  0.34328287037E+03  0.25500000000E-02 0.  1.
          2   -1    0    0  501    0  0.00000000000E+00 -0.00000000000E+00 -0.15549919610E+04  0.15549919610E+04  0.25500000000E-02 0. -1.
    8880023    1    1    2    0    0  0.39539791522E+03 -0.32032518291E+02 -0.19054200364E+03  0.79213764903E+03  0.65864270000E+03 0.  0.
    8880022    1    1    2    0    0 -0.39539791522E+03  0.32032518291E+02 -0.10211670870E+04  0.11061371824E+04  0.15294330000E+03 0.  0.
<mgrwt>
<rscale>  0 0.66302623E+03</rscale>
<asrwt>0</asrwt>
<pdfrwt beam="1">  1        2 0.23922953E+00 0.76887957E+03</pdfrwt>
<pdfrwt beam="2">  1       -2 0.52812750E-01 0.76887957E+03</pdfrwt>
<totfact> 0.40819057E+01</totfact>
</mgrwt>
</event>
<event>
 4    2  0.3388003E-007  0.6794130E+03  0.7818608E-02  0.1009658E+00
          2   -1    0    0  501    0  0.00000000000E+00  0.00000000000E+00  0.10113552556E+04  0.10113552556E+04  0.25500000000E-02 0. -1.
         -2   -1    0    0    0  501 -0.00000000000E+00 -0.00000000000E+00 -0.28459015132E+03  0.28459015133E+03  0.25500000000E-02 0.  1.
    8880023    1    1    2    0    0  0.14391347169E+03 -0.84147246450E+02  0.17795372127E+03  0.70233153111E+03  0.65864270000E+03 0.  0.
    8880022    1    1    2    0    0 -0.14391347169E+03  0.84147246450E+02  0.54881138306E+03  0.59361387585E+03  0.15294330000E+03 0.  0.
<mgrwt>
<rscale>  0 0.51610925E+03</rscale>
<asrwt>0</asrwt>
<pdfrwt beam="1">  1        2 0.15559312E+00 0.67941302E+03</pdfrwt>
<pdfrwt beam="2">  1       -2 0.43783100E-01 0.67941302E+03</pdfrwt>
<totfact> 0.12472106E+02</totfact>
</mgrwt>
</event>
<event>
 4    2  0.3388003E-007  0.1035962E+04  0.7818608E-02  0.9335950E-01
         -2   -1    0    0    0  501 -0.00000000000E+00  0.00000000000E+00  0.83630836197E+03  0.83630836197E+03  0.25500000000E-02 0.  1.
          2   -1    0    0  501    0  0.00000000000E+00 -0.00000000000E+00 -0.22493279551E+04  0.22493279551E+04  0.25500000000E-02 0. -1.
    8880023    1    1    2    0    0  0.79219383325E+03 -0.10879468649E+03  0.39031152497E+03  0.11070504261E+04  0.65864270000E+03 0.  0.
    8880022    1    1    2    0    0 -0.79219383325E+03  0.10879468649E+03 -0.18033311181E+04  0.19785858910E+04  0.15294330000E+03 0.  0.
<mgrwt>
<rscale>  0 0.97539527E+03</rscale>
<asrwt>0</asrwt>
<pdfrwt beam="1">  1        2 0.34605045E+00 0.10359621E+04</pdfrwt>
<pdfrwt beam="2">  1       -2 0.12866283E+00 0.10359621E+04</pdfrwt>
<totfact> 0.21533040E+00</totfact>
</mgrwt>
</event>
<event>
 4    2  0.3388003E-007  0.1101294E+04  0.7818608E-02  0.9259617E-01
          2   -1    0    0  501    0  0.00000000000E+00  0.00000000000E+00  0.56354525747E+03  0.56354525748E+03  0.25500000000E-02 0. -1.
         -2   -1    0    0    0  501 -0.00000000000E+00 -0.00000000000E+00 -0.18517310441E+04  0.18517310441E+04  0.25500000000E-02 0.  1.
    8880023    1    1    2    0    0  0.28472458309E+03 -0.83544552685E+03 -0.96092940292E+03  0.14615857280E+04  0.65864270000E+03 0.  0.
    8880022    1    1    2    0    0 -0.28472458309E+03  0.83544552685E+03 -0.32725638373E+03  0.95369057364E+03  0.15294330000E+03 0.  0.
<mgrwt>
<rscale>  0 0.10458711E+04</rscale>
<asrwt>0</asrwt>
<pdfrwt beam="1">  1        2 0.86699271E-01 0.11012936E+04</pdfrwt>
<pdfrwt beam="2">  1       -2 0.28488170E+00 0.11012936E+04</pdfrwt>
<totfact> 0.20883653E+00</totfact>
</mgrwt>
</event>
<event>
 4    2  0.3388003E-007  0.7220943E+03  0.7818608E-02  0.9915562E-01
          2   -1    0    0  501    0  0.00000000000E+00  0.00000000000E+00  0.12946264924E+04  0.12946264924E+04  0.25500000000E-02 0. -1.
         -2   -1    0    0    0  501 -0.00000000000E+00 -0.00000000000E+00 -0.27825373186E+03  0.27825373187E+03  0.25500000000E-02 0.  1.
    8880023    1    1    2    0    0  0.14497788337E+03 -0.25805302331E+03  0.29830462338E+03  0.78128471385E+03  0.65864270000E+03 0.  1.
    8880022    1    1    2    0    0 -0.14497788337E+03  0.25805302331E+03  0.71806813717E+03  0.79159551043E+03  0.15294330000E+03 0.  0.
<mgrwt>
<rscale>  0 0.59512965E+03</rscale>
<asrwt>0</asrwt>
<pdfrwt beam="1">  1        2 0.19917331E+00 0.72209428E+03</pdfrwt>
<pdfrwt beam="2">  1       -2 0.42808267E-01 0.72209428E+03</pdfrwt>
<totfact> 0.87795747E+01</totfact>
</mgrwt>
</event>
<event>
 4    2  0.3388003E-007  0.1158408E+04  0.7818608E-02  0.9198653E-01
          2   -1    0    0  501    0  0.00000000000E+00  0.00000000000E+00  0.15915051634E+04  0.15915051634E+04  0.25500000000E-02 0. -1.
         -2   -1    0    0    0  501 -0.00000000000E+00 -0.00000000000E+00 -0.13507343524E+04  0.13507343524E+04  0.25500000000E-02 0.  1.
    8880023    1    1    2    0    0  0.95170939140E+03  0.48460716295E+02 -0.88617304108E+03  0.14584965107E+04  0.65864270000E+03 0.  0.
    8880022    1    1    2    0    0 -0.95170939140E+03 -0.48460716295E+02  0.11269438520E+04  0.14837430052E+04  0.15294330000E+03 0.  0.
<mgrwt>
<rscale>  0 0.11067347E+04</rscale>
<asrwt>0</asrwt>
<pdfrwt beam="1">  1        2 0.24484695E+00 0.11584081E+04</pdfrwt>
<pdfrwt beam="2">  1       -2 0.20780529E+00 0.11584081E+04</pdfrwt>
<totfact> 0.13002464E+00</totfact>
</mgrwt>
</event>
<event>
 4    2  0.3388003E-007  0.1020498E+04  0.7818608E-02  0.9355218E-01
         -2   -1    0    0    0  501 -0.00000000000E+00  0.00000000000E+00  0.17385736170E+04  0.17385736170E+04  0.25500000000E-02 0.  1.
          2   -1    0    0  501    0  0.00000000000E+00 -0.00000000000E+00 -0.54530897155E+03  0.54530897155E+03  0.25500000000E-02 0. -1.
    8880023    1    1    2    0    0  0.77272552306E+03 -0.10247676547E+03  0.10724504148E+04  0.14803939746E+04  0.65864270000E+03 0.  1.
    8880022    1    1    2    0    0 -0.77272552306E+03  0.10247676547E+03  0.12081423063E+03  0.80348861397E+03  0.15294330000E+03 0. -1.
<mgrwt>
<rscale>  0 0.95854531E+03</rscale>
<asrwt>0</asrwt>
<pdfrwt beam="1">  1        2 0.83893689E-01 0.10204981E+04</pdfrwt>
<pdfrwt beam="2">  1       -2 0.26747286E+00 0.10204981E+04</pdfrwt>
<totfact> 0.27919493E+00</totfact>
</mgrwt>
</event>
<event>
 4    2  0.3388003E-007  0.9250822E+03  0.7818608E-02  0.9486910E-01
          2   -1    0    0  501    0  0.00000000000E+00  0.00000000000E+00  0.38778182308E+04  0.38778182308E+04  0.25500000000E-02 0. -1.
         -2   -1    0    0    0  501 -0.00000000000E+00 -0.00000000000E+00 -0.31851551578E+03  0.31851551579E+03  0.25500000000E-02 0.  1.
    8880023    1    1    2    0    0 -0.58031620875E+03  0.29189045404E+03  0.47355262915E+03  0.10392445516E+04  0.65864270000E+03 0.  1.
    8880022    1    1    2    0    0  0.58031620875E+03 -0.29189045404E+03  0.30857500859E+04  0.31570891949E+04  0.15294330000E+03 0.  0.
<mgrwt>
<rscale>  0 0.85255810E+03</rscale>
<asrwt>0</asrwt>
<pdfrwt beam="1">  1        2 0.59658741E+00 0.92508224E+03</pdfrwt>
<pdfrwt beam="2">  1       -2 0.49002388E-01 0.92508224E+03</pdfrwt>
<totfact> 0.17956761E+00</totfact>
</mgrwt>
</event>
<event>
 4    2  0.3508808E-007  0.7540223E+03  0.7818608E-02  0.9820836E-01
          2   -1    0    0  501    0  0.00000000000E+00  0.00000000000E+00  0.24150006648E+04  0.24150006648E+04  0.25500000000E-02 0. -1.
         -2   -1    0    0    0  501 -0.00000000000E+00 -0.00000000000E+00 -0.68476966263E+03  0.68476966263E+03  0.25500000000E-02 0.  1.
    8880023    1    1    2    0    0  0.31098148696E+03 -0.19501281836E+03 -0.45365662134E+03  0.87997387512E+03  0.65864270000E+03 0.  1.
    8880022    1    1    2    0    0 -0.31098148696E+03  0.19501281836E+03  0.21838876235E+04  0.22197964523E+04  0.15294330000E+03 0.  0.
<mgrwt>
<rscale>  0 0.64256244E+03</rscale>
<asrwt>0</asrwt>
<pdfrwt beam="1">  1        2 0.37153856E+00 0.75402234E+03</pdfrwt>
<pdfrwt beam="2">  1       -2 0.10534918E+00 0.75402234E+03</pdfrwt>
<totfact> 0.29758867E+00</totfact>
</mgrwt>
</event>
<event>
 4    2  0.3388003E-007  0.7599052E+03  0.7818608E-02  0.9805353E-01
         -2   -1    0    0    0  501 -0.00000000000E+00  0.00000000000E+00  0.79512911482E+03  0.79512911483E+03  0.25500000000E-02 0.  1.
          2   -1    0    0  501    0  0.00000000000E+00 -0.00000000000E+00 -0.64758833278E+03  0.64758833279E+03  0.25500000000E-02 0. -1.
    8880023    1    1    2    0    0  0.34283347470E+03  0.16158871151E+03  0.49447407193E+03  0.90662038204E+03  0.65864270000E+03 0.  1.
    8880022    1    1    2    0    0 -0.34283347470E+03 -0.16158871151E+03 -0.34693328989E+03  0.53609706557E+03  0.15294330000E+03 0.  0.
<mgrwt>
<rscale>  0 0.65076062E+03</rscale>
<asrwt>0</asrwt>
<pdfrwt beam="1">  1        2 0.99628974E-01 0.75990520E+03</pdfrwt>
<pdfrwt beam="2">  1       -2 0.12232756E+00 0.75990520E+03</pdfrwt>
<totfact> 0.23149308E+01</totfact>
</mgrwt>
</event>
<event>
 4    2  0.3388003E-007  0.1253206E+04  0.7818608E-02  0.9107061E-01
         -2   -1    0    0    0  501 -0.00000000000E+00  0.00000000000E+00  0.11693418063E+04  0.11693418063E+04  0.25500000000E-02 0.  1.
          2   -1    0    0  501    0  0.00000000000E+00 -0.00000000000E+00 -0.18620361831E+04  0.18620361831E+04  0.25500000000E-02 0. -1.
    8880023    1    1    2    0    0 -0.78487751912E+03  0.72158277807E+03  0.56570685661E+03  0.13749723195E+04  0.65864270000E+03 0.  1.
    8880022    1    1    2    0    0  0.78487751912E+03 -0.72158277807E+03 -0.12584012335E+04  0.16564056699E+04  0.15294330000E+03 0.  0.
<mgrwt>
<rscale>  0 0.12066435E+04</rscale>
<asrwt>0</asrwt>
<pdfrwt beam="1">  1        2 0.28646711E+00 0.12532057E+04</pdfrwt>
<pdfrwt beam="2">  1       -2 0.17989874E+00 0.12532057E+04</pdfrwt>
<totfact> 0.13972446E+00</totfact>
</mgrwt>
</event>
<event>
 4    2  0.3388003E-007  0.8100839E+03  0.7818608E-02  0.9689402E-01
         -2   -1    0    0    0  501 -0.00000000000E+00  0.00000000000E+00  0.34923480393E+03  0.34923480394E+03  0.25500000000E-02 0.  1.
          2   -1    0    0  501    0  0.00000000000E+00 -0.00000000000E+00 -0.22393089342E+04  0.22393089342E+04  0.25500000000E-02 0. -1.
    8880023    1    1    2    0    0  0.42067975923E+03  0.21320001159E+03 -0.21002948160E+03  0.83686814623E+03  0.65864270000E+03 0.  1.
    8880022    1    1    2    0    0 -0.42067975923E+03 -0.21320001159E+03 -0.16800446486E+04  0.17516755919E+04  0.15294330000E+03 0.  0.
<mgrwt>
<rscale>  0 0.71651299E+03</rscale>
<asrwt>0</asrwt>
<pdfrwt beam="1">  1        2 0.34450906E+00 0.81008389E+03</pdfrwt>
<pdfrwt beam="2">  1       -2 0.53728433E-01 0.81008389E+03</pdfrwt>
<totfact> 0.16515238E+01</totfact>
</mgrwt>
</event>
<event>
 4    2  0.3388003E-007  0.7305582E+03  0.7818608E-02  0.9888357E-01
         -2   -1    0    0    0  501 -0.00000000000E+00  0.00000000000E+00  0.19639918249E+03  0.19639918251E+03  0.25500000000E-02 0.  1.
          2   -1    0    0  501    0  0.00000000000E+00 -0.00000000000E+00 -0.28033760434E+04  0.28033760434E+04  0.25500000000E-02 0. -1.
    8880023    1    1    2    0    0  0.18125161468E+03 -0.25894571937E+03 -0.55366814782E+03  0.91665896470E+03  0.65864270000E+03 0.  0.
    8880022    1    1    2    0    0 -0.18125161468E+03  0.25894571937E+03 -0.20533087131E+04  0.20831162612E+04  0.15294330000E+03 0. -1.
<mgrwt>
<rscale>  0 0.60828909E+03</rscale>
<asrwt>0</asrwt>
<pdfrwt beam="1">  1        2 0.43128859E+00 0.73055817E+03</pdfrwt>
<pdfrwt beam="2">  1       -2 0.30215261E-01 0.73055817E+03</pdfrwt>
<totfact> 0.24577625E+01</totfact>
</mgrwt>
</event>
<event>
 4    2  0.3388003E-007  0.7060794E+03  0.7818608E-02  0.9972859E-01
          2   -1    0    0  501    0  0.00000000000E+00  0.00000000000E+00  0.19246717748E+04  0.19246717748E+04  0.25500000000E-02 0. -1.
         -2   -1    0    0    0  501 -0.00000000000E+00 -0.00000000000E+00 -0.18463044424E+03  0.18463044426E+03  0.25500000000E-02 0.  1.
    8880023    1    1    2    0    0 -0.60539706502E+01  0.25436431551E+03  0.58565331511E+03  0.91735373075E+03  0.65864270000E+03 0.  1.
    8880022    1    1    2    0    0  0.60539706502E+01 -0.25436431551E+03  0.11543880155E+04  0.11919484883E+04  0.15294330000E+03 0.  0.
<mgrwt>
<rscale>  0 0.56856524E+03</rscale>
<asrwt>0</asrwt>
<pdfrwt beam="1">  1        2 0.29610336E+00 0.70607936E+03</pdfrwt>
<pdfrwt beam="2">  1       -2 0.28404683E-01 0.70607936E+03</pdfrwt>
<totfact> 0.86031738E+01</totfact>
</mgrwt>
</event>
<event>
 4    2  0.3536089E-007  0.8294732E+03  0.7818608E-02  0.9650358E-01
          2   -1    0    0  501    0  0.00000000000E+00  0.00000000000E+00  0.26015334457E+04  0.26015334457E+04  0.25500000000E-02 0. -1.
         -2   -1    0    0    0  501 -0.00000000000E+00 -0.00000000000E+00 -0.88243025656E+03  0.88243025657E+03  0.25500000000E-02 0.  1.
    8880023    1    1    2    0    0  0.50371686099E+03 -0.22021346800E+02 -0.65198524542E+03  0.10550405595E+04  0.65864270000E+03 0.  1.
    8880022    1    1    2    0    0 -0.50371686099E+03  0.22021346800E+02  0.23710884346E+04  0.24289231427E+04  0.15294330000E+03 0.  0.
<mgrwt>
<rscale>  0 0.74050949E+03</rscale>
<asrwt>0</asrwt>
<pdfrwt beam="1">  1        2 0.40023592E+00 0.82947322E+03</pdfrwt>
<pdfrwt beam="2">  1       -2 0.13575850E+00 0.82947322E+03</pdfrwt>
<totfact> 0.12261216E+00</totfact>
</mgrwt>
</event>
<event>
 4    2  0.3388003E-007  0.1352246E+04  0.7818608E-02  0.9021706E-01
         -2   -1    0    0    0  501 -0.00000000000E+00  0.00000000000E+00  0.55896279932E+03  0.55896279933E+03  0.25500000000E-02 0.  1.
          2   -1    0    0  501    0  0.00000000000E+00 -0.00000000000E+00 -0.35190064991E+04  0.35190064991E+04  0.25500000000E-02 0. -1.
    8880023    1    1    2    0    0 -0.11628972380E+04 -0.20598323330E+03 -0.24160726872E+04  0.27687499913E+04  0.65864270000E+03 0.  0.
    8880022    1    1    2    0    0  0.11628972380E+04  0.20598323330E+03 -0.54397101260E+03  0.13092193071E+04  0.15294330000E+03 0.  0.
<mgrwt>
<rscale>  0 0.13099571E+04</rscale>
<asrwt>0</asrwt>
<pdfrwt beam="1">  1        2 0.54138560E+00 0.13522460E+04</pdfrwt>
<pdfrwt beam="2">  1       -2 0.85994279E-01 0.13522460E+04</pdfrwt>
<totfact> 0.90892751E-01</totfact>
</mgrwt>
</event>
<event>
 4    2  0.3388003E-007  0.1042472E+04  0.7818608E-02  0.9327986E-01
         -2   -1    0    0    0  501 -0.00000000000E+00  0.00000000000E+00  0.68240448541E+03  0.68240448541E+03  0.25500000000E-02 0.  1.
          2   -1    0    0  501    0  0.00000000000E+00 -0.00000000000E+00 -0.19207102821E+04  0.19207102821E+04  0.25500000000E-02 0. -1.
    8880023    1    1    2    0    0  0.67952595052E+03 -0.43724409964E+03  0.84085848149E+02  0.10458578088E+04  0.65864270000E+03 0.  1.
    8880022    1    1    2    0    0 -0.67952595052E+03  0.43724409964E+03 -0.13223916449E+04  0.15572569587E+04  0.15294330000E+03 0.  0.
<mgrwt>
<rscale>  0 0.98246737E+03</rscale>
<asrwt>0</asrwt>
<pdfrwt beam="1">  1        2 0.29549389E+00 0.10424721E+04</pdfrwt>
<pdfrwt beam="2">  1       -2 0.10498531E+00 0.10424721E+04</pdfrwt>
<totfact> 0.54060157E+00</totfact>
</mgrwt>
</event>
<event>
 4    2  0.3388003E-007  0.9740365E+03  0.7818608E-02  0.9416343E-01
         -2   -1    0    0    0  501 -0.00000000000E+00  0.00000000000E+00  0.13689883092E+04  0.13689883092E+04  0.25500000000E-02 0.  1.
          2   -1    0    0  501    0  0.00000000000E+00 -0.00000000000E+00 -0.11010844100E+04  0.11010844100E+04  0.25500000000E-02 0. -1.
    8880023    1    1    2    0    0 -0.47063151014E+03 -0.54170373415E+03  0.10262422450E+04  0.14148923300E+04  0.65864270000E+03 0.  1.
    8880022    1    1    2    0    0  0.47063151014E+03  0.54170373415E+03 -0.75833834582E+03  0.10551803892E+04  0.15294330000E+03 0.  0.
<mgrwt>
<rscale>  0 0.90742840E+03</rscale>
<asrwt>0</asrwt>
<pdfrwt beam="1">  1        2 0.16939760E+00 0.97403653E+03</pdfrwt>
<pdfrwt beam="2">  1       -2 0.21061359E+00 0.97403653E+03</pdfrwt>
<totfact> 0.24582963E+00</totfact>
</mgrwt>
</event>
<event>
 4    2  0.3388003E-007  0.9246030E+03  0.7818608E-02  0.9487637E-01
          2   -1    0    0  501    0  0.00000000000E+00  0.00000000000E+00  0.15469549777E+04  0.15469549777E+04  0.25500000000E-02 0. -1.
         -2   -1    0    0    0  501 -0.00000000000E+00 -0.00000000000E+00 -0.48917676363E+03  0.48917676363E+03  0.25500000000E-02 0.  1.
    8880023    1    1    2    0    0  0.62907019246E+03 -0.15922066783E+03  0.19356339073E+03  0.94464677028E+03  0.65864270000E+03 0.  0.
    8880022    1    1    2    0    0 -0.62907019246E+03  0.15922066783E+03  0.86421482329E+03  0.10914849710E+04  0.15294330000E+03 0.  0.
<mgrwt>
<rscale>  0 0.85201463E+03</rscale>
<asrwt>0</asrwt>
<pdfrwt beam="1">  1        2 0.23799307E+00 0.92460301E+03</pdfrwt>
<pdfrwt beam="2">  1       -2 0.75257963E-01 0.92460301E+03</pdfrwt>
<totfact> 0.19022766E+01</totfact>
</mgrwt>
</event>
<event>
 4    2  0.3388003E-007  0.1057109E+04  0.7818608E-02  0.9310384E-01
          2   -1    0    0  501    0  0.00000000000E+00  0.00000000000E+00  0.62292379092E+03  0.62292379093E+03  0.25500000000E-02 0. -1.
         -2   -1    0    0    0  501 -0.00000000000E+00 -0.00000000000E+00 -0.14523776871E+04  0.14523776871E+04  0.25500000000E-02 0.  1.
    8880023    1    1    2    0    0 -0.77948972156E+03 -0.27579990405E+03 -0.53149754269E+03  0.11832031344E+04  0.65864270000E+03 0.  1.
    8880022    1    1    2    0    0  0.77948972156E+03  0.27579990405E+03 -0.29795635346E+03  0.89209834361E+03  0.15294330000E+03 0. -1.
<mgrwt>
<rscale>  0 0.99832526E+03</rscale>
<asrwt>0</asrwt>
<pdfrwt beam="1">  1        2 0.95834430E-01 0.10571093E+04</pdfrwt>
<pdfrwt beam="2">  1       -2 0.22344272E+00 0.10571093E+04</pdfrwt>
<totfact> 0.44117283E+00</totfact>
</mgrwt>
</event>
<event>
 4    2  0.3388003E-007  0.1164157E+04  0.7818608E-02  0.9192776E-01
         -2   -1    0    0    0  501 -0.00000000000E+00  0.00000000000E+00  0.39512497853E+03  0.39512497854E+03  0.25500000000E-02 0.  1.
          2   -1    0    0  501    0  0.00000000000E+00 -0.00000000000E+00 -0.39111658140E+04  0.39111658141E+04  0.25500000000E-02 0. -1.
    8880023    1    1    2    0    0  0.54547809793E+03 -0.78987725590E+03 -0.77636460142E+03  0.13992871883E+04  0.65864270000E+03 0.  0.
    8880022    1    1    2    0    0 -0.54547809793E+03  0.78987725590E+03 -0.27396762341E+04  0.29070036043E+04  0.15294330000E+03 0.  0.
<mgrwt>
<rscale>  0 0.11128300E+04</rscale>
<asrwt>0</asrwt>
<pdfrwt beam="1">  1        2 0.60171779E+00 0.11641575E+04</pdfrwt>
<pdfrwt beam="2">  1       -2 0.60788461E-01 0.11641575E+04</pdfrwt>
<totfact> 0.10377850E+00</totfact>
</mgrwt>
</event>
<event>
 4    2  0.3388003E-007  0.9902709E+03  0.7818608E-02  0.9394398E-01
          2   -1    0    0  501    0  0.00000000000E+00  0.00000000000E+00  0.16897591709E+04  0.16897591709E+04  0.25500000000E-02 0. -1.
         -2   -1    0    0    0  501 -0.00000000000E+00 -0.00000000000E+00 -0.58790384491E+03  0.58790384492E+03  0.25500000000E-02 0.  1.
    8880023    1    1    2    0    0 -0.34439063968E+03 -0.65438624187E+03  0.11541146068E+04  0.15207291008E+04  0.65864270000E+03 0.  0.
    8880022    1    1    2    0    0  0.34439063968E+03  0.65438624187E+03 -0.52259280795E+02  0.75693391501E+03  0.15294330000E+03 0.  0.
<mgrwt>
<rscale>  0 0.92538110E+03</rscale>
<asrwt>0</asrwt>
<pdfrwt beam="1">  1        2 0.25996294E+00 0.99027091E+03</pdfrwt>
<pdfrwt beam="2">  1       -2 0.90446748E-01 0.99027091E+03</pdfrwt>
<totfact> 0.10369090E+01</totfact>
</mgrwt>
</event>
<event>
 4    2  0.3388003E-007  0.8686485E+03  0.7818608E-02  0.9578361E-01
          2   -1    0    0  501    0  0.00000000000E+00  0.00000000000E+00  0.10116629426E+04  0.10116629426E+04  0.25500000000E-02 0. -1.
         -2   -1    0    0    0  501 -0.00000000000E+00 -0.00000000000E+00 -0.88732450476E+03  0.88732450476E+03  0.25500000000E-02 0.  1.
    8880023    1    1    2    0    0 -0.52543221749E+03 -0.21133156112E+03 -0.53206529594E+03  0.10186479909E+04  0.65864270000E+03 0.  1.
    8880022    1    1    2    0    0  0.52543221749E+03  0.21133156112E+03  0.65640373378E+03  0.88033945648E+03  0.15294330000E+03 0.  0.
<mgrwt>
<rscale>  0 0.78745120E+03</rscale>
<asrwt>0</asrwt>
<pdfrwt beam="1">  1        2 0.15564045E+00 0.86864852E+03</pdfrwt>
<pdfrwt beam="2">  1       -2 0.13651146E+00 0.86864852E+03</pdfrwt>
<totfact> 0.95337800E+00</totfact>
</mgrwt>
</event>
<event>
 4    2  0.3388003E-007  0.6896120E+03  0.7818608E-02  0.1004338E+00
         -2   -1    0    0    0  501 -0.00000000000E+00  0.00000000000E+00  0.12504056239E+03  0.12504056241E+03  0.25500000000E-02 0.  1.
          2   -1    0    0  501    0  0.00000000000E+00 -0.00000000000E+00 -0.20052641325E+04  0.20052641325E+04  0.25500000000E-02 0. -1.
    8880023    1    1    2    0    0 -0.16101109459E+03 -0.12581685485E+03 -0.10066576519E+04  0.12202148532E+04  0.65864270000E+03 0.  0.
    8880022    1    1    2    0    0  0.16101109459E+03  0.12581685485E+03 -0.87356591820E+03  0.91008984172E+03  0.15294330000E+03 0.  0.
<mgrwt>
<rscale>  0 0.53788527E+03</rscale>
<asrwt>0</asrwt>
<pdfrwt beam="1">  1        2 0.30850215E+00 0.68961196E+03</pdfrwt>
<pdfrwt beam="2">  1       -2 0.19237011E-01 0.68961196E+03</pdfrwt>
<totfact> 0.15628072E+02</totfact>
</mgrwt>
</event>
<event>
 4    2  0.3388003E-007  0.1334834E+04  0.7818608E-02  0.9036047E-01
          2   -1    0    0  501    0  0.00000000000E+00  0.00000000000E+00  0.69166680817E+03  0.69166680818E+03  0.25500000000E-02 0. -1.
         -2   -1    0    0    0  501 -0.00000000000E+00 -0.00000000000E+00 -0.24871556724E+04  0.24871556724E+04  0.25500000000E-02 0.  1.
    8880023    1    1    2    0    0 -0.20739836679E+03  0.11423477738E+04 -0.14203564014E+04  0.19491523881E+04  0.65864270000E+03 0.  0.
    8880022    1    1    2    0    0  0.20739836679E+03 -0.11423477738E+04 -0.37513246288E+03  0.12296700925E+04  0.15294330000E+03 0.  0.
<mgrwt>
<rscale>  0 0.12918576E+04</rscale>
<asrwt>0</asrwt>
<pdfrwt beam="1">  1        2 0.10641028E+00 0.13348343E+04</pdfrwt>
<pdfrwt beam="2">  1       -2 0.38263933E+00 0.13348343E+04</pdfrwt>
<totfact> 0.38995640E-01</totfact>
</mgrwt>
</event>
<event>
 4    2  0.3388003E-007  0.6735337E+03  0.7818608E-02  0.1013247E+00
          2   -1    0    0  501    0  0.00000000000E+00  0.00000000000E+00  0.18779376744E+04  0.18779376744E+04  0.25500000000E-02 0. -1.
         -2   -1    0    0    0  501 -0.00000000000E+00 -0.00000000000E+00 -0.16479270582E+03  0.16479270584E+03  0.25500000000E-02 0.  1.
    8880023    1    1    2    0    0  0.12807572337E+03  0.58600425658E+02  0.57452606257E+03  0.88528402428E+03  0.65864270000E+03 0.  1.
    8880022    1    1    2    0    0 -0.12807572337E+03 -0.58600425658E+02  0.11386189060E+04  0.11574463560E+04  0.15294330000E+03 0.  0.
<mgrwt>
<rscale>  0 0.50204362E+03</rscale>
<asrwt>0</asrwt>
<pdfrwt beam="1">  1        2 0.28891350E+00 0.67353367E+03</pdfrwt>
<pdfrwt beam="2">  1       -2 0.25352723E-01 0.67353367E+03</pdfrwt>
<totfact> 0.11260273E+02</totfact>
</mgrwt>
</event>
<event>
 4    2  0.3388003E-007  0.9339208E+03  0.7818608E-02  0.9473636E-01
          2   -1    0    0  501    0  0.00000000000E+00  0.00000000000E+00  0.14967727724E+04  0.14967727724E+04  0.25500000000E-02 0. -1.
         -2   -1    0    0    0  501 -0.00000000000E+00 -0.00000000000E+00 -0.92573792978E+03  0.92573792978E+03  0.25500000000E-02 0.  1.
    8880023    1    1    2    0    0  0.60808952487E+03  0.26196369009E+03 -0.57023464708E+03  0.10942465920E+04  0.65864270000E+03 0.  0.
    8880022    1    1    2    0    0 -0.60808952487E+03 -0.26196369009E+03  0.11412694897E+04  0.13282641101E+04  0.15294330000E+03 0.  0.
<mgrwt>
<rscale>  0 0.86255747E+03</rscale>
<asrwt>0</asrwt>
<pdfrwt beam="1">  1        2 0.23027273E+00 0.93392080E+03</pdfrwt>
<pdfrwt beam="2">  1       -2 0.14242122E+00 0.93392080E+03</pdfrwt>
<totfact> 0.43809594E+00</totfact>
</mgrwt>
</event>
<event>
 4    2  0.3388003E-007  0.7298846E+03  0.7818608E-02  0.9890457E-01
         -2   -1    0    0    0  501 -0.00000000000E+00  0.00000000000E+00  0.16629297400E+04  0.16629297400E+04  0.25500000000E-02 0.  1.
          2   -1    0    0  501    0  0.00000000000E+00 -0.00000000000E+00 -0.28165545996E+03  0.28165545997E+03  0.25500000000E-02 0. -1.
    8880023    1    1    2    0    0 -0.10287509593E+02 -0.31434941688E+03  0.14160902176E+04  0.15931236924E+04  0.65864270000E+03 0.  0.
    8880022    1    1    2    0    0  0.10287509593E+02  0.31434941688E+03 -0.34815937576E+02  0.35146150752E+03  0.15294330000E+03 0. -1.
<mgrwt>
<rscale>  0 0.60726013E+03</rscale>
<asrwt>0</asrwt>
<pdfrwt beam="1">  1        2 0.43331609E-01 0.72988465E+03</pdfrwt>
<pdfrwt beam="2">  1       -2 0.25583534E+00 0.72988465E+03</pdfrwt>
<totfact> 0.71843380E+00</totfact>
</mgrwt>
</event>
<event>
 4    2  0.3388003E-007  0.9704688E+03  0.7818608E-02  0.9421256E-01
          2   -1    0    0  501    0  0.00000000000E+00  0.00000000000E+00  0.97919183712E+03  0.97919183713E+03  0.25500000000E-02 0. -1.
         -2   -1    0    0    0  501 -0.00000000000E+00 -0.00000000000E+00 -0.13815970994E+04  0.13815970994E+04  0.25500000000E-02 0.  1.
    8880023    1    1    2    0    0 -0.68701886342E+03 -0.18974876969E+03 -0.10181503997E+04  0.14065702816E+04  0.65864270000E+03 0.  0.
    8880022    1    1    2    0    0  0.68701886342E+03  0.18974876969E+03  0.61574513740E+03  0.95421865499E+03  0.15294330000E+03 0.  0.
<mgrwt>
<rscale>  0 0.90346843E+03</rscale>
<asrwt>0</asrwt>
<pdfrwt beam="1">  1        2 0.15064490E+00 0.97046881E+03</pdfrwt>
<pdfrwt beam="2">  1       -2 0.21255340E+00 0.97046881E+03</pdfrwt>
<totfact> 0.28544826E+00</totfact>
</mgrwt>
</event>
<event>
 4    2  0.3388003E-007  0.8176330E+03  0.7818608E-02  0.9673892E-01
          2   -1    0    0  501    0  0.00000000000E+00  0.00000000000E+00  0.24449695059E+04  0.24449695059E+04  0.25500000000E-02 0. -1.
         -2   -1    0    0    0  501 -0.00000000000E+00 -0.00000000000E+00 -0.30771139717E+03  0.30771139718E+03  0.25500000000E-02 0.  1.
    8880023    1    1    2    0    0 -0.48319115813E+03 -0.35210038464E+02  0.34088287094E+03  0.88584692813E+03  0.65864270000E+03 0.  1.
    8880022    1    1    2    0    0  0.48319115813E+03  0.35210038464E+02  0.17963752378E+04  0.18668339750E+04  0.15294330000E+03 0.  0.
<mgrwt>
<rscale>  0 0.72592769E+03</rscale>
<asrwt>0</asrwt>
<pdfrwt beam="1">  1        2 0.37614915E+00 0.81763295E+03</pdfrwt>
<pdfrwt beam="2">  1       -2 0.47340216E-01 0.81763295E+03</pdfrwt>
<totfact> 0.16392981E+01</totfact>
</mgrwt>
</event>
<event>
 4    2  0.3388003E-007  0.1211743E+04  0.7818608E-02  0.9145791E-01
          2   -1    0    0  501    0  0.00000000000E+00  0.00000000000E+00  0.93162058848E+03  0.93162058849E+03  0.25500000000E-02 0. -1.
         -2   -1    0    0    0  501 -0.00000000000E+00 -0.00000000000E+00 -0.13703295182E+04  0.13703295182E+04  0.25500000000E-02 0.  1.
    8880023    1    1    2    0    0  0.87334829165E+03 -0.52132020027E+03 -0.86714767854E+02  0.12148422313E+04  0.65864270000E+03 0.  1.
    8880022    1    1    2    0    0 -0.87334829165E+03  0.52132020027E+03 -0.35199416188E+03  0.10871078754E+04  0.15294330000E+03 0. -1.
<mgrwt>
<rscale>  0 0.11630912E+04</rscale>
<asrwt>0</asrwt>
<pdfrwt beam="1">  1        2 0.14332624E+00 0.12117435E+04</pdfrwt>
<pdfrwt beam="2">  1       -2 0.21081993E+00 0.12117435E+04</pdfrwt>
<totfact> 0.30714440E+00</totfact>
</mgrwt>
</event>
<event>
 4    2  0.3388003E-007  0.6662855E+03  0.7818608E-02  0.1018478E+00
          2   -1    0    0  501    0  0.00000000000E+00  0.00000000000E+00  0.30917465522E+04  0.30917465522E+04  0.25500000000E-02 0. -1.
         -2   -1    0    0    0  501 -0.00000000000E+00 -0.00000000000E+00 -0.12588101750E+03  0.12588101753E+03  0.25500000000E-02 0.  1.
    8880023    1    1    2    0    0  0.10041750340E+03 -0.65156250442E+01  0.78735583189E+03  0.10314385782E+04  0.65864270000E+03 0.  1.
    8880022    1    1    2    0    0 -0.10041750340E+03  0.65156250442E+01  0.21785097028E+04  0.21861889915E+04  0.15294330000E+03 0.  0.
<mgrwt>
<rscale>  0 0.48239708E+03</rscale>
<asrwt>0</asrwt>
<pdfrwt beam="1">  1        2 0.47565328E+00 0.66628548E+03</pdfrwt>
<pdfrwt beam="2">  1       -2 0.19366312E-01 0.66628548E+03</pdfrwt>
<totfact> 0.36946388E+01</totfact>
</mgrwt>
</event>
<event>
 4    2  0.3388003E-007  0.6702496E+03  0.7818608E-02  0.1015485E+00
         -2   -1    0    0    0  501 -0.00000000000E+00  0.00000000000E+00  0.38062825753E+03  0.38062825754E+03  0.25500000000E-02 0.  1.
          2   -1    0    0  501    0  0.00000000000E+00 -0.00000000000E+00 -0.10179502669E+04  0.10179502669E+04  0.25500000000E-02 0. -1.
    8880023    1    1    2    0    0 -0.98491599926E+02 -0.75655159601E+02  0.60977776865E+02  0.67301767730E+03  0.65864270000E+03 0.  1.
    8880022    1    1    2    0    0  0.98491599926E+02  0.75655159601E+02 -0.69829978623E+03  0.72556084713E+03  0.15294330000E+03 0.  0.
<mgrwt>
<rscale>  0 0.49351879E+03</rscale>
<asrwt>0</asrwt>
<pdfrwt beam="1">  1        2 0.15660773E+00 0.67024958E+03</pdfrwt>
<pdfrwt beam="2">  1       -2 0.58558194E-01 0.67024958E+03</pdfrwt>
<totfact> 0.68349355E+01</totfact>
</mgrwt>
</event>
<event>
 4    2  0.3388003E-007  0.6825962E+03  0.7818608E-02  0.1007892E+00
         -2   -1    0    0    0  501 -0.00000000000E+00  0.00000000000E+00  0.56780708022E+03  0.56780708023E+03  0.25500000000E-02 0.  1.
          2   -1    0    0  501    0  0.00000000000E+00 -0.00000000000E+00 -0.48539955736E+03  0.48539955736E+03  0.25500000000E-02 0. -1.
    8880023    1    1    2    0    0  0.38107600302E+02  0.17514318185E+03  0.28764781041E+03  0.74072855517E+03  0.65864270000E+03 0. -1.
    8880022    1    1    2    0    0 -0.38107600302E+02 -0.17514318185E+03 -0.20524028754E+03  0.31247808242E+03  0.15294330000E+03 0.  0.
<mgrwt>
<rscale>  0 0.52321245E+03</rscale>
<asrwt>0</asrwt>
<pdfrwt beam="1">  1        2 0.74676856E-01 0.68259617E+03</pdfrwt>
<pdfrwt beam="2">  1       -2 0.87354935E-01 0.68259617E+03</pdfrwt>
<totfact> 0.73262726E+01</totfact>
</mgrwt>
</event>
<event>
 4    2  0.3388003E-007  0.1048793E+04  0.7818608E-02  0.9320334E-01
         -2   -1    0    0    0  501 -0.00000000000E+00  0.00000000000E+00  0.17406636826E+04  0.17406636826E+04  0.25500000000E-02 0.  1.
          2   -1    0    0  501    0  0.00000000000E+00 -0.00000000000E+00 -0.79338744532E+03  0.79338744533E+03  0.25500000000E-02 0. -1.
    8880023    1    1    2    0    0  0.33020330465E+02  0.81551545515E+03  0.12665308659E+04  0.16444045853E+04  0.65864270000E+03 0.  0.
    8880022    1    1    2    0    0 -0.33020330465E+02 -0.81551545515E+03 -0.31925462861E+03  0.88964654257E+03  0.15294330000E+03 0.  0.
<mgrwt>
<rscale>  0 0.98932218E+03</rscale>
<asrwt>0</asrwt>
<pdfrwt beam="1">  1        2 0.12205961E+00 0.10487926E+04</pdfrwt>
<pdfrwt beam="2">  1       -2 0.26779441E+00 0.10487926E+04</pdfrwt>
<totfact> 0.17308535E+00</totfact>
</mgrwt>
</event>
<event>
 4    2  0.3388003E-007  0.8316972E+03  0.7818608E-02  0.9646039E-01
         -2   -1    0    0    0  501 -0.00000000000E+00  0.00000000000E+00  0.98522327735E+03  0.98522327735E+03  0.25500000000E-02 0.  1.
          2   -1    0    0  501    0  0.00000000000E+00 -0.00000000000E+00 -0.11658502175E+04  0.11658502175E+04  0.25500000000E-02 0. -1.
    8880023    1    1    2    0    0 -0.50592771654E+03 -0.44126536738E+02  0.72383802723E+03  0.11025704973E+04  0.65864270000E+03 0.  0.
    8880022    1    1    2    0    0  0.50592771654E+03  0.44126536738E+02 -0.90446496735E+03  0.10485029975E+04  0.15294330000E+03 0.  0.
<mgrwt>
<rscale>  0 0.74322526E+03</rscale>
<asrwt>0</asrwt>
<pdfrwt beam="1">  1        2 0.17936157E+00 0.83169719E+03</pdfrwt>
<pdfrwt beam="2">  1       -2 0.15157281E+00 0.83169719E+03</pdfrwt>
<totfact> 0.58457319E+00</totfact>
</mgrwt>
</event>
<event>
 4    2  0.3388003E-007  0.1083450E+04  0.7818608E-02  0.9279710E-01
          2   -1    0    0  501    0  0.00000000000E+00  0.00000000000E+00  0.26197888302E+04  0.26197888303E+04  0.25500000000E-02 0. -1.
         -2   -1    0    0    0  501 -0.00000000000E+00 -0.00000000000E+00 -0.54642651462E+03  0.54642651462E+03  0.25500000000E-02 0.  1.
    8880023    1    1    2    0    0 -0.49311343947E+03  0.70490658163E+03  0.20183097736E+04  0.22907288582E+04  0.65864270000E+03 0. -1.
    8880022    1    1    2    0    0  0.49311343947E+03 -0.70490658163E+03  0.55052541998E+02  0.87548648671E+03  0.15294330000E+03 0.  0.
<mgrwt>
<rscale>  0 0.10267247E+04</rscale>
<asrwt>0</asrwt>
<pdfrwt beam="1">  1        2 0.40304445E+00 0.10834502E+04</pdfrwt>
<pdfrwt beam="2">  1       -2 0.84065616E-01 0.10834502E+04</pdfrwt>
<totfact> 0.36648803E+00</totfact>
</mgrwt>
</event>
<event>
 4    2  0.3388003E-007  0.9604372E+03  0.7818608E-02  0.9435254E-01
          2   -1    0    0  501    0  0.00000000000E+00  0.00000000000E+00  0.10932083432E+04  0.10932083432E+04  0.25500000000E-02 0. -1.
         -2   -1    0    0    0  501 -0.00000000000E+00 -0.00000000000E+00 -0.10034755667E+04  0.10034755667E+04  0.25500000000E-02 0.  1.
    8880023    1    1    2    0    0  0.66378863036E+03  0.21912089990E+03  0.67363374741E+03  0.11731248640E+04  0.65864270000E+03 0.  0.
    8880022    1    1    2    0    0 -0.66378863036E+03 -0.21912089990E+03 -0.58390097082E+03  0.92355904592E+03  0.15294330000E+03 0.  0.
<mgrwt>
<rscale>  0 0.89230367E+03</rscale>
<asrwt>0</asrwt>
<pdfrwt beam="1">  1        2 0.16818590E+00 0.96043715E+03</pdfrwt>
<pdfrwt beam="2">  1       -2 0.15438086E+00 0.96043715E+03</pdfrwt>
<totfact> 0.60745480E+00</totfact>
</mgrwt>
</event>
<event>
 4    2  0.3388003E-007  0.6990967E+03  0.7818608E-02  0.1000097E+00
          2   -1    0    0  501    0  0.00000000000E+00  0.00000000000E+00  0.19449193466E+04  0.19449193466E+04  0.25500000000E-02 0. -1.
         -2   -1    0    0    0  501 -0.00000000000E+00 -0.00000000000E+00 -0.26894558722E+03  0.26894558723E+03  0.25500000000E-02 0.  1.
    8880023    1    1    2    0    0 -0.82289000514E+02  0.21944146383E+03  0.22243418056E+03  0.73363015655E+03  0.65864270000E+03 0.  1.
    8880022    1    1    2    0    0  0.82289000514E+02 -0.21944146383E+03  0.14535395788E+04  0.14802347773E+04  0.15294330000E+03 0.  0.
<mgrwt>
<rscale>  0 0.55607765E+03</rscale>
<asrwt>0</asrwt>
<pdfrwt beam="1">  1        2 0.29921835E+00 0.69909673E+03</pdfrwt>
<pdfrwt beam="2">  1       -2 0.41376245E-01 0.69909673E+03</pdfrwt>
<totfact> 0.41127796E+01</totfact>
</mgrwt>
</event>
<event>
 4    2  0.3388003E-007  0.6946314E+03  0.7818608E-02  0.1002025E+00
          2   -1    0    0  501    0  0.00000000000E+00  0.00000000000E+00  0.11745836796E+04  0.11745836796E+04  0.25500000000E-02 0. -1.
         -2   -1    0    0    0  501 -0.00000000000E+00 -0.00000000000E+00 -0.34853565890E+03  0.34853565891E+03  0.25500000000E-02 0.  1.
    8880023    1    1    2    0    0 -0.17235594081E+03 -0.13782589378E+03  0.43730041178E+02  0.69600651584E+03  0.65864270000E+03 0.  1.
    8880022    1    1    2    0    0  0.17235594081E+03  0.13782589378E+03  0.78231797954E+03  0.82711282269E+03  0.15294330000E+03 0.  0.
<mgrwt>
<rscale>  0 0.54771337E+03</rscale>
<asrwt>0</asrwt>
<pdfrwt beam="1">  1        2 0.18070519E+00 0.69463138E+03</pdfrwt>
<pdfrwt beam="2">  1       -2 0.53620870E-01 0.69463138E+03</pdfrwt>
<totfact> 0.65697592E+01</totfact>
</mgrwt>
</event>
<event>
 4    2  0.3388003E-007  0.7063429E+03  0.7818608E-02  0.9971840E-01
          2   -1    0    0  501    0  0.00000000000E+00  0.00000000000E+00  0.70370656425E+03  0.70370656425E+03  0.25500000000E-02 0. -1.
         -2   -1    0    0    0  501 -0.00000000000E+00 -0.00000000000E+00 -0.54473234940E+03  0.54473234941E+03  0.25500000000E-02 0.  1.
    8880023    1    1    2    0    0 -0.14703481835E+03  0.20854474869E+03  0.44574738015E+03  0.83523115554E+03  0.65864270000E+03 0. -1.
    8880022    1    1    2    0    0  0.14703481835E+03 -0.20854474869E+03 -0.28677316530E+03  0.41320775812E+03  0.15294330000E+03 0.  0.
<mgrwt>
<rscale>  0 0.56902418E+03</rscale>
<asrwt>0</asrwt>
<pdfrwt beam="1">  1        2 0.10826255E+00 0.70634295E+03</pdfrwt>
<pdfrwt beam="2">  1       -2 0.83804977E-01 0.70634295E+03</pdfrwt>
<totfact> 0.51471701E+01</totfact>
</mgrwt>
</event>
<event>
 4    2  0.3388003E-007  0.9963801E+03  0.7818608E-02  0.9386309E-01
         -2   -1    0    0    0  501 -0.00000000000E+00  0.00000000000E+00  0.86987618311E+03  0.86987618311E+03  0.25500000000E-02 0.  1.
          2   -1    0    0  501    0  0.00000000000E+00 -0.00000000000E+00 -0.13009312829E+04  0.13009312829E+04  0.25500000000E-02 0. -1.
    8880023    1    1    2    0    0 -0.39966770238E+03 -0.63184559363E+03  0.37147360551E+03  0.10633748033E+04  0.65864270000E+03 0.  0.
    8880022    1    1    2    0    0  0.39966770238E+03  0.63184559363E+03 -0.80252870526E+03  0.11074326626E+04  0.15294330000E+03 0.  0.
<mgrwt>
<rscale>  0 0.93211016E+03</rscale>
<asrwt>0</asrwt>
<pdfrwt beam="1">  1        2 0.20014328E+00 0.99638011E+03</pdfrwt>
<pdfrwt beam="2">  1       -2 0.13382710E+00 0.99638011E+03</pdfrwt>
<totfact> 0.66112375E+00</totfact>
</mgrwt>
</event>
<event>
 4    2  0.3388003E-007  0.7190614E+03  0.7818608E-02  0.9925775E-01
         -2   -1    0    0    0  501 -0.00000000000E+00  0.00000000000E+00  0.32748244707E+03  0.32748244708E+03  0.25500000000E-02 0.  1.
          2   -1    0    0  501    0  0.00000000000E+00 -0.00000000000E+00 -0.19438382711E+04  0.19438382711E+04  0.25500000000E-02 0. -1.
    8880023    1    1    2    0    0 -0.25936020570E+03  0.12637795420E+03 -0.10691970094E+03  0.72696707788E+03  0.65864270000E+03 0.  1.
    8880022    1    1    2    0    0  0.25936020570E+03 -0.12637795420E+03 -0.15094361231E+04  0.15443536403E+04  0.15294330000E+03 0.  0.
<mgrwt>
<rscale>  0 0.59028235E+03</rscale>
<asrwt>0</asrwt>
<pdfrwt beam="1">  1        2 0.29905204E+00 0.71906141E+03</pdfrwt>
<pdfrwt beam="2">  1       -2 0.50381916E-01 0.71906141E+03</pdfrwt>
<totfact> 0.27711456E+01</totfact>
</mgrwt>
</event>
<event>
 4    2  0.3388003E-007  0.8143616E+03  0.7818608E-02  0.9680562E-01
         -2   -1    0    0    0  501 -0.00000000000E+00  0.00000000000E+00  0.65399413569E+03  0.65399413569E+03  0.25500000000E-02 0.  1.
          2   -1    0    0  501    0  0.00000000000E+00 -0.00000000000E+00 -0.85676722778E+03  0.85676722779E+03  0.25500000000E-02 0. -1.
    8880023    1    1    2    0    0  0.64447221672E+02 -0.47457476237E+03  0.23126868425E+03  0.84656367748E+03  0.65864270000E+03 0.  1.
    8880022    1    1    2    0    0 -0.64447221672E+02  0.47457476237E+03 -0.43404177634E+03  0.66419768600E+03  0.15294330000E+03 0. -1.
<mgrwt>
<rscale>  0 0.72185983E+03</rscale>
<asrwt>0</asrwt>
<pdfrwt beam="1">  1        2 0.13181034E+00 0.81436162E+03</pdfrwt>
<pdfrwt beam="2">  1       -2 0.10061448E+00 0.81436162E+03</pdfrwt>
<totfact> 0.25786052E+01</totfact>
</mgrwt>
</event>
<event>
 4    2  0.3388003E-007  0.6872157E+03  0.7818608E-02  0.1005505E+00
         -2   -1    0    0    0  501 -0.00000000000E+00  0.00000000000E+00  0.35350809178E+03  0.35350809178E+03  0.25500000000E-02 0.  1.
          2   -1    0    0  501    0  0.00000000000E+00 -0.00000000000E+00 -0.16040723970E+04  0.16040723970E+04  0.25500000000E-02 0. -1.
    8880023    1    1    2    0    0 -0.15777425363E+03  0.11645810349E+03 -0.47965408078E+01  0.68723243378E+03  0.65864270000E+03 0.  1.
    8880022    1    1    2    0    0  0.15777425363E+03 -0.11645810349E+03 -0.12457677644E+04  0.12703480550E+04  0.15294330000E+03 0.  0.
<mgrwt>
<rscale>  0 0.53300896E+03</rscale>
<asrwt>0</asrwt>
<pdfrwt beam="1">  1        2 0.24678036E+00 0.68721569E+03</pdfrwt>
<pdfrwt beam="2">  1       -2 0.54385861E-01 0.68721569E+03</pdfrwt>
<totfact> 0.36441691E+01</totfact>
</mgrwt>
</event>
<event>
 4    2  0.3388003E-007  0.7988848E+03  0.7818608E-02  0.9713213E-01
         -2   -1    0    0    0  501 -0.00000000000E+00  0.00000000000E+00  0.21999316213E+03  0.21999316215E+03  0.25500000000E-02 0.  1.
          2   -1    0    0  501    0  0.00000000000E+00 -0.00000000000E+00 -0.33534012557E+04  0.33534012557E+04  0.25500000000E-02 0. -1.
    8880023    1    1    2    0    0 -0.11102167104E+03  0.43827038169E+03 -0.60973211890E+03  0.10049826874E+04  0.65864270000E+03 0.  1.
    8880022    1    1    2    0    0  0.11102167104E+03 -0.43827038169E+03 -0.25236759747E+04  0.25684117305E+04  0.15294330000E+03 0.  0.
<mgrwt>
<rscale>  0 0.70235545E+03</rscale>
<asrwt>0</asrwt>
<pdfrwt beam="1">  1        2 0.51590785E+00 0.79888481E+03</pdfrwt>
<pdfrwt beam="2">  1       -2 0.33845104E-01 0.79888481E+03</pdfrwt>
<totfact> 0.89252778E+00</totfact>
</mgrwt>
</event>
<event>
 4    2  0.3388003E-007  0.9773240E+03  0.7818608E-02  0.9411845E-01
         -2   -1    0    0    0  501 -0.00000000000E+00  0.00000000000E+00  0.22094481115E+04  0.22094481115E+04  0.25500000000E-02 0.  1.
          2   -1    0    0  501    0  0.00000000000E+00 -0.00000000000E+00 -0.11276235888E+04  0.11276235888E+04  0.25500000000E-02 0. -1.
    8880023    1    1    2    0    0 -0.91383696225E+02  0.71624082599E+03  0.19598663731E+04  0.21900315768E+04  0.65864270000E+03 0.  1.
    8880022    1    1    2    0    0  0.91383696225E+02 -0.71624082599E+03 -0.87804185040E+03  0.11470401235E+04  0.15294330000E+03 0.  0.
<mgrwt>
<rscale>  0 0.91107246E+03</rscale>
<asrwt>0</asrwt>
<pdfrwt beam="1">  1        2 0.17348055E+00 0.97732395E+03</pdfrwt>
<pdfrwt beam="2">  1       -2 0.33991509E+00 0.97732395E+03</pdfrwt>
<totfact> 0.38232957E-01</totfact>
</mgrwt>
</event>
<event>
 4    2  0.3388003E-007  0.6664529E+03  0.7818608E-02  0.1018344E+00
          2   -1    0    0  501    0  0.00000000000E+00  0.00000000000E+00  0.91898712229E+03  0.91898712230E+03  0.25500000000E-02 0. -1.
         -2   -1    0    0    0  501 -0.00000000000E+00 -0.00000000000E+00 -0.12329926170E+04  0.12329926170E+04  0.25500000000E-02 0.  1.
    8880023    1    1    2    0    0 -0.76266022765E+02  0.67325947675E+02 -0.11320000130E+04  0.13136146791E+04  0.65864270000E+03 0.  1.
    8880022    1    1    2    0    0  0.76266022765E+02 -0.67325947675E+02  0.81799451821E+03  0.83836506028E+03  0.15294330000E+03 0.  0.
<mgrwt>
<rscale>  0 0.48288838E+03</rscale>
<asrwt>0</asrwt>
<pdfrwt beam="1">  1        2 0.14138263E+00 0.66645292E+03</pdfrwt>
<pdfrwt beam="2">  1       -2 0.18969117E+00 0.66645292E+03</pdfrwt>
<totfact> 0.45858549E+00</totfact>
</mgrwt>
</event>
<event>
 4    2  0.3388003E-007  0.1183488E+04  0.7818608E-02  0.9173343E-01
         -2   -1    0    0    0  501 -0.00000000000E+00  0.00000000000E+00  0.15013504113E+04  0.15013504113E+04  0.25500000000E-02 0.  1.
          2   -1    0    0  501    0  0.00000000000E+00 -0.00000000000E+00 -0.18799388421E+04  0.18799388421E+04  0.25500000000E-02 0. -1.
    8880023    1    1    2    0    0 -0.96000410887E+03 -0.21266239510E+03 -0.14812615886E+04  0.18959903174E+04  0.65864270000E+03 0. -1.
    8880022    1    1    2    0    0  0.96000410887E+03  0.21266239510E+03  0.11026731578E+04  0.14852989360E+04  0.15294330000E+03 0.  0.
<mgrwt>
<rscale>  0 0.11332861E+04</rscale>
<asrwt>0</asrwt>
<pdfrwt beam="1">  1        2 0.28922136E+00 0.11834878E+04</pdfrwt>
<pdfrwt beam="2">  1       -2 0.23097699E+00 0.11834878E+04</pdfrwt>
<totfact> 0.63939148E-01</totfact>
</mgrwt>
</event>
<event>
 4    2  0.3388003E-007  0.6881911E+03  0.7818608E-02  0.1005024E+00
          2   -1    0    0  501    0  0.00000000000E+00  0.00000000000E+00  0.16262606335E+04  0.16262606335E+04  0.25500000000E-02 0. -1.
         -2   -1    0    0    0  501 -0.00000000000E+00 -0.00000000000E+00 -0.35552861312E+03  0.35552861313E+03  0.25500000000E-02 0.  1.
    8880023    1    1    2    0    0 -0.49537792170E+02  0.19324287760E+03  0.17948198532E+01  0.68819345408E+03  0.65864270000E+03 0.  1.
    8880022    1    1    2    0    0  0.49537792170E+02 -0.19324287760E+03  0.12689372006E+04  0.12935957926E+04  0.15294330000E+03 0.  0.
<mgrwt>
<rscale>  0 0.53500952E+03</rscale>
<asrwt>0</asrwt>
<pdfrwt beam="1">  1        2 0.25019395E+00 0.68819111E+03</pdfrwt>
<pdfrwt beam="2">  1       -2 0.54696709E-01 0.68819111E+03</pdfrwt>
<totfact> 0.35014439E+01</totfact>
</mgrwt>
</event>
<event>
 4    2  0.3388003E-007  0.1414553E+04  0.7818608E-02  0.8972456E-01
         -2   -1    0    0    0  501 -0.00000000000E+00  0.00000000000E+00  0.13399654522E+04  0.13399654522E+04  0.25500000000E-02 0.  1.
          2   -1    0    0  501    0  0.00000000000E+00 -0.00000000000E+00 -0.22804548998E+04  0.22804548998E+04  0.25500000000E-02 0. -1.
    8880023    1    1    2    0    0 -0.71256466073E+03 -0.10292729216E+04 -0.16500158108E+04  0.21733645633E+04  0.65864270000E+03 0.  0.
    8880022    1    1    2    0    0  0.71256466073E+03  0.10292729216E+04  0.70952636313E+03  0.14470557888E+04  0.15294330000E+03 0.  0.
<mgrwt>
<rscale>  0 0.13745409E+04</rscale>
<asrwt>0</asrwt>
<pdfrwt beam="1">  1        2 0.35083922E+00 0.14145534E+04</pdfrwt>
<pdfrwt beam="2">  1       -2 0.20614853E+00 0.14145534E+04</pdfrwt>
<totfact> 0.53452558E-01</totfact>
</mgrwt>
</event>
<event>
 4    2  0.3388003E-007  0.8332817E+03  0.7818608E-02  0.9642981E-01
         -2   -1    0    0    0  501 -0.00000000000E+00  0.00000000000E+00  0.89974709473E+03  0.89974709474E+03  0.25500000000E-02 0.  1.
          2   -1    0    0  501    0  0.00000000000E+00 -0.00000000000E+00 -0.10857903903E+04  0.10857903904E+04  0.25500000000E-02 0. -1.
    8880023    1    1    2    0    0  0.43177237806E+03 -0.27225127350E+03  0.60641930518E+03  0.10305836804E+04  0.65864270000E+03 0.  1.
    8880022    1    1    2    0    0 -0.43177237806E+03  0.27225127350E+03 -0.79246260079E+03  0.95495380467E+03  0.15294330000E+03 0.  0.
<mgrwt>
<rscale>  0 0.74515592E+03</rscale>
<asrwt>0</asrwt>
<pdfrwt beam="1">  1        2 0.16704468E+00 0.83328167E+03</pdfrwt>
<pdfrwt beam="2">  1       -2 0.13842263E+00 0.83328167E+03</pdfrwt>
<totfact> 0.82955142E+00</totfact>
</mgrwt>
</event>
<event>
 4    2  0.3388003E-007  0.1102461E+04  0.7818608E-02  0.9258321E-01
         -2   -1    0    0    0  501 -0.00000000000E+00  0.00000000000E+00  0.46214470838E+03  0.46214470839E+03  0.25500000000E-02 0.  1.
          2   -1    0    0  501    0  0.00000000000E+00 -0.00000000000E+00 -0.29349180102E+04  0.29349180102E+04  0.25500000000E-02 0. -1.
    8880023    1    1    2    0    0 -0.68849157924E+03 -0.55460767676E+03 -0.46229225793E+03  0.11954642060E+04  0.65864270000E+03 0.  1.
    8880022    1    1    2    0    0  0.68849157924E+03  0.55460767676E+03 -0.20104810439E+04  0.22015985126E+04  0.15294330000E+03 0.  0.
<mgrwt>
<rscale>  0 0.10471215E+04</rscale>
<asrwt>0</asrwt>
<pdfrwt beam="1">  1        2 0.45152584E+00 0.11024611E+04</pdfrwt>
<pdfrwt beam="2">  1       -2 0.71099188E-01 0.11024611E+04</pdfrwt>
<totfact> 0.34551531E+00</totfact>
</mgrwt>
</event>
<event>
 4    2  0.3388003E-007  0.7685048E+03  0.7818608E-02  0.9783567E-01
          2   -1    0    0  501    0  0.00000000000E+00  0.00000000000E+00  0.90770910613E+03  0.90770910613E+03  0.25500000000E-02 0. -1.
         -2   -1    0    0    0  501 -0.00000000000E+00 -0.00000000000E+00 -0.49941557225E+03  0.49941557226E+03  0.25500000000E-02 0.  1.
    8880023    1    1    2    0    0 -0.19223551008E+03  0.34617185405E+03 -0.65142612270E+02  0.77126079252E+03  0.65864270000E+03 0.  0.
    8880022    1    1    2    0    0  0.19223551008E+03 -0.34617185405E+03  0.47343614615E+03  0.63586388588E+03  0.15294330000E+03 0.  0.
<mgrwt>
<rscale>  0 0.66251940E+03</rscale>
<asrwt>0</asrwt>
<pdfrwt beam="1">  1        2 0.13964756E+00 0.76850481E+03</pdfrwt>
<pdfrwt beam="2">  1       -2 0.76833165E-01 0.76850481E+03</pdfrwt>
<totfact> 0.44418476E+01</totfact>
</mgrwt>
</event>
<event>
 4    2  0.3388003E-007  0.7019280E+03  0.7818608E-02  0.9989295E-01
          2   -1    0    0  501    0  0.00000000000E+00  0.00000000000E+00  0.13691237162E+04  0.13691237162E+04  0.25500000000E-02 0. -1.
         -2   -1    0    0    0  501 -0.00000000000E+00 -0.00000000000E+00 -0.22884431262E+03  0.22884431263E+03  0.25500000000E-02 0.  1.
    8880023    1    1    2    0    0 -0.88566277719E+02  0.22593973241E+03  0.40889185668E+03  0.81233952566E+03  0.65864270000E+03 0.  1.
    8880022    1    1    2    0    0  0.88566277719E+02 -0.22593973241E+03  0.73138754692E+03  0.78562850320E+03  0.15294330000E+03 0.  0.
<mgrwt>
<rscale>  0 0.56122128E+03</rscale>
<asrwt>0</asrwt>
<pdfrwt beam="1">  1        2 0.21063442E+00 0.70192803E+03</pdfrwt>
<pdfrwt beam="2">  1       -2 0.35206817E-01 0.70192803E+03</pdfrwt>
<totfact> 0.11647576E+02</totfact>
</mgrwt>
</event>
<event>
 4    2  0.3388003E-007  0.8600899E+03  0.7818608E-02  0.9593404E-01
         -2   -1    0    0    0  501 -0.00000000000E+00  0.00000000000E+00  0.69636494425E+03  0.69636494425E+03  0.25500000000E-02 0.  1.
          2   -1    0    0  501    0  0.00000000000E+00 -0.00000000000E+00 -0.23474645959E+04  0.23474645959E+04  0.25500000000E-02 0. -1.
    8880023    1    1    2    0    0 -0.38390198295E+03 -0.39820047617E+03  0.37480821575E+03  0.93820880223E+03  0.65864270000E+03 0.  0.
    8880022    1    1    2    0    0  0.38390198295E+03  0.39820047617E+03 -0.20259078674E+04  0.21056207379E+04  0.15294330000E+03 0.  0.
<mgrwt>
<rscale>  0 0.77734314E+03</rscale>
<asrwt>0</asrwt>
<pdfrwt beam="1">  1        2 0.36114840E+00 0.86008985E+03</pdfrwt>
<pdfrwt beam="2">  1       -2 0.10713307E+00 0.86008985E+03</pdfrwt>
<totfact> 0.30617637E+00</totfact>
</mgrwt>
</event>
<event>
 4    2  0.3388003E-007  0.6922059E+03  0.7818608E-02  0.1003121E+00
         -2   -1    0    0    0  501 -0.00000000000E+00  0.00000000000E+00  0.12925186737E+04  0.12925186737E+04  0.25500000000E-02 0.  1.
          2   -1    0    0  501    0  0.00000000000E+00 -0.00000000000E+00 -0.40874618324E+03  0.40874618325E+03  0.25500000000E-02 0. -1.
    8880023    1    1    2    0    0 -0.20186100336E+03  0.67756050214E+02  0.11406334951E+04  0.13342390053E+04  0.65864270000E+03 0.  0.
    8880022    1    1    2    0    0  0.20186100336E+03 -0.67756050214E+02 -0.25686100464E+03  0.36702585159E+03  0.15294330000E+03 0.  0.
<mgrwt>
<rscale>  0 0.54302530E+03</rscale>
<asrwt>0</asrwt>
<pdfrwt beam="1">  1        2 0.62884029E-01 0.69220586E+03</pdfrwt>
<pdfrwt beam="2">  1       -2 0.19884902E+00 0.69220586E+03</pdfrwt>
<totfact> 0.10761484E+01</totfact>
</mgrwt>
</event>
<event>
 4    2  0.3388003E-007  0.7163618E+03  0.7818608E-02  0.9935094E-01
         -2   -1    0    0    0  501 -0.00000000000E+00  0.00000000000E+00  0.59418523966E+03  0.59418523966E+03  0.25500000000E-02 0.  1.
          2   -1    0    0  501    0  0.00000000000E+00 -0.00000000000E+00 -0.92768811308E+03  0.92768811308E+03  0.25500000000E-02 0. -1.
    8880023    1    1    2    0    0  0.27330079223E+03 -0.68342373957E+02  0.32717293968E+03  0.78753815262E+03  0.65864270000E+03 0.  1.
    8880022    1    1    2    0    0 -0.27330079223E+03  0.68342373957E+02 -0.66067581309E+03  0.73433520012E+03  0.15294330000E+03 0.  0.
<mgrwt>
<rscale>  0 0.58590206E+03</rscale>
<asrwt>0</asrwt>
<pdfrwt beam="1">  1        2 0.14272125E+00 0.71636179E+03</pdfrwt>
<pdfrwt beam="2">  1       -2 0.91413114E-01 0.71636179E+03</pdfrwt>
<totfact> 0.29171065E+01</totfact>
</mgrwt>
</event>
<event>
 4    2  0.3388003E-007  0.9207996E+03  0.7818608E-02  0.9493434E-01
         -2   -1    0    0    0  501 -0.00000000000E+00  0.00000000000E+00  0.37190410867E+03  0.37190410868E+03  0.25500000000E-02 0.  1.
          2   -1    0    0  501    0  0.00000000000E+00 -0.00000000000E+00 -0.20700542834E+04  0.20700542834E+04  0.25500000000E-02 0. -1.
    8880023    1    1    2    0    0  0.58954155778E+03  0.25788065861E+03 -0.14845335838E+04  0.17469149522E+04  0.65864270000E+03 0.  0.
    8880022    1    1    2    0    0 -0.58954155778E+03 -0.25788065861E+03 -0.21361659095E+03  0.69504343992E+03  0.15294330000E+03 0.  0.
<mgrwt>
<rscale>  0 0.84769633E+03</rscale>
<asrwt>0</asrwt>
<pdfrwt beam="1">  1        2 0.31846988E+00 0.92079959E+03</pdfrwt>
<pdfrwt beam="2">  1       -2 0.57216018E-01 0.92079959E+03</pdfrwt>
<totfact> 0.17717890E+01</totfact>
</mgrwt>
</event>
<event>
 4    2  0.3388003E-007  0.1199843E+04  0.7818608E-02  0.9157275E-01
         -2   -1    0    0    0  501 -0.00000000000E+00  0.00000000000E+00  0.78653895689E+03  0.78653895689E+03  0.25500000000E-02 0.  1.
          2   -1    0    0  501    0  0.00000000000E+00 -0.00000000000E+00 -0.36972206065E+04  0.36972206065E+04  0.25500000000E-02 0. -1.
    8880023    1    1    2    0    0 -0.93638953737E+03 -0.35914864776E+03 -0.32092752590E+04  0.34262327725E+04  0.65864270000E+03 0. -1.
    8880022    1    1    2    0    0  0.93638953737E+03  0.35914864776E+03  0.29859360941E+03  0.10575267909E+04  0.15294330000E+03 0.  0.
<mgrwt>
<rscale>  0 0.11505515E+04</rscale>
<asrwt>0</asrwt>
<pdfrwt beam="1">  1        2 0.56880316E+00 0.11998430E+04</pdfrwt>
<pdfrwt beam="2">  1       -2 0.12100600E+00 0.11998430E+04</pdfrwt>
<totfact> 0.30576210E-01</totfact>
</mgrwt>
</event>
<event>
 4    2  0.3388003E-007  0.8555295E+03  0.7818608E-02  0.9601566E-01
          2   -1    0    0  501    0  0.00000000000E+00  0.00000000000E+00  0.68300120713E+03  0.68300120713E+03  0.25500000000E-02 0. -1.
         -2   -1    0    0    0  501 -0.00000000000E+00 -0.00000000000E+00 -0.83216011866E+03  0.83216011867E+03  0.25500000000E-02 0.  1.
    8880023    1    1    2    0    0  0.27216929998E+03 -0.47333331831E+03 -0.33453116900E+03  0.91860865845E+03  0.65864270000E+03 0.  1.
    8880022    1    1    2    0    0 -0.27216929998E+03  0.47333331831E+03  0.18537225747E+03  0.59655266735E+03  0.15294330000E+03 0. -1.
<mgrwt>
<rscale>  0 0.77192647E+03</rscale>
<asrwt>0</asrwt>
<pdfrwt beam="1">  1        2 0.10507711E+00 0.85552952E+03</pdfrwt>
<pdfrwt beam="2">  1       -2 0.12802463E+00 0.85552952E+03</pdfrwt>
<totfact> 0.19167875E+01</totfact>
</mgrwt>
</event>
<event>
 4    2  0.3388003E-007  0.8030973E+03  0.7818608E-02  0.9704139E-01
         -2   -1    0    0    0  501 -0.00000000000E+00  0.00000000000E+00  0.84398589922E+03  0.84398589922E+03  0.25500000000E-02 0.  1.
          2   -1    0    0  501    0  0.00000000000E+00 -0.00000000000E+00 -0.98752656197E+03  0.98752656197E+03  0.25500000000E-02 0. -1.
    8880023    1    1    2    0    0  0.88083175333E+02  0.45099484447E+03  0.55880424997E+03  0.97837998322E+03  0.65864270000E+03 0.  0.
    8880022    1    1    2    0    0 -0.88083175333E+02 -0.45099484447E+03 -0.70234491272E+03  0.85313247797E+03  0.15294330000E+03 0.  0.
<mgrwt>
<rscale>  0 0.70770907E+03</rscale>
<asrwt>0</asrwt>
<pdfrwt beam="1">  1        2 0.15192716E+00 0.80309726E+03</pdfrwt>
<pdfrwt beam="2">  1       -2 0.12984399E+00 0.80309726E+03</pdfrwt>
<totfact> 0.11302370E+01</totfact>
</mgrwt>
</event>
<event>
 4    2  0.3388003E-007  0.1381275E+04  0.7818608E-02  0.8998371E-01
         -2   -1    0    0    0  501 -0.00000000000E+00  0.00000000000E+00  0.96489123649E+03  0.96489123650E+03  0.25500000000E-02 0.  1.
          2   -1    0    0  501    0  0.00000000000E+00 -0.00000000000E+00 -0.19521099782E+04  0.19521099782E+04  0.25500000000E-02 0. -1.
    8880023    1    1    2    0    0 -0.12048155452E+04  0.15010211501E+03 -0.61619554838E+02  0.13826490222E+04  0.65864270000E+03 0.  0.
    8880022    1    1    2    0    0  0.12048155452E+04 -0.15010211501E+03 -0.92559918690E+03  0.15343521925E+04  0.15294330000E+03 0.  0.
<mgrwt>
<rscale>  0 0.13400812E+04</rscale>
<asrwt>0</asrwt>
<pdfrwt beam="1">  1        2 0.30032461E+00 0.13812753E+04</pdfrwt>
<pdfrwt beam="2">  1       -2 0.14844481E+00 0.13812753E+04</pdfrwt>
<totfact> 0.20902047E+00</totfact>
</mgrwt>
</event>
<event>
 4    2  0.3388003E-007  0.7695934E+03  0.7818608E-02  0.9780876E-01
         -2   -1    0    0    0  501 -0.00000000000E+00  0.00000000000E+00  0.18544077490E+03  0.18544077492E+03  0.25500000000E-02 0.  1.
          2   -1    0    0  501    0  0.00000000000E+00 -0.00000000000E+00 -0.21391459774E+04  0.21391459774E+04  0.25500000000E-02 0. -1.
    8880023    1    1    2    0    0  0.30130031057E+03  0.26015749605E+03 -0.87860443094E+03  0.11679981816E+04  0.65864270000E+03 0. -1.
    8880022    1    1    2    0    0 -0.30130031057E+03 -0.26015749605E+03 -0.10751007716E+04  0.11565885708E+04  0.15294330000E+03 0.  1.
<mgrwt>
<rscale>  0 0.66399039E+03</rscale>
<asrwt>0</asrwt>
<pdfrwt beam="1">  1        2 0.32909936E+00 0.76959340E+03</pdfrwt>
<pdfrwt beam="2">  1       -2 0.28529351E-01 0.76959340E+03</pdfrwt>
<totfact> 0.64692151E+01</totfact>
</mgrwt>
</event>
<event>
 4    2  0.3388003E-007  0.9999201E+03  0.7818608E-02  0.9381662E-01
         -2   -1    0    0    0  501 -0.00000000000E+00  0.00000000000E+00  0.42979921420E+03  0.42979921421E+03  0.25500000000E-02 0.  1.
          2   -1    0    0  501    0  0.00000000000E+00 -0.00000000000E+00 -0.23128507196E+04  0.23128507196E+04  0.25500000000E-02 0. -1.
    8880023    1    1    2    0    0  0.55449219365E+03 -0.50849614379E+03 -0.16690339226E+04  0.19456398336E+04  0.65864270000E+03 0.  0.
    8880022    1    1    2    0    0 -0.55449219365E+03  0.50849614379E+03 -0.21401758282E+03  0.79701010022E+03  0.15294330000E+03 0.  0.
<mgrwt>
<rscale>  0 0.93600294E+03</rscale>
<asrwt>0</asrwt>
<pdfrwt beam="1">  1        2 0.35582318E+00 0.99992006E+03</pdfrwt>
<pdfrwt beam="2">  1       -2 0.66122958E-01 0.99992006E+03</pdfrwt>
<totfact> 0.94545862E+00</totfact>
</mgrwt>
</event>
<event>
 4    2  0.3388003E-007  0.7494510E+03  0.7818608E-02  0.9833226E-01
         -2   -1    0    0    0  501 -0.00000000000E+00  0.00000000000E+00  0.36234252402E+03  0.36234252402E+03  0.25500000000E-02 0.  1.
          2   -1    0    0  501    0  0.00000000000E+00 -0.00000000000E+00 -0.14108972269E+04  0.14108972269E+04  0.25500000000E-02 0. -1.
    8880023    1    1    2    0    0 -0.11694523212E+03  0.33792070589E+03 -0.11023801823E+03  0.75751516005E+03  0.65864270000E+03 0.  0.
    8880022    1    1    2    0    0  0.11694523212E+03 -0.33792070589E+03 -0.93831668461E+03  0.10157245908E+04  0.15294330000E+03 0.  0.
<mgrwt>
<rscale>  0 0.63609549E+03</rscale>
<asrwt>0</asrwt>
<pdfrwt beam="1">  1        2 0.21706111E+00 0.74945100E+03</pdfrwt>
<pdfrwt beam="2">  1       -2 0.55745004E-01 0.74945100E+03</pdfrwt>
<totfact> 0.44022930E+01</totfact>
</mgrwt>
</event>
<event>
 4    2  0.3388003E-007  0.8882004E+03  0.7818608E-02  0.9545245E-01
         -2   -1    0    0    0  501 -0.00000000000E+00  0.00000000000E+00  0.24994137758E+03  0.24994137759E+03  0.25500000000E-02 0.  1.
          2   -1    0    0  501    0  0.00000000000E+00 -0.00000000000E+00 -0.22608353374E+04  0.22608353374E+04  0.25500000000E-02 0. -1.
    8880023    1    1    2    0    0 -0.18094723561E+02 -0.59561932275E+03 -0.11947291417E+04  0.14887168048E+04  0.65864270000E+03 0.  1.
    8880022    1    1    2    0    0  0.18094723561E+02  0.59561932275E+03 -0.81616481814E+03  0.10220599102E+04  0.15294330000E+03 0. -1.
<mgrwt>
<rscale>  0 0.81028688E+03</rscale>
<asrwt>0</asrwt>
<pdfrwt beam="1">  1        2 0.34782081E+00 0.88820043E+03</pdfrwt>
<pdfrwt beam="2">  1       -2 0.38452521E-01 0.88820043E+03</pdfrwt>
<totfact> 0.31086957E+01</totfact>
</mgrwt>
</event>
<event>
 4    2  0.3388003E-007  0.7361075E+03  0.7818608E-02  0.9871434E-01
         -2   -1    0    0    0  501 -0.00000000000E+00  0.00000000000E+00  0.20824103306E+03  0.20824103308E+03  0.25500000000E-02 0.  1.
          2   -1    0    0  501    0  0.00000000000E+00 -0.00000000000E+00 -0.26087778583E+04  0.26087778583E+04  0.25500000000E-02 0. -1.
    8880023    1    1    2    0    0  0.31045544021E+03  0.10798857639E+03 -0.51851296809E+03  0.90039436766E+03  0.65864270000E+03 0.  1.
    8880022    1    1    2    0    0 -0.31045544021E+03 -0.10798857639E+03 -0.18820238572E+04  0.19166245237E+04  0.15294330000E+03 0.  0.
<mgrwt>
<rscale>  0 0.61665910E+03</rscale>
<asrwt>0</asrwt>
<pdfrwt beam="1">  1        2 0.40135042E+00 0.73610755E+03</pdfrwt>
<pdfrwt beam="2">  1       -2 0.32037084E-01 0.73610755E+03</pdfrwt>
<totfact> 0.28578928E+01</totfact>
</mgrwt>
</event>
<event>
 4    2  0.3388003E-007  0.9147144E+03  0.7818608E-02  0.9502811E-01
         -2   -1    0    0    0  501 -0.00000000000E+00  0.00000000000E+00  0.26932642178E+03  0.26932642179E+03  0.25500000000E-02 0.  1.
          2   -1    0    0  501    0  0.00000000000E+00 -0.00000000000E+00 -0.26141220986E+04  0.26141220986E+04  0.25500000000E-02 0. -1.
    8880023    1    1    2    0    0  0.11964253445E+03 -0.62336018443E+03 -0.83496420847E+03  0.12384941224E+04  0.65864270000E+03 0.  0.
    8880022    1    1    2    0    0 -0.11964253445E+03  0.62336018443E+03 -0.15098314683E+04  0.16449543980E+04  0.15294330000E+03 0.  0.
<mgrwt>
<rscale>  0 0.84076865E+03</rscale>
<asrwt>0</asrwt>
<pdfrwt beam="1">  1        2 0.40217261E+00 0.91471442E+03</pdfrwt>
<pdfrwt beam="2">  1       -2 0.41434836E-01 0.91471442E+03</pdfrwt>
<totfact> 0.16887817E+01</totfact>
</mgrwt>
</event>
<event>
 4    2  0.3388003E-007  0.7424632E+03  0.7818608E-02  0.9852829E-01
         -2   -1    0    0    0  501 -0.00000000000E+00  0.00000000000E+00  0.21072418499E+03  0.21072418500E+03  0.25500000000E-02 0.  1.
          2   -1    0    0  501    0  0.00000000000E+00 -0.00000000000E+00 -0.16028845822E+04  0.16028845822E+04  0.25500000000E-02 0. -1.
    8880023    1    1    2    0    0  0.52282307765E+02  0.33868567034E+03 -0.11436087246E+04  0.13634854397E+04  0.65864270000E+03 0.  0.
    8880022    1    1    2    0    0 -0.52282307765E+02 -0.33868567034E+03 -0.24855167261E+03  0.45012332751E+03  0.15294330000E+03 0.  0.
<mgrwt>
<rscale>  0 0.62602877E+03</rscale>
<asrwt>0</asrwt>
<pdfrwt beam="1">  1        2 0.24659762E+00 0.74246322E+03</pdfrwt>
<pdfrwt beam="2">  1       -2 0.32419106E-01 0.74246322E+03</pdfrwt>
<totfact> 0.10046157E+02</totfact>
</mgrwt>
</event>
<event>
 4    2  0.3388003E-007  0.7441876E+03  0.7818608E-02  0.9847913E-01
          2   -1    0    0  501    0  0.00000000000E+00  0.00000000000E+00  0.39814635994E+04  0.39814635994E+04  0.25500000000E-02 0. -1.
         -2   -1    0    0    0  501 -0.00000000000E+00 -0.00000000000E+00 -0.13698987439E+03  0.13698987442E+03  0.25500000000E-02 0.  1.
    8880023    1    1    2    0    0  0.25470545456E+03  0.23479797088E+03  0.98761787662E+03  0.12366099758E+04  0.65864270000E+03 0.  1.
    8880022    1    1    2    0    0 -0.25470545456E+03 -0.23479797088E+03  0.28568558484E+04  0.28818434981E+04  0.15294330000E+03 0.  0.
<mgrwt>
<rscale>  0 0.62853458E+03</rscale>
<asrwt>0</asrwt>
<pdfrwt beam="1">  1        2 0.61253297E+00 0.74418759E+03</pdfrwt>
<pdfrwt beam="2">  1       -2 0.21075361E-01 0.74418759E+03</pdfrwt>
<totfact> 0.76000657E+00</totfact>
</mgrwt>
</event>
<event>
 4    2  0.3388003E-007  0.8270306E+03  0.7818608E-02  0.9655138E-01
          2   -1    0    0  501    0  0.00000000000E+00  0.00000000000E+00  0.25132822198E+04  0.25132822198E+04  0.25500000000E-02 0. -1.
         -2   -1    0    0    0  501 -0.00000000000E+00 -0.00000000000E+00 -0.37652220937E+03  0.37652220938E+03  0.25500000000E-02 0.  1.
    8880023    1    1    2    0    0  0.35038247642E+02  0.49894056135E+03  0.22118504592E+04  0.23614110236E+04  0.65864270000E+03 0. -1.
    8880022    1    1    2    0    0 -0.35038247642E+02 -0.49894056135E+03 -0.75090448705E+02  0.52839340558E+03  0.15294330000E+03 0.  0.
<mgrwt>
<rscale>  0 0.73751855E+03</rscale>
<asrwt>0</asrwt>
<pdfrwt beam="1">  1        2 0.38665880E+00 0.82703057E+03</pdfrwt>
<pdfrwt beam="2">  1       -2 0.57926495E-01 0.82703057E+03</pdfrwt>
<totfact> 0.98847667E+00</totfact>
</mgrwt>
</event>
<event>
 4    2  0.3388003E-007  0.8104385E+03  0.7818608E-02  0.9688664E-01
         -2   -1    0    0    0  501 -0.00000000000E+00  0.00000000000E+00  0.44014215012E+03  0.44014215013E+03  0.25500000000E-02 0.  1.
          2   -1    0    0  501    0  0.00000000000E+00 -0.00000000000E+00 -0.15968239826E+04  0.15968239826E+04  0.25500000000E-02 0. -1.
    8880023    1    1    2    0    0  0.47153005255E+03  0.25685087005E+02 -0.35957526185E+02  0.81123576357E+03  0.65864270000E+03 0.  0.
    8880022    1    1    2    0    0 -0.47153005255E+03 -0.25685087005E+02 -0.11207243063E+04  0.12257303691E+04  0.15294330000E+03 0.  0.
<mgrwt>
<rscale>  0 0.71695741E+03</rscale>
<asrwt>0</asrwt>
<pdfrwt beam="1">  1        2 0.24566523E+00 0.81043847E+03</pdfrwt>
<pdfrwt beam="2">  1       -2 0.67714178E-01 0.81043847E+03</pdfrwt>
<totfact> 0.22785188E+01</totfact>
</mgrwt>
</event>
<event>
 4    2  0.3388003E-007  0.6624445E+03  0.7818608E-02  0.1021781E+00
          2   -1    0    0  501    0  0.00000000000E+00  0.00000000000E+00  0.39667981592E+03  0.39667981593E+03  0.25500000000E-02 0. -1.
         -2   -1    0    0    0  501 -0.00000000000E+00 -0.00000000000E+00 -0.76742071850E+03  0.76742071851E+03  0.25500000000E-02 0.  1.
    8880023    1    1    2    0    0  0.69780838681E+02 -0.12374600023E+02 -0.59030335897E+03  0.88729406515E+03  0.65864270000E+03 0.  1.
    8880022    1    1    2    0    0 -0.69780838681E+02  0.12374600023E+02  0.21956245638E+03  0.27680646929E+03  0.15294330000E+03 0.  0.
<mgrwt>
<rscale>  0 0.47049385E+03</rscale>
<asrwt>0</asrwt>
<pdfrwt beam="1">  1        2 0.61027664E-01 0.66244449E+03</pdfrwt>
<pdfrwt beam="2">  1       -2 0.11806473E+00 0.66244449E+03</pdfrwt>
<totfact> 0.45148434E+01</totfact>
</mgrwt>
</event>
<event>
 4    2  0.3388003E-007  0.8844279E+03  0.7818608E-02  0.9551507E-01
         -2   -1    0    0    0  501 -0.00000000000E+00  0.00000000000E+00  0.37455735783E+03  0.37455735784E+03  0.25500000000E-02 0.  1.
          2   -1    0    0  501    0  0.00000000000E+00 -0.00000000000E+00 -0.29004346747E+04  0.29004346747E+04  0.25500000000E-02 0. -1.
    8880023    1    1    2    0    0  0.58403414118E+03 -0.85478574584E+02 -0.25033711711E+03  0.91917427251E+03  0.65864270000E+03 0.  0.
    8880022    1    1    2    0    0 -0.58403414118E+03  0.85478574584E+02 -0.22755401998E+04  0.23558177601E+04  0.15294330000E+03 0.  0.
<mgrwt>
<rscale>  0 0.80590645E+03</rscale>
<asrwt>0</asrwt>
<pdfrwt beam="1">  1        2 0.44622071E+00 0.88442788E+03</pdfrwt>
<pdfrwt beam="2">  1       -2 0.57624211E-01 0.88442788E+03</pdfrwt>
<totfact> 0.58772967E+00</totfact>
</mgrwt>
</event>
<event>
 4    2  0.3388003E-007  0.9593920E+03  0.7818608E-02  0.9436728E-01
          2   -1    0    0  501    0  0.00000000000E+00  0.00000000000E+00  0.17150145301E+04  0.17150145301E+04  0.25500000000E-02 0. -1.
         -2   -1    0    0    0  501 -0.00000000000E+00 -0.00000000000E+00 -0.65324379367E+03  0.65324379368E+03  0.25500000000E-02 0.  1.
    8880023    1    1    2    0    0  0.38296146909E+01 -0.69757305882E+03  0.12997636905E+04  0.16154933289E+04  0.65864270000E+03 0.  0.
    8880022    1    1    2    0    0 -0.38296146909E+01  0.69757305882E+03 -0.23799295406E+03  0.75276499489E+03  0.15294330000E+03 0.  0.
<mgrwt>
<rscale>  0 0.89113785E+03</rscale>
<asrwt>0</asrwt>
<pdfrwt beam="1">  1        2 0.26384839E+00 0.95939202E+03</pdfrwt>
<pdfrwt beam="2">  1       -2 0.10049905E+00 0.95939202E+03</pdfrwt>
<totfact> 0.78663098E+00</totfact>
</mgrwt>
</event>
<event>
 4    2  0.3388003E-007  0.7110390E+03  0.7818608E-02  0.9954163E-01
         -2   -1    0    0    0  501 -0.00000000000E+00  0.00000000000E+00  0.18185439203E+03  0.18185439205E+03  0.25500000000E-02 0.  1.
          2   -1    0    0  501    0  0.00000000000E+00 -0.00000000000E+00 -0.16268565961E+04  0.16268565961E+04  0.25500000000E-02 0. -1.
    8880023    1    1    2    0    0 -0.20156058325E+03 -0.17646403340E+03 -0.68000945267E+03  0.98386446515E+03  0.65864270000E+03 0.  0.
    8880022    1    1    2    0    0  0.20156058325E+03  0.17646403340E+03 -0.76499275136E+03  0.82484652297E+03  0.15294330000E+03 0.  0.
<mgrwt>
<rscale>  0 0.57706622E+03</rscale>
<asrwt>0</asrwt>
<pdfrwt beam="1">  1        2 0.25028562E+00 0.71103898E+03</pdfrwt>
<pdfrwt beam="2">  1       -2 0.27977600E-01 0.71103898E+03</pdfrwt>
<totfact> 0.12850047E+02</totfact>
</mgrwt>
</event>
<event>
 4    2  0.3388003E-007  0.9643618E+03  0.7818608E-02  0.9429745E-01
         -2   -1    0    0    0  501 -0.00000000000E+00  0.00000000000E+00  0.10183190274E+04  0.10183190274E+04  0.25500000000E-02 0.  1.
          2   -1    0    0  501    0  0.00000000000E+00 -0.00000000000E+00 -0.81562208215E+03  0.81562208215E+03  0.25500000000E-02 0. -1.
    8880023    1    1    2    0    0  0.63982045158E+03  0.29464078384E+03  0.46016256339E+03  0.10685238382E+04  0.65864270000E+03 0.  1.
    8880022    1    1    2    0    0 -0.63982045158E+03 -0.29464078384E+03 -0.25746561813E+03  0.76541727137E+03  0.15294330000E+03 0.  0.
<mgrwt>
<rscale>  0 0.89667698E+03</rscale>
<asrwt>0</asrwt>
<pdfrwt beam="1">  1        2 0.12548032E+00 0.96436176E+03</pdfrwt>
<pdfrwt beam="2">  1       -2 0.15666447E+00 0.96436176E+03</pdfrwt>
<totfact> 0.89071104E+00</totfact>
</mgrwt>
</event>
<event>
 4    2  0.3388003E-007  0.8276731E+03  0.7818608E-02  0.9653877E-01
          2   -1    0    0  501    0  0.00000000000E+00  0.00000000000E+00  0.22489021046E+04  0.22489021046E+04  0.25500000000E-02 0. -1.
         -2   -1    0    0    0  501 -0.00000000000E+00 -0.00000000000E+00 -0.34145911711E+03  0.34145911712E+03  0.25500000000E-02 0.  1.
    8880023    1    1    2    0    0  0.12526385757E+03 -0.48532628025E+03  0.26921375158E+03  0.87035560699E+03  0.65864270000E+03 0.  1.
    8880022    1    1    2    0    0 -0.12526385757E+03  0.48532628025E+03  0.16382292359E+04  0.17200056147E+04  0.15294330000E+03 0.  0.
<mgrwt>
<rscale>  0 0.73830620E+03</rscale>
<asrwt>0</asrwt>
<pdfrwt beam="1">  1        2 0.34598495E+00 0.82767315E+03</pdfrwt>
<pdfrwt beam="2">  1       -2 0.52532171E-01 0.82767315E+03</pdfrwt>
<totfact> 0.17049022E+01</totfact>
</mgrwt>
</event>
<event>
 4    2  0.3388003E-007  0.7408049E+03  0.7818608E-02  0.9857609E-01
          2   -1    0    0  501    0  0.00000000000E+00  0.00000000000E+00  0.10766500696E+04  0.10766500696E+04  0.25500000000E-02 0. -1.
         -2   -1    0    0    0  501 -0.00000000000E+00 -0.00000000000E+00 -0.55143236620E+03  0.55143236620E+03  0.25500000000E-02 0.  1.
    8880023    1    1    2    0    0  0.17498013273E+02 -0.33863766200E+03 -0.23878113589E+03  0.77833687033E+03  0.65864270000E+03 0.  1.
    8880022    1    1    2    0    0 -0.17498013273E+02  0.33863766200E+03  0.76399883932E+03  0.84974556551E+03  0.15294330000E+03 0. -1.
<mgrwt>
<rscale>  0 0.62360474E+03</rscale>
<asrwt>0</asrwt>
<pdfrwt beam="1">  1        2 0.16563847E+00 0.74080487E+03</pdfrwt>
<pdfrwt beam="2">  1       -2 0.84835749E-01 0.74080487E+03</pdfrwt>
<totfact> 0.27753848E+01</totfact>
</mgrwt>
</event>
<event>
 4    2  0.3388003E-007  0.7381988E+03  0.7818608E-02  0.9865225E-01
         -2   -1    0    0    0  501 -0.00000000000E+00  0.00000000000E+00  0.23712135689E+04  0.23712135689E+04  0.25500000000E-02 0.  1.
          2   -1    0    0  501    0  0.00000000000E+00 -0.00000000000E+00 -0.14902818474E+03  0.14902818476E+03  0.25500000000E-02 0. -1.
    8880023    1    1    2    0    0 -0.78841914246E+02 -0.32390001248E+03  0.18755207982E+04  0.20155683407E+04  0.65864270000E+03 0.  1.
    8880022    1    1    2    0    0  0.78841914246E+02  0.32390001248E+03  0.34666458600E+03  0.50467341294E+03  0.15294330000E+03 0.  0.
<mgrwt>
<rscale>  0 0.61976625E+03</rscale>
<asrwt>0</asrwt>
<pdfrwt beam="1">  1        2 0.22927414E-01 0.73819880E+03</pdfrwt>
<pdfrwt beam="2">  1       -2 0.36480207E+00 0.73819880E+03</pdfrwt>
<totfact> 0.32061787E+00</totfact>
</mgrwt>
</event>
<event>
 4    2  0.3388003E-007  0.6751011E+03  0.7818608E-02  0.1012243E+00
          2   -1    0    0  501    0  0.00000000000E+00  0.00000000000E+00  0.48445513335E+03  0.48445513336E+03  0.25500000000E-02 0. -1.
         -2   -1    0    0    0  501 -0.00000000000E+00 -0.00000000000E+00 -0.17337200016E+04  0.17337200016E+04  0.25500000000E-02 0.  1.
    8880023    1    1    2    0    0 -0.39983529645E+02  0.14266249446E+03 -0.16398156007E+04  0.17733461818E+04  0.65864270000E+03 0.  1.
    8880022    1    1    2    0    0  0.39983529645E+02 -0.14266249446E+03  0.39055073242E+03  0.44482895317E+03  0.15294330000E+03 0.  0.
<mgrwt>
<rscale>  0 0.50592984E+03</rscale>
<asrwt>0</asrwt>
<pdfrwt beam="1">  1        2 0.74531560E-01 0.67510109E+03</pdfrwt>
<pdfrwt beam="2">  1       -2 0.26672615E+00 0.67510109E+03</pdfrwt>
<totfact> 0.33864526E+00</totfact>
</mgrwt>
</event>
<event>
 4    2  0.3388003E-007  0.6883690E+03  0.7818608E-02  0.1004938E+00
         -2   -1    0    0    0  501 -0.00000000000E+00  0.00000000000E+00  0.19905105702E+03  0.19905105704E+03  0.25500000000E-02 0.  1.
          2   -1    0    0  501    0  0.00000000000E+00 -0.00000000000E+00 -0.28513136179E+04  0.28513136179E+04  0.25500000000E-02 0. -1.
    8880023    1    1    2    0    0  0.19942573003E+03  0.16464718481E+02 -0.42519292380E+03  0.80909884283E+03  0.65864270000E+03 0.  1.
    8880022    1    1    2    0    0 -0.19942573003E+03 -0.16464718481E+02 -0.22270696371E+04  0.22412658321E+04  0.15294330000E+03 0.  0.
<mgrwt>
<rscale>  0 0.53537206E+03</rscale>
<asrwt>0</asrwt>
<pdfrwt beam="1">  1        2 0.43866360E+00 0.68836903E+03</pdfrwt>
<pdfrwt beam="2">  1       -2 0.30623242E-01 0.68836903E+03</pdfrwt>
<totfact> 0.22614107E+01</totfact>
</mgrwt>
</event>
<event>
 4    2  0.3388003E-007  0.1047693E+04  0.7818608E-02  0.9321659E-01
          2   -1    0    0  501    0  0.00000000000E+00  0.00000000000E+00  0.18372833339E+04  0.18372833339E+04  0.25500000000E-02 0. -1.
         -2   -1    0    0    0  501 -0.00000000000E+00 -0.00000000000E+00 -0.54655791364E+03  0.54655791365E+03  0.25500000000E-02 0.  1.
    8880023    1    1    2    0    0 -0.28120793972E+03  0.76470479291E+03  0.29548881684E+03  0.10885656493E+04  0.65864270000E+03 0.  0.
    8880022    1    1    2    0    0  0.28120793972E+03 -0.76470479291E+03  0.99523660344E+03  0.12952755983E+04  0.15294330000E+03 0.  0.
<mgrwt>
<rscale>  0 0.98813084E+03</rscale>
<asrwt>0</asrwt>
<pdfrwt beam="1">  1        2 0.28265897E+00 0.10476934E+04</pdfrwt>
<pdfrwt beam="2">  1       -2 0.84085834E-01 0.10476934E+04</pdfrwt>
<totfact> 0.10107034E+01</totfact>
</mgrwt>
</event>
<event>
 4    2  0.3388003E-007  0.7797770E+03  0.7818608E-02  0.9756361E-01
         -2   -1    0    0    0  501 -0.00000000000E+00  0.00000000000E+00  0.15278860414E+03  0.15278860416E+03  0.25500000000E-02 0.  1.
          2   -1    0    0  501    0  0.00000000000E+00 -0.00000000000E+00 -0.25031934859E+04  0.25031934859E+04  0.25500000000E-02 0. -1.
    8880023    1    1    2    0    0  0.38732952474E+03 -0.15562092890E+03 -0.13089972880E+04  0.15236555190E+04  0.65864270000E+03 0.  1.
    8880022    1    1    2    0    0 -0.38732952474E+03  0.15562092890E+03 -0.10414075937E+04  0.11323265711E+04  0.15294330000E+03 0. -1.
<mgrwt>
<rscale>  0 0.67757981E+03</rscale>
<asrwt>0</asrwt>
<pdfrwt beam="1">  1        2 0.38510666E+00 0.77977705E+03</pdfrwt>
<pdfrwt beam="2">  1       -2 0.23505941E-01 0.77977705E+03</pdfrwt>
<totfact> 0.57542959E+01</totfact>
</mgrwt>
</event>
<event>
 4    2  0.3388003E-007  0.7434971E+03  0.7818608E-02  0.9849875E-01
          2   -1    0    0  501    0  0.00000000000E+00  0.00000000000E+00  0.12251615326E+04  0.12251615326E+04  0.25500000000E-02 0. -1.
         -2   -1    0    0    0  501 -0.00000000000E+00 -0.00000000000E+00 -0.44636660388E+03  0.44636660389E+03  0.25500000000E-02 0.  1.
    8880023    1    1    2    0    0 -0.24846893723E+03 -0.23925088514E+03 -0.65878930354E+02  0.74641010077E+03  0.65864270000E+03 0.  1.
    8880022    1    1    2    0    0  0.24846893723E+03  0.23925088514E+03  0.84467385911E+03  0.92511803576E+03  0.15294330000E+03 0.  0.
<mgrwt>
<rscale>  0 0.62753302E+03</rscale>
<asrwt>0</asrwt>
<pdfrwt beam="1">  1        2 0.18848639E+00 0.74349715E+03</pdfrwt>
<pdfrwt beam="2">  1       -2 0.68671784E-01 0.74349715E+03</pdfrwt>
<totfact> 0.36153686E+01</totfact>
</mgrwt>
</event>
<event>
 4    2  0.3388003E-007  0.7175649E+03  0.7818608E-02  0.9930913E-01
         -2   -1    0    0    0  501 -0.00000000000E+00  0.00000000000E+00  0.30251494954E+03  0.30251494956E+03  0.25500000000E-02 0.  1.
          2   -1    0    0  501    0  0.00000000000E+00 -0.00000000000E+00 -0.98989624509E+03  0.98989624510E+03  0.25500000000E-02 0. -1.
    8880023    1    1    2    0    0 -0.28442993769E+03 -0.13737851079E+02 -0.27502191035E+03  0.76846364614E+03  0.65864270000E+03 0.  0.
    8880022    1    1    2    0    0  0.28442993769E+03  0.13737851079E+02 -0.41235938520E+03  0.52394754851E+03  0.15294330000E+03 0.  0.
<mgrwt>
<rscale>  0 0.58786204E+03</rscale>
<asrwt>0</asrwt>
<pdfrwt beam="1">  1        2 0.15229173E+00 0.71756486E+03</pdfrwt>
<pdfrwt beam="2">  1       -2 0.46540762E-01 0.71756486E+03</pdfrwt>
<totfact> 0.11362803E+02</totfact>
</mgrwt>
</event>
<event>
 4    2  0.3388003E-007  0.7774609E+03  0.7818608E-02  0.9761836E-01
         -2   -1    0    0    0  501 -0.00000000000E+00  0.00000000000E+00  0.93188763775E+03  0.93188763776E+03  0.25500000000E-02 0.  1.
          2   -1    0    0  501    0  0.00000000000E+00 -0.00000000000E+00 -0.18477095904E+04  0.18477095904E+04  0.25500000000E-02 0. -1.
    8880023    1    1    2    0    0 -0.90178203900E+02 -0.40311674059E+03  0.73568113361E+03  0.10703607577E+04  0.65864270000E+03 0.  1.
    8880022    1    1    2    0    0  0.90178203900E+02  0.40311674059E+03 -0.16515030862E+04  0.17092364704E+04  0.15294330000E+03 0.  0.
<mgrwt>
<rscale>  0 0.67451505E+03</rscale>
<asrwt>0</asrwt>
<pdfrwt beam="1">  1        2 0.28426301E+00 0.77746088E+03</pdfrwt>
<pdfrwt beam="2">  1       -2 0.14336733E+00 0.77746088E+03</pdfrwt>
<totfact> 0.28197038E+00</totfact>
</mgrwt>
</event>
<event>
 4    2  0.3388003E-007  0.7718215E+03  0.7818608E-02  0.9775411E-01
          2   -1    0    0  501    0  0.00000000000E+00  0.00000000000E+00  0.42484170568E+03  0.42484170569E+03  0.25500000000E-02 0. -1.
         -2   -1    0    0    0  501 -0.00000000000E+00 -0.00000000000E+00 -0.15311383384E+04  0.15311383384E+04  0.25500000000E-02 0.  1.
    8880023    1    1    2    0    0 -0.17551726965E+02 -0.40198283178E+03 -0.12776444300E+04  0.14926767084E+04  0.65864270000E+03 0.  1.
    8880022    1    1    2    0    0  0.17551726965E+02  0.40198283178E+03  0.17134779728E+03  0.46330333564E+03  0.15294330000E+03 0.  0.
<mgrwt>
<rscale>  0 0.66698971E+03</rscale>
<asrwt>0</asrwt>
<pdfrwt beam="1">  1        2 0.65360263E-01 0.77182152E+03</pdfrwt>
<pdfrwt beam="2">  1       -2 0.23555974E+00 0.77182152E+03</pdfrwt>
<totfact> 0.59955668E+00</totfact>
</mgrwt>
</event>
<event>
 4    2  0.5456808E-007  0.8958783E+03  0.7818608E-02  0.9532681E-01
          2   -1    0    0  501    0  0.00000000000E+00  0.00000000000E+00  0.22974707448E+04  0.22974707448E+04  0.25500000000E-02 0. -1.
         -2   -1    0    0    0  501 -0.00000000000E+00 -0.00000000000E+00 -0.12952690257E+04  0.12952690257E+04  0.25500000000E-02 0.  1.
    8880023    1    1    2    0    0  0.13403039578E+03  0.59230355445E+03 -0.10887882534E+04  0.14099850051E+04  0.65864270000E+03 0.  1.
    8880022    1    1    2    0    0 -0.13403039578E+03 -0.59230355445E+03  0.20909899725E+04  0.21827547654E+04  0.15294330000E+03 0.  0.
<mgrwt>
<rscale>  0 0.81916678E+03</rscale>
<asrwt>0</asrwt>
<pdfrwt beam="1">  1        2 0.35345704E+00 0.89587826E+03</pdfrwt>
<pdfrwt beam="2">  1       -2 0.19927216E+00 0.89587826E+03</pdfrwt>
<totfact> 0.62472390E-01</totfact>
</mgrwt>
</event>
<event>
 4    2  0.3388003E-007  0.7797587E+03  0.7818608E-02  0.9756404E-01
          2   -1    0    0  501    0  0.00000000000E+00  0.00000000000E+00  0.10586265994E+04  0.10586265994E+04  0.25500000000E-02 0. -1.
         -2   -1    0    0    0  501 -0.00000000000E+00 -0.00000000000E+00 -0.60573254356E+03  0.60573254356E+03  0.25500000000E-02 0.  1.
    8880023    1    1    2    0    0 -0.31952644070E+03 -0.26854466854E+03 -0.26194055995E+03  0.82257914423E+03  0.65864270000E+03 0.  1.
    8880022    1    1    2    0    0  0.31952644070E+03  0.26854466854E+03  0.71483461576E+03  0.84177999870E+03  0.15294330000E+03 0.  0.
<mgrwt>
<rscale>  0 0.67755556E+03</rscale>
<asrwt>0</asrwt>
<pdfrwt beam="1">  1        2 0.16286563E+00 0.77975868E+03</pdfrwt>
<pdfrwt beam="2">  1       -2 0.93189624E-01 0.77975868E+03</pdfrwt>
<totfact> 0.22851362E+01</totfact>
</mgrwt>
</event>
<event>
 4    2  0.3388003E-007  0.6672638E+03  0.7818608E-02  0.1017705E+00
          2   -1    0    0  501    0  0.00000000000E+00  0.00000000000E+00  0.34268772583E+03  0.34268772584E+03  0.25500000000E-02 0. -1.
         -2   -1    0    0    0  501 -0.00000000000E+00 -0.00000000000E+00 -0.99269859944E+03  0.99269859944E+03  0.25500000000E-02 0.  1.
    8880023    1    1    2    0    0  0.87208133673E+02 -0.61850451627E+02 -0.83752893304E+03  0.10708387633E+04  0.65864270000E+03 0.  1.
    8880022    1    1    2    0    0 -0.87208133673E+02  0.61850451627E+02  0.18751805943E+03  0.26454756202E+03  0.15294330000E+03 0.  0.
<mgrwt>
<rscale>  0 0.48523876E+03</rscale>
<asrwt>0</asrwt>
<pdfrwt beam="1">  1        2 0.52721189E-01 0.66726377E+03</pdfrwt>
<pdfrwt beam="2">  1       -2 0.15272286E+00 0.66726377E+03</pdfrwt>
<totfact> 0.27541210E+01</totfact>
</mgrwt>
</event>
<event>
 4    2  0.3388003E-007  0.6819716E+03  0.7818608E-02  0.1008230E+00
         -2   -1    0    0    0  501 -0.00000000000E+00  0.00000000000E+00  0.41849582998E+03  0.41849582999E+03  0.25500000000E-02 0.  1.
          2   -1    0    0  501    0  0.00000000000E+00 -0.00000000000E+00 -0.15045304091E+04  0.15045304091E+04  0.25500000000E-02 0. -1.
    8880023    1    1    2    0    0  0.13143703854E+03  0.11831890775E+03  0.12180585516E+03  0.69276397976E+03  0.65864270000E+03 0.  1.
    8880022    1    1    2    0    0 -0.13143703854E+03 -0.11831890775E+03 -0.12078404343E+04  0.12302622594E+04  0.15294330000E+03 0.  0.
<mgrwt>
<rscale>  0 0.52184327E+03</rscale>
<asrwt>0</asrwt>
<pdfrwt beam="1">  1        2 0.23146622E+00 0.68197160E+03</pdfrwt>
<pdfrwt beam="2">  1       -2 0.64383974E-01 0.68197160E+03</pdfrwt>
<totfact> 0.29016936E+01</totfact>
</mgrwt>
</event>
<event>
 4    2  0.3388003E-007  0.9748067E+03  0.7818608E-02  0.9415287E-01
          2   -1    0    0  501    0  0.00000000000E+00  0.00000000000E+00  0.14196082265E+04  0.14196082265E+04  0.25500000000E-02 0. -1.
         -2   -1    0    0    0  501 -0.00000000000E+00 -0.00000000000E+00 -0.68875142996E+03  0.68875142997E+03  0.25500000000E-02 0.  1.
    8880023    1    1    2    0    0  0.38851043833E+03  0.60456398717E+03 -0.12228455013E+03  0.98244678875E+03  0.65864270000E+03 0.  1.
    8880022    1    1    2    0    0 -0.38851043833E+03 -0.60456398717E+03  0.85314134666E+03  0.11259128677E+04  0.15294330000E+03 0.  0.
<mgrwt>
<rscale>  0 0.90828257E+03</rscale>
<asrwt>0</asrwt>
<pdfrwt beam="1">  1        2 0.21840126E+00 0.97480674E+03</pdfrwt>
<pdfrwt beam="2">  1       -2 0.10596176E+00 0.97480674E+03</pdfrwt>
<totfact> 0.10111051E+01</totfact>
</mgrwt>
</event>
<event>
 4    2  0.3388003E-007  0.6809541E+03  0.7818608E-02  0.1008789E+00
         -2   -1    0    0    0  501 -0.00000000000E+00  0.00000000000E+00  0.10758652665E+04  0.10758652665E+04  0.25500000000E-02 0.  1.
          2   -1    0    0  501    0  0.00000000000E+00 -0.00000000000E+00 -0.14086840062E+04  0.14086840062E+04  0.25500000000E-02 0. -1.
    8880023    1    1    2    0    0  0.15219273055E+03 -0.82010173992E+02  0.95683206191E+03  0.11744045712E+04  0.65864270000E+03 0.  1.
    8880022    1    1    2    0    0 -0.15219273055E+03  0.82010173992E+02 -0.12896508016E+04  0.13101447016E+04  0.15294330000E+03 0.  0.
<mgrwt>
<rscale>  0 0.51958770E+03</rscale>
<asrwt>0</asrwt>
<pdfrwt beam="1">  1        2 0.21672062E+00 0.68095411E+03</pdfrwt>
<pdfrwt beam="2">  1       -2 0.16551773E+00 0.68095411E+03</pdfrwt>
<totfact> 0.34085077E+00</totfact>
</mgrwt>
</event>
<event>
 4    2  0.3388003E-007  0.8702547E+03  0.7818608E-02  0.9575576E-01
          2   -1    0    0  501    0  0.00000000000E+00  0.00000000000E+00  0.33240553480E+04  0.33240553480E+04  0.25500000000E-02 0. -1.
         -2   -1    0    0    0  501 -0.00000000000E+00 -0.00000000000E+00 -0.33022429611E+03  0.33022429612E+03  0.25500000000E-02 0.  1.
    8880023    1    1    2    0    0 -0.53466964172E+03  0.19406550530E+03  0.33746232204E+03  0.93339384570E+03  0.65864270000E+03 0.  0.
    8880022    1    1    2    0    0  0.53466964172E+03 -0.19406550530E+03  0.26563687298E+04  0.27208857984E+04  0.15294330000E+03 0.  0.
<mgrwt>
<rscale>  0 0.78934014E+03</rscale>
<asrwt>0</asrwt>
<pdfrwt beam="1">  1        2 0.51139311E+00 0.87025471E+03</pdfrwt>
<pdfrwt beam="2">  1       -2 0.50803740E-01 0.87025471E+03</pdfrwt>
<totfact> 0.41424465E+00</totfact>
</mgrwt>
</event>
<event>
 4    2  0.3388003E-007  0.7853788E+03  0.7818608E-02  0.9743350E-01
         -2   -1    0    0    0  501 -0.00000000000E+00  0.00000000000E+00  0.76841468337E+03  0.76841468337E+03  0.25500000000E-02 0.  1.
          2   -1    0    0  501    0  0.00000000000E+00 -0.00000000000E+00 -0.85625894581E+03  0.85625894581E+03  0.25500000000E-02 0. -1.
    8880023    1    1    2    0    0  0.27122613144E+03  0.33082639493E+03  0.46218173431E+03  0.91128035190E+03  0.65864270000E+03 0.  1.
    8880022    1    1    2    0    0 -0.27122613144E+03 -0.33082639493E+03 -0.55002599675E+03  0.71339327729E+03  0.15294330000E+03 0.  0.
<mgrwt>
<rscale>  0 0.68493360E+03</rscale>
<asrwt>0</asrwt>
<pdfrwt beam="1">  1        2 0.13173215E+00 0.78537884E+03</pdfrwt>
<pdfrwt beam="2">  1       -2 0.11821764E+00 0.78537884E+03</pdfrwt>
<totfact> 0.17517204E+01</totfact>
</mgrwt>
</event>
<event>
 4    2  0.3388003E-007  0.7818204E+03  0.7818608E-02  0.9751578E-01
          2   -1    0    0  501    0  0.00000000000E+00  0.00000000000E+00  0.26778537062E+04  0.26778537062E+04  0.25500000000E-02 0. -1.
         -2   -1    0    0    0  501 -0.00000000000E+00 -0.00000000000E+00 -0.18382022672E+03  0.18382022674E+03  0.25500000000E-02 0.  1.
    8880023    1    1    2    0    0 -0.22346549797E+03 -0.35706589437E+03  0.83798816906E+03  0.11460659926E+04  0.65864270000E+03 0.  0.
    8880022    1    1    2    0    0  0.22346549797E+03  0.35706589437E+03  0.16560453104E+04  0.17156079403E+04  0.15294330000E+03 0.  0.
<mgrwt>
<rscale>  0 0.68027159E+03</rscale>
<asrwt>0</asrwt>
<pdfrwt beam="1">  1        2 0.41197745E+00 0.78182037E+03</pdfrwt>
<pdfrwt beam="2">  1       -2 0.28280038E-01 0.78182037E+03</pdfrwt>
<totfact> 0.32651895E+01</totfact>
</mgrwt>
</event>
<event>
 4    2  0.3388003E-007  0.1028372E+04  0.7818608E-02  0.9345345E-01
          2   -1    0    0  501    0  0.00000000000E+00  0.00000000000E+00  0.40143357078E+04  0.40143357078E+04  0.25500000000E-02 0. -1.
         -2   -1    0    0    0  501 -0.00000000000E+00 -0.00000000000E+00 -0.38561400638E+03  0.38561400639E+03  0.25500000000E-02 0.  1.
    8880023    1    1    2    0    0  0.13652002443E+03  0.77788176609E+03  0.45264612246E+03  0.11235819852E+04  0.65864270000E+03 0.  0.
    8880022    1    1    2    0    0 -0.13652002443E+03 -0.77788176609E+03  0.31760755790E+04  0.32763677290E+04  0.15294330000E+03 0.  0.
<mgrwt>
<rscale>  0 0.96713349E+03</rscale>
<asrwt>0</asrwt>
<pdfrwt beam="1">  1        2 0.61759011E+00 0.10283715E+04</pdfrwt>
<pdfrwt beam="2">  1       -2 0.59325232E-01 0.10283715E+04</pdfrwt>
<totfact> 0.92724926E-01</totfact>
</mgrwt>
</event>
<event>
 4    2  0.3388003E-007  0.7073367E+03  0.7818608E-02  0.9968027E-01
          2   -1    0    0  501    0  0.00000000000E+00  0.00000000000E+00  0.11601079256E+04  0.11601079256E+04  0.25500000000E-02 0. -1.
         -2   -1    0    0    0  501 -0.00000000000E+00 -0.00000000000E+00 -0.35389179379E+03  0.35389179380E+03  0.25500000000E-02 0.  1.
    8880023    1    1    2    0    0  0.27520610727E+02 -0.25643260299E+03  0.60097167782E+02  0.70988515954E+03  0.65864270000E+03 0.  1.
    8880022    1    1    2    0    0 -0.27520610727E+02  0.25643260299E+03  0.74611896405E+03  0.80411455988E+03  0.15294330000E+03 0.  1.
<mgrwt>
<rscale>  0 0.57074706E+03</rscale>
<asrwt>0</asrwt>
<pdfrwt beam="1">  1        2 0.17847815E+00 0.70733674E+03</pdfrwt>
<pdfrwt beam="2">  1       -2 0.54444890E-01 0.70733674E+03</pdfrwt>
<totfact> 0.64860679E+01</totfact>
</mgrwt>
</event>
<event>
 4    2  0.3388003E-007  0.7239458E+03  0.7818608E-02  0.9909454E-01
         -2   -1    0    0    0  501 -0.00000000000E+00  0.00000000000E+00  0.40661167763E+03  0.40661167763E+03  0.25500000000E-02 0.  1.
          2   -1    0    0  501    0  0.00000000000E+00 -0.00000000000E+00 -0.12854964327E+04  0.12854964327E+04  0.25500000000E-02 0. -1.
    8880023    1    1    2    0    0 -0.28829562207E+03 -0.84693576579E+02  0.28090756678E+02  0.72449062416E+03  0.65864270000E+03 0.  0.
    8880022    1    1    2    0    0  0.28829562207E+03  0.84693576579E+02 -0.90697551173E+03  0.96761748615E+03  0.15294330000E+03 0.  0.
<mgrwt>
<rscale>  0 0.59805289E+03</rscale>
<asrwt>0</asrwt>
<pdfrwt beam="1">  1        2 0.19776868E+00 0.72394584E+03</pdfrwt>
<pdfrwt beam="2">  1       -2 0.62555643E-01 0.72394584E+03</pdfrwt>
<totfact> 0.40835089E+01</totfact>
</mgrwt>
</event>
<event>
 4    2  0.3388003E-007  0.6703455E+03  0.7818608E-02  0.1015416E+00
         -2   -1    0    0    0  501 -0.00000000000E+00  0.00000000000E+00  0.12297927830E+04  0.12297927830E+04  0.25500000000E-02 0.  1.
          2   -1    0    0  501    0  0.00000000000E+00 -0.00000000000E+00 -0.44296286908E+03  0.44296286908E+03  0.25500000000E-02 0. -1.
    8880023    1    1    2    0    0  0.12096433241E+03  0.30340869664E+02  0.11084685274E+04  0.12954017217E+04  0.65864270000E+03 0.  1.
    8880022    1    1    2    0    0 -0.12096433241E+03 -0.30340869664E+02 -0.32163861347E+03  0.37735393039E+03  0.15294330000E+03 0.  0.
<mgrwt>
<rscale>  0 0.49377595E+03</rscale>
<asrwt>0</asrwt>
<pdfrwt beam="1">  1        2 0.68148133E-01 0.67034554E+03</pdfrwt>
<pdfrwt beam="2">  1       -2 0.18919889E+00 0.67034554E+03</pdfrwt>
<totfact> 0.11402148E+01</totfact>
</mgrwt>
</event>
<event>
 4    2  0.3388003E-007  0.7371146E+03  0.7818608E-02  0.9868433E-01
         -2   -1    0    0    0  501 -0.00000000000E+00  0.00000000000E+00  0.41832213519E+03  0.41832213520E+03  0.25500000000E-02 0.  1.
          2   -1    0    0  501    0  0.00000000000E+00 -0.00000000000E+00 -0.15451002834E+04  0.15451002834E+04  0.25500000000E-02 0. -1.
    8880023    1    1    2    0    0  0.28311264451E+03  0.17139112235E+03  0.42781902346E+02  0.73835505262E+03  0.65864270000E+03 0.  1.
    8880022    1    1    2    0    0 -0.28311264451E+03 -0.17139112235E+03 -0.11695600506E+04  0.12250673660E+04  0.15294330000E+03 0.  0.
<mgrwt>
<rscale>  0 0.61815839E+03</rscale>
<asrwt>0</asrwt>
<pdfrwt beam="1">  1        2 0.23770773E+00 0.73711457E+03</pdfrwt>
<pdfrwt beam="2">  1       -2 0.64357252E-01 0.73711457E+03</pdfrwt>
<totfact> 0.27389719E+01</totfact>
</mgrwt>
</event>
<event>
 4    2  0.3388003E-007  0.7058885E+03  0.7818608E-02  0.9973598E-01
         -2   -1    0    0    0  501 -0.00000000000E+00  0.00000000000E+00  0.16262447146E+03  0.16262447148E+03  0.25500000000E-02 0.  1.
          2   -1    0    0  501    0  0.00000000000E+00 -0.00000000000E+00 -0.30875302052E+04  0.30875302052E+04  0.25500000000E-02 0. -1.
    8880023    1    1    2    0    0 -0.24816372954E+03 -0.53695105258E+02 -0.66142325442E+03  0.96734654015E+03  0.65864270000E+03 0.  1.
    8880022    1    1    2    0    0  0.24816372954E+03  0.53695105258E+02 -0.22634824793E+04  0.22828081366E+04  0.15294330000E+03 0.  0.
<mgrwt>
<rscale>  0 0.56823244E+03</rscale>
<asrwt>0</asrwt>
<pdfrwt beam="1">  1        2 0.47500460E+00 0.70588852E+03</pdfrwt>
<pdfrwt beam="2">  1       -2 0.25019152E-01 0.70588852E+03</pdfrwt>
<totfact> 0.23456717E+01</totfact>
</mgrwt>
</event>
<event>
 4    2  0.3388003E-007  0.6644546E+03  0.7818608E-02  0.1019995E+00
          2   -1    0    0  501    0  0.00000000000E+00  0.00000000000E+00  0.14734434062E+04  0.14734434062E+04  0.25500000000E-02 0. -1.
         -2   -1    0    0    0  501 -0.00000000000E+00 -0.00000000000E+00 -0.66427892629E+03  0.66427892629E+03  0.25500000000E-02 0.  1.
    8880023    1    1    2    0    0  0.12086219311E+02  0.86854100964E+02 -0.49066871668E+03  0.82598771622E+03  0.65864270000E+03 0.  0.
    8880022    1    1    2    0    0 -0.12086219311E+02 -0.86854100964E+02  0.12998331966E+04  0.13117346163E+04  0.15294330000E+03 0.  0.
<mgrwt>
<rscale>  0 0.47688262E+03</rscale>
<asrwt>0</asrwt>
<pdfrwt beam="1">  1        2 0.22668360E+00 0.66445460E+03</pdfrwt>
<pdfrwt beam="2">  1       -2 0.10219676E+00 0.66445460E+03</pdfrwt>
<totfact> 0.10685175E+01</totfact>
</mgrwt>
</event>
<event>
 4    2  0.3388003E-007  0.9957799E+03  0.7818608E-02  0.9387100E-01
          2   -1    0    0  501    0  0.00000000000E+00  0.00000000000E+00  0.22825493518E+04  0.22825493518E+04  0.25500000000E-02 0. -1.
         -2   -1    0    0    0  501 -0.00000000000E+00 -0.00000000000E+00 -0.44071268763E+03  0.44071268764E+03  0.25500000000E-02 0.  1.
    8880023    1    1    2    0    0 -0.67846803709E+03  0.31216734637E+03  0.36370375185E+03  0.10601216698E+04  0.65864270000E+03 0.  1.
    8880022    1    1    2    0    0  0.67846803709E+03 -0.31216734637E+03  0.14781329123E+04  0.16631403696E+04  0.15294330000E+03 0.  0.
<mgrwt>
<rscale>  0 0.93144963E+03</rscale>
<asrwt>0</asrwt>
<pdfrwt beam="1">  1        2 0.35116144E+00 0.99577986E+03</pdfrwt>
<pdfrwt beam="2">  1       -2 0.67801952E-01 0.99577986E+03</pdfrwt>
<totfact> 0.93153413E+00</totfact>
</mgrwt>
</event>
<event>
 4    2  0.3388003E-007  0.9066267E+03  0.7818608E-02  0.9515476E-01
         -2   -1    0    0    0  501 -0.00000000000E+00  0.00000000000E+00  0.50025614026E+03  0.50025614026E+03  0.25500000000E-02 0.  1.
          2   -1    0    0  501    0  0.00000000000E+00 -0.00000000000E+00 -0.20949214988E+04  0.20949214988E+04  0.25500000000E-02 0. -1.
    8880023    1    1    2    0    0  0.54560045845E+03 -0.30080206859E+03 -0.33391728384E+02  0.90724140035E+03  0.65864270000E+03 0.  1.
    8880022    1    1    2    0    0 -0.54560045845E+03  0.30080206859E+03 -0.15612736302E+04  0.16879362387E+04  0.15294330000E+03 0.  0.
<mgrwt>
<rscale>  0 0.83152373E+03</rscale>
<asrwt>0</asrwt>
<pdfrwt beam="1">  1        2 0.32229561E+00 0.90662669E+03</pdfrwt>
<pdfrwt beam="2">  1       -2 0.76962484E-01 0.90662669E+03</pdfrwt>
<totfact> 0.90517169E+00</totfact>
</mgrwt>
</event>
<event>
 4    2  0.3388003E-007  0.6688884E+03  0.7818608E-02  0.1016473E+00
          2   -1    0    0  501    0  0.00000000000E+00  0.00000000000E+00  0.31844973633E+04  0.31844973633E+04  0.25500000000E-02 0. -1.
         -2   -1    0    0    0  501 -0.00000000000E+00 -0.00000000000E+00 -0.28896158773E+03  0.28896158774E+03  0.25500000000E-02 0.  1.
    8880023    1    1    2    0    0 -0.10282694894E+03 -0.55028151497E+02  0.10592270782E+03  0.67722323142E+03  0.65864270000E+03 0.  1.
    8880022    1    1    2    0    0  0.10282694894E+03  0.55028151497E+02  0.27896130678E+04  0.27962357196E+04  0.15294330000E+03 0.  0.
<mgrwt>
<rscale>  0 0.48981309E+03</rscale>
<asrwt>0</asrwt>
<pdfrwt beam="1">  1        2 0.48992267E+00 0.66888840E+03</pdfrwt>
<pdfrwt beam="2">  1       -2 0.44455629E-01 0.66888840E+03</pdfrwt>
<totfact> 0.69359478E+00</totfact>
</mgrwt>
</event>
<event>
 4    2  0.3388003E-007  0.1010383E+04  0.7818608E-02  0.9368098E-01
          2   -1    0    0  501    0  0.00000000000E+00  0.00000000000E+00  0.50555256331E+03  0.50555256332E+03  0.25500000000E-02 0. -1.
         -2   -1    0    0    0  501 -0.00000000000E+00 -0.00000000000E+00 -0.20470296378E+04  0.20470296378E+04  0.25500000000E-02 0.  1.
    8880023    1    1    2    0    0  0.82687819307E+02  0.76172590557E+03 -0.14480391673E+04  0.17656985209E+04  0.65864270000E+03 0.  0.
    8880022    1    1    2    0    0 -0.82687819307E+02 -0.76172590557E+03 -0.93437907277E+02  0.78688368022E+03  0.15294330000E+03 0.  0.
<mgrwt>
<rscale>  0 0.94748264E+03</rscale>
<asrwt>0</asrwt>
<pdfrwt beam="1">  1        2 0.77777318E-01 0.10103830E+04</pdfrwt>
<pdfrwt beam="2">  1       -2 0.31492763E+00 0.10103830E+04</pdfrwt>
<totfact> 0.15770169E+00</totfact>
</mgrwt>
</event>
<event>
 4    2  0.3388003E-007  0.1510347E+04  0.7818608E-02  0.8902364E-01
         -2   -1    0    0    0  501 -0.00000000000E+00  0.00000000000E+00  0.12530130722E+04  0.12530130722E+04  0.25500000000E-02 0.  1.
          2   -1    0    0  501    0  0.00000000000E+00 -0.00000000000E+00 -0.25936502727E+04  0.25936502727E+04  0.25500000000E-02 0. -1.
    8880023    1    1    2    0    0 -0.74181396014E+02 -0.13571426526E+04 -0.18490366540E+04  0.23874852488E+04  0.65864270000E+03 0.  0.
    8880022    1    1    2    0    0  0.74181396014E+02  0.13571426526E+04  0.50839945345E+03  0.14591780961E+04  0.15294330000E+03 0.  0.
<mgrwt>
<rscale>  0 0.14733606E+04</rscale>
<asrwt>0</asrwt>
<pdfrwt beam="1">  1        2 0.39902312E+00 0.15103474E+04</pdfrwt>
<pdfrwt beam="2">  1       -2 0.19277124E+00 0.15103474E+04</pdfrwt>
<totfact> 0.42825851E-01</totfact>
</mgrwt>
</event>
<event>
 4    2  0.3388003E-007  0.7038944E+03  0.7818608E-02  0.9981414E-01
         -2   -1    0    0    0  501 -0.00000000000E+00  0.00000000000E+00  0.63493969578E+03  0.63493969578E+03  0.25500000000E-02 0.  1.
          2   -1    0    0  501    0  0.00000000000E+00 -0.00000000000E+00 -0.45844151067E+03  0.45844151068E+03  0.25500000000E-02 0. -1.
    8880023    1    1    2    0    0  0.17330279684E+03 -0.17782914109E+03  0.31424565786E+03  0.77085511127E+03  0.65864270000E+03 0.  0.
    8880022    1    1    2    0    0 -0.17330279684E+03  0.17782914109E+03 -0.13774747276E+03  0.32252609519E+03  0.15294330000E+03 0.  1.
<mgrwt>
<rscale>  0 0.56472769E+03</rscale>
<asrwt>0</asrwt>
<pdfrwt beam="1">  1        2 0.70529463E-01 0.70389436E+03</pdfrwt>
<pdfrwt beam="2">  1       -2 0.97683030E-01 0.70389436E+03</pdfrwt>
<totfact> 0.60285880E+01</totfact>
</mgrwt>
</event>
<event>
 4    2  0.3388003E-007  0.1053001E+04  0.7818608E-02  0.9315282E-01
         -2   -1    0    0    0  501 -0.00000000000E+00  0.00000000000E+00  0.97529572520E+03  0.97529572520E+03  0.25500000000E-02 0.  1.
          2   -1    0    0  501    0  0.00000000000E+00 -0.00000000000E+00 -0.10855679609E+04  0.10855679609E+04  0.25500000000E-02 0. -1.
    8880023    1    1    2    0    0  0.78173978168E+03  0.25275398139E+03 -0.46737591621E+03  0.11520642841E+04  0.65864270000E+03 0.  0.
    8880022    1    1    2    0    0 -0.78173978168E+03 -0.25275398139E+03  0.35710368054E+03  0.90879940198E+03  0.15294330000E+03 0.  0.
<mgrwt>
<rscale>  0 0.99388059E+03</rscale>
<asrwt>0</asrwt>
<pdfrwt beam="1">  1        2 0.16701046E+00 0.10530014E+04</pdfrwt>
<pdfrwt beam="2">  1       -2 0.15004550E+00 0.10530014E+04</pdfrwt>
<totfact> 0.65663938E+00</totfact>
</mgrwt>
</event>
<event>
 4    2  0.3388003E-007  0.8627636E+03  0.7818608E-02  0.9588666E-01
         -2   -1    0    0    0  501 -0.00000000000E+00  0.00000000000E+00  0.53467603855E+03  0.53467603856E+03  0.25500000000E-02 0.  1.
          2   -1    0    0  501    0  0.00000000000E+00 -0.00000000000E+00 -0.16201271647E+04  0.16201271647E+04  0.25500000000E-02 0. -1.
    8880023    1    1    2    0    0  0.10043721244E+02  0.55718033583E+03  0.67229377148E+02  0.86537899119E+03  0.65864270000E+03 0.  1.
    8880022    1    1    2    0    0 -0.10043721244E+02 -0.55718033583E+03 -0.11526805033E+04  0.12894242121E+04  0.15294330000E+03 0.  0.
<mgrwt>
<rscale>  0 0.78050881E+03</rscale>
<asrwt>0</asrwt>
<pdfrwt beam="1">  1        2 0.24925033E+00 0.86276359E+03</pdfrwt>
<pdfrwt beam="2">  1       -2 0.82257853E-01 0.86276359E+03</pdfrwt>
<totfact> 0.14281105E+01</totfact>
</mgrwt>
</event>
<event>
 4    2  0.3388003E-007  0.9559581E+03  0.7818608E-02  0.9441593E-01
         -2   -1    0    0    0  501 -0.00000000000E+00  0.00000000000E+00  0.76777106164E+03  0.76777106165E+03  0.25500000000E-02 0.  1.
          2   -1    0    0  501    0  0.00000000000E+00 -0.00000000000E+00 -0.10066917183E+04  0.10066917183E+04  0.25500000000E-02 0. -1.
    8880023    1    1    2    0    0 -0.68532148836E+03 -0.10188285754E+03  0.14632115981E+03  0.96709138510E+03  0.65864270000E+03 0.  0.
    8880022    1    1    2    0    0  0.68532148836E+03  0.10188285754E+03 -0.38524181649E+03  0.80737139487E+03  0.15294330000E+03 0.  0.
<mgrwt>
<rscale>  0 0.88730374E+03</rscale>
<asrwt>0</asrwt>
<pdfrwt beam="1">  1        2 0.15487565E+00 0.95595809E+03</pdfrwt>
<pdfrwt beam="2">  1       -2 0.11811862E+00 0.95595809E+03</pdfrwt>
<totfact> 0.13723975E+01</totfact>
</mgrwt>
</event>
<event>
 4    2  0.3388003E-007  0.1300167E+04  0.7818608E-02  0.9065415E-01
          2   -1    0    0  501    0  0.00000000000E+00  0.00000000000E+00  0.31391154978E+04  0.31391154978E+04  0.25500000000E-02 0. -1.
         -2   -1    0    0    0  501 -0.00000000000E+00 -0.00000000000E+00 -0.70701963170E+03  0.70701963170E+03  0.25500000000E-02 0.  1.
    8880023    1    1    2    0    0  0.29757745539E+03 -0.10807740417E+04  0.16263695953E+03  0.13102999115E+04  0.65864270000E+03 0.  0.
    8880022    1    1    2    0    0 -0.29757745539E+03  0.10807740417E+04  0.22694589066E+04  0.25358352180E+04  0.15294330000E+03 0.  0.
<mgrwt>
<rscale>  0 0.12557448E+04</rscale>
<asrwt>0</asrwt>
<pdfrwt beam="1">  1        2 0.48294083E+00 0.13001673E+04</pdfrwt>
<pdfrwt beam="2">  1       -2 0.10877225E+00 0.13001673E+04</pdfrwt>
<totfact> 0.93847486E-01</totfact>
</mgrwt>
</event>
<event>
 4    2  0.3388003E-007  0.7288884E+03  0.7818608E-02  0.9893584E-01
         -2   -1    0    0    0  501 -0.00000000000E+00  0.00000000000E+00  0.31136846078E+03  0.31136846079E+03  0.25500000000E-02 0.  1.
          2   -1    0    0  501    0  0.00000000000E+00 -0.00000000000E+00 -0.12830646929E+04  0.12830646929E+04  0.25500000000E-02 0. -1.
    8880023    1    1    2    0    0 -0.26157882197E+03 -0.17042464493E+03 -0.21219474527E+03  0.75914745332E+03  0.65864270000E+03 0.  1.
    8880022    1    1    2    0    0  0.26157882197E+03  0.17042464493E+03 -0.75950148688E+03  0.83528570040E+03  0.15294330000E+03 0.  0.
<mgrwt>
<rscale>  0 0.60573260E+03</rscale>
<asrwt>0</asrwt>
<pdfrwt beam="1">  1        2 0.19739457E+00 0.72888836E+03</pdfrwt>
<pdfrwt beam="2">  1       -2 0.47902841E-01 0.72888836E+03</pdfrwt>
<totfact> 0.71192776E+01</totfact>
</mgrwt>
</event>
<event>
 4    2  0.3388003E-007  0.6663777E+03  0.7818608E-02  0.1018405E+00
         -2   -1    0    0    0  501 -0.00000000000E+00  0.00000000000E+00  0.87162662305E+03  0.87162662306E+03  0.25500000000E-02 0.  1.
          2   -1    0    0  501    0  0.00000000000E+00 -0.00000000000E+00 -0.87392572926E+03  0.87392572926E+03  0.25500000000E-02 0. -1.
    8880023    1    1    2    0    0  0.34462517406E+01 -0.10117891058E+03  0.73129955656E+03  0.98937267815E+03  0.65864270000E+03 0.  1.
    8880022    1    1    2    0    0 -0.34462517406E+01  0.10117891058E+03 -0.73359866276E+03  0.75617967416E+03  0.15294330000E+03 0.  0.
<mgrwt>
<rscale>  0 0.48266797E+03</rscale>
<asrwt>0</asrwt>
<pdfrwt beam="1">  1        2 0.13445011E+00 0.66637771E+03</pdfrwt>
<pdfrwt beam="2">  1       -2 0.13409640E+00 0.66637771E+03</pdfrwt>
<totfact> 0.12579378E+01</totfact>
</mgrwt>
</event>
<event>
 4    2  0.3388003E-007  0.6656289E+03  0.7818608E-02  0.1019012E+00
         -2   -1    0    0    0  501 -0.00000000000E+00  0.00000000000E+00  0.23395986403E+03  0.23395986405E+03  0.25500000000E-02 0.  1.
          2   -1    0    0  501    0  0.00000000000E+00 -0.00000000000E+00 -0.25888552029E+04  0.25888552029E+04  0.25500000000E-02 0. -1.
    8880023    1    1    2    0    0  0.76669283925E+02 -0.58081110762E+02 -0.25131827112E+03  0.71149327065E+03  0.65864270000E+03 0.  1.
    8880022    1    1    2    0    0 -0.76669283925E+02  0.58081110762E+02 -0.21035770678E+04  0.21113217963E+04  0.15294330000E+03 0.  0.
<mgrwt>
<rscale>  0 0.48045010E+03</rscale>
<asrwt>0</asrwt>
<pdfrwt beam="1">  1        2 0.39828539E+00 0.66562888E+03</pdfrwt>
<pdfrwt beam="2">  1       -2 0.35993827E-01 0.66562888E+03</pdfrwt>
<totfact> 0.23805833E+01</totfact>
</mgrwt>
</event>
<event>
 4    2  0.3388003E-007  0.7941667E+03  0.7818608E-02  0.9723554E-01
          2   -1    0    0  501    0  0.00000000000E+00  0.00000000000E+00  0.27674012074E+04  0.27674012074E+04  0.25500000000E-02 0. -1.
         -2   -1    0    0    0  501 -0.00000000000E+00 -0.00000000000E+00 -0.33418584885E+03  0.33418584886E+03  0.25500000000E-02 0.  1.
    8880023    1    1    2    0    0  0.26676623812E+02  0.44292096092E+03  0.19915390664E+03  0.81875704863E+03  0.65864270000E+03 0.  1.
    8880022    1    1    2    0    0 -0.26676623812E+02 -0.44292096092E+03  0.22340614519E+04  0.22828300077E+04  0.15294330000E+03 0.  0.
<mgrwt>
<rscale>  0 0.69631575E+03</rscale>
<asrwt>0</asrwt>
<pdfrwt beam="1">  1        2 0.42575403E+00 0.79416675E+03</pdfrwt>
<pdfrwt beam="2">  1       -2 0.51413207E-01 0.79416675E+03</pdfrwt>
<totfact> 0.90696509E+00</totfact>
</mgrwt>
</event>
<event>
 4    2  0.3388003E-007  0.1074629E+04  0.7818608E-02  0.9289844E-01
          2   -1    0    0  501    0  0.00000000000E+00  0.00000000000E+00  0.17615631008E+04  0.17615631008E+04  0.25500000000E-02 0. -1.
         -2   -1    0    0    0  501 -0.00000000000E+00 -0.00000000000E+00 -0.87930725031E+03  0.87930725031E+03  0.25500000000E-02 0.  1.
    8880023    1    1    2    0    0 -0.84882049550E+03  0.22819408746E+02 -0.35565488901E+03  0.11319529872E+04  0.65864270000E+03 0.  1.
    8880022    1    1    2    0    0  0.84882049550E+03 -0.22819408746E+02  0.12379107395E+04  0.15089173638E+04  0.15294330000E+03 0.  0.
<mgrwt>
<rscale>  0 0.10172327E+04</rscale>
<asrwt>0</asrwt>
<pdfrwt beam="1">  1        2 0.27100970E+00 0.10746289E+04</pdfrwt>
<pdfrwt beam="2">  1       -2 0.13527804E+00 0.10746289E+04</pdfrwt>
<totfact> 0.35096094E+00</totfact>
</mgrwt>
</event>
<event>
 4    2  0.3388003E-007  0.7367532E+03  0.7818608E-02  0.9869508E-01
          2   -1    0    0  501    0  0.00000000000E+00  0.00000000000E+00  0.12725570986E+04  0.12725570986E+04  0.25500000000E-02 0. -1.
         -2   -1    0    0    0  501 -0.00000000000E+00 -0.00000000000E+00 -0.36573041810E+03  0.36573041811E+03  0.25500000000E-02 0.  1.
    8880023    1    1    2    0    0  0.19079376157E+03  0.26943052255E+03  0.87659661989E+02  0.74194978842E+03  0.65864270000E+03 0.  1.
    8880022    1    1    2    0    0 -0.19079376157E+03 -0.26943052255E+03  0.81916701853E+03  0.89633772831E+03  0.15294330000E+03 0.  0.
<mgrwt>
<rscale>  0 0.61762103E+03</rscale>
<asrwt>0</asrwt>
<pdfrwt beam="1">  1        2 0.19577802E+00 0.73675320E+03</pdfrwt>
<pdfrwt beam="2">  1       -2 0.56266218E-01 0.73675320E+03</pdfrwt>
<totfact> 0.51867600E+01</totfact>
</mgrwt>
</event>
<event>
 4    2  0.3388003E-007  0.1032120E+04  0.7818608E-02  0.9340691E-01
          2   -1    0    0  501    0  0.00000000000E+00  0.00000000000E+00  0.22340312914E+04  0.22340312914E+04  0.25500000000E-02 0. -1.
         -2   -1    0    0    0  501 -0.00000000000E+00 -0.00000000000E+00 -0.86350808453E+03  0.86350808453E+03  0.25500000000E-02 0.  1.
    8880023    1    1    2    0    0  0.78163710506E+03  0.14319612187E+03 -0.43416882490E+03  0.11197207099E+04  0.65864270000E+03 0.  0.
    8880022    1    1    2    0    0 -0.78163710506E+03 -0.14319612187E+03  0.18046920318E+04  0.19778186661E+04  0.15294330000E+03 0.  0.
<mgrwt>
<rscale>  0 0.97121567E+03</rscale>
<asrwt>0</asrwt>
<pdfrwt beam="1">  1        2 0.34369712E+00 0.10321201E+04</pdfrwt>
<pdfrwt beam="2">  1       -2 0.13284740E+00 0.10321201E+04</pdfrwt>
<totfact> 0.20252765E+00</totfact>
</mgrwt>
</event>
<event>
 4    2  0.3388003E-007  0.7325982E+03  0.7818608E-02  0.9882057E-01
          2   -1    0    0  501    0  0.00000000000E+00  0.00000000000E+00  0.14886409803E+04  0.14886409803E+04  0.25500000000E-02 0. -1.
         -2   -1    0    0    0  501 -0.00000000000E+00 -0.00000000000E+00 -0.27096777635E+03  0.27096777636E+03  0.25500000000E-02 0.  1.
    8880023    1    1    2    0    0 -0.22367431893E+03  0.22991233080E+03  0.33008771610E+03  0.80352846084E+03  0.65864270000E+03 0.  1.
    8880022    1    1    2    0    0  0.22367431893E+03 -0.22991233080E+03  0.88758548785E+03  0.95608029582E+03  0.15294330000E+03 0.  0.
<mgrwt>
<rscale>  0 0.61138792E+03</rscale>
<asrwt>0</asrwt>
<pdfrwt beam="1">  1        2 0.22902169E+00 0.73259818E+03</pdfrwt>
<pdfrwt beam="2">  1       -2 0.41687350E-01 0.73259818E+03</pdfrwt>
<totfact> 0.71765595E+01</totfact>
</mgrwt>
</event>
<event>
 4    2  0.3388003E-007  0.6673311E+03  0.7818608E-02  0.1017653E+00
          2   -1    0    0  501    0  0.00000000000E+00  0.00000000000E+00  0.17343770813E+04  0.17343770813E+04  0.25500000000E-02 0. -1.
         -2   -1    0    0    0  501 -0.00000000000E+00 -0.00000000000E+00 -0.11707132747E+03  0.11707132750E+03  0.25500000000E-02 0.  1.
    8880023    1    1    2    0    0 -0.46407980741E+02 -0.96782905207E+02  0.96758540108E+03  0.11753945491E+04  0.65864270000E+03 0.  1.
    8880022    1    1    2    0    0  0.46407980741E+02  0.96782905207E+02  0.64972035273E+03  0.67605385968E+03  0.15294330000E+03 0. -1.
<mgrwt>
<rscale>  0 0.48543191E+03</rscale>
<asrwt>0</asrwt>
<pdfrwt beam="1">  1        2 0.26682724E+00 0.66733113E+03</pdfrwt>
<pdfrwt beam="2">  1       -2 0.18010974E-01 0.66733113E+03</pdfrwt>
<totfact> 0.24636071E+02</totfact>
</mgrwt>
</event>
<event>
 4    2  0.3388003E-007  0.1337928E+04  0.7818608E-02  0.9033479E-01
         -2   -1    0    0    0  501 -0.00000000000E+00  0.00000000000E+00  0.19068113803E+04  0.19068113803E+04  0.25500000000E-02 0.  1.
          2   -1    0    0  501    0  0.00000000000E+00 -0.00000000000E+00 -0.17446951054E+04  0.17446951054E+04  0.25500000000E-02 0. -1.
    8880023    1    1    2    0    0  0.64778446474E+03 -0.96778982466E+03 -0.12387780066E+04  0.18233548786E+04  0.65864270000E+03 0.  0.
    8880022    1    1    2    0    0 -0.64778446474E+03  0.96778982466E+03  0.14008942815E+04  0.18281516070E+04  0.15294330000E+03 0.  0.
<mgrwt>
<rscale>  0 0.12950755E+04</rscale>
<asrwt>0</asrwt>
<pdfrwt beam="1">  1        2 0.26841463E+00 0.13379283E+04</pdfrwt>
<pdfrwt beam="2">  1       -2 0.29335560E+00 0.13379283E+04</pdfrwt>
<totfact> 0.30943857E-01</totfact>
</mgrwt>
</event>
<event>
 4    2  0.3388003E-007  0.6798525E+03  0.7818608E-02  0.1009407E+00
         -2   -1    0    0    0  501 -0.00000000000E+00  0.00000000000E+00  0.36085092697E+03  0.36085092697E+03  0.25500000000E-02 0.  1.
          2   -1    0    0  501    0  0.00000000000E+00 -0.00000000000E+00 -0.23130572147E+04  0.23130572147E+04  0.25500000000E-02 0. -1.
    8880023    1    1    2    0    0  0.52375795106E+02  0.16014375019E+03  0.28233130761E+02  0.68043850609E+03  0.65864270000E+03 0.  1.
    8880022    1    1    2    0    0 -0.52375795106E+02 -0.16014375019E+03 -0.19804394185E+04  0.19934696355E+04  0.15294330000E+03 0.  0.
<mgrwt>
<rscale>  0 0.51710916E+03</rscale>
<asrwt>0</asrwt>
<pdfrwt beam="1">  1        2 0.35585495E+00 0.67985252E+03</pdfrwt>
<pdfrwt beam="2">  1       -2 0.55515529E-01 0.67985252E+03</pdfrwt>
<totfact> 0.14329410E+01</totfact>
</mgrwt>
</event>
<event>
 4    2  0.3388003E-007  0.6899094E+03  0.7818608E-02  0.1004196E+00
          2   -1    0    0  501    0  0.00000000000E+00  0.00000000000E+00  0.16510641711E+04  0.16510641711E+04  0.25500000000E-02 0. -1.
         -2   -1    0    0    0  501 -0.00000000000E+00 -0.00000000000E+00 -0.41252612655E+03  0.41252612656E+03  0.25500000000E-02 0.  1.
    8880023    1    1    2    0    0  0.15175511623E+02 -0.20477913502E+03 -0.10324930970E+03  0.69759258633E+03  0.65864270000E+03 0.  1.
    8880022    1    1    2    0    0 -0.15175511623E+02  0.20477913502E+03  0.13417873543E+04  0.13659977113E+04  0.15294330000E+03 0.  0.
<mgrwt>
<rscale>  0 0.53848173E+03</rscale>
<asrwt>0</asrwt>
<pdfrwt beam="1">  1        2 0.25400988E+00 0.68990941E+03</pdfrwt>
<pdfrwt beam="2">  1       -2 0.63465557E-01 0.68990941E+03</pdfrwt>
<totfact> 0.24821920E+01</totfact>
</mgrwt>
</event>
<event>
 4    2  0.3388003E-007  0.1094112E+04  0.7818608E-02  0.9267640E-01
         -2   -1    0    0    0  501 -0.00000000000E+00  0.00000000000E+00  0.66077803339E+03  0.66077803340E+03  0.25500000000E-02 0.  1.
          2   -1    0    0  501    0  0.00000000000E+00 -0.00000000000E+00 -0.18319351138E+04  0.18319351138E+04  0.25500000000E-02 0. -1.
    8880023    1    1    2    0    0  0.85535393964E+03  0.17788074414E+03 -0.95100396815E+02  0.10982377761E+04  0.65864270000E+03 0.  1.
    8880022    1    1    2    0    0 -0.85535393964E+03 -0.17788074414E+03 -0.10760566836E+04  0.13944753711E+04  0.15294330000E+03 0.  0.
<mgrwt>
<rscale>  0 0.10381739E+04</rscale>
<asrwt>0</asrwt>
<pdfrwt beam="1">  1        2 0.28183617E+00 0.10941125E+04</pdfrwt>
<pdfrwt beam="2">  1       -2 0.10165816E+00 0.10941125E+04</pdfrwt>
<totfact> 0.65016898E+00</totfact>
</mgrwt>
</event>
<event>
 4    2  0.3388003E-007  0.1211524E+04  0.7818608E-02  0.9146001E-01
          2   -1    0    0  501    0  0.00000000000E+00  0.00000000000E+00  0.12694231973E+04  0.12694231973E+04  0.25500000000E-02 0. -1.
         -2   -1    0    0    0  501 -0.00000000000E+00 -0.00000000000E+00 -0.11873971151E+04  0.11873971151E+04  0.25500000000E-02 0.  1.
    8880023    1    1    2    0    0  0.94137890732E+03  0.38442860986E+03 -0.45818542971E+03  0.12952697393E+04  0.65864270000E+03 0.  0.
    8880022    1    1    2    0    0 -0.94137890732E+03 -0.38442860986E+03  0.54021151194E+03  0.11615505731E+04  0.15294330000E+03 0.  0.
<mgrwt>
<rscale>  0 0.11628599E+04</rscale>
<asrwt>0</asrwt>
<pdfrwt beam="1">  1        2 0.19529588E+00 0.12115238E+04</pdfrwt>
<pdfrwt beam="2">  1       -2 0.18267648E+00 0.12115238E+04</pdfrwt>
<totfact> 0.29038774E+00</totfact>
</mgrwt>
</event>
<event>
 4    2  0.3388003E-007  0.6605503E+03  0.7818608E-02  0.1023600E+00
         -2   -1    0    0    0  501 -0.00000000000E+00  0.00000000000E+00  0.82655618552E+03  0.82655618552E+03  0.25500000000E-02 0.  1.
          2   -1    0    0  501    0  0.00000000000E+00 -0.00000000000E+00 -0.12493757612E+04  0.12493757612E+04  0.25500000000E-02 0. -1.
    8880023    1    1    2    0    0 -0.46090895943E+02 -0.19800402457E+02  0.68785078949E+03  0.95365892304E+03  0.65864270000E+03 0.  1.
    8880022    1    1    2    0    0  0.46090895943E+02  0.19800402457E+02 -0.11106703652E+04  0.11222730237E+04  0.15294330000E+03 0.  0.
<mgrwt>
<rscale>  0 0.46409704E+03</rscale>
<asrwt>0</asrwt>
<pdfrwt beam="1">  1        2 0.19221166E+00 0.66055025E+03</pdfrwt>
<pdfrwt beam="2">  1       -2 0.12716249E+00 0.66055025E+03</pdfrwt>
<totfact> 0.84040214E+00</totfact>
</mgrwt>
</event>
<event>
 4    2  0.3388003E-007  0.7536985E+03  0.7818608E-02  0.9821703E-01
         -2   -1    0    0    0  501 -0.00000000000E+00  0.00000000000E+00  0.12599371773E+04  0.12599371773E+04  0.25500000000E-02 0.  1.
          2   -1    0    0  501    0  0.00000000000E+00 -0.00000000000E+00 -0.10664353789E+04  0.10664353789E+04  0.25500000000E-02 0. -1.
    8880023    1    1    2    0    0  0.32296103992E+03  0.17305302984E+03  0.11018926340E+04  0.13350014110E+04  0.65864270000E+03 0.  0.
    8880022    1    1    2    0    0 -0.32296103992E+03 -0.17305302984E+03 -0.90839083557E+03  0.99137114524E+03  0.15294330000E+03 0.  0.
<mgrwt>
<rscale>  0 0.64210715E+03</rscale>
<asrwt>0</asrwt>
<pdfrwt beam="1">  1        2 0.16406698E+00 0.75369847E+03</pdfrwt>
<pdfrwt beam="2">  1       -2 0.19383649E+00 0.75369847E+03</pdfrwt>
<totfact> 0.34184216E+00</totfact>
</mgrwt>
</event>
<event>
 4    2  0.3388003E-007  0.9847190E+03  0.7818608E-02  0.9401829E-01
          2   -1    0    0  501    0  0.00000000000E+00  0.00000000000E+00  0.26133100145E+04  0.26133100145E+04  0.25500000000E-02 0. -1.
         -2   -1    0    0    0  501 -0.00000000000E+00 -0.00000000000E+00 -0.30840825798E+03  0.30840825799E+03  0.25500000000E-02 0.  1.
    8880023    1    1    2    0    0 -0.51378034816E+03  0.52143175529E+03  0.91905250360E+03  0.13469703160E+04  0.65864270000E+03 0.  1.
    8880022    1    1    2    0    0  0.51378034816E+03 -0.52143175529E+03  0.13858492529E+04  0.15747479565E+04  0.15294330000E+03 0.  0.
<mgrwt>
<rscale>  0 0.91925347E+03</rscale>
<asrwt>0</asrwt>
<pdfrwt beam="1">  1        2 0.40204768E+00 0.98471901E+03</pdfrwt>
<pdfrwt beam="2">  1       -2 0.47447426E-01 0.98471901E+03</pdfrwt>
<totfact> 0.12787641E+01</totfact>
</mgrwt>
</event>
<event>
 4    2  0.3388003E-007  0.8543647E+03  0.7818608E-02  0.9603667E-01
          2   -1    0    0  501    0  0.00000000000E+00  0.00000000000E+00  0.42291169586E+03  0.42291169586E+03  0.25500000000E-02 0. -1.
         -2   -1    0    0    0  501 -0.00000000000E+00 -0.00000000000E+00 -0.13898871957E+04  0.13898871957E+04  0.25500000000E-02 0.  1.
    8880023    1    1    2    0    0  0.16765782541E+02  0.54391887481E+03 -0.90431371831E+03  0.12440748937E+04  0.65864270000E+03 0.  0.
    8880022    1    1    2    0    0 -0.16765782541E+02 -0.54391887481E+03 -0.62661781546E+02  0.56872399784E+03  0.15294330000E+03 0.  0.
<mgrwt>
<rscale>  0 0.77053933E+03</rscale>
<asrwt>0</asrwt>
<pdfrwt beam="1">  1        2 0.65063339E-01 0.85436470E+03</pdfrwt>
<pdfrwt beam="2">  1       -2 0.21382880E+00 0.85436470E+03</pdfrwt>
<totfact> 0.81601837E+00</totfact>
</mgrwt>
</event>
<event>
 4    2  0.3388003E-007  0.6756078E+03  0.7818608E-02  0.1011926E+00
         -2   -1    0    0    0  501 -0.00000000000E+00  0.00000000000E+00  0.11172310993E+03  0.11172310995E+03  0.25500000000E-02 0.  1.
          2   -1    0    0  501    0  0.00000000000E+00 -0.00000000000E+00 -0.24619891296E+04  0.24619891296E+04  0.25500000000E-02 0. -1.
    8880023    1    1    2    0    0 -0.93466466591E+02 -0.11789723971E+03 -0.10020439124E+04  0.12085271814E+04  0.65864270000E+03 0.  1.
    8880022    1    1    2    0    0  0.93466466591E+02  0.11789723971E+03 -0.13482221073E+04  0.13651850582E+04  0.15294330000E+03 0.  0.
<mgrwt>
<rscale>  0 0.50716357E+03</rscale>
<asrwt>0</asrwt>
<pdfrwt beam="1">  1        2 0.37876752E+00 0.67560783E+03</pdfrwt>
<pdfrwt beam="2">  1       -2 0.17188173E-01 0.67560783E+03</pdfrwt>
<totfact> 0.10642285E+02</totfact>
</mgrwt>
</event>
<event>
 4    2  0.3388003E-007  0.7638281E+03  0.7818608E-02  0.9795296E-01
          2   -1    0    0  501    0  0.00000000000E+00  0.00000000000E+00  0.13799066649E+04  0.13799066649E+04  0.25500000000E-02 0. -1.
         -2   -1    0    0    0  501 -0.00000000000E+00 -0.00000000000E+00 -0.25259212196E+03  0.25259212197E+03  0.25500000000E-02 0.  1.
    8880023    1    1    2    0    0  0.37162212552E+03 -0.10733177090E+03  0.69764809969E+03  0.10344787047E+04  0.65864270000E+03 0.  0.
    8880022    1    1    2    0    0 -0.37162212552E+03  0.10733177090E+03  0.42966644328E+03  0.59802008220E+03  0.15294330000E+03 0.  1.
<mgrwt>
<rscale>  0 0.65615600E+03</rscale>
<asrwt>0</asrwt>
<pdfrwt beam="1">  1        2 0.21229334E+00 0.76382807E+03</pdfrwt>
<pdfrwt beam="2">  1       -2 0.38860326E-01 0.76382807E+03</pdfrwt>
<totfact> 0.94481742E+01</totfact>
</mgrwt>
</event>
<event>
 4    2  0.3388003E-007  0.7129534E+03  0.7818608E-02  0.9947193E-01
         -2   -1    0    0    0  501 -0.00000000000E+00  0.00000000000E+00  0.16843975919E+04  0.16843975919E+04  0.25500000000E-02 0.  1.
          2   -1    0    0  501    0  0.00000000000E+00 -0.00000000000E+00 -0.42883125136E+03  0.42883125137E+03  0.25500000000E-02 0. -1.
    8880023    1    1    2    0    0  0.23667319576E+03 -0.13593446179E+03  0.15357961499E+04  0.16932136309E+04  0.65864270000E+03 0.  0.
    8880022    1    1    2    0    0 -0.23667319576E+03  0.13593446179E+03 -0.28022980941E+03  0.42001521233E+03  0.15294330000E+03 0.  0.
<mgrwt>
<rscale>  0 0.58027632E+03</rscale>
<asrwt>0</asrwt>
<pdfrwt beam="1">  1        2 0.65974038E-01 0.71295342E+03</pdfrwt>
<pdfrwt beam="2">  1       -2 0.25913809E+00 0.71295342E+03</pdfrwt>
<totfact> 0.42988436E+00</totfact>
</mgrwt>
</event>
<event>
 4    2  0.3388003E-007  0.8181479E+03  0.7818608E-02  0.9672848E-01
          2   -1    0    0  501    0  0.00000000000E+00  0.00000000000E+00  0.12912590947E+04  0.12912590947E+04  0.25500000000E-02 0. -1.
         -2   -1    0    0    0  501 -0.00000000000E+00 -0.00000000000E+00 -0.10265747798E+04  0.10265747798E+04  0.25500000000E-02 0.  1.
    8880023    1    1    2    0    0 -0.34790166041E+03  0.33840845192E+03 -0.79594792462E+03  0.11414460787E+04  0.65864270000E+03 0.  1.
    8880022    1    1    2    0    0  0.34790166041E+03 -0.33840845192E+03  0.10606322395E+04  0.11763877958E+04  0.15294330000E+03 0.  0.
<mgrwt>
<rscale>  0 0.72656646E+03</rscale>
<asrwt>0</asrwt>
<pdfrwt beam="1">  1        2 0.19865525E+00 0.81814794E+03</pdfrwt>
<pdfrwt beam="2">  1       -2 0.15793458E+00 0.81814794E+03</pdfrwt>
<totfact> 0.44244377E+00</totfact>
</mgrwt>
</event>
<event>
 4    2  0.3388003E-007  0.7299205E+03  0.7818608E-02  0.9890345E-01
          2   -1    0    0  501    0  0.00000000000E+00  0.00000000000E+00  0.41407653976E+03  0.41407653977E+03  0.25500000000E-02 0. -1.
         -2   -1    0    0    0  501 -0.00000000000E+00 -0.00000000000E+00 -0.10702162466E+04  0.10702162466E+04  0.25500000000E-02 0.  1.
    8880023    1    1    2    0    0 -0.11860189241E+03  0.29138850088E+03 -0.82017063573E+03  0.10979361299E+04  0.65864270000E+03 0.  1.
    8880022    1    1    2    0    0  0.11860189241E+03 -0.29138850088E+03  0.16403092892E+03  0.38635665645E+03  0.15294330000E+03 0.  0.
<mgrwt>
<rscale>  0 0.60731491E+03</rscale>
<asrwt>0</asrwt>
<pdfrwt beam="1">  1        2 0.63704084E-01 0.72992046E+03</pdfrwt>
<pdfrwt beam="2">  1       -2 0.16464865E+00 0.72992046E+03</pdfrwt>
<totfact> 0.18092552E+01</totfact>
</mgrwt>
</event>
<event>
 4    2  0.3388003E-007  0.9055943E+03  0.7818608E-02  0.9517110E-01
          2   -1    0    0  501    0  0.00000000000E+00  0.00000000000E+00  0.44611332374E+04  0.44611332374E+04  0.25500000000E-02 0. -1.
         -2   -1    0    0    0  501 -0.00000000000E+00 -0.00000000000E+00 -0.41324236040E+03  0.41324236041E+03  0.25500000000E-02 0.  1.
    8880023    1    1    2    0    0 -0.52870039801E+03 -0.32675168973E+03  0.14232666816E+03  0.91671034920E+03  0.65864270000E+03 0. -1.
    8880022    1    1    2    0    0  0.52870039801E+03  0.32675168973E+03  0.39055642089E+04  0.39576652486E+04  0.15294330000E+03 0.  0.
<mgrwt>
<rscale>  0 0.83034040E+03</rscale>
<asrwt>0</asrwt>
<pdfrwt beam="1">  1        2 0.68632818E+00 0.90559427E+03</pdfrwt>
<pdfrwt beam="2">  1       -2 0.63575749E-01 0.90559427E+03</pdfrwt>
<totfact> 0.33701329E-01</totfact>
</mgrwt>
</event>
<event>
 4    2  0.3388003E-007  0.7243142E+03  0.7818608E-02  0.9908250E-01
         -2   -1    0    0    0  501 -0.00000000000E+00  0.00000000000E+00  0.10692775858E+04  0.10692775858E+04  0.25500000000E-02 0.  1.
          2   -1    0    0  501    0  0.00000000000E+00 -0.00000000000E+00 -0.52099335610E+03  0.52099335610E+03  0.25500000000E-02 0. -1.
    8880023    1    1    2    0    0 -0.29220064457E+02 -0.29994504596E+03  0.86423941143E+03  0.11276261833E+04  0.65864270000E+03 0.  1.
    8880022    1    1    2    0    0  0.29220064457E+02  0.29994504596E+03 -0.31595518173E+03  0.46264475858E+03  0.15294330000E+03 0.  0.
<mgrwt>
<rscale>  0 0.59863134E+03</rscale>
<asrwt>0</asrwt>
<pdfrwt beam="1">  1        2 0.80152825E-01 0.72431419E+03</pdfrwt>
<pdfrwt beam="2">  1       -2 0.16450424E+00 0.72431419E+03</pdfrwt>
<totfact> 0.13941541E+01</totfact>
</mgrwt>
</event>
<event>
 4    2  0.3388003E-007  0.6755981E+03  0.7818608E-02  0.1011932E+00
         -2   -1    0    0    0  501 -0.00000000000E+00  0.00000000000E+00  0.45197568397E+03  0.45197568398E+03  0.25500000000E-02 0.  1.
          2   -1    0    0  501    0  0.00000000000E+00 -0.00000000000E+00 -0.56446265408E+03  0.56446265409E+03  0.25500000000E-02 0. -1.
    8880023    1    1    2    0    0 -0.16740219603E+02 -0.14947359490E+03  0.13497089708E+03  0.68894843047E+03  0.65864270000E+03 0.  0.
    8880022    1    1    2    0    0  0.16740219603E+02  0.14947359490E+03 -0.24745786720E+03  0.32748990760E+03  0.15294330000E+03 0.  0.
<mgrwt>
<rscale>  0 0.50713998E+03</rscale>
<asrwt>0</asrwt>
<pdfrwt beam="1">  1        2 0.86840408E-01 0.67559810E+03</pdfrwt>
<pdfrwt beam="2">  1       -2 0.69534721E-01 0.67559810E+03</pdfrwt>
<totfact> 0.10225538E+02</totfact>
</mgrwt>
</event>
<event>
 4    2  0.3388003E-007  0.6892080E+03  0.7818608E-02  0.1004531E+00
         -2   -1    0    0    0  501 -0.00000000000E+00  0.00000000000E+00  0.36211285275E+03  0.36211285276E+03  0.25500000000E-02 0.  1.
          2   -1    0    0  501    0  0.00000000000E+00 -0.00000000000E+00 -0.64437959344E+03  0.64437959344E+03  0.25500000000E-02 0. -1.
    8880023    1    1    2    0    0  0.20273202647E+03  0.98612304983E+01 -0.10625740083E+03  0.69735095893E+03  0.65864270000E+03 0.  1.
    8880022    1    1    2    0    0 -0.20273202647E+03 -0.98612304983E+01 -0.17600933985E+03  0.30914148727E+03  0.15294330000E+03 0. -1.
<mgrwt>
<rscale>  0 0.53707225E+03</rscale>
<asrwt>0</asrwt>
<pdfrwt beam="1">  1        2 0.99135322E-01 0.68920804E+03</pdfrwt>
<pdfrwt beam="2">  1       -2 0.55709670E-01 0.68920804E+03</pdfrwt>
<totfact> 0.13952283E+02</totfact>
</mgrwt>
</event>
<event>
 4    2  0.3388003E-007  0.7228650E+03  0.7818608E-02  0.9913008E-01
         -2   -1    0    0    0  501 -0.00000000000E+00  0.00000000000E+00  0.21424537934E+04  0.21424537934E+04  0.25500000000E-02 0.  1.
          2   -1    0    0  501    0  0.00000000000E+00 -0.00000000000E+00 -0.36417339927E+03  0.36417339928E+03  0.25500000000E-02 0. -1.
    8880023    1    1    2    0    0  0.27036613979E+03 -0.12500321710E+03  0.19854061954E+04  0.21129059659E+04  0.65864270000E+03 0.  1.
    8880022    1    1    2    0    0 -0.27036613979E+03  0.12500321710E+03 -0.20712580128E+03  0.39372122676E+03  0.15294330000E+03 0.  0.
<mgrwt>
<rscale>  0 0.59634973E+03</rscale>
<asrwt>0</asrwt>
<pdfrwt beam="1">  1        2 0.56026677E-01 0.72286504E+03</pdfrwt>
<pdfrwt beam="2">  1       -2 0.32960828E+00 0.72286504E+03</pdfrwt>
<totfact> 0.19417095E+00</totfact>
</mgrwt>
</event>
<event>
 4    2  0.3388003E-007  0.7224950E+03  0.7818608E-02  0.9914232E-01
          2   -1    0    0  501    0  0.00000000000E+00  0.00000000000E+00  0.28615899800E+03  0.28615899801E+03  0.25500000000E-02 0. -1.
         -2   -1    0    0    0  501 -0.00000000000E+00 -0.00000000000E+00 -0.10780403070E+04  0.10780403070E+04  0.25500000000E-02 0.  1.
    8880023    1    1    2    0    0 -0.11176017140E+03  0.27513366108E+03 -0.72499564206E+03  0.10235319998E+04  0.65864270000E+03 0.  0.
    8880022    1    1    2    0    0  0.11176017140E+03 -0.27513366108E+03 -0.66885666923E+02  0.34066730519E+03  0.15294330000E+03 0.  0.
<mgrwt>
<rscale>  0 0.59576460E+03</rscale>
<asrwt>0</asrwt>
<pdfrwt beam="1">  1        2 0.44024462E-01 0.72249503E+03</pdfrwt>
<pdfrwt beam="2">  1       -2 0.16585235E+00 0.72249503E+03</pdfrwt>
<totfact> 0.26812927E+01</totfact>
</mgrwt>
</event>
<event>
 4    2  0.3388003E-007  0.1197432E+04  0.7818608E-02  0.9159623E-01
          2   -1    0    0  501    0  0.00000000000E+00  0.00000000000E+00  0.23416208111E+04  0.23416208111E+04  0.25500000000E-02 0. -1.
         -2   -1    0    0    0  501 -0.00000000000E+00 -0.00000000000E+00 -0.62621184187E+03  0.62621184187E+03  0.25500000000E-02 0.  1.
    8880023    1    1    2    0    0 -0.24481278260E+02 -0.99971672378E+03  0.31128901140E+03  0.12372323612E+04  0.65864270000E+03 0.  0.
    8880022    1    1    2    0    0  0.24481278260E+02  0.99971672378E+03  0.14041199578E+04  0.17306002917E+04  0.15294330000E+03 0.  0.
<mgrwt>
<rscale>  0 0.11480084E+04</rscale>
<asrwt>0</asrwt>
<pdfrwt beam="1">  1        2 0.36024936E+00 0.11974319E+04</pdfrwt>
<pdfrwt beam="2">  1       -2 0.96340283E-01 0.11974319E+04</pdfrwt>
<totfact> 0.38039768E+00</totfact>
</mgrwt>
</event>
<event>
 4    2  0.3388003E-007  0.8167851E+03  0.7818608E-02  0.9675613E-01
          2   -1    0    0  501    0  0.00000000000E+00  0.00000000000E+00  0.25686841895E+04  0.25686841895E+04  0.25500000000E-02 0. -1.
         -2   -1    0    0    0  501 -0.00000000000E+00 -0.00000000000E+00 -0.17382334582E+03  0.17382334584E+03  0.25500000000E-02 0.  1.
    8880023    1    1    2    0    0  0.21967497703E+03  0.43019826752E+03  0.12873687676E+04  0.15246167371E+04  0.65864270000E+03 0.  1.
    8880022    1    1    2    0    0 -0.21967497703E+03 -0.43019826752E+03  0.11074920761E+04  0.12178907983E+04  0.15294330000E+03 0. -1.
<mgrwt>
<rscale>  0 0.72487506E+03</rscale>
<asrwt>0</asrwt>
<pdfrwt beam="1">  1        2 0.39518213E+00 0.81678507E+03</pdfrwt>
<pdfrwt beam="2">  1       -2 0.26742057E-01 0.81678507E+03</pdfrwt>
<totfact> 0.41627336E+01</totfact>
</mgrwt>
</event>
<event>
 4    2  0.3388003E-007  0.7423851E+03  0.7818608E-02  0.9853053E-01
         -2   -1    0    0    0  501 -0.00000000000E+00  0.00000000000E+00  0.31863334143E+03  0.31863334144E+03  0.25500000000E-02 0.  1.
          2   -1    0    0  501    0  0.00000000000E+00 -0.00000000000E+00 -0.25905484831E+04  0.25905484831E+04  0.25500000000E-02 0. -1.
    8880023    1    1    2    0    0  0.78259852773E+02 -0.33346783504E+03 -0.15385559945E+03  0.75816037440E+03  0.65864270000E+03 0.  1.
    8880022    1    1    2    0    0 -0.78259852773E+02  0.33346783504E+03 -0.21180595422E+04  0.21510214502E+04  0.15294330000E+03 0.  0.
<mgrwt>
<rscale>  0 0.62591487E+03</rscale>
<asrwt>0</asrwt>
<pdfrwt beam="1">  1        2 0.39854591E+00 0.74238508E+03</pdfrwt>
<pdfrwt beam="2">  1       -2 0.49020516E-01 0.74238508E+03</pdfrwt>
<totfact> 0.12770470E+01</totfact>
</mgrwt>
</event>
<event>
 4    2  0.3388003E-007  0.6721934E+03  0.7818608E-02  0.1014137E+00
          2   -1    0    0  501    0  0.00000000000E+00  0.00000000000E+00  0.26373020589E+04  0.26373020589E+04  0.25500000000E-02 0. -1.
         -2   -1    0    0    0  501 -0.00000000000E+00 -0.00000000000E+00 -0.97340549444E+02  0.97340549478E+02  0.25500000000E-02 0.  1.
    8880023    1    1    2    0    0 -0.10688785022E+03 -0.81293993099E+02  0.11675879242E+04  0.13472585100E+04  0.65864270000E+03 0.  1.
    8880022    1    1    2    0    0  0.10688785022E+03  0.81293993099E+02  0.13723735853E+04  0.13873840984E+04  0.15294330000E+03 0.  0.
<mgrwt>
<rscale>  0 0.49863066E+03</rscale>
<asrwt>0</asrwt>
<pdfrwt beam="1">  1        2 0.40573876E+00 0.67219337E+03</pdfrwt>
<pdfrwt beam="2">  1       -2 0.14975470E-01 0.67219337E+03</pdfrwt>
<totfact> 0.10698983E+02</totfact>
</mgrwt>
</event>
<event>
 4    2  0.3388003E-007  0.1071977E+04  0.7818608E-02  0.9292916E-01
         -2   -1    0    0    0  501 -0.00000000000E+00  0.00000000000E+00  0.68522039082E+03  0.68522039083E+03  0.25500000000E-02 0.  1.
          2   -1    0    0  501    0  0.00000000000E+00 -0.00000000000E+00 -0.24246758164E+04  0.24246758164E+04  0.25500000000E-02 0. -1.
    8880023    1    1    2    0    0  0.46308773396E+03 -0.70772540327E+03  0.10291548873E+03  0.10769063561E+04  0.65864270000E+03 0.  0.
    8880022    1    1    2    0    0 -0.46308773396E+03  0.70772540327E+03 -0.18423709143E+04  0.20329898511E+04  0.15294330000E+03 0.  0.
<mgrwt>
<rscale>  0 0.10143761E+04</rscale>
<asrwt>0</asrwt>
<pdfrwt beam="1">  1        2 0.37302704E+00 0.10719775E+04</pdfrwt>
<pdfrwt beam="2">  1       -2 0.10541852E+00 0.10719775E+04</pdfrwt>
<totfact> 0.27935155E+00</totfact>
</mgrwt>
</event>
<event>
 4    2  0.3388003E-007  0.8998983E+03  0.7818608E-02  0.9526195E-01
         -2   -1    0    0    0  501 -0.00000000000E+00  0.00000000000E+00  0.81963316715E+03  0.81963316716E+03  0.25500000000E-02 0.  1.
          2   -1    0    0  501    0  0.00000000000E+00 -0.00000000000E+00 -0.15455402949E+04  0.15455402949E+04  0.25500000000E-02 0. -1.
    8880023    1    1    2    0    0  0.51665816217E+03 -0.33025915377E+03  0.46799941567E+03  0.10143177138E+04  0.65864270000E+03 0.  0.
    8880022    1    1    2    0    0 -0.51665816217E+03  0.33025915377E+03 -0.11939065435E+04  0.13508557483E+04  0.15294330000E+03 0.  0.
<mgrwt>
<rscale>  0 0.82379826E+03</rscale>
<asrwt>0</asrwt>
<pdfrwt beam="1">  1        2 0.23777543E+00 0.89989831E+03</pdfrwt>
<pdfrwt beam="2">  1       -2 0.12609741E+00 0.89989831E+03</pdfrwt>
<totfact> 0.56438563E+00</totfact>
</mgrwt>
</event>
<event>
 4    2  0.3388003E-007  0.1243155E+04  0.7818608E-02  0.9116273E-01
          2   -1    0    0  501    0  0.00000000000E+00  0.00000000000E+00  0.15966335724E+04  0.15966335724E+04  0.25500000000E-02 0. -1.
         -2   -1    0    0    0  501 -0.00000000000E+00 -0.00000000000E+00 -0.11809340853E+04  0.11809340853E+04  0.25500000000E-02 0.  1.
    8880023    1    1    2    0    0 -0.38678595689E+03 -0.98082685670E+03 -0.53150514409E+03  0.13520105857E+04  0.65864270000E+03 0.  1.
    8880022    1    1    2    0    0  0.38678595689E+03  0.98082685670E+03  0.94720463118E+03  0.14255570720E+04  0.15294330000E+03 0.  0.
<mgrwt>
<rscale>  0 0.11961049E+04</rscale>
<asrwt>0</asrwt>
<pdfrwt beam="1">  1        2 0.24563593E+00 0.12431552E+04</pdfrwt>
<pdfrwt beam="2">  1       -2 0.18168217E+00 0.12431552E+04</pdfrwt>
<totfact> 0.19099906E+00</totfact>
</mgrwt>
</event>
<event>
 4    2  0.3388003E-007  0.7040355E+03  0.7818608E-02  0.9980855E-01
          2   -1    0    0  501    0  0.00000000000E+00  0.00000000000E+00  0.20229885640E+04  0.20229885640E+04  0.25500000000E-02 0. -1.
         -2   -1    0    0    0  501 -0.00000000000E+00 -0.00000000000E+00 -0.22339106166E+03  0.22339106167E+03  0.25500000000E-02 0.  1.
    8880023    1    1    2    0    0  0.12689850527E+03 -0.21389843929E+03  0.38592795138E+03  0.80287381505E+03  0.65864270000E+03 0.  1.
    8880022    1    1    2    0    0 -0.12689850527E+03  0.21389843929E+03  0.14136695510E+04  0.14435058107E+04  0.15294330000E+03 0.  0.
<mgrwt>
<rscale>  0 0.56497740E+03</rscale>
<asrwt>0</asrwt>
<pdfrwt beam="1">  1        2 0.31122900E+00 0.70403550E+03</pdfrwt>
<pdfrwt beam="2">  1       -2 0.34367857E-01 0.70403550E+03</pdfrwt>
<totfact> 0.53300362E+01</totfact>
</mgrwt>
</event>
<event>
 4    2  0.3388003E-007  0.7188801E+03  0.7818608E-02  0.9926394E-01
          2   -1    0    0  501    0  0.00000000000E+00  0.00000000000E+00  0.83043099761E+03  0.83043099761E+03  0.25500000000E-02 0. -1.
         -2   -1    0    0    0  501 -0.00000000000E+00 -0.00000000000E+00 -0.78672182411E+03  0.78672182412E+03  0.25500000000E-02 0.  1.
    8880023    1    1    2    0    0  0.27727725079E+03  0.78074792265E+02 -0.57314001027E+03  0.91939002857E+03  0.65864270000E+03 0.  1.
    8880022    1    1    2    0    0 -0.27727725079E+03 -0.78074792265E+02  0.61684918376E+03  0.69776279316E+03  0.15294330000E+03 0.  0.
<mgrwt>
<rscale>  0 0.58999010E+03</rscale>
<asrwt>0</asrwt>
<pdfrwt beam="1">  1        2 0.12775862E+00 0.71888007E+03</pdfrwt>
<pdfrwt beam="2">  1       -2 0.12103413E+00 0.71888007E+03</pdfrwt>
<totfact> 0.17339691E+01</totfact>
</mgrwt>
</event>
<event>
 4    2  0.3388003E-007  0.7304016E+03  0.7818608E-02  0.9888844E-01
         -2   -1    0    0    0  501 -0.00000000000E+00  0.00000000000E+00  0.23222929996E+03  0.23222929997E+03  0.25500000000E-02 0.  1.
          2   -1    0    0  501    0  0.00000000000E+00 -0.00000000000E+00 -0.17280755340E+04  0.17280755340E+04  0.25500000000E-02 0. -1.
    8880023    1    1    2    0    0 -0.11060226731E+02 -0.31552183484E+03 -0.45167138390E+03  0.85877447690E+03  0.65864270000E+03 0.  1.
    8880022    1    1    2    0    0  0.11060226731E+02  0.31552183484E+03 -0.10441748501E+04  0.11015303571E+04  0.15294330000E+03 0.  0.
<mgrwt>
<rscale>  0 0.60805023E+03</rscale>
<asrwt>0</asrwt>
<pdfrwt beam="1">  1        2 0.26585777E+00 0.73040165E+03</pdfrwt>
<pdfrwt beam="2">  1       -2 0.35727586E-01 0.73040165E+03</pdfrwt>
<totfact> 0.71437017E+01</totfact>
</mgrwt>
</event>
<event>
 4    2  0.3388003E-007  0.7867948E+03  0.7818608E-02  0.9740111E-01
         -2   -1    0    0    0  501 -0.00000000000E+00  0.00000000000E+00  0.15764555946E+04  0.15764555946E+04  0.25500000000E-02 0.  1.
          2   -1    0    0  501    0  0.00000000000E+00 -0.00000000000E+00 -0.79754742885E+03  0.79754742886E+03  0.25500000000E-02 0. -1.
    8880023    1    1    2    0    0 -0.42342078816E+03 -0.77140694037E+02  0.13982705940E+04  0.16044334548E+04  0.65864270000E+03 0.  1.
    8880022    1    1    2    0    0  0.42342078816E+03  0.77140694037E+02 -0.61936242824E+03  0.76956956869E+03  0.15294330000E+03 0.  0.
<mgrwt>
<rscale>  0 0.68677987E+03</rscale>
<asrwt>0</asrwt>
<pdfrwt beam="1">  1        2 0.12269961E+00 0.78679480E+03</pdfrwt>
<pdfrwt beam="2">  1       -2 0.24253163E+00 0.78679480E+03</pdfrwt>
<totfact> 0.25315359E+00</totfact>
</mgrwt>
</event>
<event>
 4    2  0.3388003E-007  0.7347469E+03  0.7818608E-02  0.9875522E-01
          2   -1    0    0  501    0  0.00000000000E+00  0.00000000000E+00  0.26278518739E+04  0.26278518739E+04  0.25500000000E-02 0. -1.
         -2   -1    0    0    0  501 -0.00000000000E+00 -0.00000000000E+00 -0.12592011237E+03  0.12592011239E+03  0.25500000000E-02 0.  1.
    8880023    1    1    2    0    0  0.20263332243E+03 -0.25491676725E+03  0.20398955342E+04  0.21681851439E+04  0.65864270000E+03 0.  0.
    8880022    1    1    2    0    0 -0.20263332243E+03  0.25491676725E+03  0.46203622735E+03  0.58558684239E+03  0.15294330000E+03 0.  0.
<mgrwt>
<rscale>  0 0.61462408E+03</rscale>
<asrwt>0</asrwt>
<pdfrwt beam="1">  1        2 0.40428486E+00 0.73474691E+03</pdfrwt>
<pdfrwt beam="2">  1       -2 0.19372327E-01 0.73474691E+03</pdfrwt>
<totfact> 0.69105915E+01</totfact>
</mgrwt>
</event>
<event>
 4    2  0.3388003E-007  0.6640751E+03  0.7818608E-02  0.1020322E+00
          2   -1    0    0  501    0  0.00000000000E+00  0.00000000000E+00  0.11166531721E+03  0.11166531724E+03  0.25500000000E-02 0. -1.
         -2   -1    0    0    0  501 -0.00000000000E+00 -0.00000000000E+00 -0.21779346469E+04  0.21779346469E+04  0.25500000000E-02 0.  1.
    8880023    1    1    2    0    0 -0.78938961463E+02  0.30890240172E+02 -0.19917161382E+04  0.20995068345E+04  0.65864270000E+03 0.  0.
    8880022    1    1    2    0    0  0.78938961463E+02 -0.30890240172E+02 -0.74553191520E+02  0.19009312969E+03  0.15294330000E+03 0.  0.
<mgrwt>
<rscale>  0 0.47570494E+03</rscale>
<asrwt>0</asrwt>
<pdfrwt beam="1">  1        2 0.17179281E-01 0.66407513E+03</pdfrwt>
<pdfrwt beam="2">  1       -2 0.33506684E+00 0.66407513E+03</pdfrwt>
<totfact> 0.69621723E+00</totfact>
</mgrwt>
</event>
<event>
 4    2  0.3388003E-007  0.7017098E+03  0.7818608E-02  0.9990181E-01
          2   -1    0    0  501    0  0.00000000000E+00  0.00000000000E+00  0.11921752063E+04  0.11921752063E+04  0.25500000000E-02 0. -1.
         -2   -1    0    0    0  501 -0.00000000000E+00 -0.00000000000E+00 -0.30233881563E+03  0.30233881564E+03  0.25500000000E-02 0.  1.
    8880023    1    1    2    0    0  0.20936828124E+03  0.12145509815E+03  0.17315790670E+03  0.72275880138E+03  0.65864270000E+03 0.  0.
    8880022    1    1    2    0    0 -0.20936828124E+03 -0.12145509815E+03  0.71667848395E+03  0.77175522054E+03  0.15294330000E+03 0.  0.
<mgrwt>
<rscale>  0 0.56082887E+03</rscale>
<asrwt>0</asrwt>
<pdfrwt beam="1">  1        2 0.18341157E+00 0.70170979E+03</pdfrwt>
<pdfrwt beam="2">  1       -2 0.46513664E-01 0.70170979E+03</pdfrwt>
<totfact> 0.85580456E+01</totfact>
</mgrwt>
</event>
<event>
 4    2  0.3388003E-007  0.9012610E+03  0.7818608E-02  0.9524010E-01
         -2   -1    0    0    0  501 -0.00000000000E+00  0.00000000000E+00  0.14781674079E+04  0.14781674079E+04  0.25500000000E-02 0.  1.
          2   -1    0    0  501    0  0.00000000000E+00 -0.00000000000E+00 -0.53087346083E+03  0.53087346083E+03  0.25500000000E-02 0. -1.
    8880023    1    1    2    0    0  0.60082500532E+03  0.13217612253E+03  0.10312582827E+04  0.13695857280E+04  0.65864270000E+03 0.  0.
    8880022    1    1    2    0    0 -0.60082500532E+03 -0.13217612253E+03 -0.83964335615E+02  0.63945514077E+03  0.15294330000E+03 0.  0.
<mgrwt>
<rscale>  0 0.82536552E+03</rscale>
<asrwt>0</asrwt>
<pdfrwt beam="1">  1        2 0.81672843E-01 0.90126102E+03</pdfrwt>
<pdfrwt beam="2">  1       -2 0.22741036E+00 0.90126102E+03</pdfrwt>
<totfact> 0.51304692E+00</totfact>
</mgrwt>
</event>
<event>
 4    2  0.3388003E-007  0.6803317E+03  0.7818608E-02  0.1009137E+00
          2   -1    0    0  501    0  0.00000000000E+00  0.00000000000E+00  0.33931313449E+04  0.33931313449E+04  0.25500000000E-02 0. -1.
         -2   -1    0    0    0  501 -0.00000000000E+00 -0.00000000000E+00 -0.74199065220E+02  0.74199065264E+02  0.25500000000E-02 0.  1.
    8880023    1    1    2    0    0  0.15409156452E+03 -0.72778773030E+02  0.16807360404E+04  0.18132084281E+04  0.65864270000E+03 0.  1.
    8880022    1    1    2    0    0 -0.15409156452E+03  0.72778773030E+02  0.16381962394E+04  0.16541219821E+04  0.15294330000E+03 0.  0.
<mgrwt>
<rscale>  0 0.51819199E+03</rscale>
<asrwt>0</asrwt>
<pdfrwt beam="1">  1        2 0.52202001E+00 0.68033166E+03</pdfrwt>
<pdfrwt beam="2">  1       -2 0.11415245E-01 0.68033166E+03</pdfrwt>
<totfact> 0.57673567E+01</totfact>
</mgrwt>
</event>
<event>
 4    2  0.3388003E-007  0.7858798E+03  0.7818608E-02  0.9742202E-01
          2   -1    0    0  501    0  0.00000000000E+00  0.00000000000E+00  0.19732378601E+04  0.19732378601E+04  0.25500000000E-02 0. -1.
         -2   -1    0    0    0  501 -0.00000000000E+00 -0.00000000000E+00 -0.46659912682E+03  0.46659912683E+03  0.25500000000E-02 0.  1.
    8880023    1    1    2    0    0 -0.30281657948E+03  0.30347805770E+03 -0.79299732888E+02  0.78987053763E+03  0.65864270000E+03 0.  1.
    8880022    1    1    2    0    0  0.30281657948E+03 -0.30347805770E+03  0.15859384662E+04  0.16499664493E+04  0.15294330000E+03 0.  0.
<mgrwt>
<rscale>  0 0.68558733E+03</rscale>
<asrwt>0</asrwt>
<pdfrwt beam="1">  1        2 0.30357505E+00 0.78587977E+03</pdfrwt>
<pdfrwt beam="2">  1       -2 0.71784482E-01 0.78587977E+03</pdfrwt>
<totfact> 0.12517656E+01</totfact>
</mgrwt>
</event>
<event>
 4    2  0.3388003E-007  0.6969904E+03  0.7818608E-02  0.1000992E+00
         -2   -1    0    0    0  501 -0.00000000000E+00  0.00000000000E+00  0.10040761714E+03  0.10040761718E+03  0.25500000000E-02 0.  1.
          2   -1    0    0  501    0  0.00000000000E+00 -0.00000000000E+00 -0.26863244907E+04  0.26863244907E+04  0.25500000000E-02 0. -1.
    8880023    1    1    2    0    0  0.22799350377E+03 -0.20826348340E+01 -0.13344909561E+04  0.15055436537E+04  0.65864270000E+03 0.  1.
    8880022    1    1    2    0    0 -0.22799350377E+03  0.20826348340E+01 -0.12514259174E+04  0.12811884541E+04  0.15294330000E+03 0.  1.
<mgrwt>
<rscale>  0 0.55217274E+03</rscale>
<asrwt>0</asrwt>
<pdfrwt beam="1">  1        2 0.41328064E+00 0.69699037E+03</pdfrwt>
<pdfrwt beam="2">  1       -2 0.15447328E-01 0.69699037E+03</pdfrwt>
<totfact> 0.94799447E+01</totfact>
</mgrwt>
</event>
<event>
 4    2  0.3388003E-007  0.8107165E+03  0.7818608E-02  0.9688086E-01
         -2   -1    0    0    0  501 -0.00000000000E+00  0.00000000000E+00  0.34694336792E+03  0.34694336793E+03  0.25500000000E-02 0.  1.
          2   -1    0    0  501    0  0.00000000000E+00 -0.00000000000E+00 -0.34891756745E+04  0.34891756745E+04  0.25500000000E-02 0. -1.
    8880023    1    1    2    0    0 -0.19914407282E+02  0.47228643629E+03 -0.17733825436E+03  0.82988560913E+03  0.65864270000E+03 0.  1.
    8880022    1    1    2    0    0  0.19914407282E+02 -0.47228643629E+03 -0.29648940523E+04  0.30062334333E+04  0.15294330000E+03 0.  0.
<mgrwt>
<rscale>  0 0.71730574E+03</rscale>
<asrwt>0</asrwt>
<pdfrwt beam="1">  1        2 0.53679623E+00 0.81071652E+03</pdfrwt>
<pdfrwt beam="2">  1       -2 0.53375905E-01 0.81071652E+03</pdfrwt>
<totfact> 0.29347940E+00</totfact>
</mgrwt>
</event>
<event>
 4    2  0.3388003E-007  0.7136546E+03  0.7818608E-02  0.9944672E-01
          2   -1    0    0  501    0  0.00000000000E+00  0.00000000000E+00  0.17778476896E+04  0.17778476896E+04  0.25500000000E-02 0. -1.
         -2   -1    0    0    0  501 -0.00000000000E+00 -0.00000000000E+00 -0.19255940757E+03  0.19255940759E+03  0.25500000000E-02 0.  1.
    8880023    1    1    2    0    0  0.26429240792E+03  0.75114520919E+02  0.58790771439E+03  0.92462876607E+03  0.65864270000E+03 0.  1.
    8880022    1    1    2    0    0 -0.26429240792E+03 -0.75114520919E+02  0.99738056762E+03  0.10457783311E+04  0.15294330000E+03 0.  0.
<mgrwt>
<rscale>  0 0.58144277E+03</rscale>
<asrwt>0</asrwt>
<pdfrwt beam="1">  1        2 0.27351502E+00 0.71365459E+03</pdfrwt>
<pdfrwt beam="2">  1       -2 0.29624525E-01 0.71365459E+03</pdfrwt>
<totfact> 0.95609035E+01</totfact>
</mgrwt>
</event>
<event>
 4    2  0.3388003E-007  0.6699616E+03  0.7818608E-02  0.1015690E+00
         -2   -1    0    0    0  501 -0.00000000000E+00  0.00000000000E+00  0.13376257693E+03  0.13376257695E+03  0.25500000000E-02 0.  1.
          2   -1    0    0  501    0  0.00000000000E+00 -0.00000000000E+00 -0.15517445704E+04  0.15517445704E+04  0.25500000000E-02 0. -1.
    8880023    1    1    2    0    0 -0.50964594401E+02  0.11153887625E+03 -0.83559867406E+03  0.10710152479E+04  0.65864270000E+03 0.  1.
    8880022    1    1    2    0    0  0.50964594401E+02 -0.11153887625E+03 -0.58238331942E+03  0.61449189950E+03  0.15294330000E+03 0.  1.
<mgrwt>
<rscale>  0 0.49274380E+03</rscale>
<asrwt>0</asrwt>
<pdfrwt beam="1">  1        2 0.23872992E+00 0.66996158E+03</pdfrwt>
<pdfrwt beam="2">  1       -2 0.20578859E-01 0.66996158E+03</pdfrwt>
<totfact> 0.24593877E+02</totfact>
</mgrwt>
</event>
<event>
 4    2  0.3388003E-007  0.7581676E+03  0.7818608E-02  0.9809875E-01
          2   -1    0    0  501    0  0.00000000000E+00  0.00000000000E+00  0.91401558679E+03  0.91401558679E+03  0.25500000000E-02 0. -1.
         -2   -1    0    0    0  501 -0.00000000000E+00 -0.00000000000E+00 -0.37287682314E+03  0.37287682315E+03  0.25500000000E-02 0.  1.
    8880023    1    1    2    0    0 -0.11319262474E+03  0.35804371887E+03  0.40248879156E+03  0.85837946650E+03  0.65864270000E+03 0. -1.
    8880022    1    1    2    0    0  0.11319262474E+03 -0.35804371887E+03  0.13864997209E+03  0.42851294344E+03  0.15294330000E+03 0.  1.
<mgrwt>
<rscale>  0 0.64835293E+03</rscale>
<asrwt>0</asrwt>
<pdfrwt beam="1">  1        2 0.14061778E+00 0.75816758E+03</pdfrwt>
<pdfrwt beam="2">  1       -2 0.57365665E-01 0.75816758E+03</pdfrwt>
<totfact> 0.82737806E+01</totfact>
</mgrwt>
</event>
<event>
 4    2  0.3388003E-007  0.7217853E+03  0.7818608E-02  0.9916591E-01
         -2   -1    0    0    0  501 -0.00000000000E+00  0.00000000000E+00  0.18130258319E+03  0.18130258321E+03  0.25500000000E-02 0.  1.
          2   -1    0    0  501    0  0.00000000000E+00 -0.00000000000E+00 -0.15387646019E+04  0.15387646019E+04  0.25500000000E-02 0. -1.
    8880023    1    1    2    0    0  0.25644033073E+03  0.14629504255E+03 -0.87808098569E+03  0.11366619138E+04  0.65864270000E+03 0.  1.
    8880022    1    1    2    0    0 -0.25644033073E+03 -0.14629504255E+03 -0.47938103298E+03  0.58340527122E+03  0.15294330000E+03 0. -1.
<mgrwt>
<rscale>  0 0.59463930E+03</rscale>
<asrwt>0</asrwt>
<pdfrwt beam="1">  1        2 0.23673301E+00 0.72178535E+03</pdfrwt>
<pdfrwt beam="2">  1       -2 0.27892706E-01 0.72178535E+03</pdfrwt>
<totfact> 0.14436375E+02</totfact>
</mgrwt>
</event>
<event>
 4    2  0.3388003E-007  0.7879899E+03  0.7818608E-02  0.9737393E-01
          2   -1    0    0  501    0  0.00000000000E+00  0.00000000000E+00  0.18591288196E+04  0.18591288196E+04  0.25500000000E-02 0. -1.
         -2   -1    0    0    0  501 -0.00000000000E+00 -0.00000000000E+00 -0.33927313082E+03  0.33927313083E+03  0.25500000000E-02 0.  1.
    8880023    1    1    2    0    0 -0.43054012921E+03 -0.41868831751E+02  0.21730109978E+03  0.81740306836E+03  0.65864270000E+03 0.  1.
    8880022    1    1    2    0    0  0.43054012921E+03  0.41868831751E+02  0.13025545891E+04  0.13809988821E+04  0.15294330000E+03 0.  0.
<mgrwt>
<rscale>  0 0.68833431E+03</rscale>
<asrwt>0</asrwt>
<pdfrwt beam="1">  1        2 0.28601982E+00 0.78798985E+03</pdfrwt>
<pdfrwt beam="2">  1       -2 0.52195867E-01 0.78798985E+03</pdfrwt>
<totfact> 0.28417382E+01</totfact>
</mgrwt>
</event>
<event>
 4    2  0.3388003E-007  0.6931383E+03  0.7818608E-02  0.1002695E+00
          2   -1    0    0  501    0  0.00000000000E+00  0.00000000000E+00  0.31506790010E+03  0.31506790011E+03  0.25500000000E-02 0. -1.
         -2   -1    0    0    0  501 -0.00000000000E+00 -0.00000000000E+00 -0.72923864424E+03  0.72923864424E+03  0.25500000000E-02 0.  1.
    8880023    1    1    2    0    0 -0.21307202748E+03  0.35083373488E+02 -0.27922077064E+03  0.74726499785E+03  0.65864270000E+03 0.  0.
    8880022    1    1    2    0    0  0.21307202748E+03 -0.35083373488E+02 -0.13494997350E+03  0.29704154650E+03  0.15294330000E+03 0.  1.
<mgrwt>
<rscale>  0 0.54484051E+03</rscale>
<asrwt>0</asrwt>
<pdfrwt beam="1">  1        2 0.48471985E-01 0.69313833E+03</pdfrwt>
<pdfrwt beam="2">  1       -2 0.11219056E+00 0.69313833E+03</pdfrwt>
<totfact> 0.65977903E+01</totfact>
</mgrwt>
</event>
<event>
 4    2  0.3388003E-007  0.8629072E+03  0.7818608E-02  0.9588413E-01
          2   -1    0    0  501    0  0.00000000000E+00  0.00000000000E+00  0.41532897955E+04  0.41532897955E+04  0.25500000000E-02 0. -1.
         -2   -1    0    0    0  501 -0.00000000000E+00 -0.00000000000E+00 -0.16771215672E+03  0.16771215674E+03  0.25500000000E-02 0.  1.
    8880023    1    1    2    0    0  0.76220894475E+02  0.55225810606E+03  0.33607733424E+04  0.34697847636E+04  0.65864270000E+03 0. -1.
    8880022    1    1    2    0    0 -0.76220894475E+02 -0.55225810606E+03  0.62480429642E+03  0.85121718868E+03  0.15294330000E+03 0.  0.
<mgrwt>
<rscale>  0 0.78067865E+03</rscale>
<asrwt>0</asrwt>
<pdfrwt beam="1">  1        2 0.63896762E+00 0.86290721E+03</pdfrwt>
<pdfrwt beam="2">  1       -2 0.25801872E-01 0.86290721E+03</pdfrwt>
<totfact> 0.37521630E+00</totfact>
</mgrwt>
</event>
<event>
 4    2  0.3388003E-007  0.9713277E+03  0.7818608E-02  0.9420070E-01
          2   -1    0    0  501    0  0.00000000000E+00  0.00000000000E+00  0.22753356996E+04  0.22753356996E+04  0.25500000000E-02 0. -1.
         -2   -1    0    0    0  501 -0.00000000000E+00 -0.00000000000E+00 -0.38154280703E+03  0.38154280704E+03  0.25500000000E-02 0.  1.
    8880023    1    1    2    0    0  0.45656919604E+03  0.54882772541E+03  0.15960715384E+04  0.18684008844E+04  0.65864270000E+03 0.  0.
    8880022    1    1    2    0    0 -0.45656919604E+03 -0.54882772541E+03  0.29772135414E+03  0.78847762218E+03  0.15294330000E+03 0.  0.
<mgrwt>
<rscale>  0 0.90442225E+03</rscale>
<asrwt>0</asrwt>
<pdfrwt beam="1">  1        2 0.35005164E+00 0.97132770E+03</pdfrwt>
<pdfrwt beam="2">  1       -2 0.58698894E-01 0.97132770E+03</pdfrwt>
<totfact> 0.12843000E+01</totfact>
</mgrwt>
</event>
<event>
 4    2  0.3388003E-007  0.8405861E+03  0.7818608E-02  0.9629076E-01
          2   -1    0    0  501    0  0.00000000000E+00  0.00000000000E+00  0.32123813192E+04  0.32123813192E+04  0.25500000000E-02 0. -1.
         -2   -1    0    0    0  501 -0.00000000000E+00 -0.00000000000E+00 -0.39801479884E+03  0.39801479884E+03  0.25500000000E-02 0.  1.
    8880023    1    1    2    0    0  0.46943493535E+03 -0.22892278323E+03  0.10523897967E+03  0.84714830361E+03  0.65864270000E+03 0.  1.
    8880022    1    1    2    0    0 -0.46943493535E+03  0.22892278323E+03  0.27091275407E+04  0.27632478144E+04  0.15294330000E+03 0.  0.
<mgrwt>
<rscale>  0 0.75401266E+03</rscale>
<asrwt>0</asrwt>
<pdfrwt beam="1">  1        2 0.49421251E+00 0.84058611E+03</pdfrwt>
<pdfrwt beam="2">  1       -2 0.61233046E-01 0.84058611E+03</pdfrwt>
<totfact> 0.33336936E+00</totfact>
</mgrwt>
</event>
<event>
 4    2  0.3388003E-007  0.8488950E+03  0.7818608E-02  0.9613631E-01
          2   -1    0    0  501    0  0.00000000000E+00  0.00000000000E+00  0.62771860648E+03  0.62771860649E+03  0.25500000000E-02 0. -1.
         -2   -1    0    0    0  501 -0.00000000000E+00 -0.00000000000E+00 -0.10648783881E+04  0.10648783881E+04  0.25500000000E-02 0.  1.
    8880023    1    1    2    0    0  0.48349411711E+03  0.23031704412E+03 -0.67738864896E+03  0.10860377940E+04  0.65864270000E+03 0.  1.
    8880022    1    1    2    0    0 -0.48349411711E+03 -0.23031704412E+03  0.24022886731E+03  0.60655920057E+03  0.15294330000E+03 0.  0.
<mgrwt>
<rscale>  0 0.76400540E+03</rscale>
<asrwt>0</asrwt>
<pdfrwt beam="1">  1        2 0.96572094E-01 0.84889499E+03</pdfrwt>
<pdfrwt beam="2">  1       -2 0.16382744E+00 0.84889499E+03</pdfrwt>
<totfact> 0.11148277E+01</totfact>
</mgrwt>
</event>
<event>
 4    2  0.3388003E-007  0.7026326E+03  0.7818608E-02  0.9986450E-01
          2   -1    0    0  501    0  0.00000000000E+00  0.00000000000E+00  0.36915601822E+04  0.36915601822E+04  0.25500000000E-02 0. -1.
         -2   -1    0    0    0  501 -0.00000000000E+00 -0.00000000000E+00 -0.17694310221E+03  0.17694310223E+03  0.25500000000E-02 0.  1.
    8880023    1    1    2    0    0  0.12626411955E+03  0.20961812341E+03  0.55642884731E+03  0.89627320273E+03  0.65864270000E+03 0.  1.
    8880022    1    1    2    0    0 -0.12626411955E+03 -0.20961812341E+03  0.29581882327E+04  0.29722300817E+04  0.15294330000E+03 0.  0.
<mgrwt>
<rscale>  0 0.56248369E+03</rscale>
<asrwt>0</asrwt>
<pdfrwt beam="1">  1        2 0.56793225E+00 0.70263262E+03</pdfrwt>
<pdfrwt beam="2">  1       -2 0.27222020E-01 0.70263262E+03</pdfrwt>
<totfact> 0.79880491E+00</totfact>
</mgrwt>
</event>
<event>
 4    2  0.3388003E-007  0.7430922E+03  0.7818608E-02  0.9851030E-01
         -2   -1    0    0    0  501 -0.00000000000E+00  0.00000000000E+00  0.16352789413E+03  0.16352789415E+03  0.25500000000E-02 0.  1.
          2   -1    0    0  501    0  0.00000000000E+00 -0.00000000000E+00 -0.25083891209E+04  0.25083891209E+04  0.25500000000E-02 0. -1.
    8880023    1    1    2    0    0 -0.34402760912E+03  0.45617002403E+01 -0.84382683727E+03  0.11243797146E+04  0.65864270000E+03 0.  1.
    8880022    1    1    2    0    0  0.34402760912E+03 -0.45617002403E+01 -0.15010343895E+04  0.15475373005E+04  0.15294330000E+03 0.  0.
<mgrwt>
<rscale>  0 0.62694450E+03</rscale>
<asrwt>0</asrwt>
<pdfrwt beam="1">  1        2 0.38590599E+00 0.74309220E+03</pdfrwt>
<pdfrwt beam="2">  1       -2 0.25158139E-01 0.74309220E+03</pdfrwt>
<totfact> 0.50823138E+01</totfact>
</mgrwt>
</event>
<event>
 4    2  0.3388003E-007  0.1059289E+04  0.7818608E-02  0.9307797E-01
         -2   -1    0    0    0  501 -0.00000000000E+00  0.00000000000E+00  0.13921015204E+04  0.13921015204E+04  0.25500000000E-02 0.  1.
          2   -1    0    0  501    0  0.00000000000E+00 -0.00000000000E+00 -0.14150833330E+04  0.14150833330E+04  0.25500000000E-02 0. -1.
    8880023    1    1    2    0    0  0.61445286016E+03  0.55743185094E+03  0.10167309153E+04  0.14682760457E+04  0.65864270000E+03 0.  0.
    8880022    1    1    2    0    0 -0.61445286016E+03 -0.55743185094E+03 -0.10397127279E+04  0.13389088077E+04  0.15294330000E+03 0.  0.
<mgrwt>
<rscale>  0 0.10006817E+04</rscale>
<asrwt>0</asrwt>
<pdfrwt beam="1">  1        2 0.21770513E+00 0.10592888E+04</pdfrwt>
<pdfrwt beam="2">  1       -2 0.21416946E+00 0.10592888E+04</pdfrwt>
<totfact> 0.15065421E+00</totfact>
</mgrwt>
</event>
<event>
 4    2  0.3388003E-007  0.1195069E+04  0.7818608E-02  0.9161931E-01
          2   -1    0    0  501    0  0.00000000000E+00  0.00000000000E+00  0.22999160453E+04  0.22999160453E+04  0.25500000000E-02 0. -1.
         -2   -1    0    0    0  501 -0.00000000000E+00 -0.00000000000E+00 -0.10124401878E+04  0.10124401878E+04  0.25500000000E-02 0.  1.
    8880023    1    1    2    0    0  0.98842144562E+03 -0.13191911193E+03  0.18156168794E+04  0.21736270299E+04  0.65864270000E+03 0.  0.
    8880022    1    1    2    0    0 -0.98842144562E+03  0.13191911193E+03 -0.52814102190E+03  0.11387292032E+04  0.15294330000E+03 0.  0.
<mgrwt>
<rscale>  0 0.11455156E+04</rscale>
<asrwt>0</asrwt>
<pdfrwt beam="1">  1        2 0.35383324E+00 0.11950690E+04</pdfrwt>
<pdfrwt beam="2">  1       -2 0.15576003E+00 0.11950690E+04</pdfrwt>
<totfact> 0.11987167E+00</totfact>
</mgrwt>
</event>
<event>
 4    2  0.3388003E-007  0.8248624E+03  0.7818608E-02  0.9659412E-01
         -2   -1    0    0    0  501 -0.00000000000E+00  0.00000000000E+00  0.33319756368E+03  0.33319756369E+03  0.25500000000E-02 0.  1.
          2   -1    0    0  501    0  0.00000000000E+00 -0.00000000000E+00 -0.19733800568E+04  0.19733800568E+04  0.25500000000E-02 0. -1.
    8880023    1    1    2    0    0  0.17436924051E+03  0.46495496960E+03 -0.31463822185E+03  0.88283360420E+03  0.65864270000E+03 0.  1.
    8880022    1    1    2    0    0 -0.17436924051E+03 -0.46495496960E+03 -0.13255442713E+04  0.14237440163E+04  0.15294330000E+03 0.  0.
<mgrwt>
<rscale>  0 0.73485636E+03</rscale>
<asrwt>0</asrwt>
<pdfrwt beam="1">  1        2 0.30359692E+00 0.82486239E+03</pdfrwt>
<pdfrwt beam="2">  1       -2 0.51261165E-01 0.82486239E+03</pdfrwt>
<totfact> 0.25429032E+01</totfact>
</mgrwt>
</event>
<event>
 4    2  0.3388003E-007  0.7626326E+03  0.7818608E-02  0.9798339E-01
          2   -1    0    0  501    0  0.00000000000E+00  0.00000000000E+00  0.25700142057E+04  0.25700142057E+04  0.25500000000E-02 0. -1.
         -2   -1    0    0    0  501 -0.00000000000E+00 -0.00000000000E+00 -0.38077045682E+03  0.38077045683E+03  0.25500000000E-02 0.  1.
    8880023    1    1    2    0    0  0.87947178338E+02 -0.37425061802E+03  0.41726792917E+02  0.76377324042E+03  0.65864270000E+03 0.  1.
    8880022    1    1    2    0    0 -0.87947178338E+02  0.37425061802E+03  0.21475169560E+04  0.21870114221E+04  0.15294330000E+03 0.  0.
<mgrwt>
<rscale>  0 0.65451752E+03</rscale>
<asrwt>0</asrwt>
<pdfrwt beam="1">  1        2 0.39538679E+00 0.76263257E+03</pdfrwt>
<pdfrwt beam="2">  1       -2 0.58580073E-01 0.76263257E+03</pdfrwt>
<totfact> 0.90528285E+00</totfact>
</mgrwt>
</event>
<event>
 4    2  0.3388003E-007  0.8452854E+03  0.7818608E-02  0.9620294E-01
          2   -1    0    0  501    0  0.00000000000E+00  0.00000000000E+00  0.23312363650E+04  0.23312363650E+04  0.25500000000E-02 0. -1.
         -2   -1    0    0    0  501 -0.00000000000E+00 -0.00000000000E+00 -0.27530470009E+03  0.27530470010E+03  0.25500000000E-02 0.  1.
    8880023    1    1    2    0    0 -0.15587393761E+03  0.50636006083E+03  0.56455182332E+03  0.10164773303E+04  0.65864270000E+03 0.  0.
    8880022    1    1    2    0    0  0.15587393761E+03 -0.50636006083E+03  0.14913798416E+04  0.15900637347E+04  0.15294330000E+03 0.  0.
<mgrwt>
<rscale>  0 0.75967457E+03</rscale>
<asrwt>0</asrwt>
<pdfrwt beam="1">  1        2 0.35865175E+00 0.84528540E+03</pdfrwt>
<pdfrwt beam="2">  1       -2 0.42354569E-01 0.84528540E+03</pdfrwt>
<totfact> 0.23625200E+01</totfact>
</mgrwt>
</event>
<event>
 4    2  0.3388003E-007  0.7990439E+03  0.7818608E-02  0.9712867E-01
          2   -1    0    0  501    0  0.00000000000E+00  0.00000000000E+00  0.14252367017E+04  0.14252367017E+04  0.25500000000E-02 0. -1.
         -2   -1    0    0    0  501 -0.00000000000E+00 -0.00000000000E+00 -0.31989549415E+03  0.31989549416E+03  0.25500000000E-02 0.  1.
    8880023    1    1    2    0    0  0.43654584675E+03 -0.11869539296E+03  0.40062431174E+03  0.89385173158E+03  0.65864270000E+03 0.  0.
    8880022    1    1    2    0    0 -0.43654584675E+03  0.11869539296E+03  0.70471689582E+03  0.85128046430E+03  0.15294330000E+03 0.  0.
<mgrwt>
<rscale>  0 0.70255822E+03</rscale>
<asrwt>0</asrwt>
<pdfrwt beam="1">  1        2 0.21926718E+00 0.79904385E+03</pdfrwt>
<pdfrwt beam="2">  1       -2 0.49214692E-01 0.79904385E+03</pdfrwt>
<totfact> 0.55552430E+01</totfact>
</mgrwt>
</event>
<event>
 4    2  0.3388003E-007  0.9293903E+03  0.7818608E-02  0.9480408E-01
         -2   -1    0    0    0  501 -0.00000000000E+00  0.00000000000E+00  0.47849273198E+03  0.47849273198E+03  0.25500000000E-02 0.  1.
          2   -1    0    0  501    0  0.00000000000E+00 -0.00000000000E+00 -0.17462337959E+04  0.17462337959E+04  0.25500000000E-02 0. -1.
    8880023    1    1    2    0    0  0.80041272757E+01 -0.65566151586E+03 -0.18182508456E+03  0.94700932259E+03  0.65864270000E+03 0.  0.
    8880022    1    1    2    0    0 -0.80041272757E+01  0.65566151586E+03 -0.10859159793E+04  0.12777172053E+04  0.15294330000E+03 0.  0.
<mgrwt>
<rscale>  0 0.85743761E+03</rscale>
<asrwt>0</asrwt>
<pdfrwt beam="1">  1        2 0.26865135E+00 0.92939028E+03</pdfrwt>
<pdfrwt beam="2">  1       -2 0.73614268E-01 0.92939028E+03</pdfrwt>
<totfact> 0.15490778E+01</totfact>
</mgrwt>
</event>
<event>
 4    2  0.3388003E-007  0.1140204E+04  0.7818608E-02  0.9217561E-01
          2   -1    0    0  501    0  0.00000000000E+00  0.00000000000E+00  0.33748061029E+04  0.33748061029E+04  0.25500000000E-02 0. -1.
         -2   -1    0    0    0  501 -0.00000000000E+00 -0.00000000000E+00 -0.46101758396E+03  0.46101758397E+03  0.25500000000E-02 0.  1.
    8880023    1    1    2    0    0 -0.75383817652E+03  0.54587776590E+03  0.26045844801E+04  0.28432244111E+04  0.65864270000E+03 0.  0.
    8880022    1    1    2    0    0  0.75383817652E+03 -0.54587776590E+03  0.30920403890E+03  0.99259927582E+03  0.15294330000E+03 0.  0.
<mgrwt>
<rscale>  0 0.10873993E+04</rscale>
<asrwt>0</asrwt>
<pdfrwt beam="1">  1        2 0.51920095E+00 0.11402038E+04</pdfrwt>
<pdfrwt beam="2">  1       -2 0.70925781E-01 0.11402038E+04</pdfrwt>
<totfact> 0.18101681E+00</totfact>
</mgrwt>
</event>
<event>
 4    2  0.3388003E-007  0.6952205E+03  0.7818608E-02  0.1001764E+00
          2   -1    0    0  501    0  0.00000000000E+00  0.00000000000E+00  0.11026274544E+04  0.11026274544E+04  0.25500000000E-02 0. -1.
         -2   -1    0    0    0  501 -0.00000000000E+00 -0.00000000000E+00 -0.53646124465E+03  0.53646124466E+03  0.25500000000E-02 0.  1.
    8880023    1    1    2    0    0 -0.15846113090E+03 -0.15624152093E+03 -0.28105129307E+03  0.74988090952E+03  0.65864270000E+03 0.  1.
    8880022    1    1    2    0    0  0.15846113090E+03  0.15624152093E+03  0.84721750280E+03  0.88920778951E+03  0.15294330000E+03 0.  0.
<mgrwt>
<rscale>  0 0.54883595E+03</rscale>
<asrwt>0</asrwt>
<pdfrwt beam="1">  1        2 0.16963499E+00 0.69522050E+03</pdfrwt>
<pdfrwt beam="2">  1       -2 0.82532501E-01 0.69522050E+03</pdfrwt>
<totfact> 0.28615307E+01</totfact>
</mgrwt>
</event>
<event>
 4    2  0.3388003E-007  0.7805710E+03  0.7818608E-02  0.9754497E-01
          2   -1    0    0  501    0  0.00000000000E+00  0.00000000000E+00  0.17897540192E+04  0.17897540192E+04  0.25500000000E-02 0. -1.
         -2   -1    0    0    0  501 -0.00000000000E+00 -0.00000000000E+00 -0.47210371290E+03  0.47210371291E+03  0.25500000000E-02 0.  1.
    8880023    1    1    2    0    0 -0.26237132950E+03 -0.32656114551E+03 -0.89544620336E+02  0.78569035987E+03  0.65864270000E+03 0.  0.
    8880022    1    1    2    0    0  0.26237132950E+03  0.32656114551E+03  0.14071949266E+04  0.14761673722E+04  0.15294330000E+03 0.  0.
<mgrwt>
<rscale>  0 0.67862705E+03</rscale>
<asrwt>0</asrwt>
<pdfrwt beam="1">  1        2 0.27534677E+00 0.78057101E+03</pdfrwt>
<pdfrwt beam="2">  1       -2 0.72631341E-01 0.78057101E+03</pdfrwt>
<totfact> 0.15374186E+01</totfact>
</mgrwt>
</event>
<event>
 4    2  0.3388003E-007  0.6818765E+03  0.7818608E-02  0.1008282E+00
          2   -1    0    0  501    0  0.00000000000E+00  0.00000000000E+00  0.28460525202E+04  0.28460525202E+04  0.25500000000E-02 0. -1.
         -2   -1    0    0    0  501 -0.00000000000E+00 -0.00000000000E+00 -0.82822237983E+02  0.82822238022E+02  0.25500000000E-02 0.  1.
    8880023    1    1    2    0    0 -0.76827612726E+02 -0.15888009709E+03  0.15497503643E+04  0.16931278053E+04  0.65864270000E+03 0.  0.
    8880022    1    1    2    0    0  0.76827612726E+02  0.15888009709E+03  0.12134799179E+04  0.12357469529E+04  0.15294330000E+03 0.  1.
<mgrwt>
<rscale>  0 0.52163380E+03</rscale>
<asrwt>0</asrwt>
<pdfrwt beam="1">  1        2 0.43785418E+00 0.68187651E+03</pdfrwt>
<pdfrwt beam="2">  1       -2 0.12741884E-01 0.68187651E+03</pdfrwt>
<totfact> 0.10575301E+02</totfact>
</mgrwt>
</event>
<event>
 4    2  0.3388003E-007  0.8500672E+03  0.7818608E-02  0.9611482E-01
          2   -1    0    0  501    0  0.00000000000E+00  0.00000000000E+00  0.15752129337E+04  0.15752129337E+04  0.25500000000E-02 0. -1.
         -2   -1    0    0    0  501 -0.00000000000E+00 -0.00000000000E+00 -0.36339328434E+03  0.36339328435E+03  0.25500000000E-02 0.  1.
    8880023    1    1    2    0    0 -0.53731870800E+03 -0.96214726657E+01  0.36740118100E+03  0.92606576482E+03  0.65864270000E+03 0.  0.
    8880022    1    1    2    0    0  0.53731870800E+03  0.96214726657E+01  0.84441846834E+03  0.10125404532E+04  0.15294330000E+03 0.  0.
<mgrwt>
<rscale>  0 0.76540850E+03</rscale>
<asrwt>0</asrwt>
<pdfrwt beam="1">  1        2 0.24234045E+00 0.85006716E+03</pdfrwt>
<pdfrwt beam="2">  1       -2 0.55906660E-01 0.85006716E+03</pdfrwt>
<totfact> 0.35055073E+01</totfact>
</mgrwt>
</event>
<event>
 4    2  0.3388003E-007  0.1098932E+04  0.7818608E-02  0.9262246E-01
         -2   -1    0    0    0  501 -0.00000000000E+00  0.00000000000E+00  0.15656479202E+04  0.15656479202E+04  0.25500000000E-02 0.  1.
          2   -1    0    0  501    0  0.00000000000E+00 -0.00000000000E+00 -0.74567418350E+03  0.74567418351E+03  0.25500000000E-02 0. -1.
    8880023    1    1    2    0    0  0.87605391312E+03 -0.79824015445E+02 -0.18151765735E+00  0.10989324690E+04  0.65864270000E+03 0. -1.
    8880022    1    1    2    0    0 -0.87605391312E+03  0.79824015445E+02  0.82015525431E+03  0.12123896347E+04  0.15294330000E+03 0.  0.
<mgrwt>
<rscale>  0 0.10433415E+04</rscale>
<asrwt>0</asrwt>
<pdfrwt beam="1">  1        2 0.11471911E+00 0.10989325E+04</pdfrwt>
<pdfrwt beam="2">  1       -2 0.24086891E+00 0.10989325E+04</pdfrwt>
<totfact> 0.27268180E+00</totfact>
</mgrwt>
</event>
<event>
 4    2  0.3388003E-007  0.9602924E+03  0.7818608E-02  0.9435458E-01
          2   -1    0    0  501    0  0.00000000000E+00  0.00000000000E+00  0.17614669116E+04  0.17614669116E+04  0.25500000000E-02 0. -1.
         -2   -1    0    0    0  501 -0.00000000000E+00 -0.00000000000E+00 -0.77092484080E+03  0.77092484081E+03  0.25500000000E-02 0.  1.
    8880023    1    1    2    0    0  0.69044577978E+03 -0.10786949905E+03 -0.34249123628E+03  0.10195399241E+04  0.65864270000E+03 0.  0.
    8880022    1    1    2    0    0 -0.69044577978E+03  0.10786949905E+03  0.13330333071E+04  0.15128518284E+04  0.15294330000E+03 0.  0.
<mgrwt>
<rscale>  0 0.89214219E+03</rscale>
<asrwt>0</asrwt>
<pdfrwt beam="1">  1        2 0.27099491E+00 0.96029236E+03</pdfrwt>
<pdfrwt beam="2">  1       -2 0.11860382E+00 0.96029236E+03</pdfrwt>
<totfact> 0.49606244E+00</totfact>
</mgrwt>
</event>
<event>
 4    2  0.3708018E-007  0.8695523E+03  0.7818608E-02  0.9576792E-01
          2   -1    0    0  501    0  0.00000000000E+00  0.00000000000E+00  0.18407676706E+04  0.18407676706E+04  0.25500000000E-02 0. -1.
         -2   -1    0    0    0  501 -0.00000000000E+00 -0.00000000000E+00 -0.12290775704E+04  0.12290775704E+04  0.25500000000E-02 0.  1.
    8880023    1    1    2    0    0  0.35445486477E+03 -0.44347806109E+03 -0.10171254034E+04  0.13381574401E+04  0.65864270000E+03 0.  0.
    8880022    1    1    2    0    0 -0.35445486477E+03  0.44347806109E+03  0.16288155037E+04  0.17316878009E+04  0.15294330000E+03 0.  0.
<mgrwt>
<rscale>  0 0.78851441E+03</rscale>
<asrwt>0</asrwt>
<pdfrwt beam="1">  1        2 0.28319503E+00 0.86955233E+03</pdfrwt>
<pdfrwt beam="2">  1       -2 0.18908886E+00 0.86955233E+03</pdfrwt>
<totfact> 0.13084737E+00</totfact>
</mgrwt>
</event>
<event>
 4    2  0.3388003E-007  0.6678167E+03  0.7818608E-02  0.1017279E+00
         -2   -1    0    0    0  501 -0.00000000000E+00  0.00000000000E+00  0.41173751294E+03  0.41173751295E+03  0.25500000000E-02 0.  1.
          2   -1    0    0  501    0  0.00000000000E+00 -0.00000000000E+00 -0.25095101519E+04  0.25095101519E+04  0.25500000000E-02 0. -1.
    8880023    1    1    2    0    0  0.41733632628E+02 -0.10211391856E+03  0.13433051718E+03  0.68119295546E+03  0.65864270000E+03 0.  1.
    8880022    1    1    2    0    0 -0.41733632628E+02  0.10211391856E+03 -0.22321031561E+04  0.22400547094E+04  0.15294330000E+03 0.  0.
<mgrwt>
<rscale>  0 0.48681516E+03</rscale>
<asrwt>0</asrwt>
<pdfrwt beam="1">  1        2 0.38607848E+00 0.66781671E+03</pdfrwt>
<pdfrwt beam="2">  1       -2 0.63344234E-01 0.66781671E+03</pdfrwt>
<totfact> 0.84468994E+00</totfact>
</mgrwt>
</event>
<event>
 4    2  0.3388003E-007  0.7454328E+03  0.7818608E-02  0.9844395E-01
         -2   -1    0    0    0  501 -0.00000000000E+00  0.00000000000E+00  0.25803987323E+03  0.25803987324E+03  0.25500000000E-02 0.  1.
          2   -1    0    0  501    0  0.00000000000E+00 -0.00000000000E+00 -0.14098118141E+04  0.14098118141E+04  0.25500000000E-02 0. -1.
    8880023    1    1    2    0    0  0.33432512898E+03 -0.10043213357E+03 -0.45406293186E+03  0.87283632926E+03  0.65864270000E+03 0.  1.
    8880022    1    1    2    0    0 -0.33432512898E+03  0.10043213357E+03 -0.69770900903E+03  0.79501535811E+03  0.15294330000E+03 0. -1.
<mgrwt>
<rscale>  0 0.63033510E+03</rscale>
<asrwt>0</asrwt>
<pdfrwt beam="1">  1        2 0.21689412E+00 0.74543284E+03</pdfrwt>
<pdfrwt beam="2">  1       -2 0.39698443E-01 0.74543284E+03</pdfrwt>
<totfact> 0.87319988E+01</totfact>
</mgrwt>
</event>
<event>
 4    2  0.3388003E-007  0.1031893E+04  0.7818608E-02  0.9340972E-01
         -2   -1    0    0    0  501 -0.00000000000E+00  0.00000000000E+00  0.17405648277E+04  0.17405648277E+04  0.25500000000E-02 0.  1.
          2   -1    0    0  501    0  0.00000000000E+00 -0.00000000000E+00 -0.10531720453E+04  0.10531720453E+04  0.25500000000E-02 0. -1.
    8880023    1    1    2    0    0  0.17382351295E+03  0.77509858103E+03  0.13838985151E+04  0.17262611999E+04  0.65864270000E+03 0.  0.
    8880022    1    1    2    0    0 -0.17382351295E+03 -0.77509858103E+03 -0.69650573272E+03  0.10674756731E+04  0.15294330000E+03 0.  0.
<mgrwt>
<rscale>  0 0.97096820E+03</rscale>
<asrwt>0</asrwt>
<pdfrwt beam="1">  1        2 0.16202647E+00 0.10318927E+04</pdfrwt>
<pdfrwt beam="2">  1       -2 0.26777921E+00 0.10318927E+04</pdfrwt>
<totfact> 0.11591752E+00</totfact>
</mgrwt>
</event>
<event>
 4    2  0.3388003E-007  0.6614888E+03  0.7818608E-02  0.1022680E+00
          2   -1    0    0  501    0  0.00000000000E+00  0.00000000000E+00  0.81768200398E+03  0.81768200398E+03  0.25500000000E-02 0. -1.
         -2   -1    0    0    0  501 -0.00000000000E+00 -0.00000000000E+00 -0.51745718458E+03  0.51745718459E+03  0.25500000000E-02 0.  1.
    8880023    1    1    2    0    0 -0.58499045875E+02 -0.18305412749E+02 -0.29005975852E+03  0.72228948233E+03  0.65864270000E+03 0.  1.
    8880022    1    1    2    0    0  0.58499045875E+02  0.18305412749E+02  0.59028457791E+03  0.61284970624E+03  0.15294330000E+03 0.  0.
<mgrwt>
<rscale>  0 0.46731623E+03</rscale>
<asrwt>0</asrwt>
<pdfrwt beam="1">  1        2 0.12579723E+00 0.66148880E+03</pdfrwt>
<pdfrwt beam="2">  1       -2 0.79608797E-01 0.66148880E+03</pdfrwt>
<totfact> 0.47764062E+01</totfact>
</mgrwt>
</event>
<event>
 4    2  0.3388003E-007  0.8394796E+03  0.7818608E-02  0.9631162E-01
         -2   -1    0    0    0  501 -0.00000000000E+00  0.00000000000E+00  0.36293130098E+03  0.36293130099E+03  0.25500000000E-02 0.  1.
          2   -1    0    0  501    0  0.00000000000E+00 -0.00000000000E+00 -0.20343807652E+04  0.20343807652E+04  0.25500000000E-02 0. -1.
    8880023    1    1    2    0    0  0.46067278402E+03  0.24227323023E+03 -0.25008861035E+03  0.87593963908E+03  0.65864270000E+03 0.  0.
    8880022    1    1    2    0    0 -0.46067278402E+03 -0.24227323023E+03 -0.14213608538E+04  0.15213724271E+04  0.15294330000E+03 0.  0.
<mgrwt>
<rscale>  0 0.75267543E+03</rscale>
<asrwt>0</asrwt>
<pdfrwt beam="1">  1        2 0.31298165E+00 0.83947956E+03</pdfrwt>
<pdfrwt beam="2">  1       -2 0.55835586E-01 0.83947956E+03</pdfrwt>
<totfact> 0.19697649E+01</totfact>
</mgrwt>
</event>
<event>
 4    2  0.3388003E-007  0.8302126E+03  0.7818608E-02  0.9648919E-01
          2   -1    0    0  501    0  0.00000000000E+00  0.00000000000E+00  0.35080581812E+03  0.35080581813E+03  0.25500000000E-02 0. -1.
         -2   -1    0    0    0  501 -0.00000000000E+00 -0.00000000000E+00 -0.21284705812E+04  0.21284705812E+04  0.25500000000E-02 0.  1.
    8880023    1    1    2    0    0 -0.36872257128E+03  0.34566811751E+03 -0.17656462154E+04  0.19510918856E+04  0.65864270000E+03 0.  0.
    8880022    1    1    2    0    0  0.36872257128E+03 -0.34566811751E+03 -0.12018547723E+02  0.52818451372E+03  0.15294330000E+03 0.  0.
<mgrwt>
<rscale>  0 0.74141317E+03</rscale>
<asrwt>0</asrwt>
<pdfrwt beam="1">  1        2 0.53970127E-01 0.83021262E+03</pdfrwt>
<pdfrwt beam="2">  1       -2 0.32745701E+00 0.83021262E+03</pdfrwt>
<totfact> 0.20537126E+00</totfact>
</mgrwt>
</event>
<event>
 4    2  0.3388003E-007  0.8349623E+03  0.7818608E-02  0.9639753E-01
         -2   -1    0    0    0  501 -0.00000000000E+00  0.00000000000E+00  0.21508300432E+03  0.21508300433E+03  0.25500000000E-02 0.  1.
          2   -1    0    0  501    0  0.00000000000E+00 -0.00000000000E+00 -0.22716509003E+04  0.22716509003E+04  0.25500000000E-02 0. -1.
    8880023    1    1    2    0    0 -0.35359065407E+03 -0.37192133439E+03 -0.14841149169E+04  0.17028679111E+04  0.65864270000E+03 0.  0.
    8880022    1    1    2    0    0  0.35359065407E+03  0.37192133439E+03 -0.57245297903E+03  0.78386599354E+03  0.15294330000E+03 0.  0.
<mgrwt>
<rscale>  0 0.74719997E+03</rscale>
<asrwt>0</asrwt>
<pdfrwt beam="1">  1        2 0.34948474E+00 0.83496230E+03</pdfrwt>
<pdfrwt beam="2">  1       -2 0.33089695E-01 0.83496230E+03</pdfrwt>
<totfact> 0.41130909E+01</totfact>
</mgrwt>
</event>
<event>
 4    2  0.3388003E-007  0.7403002E+03  0.7818608E-02  0.9859073E-01
         -2   -1    0    0    0  501 -0.00000000000E+00  0.00000000000E+00  0.66552336160E+03  0.66552336160E+03  0.25500000000E-02 0.  1.
          2   -1    0    0  501    0  0.00000000000E+00 -0.00000000000E+00 -0.21115778414E+04  0.21115778414E+04  0.25500000000E-02 0. -1.
    8880023    1    1    2    0    0  0.15397112179E+03 -0.30087718556E+03  0.43578602995E+03  0.85904240716E+03  0.65864270000E+03 0.  1.
    8880022    1    1    2    0    0 -0.15397112179E+03  0.30087718556E+03 -0.18818405097E+04  0.19180587958E+04  0.15294330000E+03 0.  0.
<mgrwt>
<rscale>  0 0.62286424E+03</rscale>
<asrwt>0</asrwt>
<pdfrwt beam="1">  1        2 0.32485813E+00 0.74030020E+03</pdfrwt>
<pdfrwt beam="2">  1       -2 0.10238821E+00 0.74030020E+03</pdfrwt>
<totfact> 0.47039630E+00</totfact>
</mgrwt>
</event>
<event>
 4    2  0.3388003E-007  0.9528030E+03  0.7818608E-02  0.9446093E-01
          2   -1    0    0  501    0  0.00000000000E+00  0.00000000000E+00  0.13249206200E+04  0.13249206200E+04  0.25500000000E-02 0. -1.
         -2   -1    0    0    0  501 -0.00000000000E+00 -0.00000000000E+00 -0.64272698396E+03  0.64272698397E+03  0.25500000000E-02 0.  1.
    8880023    1    1    2    0    0  0.33655776231E+03 -0.60062649361E+03 -0.45985480284E+02  0.95391204147E+03  0.65864270000E+03 0.  0.
    8880022    1    1    2    0    0 -0.33655776231E+03  0.60062649361E+03  0.72817911631E+03  0.10137355625E+04  0.15294330000E+03 0.  0.
<mgrwt>
<rscale>  0 0.88377596E+03</rscale>
<asrwt>0</asrwt>
<pdfrwt beam="1">  1        2 0.20383394E+00 0.95280298E+03</pdfrwt>
<pdfrwt beam="2">  1       -2 0.98881076E-01 0.95280298E+03</pdfrwt>
<totfact> 0.13549780E+01</totfact>
</mgrwt>
</event>
<event>
 4    2  0.3388003E-007  0.7403867E+03  0.7818608E-02  0.9858822E-01
          2   -1    0    0  501    0  0.00000000000E+00  0.00000000000E+00  0.21239285304E+04  0.21239285304E+04  0.25500000000E-02 0. -1.
         -2   -1    0    0    0  501 -0.00000000000E+00 -0.00000000000E+00 -0.22807053442E+03  0.22807053443E+03  0.25500000000E-02 0.  1.
    8880023    1    1    2    0    0 -0.31973732349E+03 -0.11013789771E+03  0.46617195477E+03  0.87492217381E+03  0.65864270000E+03 0.  1.
    8880022    1    1    2    0    0  0.31973732349E+03  0.11013789771E+03  0.14296860412E+04  0.14770768910E+04  0.15294330000E+03 0.  0.
<mgrwt>
<rscale>  0 0.62299131E+03</rscale>
<asrwt>0</asrwt>
<pdfrwt beam="1">  1        2 0.32675824E+00 0.74038674E+03</pdfrwt>
<pdfrwt beam="2">  1       -2 0.35087774E-01 0.74038674E+03</pdfrwt>
<totfact> 0.44918866E+01</totfact>
</mgrwt>
</event>
<event>
 4    2  0.3388003E-007  0.6978257E+03  0.7818608E-02  0.1000634E+00
          2   -1    0    0  501    0  0.00000000000E+00  0.00000000000E+00  0.14207546779E+04  0.14207546779E+04  0.25500000000E-02 0. -1.
         -2   -1    0    0    0  501 -0.00000000000E+00 -0.00000000000E+00 -0.26405833570E+03  0.26405833571E+03  0.25500000000E-02 0.  1.
    8880023    1    1    2    0    0  0.21850470819E+03  0.73526674275E+02  0.25717473638E+03  0.74370661596E+03  0.65864270000E+03 0.  0.
    8880022    1    1    2    0    0 -0.21850470819E+03 -0.73526674275E+02  0.89952160580E+03  0.94110639762E+03  0.15294330000E+03 0. -1.
<mgrwt>
<rscale>  0 0.55372965E+03</rscale>
<asrwt>0</asrwt>
<pdfrwt beam="1">  1        2 0.21857764E+00 0.69782568E+03</pdfrwt>
<pdfrwt beam="2">  1       -2 0.40624359E-01 0.69782568E+03</pdfrwt>
<totfact> 0.82675610E+01</totfact>
</mgrwt>
</event>
<event>
 4    2  0.3388003E-007  0.1167113E+04  0.7818608E-02  0.9189773E-01
          2   -1    0    0  501    0  0.00000000000E+00  0.00000000000E+00  0.17250188148E+04  0.17250188148E+04  0.25500000000E-02 0. -1.
         -2   -1    0    0    0  501 -0.00000000000E+00 -0.00000000000E+00 -0.69188313863E+03  0.69188313863E+03  0.25500000000E-02 0.  1.
    8880023    1    1    2    0    0 -0.96275775703E+03 -0.37940970911E+02  0.32531298554E+03  0.12116025589E+04  0.65864270000E+03 0. -1.
    8880022    1    1    2    0    0  0.96275775703E+03  0.37940970911E+02  0.70782269063E+03  0.12052993945E+04  0.15294330000E+03 0.  0.
<mgrwt>
<rscale>  0 0.11159611E+04</rscale>
<asrwt>0</asrwt>
<pdfrwt beam="1">  1        2 0.26538751E+00 0.11671128E+04</pdfrwt>
<pdfrwt beam="2">  1       -2 0.10644356E+00 0.11671128E+04</pdfrwt>
<totfact> 0.66202277E+00</totfact>
</mgrwt>
</event>
<event>
 4    2  0.3388003E-007  0.6645919E+03  0.7818608E-02  0.1019878E+00
          2   -1    0    0  501    0  0.00000000000E+00  0.00000000000E+00  0.26860773499E+03  0.26860773500E+03  0.25500000000E-02 0. -1.
         -2   -1    0    0    0  501 -0.00000000000E+00 -0.00000000000E+00 -0.70164196866E+03  0.70164196867E+03  0.25500000000E-02 0.  1.
    8880023    1    1    2    0    0  0.84309431803E+02  0.27642805066E+02 -0.43342143128E+03  0.79343339249E+03  0.65864270000E+03 0. -1.
    8880022    1    1    2    0    0 -0.84309431803E+02 -0.27642805066E+02  0.38719760776E+00  0.17681631118E+03  0.15294330000E+03 0. -1.
<mgrwt>
<rscale>  0 0.47730569E+03</rscale>
<asrwt>0</asrwt>
<pdfrwt beam="1">  1        2 0.41324267E-01 0.66459191E+03</pdfrwt>
<pdfrwt beam="2">  1       -2 0.10794492E+00 0.66459191E+03</pdfrwt>
<totfact> 0.86587423E+01</totfact>
</mgrwt>
</event>
<event>
 4    2  0.3388003E-007  0.6788212E+03  0.7818608E-02  0.1009998E+00
         -2   -1    0    0    0  501 -0.00000000000E+00  0.00000000000E+00  0.58094534915E+02  0.58094534971E+02  0.25500000000E-02 0.  1.
          2   -1    0    0  501    0  0.00000000000E+00 -0.00000000000E+00 -0.35116345883E+04  0.35116345883E+04  0.25500000000E-02 0. -1.
    8880023    1    1    2    0    0  0.67640054461E+02  0.14970909600E+03 -0.25764688625E+04  0.26643929883E+04  0.65864270000E+03 0. -1.
    8880022    1    1    2    0    0 -0.67640054461E+02 -0.14970909600E+03 -0.87707119092E+03  0.90533613500E+03  0.15294330000E+03 0.  1.
<mgrwt>
<rscale>  0 0.51475245E+03</rscale>
<asrwt>0</asrwt>
<pdfrwt beam="1">  1        2 0.54025131E+00 0.67882118E+03</pdfrwt>
<pdfrwt beam="2">  1       -2 0.89376235E-02 0.67882118E+03</pdfrwt>
<totfact> 0.71500859E+01</totfact>
</mgrwt>
</event>
<event>
 4    2  0.3388003E-007  0.6606418E+03  0.7818608E-02  0.1023508E+00
         -2   -1    0    0    0  501 -0.00000000000E+00  0.00000000000E+00  0.10839395672E+03  0.10839395675E+03  0.25500000000E-02 0.  1.
          2   -1    0    0  501    0  0.00000000000E+00 -0.00000000000E+00 -0.19732220258E+04  0.19732220258E+04  0.25500000000E-02 0. -1.
    8880023    1    1    2    0    0 -0.16672638370E+02  0.48573811856E+02 -0.97795633983E+03  0.11801890531E+04  0.65864270000E+03 0.  1.
    8880022    1    1    2    0    0  0.16672638370E+02 -0.48573811856E+02 -0.88687172923E+03  0.90142692948E+03  0.15294330000E+03 0.  0.
<mgrwt>
<rscale>  0 0.46441562E+03</rscale>
<asrwt>0</asrwt>
<pdfrwt beam="1">  1        2 0.30357259E+00 0.66064181E+03</pdfrwt>
<pdfrwt beam="2">  1       -2 0.16675995E-01 0.66064181E+03</pdfrwt>
<totfact> 0.20869158E+02</totfact>
</mgrwt>
</event>
<event>
 4    2  0.3388003E-007  0.1346270E+04  0.7818608E-02  0.9026599E-01
          2   -1    0    0  501    0  0.00000000000E+00  0.00000000000E+00  0.14524840882E+04  0.14524840882E+04  0.25500000000E-02 0. -1.
         -2   -1    0    0    0  501 -0.00000000000E+00 -0.00000000000E+00 -0.12080855073E+04  0.12080855073E+04  0.25500000000E-02 0.  1.
    8880023    1    1    2    0    0  0.67792410263E+03  0.95867158298E+03 -0.26409856763E+03  0.13719294999E+04  0.65864270000E+03 0.  0.
    8880022    1    1    2    0    0 -0.67792410263E+03 -0.95867158298E+03  0.50849714850E+03  0.12886400956E+04  0.15294330000E+03 0.  0.
<mgrwt>
<rscale>  0 0.13037476E+04</rscale>
<asrwt>0</asrwt>
<pdfrwt beam="1">  1        2 0.22345909E+00 0.13462698E+04</pdfrwt>
<pdfrwt beam="2">  1       -2 0.18585931E+00 0.13462698E+04</pdfrwt>
<totfact> 0.21357906E+00</totfact>
</mgrwt>
</event>
<event>
 4    2  0.3388003E-007  0.6824219E+03  0.7818608E-02  0.1007986E+00
          2   -1    0    0  501    0  0.00000000000E+00  0.00000000000E+00  0.96444532521E+03  0.96444532521E+03  0.25500000000E-02 0. -1.
         -2   -1    0    0    0  501 -0.00000000000E+00 -0.00000000000E+00 -0.63428624394E+03  0.63428624394E+03  0.25500000000E-02 0.  1.
    8880023    1    1    2    0    0 -0.16755866085E+02 -0.17778842761E+03 -0.42760883126E+03  0.80532540185E+03  0.65864270000E+03 0.  1.
    8880022    1    1    2    0    0  0.16755866085E+02  0.17778842761E+03  0.75776791253E+03  0.79340616730E+03  0.15294330000E+03 0.  0.
<mgrwt>
<rscale>  0 0.52283163E+03</rscale>
<asrwt>0</asrwt>
<pdfrwt beam="1">  1        2 0.14837620E+00 0.68242193E+03</pdfrwt>
<pdfrwt beam="2">  1       -2 0.97582500E-01 0.68242193E+03</pdfrwt>
<totfact> 0.23785946E+01</totfact>
</mgrwt>
</event>
<event>
 4    2  0.3388003E-007  0.6959245E+03  0.7818608E-02  0.1001455E+00
         -2   -1    0    0    0  501 -0.00000000000E+00  0.00000000000E+00  0.15728161672E+03  0.15728161674E+03  0.25500000000E-02 0.  1.
          2   -1    0    0  501    0  0.00000000000E+00 -0.00000000000E+00 -0.20128167038E+04  0.20128167038E+04  0.25500000000E-02 0. -1.
    8880023    1    1    2    0    0 -0.19531115909E+03  0.11114955958E+03 -0.17413418627E+04  0.18752552793E+04  0.65864270000E+03 0. -1.
    8880022    1    1    2    0    0  0.19531115909E+03 -0.11114955958E+03 -0.11419322437E+03  0.29484304124E+03  0.15294330000E+03 0.  1.
<mgrwt>
<rscale>  0 0.55016949E+03</rscale>
<asrwt>0</asrwt>
<pdfrwt beam="1">  1        2 0.30966409E+00 0.69592448E+03</pdfrwt>
<pdfrwt beam="2">  1       -2 0.24197173E-01 0.69592448E+03</pdfrwt>
<totfact> 0.10317698E+02</totfact>
</mgrwt>
</event>
<event>
 4    2  0.3388003E-007  0.6905384E+03  0.7818608E-02  0.1003898E+00
          2   -1    0    0  501    0  0.00000000000E+00  0.00000000000E+00  0.81534277865E+03  0.81534277866E+03  0.25500000000E-02 0. -1.
         -2   -1    0    0    0  501 -0.00000000000E+00 -0.00000000000E+00 -0.85881759019E+03  0.85881759019E+03  0.25500000000E-02 0.  1.
    8880023    1    1    2    0    0 -0.19481584386E+03  0.71273158127E+02 -0.69120383653E+03  0.97703941885E+03  0.65864270000E+03 0.  1.
    8880022    1    1    2    0    0  0.19481584386E+03 -0.71273158127E+02  0.64772902500E+03  0.69712095000E+03  0.15294330000E+03 0.  0.
<mgrwt>
<rscale>  0 0.53973689E+03</rscale>
<asrwt>0</asrwt>
<pdfrwt beam="1">  1        2 0.12543735E+00 0.69053840E+03</pdfrwt>
<pdfrwt beam="2">  1       -2 0.13212578E+00 0.69053840E+03</pdfrwt>
<totfact> 0.14303119E+01</totfact>
</mgrwt>
</event>
<event>
 4    2  0.3388003E-007  0.6706797E+03  0.7818608E-02  0.1015180E+00
          2   -1    0    0  501    0  0.00000000000E+00  0.00000000000E+00  0.53288845785E+03  0.53288845786E+03  0.25500000000E-02 0. -1.
         -2   -1    0    0    0  501 -0.00000000000E+00 -0.00000000000E+00 -0.80906478234E+03  0.80906478235E+03  0.25500000000E-02 0.  1.
    8880023    1    1    2    0    0  0.89155479821E+02 -0.89735041993E+02 -0.64029903056E+03  0.92725084640E+03  0.65864270000E+03 0.  1.
    8880022    1    1    2    0    0 -0.89155479821E+02  0.89735041993E+02  0.36412270607E+03  0.41470239381E+03  0.15294330000E+03 0.  0.
<mgrwt>
<rscale>  0 0.49466751E+03</rscale>
<asrwt>0</asrwt>
<pdfrwt beam="1">  1        2 0.81982840E-01 0.67067972E+03</pdfrwt>
<pdfrwt beam="2">  1       -2 0.12447150E+00 0.67067972E+03</pdfrwt>
<totfact> 0.28232181E+01</totfact>
</mgrwt>
</event>
<event>
 4    2  0.3388003E-007  0.8883934E+03  0.7818608E-02  0.9544927E-01
         -2   -1    0    0    0  501 -0.00000000000E+00  0.00000000000E+00  0.13011935853E+04  0.13011935853E+04  0.25500000000E-02 0.  1.
          2   -1    0    0  501    0  0.00000000000E+00 -0.00000000000E+00 -0.77381445502E+03  0.77381445502E+03  0.25500000000E-02 0. -1.
    8880023    1    1    2    0    0 -0.56512619711E+03 -0.18990810884E+03  0.97116835688E+03  0.13162108084E+04  0.65864270000E+03 0.  0.
    8880022    1    1    2    0    0  0.56512619711E+03  0.18990810884E+03 -0.44378922662E+03  0.75879723191E+03  0.15294330000E+03 0.  0.
<mgrwt>
<rscale>  0 0.81051069E+03</rscale>
<asrwt>0</asrwt>
<pdfrwt beam="1">  1        2 0.11904838E+00 0.88839345E+03</pdfrwt>
<pdfrwt beam="2">  1       -2 0.20018363E+00 0.88839345E+03</pdfrwt>
<totfact> 0.47967645E+00</totfact>
</mgrwt>
</event>
<event>
 4    2  0.3388003E-007  0.9221879E+03  0.7818608E-02  0.9491312E-01
          2   -1    0    0  501    0  0.00000000000E+00  0.00000000000E+00  0.21563050313E+04  0.21563050313E+04  0.25500000000E-02 0. -1.
         -2   -1    0    0    0  501 -0.00000000000E+00 -0.00000000000E+00 -0.29450731506E+03  0.29450731507E+03  0.25500000000E-02 0.  1.
    8880023    1    1    2    0    0 -0.11709216391E+03 -0.63475171221E+03  0.95824636316E+03  0.13299122564E+04  0.65864270000E+03 0.  1.
    8880022    1    1    2    0    0  0.11709216391E+03  0.63475171221E+03  0.90355135311E+03  0.11209000900E+04  0.15294330000E+03 0. -1.
<mgrwt>
<rscale>  0 0.84927360E+03</rscale>
<asrwt>0</asrwt>
<pdfrwt beam="1">  1        2 0.33173923E+00 0.92218790E+03</pdfrwt>
<pdfrwt beam="2">  1       -2 0.45308818E-01 0.92218790E+03</pdfrwt>
<totfact> 0.25611451E+01</totfact>
</mgrwt>
</event>
<event>
 4    2  0.3388003E-007  0.6909790E+03  0.7818608E-02  0.1003691E+00
          2   -1    0    0  501    0  0.00000000000E+00  0.00000000000E+00  0.45819110835E+04  0.45819110835E+04  0.25500000000E-02 0. -1.
         -2   -1    0    0    0  501 -0.00000000000E+00 -0.00000000000E+00 -0.71656765360E+02  0.71656765405E+02  0.25500000000E-02 0.  1.
    8880023    1    1    2    0    0  0.20776096792E+03 -0.21843187354E+02  0.17542615869E+04  0.18854404435E+04  0.65864270000E+03 0.  1.
    8880022    1    1    2    0    0 -0.20776096792E+03  0.21843187354E+02  0.27559927312E+04  0.27681274054E+04  0.15294330000E+03 0.  0.
<mgrwt>
<rscale>  0 0.54061119E+03</rscale>
<asrwt>0</asrwt>
<pdfrwt beam="1">  1        2 0.70490963E+00 0.69097898E+03</pdfrwt>
<pdfrwt beam="2">  1       -2 0.11024114E-01 0.69097898E+03</pdfrwt>
<totfact> 0.68812286E+00</totfact>
</mgrwt>
</event>
<event>
 4    2  0.3388003E-007  0.7343659E+03  0.7818608E-02  0.9876673E-01
          2   -1    0    0  501    0  0.00000000000E+00  0.00000000000E+00  0.82987090355E+03  0.82987090355E+03  0.25500000000E-02 0. -1.
         -2   -1    0    0    0  501 -0.00000000000E+00 -0.00000000000E+00 -0.42150754688E+03  0.42150754689E+03  0.25500000000E-02 0.  1.
    8880023    1    1    2    0    0 -0.28651812558E+03  0.15293921519E+03  0.37646333432E+02  0.73533019285E+03  0.65864270000E+03 0.  1.
    8880022    1    1    2    0    0  0.28651812558E+03 -0.15293921519E+03  0.37071702324E+03  0.51604825759E+03  0.15294330000E+03 0.  0.
<mgrwt>
<rscale>  0 0.61405224E+03</rscale>
<asrwt>0</asrwt>
<pdfrwt beam="1">  1        2 0.12767245E+00 0.73436588E+03</pdfrwt>
<pdfrwt beam="2">  1       -2 0.64847316E-01 0.73436588E+03</pdfrwt>
<totfact> 0.72990898E+01</totfact>
</mgrwt>
</event>
<event>
 4    2  0.3388003E-007  0.7044323E+03  0.7818608E-02  0.9979288E-01
          2   -1    0    0  501    0  0.00000000000E+00  0.00000000000E+00  0.25958240578E+04  0.25958240579E+04  0.25500000000E-02 0. -1.
         -2   -1    0    0    0  501 -0.00000000000E+00 -0.00000000000E+00 -0.52059845857E+03  0.52059845858E+03  0.25500000000E-02 0.  1.
    8880023    1    1    2    0    0  0.66710611301E+02 -0.24075775346E+03 -0.26894061889E+03  0.75402510851E+03  0.65864270000E+03 0.  1.
    8880022    1    1    2    0    0 -0.66710611301E+02  0.24075775346E+03  0.23441662182E+04  0.23623974079E+04  0.15294330000E+03 0.  0.
<mgrwt>
<rscale>  0 0.56567801E+03</rscale>
<asrwt>0</asrwt>
<pdfrwt beam="1">  1        2 0.39935756E+00 0.70443226E+03</pdfrwt>
<pdfrwt beam="2">  1       -2 0.80092068E-01 0.70443226E+03</pdfrwt>
<totfact> 0.44815898E+00</totfact>
</mgrwt>
</event>
<event>
 4    2  0.3388003E-007  0.6655289E+03  0.7818608E-02  0.1019094E+00
          2   -1    0    0  501    0  0.00000000000E+00  0.00000000000E+00  0.14441508677E+04  0.14441508677E+04  0.25500000000E-02 0. -1.
         -2   -1    0    0    0  501 -0.00000000000E+00 -0.00000000000E+00 -0.29236868506E+03  0.29236868507E+03  0.25500000000E-02 0.  1.
    8880023    1    1    2    0    0  0.39736193935E+02  0.86830328657E+02  0.10432370019E+03  0.67365578137E+03  0.65864270000E+03 0.  1.
    8880022    1    1    2    0    0 -0.39736193935E+02 -0.86830328657E+02  0.10474584824E+04  0.10628637714E+04  0.15294330000E+03 0.  0.
<mgrwt>
<rscale>  0 0.48015063E+03</rscale>
<asrwt>0</asrwt>
<pdfrwt beam="1">  1        2 0.22217705E+00 0.66552887E+03</pdfrwt>
<pdfrwt beam="2">  1       -2 0.44979799E-01 0.66552887E+03</pdfrwt>
<totfact> 0.65844175E+01</totfact>
</mgrwt>
</event>
<event>
 4    2  0.3388003E-007  0.6825632E+03  0.7818608E-02  0.1007909E+00
          2   -1    0    0  501    0  0.00000000000E+00  0.00000000000E+00  0.16619472091E+04  0.16619472091E+04  0.25500000000E-02 0. -1.
         -2   -1    0    0    0  501 -0.00000000000E+00 -0.00000000000E+00 -0.34067803277E+03  0.34067803278E+03  0.25500000000E-02 0.  1.
    8880023    1    1    2    0    0 -0.31377260357E+02  0.17634579694E+03  0.22775079339E+02  0.68294310383E+03  0.65864270000E+03 0.  1.
    8880022    1    1    2    0    0  0.31377260357E+02 -0.17634579694E+03  0.12984940970E+04  0.13196821381E+04  0.15294330000E+03 0.  0.
<mgrwt>
<rscale>  0 0.52314055E+03</rscale>
<asrwt>0</asrwt>
<pdfrwt beam="1">  1        2 0.25568419E+00 0.68256324E+03</pdfrwt>
<pdfrwt beam="2">  1       -2 0.52412004E-01 0.68256324E+03</pdfrwt>
<totfact> 0.36577374E+01</totfact>
</mgrwt>
</event>
<event>
 4    2  0.3388003E-007  0.9766999E+03  0.7818608E-02  0.9412697E-01
          2   -1    0    0  501    0  0.00000000000E+00  0.00000000000E+00  0.51540842043E+04  0.51540842043E+04  0.25500000000E-02 0. -1.
         -2   -1    0    0    0  501 -0.00000000000E+00 -0.00000000000E+00 -0.56519870564E+03  0.56519870564E+03  0.25500000000E-02 0.  1.
    8880023    1    1    2    0    0 -0.71496997508E+03 -0.94607085033E+02  0.48422119449E+04  0.49397327145E+04  0.65864270000E+03 0. -1.
    8880022    1    1    2    0    0  0.71496997508E+03  0.94607085033E+02 -0.25332644620E+03  0.77955019541E+03  0.15294330000E+03 0.  0.
<mgrwt>
<rscale>  0 0.91038110E+03</rscale>
<asrwt>0</asrwt>
<pdfrwt beam="1">  1        2 0.79293601E+00 0.97669994E+03</pdfrwt>
<pdfrwt beam="2">  1       -2 0.86953650E-01 0.97669994E+03</pdfrwt>
<totfact> 0.27462646E-02</totfact>
</mgrwt>
</event>
<event>
 4    2  0.3388003E-007  0.7606289E+03  0.7818608E-02  0.9803482E-01
          2   -1    0    0  501    0  0.00000000000E+00  0.00000000000E+00  0.13360447411E+04  0.13360447411E+04  0.25500000000E-02 0. -1.
         -2   -1    0    0    0  501 -0.00000000000E+00 -0.00000000000E+00 -0.84392513882E+03  0.84392513882E+03  0.25500000000E-02 0.  1.
    8880023    1    1    2    0    0  0.37207018641E+03 -0.79434616527E+02 -0.62849390619E+03  0.98669188620E+03  0.65864270000E+03 0.  1.
    8880022    1    1    2    0    0 -0.37207018641E+03  0.79434616527E+02  0.11206135085E+04  0.11932779937E+04  0.15294330000E+03 0.  0.
<mgrwt>
<rscale>  0 0.65176008E+03</rscale>
<asrwt>0</asrwt>
<pdfrwt beam="1">  1        2 0.20554535E+00 0.76062888E+03</pdfrwt>
<pdfrwt beam="2">  1       -2 0.12983464E+00 0.76062888E+03</pdfrwt>
<totfact> 0.70069994E+00</totfact>
</mgrwt>
</event>
<event>
 4    2  0.3388003E-007  0.9886245E+03  0.7818608E-02  0.9396594E-01
         -2   -1    0    0    0  501 -0.00000000000E+00  0.00000000000E+00  0.31386875357E+03  0.31386875358E+03  0.25500000000E-02 0.  1.
          2   -1    0    0  501    0  0.00000000000E+00 -0.00000000000E+00 -0.28400556819E+04  0.28400556819E+04  0.25500000000E-02 0. -1.
    8880023    1    1    2    0    0  0.66784826598E+03 -0.31232487785E+03 -0.80384293629E+03  0.12741828001E+04  0.65864270000E+03 0.  0.
    8880022    1    1    2    0    0 -0.66784826598E+03  0.31232487785E+03 -0.17223439921E+04  0.18797416354E+04  0.15294330000E+03 0.  0.
<mgrwt>
<rscale>  0 0.92356518E+03</rscale>
<asrwt>0</asrwt>
<pdfrwt beam="1">  1        2 0.43693162E+00 0.98862447E+03</pdfrwt>
<pdfrwt beam="2">  1       -2 0.48287503E-01 0.98862447E+03</pdfrwt>
<totfact> 0.90678093E+00</totfact>
</mgrwt>
</event>
<event>
 4    2  0.4786779E-007  0.7154686E+03  0.7818608E-02  0.9938228E-01
          2   -1    0    0  501    0  0.00000000000E+00  0.00000000000E+00  0.15799373638E+04  0.15799373638E+04  0.25500000000E-02 0. -1.
         -2   -1    0    0    0  501 -0.00000000000E+00 -0.00000000000E+00 -0.10788973251E+04  0.10788973251E+04  0.25500000000E-02 0.  1.
    8880023    1    1    2    0    0 -0.21305005035E+03  0.18081717851E+03 -0.94095589125E+03  0.11820716440E+04  0.65864270000E+03 0.  1.
    8880022    1    1    2    0    0  0.21305005035E+03 -0.18081717851E+03  0.14419959299E+04  0.14767630449E+04  0.15294330000E+03 0.  0.
<mgrwt>
<rscale>  0 0.58443850E+03</rscale>
<asrwt>0</asrwt>
<pdfrwt beam="1">  1        2 0.24306729E+00 0.71546865E+03</pdfrwt>
<pdfrwt beam="2">  1       -2 0.16598420E+00 0.71546865E+03</pdfrwt>
<totfact> 0.26995330E+00</totfact>
</mgrwt>
</event>
<event>
 4    2  0.3388003E-007  0.1228812E+04  0.7818608E-02  0.9129611E-01
          2   -1    0    0  501    0  0.00000000000E+00  0.00000000000E+00  0.25990184835E+04  0.25990184835E+04  0.25500000000E-02 0. -1.
         -2   -1    0    0    0  501 -0.00000000000E+00 -0.00000000000E+00 -0.79928590864E+03  0.79928590864E+03  0.25500000000E-02 0.  1.
    8880023    1    1    2    0    0 -0.10073364066E+04  0.24787545226E+03 -0.95297824690E+02  0.12325018286E+04  0.65864270000E+03 0.  0.
    8880022    1    1    2    0    0  0.10073364066E+04 -0.24787545226E+03  0.18950303995E+04  0.21658025635E+04  0.15294330000E+03 0.  0.
<mgrwt>
<rscale>  0 0.11810451E+04</rscale>
<asrwt>0</asrwt>
<pdfrwt beam="1">  1        2 0.39984899E+00 0.12288121E+04</pdfrwt>
<pdfrwt beam="2">  1       -2 0.12296707E+00 0.12288121E+04</pdfrwt>
<totfact> 0.14891119E+00</totfact>
</mgrwt>
</event>
<event>
 4    2  0.3388003E-007  0.6837521E+03  0.7818608E-02  0.1007276E+00
          2   -1    0    0  501    0  0.00000000000E+00  0.00000000000E+00  0.60069608301E+03  0.60069608302E+03  0.25500000000E-02 0. -1.
         -2   -1    0    0    0  501 -0.00000000000E+00 -0.00000000000E+00 -0.10587265707E+04  0.10587265707E+04  0.25500000000E-02 0.  1.
    8880023    1    1    2    0    0 -0.16229281762E+03  0.85835888720E+02 -0.91588635746E+03  0.11429631597E+04  0.65864270000E+03 0.  1.
    8880022    1    1    2    0    0  0.16229281762E+03 -0.85835888720E+02  0.45785586977E+03  0.51645949400E+03  0.15294330000E+03 0.  0.
<mgrwt>
<rscale>  0 0.52571700E+03</rscale>
<asrwt>0</asrwt>
<pdfrwt beam="1">  1        2 0.92414782E-01 0.68375212E+03</pdfrwt>
<pdfrwt beam="2">  1       -2 0.16288101E+00 0.68375212E+03</pdfrwt>
<totfact> 0.12151573E+01</totfact>
</mgrwt>
</event>
<event>
 4    2  0.3388003E-007  0.7183993E+03  0.7818608E-02  0.9928040E-01
         -2   -1    0    0    0  501 -0.00000000000E+00  0.00000000000E+00  0.16859933463E+04  0.16859933463E+04  0.25500000000E-02 0.  1.
          2   -1    0    0  501    0  0.00000000000E+00 -0.00000000000E+00 -0.39250467313E+03  0.39250467314E+03  0.25500000000E-02 0. -1.
    8880023    1    1    2    0    0 -0.28449340548E+03 -0.36753017842E+02  0.15207206392E+04  0.16818706106E+04  0.65864270000E+03 0.  1.
    8880022    1    1    2    0    0  0.28449340548E+03  0.36753017842E+02 -0.22723196599E+03  0.39662740887E+03  0.15294330000E+03 0.  0.
<mgrwt>
<rscale>  0 0.58921387E+03</rscale>
<asrwt>0</asrwt>
<pdfrwt beam="1">  1        2 0.60385336E-01 0.71839925E+03</pdfrwt>
<pdfrwt beam="2">  1       -2 0.25938358E+00 0.71839925E+03</pdfrwt>
<totfact> 0.47306544E+00</totfact>
</mgrwt>
</event>
<event>
 4    2  0.3388003E-007  0.7142647E+03  0.7818608E-02  0.9942493E-01
         -2   -1    0    0    0  501 -0.00000000000E+00  0.00000000000E+00  0.58150545282E+03  0.58150545282E+03  0.25500000000E-02 0.  1.
          2   -1    0    0  501    0  0.00000000000E+00 -0.00000000000E+00 -0.89895454220E+03  0.89895454220E+03  0.25500000000E-02 0. -1.
    8880023    1    1    2    0    0  0.15292734315E+02  0.27591668969E+03  0.30950851009E+03  0.77844049962E+03  0.65864270000E+03 0.  1.
    8880022    1    1    2    0    0 -0.15292734315E+02 -0.27591668969E+03 -0.62695759948E+03  0.70201949540E+03  0.15294330000E+03 0.  0.
<mgrwt>
<rscale>  0 0.58245386E+03</rscale>
<asrwt>0</asrwt>
<pdfrwt beam="1">  1        2 0.13830070E+00 0.71426472E+03</pdfrwt>
<pdfrwt beam="2">  1       -2 0.89462378E-01 0.71426472E+03</pdfrwt>
<totfact> 0.32049644E+01</totfact>
</mgrwt>
</event>
<event>
 4    2  0.3388003E-007  0.7039292E+03  0.7818608E-02  0.9981276E-01
         -2   -1    0    0    0  501 -0.00000000000E+00  0.00000000000E+00  0.19124970654E+03  0.19124970656E+03  0.25500000000E-02 0.  1.
          2   -1    0    0  501    0  0.00000000000E+00 -0.00000000000E+00 -0.15369069655E+04  0.15369069655E+04  0.25500000000E-02 0. -1.
    8880023    1    1    2    0    0  0.21103232943E+03 -0.13103969299E+03 -0.59116798842E+03  0.91923655388E+03  0.65864270000E+03 0.  1.
    8880022    1    1    2    0    0 -0.21103232943E+03  0.13103969299E+03 -0.75448927050E+03  0.80892011813E+03  0.15294330000E+03 0. -1.
<mgrwt>
<rscale>  0 0.56478927E+03</rscale>
<asrwt>0</asrwt>
<pdfrwt beam="1">  1        2 0.23644722E+00 0.70392915E+03</pdfrwt>
<pdfrwt beam="2">  1       -2 0.29423033E-01 0.70392915E+03</pdfrwt>
<totfact> 0.13136219E+02</totfact>
</mgrwt>
</event>
<event>
 4    2  0.3388003E-007  0.1031694E+04  0.7818608E-02  0.9341219E-01
          2   -1    0    0  501    0  0.00000000000E+00  0.00000000000E+00  0.18440094386E+04  0.18440094386E+04  0.25500000000E-02 0. -1.
         -2   -1    0    0    0  501 -0.00000000000E+00 -0.00000000000E+00 -0.72723472447E+03  0.72723472447E+03  0.25500000000E-02 0.  1.
    8880023    1    1    2    0    0  0.77902326922E+03  0.15396254903E+03 -0.17577573780E+03  0.10465605748E+04  0.65864270000E+03 0.  0.
    8880022    1    1    2    0    0 -0.77902326922E+03 -0.15396254903E+03  0.12925504519E+04  0.15246835882E+04  0.15294330000E+03 0.  0.
<mgrwt>
<rscale>  0 0.97075156E+03</rscale>
<asrwt>0</asrwt>
<pdfrwt beam="1">  1        2 0.28369376E+00 0.10316937E+04</pdfrwt>
<pdfrwt beam="2">  1       -2 0.11188227E+00 0.10316937E+04</pdfrwt>
<totfact> 0.51121129E+00</totfact>
</mgrwt>
</event>
<event>
 4    2  0.3388003E-007  0.1190425E+04  0.7818608E-02  0.9166486E-01
          2   -1    0    0  501    0  0.00000000000E+00  0.00000000000E+00  0.30028802915E+04  0.30028802915E+04  0.25500000000E-02 0. -1.
         -2   -1    0    0    0  501 -0.00000000000E+00 -0.00000000000E+00 -0.50824324129E+03  0.50824324130E+03  0.25500000000E-02 0.  1.
    8880023    1    1    2    0    0  0.54214228797E+03  0.83029123228E+03  0.52581183230E+03  0.13013800675E+04  0.65864270000E+03 0.  0.
    8880022    1    1    2    0    0 -0.54214228797E+03 -0.83029123228E+03  0.19688252179E+04  0.22097434653E+04  0.15294330000E+03 0.  0.
<mgrwt>
<rscale>  0 0.11406141E+04</rscale>
<asrwt>0</asrwt>
<pdfrwt beam="1">  1        2 0.46198159E+00 0.11904251E+04</pdfrwt>
<pdfrwt beam="2">  1       -2 0.78191267E-01 0.11904251E+04</pdfrwt>
<totfact> 0.25105562E+00</totfact>
</mgrwt>
</event>
<event>
 4    2  0.3388003E-007  0.6642487E+03  0.7818608E-02  0.1020172E+00
         -2   -1    0    0    0  501 -0.00000000000E+00  0.00000000000E+00  0.14343698957E+04  0.14343698957E+04  0.25500000000E-02 0.  1.
          2   -1    0    0  501    0  0.00000000000E+00 -0.00000000000E+00 -0.16486507707E+03  0.16486507709E+03  0.25500000000E-02 0. -1.
    8880023    1    1    2    0    0 -0.83138393180E+02  0.22452197819E+02  0.12588972999E+04  0.14233933790E+04  0.65864270000E+03 0.  0.
    8880022    1    1    2    0    0  0.83138393180E+02 -0.22452197819E+02  0.10607518704E+02  0.17584159370E+03  0.15294330000E+03 0.  0.
<mgrwt>
<rscale>  0 0.47624509E+03</rscale>
<asrwt>0</asrwt>
<pdfrwt beam="1">  1        2 0.25363858E-01 0.66424867E+03</pdfrwt>
<pdfrwt beam="2">  1       -2 0.22067229E+00 0.66424867E+03</pdfrwt>
<totfact> 0.21673703E+01</totfact>
</mgrwt>
</event>
<event>
 4    2  0.3388003E-007  0.8156602E+03  0.7818608E-02  0.9677905E-01
          2   -1    0    0  501    0  0.00000000000E+00  0.00000000000E+00  0.26160073395E+04  0.26160073395E+04  0.25500000000E-02 0. -1.
         -2   -1    0    0    0  501 -0.00000000000E+00 -0.00000000000E+00 -0.20366166039E+03  0.20366166041E+03  0.25500000000E-02 0.  1.
    8880023    1    1    2    0    0 -0.23265355403E+02 -0.48057257775E+03  0.85118452014E+03  0.11789048192E+04  0.65864270000E+03 0.  1.
    8880022    1    1    2    0    0  0.23265355403E+02  0.48057257775E+03  0.15611611590E+04  0.16407641807E+04  0.15294330000E+03 0.  0.
<mgrwt>
<rscale>  0 0.72347667E+03</rscale>
<asrwt>0</asrwt>
<pdfrwt beam="1">  1        2 0.40246262E+00 0.81566015E+03</pdfrwt>
<pdfrwt beam="2">  1       -2 0.31332567E-01 0.81566015E+03</pdfrwt>
<totfact> 0.29178695E+01</totfact>
</mgrwt>
</event>
<event>
 4    2  0.3388003E-007  0.8765105E+03  0.7818608E-02  0.9564843E-01
         -2   -1    0    0    0  501 -0.00000000000E+00  0.00000000000E+00  0.33422653208E+03  0.33422653209E+03  0.25500000000E-02 0.  1.
          2   -1    0    0  501    0  0.00000000000E+00 -0.00000000000E+00 -0.54812629324E+04  0.54812629324E+04  0.25500000000E-02 0. -1.
    8880023    1    1    2    0    0  0.29400205814E+03 -0.49801931604E+03 -0.29219399349E+03  0.92393072545E+03  0.65864270000E+03 0.  1.
    8880022    1    1    2    0    0 -0.29400205814E+03  0.49801931604E+03 -0.48548424068E+04  0.48915587390E+04  0.15294330000E+03 0.  0.
<mgrwt>
<rscale>  0 0.79667427E+03</rscale>
<asrwt>0</asrwt>
<pdfrwt beam="1">  1        2 0.84327115E+00 0.87651050E+03</pdfrwt>
<pdfrwt beam="2">  1       -2 0.51419471E-01 0.87651050E+03</pdfrwt>
<totfact> 0.27463697E-02</totfact>
</mgrwt>
</event>
<event>
 4    2  0.3388003E-007  0.6895552E+03  0.7818608E-02  0.1004365E+00
          2   -1    0    0  501    0  0.00000000000E+00  0.00000000000E+00  0.33619385551E+04  0.33619385551E+04  0.25500000000E-02 0. -1.
         -2   -1    0    0    0  501 -0.00000000000E+00 -0.00000000000E+00 -0.84068554046E+02  0.84068554084E+02  0.25500000000E-02 0.  1.
    8880023    1    1    2    0    0  0.17363121938E+03  0.10736993715E+03  0.15120857487E+04  0.16618933845E+04  0.65864270000E+03 0.  1.
    8880022    1    1    2    0    0 -0.17363121938E+03 -0.10736993715E+03  0.17657842523E+04  0.17841137247E+04  0.15294330000E+03 0.  0.
<mgrwt>
<rscale>  0 0.53777113E+03</rscale>
<asrwt>0</asrwt>
<pdfrwt beam="1">  1        2 0.51722140E+00 0.68955515E+03</pdfrwt>
<pdfrwt beam="2">  1       -2 0.12933622E-01 0.68955515E+03</pdfrwt>
<totfact> 0.49117393E+01</totfact>
</mgrwt>
</event>
<event>
 4    2  0.3388003E-007  0.7376486E+03  0.7818608E-02  0.9866850E-01
          2   -1    0    0  501    0  0.00000000000E+00  0.00000000000E+00  0.21347821136E+04  0.21347821136E+04  0.25500000000E-02 0. -1.
         -2   -1    0    0    0  501 -0.00000000000E+00 -0.00000000000E+00 -0.22126764860E+03  0.22126764862E+03  0.25500000000E-02 0.  1.
    8880023    1    1    2    0    0 -0.33112872227E+03 -0.25866842016E+02  0.18409829262E+04  0.19832659088E+04  0.65864270000E+03 0.  0.
    8880022    1    1    2    0    0  0.33112872227E+03  0.25866842016E+02  0.72531538802E+02  0.37278385341E+03  0.15294330000E+03 0.  0.
<mgrwt>
<rscale>  0 0.61895122E+03</rscale>
<asrwt>0</asrwt>
<pdfrwt beam="1">  1        2 0.32842803E+00 0.73764865E+03</pdfrwt>
<pdfrwt beam="2">  1       -2 0.34041175E-01 0.73764865E+03</pdfrwt>
<totfact> 0.46947256E+01</totfact>
</mgrwt>
</event>
<event>
 4    2  0.3388003E-007  0.9413943E+03  0.7818608E-02  0.9462605E-01
          2   -1    0    0  501    0  0.00000000000E+00  0.00000000000E+00  0.18595688811E+04  0.18595688811E+04  0.25500000000E-02 0. -1.
         -2   -1    0    0    0  501 -0.00000000000E+00 -0.00000000000E+00 -0.69183598983E+03  0.69183598983E+03  0.25500000000E-02 0.  1.
    8880023    1    1    2    0    0  0.42048032646E+03  0.52498499669E+03  0.15115108309E+04  0.17806987814E+04  0.65864270000E+03 0.  0.
    8880022    1    1    2    0    0 -0.42048032646E+03 -0.52498499669E+03 -0.34377793965E+03  0.77070608957E+03  0.15294330000E+03 0.  1.
<mgrwt>
<rscale>  0 0.87097811E+03</rscale>
<asrwt>0</asrwt>
<pdfrwt beam="1">  1        2 0.28608752E+00 0.94139426E+03</pdfrwt>
<pdfrwt beam="2">  1       -2 0.10643631E+00 0.94139426E+03</pdfrwt>
<totfact> 0.57193996E+00</totfact>
</mgrwt>
</event>
<event>
 4    2  0.3388003E-007  0.6762970E+03  0.7818608E-02  0.1011501E+00
         -2   -1    0    0    0  501 -0.00000000000E+00  0.00000000000E+00  0.14951920540E+03  0.14951920542E+03  0.25500000000E-02 0.  1.
          2   -1    0    0  501    0  0.00000000000E+00 -0.00000000000E+00 -0.25245547841E+04  0.25245547841E+04  0.25500000000E-02 0. -1.
    8880023    1    1    2    0    0 -0.59120741988E+02  0.14167608478E+03 -0.65854694609E+03  0.94396062503E+03  0.65864270000E+03 0.  0.
    8880022    1    1    2    0    0  0.59120741988E+02 -0.14167608478E+03 -0.17164886326E+04  0.17301133645E+04  0.15294330000E+03 0.  0.
<mgrwt>
<rscale>  0 0.50882444E+03</rscale>
<asrwt>0</asrwt>
<pdfrwt beam="1">  1        2 0.38839301E+00 0.67629696E+03</pdfrwt>
<pdfrwt beam="2">  1       -2 0.23002956E-01 0.67629696E+03</pdfrwt>
<totfact> 0.58976011E+01</totfact>
</mgrwt>
</event>
<event>
 4    2  0.3388003E-007  0.8032179E+03  0.7818608E-02  0.9703881E-01
          2   -1    0    0  501    0  0.00000000000E+00  0.00000000000E+00  0.47257698779E+04  0.47257698779E+04  0.25500000000E-02 0. -1.
         -2   -1    0    0    0  501 -0.00000000000E+00 -0.00000000000E+00 -0.12426690676E+03  0.12426690679E+03  0.25500000000E-02 0.  1.
    8880023    1    1    2    0    0 -0.28594197997E+03  0.35998061032E+03  0.14164105525E+04  0.16283052279E+04  0.65864270000E+03 0.  1.
    8880022    1    1    2    0    0  0.28594197997E+03 -0.35998061032E+03  0.31850924186E+04  0.32217315568E+04  0.15294330000E+03 0.  0.
<mgrwt>
<rscale>  0 0.70786193E+03</rscale>
<asrwt>0</asrwt>
<pdfrwt beam="1">  1        2 0.72704145E+00 0.80321794E+03</pdfrwt>
<pdfrwt beam="2">  1       -2 0.19117987E-01 0.80321794E+03</pdfrwt>
<totfact> 0.18851207E+00</totfact>
</mgrwt>
</event>
<event>
 4    2  0.3388003E-007  0.6990206E+03  0.7818608E-02  0.1000129E+00
         -2   -1    0    0    0  501 -0.00000000000E+00  0.00000000000E+00  0.35882310175E+03  0.35882310175E+03  0.25500000000E-02 0.  1.
          2   -1    0    0  501    0  0.00000000000E+00 -0.00000000000E+00 -0.33167344967E+04  0.33167344967E+04  0.25500000000E-02 0. -1.
    8880023    1    1    2    0    0  0.15344659145E+03 -0.17684366606E+03  0.54373281569E+01  0.69904170795E+03  0.65864270000E+03 0.  1.
    8880022    1    1    2    0    0 -0.15344659145E+03  0.17684366606E+03 -0.29633487231E+04  0.29765158905E+04  0.15294330000E+03 0.  0.
<mgrwt>
<rscale>  0 0.55593764E+03</rscale>
<asrwt>0</asrwt>
<pdfrwt beam="1">  1        2 0.51026682E+00 0.69902056E+03</pdfrwt>
<pdfrwt beam="2">  1       -2 0.55203556E-01 0.69902056E+03</pdfrwt>
<totfact> 0.36514453E+00</totfact>
</mgrwt>
</event>
<event>
 4    2  0.3388003E-007  0.9250309E+03  0.7818608E-02  0.9486988E-01
          2   -1    0    0  501    0  0.00000000000E+00  0.00000000000E+00  0.12375891767E+04  0.12375891767E+04  0.25500000000E-02 0. -1.
         -2   -1    0    0    0  501 -0.00000000000E+00 -0.00000000000E+00 -0.92309129111E+03  0.92309129111E+03  0.25500000000E-02 0.  1.
    8880023    1    1    2    0    0  0.19659723353E+03  0.61904888886E+03 -0.54416788186E+03  0.10732198698E+04  0.65864270000E+03 0.  0.
    8880022    1    1    2    0    0 -0.19659723353E+03 -0.61904888886E+03  0.85866576743E+03  0.10874605980E+04  0.15294330000E+03 0.  0.
<mgrwt>
<rscale>  0 0.85249991E+03</rscale>
<asrwt>0</asrwt>
<pdfrwt beam="1">  1        2 0.19039834E+00 0.92503092E+03</pdfrwt>
<pdfrwt beam="2">  1       -2 0.14201404E+00 0.92503092E+03</pdfrwt>
<totfact> 0.62225778E+00</totfact>
</mgrwt>
</event>
<event>
 4    2  0.3388003E-007  0.1127365E+04  0.7818608E-02  0.9231183E-01
          2   -1    0    0  501    0  0.00000000000E+00  0.00000000000E+00  0.24478721055E+04  0.24478721055E+04  0.25500000000E-02 0. -1.
         -2   -1    0    0    0  501 -0.00000000000E+00 -0.00000000000E+00 -0.11154668908E+04  0.11154668908E+04  0.25500000000E-02 0.  1.
    8880023    1    1    2    0    0  0.33971419438E+03 -0.84955035113E+03 -0.70155117536E+03  0.13278274703E+04  0.65864270000E+03 0.  0.
    8880022    1    1    2    0    0 -0.33971419438E+03  0.84955035113E+03  0.20339563901E+04  0.22355115260E+04  0.15294330000E+03 0.  0.
<mgrwt>
<rscale>  0 0.10737282E+04</rscale>
<asrwt>0</asrwt>
<pdfrwt beam="1">  1        2 0.37659570E+00 0.11273650E+04</pdfrwt>
<pdfrwt beam="2">  1       -2 0.17161029E+00 0.11273650E+04</pdfrwt>
<totfact> 0.76347065E-01</totfact>
</mgrwt>
</event>
<event>
 4    2  0.3388003E-007  0.7793422E+03  0.7818608E-02  0.9757384E-01
          2   -1    0    0  501    0  0.00000000000E+00  0.00000000000E+00  0.24267405740E+04  0.24267405740E+04  0.25500000000E-02 0. -1.
         -2   -1    0    0    0  501 -0.00000000000E+00 -0.00000000000E+00 -0.37119085311E+03  0.37119085312E+03  0.25500000000E-02 0.  1.
    8880023    1    1    2    0    0  0.32761704345E+03  0.25735412220E+03  0.91883788620E+02  0.78474002590E+03  0.65864270000E+03 0.  1.
    8880022    1    1    2    0    0 -0.32761704345E+03 -0.25735412220E+03  0.19636659322E+04  0.20131914012E+04  0.15294330000E+03 0.  0.
<mgrwt>
<rscale>  0 0.67700554E+03</rscale>
<asrwt>0</asrwt>
<pdfrwt beam="1">  1        2 0.37334471E+00 0.77934221E+03</pdfrwt>
<pdfrwt beam="2">  1       -2 0.57106284E-01 0.77934221E+03</pdfrwt>
<totfact> 0.11484645E+01</totfact>
</mgrwt>
</event>
<event>
 4    2  0.3388003E-007  0.7697252E+03  0.7818608E-02  0.9780551E-01
         -2   -1    0    0    0  501 -0.00000000000E+00  0.00000000000E+00  0.10780983377E+04  0.10780983377E+04  0.25500000000E-02 0.  1.
          2   -1    0    0  501    0  0.00000000000E+00 -0.00000000000E+00 -0.58710984567E+03  0.58710984568E+03  0.25500000000E-02 0. -1.
    8880023    1    1    2    0    0  0.23321792745E+03 -0.32291812036E+03  0.82129726080E+03  0.11256136597E+04  0.65864270000E+03 0.  1.
    8880022    1    1    2    0    0 -0.23321792745E+03  0.32291812036E+03 -0.33030876880E+03  0.53959452360E+03  0.15294330000E+03 0.  0.
<mgrwt>
<rscale>  0 0.66416826E+03</rscale>
<asrwt>0</asrwt>
<pdfrwt beam="1">  1        2 0.90324591E-01 0.76972522E+03</pdfrwt>
<pdfrwt beam="2">  1       -2 0.16586128E+00 0.76972522E+03</pdfrwt>
<totfact> 0.11778426E+01</totfact>
</mgrwt>
</event>
<event>
 4    2  0.3388003E-007  0.7023108E+03  0.7818608E-02  0.9987747E-01
         -2   -1    0    0    0  501 -0.00000000000E+00  0.00000000000E+00  0.35539022293E+03  0.35539022294E+03  0.25500000000E-02 0.  1.
          2   -1    0    0  501    0  0.00000000000E+00 -0.00000000000E+00 -0.24361881182E+04  0.24361881182E+04  0.25500000000E-02 0. -1.
    8880023    1    1    2    0    0  0.20931898987E+02 -0.24288289571E+03 -0.11541813933E+02  0.70240562722E+03  0.65864270000E+03 0.  1.
    8880022    1    1    2    0    0 -0.20931898987E+02  0.24288289571E+03 -0.20692560813E+04  0.20891727139E+04  0.15294330000E+03 0.  0.
<mgrwt>
<rscale>  0 0.56190792E+03</rscale>
<asrwt>0</asrwt>
<pdfrwt beam="1">  1        2 0.37479816E+00 0.70231079E+03</pdfrwt>
<pdfrwt beam="2">  1       -2 0.54675420E-01 0.70231079E+03</pdfrwt>
<totfact> 0.12576814E+01</totfact>
</mgrwt>
</event>
<event>
 4    2  0.3388003E-007  0.7046556E+03  0.7818608E-02  0.9978410E-01
         -2   -1    0    0    0  501 -0.00000000000E+00  0.00000000000E+00  0.57871079888E+03  0.57871079888E+03  0.25500000000E-02 0.  1.
          2   -1    0    0  501    0  0.00000000000E+00 -0.00000000000E+00 -0.24580027496E+04  0.24580027496E+04  0.25500000000E-02 0. -1.
    8880023    1    1    2    0    0 -0.50180752079E+02  0.24537961234E+03  0.35097313623E+03  0.78722399014E+03  0.65864270000E+03 0.  1.
    8880022    1    1    2    0    0  0.50180752079E+02 -0.24537961234E+03 -0.22302650870E+04  0.22494895584E+04  0.15294330000E+03 0.  0.
<mgrwt>
<rscale>  0 0.56607144E+03</rscale>
<asrwt>0</asrwt>
<pdfrwt beam="1">  1        2 0.37815426E+00 0.70465557E+03</pdfrwt>
<pdfrwt beam="2">  1       -2 0.89032432E-01 0.70465557E+03</pdfrwt>
<totfact> 0.42190756E+00</totfact>
</mgrwt>
</event>
<event>
 4    2  0.3388003E-007  0.8112370E+03  0.7818608E-02  0.9687006E-01
         -2   -1    0    0    0  501 -0.00000000000E+00  0.00000000000E+00  0.69714122206E+03  0.69714122207E+03  0.25500000000E-02 0.  1.
          2   -1    0    0  501    0  0.00000000000E+00 -0.00000000000E+00 -0.92630612790E+03  0.92630612790E+03  0.25500000000E-02 0. -1.
    8880023    1    1    2    0    0 -0.45547104093E+03 -0.12977456938E+03  0.32919153540E+03  0.87548419816E+03  0.65864270000E+03 0.  1.
    8880022    1    1    2    0    0  0.45547104093E+03  0.12977456938E+03 -0.55835644123E+03  0.74796315181E+03  0.15294330000E+03 0.  0.
<mgrwt>
<rscale>  0 0.71795747E+03</rscale>
<asrwt>0</asrwt>
<pdfrwt beam="1">  1        2 0.14250863E+00 0.81123703E+03</pdfrwt>
<pdfrwt beam="2">  1       -2 0.10725250E+00 0.81123703E+03</pdfrwt>
<totfact> 0.19852286E+01</totfact>
</mgrwt>
</event>
<event>
 4    2  0.3388003E-007  0.6847476E+03  0.7818608E-02  0.1006756E+00
          2   -1    0    0  501    0  0.00000000000E+00  0.00000000000E+00  0.27324909341E+03  0.27324909342E+03  0.25500000000E-02 0. -1.
         -2   -1    0    0    0  501 -0.00000000000E+00 -0.00000000000E+00 -0.94446496706E+03  0.94446496707E+03  0.25500000000E-02 0.  1.
    8880023    1    1    2    0    0  0.60461013329E+02  0.17723856110E+03 -0.69389167047E+03  0.97486660538E+03  0.65864270000E+03 0.  1.
    8880022    1    1    2    0    0 -0.60461013329E+02 -0.17723856110E+03  0.22675796815E+02  0.24284745510E+03  0.15294330000E+03 0.  0.
<mgrwt>
<rscale>  0 0.52784435E+03</rscale>
<asrwt>0</asrwt>
<pdfrwt beam="1">  1        2 0.42038323E-01 0.68474758E+03</pdfrwt>
<pdfrwt beam="2">  1       -2 0.14530230E+00 0.68474758E+03</pdfrwt>
<totfact> 0.40322628E+01</totfact>
</mgrwt>
</event>
<event>
 4    2  0.3388003E-007  0.7603886E+03  0.7818608E-02  0.9804102E-01
          2   -1    0    0  501    0  0.00000000000E+00  0.00000000000E+00  0.16727853104E+04  0.16727853104E+04  0.25500000000E-02 0. -1.
         -2   -1    0    0    0  501 -0.00000000000E+00 -0.00000000000E+00 -0.37788408548E+03  0.37788408549E+03  0.25500000000E-02 0.  1.
    8880023    1    1    2    0    0  0.32262585313E+03  0.20073175865E+03  0.75281312697E+02  0.76410611982E+03  0.65864270000E+03 0.  1.
    8880022    1    1    2    0    0 -0.32262585313E+03 -0.20073175865E+03  0.12196199122E+04  0.12865632760E+04  0.15294330000E+03 0.  0.
<mgrwt>
<rscale>  0 0.65142851E+03</rscale>
<asrwt>0</asrwt>
<pdfrwt beam="1">  1        2 0.25735158E+00 0.76038864E+03</pdfrwt>
<pdfrwt beam="2">  1       -2 0.58136014E-01 0.76038864E+03</pdfrwt>
<totfact> 0.28818916E+01</totfact>
</mgrwt>
</event>
<event>
 4    2  0.3388003E-007  0.6872156E+03  0.7818608E-02  0.1005505E+00
         -2   -1    0    0    0  501 -0.00000000000E+00  0.00000000000E+00  0.21008729068E+03  0.21008729069E+03  0.25500000000E-02 0.  1.
          2   -1    0    0  501    0  0.00000000000E+00 -0.00000000000E+00 -0.30196213804E+04  0.30196213804E+04  0.25500000000E-02 0. -1.
    8880023    1    1    2    0    0  0.10999023432E+03 -0.16234917301E+03 -0.37571302154E+03  0.78321490438E+03  0.65864270000E+03 0.  1.
    8880022    1    1    2    0    0 -0.10999023432E+03  0.16234917301E+03 -0.24338210681E+04  0.24464937667E+04  0.15294330000E+03 0.  0.
<mgrwt>
<rscale>  0 0.53300881E+03</rscale>
<asrwt>0</asrwt>
<pdfrwt beam="1">  1        2 0.46455710E+00 0.68721562E+03</pdfrwt>
<pdfrwt beam="2">  1       -2 0.32321124E-01 0.68721562E+03</pdfrwt>
<totfact> 0.16186635E+01</totfact>
</mgrwt>
</event>
<event>
 4    2  0.3388003E-007  0.8456455E+03  0.7818608E-02  0.9619626E-01
         -2   -1    0    0    0  501 -0.00000000000E+00  0.00000000000E+00  0.90190475820E+03  0.90190475820E+03  0.25500000000E-02 0.  1.
          2   -1    0    0  501    0  0.00000000000E+00 -0.00000000000E+00 -0.15146009021E+04  0.15146009021E+04  0.25500000000E-02 0. -1.
    8880023    1    1    2    0    0 -0.43032597111E+03  0.31004130948E+03  0.63146019479E+03  0.10553948261E+04  0.65864270000E+03 0.  1.
    8880022    1    1    2    0    0  0.43032597111E+03 -0.31004130948E+03 -0.12441563387E+04  0.13611108342E+04  0.15294330000E+03 0.  0.
<mgrwt>
<rscale>  0 0.76010728E+03</rscale>
<asrwt>0</asrwt>
<pdfrwt beam="1">  1        2 0.23301552E+00 0.84564547E+03</pdfrwt>
<pdfrwt beam="2">  1       -2 0.13875458E+00 0.84564547E+03</pdfrwt>
<totfact> 0.46342441E+00</totfact>
</mgrwt>
</event>
<event>
 4    2  0.3388003E-007  0.9132264E+03  0.7818608E-02  0.9505124E-01
          2   -1    0    0  501    0  0.00000000000E+00  0.00000000000E+00  0.82451502314E+03  0.82451502315E+03  0.25500000000E-02 0. -1.
         -2   -1    0    0    0  501 -0.00000000000E+00 -0.00000000000E+00 -0.44198590485E+04  0.44198590485E+04  0.25500000000E-02 0.  1.
    8880023    1    1    2    0    0 -0.47587441094E+03  0.41679225826E+03  0.53812583039E+03  0.10599820079E+04  0.65864270000E+03 0.  0.
    8880022    1    1    2    0    0  0.47587441094E+03 -0.41679225826E+03 -0.41334698557E+04  0.41843920637E+04  0.15294330000E+03 0.  0.
<mgrwt>
<rscale>  0 0.83907099E+03</rscale>
<asrwt>0</asrwt>
<pdfrwt beam="1">  1        2 0.12684847E+00 0.91322639E+03</pdfrwt>
<pdfrwt beam="2">  1       -2 0.67997830E+00 0.91322639E+03</pdfrwt>
<totfact> 0.89575239E-03</totfact>
</mgrwt>
</event>
<event>
 4    2  0.3388003E-007  0.7459523E+03  0.7818608E-02  0.9842936E-01
          2   -1    0    0  501    0  0.00000000000E+00  0.00000000000E+00  0.19086065997E+04  0.19086065997E+04  0.25500000000E-02 0. -1.
         -2   -1    0    0    0  501 -0.00000000000E+00 -0.00000000000E+00 -0.65745496433E+03  0.65745496434E+03  0.25500000000E-02 0.  1.
    8880023    1    1    2    0    0 -0.27778171655E+03 -0.21324167049E+03 -0.41707170493E+03  0.85463074213E+03  0.65864270000E+03 0.  1.
    8880022    1    1    2    0    0  0.27778171655E+03  0.21324167049E+03  0.16682233403E+04  0.17114308219E+04  0.15294330000E+03 0.  0.
<mgrwt>
<rscale>  0 0.63108406E+03</rscale>
<asrwt>0</asrwt>
<pdfrwt beam="1">  1        2 0.29363179E+00 0.74595234E+03</pdfrwt>
<pdfrwt beam="2">  1       -2 0.10114692E+00 0.74595234E+03</pdfrwt>
<totfact> 0.62448609E+00</totfact>
</mgrwt>
</event>
<event>
 4    2  0.3388003E-007  0.6625263E+03  0.7818608E-02  0.1021706E+00
         -2   -1    0    0    0  501 -0.00000000000E+00  0.00000000000E+00  0.32999027724E+03  0.32999027725E+03  0.25500000000E-02 0.  1.
          2   -1    0    0  501    0  0.00000000000E+00 -0.00000000000E+00 -0.55610879429E+03  0.55610879429E+03  0.25500000000E-02 0. -1.
    8880023    1    1    2    0    0  0.70859960551E+02 -0.10475894392E+02 -0.88837615283E+02  0.66845583738E+03  0.65864270000E+03 0.  1.
    8880022    1    1    2    0    0 -0.70859960551E+02  0.10475894392E+02 -0.13728090176E+03  0.21764323416E+03  0.15294330000E+03 0. -1.
<mgrwt>
<rscale>  0 0.47076140E+03</rscale>
<asrwt>0</asrwt>
<pdfrwt beam="1">  1        2 0.85555199E-01 0.66252629E+03</pdfrwt>
<pdfrwt beam="2">  1       -2 0.50767735E-01 0.66252629E+03</pdfrwt>
<totfact> 0.20196508E+02</totfact>
</mgrwt>
</event>
<event>
 4    2  0.3388003E-007  0.6771416E+03  0.7818608E-02  0.1010989E+00
          2   -1    0    0  501    0  0.00000000000E+00  0.00000000000E+00  0.37380665029E+04  0.37380665029E+04  0.25500000000E-02 0. -1.
         -2   -1    0    0    0  501 -0.00000000000E+00 -0.00000000000E+00 -0.85780140873E+02  0.85780140911E+02  0.25500000000E-02 0.  1.
    8880023    1    1    2    0    0  0.83913139749E+02 -0.13292506677E+03  0.13418543654E+04  0.15030282208E+04  0.65864270000E+03 0.  1.
    8880022    1    1    2    0    0 -0.83913139749E+02  0.13292506677E+03  0.23104319966E+04  0.23208184230E+04  0.15294330000E+03 0.  0.
<mgrwt>
<rscale>  0 0.51083442E+03</rscale>
<asrwt>0</asrwt>
<pdfrwt beam="1">  1        2 0.57508722E+00 0.67714156E+03</pdfrwt>
<pdfrwt beam="2">  1       -2 0.13196943E-01 0.67714156E+03</pdfrwt>
<totfact> 0.26185743E+01</totfact>
</mgrwt>
</event>
<event>
 4    2  0.3388003E-007  0.6988960E+03  0.7818608E-02  0.1000181E+00
          2   -1    0    0  501    0  0.00000000000E+00  0.00000000000E+00  0.28114220789E+04  0.28114220789E+04  0.25500000000E-02 0. -1.
         -2   -1    0    0    0  501 -0.00000000000E+00 -0.00000000000E+00 -0.23735689037E+03  0.23735689039E+03  0.25500000000E-02 0.  1.
    8880023    1    1    2    0    0 -0.94642739771E+02 -0.21374784464E+03  0.30494288694E+03  0.76252590765E+03  0.65864270000E+03 0.  1.
    8880022    1    1    2    0    0  0.94642739771E+02  0.21374784464E+03  0.22691223016E+04  0.22862530617E+04  0.15294330000E+03 0.  0.
<mgrwt>
<rscale>  0 0.55570846E+03</rscale>
<asrwt>0</asrwt>
<pdfrwt beam="1">  1        2 0.43252649E+00 0.69889598E+03</pdfrwt>
<pdfrwt beam="2">  1       -2 0.36516443E-01 0.69889598E+03</pdfrwt>
<totfact> 0.17097516E+01</totfact>
</mgrwt>
</event>
<event>
 4    2  0.3388003E-007  0.8848693E+03  0.7818608E-02  0.9550771E-01
         -2   -1    0    0    0  501 -0.00000000000E+00  0.00000000000E+00  0.10497329994E+04  0.10497329994E+04  0.25500000000E-02 0.  1.
          2   -1    0    0  501    0  0.00000000000E+00 -0.00000000000E+00 -0.82058145843E+03  0.82058145843E+03  0.25500000000E-02 0. -1.
    8880023    1    1    2    0    0  0.84477521837E+02  0.58484791418E+03  0.67625371140E+03  0.11136933253E+04  0.65864270000E+03 0.  1.
    8880022    1    1    2    0    0 -0.84477521837E+02 -0.58484791418E+03 -0.44710217040E+03  0.75662113254E+03  0.15294330000E+03 0.  0.
<mgrwt>
<rscale>  0 0.80641965E+03</rscale>
<asrwt>0</asrwt>
<pdfrwt beam="1">  1        2 0.12624330E+00 0.88486934E+03</pdfrwt>
<pdfrwt beam="2">  1       -2 0.16149738E+00 0.88486934E+03</pdfrwt>
<totfact> 0.81960670E+00</totfact>
</mgrwt>
</event>
<event>
 4    2  0.3388003E-007  0.6722034E+03  0.7818608E-02  0.1014130E+00
         -2   -1    0    0    0  501 -0.00000000000E+00  0.00000000000E+00  0.10175407703E+04  0.10175407703E+04  0.25500000000E-02 0.  1.
          2   -1    0    0  501    0  0.00000000000E+00 -0.00000000000E+00 -0.11135388535E+04  0.11135388535E+04  0.25500000000E-02 0. -1.
    8880023    1    1    2    0    0  0.10703409329E+03 -0.81184294144E+02  0.89503801613E+03  0.11193526894E+04  0.65864270000E+03 0.  1.
    8880022    1    1    2    0    0 -0.10703409329E+03  0.81184294144E+02 -0.99103609930E+03  0.10117269344E+04  0.15294330000E+03 0.  0.
<mgrwt>
<rscale>  0 0.49865648E+03</rscale>
<asrwt>0</asrwt>
<pdfrwt beam="1">  1        2 0.17131367E+00 0.67220339E+03</pdfrwt>
<pdfrwt beam="2">  1       -2 0.15654473E+00 0.67220339E+03</pdfrwt>
<totfact> 0.58948203E+00</totfact>
</mgrwt>
</event>
<event>
 4    2  0.3388003E-007  0.7529202E+03  0.7818608E-02  0.9823794E-01
          2   -1    0    0  501    0  0.00000000000E+00  0.00000000000E+00  0.28484213048E+04  0.28484213048E+04  0.25500000000E-02 0. -1.
         -2   -1    0    0    0  501 -0.00000000000E+00 -0.00000000000E+00 -0.19673961798E+03  0.19673961800E+03  0.25500000000E-02 0.  1.
    8880023    1    1    2    0    0 -0.24084034520E+03  0.27399729457E+03  0.62003038711E+03  0.97535966521E+03  0.65864270000E+03 0.  1.
    8880022    1    1    2    0    0  0.24084034520E+03 -0.27399729457E+03  0.20316512997E+04  0.20698012576E+04  0.15294330000E+03 0.  0.
<mgrwt>
<rscale>  0 0.64101128E+03</rscale>
<asrwt>0</asrwt>
<pdfrwt beam="1">  1        2 0.43821866E+00 0.75292018E+03</pdfrwt>
<pdfrwt beam="2">  1       -2 0.30267634E-01 0.75292018E+03</pdfrwt>
<totfact> 0.22955507E+01</totfact>
</mgrwt>
</event>
<event>
 4    2  0.3388003E-007  0.7041933E+03  0.7818608E-02  0.9980231E-01
          2   -1    0    0  501    0  0.00000000000E+00  0.00000000000E+00  0.20223174973E+04  0.20223174973E+04  0.25500000000E-02 0. -1.
         -2   -1    0    0    0  501 -0.00000000000E+00 -0.00000000000E+00 -0.30632821738E+03  0.30632821739E+03  0.25500000000E-02 0.  1.
    8880023    1    1    2    0    0 -0.22486477615E+03  0.10730283469E+03  0.13019467370E+03  0.71612772967E+03  0.65864270000E+03 0.  1.
    8880022    1    1    2    0    0  0.22486477615E+03 -0.10730283469E+03  0.15857946063E+04  0.16125179851E+04  0.15294330000E+03 0.  0.
<mgrwt>
<rscale>  0 0.56525638E+03</rscale>
<asrwt>0</asrwt>
<pdfrwt beam="1">  1        2 0.31112577E+00 0.70419335E+03</pdfrwt>
<pdfrwt beam="2">  1       -2 0.47127417E-01 0.70419335E+03</pdfrwt>
<totfact> 0.28807210E+01</totfact>
</mgrwt>
</event>
<event>
 4    2  0.3388003E-007  0.7742021E+03  0.7818608E-02  0.9769637E-01
          2   -1    0    0  501    0  0.00000000000E+00  0.00000000000E+00  0.12066265002E+04  0.12066265002E+04  0.25500000000E-02 0. -1.
         -2   -1    0    0    0  501 -0.00000000000E+00 -0.00000000000E+00 -0.59903597573E+03  0.59903597573E+03  0.25500000000E-02 0.  1.
    8880023    1    1    2    0    0 -0.31100246145E+03  0.26240449366E+03 -0.27518885192E+03  0.82165549947E+03  0.65864270000E+03 0.  1.
    8880022    1    1    2    0    0  0.31100246145E+03 -0.26240449366E+03  0.88277937636E+03  0.98400697643E+03  0.15294330000E+03 0.  0.
<mgrwt>
<rscale>  0 0.67017766E+03</rscale>
<asrwt>0</asrwt>
<pdfrwt beam="1">  1        2 0.18563485E+00 0.77420208E+03</pdfrwt>
<pdfrwt beam="2">  1       -2 0.92159381E-01 0.77420208E+03</pdfrwt>
<totfact> 0.19085326E+01</totfact>
</mgrwt>
</event>
<event>
 4    2  0.3388003E-007  0.7100838E+03  0.7818608E-02  0.9957690E-01
         -2   -1    0    0    0  501 -0.00000000000E+00  0.00000000000E+00  0.26908849463E+03  0.26908849465E+03  0.25500000000E-02 0.  1.
          2   -1    0    0  501    0  0.00000000000E+00 -0.00000000000E+00 -0.96806775000E+03  0.96806775000E+03  0.25500000000E-02 0. -1.
    8880023    1    1    2    0    0 -0.26455109945E+03 -0.20530423346E+02 -0.53998027850E+03  0.89207493516E+03  0.65864270000E+03 0. -1.
    8880022    1    1    2    0    0  0.26455109945E+03  0.20530423346E+02 -0.15899897686E+03  0.34508130949E+03  0.15294330000E+03 0.  1.
<mgrwt>
<rscale>  0 0.57545028E+03</rscale>
<asrwt>0</asrwt>
<pdfrwt beam="1">  1        2 0.14893350E+00 0.71008379E+03</pdfrwt>
<pdfrwt beam="2">  1       -2 0.41398230E-01 0.71008379E+03</pdfrwt>
<totfact> 0.14811871E+02</totfact>
</mgrwt>
</event>
<event>
 4    2  0.3388003E-007  0.7637396E+03  0.7818608E-02  0.9795521E-01
          2   -1    0    0  501    0  0.00000000000E+00  0.00000000000E+00  0.40630404213E+03  0.40630404213E+03  0.25500000000E-02 0. -1.
         -2   -1    0    0    0  501 -0.00000000000E+00 -0.00000000000E+00 -0.15716550695E+04  0.15716550695E+04  0.25500000000E-02 0.  1.
    8880023    1    1    2    0    0  0.32610034195E+03 -0.20771734349E+03 -0.13276236084E+04  0.15316274285E+04  0.65864270000E+03 0.  0.
    8880022    1    1    2    0    0 -0.32610034195E+03  0.20771734349E+03  0.16227258105E+03  0.44633168314E+03  0.15294330000E+03 0. -1.
<mgrwt>
<rscale>  0 0.65603488E+03</rscale>
<asrwt>0</asrwt>
<pdfrwt beam="1">  1        2 0.62508315E-01 0.76373957E+03</pdfrwt>
<pdfrwt beam="2">  1       -2 0.24179308E+00 0.76373957E+03</pdfrwt>
<totfact> 0.57815658E+00</totfact>
</mgrwt>
</event>
<event>
 4    2  0.3388003E-007  0.8074886E+03  0.7818608E-02  0.9694832E-01
         -2   -1    0    0    0  501 -0.00000000000E+00  0.00000000000E+00  0.51246311922E+03  0.51246311922E+03  0.25500000000E-02 0.  1.
          2   -1    0    0  501    0  0.00000000000E+00 -0.00000000000E+00 -0.91115457893E+03  0.91115457893E+03  0.25500000000E-02 0. -1.
    8880023    1    1    2    0    0 -0.39993797517E+03  0.24140667413E+03 -0.28020113584E+02  0.80797456601E+03  0.65864270000E+03 0.  0.
    8880022    1    1    2    0    0  0.39993797517E+03 -0.24140667413E+03 -0.37067134613E+03  0.61564313214E+03  0.15294330000E+03 0.  0.
<mgrwt>
<rscale>  0 0.71325318E+03</rscale>
<asrwt>0</asrwt>
<pdfrwt beam="1">  1        2 0.14017763E+00 0.80748856E+03</pdfrwt>
<pdfrwt beam="2">  1       -2 0.78840480E-01 0.80748856E+03</pdfrwt>
<totfact> 0.41573305E+01</totfact>
</mgrwt>
</event>
<event>
 4    2  0.3388003E-007  0.1325645E+04  0.7818608E-02  0.9043724E-01
         -2   -1    0    0    0  501 -0.00000000000E+00  0.00000000000E+00  0.54028743434E+03  0.54028743434E+03  0.25500000000E-02 0.  1.
          2   -1    0    0  501    0  0.00000000000E+00 -0.00000000000E+00 -0.36534435227E+04  0.36534435227E+04  0.25500000000E-02 0. -1.
    8880023    1    1    2    0    0 -0.29518136231E+03  0.11119317769E+04 -0.26128851888E+04  0.29299323421E+04  0.65864270000E+03 0.  0.
    8880022    1    1    2    0    0  0.29518136231E+03 -0.11119317769E+04 -0.50027089956E+03  0.12637986149E+04  0.15294330000E+03 0.  0.
<mgrwt>
<rscale>  0 0.12822951E+04</rscale>
<asrwt>0</asrwt>
<pdfrwt beam="1">  1        2 0.56206822E+00 0.13256449E+04</pdfrwt>
<pdfrwt beam="2">  1       -2 0.83121146E-01 0.13256449E+04</pdfrwt>
<totfact> 0.79185742E-01</totfact>
</mgrwt>
</event>
<event>
 4    2  0.3915181E-007  0.6765554E+03  0.7818608E-02  0.1011343E+00
         -2   -1    0    0    0  501 -0.00000000000E+00  0.00000000000E+00  0.99254611344E+03  0.99254611344E+03  0.25500000000E-02 0.  1.
          2   -1    0    0  501    0  0.00000000000E+00 -0.00000000000E+00 -0.15999511527E+04  0.15999511527E+04  0.25500000000E-02 0. -1.
    8880023    1    1    2    0    0  0.12557508135E+03 -0.90265516592E+02  0.86835029168E+03  0.11007994367E+04  0.65864270000E+03 0.  1.
    8880022    1    1    2    0    0 -0.12557508135E+03  0.90265516592E+02 -0.14757553310E+04  0.14916978295E+04  0.15294330000E+03 0.  0.
<mgrwt>
<rscale>  0 0.50944235E+03</rscale>
<asrwt>0</asrwt>
<pdfrwt beam="1">  1        2 0.24614633E+00 0.67655537E+03</pdfrwt>
<pdfrwt beam="2">  1       -2 0.15269940E+00 0.67655537E+03</pdfrwt>
<totfact> 0.33203583E+00</totfact>
</mgrwt>
</event>
<event>
 4    2  0.3388003E-007  0.7406785E+03  0.7818608E-02  0.9857975E-01
          2   -1    0    0  501    0  0.00000000000E+00  0.00000000000E+00  0.11064503820E+04  0.11064503820E+04  0.25500000000E-02 0. -1.
         -2   -1    0    0    0  501 -0.00000000000E+00 -0.00000000000E+00 -0.84699727634E+03  0.84699727634E+03  0.25500000000E-02 0.  1.
    8880023    1    1    2    0    0 -0.18915744824E+02 -0.33828492509E+03 -0.64083969982E+03  0.97942851861E+03  0.65864270000E+03 0.  1.
    8880022    1    1    2    0    0  0.18915744824E+02  0.33828492509E+03  0.90029280543E+03  0.97401913969E+03  0.15294330000E+03 0.  0.
<mgrwt>
<rscale>  0 0.62341951E+03</rscale>
<asrwt>0</asrwt>
<pdfrwt beam="1">  1        2 0.17022314E+00 0.74067854E+03</pdfrwt>
<pdfrwt beam="2">  1       -2 0.13030727E+00 0.74067854E+03</pdfrwt>
<totfact> 0.95055078E+00</totfact>
</mgrwt>
</event>
<event>
 4    2  0.3388003E-007  0.1145241E+04  0.7818608E-02  0.9212282E-01
          2   -1    0    0  501    0  0.00000000000E+00  0.00000000000E+00  0.24869689232E+04  0.24869689232E+04  0.25500000000E-02 0. -1.
         -2   -1    0    0    0  501 -0.00000000000E+00 -0.00000000000E+00 -0.51439890605E+03  0.51439890606E+03  0.25500000000E-02 0.  1.
    8880023    1    1    2    0    0 -0.70688548588E+03  0.61488193593E+03  0.16301048676E+04  0.19921894917E+04  0.65864270000E+03 0.  0.
    8880022    1    1    2    0    0  0.70688548588E+03 -0.61488193593E+03  0.34246514953E+03  0.10091783375E+04  0.15294330000E+03 0.  0.
<mgrwt>
<rscale>  0 0.10927551E+04</rscale>
<asrwt>0</asrwt>
<pdfrwt beam="1">  1        2 0.38261061E+00 0.11452411E+04</pdfrwt>
<pdfrwt beam="2">  1       -2 0.79138292E-01 0.11452411E+04</pdfrwt>
<totfact> 0.49785284E+00</totfact>
</mgrwt>
</event>
<event>
 4    2  0.3388003E-007  0.1142756E+04  0.7818608E-02  0.9214882E-01
          2   -1    0    0  501    0  0.00000000000E+00  0.00000000000E+00  0.18863622717E+04  0.18863622717E+04  0.25500000000E-02 0. -1.
         -2   -1    0    0    0  501 -0.00000000000E+00 -0.00000000000E+00 -0.81140043320E+03  0.81140043321E+03  0.25500000000E-02 0.  1.
    8880023    1    1    2    0    0 -0.53959806431E+03 -0.76217828540E+03 -0.14706534971E+03  0.11521806426E+04  0.65864270000E+03 0.  1.
    8880022    1    1    2    0    0  0.53959806431E+03  0.76217828540E+03  0.12220271882E+04  0.15455820624E+04  0.15294330000E+03 0.  0.
<mgrwt>
<rscale>  0 0.10901137E+04</rscale>
<asrwt>0</asrwt>
<pdfrwt beam="1">  1        2 0.29020958E+00 0.11427563E+04</pdfrwt>
<pdfrwt beam="2">  1       -2 0.12483084E+00 0.11427563E+04</pdfrwt>
<totfact> 0.36471523E+00</totfact>
</mgrwt>
</event>
<event>
 4    2  0.3388003E-007  0.7078444E+03  0.7818608E-02  0.9966094E-01
         -2   -1    0    0    0  501 -0.00000000000E+00  0.00000000000E+00  0.87865101934E+03  0.87865101935E+03  0.25500000000E-02 0.  1.
          2   -1    0    0  501    0  0.00000000000E+00 -0.00000000000E+00 -0.39860940809E+03  0.39860940810E+03  0.25500000000E-02 0. -1.
    8880023    1    1    2    0    0  0.24481120680E+03  0.85445862450E+02  0.62395389046E+03  0.94359005191E+03  0.65864270000E+03 0.  1.
    8880022    1    1    2    0    0 -0.24481120680E+03 -0.85445862450E+02 -0.14391227921E+03  0.33367037553E+03  0.15294330000E+03 0. -1.
<mgrwt>
<rscale>  0 0.57162270E+03</rscale>
<asrwt>0</asrwt>
<pdfrwt beam="1">  1        2 0.61324524E-01 0.70784442E+03</pdfrwt>
<pdfrwt beam="2">  1       -2 0.13517708E+00 0.70784442E+03</pdfrwt>
<totfact> 0.31864724E+01</totfact>
</mgrwt>
</event>
<event>
 4    2  0.3388003E-007  0.9961613E+03  0.7818608E-02  0.9386597E-01
         -2   -1    0    0    0  501 -0.00000000000E+00  0.00000000000E+00  0.67280303420E+03  0.67280303421E+03  0.25500000000E-02 0.  1.
          2   -1    0    0  501    0  0.00000000000E+00 -0.00000000000E+00 -0.28133341027E+04  0.28133341027E+04  0.25500000000E-02 0. -1.
    8880023    1    1    2    0    0  0.18360678751E+03 -0.72444162391E+03  0.20728758663E+03  0.10174996161E+04  0.65864270000E+03 0.  1.
    8880022    1    1    2    0    0 -0.18360678751E+03  0.72444162391E+03 -0.23478186551E+04  0.24686375208E+04  0.15294330000E+03 0. -1.
<mgrwt>
<rscale>  0 0.93186938E+03</rscale>
<asrwt>0</asrwt>
<pdfrwt beam="1">  1        2 0.43282062E+00 0.99616129E+03</pdfrwt>
<pdfrwt beam="2">  1       -2 0.10350816E+00 0.99616129E+03</pdfrwt>
<totfact> 0.17534517E+00</totfact>
</mgrwt>
</event>
<event>
 4    2  0.3388003E-007  0.6795881E+03  0.7818608E-02  0.1009558E+00
          2   -1    0    0  501    0  0.00000000000E+00  0.00000000000E+00  0.17087477218E+04  0.17087477218E+04  0.25500000000E-02 0. -1.
         -2   -1    0    0    0  501 -0.00000000000E+00 -0.00000000000E+00 -0.66045162242E+03  0.66045162243E+03  0.25500000000E-02 0.  1.
    8880023    1    1    2    0    0  0.15809977251E+03  0.55084163742E+02 -0.47498865598E+03  0.82912859843E+03  0.65864270000E+03 0.  1.
    8880022    1    1    2    0    0 -0.15809977251E+03 -0.55084163742E+02  0.15232847554E+04  0.15400707458E+04  0.15294330000E+03 0.  0.
<mgrwt>
<rscale>  0 0.51650839E+03</rscale>
<asrwt>0</asrwt>
<pdfrwt beam="1">  1        2 0.26288426E+00 0.67958812E+03</pdfrwt>
<pdfrwt beam="2">  1       -2 0.10160795E+00 0.67958812E+03</pdfrwt>
<totfact> 0.80224951E+00</totfact>
</mgrwt>
</event>
<event>
 4    2  0.3388003E-007  0.9916722E+03  0.7818608E-02  0.9392535E-01
         -2   -1    0    0    0  501 -0.00000000000E+00  0.00000000000E+00  0.43992909602E+03  0.43992909603E+03  0.25500000000E-02 0.  1.
          2   -1    0    0  501    0  0.00000000000E+00 -0.00000000000E+00 -0.28234462343E+04  0.28234462343E+04  0.25500000000E-02 0. -1.
    8880023    1    1    2    0    0 -0.57228476345E+03 -0.47126825693E+03 -0.28395550759E+03  0.10315253545E+04  0.65864270000E+03 0.  0.
    8880022    1    1    2    0    0  0.57228476345E+03  0.47126825693E+03 -0.20995616307E+04  0.22318499758E+04  0.15294330000E+03 0.  0.
<mgrwt>
<rscale>  0 0.92692586E+03</rscale>
<asrwt>0</asrwt>
<pdfrwt beam="1">  1        2 0.43437633E+00 0.99167224E+03</pdfrwt>
<pdfrwt beam="2">  1       -2 0.67681401E-01 0.99167224E+03</pdfrwt>
<totfact> 0.45629378E+00</totfact>
</mgrwt>
</event>
<event>
 4    2  0.3388003E-007  0.7081228E+03  0.7818608E-02  0.9965039E-01
         -2   -1    0    0    0  501 -0.00000000000E+00  0.00000000000E+00  0.24586924376E+03  0.24586924378E+03  0.25500000000E-02 0.  1.
          2   -1    0    0  501    0  0.00000000000E+00 -0.00000000000E+00 -0.13383749378E+04  0.13383749378E+04  0.25500000000E-02 0. -1.
    8880023    1    1    2    0    0 -0.20011022041E+02 -0.25928210513E+03 -0.36498738174E+03  0.79665152114E+03  0.65864270000E+03 0. -1.
    8880022    1    1    2    0    0  0.20011022041E+02  0.25928210513E+03 -0.72751831233E+03  0.78759266047E+03  0.15294330000E+03 0.  0.
<mgrwt>
<rscale>  0 0.57210153E+03</rscale>
<asrwt>0</asrwt>
<pdfrwt beam="1">  1        2 0.20590383E+00 0.70812277E+03</pdfrwt>
<pdfrwt beam="2">  1       -2 0.37826038E-01 0.70812277E+03</pdfrwt>
<totfact> 0.10562496E+02</totfact>
</mgrwt>
</event>
<event>
 4    2  0.3388003E-007  0.7048813E+03  0.7818608E-02  0.9977524E-01
         -2   -1    0    0    0  501 -0.00000000000E+00  0.00000000000E+00  0.60205025086E+03  0.60205025086E+03  0.25500000000E-02 0.  1.
          2   -1    0    0  501    0  0.00000000000E+00 -0.00000000000E+00 -0.41437623668E+03  0.41437623669E+03  0.25500000000E-02 0. -1.
    8880023    1    1    2    0    0  0.12971835748E+03  0.21498988547E+03  0.12721268681E+03  0.71626864867E+03  0.65864270000E+03 0.  0.
    8880022    1    1    2    0    0 -0.12971835748E+03 -0.21498988547E+03  0.60461327368E+02  0.30015783888E+03  0.15294330000E+03 0.  1.
<mgrwt>
<rscale>  0 0.56646858E+03</rscale>
<asrwt>0</asrwt>
<pdfrwt beam="1">  1        2 0.63750190E-01 0.70488134E+03</pdfrwt>
<pdfrwt beam="2">  1       -2 0.92623115E-01 0.70488134E+03</pdfrwt>
<totfact> 0.76557292E+01</totfact>
</mgrwt>
</event>
<event>
 4    2  0.3388003E-007  0.1143246E+04  0.7818608E-02  0.9214369E-01
         -2   -1    0    0    0  501 -0.00000000000E+00  0.00000000000E+00  0.15636645513E+04  0.15636645513E+04  0.25500000000E-02 0.  1.
          2   -1    0    0  501    0  0.00000000000E+00 -0.00000000000E+00 -0.24956887963E+04  0.24956887963E+04  0.25500000000E-02 0. -1.
    8880023    1    1    2    0    0  0.86695482811E+03 -0.34869710778E+03  0.12420024758E+04  0.16880701121E+04  0.65864270000E+03 0.  1.
    8880022    1    1    2    0    0 -0.86695482811E+03  0.34869710778E+03 -0.21740267209E+04  0.23712832355E+04  0.15294330000E+03 0.  0.
<mgrwt>
<rscale>  0 0.10906340E+04</rscale>
<asrwt>0</asrwt>
<pdfrwt beam="1">  1        2 0.38395212E+00 0.11432456E+04</pdfrwt>
<pdfrwt beam="2">  1       -2 0.24056378E+00 0.11432456E+04</pdfrwt>
<totfact> 0.25356641E-01</totfact>
</mgrwt>
</event>
<event>
 4    2  0.3388003E-007  0.7230334E+03  0.7818608E-02  0.9912453E-01
         -2   -1    0    0    0  501 -0.00000000000E+00  0.00000000000E+00  0.57841564532E+03  0.57841564532E+03  0.25500000000E-02 0.  1.
          2   -1    0    0  501    0  0.00000000000E+00 -0.00000000000E+00 -0.84760486430E+03  0.84760486430E+03  0.25500000000E-02 0. -1.
    8880023    1    1    2    0    0 -0.19417887260E+03  0.22641026634E+03  0.28595540060E+03  0.77752668164E+03  0.65864270000E+03 0.  1.
    8880022    1    1    2    0    0  0.19417887260E+03 -0.22641026634E+03 -0.55514461958E+03  0.64849382798E+03  0.15294330000E+03 0.  0.
<mgrwt>
<rscale>  0 0.59661558E+03</rscale>
<asrwt>0</asrwt>
<pdfrwt beam="1">  1        2 0.13040075E+00 0.72303337E+03</pdfrwt>
<pdfrwt beam="2">  1       -2 0.88987022E-01 0.72303337E+03</pdfrwt>
<totfact> 0.35145635E+01</totfact>
</mgrwt>
</event>
<event>
 4    2  0.3388003E-007  0.6946640E+03  0.7818608E-02  0.1002010E+00
          2   -1    0    0  501    0  0.00000000000E+00  0.00000000000E+00  0.29910496312E+03  0.29910496313E+03  0.25500000000E-02 0. -1.
         -2   -1    0    0    0  501 -0.00000000000E+00 -0.00000000000E+00 -0.11227284976E+04  0.11227284976E+04  0.25500000000E-02 0.  1.
    8880023    1    1    2    0    0 -0.19138013776E+03  0.11009765611E+03 -0.90529434949E+03  0.11411029386E+04  0.65864270000E+03 0.  1.
    8880022    1    1    2    0    0  0.19138013776E+03 -0.11009765611E+03  0.81670815016E+02  0.28073052212E+03  0.15294330000E+03 0.  0.
<mgrwt>
<rscale>  0 0.54777566E+03</rscale>
<asrwt>0</asrwt>
<pdfrwt beam="1">  1        2 0.46016149E-01 0.69466399E+03</pdfrwt>
<pdfrwt beam="2">  1       -2 0.17272746E+00 0.69466399E+03</pdfrwt>
<totfact> 0.22868790E+01</totfact>
</mgrwt>
</event>
<event>
 4    2  0.3388003E-007  0.6666655E+03  0.7818608E-02  0.1018175E+00
         -2   -1    0    0    0  501 -0.00000000000E+00  0.00000000000E+00  0.93850336217E+02  0.93850336252E+02  0.25500000000E-02 0.  1.
          2   -1    0    0  501    0  0.00000000000E+00 -0.00000000000E+00 -0.29525077056E+04  0.29525077056E+04  0.25500000000E-02 0. -1.
    8880023    1    1    2    0    0 -0.93870120492E+02 -0.42674815711E+02 -0.11616531869E+04  0.13393584555E+04  0.65864270000E+03 0.  1.
    8880022    1    1    2    0    0  0.93870120492E+02  0.42674815711E+02 -0.16970041825E+04  0.17069995864E+04  0.15294330000E+03 0.  0.
<mgrwt>
<rscale>  0 0.48350927E+03</rscale>
<asrwt>0</asrwt>
<pdfrwt beam="1">  1        2 0.45423188E+00 0.66666554E+03</pdfrwt>
<pdfrwt beam="2">  1       -2 0.14438516E-01 0.66666554E+03</pdfrwt>
<totfact> 0.74259725E+01</totfact>
</mgrwt>
</event>
<event>
 4    2  0.3388003E-007  0.1220248E+04  0.7818608E-02  0.9137687E-01
          2   -1    0    0  501    0  0.00000000000E+00  0.00000000000E+00  0.23188484942E+04  0.23188484942E+04  0.25500000000E-02 0. -1.
         -2   -1    0    0    0  501 -0.00000000000E+00 -0.00000000000E+00 -0.57086926817E+03  0.57086926818E+03  0.25500000000E-02 0.  1.
    8880023    1    1    2    0    0  0.10049147958E+04  0.21293602225E+03  0.66684171347E+03  0.13905695141E+04  0.65864270000E+03 0.  1.
    8880022    1    1    2    0    0 -0.10049147958E+04 -0.21293602225E+03  0.10811375125E+04  0.14991482483E+04  0.15294330000E+03 0. -1.
<mgrwt>
<rscale>  0 0.11720416E+04</rscale>
<asrwt>0</asrwt>
<pdfrwt beam="1">  1        2 0.35674593E+00 0.12202482E+04</pdfrwt>
<pdfrwt beam="2">  1       -2 0.87826039E-01 0.12202482E+04</pdfrwt>
<totfact> 0.48516411E+00</totfact>
</mgrwt>
</event>
<event>
 4    2  0.3388003E-007  0.6921227E+03  0.7818608E-02  0.1003160E+00
         -2   -1    0    0    0  501 -0.00000000000E+00  0.00000000000E+00  0.27481249120E+03  0.27481249122E+03  0.25500000000E-02 0.  1.
          2   -1    0    0  501    0  0.00000000000E+00 -0.00000000000E+00 -0.10200304185E+04  0.10200304185E+04  0.25500000000E-02 0. -1.
    8880023    1    1    2    0    0 -0.78486573684E+01  0.21251344799E+03 -0.25235159818E+03  0.73669199966E+03  0.65864270000E+03 0.  0.
    8880022    1    1    2    0    0  0.78486573684E+01 -0.21251344799E+03 -0.49286632907E+03  0.55815091001E+03  0.15294330000E+03 0.  0.
<mgrwt>
<rscale>  0 0.54286252E+03</rscale>
<asrwt>0</asrwt>
<pdfrwt beam="1">  1        2 0.15692775E+00 0.69212266E+03</pdfrwt>
<pdfrwt beam="2">  1       -2 0.42278845E-01 0.69212266E+03</pdfrwt>
<totfact> 0.13183208E+02</totfact>
</mgrwt>
</event>
<event>
 4    2  0.3388003E-007  0.9852681E+03  0.7818608E-02  0.9401090E-01
         -2   -1    0    0    0  501 -0.00000000000E+00  0.00000000000E+00  0.42816101359E+03  0.42816101359E+03  0.25500000000E-02 0.  1.
          2   -1    0    0  501    0  0.00000000000E+00 -0.00000000000E+00 -0.51915518537E+04  0.51915518537E+04  0.25500000000E-02 0. -1.
    8880023    1    1    2    0    0 -0.51979483026E+03 -0.51648465852E+03 -0.21282699793E+03  0.10079923637E+04  0.65864270000E+03 0.  0.
    8880022    1    1    2    0    0  0.51979483026E+03  0.51648465852E+03 -0.45505638422E+04  0.46117205036E+04  0.15294330000E+03 0.  0.
<mgrwt>
<rscale>  0 0.91986007E+03</rscale>
<asrwt>0</asrwt>
<pdfrwt beam="1">  1        2 0.79870024E+00 0.98526812E+03</pdfrwt>
<pdfrwt beam="2">  1       -2 0.65870929E-01 0.98526812E+03</pdfrwt>
<totfact> 0.45158668E-02</totfact>
</mgrwt>
</event>
<event>
 4    2  0.3388003E-007  0.6859719E+03  0.7818608E-02  0.1006129E+00
          2   -1    0    0  501    0  0.00000000000E+00  0.00000000000E+00  0.15536238971E+04  0.15536238971E+04  0.25500000000E-02 0. -1.
         -2   -1    0    0    0  501 -0.00000000000E+00 -0.00000000000E+00 -0.25238177232E+03  0.25238177233E+03  0.25500000000E-02 0.  1.
    8880023    1    1    2    0    0 -0.11002248655E+03  0.15697866197E+03  0.25568445674E+03  0.73207376373E+03  0.65864270000E+03 0.  1.
    8880022    1    1    2    0    0  0.11002248655E+03 -0.15697866197E+03  0.10455576680E+04  0.10739319057E+04  0.15294330000E+03 0.  0.
<mgrwt>
<rscale>  0 0.53042524E+03</rscale>
<asrwt>0</asrwt>
<pdfrwt beam="1">  1        2 0.23901906E+00 0.68597190E+03</pdfrwt>
<pdfrwt beam="2">  1       -2 0.38827965E-01 0.68597190E+03</pdfrwt>
<totfact> 0.76238173E+01</totfact>
</mgrwt>
</event>
<event>
 4    2  0.3388003E-007  0.9085277E+03  0.7818608E-02  0.9512478E-01
          2   -1    0    0  501    0  0.00000000000E+00  0.00000000000E+00  0.10369153100E+04  0.10369153100E+04  0.25500000000E-02 0. -1.
         -2   -1    0    0    0  501 -0.00000000000E+00 -0.00000000000E+00 -0.15357696138E+04  0.15357696138E+04  0.25500000000E-02 0.  1.
    8880023    1    1    2    0    0 -0.62444999219E+03 -0.40920897486E+02 -0.12740131444E+04  0.15647785821E+04  0.65864270000E+03 0.  1.
    8880022    1    1    2    0    0  0.62444999219E+03  0.40920897486E+02  0.77515884058E+03  0.10079063418E+04  0.15294330000E+03 0.  0.
<mgrwt>
<rscale>  0 0.83370067E+03</rscale>
<asrwt>0</asrwt>
<pdfrwt beam="1">  1        2 0.15952543E+00 0.90852767E+03</pdfrwt>
<pdfrwt beam="2">  1       -2 0.23627225E+00 0.90852767E+03</pdfrwt>
<totfact> 0.18772566E+00</totfact>
</mgrwt>
</event>
<event>
 4    2  0.3388003E-007  0.7863287E+03  0.7818608E-02  0.9741175E-01
          2   -1    0    0  501    0  0.00000000000E+00  0.00000000000E+00  0.11161257629E+04  0.11161257629E+04  0.25500000000E-02 0. -1.
         -2   -1    0    0    0  501 -0.00000000000E+00 -0.00000000000E+00 -0.54522455053E+03  0.54522455053E+03  0.25500000000E-02 0.  1.
    8880023    1    1    2    0    0 -0.15084358765E+03  0.40218018153E+03 -0.15756198231E+03  0.80195927009E+03  0.65864270000E+03 0.  0.
    8880022    1    1    2    0    0  0.15084358765E+03 -0.40218018153E+03  0.72846319463E+03  0.85939104330E+03  0.15294330000E+03 0.  0.
<mgrwt>
<rscale>  0 0.68617272E+03</rscale>
<asrwt>0</asrwt>
<pdfrwt beam="1">  1        2 0.17171165E+00 0.78632874E+03</pdfrwt>
<pdfrwt beam="2">  1       -2 0.83880702E-01 0.78632874E+03</pdfrwt>
<totfact> 0.26811512E+01</totfact>
</mgrwt>
</event>
<event>
 4    2  0.3610188E-007  0.9311162E+03  0.7818608E-02  0.9477821E-01
          2   -1    0    0  501    0  0.00000000000E+00  0.00000000000E+00  0.17554753932E+04  0.17554753932E+04  0.25500000000E-02 0. -1.
         -2   -1    0    0    0  501 -0.00000000000E+00 -0.00000000000E+00 -0.12003024373E+04  0.12003024373E+04  0.25500000000E-02 0.  1.
    8880023    1    1    2    0    0 -0.65748391545E+03 -0.29699769149E+02 -0.93501498815E+03  0.13195568990E+04  0.65864270000E+03 0.  0.
    8880022    1    1    2    0    0  0.65748391545E+03  0.29699769149E+02  0.14901879440E+04  0.16362209316E+04  0.15294330000E+03 0.  0.
<mgrwt>
<rscale>  0 0.85938943E+03</rscale>
<asrwt>0</asrwt>
<pdfrwt beam="1">  1        2 0.27007314E+00 0.93111620E+03</pdfrwt>
<pdfrwt beam="2">  1       -2 0.18466191E+00 0.93111620E+03</pdfrwt>
<totfact> 0.15462084E+00</totfact>
</mgrwt>
</event>
<event>
 4    2  0.3388003E-007  0.8117122E+03  0.7818608E-02  0.9686021E-01
          2   -1    0    0  501    0  0.00000000000E+00  0.00000000000E+00  0.26011637821E+04  0.26011637821E+04  0.25500000000E-02 0. -1.
         -2   -1    0    0    0  501 -0.00000000000E+00 -0.00000000000E+00 -0.29488663404E+03  0.29488663405E+03  0.25500000000E-02 0.  1.
    8880023    1    1    2    0    0 -0.25749081647E+03 -0.39845328866E+03  0.36178556499E+03  0.88868754077E+03  0.65864270000E+03 0.  0.
    8880022    1    1    2    0    0  0.25749081647E+03  0.39845328866E+03  0.19444915830E+04  0.20073628753E+04  0.15294330000E+03 0.  0.
<mgrwt>
<rscale>  0 0.71855205E+03</rscale>
<asrwt>0</asrwt>
<pdfrwt beam="1">  1        2 0.40017903E+00 0.81171223E+03</pdfrwt>
<pdfrwt beam="2">  1       -2 0.45367176E-01 0.81171223E+03</pdfrwt>
<totfact> 0.14558441E+01</totfact>
</mgrwt>
</event>
<event>
 4    2  0.3388003E-007  0.8619289E+03  0.7818608E-02  0.9590141E-01
          2   -1    0    0  501    0  0.00000000000E+00  0.00000000000E+00  0.20060739310E+04  0.20060739310E+04  0.25500000000E-02 0. -1.
         -2   -1    0    0    0  501 -0.00000000000E+00 -0.00000000000E+00 -0.47919145392E+03  0.47919145392E+03  0.25500000000E-02 0.  1.
    8880023    1    1    2    0    0 -0.51040882177E+03  0.22044073328E+03  0.94670742965E+01  0.86198092438E+03  0.65864270000E+03 0.  1.
    8880022    1    1    2    0    0  0.51040882177E+03 -0.22044073328E+03  0.15174154027E+04  0.16232844605E+04  0.15294330000E+03 0. -1.
<mgrwt>
<rscale>  0 0.77952138E+03</rscale>
<asrwt>0</asrwt>
<pdfrwt beam="1">  1        2 0.30862676E+00 0.86192893E+03</pdfrwt>
<pdfrwt beam="2">  1       -2 0.73721761E-01 0.86192893E+03</pdfrwt>
<totfact> 0.11209904E+01</totfact>
</mgrwt>
</event>
<event>
 4    2  0.3388003E-007  0.6849930E+03  0.7818608E-02  0.1006629E+00
          2   -1    0    0  501    0  0.00000000000E+00  0.00000000000E+00  0.17615303557E+04  0.17615303557E+04  0.25500000000E-02 0. -1.
         -2   -1    0    0    0  501 -0.00000000000E+00 -0.00000000000E+00 -0.28381803450E+03  0.28381803451E+03  0.25500000000E-02 0.  1.
    8880023    1    1    2    0    0 -0.17892535002E+03  0.58231378602E+02  0.15725501920E+03  0.70281186790E+03  0.65864270000E+03 0.  1.
    8880022    1    1    2    0    0  0.17892535002E+03 -0.58231378602E+02  0.13204573020E+04  0.13425365223E+04  0.15294330000E+03 0.  0.
<mgrwt>
<rscale>  0 0.52836474E+03</rscale>
<asrwt>0</asrwt>
<pdfrwt beam="1">  1        2 0.27100467E+00 0.68499298E+03</pdfrwt>
<pdfrwt beam="2">  1       -2 0.43664313E-01 0.68499298E+03</pdfrwt>
<totfact> 0.46621398E+01</totfact>
</mgrwt>
</event>
<event>
 4    2  0.3388003E-007  0.9322220E+03  0.7818608E-02  0.9476168E-01
         -2   -1    0    0    0  501 -0.00000000000E+00  0.00000000000E+00  0.11724754987E+04  0.11724754987E+04  0.25500000000E-02 0.  1.
          2   -1    0    0  501    0  0.00000000000E+00 -0.00000000000E+00 -0.98389452167E+03  0.98389452167E+03  0.25500000000E-02 0. -1.
    8880023    1    1    2    0    0 -0.65899734670E+03  0.30824734559E+02  0.81171480393E+03  0.12360901247E+04  0.65864270000E+03 0.  1.
    8880022    1    1    2    0    0  0.65899734670E+03 -0.30824734559E+02 -0.62313382687E+03  0.92027989570E+03  0.15294330000E+03 0.  0.
<mgrwt>
<rscale>  0 0.86063907E+03</rscale>
<asrwt>0</asrwt>
<pdfrwt beam="1">  1        2 0.15136839E+00 0.93222201E+03</pdfrwt>
<pdfrwt beam="2">  1       -2 0.18038085E+00 0.93222201E+03</pdfrwt>
<totfact> 0.46431640E+00</totfact>
</mgrwt>
</event>
<event>
 4    2  0.3388003E-007  0.7425446E+03  0.7818608E-02  0.9852596E-01
          2   -1    0    0  501    0  0.00000000000E+00  0.00000000000E+00  0.12522104944E+04  0.12522104944E+04  0.25500000000E-02 0. -1.
         -2   -1    0    0    0  501 -0.00000000000E+00 -0.00000000000E+00 -0.12615060423E+04  0.12615060423E+04  0.25500000000E-02 0.  1.
    8880023    1    1    2    0    0  0.27503276751E+03 -0.20474194479E+03 -0.11185875486E+04  0.13426133462E+04  0.65864270000E+03 0.  0.
    8880022    1    1    2    0    0 -0.27503276751E+03  0.20474194479E+03  0.11092920007E+04  0.11711031906E+04  0.15294330000E+03 0.  0.
<mgrwt>
<rscale>  0 0.62614737E+03</rscale>
<asrwt>0</asrwt>
<pdfrwt beam="1">  1        2 0.19264777E+00 0.74254461E+03</pdfrwt>
<pdfrwt beam="2">  1       -2 0.19407785E+00 0.74254461E+03</pdfrwt>
<totfact> 0.26393650E+00</totfact>
</mgrwt>
</event>
<event>
 4    2  0.3388003E-007  0.8403113E+03  0.7818608E-02  0.9629594E-01
          2   -1    0    0  501    0  0.00000000000E+00  0.00000000000E+00  0.85105154026E+03  0.85105154027E+03  0.25500000000E-02 0. -1.
         -2   -1    0    0    0  501 -0.00000000000E+00 -0.00000000000E+00 -0.77330210940E+03  0.77330210941E+03  0.25500000000E-02 0.  1.
    8880023    1    1    2    0    0  0.43745360235E+03  0.28451224918E+03 -0.37171845238E+03  0.91885672890E+03  0.65864270000E+03 0.  1.
    8880022    1    1    2    0    0 -0.43745360235E+03 -0.28451224918E+03  0.44946788324E+03  0.70549692077E+03  0.15294330000E+03 0.  0.
<mgrwt>
<rscale>  0 0.75368071E+03</rscale>
<asrwt>0</asrwt>
<pdfrwt beam="1">  1        2 0.13093101E+00 0.84031130E+03</pdfrwt>
<pdfrwt beam="2">  1       -2 0.11896956E+00 0.84031130E+03</pdfrwt>
<totfact> 0.17298744E+01</totfact>
</mgrwt>
</event>
<event>
 4    2  0.3388003E-007  0.8840016E+03  0.7818608E-02  0.9552218E-01
          2   -1    0    0  501    0  0.00000000000E+00  0.00000000000E+00  0.20879221063E+04  0.20879221063E+04  0.25500000000E-02 0. -1.
         -2   -1    0    0    0  501 -0.00000000000E+00 -0.00000000000E+00 -0.57392703326E+03  0.57392703326E+03  0.25500000000E-02 0.  1.
    8880023    1    1    2    0    0  0.32780380886E+03  0.49009525372E+03 -0.14386084787E+03  0.89563097570E+03  0.65864270000E+03 0.  1.
    8880022    1    1    2    0    0 -0.32780380886E+03 -0.49009525372E+03  0.16578559209E+04  0.17662181638E+04  0.15294330000E+03 0.  0.
<mgrwt>
<rscale>  0 0.80541079E+03</rscale>
<asrwt>0</asrwt>
<pdfrwt beam="1">  1        2 0.32121879E+00 0.88400164E+03</pdfrwt>
<pdfrwt beam="2">  1       -2 0.88296466E-01 0.88400164E+03</pdfrwt>
<totfact> 0.67067469E+00</totfact>
</mgrwt>
</event>
<event>
 4    2  0.3388003E-007  0.7381346E+03  0.7818608E-02  0.9865415E-01
          2   -1    0    0  501    0  0.00000000000E+00  0.00000000000E+00  0.33961412490E+03  0.33961412491E+03  0.25500000000E-02 0. -1.
         -2   -1    0    0    0  501 -0.00000000000E+00 -0.00000000000E+00 -0.93797028367E+03  0.93797028368E+03  0.25500000000E-02 0.  1.
    8880023    1    1    2    0    0  0.29147294890E+03  0.16148051411E+03 -0.51933895340E+03  0.90252733541E+03  0.65864270000E+03 0.  0.
    8880022    1    1    2    0    0 -0.29147294890E+03 -0.16148051411E+03 -0.79017205371E+02  0.37505707317E+03  0.15294330000E+03 0.  1.
<mgrwt>
<rscale>  0 0.61967118E+03</rscale>
<asrwt>0</asrwt>
<pdfrwt beam="1">  1        2 0.52248327E-01 0.73813457E+03</pdfrwt>
<pdfrwt beam="2">  1       -2 0.14430312E+00 0.73813457E+03</pdfrwt>
<totfact> 0.32122399E+01</totfact>
</mgrwt>
</event>
<event>
 4    2  0.3388003E-007  0.1116894E+04  0.7818608E-02  0.9242476E-01
         -2   -1    0    0    0  501 -0.00000000000E+00  0.00000000000E+00  0.58867468896E+03  0.58867468897E+03  0.25500000000E-02 0.  1.
          2   -1    0    0  501    0  0.00000000000E+00 -0.00000000000E+00 -0.23178883417E+04  0.23178883417E+04  0.25500000000E-02 0. -1.
    8880023    1    1    2    0    0  0.47918380084E+03  0.76421484137E+03 -0.21497243623E+03  0.11373938603E+04  0.65864270000E+03 0.  0.
    8880022    1    1    2    0    0 -0.47918380084E+03 -0.76421484137E+03 -0.15142412165E+04  0.17691691704E+04  0.15294330000E+03 0.  0.
<mgrwt>
<rscale>  0 0.10625557E+04</rscale>
<asrwt>0</asrwt>
<pdfrwt beam="1">  1        2 0.35659820E+00 0.11168937E+04</pdfrwt>
<pdfrwt beam="2">  1       -2 0.90565338E-01 0.11168937E+04</pdfrwt>
<totfact> 0.45755265E+00</totfact>
</mgrwt>
</event>
<event>
 4    2  0.3388003E-007  0.7010380E+03  0.7818608E-02  0.9992922E-01
         -2   -1    0    0    0  501 -0.00000000000E+00  0.00000000000E+00  0.14274956756E+04  0.14274956756E+04  0.25500000000E-02 0.  1.
          2   -1    0    0  501    0  0.00000000000E+00 -0.00000000000E+00 -0.83749634937E+03  0.83749634937E+03  0.25500000000E-02 0. -1.
    8880023    1    1    2    0    0  0.37207120239E+02 -0.23719119937E+03  0.13127454681E+04  0.14882052631E+04  0.65864270000E+03 0.  0.
    8880022    1    1    2    0    0 -0.37207120239E+02  0.23719119937E+03 -0.72274614186E+03  0.77678676188E+03  0.15294330000E+03 0. -1.
<mgrwt>
<rscale>  0 0.55961674E+03</rscale>
<asrwt>0</asrwt>
<pdfrwt beam="1">  1        2 0.12884559E+00 0.70103797E+03</pdfrwt>
<pdfrwt beam="2">  1       -2 0.21961472E+00 0.70103797E+03</pdfrwt>
<totfact> 0.33262410E+00</totfact>
</mgrwt>
</event>
<event>
 4    2  0.3388003E-007  0.9796213E+03  0.7818608E-02  0.9408719E-01
         -2   -1    0    0    0  501 -0.00000000000E+00  0.00000000000E+00  0.99948584851E+03  0.99948584851E+03  0.25500000000E-02 0.  1.
          2   -1    0    0  501    0  0.00000000000E+00 -0.00000000000E+00 -0.15874600906E+04  0.15874600906E+04  0.25500000000E-02 0. -1.
    8880023    1    1    2    0    0  0.34743650577E+03  0.63650259351E+03  0.62749259054E+03  0.11633592887E+04  0.65864270000E+03 0.  1.
    8880022    1    1    2    0    0 -0.34743650577E+03 -0.63650259351E+03 -0.12154668326E+04  0.14235866504E+04  0.15294330000E+03 0.  0.
<mgrwt>
<rscale>  0 0.91361636E+03</rscale>
<asrwt>0</asrwt>
<pdfrwt beam="1">  1        2 0.24422463E+00 0.97962130E+03</pdfrwt>
<pdfrwt beam="2">  1       -2 0.15376705E+00 0.97962130E+03</pdfrwt>
<totfact> 0.31651873E+00</totfact>
</mgrwt>
</event>
<event>
 4    2  0.3388003E-007  0.8982329E+03  0.7818608E-02  0.9528874E-01
         -2   -1    0    0    0  501 -0.00000000000E+00  0.00000000000E+00  0.88797504015E+03  0.88797504016E+03  0.25500000000E-02 0.  1.
          2   -1    0    0  501    0  0.00000000000E+00 -0.00000000000E+00 -0.14088331373E+04  0.14088331373E+04  0.25500000000E-02 0. -1.
    8880023    1    1    2    0    0  0.37052403781E+03  0.48551425541E+03  0.55096212811E+03  0.10537464722E+04  0.65864270000E+03 0.  0.
    8880022    1    1    2    0    0 -0.37052403781E+03 -0.48551425541E+03 -0.10718202253E+04  0.12430617053E+04  0.15294330000E+03 0.  0.
<mgrwt>
<rscale>  0 0.82188102E+03</rscale>
<asrwt>0</asrwt>
<pdfrwt beam="1">  1        2 0.21674356E+00 0.89823291E+03</pdfrwt>
<pdfrwt beam="2">  1       -2 0.13661154E+00 0.89823291E+03</pdfrwt>
<totfact> 0.54965011E+00</totfact>
</mgrwt>
</event>
<event>
 4    2  0.3388003E-007  0.8856692E+03  0.7818608E-02  0.9549440E-01
         -2   -1    0    0    0  501 -0.00000000000E+00  0.00000000000E+00  0.47169260596E+03  0.47169260596E+03  0.25500000000E-02 0.  1.
          2   -1    0    0  501    0  0.00000000000E+00 -0.00000000000E+00 -0.19224112287E+04  0.19224112287E+04  0.25500000000E-02 0. -1.
    8880023    1    1    2    0    0 -0.65480119010E+02 -0.58848279599E+03 -0.75308802565E+02  0.88886515804E+03  0.65864270000E+03 0.  1.
    8880022    1    1    2    0    0  0.65480119010E+02  0.58848279599E+03 -0.13754098202E+04  0.15052386767E+04  0.15294330000E+03 0.  0.
<mgrwt>
<rscale>  0 0.80734903E+03</rscale>
<asrwt>0</asrwt>
<pdfrwt beam="1">  1        2 0.29575557E+00 0.88566916E+03</pdfrwt>
<pdfrwt beam="2">  1       -2 0.72568095E-01 0.88566916E+03</pdfrwt>
<totfact> 0.12861962E+01</totfact>
</mgrwt>
</event>
<event>
 4    2  0.3388003E-007  0.1379192E+04  0.7818608E-02  0.9000022E-01
         -2   -1    0    0    0  501 -0.00000000000E+00  0.00000000000E+00  0.10238305995E+04  0.10238305995E+04  0.25500000000E-02 0.  1.
          2   -1    0    0  501    0  0.00000000000E+00 -0.00000000000E+00 -0.28592969459E+04  0.28592969459E+04  0.25500000000E-02 0. -1.
    8880023    1    1    2    0    0  0.75273931004E+03  0.94960242691E+03  0.31070243868E+03  0.14137565030E+04  0.65864270000E+03 0.  0.
    8880022    1    1    2    0    0 -0.75273931004E+03 -0.94960242691E+03 -0.21461687851E+04  0.24693710424E+04  0.15294330000E+03 0.  0.
<mgrwt>
<rscale>  0 0.13379218E+04</rscale>
<asrwt>0</asrwt>
<pdfrwt beam="1">  1        2 0.43989184E+00 0.13791923E+04</pdfrwt>
<pdfrwt beam="2">  1       -2 0.15751240E+00 0.13791923E+04</pdfrwt>
<totfact> 0.53654310E-01</totfact>
</mgrwt>
</event>
<event>
 4    2  0.3388003E-007  0.7713590E+03  0.7818608E-02  0.9776541E-01
         -2   -1    0    0    0  501 -0.00000000000E+00  0.00000000000E+00  0.47924733114E+03  0.47924733114E+03  0.25500000000E-02 0.  1.
          2   -1    0    0  501    0  0.00000000000E+00 -0.00000000000E+00 -0.13340836116E+04  0.13340836117E+04  0.25500000000E-02 0. -1.
    8880023    1    1    2    0    0 -0.38789495553E+03 -0.10354739191E+03  0.88841875442E+02  0.77645839810E+03  0.65864270000E+03 0.  0.
    8880022    1    1    2    0    0  0.38789495553E+03  0.10354739191E+03 -0.94367815595E+03  0.10368725447E+04  0.15294330000E+03 0.  0.
<mgrwt>
<rscale>  0 0.66636840E+03</rscale>
<asrwt>0</asrwt>
<pdfrwt beam="1">  1        2 0.20524363E+00 0.77135904E+03</pdfrwt>
<pdfrwt beam="2">  1       -2 0.73730359E-01 0.77135904E+03</pdfrwt>
<totfact> 0.26673836E+01</totfact>
</mgrwt>
</event>
<event>
 4    2  0.3388003E-007  0.6705833E+03  0.7818608E-02  0.1015248E+00
          2   -1    0    0  501    0  0.00000000000E+00  0.00000000000E+00  0.17650393118E+03  0.17650393120E+03  0.25500000000E-02 0. -1.
         -2   -1    0    0    0  501 -0.00000000000E+00 -0.00000000000E+00 -0.16204639592E+04  0.16204639592E+04  0.25500000000E-02 0.  1.
    8880023    1    1    2    0    0 -0.84583276417E+01 -0.12569900061E+03 -0.14512438264E+04  0.15986840313E+04  0.65864270000E+03 0.  1.
    8880022    1    1    2    0    0  0.84583276417E+01  0.12569900061E+03  0.72837983325E+01  0.19828385914E+03  0.15294330000E+03 0.  0.
<mgrwt>
<rscale>  0 0.49441097E+03</rscale>
<asrwt>0</asrwt>
<pdfrwt beam="1">  1        2 0.27154452E-01 0.67058332E+03</pdfrwt>
<pdfrwt beam="2">  1       -2 0.24930214E+00 0.67058332E+03</pdfrwt>
<totfact> 0.13379554E+01</totfact>
</mgrwt>
</event>
<event>
 4    2  0.3388003E-007  0.1214599E+04  0.7818608E-02  0.9143061E-01
         -2   -1    0    0    0  501 -0.00000000000E+00  0.00000000000E+00  0.10571474426E+04  0.10571474426E+04  0.25500000000E-02 0.  1.
          2   -1    0    0  501    0  0.00000000000E+00 -0.00000000000E+00 -0.23703060113E+04  0.23703060113E+04  0.25500000000E-02 0. -1.
    8880023    1    1    2    0    0  0.10013735666E+04  0.19669865361E+03  0.52204073990E+03  0.13220348409E+04  0.65864270000E+03 0.  0.
    8880022    1    1    2    0    0 -0.10013735666E+04 -0.19669865361E+03 -0.18351993086E+04  0.21054186129E+04  0.15294330000E+03 0.  0.
<mgrwt>
<rscale>  0 0.11660969E+04</rscale>
<asrwt>0</asrwt>
<pdfrwt beam="1">  1        2 0.36466246E+00 0.12145985E+04</pdfrwt>
<pdfrwt beam="2">  1       -2 0.16263807E+00 0.12145985E+04</pdfrwt>
<totfact> 0.96962067E-01</totfact>
</mgrwt>
</event>
<event>
 4    2  0.3388003E-007  0.6966922E+03  0.7818608E-02  0.1001121E+00
         -2   -1    0    0    0  501 -0.00000000000E+00  0.00000000000E+00  0.43584016153E+03  0.43584016153E+03  0.25500000000E-02 0.  1.
          2   -1    0    0  501    0  0.00000000000E+00 -0.00000000000E+00 -0.14303973915E+04  0.14303973915E+04  0.25500000000E-02 0. -1.
    8880023    1    1    2    0    0 -0.22204105056E+03  0.47619361749E+02  0.13009834322E+03  0.70873522342E+03  0.65864270000E+03 0.  1.
    8880022    1    1    2    0    0  0.22204105056E+03 -0.47619361749E+02 -0.11246555732E+04  0.11575023296E+04  0.15294330000E+03 0.  0.
<mgrwt>
<rscale>  0 0.55161427E+03</rscale>
<asrwt>0</asrwt>
<pdfrwt beam="1">  1        2 0.22006113E+00 0.69669221E+03</pdfrwt>
<pdfrwt beam="2">  1       -2 0.67052333E-01 0.69669221E+03</pdfrwt>
<totfact> 0.29193058E+01</totfact>
</mgrwt>
</event>
<event>
 4    2  0.3388003E-007  0.6664364E+03  0.7818608E-02  0.1018358E+00
         -2   -1    0    0    0  501 -0.00000000000E+00  0.00000000000E+00  0.31192566557E+03  0.31192566558E+03  0.25500000000E-02 0.  1.
          2   -1    0    0  501    0  0.00000000000E+00 -0.00000000000E+00 -0.21027414215E+04  0.21027414215E+04  0.25500000000E-02 0. -1.
    8880023    1    1    2    0    0 -0.98476587273E+02  0.25092981248E+02 -0.54492054599E+02  0.66866051643E+03  0.65864270000E+03 0.  1.
    8880022    1    1    2    0    0  0.98476587273E+02 -0.25092981248E+02 -0.17363237013E+04  0.17460065706E+04  0.15294330000E+03 0.  0.
<mgrwt>
<rscale>  0 0.48284006E+03</rscale>
<asrwt>0</asrwt>
<pdfrwt beam="1">  1        2 0.32349867E+00 0.66643642E+03</pdfrwt>
<pdfrwt beam="2">  1       -2 0.47988565E-01 0.66643642E+03</pdfrwt>
<totfact> 0.25248833E+01</totfact>
</mgrwt>
</event>
<event>
 4    2  0.3388003E-007  0.9964977E+03  0.7818608E-02  0.9386154E-01
          2   -1    0    0  501    0  0.00000000000E+00  0.00000000000E+00  0.85759492317E+03  0.85759492318E+03  0.25500000000E-02 0. -1.
         -2   -1    0    0    0  501 -0.00000000000E+00 -0.00000000000E+00 -0.21292572360E+04  0.21292572360E+04  0.25500000000E-02 0.  1.
    8880023    1    1    2    0    0 -0.55956047809E+03 -0.49607412364E+03 -0.18007828231E+04  0.20581123504E+04  0.65864270000E+03 0.  0.
    8880022    1    1    2    0    0  0.55956047809E+03  0.49607412364E+03  0.52912051032E+03  0.92873980869E+03  0.15294330000E+03 0.  0.
<mgrwt>
<rscale>  0 0.93223955E+03</rscale>
<asrwt>0</asrwt>
<pdfrwt beam="1">  1        2 0.13193768E+00 0.99649770E+03</pdfrwt>
<pdfrwt beam="2">  1       -2 0.32757803E+00 0.99649770E+03</pdfrwt>
<totfact> 0.67989656E-01</totfact>
</mgrwt>
</event>
<event>
 4    2  0.3388003E-007  0.6930677E+03  0.7818608E-02  0.1002727E+00
          2   -1    0    0  501    0  0.00000000000E+00  0.00000000000E+00  0.15872220073E+04  0.15872220073E+04  0.25500000000E-02 0. -1.
         -2   -1    0    0    0  501 -0.00000000000E+00 -0.00000000000E+00 -0.21906429470E+03  0.21906429472E+03  0.25500000000E-02 0.  1.
    8880023    1    1    2    0    0  0.16841412381E+03 -0.13479356308E+03  0.39475490291E+03  0.79760532934E+03  0.65864270000E+03 0.  1.
    8880022    1    1    2    0    0 -0.16841412381E+03  0.13479356308E+03  0.97340280971E+03  0.10086809727E+04  0.15294330000E+03 0.  0.
<mgrwt>
<rscale>  0 0.54470359E+03</rscale>
<asrwt>0</asrwt>
<pdfrwt beam="1">  1        2 0.24418800E+00 0.69306769E+03</pdfrwt>
<pdfrwt beam="2">  1       -2 0.33702199E-01 0.69306769E+03</pdfrwt>
<totfact> 0.95709832E+01</totfact>
</mgrwt>
</event>
<event>
 4    2  0.3388003E-007  0.7198426E+03  0.7818608E-02  0.9923119E-01
          2   -1    0    0  501    0  0.00000000000E+00  0.00000000000E+00  0.79185749508E+03  0.79185749509E+03  0.25500000000E-02 0. -1.
         -2   -1    0    0    0  501 -0.00000000000E+00 -0.00000000000E+00 -0.44977405311E+03  0.44977405311E+03  0.25500000000E-02 0.  1.
    8880023    1    1    2    0    0  0.12609392991E+03 -0.26165523201E+03 -0.60268347023E+02  0.72236114203E+03  0.65864270000E+03 0.  0.
    8880022    1    1    2    0    0 -0.12609392991E+03  0.26165523201E+03  0.40235178900E+03  0.51927040617E+03  0.15294330000E+03 0. -1.
<mgrwt>
<rscale>  0 0.59153810E+03</rscale>
<asrwt>0</asrwt>
<pdfrwt beam="1">  1        2 0.12182423E+00 0.71984258E+03</pdfrwt>
<pdfrwt beam="2">  1       -2 0.69196008E-01 0.71984258E+03</pdfrwt>
<totfact> 0.67597074E+01</totfact>
</mgrwt>
</event>
<event>
 4    2  0.3388003E-007  0.6881740E+03  0.7818608E-02  0.1005033E+00
          2   -1    0    0  501    0  0.00000000000E+00  0.00000000000E+00  0.65632753697E+03  0.65632753698E+03  0.25500000000E-02 0. -1.
         -2   -1    0    0    0  501 -0.00000000000E+00 -0.00000000000E+00 -0.62472551435E+03  0.62472551435E+03  0.25500000000E-02 0.  1.
    8880023    1    1    2    0    0 -0.10341426818E+03 -0.17052469256E+03 -0.38942478192E+03  0.79071805890E+03  0.65864270000E+03 0.  0.
    8880022    1    1    2    0    0  0.10341426818E+03  0.17052469256E+03  0.42102680455E+03  0.49033499243E+03  0.15294330000E+03 0.  0.
<mgrwt>
<rscale>  0 0.53497451E+03</rscale>
<asrwt>0</asrwt>
<pdfrwt beam="1">  1        2 0.10097347E+00 0.68817395E+03</pdfrwt>
<pdfrwt beam="2">  1       -2 0.96111618E-01 0.68817395E+03</pdfrwt>
<totfact> 0.41011853E+01</totfact>
</mgrwt>
</event>
<event>
 4    2  0.3388003E-007  0.7319098E+03  0.7818608E-02  0.9884172E-01
          2   -1    0    0  501    0  0.00000000000E+00  0.00000000000E+00  0.19425048468E+04  0.19425048468E+04  0.25500000000E-02 0. -1.
         -2   -1    0    0    0  501 -0.00000000000E+00 -0.00000000000E+00 -0.52729901739E+03  0.52729901739E+03  0.25500000000E-02 0.  1.
    8880023    1    1    2    0    0 -0.31847453658E+03 -0.21348541943E+02 -0.24535650637E+03  0.77194029055E+03  0.65864270000E+03 0.  1.
    8880022    1    1    2    0    0  0.31847453658E+03  0.21348541943E+02  0.16605623358E+04  0.16978635737E+04  0.15294330000E+03 0.  0.
<mgrwt>
<rscale>  0 0.61034524E+03</rscale>
<asrwt>0</asrwt>
<pdfrwt beam="1">  1        2 0.29884690E+00 0.73190983E+03</pdfrwt>
<pdfrwt beam="2">  1       -2 0.81122926E-01 0.73190983E+03</pdfrwt>
<totfact> 0.99884415E+00</totfact>
</mgrwt>
</event>
<event>
 4    2  0.3388003E-007  0.7204598E+03  0.7818608E-02  0.9921033E-01
         -2   -1    0    0    0  501 -0.00000000000E+00  0.00000000000E+00  0.41884218550E+03  0.41884218551E+03  0.25500000000E-02 0.  1.
          2   -1    0    0  501    0  0.00000000000E+00 -0.00000000000E+00 -0.11323231848E+04  0.11323231848E+04  0.25500000000E-02 0. -1.
    8880023    1    1    2    0    0 -0.72872608552E+02 -0.28273956357E+03  0.47340401476E+02  0.72201343323E+03  0.65864270000E+03 0.  1.
    8880022    1    1    2    0    0  0.72872608552E+02  0.28273956357E+03 -0.76082140079E+03  0.82915193710E+03  0.15294330000E+03 0.  0.
<mgrwt>
<rscale>  0 0.59252665E+03</rscale>
<asrwt>0</asrwt>
<pdfrwt beam="1">  1        2 0.17420357E+00 0.72045977E+03</pdfrwt>
<pdfrwt beam="2">  1       -2 0.64437260E-01 0.72045977E+03</pdfrwt>
<totfact> 0.47214377E+01</totfact>
</mgrwt>
</event>
<event>
 4    2  0.3388003E-007  0.6999817E+03  0.7818608E-02  0.9997277E-01
          2   -1    0    0  501    0  0.00000000000E+00  0.00000000000E+00  0.39598857954E+03  0.39598857955E+03  0.25500000000E-02 0. -1.
         -2   -1    0    0    0  501 -0.00000000000E+00 -0.00000000000E+00 -0.12095561839E+04  0.12095561839E+04  0.25500000000E-02 0.  1.
    8880023    1    1    2    0    0 -0.34504793000E+02 -0.23446458944E+03 -0.10332502473E+04  0.12480306504E+04  0.65864270000E+03 0.  0.
    8880022    1    1    2    0    0  0.34504793000E+02  0.23446458944E+03  0.21968264294E+03  0.35751411309E+03  0.15294330000E+03 0.  0.
<mgrwt>
<rscale>  0 0.55769797E+03</rscale>
<asrwt>0</asrwt>
<pdfrwt beam="1">  1        2 0.60921321E-01 0.69998174E+03</pdfrwt>
<pdfrwt beam="2">  1       -2 0.18608556E+00 0.69998174E+03</pdfrwt>
<totfact> 0.13533876E+01</totfact>
</mgrwt>
</event>
<event>
 4    2  0.3388003E-007  0.9389879E+03  0.7818608E-02  0.9466138E-01
         -2   -1    0    0    0  501 -0.00000000000E+00  0.00000000000E+00  0.38853688071E+04  0.38853688071E+04  0.25500000000E-02 0.  1.
          2   -1    0    0  501    0  0.00000000000E+00 -0.00000000000E+00 -0.53280478440E+03  0.53280478440E+03  0.25500000000E-02 0. -1.
    8880023    1    1    2    0    0 -0.24013178767E+03  0.62467975638E+03  0.35752197381E+04  0.36964705403E+04  0.65864270000E+03 0.  0.
    8880022    1    1    2    0    0  0.24013178767E+03 -0.62467975638E+03 -0.22265571540E+03  0.72170305119E+03  0.15294330000E+03 0. -1.
<mgrwt>
<rscale>  0 0.86827009E+03</rscale>
<asrwt>0</asrwt>
<pdfrwt beam="1">  1        2 0.81969968E-01 0.93898790E+03</pdfrwt>
<pdfrwt beam="2">  1       -2 0.59774904E+00 0.93898790E+03</pdfrwt>
<totfact> 0.29360787E-02</totfact>
</mgrwt>
</event>
<event>
 4    2  0.3388003E-007  0.7321067E+03  0.7818608E-02  0.9883567E-01
         -2   -1    0    0    0  501 -0.00000000000E+00  0.00000000000E+00  0.37717218205E+03  0.37717218206E+03  0.25500000000E-02 0.  1.
          2   -1    0    0  501    0  0.00000000000E+00 -0.00000000000E+00 -0.35346667117E+04  0.35346667117E+04  0.25500000000E-02 0. -1.
    8880023    1    1    2    0    0  0.25708323451E+03  0.18994250157E+03  0.24279268926E+01  0.73211067774E+03  0.65864270000E+03 0.  1.
    8880022    1    1    2    0    0 -0.25708323451E+03 -0.18994250157E+03 -0.31599224565E+04  0.31797282160E+04  0.15294330000E+03 0.  0.
<mgrwt>
<rscale>  0 0.61064368E+03</rscale>
<asrwt>0</asrwt>
<pdfrwt beam="1">  1        2 0.54379486E+00 0.73210665E+03</pdfrwt>
<pdfrwt beam="2">  1       -2 0.58026492E-01 0.73210665E+03</pdfrwt>
<totfact> 0.23343331E+00</totfact>
</mgrwt>
</event>
<event>
 4    2  0.3388003E-007  0.7442154E+03  0.7818608E-02  0.9847834E-01
         -2   -1    0    0    0  501 -0.00000000000E+00  0.00000000000E+00  0.57520677165E+03  0.57520677166E+03  0.25500000000E-02 0.  1.
          2   -1    0    0  501    0  0.00000000000E+00 -0.00000000000E+00 -0.18402646403E+04  0.18402646403E+04  0.25500000000E-02 0. -1.
    8880023    1    1    2    0    0  0.22806589657E+03  0.26082996550E+03  0.30210368306E+03  0.80319559614E+03  0.65864270000E+03 0.  1.
    8880022    1    1    2    0    0 -0.22806589657E+03 -0.26082996550E+03 -0.15671615517E+04  0.16122758158E+04  0.15294330000E+03 0.  0.
<mgrwt>
<rscale>  0 0.62857485E+03</rscale>
<asrwt>0</asrwt>
<pdfrwt beam="1">  1        2 0.28311763E+00 0.74421538E+03</pdfrwt>
<pdfrwt beam="2">  1       -2 0.88493350E-01 0.74421538E+03</pdfrwt>
<totfact> 0.92989820E+00</totfact>
</mgrwt>
</event>
<event>
 4    2  0.3388003E-007  0.8426535E+03  0.7818608E-02  0.9625197E-01
         -2   -1    0    0    0  501 -0.00000000000E+00  0.00000000000E+00  0.51250608200E+03  0.51250608201E+03  0.25500000000E-02 0.  1.
          2   -1    0    0  501    0  0.00000000000E+00 -0.00000000000E+00 -0.16177194131E+04  0.16177194131E+04  0.25500000000E-02 0. -1.
    8880023    1    1    2    0    0 -0.66566105330E+02 -0.52136707723E+03  0.57999994712E+02  0.84464719336E+03  0.65864270000E+03 0.  0.
    8880022    1    1    2    0    0  0.66566105330E+02  0.52136707723E+03 -0.11632133258E+04  0.12855783018E+04  0.15294330000E+03 0.  0.
<mgrwt>
<rscale>  0 0.75650688E+03</rscale>
<asrwt>0</asrwt>
<pdfrwt beam="1">  1        2 0.24887991E+00 0.84265348E+03</pdfrwt>
<pdfrwt beam="2">  1       -2 0.78847090E-01 0.84265348E+03</pdfrwt>
<totfact> 0.15797912E+01</totfact>
</mgrwt>
</event>
<event>
 4    2  0.3388003E-007  0.8520595E+03  0.7818608E-02  0.9607847E-01
         -2   -1    0    0    0  501 -0.00000000000E+00  0.00000000000E+00  0.50482458037E+03  0.50482458037E+03  0.25500000000E-02 0.  1.
          2   -1    0    0  501    0  0.00000000000E+00 -0.00000000000E+00 -0.10563307049E+04  0.10563307049E+04  0.25500000000E-02 0. -1.
    8880023    1    1    2    0    0  0.40574032133E+03  0.35716930716E+03 -0.13697631029E+03  0.86299932687E+03  0.65864270000E+03 0. -1.
    8880022    1    1    2    0    0 -0.40574032133E+03 -0.35716930716E+03 -0.41452981420E+03  0.69815595836E+03  0.15294330000E+03 0.  0.
<mgrwt>
<rscale>  0 0.76778969E+03</rscale>
<asrwt>0</asrwt>
<pdfrwt beam="1">  1        2 0.16251242E+00 0.85205946E+03</pdfrwt>
<pdfrwt beam="2">  1       -2 0.77665320E-01 0.85205946E+03</pdfrwt>
<totfact> 0.34516759E+01</totfact>
</mgrwt>
</event>
<event>
 4    2  0.3388003E-007  0.6667902E+03  0.7818608E-02  0.1018076E+00
         -2   -1    0    0    0  501 -0.00000000000E+00  0.00000000000E+00  0.15916439670E+03  0.15916439672E+03  0.25500000000E-02 0.  1.
          2   -1    0    0  501    0  0.00000000000E+00 -0.00000000000E+00 -0.13994969484E+04  0.13994969484E+04  0.25500000000E-02 0. -1.
    8880023    1    1    2    0    0 -0.96860728042E+02  0.37643049423E+02 -0.61692120893E+03  0.90840573760E+03  0.65864270000E+03 0.  1.
    8880022    1    1    2    0    0  0.96860728042E+02 -0.37643049423E+02 -0.62341134277E+03  0.65025560753E+03  0.15294330000E+03 0.  0.
<mgrwt>
<rscale>  0 0.48387183E+03</rscale>
<asrwt>0</asrwt>
<pdfrwt beam="1">  1        2 0.21530721E+00 0.66679023E+03</pdfrwt>
<pdfrwt beam="2">  1       -2 0.24486831E-01 0.66679023E+03</pdfrwt>
<totfact> 0.21966165E+02</totfact>
</mgrwt>
</event>
<event>
 4    2  0.3388003E-007  0.7823608E+03  0.7818608E-02  0.9750320E-01
          2   -1    0    0  501    0  0.00000000000E+00  0.00000000000E+00  0.91659906241E+03  0.91659906241E+03  0.25500000000E-02 0. -1.
         -2   -1    0    0    0  501 -0.00000000000E+00 -0.00000000000E+00 -0.90877695729E+03  0.90877695729E+03  0.25500000000E-02 0.  1.
    8880023    1    1    2    0    0  0.39914387722E+03  0.13770404927E+03 -0.65799042610E+03  0.10222719046E+04  0.65864270000E+03 0.  0.
    8880022    1    1    2    0    0 -0.39914387722E+03 -0.13770404927E+03  0.66581253122E+03  0.80310411507E+03  0.15294330000E+03 0.  0.
<mgrwt>
<rscale>  0 0.68098172E+03</rscale>
<asrwt>0</asrwt>
<pdfrwt beam="1">  1        2 0.14101524E+00 0.78236082E+03</pdfrwt>
<pdfrwt beam="2">  1       -2 0.13981184E+00 0.78236082E+03</pdfrwt>
<totfact> 0.10433568E+01</totfact>
</mgrwt>
</event>
<event>
 4    2  0.3388003E-007  0.7165778E+03  0.7818608E-02  0.9934340E-01
          2   -1    0    0  501    0  0.00000000000E+00  0.00000000000E+00  0.23636448163E+03  0.23636448165E+03  0.25500000000E-02 0. -1.
         -2   -1    0    0    0  501 -0.00000000000E+00 -0.00000000000E+00 -0.11875322079E+04  0.11875322079E+04  0.25500000000E-02 0.  1.
    8880023    1    1    2    0    0  0.26794429953E+03 -0.88766232851E+02 -0.78328817634E+03  0.10616139436E+04  0.65864270000E+03 0.  0.
    8880022    1    1    2    0    0 -0.26794429953E+03  0.88766232851E+02 -0.16787954996E+03  0.36228274601E+03  0.15294330000E+03 0.  0.
<mgrwt>
<rscale>  0 0.58625500E+03</rscale>
<asrwt>0</asrwt>
<pdfrwt beam="1">  1        2 0.36363767E-01 0.71657784E+03</pdfrwt>
<pdfrwt beam="2">  1       -2 0.18269726E+00 0.71657784E+03</pdfrwt>
<totfact> 0.25315165E+01</totfact>
</mgrwt>
</event>
<event>
 4    2  0.3388003E-007  0.7882424E+03  0.7818608E-02  0.9736820E-01
         -2   -1    0    0    0  501 -0.00000000000E+00  0.00000000000E+00  0.11944693413E+04  0.11944693413E+04  0.25500000000E-02 0.  1.
          2   -1    0    0  501    0  0.00000000000E+00 -0.00000000000E+00 -0.13071920802E+04  0.13071920802E+04  0.25500000000E-02 0. -1.
    8880023    1    1    2    0    0 -0.21336640788E+03 -0.37681656110E+03  0.10143511661E+04  0.12846145100E+04  0.65864270000E+03 0.  0.
    8880022    1    1    2    0    0  0.21336640788E+03  0.37681656110E+03 -0.11270739050E+04  0.12170469116E+04  0.15294330000E+03 0.  0.
<mgrwt>
<rscale>  0 0.68866243E+03</rscale>
<asrwt>0</asrwt>
<pdfrwt beam="1">  1        2 0.20110647E+00 0.78824244E+03</pdfrwt>
<pdfrwt beam="2">  1       -2 0.18376451E+00 0.78824244E+03</pdfrwt>
<totfact> 0.28540529E+00</totfact>
</mgrwt>
</event>
<event>
 4    2  0.3388003E-007  0.8455884E+03  0.7818608E-02  0.9619731E-01
          2   -1    0    0  501    0  0.00000000000E+00  0.00000000000E+00  0.10320525620E+04  0.10320525621E+04  0.25500000000E-02 0. -1.
         -2   -1    0    0    0  501 -0.00000000000E+00 -0.00000000000E+00 -0.84926798758E+03  0.84926798758E+03  0.25500000000E-02 0.  1.
    8880023    1    1    2    0    0  0.21317363626E+03 -0.48555801045E+03 -0.51621209182E+03  0.99070414893E+03  0.65864270000E+03 0.  0.
    8880022    1    1    2    0    0 -0.21317363626E+03  0.48555801045E+03  0.69899666629E+03  0.89061640070E+03  0.15294330000E+03 0.  0.
<mgrwt>
<rscale>  0 0.76003874E+03</rscale>
<asrwt>0</asrwt>
<pdfrwt beam="1">  1        2 0.15877732E+00 0.84558843E+03</pdfrwt>
<pdfrwt beam="2">  1       -2 0.13065661E+00 0.84558843E+03</pdfrwt>
<totfact> 0.10373985E+01</totfact>
</mgrwt>
</event>
<event>
 4    2  0.3388003E-007  0.7628431E+03  0.7818608E-02  0.9797802E-01
         -2   -1    0    0    0  501 -0.00000000000E+00  0.00000000000E+00  0.46011418196E+03  0.46011418196E+03  0.25500000000E-02 0.  1.
          2   -1    0    0  501    0  0.00000000000E+00 -0.00000000000E+00 -0.11934340570E+04  0.11934340570E+04  0.25500000000E-02 0. -1.
    8880023    1    1    2    0    0 -0.30826715333E+03  0.23041443641E+03  0.53160965983E+02  0.76469323581E+03  0.65864270000E+03 0.  1.
    8880022    1    1    2    0    0  0.30826715333E+03 -0.23041443641E+03 -0.78648084104E+03  0.88885500318E+03  0.15294330000E+03 0.  0.
<mgrwt>
<rscale>  0 0.65480647E+03</rscale>
<asrwt>0</asrwt>
<pdfrwt beam="1">  1        2 0.18360524E+00 0.76284314E+03</pdfrwt>
<pdfrwt beam="2">  1       -2 0.70786798E-01 0.76284314E+03</pdfrwt>
<totfact> 0.35261952E+01</totfact>
</mgrwt>
</event>
<event>
 4    2  0.3388003E-007  0.7799175E+03  0.7818608E-02  0.9756031E-01
         -2   -1    0    0    0  501 -0.00000000000E+00  0.00000000000E+00  0.44401707283E+03  0.44401707284E+03  0.25500000000E-02 0.  1.
          2   -1    0    0  501    0  0.00000000000E+00 -0.00000000000E+00 -0.12282601781E+04  0.12282601781E+04  0.25500000000E-02 0. -1.
    8880023    1    1    2    0    0 -0.12158156349E+03  0.39959860848E+03 -0.10730738239E+02  0.77999133295E+03  0.65864270000E+03 0.  1.
    8880022    1    1    2    0    0  0.12158156349E+03 -0.39959860848E+03 -0.77351236699E+03  0.89228591796E+03  0.15294330000E+03 0.  0.
<mgrwt>
<rscale>  0 0.67776521E+03</rscale>
<asrwt>0</asrwt>
<pdfrwt beam="1">  1        2 0.18896310E+00 0.77991752E+03</pdfrwt>
<pdfrwt beam="2">  1       -2 0.68310319E-01 0.77991752E+03</pdfrwt>
<totfact> 0.36285826E+01</totfact>
</mgrwt>
</event>
<event>
 4    2  0.3388003E-007  0.9828813E+03  0.7818608E-02  0.9404305E-01
         -2   -1    0    0    0  501 -0.00000000000E+00  0.00000000000E+00  0.10252655512E+04  0.10252655512E+04  0.25500000000E-02 0.  1.
          2   -1    0    0  501    0  0.00000000000E+00 -0.00000000000E+00 -0.15326217310E+04  0.15326217310E+04  0.25500000000E-02 0. -1.
    8880023    1    1    2    0    0 -0.57415204395E+03  0.45010548526E+03  0.65207242477E+03  0.11795143792E+04  0.65864270000E+03 0.  0.
    8880022    1    1    2    0    0  0.57415204395E+03 -0.45010548526E+03 -0.11594286046E+04  0.13783729029E+04  0.15294330000E+03 0.  0.
<mgrwt>
<rscale>  0 0.91722256E+03</rscale>
<asrwt>0</asrwt>
<pdfrwt beam="1">  1        2 0.23578796E+00 0.98288134E+03</pdfrwt>
<pdfrwt beam="2">  1       -2 0.15773316E+00 0.98288134E+03</pdfrwt>
<totfact> 0.31696974E+00</totfact>
</mgrwt>
</event>
<event>
 4    2  0.3388003E-007  0.6706922E+03  0.7818608E-02  0.1015171E+00
          2   -1    0    0  501    0  0.00000000000E+00  0.00000000000E+00  0.19289487233E+04  0.19289487233E+04  0.25500000000E-02 0. -1.
         -2   -1    0    0    0  501 -0.00000000000E+00 -0.00000000000E+00 -0.18570330939E+03  0.18570330941E+03  0.25500000000E-02 0.  1.
    8880023    1    1    2    0    0 -0.97012732808E+02 -0.81279181576E+02  0.45327924876E+03  0.80949988221E+03  0.65864270000E+03 0.  1.
    8880022    1    1    2    0    0  0.97012732808E+02  0.81279181576E+02  0.12899661651E+04  0.13051521505E+04  0.15294330000E+03 0.  0.
<mgrwt>
<rscale>  0 0.49470061E+03</rscale>
<asrwt>0</asrwt>
<pdfrwt beam="1">  1        2 0.29676134E+00 0.67069217E+03</pdfrwt>
<pdfrwt beam="2">  1       -2 0.28569740E-01 0.67069217E+03</pdfrwt>
<totfact> 0.85016431E+01</totfact>
</mgrwt>
</event>
<event>
 4    2  0.3388003E-007  0.9619201E+03  0.7818608E-02  0.9433167E-01
         -2   -1    0    0    0  501 -0.00000000000E+00  0.00000000000E+00  0.96715700890E+03  0.96715700890E+03  0.25500000000E-02 0.  1.
          2   -1    0    0  501    0  0.00000000000E+00 -0.00000000000E+00 -0.13725652993E+04  0.13725652993E+04  0.25500000000E-02 0. -1.
    8880023    1    1    2    0    0  0.14978709976E+03  0.68486779117E+03 -0.10148525735E+04  0.13982903915E+04  0.65864270000E+03 0.  0.
    8880022    1    1    2    0    0 -0.14978709976E+03 -0.68486779117E+03  0.60944428311E+03  0.94143191674E+03  0.15294330000E+03 0.  0.
<mgrwt>
<rscale>  0 0.89395700E+03</rscale>
<asrwt>0</asrwt>
<pdfrwt beam="1">  1        2 0.21116389E+00 0.96192010E+03</pdfrwt>
<pdfrwt beam="2">  1       -2 0.14879339E+00 0.96192010E+03</pdfrwt>
<totfact> 0.45760378E+00</totfact>
</mgrwt>
</event>
<event>
 4    2  0.3388003E-007  0.6853177E+03  0.7818608E-02  0.1006463E+00
         -2   -1    0    0    0  501 -0.00000000000E+00  0.00000000000E+00  0.45042110533E+03  0.45042110533E+03  0.25500000000E-02 0.  1.
          2   -1    0    0  501    0  0.00000000000E+00 -0.00000000000E+00 -0.55525770935E+03  0.55525770935E+03  0.25500000000E-02 0. -1.
    8880023    1    1    2    0    0  0.47052065419E+02 -0.18340178698E+03  0.93550971876E+02  0.69167340771E+03  0.65864270000E+03 0.  1.
    8880022    1    1    2    0    0 -0.47052065419E+02  0.18340178698E+03 -0.19838757590E+03  0.31400540698E+03  0.15294330000E+03 0. -1.
<mgrwt>
<rscale>  0 0.52905089E+03</rscale>
<asrwt>0</asrwt>
<pdfrwt beam="1">  1        2 0.85424263E-01 0.68531768E+03</pdfrwt>
<pdfrwt beam="2">  1       -2 0.69295555E-01 0.68531768E+03</pdfrwt>
<totfact> 0.10498882E+02</totfact>
</mgrwt>
</event>
<event>
 4    2  0.3388003E-007  0.6968470E+03  0.7818608E-02  0.1001054E+00
          2   -1    0    0  501    0  0.00000000000E+00  0.00000000000E+00  0.23462897535E+04  0.23462897535E+04  0.25500000000E-02 0. -1.
         -2   -1    0    0    0  501 -0.00000000000E+00 -0.00000000000E+00 -0.32381712323E+03  0.32381712324E+03  0.25500000000E-02 0.  1.
    8880023    1    1    2    0    0  0.18261883284E+03 -0.13577883391E+03  0.72112394613E+02  0.70056829329E+03  0.65864270000E+03 0.  1.
    8880022    1    1    2    0    0 -0.18261883284E+03  0.13577883391E+03  0.19503602356E+04  0.19695385834E+04  0.15294330000E+03 0.  1.
<mgrwt>
<rscale>  0 0.55190437E+03</rscale>
<asrwt>0</asrwt>
<pdfrwt beam="1">  1        2 0.36096765E+00 0.69684700E+03</pdfrwt>
<pdfrwt beam="2">  1       -2 0.49818019E-01 0.69684700E+03</pdfrwt>
<totfact> 0.17104516E+01</totfact>
</mgrwt>
</event>
<event>
 4    2  0.3388003E-007  0.6719066E+03  0.7818608E-02  0.1014331E+00
         -2   -1    0    0    0  501 -0.00000000000E+00  0.00000000000E+00  0.27739596277E+03  0.27739596278E+03  0.25500000000E-02 0.  1.
          2   -1    0    0  501    0  0.00000000000E+00 -0.00000000000E+00 -0.69303823095E+03  0.69303823095E+03  0.25500000000E-02 0. -1.
    8880023    1    1    2    0    0 -0.10290725732E+03 -0.84014081970E+02 -0.28826104679E+03  0.73113125151E+03  0.65864270000E+03 0.  1.
    8880022    1    1    2    0    0  0.10290725732E+03  0.84014081970E+02 -0.12738122139E+03  0.23930294222E+03  0.15294330000E+03 0. -1.
<mgrwt>
<rscale>  0 0.49788896E+03</rscale>
<asrwt>0</asrwt>
<pdfrwt beam="1">  1        2 0.10662127E+00 0.67190660E+03</pdfrwt>
<pdfrwt beam="2">  1       -2 0.42676302E-01 0.67190660E+03</pdfrwt>
<totfact> 0.21876657E+02</totfact>
</mgrwt>
</event>
<event>
 4    2  0.3388003E-007  0.6918513E+03  0.7818608E-02  0.1003285E+00
         -2   -1    0    0    0  501 -0.00000000000E+00  0.00000000000E+00  0.15331504672E+03  0.15331504674E+03  0.25500000000E-02 0.  1.
          2   -1    0    0  501    0  0.00000000000E+00 -0.00000000000E+00 -0.16671668437E+04  0.16671668438E+04  0.25500000000E-02 0. -1.
    8880023    1    1    2    0    0 -0.14034389870E+03 -0.15859261705E+03 -0.78571118828E+03  0.10469003323E+04  0.65864270000E+03 0.  0.
    8880022    1    1    2    0    0  0.14034389870E+03  0.15859261705E+03 -0.72814060875E+03  0.77358155821E+03  0.15294330000E+03 0.  0.
<mgrwt>
<rscale>  0 0.54233071E+03</rscale>
<asrwt>0</asrwt>
<pdfrwt beam="1">  1        2 0.25648719E+00 0.69185131E+03</pdfrwt>
<pdfrwt beam="2">  1       -2 0.23586931E-01 0.69185131E+03</pdfrwt>
<totfact> 0.16663821E+02</totfact>
</mgrwt>
</event>
<event>
 4    2  0.3388003E-007  0.6703954E+03  0.7818608E-02  0.1015381E+00
          2   -1    0    0  501    0  0.00000000000E+00  0.00000000000E+00  0.61820291283E+03  0.61820291283E+03  0.25500000000E-02 0. -1.
         -2   -1    0    0    0  501 -0.00000000000E+00 -0.00000000000E+00 -0.34840565641E+03  0.34840565641E+03  0.25500000000E-02 0.  1.
    8880023    1    1    2    0    0 -0.11026724779E+03  0.58829768624E+02  0.51727988339E+02  0.67238813096E+03  0.65864270000E+03 0.  1.
    8880022    1    1    2    0    0  0.11026724779E+03 -0.58829768624E+02  0.21806926808E+03  0.29422043829E+03  0.15294330000E+03 0.  0.
<mgrwt>
<rscale>  0 0.49390941E+03</rscale>
<asrwt>0</asrwt>
<pdfrwt beam="1">  1        2 0.95108140E-01 0.67039542E+03</pdfrwt>
<pdfrwt beam="2">  1       -2 0.53600870E-01 0.67039542E+03</pdfrwt>
<totfact> 0.15913355E+02</totfact>
</mgrwt>
</event>
<event>
 4    2  0.3388003E-007  0.8578345E+03  0.7818608E-02  0.9597427E-01
         -2   -1    0    0    0  501 -0.00000000000E+00  0.00000000000E+00  0.50094835593E+03  0.50094835593E+03  0.25500000000E-02 0.  1.
          2   -1    0    0  501    0  0.00000000000E+00 -0.00000000000E+00 -0.19255965194E+04  0.19255965194E+04  0.25500000000E-02 0. -1.
    8880023    1    1    2    0    0 -0.36866917348E+03  0.40761858762E+03  0.35845759255E+02  0.85858313352E+03  0.65864270000E+03 0.  1.
    8880022    1    1    2    0    0  0.36866917348E+03 -0.40761858762E+03 -0.14604939228E+04  0.15679617419E+04  0.15294330000E+03 0.  0.
<mgrwt>
<rscale>  0 0.77466708E+03</rscale>
<asrwt>0</asrwt>
<pdfrwt beam="1">  1        2 0.29624561E+00 0.85783453E+03</pdfrwt>
<pdfrwt beam="2">  1       -2 0.77068979E-01 0.85783453E+03</pdfrwt>
<totfact> 0.11247288E+01</totfact>
</mgrwt>
</event>
<event>
 4    2  0.3388003E-007  0.7446979E+03  0.7818608E-02  0.9846468E-01
         -2   -1    0    0    0  501 -0.00000000000E+00  0.00000000000E+00  0.28522444483E+03  0.28522444484E+03  0.25500000000E-02 0.  1.
          2   -1    0    0  501    0  0.00000000000E+00 -0.00000000000E+00 -0.14244975060E+04  0.14244975060E+04  0.25500000000E-02 0. -1.
    8880023    1    1    2    0    0 -0.32804922891E+03 -0.11466674292E+03 -0.32746903833E+03  0.81351763094E+03  0.65864270000E+03 0.  0.
    8880022    1    1    2    0    0  0.32804922891E+03  0.11466674292E+03 -0.81180402285E+03  0.89620431992E+03  0.15294330000E+03 0.  0.
<mgrwt>
<rscale>  0 0.62927335E+03</rscale>
<asrwt>0</asrwt>
<pdfrwt beam="1">  1        2 0.21915346E+00 0.74469790E+03</pdfrwt>
<pdfrwt beam="2">  1       -2 0.43880685E-01 0.74469790E+03</pdfrwt>
<totfact> 0.70365809E+01</totfact>
</mgrwt>
</event>
<event>
 4    2  0.3388003E-007  0.1130124E+04  0.7818608E-02  0.9228235E-01
          2   -1    0    0  501    0  0.00000000000E+00  0.00000000000E+00  0.10934742877E+04  0.10934742877E+04  0.25500000000E-02 0. -1.
         -2   -1    0    0    0  501 -0.00000000000E+00 -0.00000000000E+00 -0.10091409365E+04  0.10091409365E+04  0.25500000000E-02 0.  1.
    8880023    1    1    2    0    0  0.28592530948E+03  0.87270714419E+03 -0.15665464986E+03  0.11409302905E+04  0.65864270000E+03 0.  0.
    8880022    1    1    2    0    0 -0.28592530948E+03 -0.87270714419E+03  0.24098800111E+03  0.96168493376E+03  0.15294330000E+03 0.  0.
<mgrwt>
<rscale>  0 0.10766690E+04</rscale>
<asrwt>0</asrwt>
<pdfrwt beam="1">  1        2 0.16822681E+00 0.11301244E+04</pdfrwt>
<pdfrwt beam="2">  1       -2 0.15525245E+00 0.11301244E+04</pdfrwt>
<totfact> 0.58851981E+00</totfact>
</mgrwt>
</event>
<event>
 4    2  0.3388003E-007  0.7278243E+03  0.7818608E-02  0.9896949E-01
          2   -1    0    0  501    0  0.00000000000E+00  0.00000000000E+00  0.21109641504E+04  0.21109641504E+04  0.25500000000E-02 0. -1.
         -2   -1    0    0    0  501 -0.00000000000E+00 -0.00000000000E+00 -0.31600534182E+03  0.31600534183E+03  0.25500000000E-02 0.  1.
    8880023    1    1    2    0    0  0.29762371488E+03 -0.85662706921E+02  0.14613005252E+03  0.74234909142E+03  0.65864270000E+03 0.  1.
    8880022    1    1    2    0    0 -0.29762371488E+03  0.85662706921E+02  0.16488287561E+04  0.16846204008E+04  0.15294330000E+03 0.  0.
<mgrwt>
<rscale>  0 0.60409375E+03</rscale>
<asrwt>0</asrwt>
<pdfrwt beam="1">  1        2 0.32476371E+00 0.72782428E+03</pdfrwt>
<pdfrwt beam="2">  1       -2 0.48616208E-01 0.72782428E+03</pdfrwt>
<totfact> 0.24119651E+01</totfact>
</mgrwt>
</event>
<event>
 4    2  0.3388003E-007  0.8285828E+03  0.7818608E-02  0.9652096E-01
         -2   -1    0    0    0  501 -0.00000000000E+00  0.00000000000E+00  0.81265175060E+03  0.81265175060E+03  0.25500000000E-02 0.  1.
          2   -1    0    0  501    0  0.00000000000E+00 -0.00000000000E+00 -0.12677672817E+04  0.12677672817E+04  0.25500000000E-02 0. -1.
    8880023    1    1    2    0    0  0.45639392020E+03  0.21081725925E+03  0.51609175189E+03  0.97616608722E+03  0.65864270000E+03 0.  1.
    8880022    1    1    2    0    0 -0.45639392020E+03 -0.21081725925E+03 -0.97120728304E+03  0.11042529451E+04  0.15294330000E+03 0.  0.
<mgrwt>
<rscale>  0 0.73942026E+03</rscale>
<asrwt>0</asrwt>
<pdfrwt beam="1">  1        2 0.19504112E+00 0.82858285E+03</pdfrwt>
<pdfrwt beam="2">  1       -2 0.12502335E+00 0.82858285E+03</pdfrwt>
<totfact> 0.83666079E+00</totfact>
</mgrwt>
</event>
<event>
 4    2  0.3388003E-007  0.6954176E+03  0.7818608E-02  0.1001677E+00
         -2   -1    0    0    0  501 -0.00000000000E+00  0.00000000000E+00  0.13254122396E+03  0.13254122398E+03  0.25500000000E-02 0.  1.
          2   -1    0    0  501    0  0.00000000000E+00 -0.00000000000E+00 -0.22677118583E+04  0.22677118583E+04  0.25500000000E-02 0. -1.
    8880023    1    1    2    0    0 -0.11968020134E+03 -0.18834035478E+03 -0.90850379483E+03  0.11441087323E+04  0.65864270000E+03 0. -1.
    8880022    1    1    2    0    0  0.11968020134E+03  0.18834035478E+03 -0.12266668395E+04  0.12561443500E+04  0.15294330000E+03 0.  0.
<mgrwt>
<rscale>  0 0.54921017E+03</rscale>
<asrwt>0</asrwt>
<pdfrwt beam="1">  1        2 0.34887872E+00 0.69541761E+03</pdfrwt>
<pdfrwt beam="2">  1       -2 0.20390959E-01 0.69541761E+03</pdfrwt>
<totfact> 0.10130924E+02</totfact>
</mgrwt>
</event>
<event>
 4    2  0.3388003E-007  0.6731745E+03  0.7818608E-02  0.1013482E+00
         -2   -1    0    0    0  501 -0.00000000000E+00  0.00000000000E+00  0.13222336007E+03  0.13222336010E+03  0.25500000000E-02 0.  1.
          2   -1    0    0  501    0  0.00000000000E+00 -0.00000000000E+00 -0.16076977908E+04  0.16076977908E+04  0.25500000000E-02 0. -1.
    8880023    1    1    2    0    0 -0.10382205707E+03 -0.92599671178E+02 -0.13182370997E+04  0.14801732925E+04  0.65864270000E+03 0. -1.
    8880022    1    1    2    0    0  0.10382205707E+03  0.92599671178E+02 -0.15723733100E+03  0.25974785833E+03  0.15294330000E+03 0. -1.
<mgrwt>
<rscale>  0 0.50113748E+03</rscale>
<asrwt>0</asrwt>
<pdfrwt beam="1">  1        2 0.24733811E+00 0.67317451E+03</pdfrwt>
<pdfrwt beam="2">  1       -2 0.20342057E-01 0.67317451E+03</pdfrwt>
<totfact> 0.23374406E+02</totfact>
</mgrwt>
</event>
<event>
 4    2  0.3388003E-007  0.7566726E+03  0.7818608E-02  0.9813799E-01
         -2   -1    0    0    0  501 -0.00000000000E+00  0.00000000000E+00  0.42956101257E+03  0.42956101258E+03  0.25500000000E-02 0.  1.
          2   -1    0    0  501    0  0.00000000000E+00 -0.00000000000E+00 -0.12304254451E+04  0.12304254451E+04  0.25500000000E-02 0. -1.
    8880023    1    1    2    0    0  0.34478923363E+03 -0.14093823950E+03  0.76962507920E+01  0.75671172947E+03  0.65864270000E+03 0.  1.
    8880022    1    1    2    0    0 -0.34478923363E+03  0.14093823950E+03 -0.80856068329E+03  0.90327472818E+03  0.15294330000E+03 0.  0.
<mgrwt>
<rscale>  0 0.64627231E+03</rscale>
<asrwt>0</asrwt>
<pdfrwt beam="1">  1        2 0.18929622E+00 0.75667259E+03</pdfrwt>
<pdfrwt beam="2">  1       -2 0.66086310E-01 0.75667259E+03</pdfrwt>
<totfact> 0.38955385E+01</totfact>
</mgrwt>
</event>
<event>
 4    2  0.3388003E-007  0.6604806E+03  0.7818608E-02  0.1023669E+00
         -2   -1    0    0    0  501 -0.00000000000E+00  0.00000000000E+00  0.67528715022E+03  0.67528715023E+03  0.25500000000E-02 0.  1.
          2   -1    0    0  501    0  0.00000000000E+00 -0.00000000000E+00 -0.88528470762E+03  0.88528470762E+03  0.25500000000E-02 0. -1.
    8880023    1    1    2    0    0 -0.37925910946E+02 -0.31401436640E+02  0.50267595738E+03  0.83001069230E+03  0.65864270000E+03 0.  1.
    8880022    1    1    2    0    0  0.37925910946E+02  0.31401436640E+02 -0.71267351477E+03  0.73056116555E+03  0.15294330000E+03 0.  0.
<mgrwt>
<rscale>  0 0.46385403E+03</rscale>
<asrwt>0</asrwt>
<pdfrwt beam="1">  1        2 0.13619765E+00 0.66048061E+03</pdfrwt>
<pdfrwt beam="2">  1       -2 0.10389033E+00 0.66048061E+03</pdfrwt>
<totfact> 0.23185115E+01</totfact>
</mgrwt>
</event>
<event>
 4    2  0.3388003E-007  0.7588670E+03  0.7818608E-02  0.9808050E-01
         -2   -1    0    0    0  501 -0.00000000000E+00  0.00000000000E+00  0.18442776170E+04  0.18442776170E+04  0.25500000000E-02 0.  1.
          2   -1    0    0  501    0  0.00000000000E+00 -0.00000000000E+00 -0.61311908679E+03  0.61311908679E+03  0.25500000000E-02 0. -1.
    8880023    1    1    2    0    0  0.35959770424E+03 -0.11295306427E+03  0.16849661560E+04  0.18479691710E+04  0.65864270000E+03 0.  1.
    8880022    1    1    2    0    0 -0.35959770424E+03  0.11295306427E+03 -0.45380762576E+03  0.60942753288E+03  0.15294330000E+03 0.  0.
<mgrwt>
<rscale>  0 0.64932340E+03</rscale>
<asrwt>0</asrwt>
<pdfrwt beam="1">  1        2 0.94326013E-01 0.75886699E+03</pdfrwt>
<pdfrwt beam="2">  1       -2 0.28373502E+00 0.75886699E+03</pdfrwt>
<totfact> 0.20014618E+00</totfact>
</mgrwt>
</event>
<event>
 4    2  0.3388003E-007  0.8490301E+03  0.7818608E-02  0.9613383E-01
          2   -1    0    0  501    0  0.00000000000E+00  0.00000000000E+00  0.39313022111E+03  0.39313022112E+03  0.25500000000E-02 0. -1.
         -2   -1    0    0    0  501 -0.00000000000E+00 -0.00000000000E+00 -0.13769709407E+04  0.13769709407E+04  0.25500000000E-02 0.  1.
    8880023    1    1    2    0    0 -0.53052451264E+03 -0.74737512122E+02 -0.32960230214E+03  0.91076332714E+03  0.65864270000E+03 0.  1.
    8880022    1    1    2    0    0  0.53052451264E+03  0.74737512122E+02 -0.65423841749E+03  0.85933783471E+03  0.15294330000E+03 0.  0.
<mgrwt>
<rscale>  0 0.76416724E+03</rscale>
<asrwt>0</asrwt>
<pdfrwt beam="1">  1        2 0.60481573E-01 0.84903013E+03</pdfrwt>
<pdfrwt beam="2">  1       -2 0.21184168E+00 0.84903013E+03</pdfrwt>
<totfact> 0.91302022E+00</totfact>
</mgrwt>
</event>
<event>
 4    2  0.3388003E-007  0.9146932E+03  0.7818608E-02  0.9502844E-01
         -2   -1    0    0    0  501 -0.00000000000E+00  0.00000000000E+00  0.27035704362E+03  0.27035704363E+03  0.25500000000E-02 0.  1.
          2   -1    0    0  501    0  0.00000000000E+00 -0.00000000000E+00 -0.23772099454E+04  0.23772099454E+04  0.25500000000E-02 0. -1.
    8880023    1    1    2    0    0  0.63305316260E+03  0.45794420536E+02 -0.94716843686E+03  0.13167352390E+04  0.65864270000E+03 0.  0.
    8880022    1    1    2    0    0 -0.63305316260E+03 -0.45794420536E+02 -0.11596844649E+04  0.13308317500E+04  0.15294330000E+03 0.  0.
<mgrwt>
<rscale>  0 0.84074445E+03</rscale>
<asrwt>0</asrwt>
<pdfrwt beam="1">  1        2 0.36572459E+00 0.91469320E+03</pdfrwt>
<pdfrwt beam="2">  1       -2 0.41593393E-01 0.91469320E+03</pdfrwt>
<totfact> 0.22878276E+01</totfact>
</mgrwt>
</event>
<event>
 4    2  0.3388003E-007  0.1129845E+04  0.7818608E-02  0.9228533E-01
         -2   -1    0    0    0  501 -0.00000000000E+00  0.00000000000E+00  0.63273359651E+03  0.63273359651E+03  0.25500000000E-02 0.  1.
          2   -1    0    0  501    0  0.00000000000E+00 -0.00000000000E+00 -0.30890298344E+04  0.30890298344E+04  0.25500000000E-02 0. -1.
    8880023    1    1    2    0    0  0.61593779107E+03  0.68070543756E+03 -0.37905013943E+02  0.11304805401E+04  0.65864270000E+03 0.  1.
    8880022    1    1    2    0    0 -0.61593779107E+03 -0.68070543756E+03 -0.24183912240E+04  0.25912828908E+04  0.15294330000E+03 0.  0.
<mgrwt>
<rscale>  0 0.10763712E+04</rscale>
<asrwt>0</asrwt>
<pdfrwt beam="1">  1        2 0.47523535E+00 0.11298449E+04</pdfrwt>
<pdfrwt beam="2">  1       -2 0.97343632E-01 0.11298449E+04</pdfrwt>
<totfact> 0.13490272E+00</totfact>
</mgrwt>
</event>
<event>
 4    2  0.3388003E-007  0.6762134E+03  0.7818608E-02  0.1011552E+00
         -2   -1    0    0    0  501 -0.00000000000E+00  0.00000000000E+00  0.97207365868E+03  0.97207365868E+03  0.25500000000E-02 0.  1.
          2   -1    0    0  501    0  0.00000000000E+00 -0.00000000000E+00 -0.65988162857E+03  0.65988162857E+03  0.25500000000E-02 0. -1.
    8880023    1    1    2    0    0  0.14797447806E+03 -0.39470187245E+02  0.83008344747E+03  0.10706554431E+04  0.65864270000E+03 0.  1.
    8880022    1    1    2    0    0 -0.14797447806E+03  0.39470187245E+02 -0.51789141736E+03  0.56129984414E+03  0.15294330000E+03 0.  0.
<mgrwt>
<rscale>  0 0.50862404E+03</rscale>
<asrwt>0</asrwt>
<pdfrwt beam="1">  1        2 0.10152025E+00 0.67621339E+03</pdfrwt>
<pdfrwt beam="2">  1       -2 0.14954979E+00 0.67621339E+03</pdfrwt>
<totfact> 0.13632707E+01</totfact>
</mgrwt>
</event>
<event>
 4    2  0.3388003E-007  0.6921510E+03  0.7818608E-02  0.1003147E+00
          2   -1    0    0  501    0  0.00000000000E+00  0.00000000000E+00  0.19278259369E+04  0.19278259369E+04  0.25500000000E-02 0. -1.
         -2   -1    0    0    0  501 -0.00000000000E+00 -0.00000000000E+00 -0.19922592934E+03  0.19922592935E+03  0.25500000000E-02 0.  1.
    8880023    1    1    2    0    0  0.20820435326E+03 -0.43746120589E+02  0.45857438911E+03  0.83027914125E+03  0.65864270000E+03 0.  1.
    8880022    1    1    2    0    0 -0.20820435326E+03  0.43746120589E+02  0.12700256185E+04  0.12967727250E+04  0.15294330000E+03 0.  0.
<mgrwt>
<rscale>  0 0.54291795E+03</rscale>
<asrwt>0</asrwt>
<pdfrwt beam="1">  1        2 0.29658862E+00 0.69215098E+03</pdfrwt>
<pdfrwt beam="2">  1       -2 0.30650142E-01 0.69215098E+03</pdfrwt>
<totfact> 0.74566816E+01</totfact>
</mgrwt>
</event>
<event>
 4    2  0.3388003E-007  0.8875088E+03  0.7818608E-02  0.9546389E-01
         -2   -1    0    0    0  501 -0.00000000000E+00  0.00000000000E+00  0.40119350536E+03  0.40119350537E+03  0.25500000000E-02 0.  1.
          2   -1    0    0  501    0  0.00000000000E+00 -0.00000000000E+00 -0.30230641800E+04  0.30230641800E+04  0.25500000000E-02 0. -1.
    8880023    1    1    2    0    0 -0.54479398653E+03  0.23887493441E+03 -0.17903230890E+03  0.90538637937E+03  0.65864270000E+03 0.  1.
    8880022    1    1    2    0    0  0.54479398653E+03 -0.23887493441E+03 -0.24428383657E+04  0.25188713060E+04  0.15294330000E+03 0.  0.
<mgrwt>
<rscale>  0 0.80948472E+03</rscale>
<asrwt>0</asrwt>
<pdfrwt beam="1">  1        2 0.46508678E+00 0.88750883E+03</pdfrwt>
<pdfrwt beam="2">  1       -2 0.61722080E-01 0.88750883E+03</pdfrwt>
<totfact> 0.42758055E+00</totfact>
</mgrwt>
</event>
<event>
 4    2  0.3388003E-007  0.6864313E+03  0.7818608E-02  0.1005897E+00
         -2   -1    0    0    0  501 -0.00000000000E+00  0.00000000000E+00  0.30627574764E+03  0.30627574765E+03  0.25500000000E-02 0.  1.
          2   -1    0    0  501    0  0.00000000000E+00 -0.00000000000E+00 -0.91046508409E+03  0.91046508410E+03  0.25500000000E-02 0. -1.
    8880023    1    1    2    0    0 -0.16774561370E+03 -0.96120091817E+02 -0.15402588549E+03  0.70349971047E+03  0.65864270000E+03 0.  1.
    8880022    1    1    2    0    0  0.16774561370E+03  0.96120091817E+02 -0.45016345097E+03  0.51324112127E+03  0.15294330000E+03 0. -1.
<mgrwt>
<rscale>  0 0.53138383E+03</rscale>
<asrwt>0</asrwt>
<pdfrwt beam="1">  1        2 0.14007155E+00 0.68643126E+03</pdfrwt>
<pdfrwt beam="2">  1       -2 0.47119346E-01 0.68643126E+03</pdfrwt>
<totfact> 0.12518914E+02</totfact>
</mgrwt>
</event>
<event>
 4    2  0.3388003E-007  0.6712179E+03  0.7818608E-02  0.1014804E+00
          2   -1    0    0  501    0  0.00000000000E+00  0.00000000000E+00  0.15150683826E+04  0.15150683826E+04  0.25500000000E-02 0. -1.
         -2   -1    0    0    0  501 -0.00000000000E+00 -0.00000000000E+00 -0.17083432190E+03  0.17083432192E+03  0.25500000000E-02 0.  1.
    8880023    1    1    2    0    0 -0.45268488404E+02  0.12113624619E+03  0.55290065128E+03  0.86961633070E+03  0.65864270000E+03 0.  0.
    8880022    1    1    2    0    0  0.45268488404E+02 -0.12113624619E+03  0.79133340938E+03  0.81628637377E+03  0.15294330000E+03 0.  0.
<mgrwt>
<rscale>  0 0.49609040E+03</rscale>
<asrwt>0</asrwt>
<pdfrwt beam="1">  1        2 0.23308744E+00 0.67121787E+03</pdfrwt>
<pdfrwt beam="2">  1       -2 0.26282204E-01 0.67121787E+03</pdfrwt>
<totfact> 0.16658286E+02</totfact>
</mgrwt>
</event>
<event>
 4    2  0.3388003E-007  0.6586615E+03  0.7818608E-02  0.1025572E+00
          2   -1    0    0  501    0  0.00000000000E+00  0.00000000000E+00  0.66795460983E+03  0.66795460984E+03  0.25500000000E-02 0. -1.
         -2   -1    0    0    0  501 -0.00000000000E+00 -0.00000000000E+00 -0.38039443466E+03  0.38039443467E+03  0.25500000000E-02 0.  1.
    8880023    1    1    2    0    0 -0.10986381818E+01 -0.48569914109E+01 -0.67113692582E+02  0.66207193821E+03  0.65864270000E+03 0.  1.
    8880022    1    1    2    0    0  0.10986381818E+01  0.48569914109E+01  0.35467386775E+03  0.38627710630E+03  0.15294330000E+03 0.  0.
<mgrwt>
<rscale>  0 0.45728489E+03</rscale>
<asrwt>0</asrwt>
<pdfrwt beam="1">  1        2 0.10276225E+00 0.65866152E+03</pdfrwt>
<pdfrwt beam="2">  1       -2 0.58522222E-01 0.65866152E+03</pdfrwt>
<totfact> 0.12065617E+02</totfact>
</mgrwt>
</event>
<event>
 4    2  0.3388003E-007  0.8048292E+03  0.7818608E-02  0.9700450E-01
         -2   -1    0    0    0  501 -0.00000000000E+00  0.00000000000E+00  0.15112307687E+04  0.15112307687E+04  0.25500000000E-02 0.  1.
          2   -1    0    0  501    0  0.00000000000E+00 -0.00000000000E+00 -0.57868930486E+03  0.57868930487E+03  0.25500000000E-02 0. -1.
    8880023    1    1    2    0    0  0.39297290076E+03  0.24395096611E+03 -0.22361531483E+03  0.83531658064E+03  0.65864270000E+03 0. -1.
    8880022    1    1    2    0    0 -0.39297290076E+03 -0.24395096611E+03  0.11561567787E+04  0.12546034929E+04  0.15294330000E+03 0.  0.
<mgrwt>
<rscale>  0 0.70990001E+03</rscale>
<asrwt>0</asrwt>
<pdfrwt beam="1">  1        2 0.89029126E-01 0.80482916E+03</pdfrwt>
<pdfrwt beam="2">  1       -2 0.23249704E+00 0.80482916E+03</pdfrwt>
<totfact> 0.43535100E+00</totfact>
</mgrwt>
</event>
<event>
 4    2  0.3388003E-007  0.7969549E+03  0.7818608E-02  0.9717419E-01
          2   -1    0    0  501    0  0.00000000000E+00  0.00000000000E+00  0.13294914422E+04  0.13294914422E+04  0.25500000000E-02 0. -1.
         -2   -1    0    0    0  501 -0.00000000000E+00 -0.00000000000E+00 -0.69225152000E+03  0.69225152000E+03  0.25500000000E-02 0.  1.
    8880023    1    1    2    0    0 -0.43480006266E+03  0.11079594849E+03 -0.39232410165E+03  0.88828781580E+03  0.65864270000E+03 0.  0.
    8880022    1    1    2    0    0  0.43480006266E+03 -0.11079594849E+03  0.10295640239E+04  0.11334551464E+04  0.15294330000E+03 0.  0.
<mgrwt>
<rscale>  0 0.69989057E+03</rscale>
<asrwt>0</asrwt>
<pdfrwt beam="1">  1        2 0.20453714E+00 0.79695486E+03</pdfrwt>
<pdfrwt beam="2">  1       -2 0.10650024E+00 0.79695486E+03</pdfrwt>
<totfact> 0.11466480E+01</totfact>
</mgrwt>
</event>
<event>
 4    2  0.3388003E-007  0.8303149E+03  0.7818608E-02  0.9648720E-01
         -2   -1    0    0    0  501 -0.00000000000E+00  0.00000000000E+00  0.20622383444E+04  0.20622383444E+04  0.25500000000E-02 0.  1.
          2   -1    0    0  501    0  0.00000000000E+00 -0.00000000000E+00 -0.53501908884E+03  0.53501908885E+03  0.25500000000E-02 0. -1.
    8880023    1    1    2    0    0 -0.29207814735E+03  0.41267778532E+03  0.18148798335E+04  0.19957984906E+04  0.65864270000E+03 0.  0.
    8880022    1    1    2    0    0  0.29207814735E+03 -0.41267778532E+03 -0.28766057791E+03  0.60145894270E+03  0.15294330000E+03 0.  0.
<mgrwt>
<rscale>  0 0.74153810E+03</rscale>
<asrwt>0</asrwt>
<pdfrwt beam="1">  1        2 0.82310631E-01 0.83031488E+03</pdfrwt>
<pdfrwt beam="2">  1       -2 0.31726743E+00 0.83031488E+03</pdfrwt>
<totfact> 0.14626070E+00</totfact>
</mgrwt>
</event>
<event>
 4    2  0.3388003E-007  0.6792782E+03  0.7818608E-02  0.1009735E+00
         -2   -1    0    0    0  501 -0.00000000000E+00  0.00000000000E+00  0.15940592776E+03  0.15940592778E+03  0.25500000000E-02 0.  1.
          2   -1    0    0  501    0  0.00000000000E+00 -0.00000000000E+00 -0.16295705817E+04  0.16295705817E+04  0.25500000000E-02 0. -1.
    8880023    1    1    2    0    0  0.15534109023E+03  0.58972999901E+02 -0.65695367402E+03  0.94499047884E+03  0.65864270000E+03 0.  1.
    8880022    1    1    2    0    0 -0.15534109023E+03 -0.58972999901E+02 -0.81321097988E+03  0.84398603060E+03  0.15294330000E+03 0.  0.
<mgrwt>
<rscale>  0 0.51580123E+03</rscale>
<asrwt>0</asrwt>
<pdfrwt beam="1">  1        2 0.25070316E+00 0.67927820E+03</pdfrwt>
<pdfrwt beam="2">  1       -2 0.24523990E-01 0.67927820E+03</pdfrwt>
<totfact> 0.16313402E+02</totfact>
</mgrwt>
</event>
<event>
 4    2  0.3388003E-007  0.6781597E+03  0.7818608E-02  0.1010384E+00
         -2   -1    0    0    0  501 -0.00000000000E+00  0.00000000000E+00  0.50794229409E+03  0.50794229409E+03  0.25500000000E-02 0.  1.
          2   -1    0    0  501    0  0.00000000000E+00 -0.00000000000E+00 -0.19143447863E+04  0.19143447863E+04  0.25500000000E-02 0. -1.
    8880023    1    1    2    0    0  0.53281403978E+02 -0.15248436100E+03  0.27092429972E+03  0.73027431203E+03  0.65864270000E+03 0.  1.
    8880022    1    1    2    0    0 -0.53281403978E+02  0.15248436100E+03 -0.16773267919E+04  0.16920127683E+04  0.15294330000E+03 0.  0.
<mgrwt>
<rscale>  0 0.51322162E+03</rscale>
<asrwt>0</asrwt>
<pdfrwt beam="1">  1        2 0.29451458E+00 0.67815971E+03</pdfrwt>
<pdfrwt beam="2">  1       -2 0.78144969E-01 0.67815971E+03</pdfrwt>
<totfact> 0.11349565E+01</totfact>
</mgrwt>
</event>
<event>
 4    2  0.3388003E-007  0.7184859E+03  0.7818608E-02  0.9927743E-01
          2   -1    0    0  501    0  0.00000000000E+00  0.00000000000E+00  0.84568477769E+03  0.84568477769E+03  0.25500000000E-02 0. -1.
         -2   -1    0    0    0  501 -0.00000000000E+00 -0.00000000000E+00 -0.63687872588E+03  0.63687872588E+03  0.25500000000E-02 0.  1.
    8880023    1    1    2    0    0 -0.73052302552E+02 -0.27762398445E+03 -0.37783723064E+03  0.81177761411E+03  0.65864270000E+03 0.  0.
    8880022    1    1    2    0    0  0.73052302552E+02  0.27762398445E+03  0.58664328245E+03  0.67078588947E+03  0.15294330000E+03 0.  0.
<mgrwt>
<rscale>  0 0.58935382E+03</rscale>
<asrwt>0</asrwt>
<pdfrwt beam="1">  1        2 0.13010535E+00 0.71848585E+03</pdfrwt>
<pdfrwt beam="2">  1       -2 0.97981343E-01 0.71848585E+03</pdfrwt>
<totfact> 0.28190982E+01</totfact>
</mgrwt>
</event>
<event>
 4    2  0.3388003E-007  0.9725230E+03  0.7818608E-02  0.9418423E-01
          2   -1    0    0  501    0  0.00000000000E+00  0.00000000000E+00  0.23450362653E+04  0.23450362653E+04  0.25500000000E-02 0. -1.
         -2   -1    0    0    0  501 -0.00000000000E+00 -0.00000000000E+00 -0.62046629009E+03  0.62046629009E+03  0.25500000000E-02 0.  1.
    8880023    1    1    2    0    0  0.71324872256E+03  0.57158745004E+02  0.19673322353E+04  0.21945836035E+04  0.65864270000E+03 0. -1.
    8880022    1    1    2    0    0 -0.71324872256E+03 -0.57158745004E+02 -0.24276226014E+03  0.77091895185E+03  0.15294330000E+03 0.  0.
<mgrwt>
<rscale>  0 0.90574918E+03</rscale>
<asrwt>0</asrwt>
<pdfrwt beam="1">  1        2 0.36077482E+00 0.97252304E+03</pdfrwt>
<pdfrwt beam="2">  1       -2 0.95456351E-01 0.97252304E+03</pdfrwt>
<totfact> 0.39777713E+00</totfact>
</mgrwt>
</event>
<event>
 4    2  0.3388003E-007  0.6834582E+03  0.7818608E-02  0.1007431E+00
          2   -1    0    0  501    0  0.00000000000E+00  0.00000000000E+00  0.57409329168E+03  0.57409329168E+03  0.25500000000E-02 0. -1.
         -2   -1    0    0    0  501 -0.00000000000E+00 -0.00000000000E+00 -0.12299877114E+04  0.12299877114E+04  0.25500000000E-02 0.  1.
    8880023    1    1    2    0    0  0.16569831279E+03 -0.76478815314E+02 -0.11029653939E+04  0.12975545486E+04  0.65864270000E+03 0.  1.
    8880022    1    1    2    0    0 -0.16569831279E+03  0.76478815314E+02  0.44707097424E+03  0.50652645447E+03  0.15294330000E+03 0.  0.
<mgrwt>
<rscale>  0 0.52508378E+03</rscale>
<asrwt>0</asrwt>
<pdfrwt beam="1">  1        2 0.88322045E-01 0.68345823E+03</pdfrwt>
<pdfrwt beam="2">  1       -2 0.18922888E+00 0.68345823E+03</pdfrwt>
<totfact> 0.84210396E+00</totfact>
</mgrwt>
</event>
<event>
 4    2  0.3388003E-007  0.9741825E+03  0.7818608E-02  0.9416143E-01
         -2   -1    0    0    0  501 -0.00000000000E+00  0.00000000000E+00  0.86576517076E+03  0.86576517076E+03  0.25500000000E-02 0.  1.
          2   -1    0    0  501    0  0.00000000000E+00 -0.00000000000E+00 -0.10742061498E+04  0.10742061498E+04  0.25500000000E-02 0. -1.
    8880023    1    1    2    0    0  0.78764117172E+02 -0.71345471187E+03  0.33128760597E+03  0.10289718636E+04  0.65864270000E+03 0.  1.
    8880022    1    1    2    0    0 -0.78764117172E+02  0.71345471187E+03 -0.53972858504E+03  0.91099945695E+03  0.15294330000E+03 0.  0.
<mgrwt>
<rscale>  0 0.90759034E+03</rscale>
<asrwt>0</asrwt>
<pdfrwt beam="1">  1        2 0.16526248E+00 0.97418254E+03</pdfrwt>
<pdfrwt beam="2">  1       -2 0.13319464E+00 0.97418254E+03</pdfrwt>
<totfact> 0.91763248E+00</totfact>
</mgrwt>
</event>
<event>
 4    2  0.3388003E-007  0.1654681E+04  0.7818608E-02  0.8807490E-01
          2   -1    0    0  501    0  0.00000000000E+00  0.00000000000E+00  0.26187403281E+04  0.26187403281E+04  0.25500000000E-02 0. -1.
         -2   -1    0    0    0  501 -0.00000000000E+00 -0.00000000000E+00 -0.13097604097E+04  0.13097604097E+04  0.25500000000E-02 0.  1.
    8880023    1    1    2    0    0  0.10486999648E+04  0.10974456622E+04  0.16803791848E+04  0.23583135942E+04  0.65864270000E+03 0.  0.
    8880022    1    1    2    0    0 -0.10486999648E+04 -0.10974456622E+04 -0.37139926637E+03  0.15701871435E+04  0.15294330000E+03 0.  0.
<mgrwt>
<rscale>  0 0.16214295E+04</rscale>
<asrwt>0</asrwt>
<pdfrwt beam="1">  1        2 0.40288312E+00 0.16546809E+04</pdfrwt>
<pdfrwt beam="2">  1       -2 0.20150160E+00 0.16546809E+04</pdfrwt>
<totfact> 0.35657569E-01</totfact>
</mgrwt>
</event>
<event>
 4    2  0.3388003E-007  0.9003573E+03  0.7818608E-02  0.9525458E-01
          2   -1    0    0  501    0  0.00000000000E+00  0.00000000000E+00  0.15300569665E+04  0.15300569665E+04  0.25500000000E-02 0. -1.
         -2   -1    0    0    0  501 -0.00000000000E+00 -0.00000000000E+00 -0.40453071133E+03  0.40453071134E+03  0.25500000000E-02 0.  1.
    8880023    1    1    2    0    0  0.60497078128E+03  0.10413181689E+03  0.44122456388E+03  0.10026576702E+04  0.65864270000E+03 0.  1.
    8880022    1    1    2    0    0 -0.60497078128E+03 -0.10413181689E+03  0.68430169127E+03  0.93193000766E+03  0.15294330000E+03 0.  0.
<mgrwt>
<rscale>  0 0.82432631E+03</rscale>
<asrwt>0</asrwt>
<pdfrwt beam="1">  1        2 0.23539337E+00 0.90035731E+03</pdfrwt>
<pdfrwt beam="2">  1       -2 0.62235496E-01 0.90035731E+03</pdfrwt>
<totfact> 0.29478330E+01</totfact>
</mgrwt>
</event>
<event>
 4    2  0.3388003E-007  0.1023928E+04  0.7818608E-02  0.9350901E-01
          2   -1    0    0  501    0  0.00000000000E+00  0.00000000000E+00  0.45671676101E+03  0.45671676102E+03  0.25500000000E-02 0. -1.
         -2   -1    0    0    0  501 -0.00000000000E+00 -0.00000000000E+00 -0.26516203235E+04  0.26516203235E+04  0.25500000000E-02 0.  1.
    8880023    1    1    2    0    0  0.31625915209E+03 -0.71735464670E+03 -0.20570146201E+04  0.22977678068E+04  0.65864270000E+03 0.  0.
    8880022    1    1    2    0    0 -0.31625915209E+03  0.71735464670E+03 -0.13788894231E+03  0.81056927764E+03  0.15294330000E+03 0.  0.
<mgrwt>
<rscale>  0 0.96228852E+03</rscale>
<asrwt>0</asrwt>
<pdfrwt beam="1">  1        2 0.70264119E-01 0.10239276E+04</pdfrwt>
<pdfrwt beam="2">  1       -2 0.40794158E+00 0.10239276E+04</pdfrwt>
<totfact> 0.45817693E-01</totfact>
</mgrwt>
</event>
<event>
 4    2  0.3388003E-007  0.6829015E+03  0.7818608E-02  0.1007728E+00
          2   -1    0    0  501    0  0.00000000000E+00  0.00000000000E+00  0.33684827830E+03  0.33684827831E+03  0.25500000000E-02 0. -1.
         -2   -1    0    0    0  501 -0.00000000000E+00 -0.00000000000E+00 -0.73443770115E+03  0.73443770115E+03  0.25500000000E-02 0.  1.
    8880023    1    1    2    0    0  0.17647921130E+03 -0.37407225931E+02 -0.46401207398E+03  0.82562801771E+03  0.65864270000E+03 0.  1.
    8880022    1    1    2    0    0 -0.17647921130E+03  0.37407225931E+02  0.66422651127E+02  0.24565796175E+03  0.15294330000E+03 0.  1.
<mgrwt>
<rscale>  0 0.52387760E+03</rscale>
<asrwt>0</asrwt>
<pdfrwt beam="1">  1        2 0.51822812E-01 0.68290147E+03</pdfrwt>
<pdfrwt beam="2">  1       -2 0.11299042E+00 0.68290147E+03</pdfrwt>
<totfact> 0.60241369E+01</totfact>
</mgrwt>
</event>
<event>
 4    2  0.3702490E-007  0.8087389E+03  0.7818608E-02  0.9692210E-01
         -2   -1    0    0    0  501 -0.00000000000E+00  0.00000000000E+00  0.84829153310E+03  0.84829153311E+03  0.25500000000E-02 0.  1.
          2   -1    0    0  501    0  0.00000000000E+00 -0.00000000000E+00 -0.22619382284E+04  0.22619382284E+04  0.25500000000E-02 0. -1.
    8880023    1    1    2    0    0  0.46719691523E+03  0.44445436542E+02  0.61904430640E+03  0.10184666975E+04  0.65864270000E+03 0.  1.
    8880022    1    1    2    0    0 -0.46719691523E+03 -0.44445436542E+02 -0.20326910017E+04  0.20917630640E+04  0.15294330000E+03 0.  0.
<mgrwt>
<rscale>  0 0.71482513E+03</rscale>
<asrwt>0</asrwt>
<pdfrwt beam="1">  1        2 0.34799049E+00 0.80873887E+03</pdfrwt>
<pdfrwt beam="2">  1       -2 0.13050639E+00 0.80873887E+03</pdfrwt>
<totfact> 0.21162777E+00</totfact>
</mgrwt>
</event>
<event>
 4    2  0.3388003E-007  0.7694930E+03  0.7818608E-02  0.9781123E-01
         -2   -1    0    0    0  501 -0.00000000000E+00  0.00000000000E+00  0.24639894582E+03  0.24639894583E+03  0.25500000000E-02 0.  1.
          2   -1    0    0  501    0  0.00000000000E+00 -0.00000000000E+00 -0.15427611054E+04  0.15427611054E+04  0.25500000000E-02 0. -1.
    8880023    1    1    2    0    0  0.35897845231E+03 -0.17159192462E+03 -0.10329923716E+04  0.12880965662E+04  0.65864270000E+03 0. -1.
    8880022    1    1    2    0    0 -0.35897845231E+03  0.17159192462E+03 -0.26336978804E+03  0.50106348509E+03  0.15294330000E+03 0.  1.
<mgrwt>
<rscale>  0 0.66385491E+03</rscale>
<asrwt>0</asrwt>
<pdfrwt beam="1">  1        2 0.23734786E+00 0.76949303E+03</pdfrwt>
<pdfrwt beam="2">  1       -2 0.37907531E-01 0.76949303E+03</pdfrwt>
<totfact> 0.80298553E+01</totfact>
</mgrwt>
</event>
<event>
 4    2  0.3388003E-007  0.9087932E+03  0.7818608E-02  0.9512061E-01
         -2   -1    0    0    0  501 -0.00000000000E+00  0.00000000000E+00  0.47425541342E+03  0.47425541343E+03  0.25500000000E-02 0.  1.
          2   -1    0    0  501    0  0.00000000000E+00 -0.00000000000E+00 -0.21098670314E+04  0.21098670314E+04  0.25500000000E-02 0. -1.
    8880023    1    1    2    0    0  0.48681255331E+03  0.39383810931E+03 -0.94565021311E+02  0.91369998792E+03  0.65864270000E+03 0.  1.
    8880022    1    1    2    0    0 -0.48681255331E+03 -0.39383810931E+03 -0.15410465966E+04  0.16704224569E+04  0.15294330000E+03 0.  0.
<mgrwt>
<rscale>  0 0.83400458E+03</rscale>
<asrwt>0</asrwt>
<pdfrwt beam="1">  1        2 0.32459492E+00 0.90879322E+03</pdfrwt>
<pdfrwt beam="2">  1       -2 0.72962372E-01 0.90879322E+03</pdfrwt>
<totfact> 0.99972689E+00</totfact>
</mgrwt>
</event>
<event>
 4    2  0.3388003E-007  0.1105649E+04  0.7818608E-02  0.9254793E-01
         -2   -1    0    0    0  501 -0.00000000000E+00  0.00000000000E+00  0.71184061778E+03  0.71184061779E+03  0.25500000000E-02 0.  1.
          2   -1    0    0  501    0  0.00000000000E+00 -0.00000000000E+00 -0.17291969497E+04  0.17291969497E+04  0.25500000000E-02 0. -1.
    8880023    1    1    2    0    0  0.55440395142E+03  0.69374743562E+03 -0.10696622036E+04  0.15383876891E+04  0.65864270000E+03 0. -1.
    8880022    1    1    2    0    0 -0.55440395142E+03 -0.69374743562E+03  0.52305871700E+02  0.90264987842E+03  0.15294330000E+03 0.  0.
<mgrwt>
<rscale>  0 0.10505341E+04</rscale>
<asrwt>0</asrwt>
<pdfrwt beam="1">  1        2 0.26603030E+00 0.11056489E+04</pdfrwt>
<pdfrwt beam="2">  1       -2 0.10951394E+00 0.11056489E+04</pdfrwt>
<totfact> 0.61827124E+00</totfact>
</mgrwt>
</event>
<event>
 4    2  0.3388003E-007  0.7964897E+03  0.7818608E-02  0.9718438E-01
          2   -1    0    0  501    0  0.00000000000E+00  0.00000000000E+00  0.94300924924E+03  0.94300924925E+03  0.25500000000E-02 0. -1.
         -2   -1    0    0    0  501 -0.00000000000E+00 -0.00000000000E+00 -0.96168981297E+03  0.96168981297E+03  0.25500000000E-02 0.  1.
    8880023    1    1    2    0    0 -0.28260748684E+03 -0.34744596823E+03 -0.70993368883E+03  0.10669591095E+04  0.65864270000E+03 0.  0.
    8880022    1    1    2    0    0  0.28260748684E+03  0.34744596823E+03  0.69125312511E+03  0.83773995276E+03  0.15294330000E+03 0.  0.
<mgrwt>
<rscale>  0 0.69929536E+03</rscale>
<asrwt>0</asrwt>
<pdfrwt beam="1">  1        2 0.14507835E+00 0.79648974E+03</pdfrwt>
<pdfrwt beam="2">  1       -2 0.14795228E+00 0.79648974E+03</pdfrwt>
<totfact> 0.86293055E+00</totfact>
</mgrwt>
</event>
<event>
 4    2  0.3388003E-007  0.8610904E+03  0.7818608E-02  0.9591627E-01
         -2   -1    0    0    0  501 -0.00000000000E+00  0.00000000000E+00  0.11210920482E+04  0.11210920482E+04  0.25500000000E-02 0.  1.
          2   -1    0    0  501    0  0.00000000000E+00 -0.00000000000E+00 -0.20211478348E+04  0.20211478348E+04  0.25500000000E-02 0. -1.
    8880023    1    1    2    0    0  0.55301617197E+03 -0.42889726792E+02  0.90410484511E+03  0.12485520383E+04  0.65864270000E+03 0.  1.
    8880022    1    1    2    0    0 -0.55301617197E+03  0.42889726792E+02 -0.18041606317E+04  0.18936878447E+04  0.15294330000E+03 0.  0.
<mgrwt>
<rscale>  0 0.77852860E+03</rscale>
<asrwt>0</asrwt>
<pdfrwt beam="1">  1        2 0.31094582E+00 0.86109037E+03</pdfrwt>
<pdfrwt beam="2">  1       -2 0.17247570E+00 0.86109037E+03</pdfrwt>
<totfact> 0.13572876E+00</totfact>
</mgrwt>
</event>
<event>
 4    2  0.3388003E-007  0.1199629E+04  0.7818608E-02  0.9157483E-01
          2   -1    0    0  501    0  0.00000000000E+00  0.00000000000E+00  0.21010592094E+04  0.21010592094E+04  0.25500000000E-02 0. -1.
         -2   -1    0    0    0  501 -0.00000000000E+00 -0.00000000000E+00 -0.11688482878E+04  0.11688482878E+04  0.25500000000E-02 0.  1.
    8880023    1    1    2    0    0  0.92229254621E+03 -0.39328874525E+03 -0.66970502765E+03  0.13739048760E+04  0.65864270000E+03 0.  0.
    8880022    1    1    2    0    0 -0.92229254621E+03  0.39328874525E+03  0.16019159493E+04  0.18960026212E+04  0.15294330000E+03 0.  0.
<mgrwt>
<rscale>  0 0.11503258E+04</rscale>
<asrwt>0</asrwt>
<pdfrwt beam="1">  1        2 0.32323988E+00 0.11996290E+04</pdfrwt>
<pdfrwt beam="2">  1       -2 0.17982281E+00 0.11996290E+04</pdfrwt>
<totfact> 0.10375814E+00</totfact>
</mgrwt>
</event>
<event>
 4    2  0.3388003E-007  0.7669307E+03  0.7818608E-02  0.9787484E-01
         -2   -1    0    0    0  501 -0.00000000000E+00  0.00000000000E+00  0.66333220458E+03  0.66333220459E+03  0.25500000000E-02 0.  1.
          2   -1    0    0  501    0  0.00000000000E+00 -0.00000000000E+00 -0.11881632059E+04  0.11881632059E+04  0.25500000000E-02 0. -1.
    8880023    1    1    2    0    0 -0.37275602015E+03 -0.12419930080E+03  0.37803219076E+03  0.85503863094E+03  0.65864270000E+03 0.  1.
    8880022    1    1    2    0    0  0.37275602015E+03  0.12419930080E+03 -0.90286319205E+03  0.99645677952E+03  0.15294330000E+03 0.  0.
<mgrwt>
<rscale>  0 0.66038565E+03</rscale>
<asrwt>0</asrwt>
<pdfrwt beam="1">  1        2 0.18279434E+00 0.76693072E+03</pdfrwt>
<pdfrwt beam="2">  1       -2 0.10205111E+00 0.76693072E+03</pdfrwt>
<totfact> 0.15412678E+01</totfact>
</mgrwt>
</event>
<event>
 4    2  0.3388003E-007  0.7398214E+03  0.7818608E-02  0.9860468E-01
         -2   -1    0    0    0  501 -0.00000000000E+00  0.00000000000E+00  0.60963806385E+03  0.60963806386E+03  0.25500000000E-02 0.  1.
          2   -1    0    0  501    0  0.00000000000E+00 -0.00000000000E+00 -0.52538289010E+03  0.52538289010E+03  0.25500000000E-02 0. -1.
    8880023    1    1    2    0    0 -0.10684684253E+03  0.31954532249E+03  0.16096589340E+03  0.75712990034E+03  0.65864270000E+03 0.  1.
    8880022    1    1    2    0    0  0.10684684253E+03 -0.31954532249E+03 -0.76710719644E+02  0.37789105362E+03  0.15294330000E+03 0.  0.
<mgrwt>
<rscale>  0 0.62216041E+03</rscale>
<asrwt>0</asrwt>
<pdfrwt beam="1">  1        2 0.80828137E-01 0.73982138E+03</pdfrwt>
<pdfrwt beam="2">  1       -2 0.93790471E-01 0.73982138E+03</pdfrwt>
<totfact> 0.56499772E+01</totfact>
</mgrwt>
</event>
<event>
 4    2  0.3388003E-007  0.8114605E+03  0.7818608E-02  0.9686543E-01
          2   -1    0    0  501    0  0.00000000000E+00  0.00000000000E+00  0.93305693845E+03  0.93305693845E+03  0.25500000000E-02 0. -1.
         -2   -1    0    0    0  501 -0.00000000000E+00 -0.00000000000E+00 -0.85715874674E+03  0.85715874674E+03  0.25500000000E-02 0.  1.
    8880023    1    1    2    0    0  0.28877955169E+03  0.37585134671E+03 -0.55745736831E+03  0.98449316303E+03  0.65864270000E+03 0.  1.
    8880022    1    1    2    0    0 -0.28877955169E+03 -0.37585134671E+03  0.63335556002E+03  0.80572252216E+03  0.15294330000E+03 0.  0.
<mgrwt>
<rscale>  0 0.71823707E+03</rscale>
<asrwt>0</asrwt>
<pdfrwt beam="1">  1        2 0.14354722E+00 0.81146046E+03</pdfrwt>
<pdfrwt beam="2">  1       -2 0.13187058E+00 0.81146046E+03</pdfrwt>
<totfact> 0.11783230E+01</totfact>
</mgrwt>
</event>
<event>
 4    2  0.3388003E-007  0.1374879E+04  0.7818608E-02  0.9003453E-01
          2   -1    0    0  501    0  0.00000000000E+00  0.00000000000E+00  0.15479727476E+04  0.15479727476E+04  0.25500000000E-02 0. -1.
         -2   -1    0    0    0  501 -0.00000000000E+00 -0.00000000000E+00 -0.19453338346E+04  0.19453338346E+04  0.25500000000E-02 0.  1.
    8880023    1    1    2    0    0 -0.76846777037E+03  0.93055829323E+03  0.95522561895E+03  0.16741408664E+04  0.65864270000E+03 0.  0.
    8880022    1    1    2    0    0  0.76846777037E+03 -0.93055829323E+03 -0.13525867060E+04  0.18191657158E+04  0.15294330000E+03 0.  0.
<mgrwt>
<rscale>  0 0.13334489E+04</rscale>
<asrwt>0</asrwt>
<pdfrwt beam="1">  1        2 0.23814965E+00 0.13748788E+04</pdfrwt>
<pdfrwt beam="2">  1       -2 0.29928213E+00 0.13748788E+04</pdfrwt>
<totfact> 0.36532693E-01</totfact>
</mgrwt>
</event>
<event>
 4    2  0.3388003E-007  0.7706760E+03  0.7818608E-02  0.9778213E-01
          2   -1    0    0  501    0  0.00000000000E+00  0.00000000000E+00  0.40596228963E+03  0.40596228964E+03  0.25500000000E-02 0. -1.
         -2   -1    0    0    0  501 -0.00000000000E+00 -0.00000000000E+00 -0.12370358426E+04  0.12370358426E+04  0.25500000000E-02 0.  1.
    8880023    1    1    2    0    0 -0.19201758836E+03 -0.35108469363E+03 -0.92545484505E+03  0.12043288973E+04  0.65864270000E+03 0.  0.
    8880022    1    1    2    0    0  0.19201758836E+03  0.35108469363E+03  0.94381292123E+02  0.43866923491E+03  0.15294330000E+03 0.  0.
<mgrwt>
<rscale>  0 0.66544954E+03</rscale>
<asrwt>0</asrwt>
<pdfrwt beam="1">  1        2 0.62455737E-01 0.77067595E+03</pdfrwt>
<pdfrwt beam="2">  1       -2 0.19031321E+00 0.77067595E+03</pdfrwt>
<totfact> 0.12245305E+01</totfact>
</mgrwt>
</event>
<event>
 4    2  0.3388003E-007  0.6659709E+03  0.7818608E-02  0.1018732E+00
         -2   -1    0    0    0  501 -0.00000000000E+00  0.00000000000E+00  0.14817968330E+04  0.14817968330E+04  0.25500000000E-02 0.  1.
          2   -1    0    0  501    0  0.00000000000E+00 -0.00000000000E+00 -0.34786001108E+03  0.34786001109E+03  0.25500000000E-02 0. -1.
    8880023    1    1    2    0    0 -0.58117165158E+02  0.79557669196E+02  0.13749156137E+04  0.15277140370E+04  0.65864270000E+03 0.  1.
    8880022    1    1    2    0    0  0.58117165158E+02 -0.79557669196E+02 -0.24097879185E+03  0.30194280708E+03  0.15294330000E+03 0.  0.
<mgrwt>
<rscale>  0 0.48146838E+03</rscale>
<asrwt>0</asrwt>
<pdfrwt beam="1">  1        2 0.53516924E-01 0.66597090E+03</pdfrwt>
<pdfrwt beam="2">  1       -2 0.22796875E+00 0.66597090E+03</pdfrwt>
<totfact> 0.84629740E+00</totfact>
</mgrwt>
</event>
<event>
 4    2  0.3388003E-007  0.8578756E+03  0.7818608E-02  0.9597353E-01
          2   -1    0    0  501    0  0.00000000000E+00  0.00000000000E+00  0.14641607442E+04  0.14641607442E+04  0.25500000000E-02 0. -1.
         -2   -1    0    0    0  501 -0.00000000000E+00 -0.00000000000E+00 -0.42564503984E+03  0.42564503985E+03  0.25500000000E-02 0.  1.
    8880023    1    1    2    0    0 -0.54743326912E+03  0.49570399590E+02  0.20891970363E+03  0.88294850217E+03  0.65864270000E+03 0.  1.
    8880022    1    1    2    0    0  0.54743326912E+03 -0.49570399590E+02  0.82959600077E+03  0.10068572819E+04  0.15294330000E+03 0.  0.
<mgrwt>
<rscale>  0 0.77471591E+03</rscale>
<asrwt>0</asrwt>
<pdfrwt beam="1">  1        2 0.22525550E+00 0.85787564E+03</pdfrwt>
<pdfrwt beam="2">  1       -2 0.65483852E-01 0.85787564E+03</pdfrwt>
<totfact> 0.28894928E+01</totfact>
</mgrwt>
</event>
<event>
 4    2  0.3388003E-007  0.9887393E+03  0.7818608E-02  0.9396441E-01
          2   -1    0    0  501    0  0.00000000000E+00  0.00000000000E+00  0.33857946096E+04  0.33857946096E+04  0.25500000000E-02 0. -1.
         -2   -1    0    0    0  501 -0.00000000000E+00 -0.00000000000E+00 -0.24658693829E+03  0.24658693830E+03  0.25500000000E-02 0.  1.
    8880023    1    1    2    0    0 -0.49813852842E+03  0.54374003729E+03  0.12177676915E+04  0.15686183661E+04  0.65864270000E+03 0.  0.
    8880022    1    1    2    0    0  0.49813852842E+03 -0.54374003729E+03  0.19214399798E+04  0.20637631818E+04  0.15294330000E+03 0.  0.
<mgrwt>
<rscale>  0 0.92369187E+03</rscale>
<asrwt>0</asrwt>
<pdfrwt beam="1">  1        2 0.52089147E+00 0.98873931E+03</pdfrwt>
<pdfrwt beam="2">  1       -2 0.37936452E-01 0.98873931E+03</pdfrwt>
<totfact> 0.66185925E+00</totfact>
</mgrwt>
</event>
<event>
 4    2  0.3388003E-007  0.8265585E+03  0.7818608E-02  0.9656066E-01
          2   -1    0    0  501    0  0.00000000000E+00  0.00000000000E+00  0.10466620554E+04  0.10466620554E+04  0.25500000000E-02 0. -1.
         -2   -1    0    0    0  501 -0.00000000000E+00 -0.00000000000E+00 -0.69968979699E+03  0.69968979700E+03  0.25500000000E-02 0.  1.
    8880023    1    1    2    0    0  0.47531997234E+03 -0.15316551393E+03 -0.33113899942E+03  0.89042236829E+03  0.65864270000E+03 0.  1.
    8880022    1    1    2    0    0 -0.47531997234E+03  0.15316551393E+03  0.67811125784E+03  0.85592948412E+03  0.15294330000E+03 0.  0.
<mgrwt>
<rscale>  0 0.73693951E+03</rscale>
<asrwt>0</asrwt>
<pdfrwt beam="1">  1        2 0.16102493E+00 0.82655850E+03</pdfrwt>
<pdfrwt beam="2">  1       -2 0.10764458E+00 0.82655850E+03</pdfrwt>
<totfact> 0.16434017E+01</totfact>
</mgrwt>
</event>
<event>
 4    2  0.3388003E-007  0.7247292E+03  0.7818608E-02  0.9906897E-01
          2   -1    0    0  501    0  0.00000000000E+00  0.00000000000E+00  0.13532738330E+04  0.13532738330E+04  0.25500000000E-02 0. -1.
         -2   -1    0    0    0  501 -0.00000000000E+00 -0.00000000000E+00 -0.68366885809E+03  0.68366885809E+03  0.25500000000E-02 0.  1.
    8880023    1    1    2    0    0 -0.20909415536E+03  0.21840753954E+03 -0.45947933752E+03  0.85811053309E+03  0.65864270000E+03 0.  1.
    8880022    1    1    2    0    0  0.20909415536E+03 -0.21840753954E+03  0.11290843124E+04  0.11788321580E+04  0.15294330000E+03 0.  0.
<mgrwt>
<rscale>  0 0.59928184E+03</rscale>
<asrwt>0</asrwt>
<pdfrwt beam="1">  1        2 0.20819597E+00 0.72472921E+03</pdfrwt>
<pdfrwt beam="2">  1       -2 0.10517983E+00 0.72472921E+03</pdfrwt>
<totfact> 0.11555664E+01</totfact>
</mgrwt>
</event>
<event>
 4    2  0.3388003E-007  0.7004545E+03  0.7818608E-02  0.9995321E-01
          2   -1    0    0  501    0  0.00000000000E+00  0.00000000000E+00  0.17406679056E+04  0.17406679056E+04  0.25500000000E-02 0. -1.
         -2   -1    0    0    0  501 -0.00000000000E+00 -0.00000000000E+00 -0.54277535212E+03  0.54277535213E+03  0.25500000000E-02 0.  1.
    8880023    1    1    2    0    0  0.18169332981E+03  0.15431733024E+03 -0.29782833931E+03  0.76114271360E+03  0.65864270000E+03 0.  0.
    8880022    1    1    2    0    0 -0.18169332981E+03 -0.15431733024E+03  0.14957208928E+04  0.15223005441E+04  0.15294330000E+03 0.  0.
<mgrwt>
<rscale>  0 0.55855880E+03</rscale>
<asrwt>0</asrwt>
<pdfrwt beam="1">  1        2 0.26779507E+00 0.70045450E+03</pdfrwt>
<pdfrwt beam="2">  1       -2 0.83503898E-01 0.70045450E+03</pdfrwt>
<totfact> 0.12107666E+01</totfact>
</mgrwt>
</event>
<event>
 4    2  0.3388003E-007  0.6713780E+03  0.7818608E-02  0.1014694E+00
          2   -1    0    0  501    0  0.00000000000E+00  0.00000000000E+00  0.87420816688E+03  0.87420816688E+03  0.25500000000E-02 0. -1.
         -2   -1    0    0    0  501 -0.00000000000E+00 -0.00000000000E+00 -0.29268331696E+03  0.29268331697E+03  0.25500000000E-02 0.  1.
    8880023    1    1    2    0    0 -0.12982139088E+03 -0.91992461176E+01  0.14567435532E+03  0.68700032294E+03  0.65864270000E+03 0.  1.
    8880022    1    1    2    0    0  0.12982139088E+03  0.91992461176E+01  0.43585049461E+03  0.47989116091E+03  0.15294330000E+03 0.  0.
<mgrwt>
<rscale>  0 0.49651079E+03</rscale>
<asrwt>0</asrwt>
<pdfrwt beam="1">  1        2 0.13449356E+00 0.67137801E+03</pdfrwt>
<pdfrwt beam="2">  1       -2 0.45028203E-01 0.67137801E+03</pdfrwt>
<totfact> 0.14517124E+02</totfact>
</mgrwt>
</event>
<event>
 4    2  0.3388003E-007  0.7393219E+03  0.7818608E-02  0.9861927E-01
          2   -1    0    0  501    0  0.00000000000E+00  0.00000000000E+00  0.12525158223E+04  0.12525158223E+04  0.25500000000E-02 0. -1.
         -2   -1    0    0    0  501 -0.00000000000E+00 -0.00000000000E+00 -0.37818650967E+03  0.37818650967E+03  0.25500000000E-02 0.  1.
    8880023    1    1    2    0    0 -0.16213318529E+02  0.33544558113E+03  0.66170229312E+02  0.74227711477E+03  0.65864270000E+03 0.  1.
    8880022    1    1    2    0    0  0.16213318529E+02 -0.33544558113E+03  0.80815908330E+03  0.88842521718E+03  0.15294330000E+03 0.  0.
<mgrwt>
<rscale>  0 0.62142488E+03</rscale>
<asrwt>0</asrwt>
<pdfrwt beam="1">  1        2 0.19269474E+00 0.73932186E+03</pdfrwt>
<pdfrwt beam="2">  1       -2 0.58182540E-01 0.73932186E+03</pdfrwt>
<totfact> 0.49662354E+01</totfact>
</mgrwt>
</event>
<event>
 4    2  0.3388003E-007  0.6857713E+03  0.7818608E-02  0.1006231E+00
          2   -1    0    0  501    0  0.00000000000E+00  0.00000000000E+00  0.15344332555E+04  0.15344332555E+04  0.25500000000E-02 0. -1.
         -2   -1    0    0    0  501 -0.00000000000E+00 -0.00000000000E+00 -0.44493131899E+03  0.44493131900E+03  0.25500000000E-02 0.  1.
    8880023    1    1    2    0    0 -0.14648272316E+03  0.12253517059E+03 -0.16160691967E+03  0.70455593033E+03  0.65864270000E+03 0.  0.
    8880022    1    1    2    0    0  0.14648272316E+03 -0.12253517059E+03  0.12511088562E+04  0.12748086442E+04  0.15294330000E+03 0.  0.
<mgrwt>
<rscale>  0 0.53000495E+03</rscale>
<asrwt>0</asrwt>
<pdfrwt beam="1">  1        2 0.23606665E+00 0.68577129E+03</pdfrwt>
<pdfrwt beam="2">  1       -2 0.68450973E-01 0.68577129E+03</pdfrwt>
<totfact> 0.24465004E+01</totfact>
</mgrwt>
</event>
<event>
 4    2  0.3388003E-007  0.1266349E+04  0.7818608E-02  0.9095178E-01
         -2   -1    0    0    0  501 -0.00000000000E+00  0.00000000000E+00  0.11675567285E+04  0.11675567285E+04  0.25500000000E-02 0.  1.
          2   -1    0    0  501    0  0.00000000000E+00 -0.00000000000E+00 -0.22427974693E+04  0.22427974693E+04  0.25500000000E-02 0. -1.
    8880023    1    1    2    0    0 -0.39780172159E+03  0.10057749793E+04  0.60720693390E+03  0.14044002227E+04  0.65864270000E+03 0.  0.
    8880022    1    1    2    0    0  0.39780172159E+03 -0.10057749793E+04 -0.16824476747E+04  0.20059539750E+04  0.15294330000E+03 0. -1.
<mgrwt>
<rscale>  0 0.12204084E+04</rscale>
<asrwt>0</asrwt>
<pdfrwt beam="1">  1        2 0.34504576E+00 0.12663490E+04</pdfrwt>
<pdfrwt beam="2">  1       -2 0.17962411E+00 0.12663490E+04</pdfrwt>
<totfact> 0.86023857E-01</totfact>
</mgrwt>
</event>
<event>
 4    2  0.3388003E-007  0.7016398E+03  0.7818608E-02  0.9990465E-01
         -2   -1    0    0    0  501 -0.00000000000E+00  0.00000000000E+00  0.42256982023E+03  0.42256982023E+03  0.25500000000E-02 0.  1.
          2   -1    0    0  501    0  0.00000000000E+00 -0.00000000000E+00 -0.76793326825E+03  0.76793326825E+03  0.25500000000E-02 0. -1.
    8880023    1    1    2    0    0 -0.15934027960E+03  0.18193111528E+03  0.48902986412E+02  0.70334199630E+03  0.65864270000E+03 0.  0.
    8880022    1    1    2    0    0  0.15934027960E+03 -0.18193111528E+03 -0.39426643443E+03  0.48716109219E+03  0.15294330000E+03 0.  0.
<mgrwt>
<rscale>  0 0.56070296E+03</rscale>
<asrwt>0</asrwt>
<pdfrwt beam="1">  1        2 0.11814358E+00 0.70163984E+03</pdfrwt>
<pdfrwt beam="2">  1       -2 0.65010741E-01 0.70163984E+03</pdfrwt>
<totfact> 0.80636000E+01</totfact>
</mgrwt>
</event>
<event>
 4    2  0.4034193E-007  0.7258882E+03  0.7818608E-02  0.9903144E-01
          2   -1    0    0  501    0  0.00000000000E+00  0.00000000000E+00  0.15273148124E+04  0.15273148124E+04  0.25500000000E-02 0. -1.
         -2   -1    0    0    0  501 -0.00000000000E+00 -0.00000000000E+00 -0.14056165221E+04  0.14056165221E+04  0.25500000000E-02 0.  1.
    8880023    1    1    2    0    0 -0.29381432462E+03  0.82320403344E+02 -0.12901904252E+04  0.14803732791E+04  0.65864270000E+03 0.  0.
    8880022    1    1    2    0    0  0.29381432462E+03 -0.82320403344E+02  0.14118887154E+04  0.14525580553E+04  0.15294330000E+03 0.  0.
<mgrwt>
<rscale>  0 0.60109179E+03</rscale>
<asrwt>0</asrwt>
<pdfrwt beam="1">  1        2 0.23497151E+00 0.72588822E+03</pdfrwt>
<pdfrwt beam="2">  1       -2 0.21624870E+00 0.72588822E+03</pdfrwt>
<totfact> 0.13310101E+00</totfact>
</mgrwt>
</event>
<event>
 4    2  0.3388003E-007  0.8521275E+03  0.7818608E-02  0.9607723E-01
         -2   -1    0    0    0  501 -0.00000000000E+00  0.00000000000E+00  0.13863209977E+04  0.13863209977E+04  0.25500000000E-02 0.  1.
          2   -1    0    0  501    0  0.00000000000E+00 -0.00000000000E+00 -0.99685575015E+03  0.99685575015E+03  0.25500000000E-02 0. -1.
    8880023    1    1    2    0    0  0.12535265092E+03 -0.52592561904E+03  0.11539150353E+04  0.14344480328E+04  0.65864270000E+03 0.  1.
    8880022    1    1    2    0    0 -0.12535265092E+03  0.52592561904E+03 -0.76444978772E+03  0.94872871508E+03  0.15294330000E+03 0.  0.
<mgrwt>
<rscale>  0 0.76787091E+03</rscale>
<asrwt>0</asrwt>
<pdfrwt beam="1">  1        2 0.15336242E+00 0.85212748E+03</pdfrwt>
<pdfrwt beam="2">  1       -2 0.21328015E+00 0.85212748E+03</pdfrwt>
<totfact> 0.27919427E+00</totfact>
</mgrwt>
</event>
<event>
 4    2  0.3388003E-007  0.1207731E+04  0.7818608E-02  0.9149643E-01
         -2   -1    0    0    0  501 -0.00000000000E+00  0.00000000000E+00  0.49258538195E+03  0.49258538195E+03  0.25500000000E-02 0.  1.
          2   -1    0    0  501    0  0.00000000000E+00 -0.00000000000E+00 -0.27949205968E+04  0.27949205968E+04  0.25500000000E-02 0. -1.
    8880023    1    1    2    0    0 -0.88199626566E+03 -0.49687757606E+03 -0.72995805969E+03  0.14111887590E+04  0.65864270000E+03 0.  0.
    8880022    1    1    2    0    0  0.88199626566E+03  0.49687757606E+03 -0.15723771551E+04  0.18763172198E+04  0.15294330000E+03 0.  0.
<mgrwt>
<rscale>  0 0.11588656E+04</rscale>
<asrwt>0</asrwt>
<pdfrwt beam="1">  1        2 0.42998777E+00 0.12077313E+04</pdfrwt>
<pdfrwt beam="2">  1       -2 0.75782368E-01 0.12077313E+04</pdfrwt>
<totfact> 0.35975187E+00</totfact>
</mgrwt>
</event>
<event>
 4    2  0.3388003E-007  0.7906480E+03  0.7818608E-02  0.9731394E-01
         -2   -1    0    0    0  501 -0.00000000000E+00  0.00000000000E+00  0.19791804170E+04  0.19791804170E+04  0.25500000000E-02 0.  1.
          2   -1    0    0  501    0  0.00000000000E+00 -0.00000000000E+00 -0.49337536652E+03  0.49337536653E+03  0.25500000000E-02 0. -1.
    8880023    1    1    2    0    0 -0.39168599025E+03  0.19466937162E+03  0.17633054417E+04  0.19324519053E+04  0.65864270000E+03 0.  0.
    8880022    1    1    2    0    0  0.39168599025E+03 -0.19466937162E+03 -0.27750039120E+03  0.54010387828E+03  0.15294330000E+03 0.  0.
<mgrwt>
<rscale>  0 0.69177975E+03</rscale>
<asrwt>0</asrwt>
<pdfrwt beam="1">  1        2 0.75903903E-01 0.79064802E+03</pdfrwt>
<pdfrwt beam="2">  1       -2 0.30448929E+00 0.79064802E+03</pdfrwt>
<totfact> 0.19332215E+00</totfact>
</mgrwt>
</event>
<event>
 4    2  0.3388003E-007  0.7894165E+03  0.7818608E-02  0.9734165E-01
         -2   -1    0    0    0  501 -0.00000000000E+00  0.00000000000E+00  0.30754174943E+03  0.30754174944E+03  0.25500000000E-02 0.  1.
          2   -1    0    0  501    0  0.00000000000E+00 -0.00000000000E+00 -0.27238584101E+04  0.27238584101E+04  0.25500000000E-02 0. -1.
    8880023    1    1    2    0    0  0.42646413443E+03 -0.86582560309E+02 -0.26730623085E+03  0.83344527416E+03  0.65864270000E+03 0.  1.
    8880022    1    1    2    0    0 -0.42646413443E+03  0.86582560309E+02 -0.21490104298E+04  0.21979548854E+04  0.15294330000E+03 0.  0.
<mgrwt>
<rscale>  0 0.69018554E+03</rscale>
<asrwt>0</asrwt>
<pdfrwt beam="1">  1        2 0.41905513E+00 0.78941650E+03</pdfrwt>
<pdfrwt beam="2">  1       -2 0.47314117E-01 0.78941650E+03</pdfrwt>
<totfact> 0.11397250E+01</totfact>
</mgrwt>
</event>
<event>
 4    2  0.3388003E-007  0.7180309E+03  0.7818608E-02  0.9929306E-01
         -2   -1    0    0    0  501 -0.00000000000E+00  0.00000000000E+00  0.14690268735E+04  0.14690268735E+04  0.25500000000E-02 0.  1.
          2   -1    0    0  501    0  0.00000000000E+00 -0.00000000000E+00 -0.84731107640E+03  0.84731107640E+03  0.25500000000E-02 0. -1.
    8880023    1    1    2    0    0  0.21568813549E+03  0.18771453827E+03  0.13444588629E+04  0.15241843589E+04  0.65864270000E+03 0.  1.
    8880022    1    1    2    0    0 -0.21568813549E+03 -0.18771453827E+03 -0.72274306575E+03  0.79215359103E+03  0.15294330000E+03 0.  0.
<mgrwt>
<rscale>  0 0.58861778E+03</rscale>
<asrwt>0</asrwt>
<pdfrwt beam="1">  1        2 0.13035555E+00 0.71803087E+03</pdfrwt>
<pdfrwt beam="2">  1       -2 0.22600414E+00 0.71803087E+03</pdfrwt>
<totfact> 0.29798558E+00</totfact>
</mgrwt>
</event>
<event>
 4    2  0.3388003E-007  0.8838311E+03  0.7818608E-02  0.9552503E-01
         -2   -1    0    0    0  501 -0.00000000000E+00  0.00000000000E+00  0.48715287135E+03  0.48715287136E+03  0.25500000000E-02 0.  1.
          2   -1    0    0  501    0  0.00000000000E+00 -0.00000000000E+00 -0.14023684844E+04  0.14023684844E+04  0.25500000000E-02 0. -1.
    8880023    1    1    2    0    0 -0.67446604420E+02 -0.58548964792E+03 -0.92660864542E+03  0.12805315148E+04  0.65864270000E+03 0.  0.
    8880022    1    1    2    0    0  0.67446604420E+02  0.58548964792E+03  0.11393032342E+02  0.60898984102E+03  0.15294330000E+03 0.  0.
<mgrwt>
<rscale>  0 0.80521241E+03</rscale>
<asrwt>0</asrwt>
<pdfrwt beam="1">  1        2 0.21574900E+00 0.88383108E+03</pdfrwt>
<pdfrwt beam="2">  1       -2 0.74946596E-01 0.88383108E+03</pdfrwt>
<totfact> 0.23246936E+01</totfact>
</mgrwt>
</event>
<event>
 4    2  0.3388003E-007  0.6822431E+03  0.7818608E-02  0.1008082E+00
         -2   -1    0    0    0  501 -0.00000000000E+00  0.00000000000E+00  0.20066319453E+03  0.20066319454E+03  0.25500000000E-02 0.  1.
          2   -1    0    0  501    0  0.00000000000E+00 -0.00000000000E+00 -0.36275416547E+04  0.36275416547E+04  0.25500000000E-02 0. -1.
    8880023    1    1    2    0    0 -0.40081860963E+02 -0.17331737287E+03 -0.39717590538E+03  0.78943294420E+03  0.65864270000E+03 0.  1.
    8880022    1    1    2    0    0  0.40081860963E+02  0.17331737287E+03 -0.30297025547E+04  0.30387719050E+04  0.15294330000E+03 0.  0.
<mgrwt>
<rscale>  0 0.52243990E+03</rscale>
<asrwt>0</asrwt>
<pdfrwt beam="1">  1        2 0.55808329E+00 0.68224312E+03</pdfrwt>
<pdfrwt beam="2">  1       -2 0.30871263E-01 0.68224312E+03</pdfrwt>
<totfact> 0.70652030E+00</totfact>
</mgrwt>
</event>
<event>
 4    2  0.3388003E-007  0.6694869E+03  0.7818608E-02  0.1016033E+00
          2   -1    0    0  501    0  0.00000000000E+00  0.00000000000E+00  0.69634643739E+03  0.69634643739E+03  0.25500000000E-02 0. -1.
         -2   -1    0    0    0  501 -0.00000000000E+00 -0.00000000000E+00 -0.19604479454E+04  0.19604479454E+04  0.25500000000E-02 0.  1.
    8880023    1    1    2    0    0 -0.11205203675E+03  0.42975048550E+02 -0.18880643524E+04  0.20032472935E+04  0.65864270000E+03 0.  1.
    8880022    1    1    2    0    0  0.11205203675E+03 -0.42975048550E+02  0.62396284440E+03  0.65354708931E+03  0.15294330000E+03 0.  0.
<mgrwt>
<rscale>  0 0.49145602E+03</rscale>
<asrwt>0</asrwt>
<pdfrwt beam="1">  1        2 0.10713022E+00 0.66948691E+03</pdfrwt>
<pdfrwt beam="2">  1       -2 0.30160737E+00 0.66948691E+03</pdfrwt>
<totfact> 0.13573296E+00</totfact>
</mgrwt>
</event>
<event>
 4    2  0.3388003E-007  0.7451220E+03  0.7818608E-02  0.9845271E-01
         -2   -1    0    0    0  501 -0.00000000000E+00  0.00000000000E+00  0.34561925876E+03  0.34561925877E+03  0.25500000000E-02 0.  1.
          2   -1    0    0  501    0  0.00000000000E+00 -0.00000000000E+00 -0.13373828429E+04  0.13373828429E+04  0.25500000000E-02 0. -1.
    8880023    1    1    2    0    0 -0.34378264850E+03  0.56656926873E+02 -0.15117777492E+03  0.76030352009E+03  0.65864270000E+03 0.  0.
    8880022    1    1    2    0    0  0.34378264850E+03 -0.56656926873E+02 -0.84058580921E+03  0.92269858157E+03  0.15294330000E+03 0.  0.
<mgrwt>
<rscale>  0 0.62988629E+03</rscale>
<asrwt>0</asrwt>
<pdfrwt beam="1">  1        2 0.20575120E+00 0.74512195E+03</pdfrwt>
<pdfrwt beam="2">  1       -2 0.53172194E-01 0.74512195E+03</pdfrwt>
<totfact> 0.53470789E+01</totfact>
</mgrwt>
</event>
<event>
 4    2  0.3388003E-007  0.6988891E+03  0.7818608E-02  0.1000184E+00
          2   -1    0    0  501    0  0.00000000000E+00  0.00000000000E+00  0.96283388993E+03  0.96283388994E+03  0.25500000000E-02 0. -1.
         -2   -1    0    0    0  501 -0.00000000000E+00 -0.00000000000E+00 -0.32853266826E+03  0.32853266827E+03  0.25500000000E-02 0.  1.
    8880023    1    1    2    0    0  0.21981881369E+03  0.79469502504E+02  0.12426912531E+03  0.70985120585E+03  0.65864270000E+03 0.  0.
    8880022    1    1    2    0    0 -0.21981881369E+03 -0.79469502504E+02  0.51003209636E+03  0.58151535235E+03  0.15294330000E+03 0.  0.
<mgrwt>
<rscale>  0 0.55569572E+03</rscale>
<asrwt>0</asrwt>
<pdfrwt beam="1">  1        2 0.14812829E+00 0.69888906E+03</pdfrwt>
<pdfrwt beam="2">  1       -2 0.50543487E-01 0.69888906E+03</pdfrwt>
<totfact> 0.10025264E+02</totfact>
</mgrwt>
</event>
<event>
 4    2  0.3388003E-007  0.6637041E+03  0.7818608E-02  0.1020646E+00
          2   -1    0    0  501    0  0.00000000000E+00  0.00000000000E+00  0.14755889391E+04  0.14755889391E+04  0.25500000000E-02 0. -1.
         -2   -1    0    0    0  501 -0.00000000000E+00 -0.00000000000E+00 -0.22317204856E+03  0.22317204857E+03  0.25500000000E-02 0.  1.
    8880023    1    1    2    0    0 -0.63761678504E+02 -0.51257848646E+02  0.29595572863E+03  0.72670001945E+03  0.65864270000E+03 0.  1.
    8880022    1    1    2    0    0  0.63761678504E+02  0.51257848646E+02  0.95646116186E+03  0.97206096818E+03  0.15294330000E+03 0.  0.
<mgrwt>
<rscale>  0 0.47454112E+03</rscale>
<asrwt>0</asrwt>
<pdfrwt beam="1">  1        2 0.22701369E+00 0.66370409E+03</pdfrwt>
<pdfrwt beam="2">  1       -2 0.34334161E-01 0.66370409E+03</pdfrwt>
<totfact> 0.10683742E+02</totfact>
</mgrwt>
</event>
<event>
 4    2  0.3388003E-007  0.7973968E+03  0.7818608E-02  0.9716453E-01
          2   -1    0    0  501    0  0.00000000000E+00  0.00000000000E+00  0.21071663662E+04  0.21071663662E+04  0.25500000000E-02 0. -1.
         -2   -1    0    0    0  501 -0.00000000000E+00 -0.00000000000E+00 -0.27791134608E+03  0.27791134609E+03  0.25500000000E-02 0.  1.
    8880023    1    1    2    0    0  0.85776836737E+02 -0.44121849682E+03  0.42679697794E+03  0.90443202857E+03  0.65864270000E+03 0.  1.
    8880022    1    1    2    0    0 -0.85776836737E+02  0.44121849682E+03  0.14024580422E+04  0.14806456837E+04  0.15294330000E+03 0.  0.
<mgrwt>
<rscale>  0 0.70045567E+03</rscale>
<asrwt>0</asrwt>
<pdfrwt beam="1">  1        2 0.32417944E+00 0.79739679E+03</pdfrwt>
<pdfrwt beam="2">  1       -2 0.42755592E-01 0.79739679E+03</pdfrwt>
<totfact> 0.31046025E+01</totfact>
</mgrwt>
</event>
<event>
 4    2  0.3388003E-007  0.7252834E+03  0.7818608E-02  0.9905098E-01
          2   -1    0    0  501    0  0.00000000000E+00  0.00000000000E+00  0.12159690446E+04  0.12159690446E+04  0.25500000000E-02 0. -1.
         -2   -1    0    0    0  501 -0.00000000000E+00 -0.00000000000E+00 -0.55411563009E+03  0.55411563010E+03  0.25500000000E-02 0.  1.
    8880023    1    1    2    0    0 -0.29885102768E+03 -0.53980837015E+02 -0.27327301813E+03  0.77505755671E+03  0.65864270000E+03 0.  1.
    8880022    1    1    2    0    0  0.29885102768E+03  0.53980837015E+02  0.93512643264E+03  0.99502711799E+03  0.15294330000E+03 0.  0.
<mgrwt>
<rscale>  0 0.60014858E+03</rscale>
<asrwt>0</asrwt>
<pdfrwt beam="1">  1        2 0.18707216E+00 0.72528344E+03</pdfrwt>
<pdfrwt beam="2">  1       -2 0.85248559E-01 0.72528344E+03</pdfrwt>
<totfact> 0.22666681E+01</totfact>
</mgrwt>
</event>
<event>
 4    2  0.3388003E-007  0.7497968E+03  0.7818608E-02  0.9832277E-01
         -2   -1    0    0    0  501 -0.00000000000E+00  0.00000000000E+00  0.64650822622E+03  0.64650822622E+03  0.25500000000E-02 0.  1.
          2   -1    0    0  501    0  0.00000000000E+00 -0.00000000000E+00 -0.88070887946E+03  0.88070887946E+03  0.25500000000E-02 0. -1.
    8880023    1    1    2    0    0 -0.33808189194E+03 -0.11868337820E+03  0.34805873844E+03  0.82664393882E+03  0.65864270000E+03 0.  1.
    8880022    1    1    2    0    0  0.33808189194E+03  0.11868337820E+03 -0.58225939168E+03  0.70057316686E+03  0.15294330000E+03 0.  0.
<mgrwt>
<rscale>  0 0.63658789E+03</rscale>
<asrwt>0</asrwt>
<pdfrwt beam="1">  1        2 0.13549367E+00 0.74979685E+03</pdfrwt>
<pdfrwt beam="2">  1       -2 0.99462804E-01 0.74979685E+03</pdfrwt>
<totfact> 0.25665383E+01</totfact>
</mgrwt>
</event>
<event>
 4    2  0.3388003E-007  0.6794234E+03  0.7818608E-02  0.1009652E+00
          2   -1    0    0  501    0  0.00000000000E+00  0.00000000000E+00  0.21190790397E+04  0.21190790397E+04  0.25500000000E-02 0. -1.
         -2   -1    0    0    0  501 -0.00000000000E+00 -0.00000000000E+00 -0.41904322919E+03  0.41904322920E+03  0.25500000000E-02 0.  1.
    8880023    1    1    2    0    0  0.15679249839E+03 -0.56763057065E+02 -0.13203314588E+03  0.69213357820E+03  0.65864270000E+03 0.  0.
    8880022    1    1    2    0    0 -0.15679249839E+03  0.56763057065E+02  0.18320689564E+04  0.18459886907E+04  0.15294330000E+03 0.  0.
<mgrwt>
<rscale>  0 0.51613291E+03</rscale>
<asrwt>0</asrwt>
<pdfrwt beam="1">  1        2 0.32601216E+00 0.67942339E+03</pdfrwt>
<pdfrwt beam="2">  1       -2 0.64468190E-01 0.67942339E+03</pdfrwt>
<totfact> 0.13369869E+01</totfact>
</mgrwt>
</event>
<event>
 4    2  0.3388003E-007  0.1277229E+04  0.7818608E-02  0.9085477E-01
          2   -1    0    0  501    0  0.00000000000E+00  0.00000000000E+00  0.35594290327E+04  0.35594290327E+04  0.25500000000E-02 0. -1.
         -2   -1    0    0    0  501 -0.00000000000E+00 -0.00000000000E+00 -0.61880721868E+03  0.61880721869E+03  0.25500000000E-02 0.  1.
    8880023    1    1    2    0    0 -0.32190983100E+03  0.10458864502E+04  0.29458343473E+03  0.13107608524E+04  0.65864270000E+03 0.  0.
    8880022    1    1    2    0    0  0.32190983100E+03 -0.10458864502E+04  0.26460383793E+04  0.28674753990E+04  0.15294330000E+03 0.  0.
<mgrwt>
<rscale>  0 0.12317895E+04</rscale>
<asrwt>0</asrwt>
<pdfrwt beam="1">  1        2 0.54760447E+00 0.12772293E+04</pdfrwt>
<pdfrwt beam="2">  1       -2 0.95201110E-01 0.12772293E+04</pdfrwt>
<totfact> 0.67866750E-01</totfact>
</mgrwt>
</event>
<event>
 4    2  0.3388003E-007  0.7409428E+03  0.7818608E-02  0.9857209E-01
          2   -1    0    0  501    0  0.00000000000E+00  0.00000000000E+00  0.71612505923E+03  0.71612505923E+03  0.25500000000E-02 0. -1.
         -2   -1    0    0    0  501 -0.00000000000E+00 -0.00000000000E+00 -0.46988387374E+03  0.46988387375E+03  0.25500000000E-02 0.  1.
    8880023    1    1    2    0    0 -0.92368653632E+01 -0.33926485889E+03  0.23086506210E+01  0.74094635453E+03  0.65864270000E+03 0.  1.
    8880022    1    1    2    0    0  0.92368653632E+01  0.33926485889E+03  0.24393253486E+03  0.44506257845E+03  0.15294330000E+03 0. -1.
<mgrwt>
<rscale>  0 0.62380684E+03</rscale>
<asrwt>0</asrwt>
<pdfrwt beam="1">  1        2 0.11017309E+00 0.74094276E+03</pdfrwt>
<pdfrwt beam="2">  1       -2 0.72289827E-01 0.74094276E+03</pdfrwt>
<totfact> 0.69857387E+01</totfact>
</mgrwt>
</event>
<event>
 4    2  0.3388003E-007  0.8243350E+03  0.7818608E-02  0.9660457E-01
          2   -1    0    0  501    0  0.00000000000E+00  0.00000000000E+00  0.15153193758E+04  0.15153193758E+04  0.25500000000E-02 0. -1.
         -2   -1    0    0    0  501 -0.00000000000E+00 -0.00000000000E+00 -0.62706331731E+03  0.62706331731E+03  0.25500000000E-02 0.  1.
    8880023    1    1    2    0    0  0.18131313182E+02  0.49536778366E+03 -0.27475753800E+03  0.86891880896E+03  0.65864270000E+03 0. -1.
    8880022    1    1    2    0    0 -0.18131313182E+02 -0.49536778366E+03  0.11630135965E+04  0.12734638841E+04  0.15294330000E+03 0.  0.
<mgrwt>
<rscale>  0 0.73420774E+03</rscale>
<asrwt>0</asrwt>
<pdfrwt beam="1">  1        2 0.23312606E+00 0.82433500E+03</pdfrwt>
<pdfrwt beam="2">  1       -2 0.96471280E-01 0.82433500E+03</pdfrwt>
<totfact> 0.11357059E+01</totfact>
</mgrwt>
</event>
<event>
 4    2  0.3388003E-007  0.7856678E+03  0.7818608E-02  0.9742688E-01
         -2   -1    0    0    0  501 -0.00000000000E+00  0.00000000000E+00  0.33586361213E+03  0.33586361214E+03  0.25500000000E-02 0.  1.
          2   -1    0    0  501    0  0.00000000000E+00 -0.00000000000E+00 -0.14318491733E+04  0.14318491733E+04  0.25500000000E-02 0. -1.
    8880023    1    1    2    0    0  0.42081666279E+03 -0.79856570628E+02 -0.28099705671E+03  0.83440594898E+03  0.65864270000E+03 0.  0.
    8880022    1    1    2    0    0 -0.42081666279E+03  0.79856570628E+02 -0.81498850443E+03  0.93330683643E+03  0.15294330000E+03 0.  0.
<mgrwt>
<rscale>  0 0.68531081E+03</rscale>
<asrwt>0</asrwt>
<pdfrwt beam="1">  1        2 0.22028448E+00 0.78566783E+03</pdfrwt>
<pdfrwt beam="2">  1       -2 0.51671326E-01 0.78566783E+03</pdfrwt>
<totfact> 0.49929880E+01</totfact>
</mgrwt>
</event>
<event>
 4    2  0.3388003E-007  0.8826684E+03  0.7818608E-02  0.9554447E-01
         -2   -1    0    0    0  501 -0.00000000000E+00  0.00000000000E+00  0.54643236120E+03  0.54643236121E+03  0.25500000000E-02 0.  1.
          2   -1    0    0  501    0  0.00000000000E+00 -0.00000000000E+00 -0.13136135024E+04  0.13136135024E+04  0.25500000000E-02 0. -1.
    8880023    1    1    2    0    0 -0.58541673028E+03 -0.50799870708E+02 -0.12962067040E+01  0.88266939529E+03  0.65864270000E+03 0.  0.
    8880022    1    1    2    0    0  0.58541673028E+03  0.50799870708E+02 -0.76588493453E+03  0.97737646836E+03  0.15294330000E+03 0.  1.
<mgrwt>
<rscale>  0 0.80385948E+03</rscale>
<asrwt>0</asrwt>
<pdfrwt beam="1">  1        2 0.20209438E+00 0.88266844E+03</pdfrwt>
<pdfrwt beam="2">  1       -2 0.84066518E-01 0.88266844E+03</pdfrwt>
<totfact> 0.20186907E+01</totfact>
</mgrwt>
</event>
<event>
 4    2  0.3388003E-007  0.6854086E+03  0.7818608E-02  0.1006416E+00
          2   -1    0    0  501    0  0.00000000000E+00  0.00000000000E+00  0.27057970525E+04  0.27057970525E+04  0.25500000000E-02 0. -1.
         -2   -1    0    0    0  501 -0.00000000000E+00 -0.00000000000E+00 -0.18145584545E+03  0.18145584547E+03  0.25500000000E-02 0.  1.
    8880023    1    1    2    0    0  0.76907658416E+02 -0.17337822383E+03  0.50024833552E+03  0.84854781826E+03  0.65864270000E+03 0.  1.
    8880022    1    1    2    0    0 -0.76907658416E+02  0.17337822383E+03  0.20240928716E+04  0.20387050797E+04  0.15294330000E+03 0.  0.
<mgrwt>
<rscale>  0 0.52924263E+03</rscale>
<asrwt>0</asrwt>
<pdfrwt beam="1">  1        2 0.41627648E+00 0.68540864E+03</pdfrwt>
<pdfrwt beam="2">  1       -2 0.27916283E-01 0.68540864E+03</pdfrwt>
<totfact> 0.32681703E+01</totfact>
</mgrwt>
</event>
<event>
 4    2  0.3388003E-007  0.7117735E+03  0.7818608E-02  0.9951473E-01
         -2   -1    0    0    0  501 -0.00000000000E+00  0.00000000000E+00  0.11280917728E+04  0.11280917728E+04  0.25500000000E-02 0.  1.
          2   -1    0    0  501    0  0.00000000000E+00 -0.00000000000E+00 -0.10198622349E+04  0.10198622349E+04  0.25500000000E-02 0. -1.
    8880023    1    1    2    0    0 -0.26419207837E+03  0.54897984308E+02  0.98652973599E+03  0.12164959388E+04  0.65864270000E+03 0.  1.
    8880022    1    1    2    0    0  0.26419207837E+03 -0.54897984308E+02 -0.87830019813E+03  0.93145806884E+03  0.15294330000E+03 0.  0.
<mgrwt>
<rscale>  0 0.57830222E+03</rscale>
<asrwt>0</asrwt>
<pdfrwt beam="1">  1        2 0.15690188E+00 0.71177345E+03</pdfrwt>
<pdfrwt beam="2">  1       -2 0.17355258E+00 0.71177345E+03</pdfrwt>
<totfact> 0.50499577E+00</totfact>
</mgrwt>
</event>
<event>
 4    2  0.3388003E-007  0.6978612E+03  0.7818608E-02  0.1000619E+00
          2   -1    0    0  501    0  0.00000000000E+00  0.00000000000E+00  0.64183207399E+03  0.64183207399E+03  0.25500000000E-02 0. -1.
         -2   -1    0    0    0  501 -0.00000000000E+00 -0.00000000000E+00 -0.44836190147E+03  0.44836190147E+03  0.25500000000E-02 0.  1.
    8880023    1    1    2    0    0 -0.95583454268E+02 -0.20991379894E+03 -0.78391343849E+02  0.70225024654E+03  0.65864270000E+03 0.  0.
    8880022    1    1    2    0    0  0.95583454268E+02  0.20991379894E+03  0.27186151637E+03  0.38794372893E+03  0.15294330000E+03 0.  0.
<mgrwt>
<rscale>  0 0.55379554E+03</rscale>
<asrwt>0</asrwt>
<pdfrwt beam="1">  1        2 0.98743395E-01 0.69786117E+03</pdfrwt>
<pdfrwt beam="2">  1       -2 0.68978755E-01 0.69786117E+03</pdfrwt>
<totfact> 0.89000546E+01</totfact>
</mgrwt>
</event>
<event>
 4    2  0.3388003E-007  0.7138612E+03  0.7818608E-02  0.9943933E-01
         -2   -1    0    0    0  501 -0.00000000000E+00  0.00000000000E+00  0.12264803441E+03  0.12264803444E+03  0.25500000000E-02 0.  1.
          2   -1    0    0  501    0  0.00000000000E+00 -0.00000000000E+00 -0.34530402449E+04  0.34530402449E+04  0.25500000000E-02 0. -1.
    8880023    1    1    2    0    0 -0.18383681340E+03 -0.20491876268E+03 -0.10261974900E+04  0.12500716652E+04  0.65864270000E+03 0.  1.
    8880022    1    1    2    0    0  0.18383681340E+03  0.20491876268E+03 -0.23041947205E+04  0.23256166142E+04  0.15294330000E+03 0.  0.
<mgrwt>
<rscale>  0 0.58178564E+03</rscale>
<asrwt>0</asrwt>
<pdfrwt beam="1">  1        2 0.53123689E+00 0.71386125E+03</pdfrwt>
<pdfrwt beam="2">  1       -2 0.18868931E-01 0.71386125E+03</pdfrwt>
<totfact> 0.22397505E+01</totfact>
</mgrwt>
</event>
<event>
 4    2  0.3388003E-007  0.8263979E+03  0.7818608E-02  0.9656382E-01
          2   -1    0    0  501    0  0.00000000000E+00  0.00000000000E+00  0.14758416371E+04  0.14758416371E+04  0.25500000000E-02 0. -1.
         -2   -1    0    0    0  501 -0.00000000000E+00 -0.00000000000E+00 -0.67742613261E+03  0.67742613261E+03  0.25500000000E-02 0.  1.
    8880023    1    1    2    0    0 -0.47741038304E+03 -0.14561107922E+03 -0.34561775873E+03  0.89575951105E+03  0.65864270000E+03 0.  1.
    8880022    1    1    2    0    0  0.47741038304E+03  0.14561107922E+03  0.11440332632E+04  0.12575082587E+04  0.15294330000E+03 0. -1.
<mgrwt>
<rscale>  0 0.73674243E+03</rscale>
<asrwt>0</asrwt>
<pdfrwt beam="1">  1        2 0.22705256E+00 0.82639789E+03</pdfrwt>
<pdfrwt beam="2">  1       -2 0.10421941E+00 0.82639789E+03</pdfrwt>
<totfact> 0.99433094E+00</totfact>
</mgrwt>
</event>
<event>
 4    2  0.3388003E-007  0.6750761E+03  0.7818608E-02  0.1012258E+00
         -2   -1    0    0    0  501 -0.00000000000E+00  0.00000000000E+00  0.13400026650E+03  0.13400026652E+03  0.25500000000E-02 0.  1.
          2   -1    0    0  501    0  0.00000000000E+00 -0.00000000000E+00 -0.23027424333E+04  0.23027424333E+04  0.25500000000E-02 0. -1.
    8880023    1    1    2    0    0  0.87416231895E+02 -0.11948204981E+03 -0.77906887333E+03  0.10308618110E+04  0.65864270000E+03 0.  1.
    8880022    1    1    2    0    0 -0.87416231895E+02  0.11948204981E+03 -0.13896732935E+04  0.14058808888E+04  0.15294330000E+03 0.  0.
<mgrwt>
<rscale>  0 0.50586877E+03</rscale>
<asrwt>0</asrwt>
<pdfrwt beam="1">  1        2 0.35426804E+00 0.67507612E+03</pdfrwt>
<pdfrwt beam="2">  1       -2 0.20615427E-01 0.67507612E+03</pdfrwt>
<totfact> 0.95286745E+01</totfact>
</mgrwt>
</event>
<event>
 4    2  0.3388003E-007  0.8515021E+03  0.7818608E-02  0.9608862E-01
         -2   -1    0    0    0  501 -0.00000000000E+00  0.00000000000E+00  0.38827635386E+03  0.38827635387E+03  0.25500000000E-02 0.  1.
          2   -1    0    0  501    0  0.00000000000E+00 -0.00000000000E+00 -0.17944153083E+04  0.17944153083E+04  0.25500000000E-02 0. -1.
    8880023    1    1    2    0    0  0.30136644629E+03 -0.44768728350E+03 -0.23371585525E+03  0.88299430690E+03  0.65864270000E+03 0.  1.
    8880022    1    1    2    0    0 -0.30136644629E+03  0.44768728350E+03 -0.11724230992E+04  0.12996973552E+04  0.15294330000E+03 0.  0.
<mgrwt>
<rscale>  0 0.76712400E+03</rscale>
<asrwt>0</asrwt>
<pdfrwt beam="1">  1        2 0.27606389E+00 0.85150211E+03</pdfrwt>
<pdfrwt beam="2">  1       -2 0.59734825E-01 0.85150211E+03</pdfrwt>
<totfact> 0.23100345E+01</totfact>
</mgrwt>
</event>
<event>
 4    2  0.3388003E-007  0.8900576E+03  0.7818608E-02  0.9542185E-01
          2   -1    0    0  501    0  0.00000000000E+00  0.00000000000E+00  0.18337439418E+04  0.18337439418E+04  0.25500000000E-02 0. -1.
         -2   -1    0    0    0  501 -0.00000000000E+00 -0.00000000000E+00 -0.62166774277E+03  0.62166774277E+03  0.25500000000E-02 0.  1.
    8880023    1    1    2    0    0  0.39558489350E+03  0.44933834351E+03 -0.20159793002E+03  0.91260302792E+03  0.65864270000E+03 0.  0.
    8880022    1    1    2    0    0 -0.39558489350E+03 -0.44933834351E+03  0.14136741291E+04  0.15428086567E+04  0.15294330000E+03 0.  0.
<mgrwt>
<rscale>  0 0.81243908E+03</rscale>
<asrwt>0</asrwt>
<pdfrwt beam="1">  1        2 0.28211445E+00 0.89005762E+03</pdfrwt>
<pdfrwt beam="2">  1       -2 0.95641192E-01 0.89005762E+03</pdfrwt>
<totfact> 0.76729225E+00</totfact>
</mgrwt>
</event>
<event>
 4    2  0.3388003E-007  0.1301799E+04  0.7818608E-02  0.9064008E-01
         -2   -1    0    0    0  501 -0.00000000000E+00  0.00000000000E+00  0.78038948714E+03  0.78038948715E+03  0.25500000000E-02 0.  1.
          2   -1    0    0  501    0  0.00000000000E+00 -0.00000000000E+00 -0.20790094106E+04  0.20790094106E+04  0.25500000000E-02 0. -1.
    8880023    1    1    2    0    0 -0.87754025073E+03  0.70056621717E+03 -0.27121481004E+03  0.13297509525E+04  0.65864270000E+03 0.  1.
    8880022    1    1    2    0    0  0.87754025073E+03 -0.70056621717E+03 -0.10274051135E+04  0.15296479453E+04  0.15294330000E+03 0. -1.
<mgrwt>
<rscale>  0 0.12574467E+04</rscale>
<asrwt>0</asrwt>
<pdfrwt beam="1">  1        2 0.31984760E+00 0.13017988E+04</pdfrwt>
<pdfrwt beam="2">  1       -2 0.12005992E+00 0.13017988E+04</pdfrwt>
<totfact> 0.30947225E+00</totfact>
</mgrwt>
</event>
<event>
 4    2  0.3388003E-007  0.1069026E+04  0.7818608E-02  0.9296352E-01
         -2   -1    0    0    0  501 -0.00000000000E+00  0.00000000000E+00  0.55235422902E+03  0.55235422903E+03  0.25500000000E-02 0.  1.
          2   -1    0    0  501    0  0.00000000000E+00 -0.00000000000E+00 -0.27359926738E+04  0.27359926738E+04  0.25500000000E-02 0. -1.
    8880023    1    1    2    0    0 -0.82139899322E+03  0.18523043973E+03 -0.14684420923E+03  0.10790644327E+04  0.65864270000E+03 0.  0.
    8880022    1    1    2    0    0  0.82139899322E+03 -0.18523043973E+03 -0.20367942356E+04  0.22092824702E+04  0.15294330000E+03 0.  0.
<mgrwt>
<rscale>  0 0.10111944E+04</rscale>
<asrwt>0</asrwt>
<pdfrwt beam="1">  1        2 0.42092194E+00 0.10690261E+04</pdfrwt>
<pdfrwt beam="2">  1       -2 0.84977575E-01 0.10690261E+04</pdfrwt>
<totfact> 0.30619933E+00</totfact>
</mgrwt>
</event>
<event>
 4    2  0.3388003E-007  0.1121469E+04  0.7818608E-02  0.9237522E-01
          2   -1    0    0  501    0  0.00000000000E+00  0.00000000000E+00  0.27665895369E+04  0.27665895369E+04  0.25500000000E-02 0. -1.
         -2   -1    0    0    0  501 -0.00000000000E+00 -0.00000000000E+00 -0.51669118480E+03  0.51669118480E+03  0.25500000000E-02 0.  1.
    8880023    1    1    2    0    0  0.57360921652E+03 -0.70345876408E+03  0.20569437536E+04  0.23427995172E+04  0.65864270000E+03 0. -1.
    8880022    1    1    2    0    0 -0.57360921652E+03  0.70345876408E+03  0.19295459857E+03  0.94048120457E+03  0.15294330000E+03 0.  0.
<mgrwt>
<rscale>  0 0.10674396E+04</rscale>
<asrwt>0</asrwt>
<pdfrwt beam="1">  1        2 0.42562916E+00 0.11214687E+04</pdfrwt>
<pdfrwt beam="2">  1       -2 0.79490952E-01 0.11214687E+04</pdfrwt>
<totfact> 0.33949062E+00</totfact>
</mgrwt>
</event>
<event>
 4    2  0.3388003E-007  0.8589839E+03  0.7818608E-02  0.9595373E-01
         -2   -1    0    0    0  501 -0.00000000000E+00  0.00000000000E+00  0.91284073181E+03  0.91284073181E+03  0.25500000000E-02 0.  1.
          2   -1    0    0  501    0  0.00000000000E+00 -0.00000000000E+00 -0.78181174778E+03  0.78181174778E+03  0.25500000000E-02 0. -1.
    8880023    1    1    2    0    0 -0.46373866305E+02  0.54944751190E+03  0.51872914589E+03  0.10034606304E+04  0.65864270000E+03 0.  0.
    8880022    1    1    2    0    0  0.46373866305E+02 -0.54944751190E+03 -0.38770016186E+03  0.69119184915E+03  0.15294330000E+03 0.  0.
<mgrwt>
<rscale>  0 0.77603151E+03</rscale>
<asrwt>0</asrwt>
<pdfrwt beam="1">  1        2 0.12027873E+00 0.85898388E+03</pdfrwt>
<pdfrwt beam="2">  1       -2 0.14043704E+00 0.85898388E+03</pdfrwt>
<totfact> 0.12708054E+01</totfact>
</mgrwt>
</event>
<event>
 4    2  0.3388003E-007  0.8201547E+03  0.7818608E-02  0.9668801E-01
         -2   -1    0    0    0  501 -0.00000000000E+00  0.00000000000E+00  0.81060773457E+03  0.81060773457E+03  0.25500000000E-02 0.  1.
          2   -1    0    0  501    0  0.00000000000E+00 -0.00000000000E+00 -0.10980993696E+04  0.10980993696E+04  0.25500000000E-02 0. -1.
    8880023    1    1    2    0    0 -0.10442694351E+03  0.47742911886E+03  0.50646574310E+03  0.96393013506E+03  0.65864270000E+03 0.  0.
    8880022    1    1    2    0    0  0.10442694351E+03 -0.47742911886E+03 -0.79395737811E+03  0.94477696910E+03  0.15294330000E+03 0.  0.
<mgrwt>
<rscale>  0 0.72905151E+03</rscale>
<asrwt>0</asrwt>
<pdfrwt beam="1">  1        2 0.16893836E+00 0.82015471E+03</pdfrwt>
<pdfrwt beam="2">  1       -2 0.12470888E+00 0.82015471E+03</pdfrwt>
<totfact> 0.10643495E+01</totfact>
</mgrwt>
</event>
<event>
 4    2  0.3388003E-007  0.7237203E+03  0.7818608E-02  0.9910193E-01
         -2   -1    0    0    0  501 -0.00000000000E+00  0.00000000000E+00  0.94215656955E+02  0.94215656989E+02  0.25500000000E-02 0.  1.
          2   -1    0    0  501    0  0.00000000000E+00 -0.00000000000E+00 -0.31455060933E+04  0.31455060933E+04  0.25500000000E-02 0. -1.
    8880023    1    1    2    0    0 -0.13168941507E+03 -0.26947864116E+03 -0.23972482040E+04  0.25041106201E+04  0.65864270000E+03 0.  0.
    8880022    1    1    2    0    0  0.13168941507E+03  0.26947864116E+03 -0.65404223231E+03  0.73561113011E+03  0.15294330000E+03 0. -1.
<mgrwt>
<rscale>  0 0.59769819E+03</rscale>
<asrwt>0</asrwt>
<pdfrwt beam="1">  1        2 0.48392394E+00 0.72372028E+03</pdfrwt>
<pdfrwt beam="2">  1       -2 0.14494719E-01 0.72372028E+03</pdfrwt>
<totfact> 0.55613939E+01</totfact>
</mgrwt>
</event>
<event>
 4    2  0.3388003E-007  0.8104244E+03  0.7818608E-02  0.9688693E-01
         -2   -1    0    0    0  501 -0.00000000000E+00  0.00000000000E+00  0.60692201692E+03  0.60692201693E+03  0.25500000000E-02 0.  1.
          2   -1    0    0  501    0  0.00000000000E+00 -0.00000000000E+00 -0.78070035338E+03  0.78070035339E+03  0.25500000000E-02 0. -1.
    8880023    1    1    2    0    0  0.41508442442E+03 -0.22512771114E+03  0.10683432515E+03  0.81743583541E+03  0.65864270000E+03 0.  1.
    8880022    1    1    2    0    0 -0.41508442442E+03  0.22512771114E+03 -0.28061266161E+03  0.57018653490E+03  0.15294330000E+03 0.  0.
<mgrwt>
<rscale>  0 0.71693982E+03</rscale>
<asrwt>0</asrwt>
<pdfrwt beam="1">  1        2 0.12010775E+00 0.81042444E+03</pdfrwt>
<pdfrwt beam="2">  1       -2 0.93372618E-01 0.81042444E+03</pdfrwt>
<totfact> 0.34831835E+01</totfact>
</mgrwt>
</event>
<event>
 4    2  0.3388003E-007  0.8200063E+03  0.7818608E-02  0.9669099E-01
         -2   -1    0    0    0  501 -0.00000000000E+00  0.00000000000E+00  0.27913107674E+03  0.27913107676E+03  0.25500000000E-02 0.  1.
          2   -1    0    0  501    0  0.00000000000E+00 -0.00000000000E+00 -0.21070497821E+04  0.21070497821E+04  0.25500000000E-02 0. -1.
    8880023    1    1    2    0    0  0.39303891610E+03 -0.29003528052E+03 -0.49371901546E+03  0.95716703140E+03  0.65864270000E+03 0.  1.
    8880022    1    1    2    0    0 -0.39303891610E+03  0.29003528052E+03 -0.13341996899E+04  0.14290138275E+04  0.15294330000E+03 0.  0.
<mgrwt>
<rscale>  0 0.72886789E+03</rscale>
<asrwt>0</asrwt>
<pdfrwt beam="1">  1        2 0.32416149E+00 0.82000626E+03</pdfrwt>
<pdfrwt beam="2">  1       -2 0.42943244E-01 0.82000626E+03</pdfrwt>
<totfact> 0.30697301E+01</totfact>
</mgrwt>
</event>
<event>
 4    2  0.3388003E-007  0.7003264E+03  0.7818608E-02  0.9995850E-01
         -2   -1    0    0    0  501 -0.00000000000E+00  0.00000000000E+00  0.20495113911E+03  0.20495113912E+03  0.25500000000E-02 0.  1.
          2   -1    0    0  501    0  0.00000000000E+00 -0.00000000000E+00 -0.15329516931E+04  0.15329516931E+04  0.25500000000E-02 0. -1.
    8880023    1    1    2    0    0 -0.15267751699E+03  0.18258250368E+03 -0.49346542321E+03  0.85671764603E+03  0.65864270000E+03 0.  1.
    8880022    1    1    2    0    0  0.15267751699E+03 -0.18258250368E+03 -0.83453513074E+03  0.88118518615E+03  0.15294330000E+03 0.  0.
<mgrwt>
<rscale>  0 0.55832578E+03</rscale>
<asrwt>0</asrwt>
<pdfrwt beam="1">  1        2 0.23583871E+00 0.70032635E+03</pdfrwt>
<pdfrwt beam="2">  1       -2 0.31530946E-01 0.70032635E+03</pdfrwt>
<totfact> 0.11613116E+02</totfact>
</mgrwt>
</event>
<event>
 4    2  0.3388003E-007  0.1031426E+04  0.7818608E-02  0.9341550E-01
         -2   -1    0    0    0  501 -0.00000000000E+00  0.00000000000E+00  0.43670715625E+03  0.43670715626E+03  0.25500000000E-02 0.  1.
          2   -1    0    0  501    0  0.00000000000E+00 -0.00000000000E+00 -0.23491083080E+04  0.23491083080E+04  0.25500000000E-02 0. -1.
    8880023    1    1    2    0    0  0.51200324796E+03  0.60653278449E+03 -0.47243462155E+03  0.11344752190E+04  0.65864270000E+03 0.  1.
    8880022    1    1    2    0    0 -0.51200324796E+03 -0.60653278449E+03 -0.14399665302E+04  0.16513402453E+04  0.15294330000E+03 0.  0.
<mgrwt>
<rscale>  0 0.97046010E+03</rscale>
<asrwt>0</asrwt>
<pdfrwt beam="1">  1        2 0.36140127E+00 0.10314260E+04</pdfrwt>
<pdfrwt beam="2">  1       -2 0.67185718E-01 0.10314260E+04</pdfrwt>
<totfact> 0.86816737E+00</totfact>
</mgrwt>
</event>
<event>
 4    2  0.3388003E-007  0.6679715E+03  0.7818608E-02  0.1017161E+00
         -2   -1    0    0    0  501 -0.00000000000E+00  0.00000000000E+00  0.11430122828E+04  0.11430122828E+04  0.25500000000E-02 0.  1.
          2   -1    0    0  501    0  0.00000000000E+00 -0.00000000000E+00 -0.66922537554E+03  0.66922537555E+03  0.25500000000E-02 0. -1.
    8880023    1    1    2    0    0 -0.31457568734E+02  0.10670595535E+03  0.10283851963E+04  0.12262797633E+04  0.65864270000E+03 0.  1.
    8880022    1    1    2    0    0  0.31457568734E+02 -0.10670595535E+03 -0.55459828907E+03  0.58595789507E+03  0.15294330000E+03 0.  0.
<mgrwt>
<rscale>  0 0.48725283E+03</rscale>
<asrwt>0</asrwt>
<pdfrwt beam="1">  1        2 0.10295775E+00 0.66797152E+03</pdfrwt>
<pdfrwt beam="2">  1       -2 0.17584804E+00 0.66797152E+03</pdfrwt>
<totfact> 0.86347071E+00</totfact>
</mgrwt>
</event>
<event>
 4    2  0.3388003E-007  0.7676684E+03  0.7818608E-02  0.9785644E-01
         -2   -1    0    0    0  501 -0.00000000000E+00  0.00000000000E+00  0.71619995696E+03  0.71619995696E+03  0.25500000000E-02 0.  1.
          2   -1    0    0  501    0  0.00000000000E+00 -0.00000000000E+00 -0.97787534282E+03  0.97787534282E+03  0.25500000000E-02 0. -1.
    8880023    1    1    2    0    0  0.38989922212E+03  0.59018767348E+02  0.43255573015E+03  0.88114657365E+03  0.65864270000E+03 0.  1.
    8880022    1    1    2    0    0 -0.38989922212E+03 -0.59018767348E+02 -0.69423111602E+03  0.81292872613E+03  0.15294330000E+03 0.  0.
<mgrwt>
<rscale>  0 0.66138665E+03</rscale>
<asrwt>0</asrwt>
<pdfrwt beam="1">  1        2 0.15044236E+00 0.76766843E+03</pdfrwt>
<pdfrwt beam="2">  1       -2 0.11018461E+00 0.76766843E+03</pdfrwt>
<totfact> 0.17282105E+01</totfact>
</mgrwt>
</event>
<event>
 4    2  0.3388003E-007  0.1065271E+04  0.7818608E-02  0.9300745E-01
          2   -1    0    0  501    0  0.00000000000E+00  0.00000000000E+00  0.15560521417E+04  0.15560521417E+04  0.25500000000E-02 0. -1.
         -2   -1    0    0    0  501 -0.00000000000E+00 -0.00000000000E+00 -0.11940872155E+04  0.11940872155E+04  0.25500000000E-02 0.  1.
    8880023    1    1    2    0    0 -0.57853218022E+03 -0.60522035554E+03 -0.78401224459E+03  0.13226778021E+04  0.65864270000E+03 0.  0.
    8880022    1    1    2    0    0  0.57853218022E+03  0.60522035554E+03  0.11459771707E+04  0.14274615551E+04  0.15294330000E+03 0.  0.
<mgrwt>
<rscale>  0 0.10071426E+04</rscale>
<asrwt>0</asrwt>
<pdfrwt beam="1">  1        2 0.23939264E+00 0.10652706E+04</pdfrwt>
<pdfrwt beam="2">  1       -2 0.18370572E+00 0.10652706E+04</pdfrwt>
<totfact> 0.19883937E+00</totfact>
</mgrwt>
</event>
<event>
 4    2  0.3388003E-007  0.6770630E+03  0.7818608E-02  0.1011036E+00
         -2   -1    0    0    0  501 -0.00000000000E+00  0.00000000000E+00  0.25624058425E+03  0.25624058426E+03  0.25500000000E-02 0.  1.
          2   -1    0    0  501    0  0.00000000000E+00 -0.00000000000E+00 -0.22740017835E+04  0.22740017835E+04  0.25500000000E-02 0. -1.
    8880023    1    1    2    0    0  0.27209013050E+02  0.15447896129E+03 -0.20946584060E+03  0.70872436427E+03  0.65864270000E+03 0.  1.
    8880022    1    1    2    0    0 -0.27209013050E+02 -0.15447896129E+03 -0.18082953586E+04  0.18215180035E+04  0.15294330000E+03 0.  0.
<mgrwt>
<rscale>  0 0.51064858E+03</rscale>
<asrwt>0</asrwt>
<pdfrwt beam="1">  1        2 0.34984641E+00 0.67706299E+03</pdfrwt>
<pdfrwt beam="2">  1       -2 0.39421630E-01 0.67706299E+03</pdfrwt>
<totfact> 0.29953172E+01</totfact>
</mgrwt>
</event>
<event>
 4    2  0.3388003E-007  0.6998216E+03  0.7818608E-02  0.9997942E-01
         -2   -1    0    0    0  501 -0.00000000000E+00  0.00000000000E+00  0.13097086966E+04  0.13097086966E+04  0.25500000000E-02 0.  1.
          2   -1    0    0  501    0  0.00000000000E+00 -0.00000000000E+00 -0.92189132371E+03  0.92189132372E+03  0.25500000000E-02 0. -1.
    8880023    1    1    2    0    0  0.21738597416E+03  0.93185089892E+02  0.11904880837E+04  0.13809461273E+04  0.65864270000E+03 0.  1.
    8880022    1    1    2    0    0 -0.21738597416E+03 -0.93185089892E+02 -0.80267071082E+03  0.85065389305E+03  0.15294330000E+03 0.  0.
<mgrwt>
<rscale>  0 0.55740572E+03</rscale>
<asrwt>0</asrwt>
<pdfrwt beam="1">  1        2 0.14182943E+00 0.69982164E+03</pdfrwt>
<pdfrwt beam="2">  1       -2 0.20149365E+00 0.69982164E+03</pdfrwt>
<totfact> 0.38001682E+00</totfact>
</mgrwt>
</event>
<event>
 4    2  0.3388003E-007  0.7663286E+03  0.7818608E-02  0.9788990E-01
         -2   -1    0    0    0  501 -0.00000000000E+00  0.00000000000E+00  0.16402361579E+04  0.16402361579E+04  0.25500000000E-02 0.  1.
          2   -1    0    0  501    0  0.00000000000E+00 -0.00000000000E+00 -0.24098608384E+03  0.24098608386E+03  0.25500000000E-02 0. -1.
    8880023    1    1    2    0    0 -0.39162974438E+03  0.86899549209E+01  0.58254497001E+03  0.96261010817E+03  0.65864270000E+03 0.  0.
    8880022    1    1    2    0    0  0.39162974438E+03 -0.86899549209E+01  0.81670510406E+03  0.91861213361E+03  0.15294330000E+03 0.  0.
<mgrwt>
<rscale>  0 0.65956738E+03</rscale>
<asrwt>0</asrwt>
<pdfrwt beam="1">  1        2 0.37074783E-01 0.76632864E+03</pdfrwt>
<pdfrwt beam="2">  1       -2 0.25234402E+00 0.76632864E+03</pdfrwt>
<totfact> 0.89373210E+00</totfact>
</mgrwt>
</event>
<event>
 4    2  0.3388003E-007  0.8418535E+03  0.7818608E-02  0.9626695E-01
          2   -1    0    0  501    0  0.00000000000E+00  0.00000000000E+00  0.21244265071E+04  0.21244265071E+04  0.25500000000E-02 0. -1.
         -2   -1    0    0    0  501 -0.00000000000E+00 -0.00000000000E+00 -0.72701369149E+03  0.72701369149E+03  0.25500000000E-02 0.  1.
    8880023    1    1    2    0    0 -0.38522282834E+03 -0.35568312256E+03 -0.42918009949E+03  0.94494067285E+03  0.65864270000E+03 0.  0.
    8880022    1    1    2    0    0  0.38522282834E+03  0.35568312256E+03  0.18265929151E+04  0.19064995257E+04  0.15294330000E+03 0.  0.
<mgrwt>
<rscale>  0 0.75554237E+03</rscale>
<asrwt>0</asrwt>
<pdfrwt beam="1">  1        2 0.32683484E+00 0.84185350E+03</pdfrwt>
<pdfrwt beam="2">  1       -2 0.11184826E+00 0.84185350E+03</pdfrwt>
<totfact> 0.36786710E+00</totfact>
</mgrwt>
</event>
<event>
 4    2  0.3388003E-007  0.1114022E+04  0.7818608E-02  0.9245603E-01
         -2   -1    0    0    0  501 -0.00000000000E+00  0.00000000000E+00  0.43671078361E+03  0.43671078362E+03  0.25500000000E-02 0.  1.
          2   -1    0    0  501    0  0.00000000000E+00 -0.00000000000E+00 -0.25704489605E+04  0.25704489605E+04  0.25500000000E-02 0. -1.
    8880023    1    1    2    0    0 -0.76908878804E+03  0.46447563658E+03 -0.72448579383E+03  0.13288811281E+04  0.65864270000E+03 0.  0.
    8880022    1    1    2    0    0  0.76908878804E+03 -0.46447563658E+03 -0.14092523830E+04  0.16782786160E+04  0.15294330000E+03 0.  0.
<mgrwt>
<rscale>  0 0.10594882E+04</rscale>
<asrwt>0</asrwt>
<pdfrwt beam="1">  1        2 0.39545368E+00 0.11140222E+04</pdfrwt>
<pdfrwt beam="2">  1       -2 0.67186276E-01 0.11140222E+04</pdfrwt>
<totfact> 0.64286744E+00</totfact>
</mgrwt>
</event>
<event>
 4    2  0.3388003E-007  0.7229569E+03  0.7818608E-02  0.9912705E-01
          2   -1    0    0  501    0  0.00000000000E+00  0.00000000000E+00  0.16610576285E+04  0.16610576285E+04  0.25500000000E-02 0. -1.
         -2   -1    0    0    0  501 -0.00000000000E+00 -0.00000000000E+00 -0.25762860991E+03  0.25762860993E+03  0.25500000000E-02 0.  1.
    8880023    1    1    2    0    0 -0.22217386239E+03  0.19873402570E+03  0.33097330680E+03  0.79511632745E+03  0.65864270000E+03 0.  1.
    8880022    1    1    2    0    0  0.22217386239E+03 -0.19873402570E+03  0.10724557118E+04  0.11235699110E+04  0.15294330000E+03 0.  0.
<mgrwt>
<rscale>  0 0.59649480E+03</rscale>
<asrwt>0</asrwt>
<pdfrwt beam="1">  1        2 0.25554733E+00 0.72295688E+03</pdfrwt>
<pdfrwt beam="2">  1       -2 0.39635170E-01 0.72295688E+03</pdfrwt>
<totfact> 0.63683167E+01</totfact>
</mgrwt>
</event>
<event>
 4    2  0.3388003E-007  0.9976954E+03  0.7818608E-02  0.9384579E-01
          2   -1    0    0  501    0  0.00000000000E+00  0.00000000000E+00  0.19241164253E+04  0.19241164253E+04  0.25500000000E-02 0. -1.
         -2   -1    0    0    0  501 -0.00000000000E+00 -0.00000000000E+00 -0.53369839555E+03  0.53369839555E+03  0.25500000000E-02 0.  1.
    8880023    1    1    2    0    0  0.44826010415E+03  0.60054047496E+03  0.13673309197E+04  0.16926281438E+04  0.65864270000E+03 0.  1.
    8880022    1    1    2    0    0 -0.44826010415E+03 -0.60054047496E+03  0.23087110056E+02  0.76518667703E+03  0.15294330000E+03 0.  0.
<mgrwt>
<rscale>  0 0.93355713E+03</rscale>
<asrwt>0</asrwt>
<pdfrwt beam="1">  1        2 0.29601792E+00 0.99769544E+03</pdfrwt>
<pdfrwt beam="2">  1       -2 0.82107444E-01 0.99769544E+03</pdfrwt>
<totfact> 0.96095526E+00</totfact>
</mgrwt>
</event>
<event>
 4    2  0.3388003E-007  0.6657737E+03  0.7818608E-02  0.1018893E+00
          2   -1    0    0  501    0  0.00000000000E+00  0.00000000000E+00  0.98670812196E+03  0.98670812196E+03  0.25500000000E-02 0. -1.
         -2   -1    0    0    0  501 -0.00000000000E+00 -0.00000000000E+00 -0.25188101934E+03  0.25188101936E+03  0.25500000000E-02 0.  1.
    8880023    1    1    2    0    0 -0.18854471121E+02 -0.95335572911E+02  0.23352467473E+03  0.70554116996E+03  0.65864270000E+03 0.  0.
    8880022    1    1    2    0    0  0.18854471121E+02  0.95335572911E+02  0.50130242789E+03  0.53304797135E+03  0.15294330000E+03 0.  0.
<mgrwt>
<rscale>  0 0.48088227E+03</rscale>
<asrwt>0</asrwt>
<pdfrwt beam="1">  1        2 0.15180125E+00 0.66577366E+03</pdfrwt>
<pdfrwt beam="2">  1       -2 0.38750925E-01 0.66577366E+03</pdfrwt>
<totfact> 0.16438414E+02</totfact>
</mgrwt>
</event>
<event>
 4    2  0.3388003E-007  0.1017641E+04  0.7818608E-02  0.9358833E-01
          2   -1    0    0  501    0  0.00000000000E+00  0.00000000000E+00  0.18347197326E+04  0.18347197327E+04  0.25500000000E-02 0. -1.
         -2   -1    0    0    0  501 -0.00000000000E+00 -0.00000000000E+00 -0.10739398837E+04  0.10739398837E+04  0.25500000000E-02 0.  1.
    8880023    1    1    2    0    0  0.58971021268E+03 -0.50400847347E+03 -0.70860612344E+03  0.12400465801E+04  0.65864270000E+03 0.  1.
    8880022    1    1    2    0    0 -0.58971021268E+03  0.50400847347E+03  0.14693859724E+04  0.16686130363E+04  0.15294330000E+03 0.  0.
<mgrwt>
<rscale>  0 0.95542376E+03</rscale>
<asrwt>0</asrwt>
<pdfrwt beam="1">  1        2 0.28226457E+00 0.10176408E+04</pdfrwt>
<pdfrwt beam="2">  1       -2 0.16522152E+00 0.10176408E+04</pdfrwt>
<totfact> 0.18910163E+00</totfact>
</mgrwt>
</event>
<event>
 4    2  0.3388003E-007  0.8516914E+03  0.7818608E-02  0.9608517E-01
         -2   -1    0    0    0  501 -0.00000000000E+00  0.00000000000E+00  0.16643248000E+03  0.16643248002E+03  0.25500000000E-02 0.  1.
          2   -1    0    0  501    0  0.00000000000E+00 -0.00000000000E+00 -0.37352912714E+04  0.37352912714E+04  0.25500000000E-02 0. -1.
    8880023    1    1    2    0    0  0.15595433281E+03  0.51695870466E+03 -0.12274253852E+04  0.14939716660E+04  0.65864270000E+03 0. -1.
    8880022    1    1    2    0    0 -0.15595433281E+03 -0.51695870466E+03 -0.23414334062E+04  0.24077520854E+04  0.15294330000E+03 0.  0.
<mgrwt>
<rscale>  0 0.76735014E+03</rscale>
<asrwt>0</asrwt>
<pdfrwt beam="1">  1        2 0.57466013E+00 0.85169141E+03</pdfrwt>
<pdfrwt beam="2">  1       -2 0.25605000E-01 0.85169141E+03</pdfrwt>
<totfact> 0.80657986E+00</totfact>
</mgrwt>
</event>
<event>
 4    2  0.3388003E-007  0.7789072E+03  0.7818608E-02  0.9758410E-01
          2   -1    0    0  501    0  0.00000000000E+00  0.00000000000E+00  0.19653627024E+04  0.19653627024E+04  0.25500000000E-02 0. -1.
         -2   -1    0    0    0  501 -0.00000000000E+00 -0.00000000000E+00 -0.25358784001E+03  0.25358784002E+03  0.25500000000E-02 0.  1.
    8880023    1    1    2    0    0 -0.68647328432E+02 -0.41008989871E+03  0.49217537383E+03  0.92137559420E+03  0.65864270000E+03 0.  1.
    8880022    1    1    2    0    0  0.68647328432E+02  0.41008989871E+03  0.12195994886E+04  0.12975749482E+04  0.15294330000E+03 0.  0.
<mgrwt>
<rscale>  0 0.67643051E+03</rscale>
<asrwt>0</asrwt>
<pdfrwt beam="1">  1        2 0.30236349E+00 0.77890717E+03</pdfrwt>
<pdfrwt beam="2">  1       -2 0.39013514E-01 0.77890717E+03</pdfrwt>
<totfact> 0.44518848E+01</totfact>
</mgrwt>
</event>
<event>
 4    2  0.3388003E-007  0.1196774E+04  0.7818608E-02  0.9160264E-01
          2   -1    0    0  501    0  0.00000000000E+00  0.00000000000E+00  0.10511291085E+04  0.10511291085E+04  0.25500000000E-02 0. -1.
         -2   -1    0    0    0  501 -0.00000000000E+00 -0.00000000000E+00 -0.23214492613E+04  0.23214492613E+04  0.25500000000E-02 0.  1.
    8880023    1    1    2    0    0  0.84573387603E+03  0.53215895657E+03 -0.18529467978E+04  0.22058288660E+04  0.65864270000E+03 0.  0.
    8880022    1    1    2    0    0 -0.84573387603E+03 -0.53215895657E+03  0.58262664499E+03  0.11667495038E+04  0.15294330000E+03 0.  0.
<mgrwt>
<rscale>  0 0.11473150E+04</rscale>
<asrwt>0</asrwt>
<pdfrwt beam="1">  1        2 0.16171217E+00 0.11967745E+04</pdfrwt>
<pdfrwt beam="2">  1       -2 0.35714604E+00 0.11967745E+04</pdfrwt>
<totfact> 0.32219640E-01</totfact>
</mgrwt>
</event>
<event>
 4    2  0.3388003E-007  0.6714318E+03  0.7818608E-02  0.1014657E+00
         -2   -1    0    0    0  501 -0.00000000000E+00  0.00000000000E+00  0.24015466893E+03  0.24015466894E+03  0.25500000000E-02 0.  1.
          2   -1    0    0  501    0  0.00000000000E+00 -0.00000000000E+00 -0.86673512103E+03  0.86673512103E+03  0.25500000000E-02 0. -1.
    8880023    1    1    2    0    0 -0.95724925229E+02  0.88584729888E+02 -0.32879263158E+03  0.74761307942E+03  0.65864270000E+03 0.  1.
    8880022    1    1    2    0    0  0.95724925229E+02 -0.88584729888E+02 -0.29778782052E+03  0.35927671055E+03  0.15294330000E+03 0. -1.
<mgrwt>
<rscale>  0 0.49665183E+03</rscale>
<asrwt>0</asrwt>
<pdfrwt beam="1">  1        2 0.13334386E+00 0.67143184E+03</pdfrwt>
<pdfrwt beam="2">  1       -2 0.36946873E-01 0.67143184E+03</pdfrwt>
<totfact> 0.21620570E+02</totfact>
</mgrwt>
</event>
<event>
 4    2  0.3388003E-007  0.7646986E+03  0.7818608E-02  0.9793092E-01
          2   -1    0    0  501    0  0.00000000000E+00  0.00000000000E+00  0.36101960501E+04  0.36101960501E+04  0.25500000000E-02 0. -1.
         -2   -1    0    0    0  501 -0.00000000000E+00 -0.00000000000E+00 -0.16973246018E+03  0.16973246020E+03  0.25500000000E-02 0.  1.
    8880023    1    1    2    0    0  0.21889376382E+03 -0.32099728713E+03  0.32164151692E+04  0.33060687357E+04  0.65864270000E+03 0.  0.
    8880022    1    1    2    0    0 -0.21889376382E+03  0.32099728713E+03  0.22404842078E+03  0.47385977468E+03  0.15294330000E+03 0.  0.
<mgrwt>
<rscale>  0 0.65734601E+03</rscale>
<asrwt>0</asrwt>
<pdfrwt beam="1">  1        2 0.55541473E+00 0.76469860E+03</pdfrwt>
<pdfrwt beam="2">  1       -2 0.26112689E-01 0.76469860E+03</pdfrwt>
<totfact> 0.97191089E+00</totfact>
</mgrwt>
</event>
<event>
 4    2  0.3388003E-007  0.6601275E+03  0.7818608E-02  0.1024026E+00
          2   -1    0    0  501    0  0.00000000000E+00  0.00000000000E+00  0.19549747992E+04  0.19549747992E+04  0.25500000000E-02 0. -1.
         -2   -1    0    0    0  501 -0.00000000000E+00 -0.00000000000E+00 -0.17572172018E+03  0.17572172020E+03  0.25500000000E-02 0.  1.
    8880023    1    1    2    0    0  0.42149425471E+02  0.13473555315E+02  0.46650549371E+03  0.80832895079E+03  0.65864270000E+03 0.  1.
    8880022    1    1    2    0    0 -0.42149425471E+02 -0.13473555315E+02  0.13127475853E+04  0.13223675686E+04  0.15294330000E+03 0.  0.
<mgrwt>
<rscale>  0 0.46261276E+03</rscale>
<asrwt>0</asrwt>
<pdfrwt beam="1">  1        2 0.30076537E+00 0.66012750E+03</pdfrwt>
<pdfrwt beam="2">  1       -2 0.27034109E-01 0.66012750E+03</pdfrwt>
<totfact> 0.91167278E+01</totfact>
</mgrwt>
</event>
<event>
 4    2  0.3388003E-007  0.6739510E+03  0.7818608E-02  0.1012976E+00
         -2   -1    0    0    0  501 -0.00000000000E+00  0.00000000000E+00  0.15130451442E+03  0.15130451445E+03  0.25500000000E-02 0.  1.
          2   -1    0    0  501    0  0.00000000000E+00 -0.00000000000E+00 -0.25036730806E+04  0.25036730806E+04  0.25500000000E-02 0. -1.
    8880023    1    1    2    0    0  0.18778006144E+02  0.14158779133E+03 -0.63850255216E+03  0.92838323528E+03  0.65864270000E+03 0.  1.
    8880022    1    1    2    0    0 -0.18778006144E+02 -0.14158779133E+03 -0.17138660140E+04  0.17265943597E+04  0.15294330000E+03 0.  0.
<mgrwt>
<rscale>  0 0.50308897E+03</rscale>
<asrwt>0</asrwt>
<pdfrwt beam="1">  1        2 0.38518044E+00 0.67395098E+03</pdfrwt>
<pdfrwt beam="2">  1       -2 0.23277619E-01 0.67395098E+03</pdfrwt>
<totfact> 0.59355546E+01</totfact>
</mgrwt>
</event>
<event>
 4    2  0.3923154E-007  0.8567991E+03  0.7818608E-02  0.9599283E-01
         -2   -1    0    0    0  501 -0.00000000000E+00  0.00000000000E+00  0.14197423886E+04  0.14197423886E+04  0.25500000000E-02 0.  1.
          2   -1    0    0  501    0  0.00000000000E+00 -0.00000000000E+00 -0.13075163440E+04  0.13075163440E+04  0.25500000000E-02 0. -1.
    8880023    1    1    2    0    0  0.17925777548E+02  0.54769807664E+03  0.12147980932E+04  0.14865527674E+04  0.65864270000E+03 0.  1.
    8880022    1    1    2    0    0 -0.17925777548E+02 -0.54769807664E+03 -0.11025720487E+04  0.12407059652E+04  0.15294330000E+03 0.  0.
<mgrwt>
<rscale>  0 0.77343670E+03</rscale>
<asrwt>0</asrwt>
<pdfrwt beam="1">  1        2 0.20115636E+00 0.85679911E+03</pdfrwt>
<pdfrwt beam="2">  1       -2 0.21842191E+00 0.85679911E+03</pdfrwt>
<totfact> 0.16785892E+00</totfact>
</mgrwt>
</event>
<event>
 4    2  0.3388003E-007  0.6609159E+03  0.7818608E-02  0.1023237E+00
         -2   -1    0    0    0  501 -0.00000000000E+00  0.00000000000E+00  0.21542532002E+03  0.21542532003E+03  0.25500000000E-02 0.  1.
          2   -1    0    0  501    0  0.00000000000E+00 -0.00000000000E+00 -0.98990771165E+03  0.98990771165E+03  0.25500000000E-02 0. -1.
    8880023    1    1    2    0    0 -0.53424782286E+02  0.12057565872E+02 -0.34371229975E+03  0.74494828244E+03  0.65864270000E+03 0.  1.
    8880022    1    1    2    0    0  0.53424782286E+02 -0.12057565872E+02 -0.43077009188E+03  0.46038474924E+03  0.15294330000E+03 0.  0.
<mgrwt>
<rscale>  0 0.46536329E+03</rscale>
<asrwt>0</asrwt>
<pdfrwt beam="1">  1        2 0.15229349E+00 0.66091588E+03</pdfrwt>
<pdfrwt beam="2">  1       -2 0.33142358E-01 0.66091588E+03</pdfrwt>
<totfact> 0.22057419E+02</totfact>
</mgrwt>
</event>
<event>
 4    2  0.3388003E-007  0.8307497E+03  0.7818608E-02  0.9647875E-01
         -2   -1    0    0    0  501 -0.00000000000E+00  0.00000000000E+00  0.59873775088E+03  0.59873775089E+03  0.25500000000E-02 0.  1.
          2   -1    0    0  501    0  0.00000000000E+00 -0.00000000000E+00 -0.10830288302E+04  0.10830288303E+04  0.25500000000E-02 0. -1.
    8880023    1    1    2    0    0  0.64540939972E+02  0.50216472144E+03  0.16226185500E+03  0.84644790521E+03  0.65864270000E+03 0.  1.
    8880022    1    1    2    0    0 -0.64540939972E+02 -0.50216472144E+03 -0.64655293437E+03  0.83531867592E+03  0.15294330000E+03 0. -1.
<mgrwt>
<rscale>  0 0.74206916E+03</rscale>
<asrwt>0</asrwt>
<pdfrwt beam="1">  1        2 0.16661982E+00 0.83074975E+03</pdfrwt>
<pdfrwt beam="2">  1       -2 0.92113501E-01 0.83074975E+03</pdfrwt>
<totfact> 0.22560468E+01</totfact>
</mgrwt>
</event>
<event>
 4    2  0.3388003E-007  0.7353321E+03  0.7818608E-02  0.9873759E-01
         -2   -1    0    0    0  501 -0.00000000000E+00  0.00000000000E+00  0.20156526499E+03  0.20156526500E+03  0.25500000000E-02 0.  1.
          2   -1    0    0  501    0  0.00000000000E+00 -0.00000000000E+00 -0.20083468575E+04  0.20083468575E+04  0.25500000000E-02 0. -1.
    8880023    1    1    2    0    0  0.34233360461E+02 -0.32516323386E+03 -0.16685318178E+04  0.18233791939E+04  0.65864270000E+03 0. -1.
    8880022    1    1    2    0    0 -0.34233360461E+02  0.32516323386E+03 -0.13824977468E+03  0.38653292853E+03  0.15294330000E+03 0.  0.
<mgrwt>
<rscale>  0 0.61550060E+03</rscale>
<asrwt>0</asrwt>
<pdfrwt beam="1">  1        2 0.30897643E+00 0.73533207E+03</pdfrwt>
<pdfrwt beam="2">  1       -2 0.31010042E-01 0.73533207E+03</pdfrwt>
<totfact> 0.65620702E+01</totfact>
</mgrwt>
</event>
<event>
 4    2  0.3388003E-007  0.7111380E+03  0.7818608E-02  0.9953799E-01
         -2   -1    0    0    0  501 -0.00000000000E+00  0.00000000000E+00  0.51808402273E+03  0.51808402274E+03  0.25500000000E-02 0.  1.
          2   -1    0    0  501    0  0.00000000000E+00 -0.00000000000E+00 -0.70376032396E+03  0.70376032396E+03  0.25500000000E-02 0. -1.
    8880023    1    1    2    0    0 -0.22277918787E+03 -0.14925289324E+03  0.18953406025E+03  0.73596219940E+03  0.65864270000E+03 0.  0.
    8880022    1    1    2    0    0  0.22277918787E+03  0.14925289324E+03 -0.37521036148E+03  0.48588214730E+03  0.15294330000E+03 0.  0.
<mgrwt>
<rscale>  0 0.57723311E+03</rscale>
<asrwt>0</asrwt>
<pdfrwt beam="1">  1        2 0.10827082E+00 0.71113796E+03</pdfrwt>
<pdfrwt beam="2">  1       -2 0.79705234E-01 0.71113796E+03</pdfrwt>
<totfact> 0.57614559E+01</totfact>
</mgrwt>
</event>
<event>
 4    2  0.3388003E-007  0.7680918E+03  0.7818608E-02  0.9784592E-01
          2   -1    0    0  501    0  0.00000000000E+00  0.00000000000E+00  0.61081459037E+03  0.61081459038E+03  0.25500000000E-02 0. -1.
         -2   -1    0    0    0  501 -0.00000000000E+00 -0.00000000000E+00 -0.69947859323E+03  0.69947859323E+03  0.25500000000E-02 0.  1.
    8880023    1    1    2    0    0 -0.20545427521E+03 -0.33755487781E+03 -0.31468087873E+03  0.83005362263E+03  0.65864270000E+03 0.  0.
    8880022    1    1    2    0    0  0.20545427521E+03  0.33755487781E+03  0.22601687588E+03  0.48023956098E+03  0.15294330000E+03 0.  0.
<mgrwt>
<rscale>  0 0.66196027E+03</rscale>
<asrwt>0</asrwt>
<pdfrwt beam="1">  1        2 0.93971475E-01 0.76809177E+03</pdfrwt>
<pdfrwt beam="2">  1       -2 0.10761209E+00 0.76809177E+03</pdfrwt>
<totfact> 0.34004369E+01</totfact>
</mgrwt>
</event>
<event>
 4    2  0.3388003E-007  0.9350011E+03  0.7818608E-02  0.9472031E-01
          2   -1    0    0  501    0  0.00000000000E+00  0.00000000000E+00  0.13910723826E+04  0.13910723826E+04  0.25500000000E-02 0. -1.
         -2   -1    0    0    0  501 -0.00000000000E+00 -0.00000000000E+00 -0.12423613974E+04  0.12423613974E+04  0.25500000000E-02 0.  1.
    8880023    1    1    2    0    0  0.29621879321E+03  0.59386134197E+03 -0.95500776547E+03  0.13365129649E+04  0.65864270000E+03 0.  0.
    8880022    1    1    2    0    0 -0.29621879321E+03 -0.59386134197E+03  0.11037187507E+04  0.12969208150E+04  0.15294330000E+03 0.  0.
<mgrwt>
<rscale>  0 0.86377660E+03</rscale>
<asrwt>0</asrwt>
<pdfrwt beam="1">  1        2 0.21401113E+00 0.93500111E+03</pdfrwt>
<pdfrwt beam="2">  1       -2 0.19113252E+00 0.93500111E+03</pdfrwt>
<totfact> 0.22321724E+00</totfact>
</mgrwt>
</event>
<event>
 4    2  0.3388003E-007  0.1027676E+04  0.7818608E-02  0.9346212E-01
          2   -1    0    0  501    0  0.00000000000E+00  0.00000000000E+00  0.30832418975E+04  0.30832418975E+04  0.25500000000E-02 0. -1.
         -2   -1    0    0    0  501 -0.00000000000E+00 -0.00000000000E+00 -0.41997302567E+03  0.41997302567E+03  0.25500000000E-02 0.  1.
    8880023    1    1    2    0    0  0.11037008501E+03  0.78110611141E+03  0.40215412403E+03  0.11035608088E+04  0.65864270000E+03 0.  0.
    8880022    1    1    2    0    0 -0.11037008501E+03 -0.78110611141E+03  0.22611147478E+04  0.23996541144E+04  0.15294330000E+03 0.  0.
<mgrwt>
<rscale>  0 0.96637590E+03</rscale>
<asrwt>0</asrwt>
<pdfrwt beam="1">  1        2 0.47434491E+00 0.10276763E+04</pdfrwt>
<pdfrwt beam="2">  1       -2 0.64611235E-01 0.10276763E+04</pdfrwt>
<totfact> 0.34804931E+00</totfact>
</mgrwt>
</event>
<event>
 4    2  0.3388003E-007  0.8529075E+03  0.7818608E-02  0.9606306E-01
          2   -1    0    0  501    0  0.00000000000E+00  0.00000000000E+00  0.40506697377E+04  0.40506697377E+04  0.25500000000E-02 0. -1.
         -2   -1    0    0    0  501 -0.00000000000E+00 -0.00000000000E+00 -0.41135745483E+03  0.41135745483E+03  0.25500000000E-02 0.  1.
    8880023    1    1    2    0    0 -0.54231839587E+02 -0.53916592683E+03  0.77986281827E+02  0.85646544326E+03  0.65864270000E+03 0.  1.
    8880022    1    1    2    0    0  0.54231839587E+02  0.53916592683E+03  0.35613260011E+04  0.36055617493E+04  0.15294330000E+03 0.  0.
<mgrwt>
<rscale>  0 0.76880190E+03</rscale>
<asrwt>0</asrwt>
<pdfrwt beam="1">  1        2 0.62317995E+00 0.85290750E+03</pdfrwt>
<pdfrwt beam="2">  1       -2 0.63285764E-01 0.85290750E+03</pdfrwt>
<totfact> 0.78270521E-01</totfact>
</mgrwt>
</event>
<event>
 4    2  0.3388003E-007  0.7232237E+03  0.7818608E-02  0.9911825E-01
          2   -1    0    0  501    0  0.00000000000E+00  0.00000000000E+00  0.25376008164E+04  0.25376008164E+04  0.25500000000E-02 0. -1.
         -2   -1    0    0    0  501 -0.00000000000E+00 -0.00000000000E+00 -0.12925879691E+03  0.12925879693E+03  0.25500000000E-02 0.  1.
    8880023    1    1    2    0    0  0.27277715153E+03  0.12179899702E+03  0.11022282512E+04  0.13183169930E+04  0.65864270000E+03 0.  1.
    8880022    1    1    2    0    0 -0.27277715153E+03 -0.12179899702E+03  0.13061137683E+04  0.13485426203E+04  0.15294330000E+03 0. -1.
<mgrwt>
<rscale>  0 0.59691598E+03</rscale>
<asrwt>0</asrwt>
<pdfrwt beam="1">  1        2 0.39040014E+00 0.72322374E+03</pdfrwt>
<pdfrwt beam="2">  1       -2 0.19885968E-01 0.72322374E+03</pdfrwt>
<totfact> 0.74469768E+01</totfact>
</mgrwt>
</event>
<event>
 4    2  0.3388003E-007  0.7915140E+03  0.7818608E-02  0.9729454E-01
         -2   -1    0    0    0  501 -0.00000000000E+00  0.00000000000E+00  0.18332644219E+04  0.18332644219E+04  0.25500000000E-02 0.  1.
          2   -1    0    0  501    0  0.00000000000E+00 -0.00000000000E+00 -0.33268674509E+03  0.33268674510E+03  0.25500000000E-02 0. -1.
    8880023    1    1    2    0    0 -0.43156716887E+03 -0.80212387124E+02  0.15057188352E+04  0.17010830859E+04  0.65864270000E+03 0.  1.
    8880022    1    1    2    0    0  0.43156716887E+03  0.80212387124E+02 -0.51411583607E+01  0.46486808109E+03  0.15294330000E+03 0.  0.
<mgrwt>
<rscale>  0 0.69289871E+03</rscale>
<asrwt>0</asrwt>
<pdfrwt beam="1">  1        2 0.51182577E-01 0.79151403E+03</pdfrwt>
<pdfrwt beam="2">  1       -2 0.28204068E+00 0.79151403E+03</pdfrwt>
<totfact> 0.41224285E+00</totfact>
</mgrwt>
</event>
<event>
 4    2  0.3388003E-007  0.7863714E+03  0.7818608E-02  0.9741078E-01
         -2   -1    0    0    0  501 -0.00000000000E+00  0.00000000000E+00  0.24199029719E+03  0.24199029720E+03  0.25500000000E-02 0.  1.
          2   -1    0    0  501    0  0.00000000000E+00 -0.00000000000E+00 -0.27281661724E+04  0.27281661724E+04  0.25500000000E-02 0. -1.
    8880023    1    1    2    0    0  0.40431855167E+03 -0.14524548142E+03 -0.49901550907E+03  0.93134119723E+03  0.65864270000E+03 0.  1.
    8880022    1    1    2    0    0 -0.40431855167E+03  0.14524548142E+03 -0.19871603662E+04  0.20388152724E+04  0.15294330000E+03 0.  0.
<mgrwt>
<rscale>  0 0.68622828E+03</rscale>
<asrwt>0</asrwt>
<pdfrwt beam="1">  1        2 0.41971785E+00 0.78637138E+03</pdfrwt>
<pdfrwt beam="2">  1       -2 0.37229278E-01 0.78637138E+03</pdfrwt>
<totfact> 0.18178076E+01</totfact>
</mgrwt>
</event>
<event>
 4    2  0.3388003E-007  0.1194037E+04  0.7818608E-02  0.9162940E-01
         -2   -1    0    0    0  501 -0.00000000000E+00  0.00000000000E+00  0.54582393537E+03  0.54582393537E+03  0.25500000000E-02 0.  1.
          2   -1    0    0  501    0  0.00000000000E+00 -0.00000000000E+00 -0.29753984636E+04  0.29753984636E+04  0.25500000000E-02 0. -1.
    8880023    1    1    2    0    0 -0.51476488053E+03 -0.85260309501E+03 -0.40690508210E+03  0.12614661597E+04  0.65864270000E+03 0.  0.
    8880022    1    1    2    0    0  0.51476488053E+03  0.85260309501E+03 -0.20226694461E+04  0.22597562393E+04  0.15294330000E+03 0.  0.
<mgrwt>
<rscale>  0 0.11444269E+04</rscale>
<asrwt>0</asrwt>
<pdfrwt beam="1">  1        2 0.45775360E+00 0.11940373E+04</pdfrwt>
<pdfrwt beam="2">  1       -2 0.83972915E-01 0.11940373E+04</pdfrwt>
<totfact> 0.22195234E+00</totfact>
</mgrwt>
</event>
<event>
 4    2  0.3388003E-007  0.9360943E+03  0.7818608E-02  0.9470410E-01
          2   -1    0    0  501    0  0.00000000000E+00  0.00000000000E+00  0.97505770928E+03  0.97505770928E+03  0.25500000000E-02 0. -1.
         -2   -1    0    0    0  501 -0.00000000000E+00 -0.00000000000E+00 -0.75978403561E+03  0.75978403561E+03  0.25500000000E-02 0.  1.
    8880023    1    1    2    0    0  0.66264468224E+03 -0.58002784508E+02 -0.16950700773E+03  0.95131757570E+03  0.65864270000E+03 0.  0.
    8880022    1    1    2    0    0 -0.66264468224E+03  0.58002784508E+02  0.38478068140E+03  0.78352416919E+03  0.15294330000E+03 0.  0.
<mgrwt>
<rscale>  0 0.86500958E+03</rscale>
<asrwt>0</asrwt>
<pdfrwt beam="1">  1        2 0.15000888E+00 0.93609428E+03</pdfrwt>
<pdfrwt beam="2">  1       -2 0.11688985E+00 0.93609428E+03</pdfrwt>
<totfact> 0.14785751E+01</totfact>
</mgrwt>
</event>
<event>
 4    2  0.3388003E-007  0.8376765E+03  0.7818608E-02  0.9634577E-01
          2   -1    0    0  501    0  0.00000000000E+00  0.00000000000E+00  0.16927675850E+04  0.16927675850E+04  0.25500000000E-02 0. -1.
         -2   -1    0    0    0  501 -0.00000000000E+00 -0.00000000000E+00 -0.69483780447E+03  0.69483780447E+03  0.25500000000E-02 0.  1.
    8880023    1    1    2    0    0  0.51727825115E+03  0.17748051845E+02 -0.37097690401E+03  0.91614728730E+03  0.65864270000E+03 0.  1.
    8880022    1    1    2    0    0 -0.51727825115E+03 -0.17748051845E+02  0.13689066846E+04  0.14714581022E+04  0.15294330000E+03 0.  0.
<mgrwt>
<rscale>  0 0.75049316E+03</rscale>
<asrwt>0</asrwt>
<pdfrwt beam="1">  1        2 0.26042578E+00 0.83767654E+03</pdfrwt>
<pdfrwt beam="2">  1       -2 0.10689812E+00 0.83767654E+03</pdfrwt>
<totfact> 0.70819112E+00</totfact>
</mgrwt>
</event>
<event>
 4    2  0.3388003E-007  0.6929134E+03  0.7818608E-02  0.1002797E+00
         -2   -1    0    0    0  501 -0.00000000000E+00  0.00000000000E+00  0.39188854847E+03  0.39188854847E+03  0.25500000000E-02 0.  1.
          2   -1    0    0  501    0  0.00000000000E+00 -0.00000000000E+00 -0.32799285535E+04  0.32799285535E+04  0.25500000000E-02 0. -1.
    8880023    1    1    2    0    0  0.10716077804E+03  0.18664232019E+03  0.75069296998E+02  0.69696800045E+03  0.65864270000E+03 0.  1.
    8880022    1    1    2    0    0 -0.10716077804E+03 -0.18664232019E+03 -0.29631093020E+04  0.29748491015E+04  0.15294330000E+03 0.  0.
<mgrwt>
<rscale>  0 0.54440418E+03</rscale>
<asrwt>0</asrwt>
<pdfrwt beam="1">  1        2 0.50460437E+00 0.69291341E+03</pdfrwt>
<pdfrwt beam="2">  1       -2 0.60290548E-01 0.69291341E+03</pdfrwt>
<totfact> 0.32124641E+00</totfact>
</mgrwt>
</event>
<event>
 4    2  0.3388003E-007  0.1094781E+04  0.7818608E-02  0.9266889E-01
          2   -1    0    0  501    0  0.00000000000E+00  0.00000000000E+00  0.21231003144E+04  0.21231003144E+04  0.25500000000E-02 0. -1.
         -2   -1    0    0    0  501 -0.00000000000E+00 -0.00000000000E+00 -0.46561507804E+03  0.46561507804E+03  0.25500000000E-02 0.  1.
    8880023    1    1    2    0    0  0.83513216649E+03  0.25940123137E+03  0.81509134647E+03  0.13648878502E+04  0.65864270000E+03 0.  0.
    8880022    1    1    2    0    0 -0.83513216649E+03 -0.25940123137E+03  0.84239388988E+03  0.12238275422E+04  0.15294330000E+03 0.  0.
<mgrwt>
<rscale>  0 0.10388907E+04</rscale>
<asrwt>0</asrwt>
<pdfrwt beam="1">  1        2 0.32663082E+00 0.10947808E+04</pdfrwt>
<pdfrwt beam="2">  1       -2 0.71633089E-01 0.10947808E+04</pdfrwt>
<totfact> 0.10021666E+01</totfact>
</mgrwt>
</event>
<event>
 4    2  0.3388003E-007  0.7450696E+03  0.7818608E-02  0.9845418E-01
          2   -1    0    0  501    0  0.00000000000E+00  0.00000000000E+00  0.20828308051E+04  0.20828308051E+04  0.25500000000E-02 0. -1.
         -2   -1    0    0    0  501 -0.00000000000E+00 -0.00000000000E+00 -0.15354696995E+03  0.15354696997E+03  0.25500000000E-02 0.  1.
    8880023    1    1    2    0    0  0.15436020080E+03  0.31223607254E+03  0.11692853364E+04  0.13864908369E+04  0.65864270000E+03 0.  0.
    8880022    1    1    2    0    0 -0.15436020080E+03 -0.31223607254E+03  0.75999849870E+03  0.84988693814E+03  0.15294330000E+03 0.  0.
<mgrwt>
<rscale>  0 0.62981060E+03</rscale>
<asrwt>0</asrwt>
<pdfrwt beam="1">  1        2 0.32043547E+00 0.74506956E+03</pdfrwt>
<pdfrwt beam="2">  1       -2 0.23622614E-01 0.74506956E+03</pdfrwt>
<totfact> 0.98105341E+01</totfact>
</mgrwt>
</event>
<event>
 4    2  0.3388003E-007  0.7893271E+03  0.7818608E-02  0.9734367E-01
          2   -1    0    0  501    0  0.00000000000E+00  0.00000000000E+00  0.19180735745E+04  0.19180735745E+04  0.25500000000E-02 0. -1.
         -2   -1    0    0    0  501 -0.00000000000E+00 -0.00000000000E+00 -0.31999651350E+03  0.31999651351E+03  0.25500000000E-02 0.  1.
    8880023    1    1    2    0    0  0.16231455645E+03 -0.40358530875E+03  0.27323996589E+03  0.83528282749E+03  0.65864270000E+03 0.  1.
    8880022    1    1    2    0    0 -0.16231455645E+03  0.40358530875E+03  0.13248370952E+04  0.14027872606E+04  0.15294330000E+03 0.  0.
<mgrwt>
<rscale>  0 0.69006972E+03</rscale>
<asrwt>0</asrwt>
<pdfrwt beam="1">  1        2 0.29508824E+00 0.78932713E+03</pdfrwt>
<pdfrwt beam="2">  1       -2 0.49230234E-01 0.78932713E+03</pdfrwt>
<totfact> 0.29732630E+01</totfact>
</mgrwt>
</event>
<event>
 4    2  0.3388003E-007  0.6593806E+03  0.7818608E-02  0.1024800E+00
         -2   -1    0    0    0  501 -0.00000000000E+00  0.00000000000E+00  0.73734285870E+03  0.73734285870E+03  0.25500000000E-02 0.  1.
          2   -1    0    0  501    0  0.00000000000E+00 -0.00000000000E+00 -0.28913069265E+03  0.28913069266E+03  0.25500000000E-02 0. -1.
    8880023    1    1    2    0    0 -0.10780492351E+01  0.31167659065E+02  0.53388272881E+03  0.84841826922E+03  0.65864270000E+03 0.  1.
    8880022    1    1    2    0    0  0.10780492351E+01 -0.31167659065E+02 -0.85670562754E+02  0.17805528214E+03  0.15294330000E+03 0.  0.
<mgrwt>
<rscale>  0 0.45993476E+03</rscale>
<asrwt>0</asrwt>
<pdfrwt beam="1">  1        2 0.44481645E-01 0.65938061E+03</pdfrwt>
<pdfrwt beam="2">  1       -2 0.11343736E+00 0.65938061E+03</pdfrwt>
<totfact> 0.70790144E+01</totfact>
</mgrwt>
</event>
<event>
 4    2  0.3388003E-007  0.6877305E+03  0.7818608E-02  0.1005250E+00
          2   -1    0    0  501    0  0.00000000000E+00  0.00000000000E+00  0.12353237457E+04  0.12353237457E+04  0.25500000000E-02 0. -1.
         -2   -1    0    0    0  501 -0.00000000000E+00 -0.00000000000E+00 -0.40586693417E+03  0.40586693418E+03  0.25500000000E-02 0.  1.
    8880023    1    1    2    0    0  0.16923534050E+03  0.10257863679E+03 -0.85169359447E+02  0.69298412915E+03  0.65864270000E+03 0.  1.
    8880022    1    1    2    0    0 -0.16923534050E+03 -0.10257863679E+03  0.91462617093E+03  0.94820655069E+03  0.15294330000E+03 0.  0.
<mgrwt>
<rscale>  0 0.53406747E+03</rscale>
<asrwt>0</asrwt>
<pdfrwt beam="1">  1        2 0.19004980E+00 0.68773046E+03</pdfrwt>
<pdfrwt beam="2">  1       -2 0.62441068E-01 0.68773046E+03</pdfrwt>
<totfact> 0.44010158E+01</totfact>
</mgrwt>
</event>
<event>
 4    2  0.3388003E-007  0.9909483E+03  0.7818608E-02  0.9393497E-01
          2   -1    0    0  501    0  0.00000000000E+00  0.00000000000E+00  0.54165401424E+03  0.54165401424E+03  0.25500000000E-02 0. -1.
         -2   -1    0    0    0  501 -0.00000000000E+00 -0.00000000000E+00 -0.17640041912E+04  0.17640041912E+04  0.25500000000E-02 0.  1.
    8880023    1    1    2    0    0 -0.78892366497E+02 -0.73616870542E+03 -0.11905197845E+04  0.15489725407E+04  0.65864270000E+03 0.  1.
    8880022    1    1    2    0    0  0.78892366497E+02  0.73616870542E+03 -0.31830392468E+02  0.75668566474E+03  0.15294330000E+03 0.  0.
<mgrwt>
<rscale>  0 0.92612794E+03</rscale>
<asrwt>0</asrwt>
<pdfrwt beam="1">  1        2 0.83331387E-01 0.99094832E+03</pdfrwt>
<pdfrwt beam="2">  1       -2 0.27138526E+00 0.99094832E+03</pdfrwt>
<totfact> 0.26736689E+00</totfact>
</mgrwt>
</event>
<event>
 4    2  0.3388003E-007  0.9622321E+03  0.7818608E-02  0.9432729E-01
         -2   -1    0    0    0  501 -0.00000000000E+00  0.00000000000E+00  0.40181612603E+03  0.40181612603E+03  0.25500000000E-02 0.  1.
          2   -1    0    0  501    0  0.00000000000E+00 -0.00000000000E+00 -0.25670752566E+04  0.25670752566E+04  0.25500000000E-02 0. -1.
    8880023    1    1    2    0    0  0.46568780946E+03  0.52460956432E+03 -0.20184452385E+04  0.22360705977E+04  0.65864270000E+03 0. -1.
    8880022    1    1    2    0    0 -0.46568780946E+03 -0.52460956432E+03 -0.14681389204E+03  0.73282078489E+03  0.15294330000E+03 0.  0.
<mgrwt>
<rscale>  0 0.89430467E+03</rscale>
<asrwt>0</asrwt>
<pdfrwt beam="1">  1        2 0.39493464E+00 0.96223206E+03</pdfrwt>
<pdfrwt beam="2">  1       -2 0.61817867E-01 0.96223206E+03</pdfrwt>
<totfact> 0.78729107E+00</totfact>
</mgrwt>
</event>
<event>
 4    2  0.3388003E-007  0.7670702E+03  0.7818608E-02  0.9787136E-01
         -2   -1    0    0    0  501 -0.00000000000E+00  0.00000000000E+00  0.14876605579E+03  0.14876605581E+03  0.25500000000E-02 0.  1.
          2   -1    0    0  501    0  0.00000000000E+00 -0.00000000000E+00 -0.32674658519E+04  0.32674658519E+04  0.25500000000E-02 0. -1.
    8880023    1    1    2    0    0 -0.19746433651E+02 -0.39267869659E+03 -0.10238383881E+04  0.12793129921E+04  0.65864270000E+03 0.  0.
    8880022    1    1    2    0    0  0.19746433651E+02  0.39267869659E+03 -0.20948614079E+04  0.21369189156E+04  0.15294330000E+03 0.  0.
<mgrwt>
<rscale>  0 0.66057504E+03</rscale>
<asrwt>0</asrwt>
<pdfrwt beam="1">  1        2 0.50268700E+00 0.76707020E+03</pdfrwt>
<pdfrwt beam="2">  1       -2 0.22887088E-01 0.76707020E+03</pdfrwt>
<totfact> 0.20948041E+01</totfact>
</mgrwt>
</event>
<event>
 4    2  0.3388003E-007  0.1166330E+04  0.7818608E-02  0.9190567E-01
         -2   -1    0    0    0  501 -0.00000000000E+00  0.00000000000E+00  0.11219386586E+04  0.11219386586E+04  0.25500000000E-02 0.  1.
          2   -1    0    0  501    0  0.00000000000E+00 -0.00000000000E+00 -0.23089811233E+04  0.23089811233E+04  0.25500000000E-02 0. -1.
    8880023    1    1    2    0    0 -0.56575807309E+03 -0.77873889925E+03  0.66173043460E+03  0.13409749605E+04  0.65864270000E+03 0.  0.
    8880022    1    1    2    0    0  0.56575807309E+03  0.77873889925E+03 -0.18487728993E+04  0.20899448214E+04  0.15294330000E+03 0.  0.
<mgrwt>
<rscale>  0 0.11151323E+04</rscale>
<asrwt>0</asrwt>
<pdfrwt beam="1">  1        2 0.35522786E+00 0.11663304E+04</pdfrwt>
<pdfrwt beam="2">  1       -2 0.17260595E+00 0.11663304E+04</pdfrwt>
<totfact> 0.89569278E-01</totfact>
</mgrwt>
</event>
<event>
 4    2  0.3388003E-007  0.7281460E+03  0.7818608E-02  0.9895929E-01
         -2   -1    0    0    0  501 -0.00000000000E+00  0.00000000000E+00  0.98160617047E+03  0.98160617048E+03  0.25500000000E-02 0.  1.
          2   -1    0    0  501    0  0.00000000000E+00 -0.00000000000E+00 -0.43600881785E+03  0.43600881786E+03  0.25500000000E-02 0. -1.
    8880023    1    1    2    0    0 -0.44665165992E+01  0.31042948053E+03  0.72522158175E+03  0.10276881633E+04  0.65864270000E+03 0.  0.
    8880022    1    1    2    0    0  0.44665165992E+01 -0.31042948053E+03 -0.17962422912E+03  0.38992682500E+03  0.15294330000E+03 0.  0.
<mgrwt>
<rscale>  0 0.60459008E+03</rscale>
<asrwt>0</asrwt>
<pdfrwt beam="1">  1        2 0.67078280E-01 0.72814601E+03</pdfrwt>
<pdfrwt beam="2">  1       -2 0.15101633E+00 0.72814601E+03</pdfrwt>
<totfact> 0.21540721E+01</totfact>
</mgrwt>
</event>
<event>
 4    2  0.3388003E-007  0.8296300E+03  0.7818608E-02  0.9650053E-01
          2   -1    0    0  501    0  0.00000000000E+00  0.00000000000E+00  0.60329120928E+03  0.60329120928E+03  0.25500000000E-02 0. -1.
         -2   -1    0    0    0  501 -0.00000000000E+00 -0.00000000000E+00 -0.92105599820E+03  0.92105599820E+03  0.25500000000E-02 0.  1.
    8880023    1    1    2    0    0  0.43983672235E+03  0.24702103939E+03 -0.49756293759E+03  0.96739589587E+03  0.65864270000E+03 0.  1.
    8880022    1    1    2    0    0 -0.43983672235E+03 -0.24702103939E+03  0.17979814867E+03  0.55695131161E+03  0.15294330000E+03 0.  0.
<mgrwt>
<rscale>  0 0.74070118E+03</rscale>
<asrwt>0</asrwt>
<pdfrwt beam="1">  1        2 0.92814032E-01 0.82963000E+03</pdfrwt>
<pdfrwt beam="2">  1       -2 0.14170092E+00 0.82963000E+03</pdfrwt>
<totfact> 0.17262969E+01</totfact>
</mgrwt>
</event>
<event>
 4    2  0.3388003E-007  0.6857259E+03  0.7818608E-02  0.1006254E+00
          2   -1    0    0  501    0  0.00000000000E+00  0.00000000000E+00  0.10362049085E+04  0.10362049085E+04  0.25500000000E-02 0. -1.
         -2   -1    0    0    0  501 -0.00000000000E+00 -0.00000000000E+00 -0.31842430362E+03  0.31842430363E+03  0.25500000000E-02 0.  1.
    8880023    1    1    2    0    0  0.17099661659E+03  0.84675959851E+02  0.83744747957E+03  0.10823762508E+04  0.65864270000E+03 0.  0.
    8880022    1    1    2    0    0 -0.17099661659E+03 -0.84675959851E+02 -0.11966687464E+03  0.27225296135E+03  0.15294330000E+03 0.  1.
<mgrwt>
<rscale>  0 0.52990981E+03</rscale>
<asrwt>0</asrwt>
<pdfrwt beam="1">  1        2 0.15941614E+00 0.68572594E+03</pdfrwt>
<pdfrwt beam="2">  1       -2 0.48988355E-01 0.68572594E+03</pdfrwt>
<totfact> 0.96028619E+01</totfact>
</mgrwt>
</event>
<event>
 4    2  0.3388003E-007  0.1028049E+04  0.7818608E-02  0.9345747E-01
         -2   -1    0    0    0  501 -0.00000000000E+00  0.00000000000E+00  0.60982300427E+03  0.60982300428E+03  0.25500000000E-02 0.  1.
          2   -1    0    0  501    0  0.00000000000E+00 -0.00000000000E+00 -0.15099543125E+04  0.15099543125E+04  0.25500000000E-02 0. -1.
    8880023    1    1    2    0    0  0.76835223825E+03 -0.18085665116E+03 -0.18671166380E+03  0.10448663752E+04  0.65864270000E+03 0.  0.
    8880022    1    1    2    0    0 -0.76835223825E+03  0.18085665116E+03 -0.71341964438E+03  0.10749109416E+04  0.15294330000E+03 0.  0.
<mgrwt>
<rscale>  0 0.96678194E+03</rscale>
<asrwt>0</asrwt>
<pdfrwt beam="1">  1        2 0.23230066E+00 0.10280489E+04</pdfrwt>
<pdfrwt beam="2">  1       -2 0.93818924E-01 0.10280489E+04</pdfrwt>
<totfact> 0.11944685E+01</totfact>
</mgrwt>
</event>
<event>
 4    2  0.3388003E-007  0.7375406E+03  0.7818608E-02  0.9867170E-01
          2   -1    0    0  501    0  0.00000000000E+00  0.00000000000E+00  0.10422970465E+04  0.10422970466E+04  0.25500000000E-02 0. -1.
         -2   -1    0    0    0  501 -0.00000000000E+00 -0.00000000000E+00 -0.60837058898E+03  0.60837058899E+03  0.25500000000E-02 0.  1.
    8880023    1    1    2    0    0 -0.63555306925E+02  0.32575543043E+03 -0.32681346251E+03  0.80670510289E+03  0.65864270000E+03 0.  1.
    8880022    1    1    2    0    0  0.63555306925E+02 -0.32575543043E+03  0.76073992008E+03  0.84396253264E+03  0.15294330000E+03 0.  0.
<mgrwt>
<rscale>  0 0.61879090E+03</rscale>
<asrwt>0</asrwt>
<pdfrwt beam="1">  1        2 0.16035339E+00 0.73754056E+03</pdfrwt>
<pdfrwt beam="2">  1       -2 0.93595476E-01 0.73754056E+03</pdfrwt>
<totfact> 0.23258769E+01</totfact>
</mgrwt>
</event>
<event>
 4    2  0.3388003E-007  0.7623923E+03  0.7818608E-02  0.9798953E-01
         -2   -1    0    0    0  501 -0.00000000000E+00  0.00000000000E+00  0.59409248626E+03  0.59409248627E+03  0.25500000000E-02 0.  1.
          2   -1    0    0  501    0  0.00000000000E+00 -0.00000000000E+00 -0.91777358892E+03  0.91777358892E+03  0.25500000000E-02 0. -1.
    8880023    1    1    2    0    0 -0.12665551387E+03 -0.36247795045E+03 -0.63678886126E+03  0.99334895371E+03  0.65864270000E+03 0. -1.
    8880022    1    1    2    0    0  0.12665551387E+03  0.36247795045E+03  0.31310775860E+03  0.51851712148E+03  0.15294330000E+03 0.  0.
<mgrwt>
<rscale>  0 0.65418768E+03</rscale>
<asrwt>0</asrwt>
<pdfrwt beam="1">  1        2 0.14119594E+00 0.76239235E+03</pdfrwt>
<pdfrwt beam="2">  1       -2 0.91398844E-01 0.76239235E+03</pdfrwt>
<totfact> 0.29497367E+01</totfact>
</mgrwt>
</event>
<event>
 4    2  0.3388003E-007  0.8506217E+03  0.7818608E-02  0.9610468E-01
         -2   -1    0    0    0  501 -0.00000000000E+00  0.00000000000E+00  0.38197828125E+03  0.38197828126E+03  0.25500000000E-02 0.  1.
          2   -1    0    0  501    0  0.00000000000E+00 -0.00000000000E+00 -0.25222094868E+04  0.25222094869E+04  0.25500000000E-02 0. -1.
    8880023    1    1    2    0    0 -0.26238877709E+03  0.46999923396E+03 -0.18506901723E+03  0.87052162389E+03  0.65864270000E+03 0.  0.
    8880022    1    1    2    0    0  0.26238877709E+03 -0.46999923396E+03 -0.19551621884E+04  0.20336661442E+04  0.15294330000E+03 0.  0.
<mgrwt>
<rscale>  0 0.76607179E+03</rscale>
<asrwt>0</asrwt>
<pdfrwt beam="1">  1        2 0.38803222E+00 0.85062175E+03</pdfrwt>
<pdfrwt beam="2">  1       -2 0.58765891E-01 0.85062175E+03</pdfrwt>
<totfact> 0.94449672E+00</totfact>
</mgrwt>
</event>
<event>
 4    2  0.3388003E-007  0.8129373E+03  0.7818608E-02  0.9683491E-01
         -2   -1    0    0    0  501 -0.00000000000E+00  0.00000000000E+00  0.79487663647E+03  0.79487663647E+03  0.25500000000E-02 0.  1.
          2   -1    0    0  501    0  0.00000000000E+00 -0.00000000000E+00 -0.73115257818E+03  0.73115257819E+03  0.25500000000E-02 0. -1.
    8880023    1    1    2    0    0 -0.14314231796E+03  0.45449659157E+03  0.41680719473E+03  0.91356188558E+03  0.65864270000E+03 0.  0.
    8880022    1    1    2    0    0  0.14314231796E+03 -0.45449659157E+03 -0.35308313644E+03  0.61246732908E+03  0.15294330000E+03 0.  0.
<mgrwt>
<rscale>  0 0.72008308E+03</rscale>
<asrwt>0</asrwt>
<pdfrwt beam="1">  1        2 0.11248501E+00 0.81293732E+03</pdfrwt>
<pdfrwt beam="2">  1       -2 0.12228871E+00 0.81293732E+03</pdfrwt>
<totfact> 0.19795043E+01</totfact>
</mgrwt>
</event>
<event>
 4    2  0.3388003E-007  0.6793065E+03  0.7818608E-02  0.1009719E+00
         -2   -1    0    0    0  501 -0.00000000000E+00  0.00000000000E+00  0.31891346050E+03  0.31891346051E+03  0.25500000000E-02 0.  1.
          2   -1    0    0  501    0  0.00000000000E+00 -0.00000000000E+00 -0.31132039345E+04  0.31132039345E+04  0.25500000000E-02 0. -1.
    8880023    1    1    2    0    0 -0.13384584854E+03 -0.98653208966E+02 -0.52823220370E+02  0.68135722326E+03  0.65864270000E+03 0.  1.
    8880022    1    1    2    0    0  0.13384584854E+03  0.98653208966E+02 -0.27414672536E+04  0.27507601718E+04  0.15294330000E+03 0.  0.
<mgrwt>
<rscale>  0 0.51586602E+03</rscale>
<asrwt>0</asrwt>
<pdfrwt beam="1">  1        2 0.47895443E+00 0.67930654E+03</pdfrwt>
<pdfrwt beam="2">  1       -2 0.49063611E-01 0.67930654E+03</pdfrwt>
<totfact> 0.62951608E+00</totfact>
</mgrwt>
</event>
<event>
 4    2  0.3388003E-007  0.6717538E+03  0.7818608E-02  0.1014436E+00
          2   -1    0    0  501    0  0.00000000000E+00  0.00000000000E+00  0.23371481555E+04  0.23371481555E+04  0.25500000000E-02 0. -1.
         -2   -1    0    0    0  501 -0.00000000000E+00 -0.00000000000E+00 -0.90327527514E+02  0.90327527550E+02  0.25500000000E-02 0.  1.
    8880023    1    1    2    0    0 -0.37865522327E+02 -0.12652756431E+03  0.13466040911E+04  0.15048574041E+04  0.65864270000E+03 0.  1.
    8880022    1    1    2    0    0  0.37865522327E+02  0.12652756431E+03  0.90021653696E+03  0.92261827900E+03  0.15294330000E+03 0.  0.
<mgrwt>
<rscale>  0 0.49749218E+03</rscale>
<asrwt>0</asrwt>
<pdfrwt beam="1">  1        2 0.35956128E+00 0.67175385E+03</pdfrwt>
<pdfrwt beam="2">  1       -2 0.13896542E-01 0.67175385E+03</pdfrwt>
<totfact> 0.17923552E+02</totfact>
</mgrwt>
</event>
<event>
 4    2  0.3388003E-007  0.8660193E+03  0.7818608E-02  0.9582945E-01
         -2   -1    0    0    0  501 -0.00000000000E+00  0.00000000000E+00  0.48583797247E+03  0.48583797247E+03  0.25500000000E-02 0.  1.
          2   -1    0    0  501    0  0.00000000000E+00 -0.00000000000E+00 -0.20310738979E+04  0.20310738979E+04  0.25500000000E-02 0. -1.
    8880023    1    1    2    0    0  0.47503297757E+03  0.30087021581E+03 -0.60823113394E+00  0.86601951060E+03  0.65864270000E+03 0.  1.
    8880022    1    1    2    0    0 -0.47503297757E+03 -0.30087021581E+03 -0.15446276943E+04  0.16508923598E+04  0.15294330000E+03 0.  0.
<mgrwt>
<rscale>  0 0.78435376E+03</rscale>
<asrwt>0</asrwt>
<pdfrwt beam="1">  1        2 0.31247290E+00 0.86601930E+03</pdfrwt>
<pdfrwt beam="2">  1       -2 0.74744304E-01 0.86601930E+03</pdfrwt>
<totfact> 0.10529210E+01</totfact>
</mgrwt>
</event>
<event>
 4    2  0.3388003E-007  0.8197111E+03  0.7818608E-02  0.9669693E-01
          2   -1    0    0  501    0  0.00000000000E+00  0.00000000000E+00  0.20591906391E+04  0.20591906391E+04  0.25500000000E-02 0. -1.
         -2   -1    0    0    0  501 -0.00000000000E+00 -0.00000000000E+00 -0.56562183388E+03  0.56562183389E+03  0.25500000000E-02 0.  1.
    8880023    1    1    2    0    0 -0.25589950889E+03 -0.41548944858E+03 -0.20996904822E+03  0.84617566025E+03  0.65864270000E+03 0.  1.
    8880022    1    1    2    0    0  0.25589950889E+03  0.41548944858E+03  0.17035378535E+04  0.17786368128E+04  0.15294330000E+03 0.  0.
<mgrwt>
<rscale>  0 0.72850269E+03</rscale>
<asrwt>0</asrwt>
<pdfrwt beam="1">  1        2 0.31679856E+00 0.81971108E+03</pdfrwt>
<pdfrwt beam="2">  1       -2 0.87018744E-01 0.81971108E+03</pdfrwt>
<totfact> 0.72574630E+00</totfact>
</mgrwt>
</event>
<event>
 4    2  0.3388003E-007  0.1106173E+04  0.7818608E-02  0.9254215E-01
         -2   -1    0    0    0  501 -0.00000000000E+00  0.00000000000E+00  0.58394438403E+03  0.58394438404E+03  0.25500000000E-02 0.  1.
          2   -1    0    0  501    0  0.00000000000E+00 -0.00000000000E+00 -0.19521519855E+04  0.19521519855E+04  0.25500000000E-02 0. -1.
    8880023    1    1    2    0    0 -0.70205172402E+03 -0.54491393474E+03 -0.11751707031E+04  0.16138910146E+04  0.65864270000E+03 0.  0.
    8880022    1    1    2    0    0  0.70205172402E+03  0.54491393474E+03 -0.19303689838E+03  0.92220535491E+03  0.15294330000E+03 0.  0.
<mgrwt>
<rscale>  0 0.10510947E+04</rscale>
<asrwt>0</asrwt>
<pdfrwt beam="1">  1        2 0.30033107E+00 0.11061727E+04</pdfrwt>
<pdfrwt beam="2">  1       -2 0.89837598E-01 0.11061727E+04</pdfrwt>
<totfact> 0.74572336E+00</totfact>
</mgrwt>
</event>
<event>
 4    2  0.3388003E-007  0.7539418E+03  0.7818608E-02  0.9821052E-01
         -2   -1    0    0    0  501 -0.00000000000E+00  0.00000000000E+00  0.13641868754E+03  0.13641868756E+03  0.25500000000E-02 0.  1.
          2   -1    0    0  501    0  0.00000000000E+00 -0.00000000000E+00 -0.27961263386E+04  0.27961263386E+04  0.25500000000E-02 0. -1.
    8880023    1    1    2    0    0 -0.20649767831E+03  0.30327671008E+03 -0.11793552905E+04  0.13997525358E+04  0.65864270000E+03 0.  1.
    8880022    1    1    2    0    0  0.20649767831E+03 -0.30327671008E+03 -0.14803523606E+04  0.15327924904E+04  0.15294330000E+03 0.  0.
<mgrwt>
<rscale>  0 0.64244928E+03</rscale>
<asrwt>0</asrwt>
<pdfrwt beam="1">  1        2 0.43017324E+00 0.75394181E+03</pdfrwt>
<pdfrwt beam="2">  1       -2 0.20987492E-01 0.75394181E+03</pdfrwt>
<totfact> 0.47789767E+01</totfact>
</mgrwt>
</event>
<event>
 4    2  0.3388003E-007  0.9913518E+03  0.7818608E-02  0.9392961E-01
          2   -1    0    0  501    0  0.00000000000E+00  0.00000000000E+00  0.18008528263E+04  0.18008528263E+04  0.25500000000E-02 0. -1.
         -2   -1    0    0    0  501 -0.00000000000E+00 -0.00000000000E+00 -0.47082657049E+03  0.47082657050E+03  0.25500000000E-02 0.  1.
    8880023    1    1    2    0    0 -0.48512474580E+03  0.56001971675E+03  0.11002981550E+04  0.14810247595E+04  0.65864270000E+03 0. -1.
    8880022    1    1    2    0    0  0.48512474580E+03 -0.56001971675E+03  0.22972810082E+03  0.79065463729E+03  0.15294330000E+03 0.  1.
<mgrwt>
<rscale>  0 0.92657264E+03</rscale>
<asrwt>0</asrwt>
<pdfrwt beam="1">  1        2 0.27705428E+00 0.99135176E+03</pdfrwt>
<pdfrwt beam="2">  1       -2 0.72434857E-01 0.99135176E+03</pdfrwt>
<totfact> 0.14883231E+01</totfact>
</mgrwt>
</event>
<event>
 4    2  0.3388003E-007  0.7179203E+03  0.7818608E-02  0.9929687E-01
         -2   -1    0    0    0  501 -0.00000000000E+00  0.00000000000E+00  0.18126164810E+03  0.18126164812E+03  0.25500000000E-02 0.  1.
          2   -1    0    0  501    0  0.00000000000E+00 -0.00000000000E+00 -0.14989576724E+04  0.14989576724E+04  0.25500000000E-02 0. -1.
    8880023    1    1    2    0    0 -0.10796746010E+03  0.26446617741E+03 -0.93315212364E+03  0.11773624860E+04  0.65864270000E+03 0. -1.
    8880022    1    1    2    0    0  0.10796746010E+03 -0.26446617741E+03 -0.38454390070E+03  0.50285683451E+03  0.15294330000E+03 0.  1.
<mgrwt>
<rscale>  0 0.58843862E+03</rscale>
<asrwt>0</asrwt>
<pdfrwt beam="1">  1        2 0.23060886E+00 0.71792029E+03</pdfrwt>
<pdfrwt beam="2">  1       -2 0.27886408E-01 0.71792029E+03</pdfrwt>
<totfact> 0.15201000E+02</totfact>
</mgrwt>
</event>
<event>
 4    2  0.3388003E-007  0.1034771E+04  0.7818608E-02  0.9337416E-01
         -2   -1    0    0    0  501 -0.00000000000E+00  0.00000000000E+00  0.44301881153E+03  0.44301881154E+03  0.25500000000E-02 0.  1.
          2   -1    0    0  501    0  0.00000000000E+00 -0.00000000000E+00 -0.29059945668E+04  0.29059945668E+04  0.25500000000E-02 0. -1.
    8880023    1    1    2    0    0  0.12107277347E+03 -0.78884896857E+03 -0.36183566425E+03  0.10962100920E+04  0.65864270000E+03 0.  0.
    8880022    1    1    2    0    0 -0.12107277347E+03  0.78884896857E+03 -0.21011400910E+04  0.22528032863E+04  0.15294330000E+03 0.  0.
<mgrwt>
<rscale>  0 0.97410020E+03</rscale>
<asrwt>0</asrwt>
<pdfrwt beam="1">  1        2 0.44707607E+00 0.10347712E+04</pdfrwt>
<pdfrwt beam="2">  1       -2 0.68156742E-01 0.10347712E+04</pdfrwt>
<totfact> 0.39833134E+00</totfact>
</mgrwt>
</event>
<event>
 4    2  0.3388003E-007  0.9529268E+03  0.7818608E-02  0.9445915E-01
          2   -1    0    0  501    0  0.00000000000E+00  0.00000000000E+00  0.98508973699E+03  0.98508973699E+03  0.25500000000E-02 0. -1.
         -2   -1    0    0    0  501 -0.00000000000E+00 -0.00000000000E+00 -0.23276458441E+04  0.23276458441E+04  0.25500000000E-02 0.  1.
    8880023    1    1    2    0    0 -0.43882851647E+02  0.68726535022E+03 -0.20826418241E+04  0.22902983518E+04  0.65864270000E+03 0.  0.
    8880022    1    1    2    0    0  0.43882851647E+02 -0.68726535022E+03  0.74008571704E+03  0.10224372293E+04  0.15294330000E+03 0.  0.
<mgrwt>
<rscale>  0 0.88391455E+03</rscale>
<asrwt>0</asrwt>
<pdfrwt beam="1">  1        2 0.15155227E+00 0.95292685E+03</pdfrwt>
<pdfrwt beam="2">  1       -2 0.35809936E+00 0.95292685E+03</pdfrwt>
<totfact> 0.36334327E-01</totfact>
</mgrwt>
</event>
<event>
 4    2  0.3388003E-007  0.8707012E+03  0.7818608E-02  0.9574804E-01
          2   -1    0    0  501    0  0.00000000000E+00  0.00000000000E+00  0.60034002624E+03  0.60034002624E+03  0.25500000000E-02 0. -1.
         -2   -1    0    0    0  501 -0.00000000000E+00 -0.00000000000E+00 -0.13705796598E+04  0.13705796598E+04  0.25500000000E-02 0.  1.
    8880023    1    1    2    0    0  0.47303031393E+03  0.31710040943E+03 -0.10107731386E+04  0.13340850391E+04  0.65864270000E+03 0.  1.
    8880022    1    1    2    0    0 -0.47303031393E+03 -0.31710040943E+03  0.24053350501E+03  0.63683464698E+03  0.15294330000E+03 0.  0.
<mgrwt>
<rscale>  0 0.78986478E+03</rscale>
<asrwt>0</asrwt>
<pdfrwt beam="1">  1        2 0.92360004E-01 0.87070119E+03</pdfrwt>
<pdfrwt beam="2">  1       -2 0.21085841E+00 0.87070119E+03</pdfrwt>
<totfact> 0.56476329E+00</totfact>
</mgrwt>
</event>
<event>
 4    2  0.3388003E-007  0.7080158E+03  0.7818608E-02  0.9965444E-01
         -2   -1    0    0    0  501 -0.00000000000E+00  0.00000000000E+00  0.44511843795E+03  0.44511843796E+03  0.25500000000E-02 0.  1.
          2   -1    0    0  501    0  0.00000000000E+00 -0.00000000000E+00 -0.74155565318E+03  0.74155565318E+03  0.25500000000E-02 0. -1.
    8880023    1    1    2    0    0  0.24531423738E+03 -0.85423257799E+02  0.70817818017E+02  0.71154871769E+03  0.65864270000E+03 0.  1.
    8880022    1    1    2    0    0 -0.24531423738E+03  0.85423257799E+02 -0.36725503324E+03  0.47512537345E+03  0.15294330000E+03 0. -1.
<mgrwt>
<rscale>  0 0.57191767E+03</rscale>
<asrwt>0</asrwt>
<pdfrwt beam="1">  1        2 0.11408549E+00 0.70801583E+03</pdfrwt>
<pdfrwt beam="2">  1       -2 0.68479760E-01 0.70801583E+03</pdfrwt>
<totfact> 0.75375006E+01</totfact>
</mgrwt>
</event>
<event>
 4    2  0.3388003E-007  0.7257965E+03  0.7818608E-02  0.9903439E-01
          2   -1    0    0  501    0  0.00000000000E+00  0.00000000000E+00  0.56318445191E+03  0.56318445191E+03  0.25500000000E-02 0. -1.
         -2   -1    0    0    0  501 -0.00000000000E+00 -0.00000000000E+00 -0.56343156380E+03  0.56343156380E+03  0.25500000000E-02 0.  1.
    8880023    1    1    2    0    0  0.29543430975E+03  0.75424913236E+02  0.16990119950E+03  0.74541731451E+03  0.65864270000E+03 0. -1.
    8880022    1    1    2    0    0 -0.29543430975E+03 -0.75424913236E+02 -0.17014831140E+03  0.38119870121E+03  0.15294330000E+03 0.  0.
<mgrwt>
<rscale>  0 0.60094891E+03</rscale>
<asrwt>0</asrwt>
<pdfrwt beam="1">  1        2 0.86643762E-01 0.72579650E+03</pdfrwt>
<pdfrwt beam="2">  1       -2 0.86681779E-01 0.72579650E+03</pdfrwt>
<totfact> 0.62496376E+01</totfact>
</mgrwt>
</event>
<event>
 4    2  0.3388003E-007  0.9174074E+03  0.7818608E-02  0.9498646E-01
         -2   -1    0    0    0  501 -0.00000000000E+00  0.00000000000E+00  0.58418822549E+03  0.58418822550E+03  0.25500000000E-02 0.  1.
          2   -1    0    0  501    0  0.00000000000E+00 -0.00000000000E+00 -0.22729473031E+04  0.22729473031E+04  0.25500000000E-02 0. -1.
    8880023    1    1    2    0    0 -0.33979062070E+03 -0.54071099654E+03  0.12711595712E+03  0.92617207932E+03  0.65864270000E+03 0.  1.
    8880022    1    1    2    0    0  0.33979062070E+03  0.54071099654E+03 -0.18158750348E+04  0.19309634493E+04  0.15294330000E+03 0.  0.
<mgrwt>
<rscale>  0 0.84383733E+03</rscale>
<asrwt>0</asrwt>
<pdfrwt beam="1">  1        2 0.34968420E+00 0.91740735E+03</pdfrwt>
<pdfrwt beam="2">  1       -2 0.89875113E-01 0.91740735E+03</pdfrwt>
<totfact> 0.50616245E+00</totfact>
</mgrwt>
</event>
<event>
 4    2  0.3388003E-007  0.6607415E+03  0.7818608E-02  0.1023409E+00
          2   -1    0    0  501    0  0.00000000000E+00  0.00000000000E+00  0.16657001047E+04  0.16657001047E+04  0.25500000000E-02 0. -1.
         -2   -1    0    0    0  501 -0.00000000000E+00 -0.00000000000E+00 -0.15682183481E+03  0.15682183483E+03  0.25500000000E-02 0.  1.
    8880023    1    1    2    0    0  0.10552372680E+02 -0.51553914894E+02  0.15230104252E+04  0.16601626788E+04  0.65864270000E+03 0. -1.
    8880022    1    1    2    0    0 -0.10552372680E+02  0.51553914894E+02 -0.14132155289E+02  0.16235926071E+03  0.15294330000E+03 0.  0.
<mgrwt>
<rscale>  0 0.46476146E+03</rscale>
<asrwt>0</asrwt>
<pdfrwt beam="1">  1        2 0.25626157E+00 0.66074153E+03</pdfrwt>
<pdfrwt beam="2">  1       -2 0.24126434E-01 0.66074153E+03</pdfrwt>
<totfact> 0.16079632E+02</totfact>
</mgrwt>
</event>
<event>
 4    2  0.3388003E-007  0.9401316E+03  0.7818608E-02  0.9464457E-01
         -2   -1    0    0    0  501 -0.00000000000E+00  0.00000000000E+00  0.43363642836E+03  0.43363642837E+03  0.25500000000E-02 0.  1.
          2   -1    0    0  501    0  0.00000000000E+00 -0.00000000000E+00 -0.24059840041E+04  0.24059840041E+04  0.25500000000E-02 0. -1.
    8880023    1    1    2    0    0  0.59431164328E+03  0.31117664588E+03 -0.23220399832E+03  0.96838325955E+03  0.65864270000E+03 0.  0.
    8880022    1    1    2    0    0 -0.59431164328E+03 -0.31117664588E+03 -0.17401435774E+04  0.18712371729E+04  0.15294330000E+03 0.  0.
<mgrwt>
<rscale>  0 0.86955756E+03</rscale>
<asrwt>0</asrwt>
<pdfrwt beam="1">  1        2 0.37015138E+00 0.94013161E+03</pdfrwt>
<pdfrwt beam="2">  1       -2 0.66713298E-01 0.94013161E+03</pdfrwt>
<totfact> 0.82815085E+00</totfact>
</mgrwt>
</event>
<event>
 4    2  0.4252770E-007  0.8423279E+03  0.7818608E-02  0.9625806E-01
          2   -1    0    0  501    0  0.00000000000E+00  0.00000000000E+00  0.17848594462E+04  0.17848594462E+04  0.25500000000E-02 0. -1.
         -2   -1    0    0    0  501 -0.00000000000E+00 -0.00000000000E+00 -0.10846696241E+04  0.10846696241E+04  0.25500000000E-02 0.  1.
    8880023    1    1    2    0    0 -0.41500069728E+03 -0.32168378588E+03 -0.86751270109E+03  0.12091710093E+04  0.65864270000E+03 0.  1.
    8880022    1    1    2    0    0  0.41500069728E+03  0.32168378588E+03  0.15677025231E+04  0.16603580610E+04  0.15294330000E+03 0.  0.
<mgrwt>
<rscale>  0 0.75611440E+03</rscale>
<asrwt>0</asrwt>
<pdfrwt beam="1">  1        2 0.27459376E+00 0.84232787E+03</pdfrwt>
<pdfrwt beam="2">  1       -2 0.16687225E+00 0.84232787E+03</pdfrwt>
<totfact> 0.20100468E+00</totfact>
</mgrwt>
</event>
<event>
 4    2  0.3388003E-007  0.6983750E+03  0.7818608E-02  0.1000401E+00
          2   -1    0    0  501    0  0.00000000000E+00  0.00000000000E+00  0.32548917734E+04  0.32548917734E+04  0.25500000000E-02 0. -1.
         -2   -1    0    0    0  501 -0.00000000000E+00 -0.00000000000E+00 -0.13291387068E+03  0.13291387071E+03  0.25500000000E-02 0.  1.
    8880023    1    1    2    0    0 -0.22447201328E+03 -0.59412108988E+02  0.85560136444E+03  0.11044371347E+04  0.65864270000E+03 0.  0.
    8880022    1    1    2    0    0  0.22447201328E+03  0.59412108988E+02  0.22663765382E+04  0.22833685094E+04  0.15294330000E+03 0.  0.
<mgrwt>
<rscale>  0 0.55474754E+03</rscale>
<asrwt>0</asrwt>
<pdfrwt beam="1">  1        2 0.50075253E+00 0.69837504E+03</pdfrwt>
<pdfrwt beam="2">  1       -2 0.20448290E-01 0.69837504E+03</pdfrwt>
<totfact> 0.26354518E+01</totfact>
</mgrwt>
</event>
<event>
 4    2  0.3388003E-007  0.6674142E+03  0.7818608E-02  0.1017589E+00
          2   -1    0    0  501    0  0.00000000000E+00  0.00000000000E+00  0.25437398177E+04  0.25437398177E+04  0.25500000000E-02 0. -1.
         -2   -1    0    0    0  501 -0.00000000000E+00 -0.00000000000E+00 -0.15525472764E+03  0.15525472766E+03  0.25500000000E-02 0.  1.
    8880023    1    1    2    0    0 -0.10667261811E+03  0.15889698524E+02  0.59003244576E+03  0.89083108572E+03  0.65864270000E+03 0.  1.
    8880022    1    1    2    0    0  0.10667261811E+03 -0.15889698524E+02  0.17984526443E+04  0.18081634596E+04  0.15294330000E+03 0.  0.
<mgrwt>
<rscale>  0 0.48566974E+03</rscale>
<asrwt>0</asrwt>
<pdfrwt beam="1">  1        2 0.39134453E+00 0.66741422E+03</pdfrwt>
<pdfrwt beam="2">  1       -2 0.23885346E-01 0.66741422E+03</pdfrwt>
<totfact> 0.53850244E+01</totfact>
</mgrwt>
</event>
<event>
 4    2  0.3388003E-007  0.6739525E+03  0.7818608E-02  0.1012975E+00
         -2   -1    0    0    0  501 -0.00000000000E+00  0.00000000000E+00  0.21189053593E+03  0.21189053595E+03  0.25500000000E-02 0.  1.
          2   -1    0    0  501    0  0.00000000000E+00 -0.00000000000E+00 -0.15140161783E+04  0.15140161783E+04  0.25500000000E-02 0. -1.
    8880023    1    1    2    0    0 -0.43045365343E+02 -0.13619397771E+03 -0.36649272812E+03  0.76715632636E+03  0.65864270000E+03 0.  1.
    8880022    1    1    2    0    0  0.43045365343E+02  0.13619397771E+03 -0.93563291427E+03  0.95875038791E+03  0.15294330000E+03 0.  0.
<mgrwt>
<rscale>  0 0.50309265E+03</rscale>
<asrwt>0</asrwt>
<pdfrwt beam="1">  1        2 0.23292556E+00 0.67395245E+03</pdfrwt>
<pdfrwt beam="2">  1       -2 0.32598545E-01 0.67395245E+03</pdfrwt>
<totfact> 0.11205857E+02</totfact>
</mgrwt>
</event>
<event>
 4    2  0.3388003E-007  0.8073276E+03  0.7818608E-02  0.9695171E-01
         -2   -1    0    0    0  501 -0.00000000000E+00  0.00000000000E+00  0.28052356564E+03  0.28052356565E+03  0.25500000000E-02 0.  1.
          2   -1    0    0  501    0  0.00000000000E+00 -0.00000000000E+00 -0.31871955431E+04  0.31871955431E+04  0.25500000000E-02 0. -1.
    8880023    1    1    2    0    0 -0.38943666335E+03  0.25750103430E+03 -0.37741466253E+03  0.89119006457E+03  0.65864270000E+03 0.  1.
    8880022    1    1    2    0    0  0.38943666335E+03 -0.25750103430E+03 -0.25292573149E+04  0.25765290442E+04  0.15294330000E+03 0.  0.
<mgrwt>
<rscale>  0 0.71305065E+03</rscale>
<asrwt>0</asrwt>
<pdfrwt beam="1">  1        2 0.49033775E+00 0.80732763E+03</pdfrwt>
<pdfrwt beam="2">  1       -2 0.43157474E-01 0.80732763E+03</pdfrwt>
<totfact> 0.71312051E+00</totfact>
</mgrwt>
</event>
<event>
 4    2  0.3388003E-007  0.6662452E+03  0.7818608E-02  0.1018511E+00
         -2   -1    0    0    0  501 -0.00000000000E+00  0.00000000000E+00  0.17423631171E+03  0.17423631173E+03  0.25500000000E-02 0.  1.
          2   -1    0    0  501    0  0.00000000000E+00 -0.00000000000E+00 -0.15531484386E+04  0.15531484386E+04  0.25500000000E-02 0. -1.
    8880023    1    1    2    0    0  0.85162028704E+02 -0.53102524674E+02 -0.50895364435E+03  0.83840113765E+03  0.65864270000E+03 0.  1.
    8880022    1    1    2    0    0 -0.85162028704E+02  0.53102524674E+02 -0.86995848258E+03  0.88898361272E+03  0.15294330000E+03 0.  0.
<mgrwt>
<rscale>  0 0.48227857E+03</rscale>
<asrwt>0</asrwt>
<pdfrwt beam="1">  1        2 0.23894590E+00 0.66624519E+03</pdfrwt>
<pdfrwt beam="2">  1       -2 0.26805587E-01 0.66624519E+03</pdfrwt>
<totfact> 0.15318929E+02</totfact>
</mgrwt>
</event>
<event>
 4    2  0.3388003E-007  0.8564405E+03  0.7818608E-02  0.9599927E-01
         -2   -1    0    0    0  501 -0.00000000000E+00  0.00000000000E+00  0.27096467437E+04  0.27096467437E+04  0.25500000000E-02 0.  1.
          2   -1    0    0  501    0  0.00000000000E+00 -0.00000000000E+00 -0.41453060979E+03  0.41453060980E+03  0.25500000000E-02 0. -1.
    8880023    1    1    2    0    0  0.51182914288E+03 -0.19419341276E+03  0.23981765321E+04  0.25465154699E+04  0.65864270000E+03 0.  1.
    8880022    1    1    2    0    0 -0.51182914288E+03  0.19419341276E+03 -0.10306039821E+03  0.57766188359E+03  0.15294330000E+03 0.  0.
<mgrwt>
<rscale>  0 0.77301031E+03</rscale>
<asrwt>0</asrwt>
<pdfrwt beam="1">  1        2 0.63773938E-01 0.85644052E+03</pdfrwt>
<pdfrwt beam="2">  1       -2 0.41686874E+00 0.85644052E+03</pdfrwt>
<totfact> 0.45887313E-01</totfact>
</mgrwt>
</event>
<event>
 4    2  0.3388003E-007  0.6934044E+03  0.7818608E-02  0.1002575E+00
          2   -1    0    0  501    0  0.00000000000E+00  0.00000000000E+00  0.34791738355E+04  0.34791738355E+04  0.25500000000E-02 0. -1.
         -2   -1    0    0    0  501 -0.00000000000E+00 -0.00000000000E+00 -0.67002614404E+02  0.67002614452E+02  0.25500000000E-02 0.  1.
    8880023    1    1    2    0    0 -0.77938189998E+02  0.20229953649E+03  0.26469392400E+04  0.27362560206E+04  0.65864270000E+03 0.  0.
    8880022    1    1    2    0    0  0.77938189998E+02 -0.20229953649E+03  0.76523198108E+03  0.80992042931E+03  0.15294330000E+03 0. -1.
<mgrwt>
<rscale>  0 0.54535548E+03</rscale>
<asrwt>0</asrwt>
<pdfrwt beam="1">  1        2 0.53525756E+00 0.69340441E+03</pdfrwt>
<pdfrwt beam="2">  1       -2 0.10308094E-01 0.69340441E+03</pdfrwt>
<totfact> 0.59554644E+01</totfact>
</mgrwt>
</event>
<event>
 4    2  0.3388003E-007  0.9059693E+03  0.7818608E-02  0.9516516E-01
         -2   -1    0    0    0  501 -0.00000000000E+00  0.00000000000E+00  0.31652607089E+03  0.31652607090E+03  0.25500000000E-02 0.  1.
          2   -1    0    0  501    0  0.00000000000E+00 -0.00000000000E+00 -0.35044845525E+04  0.35044845525E+04  0.25500000000E-02 0. -1.
    8880023    1    1    2    0    0  0.61698560019E+02  0.61900197287E+03 -0.45467212343E+03  0.10136602492E+04  0.65864270000E+03 0.  0.
    8880022    1    1    2    0    0 -0.61698560019E+02 -0.61900197287E+03 -0.27332863582E+04  0.28073503743E+04  0.15294330000E+03 0.  0.
<mgrwt>
<rscale>  0 0.83077033E+03</rscale>
<asrwt>0</asrwt>
<pdfrwt beam="1">  1        2 0.53915144E+00 0.90596929E+03</pdfrwt>
<pdfrwt beam="2">  1       -2 0.48696321E-01 0.90596929E+03</pdfrwt>
<totfact> 0.33960117E+00</totfact>
</mgrwt>
</event>
<event>
 4    2  0.3388003E-007  0.6833139E+03  0.7818608E-02  0.1007508E+00
          2   -1    0    0  501    0  0.00000000000E+00  0.00000000000E+00  0.23482190970E+03  0.23482190972E+03  0.25500000000E-02 0. -1.
         -2   -1    0    0    0  501 -0.00000000000E+00 -0.00000000000E+00 -0.12711633499E+04  0.12711633499E+04  0.25500000000E-02 0.  1.
    8880023    1    1    2    0    0 -0.14274415137E+03  0.11283509724E+03 -0.10662501908E+04  0.12664151482E+04  0.65864270000E+03 0.  1.
    8880022    1    1    2    0    0  0.14274415137E+03 -0.11283509724E+03  0.29908750589E+02  0.23957011144E+03  0.15294330000E+03 0. -1.
<mgrwt>
<rscale>  0 0.52477190E+03</rscale>
<asrwt>0</asrwt>
<pdfrwt beam="1">  1        2 0.36126449E-01 0.68331388E+03</pdfrwt>
<pdfrwt beam="2">  1       -2 0.19556359E+00 0.68331388E+03</pdfrwt>
<totfact> 0.20985101E+01</totfact>
</mgrwt>
</event>
<event>
 4    2  0.3388003E-007  0.7464394E+03  0.7818608E-02  0.9841571E-01
         -2   -1    0    0    0  501 -0.00000000000E+00  0.00000000000E+00  0.98021844389E+03  0.98021844389E+03  0.25500000000E-02 0.  1.
          2   -1    0    0  501    0  0.00000000000E+00 -0.00000000000E+00 -0.80363468069E+03  0.80363468069E+03  0.25500000000E-02 0. -1.
    8880023    1    1    2    0    0  0.25648452079E+03  0.23995274069E+03  0.77327867260E+03  0.10747705518E+04  0.65864270000E+03 0.  1.
    8880022    1    1    2    0    0 -0.25648452079E+03 -0.23995274069E+03 -0.59669490939E+03  0.70908257282E+03  0.15294330000E+03 0.  0.
<mgrwt>
<rscale>  0 0.63178514E+03</rscale>
<asrwt>0</asrwt>
<pdfrwt beam="1">  1        2 0.12363610E+00 0.74643944E+03</pdfrwt>
<pdfrwt beam="2">  1       -2 0.15080284E+00 0.74643944E+03</pdfrwt>
<totfact> 0.10282741E+01</totfact>
</mgrwt>
</event>
<event>
 4    2  0.3388003E-007  0.7774688E+03  0.7818608E-02  0.9761817E-01
         -2   -1    0    0    0  501 -0.00000000000E+00  0.00000000000E+00  0.55866154382E+03  0.55866154383E+03  0.25500000000E-02 0.  1.
          2   -1    0    0  501    0  0.00000000000E+00 -0.00000000000E+00 -0.95635858331E+03  0.95635858331E+03  0.25500000000E-02 0. -1.
    8880023    1    1    2    0    0 -0.24219681627E+01  0.41308790987E+03  0.17062630650E+03  0.79597175198E+03  0.65864270000E+03 0.  1.
    8880022    1    1    2    0    0  0.24219681627E+01 -0.41308790987E+03 -0.56832334598E+03  0.71904837516E+03  0.15294330000E+03 0.  0.
<mgrwt>
<rscale>  0 0.67452552E+03</rscale>
<asrwt>0</asrwt>
<pdfrwt beam="1">  1        2 0.14713209E+00 0.77746877E+03</pdfrwt>
<pdfrwt beam="2">  1       -2 0.85947930E-01 0.77746877E+03</pdfrwt>
<totfact> 0.32001211E+01</totfact>
</mgrwt>
</event>
<event>
 4    2  0.3388003E-007  0.8425528E+03  0.7818608E-02  0.9625385E-01
         -2   -1    0    0    0  501 -0.00000000000E+00  0.00000000000E+00  0.66972212147E+03  0.66972212148E+03  0.25500000000E-02 0.  1.
          2   -1    0    0  501    0  0.00000000000E+00 -0.00000000000E+00 -0.12924304406E+04  0.12924304406E+04  0.25500000000E-02 0. -1.
    8880023    1    1    2    0    0 -0.39510814154E+03  0.34637338765E+03  0.29580798331E+03  0.89297118455E+03  0.65864270000E+03 0.  1.
    8880022    1    1    2    0    0  0.39510814154E+03 -0.34637338765E+03 -0.91851630240E+03  0.10691813775E+04  0.15294330000E+03 0.  0.
<mgrwt>
<rscale>  0 0.75638551E+03</rscale>
<asrwt>0</asrwt>
<pdfrwt beam="1">  1        2 0.19883545E+00 0.84255277E+03</pdfrwt>
<pdfrwt beam="2">  1       -2 0.10303417E+00 0.84255277E+03</pdfrwt>
<totfact> 0.12973611E+01</totfact>
</mgrwt>
</event>
<event>
 4    2  0.3388003E-007  0.8577871E+03  0.7818608E-02  0.9597512E-01
          2   -1    0    0  501    0  0.00000000000E+00  0.00000000000E+00  0.94496411850E+03  0.94496411851E+03  0.25500000000E-02 0. -1.
         -2   -1    0    0    0  501 -0.00000000000E+00 -0.00000000000E+00 -0.12733415551E+04  0.12733415551E+04  0.25500000000E-02 0.  1.
    8880023    1    1    2    0    0 -0.50264853249E+03 -0.22211019651E+03 -0.10128681575E+04  0.13272906981E+04  0.65864270000E+03 0.  1.
    8880022    1    1    2    0    0  0.50264853249E+03  0.22211019651E+03  0.68449072087E+03  0.89101497551E+03  0.15294330000E+03 0.  0.
<mgrwt>
<rscale>  0 0.77461073E+03</rscale>
<asrwt>0</asrwt>
<pdfrwt beam="1">  1        2 0.14537910E+00 0.85778709E+03</pdfrwt>
<pdfrwt beam="2">  1       -2 0.19589870E+00 0.85778709E+03</pdfrwt>
<totfact> 0.39050290E+00</totfact>
</mgrwt>
</event>
<event>
 4    2  0.3388003E-007  0.7221233E+03  0.7818608E-02  0.9915466E-01
          2   -1    0    0  501    0  0.00000000000E+00  0.00000000000E+00  0.10476244693E+04  0.10476244693E+04  0.25500000000E-02 0. -1.
         -2   -1    0    0    0  501 -0.00000000000E+00 -0.00000000000E+00 -0.64303858289E+03  0.64303858289E+03  0.25500000000E-02 0.  1.
    8880023    1    1    2    0    0  0.29253237798E+03  0.45569854708E+02 -0.39594173310E+03  0.82354833865E+03  0.65864270000E+03 0.  1.
    8880022    1    1    2    0    0 -0.29253237798E+03 -0.45569854708E+02  0.80052761951E+03  0.86711471354E+03  0.15294330000E+03 0.  0.
<mgrwt>
<rscale>  0 0.59517561E+03</rscale>
<asrwt>0</asrwt>
<pdfrwt beam="1">  1        2 0.16117299E+00 0.72212327E+03</pdfrwt>
<pdfrwt beam="2">  1       -2 0.98929013E-01 0.72212327E+03</pdfrwt>
<totfact> 0.20303540E+01</totfact>
</mgrwt>
</event>
<event>
 4    2  0.3388003E-007  0.1014937E+04  0.7818608E-02  0.9362272E-01
         -2   -1    0    0    0  501 -0.00000000000E+00  0.00000000000E+00  0.17255289926E+04  0.17255289926E+04  0.25500000000E-02 0.  1.
          2   -1    0    0  501    0  0.00000000000E+00 -0.00000000000E+00 -0.11656122959E+04  0.11656122959E+04  0.25500000000E-02 0. -1.
    8880023    1    1    2    0    0  0.70085810557E+02 -0.76900855634E+03  0.14069311841E+04  0.17348059671E+04  0.65864270000E+03 0.  0.
    8880022    1    1    2    0    0 -0.70085810557E+02  0.76900855634E+03 -0.84701448742E+03  0.11563353214E+04  0.15294330000E+03 0.  0.
<mgrwt>
<rscale>  0 0.95246701E+03</rscale>
<asrwt>0</asrwt>
<pdfrwt beam="1">  1        2 0.17932497E+00 0.10149366E+04</pdfrwt>
<pdfrwt beam="2">  1       -2 0.26546600E+00 0.10149366E+04</pdfrwt>
<totfact> 0.10229236E+00</totfact>
</mgrwt>
</event>
<event>
 4    2  0.5954575E-007  0.8808951E+03  0.7818608E-02  0.9557425E-01
          2   -1    0    0  501    0  0.00000000000E+00  0.00000000000E+00  0.15250091521E+04  0.15250091521E+04  0.25500000000E-02 0. -1.
         -2   -1    0    0    0  501 -0.00000000000E+00 -0.00000000000E+00 -0.18467505313E+04  0.18467505313E+04  0.25500000000E-02 0.  1.
    8880023    1    1    2    0    0 -0.40322503835E+03  0.42376348421E+03 -0.16733674380E+04  0.18910670826E+04  0.65864270000E+03 0.  0.
    8880022    1    1    2    0    0  0.40322503835E+03 -0.42376348421E+03  0.13516260589E+04  0.14806926008E+04  0.15294330000E+03 0.  0.
<mgrwt>
<rscale>  0 0.80179364E+03</rscale>
<asrwt>0</asrwt>
<pdfrwt beam="1">  1        2 0.23461679E+00 0.88089507E+03</pdfrwt>
<pdfrwt beam="2">  1       -2 0.28411547E+00 0.88089507E+03</pdfrwt>
<totfact> 0.50005463E-01</totfact>
</mgrwt>
</event>
<event>
 4    2  0.3388003E-007  0.7074788E+03  0.7818608E-02  0.9967485E-01
         -2   -1    0    0    0  501 -0.00000000000E+00  0.00000000000E+00  0.35092264167E+03  0.35092264168E+03  0.25500000000E-02 0.  1.
          2   -1    0    0  501    0  0.00000000000E+00 -0.00000000000E+00 -0.23892316903E+04  0.23892316903E+04  0.25500000000E-02 0. -1.
    8880023    1    1    2    0    0  0.25404663295E+03  0.46651997573E+02 -0.28500758423E+02  0.70805268171E+03  0.65864270000E+03 0.  1.
    8880022    1    1    2    0    0 -0.25404663295E+03 -0.46651997573E+02 -0.20098082903E+04  0.20321016503E+04  0.15294330000E+03 0.  0.
<mgrwt>
<rscale>  0 0.57099244E+03</rscale>
<asrwt>0</asrwt>
<pdfrwt beam="1">  1        2 0.36757410E+00 0.70747884E+03</pdfrwt>
<pdfrwt beam="2">  1       -2 0.53988100E-01 0.70747884E+03</pdfrwt>
<totfact> 0.13704580E+01</totfact>
</mgrwt>
</event>
<event>
 4    2  0.3388003E-007  0.7513844E+03  0.7818608E-02  0.9827946E-01
         -2   -1    0    0    0  501 -0.00000000000E+00  0.00000000000E+00  0.40807676449E+03  0.40807676450E+03  0.25500000000E-02 0.  1.
          2   -1    0    0  501    0  0.00000000000E+00 -0.00000000000E+00 -0.12583371780E+04  0.12583371780E+04  0.25500000000E-02 0. -1.
    8880023    1    1    2    0    0  0.33179456682E+03  0.14380783027E+03 -0.24180915683E+02  0.75177340307E+03  0.65864270000E+03 0.  1.
    8880022    1    1    2    0    0 -0.33179456682E+03 -0.14380783027E+03 -0.82607949785E+03  0.91464053945E+03  0.15294330000E+03 0.  0.
<mgrwt>
<rscale>  0 0.63884146E+03</rscale>
<asrwt>0</asrwt>
<pdfrwt beam="1">  1        2 0.19359033E+00 0.75138441E+03</pdfrwt>
<pdfrwt beam="2">  1       -2 0.62781041E-01 0.75138441E+03</pdfrwt>
<totfact> 0.41903560E+01</totfact>
</mgrwt>
</event>
<event>
 4    2  0.3531423E-007  0.1018471E+04  0.7818608E-02  0.9357781E-01
         -2   -1    0    0    0  501 -0.00000000000E+00  0.00000000000E+00  0.10963892663E+04  0.10963892663E+04  0.25500000000E-02 0.  1.
          2   -1    0    0  501    0  0.00000000000E+00 -0.00000000000E+00 -0.25349543776E+04  0.25349543776E+04  0.25500000000E-02 0. -1.
    8880023    1    1    2    0    0  0.49747662501E+02 -0.77524111755E+03  0.77541006042E+03  0.12800564786E+04  0.65864270000E+03 0.  1.
    8880022    1    1    2    0    0 -0.49747662501E+02  0.77524111755E+03 -0.22139751717E+04  0.23512871654E+04  0.15294330000E+03 0.  0.
<mgrwt>
<rscale>  0 0.95633132E+03</rscale>
<asrwt>0</asrwt>
<pdfrwt beam="1">  1        2 0.38999298E+00 0.10184713E+04</pdfrwt>
<pdfrwt beam="2">  1       -2 0.16867527E+00 0.10184713E+04</pdfrwt>
<totfact> 0.72600903E-01</totfact>
</mgrwt>
</event>
<event>
 4    2  0.3388003E-007  0.7598801E+03  0.7818608E-02  0.9805418E-01
          2   -1    0    0  501    0  0.00000000000E+00  0.00000000000E+00  0.19645986202E+04  0.19645986202E+04  0.25500000000E-02 0. -1.
         -2   -1    0    0    0  501 -0.00000000000E+00 -0.00000000000E+00 -0.17594709639E+03  0.17594709641E+03  0.25500000000E-02 0.  1.
    8880023    1    1    2    0    0  0.34977847811E+03  0.14581683119E+03  0.12736683827E+04  0.14831213326E+04  0.65864270000E+03 0.  0.
    8880022    1    1    2    0    0 -0.34977847811E+03 -0.14581683119E+03  0.51498314118E+03  0.65742438404E+03  0.15294330000E+03 0.  0.
<mgrwt>
<rscale>  0 0.65072590E+03</rscale>
<asrwt>0</asrwt>
<pdfrwt beam="1">  1        2 0.30224594E+00 0.75988008E+03</pdfrwt>
<pdfrwt beam="2">  1       -2 0.27068784E-01 0.75988008E+03</pdfrwt>
<totfact> 0.88860925E+01</totfact>
</mgrwt>
</event>
<event>
 4    2  0.3388003E-007  0.7009314E+03  0.7818608E-02  0.9993359E-01
         -2   -1    0    0    0  501 -0.00000000000E+00  0.00000000000E+00  0.11030330520E+03  0.11030330523E+03  0.25500000000E-02 0.  1.
          2   -1    0    0  501    0  0.00000000000E+00 -0.00000000000E+00 -0.22245982145E+04  0.22245982145E+04  0.25500000000E-02 0. -1.
    8880023    1    1    2    0    0 -0.46216158487E+02  0.23528419602E+03 -0.16094450776E+04  0.17554538588E+04  0.65864270000E+03 0.  0.
    8880022    1    1    2    0    0  0.46216158487E+02 -0.23528419602E+03 -0.50484983165E+03  0.57944766091E+03  0.15294330000E+03 0.  0.
<mgrwt>
<rscale>  0 0.55942382E+03</rscale>
<asrwt>0</asrwt>
<pdfrwt beam="1">  1        2 0.34224584E+00 0.70093138E+03</pdfrwt>
<pdfrwt beam="2">  1       -2 0.16969741E-01 0.70093138E+03</pdfrwt>
<totfact> 0.14700098E+02</totfact>
</mgrwt>
</event>
<event>
 4    2  0.3388003E-007  0.6716966E+03  0.7818608E-02  0.1014475E+00
          2   -1    0    0  501    0  0.00000000000E+00  0.00000000000E+00  0.25699420821E+04  0.25699420821E+04  0.25500000000E-02 0. -1.
         -2   -1    0    0    0  501 -0.00000000000E+00 -0.00000000000E+00 -0.27296791880E+03  0.27296791881E+03  0.25500000000E-02 0.  1.
    8880023    1    1    2    0    0 -0.92407019037E+01  0.13145601387E+03  0.15228923216E+03  0.68874399500E+03  0.65864270000E+03 0.  1.
    8880022    1    1    2    0    0  0.92407019037E+01 -0.13145601387E+03  0.21446849311E+04  0.21541660059E+04  0.15294330000E+03 0.  0.
<mgrwt>
<rscale>  0 0.49734309E+03</rscale>
<asrwt>0</asrwt>
<pdfrwt beam="1">  1        2 0.39537571E+00 0.67169657E+03</pdfrwt>
<pdfrwt beam="2">  1       -2 0.41995064E-01 0.67169657E+03</pdfrwt>
<totfact> 0.18084253E+01</totfact>
</mgrwt>
</event>
<event>
 4    2  0.3388003E-007  0.8483927E+03  0.7818608E-02  0.9614554E-01
          2   -1    0    0  501    0  0.00000000000E+00  0.00000000000E+00  0.28904916338E+04  0.28904916338E+04  0.25500000000E-02 0. -1.
         -2   -1    0    0    0  501 -0.00000000000E+00 -0.00000000000E+00 -0.24551530839E+03  0.24551530841E+03  0.25500000000E-02 0.  1.
    8880023    1    1    2    0    0  0.37079925347E+03 -0.38531524928E+03  0.66086576458E+03  0.10754132660E+04  0.65864270000E+03 0.  1.
    8880022    1    1    2    0    0 -0.37079925347E+03  0.38531524928E+03  0.19841105608E+04  0.20605936762E+04  0.15294330000E+03 0. -1.
<mgrwt>
<rscale>  0 0.76340364E+03</rscale>
<asrwt>0</asrwt>
<pdfrwt beam="1">  1        2 0.44469101E+00 0.84839268E+03</pdfrwt>
<pdfrwt beam="2">  1       -2 0.37771587E-01 0.84839268E+03</pdfrwt>
<totfact> 0.14027962E+01</totfact>
</mgrwt>
</event>
<event>
 4    2  0.3388003E-007  0.6749697E+03  0.7818608E-02  0.1012325E+00
         -2   -1    0    0    0  501 -0.00000000000E+00  0.00000000000E+00  0.71713800469E+03  0.71713800470E+03  0.25500000000E-02 0.  1.
          2   -1    0    0  501    0  0.00000000000E+00 -0.00000000000E+00 -0.37986714600E+03  0.37986714601E+03  0.25500000000E-02 0. -1.
    8880023    1    1    2    0    0  0.13552797836E+03  0.58361578411E+02  0.49103946926E+03  0.83468788981E+03  0.65864270000E+03 0.  1.
    8880022    1    1    2    0    0 -0.13552797836E+03 -0.58361578411E+02 -0.15376861057E+03  0.26231726090E+03  0.15294330000E+03 0.  0.
<mgrwt>
<rscale>  0 0.50560823E+03</rscale>
<asrwt>0</asrwt>
<pdfrwt beam="1">  1        2 0.58441100E-01 0.67496971E+03</pdfrwt>
<pdfrwt beam="2">  1       -2 0.11032892E+00 0.67496971E+03</pdfrwt>
<totfact> 0.55842748E+01</totfact>
</mgrwt>
</event>
<event>
 4    2  0.3388003E-007  0.9044351E+03  0.7818608E-02  0.9518949E-01
         -2   -1    0    0    0  501 -0.00000000000E+00  0.00000000000E+00  0.75209977280E+03  0.75209977280E+03  0.25500000000E-02 0.  1.
          2   -1    0    0  501    0  0.00000000000E+00 -0.00000000000E+00 -0.17616832606E+04  0.17616832606E+04  0.25500000000E-02 0. -1.
    8880023    1    1    2    0    0 -0.22381621787E+03 -0.57801292121E+03  0.38272669574E+03  0.98208073312E+03  0.65864270000E+03 0.  0.
    8880022    1    1    2    0    0  0.22381621787E+03  0.57801292121E+03 -0.13923101835E+04  0.15317023003E+04  0.15294330000E+03 0.  0.
<mgrwt>
<rscale>  0 0.82901089E+03</rscale>
<asrwt>0</asrwt>
<pdfrwt beam="1">  1        2 0.27102819E+00 0.90443510E+03</pdfrwt>
<pdfrwt beam="2">  1       -2 0.11570766E+00 0.90443510E+03</pdfrwt>
<totfact> 0.53071731E+00</totfact>
</mgrwt>
</event>
<event>
 4    2  0.3388003E-007  0.7456273E+03  0.7818608E-02  0.9843848E-01
         -2   -1    0    0    0  501 -0.00000000000E+00  0.00000000000E+00  0.46715064160E+03  0.46715064161E+03  0.25500000000E-02 0.  1.
          2   -1    0    0  501    0  0.00000000000E+00 -0.00000000000E+00 -0.86407859255E+03  0.86407859255E+03  0.25500000000E-02 0. -1.
    8880023    1    1    2    0    0 -0.74063665449E+02  0.34156181600E+03  0.45524108817E+02  0.74701576385E+03  0.65864270000E+03 0.  1.
    8880022    1    1    2    0    0  0.74063665449E+02 -0.34156181600E+03 -0.44245205976E+03  0.58421347031E+03  0.15294330000E+03 0.  0.
<mgrwt>
<rscale>  0 0.63061564E+03</rscale>
<asrwt>0</asrwt>
<pdfrwt beam="1">  1        2 0.13293517E+00 0.74562732E+03</pdfrwt>
<pdfrwt beam="2">  1       -2 0.71869330E-01 0.74562732E+03</pdfrwt>
<totfact> 0.55229056E+01</totfact>
</mgrwt>
</event>
<event>
 4    2  0.3388003E-007  0.8788111E+03  0.7818608E-02  0.9560940E-01
          2   -1    0    0  501    0  0.00000000000E+00  0.00000000000E+00  0.11221832511E+04  0.11221832511E+04  0.25500000000E-02 0. -1.
         -2   -1    0    0    0  501 -0.00000000000E+00 -0.00000000000E+00 -0.60638143207E+03  0.60638143207E+03  0.25500000000E-02 0.  1.
    8880023    1    1    2    0    0  0.48585781949E+03 -0.32006383069E+03 -0.79291972232E+02  0.88238092659E+03  0.65864270000E+03 0.  1.
    8880022    1    1    2    0    0 -0.48585781949E+03  0.32006383069E+03  0.59509379123E+03  0.84618375655E+03  0.15294330000E+03 0.  0.
<mgrwt>
<rscale>  0 0.79936248E+03</rscale>
<asrwt>0</asrwt>
<pdfrwt beam="1">  1        2 0.17264358E+00 0.87881106E+03</pdfrwt>
<pdfrwt beam="2">  1       -2 0.93289451E-01 0.87881106E+03</pdfrwt>
<totfact> 0.20631268E+01</totfact>
</mgrwt>
</event>
<event>
 4    2  0.3388003E-007  0.7412737E+03  0.7818608E-02  0.9856252E-01
          2   -1    0    0  501    0  0.00000000000E+00  0.00000000000E+00  0.11794625421E+04  0.11794625421E+04  0.25500000000E-02 0. -1.
         -2   -1    0    0    0  501 -0.00000000000E+00 -0.00000000000E+00 -0.29525739368E+03  0.29525739369E+03  0.25500000000E-02 0.  1.
    8880023    1    1    2    0    0  0.34000719436E+03  0.84654770961E+01  0.80342857029E+03  0.10931533426E+04  0.65864270000E+03 0. -1.
    8880022    1    1    2    0    0 -0.34000719436E+03 -0.84654770961E+01  0.80776578175E+02  0.38156659329E+03  0.15294330000E+03 0.  0.
<mgrwt>
<rscale>  0 0.62429153E+03</rscale>
<asrwt>0</asrwt>
<pdfrwt beam="1">  1        2 0.18145577E+00 0.74127374E+03</pdfrwt>
<pdfrwt beam="2">  1       -2 0.45424215E-01 0.74127374E+03</pdfrwt>
<totfact> 0.91000339E+01</totfact>
</mgrwt>
</event>
<event>
 4    2  0.3388003E-007  0.6786620E+03  0.7818608E-02  0.1010091E+00
          2   -1    0    0  501    0  0.00000000000E+00  0.00000000000E+00  0.20924228052E+04  0.20924228052E+04  0.25500000000E-02 0. -1.
         -2   -1    0    0    0  501 -0.00000000000E+00 -0.00000000000E+00 -0.21117051068E+03  0.21117051070E+03  0.25500000000E-02 0.  1.
    8880023    1    1    2    0    0 -0.81032747401E+02 -0.14214650298E+03  0.36441947545E+03  0.77031402351E+03  0.65864270000E+03 0.  1.
    8880022    1    1    2    0    0  0.81032747401E+02  0.14214650298E+03  0.15168328191E+04  0.15332792924E+04  0.15294330000E+03 0.  0.
<mgrwt>
<rscale>  0 0.51438552E+03</rscale>
<asrwt>0</asrwt>
<pdfrwt beam="1">  1        2 0.32191122E+00 0.67866202E+03</pdfrwt>
<pdfrwt beam="2">  1       -2 0.32487769E-01 0.67866202E+03</pdfrwt>
<totfact> 0.54501011E+01</totfact>
</mgrwt>
</event>
<event>
 4    2  0.3388003E-007  0.7094251E+03  0.7818608E-02  0.9960142E-01
          2   -1    0    0  501    0  0.00000000000E+00  0.00000000000E+00  0.15998799646E+04  0.15998799646E+04  0.25500000000E-02 0. -1.
         -2   -1    0    0    0  501 -0.00000000000E+00 -0.00000000000E+00 -0.10888944252E+04  0.10888944252E+04  0.25500000000E-02 0.  1.
    8880023    1    1    2    0    0 -0.26308637692E+03  0.16101735657E+02  0.14970816117E+04  0.16566645001E+04  0.65864270000E+03 0. -1.
    8880022    1    1    2    0    0  0.26308637692E+03 -0.16101735657E+02 -0.98609607232E+03  0.10321098897E+04  0.15294330000E+03 0.  0.
<mgrwt>
<rscale>  0 0.57433015E+03</rscale>
<asrwt>0</asrwt>
<pdfrwt beam="1">  1        2 0.24613538E+00 0.70942506E+03</pdfrwt>
<pdfrwt beam="2">  1       -2 0.16752222E+00 0.70942506E+03</pdfrwt>
<totfact> 0.25690516E+00</totfact>
</mgrwt>
</event>
<event>
 4    2  0.3388003E-007  0.7972754E+03  0.7818608E-02  0.9716718E-01
          2   -1    0    0  501    0  0.00000000000E+00  0.00000000000E+00  0.44547085584E+03  0.44547085585E+03  0.25500000000E-02 0. -1.
         -2   -1    0    0    0  501 -0.00000000000E+00 -0.00000000000E+00 -0.13650449735E+04  0.13650449735E+04  0.25500000000E-02 0.  1.
    8880023    1    1    2    0    0  0.42333183577E+03 -0.15042607613E+03 -0.10499511496E+04  0.13183495251E+04  0.65864270000E+03 0.  0.
    8880022    1    1    2    0    0 -0.42333183577E+03  0.15042607613E+03  0.13037703195E+03  0.49216630424E+03  0.15294330000E+03 0.  0.
<mgrwt>
<rscale>  0 0.70030049E+03</rscale>
<asrwt>0</asrwt>
<pdfrwt beam="1">  1        2 0.68533978E-01 0.79727539E+03</pdfrwt>
<pdfrwt beam="2">  1       -2 0.21000692E+00 0.79727539E+03</pdfrwt>
<totfact> 0.81805815E+00</totfact>
</mgrwt>
</event>
<event>
 4    2  0.3388003E-007  0.1143757E+04  0.7818608E-02  0.9213833E-01
         -2   -1    0    0    0  501 -0.00000000000E+00  0.00000000000E+00  0.67326472055E+03  0.67326472056E+03  0.25500000000E-02 0.  1.
          2   -1    0    0  501    0  0.00000000000E+00 -0.00000000000E+00 -0.33209356804E+04  0.33209356804E+04  0.25500000000E-02 0. -1.
    8880023    1    1    2    0    0 -0.76074345881E+03 -0.54372756684E+03  0.39946841121E+02  0.11444545572E+04  0.65864270000E+03 0.  0.
    8880022    1    1    2    0    0  0.76074345881E+03  0.54372756684E+03 -0.26876178010E+04  0.28497458438E+04  0.15294330000E+03 0.  0.
<mgrwt>
<rscale>  0 0.10911778E+04</rscale>
<asrwt>0</asrwt>
<pdfrwt beam="1">  1        2 0.51091317E+00 0.11437572E+04</pdfrwt>
<pdfrwt beam="2">  1       -2 0.10357919E+00 0.11437572E+04</pdfrwt>
<totfact> 0.82269192E-01</totfact>
</mgrwt>
</event>
<event>
 4    2  0.3388003E-007  0.7014413E+03  0.7818608E-02  0.9991274E-01
         -2   -1    0    0    0  501 -0.00000000000E+00  0.00000000000E+00  0.48692092734E+03  0.48692092735E+03  0.25500000000E-02 0.  1.
          2   -1    0    0  501    0  0.00000000000E+00 -0.00000000000E+00 -0.27374374546E+04  0.27374374546E+04  0.25500000000E-02 0. -1.
    8880023    1    1    2    0    0 -0.24014655439E+03  0.23222444667E+02  0.22173847828E+03  0.73565468022E+03  0.65864270000E+03 0.  1.
    8880022    1    1    2    0    0  0.24014655439E+03 -0.23222444667E+02 -0.24722550055E+04  0.24887037017E+04  0.15294330000E+03 0.  0.
<mgrwt>
<rscale>  0 0.56034516E+03</rscale>
<asrwt>0</asrwt>
<pdfrwt beam="1">  1        2 0.42114422E+00 0.70144127E+03</pdfrwt>
<pdfrwt beam="2">  1       -2 0.74910913E-01 0.70144127E+03</pdfrwt>
<totfact> 0.43110525E+00</totfact>
</mgrwt>
</event>
<event>
 4    2  0.3388003E-007  0.7004625E+03  0.7818608E-02  0.9995288E-01
         -2   -1    0    0    0  501 -0.00000000000E+00  0.00000000000E+00  0.66696800773E+03  0.66696800774E+03  0.25500000000E-02 0.  1.
          2   -1    0    0  501    0  0.00000000000E+00 -0.00000000000E+00 -0.13111294569E+04  0.13111294569E+04  0.25500000000E-02 0. -1.
    8880023    1    1    2    0    0 -0.35770752106E+02 -0.23570724812E+03  0.46012012039E+03  0.83806812669E+03  0.65864270000E+03 0.  1.
    8880022    1    1    2    0    0  0.35770752106E+02  0.23570724812E+03 -0.11042815696E+04  0.11400293380E+04  0.15294330000E+03 0.  0.
<mgrwt>
<rscale>  0 0.55857326E+03</rscale>
<asrwt>0</asrwt>
<pdfrwt beam="1">  1        2 0.20171222E+00 0.70046246E+03</pdfrwt>
<pdfrwt beam="2">  1       -2 0.10261046E+00 0.70046246E+03</pdfrwt>
<totfact> 0.13001720E+01</totfact>
</mgrwt>
</event>
<event>
 4    2  0.3388003E-007  0.9572500E+03  0.7818608E-02  0.9439759E-01
         -2   -1    0    0    0  501 -0.00000000000E+00  0.00000000000E+00  0.36839771978E+03  0.36839771979E+03  0.25500000000E-02 0.  1.
          2   -1    0    0  501    0  0.00000000000E+00 -0.00000000000E+00 -0.19971402666E+04  0.19971402666E+04  0.25500000000E-02 0. -1.
    8880023    1    1    2    0    0 -0.63926079852E+03 -0.27177746997E+03 -0.65586305908E+03  0.11603809375E+04  0.65864270000E+03 0.  0.
    8880022    1    1    2    0    0  0.63926079852E+03  0.27177746997E+03 -0.97287948775E+03  0.12051570489E+04  0.15294330000E+03 0.  1.
<mgrwt>
<rscale>  0 0.88874687E+03</rscale>
<asrwt>0</asrwt>
<pdfrwt beam="1">  1        2 0.30725234E+00 0.95725000E+03</pdfrwt>
<pdfrwt beam="2">  1       -2 0.56676573E-01 0.95725000E+03</pdfrwt>
<totfact> 0.19743245E+01</totfact>
</mgrwt>
</event>
<event>
 4    2  0.3388003E-007  0.8800367E+03  0.7818608E-02  0.9558870E-01
          2   -1    0    0  501    0  0.00000000000E+00  0.00000000000E+00  0.19854208969E+04  0.19854208969E+04  0.25500000000E-02 0. -1.
         -2   -1    0    0    0  501 -0.00000000000E+00 -0.00000000000E+00 -0.48938071967E+03  0.48938071968E+03  0.25500000000E-02 0.  1.
    8880023    1    1    2    0    0 -0.51322578551E+03  0.27794556128E+03  0.20066116279E+02  0.88026546975E+03  0.65864270000E+03 0.  1.
    8880022    1    1    2    0    0  0.51322578551E+03 -0.27794556128E+03  0.14759740609E+04  0.15945361468E+04  0.15294330000E+03 0.  0.
<mgrwt>
<rscale>  0 0.80079278E+03</rscale>
<asrwt>0</asrwt>
<pdfrwt beam="1">  1        2 0.30544937E+00 0.88003673E+03</pdfrwt>
<pdfrwt beam="2">  1       -2 0.75289342E-01 0.88003673E+03</pdfrwt>
<totfact> 0.10956197E+01</totfact>
</mgrwt>
</event>
<event>
 4    2  0.3388003E-007  0.1100110E+04  0.7818608E-02  0.9260934E-01
         -2   -1    0    0    0  501 -0.00000000000E+00  0.00000000000E+00  0.84424797686E+03  0.84424797687E+03  0.25500000000E-02 0.  1.
          2   -1    0    0  501    0  0.00000000000E+00 -0.00000000000E+00 -0.34707847930E+04  0.34707847930E+04  0.25500000000E-02 0. -1.
    8880023    1    1    2    0    0 -0.76002756160E+03  0.44585818803E+03  0.39117584983E+03  0.11675873286E+04  0.65864270000E+03 0.  1.
    8880022    1    1    2    0    0  0.76002756160E+03 -0.44585818803E+03 -0.30177126660E+04  0.31474454413E+04  0.15294330000E+03 0.  0.
<mgrwt>
<rscale>  0 0.10446030E+04</rscale>
<asrwt>0</asrwt>
<pdfrwt beam="1">  1        2 0.53396688E+00 0.11001098E+04</pdfrwt>
<pdfrwt beam="2">  1       -2 0.12988431E+00 0.11001098E+04</pdfrwt>
<totfact> 0.37543689E-01</totfact>
</mgrwt>
</event>
<event>
 4    2  0.3388003E-007  0.6815704E+03  0.7818608E-02  0.1008449E+00
          2   -1    0    0  501    0  0.00000000000E+00  0.00000000000E+00  0.97156835259E+03  0.97156835260E+03  0.25500000000E-02 0. -1.
         -2   -1    0    0    0  501 -0.00000000000E+00 -0.00000000000E+00 -0.76277109615E+03  0.76277109615E+03  0.25500000000E-02 0.  1.
    8880023    1    1    2    0    0 -0.17201960586E+03 -0.33724119723E+02 -0.59055195582E+03  0.90182585893E+03  0.65864270000E+03 0.  0.
    8880022    1    1    2    0    0  0.17201960586E+03  0.33724119723E+02  0.79934921227E+03  0.83251358981E+03  0.15294330000E+03 0. -1.
<mgrwt>
<rscale>  0 0.52095774E+03</rscale>
<asrwt>0</asrwt>
<pdfrwt beam="1">  1        2 0.14947205E+00 0.68157044E+03</pdfrwt>
<pdfrwt beam="2">  1       -2 0.11734940E+00 0.68157044E+03</pdfrwt>
<totfact> 0.15109029E+01</totfact>
</mgrwt>
</event>
<event>
 4    2  0.3388003E-007  0.7260013E+03  0.7818608E-02  0.9902779E-01
          2   -1    0    0  501    0  0.00000000000E+00  0.00000000000E+00  0.21641753561E+04  0.21641753561E+04  0.25500000000E-02 0. -1.
         -2   -1    0    0    0  501 -0.00000000000E+00 -0.00000000000E+00 -0.26640751662E+03  0.26640751663E+03  0.25500000000E-02 0.  1.
    8880023    1    1    2    0    0 -0.29891230335E+03  0.62602566763E+02  0.28157376196E+03  0.77869226023E+03  0.65864270000E+03 0.  1.
    8880022    1    1    2    0    0  0.29891230335E+03 -0.62602566763E+02  0.16161940775E+04  0.16518906125E+04  0.15294330000E+03 0.  0.
<mgrwt>
<rscale>  0 0.60126782E+03</rscale>
<asrwt>0</asrwt>
<pdfrwt beam="1">  1        2 0.33295008E+00 0.72600128E+03</pdfrwt>
<pdfrwt beam="2">  1       -2 0.40985769E-01 0.72600128E+03</pdfrwt>
<totfact> 0.31685602E+01</totfact>
</mgrwt>
</event>
<event>
 4    2  0.3388003E-007  0.7929943E+03  0.7818608E-02  0.9726154E-01
          2   -1    0    0  501    0  0.00000000000E+00  0.00000000000E+00  0.38675144430E+04  0.38675144430E+04  0.25500000000E-02 0. -1.
         -2   -1    0    0    0  501 -0.00000000000E+00 -0.00000000000E+00 -0.24634493131E+03  0.24634493132E+03  0.25500000000E-02 0.  1.
    8880023    1    1    2    0    0 -0.20618852843E+03 -0.39053305417E+03  0.45678009591E+03  0.91514372529E+03  0.65864270000E+03 0.  0.
    8880022    1    1    2    0    0  0.20618852843E+03  0.39053305417E+03  0.31643894158E+04  0.31987156490E+04  0.15294330000E+03 0.  0.
<mgrwt>
<rscale>  0 0.69480744E+03</rscale>
<asrwt>0</asrwt>
<pdfrwt beam="1">  1        2 0.59500222E+00 0.79299431E+03</pdfrwt>
<pdfrwt beam="2">  1       -2 0.37899220E-01 0.79299431E+03</pdfrwt>
<totfact> 0.31238630E+00</totfact>
</mgrwt>
</event>
<event>
 4    2  0.3388003E-007  0.8557377E+03  0.7818608E-02  0.9601191E-01
          2   -1    0    0  501    0  0.00000000000E+00  0.00000000000E+00  0.81699806819E+03  0.81699806820E+03  0.25500000000E-02 0. -1.
         -2   -1    0    0    0  501 -0.00000000000E+00 -0.00000000000E+00 -0.18763424191E+04  0.18763424191E+04  0.25500000000E-02 0.  1.
    8880023    1    1    2    0    0  0.28483596090E+02 -0.54558731174E+03 -0.16597042325E+04  0.18673256748E+04  0.65864270000E+03 0.  1.
    8880022    1    1    2    0    0 -0.28483596090E+02  0.54558731174E+03  0.60035988163E+03  0.82601481250E+03  0.15294330000E+03 0.  0.
<mgrwt>
<rscale>  0 0.77217424E+03</rscale>
<asrwt>0</asrwt>
<pdfrwt beam="1">  1        2 0.12569201E+00 0.85573771E+03</pdfrwt>
<pdfrwt beam="2">  1       -2 0.28866806E+00 0.85573771E+03</pdfrwt>
<totfact> 0.12777396E+00</totfact>
</mgrwt>
</event>
<event>
 4    2  0.3388003E-007  0.7911786E+03  0.7818608E-02  0.9730205E-01
         -2   -1    0    0    0  501 -0.00000000000E+00  0.00000000000E+00  0.31807630378E+03  0.31807630379E+03  0.25500000000E-02 0.  1.
          2   -1    0    0  501    0  0.00000000000E+00 -0.00000000000E+00 -0.19218347058E+04  0.19218347058E+04  0.25500000000E-02 0. -1.
    8880023    1    1    2    0    0  0.97808801463E+02 -0.42730178666E+03 -0.28356027919E+03  0.84045821831E+03  0.65864270000E+03 0.  1.
    8880022    1    1    2    0    0 -0.97808801463E+02  0.42730178666E+03 -0.13201981228E+04  0.13994527913E+04  0.15294330000E+03 0.  0.
<mgrwt>
<rscale>  0 0.69246552E+03</rscale>
<asrwt>0</asrwt>
<pdfrwt beam="1">  1        2 0.29566687E+00 0.79117860E+03</pdfrwt>
<pdfrwt beam="2">  1       -2 0.48934817E-01 0.79117860E+03</pdfrwt>
<totfact> 0.29949378E+01</totfact>
</mgrwt>
</event>
<event>
 4    2  0.3388003E-007  0.2409299E+04  0.7818608E-02  0.8444267E-01
         -2   -1    0    0    0  501 -0.00000000000E+00  0.00000000000E+00  0.28150462808E+04  0.28150462808E+04  0.25500000000E-02 0.  1.
          2   -1    0    0  501    0  0.00000000000E+00 -0.00000000000E+00 -0.24443003104E+04  0.24443003104E+04  0.25500000000E-02 0. -1.
    8880023    1    1    2    0    0 -0.69559697749E+03 -0.22106690692E+04 -0.94731037919E+03  0.25888453120E+04  0.65864270000E+03 0. -1.
    8880022    1    1    2    0    0  0.69559697749E+03  0.22106690692E+04  0.13180563496E+04  0.26705012792E+04  0.15294330000E+03 0.  0.
<mgrwt>
<rscale>  0 0.23873165E+04</rscale>
<asrwt>0</asrwt>
<pdfrwt beam="1">  1        2 0.37604620E+00 0.24092993E+04</pdfrwt>
<pdfrwt beam="2">  1       -2 0.43308404E+00 0.24092993E+04</pdfrwt>
<totfact> 0.14221819E-02</totfact>
</mgrwt>
</event>
<event>
 4    2  0.3388003E-007  0.9355167E+03  0.7818608E-02  0.9471266E-01
          2   -1    0    0  501    0  0.00000000000E+00  0.00000000000E+00  0.10281927998E+04  0.10281927998E+04  0.25500000000E-02 0. -1.
         -2   -1    0    0    0  501 -0.00000000000E+00 -0.00000000000E+00 -0.14881735293E+04  0.14881735293E+04  0.25500000000E-02 0.  1.
    8880023    1    1    2    0    0 -0.51111483352E+03 -0.42443242166E+03 -0.11925134652E+04  0.15156780082E+04  0.65864270000E+03 0.  0.
    8880022    1    1    2    0    0  0.51111483352E+03  0.42443242166E+03  0.73253273577E+03  0.10006883209E+04  0.15294330000E+03 0.  0.
<mgrwt>
<rscale>  0 0.86435819E+03</rscale>
<asrwt>0</asrwt>
<pdfrwt beam="1">  1        2 0.15818351E+00 0.93551668E+03</pdfrwt>
<pdfrwt beam="2">  1       -2 0.22894977E+00 0.93551668E+03</pdfrwt>
<totfact> 0.21028141E+00</totfact>
</mgrwt>
</event>
<event>
 4    2  0.3388003E-007  0.9727740E+03  0.7818608E-02  0.9418078E-01
         -2   -1    0    0    0  501 -0.00000000000E+00  0.00000000000E+00  0.41185748345E+03  0.41185748346E+03  0.25500000000E-02 0.  1.
          2   -1    0    0  501    0  0.00000000000E+00 -0.00000000000E+00 -0.18918922442E+04  0.18918922442E+04  0.25500000000E-02 0. -1.
    8880023    1    1    2    0    0  0.27270341236E+03  0.66190025351E+03 -0.54098260838E+03  0.11130819761E+04  0.65864270000E+03 0.  1.
    8880022    1    1    2    0    0 -0.27270341236E+03 -0.66190025351E+03 -0.93905215235E+03  0.11906677515E+04  0.15294330000E+03 0. -1.
<mgrwt>
<rscale>  0 0.90602771E+03</rscale>
<asrwt>0</asrwt>
<pdfrwt beam="1">  1        2 0.29106034E+00 0.97277402E+03</pdfrwt>
<pdfrwt beam="2">  1       -2 0.63362691E-01 0.97277402E+03</pdfrwt>
<totfact> 0.17779850E+01</totfact>
</mgrwt>
</event>
<event>
 4    2  0.3388003E-007  0.1114744E+04  0.7818608E-02  0.9244815E-01
         -2   -1    0    0    0  501 -0.00000000000E+00  0.00000000000E+00  0.58341616733E+03  0.58341616734E+03  0.25500000000E-02 0.  1.
          2   -1    0    0  501    0  0.00000000000E+00 -0.00000000000E+00 -0.23016716779E+04  0.23016716779E+04  0.25500000000E-02 0. -1.
    8880023    1    1    2    0    0  0.56974708245E+03 -0.69586853714E+03 -0.22807019849E+03  0.11378360957E+04  0.65864270000E+03 0.  1.
    8880022    1    1    2    0    0 -0.56974708245E+03  0.69586853714E+03 -0.14901853121E+04  0.17472517496E+04  0.15294330000E+03 0.  0.
<mgrwt>
<rscale>  0 0.10602598E+04</rscale>
<asrwt>0</asrwt>
<pdfrwt beam="1">  1        2 0.35410333E+00 0.11147443E+04</pdfrwt>
<pdfrwt beam="2">  1       -2 0.89756334E-01 0.11147443E+04</pdfrwt>
<totfact> 0.47722339E+00</totfact>
</mgrwt>
</event>
<event>
 4    2  0.3388003E-007  0.6650180E+03  0.7818608E-02  0.1019518E+00
         -2   -1    0    0    0  501 -0.00000000000E+00  0.00000000000E+00  0.30070066952E+03  0.30070066954E+03  0.25500000000E-02 0.  1.
          2   -1    0    0  501    0  0.00000000000E+00 -0.00000000000E+00 -0.61429799331E+03  0.61429799332E+03  0.25500000000E-02 0. -1.
    8880023    1    1    2    0    0  0.47925194510E+01 -0.91737210817E+02 -0.17112712385E+03  0.68668288378E+03  0.65864270000E+03 0.  0.
    8880022    1    1    2    0    0 -0.47925194510E+01  0.91737210817E+02 -0.14247019993E+03  0.22831577908E+03  0.15294330000E+03 0.  1.
<mgrwt>
<rscale>  0 0.47860826E+03</rscale>
<asrwt>0</asrwt>
<pdfrwt beam="1">  1        2 0.94507383E-01 0.66501796E+03</pdfrwt>
<pdfrwt beam="2">  1       -2 0.46261642E-01 0.66501796E+03</pdfrwt>
<totfact> 0.21630616E+02</totfact>
</mgrwt>
</event>
<event>
 4    2  0.3388003E-007  0.6788841E+03  0.7818608E-02  0.1009962E+00
         -2   -1    0    0    0  501 -0.00000000000E+00  0.00000000000E+00  0.20339745987E+03  0.20339745989E+03  0.25500000000E-02 0.  1.
          2   -1    0    0  501    0  0.00000000000E+00 -0.00000000000E+00 -0.14344390019E+04  0.14344390019E+04  0.25500000000E-02 0. -1.
    8880023    1    1    2    0    0 -0.86564743375E+02  0.13992846054E+03 -0.42469116000E+03  0.80077850652E+03  0.65864270000E+03 0.  0.
    8880022    1    1    2    0    0  0.86564743375E+02 -0.13992846054E+03 -0.80635038206E+03  0.83705795529E+03  0.15294330000E+03 0.  0.
<mgrwt>
<rscale>  0 0.51489729E+03</rscale>
<asrwt>0</asrwt>
<pdfrwt beam="1">  1        2 0.22068292E+00 0.67888411E+03</pdfrwt>
<pdfrwt beam="2">  1       -2 0.31291918E-01 0.67888411E+03</pdfrwt>
<totfact> 0.13391288E+02</totfact>
</mgrwt>
</event>
<event>
 4    2  0.3388003E-007  0.6983827E+03  0.7818608E-02  0.1000398E+00
          2   -1    0    0  501    0  0.00000000000E+00  0.00000000000E+00  0.11264967215E+04  0.11264967215E+04  0.25500000000E-02 0. -1.
         -2   -1    0    0    0  501 -0.00000000000E+00 -0.00000000000E+00 -0.28364862874E+03  0.28364862875E+03  0.25500000000E-02 0.  1.
    8880023    1    1    2    0    0  0.22147171657E+03  0.69846093387E+02  0.88663536270E+03  0.11286543628E+04  0.65864270000E+03 0. -1.
    8880022    1    1    2    0    0 -0.22147171657E+03 -0.69846093387E+02 -0.43787269930E+02  0.28149098746E+03  0.15294330000E+03 0.  0.
<mgrwt>
<rscale>  0 0.55476172E+03</rscale>
<asrwt>0</asrwt>
<pdfrwt beam="1">  1        2 0.17330719E+00 0.69838271E+03</pdfrwt>
<pdfrwt beam="2">  1       -2 0.43638251E-01 0.69838271E+03</pdfrwt>
<totfact> 0.10641234E+02</totfact>
</mgrwt>
</event>
<event>
 4    2  0.6601534E-007  0.1409972E+04  0.7818608E-02  0.8975972E-01
          2   -1    0    0  501    0  0.00000000000E+00  0.00000000000E+00  0.35881484850E+04  0.35881484850E+04  0.25500000000E-02 0. -1.
         -2   -1    0    0    0  501 -0.00000000000E+00 -0.00000000000E+00 -0.17405367759E+04  0.17405367759E+04  0.25500000000E-02 0.  1.
    8880023    1    1    2    0    0  0.46444410258E+03 -0.11569371844E+04 -0.13136163456E+04  0.19270729314E+04  0.65864270000E+03 0.  1.
    8880022    1    1    2    0    0 -0.46444410258E+03  0.11569371844E+04  0.31612280547E+04  0.34016123295E+04  0.15294330000E+03 0.  0.
<mgrwt>
<rscale>  0 0.13698017E+04</rscale>
<asrwt>0</asrwt>
<pdfrwt beam="1">  1        2 0.55202284E+00 0.14099724E+04</pdfrwt>
<pdfrwt beam="2">  1       -2 0.26777489E+00 0.14099724E+04</pdfrwt>
<totfact> 0.33833259E-02</totfact>
</mgrwt>
</event>
<event>
 4    2  0.3388003E-007  0.6591658E+03  0.7818608E-02  0.1025028E+00
         -2   -1    0    0    0  501 -0.00000000000E+00  0.00000000000E+00  0.14408021336E+03  0.14408021339E+03  0.25500000000E-02 0.  1.
          2   -1    0    0  501    0  0.00000000000E+00 -0.00000000000E+00 -0.21800797337E+04  0.21800797337E+04  0.25500000000E-02 0. -1.
    8880023    1    1    2    0    0  0.26166022135E+02  0.21665354035E+01 -0.63727235718E+03  0.91685092468E+03  0.65864270000E+03 0.  1.
    8880022    1    1    2    0    0 -0.26166022135E+02 -0.21665354035E+01 -0.13987271631E+04  0.14073090224E+04  0.15294330000E+03 0.  0.
<mgrwt>
<rscale>  0 0.45915079E+03</rscale>
<asrwt>0</asrwt>
<pdfrwt beam="1">  1        2 0.33539686E+00 0.65916581E+03</pdfrwt>
<pdfrwt beam="2">  1       -2 0.22166188E-01 0.65916581E+03</pdfrwt>
<totfact> 0.98169222E+01</totfact>
</mgrwt>
</event>
<event>
 4    2  0.3388003E-007  0.7077572E+03  0.7818608E-02  0.9966425E-01
         -2   -1    0    0    0  501 -0.00000000000E+00  0.00000000000E+00  0.56792822927E+03  0.56792822928E+03  0.25500000000E-02 0.  1.
          2   -1    0    0  501    0  0.00000000000E+00 -0.00000000000E+00 -0.17685092132E+04  0.17685092132E+04  0.25500000000E-02 0. -1.
    8880023    1    1    2    0    0  0.10281563706E+03  0.23777943587E+03  0.32690627854E+03  0.77960761705E+03  0.65864270000E+03 0.  1.
    8880022    1    1    2    0    0 -0.10281563706E+03 -0.23777943587E+03 -0.15274872625E+04  0.15568298255E+04  0.15294330000E+03 0.  0.
<mgrwt>
<rscale>  0 0.57147255E+03</rscale>
<asrwt>0</asrwt>
<pdfrwt beam="1">  1        2 0.27207834E+00 0.70775725E+03</pdfrwt>
<pdfrwt beam="2">  1       -2 0.87373574E-01 0.70775725E+03</pdfrwt>
<totfact> 0.10534074E+01</totfact>
</mgrwt>
</event>
<event>
 4    2  0.3388003E-007  0.7459329E+03  0.7818608E-02  0.9842990E-01
         -2   -1    0    0    0  501 -0.00000000000E+00  0.00000000000E+00  0.49610773118E+03  0.49610773118E+03  0.25500000000E-02 0.  1.
          2   -1    0    0  501    0  0.00000000000E+00 -0.00000000000E+00 -0.23124329254E+04  0.23124329254E+04  0.25500000000E-02 0. -1.
    8880023    1    1    2    0    0  0.38018903024E+02 -0.34808080103E+03  0.18707073095E+03  0.76903273381E+03  0.65864270000E+03 0.  1.
    8880022    1    1    2    0    0 -0.38018903024E+02  0.34808080103E+03 -0.20033959252E+04  0.20395079228E+04  0.15294330000E+03 0.  0.
<mgrwt>
<rscale>  0 0.63105605E+03</rscale>
<asrwt>0</asrwt>
<pdfrwt beam="1">  1        2 0.35575891E+00 0.74593290E+03</pdfrwt>
<pdfrwt beam="2">  1       -2 0.76324268E-01 0.74593290E+03</pdfrwt>
<totfact> 0.71565326E+00</totfact>
</mgrwt>
</event>
<event>
 4    2  0.3388003E-007  0.7789321E+03  0.7818608E-02  0.9758351E-01
          2   -1    0    0  501    0  0.00000000000E+00  0.00000000000E+00  0.77107064172E+03  0.77107064172E+03  0.25500000000E-02 0. -1.
         -2   -1    0    0    0  501 -0.00000000000E+00 -0.00000000000E+00 -0.70014094194E+03  0.70014094194E+03  0.25500000000E-02 0.  1.
    8880023    1    1    2    0    0 -0.40057150418E+03  0.11165821392E+03 -0.35553928509E+03  0.85623797872E+03  0.65864270000E+03 0.  0.
    8880022    1    1    2    0    0  0.40057150418E+03 -0.11165821392E+03  0.42646898487E+03  0.61497360494E+03  0.15294330000E+03 0.  0.
<mgrwt>
<rscale>  0 0.67646353E+03</rscale>
<asrwt>0</asrwt>
<pdfrwt beam="1">  1        2 0.11862625E+00 0.77893215E+03</pdfrwt>
<pdfrwt beam="2">  1       -2 0.10771399E+00 0.77893215E+03</pdfrwt>
<totfact> 0.25287739E+01</totfact>
</mgrwt>
</event>
<event>
 4    2  0.3388003E-007  0.1074711E+04  0.7818608E-02  0.9289749E-01
          2   -1    0    0  501    0  0.00000000000E+00  0.00000000000E+00  0.15850554354E+04  0.15850554354E+04  0.25500000000E-02 0. -1.
         -2   -1    0    0    0  501 -0.00000000000E+00 -0.00000000000E+00 -0.68045989243E+03  0.68045989243E+03  0.25500000000E-02 0.  1.
    8880023    1    1    2    0    0  0.55080435070E+03  0.64638042125E+03  0.89357969135E+02  0.10784192759E+04  0.65864270000E+03 0.  0.
    8880022    1    1    2    0    0 -0.55080435070E+03 -0.64638042125E+03  0.81523757384E+03  0.11870960519E+04  0.15294330000E+03 0.  0.
<mgrwt>
<rscale>  0 0.10173209E+04</rscale>
<asrwt>0</asrwt>
<pdfrwt beam="1">  1        2 0.24385468E+00 0.10747108E+04</pdfrwt>
<pdfrwt beam="2">  1       -2 0.10468614E+00 0.10747108E+04</pdfrwt>
<totfact> 0.83185299E+00</totfact>
</mgrwt>
</event>
<event>
 4    2  0.3388003E-007  0.6718544E+03  0.7818608E-02  0.1014367E+00
         -2   -1    0    0    0  501 -0.00000000000E+00  0.00000000000E+00  0.37526650527E+03  0.37526650528E+03  0.25500000000E-02 0.  1.
          2   -1    0    0  501    0  0.00000000000E+00 -0.00000000000E+00 -0.15338537397E+04  0.15338537397E+04  0.25500000000E-02 0. -1.
    8880023    1    1    2    0    0  0.51371420726E+02  0.12222587938E+03  0.59356928257E+02  0.67447137793E+03  0.65864270000E+03 0.  0.
    8880022    1    1    2    0    0 -0.51371420726E+02 -0.12222587938E+03 -0.12179441627E+04  0.12346488670E+04  0.15294330000E+03 0. -1.
<mgrwt>
<rscale>  0 0.49775362E+03</rscale>
<asrwt>0</asrwt>
<pdfrwt beam="1">  1        2 0.23597750E+00 0.67185444E+03</pdfrwt>
<pdfrwt beam="2">  1       -2 0.57733309E-01 0.67185444E+03</pdfrwt>
<totfact> 0.35250462E+01</totfact>
</mgrwt>
</event>
<event>
 4    2  0.3388003E-007  0.6766223E+03  0.7818608E-02  0.1011303E+00
          2   -1    0    0  501    0  0.00000000000E+00  0.00000000000E+00  0.29482350500E+04  0.29482350500E+04  0.25500000000E-02 0. -1.
         -2   -1    0    0    0  501 -0.00000000000E+00 -0.00000000000E+00 -0.10095196663E+03  0.10095196666E+03  0.25500000000E-02 0.  1.
    8880023    1    1    2    0    0 -0.99671176182E+02 -0.11863056882E+03  0.11220597919E+04  0.13102808622E+04  0.65864270000E+03 0.  1.
    8880022    1    1    2    0    0  0.99671176182E+02  0.11863056882E+03  0.17252232915E+04  0.17389061544E+04  0.15294330000E+03 0.  0.
<mgrwt>
<rscale>  0 0.50960200E+03</rscale>
<asrwt>0</asrwt>
<pdfrwt beam="1">  1        2 0.45357471E+00 0.67662232E+03</pdfrwt>
<pdfrwt beam="2">  1       -2 0.15531069E-01 0.67662232E+03</pdfrwt>
<totfact> 0.65946866E+01</totfact>
</mgrwt>
</event>
<event>
 4    2  0.3388003E-007  0.7021641E+03  0.7818608E-02  0.9988339E-01
          2   -1    0    0  501    0  0.00000000000E+00  0.00000000000E+00  0.27729398037E+04  0.27729398037E+04  0.25500000000E-02 0. -1.
         -2   -1    0    0    0  501 -0.00000000000E+00 -0.00000000000E+00 -0.20963015668E+03  0.20963015670E+03  0.25500000000E-02 0.  1.
    8880023    1    1    2    0    0  0.24199939007E+03  0.25701269210E+02  0.41607272540E+03  0.81618072700E+03  0.65864270000E+03 0.  1.
    8880022    1    1    2    0    0 -0.24199939007E+03 -0.25701269210E+02  0.21472369216E+04  0.21663892334E+04  0.15294330000E+03 0.  0.
<mgrwt>
<rscale>  0 0.56164506E+03</rscale>
<asrwt>0</asrwt>
<pdfrwt beam="1">  1        2 0.42660613E+00 0.70216413E+03</pdfrwt>
<pdfrwt beam="2">  1       -2 0.32250793E-01 0.70216413E+03</pdfrwt>
<totfact> 0.22784858E+01</totfact>
</mgrwt>
</event>
<event>
 4    2  0.3388003E-007  0.7409676E+03  0.7818608E-02  0.9857137E-01
          2   -1    0    0  501    0  0.00000000000E+00  0.00000000000E+00  0.15167900143E+04  0.15167900143E+04  0.25500000000E-02 0. -1.
         -2   -1    0    0    0  501 -0.00000000000E+00 -0.00000000000E+00 -0.32713062348E+03  0.32713062349E+03  0.25500000000E-02 0.  1.
    8880023    1    1    2    0    0  0.22648815127E+03 -0.25283570377E+03  0.17252483261E+03  0.76078761813E+03  0.65864270000E+03 0.  1.
    8880022    1    1    2    0    0 -0.22648815127E+03  0.25283570377E+03  0.10171345582E+04  0.10831330197E+04  0.15294330000E+03 0.  0.
<mgrwt>
<rscale>  0 0.62384323E+03</rscale>
<asrwt>0</asrwt>
<pdfrwt beam="1">  1        2 0.23335231E+00 0.74096760E+03</pdfrwt>
<pdfrwt beam="2">  1       -2 0.50327787E-01 0.74096760E+03</pdfrwt>
<totfact> 0.47448885E+01</totfact>
</mgrwt>
</event>
<event>
 4    2  0.3388003E-007  0.6649482E+03  0.7818608E-02  0.1019577E+00
         -2   -1    0    0    0  501 -0.00000000000E+00  0.00000000000E+00  0.16384377638E+03  0.16384377640E+03  0.25500000000E-02 0.  1.
          2   -1    0    0  501    0  0.00000000000E+00 -0.00000000000E+00 -0.12474479351E+04  0.12474479351E+04  0.25500000000E-02 0. -1.
    8880023    1    1    2    0    0 -0.48889707628E+02 -0.77173463591E+02 -0.59893714108E+03  0.89492002560E+03  0.65864270000E+03 0.  1.
    8880022    1    1    2    0    0  0.48889707628E+02  0.77173463591E+02 -0.48466701766E+03  0.51637168592E+03  0.15294330000E+03 0.  1.
<mgrwt>
<rscale>  0 0.47839611E+03</rscale>
<asrwt>0</asrwt>
<pdfrwt beam="1">  1        2 0.19191506E+00 0.66494823E+03</pdfrwt>
<pdfrwt beam="2">  1       -2 0.25206736E-01 0.66494823E+03</pdfrwt>
<totfact> 0.25474239E+02</totfact>
</mgrwt>
</event>
<event>
 4    2  0.3388003E-007  0.6847709E+03  0.7818608E-02  0.1006744E+00
          2   -1    0    0  501    0  0.00000000000E+00  0.00000000000E+00  0.78299546362E+03  0.78299546362E+03  0.25500000000E-02 0. -1.
         -2   -1    0    0    0  501 -0.00000000000E+00 -0.00000000000E+00 -0.34886981539E+03  0.34886981540E+03  0.25500000000E-02 0.  1.
    8880023    1    1    2    0    0  0.13075016970E+03  0.13418418565E+03  0.61358971728E+02  0.68751445965E+03  0.65864270000E+03 0.  1.
    8880022    1    1    2    0    0 -0.13075016970E+03 -0.13418418565E+03  0.37276667650E+03  0.44435081937E+03  0.15294330000E+03 0.  0.
<mgrwt>
<rscale>  0 0.52789390E+03</rscale>
<asrwt>0</asrwt>
<pdfrwt beam="1">  1        2 0.12046084E+00 0.68477092E+03</pdfrwt>
<pdfrwt beam="2">  1       -2 0.53672279E-01 0.68477092E+03</pdfrwt>
<totfact> 0.11778551E+02</totfact>
</mgrwt>
</event>
<event>
 4    2  0.3388003E-007  0.1030637E+04  0.7818608E-02  0.9342529E-01
         -2   -1    0    0    0  501 -0.00000000000E+00  0.00000000000E+00  0.91925254222E+03  0.91925254222E+03  0.25500000000E-02 0.  1.
          2   -1    0    0  501    0  0.00000000000E+00 -0.00000000000E+00 -0.94745088318E+03  0.94745088318E+03  0.25500000000E-02 0. -1.
    8880023    1    1    2    0    0 -0.10491813313E+03 -0.78574434080E+03 -0.17712102714E+03  0.10457456901E+04  0.65864270000E+03 0. -1.
    8880022    1    1    2    0    0  0.10491813313E+03  0.78574434080E+03  0.14892268618E+03  0.82095773535E+03  0.15294330000E+03 0.  1.
<mgrwt>
<rscale>  0 0.96960087E+03</rscale>
<asrwt>0</asrwt>
<pdfrwt beam="1">  1        2 0.14576167E+00 0.10306368E+04</pdfrwt>
<pdfrwt beam="2">  1       -2 0.14142347E+00 0.10306368E+04</pdfrwt>
<totfact> 0.94294617E+00</totfact>
</mgrwt>
</event>
<event>
 4    2  0.3388003E-007  0.9070110E+03  0.7818608E-02  0.9514869E-01
         -2   -1    0    0    0  501 -0.00000000000E+00  0.00000000000E+00  0.68718079221E+03  0.68718079221E+03  0.25500000000E-02 0.  1.
          2   -1    0    0  501    0  0.00000000000E+00 -0.00000000000E+00 -0.14487903037E+04  0.14487903037E+04  0.25500000000E-02 0. -1.
    8880023    1    1    2    0    0  0.60475902164E+03 -0.15207016021E+03  0.24726603670E+03  0.94011143332E+03  0.65864270000E+03 0.  1.
    8880022    1    1    2    0    0 -0.60475902164E+03  0.15207016021E+03 -0.10088755482E+04  0.11958596626E+04  0.15294330000E+03 0.  0.
<mgrwt>
<rscale>  0 0.83196407E+03</rscale>
<asrwt>0</asrwt>
<pdfrwt beam="1">  1        2 0.22289082E+00 0.90701103E+03</pdfrwt>
<pdfrwt beam="2">  1       -2 0.10572012E+00 0.90701103E+03</pdfrwt>
<totfact> 0.98572657E+00</totfact>
</mgrwt>
</event>
<event>
 4    2  0.3388003E-007  0.9496214E+03  0.7818608E-02  0.9450659E-01
         -2   -1    0    0    0  501 -0.00000000000E+00  0.00000000000E+00  0.33914094796E+03  0.33914094797E+03  0.25500000000E-02 0.  1.
          2   -1    0    0  501    0  0.00000000000E+00 -0.00000000000E+00 -0.33662048533E+04  0.33662048533E+04  0.25500000000E-02 0. -1.
    8880023    1    1    2    0    0 -0.38276635353E+03  0.56697493052E+03 -0.48088600511E+03  0.10644398571E+04  0.65864270000E+03 0.  0.
    8880022    1    1    2    0    0  0.38276635353E+03 -0.56697493052E+03 -0.25461779003E+04  0.26409059442E+04  0.15294330000E+03 0.  0.
<mgrwt>
<rscale>  0 0.88021367E+03</rscale>
<asrwt>0</asrwt>
<pdfrwt beam="1">  1        2 0.51787765E+00 0.94962143E+03</pdfrwt>
<pdfrwt beam="2">  1       -2 0.52175533E-01 0.94962143E+03</pdfrwt>
<totfact> 0.36298863E+00</totfact>
</mgrwt>
</event>
<event>
 4    2  0.3388003E-007  0.7478524E+03  0.7818608E-02  0.9837637E-01
          2   -1    0    0  501    0  0.00000000000E+00  0.00000000000E+00  0.33305789913E+04  0.33305789913E+04  0.25500000000E-02 0. -1.
         -2   -1    0    0    0  501 -0.00000000000E+00 -0.00000000000E+00 -0.13524005801E+03  0.13524005803E+03  0.25500000000E-02 0.  1.
    8880023    1    1    2    0    0 -0.62672473050E+02 -0.34863332088E+03  0.10681831127E+04  0.13039549072E+04  0.65864270000E+03 0.  0.
    8880022    1    1    2    0    0  0.62672473050E+02  0.34863332088E+03  0.21271558206E+04  0.21618641422E+04  0.15294330000E+03 0.  0.
<mgrwt>
<rscale>  0 0.63381263E+03</rscale>
<asrwt>0</asrwt>
<pdfrwt beam="1">  1        2 0.51239673E+00 0.74785242E+03</pdfrwt>
<pdfrwt beam="2">  1       -2 0.20806164E-01 0.74785242E+03</pdfrwt>
<totfact> 0.22634952E+01</totfact>
</mgrwt>
</event>
<event>
 4    2  0.3388003E-007  0.6695540E+03  0.7818608E-02  0.1015985E+00
         -2   -1    0    0    0  501 -0.00000000000E+00  0.00000000000E+00  0.18460849224E+03  0.18460849226E+03  0.25500000000E-02 0.  1.
          2   -1    0    0  501    0  0.00000000000E+00 -0.00000000000E+00 -0.18590721681E+04  0.18590721681E+04  0.25500000000E-02 0. -1.
    8880023    1    1    2    0    0 -0.92880408258E+02 -0.76587057559E+02 -0.45674582239E+03  0.81050558305E+03  0.65864270000E+03 0.  0.
    8880022    1    1    2    0    0  0.92880408258E+02  0.76587057559E+02 -0.12177178535E+04  0.12331750773E+04  0.15294330000E+03 0.  0.
<mgrwt>
<rscale>  0 0.49163884E+03</rscale>
<asrwt>0</asrwt>
<pdfrwt beam="1">  1        2 0.28601109E+00 0.66955400E+03</pdfrwt>
<pdfrwt beam="2">  1       -2 0.28401308E-01 0.66955400E+03</pdfrwt>
<totfact> 0.93802684E+01</totfact>
</mgrwt>
</event>
<event>
 4    2  0.3388003E-007  0.7364222E+03  0.7818608E-02  0.9870494E-01
          2   -1    0    0  501    0  0.00000000000E+00  0.00000000000E+00  0.89823406928E+03  0.89823406929E+03  0.25500000000E-02 0. -1.
         -2   -1    0    0    0  501 -0.00000000000E+00 -0.00000000000E+00 -0.56339536700E+03  0.56339536700E+03  0.25500000000E-02 0.  1.
    8880023    1    1    2    0    0 -0.11025647029E+03 -0.31040443915E+03 -0.24614684185E+03  0.77647014051E+03  0.65864270000E+03 0.  1.
    8880022    1    1    2    0    0  0.11025647029E+03  0.31040443915E+03  0.58098554414E+03  0.68515929578E+03  0.15294330000E+03 0.  0.
<mgrwt>
<rscale>  0 0.61712814E+03</rscale>
<asrwt>0</asrwt>
<pdfrwt beam="1">  1        2 0.13818986E+00 0.73642217E+03</pdfrwt>
<pdfrwt beam="2">  1       -2 0.86676211E-01 0.73642217E+03</pdfrwt>
<totfact> 0.34429817E+01</totfact>
</mgrwt>
</event>
<event>
 4    2  0.3388003E-007  0.7929201E+03  0.7818608E-02  0.9726318E-01
          2   -1    0    0  501    0  0.00000000000E+00  0.00000000000E+00  0.21921770573E+04  0.21921770573E+04  0.25500000000E-02 0. -1.
         -2   -1    0    0    0  501 -0.00000000000E+00 -0.00000000000E+00 -0.47305898195E+03  0.47305898196E+03  0.25500000000E-02 0.  1.
    8880023    1    1    2    0    0  0.42814930868E+03 -0.10770475125E+03 -0.88839195851E+02  0.79788141534E+03  0.65864270000E+03 0.  1.
    8880022    1    1    2    0    0 -0.42814930868E+03  0.10770475125E+03  0.18079572712E+04  0.18673546239E+04  0.15294330000E+03 0.  0.
<mgrwt>
<rscale>  0 0.69471192E+03</rscale>
<asrwt>0</asrwt>
<pdfrwt beam="1">  1        2 0.33725801E+00 0.79292014E+03</pdfrwt>
<pdfrwt beam="2">  1       -2 0.72778305E-01 0.79292014E+03</pdfrwt>
<totfact> 0.92007371E+00</totfact>
</mgrwt>
</event>
<event>
 4    2  0.3388003E-007  0.6736229E+03  0.7818608E-02  0.1013189E+00
         -2   -1    0    0    0  501 -0.00000000000E+00  0.00000000000E+00  0.11912380054E+04  0.11912380054E+04  0.25500000000E-02 0.  1.
          2   -1    0    0  501    0  0.00000000000E+00 -0.00000000000E+00 -0.21283978448E+03  0.21283978449E+03  0.25500000000E-02 0. -1.
    8880023    1    1    2    0    0  0.12036169249E+03 -0.73963742728E+02  0.98784235708E+03  0.11956589401E+04  0.65864270000E+03 0.  1.
    8880022    1    1    2    0    0 -0.12036169249E+03  0.73963742728E+02 -0.94441361251E+01  0.20841884986E+03  0.15294330000E+03 0.  0.
<mgrwt>
<rscale>  0 0.50226774E+03</rscale>
<asrwt>0</asrwt>
<pdfrwt beam="1">  1        2 0.32744582E-01 0.67362288E+03</pdfrwt>
<pdfrwt beam="2">  1       -2 0.18326739E+00 0.67362288E+03</pdfrwt>
<totfact> 0.28311497E+01</totfact>
</mgrwt>
</event>
<event>
 4    2  0.3388003E-007  0.1080260E+04  0.7818608E-02  0.9283359E-01
          2   -1    0    0  501    0  0.00000000000E+00  0.00000000000E+00  0.34685707589E+04  0.34685707589E+04  0.25500000000E-02 0. -1.
         -2   -1    0    0    0  501 -0.00000000000E+00 -0.00000000000E+00 -0.41439160224E+03  0.41439160225E+03  0.25500000000E-02 0.  1.
    8880023    1    1    2    0    0  0.40270993834E+03 -0.75562965593E+03  0.51074587396E+03  0.11949154888E+04  0.65864270000E+03 0.  0.
    8880022    1    1    2    0    0 -0.40270993834E+03  0.75562965593E+03  0.25434332827E+04  0.26880468723E+04  0.15294330000E+03 0.  0.
<mgrwt>
<rscale>  0 0.10232940E+04</rscale>
<asrwt>0</asrwt>
<pdfrwt beam="1">  1        2 0.53362628E+00 0.10802600E+04</pdfrwt>
<pdfrwt beam="2">  1       -2 0.63752554E-01 0.10802600E+04</pdfrwt>
<totfact> 0.19899760E+00</totfact>
</mgrwt>
</event>
<event>
 4    2  0.3388003E-007  0.9213820E+03  0.7818608E-02  0.9492543E-01
         -2   -1    0    0    0  501 -0.00000000000E+00  0.00000000000E+00  0.61855468857E+03  0.61855468857E+03  0.25500000000E-02 0.  1.
          2   -1    0    0  501    0  0.00000000000E+00 -0.00000000000E+00 -0.15727178784E+04  0.15727178785E+04  0.25500000000E-02 0. -1.
    8880023    1    1    2    0    0 -0.25177860621E+03 -0.59307856067E+03  0.12022885477E+03  0.92919310666E+03  0.65864270000E+03 0.  0.
    8880022    1    1    2    0    0  0.25177860621E+03  0.59307856067E+03 -0.10743920446E+04  0.12620794604E+04  0.15294330000E+03 0.  0.
<mgrwt>
<rscale>  0 0.84835820E+03</rscale>
<asrwt>0</asrwt>
<pdfrwt beam="1">  1        2 0.24195660E+00 0.92138203E+03</pdfrwt>
<pdfrwt beam="2">  1       -2 0.95162260E-01 0.92138203E+03</pdfrwt>
<totfact> 0.10773593E+01</totfact>
</mgrwt>
</event>
<event>
 4    2  0.3388003E-007  0.6627033E+03  0.7818608E-02  0.1021543E+00
          2   -1    0    0  501    0  0.00000000000E+00  0.00000000000E+00  0.49729655672E+03  0.49729655673E+03  0.25500000000E-02 0. -1.
         -2   -1    0    0    0  501 -0.00000000000E+00 -0.00000000000E+00 -0.37098188643E+03  0.37098188644E+03  0.25500000000E-02 0.  1.
    8880023    1    1    2    0    0 -0.69892342488E+02 -0.21921404196E+02  0.10248232223E+02  0.66278255863E+03  0.65864270000E+03 0.  0.
    8880022    1    1    2    0    0  0.69892342488E+02  0.21921404196E+02  0.11606643807E+03  0.20549588454E+03  0.15294330000E+03 0.  0.
<mgrwt>
<rscale>  0 0.47133813E+03</rscale>
<asrwt>0</asrwt>
<pdfrwt beam="1">  1        2 0.76507162E-01 0.66270332E+03</pdfrwt>
<pdfrwt beam="2">  1       -2 0.57074137E-01 0.66270332E+03</pdfrwt>
<totfact> 0.18076454E+02</totfact>
</mgrwt>
</event>
<event>
 4    2  0.3388003E-007  0.8893038E+03  0.7818608E-02  0.9543425E-01
          2   -1    0    0  501    0  0.00000000000E+00  0.00000000000E+00  0.16457066003E+04  0.16457066003E+04  0.25500000000E-02 0. -1.
         -2   -1    0    0    0  501 -0.00000000000E+00 -0.00000000000E+00 -0.54792337331E+03  0.54792337331E+03  0.25500000000E-02 0.  1.
    8880023    1    1    2    0    0  0.21648746734E+03 -0.55694190725E+03 -0.49899952989E+02  0.89070271311E+03  0.65864270000E+03 0.  0.
    8880022    1    1    2    0    0 -0.21648746734E+03  0.55694190725E+03  0.11476831800E+04  0.13029272605E+04  0.15294330000E+03 0.  0.
<mgrwt>
<rscale>  0 0.81156590E+03</rscale>
<asrwt>0</asrwt>
<pdfrwt beam="1">  1        2 0.25318563E+00 0.88930384E+03</pdfrwt>
<pdfrwt beam="2">  1       -2 0.84295903E-01 0.88930384E+03</pdfrwt>
<totfact> 0.13036681E+01</totfact>
</mgrwt>
</event>
<event>
 4    2  0.3388003E-007  0.6824773E+03  0.7818608E-02  0.1007956E+00
          2   -1    0    0  501    0  0.00000000000E+00  0.00000000000E+00  0.13170993682E+04  0.13170993682E+04  0.25500000000E-02 0. -1.
         -2   -1    0    0    0  501 -0.00000000000E+00 -0.00000000000E+00 -0.77276057302E+03  0.77276057303E+03  0.25500000000E-02 0.  1.
    8880023    1    1    2    0    0  0.11372259449E+03 -0.13795743127E+03 -0.60783185370E+03  0.91391183928E+03  0.65864270000E+03 0.  1.
    8880022    1    1    2    0    0 -0.11372259449E+03  0.13795743127E+03  0.11521706489E+04  0.11759481019E+04  0.15294330000E+03 0.  0.
<mgrwt>
<rscale>  0 0.52295278E+03</rscale>
<asrwt>0</asrwt>
<pdfrwt beam="1">  1        2 0.20263067E+00 0.68247732E+03</pdfrwt>
<pdfrwt beam="2">  1       -2 0.11888624E+00 0.68247732E+03</pdfrwt>
<totfact> 0.90549272E+00</totfact>
</mgrwt>
</event>
<event>
 4    2  0.3388003E-007  0.9905021E+03  0.7818608E-02  0.9394091E-01
         -2   -1    0    0    0  501 -0.00000000000E+00  0.00000000000E+00  0.84155341285E+03  0.84155341285E+03  0.25500000000E-02 0.  1.
          2   -1    0    0  501    0  0.00000000000E+00 -0.00000000000E+00 -0.13847921828E+04  0.13847921828E+04  0.25500000000E-02 0. -1.
    8880023    1    1    2    0    0 -0.62481932589E+03 -0.39608705184E+03  0.35543069767E+03  0.10523427815E+04  0.65864270000E+03 0.  0.
    8880022    1    1    2    0    0  0.62481932589E+03  0.39608705184E+03 -0.89866946761E+03  0.11740028142E+04  0.15294330000E+03 0.  0.
<mgrwt>
<rscale>  0 0.92563597E+03</rscale>
<asrwt>0</asrwt>
<pdfrwt beam="1">  1        2 0.21304495E+00 0.99050207E+03</pdfrwt>
<pdfrwt beam="2">  1       -2 0.12946976E+00 0.99050207E+03</pdfrwt>
<totfact> 0.64387580E+00</totfact>
</mgrwt>
</event>
<event>
 4    2  0.3388003E-007  0.8702434E+03  0.7818608E-02  0.9575596E-01
          2   -1    0    0  501    0  0.00000000000E+00  0.00000000000E+00  0.46220896951E+03  0.46220896951E+03  0.25500000000E-02 0. -1.
         -2   -1    0    0    0  501 -0.00000000000E+00 -0.00000000000E+00 -0.12618499882E+04  0.12618499882E+04  0.25500000000E-02 0.  1.
    8880023    1    1    2    0    0 -0.11699504878E+03  0.55661973446E+03 -0.21985306116E+03  0.89758506282E+03  0.65864270000E+03 0.  0.
    8880022    1    1    2    0    0  0.11699504878E+03 -0.55661973446E+03 -0.57978795751E+03  0.82647389487E+03  0.15294330000E+03 0.  0.
<mgrwt>
<rscale>  0 0.78932685E+03</rscale>
<asrwt>0</asrwt>
<pdfrwt beam="1">  1        2 0.71109073E-01 0.87024340E+03</pdfrwt>
<pdfrwt beam="2">  1       -2 0.19413077E+00 0.87024340E+03</pdfrwt>
<totfact> 0.98717919E+00</totfact>
</mgrwt>
</event>
<event>
 4    2  0.3388003E-007  0.1321955E+04  0.7818608E-02  0.9046828E-01
         -2   -1    0    0    0  501 -0.00000000000E+00  0.00000000000E+00  0.15867763862E+04  0.15867763862E+04  0.25500000000E-02 0.  1.
          2   -1    0    0  501    0  0.00000000000E+00 -0.00000000000E+00 -0.10720779552E+04  0.10720779552E+04  0.25500000000E-02 0. -1.
    8880023    1    1    2    0    0  0.88164753293E+03  0.73242965928E+03  0.68687970366E+03  0.14897548495E+04  0.65864270000E+03 0.  0.
    8880022    1    1    2    0    0 -0.88164753293E+03 -0.73242965928E+03 -0.17218127265E+03  0.11690994918E+04  0.15294330000E+03 0.  0.
<mgrwt>
<rscale>  0 0.12784536E+04</rscale>
<asrwt>0</asrwt>
<pdfrwt beam="1">  1        2 0.16493507E+00 0.13219553E+04</pdfrwt>
<pdfrwt beam="2">  1       -2 0.24411945E+00 0.13219553E+04</pdfrwt>
<totfact> 0.15227694E+00</totfact>
</mgrwt>
</event>
<event>
 4    2  0.3388003E-007  0.9839365E+03  0.7818608E-02  0.9402882E-01
         -2   -1    0    0    0  501 -0.00000000000E+00  0.00000000000E+00  0.14742482073E+04  0.14742482073E+04  0.25500000000E-02 0.  1.
          2   -1    0    0  501    0  0.00000000000E+00 -0.00000000000E+00 -0.14986079827E+04  0.14986079827E+04  0.25500000000E-02 0. -1.
    8880023    1    1    2    0    0 -0.71372716564E+03 -0.15784285890E+03  0.11919373804E+04  0.15455891304E+04  0.65864270000E+03 0.  0.
    8880022    1    1    2    0    0  0.71372716564E+03  0.15784285890E+03 -0.12162971558E+04  0.14272670595E+04  0.15294330000E+03 0.  0.
<mgrwt>
<rscale>  0 0.91838885E+03</rscale>
<asrwt>0</asrwt>
<pdfrwt beam="1">  1        2 0.23055507E+00 0.98393650E+03</pdfrwt>
<pdfrwt beam="2">  1       -2 0.22680742E+00 0.98393650E+03</pdfrwt>
<totfact> 0.11362502E+00</totfact>
</mgrwt>
</event>
<event>
 4    2  0.3388003E-007  0.8660225E+03  0.7818608E-02  0.9582939E-01
          2   -1    0    0  501    0  0.00000000000E+00  0.00000000000E+00  0.10829626242E+04  0.10829626242E+04  0.25500000000E-02 0. -1.
         -2   -1    0    0    0  501 -0.00000000000E+00 -0.00000000000E+00 -0.12460846018E+04  0.12460846018E+04  0.25500000000E-02 0.  1.
    8880023    1    1    2    0    0 -0.54439450664E+03 -0.14078155709E+03 -0.99135731700E+03  0.13163526738E+04  0.65864270000E+03 0.  0.
    8880022    1    1    2    0    0  0.54439450664E+03  0.14078155709E+03  0.82823533940E+03  0.10126945522E+04  0.15294330000E+03 0.  0.
<mgrwt>
<rscale>  0 0.78435757E+03</rscale>
<asrwt>0</asrwt>
<pdfrwt beam="1">  1        2 0.16660963E+00 0.86602254E+03</pdfrwt>
<pdfrwt beam="2">  1       -2 0.19170532E+00 0.86602254E+03</pdfrwt>
<totfact> 0.33959911E+00</totfact>
</mgrwt>
</event>
<event>
 4    2  0.3388003E-007  0.9458659E+03  0.7818608E-02  0.9456087E-01
         -2   -1    0    0    0  501 -0.00000000000E+00  0.00000000000E+00  0.33897341826E+03  0.33897341827E+03  0.25500000000E-02 0.  1.
          2   -1    0    0  501    0  0.00000000000E+00 -0.00000000000E+00 -0.28098449629E+04  0.28098449629E+04  0.25500000000E-02 0. -1.
    8880023    1    1    2    0    0 -0.50419794707E+01 -0.67884220307E+03 -0.52398687442E+03  0.10813068986E+04  0.65864270000E+03 0.  0.
    8880022    1    1    2    0    0  0.50419794707E+01  0.67884220307E+03 -0.19468846702E+04  0.20675114825E+04  0.15294330000E+03 0.  0.
<mgrwt>
<rscale>  0 0.87600220E+03</rscale>
<asrwt>0</asrwt>
<pdfrwt beam="1">  1        2 0.43228383E+00 0.94586593E+03</pdfrwt>
<pdfrwt beam="2">  1       -2 0.52149758E-01 0.94586593E+03</pdfrwt>
<totfact> 0.81238351E+00</totfact>
</mgrwt>
</event>
<event>
 4    2  0.3388003E-007  0.6720827E+03  0.7818608E-02  0.1014212E+00
         -2   -1    0    0    0  501 -0.00000000000E+00  0.00000000000E+00  0.24079858194E+03  0.24079858195E+03  0.25500000000E-02 0.  1.
          2   -1    0    0  501    0  0.00000000000E+00 -0.00000000000E+00 -0.22529211800E+04  0.22529211800E+04  0.25500000000E-02 0. -1.
    8880023    1    1    2    0    0 -0.69454897823E+02 -0.11428460233E+03 -0.24559902481E+03  0.71555156377E+03  0.65864270000E+03 0.  1.
    8880022    1    1    2    0    0  0.69454897823E+02  0.11428460233E+03 -0.17665235733E+04  0.17781681982E+04  0.15294330000E+03 0.  0.
<mgrwt>
<rscale>  0 0.49834492E+03</rscale>
<asrwt>0</asrwt>
<pdfrwt beam="1">  1        2 0.34660324E+00 0.67208270E+03</pdfrwt>
<pdfrwt beam="2">  1       -2 0.37045937E-01 0.67208270E+03</pdfrwt>
<totfact> 0.34716112E+01</totfact>
</mgrwt>
</event>
<event>
 4    2  0.3388003E-007  0.9973269E+03  0.7818608E-02  0.9385063E-01
          2   -1    0    0  501    0  0.00000000000E+00  0.00000000000E+00  0.13977931471E+04  0.13977931471E+04  0.25500000000E-02 0. -1.
         -2   -1    0    0    0  501 -0.00000000000E+00 -0.00000000000E+00 -0.95163194602E+03  0.95163194603E+03  0.25500000000E-02 0.  1.
    8880023    1    1    2    0    0 -0.74742647961E+03 -0.46951754611E+02 -0.51414773640E+03  0.11220556630E+04  0.65864270000E+03 0.  0.
    8880022    1    1    2    0    0  0.74742647961E+03  0.46951754611E+02  0.96030893745E+03  0.12273694301E+04  0.15294330000E+03 0.  0.
<mgrwt>
<rscale>  0 0.93315181E+03</rscale>
<asrwt>0</asrwt>
<pdfrwt beam="1">  1        2 0.21504510E+00 0.99732694E+03</pdfrwt>
<pdfrwt beam="2">  1       -2 0.14640491E+00 0.99732694E+03</pdfrwt>
<totfact> 0.46015830E+00</totfact>
</mgrwt>
</event>
<event>
 4    2  0.3388003E-007  0.6705549E+03  0.7818608E-02  0.1015268E+00
          2   -1    0    0  501    0  0.00000000000E+00  0.00000000000E+00  0.96741813857E+03  0.96741813857E+03  0.25500000000E-02 0. -1.
         -2   -1    0    0    0  501 -0.00000000000E+00 -0.00000000000E+00 -0.37785625773E+03  0.37785625774E+03  0.25500000000E-02 0.  1.
    8880023    1    1    2    0    0  0.10732765458E+03 -0.65684675719E+02 -0.53228206792E+02  0.67266421811E+03  0.65864270000E+03 0.  1.
    8880022    1    1    2    0    0 -0.10732765458E+03  0.65684675719E+02  0.64279008762E+03  0.67261017820E+03  0.15294330000E+03 0.  0.
<mgrwt>
<rscale>  0 0.49433530E+03</rscale>
<asrwt>0</asrwt>
<pdfrwt beam="1">  1        2 0.14883356E+00 0.67055493E+03</pdfrwt>
<pdfrwt beam="2">  1       -2 0.58131732E-01 0.67055493E+03</pdfrwt>
<totfact> 0.74751023E+01</totfact>
</mgrwt>
</event>
<event>
 4    2  0.3388003E-007  0.1027270E+04  0.7818608E-02  0.9346719E-01
          2   -1    0    0  501    0  0.00000000000E+00  0.00000000000E+00  0.16903116343E+04  0.16903116343E+04  0.25500000000E-02 0. -1.
         -2   -1    0    0    0  501 -0.00000000000E+00 -0.00000000000E+00 -0.57296210868E+03  0.57296210868E+03  0.25500000000E-02 0.  1.
    8880023    1    1    2    0    0 -0.78779343328E+03 -0.29230561645E+02  0.10313175222E+04  0.14556438290E+04  0.65864270000E+03 0. -1.
    8880022    1    1    2    0    0  0.78779343328E+03  0.29230561645E+02  0.86032003465E+02  0.80762991394E+03  0.15294330000E+03 0.  0.
<mgrwt>
<rscale>  0 0.96593285E+03</rscale>
<asrwt>0</asrwt>
<pdfrwt beam="1">  1        2 0.26004794E+00 0.10272697E+04</pdfrwt>
<pdfrwt beam="2">  1       -2 0.88148018E-01 0.10272697E+04</pdfrwt>
<totfact> 0.10955527E+01</totfact>
</mgrwt>
</event>
<event>
 4    2  0.3388003E-007  0.7091051E+03  0.7818608E-02  0.9961339E-01
         -2   -1    0    0    0  501 -0.00000000000E+00  0.00000000000E+00  0.35631914896E+03  0.35631914896E+03  0.25500000000E-02 0.  1.
          2   -1    0    0  501    0  0.00000000000E+00 -0.00000000000E+00 -0.90486689050E+03  0.90486689051E+03  0.25500000000E-02 0. -1.
    8880023    1    1    2    0    0 -0.18557597851E+02  0.26206014842E+03 -0.95366265527E+02  0.71548922891E+03  0.65864270000E+03 0. -1.
    8880022    1    1    2    0    0  0.18557597851E+02 -0.26206014842E+03 -0.45318147602E+03  0.54569681056E+03  0.15294330000E+03 0. -1.
<mgrwt>
<rscale>  0 0.57378444E+03</rscale>
<asrwt>0</asrwt>
<pdfrwt beam="1">  1        2 0.13921029E+00 0.70910515E+03</pdfrwt>
<pdfrwt beam="2">  1       -2 0.54818331E-01 0.70910515E+03</pdfrwt>
<totfact> 0.92573958E+01</totfact>
</mgrwt>
</event>
<event>
 4    2  0.3388003E-007  0.8213314E+03  0.7818608E-02  0.9666440E-01
          2   -1    0    0  501    0  0.00000000000E+00  0.00000000000E+00  0.30414170998E+04  0.30414170998E+04  0.25500000000E-02 0. -1.
         -2   -1    0    0    0  501 -0.00000000000E+00 -0.00000000000E+00 -0.22762432629E+03  0.22762432630E+03  0.25500000000E-02 0.  1.
    8880023    1    1    2    0    0 -0.37485994787E+03  0.31663077771E+03  0.65677907555E+03  0.10516387166E+04  0.65864270000E+03 0.  1.
    8880022    1    1    2    0    0  0.37485994787E+03 -0.31663077771E+03  0.21570136979E+04  0.22174027095E+04  0.15294330000E+03 0.  0.
<mgrwt>
<rscale>  0 0.73050563E+03</rscale>
<asrwt>0</asrwt>
<pdfrwt beam="1">  1        2 0.46791032E+00 0.82133138E+03</pdfrwt>
<pdfrwt beam="2">  1       -2 0.35019128E-01 0.82133138E+03</pdfrwt>
<totfact> 0.13178449E+01</totfact>
</mgrwt>
</event>
<event>
 4    2  0.3388003E-007  0.1049032E+04  0.7818608E-02  0.9320046E-01
         -2   -1    0    0    0  501 -0.00000000000E+00  0.00000000000E+00  0.14034176217E+04  0.14034176217E+04  0.25500000000E-02 0.  1.
          2   -1    0    0  501    0  0.00000000000E+00 -0.00000000000E+00 -0.15209650018E+04  0.15209650018E+04  0.25500000000E-02 0. -1.
    8880023    1    1    2    0    0  0.58651451142E+03  0.56803012916E+03  0.10547506600E+04  0.14876043361E+04  0.65864270000E+03 0.  1.
    8880022    1    1    2    0    0 -0.58651451142E+03 -0.56803012916E+03 -0.11722980401E+04  0.14367782875E+04  0.15294330000E+03 0. -1.
<mgrwt>
<rscale>  0 0.98958133E+03</rscale>
<asrwt>0</asrwt>
<pdfrwt beam="1">  1        2 0.23399461E+00 0.10490318E+04</pdfrwt>
<pdfrwt beam="2">  1       -2 0.21591040E+00 0.10490318E+04</pdfrwt>
<totfact> 0.12810059E+00</totfact>
</mgrwt>
</event>
<event>
 4    2  0.3388003E-007  0.8562907E+03  0.7818608E-02  0.9600196E-01
         -2   -1    0    0    0  501 -0.00000000000E+00  0.00000000000E+00  0.82173023730E+03  0.82173023731E+03  0.25500000000E-02 0.  1.
          2   -1    0    0  501    0  0.00000000000E+00 -0.00000000000E+00 -0.11540818722E+04  0.11540818722E+04  0.25500000000E-02 0. -1.
    8880023    1    1    2    0    0 -0.27796099531E+03  0.47133982629E+03  0.48216552917E+03  0.98270918920E+03  0.65864270000E+03 0.  1.
    8880022    1    1    2    0    0  0.27796099531E+03 -0.47133982629E+03 -0.81451716410E+03  0.99310292034E+03  0.15294330000E+03 0.  0.
<mgrwt>
<rscale>  0 0.77283212E+03</rscale>
<asrwt>0</asrwt>
<pdfrwt beam="1">  1        2 0.17755106E+00 0.85629069E+03</pdfrwt>
<pdfrwt beam="2">  1       -2 0.12642004E+00 0.85629069E+03</pdfrwt>
<totfact> 0.94711802E+00</totfact>
</mgrwt>
</event>
<event>
 4    2  0.3388003E-007  0.6730432E+03  0.7818608E-02  0.1013569E+00
          2   -1    0    0  501    0  0.00000000000E+00  0.00000000000E+00  0.42383867766E+04  0.42383867766E+04  0.25500000000E-02 0. -1.
         -2   -1    0    0    0  501 -0.00000000000E+00 -0.00000000000E+00 -0.21217312571E+03  0.21217312573E+03  0.25500000000E-02 0.  1.
    8880023    1    1    2    0    0 -0.13510740233E+03  0.30380031599E+02  0.33179277227E+03  0.75038230688E+03  0.65864270000E+03 0.  1.
    8880022    1    1    2    0    0  0.13510740233E+03 -0.30380031599E+02  0.36944208786E+04  0.37001775954E+04  0.15294330000E+03 0.  0.
<mgrwt>
<rscale>  0 0.50080470E+03</rscale>
<asrwt>0</asrwt>
<pdfrwt beam="1">  1        2 0.65205956E+00 0.67304321E+03</pdfrwt>
<pdfrwt beam="2">  1       -2 0.32642017E-01 0.67304321E+03</pdfrwt>
<totfact> 0.21519470E+00</totfact>
</mgrwt>
</event>
<event>
 4    2  0.3388003E-007  0.1042959E+04  0.7818608E-02  0.9327394E-01
          2   -1    0    0  501    0  0.00000000000E+00  0.00000000000E+00  0.27328437735E+04  0.27328437735E+04  0.25500000000E-02 0. -1.
         -2   -1    0    0    0  501 -0.00000000000E+00 -0.00000000000E+00 -0.44191279211E+03  0.44191279212E+03  0.25500000000E-02 0.  1.
    8880023    1    1    2    0    0  0.36868139626E+03  0.71974052024E+03  0.40818976782E+03  0.11199917327E+04  0.65864270000E+03 0.  1.
    8880022    1    1    2    0    0 -0.36868139626E+03 -0.71974052024E+03  0.18827412135E+04  0.20547648329E+04  0.15294330000E+03 0.  0.
<mgrwt>
<rscale>  0 0.98299534E+03</rscale>
<asrwt>0</asrwt>
<pdfrwt beam="1">  1        2 0.42043751E+00 0.10429586E+04</pdfrwt>
<pdfrwt beam="2">  1       -2 0.67986583E-01 0.10429586E+04</pdfrwt>
<totfact> 0.50790366E+00</totfact>
</mgrwt>
</event>
<event>
 4    2  0.3388003E-007  0.9925688E+03  0.7818608E-02  0.9391345E-01
         -2   -1    0    0    0  501 -0.00000000000E+00  0.00000000000E+00  0.54478637485E+03  0.54478637485E+03  0.25500000000E-02 0.  1.
          2   -1    0    0  501    0  0.00000000000E+00 -0.00000000000E+00 -0.14549152585E+04  0.14549152586E+04  0.25500000000E-02 0. -1.
    8880023    1    1    2    0    0 -0.57750538783E+03  0.46676560645E+03 -0.33317497375E+03  0.10469949254E+04  0.65864270000E+03 0.  1.
    8880022    1    1    2    0    0  0.57750538783E+03 -0.46676560645E+03 -0.57695390996E+03  0.95270670805E+03  0.15294330000E+03 0.  0.
<mgrwt>
<rscale>  0 0.92791378E+03</rscale>
<asrwt>0</asrwt>
<pdfrwt beam="1">  1        2 0.22383311E+00 0.99256879E+03</pdfrwt>
<pdfrwt beam="2">  1       -2 0.83813289E-01 0.99256879E+03</pdfrwt>
<totfact> 0.16702496E+01</totfact>
</mgrwt>
</event>
<event>
 4    2  0.3388003E-007  0.6906911E+03  0.7818608E-02  0.1003826E+00
         -2   -1    0    0    0  501 -0.00000000000E+00  0.00000000000E+00  0.48392389735E+03  0.48392389736E+03  0.25500000000E-02 0.  1.
          2   -1    0    0  501    0  0.00000000000E+00 -0.00000000000E+00 -0.16128696661E+04  0.16128696661E+04  0.25500000000E-02 0. -1.
    8880023    1    1    2    0    0  0.20735494450E+03  0.15744398785E+02  0.21882370384E+03  0.72452603730E+03  0.65864270000E+03 0.  1.
    8880022    1    1    2    0    0 -0.20735494450E+03 -0.15744398785E+02 -0.13477694726E+04  0.13722675262E+04  0.15294330000E+03 0.  0.
<mgrwt>
<rscale>  0 0.54004032E+03</rscale>
<asrwt>0</asrwt>
<pdfrwt beam="1">  1        2 0.24813379E+00 0.69069108E+03</pdfrwt>
<pdfrwt beam="2">  1       -2 0.74449831E-01 0.69069108E+03</pdfrwt>
<totfact> 0.18414157E+01</totfact>
</mgrwt>
</event>
<event>
 4    2  0.3388003E-007  0.6592803E+03  0.7818608E-02  0.1024906E+00
          2   -1    0    0  501    0  0.00000000000E+00  0.00000000000E+00  0.13549058557E+04  0.13549058557E+04  0.25500000000E-02 0. -1.
         -2   -1    0    0    0  501 -0.00000000000E+00 -0.00000000000E+00 -0.25244384240E+03  0.25244384241E+03  0.25500000000E-02 0.  1.
    8880023    1    1    2    0    0 -0.18309787049E+02 -0.22473726574E+02  0.19625662424E+03  0.68787148910E+03  0.65864270000E+03 0.  1.
    8880022    1    1    2    0    0  0.18309787049E+02  0.22473726574E+02  0.90620538902E+03  0.91947820898E+03  0.15294330000E+03 0.  0.
<mgrwt>
<rscale>  0 0.45956947E+03</rscale>
<asrwt>0</asrwt>
<pdfrwt beam="1">  1        2 0.20844706E+00 0.65928031E+03</pdfrwt>
<pdfrwt beam="2">  1       -2 0.38837514E-01 0.65928031E+03</pdfrwt>
<totfact> 0.98672746E+01</totfact>
</mgrwt>
</event>
<event>
 4    2  0.3388003E-007  0.9095420E+03  0.7818608E-02  0.9510884E-01
         -2   -1    0    0    0  501 -0.00000000000E+00  0.00000000000E+00  0.32303033283E+03  0.32303033284E+03  0.25500000000E-02 0.  1.
          2   -1    0    0  501    0  0.00000000000E+00 -0.00000000000E+00 -0.39446182385E+04  0.39446182385E+04  0.25500000000E-02 0. -1.
    8880023    1    1    2    0    0  0.19159729792E+03  0.59728301515E+03 -0.42039671757E+03  0.10019980694E+04  0.65864270000E+03 0.  0.
    8880022    1    1    2    0    0 -0.19159729792E+03 -0.59728301515E+03 -0.32011911881E+04  0.32656505019E+04  0.15294330000E+03 0.  0.
<mgrwt>
<rscale>  0 0.83486129E+03</rscale>
<asrwt>0</asrwt>
<pdfrwt beam="1">  1        2 0.60686431E+00 0.90954204E+03</pdfrwt>
<pdfrwt beam="2">  1       -2 0.49696977E-01 0.90954204E+03</pdfrwt>
<totfact> 0.15546004E+00</totfact>
</mgrwt>
</event>
<event>
 4    2  0.3388003E-007  0.9620777E+03  0.7818608E-02  0.9432946E-01
         -2   -1    0    0    0  501 -0.00000000000E+00  0.00000000000E+00  0.24268311705E+04  0.24268311705E+04  0.25500000000E-02 0.  1.
          2   -1    0    0  501    0  0.00000000000E+00 -0.00000000000E+00 -0.10093468615E+04  0.10093468615E+04  0.25500000000E-02 0. -1.
    8880023    1    1    2    0    0 -0.52939045804E+03 -0.45992295718E+03  0.21837316306E+04  0.23862685147E+04  0.65864270000E+03 0.  1.
    8880022    1    1    2    0    0  0.52939045804E+03  0.45992295718E+03 -0.76624732157E+03  0.10499095173E+04  0.15294330000E+03 0.  0.
<mgrwt>
<rscale>  0 0.89413270E+03</rscale>
<asrwt>0</asrwt>
<pdfrwt beam="1">  1        2 0.15528413E+00 0.96207775E+03</pdfrwt>
<pdfrwt beam="2">  1       -2 0.37335864E+00 0.96207775E+03</pdfrwt>
<totfact> 0.28020722E-01</totfact>
</mgrwt>
</event>
<event>
 4    2  0.3388003E-007  0.6734761E+03  0.7818608E-02  0.1013284E+00
          2   -1    0    0  501    0  0.00000000000E+00  0.00000000000E+00  0.82906820447E+03  0.82906820448E+03  0.25500000000E-02 0. -1.
         -2   -1    0    0    0  501 -0.00000000000E+00 -0.00000000000E+00 -0.23743727450E+03  0.23743727452E+03  0.25500000000E-02 0.  1.
    8880023    1    1    2    0    0 -0.73655697532E+02 -0.11972774786E+03  0.39663995144E+03  0.78159666883E+03  0.65864270000E+03 0. -1.
    8880022    1    1    2    0    0  0.73655697532E+02  0.11972774786E+03  0.19499097853E+03  0.28490881016E+03  0.15294330000E+03 0.  1.
<mgrwt>
<rscale>  0 0.50189886E+03</rscale>
<asrwt>0</asrwt>
<pdfrwt beam="1">  1        2 0.12754896E+00 0.67347613E+03</pdfrwt>
<pdfrwt beam="2">  1       -2 0.36528810E-01 0.67347613E+03</pdfrwt>
<totfact> 0.23463552E+02</totfact>
</mgrwt>
</event>
<event>
 4    2  0.3388003E-007  0.8011640E+03  0.7818608E-02  0.9708285E-01
         -2   -1    0    0    0  501 -0.00000000000E+00  0.00000000000E+00  0.74271535635E+03  0.74271535635E+03  0.25500000000E-02 0.  1.
          2   -1    0    0  501    0  0.00000000000E+00 -0.00000000000E+00 -0.62883698100E+03  0.62883698101E+03  0.25500000000E-02 0. -1.
    8880023    1    1    2    0    0  0.38847493928E+03  0.23904133959E+03 -0.16142177192E+03  0.81726417712E+03  0.65864270000E+03 0.  0.
    8880022    1    1    2    0    0 -0.38847493928E+03 -0.23904133959E+03  0.27530014727E+03  0.55428816024E+03  0.15294330000E+03 0.  0.
<mgrwt>
<rscale>  0 0.70525649E+03</rscale>
<asrwt>0</asrwt>
<pdfrwt beam="1">  1        2 0.96744152E-01 0.80116399E+03</pdfrwt>
<pdfrwt beam="2">  1       -2 0.11426390E+00 0.80116399E+03</pdfrwt>
<totfact> 0.28301246E+01</totfact>
</mgrwt>
</event>
<event>
 4    2  0.3388003E-007  0.9747083E+03  0.7818608E-02  0.9415422E-01
          2   -1    0    0  501    0  0.00000000000E+00  0.00000000000E+00  0.24805517227E+04  0.24805517227E+04  0.25500000000E-02 0. -1.
         -2   -1    0    0    0  501 -0.00000000000E+00 -0.00000000000E+00 -0.60843035757E+03  0.60843035758E+03  0.25500000000E-02 0.  1.
    8880023    1    1    2    0    0 -0.67644627054E+03  0.24221166661E+03 -0.10447622258E+03  0.98029155649E+03  0.65864270000E+03 0.  0.
    8880022    1    1    2    0    0  0.67644627054E+03 -0.24221166661E+03  0.19765975877E+04  0.21086905238E+04  0.15294330000E+03 0.  0.
<mgrwt>
<rscale>  0 0.90817341E+03</rscale>
<asrwt>0</asrwt>
<pdfrwt beam="1">  1        2 0.38162334E+00 0.97470829E+03</pdfrwt>
<pdfrwt beam="2">  1       -2 0.93604671E-01 0.97470829E+03</pdfrwt>
<totfact> 0.34892523E+00</totfact>
</mgrwt>
</event>
<event>
 4    2  0.3388003E-007  0.7002417E+03  0.7818608E-02  0.9996200E-01
          2   -1    0    0  501    0  0.00000000000E+00  0.00000000000E+00  0.29120584103E+04  0.29120584103E+04  0.25500000000E-02 0. -1.
         -2   -1    0    0    0  501 -0.00000000000E+00 -0.00000000000E+00 -0.96768918047E+02  0.96768918081E+02  0.25500000000E-02 0.  1.
    8880023    1    1    2    0    0  0.15597402671E+02 -0.23724446743E+03  0.13974111267E+04  0.15630407159E+04  0.65864270000E+03 0.  0.
    8880022    1    1    2    0    0 -0.15597402671E+02  0.23724446743E+03  0.14178783655E+04  0.14457866125E+04  0.15294330000E+03 0.  0.
<mgrwt>
<rscale>  0 0.55817171E+03</rscale>
<asrwt>0</asrwt>
<pdfrwt beam="1">  1        2 0.44800887E+00 0.70024169E+03</pdfrwt>
<pdfrwt beam="2">  1       -2 0.14887530E-01 0.70024169E+03</pdfrwt>
<totfact> 0.74225321E+01</totfact>
</mgrwt>
</event>
<event>
 4    2  0.3388003E-007  0.7301137E+03  0.7818608E-02  0.9889742E-01
          2   -1    0    0  501    0  0.00000000000E+00  0.00000000000E+00  0.13252581724E+04  0.13252581724E+04  0.25500000000E-02 0. -1.
         -2   -1    0    0    0  501 -0.00000000000E+00 -0.00000000000E+00 -0.85078834882E+03  0.85078834883E+03  0.25500000000E-02 0.  1.
    8880023    1    1    2    0    0  0.60564556135E+02  0.30917267293E+03 -0.66279246212E+03  0.98608309044E+03  0.65864270000E+03 0.  1.
    8880022    1    1    2    0    0 -0.60564556135E+02 -0.30917267293E+03  0.11372622857E+04  0.11899634308E+04  0.15294330000E+03 0.  0.
<mgrwt>
<rscale>  0 0.60761039E+03</rscale>
<asrwt>0</asrwt>
<pdfrwt beam="1">  1        2 0.20388587E+00 0.73011370E+03</pdfrwt>
<pdfrwt beam="2">  1       -2 0.13089052E+00 0.73011370E+03</pdfrwt>
<totfact> 0.69926148E+00</totfact>
</mgrwt>
</event>
<event>
 4    2  0.3388003E-007  0.7165168E+03  0.7818608E-02  0.9934553E-01
         -2   -1    0    0    0  501 -0.00000000000E+00  0.00000000000E+00  0.84745008581E+03  0.84745008581E+03  0.25500000000E-02 0.  1.
          2   -1    0    0  501    0  0.00000000000E+00 -0.00000000000E+00 -0.55969607188E+03  0.55969607189E+03  0.25500000000E-02 0. -1.
    8880023    1    1    2    0    0 -0.20558159982E+03 -0.19318999570E+03  0.61833138232E+03  0.94643017346E+03  0.65864270000E+03 0.  1.
    8880022    1    1    2    0    0  0.20558159982E+03  0.19318999570E+03 -0.33057736839E+03  0.46071598424E+03  0.15294330000E+03 0.  0.
<mgrwt>
<rscale>  0 0.58615539E+03</rscale>
<asrwt>0</asrwt>
<pdfrwt beam="1">  1        2 0.86107089E-01 0.71651684E+03</pdfrwt>
<pdfrwt beam="2">  1       -2 0.13037694E+00 0.71651684E+03</pdfrwt>
<totfact> 0.23616772E+01</totfact>
</mgrwt>
</event>
<event>
 4    2  0.3388003E-007  0.6822927E+03  0.7818608E-02  0.1008055E+00
         -2   -1    0    0    0  501 -0.00000000000E+00  0.00000000000E+00  0.66712905087E+02  0.66712905136E+02  0.25500000000E-02 0.  1.
          2   -1    0    0  501    0  0.00000000000E+00 -0.00000000000E+00 -0.40113167191E+04  0.40113167191E+04  0.25500000000E-02 0. -1.
    8880023    1    1    2    0    0  0.12559651954E+03  0.12624855523E+03 -0.18773417600E+04  0.19974822836E+04  0.65864270000E+03 0.  1.
    8880022    1    1    2    0    0 -0.12559651954E+03 -0.12624855523E+03 -0.20672620541E+04  0.20805473406E+04  0.15294330000E+03 0.  0.
<mgrwt>
<rscale>  0 0.52254871E+03</rscale>
<asrwt>0</asrwt>
<pdfrwt beam="1">  1        2 0.61712546E+00 0.68229274E+03</pdfrwt>
<pdfrwt beam="2">  1       -2 0.10263527E-01 0.68229274E+03</pdfrwt>
<totfact> 0.24593740E+01</totfact>
</mgrwt>
</event>
<event>
 4    2  0.3388003E-007  0.7815708E+03  0.7818608E-02  0.9752160E-01
         -2   -1    0    0    0  501 -0.00000000000E+00  0.00000000000E+00  0.64127083669E+03  0.64127083669E+03  0.25500000000E-02 0.  1.
          2   -1    0    0  501    0  0.00000000000E+00 -0.00000000000E+00 -0.15675509110E+04  0.15675509110E+04  0.25500000000E-02 0. -1.
    8880023    1    1    2    0    0 -0.11264227294E+03 -0.40540658648E+03  0.34995261456E+03  0.85634094887E+03  0.65864270000E+03 0.  1.
    8880022    1    1    2    0    0  0.11264227294E+03  0.40540658648E+03 -0.12762326889E+04  0.13524807988E+04  0.15294330000E+03 0.  0.
<mgrwt>
<rscale>  0 0.67994347E+03</rscale>
<asrwt>0</asrwt>
<pdfrwt beam="1">  1        2 0.24116168E+00 0.78157085E+03</pdfrwt>
<pdfrwt beam="2">  1       -2 0.98657052E-01 0.78157085E+03</pdfrwt>
<totfact> 0.10131865E+01</totfact>
</mgrwt>
</event>
<event>
 4    2  0.3388003E-007  0.1634904E+04  0.7818608E-02  0.8819818E-01
         -2   -1    0    0    0  501 -0.00000000000E+00  0.00000000000E+00  0.15815127188E+04  0.15815127188E+04  0.25500000000E-02 0.  1.
          2   -1    0    0  501    0  0.00000000000E+00 -0.00000000000E+00 -0.22087205182E+04  0.22087205182E+04  0.25500000000E-02 0. -1.
    8880023    1    1    2    0    0  0.12121825464E+04  0.87733409068E+03  0.70547723182E+03  0.17806206680E+04  0.65864270000E+03 0.  1.
    8880022    1    1    2    0    0 -0.12121825464E+04 -0.87733409068E+03 -0.13326850312E+04  0.20096125691E+04  0.15294330000E+03 0.  0.
<mgrwt>
<rscale>  0 0.16011892E+04</rscale>
<asrwt>0</asrwt>
<pdfrwt beam="1">  1        2 0.33980316E+00 0.16349042E+04</pdfrwt>
<pdfrwt beam="2">  1       -2 0.24330965E+00 0.16349042E+04</pdfrwt>
<totfact> 0.33331183E-01</totfact>
</mgrwt>
</event>
<event>
 4    2  0.3388003E-007  0.1207405E+04  0.7818608E-02  0.9149957E-01
          2   -1    0    0  501    0  0.00000000000E+00  0.00000000000E+00  0.24295412147E+04  0.24295412147E+04  0.25500000000E-02 0. -1.
         -2   -1    0    0    0  501 -0.00000000000E+00 -0.00000000000E+00 -0.75895314204E+03  0.75895314205E+03  0.25500000000E-02 0.  1.
    8880023    1    1    2    0    0 -0.19550889093E+03 -0.99287157447E+03  0.17889108928E+04  0.21582469920E+04  0.65864270000E+03 0. -1.
    8880022    1    1    2    0    0  0.19550889093E+03  0.99287157447E+03 -0.11832282012E+03  0.10302473648E+04  0.15294330000E+03 0.  0.
<mgrwt>
<rscale>  0 0.11585223E+04</rscale>
<asrwt>0</asrwt>
<pdfrwt beam="1">  1        2 0.37377557E+00 0.12074054E+04</pdfrwt>
<pdfrwt beam="2">  1       -2 0.11676202E+00 0.12074054E+04</pdfrwt>
<totfact> 0.21274241E+00</totfact>
</mgrwt>
</event>
<event>
 4    2  0.3388003E-007  0.1042273E+04  0.7818608E-02  0.9328228E-01
         -2   -1    0    0    0  501 -0.00000000000E+00  0.00000000000E+00  0.91349938587E+03  0.91349938588E+03  0.25500000000E-02 0.  1.
          2   -1    0    0  501    0  0.00000000000E+00 -0.00000000000E+00 -0.23456530438E+04  0.23456530438E+04  0.25500000000E-02 0. -1.
    8880023    1    1    2    0    0 -0.54840174729E+03 -0.59310894423E+03  0.50248248365E+03  0.11570745649E+04  0.65864270000E+03 0.  1.
    8880022    1    1    2    0    0  0.54840174729E+03  0.59310894423E+03 -0.19346361416E+04  0.21020778648E+04  0.15294330000E+03 0.  0.
<mgrwt>
<rscale>  0 0.98225118E+03</rscale>
<asrwt>0</asrwt>
<pdfrwt beam="1">  1        2 0.36086970E+00 0.10422730E+04</pdfrwt>
<pdfrwt beam="2">  1       -2 0.14053837E+00 0.10422730E+04</pdfrwt>
<totfact> 0.15141643E+00</totfact>
</mgrwt>
</event>
<event>
 4    2  0.3388003E-007  0.6791691E+03  0.7818608E-02  0.1009798E+00
          2   -1    0    0  501    0  0.00000000000E+00  0.00000000000E+00  0.75657103698E+03  0.75657103698E+03  0.25500000000E-02 0. -1.
         -2   -1    0    0    0  501 -0.00000000000E+00 -0.00000000000E+00 -0.45242183670E+03  0.45242183670E+03  0.25500000000E-02 0.  1.
    8880023    1    1    2    0    0 -0.39917605762E+02  0.16083221965E+03 -0.15573549371E+03  0.69679564321E+03  0.65864270000E+03 0.  1.
    8880022    1    1    2    0    0  0.39917605762E+02 -0.16083221965E+03  0.45988469399E+03  0.51219723048E+03  0.15294330000E+03 0.  0.
<mgrwt>
<rscale>  0 0.51555144E+03</rscale>
<asrwt>0</asrwt>
<pdfrwt beam="1">  1        2 0.11639554E+00 0.67916907E+03</pdfrwt>
<pdfrwt beam="2">  1       -2 0.69603361E-01 0.67916907E+03</pdfrwt>
<totfact> 0.71053201E+01</totfact>
</mgrwt>
</event>
<event>
 4    2  0.3388003E-007  0.7009579E+03  0.7818608E-02  0.9993250E-01
          2   -1    0    0  501    0  0.00000000000E+00  0.00000000000E+00  0.25311906547E+04  0.25311906547E+04  0.25500000000E-02 0. -1.
         -2   -1    0    0    0  501 -0.00000000000E+00 -0.00000000000E+00 -0.12971165442E+03  0.12971165445E+03  0.25500000000E-02 0.  1.
    8880023    1    1    2    0    0  0.16370127869E+03 -0.17531037897E+03  0.94325555646E+03  0.11751906606E+04  0.65864270000E+03 0.  1.
    8880022    1    1    2    0    0 -0.16370127869E+03  0.17531037897E+03  0.14582234439E+04  0.14857116486E+04  0.15294330000E+03 0.  0.
<mgrwt>
<rscale>  0 0.55947193E+03</rscale>
<asrwt>0</asrwt>
<pdfrwt beam="1">  1        2 0.38941394E+00 0.70095795E+03</pdfrwt>
<pdfrwt beam="2">  1       -2 0.19955639E-01 0.70095795E+03</pdfrwt>
<totfact> 0.74860969E+01</totfact>
</mgrwt>
</event>
<event>
 4    2  0.3388003E-007  0.7558021E+03  0.7818608E-02  0.9816099E-01
          2   -1    0    0  501    0  0.00000000000E+00  0.00000000000E+00  0.16420983844E+04  0.16420983844E+04  0.25500000000E-02 0. -1.
         -2   -1    0    0    0  501 -0.00000000000E+00 -0.00000000000E+00 -0.31940359102E+03  0.31940359103E+03  0.25500000000E-02 0.  1.
    8880023    1    1    2    0    0 -0.29741879448E+03 -0.22128850071E+03  0.21851751971E+03  0.78675704797E+03  0.65864270000E+03 0.  1.
    8880022    1    1    2    0    0  0.29741879448E+03  0.22128850071E+03  0.11041772737E+04  0.11747449275E+04  0.15294330000E+03 0.  0.
<mgrwt>
<rscale>  0 0.64505679E+03</rscale>
<asrwt>0</asrwt>
<pdfrwt beam="1">  1        2 0.25263053E+00 0.75580205E+03</pdfrwt>
<pdfrwt beam="2">  1       -2 0.49139013E-01 0.75580205E+03</pdfrwt>
<totfact> 0.42406359E+01</totfact>
</mgrwt>
</event>
<event>
 4    2  0.3388003E-007  0.6686678E+03  0.7818608E-02  0.1016636E+00
          2   -1    0    0  501    0  0.00000000000E+00  0.00000000000E+00  0.70325933721E+03  0.70325933721E+03  0.25500000000E-02 0. -1.
         -2   -1    0    0    0  501 -0.00000000000E+00 -0.00000000000E+00 -0.49896768227E+03  0.49896768228E+03  0.25500000000E-02 0.  1.
    8880023    1    1    2    0    0  0.11533494354E+03 -0.20780643978E+01 -0.24631314726E+03  0.71259163645E+03  0.65864270000E+03 0.  0.
    8880022    1    1    2    0    0 -0.11533494354E+03  0.20780643978E+01  0.45060480220E+03  0.48963538305E+03  0.15294330000E+03 0. -1.
<mgrwt>
<rscale>  0 0.48920209E+03</rscale>
<asrwt>0</asrwt>
<pdfrwt beam="1">  1        2 0.10819374E+00 0.66866784E+03</pdfrwt>
<pdfrwt beam="2">  1       -2 0.76764258E-01 0.66866784E+03</pdfrwt>
<totfact> 0.62928297E+01</totfact>
</mgrwt>
</event>
<event>
 4    2  0.3388003E-007  0.1376244E+04  0.7818608E-02  0.9002365E-01
         -2   -1    0    0    0  501 -0.00000000000E+00  0.00000000000E+00  0.85162763395E+03  0.85162763396E+03  0.25500000000E-02 0.  1.
          2   -1    0    0  501    0  0.00000000000E+00 -0.00000000000E+00 -0.20884470340E+04  0.20884470340E+04  0.25500000000E-02 0. -1.
    8880023    1    1    2    0    0 -0.11432095041E+04  0.39154717508E+03 -0.31316118465E+03  0.14114238535E+04  0.65864270000E+03 0.  0.
    8880022    1    1    2    0    0  0.11432095041E+04 -0.39154717508E+03 -0.92365821535E+03  0.15286508144E+04  0.15294330000E+03 0.  0.
<mgrwt>
<rscale>  0 0.13348646E+04</rscale>
<asrwt>0</asrwt>
<pdfrwt beam="1">  1        2 0.32129954E+00 0.13762439E+04</pdfrwt>
<pdfrwt beam="2">  1       -2 0.13101964E+00 0.13762439E+04</pdfrwt>
<totfact> 0.24330915E+00</totfact>
</mgrwt>
</event>
<event>
 4    2  0.3388003E-007  0.7423415E+03  0.7818608E-02  0.9853178E-01
         -2   -1    0    0    0  501 -0.00000000000E+00  0.00000000000E+00  0.11650845257E+03  0.11650845260E+03  0.25500000000E-02 0.  1.
          2   -1    0    0  501    0  0.00000000000E+00 -0.00000000000E+00 -0.28762958987E+04  0.28762958987E+04  0.25500000000E-02 0. -1.
    8880023    1    1    2    0    0 -0.34191891098E+03  0.18765015527E+02 -0.14307786772E+04  0.16118928305E+04  0.65864270000E+03 0.  1.
    8880022    1    1    2    0    0  0.34191891098E+03 -0.18765015527E+02 -0.13290087689E+04  0.13809115208E+04  0.15294330000E+03 0.  0.
<mgrwt>
<rscale>  0 0.62585130E+03</rscale>
<asrwt>0</asrwt>
<pdfrwt beam="1">  1        2 0.44250701E+00 0.74234148E+03</pdfrwt>
<pdfrwt beam="2">  1       -2 0.17924380E-01 0.74234148E+03</pdfrwt>
<totfact> 0.56470485E+01</totfact>
</mgrwt>
</event>
<event>
 4    2  0.3388003E-007  0.6758630E+03  0.7818608E-02  0.1011768E+00
          2   -1    0    0  501    0  0.00000000000E+00  0.00000000000E+00  0.11122151217E+04  0.11122151217E+04  0.25500000000E-02 0. -1.
         -2   -1    0    0    0  501 -0.00000000000E+00 -0.00000000000E+00 -0.20816757528E+03  0.20816757529E+03  0.25500000000E-02 0.  1.
    8880023    1    1    2    0    0  0.84900495781E+02 -0.12558870419E+03  0.43360620200E+03  0.80299760988E+03  0.65864270000E+03 0.  0.
    8880022    1    1    2    0    0 -0.84900495781E+02  0.12558870419E+03  0.47044134438E+03  0.51738508707E+03  0.15294330000E+03 0.  0.
<mgrwt>
<rscale>  0 0.50778084E+03</rscale>
<asrwt>0</asrwt>
<pdfrwt beam="1">  1        2 0.17111002E+00 0.67586302E+03</pdfrwt>
<pdfrwt beam="2">  1       -2 0.32025781E-01 0.67586302E+03</pdfrwt>
<totfact> 0.19724928E+02</totfact>
</mgrwt>
</event>
<event>
 4    2  0.3388003E-007  0.9515099E+03  0.7818608E-02  0.9447945E-01
         -2   -1    0    0    0  501 -0.00000000000E+00  0.00000000000E+00  0.77216455867E+03  0.77216455867E+03  0.25500000000E-02 0.  1.
          2   -1    0    0  501    0  0.00000000000E+00 -0.00000000000E+00 -0.13298549194E+04  0.13298549194E+04  0.25500000000E-02 0. -1.
    8880023    1    1    2    0    0  0.57317143161E+03 -0.37820029764E+03  0.29534881562E+03  0.99629417558E+03  0.65864270000E+03 0.  0.
    8880022    1    1    2    0    0 -0.57317143161E+03  0.37820029764E+03 -0.85303917632E+03  0.11057253025E+04  0.15294330000E+03 0.  0.
<mgrwt>
<rscale>  0 0.88232879E+03</rscale>
<asrwt>0</asrwt>
<pdfrwt beam="1">  1        2 0.20459306E+00 0.95150994E+03</pdfrwt>
<pdfrwt beam="2">  1       -2 0.11879455E+00 0.95150994E+03</pdfrwt>
<totfact> 0.86313626E+00</totfact>
</mgrwt>
</event>
<event>
 4    2  0.3388003E-007  0.9406477E+03  0.7818608E-02  0.9463700E-01
          2   -1    0    0  501    0  0.00000000000E+00  0.00000000000E+00  0.36480184666E+04  0.36480184666E+04  0.25500000000E-02 0. -1.
         -2   -1    0    0    0  501 -0.00000000000E+00 -0.00000000000E+00 -0.28775410366E+03  0.28775410367E+03  0.25500000000E-02 0.  1.
    8880023    1    1    2    0    0  0.35138528843E+03  0.57230777220E+03  0.66011461054E+03  0.11491602640E+04  0.65864270000E+03 0.  0.
    8880022    1    1    2    0    0 -0.35138528843E+03 -0.57230777220E+03  0.27001497524E+04  0.27866123063E+04  0.15294330000E+03 0.  0.
<mgrwt>
<rscale>  0 0.87013824E+03</rscale>
<asrwt>0</asrwt>
<pdfrwt beam="1">  1        2 0.56123361E+00 0.94064766E+03</pdfrwt>
<pdfrwt beam="2">  1       -2 0.44269862E-01 0.94064766E+03</pdfrwt>
<totfact> 0.32451461E+00</totfact>
</mgrwt>
</event>
<event>
 4    2  0.3388003E-007  0.8080896E+03  0.7818608E-02  0.9693570E-01
          2   -1    0    0  501    0  0.00000000000E+00  0.00000000000E+00  0.23000706756E+04  0.23000706756E+04  0.25500000000E-02 0. -1.
         -2   -1    0    0    0  501 -0.00000000000E+00 -0.00000000000E+00 -0.49592211246E+03  0.49592211247E+03  0.25500000000E-02 0.  1.
    8880023    1    1    2    0    0  0.27648677079E+03 -0.37782763767E+03 -0.11357293470E+03  0.81603166358E+03  0.65864270000E+03 0.  1.
    8880022    1    1    2    0    0 -0.27648677079E+03  0.37782763767E+03  0.19177214979E+04  0.19799611245E+04  0.15294330000E+03 0.  0.
<mgrwt>
<rscale>  0 0.71400925E+03</rscale>
<asrwt>0</asrwt>
<pdfrwt beam="1">  1        2 0.35385703E+00 0.80808964E+03</pdfrwt>
<pdfrwt beam="2">  1       -2 0.76295708E-01 0.80808964E+03</pdfrwt>
<totfact> 0.72045334E+00</totfact>
</mgrwt>
</event>
<event>
 4    2  0.3388003E-007  0.8017169E+03  0.7818608E-02  0.9707096E-01
          2   -1    0    0  501    0  0.00000000000E+00  0.00000000000E+00  0.81047238369E+03  0.81047238370E+03  0.25500000000E-02 0. -1.
         -2   -1    0    0    0  501 -0.00000000000E+00 -0.00000000000E+00 -0.60497284534E+03  0.60497284535E+03  0.25500000000E-02 0.  1.
    8880023    1    1    2    0    0 -0.15674753421E+03  0.42938321103E+03  0.39964785571E+03  0.89580597577E+03  0.65864270000E+03 0.  0.
    8880022    1    1    2    0    0  0.15674753421E+03 -0.42938321103E+03 -0.19414831735E+03  0.51963925327E+03  0.15294330000E+03 0.  0.
<mgrwt>
<rscale>  0 0.70595863E+03</rscale>
<asrwt>0</asrwt>
<pdfrwt beam="1">  1        2 0.12468806E+00 0.80171687E+03</pdfrwt>
<pdfrwt beam="2">  1       -2 0.93072746E-01 0.80171687E+03</pdfrwt>
<totfact> 0.33418687E+01</totfact>
</mgrwt>
</event>
<event>
 4    2  0.3388003E-007  0.6662114E+03  0.7818608E-02  0.1018538E+00
          2   -1    0    0  501    0  0.00000000000E+00  0.00000000000E+00  0.25060204791E+03  0.25060204792E+03  0.25500000000E-02 0. -1.
         -2   -1    0    0    0  501 -0.00000000000E+00 -0.00000000000E+00 -0.16122008585E+04  0.16122008585E+04  0.25500000000E-02 0.  1.
    8880023    1    1    2    0    0  0.23786371452E+02  0.97271121750E+02 -0.14948485739E+04  0.16365848367E+04  0.65864270000E+03 0.  1.
    8880022    1    1    2    0    0 -0.23786371452E+02 -0.97271121750E+02  0.13324976336E+03  0.22621806967E+03  0.15294330000E+03 0.  0.
<mgrwt>
<rscale>  0 0.48217915E+03</rscale>
<asrwt>0</asrwt>
<pdfrwt beam="1">  1        2 0.38554162E-01 0.66621143E+03</pdfrwt>
<pdfrwt beam="2">  1       -2 0.24803089E+00 0.66621143E+03</pdfrwt>
<totfact> 0.91876000E+00</totfact>
</mgrwt>
</event>
<event>
 4    2  0.3388003E-007  0.1016464E+04  0.7818608E-02  0.9360328E-01
          2   -1    0    0  501    0  0.00000000000E+00  0.00000000000E+00  0.25782387203E+04  0.25782387203E+04  0.25500000000E-02 0. -1.
         -2   -1    0    0    0  501 -0.00000000000E+00 -0.00000000000E+00 -0.50209634265E+03  0.50209634265E+03  0.25500000000E-02 0.  1.
    8880023    1    1    2    0    0  0.73527398153E+03 -0.24240503487E+03  0.18772274916E+03  0.10336527781E+04  0.65864270000E+03 0.  1.
    8880022    1    1    2    0    0 -0.73527398153E+03  0.24240503487E+03  0.18884196285E+04  0.20466822848E+04  0.15294330000E+03 0.  0.
<mgrwt>
<rscale>  0 0.95413686E+03</rscale>
<asrwt>0</asrwt>
<pdfrwt beam="1">  1        2 0.39665211E+00 0.10164636E+04</pdfrwt>
<pdfrwt beam="2">  1       -2 0.77245592E-01 0.10164636E+04</pdfrwt>
<totfact> 0.47322024E+00</totfact>
</mgrwt>
</event>
<event>
 4    2  0.3388003E-007  0.7791973E+03  0.7818608E-02  0.9757726E-01
         -2   -1    0    0    0  501 -0.00000000000E+00  0.00000000000E+00  0.54224562786E+03  0.54224562786E+03  0.25500000000E-02 0.  1.
          2   -1    0    0  501    0  0.00000000000E+00 -0.00000000000E+00 -0.10483864489E+04  0.10483864489E+04  0.25500000000E-02 0. -1.
    8880023    1    1    2    0    0 -0.39728190512E+03 -0.12452022726E+03  0.15502829772E+03  0.79446974674E+03  0.65864270000E+03 0.  1.
    8880022    1    1    2    0    0  0.39728190512E+03  0.12452022726E+03 -0.66116911880E+03  0.79616233006E+03  0.15294330000E+03 0.  0.
<mgrwt>
<rscale>  0 0.67681403E+03</rscale>
<asrwt>0</asrwt>
<pdfrwt beam="1">  1        2 0.16129022E+00 0.77919728E+03</pdfrwt>
<pdfrwt beam="2">  1       -2 0.83422404E-01 0.77919728E+03</pdfrwt>
<totfact> 0.29910311E+01</totfact>
</mgrwt>
</event>
<event>
 4    2  0.3388003E-007  0.7339167E+03  0.7818608E-02  0.9878035E-01
         -2   -1    0    0    0  501 -0.00000000000E+00  0.00000000000E+00  0.40037809015E+03  0.40037809016E+03  0.25500000000E-02 0.  1.
          2   -1    0    0  501    0  0.00000000000E+00 -0.00000000000E+00 -0.99955847367E+03  0.99955847368E+03  0.25500000000E-02 0. -1.
    8880023    1    1    2    0    0  0.28435446828E+03  0.15480993007E+03 -0.38822052065E+02  0.73494281143E+03  0.65864270000E+03 0.  0.
    8880022    1    1    2    0    0 -0.28435446828E+03 -0.15480993007E+03 -0.56035833146E+03  0.66499375240E+03  0.15294330000E+03 0.  0.
<mgrwt>
<rscale>  0 0.61337709E+03</rscale>
<asrwt>0</asrwt>
<pdfrwt beam="1">  1        2 0.15377823E+00 0.73391674E+03</pdfrwt>
<pdfrwt beam="2">  1       -2 0.61596630E-01 0.73391674E+03</pdfrwt>
<totfact> 0.62749442E+01</totfact>
</mgrwt>
</event>
<event>
 4    2  0.3388003E-007  0.6742599E+03  0.7818608E-02  0.1012777E+00
         -2   -1    0    0    0  501 -0.00000000000E+00  0.00000000000E+00  0.74690553223E+02  0.74690553267E+02  0.25500000000E-02 0.  1.
          2   -1    0    0  501    0  0.00000000000E+00 -0.00000000000E+00 -0.30051426320E+04  0.30051426320E+04  0.25500000000E-02 0. -1.
    8880023    1    1    2    0    0 -0.11323525971E+03 -0.89409294870E+02 -0.16535500803E+04  0.17857363525E+04  0.65864270000E+03 0.  1.
    8880022    1    1    2    0    0  0.11323525971E+03  0.89409294870E+02 -0.12769019985E+04  0.12940968328E+04  0.15294330000E+03 0.  0.
<mgrwt>
<rscale>  0 0.50385781E+03</rscale>
<asrwt>0</asrwt>
<pdfrwt beam="1">  1        2 0.46232954E+00 0.67425993E+03</pdfrwt>
<pdfrwt beam="2">  1       -2 0.11490857E-01 0.67425993E+03</pdfrwt>
<totfact> 0.10072981E+02</totfact>
</mgrwt>
</event>
<event>
 4    2  0.3388003E-007  0.6606452E+03  0.7818608E-02  0.1023505E+00
         -2   -1    0    0    0  501 -0.00000000000E+00  0.00000000000E+00  0.70339228995E+03  0.70339228996E+03  0.25500000000E-02 0.  1.
          2   -1    0    0  501    0  0.00000000000E+00 -0.00000000000E+00 -0.88787748679E+03  0.88787748679E+03  0.25500000000E-02 0. -1.
    8880023    1    1    2    0    0  0.19801150417E+02 -0.47431871912E+02  0.53737268365E+03  0.85159936321E+03  0.65864270000E+03 0.  1.
    8880022    1    1    2    0    0 -0.19801150417E+02  0.47431871912E+02 -0.72185788048E+03  0.73967041354E+03  0.15294330000E+03 0.  0.
<mgrwt>
<rscale>  0 0.46442739E+03</rscale>
<asrwt>0</asrwt>
<pdfrwt beam="1">  1        2 0.13659654E+00 0.66064520E+03</pdfrwt>
<pdfrwt beam="2">  1       -2 0.10821420E+00 0.66064520E+03</pdfrwt>
<totfact> 0.20938654E+01</totfact>
</mgrwt>
</event>
<event>
 4    2  0.3388003E-007  0.6695981E+03  0.7818608E-02  0.1015953E+00
          2   -1    0    0  501    0  0.00000000000E+00  0.00000000000E+00  0.10810880058E+04  0.10810880058E+04  0.25500000000E-02 0. -1.
         -2   -1    0    0    0  501 -0.00000000000E+00 -0.00000000000E+00 -0.21854360236E+03  0.21854360237E+03  0.25500000000E-02 0.  1.
    8880023    1    1    2    0    0 -0.74456349958E+02 -0.94908688991E+02  0.35908836925E+03  0.75980660072E+03  0.65864270000E+03 0.  1.
    8880022    1    1    2    0    0  0.74456349958E+02  0.94908688991E+02  0.50345603415E+03  0.53982500742E+03  0.15294330000E+03 0.  0.
<mgrwt>
<rscale>  0 0.49175887E+03</rscale>
<asrwt>0</asrwt>
<pdfrwt beam="1">  1        2 0.16632123E+00 0.66959810E+03</pdfrwt>
<pdfrwt beam="2">  1       -2 0.33622093E-01 0.66959810E+03</pdfrwt>
<totfact> 0.18814104E+02</totfact>
</mgrwt>
</event>
<event>
 4    2  0.3388003E-007  0.7144525E+03  0.7818608E-02  0.9941824E-01
         -2   -1    0    0    0  501 -0.00000000000E+00  0.00000000000E+00  0.25898935274E+03  0.25898935275E+03  0.25500000000E-02 0.  1.
          2   -1    0    0  501    0  0.00000000000E+00 -0.00000000000E+00 -0.13920585435E+04  0.13920585435E+04  0.25500000000E-02 0. -1.
    8880023    1    1    2    0    0 -0.18920198316E+03  0.20207629463E+03 -0.32811930189E+03  0.78619635068E+03  0.65864270000E+03 0.  1.
    8880022    1    1    2    0    0  0.18920198316E+03 -0.20207629463E+03 -0.80494988884E+03  0.86485154555E+03  0.15294330000E+03 0.  0.
<mgrwt>
<rscale>  0 0.58276437E+03</rscale>
<asrwt>0</asrwt>
<pdfrwt beam="1">  1        2 0.21416285E+00 0.71445254E+03</pdfrwt>
<pdfrwt beam="2">  1       -2 0.39844517E-01 0.71445254E+03</pdfrwt>
<totfact> 0.88975517E+01</totfact>
</mgrwt>
</event>
<event>
 4    2  0.3388003E-007  0.6867624E+03  0.7818608E-02  0.1005731E+00
         -2   -1    0    0    0  501 -0.00000000000E+00  0.00000000000E+00  0.11026983559E+04  0.11026983559E+04  0.25500000000E-02 0.  1.
          2   -1    0    0  501    0  0.00000000000E+00 -0.00000000000E+00 -0.29264203995E+03  0.29264203996E+03  0.25500000000E-02 0. -1.
    8880023    1    1    2    0    0  0.11482628843E+03 -0.15699462627E+03  0.89997228489E+03  0.11320745157E+04  0.65864270000E+03 0.  0.
    8880022    1    1    2    0    0 -0.11482628843E+03  0.15699462627E+03 -0.89915968942E+02  0.26326588020E+03  0.15294330000E+03 0.  0.
<mgrwt>
<rscale>  0 0.53207167E+03</rscale>
<asrwt>0</asrwt>
<pdfrwt beam="1">  1        2 0.45021853E-01 0.68676240E+03</pdfrwt>
<pdfrwt beam="2">  1       -2 0.16964590E+00 0.68676240E+03</pdfrwt>
<totfact> 0.24645297E+01</totfact>
</mgrwt>
</event>
<event>
 4    2  0.3388003E-007  0.6820692E+03  0.7818608E-02  0.1008177E+00
          2   -1    0    0  501    0  0.00000000000E+00  0.00000000000E+00  0.11665370964E+04  0.11665370964E+04  0.25500000000E-02 0. -1.
         -2   -1    0    0    0  501 -0.00000000000E+00 -0.00000000000E+00 -0.47364862630E+03  0.47364862631E+03  0.25500000000E-02 0.  1.
    8880023    1    1    2    0    0 -0.17678114207E+03 -0.12512513446E+02 -0.20505798598E+03  0.71222687331E+03  0.65864270000E+03 0.  1.
    8880022    1    1    2    0    0  0.17678114207E+03  0.12512513446E+02  0.89794645612E+03  0.92795884944E+03  0.15294330000E+03 0.  0.
<mgrwt>
<rscale>  0 0.52205790E+03</rscale>
<asrwt>0</asrwt>
<pdfrwt beam="1">  1        2 0.17946724E+00 0.68206916E+03</pdfrwt>
<pdfrwt beam="2">  1       -2 0.72869020E-01 0.68206916E+03</pdfrwt>
<totfact> 0.34620994E+01</totfact>
</mgrwt>
</event>
<event>
 4    2  0.3388003E-007  0.1587521E+04  0.7818608E-02  0.8850185E-01
          2   -1    0    0  501    0  0.00000000000E+00  0.00000000000E+00  0.42840179818E+04  0.42840179818E+04  0.25500000000E-02 0. -1.
         -2   -1    0    0    0  501 -0.00000000000E+00 -0.00000000000E+00 -0.12606726093E+04  0.12606726093E+04  0.25500000000E-02 0.  1.
    8880023    1    1    2    0    0  0.13660618593E+04 -0.46934934426E+03 -0.55582679192E+03  0.16820129129E+04  0.65864270000E+03 0.  0.
    8880022    1    1    2    0    0 -0.13660618593E+04  0.46934934426E+03  0.35791721644E+04  0.38626776782E+04  0.15294330000E+03 0.  0.
<mgrwt>
<rscale>  0 0.15526372E+04</rscale>
<asrwt>0</asrwt>
<pdfrwt beam="1">  1        2 0.65907969E+00 0.15875213E+04</pdfrwt>
<pdfrwt beam="2">  1       -2 0.19394963E+00 0.15875213E+04</pdfrwt>
<totfact> 0.27135933E-02</totfact>
</mgrwt>
</event>
<event>
 4    2  0.3388003E-007  0.6914270E+03  0.7818608E-02  0.1003482E+00
          2   -1    0    0  501    0  0.00000000000E+00  0.00000000000E+00  0.25114820617E+04  0.25114820617E+04  0.25500000000E-02 0. -1.
         -2   -1    0    0    0  501 -0.00000000000E+00 -0.00000000000E+00 -0.21345538326E+03  0.21345538327E+03  0.25500000000E-02 0.  1.
    8880023    1    1    2    0    0  0.20968925573E+03 -0.17073916988E+02  0.37924151652E+03  0.78860347243E+03  0.65864270000E+03 0.  1.
    8880022    1    1    2    0    0 -0.20968925573E+03  0.17073916988E+02  0.19187851619E+04  0.19363339726E+04  0.15294330000E+03 0.  0.
<mgrwt>
<rscale>  0 0.54149624E+03</rscale>
<asrwt>0</asrwt>
<pdfrwt beam="1">  1        2 0.38638181E+00 0.69142701E+03</pdfrwt>
<pdfrwt beam="2">  1       -2 0.32839294E-01 0.69142701E+03</pdfrwt>
<totfact> 0.31213933E+01</totfact>
</mgrwt>
</event>
<event>
 4    2  0.3388003E-007  0.7708950E+03  0.7818608E-02  0.9777676E-01
          2   -1    0    0  501    0  0.00000000000E+00  0.00000000000E+00  0.33510718298E+04  0.33510718298E+04  0.25500000000E-02 0. -1.
         -2   -1    0    0    0  501 -0.00000000000E+00 -0.00000000000E+00 -0.16401005994E+03  0.16401005996E+03  0.25500000000E-02 0.  1.
    8880023    1    1    2    0    0  0.35564031602E+03 -0.18436084263E+03  0.88606852949E+03  0.11744771602E+04  0.65864270000E+03 0.  1.
    8880022    1    1    2    0    0 -0.35564031602E+03  0.18436084263E+03  0.23009932404E+04  0.23406047296E+04  0.15294330000E+03 0.  0.
<mgrwt>
<rscale>  0 0.66574440E+03</rscale>
<asrwt>0</asrwt>
<pdfrwt beam="1">  1        2 0.51554946E+00 0.77089504E+03</pdfrwt>
<pdfrwt beam="2">  1       -2 0.25232320E-01 0.77089504E+03</pdfrwt>
<totfact> 0.15497969E+01</totfact>
</mgrwt>
</event>
<event>
 4    2  0.3388003E-007  0.6697390E+03  0.7818608E-02  0.1015851E+00
          2   -1    0    0  501    0  0.00000000000E+00  0.00000000000E+00  0.33901664799E+03  0.33901664800E+03  0.25500000000E-02 0. -1.
         -2   -1    0    0    0  501 -0.00000000000E+00 -0.00000000000E+00 -0.73400914846E+03  0.73400914847E+03  0.25500000000E-02 0.  1.
    8880023    1    1    2    0    0  0.62927875357E+02  0.10382760186E+03 -0.51409102109E+03  0.84429844998E+03  0.65864270000E+03 0.  1.
    8880022    1    1    2    0    0 -0.62927875357E+02 -0.10382760186E+03  0.11909852062E+03  0.22872734649E+03  0.15294330000E+03 0.  0.
<mgrwt>
<rscale>  0 0.49214152E+03</rscale>
<asrwt>0</asrwt>
<pdfrwt beam="1">  1        2 0.52156408E-01 0.66973898E+03</pdfrwt>
<pdfrwt beam="2">  1       -2 0.11292448E+00 0.66973898E+03</pdfrwt>
<totfact> 0.59946474E+01</totfact>
</mgrwt>
</event>
<event>
 4    2  0.3388003E-007  0.8977874E+03  0.7818608E-02  0.9529593E-01
          2   -1    0    0  501    0  0.00000000000E+00  0.00000000000E+00  0.14041148255E+04  0.14041148255E+04  0.25500000000E-02 0. -1.
         -2   -1    0    0    0  501 -0.00000000000E+00 -0.00000000000E+00 -0.51755881032E+03  0.51755881033E+03  0.25500000000E-02 0.  1.
    8880023    1    1    2    0    0 -0.20005813251E+03  0.57635810931E+03  0.92817343973E+03  0.12913280246E+04  0.65864270000E+03 0. -1.
    8880022    1    1    2    0    0  0.20005813251E+03 -0.57635810931E+03 -0.41617424584E+02  0.63034561123E+03  0.15294330000E+03 0.  0.
<mgrwt>
<rscale>  0 0.82136774E+03</rscale>
<asrwt>0</asrwt>
<pdfrwt beam="1">  1        2 0.21601766E+00 0.89778735E+03</pdfrwt>
<pdfrwt beam="2">  1       -2 0.79624433E-01 0.89778735E+03</pdfrwt>
<totfact> 0.20228796E+01</totfact>
</mgrwt>
</event>
<event>
 4    2  0.3388003E-007  0.7790863E+03  0.7818608E-02  0.9757988E-01
         -2   -1    0    0    0  501 -0.00000000000E+00  0.00000000000E+00  0.49172409237E+03  0.49172409238E+03  0.25500000000E-02 0.  1.
          2   -1    0    0  501    0  0.00000000000E+00 -0.00000000000E+00 -0.88169220300E+03  0.88169220300E+03  0.25500000000E-02 0. -1.
    8880023    1    1    2    0    0 -0.29465616803E+03 -0.29384189348E+03  0.58163297506E+01  0.77910804878E+03  0.65864270000E+03 0.  0.
    8880022    1    1    2    0    0  0.29465616803E+03  0.29384189348E+03 -0.39578444037E+03  0.59430824660E+03  0.15294330000E+03 0.  0.
<mgrwt>
<rscale>  0 0.67666739E+03</rscale>
<asrwt>0</asrwt>
<pdfrwt beam="1">  1        2 0.13564495E+00 0.77908634E+03</pdfrwt>
<pdfrwt beam="2">  1       -2 0.75649860E-01 0.77908634E+03</pdfrwt>
<totfact> 0.47837767E+01</totfact>
</mgrwt>
</event>
<event>
 4    2  0.3388003E-007  0.1309711E+04  0.7818608E-02  0.9057219E-01
          2   -1    0    0  501    0  0.00000000000E+00  0.00000000000E+00  0.18503911301E+04  0.18503911301E+04  0.25500000000E-02 0. -1.
         -2   -1    0    0    0  501 -0.00000000000E+00 -0.00000000000E+00 -0.86872001796E+03  0.86872001797E+03  0.25500000000E-02 0.  1.
    8880023    1    1    2    0    0 -0.37952862436E+03  0.10665325280E+04  0.17654072869E+03  0.13215560696E+04  0.65864270000E+03 0.  0.
    8880022    1    1    2    0    0  0.37952862436E+03 -0.10665325280E+04  0.80513038347E+03  0.13975550785E+04  0.15294330000E+03 0.  0.
<mgrwt>
<rscale>  0 0.12656974E+04</rscale>
<asrwt>0</asrwt>
<pdfrwt beam="1">  1        2 0.28467556E+00 0.13097113E+04</pdfrwt>
<pdfrwt beam="2">  1       -2 0.13364923E+00 0.13097113E+04</pdfrwt>
<totfact> 0.31555804E+00</totfact>
</mgrwt>
</event>
<event>
 4    2  0.3388003E-007  0.9621531E+03  0.7818608E-02  0.9432840E-01
         -2   -1    0    0    0  501 -0.00000000000E+00  0.00000000000E+00  0.12266859304E+04  0.12266859304E+04  0.25500000000E-02 0.  1.
          2   -1    0    0  501    0  0.00000000000E+00 -0.00000000000E+00 -0.13379774574E+04  0.13379774574E+04  0.25500000000E-02 0. -1.
    8880023    1    1    2    0    0 -0.33627139564E+03  0.61550787711E+03  0.90467651563E+03  0.13206733898E+04  0.65864270000E+03 0.  1.
    8880022    1    1    2    0    0  0.33627139564E+03 -0.61550787711E+03 -0.10159680427E+04  0.12439899980E+04  0.15294330000E+03 0.  0.
<mgrwt>
<rscale>  0 0.89421669E+03</rscale>
<asrwt>0</asrwt>
<pdfrwt beam="1">  1        2 0.20584269E+00 0.96215311E+03</pdfrwt>
<pdfrwt beam="2">  1       -2 0.18872091E+00 0.96215311E+03</pdfrwt>
<totfact> 0.24762118E+00</totfact>
</mgrwt>
</event>
<event>
 4    2  0.3388003E-007  0.7963966E+03  0.7818608E-02  0.9718642E-01
          2   -1    0    0  501    0  0.00000000000E+00  0.00000000000E+00  0.30295056563E+04  0.30295056563E+04  0.25500000000E-02 0. -1.
         -2   -1    0    0    0  501 -0.00000000000E+00 -0.00000000000E+00 -0.15366736548E+03  0.15366736550E+03  0.25500000000E-02 0.  1.
    8880023    1    1    2    0    0 -0.25734441644E+03 -0.36634853132E+03  0.11876965808E+04  0.14299897794E+04  0.65864270000E+03 0.  0.
    8880022    1    1    2    0    0  0.25734441644E+03  0.36634853132E+03  0.16881417100E+04  0.17531832423E+04  0.15294330000E+03 0.  0.
<mgrwt>
<rscale>  0 0.69917617E+03</rscale>
<asrwt>0</asrwt>
<pdfrwt beam="1">  1        2 0.46607772E+00 0.79639664E+03</pdfrwt>
<pdfrwt beam="2">  1       -2 0.23641137E-01 0.79639664E+03</pdfrwt>
<totfact> 0.27802148E+01</totfact>
</mgrwt>
</event>
<event>
 4    2  0.3388003E-007  0.6973679E+03  0.7818608E-02  0.1000830E+00
          2   -1    0    0  501    0  0.00000000000E+00  0.00000000000E+00  0.20456998054E+04  0.20456998054E+04  0.25500000000E-02 0. -1.
         -2   -1    0    0    0  501 -0.00000000000E+00 -0.00000000000E+00 -0.12045470927E+03  0.12045470930E+03  0.25500000000E-02 0.  1.
    8880023    1    1    2    0    0 -0.18884618110E+03 -0.12980344406E+03  0.11679929055E+04  0.13603416659E+04  0.65864270000E+03 0.  0.
    8880022    1    1    2    0    0  0.18884618110E+03  0.12980344406E+03  0.75725219058E+03  0.80581284884E+03  0.15294330000E+03 0.  1.
<mgrwt>
<rscale>  0 0.55287783E+03</rscale>
<asrwt>0</asrwt>
<pdfrwt beam="1">  1        2 0.31472303E+00 0.69736792E+03</pdfrwt>
<pdfrwt beam="2">  1       -2 0.18531495E-01 0.69736792E+03</pdfrwt>
<totfact> 0.15837185E+02</totfact>
</mgrwt>
</event>
<event>
 4    2  0.3388003E-007  0.7216838E+03  0.7818608E-02  0.9916929E-01
          2   -1    0    0  501    0  0.00000000000E+00  0.00000000000E+00  0.67345955678E+03  0.67345955679E+03  0.25500000000E-02 0. -1.
         -2   -1    0    0    0  501 -0.00000000000E+00 -0.00000000000E+00 -0.43048306102E+03  0.43048306102E+03  0.25500000000E-02 0.  1.
    8880023    1    1    2    0    0 -0.13547822689E+03 -0.26203627823E+03  0.58900485664E+02  0.72408344446E+03  0.65864270000E+03 0.  1.
    8880022    1    1    2    0    0  0.13547822689E+03  0.26203627823E+03  0.18407601010E+03  0.37985917335E+03  0.15294330000E+03 0. -1.
<mgrwt>
<rscale>  0 0.59447802E+03</rscale>
<asrwt>0</asrwt>
<pdfrwt beam="1">  1        2 0.10360916E+00 0.72168384E+03</pdfrwt>
<pdfrwt beam="2">  1       -2 0.66228164E-01 0.72168384E+03</pdfrwt>
<totfact> 0.91441880E+01</totfact>
</mgrwt>
</event>
<event>
 4    2  0.3388003E-007  0.8162006E+03  0.7818608E-02  0.9676803E-01
          2   -1    0    0  501    0  0.00000000000E+00  0.00000000000E+00  0.94162148530E+03  0.94162148530E+03  0.25500000000E-02 0. -1.
         -2   -1    0    0    0  501 -0.00000000000E+00 -0.00000000000E+00 -0.77484680990E+03  0.77484680990E+03  0.25500000000E-02 0.  1.
    8880023    1    1    2    0    0  0.20745081140E+03 -0.43512905482E+03 -0.43945614393E+03  0.92698707768E+03  0.65864270000E+03 0.  0.
    8880022    1    1    2    0    0 -0.20745081140E+03  0.43512905482E+03  0.60623081933E+03  0.78948121752E+03  0.15294330000E+03 0.  0.
<mgrwt>
<rscale>  0 0.72414870E+03</rscale>
<asrwt>0</asrwt>
<pdfrwt beam="1">  1        2 0.14486484E+00 0.81620055E+03</pdfrwt>
<pdfrwt beam="2">  1       -2 0.11920720E+00 0.81620055E+03</pdfrwt>
<totfact> 0.14981302E+01</totfact>
</mgrwt>
</event>
<event>
 4    2  0.3388003E-007  0.7386677E+03  0.7818608E-02  0.9863845E-01
         -2   -1    0    0    0  501 -0.00000000000E+00  0.00000000000E+00  0.33261109581E+03  0.33261109582E+03  0.25500000000E-02 0.  1.
          2   -1    0    0  501    0  0.00000000000E+00 -0.00000000000E+00 -0.10187610315E+04  0.10187610315E+04  0.25500000000E-02 0. -1.
    8880023    1    1    2    0    0  0.80399463708E+02 -0.32458549831E+03 -0.24759474811E+03  0.77905916658E+03  0.65864270000E+03 0.  0.
    8880022    1    1    2    0    0 -0.80399463708E+02  0.32458549831E+03 -0.43855518761E+03  0.57231296078E+03  0.15294330000E+03 0.  1.
<mgrwt>
<rscale>  0 0.62045965E+03</rscale>
<asrwt>0</asrwt>
<pdfrwt beam="1">  1        2 0.15673247E+00 0.73866774E+03</pdfrwt>
<pdfrwt beam="2">  1       -2 0.51170938E-01 0.73866774E+03</pdfrwt>
<totfact> 0.89747521E+01</totfact>
</mgrwt>
</event>
<event>
 4    2  0.3388003E-007  0.6765904E+03  0.7818608E-02  0.1011322E+00
         -2   -1    0    0    0  501 -0.00000000000E+00  0.00000000000E+00  0.71123047151E+03  0.71123047151E+03  0.25500000000E-02 0.  1.
          2   -1    0    0  501    0  0.00000000000E+00 -0.00000000000E+00 -0.28476669575E+03  0.28476669576E+03  0.25500000000E-02 0. -1.
    8880023    1    1    2    0    0  0.12698009348E+03  0.88546311385E+02  0.37011054704E+03  0.77120452326E+03  0.65864270000E+03 0.  1.
    8880022    1    1    2    0    0 -0.12698009348E+03 -0.88546311385E+02  0.56353228722E+02  0.22479264401E+03  0.15294330000E+03 0. -1.
<mgrwt>
<rscale>  0 0.50952596E+03</rscale>
<asrwt>0</asrwt>
<pdfrwt beam="1">  1        2 0.43810261E-01 0.67659042E+03</pdfrwt>
<pdfrwt beam="2">  1       -2 0.10942007E+00 0.67659042E+03</pdfrwt>
<totfact> 0.78491750E+01</totfact>
</mgrwt>
</event>
<event>
 4    2  0.3388003E-007  0.8416459E+03  0.7818608E-02  0.9627084E-01
         -2   -1    0    0    0  501 -0.00000000000E+00  0.00000000000E+00  0.49082330086E+03  0.49082330087E+03  0.25500000000E-02 0.  1.
          2   -1    0    0  501    0  0.00000000000E+00 -0.00000000000E+00 -0.11911779174E+04  0.11911779174E+04  0.25500000000E-02 0. -1.
    8880023    1    1    2    0    0 -0.52016433314E+03  0.63140816056E+02 -0.64679445963E+02  0.84412755737E+03  0.65864270000E+03 0.  0.
    8880022    1    1    2    0    0  0.52016433314E+03 -0.63140816056E+02 -0.63567517054E+03  0.83787366087E+03  0.15294330000E+03 0.  0.
<mgrwt>
<rscale>  0 0.75529200E+03</rscale>
<asrwt>0</asrwt>
<pdfrwt beam="1">  1        2 0.18325814E+00 0.84164595E+03</pdfrwt>
<pdfrwt beam="2">  1       -2 0.75511278E-01 0.84164595E+03</pdfrwt>
<totfact> 0.30442419E+01</totfact>
</mgrwt>
</event>
<event>
 4    2  0.3388003E-007  0.7402026E+03  0.7818608E-02  0.9859357E-01
         -2   -1    0    0    0  501 -0.00000000000E+00  0.00000000000E+00  0.10767690354E+04  0.10767690354E+04  0.25500000000E-02 0.  1.
          2   -1    0    0  501    0  0.00000000000E+00 -0.00000000000E+00 -0.19675086452E+04  0.19675086452E+04  0.25500000000E-02 0. -1.
    8880023    1    1    2    0    0  0.16866673186E+03  0.29264526389E+03  0.92861226928E+03  0.11875271238E+04  0.65864270000E+03 0.  0.
    8880022    1    1    2    0    0 -0.16866673186E+03 -0.29264526389E+03 -0.18193518792E+04  0.18567505568E+04  0.15294330000E+03 0.  0.
<mgrwt>
<rscale>  0 0.62272091E+03</rscale>
<asrwt>0</asrwt>
<pdfrwt beam="1">  1        2 0.30269364E+00 0.74020262E+03</pdfrwt>
<pdfrwt beam="2">  1       -2 0.16565678E+00 0.74020262E+03</pdfrwt>
<totfact> 0.16594945E+00</totfact>
</mgrwt>
</event>
<event>
 4    2  0.3388003E-007  0.8465591E+03  0.7818608E-02  0.9617934E-01
          2   -1    0    0  501    0  0.00000000000E+00  0.00000000000E+00  0.87769963480E+03  0.87769963480E+03  0.25500000000E-02 0. -1.
         -2   -1    0    0    0  501 -0.00000000000E+00 -0.00000000000E+00 -0.10279409173E+04  0.10279409173E+04  0.25500000000E-02 0.  1.
    8880023    1    1    2    0    0  0.52584423482E+03  0.79624205904E+02 -0.72002522409E+03  0.11113499463E+04  0.65864270000E+03 0.  0.
    8880022    1    1    2    0    0 -0.52584423482E+03 -0.79624205904E+02  0.56978394158E+03  0.79429060586E+03  0.15294330000E+03 0.  0.
<mgrwt>
<rscale>  0 0.76120459E+03</rscale>
<asrwt>0</asrwt>
<pdfrwt beam="1">  1        2 0.13503071E+00 0.84655914E+03</pdfrwt>
<pdfrwt beam="2">  1       -2 0.15814476E+00 0.84655914E+03</pdfrwt>
<totfact> 0.79471127E+00</totfact>
</mgrwt>
</event>
<event>
 4    2  0.3388003E-007  0.1020947E+04  0.7818608E-02  0.9354652E-01
         -2   -1    0    0    0  501 -0.00000000000E+00  0.00000000000E+00  0.96608311741E+03  0.96608311741E+03  0.25500000000E-02 0.  1.
          2   -1    0    0  501    0  0.00000000000E+00 -0.00000000000E+00 -0.26714766199E+04  0.26714766199E+04  0.25500000000E-02 0. -1.
    8880023    1    1    2    0    0  0.30848057896E+03 -0.71649294197E+03  0.61014259353E+03  0.11893723530E+04  0.65864270000E+03 0.  1.
    8880022    1    1    2    0    0 -0.30848057896E+03  0.71649294197E+03 -0.23155360960E+04  0.24481873843E+04  0.15294330000E+03 0.  0.
<mgrwt>
<rscale>  0 0.95903537E+03</rscale>
<asrwt>0</asrwt>
<pdfrwt beam="1">  1        2 0.41099640E+00 0.10209469E+04</pdfrwt>
<pdfrwt beam="2">  1       -2 0.14862817E+00 0.10209469E+04</pdfrwt>
<totfact> 0.85269478E-01</totfact>
</mgrwt>
</event>
<event>
 4    2  0.3388003E-007  0.9479176E+03  0.7818608E-02  0.9453117E-01
         -2   -1    0    0    0  501 -0.00000000000E+00  0.00000000000E+00  0.19407994007E+04  0.19407994007E+04  0.25500000000E-02 0.  1.
          2   -1    0    0  501    0  0.00000000000E+00 -0.00000000000E+00 -0.82998089978E+03  0.82998089978E+03  0.25500000000E-02 0. -1.
    8880023    1    1    2    0    0 -0.51965828139E+03 -0.44124016191E+03  0.16400618575E+04  0.18942942519E+04  0.65864270000E+03 0.  1.
    8880022    1    1    2    0    0  0.51965828139E+03  0.44124016191E+03 -0.52924335660E+03  0.87648604862E+03  0.15294330000E+03 0.  0.
<mgrwt>
<rscale>  0 0.87830388E+03</rscale>
<asrwt>0</asrwt>
<pdfrwt beam="1">  1        2 0.12768937E+00 0.94791762E+03</pdfrwt>
<pdfrwt beam="2">  1       -2 0.29858452E+00 0.94791762E+03</pdfrwt>
<totfact> 0.10752002E+00</totfact>
</mgrwt>
</event>
<event>
 4    2  0.3388003E-007  0.9138802E+03  0.7818608E-02  0.9504107E-01
          2   -1    0    0  501    0  0.00000000000E+00  0.00000000000E+00  0.16579479692E+04  0.16579479692E+04  0.25500000000E-02 0. -1.
         -2   -1    0    0    0  501 -0.00000000000E+00 -0.00000000000E+00 -0.62736924907E+03  0.62736924908E+03  0.25500000000E-02 0.  1.
    8880023    1    1    2    0    0 -0.53170727039E+03  0.34446208699E+03 -0.16023488474E+03  0.92782119792E+03  0.65864270000E+03 0.  0.
    8880022    1    1    2    0    0  0.53170727039E+03 -0.34446208699E+03  0.11908136049E+04  0.13574960204E+04  0.15294330000E+03 0.  0.
<mgrwt>
<rscale>  0 0.83981705E+03</rscale>
<asrwt>0</asrwt>
<pdfrwt beam="1">  1        2 0.25506892E+00 0.91388017E+03</pdfrwt>
<pdfrwt beam="2">  1       -2 0.96518347E-01 0.91388017E+03</pdfrwt>
<totfact> 0.93552739E+00</totfact>
</mgrwt>
</event>
<event>
 4    2  0.3388003E-007  0.9013968E+03  0.7818608E-02  0.9523793E-01
          2   -1    0    0  501    0  0.00000000000E+00  0.00000000000E+00  0.40165272893E+04  0.40165272893E+04  0.25500000000E-02 0. -1.
         -2   -1    0    0    0  501 -0.00000000000E+00 -0.00000000000E+00 -0.16484216628E+03  0.16484216630E+03  0.25500000000E-02 0.  1.
    8880023    1    1    2    0    0 -0.23310605529E+03 -0.56953268588E+03  0.15411684022E+04  0.17854176440E+04  0.65864270000E+03 0.  0.
    8880022    1    1    2    0    0  0.23310605529E+03  0.56953268588E+03  0.23105167208E+04  0.23959518116E+04  0.15294330000E+03 0.  0.
<mgrwt>
<rscale>  0 0.82552157E+03</rscale>
<asrwt>0</asrwt>
<pdfrwt beam="1">  1        2 0.61792727E+00 0.90139676E+03</pdfrwt>
<pdfrwt beam="2">  1       -2 0.25360334E-01 0.90139676E+03</pdfrwt>
<totfact> 0.49686842E+00</totfact>
</mgrwt>
</event>
<event>
 4    2  0.3388003E-007  0.7296152E+03  0.7818608E-02  0.9891300E-01
         -2   -1    0    0    0  501 -0.00000000000E+00  0.00000000000E+00  0.89390197951E+03  0.89390197951E+03  0.25500000000E-02 0.  1.
          2   -1    0    0  501    0  0.00000000000E+00 -0.00000000000E+00 -0.68823509716E+03  0.68823509716E+03  0.25500000000E-02 0. -1.
    8880023    1    1    2    0    0  0.30899862637E+03 -0.55209189490E+02 -0.43719096178E+03  0.85057295339E+03  0.65864270000E+03 0. -1.
    8880022    1    1    2    0    0 -0.30899862637E+03  0.55209189490E+02  0.64285784413E+03  0.73156412329E+03  0.15294330000E+03 0.  0.
<mgrwt>
<rscale>  0 0.60684773E+03</rscale>
<asrwt>0</asrwt>
<pdfrwt beam="1">  1        2 0.10588232E+00 0.72961525E+03</pdfrwt>
<pdfrwt beam="2">  1       -2 0.13752338E+00 0.72961525E+03</pdfrwt>
<totfact> 0.16006015E+01</totfact>
</mgrwt>
</event>
<event>
 4    2  0.3388003E-007  0.1884053E+04  0.7818608E-02  0.8677413E-01
          2   -1    0    0  501    0  0.00000000000E+00  0.00000000000E+00  0.22323088392E+04  0.22323088392E+04  0.25500000000E-02 0. -1.
         -2   -1    0    0    0  501 -0.00000000000E+00 -0.00000000000E+00 -0.23996351727E+04  0.23996351728E+04  0.25500000000E-02 0.  1.
    8880023    1    1    2    0    0  0.33919273070E+03 -0.17322799234E+04 -0.15054338872E+04  0.24116357181E+04  0.65864270000E+03 0.  0.
    8880022    1    1    2    0    0 -0.33919273070E+03  0.17322799234E+04  0.13381075537E+04  0.22203082939E+04  0.15294330000E+03 0.  0.
<mgrwt>
<rscale>  0 0.18553372E+04</rscale>
<asrwt>0</asrwt>
<pdfrwt beam="1">  1        2 0.34343213E+00 0.18840530E+04</pdfrwt>
<pdfrwt beam="2">  1       -2 0.36917464E+00 0.18840530E+04</pdfrwt>
<totfact> 0.52149835E-02</totfact>
</mgrwt>
</event>
<event>
 4    2  0.3388003E-007  0.6906837E+03  0.7818608E-02  0.1003829E+00
          2   -1    0    0  501    0  0.00000000000E+00  0.00000000000E+00  0.10542445250E+04  0.10542445250E+04  0.25500000000E-02 0. -1.
         -2   -1    0    0    0  501 -0.00000000000E+00 -0.00000000000E+00 -0.11596963753E+04  0.11596963753E+04  0.25500000000E-02 0.  1.
    8880023    1    1    2    0    0  0.20652518445E+03 -0.24105003957E+02 -0.10377431716E+04  0.12465772336E+04  0.65864270000E+03 0.  1.
    8880022    1    1    2    0    0 -0.20652518445E+03  0.24105003957E+02  0.93229132122E+03  0.96736366670E+03  0.15294330000E+03 0.  0.
<mgrwt>
<rscale>  0 0.54002557E+03</rscale>
<asrwt>0</asrwt>
<pdfrwt beam="1">  1        2 0.16219147E+00 0.69068365E+03</pdfrwt>
<pdfrwt beam="2">  1       -2 0.17841483E+00 0.69068365E+03</pdfrwt>
<totfact> 0.44603960E+00</totfact>
</mgrwt>
</event>
<event>
 4    2  0.3388003E-007  0.1740311E+04  0.7818608E-02  0.8756293E-01
          2   -1    0    0  501    0  0.00000000000E+00  0.00000000000E+00  0.35480048356E+04  0.35480048356E+04  0.25500000000E-02 0. -1.
         -2   -1    0    0    0  501 -0.00000000000E+00 -0.00000000000E+00 -0.10206839530E+04  0.10206839530E+04  0.25500000000E-02 0.  1.
    8880023    1    1    2    0    0 -0.10965684387E+04  0.11800040568E+04  0.22524453117E+03  0.17548268347E+04  0.65864270000E+03 0.  0.
    8880022    1    1    2    0    0  0.10965684387E+04 -0.11800040568E+04  0.23020763514E+04  0.28138619539E+04  0.15294330000E+03 0.  0.
<mgrwt>
<rscale>  0 0.17089203E+04</rscale>
<asrwt>0</asrwt>
<pdfrwt beam="1">  1        2 0.54584690E+00 0.17403109E+04</pdfrwt>
<pdfrwt beam="2">  1       -2 0.15702830E+00 0.17403109E+04</pdfrwt>
<totfact> 0.18456437E-01</totfact>
</mgrwt>
</event>
<event>
 4    2  0.3388003E-007  0.7578037E+03  0.7818608E-02  0.9810827E-01
         -2   -1    0    0    0  501 -0.00000000000E+00  0.00000000000E+00  0.13015910781E+04  0.13015910781E+04  0.25500000000E-02 0.  1.
          2   -1    0    0  501    0  0.00000000000E+00 -0.00000000000E+00 -0.12381067874E+04  0.12381067874E+04  0.25500000000E-02 0. -1.
    8880023    1    1    2    0    0 -0.37040185919E+03  0.57085386639E+02  0.11516921756E+04  0.13786447520E+04  0.65864270000E+03 0.  0.
    8880022    1    1    2    0    0  0.37040185919E+03 -0.57085386639E+02 -0.10882078849E+04  0.11610531135E+04  0.15294330000E+03 0. -1.
<mgrwt>
<rscale>  0 0.64784733E+03</rscale>
<asrwt>0</asrwt>
<pdfrwt beam="1">  1        2 0.19047797E+00 0.75780372E+03</pdfrwt>
<pdfrwt beam="2">  1       -2 0.20024478E+00 0.75780372E+03</pdfrwt>
<totfact> 0.24449698E+00</totfact>
</mgrwt>
</event>
<event>
 4    2  0.3388003E-007  0.7537989E+03  0.7818608E-02  0.9821434E-01
          2   -1    0    0  501    0  0.00000000000E+00  0.00000000000E+00  0.22232474127E+04  0.22232474127E+04  0.25500000000E-02 0. -1.
         -2   -1    0    0    0  501 -0.00000000000E+00 -0.00000000000E+00 -0.26518944062E+03  0.26518944063E+03  0.25500000000E-02 0.  1.
    8880023    1    1    2    0    0 -0.14468503851E+03 -0.33685137896E+03  0.34827375600E+03  0.83036583941E+03  0.65864270000E+03 0.  0.
    8880022    1    1    2    0    0  0.14468503851E+03  0.33685137896E+03  0.16097842161E+04  0.16580710140E+04  0.15294330000E+03 0.  0.
<mgrwt>
<rscale>  0 0.64224841E+03</rscale>
<asrwt>0</asrwt>
<pdfrwt beam="1">  1        2 0.34203807E+00 0.75379892E+03</pdfrwt>
<pdfrwt beam="2">  1       -2 0.40798375E-01 0.75379892E+03</pdfrwt>
<totfact> 0.29551444E+01</totfact>
</mgrwt>
</event>
<event>
 4    2  0.3388003E-007  0.8057514E+03  0.7818608E-02  0.9698496E-01
         -2   -1    0    0    0  501 -0.00000000000E+00  0.00000000000E+00  0.76892571518E+03  0.76892571519E+03  0.25500000000E-02 0.  1.
          2   -1    0    0  501    0  0.00000000000E+00 -0.00000000000E+00 -0.60708346929E+03  0.60708346930E+03  0.25500000000E-02 0. -1.
    8880023    1    1    2    0    0 -0.29370015181E+03  0.35939580570E+03  0.31310174484E+03  0.86444666302E+03  0.65864270000E+03 0. -1.
    8880022    1    1    2    0    0  0.29370015181E+03 -0.35939580570E+03 -0.15125949894E+03  0.51156252146E+03  0.15294330000E+03 0.  0.
<mgrwt>
<rscale>  0 0.71106436E+03</rscale>
<asrwt>0</asrwt>
<pdfrwt beam="1">  1        2 0.93397457E-01 0.80575141E+03</pdfrwt>
<pdfrwt beam="2">  1       -2 0.11829626E+00 0.80575141E+03</pdfrwt>
<totfact> 0.27126849E+01</totfact>
</mgrwt>
</event>
<event>
 4    2  0.3388003E-007  0.6943215E+03  0.7818608E-02  0.1002163E+00
         -2   -1    0    0    0  501 -0.00000000000E+00  0.00000000000E+00  0.60261362631E+03  0.60261362631E+03  0.25500000000E-02 0.  1.
          2   -1    0    0  501    0  0.00000000000E+00 -0.00000000000E+00 -0.53993514099E+03  0.53993514100E+03  0.25500000000E-02 0. -1.
    8880023    1    1    2    0    0 -0.23968539557E+02 -0.21839797928E+03  0.32600102888E+03  0.76704566053E+03  0.65864270000E+03 0.  0.
    8880022    1    1    2    0    0  0.23968539557E+02  0.21839797928E+03 -0.26332254356E+03  0.37550310678E+03  0.15294330000E+03 0.  0.
<mgrwt>
<rscale>  0 0.54712047E+03</rscale>
<asrwt>0</asrwt>
<pdfrwt beam="1">  1        2 0.83066946E-01 0.69432152E+03</pdfrwt>
<pdfrwt beam="2">  1       -2 0.92709788E-01 0.69432152E+03</pdfrwt>
<totfact> 0.56387007E+01</totfact>
</mgrwt>
</event>
<event>
 4    2  0.3388003E-007  0.1487369E+04  0.7818608E-02  0.8918607E-01
          2   -1    0    0  501    0  0.00000000000E+00  0.00000000000E+00  0.16919029353E+04  0.16919029353E+04  0.25500000000E-02 0. -1.
         -2   -1    0    0    0  501 -0.00000000000E+00 -0.00000000000E+00 -0.21439305608E+04  0.21439305608E+04  0.25500000000E-02 0.  1.
    8880023    1    1    2    0    0  0.11634948543E+04 -0.65171689165E+03 -0.15153828601E+04  0.21233583310E+04  0.65864270000E+03 0.  0.
    8880022    1    1    2    0    0 -0.11634948543E+04  0.65171689165E+03  0.10633552347E+04  0.17124751651E+04  0.15294330000E+03 0.  0.
<mgrwt>
<rscale>  0 0.14497019E+04</rscale>
<asrwt>0</asrwt>
<pdfrwt beam="1">  1        2 0.26029276E+00 0.14873686E+04</pdfrwt>
<pdfrwt beam="2">  1       -2 0.32983547E+00 0.14873686E+04</pdfrwt>
<totfact> 0.19413823E-01</totfact>
</mgrwt>
</event>
<event>
 4    2  0.3388003E-007  0.9246402E+03  0.7818608E-02  0.9487581E-01
         -2   -1    0    0    0  501 -0.00000000000E+00  0.00000000000E+00  0.48720740318E+03  0.48720740318E+03  0.25500000000E-02 0.  1.
          2   -1    0    0  501    0  0.00000000000E+00 -0.00000000000E+00 -0.16362187876E+04  0.16362187876E+04  0.25500000000E-02 0. -1.
    8880023    1    1    2    0    0 -0.64894638101E+03 -0.42307113068E+01 -0.17185669057E+03  0.94047553541E+03  0.65864270000E+03 0.  0.
    8880022    1    1    2    0    0  0.64894638101E+03  0.42307113068E+01 -0.97715469389E+03  0.11829506554E+04  0.15294330000E+03 0.  0.
<mgrwt>
<rscale>  0 0.85205681E+03</rscale>
<asrwt>0</asrwt>
<pdfrwt beam="1">  1        2 0.25172596E+00 0.92464021E+03</pdfrwt>
<pdfrwt beam="2">  1       -2 0.74954986E-01 0.92464021E+03</pdfrwt>
<totfact> 0.17123153E+01</totfact>
</mgrwt>
</event>
<event>
 4    2  0.3388003E-007  0.1808725E+04  0.7818608E-02  0.8717726E-01
         -2   -1    0    0    0  501 -0.00000000000E+00  0.00000000000E+00  0.28860168942E+04  0.28860168942E+04  0.25500000000E-02 0.  1.
          2   -1    0    0  501    0  0.00000000000E+00 -0.00000000000E+00 -0.10977493643E+04  0.10977493643E+04  0.25500000000E-02 0. -1.
    8880023    1    1    2    0    0  0.68572843348E+03 -0.15386524949E+04  0.12860104309E+04  0.22193034986E+04  0.65864270000E+03 0.  0.
    8880022    1    1    2    0    0 -0.68572843348E+03  0.15386524949E+04  0.50225709909E+03  0.17644627599E+04  0.15294330000E+03 0.  0.
<mgrwt>
<rscale>  0 0.17786699E+04</rscale>
<asrwt>0</asrwt>
<pdfrwt beam="1">  1        2 0.16888452E+00 0.18087247E+04</pdfrwt>
<pdfrwt beam="2">  1       -2 0.44400260E+00 0.18087247E+04</pdfrwt>
<totfact> 0.76124264E-02</totfact>
</mgrwt>
</event>
<event>
 4    2  0.3388003E-007  0.6876907E+03  0.7818608E-02  0.1005270E+00
          2   -1    0    0  501    0  0.00000000000E+00  0.00000000000E+00  0.47826280955E+03  0.47826280955E+03  0.25500000000E-02 0. -1.
         -2   -1    0    0    0  501 -0.00000000000E+00 -0.00000000000E+00 -0.12896425893E+04  0.12896425893E+04  0.25500000000E-02 0.  1.
    8880023    1    1    2    0    0 -0.13139991338E+03  0.14779146375E+03 -0.11542434896E+04  0.13435760096E+04  0.65864270000E+03 0.  1.
    8880022    1    1    2    0    0  0.13139991338E+03 -0.14779146375E+03  0.34286370989E+03  0.42432938923E+03  0.15294330000E+03 0.  0.
<mgrwt>
<rscale>  0 0.53398588E+03</rscale>
<asrwt>0</asrwt>
<pdfrwt beam="1">  1        2 0.73578894E-01 0.68769067E+03</pdfrwt>
<pdfrwt beam="2">  1       -2 0.19840655E+00 0.68769067E+03</pdfrwt>
<totfact> 0.90656120E+00</totfact>
</mgrwt>
</event>
<event>
 4    2  0.3388003E-007  0.8490276E+03  0.7818608E-02  0.9613387E-01
         -2   -1    0    0    0  501 -0.00000000000E+00  0.00000000000E+00  0.21386712410E+03  0.21386712412E+03  0.25500000000E-02 0.  1.
          2   -1    0    0  501    0  0.00000000000E+00 -0.00000000000E+00 -0.28082533701E+04  0.28082533701E+04  0.25500000000E-02 0. -1.
    8880023    1    1    2    0    0  0.41287107762E+03 -0.34143109577E+03 -0.89461221427E+03  0.12333608313E+04  0.65864270000E+03 0.  1.
    8880022    1    1    2    0    0 -0.41287107762E+03  0.34143109577E+03 -0.16997740317E+04  0.17887596630E+04  0.15294330000E+03 0.  0.
<mgrwt>
<rscale>  0 0.76416426E+03</rscale>
<asrwt>0</asrwt>
<pdfrwt beam="1">  1        2 0.43203895E+00 0.84902764E+03</pdfrwt>
<pdfrwt beam="2">  1       -2 0.32902636E-01 0.84902764E+03</pdfrwt>
<totfact> 0.20447808E+01</totfact>
</mgrwt>
</event>
<event>
 4    2  0.3388003E-007  0.1065867E+04  0.7818608E-02  0.9300045E-01
          2   -1    0    0  501    0  0.00000000000E+00  0.00000000000E+00  0.10982520955E+04  0.10982520955E+04  0.25500000000E-02 0. -1.
         -2   -1    0    0    0  501 -0.00000000000E+00 -0.00000000000E+00 -0.90051572309E+03  0.90051572310E+03  0.25500000000E-02 0.  1.
    8880023    1    1    2    0    0  0.68594461534E+03  0.48139693380E+03 -0.15441575042E+03  0.10769946395E+04  0.65864270000E+03 0.  0.
    8880022    1    1    2    0    0 -0.68594461534E+03 -0.48139693380E+03  0.35215212286E+03  0.92177317917E+03  0.15294330000E+03 0.  0.
<mgrwt>
<rscale>  0 0.10077867E+04</rscale>
<asrwt>0</asrwt>
<pdfrwt beam="1">  1        2 0.16896186E+00 0.10658674E+04</pdfrwt>
<pdfrwt beam="2">  1       -2 0.13854088E+00 0.10658674E+04</pdfrwt>
<totfact> 0.79447430E+00</totfact>
</mgrwt>
</event>
<event>
 4    2  0.3388003E-007  0.8228905E+03  0.7818608E-02  0.9663327E-01
          2   -1    0    0  501    0  0.00000000000E+00  0.00000000000E+00  0.12545086529E+04  0.12545086529E+04  0.25500000000E-02 0. -1.
         -2   -1    0    0    0  501 -0.00000000000E+00 -0.00000000000E+00 -0.76004730521E+03  0.76004730521E+03  0.25500000000E-02 0.  1.
    8880023    1    1    2    0    0 -0.46850323652E+03  0.15441294683E+03 -0.45015713538E+03  0.93797137140E+03  0.65864270000E+03 0.  1.
    8880022    1    1    2    0    0  0.46850323652E+03 -0.15441294683E+03  0.94461848311E+03  0.10765845867E+04  0.15294330000E+03 0.  0.
<mgrwt>
<rscale>  0 0.73242911E+03</rscale>
<asrwt>0</asrwt>
<pdfrwt beam="1">  1        2 0.19300133E+00 0.82289054E+03</pdfrwt>
<pdfrwt beam="2">  1       -2 0.11693035E+00 0.82289054E+03</pdfrwt>
<totfact> 0.10067214E+01</totfact>
</mgrwt>
</event>
<event>
 4    2  0.3388003E-007  0.6684290E+03  0.7818608E-02  0.1016815E+00
          2   -1    0    0  501    0  0.00000000000E+00  0.00000000000E+00  0.10006284087E+04  0.10006284087E+04  0.25500000000E-02 0. -1.
         -2   -1    0    0    0  501 -0.00000000000E+00 -0.00000000000E+00 -0.25245054426E+03  0.25245054427E+03  0.25500000000E-02 0.  1.
    8880023    1    1    2    0    0 -0.10454209253E+03 -0.45365756484E+02  0.23987082332E+03  0.71016569835E+03  0.65864270000E+03 0.  1.
    8880022    1    1    2    0    0  0.10454209253E+03  0.45365756484E+02  0.50830704116E+03  0.54291325465E+03  0.15294330000E+03 0.  0.
<mgrwt>
<rscale>  0 0.48853697E+03</rscale>
<asrwt>0</asrwt>
<pdfrwt beam="1">  1        2 0.15394283E+00 0.66842898E+03</pdfrwt>
<pdfrwt beam="2">  1       -2 0.38838546E-01 0.66842898E+03</pdfrwt>
<totfact> 0.16032631E+02</totfact>
</mgrwt>
</event>
<event>
 4    2  0.3388003E-007  0.6836442E+03  0.7818608E-02  0.1007333E+00
         -2   -1    0    0    0  501 -0.00000000000E+00  0.00000000000E+00  0.43298400635E+03  0.43298400636E+03  0.25500000000E-02 0.  1.
          2   -1    0    0  501    0  0.00000000000E+00 -0.00000000000E+00 -0.11939549427E+04  0.11939549427E+04  0.25500000000E-02 0. -1.
    8880023    1    1    2    0    0  0.97932499159E+02 -0.15481740229E+03  0.13748299721E+03  0.69733132959E+03  0.65864270000E+03 0.  1.
    8880022    1    1    2    0    0 -0.97932499159E+02  0.15481740229E+03 -0.89845393359E+03  0.92960761950E+03  0.15294330000E+03 0.  0.
<mgrwt>
<rscale>  0 0.52548477E+03</rscale>
<asrwt>0</asrwt>
<pdfrwt beam="1">  1        2 0.18368537E+00 0.68364421E+03</pdfrwt>
<pdfrwt beam="2">  1       -2 0.66612925E-01 0.68364421E+03</pdfrwt>
<totfact> 0.40541101E+01</totfact>
</mgrwt>
</event>
<event>
 4    2  0.3388003E-007  0.7096024E+03  0.7818608E-02  0.9959480E-01
          2   -1    0    0  501    0  0.00000000000E+00  0.00000000000E+00  0.29513571287E+03  0.29513571288E+03  0.25500000000E-02 0. -1.
         -2   -1    0    0    0  501 -0.00000000000E+00 -0.00000000000E+00 -0.17074815523E+04  0.17074815523E+04  0.25500000000E-02 0.  1.
    8880023    1    1    2    0    0  0.24314295980E+03 -0.10298936321E+03 -0.15212531806E+04  0.16786145340E+04  0.65864270000E+03 0.  1.
    8880022    1    1    2    0    0 -0.24314295980E+03  0.10298936321E+03  0.10890734121E+03  0.32400273119E+03  0.15294330000E+03 0.  0.
<mgrwt>
<rscale>  0 0.57463211E+03</rscale>
<asrwt>0</asrwt>
<pdfrwt beam="1">  1        2 0.45405495E-01 0.70960236E+03</pdfrwt>
<pdfrwt beam="2">  1       -2 0.26268946E+00 0.70960236E+03</pdfrwt>
<totfact> 0.62180564E+00</totfact>
</mgrwt>
</event>
<event>
 4    2  0.3388003E-007  0.8543276E+03  0.7818608E-02  0.9603734E-01
          2   -1    0    0  501    0  0.00000000000E+00  0.00000000000E+00  0.18290941769E+04  0.18290941769E+04  0.25500000000E-02 0. -1.
         -2   -1    0    0    0  501 -0.00000000000E+00 -0.00000000000E+00 -0.41412581480E+03  0.41412581480E+03  0.25500000000E-02 0.  1.
    8880023    1    1    2    0    0  0.44876855658E+03  0.30768846464E+03  0.16321610009E+03  0.86977877086E+03  0.65864270000E+03 0. -1.
    8880022    1    1    2    0    0 -0.44876855658E+03 -0.30768846464E+03  0.12517522620E+04  0.13734412208E+04  0.15294330000E+03 0.  0.
<mgrwt>
<rscale>  0 0.77049510E+03</rscale>
<asrwt>0</asrwt>
<pdfrwt beam="1">  1        2 0.28139911E+00 0.85432758E+03</pdfrwt>
<pdfrwt beam="2">  1       -2 0.63711663E-01 0.85432758E+03</pdfrwt>
<totfact> 0.19271416E+01</totfact>
</mgrwt>
</event>
<event>
 4    2  0.3388003E-007  0.1180411E+04  0.7818608E-02  0.9176403E-01
         -2   -1    0    0    0  501 -0.00000000000E+00  0.00000000000E+00  0.80296751792E+03  0.80296751793E+03  0.25500000000E-02 0.  1.
          2   -1    0    0  501    0  0.00000000000E+00 -0.00000000000E+00 -0.26468903740E+04  0.26468903740E+04  0.25500000000E-02 0. -1.
    8880023    1    1    2    0    0 -0.96424529886E+03 -0.17260268904E+03  0.18199086747E+03  0.11943582238E+04  0.65864270000E+03 0.  0.
    8880022    1    1    2    0    0  0.96424529886E+03  0.17260268904E+03 -0.20259137235E+04  0.22554996681E+04  0.15294330000E+03 0.  0.
<mgrwt>
<rscale>  0 0.11300342E+04</rscale>
<asrwt>0</asrwt>
<pdfrwt beam="1">  1        2 0.40721390E+00 0.11804113E+04</pdfrwt>
<pdfrwt beam="2">  1       -2 0.12353347E+00 0.11804113E+04</pdfrwt>
<totfact> 0.13886510E+00</totfact>
</mgrwt>
</event>
<event>
 4    2  0.3388003E-007  0.6895084E+03  0.7818608E-02  0.1004387E+00
          2   -1    0    0  501    0  0.00000000000E+00  0.00000000000E+00  0.70232225384E+03  0.70232225384E+03  0.25500000000E-02 0. -1.
         -2   -1    0    0    0  501 -0.00000000000E+00 -0.00000000000E+00 -0.16610139148E+04  0.16610139148E+04  0.25500000000E-02 0.  1.
    8880023    1    1    2    0    0  0.19799225959E+03 -0.49098425556E+02 -0.15625187092E+04  0.17078894909E+04  0.65864270000E+03 0.  1.
    8880022    1    1    2    0    0 -0.19799225959E+03  0.49098425556E+02  0.60382704821E+03  0.65544667778E+03  0.15294330000E+03 0.  0.
<mgrwt>
<rscale>  0 0.53767710E+03</rscale>
<asrwt>0</asrwt>
<pdfrwt beam="1">  1        2 0.10804958E+00 0.68950837E+03</pdfrwt>
<pdfrwt beam="2">  1       -2 0.25554060E+00 0.68950837E+03</pdfrwt>
<totfact> 0.25263177E+00</totfact>
</mgrwt>
</event>
<event>
 4    2  0.3791559E-007  0.7338091E+03  0.7818608E-02  0.9878362E-01
          2   -1    0    0  501    0  0.00000000000E+00  0.00000000000E+00  0.98412748326E+03  0.98412748327E+03  0.25500000000E-02 0. -1.
         -2   -1    0    0    0  501 -0.00000000000E+00 -0.00000000000E+00 -0.18158863105E+04  0.18158863105E+04  0.25500000000E-02 0.  1.
    8880023    1    1    2    0    0  0.31493157062E+03 -0.74052214976E+02 -0.17050476013E+04  0.18562497552E+04  0.65864270000E+03 0.  1.
    8880022    1    1    2    0    0 -0.31493157062E+03  0.74052214976E+02  0.87328877402E+03  0.94376403861E+03  0.15294330000E+03 0.  0.
<mgrwt>
<rscale>  0 0.61321513E+03</rscale>
<asrwt>0</asrwt>
<pdfrwt beam="1">  1        2 0.15140423E+00 0.73380912E+03</pdfrwt>
<pdfrwt beam="2">  1       -2 0.27936712E+00 0.73380912E+03</pdfrwt>
<totfact> 0.11440448E+00</totfact>
</mgrwt>
</event>
<event>
 4    2  0.3388003E-007  0.7405938E+03  0.7818608E-02  0.9858221E-01
         -2   -1    0    0    0  501 -0.00000000000E+00  0.00000000000E+00  0.34194036157E+03  0.34194036158E+03  0.25500000000E-02 0.  1.
          2   -1    0    0  501    0  0.00000000000E+00 -0.00000000000E+00 -0.23056129536E+04  0.23056129536E+04  0.25500000000E-02 0. -1.
    8880023    1    1    2    0    0  0.30714962305E+03  0.14257637248E+03 -0.10013328074E+03  0.74733245153E+03  0.65864270000E+03 0.  1.
    8880022    1    1    2    0    0 -0.30714962305E+03 -0.14257637248E+03 -0.18635393113E+04  0.19002208637E+04  0.15294330000E+03 0.  0.
<mgrwt>
<rscale>  0 0.62329514E+03</rscale>
<asrwt>0</asrwt>
<pdfrwt beam="1">  1        2 0.35470968E+00 0.74059376E+03</pdfrwt>
<pdfrwt beam="2">  1       -2 0.52606211E-01 0.74059376E+03</pdfrwt>
<totfact> 0.16009314E+01</totfact>
</mgrwt>
</event>
<event>
 4    2  0.3388003E-007  0.9252308E+03  0.7818608E-02  0.9486685E-01
          2   -1    0    0  501    0  0.00000000000E+00  0.00000000000E+00  0.81277401613E+03  0.81277401613E+03  0.25500000000E-02 0. -1.
         -2   -1    0    0    0  501 -0.00000000000E+00 -0.00000000000E+00 -0.78042003623E+03  0.78042003623E+03  0.25500000000E-02 0.  1.
    8880023    1    1    2    0    0  0.48483098895E+03 -0.43264394765E+03  0.26512873479E+02  0.92561061576E+03  0.65864270000E+03 0. -1.
    8880022    1    1    2    0    0 -0.48483098895E+03  0.43264394765E+03  0.58411064254E+01  0.66758343660E+03  0.15294330000E+03 0.  1.
<mgrwt>
<rscale>  0 0.85272658E+03</rscale>
<asrwt>0</asrwt>
<pdfrwt beam="1">  1        2 0.12504216E+00 0.92523083E+03</pdfrwt>
<pdfrwt beam="2">  1       -2 0.12006462E+00 0.92523083E+03</pdfrwt>
<totfact> 0.17865372E+01</totfact>
</mgrwt>
</event>
<event>
 4    2  0.3388003E-007  0.7567581E+03  0.7818608E-02  0.9813574E-01
          2   -1    0    0  501    0  0.00000000000E+00  0.00000000000E+00  0.20817199437E+04  0.20817199437E+04  0.25500000000E-02 0. -1.
         -2   -1    0    0    0  501 -0.00000000000E+00 -0.00000000000E+00 -0.35485949336E+03  0.35485949337E+03  0.25500000000E-02 0.  1.
    8880023    1    1    2    0    0 -0.20514092123E+03  0.31111060900E+03  0.18634346490E+04  0.20112363128E+04  0.65864270000E+03 0. -1.
    8880022    1    1    2    0    0  0.20514092123E+03 -0.31111060900E+03 -0.13657419866E+03  0.42534312426E+03  0.15294330000E+03 0.  0.
<mgrwt>
<rscale>  0 0.64639154E+03</rscale>
<asrwt>0</asrwt>
<pdfrwt beam="1">  1        2 0.32026461E+00 0.75675810E+03</pdfrwt>
<pdfrwt beam="2">  1       -2 0.54593768E-01 0.75675810E+03</pdfrwt>
<totfact> 0.19656587E+01</totfact>
</mgrwt>
</event>
<event>
 4    2  0.3388003E-007  0.6928127E+03  0.7818608E-02  0.1002843E+00
         -2   -1    0    0    0  501 -0.00000000000E+00  0.00000000000E+00  0.50379621436E+03  0.50379621437E+03  0.25500000000E-02 0.  1.
          2   -1    0    0  501    0  0.00000000000E+00 -0.00000000000E+00 -0.76034436167E+03  0.76034436168E+03  0.25500000000E-02 0. -1.
    8880023    1    1    2    0    0 -0.12617224504E+03  0.17395336291E+03  0.21365589590E+03  0.72500914201E+03  0.65864270000E+03 0.  1.
    8880022    1    1    2    0    0  0.12617224504E+03 -0.17395336291E+03 -0.47020404321E+03  0.53913143403E+03  0.15294330000E+03 0.  0.
<mgrwt>
<rscale>  0 0.54420847E+03</rscale>
<asrwt>0</asrwt>
<pdfrwt beam="1">  1        2 0.11697606E+00 0.69281268E+03</pdfrwt>
<pdfrwt beam="2">  1       -2 0.77507110E-01 0.69281268E+03</pdfrwt>
<totfact> 0.55639450E+01</totfact>
</mgrwt>
</event>
<event>
 4    2  0.3388003E-007  0.1721098E+04  0.7818608E-02  0.8767485E-01
         -2   -1    0    0    0  501 -0.00000000000E+00  0.00000000000E+00  0.10838623544E+04  0.10838623544E+04  0.25500000000E-02 0.  1.
          2   -1    0    0  501    0  0.00000000000E+00 -0.00000000000E+00 -0.34052822192E+04  0.34052822192E+04  0.25500000000E-02 0. -1.
    8880023    1    1    2    0    0 -0.13074011413E+04  0.90502458516E+03 -0.62192828161E+02  0.17222210654E+04  0.65864270000E+03 0.  0.
    8880022    1    1    2    0    0  0.13074011413E+04 -0.90502458516E+03 -0.22592270366E+04  0.27669235082E+04  0.15294330000E+03 0.  0.
<mgrwt>
<rscale>  0 0.16893090E+04</rscale>
<asrwt>0</asrwt>
<pdfrwt beam="1">  1        2 0.52388957E+00 0.17210977E+04</pdfrwt>
<pdfrwt beam="2">  1       -2 0.16674806E+00 0.17210977E+04</pdfrwt>
<totfact> 0.19673423E-01</totfact>
</mgrwt>
</event>
<event>
 4    2  0.3388003E-007  0.9093799E+03  0.7818608E-02  0.9511139E-01
         -2   -1    0    0    0  501 -0.00000000000E+00  0.00000000000E+00  0.75215082021E+03  0.75215082021E+03  0.25500000000E-02 0.  1.
          2   -1    0    0  501    0  0.00000000000E+00 -0.00000000000E+00 -0.10517663621E+04  0.10517663621E+04  0.25500000000E-02 0. -1.
    8880023    1    1    2    0    0  0.77898968663E+02 -0.62216819542E+03  0.26413658601E+03  0.94696349193E+03  0.65864270000E+03 0.  0.
    8880022    1    1    2    0    0 -0.77898968663E+02  0.62216819542E+03 -0.56375212786E+03  0.85695369034E+03  0.15294330000E+03 0.  0.
<mgrwt>
<rscale>  0 0.83467576E+03</rscale>
<asrwt>0</asrwt>
<pdfrwt beam="1">  1        2 0.16181021E+00 0.90937985E+03</pdfrwt>
<pdfrwt beam="2">  1       -2 0.11571551E+00 0.90937985E+03</pdfrwt>
<totfact> 0.13572419E+01</totfact>
</mgrwt>
</event>
<event>
 4    2  0.3388003E-007  0.7166584E+03  0.7818608E-02  0.9934059E-01
         -2   -1    0    0    0  501 -0.00000000000E+00  0.00000000000E+00  0.12916185404E+03  0.12916185407E+03  0.25500000000E-02 0.  1.
          2   -1    0    0  501    0  0.00000000000E+00 -0.00000000000E+00 -0.24570988869E+04  0.24570988869E+04  0.25500000000E-02 0. -1.
    8880023    1    1    2    0    0 -0.28101516461E+03 -0.28628184753E+02 -0.10690443642E+04  0.12870334707E+04  0.65864270000E+03 0.  1.
    8880022    1    1    2    0    0  0.28101516461E+03  0.28628184753E+02 -0.12588926687E+04  0.12992272703E+04  0.15294330000E+03 0.  0.
<mgrwt>
<rscale>  0 0.58638654E+03</rscale>
<asrwt>0</asrwt>
<pdfrwt beam="1">  1        2 0.37801518E+00 0.71665843E+03</pdfrwt>
<pdfrwt beam="2">  1       -2 0.19871056E-01 0.71665843E+03</pdfrwt>
<totfact> 0.82887489E+01</totfact>
</mgrwt>
</event>
<event>
 4    2  0.3388003E-007  0.7082530E+03  0.7818608E-02  0.9964546E-01
         -2   -1    0    0    0  501 -0.00000000000E+00  0.00000000000E+00  0.28249538491E+03  0.28249538492E+03  0.25500000000E-02 0.  1.
          2   -1    0    0  501    0  0.00000000000E+00 -0.00000000000E+00 -0.22298903452E+04  0.22298903452E+04  0.25500000000E-02 0. -1.
    8880023    1    1    2    0    0 -0.13721376029E+03  0.22132438807E+03 -0.19562302020E+03  0.73477253151E+03  0.65864270000E+03 0.  0.
    8880022    1    1    2    0    0  0.13721376029E+03 -0.22132438807E+03 -0.17517719400E+04  0.17776131986E+04  0.15294330000E+03 0.  0.
<mgrwt>
<rscale>  0 0.57232525E+03</rscale>
<asrwt>0</asrwt>
<pdfrwt beam="1">  1        2 0.34306004E+00 0.70825300E+03</pdfrwt>
<pdfrwt beam="2">  1       -2 0.43460830E-01 0.70825300E+03</pdfrwt>
<totfact> 0.26042161E+01</totfact>
</mgrwt>
</event>
<event>
 4    2  0.3388003E-007  0.8059803E+03  0.7818608E-02  0.9698012E-01
          2   -1    0    0  501    0  0.00000000000E+00  0.00000000000E+00  0.13351613242E+04  0.13351613242E+04  0.25500000000E-02 0. -1.
         -2   -1    0    0    0  501 -0.00000000000E+00 -0.00000000000E+00 -0.86122691775E+03  0.86122691776E+03  0.25500000000E-02 0.  1.
    8880023    1    1    2    0    0 -0.45863204836E+03  0.73828264662E+02 -0.60764563915E+03  0.10093747557E+04  0.65864270000E+03 0.  0.
    8880022    1    1    2    0    0  0.45863204836E+03 -0.73828264662E+02  0.10815800456E+04  0.11870134863E+04  0.15294330000E+03 0.  0.
<mgrwt>
<rscale>  0 0.71135303E+03</rscale>
<asrwt>0</asrwt>
<pdfrwt beam="1">  1        2 0.20540944E+00 0.80598026E+03</pdfrwt>
<pdfrwt beam="2">  1       -2 0.13249645E+00 0.80598026E+03</pdfrwt>
<totfact> 0.66233183E+00</totfact>
</mgrwt>
</event>
<event>
 4    2  0.3388003E-007  0.8705545E+03  0.7818608E-02  0.9575058E-01
         -2   -1    0    0    0  501 -0.00000000000E+00  0.00000000000E+00  0.17208644430E+04  0.17208644430E+04  0.25500000000E-02 0.  1.
          2   -1    0    0  501    0  0.00000000000E+00 -0.00000000000E+00 -0.42589038756E+03  0.42589038757E+03  0.25500000000E-02 0. -1.
    8880023    1    1    2    0    0  0.41923069266E+02  0.56771247301E+03  0.12912430645E+04  0.15572969703E+04  0.65864270000E+03 0.  1.
    8880022    1    1    2    0    0 -0.41923069266E+02 -0.56771247301E+03  0.37309909275E+01  0.58945786028E+03  0.15294330000E+03 0.  0.
<mgrwt>
<rscale>  0 0.78969248E+03</rscale>
<asrwt>0</asrwt>
<pdfrwt beam="1">  1        2 0.65521598E-01 0.87055454E+03</pdfrwt>
<pdfrwt beam="2">  1       -2 0.26474837E+00 0.87055454E+03</pdfrwt>
<totfact> 0.39295208E+00</totfact>
</mgrwt>
</event>
<event>
 4    2  0.3388003E-007  0.6613367E+03  0.7818608E-02  0.1022827E+00
          2   -1    0    0  501    0  0.00000000000E+00  0.00000000000E+00  0.16806859743E+04  0.16806859743E+04  0.25500000000E-02 0. -1.
         -2   -1    0    0    0  501 -0.00000000000E+00 -0.00000000000E+00 -0.33803121492E+03  0.33803121493E+03  0.25500000000E-02 0.  1.
    8880023    1    1    2    0    0 -0.59311242482E+02 -0.61840143450E+01 -0.47456143460E+01  0.66135375756E+03  0.65864270000E+03 0.  1.
    8880022    1    1    2    0    0  0.59311242482E+02  0.61840143450E+01  0.13474003738E+04  0.13573634317E+04  0.15294330000E+03 0.  0.
<mgrwt>
<rscale>  0 0.46680149E+03</rscale>
<asrwt>0</asrwt>
<pdfrwt beam="1">  1        2 0.25856707E+00 0.66133673E+03</pdfrwt>
<pdfrwt beam="2">  1       -2 0.52004804E-01 0.66133673E+03</pdfrwt>
<totfact> 0.36402114E+01</totfact>
</mgrwt>
</event>
<event>
 4    2  0.3388003E-007  0.7265185E+03  0.7818608E-02  0.9901117E-01
          2   -1    0    0  501    0  0.00000000000E+00  0.00000000000E+00  0.25228668581E+04  0.25228668581E+04  0.25500000000E-02 0. -1.
         -2   -1    0    0    0  501 -0.00000000000E+00 -0.00000000000E+00 -0.16189727600E+03  0.16189727602E+03  0.25500000000E-02 0.  1.
    8880023    1    1    2    0    0 -0.30227714447E+03 -0.51454082043E+02  0.77534685486E+03  0.10625403269E+04  0.65864270000E+03 0.  1.
    8880022    1    1    2    0    0  0.30227714447E+03  0.51454082043E+02  0.15856227272E+04  0.16222238072E+04  0.15294330000E+03 0.  0.
<mgrwt>
<rscale>  0 0.60207205E+03</rscale>
<asrwt>0</asrwt>
<pdfrwt beam="1">  1        2 0.38813328E+00 0.72651855E+03</pdfrwt>
<pdfrwt beam="2">  1       -2 0.24907278E-01 0.72651855E+03</pdfrwt>
<totfact> 0.50893411E+01</totfact>
</mgrwt>
</event>
<event>
 4    2  0.3388003E-007  0.7946522E+03  0.7818608E-02  0.9722481E-01
          2   -1    0    0  501    0  0.00000000000E+00  0.00000000000E+00  0.19719278103E+04  0.19719278103E+04  0.25500000000E-02 0. -1.
         -2   -1    0    0    0  501 -0.00000000000E+00 -0.00000000000E+00 -0.37024991233E+03  0.37024991234E+03  0.25500000000E-02 0.  1.
    8880023    1    1    2    0    0 -0.41824011510E+03  0.15078851358E+03  0.14018779742E+03  0.80692304126E+03  0.65864270000E+03 0.  1.
    8880022    1    1    2    0    0  0.41824011510E+03 -0.15078851358E+03  0.14614901006E+04  0.15352546814E+04  0.15294330000E+03 0.  0.
<mgrwt>
<rscale>  0 0.69693943E+03</rscale>
<asrwt>0</asrwt>
<pdfrwt beam="1">  1        2 0.30337351E+00 0.79465224E+03</pdfrwt>
<pdfrwt beam="2">  1       -2 0.56961525E-01 0.79465224E+03</pdfrwt>
<totfact> 0.20557152E+01</totfact>
</mgrwt>
</event>
<event>
 4    2  0.3388003E-007  0.1062257E+04  0.7818608E-02  0.9304290E-01
          2   -1    0    0  501    0  0.00000000000E+00  0.00000000000E+00  0.35890823834E+04  0.35890823834E+04  0.25500000000E-02 0. -1.
         -2   -1    0    0    0  501 -0.00000000000E+00 -0.00000000000E+00 -0.33022249656E+03  0.33022249657E+03  0.25500000000E-02 0.  1.
    8880023    1    1    2    0    0 -0.80758990244E+03 -0.20585795408E+03  0.83360548697E+03  0.13502915470E+04  0.65864270000E+03 0.  1.
    8880022    1    1    2    0    0  0.80758990244E+03  0.20585795408E+03  0.24252543999E+04  0.25690133329E+04  0.15294330000E+03 0.  0.
<mgrwt>
<rscale>  0 0.10038884E+04</rscale>
<asrwt>0</asrwt>
<pdfrwt beam="1">  1        2 0.55216653E+00 0.10622566E+04</pdfrwt>
<pdfrwt beam="2">  1       -2 0.50803460E-01 0.10622566E+04</pdfrwt>
<totfact> 0.26516095E+00</totfact>
</mgrwt>
</event>
<event>
 4    2  0.3388003E-007  0.1067543E+04  0.7818608E-02  0.9298084E-01
         -2   -1    0    0    0  501 -0.00000000000E+00  0.00000000000E+00  0.62168495785E+03  0.62168495785E+03  0.25500000000E-02 0.  1.
          2   -1    0    0  501    0  0.00000000000E+00 -0.00000000000E+00 -0.23137846629E+04  0.23137846630E+04  0.25500000000E-02 0. -1.
    8880023    1    1    2    0    0 -0.64366422902E+03 -0.53993851249E+03 -0.17814828780E+04  0.20768554807E+04  0.65864270000E+03 0. -1.
    8880022    1    1    2    0    0  0.64366422902E+03  0.53993851249E+03  0.89383172847E+02  0.85861414011E+03  0.15294330000E+03 0.  0.
<mgrwt>
<rscale>  0 0.10095944E+04</rscale>
<asrwt>0</asrwt>
<pdfrwt beam="1">  1        2 0.35596687E+00 0.10675427E+04</pdfrwt>
<pdfrwt beam="2">  1       -2 0.95643841E-01 0.10675427E+04</pdfrwt>
<totfact> 0.40725270E+00</totfact>
</mgrwt>
</event>
<event>
 4    2  0.3388003E-007  0.1253892E+04  0.7818608E-02  0.9106436E-01
          2   -1    0    0  501    0  0.00000000000E+00  0.00000000000E+00  0.17706772403E+04  0.17706772403E+04  0.25500000000E-02 0. -1.
         -2   -1    0    0    0  501 -0.00000000000E+00 -0.00000000000E+00 -0.13333965994E+04  0.13333965994E+04  0.25500000000E-02 0.  1.
    8880023    1    1    2    0    0 -0.87297940871E+03  0.61346736323E+03 -0.78114156169E+03  0.14773041662E+04  0.65864270000E+03 0.  1.
    8880022    1    1    2    0    0  0.87297940871E+03 -0.61346736323E+03  0.12184222027E+04  0.16267696735E+04  0.15294330000E+03 0.  0.
<mgrwt>
<rscale>  0 0.12073629E+04</rscale>
<asrwt>0</asrwt>
<pdfrwt beam="1">  1        2 0.27241188E+00 0.12538921E+04</pdfrwt>
<pdfrwt beam="2">  1       -2 0.20513794E+00 0.12538921E+04</pdfrwt>
<totfact> 0.10634073E+00</totfact>
</mgrwt>
</event>
<event>
 4    2  0.3388003E-007  0.7841039E+03  0.7818608E-02  0.9746284E-01
          2   -1    0    0  501    0  0.00000000000E+00  0.00000000000E+00  0.22987792297E+04  0.22987792297E+04  0.25500000000E-02 0. -1.
         -2   -1    0    0    0  501 -0.00000000000E+00 -0.00000000000E+00 -0.17843559399E+03  0.17843559401E+03  0.25500000000E-02 0.  1.
    8880023    1    1    2    0    0  0.35315066621E+03  0.23726228358E+03  0.10120900774E+04  0.12802911057E+04  0.65864270000E+03 0.  1.
    8880022    1    1    2    0    0 -0.35315066621E+03 -0.23726228358E+03  0.11082535583E+04  0.11969237180E+04  0.15294330000E+03 0.  1.
<mgrwt>
<rscale>  0 0.68326701E+03</rscale>
<asrwt>0</asrwt>
<pdfrwt beam="1">  1        2 0.35365834E+00 0.78410394E+03</pdfrwt>
<pdfrwt beam="2">  1       -2 0.27451630E-01 0.78410394E+03</pdfrwt>
<totfact> 0.56573119E+01</totfact>
</mgrwt>
</event>
<event>
 4    2  0.3388003E-007  0.6752755E+03  0.7818608E-02  0.1012133E+00
         -2   -1    0    0    0  501 -0.00000000000E+00  0.00000000000E+00  0.29675576391E+03  0.29675576392E+03  0.25500000000E-02 0.  1.
          2   -1    0    0  501    0  0.00000000000E+00 -0.00000000000E+00 -0.72149203588E+03  0.72149203588E+03  0.25500000000E-02 0. -1.
    8880023    1    1    2    0    0 -0.13366967114E+03  0.65720771094E+02 -0.19117456664E+03  0.70181530471E+03  0.65864270000E+03 0.  1.
    8880022    1    1    2    0    0  0.13366967114E+03 -0.65720771094E+02 -0.23356170533E+03  0.31643249509E+03  0.15294330000E+03 0.  0.
<mgrwt>
<rscale>  0 0.50635569E+03</rscale>
<asrwt>0</asrwt>
<pdfrwt beam="1">  1        2 0.11099877E+00 0.67527550E+03</pdfrwt>
<pdfrwt beam="2">  1       -2 0.45654733E-01 0.67527550E+03</pdfrwt>
<totfact> 0.18185656E+02</totfact>
</mgrwt>
</event>
<event>
 4    2  0.3388003E-007  0.9032037E+03  0.7818608E-02  0.9520908E-01
          2   -1    0    0  501    0  0.00000000000E+00  0.00000000000E+00  0.15259423585E+04  0.15259423585E+04  0.25500000000E-02 0. -1.
         -2   -1    0    0    0  501 -0.00000000000E+00 -0.00000000000E+00 -0.51018844396E+03  0.51018844397E+03  0.25500000000E-02 0.  1.
    8880023    1    1    2    0    0 -0.19400074297E+03  0.58679681115E+03  0.83285298494E+02  0.90703551918E+03  0.65864270000E+03 0.  0.
    8880022    1    1    2    0    0  0.19400074297E+03 -0.58679681115E+03  0.93246861609E+03  0.11290952833E+04  0.15294330000E+03 0.  0.
<mgrwt>
<rscale>  0 0.82759755E+03</rscale>
<asrwt>0</asrwt>
<pdfrwt beam="1">  1        2 0.23476036E+00 0.90320374E+03</pdfrwt>
<pdfrwt beam="2">  1       -2 0.78490531E-01 0.90320374E+03</pdfrwt>
<totfact> 0.17828946E+01</totfact>
</mgrwt>
</event>
<event>
 4    2  0.3388003E-007  0.8566741E+03  0.7818608E-02  0.9599507E-01
          2   -1    0    0  501    0  0.00000000000E+00  0.00000000000E+00  0.26245699761E+04  0.26245699761E+04  0.25500000000E-02 0. -1.
         -2   -1    0    0    0  501 -0.00000000000E+00 -0.00000000000E+00 -0.36569993655E+03  0.36569993656E+03  0.25500000000E-02 0.  1.
    8880023    1    1    2    0    0  0.38122967246E+03 -0.39337536397E+03  0.23545516664E+03  0.88844222204E+03  0.65864270000E+03 0.  0.
    8880022    1    1    2    0    0 -0.38122967246E+03  0.39337536397E+03  0.20234148729E+04  0.21018276906E+04  0.15294330000E+03 0.  0.
<mgrwt>
<rscale>  0 0.77328802E+03</rscale>
<asrwt>0</asrwt>
<pdfrwt beam="1">  1        2 0.40377999E+00 0.85667406E+03</pdfrwt>
<pdfrwt beam="2">  1       -2 0.56261530E-01 0.85667406E+03</pdfrwt>
<totfact> 0.90299377E+00</totfact>
</mgrwt>
</event>
<event>
 4    2  0.3388003E-007  0.7538793E+03  0.7818608E-02  0.9821219E-01
         -2   -1    0    0    0  501 -0.00000000000E+00  0.00000000000E+00  0.25497686110E+03  0.25497686112E+03  0.25500000000E-02 0.  1.
          2   -1    0    0  501    0  0.00000000000E+00 -0.00000000000E+00 -0.15973278744E+04  0.15973278744E+04  0.25500000000E-02 0. -1.
    8880023    1    1    2    0    0  0.11503145968E+02 -0.36659441018E+03 -0.45628793479E+03  0.88121091098E+03  0.65864270000E+03 0.  1.
    8880022    1    1    2    0    0 -0.11503145968E+02  0.36659441018E+03 -0.88606307851E+03  0.97109382454E+03  0.15294330000E+03 0.  0.
<mgrwt>
<rscale>  0 0.64236140E+03</rscale>
<asrwt>0</asrwt>
<pdfrwt beam="1">  1        2 0.24574274E+00 0.75387929E+03</pdfrwt>
<pdfrwt beam="2">  1       -2 0.39227210E-01 0.75387929E+03</pdfrwt>
<totfact> 0.70208895E+01</totfact>
</mgrwt>
</event>
<event>
 4    2  0.3388003E-007  0.6896095E+03  0.7818608E-02  0.1004339E+00
         -2   -1    0    0    0  501 -0.00000000000E+00  0.00000000000E+00  0.27338076950E+03  0.27338076951E+03  0.25500000000E-02 0.  1.
          2   -1    0    0  501    0  0.00000000000E+00 -0.00000000000E+00 -0.16033750215E+04  0.16033750215E+04  0.25500000000E-02 0. -1.
    8880023    1    1    2    0    0  0.18969741027E+03 -0.75933683668E+02 -0.19961298233E+03  0.71791822707E+03  0.65864270000E+03 0.  1.
    8880022    1    1    2    0    0 -0.18969741027E+03  0.75933683668E+02 -0.11303812697E+04  0.11588375640E+04  0.15294330000E+03 0.  0.
<mgrwt>
<rscale>  0 0.53788028E+03</rscale>
<asrwt>0</asrwt>
<pdfrwt beam="1">  1        2 0.24667308E+00 0.68960948E+03</pdfrwt>
<pdfrwt beam="2">  1       -2 0.42058581E-01 0.68960948E+03</pdfrwt>
<totfact> 0.61216931E+01</totfact>
</mgrwt>
</event>
<event>
 4    2  0.3774867E-007  0.6624030E+03  0.7818608E-02  0.1021819E+00
          2   -1    0    0  501    0  0.00000000000E+00  0.00000000000E+00  0.21688716694E+04  0.21688716694E+04  0.25500000000E-02 0. -1.
         -2   -1    0    0    0  501 -0.00000000000E+00 -0.00000000000E+00 -0.74792564443E+03  0.74792564444E+03  0.25500000000E-02 0.  1.
    8880023    1    1    2    0    0  0.14147137596E+02 -0.69046139016E+02 -0.59706261314E+03  0.89177434426E+03  0.65864270000E+03 0.  1.
    8880022    1    1    2    0    0 -0.14147137596E+02  0.69046139016E+02  0.20180086381E+04  0.20250229695E+04  0.15294330000E+03 0.  0.
<mgrwt>
<rscale>  0 0.47035784E+03</rscale>
<asrwt>0</asrwt>
<pdfrwt beam="1">  1        2 0.33367256E+00 0.66240299E+03</pdfrwt>
<pdfrwt beam="2">  1       -2 0.11506549E+00 0.66240299E+03</pdfrwt>
<totfact> 0.33505145E+00</totfact>
</mgrwt>
</event>
<event>
 4    2  0.3388003E-007  0.8105837E+03  0.7818608E-02  0.9688362E-01
          2   -1    0    0  501    0  0.00000000000E+00  0.00000000000E+00  0.17789738772E+04  0.17789738772E+04  0.25500000000E-02 0. -1.
         -2   -1    0    0    0  501 -0.00000000000E+00 -0.00000000000E+00 -0.49727291090E+03  0.49727291091E+03  0.25500000000E-02 0.  1.
    8880023    1    1    2    0    0 -0.48519774062E+02 -0.46998037764E+03 -0.91758913755E+02  0.81576076662E+03  0.65864270000E+03 0.  1.
    8880022    1    1    2    0    0  0.48519774062E+02  0.46998037764E+03  0.13734598800E+04  0.14604860215E+04  0.15294330000E+03 0.  0.
<mgrwt>
<rscale>  0 0.71713936E+03</rscale>
<asrwt>0</asrwt>
<pdfrwt beam="1">  1        2 0.27368829E+00 0.81058370E+03</pdfrwt>
<pdfrwt beam="2">  1       -2 0.76503524E-01 0.81058370E+03</pdfrwt>
<totfact> 0.13836407E+01</totfact>
</mgrwt>
</event>
<event>
 4    2  0.3388003E-007  0.6764047E+03  0.7818608E-02  0.1011435E+00
          2   -1    0    0  501    0  0.00000000000E+00  0.00000000000E+00  0.91657925704E+03  0.91657925705E+03  0.25500000000E-02 0. -1.
         -2   -1    0    0    0  501 -0.00000000000E+00 -0.00000000000E+00 -0.47522021863E+03  0.47522021864E+03  0.25500000000E-02 0.  1.
    8880023    1    1    2    0    0  0.14027405188E+02  0.15335050562E+03 -0.20757081870E+03  0.70753727584E+03  0.65864270000E+03 0.  1.
    8880022    1    1    2    0    0 -0.14027405188E+02 -0.15335050562E+03  0.64892985711E+03  0.68426219984E+03  0.15294330000E+03 0.  0.
<mgrwt>
<rscale>  0 0.50908244E+03</rscale>
<asrwt>0</asrwt>
<pdfrwt beam="1">  1        2 0.14101219E+00 0.67640472E+03</pdfrwt>
<pdfrwt beam="2">  1       -2 0.73110803E-01 0.67640472E+03</pdfrwt>
<totfact> 0.49310803E+01</totfact>
</mgrwt>
</event>
<event>
 4    2  0.3388003E-007  0.1133592E+04  0.7818608E-02  0.9224547E-01
         -2   -1    0    0    0  501 -0.00000000000E+00  0.00000000000E+00  0.13488062209E+04  0.13488062209E+04  0.25500000000E-02 0.  1.
          2   -1    0    0  501    0  0.00000000000E+00 -0.00000000000E+00 -0.14016892768E+04  0.14016892769E+04  0.25500000000E-02 0. -1.
    8880023    1    1    2    0    0  0.62646876366E+03 -0.67731560625E+03  0.87581427250E+03  0.14325084253E+04  0.65864270000E+03 0.  0.
    8880022    1    1    2    0    0 -0.62646876366E+03  0.67731560625E+03 -0.92869732846E+03  0.13179870725E+04  0.15294330000E+03 0.  0.
<mgrwt>
<rscale>  0 0.10803621E+04</rscale>
<asrwt>0</asrwt>
<pdfrwt beam="1">  1        2 0.21564450E+00 0.11335915E+04</pdfrwt>
<pdfrwt beam="2">  1       -2 0.20750865E+00 0.11335915E+04</pdfrwt>
<totfact> 0.16769866E+00</totfact>
</mgrwt>
</event>
<event>
 4    2  0.3388003E-007  0.6644943E+03  0.7818608E-02  0.1019962E+00
         -2   -1    0    0    0  501 -0.00000000000E+00  0.00000000000E+00  0.19335313616E+03  0.19335313617E+03  0.25500000000E-02 0.  1.
          2   -1    0    0  501    0  0.00000000000E+00 -0.00000000000E+00 -0.13128382532E+04  0.13128382532E+04  0.25500000000E-02 0. -1.
    8880023    1    1    2    0    0  0.68510750444E+02  0.55215204170E+02 -0.42300834405E+03  0.78771105559E+03  0.65864270000E+03 0.  0.
    8880022    1    1    2    0    0 -0.68510750444E+02 -0.55215204170E+02 -0.69647677296E+03  0.71848033375E+03  0.15294330000E+03 0.  0.
<mgrwt>
<rscale>  0 0.47700504E+03</rscale>
<asrwt>0</asrwt>
<pdfrwt beam="1">  1        2 0.20197511E+00 0.66449428E+03</pdfrwt>
<pdfrwt beam="2">  1       -2 0.29746637E-01 0.66449428E+03</pdfrwt>
<totfact> 0.17260612E+02</totfact>
</mgrwt>
</event>
<event>
 4    2  0.3388003E-007  0.7782750E+03  0.7818608E-02  0.9759905E-01
          2   -1    0    0  501    0  0.00000000000E+00  0.00000000000E+00  0.99865823190E+03  0.99865823190E+03  0.25500000000E-02 0. -1.
         -2   -1    0    0    0  501 -0.00000000000E+00 -0.00000000000E+00 -0.10021203726E+04  0.10021203726E+04  0.25500000000E-02 0.  1.
    8880023    1    1    2    0    0 -0.40689835980E+03  0.79595368640E+02 -0.78344198474E+03  0.11043066819E+04  0.65864270000E+03 0.  1.
    8880022    1    1    2    0    0  0.40689835980E+03 -0.79595368640E+02  0.77997984405E+03  0.89647192262E+03  0.15294330000E+03 0.  0.
<mgrwt>
<rscale>  0 0.67559391E+03</rscale>
<asrwt>0</asrwt>
<pdfrwt beam="1">  1        2 0.15363973E+00 0.77827495E+03</pdfrwt>
<pdfrwt beam="2">  1       -2 0.15417237E+00 0.77827495E+03</pdfrwt>
<totfact> 0.71352208E+00</totfact>
</mgrwt>
</event>
<event>
 4    2  0.3388003E-007  0.7201097E+03  0.7818608E-02  0.9922215E-01
          2   -1    0    0  501    0  0.00000000000E+00  0.00000000000E+00  0.86455277540E+03  0.86455277540E+03  0.25500000000E-02 0. -1.
         -2   -1    0    0    0  501 -0.00000000000E+00 -0.00000000000E+00 -0.38863349795E+03  0.38863349796E+03  0.25500000000E-02 0.  1.
    8880023    1    1    2    0    0  0.27364253415E+03 -0.99335229168E+02  0.59478521921E+02  0.72256184862E+03  0.65864270000E+03 0.  1.
    8880022    1    1    2    0    0 -0.27364253415E+03  0.99335229168E+02  0.41644075553E+03  0.53062442474E+03  0.15294330000E+03 0.  0.
<mgrwt>
<rscale>  0 0.59196627E+03</rscale>
<asrwt>0</asrwt>
<pdfrwt beam="1">  1        2 0.13300812E+00 0.72010967E+03</pdfrwt>
<pdfrwt beam="2">  1       -2 0.59789769E-01 0.72010967E+03</pdfrwt>
<totfact> 0.82158886E+01</totfact>
</mgrwt>
</event>
<event>
 4    2  0.3388003E-007  0.6660616E+03  0.7818608E-02  0.1018659E+00
          2   -1    0    0  501    0  0.00000000000E+00  0.00000000000E+00  0.24972621402E+04  0.24972621402E+04  0.25500000000E-02 0. -1.
         -2   -1    0    0    0  501 -0.00000000000E+00 -0.00000000000E+00 -0.31315348405E+03  0.31315348406E+03  0.25500000000E-02 0.  1.
    8880023    1    1    2    0    0 -0.16349740084E+02 -0.97777989070E+02  0.49346586279E+02  0.66788707203E+03  0.65864270000E+03 0.  1.
    8880022    1    1    2    0    0  0.16349740084E+02  0.97777989070E+02  0.21347620699E+04  0.21425285523E+04  0.15294330000E+03 0.  0.
<mgrwt>
<rscale>  0 0.48173693E+03</rscale>
<asrwt>0</asrwt>
<pdfrwt beam="1">  1        2 0.38419419E+00 0.66606160E+03</pdfrwt>
<pdfrwt beam="2">  1       -2 0.48177457E-01 0.66606160E+03</pdfrwt>
<totfact> 0.15144135E+01</totfact>
</mgrwt>
</event>
<event>
 4    2  0.3388003E-007  0.9269001E+03  0.7818608E-02  0.9484159E-01
          2   -1    0    0  501    0  0.00000000000E+00  0.00000000000E+00  0.91951834114E+03  0.91951834114E+03  0.25500000000E-02 0. -1.
         -2   -1    0    0    0  501 -0.00000000000E+00 -0.00000000000E+00 -0.84864517874E+03  0.84864517874E+03  0.25500000000E-02 0.  1.
    8880023    1    1    2    0    0 -0.58373495353E+03 -0.29083854805E+03 -0.33423881237E+03  0.98532195091E+03  0.65864270000E+03 0.  1.
    8880022    1    1    2    0    0  0.58373495353E+03  0.29083854805E+03  0.40511197477E+03  0.78284156897E+03  0.15294330000E+03 0.  0.
<mgrwt>
<rscale>  0 0.85461842E+03</rscale>
<asrwt>0</asrwt>
<pdfrwt beam="1">  1        2 0.14146436E+00 0.92690008E+03</pdfrwt>
<pdfrwt beam="2">  1       -2 0.13056080E+00 0.92690008E+03</pdfrwt>
<totfact> 0.12201937E+01</totfact>
</mgrwt>
</event>
<event>
 4    2  0.3388003E-007  0.7460666E+03  0.7818608E-02  0.9842615E-01
          2   -1    0    0  501    0  0.00000000000E+00  0.00000000000E+00  0.14664344437E+04  0.14664344437E+04  0.25500000000E-02 0. -1.
         -2   -1    0    0    0  501 -0.00000000000E+00 -0.00000000000E+00 -0.31140225697E+03  0.31140225698E+03  0.25500000000E-02 0.  1.
    8880023    1    1    2    0    0 -0.13913131898E+03 -0.32163267782E+03  0.23610360204E+03  0.78253448520E+03  0.65864270000E+03 0.  1.
    8880022    1    1    2    0    0  0.13913131898E+03  0.32163267782E+03  0.91892858472E+03  0.99530221551E+03  0.15294330000E+03 0.  0.
<mgrwt>
<rscale>  0 0.63124856E+03</rscale>
<asrwt>0</asrwt>
<pdfrwt beam="1">  1        2 0.22560530E+00 0.74606656E+03</pdfrwt>
<pdfrwt beam="2">  1       -2 0.47908040E-01 0.74606656E+03</pdfrwt>
<totfact> 0.55906552E+01</totfact>
</mgrwt>
</event>
<event>
 4    2  0.3388003E-007  0.7097603E+03  0.7818608E-02  0.9958892E-01
          2   -1    0    0  501    0  0.00000000000E+00  0.00000000000E+00  0.61540219168E+03  0.61540219168E+03  0.25500000000E-02 0. -1.
         -2   -1    0    0    0  501 -0.00000000000E+00 -0.00000000000E+00 -0.10459410439E+04  0.10459410439E+04  0.25500000000E-02 0.  1.
    8880023    1    1    2    0    0  0.24675640453E+03  0.95188125507E+02 -0.87208264395E+03  0.11244055525E+04  0.65864270000E+03 0.  0.
    8880022    1    1    2    0    0 -0.24675640453E+03 -0.95188125507E+02  0.44154379175E+03  0.53693768303E+03  0.15294330000E+03 0.  0.
<mgrwt>
<rscale>  0 0.57490083E+03</rscale>
<asrwt>0</asrwt>
<pdfrwt beam="1">  1        2 0.94677261E-01 0.70976032E+03</pdfrwt>
<pdfrwt beam="2">  1       -2 0.16091401E+00 0.70976032E+03</pdfrwt>
<totfact> 0.12162522E+01</totfact>
</mgrwt>
</event>
<event>
 4    2  0.3388003E-007  0.6832185E+03  0.7818608E-02  0.1007559E+00
          2   -1    0    0  501    0  0.00000000000E+00  0.00000000000E+00  0.24597215873E+04  0.24597215873E+04  0.25500000000E-02 0. -1.
         -2   -1    0    0    0  501 -0.00000000000E+00 -0.00000000000E+00 -0.19876404921E+03  0.19876404923E+03  0.25500000000E-02 0.  1.
    8880023    1    1    2    0    0 -0.70994167687E+02  0.16714425916E+03  0.41937706540E+03  0.80166371033E+03  0.65864270000E+03 0.  1.
    8880022    1    1    2    0    0  0.70994167687E+02 -0.16714425916E+03  0.18415804727E+04  0.18568219262E+04  0.15294330000E+03 0.  0.
<mgrwt>
<rscale>  0 0.52456560E+03</rscale>
<asrwt>0</asrwt>
<pdfrwt beam="1">  1        2 0.37841871E+00 0.68321855E+03</pdfrwt>
<pdfrwt beam="2">  1       -2 0.30579084E-01 0.68321855E+03</pdfrwt>
<totfact> 0.38198002E+01</totfact>
</mgrwt>
</event>
<event>
 4    2  0.3388003E-007  0.8543525E+03  0.7818608E-02  0.9603689E-01
          2   -1    0    0  501    0  0.00000000000E+00  0.00000000000E+00  0.15374387842E+04  0.15374387842E+04  0.25500000000E-02 0. -1.
         -2   -1    0    0    0  501 -0.00000000000E+00 -0.00000000000E+00 -0.49664596298E+03  0.49664596299E+03  0.25500000000E-02 0.  1.
    8880023    1    1    2    0    0 -0.51640774092E+03  0.17155468911E+03  0.53075787234E+01  0.85436897351E+03  0.65864270000E+03 0.  0.
    8880022    1    1    2    0    0  0.51640774092E+03 -0.17155468911E+03  0.10354852425E+04  0.11797157737E+04  0.15294330000E+03 0.  0.
<mgrwt>
<rscale>  0 0.77052478E+03</rscale>
<asrwt>0</asrwt>
<pdfrwt beam="1">  1        2 0.23652904E+00 0.85435249E+03</pdfrwt>
<pdfrwt beam="2">  1       -2 0.76407072E-01 0.85435249E+03</pdfrwt>
<totfact> 0.18754122E+01</totfact>
</mgrwt>
</event>
<event>
 4    2  0.3388003E-007  0.6726818E+03  0.7818608E-02  0.1013809E+00
         -2   -1    0    0    0  501 -0.00000000000E+00  0.00000000000E+00  0.87644855100E+02  0.87644855137E+02  0.25500000000E-02 0.  1.
          2   -1    0    0  501    0  0.00000000000E+00 -0.00000000000E+00 -0.32350653702E+04  0.32350653702E+04  0.25500000000E-02 0. -1.
    8880023    1    1    2    0    0  0.44948602487E+02  0.12911325283E+03 -0.12980476696E+04  0.14619947222E+04  0.65864270000E+03 0.  0.
    8880022    1    1    2    0    0 -0.44948602487E+02 -0.12911325283E+03 -0.18493728455E+04  0.18607155031E+04  0.15294330000E+03 0.  0.
<mgrwt>
<rscale>  0 0.49988447E+03</rscale>
<asrwt>0</asrwt>
<pdfrwt beam="1">  1        2 0.49770227E+00 0.67268181E+03</pdfrwt>
<pdfrwt beam="2">  1       -2 0.13483826E-01 0.67268181E+03</pdfrwt>
<totfact> 0.55538962E+01</totfact>
</mgrwt>
</event>
<event>
 4    2  0.3388003E-007  0.6746078E+03  0.7818608E-02  0.1012555E+00
         -2   -1    0    0    0  501 -0.00000000000E+00  0.00000000000E+00  0.21097241874E+03  0.21097241875E+03  0.25500000000E-02 0.  1.
          2   -1    0    0  501    0  0.00000000000E+00 -0.00000000000E+00 -0.21419573808E+04  0.21419573808E+04  0.25500000000E-02 0. -1.
    8880023    1    1    2    0    0  0.96983235067E+02 -0.10899408611E+03 -0.35400949447E+03  0.76185194568E+03  0.65864270000E+03 0.  0.
    8880022    1    1    2    0    0 -0.96983235067E+02  0.10899408611E+03 -0.15769754676E+04  0.15910778539E+04  0.15294330000E+03 0.  0.
<mgrwt>
<rscale>  0 0.50471841E+03</rscale>
<asrwt>0</asrwt>
<pdfrwt beam="1">  1        2 0.32953189E+00 0.67460779E+03</pdfrwt>
<pdfrwt beam="2">  1       -2 0.32457297E-01 0.67460779E+03</pdfrwt>
<totfact> 0.51325508E+01</totfact>
</mgrwt>
</event>
<event>
 4    2  0.3388003E-007  0.7442977E+03  0.7818608E-02  0.9847600E-01
          2   -1    0    0  501    0  0.00000000000E+00  0.00000000000E+00  0.27664685799E+04  0.27664685799E+04  0.25500000000E-02 0. -1.
         -2   -1    0    0    0  501 -0.00000000000E+00 -0.00000000000E+00 -0.57428707447E+03  0.57428707448E+03  0.25500000000E-02 0.  1.
    8880023    1    1    2    0    0  0.32308624699E+03  0.12563518146E+03 -0.31274596491E+03  0.80733460637E+03  0.65864270000E+03 0.  0.
    8880022    1    1    2    0    0 -0.32308624699E+03 -0.12563518146E+03  0.25049274704E+04  0.25334210480E+04  0.15294330000E+03 0.  0.
<mgrwt>
<rscale>  0 0.62869416E+03</rscale>
<asrwt>0</asrwt>
<pdfrwt beam="1">  1        2 0.42561055E+00 0.74429774E+03</pdfrwt>
<pdfrwt beam="2">  1       -2 0.88351859E-01 0.74429774E+03</pdfrwt>
<totfact> 0.28326147E+00</totfact>
</mgrwt>
</event>
<event>
 4    2  0.3388003E-007  0.7159497E+03  0.7818608E-02  0.9936537E-01
          2   -1    0    0  501    0  0.00000000000E+00  0.00000000000E+00  0.19499637072E+04  0.19499637072E+04  0.25500000000E-02 0. -1.
         -2   -1    0    0    0  501 -0.00000000000E+00 -0.00000000000E+00 -0.13834952257E+03  0.13834952260E+03  0.25500000000E-02 0.  1.
    8880023    1    1    2    0    0 -0.23325765974E+03 -0.15609171239E+03  0.13262202253E+04  0.15071310662E+04  0.65864270000E+03 0. -1.
    8880022    1    1    2    0    0  0.23325765974E+03  0.15609171239E+03  0.48539395936E+03  0.58118216361E+03  0.15294330000E+03 0.  1.
<mgrwt>
<rscale>  0 0.58522769E+03</rscale>
<asrwt>0</asrwt>
<pdfrwt beam="1">  1        2 0.29999441E+00 0.71594969E+03</pdfrwt>
<pdfrwt beam="2">  1       -2 0.21284542E-01 0.71594969E+03</pdfrwt>
<totfact> 0.13993104E+02</totfact>
</mgrwt>
</event>
<event>
 4    2  0.3388003E-007  0.7811868E+03  0.7818608E-02  0.9753057E-01
          2   -1    0    0  501    0  0.00000000000E+00  0.00000000000E+00  0.11649797485E+04  0.11649797485E+04  0.25500000000E-02 0. -1.
         -2   -1    0    0    0  501 -0.00000000000E+00 -0.00000000000E+00 -0.34572903976E+03  0.34572903977E+03  0.25500000000E-02 0.  1.
    8880023    1    1    2    0    0  0.40533703268E+03 -0.11020208259E+03  0.33012047331E+03  0.84807567011E+03  0.65864270000E+03 0.  0.
    8880022    1    1    2    0    0 -0.40533703268E+03  0.11020208259E+03  0.48913023544E+03  0.66263311818E+03  0.15294330000E+03 0.  0.
<mgrwt>
<rscale>  0 0.67943813E+03</rscale>
<asrwt>0</asrwt>
<pdfrwt beam="1">  1        2 0.17922765E+00 0.78118680E+03</pdfrwt>
<pdfrwt beam="2">  1       -2 0.53189083E-01 0.78118680E+03</pdfrwt>
<totfact> 0.67169869E+01</totfact>
</mgrwt>
</event>
<event>
 4    2  0.3388003E-007  0.7501568E+03  0.7818608E-02  0.9831291E-01
         -2   -1    0    0    0  501 -0.00000000000E+00  0.00000000000E+00  0.41250255757E+03  0.41250255757E+03  0.25500000000E-02 0.  1.
          2   -1    0    0  501    0  0.00000000000E+00 -0.00000000000E+00 -0.98712588681E+03  0.98712588681E+03  0.25500000000E-02 0. -1.
    8880023    1    1    2    0    0 -0.16996535740E+03  0.31628604734E+03 -0.58328220208E+02  0.75242107493E+03  0.65864270000E+03 0.  1.
    8880022    1    1    2    0    0  0.16996535740E+03 -0.31628604734E+03 -0.51629510904E+03  0.64720736946E+03  0.15294330000E+03 0.  0.
<mgrwt>
<rscale>  0 0.63709986E+03</rscale>
<asrwt>0</asrwt>
<pdfrwt beam="1">  1        2 0.15186552E+00 0.75015685E+03</pdfrwt>
<pdfrwt beam="2">  1       -2 0.63461932E-01 0.75015685E+03</pdfrwt>
<totfact> 0.59893626E+01</totfact>
</mgrwt>
</event>
<event>
 4    2  0.3388003E-007  0.9190659E+03  0.7818608E-02  0.9496093E-01
         -2   -1    0    0    0  501 -0.00000000000E+00  0.00000000000E+00  0.56186246876E+03  0.56186246877E+03  0.25500000000E-02 0.  1.
          2   -1    0    0  501    0  0.00000000000E+00 -0.00000000000E+00 -0.18086685860E+04  0.18086685860E+04  0.25500000000E-02 0. -1.
    8880023    1    1    2    0    0 -0.15598967695E+03  0.62172269575E+03  0.45194293494E+02  0.92017640708E+03  0.65864270000E+03 0.  0.
    8880022    1    1    2    0    0  0.15598967695E+03 -0.62172269575E+03 -0.12920004107E+04  0.14503546477E+04  0.15294330000E+03 0.  0.
<mgrwt>
<rscale>  0 0.84572497E+03</rscale>
<asrwt>0</asrwt>
<pdfrwt beam="1">  1        2 0.27825670E+00 0.91906588E+03</pdfrwt>
<pdfrwt beam="2">  1       -2 0.86440381E-01 0.91906588E+03</pdfrwt>
<totfact> 0.99788107E+00</totfact>
</mgrwt>
</event>
<event>
 4    2  0.3388003E-007  0.1614337E+04  0.7818608E-02  0.8832852E-01
         -2   -1    0    0    0  501 -0.00000000000E+00  0.00000000000E+00  0.20350534027E+04  0.20350534027E+04  0.25500000000E-02 0.  1.
          2   -1    0    0  501    0  0.00000000000E+00 -0.00000000000E+00 -0.16184578854E+04  0.16184578854E+04  0.25500000000E-02 0. -1.
    8880023    1    1    2    0    0 -0.14687068740E+04  0.12318484988E+03  0.11675574450E+04  0.19923039383E+04  0.65864270000E+03 0.  0.
    8880022    1    1    2    0    0  0.14687068740E+04 -0.12318484988E+03 -0.75096192766E+03  0.16612073497E+04  0.15294330000E+03 0.  0.
<mgrwt>
<rscale>  0 0.15801251E+04</rscale>
<asrwt>0</asrwt>
<pdfrwt beam="1">  1        2 0.24899352E+00 0.16143372E+04</pdfrwt>
<pdfrwt beam="2">  1       -2 0.31308514E+00 0.16143372E+04</pdfrwt>
<totfact> 0.26712618E-01</totfact>
</mgrwt>
</event>
<event>
 4    2  0.3388003E-007  0.6727355E+03  0.7818608E-02  0.1013773E+00
          2   -1    0    0  501    0  0.00000000000E+00  0.00000000000E+00  0.31500963723E+04  0.31500963723E+04  0.25500000000E-02 0. -1.
         -2   -1    0    0    0  501 -0.00000000000E+00 -0.00000000000E+00 -0.11710348033E+03  0.11710348036E+03  0.25500000000E-02 0.  1.
    8880023    1    1    2    0    0 -0.12856379506E+03  0.47266981377E+02  0.89638257844E+03  0.11207474069E+04  0.65864270000E+03 0.  1.
    8880022    1    1    2    0    0  0.12856379506E+03 -0.47266981377E+02  0.21366103135E+04  0.21464524457E+04  0.15294330000E+03 0.  0.
<mgrwt>
<rscale>  0 0.50002153E+03</rscale>
<asrwt>0</asrwt>
<pdfrwt beam="1">  1        2 0.48463012E+00 0.67273548E+03</pdfrwt>
<pdfrwt beam="2">  1       -2 0.18015923E-01 0.67273548E+03</pdfrwt>
<totfact> 0.38460313E+01</totfact>
</mgrwt>
</event>
<event>
 4    2  0.3388003E-007  0.7087289E+03  0.7818608E-02  0.9962752E-01
         -2   -1    0    0    0  501 -0.00000000000E+00  0.00000000000E+00  0.56814362253E+03  0.56814362253E+03  0.25500000000E-02 0.  1.
          2   -1    0    0  501    0  0.00000000000E+00 -0.00000000000E+00 -0.11570481029E+04  0.11570481029E+04  0.25500000000E-02 0. -1.
    8880023    1    1    2    0    0 -0.26121973554E+03  0.15831474473E+02  0.31222006911E+03  0.77445333212E+03  0.65864270000E+03 0.  1.
    8880022    1    1    2    0    0  0.26121973554E+03 -0.15831474473E+02 -0.90112454946E+03  0.95073839328E+03  0.15294330000E+03 0.  0.
<mgrwt>
<rscale>  0 0.57314110E+03</rscale>
<asrwt>0</asrwt>
<pdfrwt beam="1">  1        2 0.17800740E+00 0.70872886E+03</pdfrwt>
<pdfrwt beam="2">  1       -2 0.87406712E-01 0.70872886E+03</pdfrwt>
<totfact> 0.23247613E+01</totfact>
</mgrwt>
</event>
<event>
 4    2  0.3388003E-007  0.9124941E+03  0.7818608E-02  0.9506265E-01
         -2   -1    0    0    0  501 -0.00000000000E+00  0.00000000000E+00  0.50397270895E+03  0.50397270896E+03  0.25500000000E-02 0.  1.
          2   -1    0    0  501    0  0.00000000000E+00 -0.00000000000E+00 -0.18016151374E+04  0.18016151374E+04  0.25500000000E-02 0. -1.
    8880023    1    1    2    0    0 -0.56834093290E+03  0.27536145459E+03 -0.68257842897E+02  0.91504354326E+03  0.65864270000E+03 0.  0.
    8880022    1    1    2    0    0  0.56834093290E+03 -0.27536145459E+03 -0.12293845855E+04  0.13905443031E+04  0.15294330000E+03 0.  0.
<mgrwt>
<rscale>  0 0.83823504E+03</rscale>
<asrwt>0</asrwt>
<pdfrwt beam="1">  1        2 0.27717156E+00 0.91249414E+03</pdfrwt>
<pdfrwt beam="2">  1       -2 0.77534264E-01 0.91249414E+03</pdfrwt>
<totfact> 0.12890978E+01</totfact>
</mgrwt>
</event>
<event>
 4    2  0.3388003E-007  0.6782710E+03  0.7818608E-02  0.1010319E+00
         -2   -1    0    0    0  501 -0.00000000000E+00  0.00000000000E+00  0.59292945751E+03  0.59292945751E+03  0.25500000000E-02 0.  1.
          2   -1    0    0  501    0  0.00000000000E+00 -0.00000000000E+00 -0.22312499578E+04  0.22312499578E+04  0.25500000000E-02 0. -1.
    8880023    1    1    2    0    0 -0.63332110988E+02 -0.14909875089E+03  0.39084360169E+03  0.78282202386E+03  0.65864270000E+03 0.  1.
    8880022    1    1    2    0    0  0.63332110988E+02  0.14909875089E+03 -0.20291641020E+04  0.20413573914E+04  0.15294330000E+03 0.  0.
<mgrwt>
<rscale>  0 0.51348034E+03</rscale>
<asrwt>0</asrwt>
<pdfrwt beam="1">  1        2 0.34326922E+00 0.67827104E+03</pdfrwt>
<pdfrwt beam="2">  1       -2 0.91219917E-01 0.67827104E+03</pdfrwt>
<totfact> 0.53620085E+00</totfact>
</mgrwt>
</event>
<event>
 4    2  0.3388003E-007  0.7729354E+03  0.7818608E-02  0.9772701E-01
         -2   -1    0    0    0  501 -0.00000000000E+00  0.00000000000E+00  0.69096149752E+03  0.69096149752E+03  0.25500000000E-02 0.  1.
          2   -1    0    0  501    0  0.00000000000E+00 -0.00000000000E+00 -0.20686778550E+04  0.20686778550E+04  0.25500000000E-02 0. -1.
    8880023    1    1    2    0    0  0.35495725865E+03 -0.19396984800E+03  0.44122041757E+03  0.89000259581E+03  0.65864270000E+03 0.  1.
    8880022    1    1    2    0    0 -0.35495725865E+03  0.19396984800E+03 -0.18189367751E+04  0.18696367567E+04  0.15294330000E+03 0.  0.
<mgrwt>
<rscale>  0 0.66848349E+03</rscale>
<asrwt>0</asrwt>
<pdfrwt beam="1">  1        2 0.31825813E+00 0.77293542E+03</pdfrwt>
<pdfrwt beam="2">  1       -2 0.10630177E+00 0.77293542E+03</pdfrwt>
<totfact> 0.45138470E+00</totfact>
</mgrwt>
</event>
<event>
 4    2  0.3388003E-007  0.6657045E+03  0.7818608E-02  0.1018950E+00
          2   -1    0    0  501    0  0.00000000000E+00  0.00000000000E+00  0.15718705266E+04  0.15718705266E+04  0.25500000000E-02 0. -1.
         -2   -1    0    0    0  501 -0.00000000000E+00 -0.00000000000E+00 -0.11560864479E+03  0.11560864482E+03  0.25500000000E-02 0.  1.
    8880023    1    1    2    0    0 -0.54387639464E+02  0.79964399724E+02  0.10576037843E+04  0.12496752744E+04  0.65864270000E+03 0.  0.
    8880022    1    1    2    0    0  0.54387639464E+02 -0.79964399724E+02  0.39865809755E+03  0.43780389709E+03  0.15294330000E+03 0.  1.
<mgrwt>
<rscale>  0 0.48067613E+03</rscale>
<asrwt>0</asrwt>
<pdfrwt beam="1">  1        2 0.24182623E+00 0.66570453E+03</pdfrwt>
<pdfrwt beam="2">  1       -2 0.17785946E-01 0.66570453E+03</pdfrwt>
<totfact> 0.30896175E+02</totfact>
</mgrwt>
</event>
<event>
 4    2  0.4878127E-007  0.7148092E+03  0.7818608E-02  0.9940558E-01
          2   -1    0    0  501    0  0.00000000000E+00  0.00000000000E+00  0.14859769234E+04  0.14859769234E+04  0.25500000000E-02 0. -1.
         -2   -1    0    0    0  501 -0.00000000000E+00 -0.00000000000E+00 -0.15467906675E+04  0.15467906675E+04  0.25500000000E-02 0.  1.
    8880023    1    1    2    0    0 -0.23537904358E+03 -0.14744065835E+03 -0.14453186043E+04  0.16124199565E+04  0.65864270000E+03 0.  0.
    8880022    1    1    2    0    0  0.23537904358E+03  0.14744065835E+03  0.13845048602E+04  0.14203476345E+04  0.15294330000E+03 0.  0.
<mgrwt>
<rscale>  0 0.58335319E+03</rscale>
<asrwt>0</asrwt>
<pdfrwt beam="1">  1        2 0.22861184E+00 0.71480924E+03</pdfrwt>
<pdfrwt beam="2">  1       -2 0.23796779E+00 0.71480924E+03</pdfrwt>
<totfact> 0.10318177E+00</totfact>
</mgrwt>
</event>
<event>
 4    2  0.3388003E-007  0.1249981E+04  0.7818608E-02  0.9110005E-01
         -2   -1    0    0    0  501 -0.00000000000E+00  0.00000000000E+00  0.76004135650E+03  0.76004135651E+03  0.25500000000E-02 0.  1.
          2   -1    0    0  501    0  0.00000000000E+00 -0.00000000000E+00 -0.19167509821E+04  0.19167509821E+04  0.25500000000E-02 0. -1.
    8880023    1    1    2    0    0  0.65829541455E+02  0.10603337918E+04 -0.98146323555E+03  0.15892518893E+04  0.65864270000E+03 0.  0.
    8880022    1    1    2    0    0 -0.65829541455E+02 -0.10603337918E+04 -0.17524639007E+03  0.10875404493E+04  0.15294330000E+03 0.  0.
<mgrwt>
<rscale>  0 0.12032630E+04</rscale>
<asrwt>0</asrwt>
<pdfrwt beam="1">  1        2 0.29488476E+00 0.12499806E+04</pdfrwt>
<pdfrwt beam="2">  1       -2 0.11692944E+00 0.12499806E+04</pdfrwt>
<totfact> 0.40872990E+00</totfact>
</mgrwt>
</event>
<event>
 4    2  0.3388003E-007  0.8814958E+03  0.7818608E-02  0.9556415E-01
          2   -1    0    0  501    0  0.00000000000E+00  0.00000000000E+00  0.10636128740E+04  0.10636128740E+04  0.25500000000E-02 0. -1.
         -2   -1    0    0    0  501 -0.00000000000E+00 -0.00000000000E+00 -0.56580516828E+03  0.56580516829E+03  0.25500000000E-02 0.  1.
    8880023    1    1    2    0    0  0.29952792903E+03 -0.50349542824E+03  0.52014752067E+03  0.10235175993E+04  0.65864270000E+03 0.  0.
    8880022    1    1    2    0    0 -0.29952792903E+03  0.50349542824E+03 -0.22339814928E+02  0.60590044303E+03  0.15294330000E+03 0.  0.
<mgrwt>
<rscale>  0 0.80249374E+03</rscale>
<asrwt>0</asrwt>
<pdfrwt beam="1">  1        2 0.16363275E+00 0.88149579E+03</pdfrwt>
<pdfrwt beam="2">  1       -2 0.87046949E-01 0.88149579E+03</pdfrwt>
<totfact> 0.26311667E+01</totfact>
</mgrwt>
</event>
<event>
 4    2  0.3388003E-007  0.6780925E+03  0.7818608E-02  0.1010424E+00
         -2   -1    0    0    0  501 -0.00000000000E+00  0.00000000000E+00  0.90438653673E+02  0.90438653709E+02  0.25500000000E-02 0.  1.
          2   -1    0    0  501    0  0.00000000000E+00 -0.00000000000E+00 -0.26706936511E+04  0.26706936511E+04  0.25500000000E-02 0. -1.
    8880023    1    1    2    0    0 -0.51842122743E+02  0.15268125218E+03 -0.13474231989E+04  0.15084292007E+04  0.65864270000E+03 0.  1.
    8880022    1    1    2    0    0  0.51842122743E+02 -0.15268125218E+03 -0.12328317985E+04  0.12527031041E+04  0.15294330000E+03 0. -1.
<mgrwt>
<rscale>  0 0.51306509E+03</rscale>
<asrwt>0</asrwt>
<pdfrwt beam="1">  1        2 0.41087589E+00 0.67809245E+03</pdfrwt>
<pdfrwt beam="2">  1       -2 0.13913641E-01 0.67809245E+03</pdfrwt>
<totfact> 0.11573632E+02</totfact>
</mgrwt>
</event>
<event>
 4    2  0.3388003E-007  0.7220884E+03  0.7818608E-02  0.9915582E-01
         -2   -1    0    0    0  501 -0.00000000000E+00  0.00000000000E+00  0.67618214597E+03  0.67618214597E+03  0.25500000000E-02 0.  1.
          2   -1    0    0  501    0  0.00000000000E+00 -0.00000000000E+00 -0.50967876017E+03  0.50967876018E+03  0.25500000000E-02 0. -1.
    8880023    1    1    2    0    0 -0.28518836919E+02 -0.29459827995E+03 -0.13725186279E+03  0.73501683702E+03  0.65864270000E+03 0. -1.
    8880022    1    1    2    0    0  0.28518836919E+02  0.29459827995E+03  0.30375524859E+03  0.45084406913E+03  0.15294330000E+03 0.  0.
<mgrwt>
<rscale>  0 0.59512034E+03</rscale>
<asrwt>0</asrwt>
<pdfrwt beam="1">  1        2 0.78412118E-01 0.72208841E+03</pdfrwt>
<pdfrwt beam="2">  1       -2 0.10402802E+00 0.72208841E+03</pdfrwt>
<totfact> 0.45890884E+01</totfact>
</mgrwt>
</event>
<event>
 4    2  0.3388003E-007  0.6907808E+03  0.7818608E-02  0.1003784E+00
         -2   -1    0    0    0  501 -0.00000000000E+00  0.00000000000E+00  0.30052704411E+03  0.30052704412E+03  0.25500000000E-02 0.  1.
          2   -1    0    0  501    0  0.00000000000E+00 -0.00000000000E+00 -0.12316987221E+04  0.12316987221E+04  0.25500000000E-02 0. -1.
    8880023    1    1    2    0    0 -0.76501756476E+02 -0.19368874519E+03 -0.14654825054E+03  0.70615468897E+03  0.65864270000E+03 0.  1.
    8880022    1    1    2    0    0  0.76501756476E+02  0.19368874519E+03 -0.78462342740E+03  0.82607107721E+03  0.15294330000E+03 0.  0.
<mgrwt>
<rscale>  0 0.54021832E+03</rscale>
<asrwt>0</asrwt>
<pdfrwt beam="1">  1        2 0.18949211E+00 0.69078076E+03</pdfrwt>
<pdfrwt beam="2">  1       -2 0.46234931E-01 0.69078076E+03</pdfrwt>
<totfact> 0.82182986E+01</totfact>
</mgrwt>
</event>
<event>
 4    2  0.4635367E-007  0.1013655E+04  0.7818608E-02  0.9363907E-01
         -2   -1    0    0    0  501 -0.00000000000E+00  0.00000000000E+00  0.12500790494E+04  0.12500790494E+04  0.25500000000E-02 0.  1.
          2   -1    0    0  501    0  0.00000000000E+00 -0.00000000000E+00 -0.23739849491E+04  0.23739849491E+04  0.25500000000E-02 0. -1.
    8880023    1    1    2    0    0 -0.26861150330E+03 -0.72217345190E+03  0.96056395829E+03  0.13964884384E+04  0.65864270000E+03 0.  1.
    8880022    1    1    2    0    0  0.26861150330E+03  0.72217345190E+03 -0.20844698580E+04  0.22275755602E+04  0.15294330000E+03 0.  0.
<mgrwt>
<rscale>  0 0.95106504E+03</rscale>
<asrwt>0</asrwt>
<pdfrwt beam="1">  1        2 0.36522845E+00 0.10136552E+04</pdfrwt>
<pdfrwt beam="2">  1       -2 0.19231985E+00 0.10136552E+04</pdfrwt>
<totfact> 0.61635882E-01</totfact>
</mgrwt>
</event>
<event>
 4    2  0.3388003E-007  0.7488233E+03  0.7818608E-02  0.9834953E-01
          2   -1    0    0  501    0  0.00000000000E+00  0.00000000000E+00  0.18231563148E+04  0.18231563148E+04  0.25500000000E-02 0. -1.
         -2   -1    0    0    0  501 -0.00000000000E+00 -0.00000000000E+00 -0.65287235330E+03  0.65287235330E+03  0.25500000000E-02 0.  1.
    8880023    1    1    2    0    0 -0.33470999437E+03  0.12204640371E+03 -0.40666191714E+03  0.85212101612E+03  0.65864270000E+03 0.  1.
    8880022    1    1    2    0    0  0.33470999437E+03 -0.12204640371E+03  0.15769458786E+04  0.16239076520E+04  0.15294330000E+03 0.  0.
<mgrwt>
<rscale>  0 0.63520044E+03</rscale>
<asrwt>0</asrwt>
<pdfrwt beam="1">  1        2 0.28048559E+00 0.74882328E+03</pdfrwt>
<pdfrwt beam="2">  1       -2 0.10044190E+00 0.74882328E+03</pdfrwt>
<totfact> 0.70651074E+00</totfact>
</mgrwt>
</event>
<event>
 4    2  0.3388003E-007  0.7085694E+03  0.7818608E-02  0.9963352E-01
         -2   -1    0    0    0  501 -0.00000000000E+00  0.00000000000E+00  0.50999092467E+03  0.50999092467E+03  0.25500000000E-02 0.  1.
          2   -1    0    0  501    0  0.00000000000E+00 -0.00000000000E+00 -0.74654003589E+03  0.74654003589E+03  0.25500000000E-02 0. -1.
    8880023    1    1    2    0    0  0.19727670727E+03  0.17129590519E+03  0.18987492312E+03  0.73356872824E+03  0.65864270000E+03 0.  1.
    8880022    1    1    2    0    0 -0.19727670727E+03 -0.17129590519E+03 -0.42642403434E+03  0.52296223233E+03  0.15294330000E+03 0. -1.
<mgrwt>
<rscale>  0 0.57286800E+03</rscale>
<asrwt>0</asrwt>
<pdfrwt beam="1">  1        2 0.11485231E+00 0.70856940E+03</pdfrwt>
<pdfrwt beam="2">  1       -2 0.78460142E-01 0.70856940E+03</pdfrwt>
<totfact> 0.55367952E+01</totfact>
</mgrwt>
</event>
<event>
 4    2  0.3472984E-007  0.7722229E+03  0.7818608E-02  0.9774433E-01
          2   -1    0    0  501    0  0.00000000000E+00  0.00000000000E+00  0.12287461991E+04  0.12287461991E+04  0.25500000000E-02 0. -1.
         -2   -1    0    0    0  501 -0.00000000000E+00 -0.00000000000E+00 -0.19781183555E+04  0.19781183555E+04  0.25500000000E-02 0.  1.
    8880023    1    1    2    0    0 -0.35782807476E+03 -0.18567988628E+03 -0.18608318015E+04  0.20147017523E+04  0.65864270000E+03 0.  1.
    8880022    1    1    2    0    0  0.35782807476E+03  0.18567988628E+03  0.11114596451E+04  0.11921628022E+04  0.15294330000E+03 0.  0.
<mgrwt>
<rscale>  0 0.66752836E+03</rscale>
<asrwt>0</asrwt>
<pdfrwt beam="1">  1        2 0.18903788E+00 0.77222287E+03</pdfrwt>
<pdfrwt beam="2">  1       -2 0.30432590E+00 0.77222287E+03</pdfrwt>
<totfact> 0.56956030E-01</totfact>
</mgrwt>
</event>
<event>
 4    2  0.3388003E-007  0.6678611E+03  0.7818608E-02  0.1017245E+00
          2   -1    0    0  501    0  0.00000000000E+00  0.00000000000E+00  0.32036356636E+04  0.32036356636E+04  0.25500000000E-02 0. -1.
         -2   -1    0    0    0  501 -0.00000000000E+00 -0.00000000000E+00 -0.25659299137E+03  0.25659299138E+03  0.25500000000E-02 0.  1.
    8880023    1    1    2    0    0  0.93925433499E+02  0.58362716969E+02  0.18673391711E+03  0.69347527415E+03  0.65864270000E+03 0.  1.
    8880022    1    1    2    0    0 -0.93925433499E+02 -0.58362716969E+02  0.27603087551E+04  0.27667533808E+04  0.15294330000E+03 0.  0.
<mgrwt>
<rscale>  0 0.48694073E+03</rscale>
<asrwt>0</asrwt>
<pdfrwt beam="1">  1        2 0.49286706E+00 0.66786106E+03</pdfrwt>
<pdfrwt beam="2">  1       -2 0.39475842E-01 0.66786106E+03</pdfrwt>
<totfact> 0.85191042E+00</totfact>
</mgrwt>
</event>
<event>
 4    2  0.3388003E-007  0.6950008E+03  0.7818608E-02  0.1001861E+00
          2   -1    0    0  501    0  0.00000000000E+00  0.00000000000E+00  0.17539121613E+04  0.17539121613E+04  0.25500000000E-02 0. -1.
         -2   -1    0    0    0  501 -0.00000000000E+00 -0.00000000000E+00 -0.15673063059E+03  0.15673063061E+03  0.25500000000E-02 0.  1.
    8880023    1    1    2    0    0 -0.20632961864E+03 -0.81510708195E+02  0.75397803167E+03  0.10254311218E+04  0.65864270000E+03 0.  1.
    8880022    1    1    2    0    0  0.20632961864E+03  0.81510708195E+02  0.84320349901E+03  0.88521167007E+03  0.15294330000E+03 0. -1.
<mgrwt>
<rscale>  0 0.54841801E+03</rscale>
<asrwt>0</asrwt>
<pdfrwt beam="1">  1        2 0.26983264E+00 0.69500080E+03</pdfrwt>
<pdfrwt beam="2">  1       -2 0.24112405E-01 0.69500080E+03</pdfrwt>
<totfact> 0.14360931E+02</totfact>
</mgrwt>
</event>
<event>
 4    2  0.3388003E-007  0.1109600E+04  0.7818608E-02  0.9250443E-01
         -2   -1    0    0    0  501 -0.00000000000E+00  0.00000000000E+00  0.54989673182E+03  0.54989673183E+03  0.25500000000E-02 0.  1.
          2   -1    0    0  501    0  0.00000000000E+00 -0.00000000000E+00 -0.22413169936E+04  0.22413169936E+04  0.25500000000E-02 0. -1.
    8880023    1    1    2    0    0  0.89294221636E+03 -0.74536998116E+01 -0.14990538641E+04  0.18650399602E+04  0.65864270000E+03 0.  0.
    8880022    1    1    2    0    0 -0.89294221636E+03  0.74536998116E+01 -0.19236639764E+03  0.92617376520E+03  0.15294330000E+03 0.  0.
<mgrwt>
<rscale>  0 0.10547608E+04</rscale>
<asrwt>0</asrwt>
<pdfrwt beam="1">  1        2 0.34481800E+00 0.11095997E+04</pdfrwt>
<pdfrwt beam="2">  1       -2 0.84599498E-01 0.11095997E+04</pdfrwt>
<totfact> 0.59158232E+00</totfact>
</mgrwt>
</event>
<event>
 4    2  0.3388003E-007  0.1003655E+04  0.7818608E-02  0.9376791E-01
          2   -1    0    0  501    0  0.00000000000E+00  0.00000000000E+00  0.73576325923E+03  0.73576325923E+03  0.25500000000E-02 0. -1.
         -2   -1    0    0    0  501 -0.00000000000E+00 -0.00000000000E+00 -0.19227662137E+04  0.19227662137E+04  0.25500000000E-02 0.  1.
    8880023    1    1    2    0    0 -0.59504391220E+03  0.46843966458E+03 -0.15165513720E+04  0.18185849573E+04  0.65864270000E+03 0.  0.
    8880022    1    1    2    0    0  0.59504391220E+03 -0.46843966458E+03  0.32954841753E+03  0.83994451561E+03  0.15294330000E+03 0.  0.
<mgrwt>
<rscale>  0 0.94010514E+03</rscale>
<asrwt>0</asrwt>
<pdfrwt beam="1">  1        2 0.11319435E+00 0.10036549E+04</pdfrwt>
<pdfrwt beam="2">  1       -2 0.29581018E+00 0.10036549E+04</pdfrwt>
<totfact> 0.13011219E+00</totfact>
</mgrwt>
</event>
<event>
 4    2  0.3388003E-007  0.9304985E+03  0.7818608E-02  0.9478746E-01
          2   -1    0    0  501    0  0.00000000000E+00  0.00000000000E+00  0.83381016404E+03  0.83381016404E+03  0.25500000000E-02 0. -1.
         -2   -1    0    0    0  501 -0.00000000000E+00 -0.00000000000E+00 -0.12579580852E+04  0.12579580852E+04  0.25500000000E-02 0.  1.
    8880023    1    1    2    0    0 -0.63875038140E+02 -0.65416918202E+03 -0.87733168890E+03  0.12788817138E+04  0.65864270000E+03 0.  1.
    8880022    1    1    2    0    0  0.63875038140E+02  0.65416918202E+03  0.45318376774E+03  0.81288653548E+03  0.15294330000E+03 0.  0.
<mgrwt>
<rscale>  0 0.85869113E+03</rscale>
<asrwt>0</asrwt>
<pdfrwt beam="1">  1        2 0.12827849E+00 0.93049855E+03</pdfrwt>
<pdfrwt beam="2">  1       -2 0.19353201E+00 0.93049855E+03</pdfrwt>
<totfact> 0.47800639E+00</totfact>
</mgrwt>
</event>
<event>
 4    2  0.3388003E-007  0.6970599E+03  0.7818608E-02  0.1000962E+00
          2   -1    0    0  501    0  0.00000000000E+00  0.00000000000E+00  0.12739353223E+04  0.12739353223E+04  0.25500000000E-02 0. -1.
         -2   -1    0    0    0  501 -0.00000000000E+00 -0.00000000000E+00 -0.30778554759E+03  0.30778554760E+03  0.25500000000E-02 0.  1.
    8880023    1    1    2    0    0  0.15342392857E+03  0.16894790541E+03  0.13985314678E+03  0.71095105706E+03  0.65864270000E+03 0.  1.
    8880022    1    1    2    0    0 -0.15342392857E+03 -0.16894790541E+03  0.82629662789E+03  0.87076981280E+03  0.15294330000E+03 0.  0.
<mgrwt>
<rscale>  0 0.55230275E+03</rscale>
<asrwt>0</asrwt>
<pdfrwt beam="1">  1        2 0.19599005E+00 0.69705990E+03</pdfrwt>
<pdfrwt beam="2">  1       -2 0.47351623E-01 0.69705990E+03</pdfrwt>
<totfact> 0.73986221E+01</totfact>
</mgrwt>
</event>
<event>
 4    2  0.3388003E-007  0.1004583E+04  0.7818608E-02  0.9375587E-01
          2   -1    0    0  501    0  0.00000000000E+00  0.00000000000E+00  0.20502866965E+04  0.20502866965E+04  0.25500000000E-02 0. -1.
         -2   -1    0    0    0  501 -0.00000000000E+00 -0.00000000000E+00 -0.53016428871E+03  0.53016428871E+03  0.25500000000E-02 0.  1.
    8880023    1    1    2    0    0  0.52721090212E+03 -0.54536658312E+03  0.15013239832E+04  0.18064218649E+04  0.65864270000E+03 0.  0.
    8880022    1    1    2    0    0 -0.52721090212E+03  0.54536658312E+03  0.18798424607E+02  0.77402912030E+03  0.15294330000E+03 0.  0.
<mgrwt>
<rscale>  0 0.94112334E+03</rscale>
<asrwt>0</asrwt>
<pdfrwt beam="1">  1        2 0.31542872E+00 0.10045826E+04</pdfrwt>
<pdfrwt beam="2">  1       -2 0.81563736E-01 0.10045826E+04</pdfrwt>
<totfact> 0.83064419E+00</totfact>
</mgrwt>
</event>
<event>
 4    2  0.3388003E-007  0.6649502E+03  0.7818608E-02  0.1019575E+00
         -2   -1    0    0    0  501 -0.00000000000E+00  0.00000000000E+00  0.20270124092E+03  0.20270124094E+03  0.25500000000E-02 0.  1.
          2   -1    0    0  501    0  0.00000000000E+00 -0.00000000000E+00 -0.21315007096E+04  0.21315007096E+04  0.25500000000E-02 0. -1.
    8880023    1    1    2    0    0 -0.26399444599E+02  0.87473718235E+02 -0.36160354149E+03  0.75691208838E+03  0.65864270000E+03 0.  1.
    8880022    1    1    2    0    0  0.26399444599E+02 -0.87473718235E+02 -0.15671959271E+04  0.15772898621E+04  0.15294330000E+03 0.  0.
<mgrwt>
<rscale>  0 0.47840214E+03</rscale>
<asrwt>0</asrwt>
<pdfrwt beam="1">  1        2 0.32792317E+00 0.66495021E+03</pdfrwt>
<pdfrwt beam="2">  1       -2 0.31184808E-01 0.66495021E+03</pdfrwt>
<totfact> 0.56120638E+01</totfact>
</mgrwt>
</event>
<event>
 4    2  0.3388003E-007  0.6883748E+03  0.7818608E-02  0.1004935E+00
         -2   -1    0    0    0  501 -0.00000000000E+00  0.00000000000E+00  0.60709046870E+03  0.60709046870E+03  0.25500000000E-02 0.  1.
          2   -1    0    0  501    0  0.00000000000E+00 -0.00000000000E+00 -0.77620487757E+03  0.77620487757E+03  0.25500000000E-02 0. -1.
    8880023    1    1    2    0    0 -0.18091258655E+03  0.85558580844E+02  0.37486999460E+03  0.78382865082E+03  0.65864270000E+03 0.  0.
    8880022    1    1    2    0    0  0.18091258655E+03 -0.85558580844E+02 -0.54398440347E+03  0.59946669546E+03  0.15294330000E+03 0.  0.
<mgrwt>
<rscale>  0 0.53538378E+03</rscale>
<asrwt>0</asrwt>
<pdfrwt beam="1">  1        2 0.11941613E+00 0.68837478E+03</pdfrwt>
<pdfrwt beam="2">  1       -2 0.93398534E-01 0.68837478E+03</pdfrwt>
<totfact> 0.35441175E+01</totfact>
</mgrwt>
</event>
<event>
 4    2  0.3388003E-007  0.1008006E+04  0.7818608E-02  0.9371157E-01
         -2   -1    0    0    0  501 -0.00000000000E+00  0.00000000000E+00  0.46469670279E+03  0.46469670279E+03  0.25500000000E-02 0.  1.
          2   -1    0    0  501    0  0.00000000000E+00 -0.00000000000E+00 -0.21119708498E+04  0.21119708498E+04  0.25500000000E-02 0. -1.
    8880023    1    1    2    0    0 -0.19847519363E+02 -0.76280544069E+03 -0.35603643029E+03  0.10690361127E+04  0.65864270000E+03 0.  1.
    8880022    1    1    2    0    0  0.19847519363E+02  0.76280544069E+03 -0.12912377167E+04  0.15076314399E+04  0.15294330000E+03 0.  0.
<mgrwt>
<rscale>  0 0.94487808E+03</rscale>
<asrwt>0</asrwt>
<pdfrwt beam="1">  1        2 0.32491859E+00 0.10080061E+04</pdfrwt>
<pdfrwt beam="2">  1       -2 0.71491802E-01 0.10080061E+04</pdfrwt>
<totfact> 0.10305706E+01</totfact>
</mgrwt>
</event>
<event>
 4    2  0.3388003E-007  0.7891207E+03  0.7818608E-02  0.9734833E-01
          2   -1    0    0  501    0  0.00000000000E+00  0.00000000000E+00  0.25613508373E+04  0.25613508373E+04  0.25500000000E-02 0. -1.
         -2   -1    0    0    0  501 -0.00000000000E+00 -0.00000000000E+00 -0.18110809746E+03  0.18110809747E+03  0.25500000000E-02 0.  1.
    8880023    1    1    2    0    0 -0.14639289909E+03 -0.40923151322E+03  0.92422920031E+03  0.12152823266E+04  0.65864270000E+03 0.  1.
    8880022    1    1    2    0    0  0.14639289909E+03  0.40923151322E+03  0.14560135395E+04  0.15271766082E+04  0.15294330000E+03 0.  0.
<mgrwt>
<rscale>  0 0.68980214E+03</rscale>
<asrwt>0</asrwt>
<pdfrwt beam="1">  1        2 0.39405396E+00 0.78912072E+03</pdfrwt>
<pdfrwt beam="2">  1       -2 0.27862785E-01 0.78912072E+03</pdfrwt>
<totfact> 0.39129132E+01</totfact>
</mgrwt>
</event>
<event>
 4    2  0.3388003E-007  0.6997212E+03  0.7818608E-02  0.9998360E-01
         -2   -1    0    0    0  501 -0.00000000000E+00  0.00000000000E+00  0.53399455448E+03  0.53399455449E+03  0.25500000000E-02 0.  1.
          2   -1    0    0  501    0  0.00000000000E+00 -0.00000000000E+00 -0.45926503413E+03  0.45926503413E+03  0.25500000000E-02 0. -1.
    8880023    1    1    2    0    0  0.11085059766E+03 -0.20859468441E+03 -0.85924318127E+01  0.69977398745E+03  0.65864270000E+03 0. -1.
    8880022    1    1    2    0    0 -0.11085059766E+03  0.20859468441E+03  0.83321952166E+02  0.29348560117E+03  0.15294330000E+03 0.  1.
<mgrwt>
<rscale>  0 0.55722224E+03</rscale>
<asrwt>0</asrwt>
<pdfrwt beam="1">  1        2 0.70656159E-01 0.69972123E+03</pdfrwt>
<pdfrwt beam="2">  1       -2 0.82153008E-01 0.69972123E+03</pdfrwt>
<totfact> 0.89666834E+01</totfact>
</mgrwt>
</event>
<event>
 4    2  0.3388003E-007  0.7330827E+03  0.7818608E-02  0.9880575E-01
          2   -1    0    0  501    0  0.00000000000E+00  0.00000000000E+00  0.47451072752E+03  0.47451072753E+03  0.25500000000E-02 0. -1.
         -2   -1    0    0    0  501 -0.00000000000E+00 -0.00000000000E+00 -0.81488794156E+03  0.81488794156E+03  0.25500000000E-02 0.  1.
    8880023    1    1    2    0    0 -0.30039892985E+03 -0.11558772277E+03  0.80992798376E+02  0.73754327220E+03  0.65864270000E+03 0.  0.
    8880022    1    1    2    0    0  0.30039892985E+03  0.11558772277E+03 -0.42137001241E+03  0.55185539689E+03  0.15294330000E+03 0.  0.
<mgrwt>
<rscale>  0 0.61212010E+03</rscale>
<asrwt>0</asrwt>
<pdfrwt beam="1">  1        2 0.73001650E-01 0.73308270E+03</pdfrwt>
<pdfrwt beam="2">  1       -2 0.12536738E+00 0.73308270E+03</pdfrwt>
<totfact> 0.31562790E+01</totfact>
</mgrwt>
</event>
<event>
 4    2  0.3388003E-007  0.7864215E+03  0.7818608E-02  0.9740963E-01
         -2   -1    0    0    0  501 -0.00000000000E+00  0.00000000000E+00  0.41596124585E+03  0.41596124586E+03  0.25500000000E-02 0.  1.
          2   -1    0    0  501    0  0.00000000000E+00 -0.00000000000E+00 -0.23489384232E+04  0.23489384232E+04  0.25500000000E-02 0. -1.
    8880023    1    1    2    0    0  0.41900585131E+03 -0.95302689744E+02 -0.78326304653E+01  0.78646046466E+03  0.65864270000E+03 0.  1.
    8880022    1    1    2    0    0 -0.41900585131E+03  0.95302689744E+02 -0.19251445468E+04  0.19784392044E+04  0.15294330000E+03 0.  0.
<mgrwt>
<rscale>  0 0.68629355E+03</rscale>
<asrwt>0</asrwt>
<pdfrwt beam="1">  1        2 0.36137513E+00 0.78642146E+03</pdfrwt>
<pdfrwt beam="2">  1       -2 0.63994039E-01 0.78642146E+03</pdfrwt>
<totfact> 0.99677800E+00</totfact>
</mgrwt>
</event>
<event>
 4    2  0.3388003E-007  0.8958082E+03  0.7818608E-02  0.9532795E-01
         -2   -1    0    0    0  501 -0.00000000000E+00  0.00000000000E+00  0.13580274694E+04  0.13580274694E+04  0.25500000000E-02 0.  1.
          2   -1    0    0  501    0  0.00000000000E+00 -0.00000000000E+00 -0.51324785527E+03  0.51324785528E+03  0.25500000000E-02 0. -1.
    8880023    1    1    2    0    0  0.23189129153E+03 -0.56114927838E+03  0.86436249425E+03  0.12448272215E+04  0.65864270000E+03 0.  1.
    8880022    1    1    2    0    0 -0.23189129153E+03  0.56114927838E+03 -0.19582880132E+02  0.62644810314E+03  0.15294330000E+03 0.  0.
<mgrwt>
<rscale>  0 0.81908593E+03</rscale>
<asrwt>0</asrwt>
<pdfrwt beam="1">  1        2 0.78961208E-01 0.89580818E+03</pdfrwt>
<pdfrwt beam="2">  1       -2 0.20892730E+00 0.89580818E+03</pdfrwt>
<totfact> 0.69861020E+00</totfact>
</mgrwt>
</event>
<event>
 4    2  0.3388003E-007  0.6988289E+03  0.7818608E-02  0.1000209E+00
         -2   -1    0    0    0  501 -0.00000000000E+00  0.00000000000E+00  0.34651741543E+03  0.34651741544E+03  0.25500000000E-02 0.  1.
          2   -1    0    0  501    0  0.00000000000E+00 -0.00000000000E+00 -0.12588229528E+04  0.12588229528E+04  0.25500000000E-02 0. -1.
    8880023    1    1    2    0    0  0.13854868662E+03 -0.18803151806E+03 -0.51876967863E+02  0.70075175091E+03  0.65864270000E+03 0.  1.
    8880022    1    1    2    0    0 -0.13854868662E+03  0.18803151806E+03 -0.86042856951E+03  0.90458861732E+03  0.15294330000E+03 0.  0.
<mgrwt>
<rscale>  0 0.55558491E+03</rscale>
<asrwt>0</asrwt>
<pdfrwt beam="1">  1        2 0.19366507E+00 0.69882888E+03</pdfrwt>
<pdfrwt beam="2">  1       -2 0.53310372E-01 0.69882888E+03</pdfrwt>
<totfact> 0.59300866E+01</totfact>
</mgrwt>
</event>
<event>
 4    2  0.3388003E-007  0.1461820E+04  0.7818608E-02  0.8937078E-01
          2   -1    0    0  501    0  0.00000000000E+00  0.00000000000E+00  0.13942179595E+04  0.13942179595E+04  0.25500000000E-02 0. -1.
         -2   -1    0    0    0  501 -0.00000000000E+00 -0.00000000000E+00 -0.20343977625E+04  0.20343977625E+04  0.25500000000E-02 0.  1.
    8880023    1    1    2    0    0 -0.70997625729E+02  0.13030985289E+04 -0.13018296289E+04  0.19574669927E+04  0.65864270000E+03 0.  0.
    8880022    1    1    2    0    0  0.70997625729E+02 -0.13030985289E+04  0.66164982588E+03  0.14711487293E+04  0.15294330000E+03 0.  0.
<mgrwt>
<rscale>  0 0.14233644E+04</rscale>
<asrwt>0</asrwt>
<pdfrwt beam="1">  1        2 0.21449507E+00 0.14618196E+04</pdfrwt>
<pdfrwt beam="2">  1       -2 0.31298427E+00 0.14618196E+04</pdfrwt>
<totfact> 0.36499676E-01</totfact>
</mgrwt>
</event>
<event>
 4    2  0.3388003E-007  0.7890587E+03  0.7818608E-02  0.9734973E-01
         -2   -1    0    0    0  501 -0.00000000000E+00  0.00000000000E+00  0.50199651833E+03  0.50199651833E+03  0.25500000000E-02 0.  1.
          2   -1    0    0  501    0  0.00000000000E+00 -0.00000000000E+00 -0.98587789892E+03  0.98587789892E+03  0.25500000000E-02 0. -1.
    8880023    1    1    2    0    0  0.30630834961E+02  0.43343423140E+03  0.40251541088E+02  0.79008472572E+03  0.65864270000E+03 0.  0.
    8880022    1    1    2    0    0 -0.30630834961E+02 -0.43343423140E+03 -0.52413292168E+03  0.69778969153E+03  0.15294330000E+03 0.  0.
<mgrwt>
<rscale>  0 0.68972176E+03</rscale>
<asrwt>0</asrwt>
<pdfrwt beam="1">  1        2 0.15167352E+00 0.78905873E+03</pdfrwt>
<pdfrwt beam="2">  1       -2 0.77230234E-01 0.78905873E+03</pdfrwt>
<totfact> 0.38948886E+01</totfact>
</mgrwt>
</event>
<event>
 4    2  0.3388003E-007  0.1394689E+04  0.7818608E-02  0.8987821E-01
          2   -1    0    0  501    0  0.00000000000E+00  0.00000000000E+00  0.12619337740E+04  0.12619337740E+04  0.25500000000E-02 0. -1.
         -2   -1    0    0    0  501 -0.00000000000E+00 -0.00000000000E+00 -0.23145510533E+04  0.23145510533E+04  0.25500000000E-02 0.  1.
    8880023    1    1    2    0    0 -0.31134990327E+03  0.11892886782E+04 -0.16835678817E+04  0.21862198748E+04  0.65864270000E+03 0.  0.
    8880022    1    1    2    0    0  0.31134990327E+03 -0.11892886782E+04  0.63095060241E+03  0.13902649525E+04  0.15294330000E+03 0.  0.
<mgrwt>
<rscale>  0 0.13539800E+04</rscale>
<asrwt>0</asrwt>
<pdfrwt beam="1">  1        2 0.19414366E+00 0.13946887E+04</pdfrwt>
<pdfrwt beam="2">  1       -2 0.35608478E+00 0.13946887E+04</pdfrwt>
<totfact> 0.23710352E-01</totfact>
</mgrwt>
</event>
<event>
 4    2  0.3388003E-007  0.7045559E+03  0.7818608E-02  0.9978802E-01
         -2   -1    0    0    0  501 -0.00000000000E+00  0.00000000000E+00  0.27134382991E+03  0.27134382992E+03  0.25500000000E-02 0.  1.
          2   -1    0    0  501    0  0.00000000000E+00 -0.00000000000E+00 -0.19575601337E+04  0.19575601337E+04  0.25500000000E-02 0. -1.
    8880023    1    1    2    0    0  0.15637403666E+03 -0.19528419439E+03 -0.22656011708E+03  0.74008678466E+03  0.65864270000E+03 0.  1.
    8880022    1    1    2    0    0 -0.15637403666E+03  0.19528419439E+03 -0.14596561867E+04  0.14888171789E+04  0.15294330000E+03 0.  0.
<mgrwt>
<rscale>  0 0.56589585E+03</rscale>
<asrwt>0</asrwt>
<pdfrwt beam="1">  1        2 0.30116309E+00 0.70455586E+03</pdfrwt>
<pdfrwt beam="2">  1       -2 0.41745206E-01 0.70455586E+03</pdfrwt>
<totfact> 0.39753743E+01</totfact>
</mgrwt>
</event>
<event>
 4    2  0.3388003E-007  0.6791960E+03  0.7818608E-02  0.1009782E+00
         -2   -1    0    0    0  501 -0.00000000000E+00  0.00000000000E+00  0.41913111861E+03  0.41913111862E+03  0.25500000000E-02 0.  1.
          2   -1    0    0  501    0  0.00000000000E+00 -0.00000000000E+00 -0.38840580795E+04  0.38840580795E+04  0.25500000000E-02 0. -1.
    8880023    1    1    2    0    0 -0.12351306282E+03 -0.11064165436E+03  0.13811128577E+03  0.69309594277E+03  0.65864270000E+03 0.  1.
    8880022    1    1    2    0    0  0.12351306282E+03  0.11064165436E+03 -0.36030382467E+04  0.36100932554E+04  0.15294330000E+03 0.  0.
<mgrwt>
<rscale>  0 0.51561321E+03</rscale>
<asrwt>0</asrwt>
<pdfrwt beam="1">  1        2 0.59754737E+00 0.67919604E+03</pdfrwt>
<pdfrwt beam="2">  1       -2 0.64481713E-01 0.67919604E+03</pdfrwt>
<totfact> 0.10591729E+00</totfact>
</mgrwt>
</event>
<event>
 4    2  0.3388003E-007  0.6942188E+03  0.7818608E-02  0.1002209E+00
         -2   -1    0    0    0  501 -0.00000000000E+00  0.00000000000E+00  0.23213123370E+03  0.23213123371E+03  0.25500000000E-02 0.  1.
          2   -1    0    0  501    0  0.00000000000E+00 -0.00000000000E+00 -0.11898020573E+04  0.11898020573E+04  0.25500000000E-02 0. -1.
    8880023    1    1    2    0    0 -0.30902678940E+01  0.21936277002E+03 -0.39447722978E+03  0.79846857528E+03  0.65864270000E+03 0.  0.
    8880022    1    1    2    0    0  0.30902678940E+01 -0.21936277002E+03 -0.56319359386E+03  0.62346471577E+03  0.15294330000E+03 0.  0.
<mgrwt>
<rscale>  0 0.54692360E+03</rscale>
<asrwt>0</asrwt>
<pdfrwt beam="1">  1        2 0.18304647E+00 0.69421883E+03</pdfrwt>
<pdfrwt beam="2">  1       -2 0.35712498E-01 0.69421883E+03</pdfrwt>
<totfact> 0.14403331E+02</totfact>
</mgrwt>
</event>
<event>
 4    2  0.3388003E-007  0.1086817E+04  0.7818608E-02  0.9275878E-01
         -2   -1    0    0    0  501 -0.00000000000E+00  0.00000000000E+00  0.18328531210E+04  0.18328531210E+04  0.25500000000E-02 0.  1.
          2   -1    0    0  501    0  0.00000000000E+00 -0.00000000000E+00 -0.56624744706E+03  0.56624744706E+03  0.25500000000E-02 0. -1.
    8880023    1    1    2    0    0 -0.28436790719E+03  0.81639156111E+03  0.10119304478E+04  0.14849827356E+04  0.65864270000E+03 0.  0.
    8880022    1    1    2    0    0  0.28436790719E+03 -0.81639156111E+03  0.25467522610E+03  0.91411783239E+03  0.15294330000E+03 0.  0.
<mgrwt>
<rscale>  0 0.10303423E+04</rscale>
<asrwt>0</asrwt>
<pdfrwt beam="1">  1        2 0.87114991E-01 0.10868167E+04</pdfrwt>
<pdfrwt beam="2">  1       -2 0.28197741E+00 0.10868167E+04</pdfrwt>
<totfact> 0.21653812E+00</totfact>
</mgrwt>
</event>
<event>
 4    2  0.3388003E-007  0.7008929E+03  0.7818608E-02  0.9993517E-01
          2   -1    0    0  501    0  0.00000000000E+00  0.00000000000E+00  0.57651508242E+03  0.57651508242E+03  0.25500000000E-02 0. -1.
         -2   -1    0    0    0  501 -0.00000000000E+00 -0.00000000000E+00 -0.46002324439E+03  0.46002324440E+03  0.25500000000E-02 0.  1.
    8880023    1    1    2    0    0  0.20626813683E+03  0.12204139019E+03 -0.57443566986E+02  0.70324292733E+03  0.65864270000E+03 0.  0.
    8880022    1    1    2    0    0 -0.20626813683E+03 -0.12204139019E+03  0.17393540501E+03  0.33329539949E+03  0.15294330000E+03 0.  0.
<mgrwt>
<rscale>  0 0.55935414E+03</rscale>
<asrwt>0</asrwt>
<pdfrwt beam="1">  1        2 0.88694629E-01 0.70089290E+03</pdfrwt>
<pdfrwt beam="2">  1       -2 0.70772806E-01 0.70089290E+03</pdfrwt>
<totfact> 0.95802712E+01</totfact>
</mgrwt>
</event>
<event>
 4    2  0.3388003E-007  0.7306261E+03  0.7818608E-02  0.9888145E-01
         -2   -1    0    0    0  501 -0.00000000000E+00  0.00000000000E+00  0.14002119782E+03  0.14002119785E+03  0.25500000000E-02 0.  1.
          2   -1    0    0  501    0  0.00000000000E+00 -0.00000000000E+00 -0.38832496178E+04  0.38832496178E+04  0.25500000000E-02 0. -1.
    8880023    1    1    2    0    0 -0.31476048577E+03 -0.30497741967E+02 -0.90373913380E+03  0.11621354929E+04  0.65864270000E+03 0.  1.
    8880022    1    1    2    0    0  0.31476048577E+03  0.30497741967E+02 -0.28394892862E+04  0.28611353227E+04  0.15294330000E+03 0.  0.
<mgrwt>
<rscale>  0 0.60839269E+03</rscale>
<asrwt>0</asrwt>
<pdfrwt beam="1">  1        2 0.59742294E+00 0.73062609E+03</pdfrwt>
<pdfrwt beam="2">  1       -2 0.21541726E-01 0.73062609E+03</pdfrwt>
<totfact> 0.87294655E+00</totfact>
</mgrwt>
</event>
<event>
 4    2  0.3388003E-007  0.9001503E+03  0.7818608E-02  0.9525790E-01
         -2   -1    0    0    0  501 -0.00000000000E+00  0.00000000000E+00  0.13840398445E+04  0.13840398445E+04  0.25500000000E-02 0.  1.
          2   -1    0    0  501    0  0.00000000000E+00 -0.00000000000E+00 -0.47930191420E+03  0.47930191421E+03  0.25500000000E-02 0. -1.
    8880023    1    1    2    0    0  0.52088954082E+03  0.32424452502E+03  0.83389016857E+03  0.12270466353E+04  0.65864270000E+03 0.  0.
    8880022    1    1    2    0    0 -0.52088954082E+03 -0.32424452502E+03  0.70847761774E+02  0.63629512344E+03  0.15294330000E+03 0.  0.
<mgrwt>
<rscale>  0 0.82408822E+03</rscale>
<asrwt>0</asrwt>
<pdfrwt beam="1">  1        2 0.73738756E-01 0.90015034E+03</pdfrwt>
<pdfrwt beam="2">  1       -2 0.21292921E+00 0.90015034E+03</pdfrwt>
<totfact> 0.71308514E+00</totfact>
</mgrwt>
</event>
<event>
 4    2  0.3388003E-007  0.7312019E+03  0.7818608E-02  0.9886359E-01
         -2   -1    0    0    0  501 -0.00000000000E+00  0.00000000000E+00  0.44870047748E+03  0.44870047749E+03  0.25500000000E-02 0.  1.
          2   -1    0    0  501    0  0.00000000000E+00 -0.00000000000E+00 -0.10779374754E+04  0.10779374754E+04  0.25500000000E-02 0. -1.
    8880023    1    1    2    0    0 -0.31234369735E+03  0.57335988556E+02  0.79081795032E+02  0.73546593220E+03  0.65864270000E+03 0.  1.
    8880022    1    1    2    0    0  0.31234369735E+03 -0.57335988556E+02 -0.70831879292E+03  0.79117202066E+03  0.15294330000E+03 0.  0.
<mgrwt>
<rscale>  0 0.60926978E+03</rscale>
<asrwt>0</asrwt>
<pdfrwt beam="1">  1        2 0.16583653E+00 0.73120189E+03</pdfrwt>
<pdfrwt beam="2">  1       -2 0.69030843E-01 0.73120189E+03</pdfrwt>
<totfact> 0.43877389E+01</totfact>
</mgrwt>
</event>
<event>
 4    2  0.3388003E-007  0.1033425E+04  0.7818608E-02  0.9339077E-01
         -2   -1    0    0    0  501 -0.00000000000E+00  0.00000000000E+00  0.53005145899E+03  0.53005145899E+03  0.25500000000E-02 0.  1.
          2   -1    0    0  501    0  0.00000000000E+00 -0.00000000000E+00 -0.18272368455E+04  0.18272368455E+04  0.25500000000E-02 0. -1.
    8880023    1    1    2    0    0 -0.28699954959E+03 -0.74282484550E+03 -0.30827690049E+03  0.10784258650E+04  0.65864270000E+03 0.  1.
    8880022    1    1    2    0    0  0.28699954959E+03  0.74282484550E+03 -0.98890848607E+03  0.12788624396E+04  0.15294330000E+03 0.  0.
<mgrwt>
<rscale>  0 0.97263596E+03</rscale>
<asrwt>0</asrwt>
<pdfrwt beam="1">  1        2 0.28111336E+00 0.10334252E+04</pdfrwt>
<pdfrwt beam="2">  1       -2 0.81546379E-01 0.10334252E+04</pdfrwt>
<totfact> 0.10992833E+01</totfact>
</mgrwt>
</event>
<event>
 4    2  0.3388003E-007  0.7804265E+03  0.7818608E-02  0.9754836E-01
          2   -1    0    0  501    0  0.00000000000E+00  0.00000000000E+00  0.11166042511E+04  0.11166042511E+04  0.25500000000E-02 0. -1.
         -2   -1    0    0    0  501 -0.00000000000E+00 -0.00000000000E+00 -0.80045264799E+03  0.80045264799E+03  0.25500000000E-02 0.  1.
    8880023    1    1    2    0    0  0.41557146919E+03  0.50554069694E+02 -0.54192637674E+03  0.95013144566E+03  0.65864270000E+03 0.  1.
    8880022    1    1    2    0    0 -0.41557146919E+03 -0.50554069694E+02  0.85807797981E+03  0.96692545339E+03  0.15294330000E+03 0.  0.
<mgrwt>
<rscale>  0 0.67843661E+03</rscale>
<asrwt>0</asrwt>
<pdfrwt beam="1">  1        2 0.17178527E+00 0.78042653E+03</pdfrwt>
<pdfrwt beam="2">  1       -2 0.12314656E+00 0.78042653E+03</pdfrwt>
<totfact> 0.10750876E+01</totfact>
</mgrwt>
</event>
<event>
 4    2  0.3388003E-007  0.7100474E+03  0.7818608E-02  0.9957825E-01
          2   -1    0    0  501    0  0.00000000000E+00  0.00000000000E+00  0.90166365550E+03  0.90166365550E+03  0.25500000000E-02 0. -1.
         -2   -1    0    0    0  501 -0.00000000000E+00 -0.00000000000E+00 -0.49557199871E+03  0.49557199871E+03  0.25500000000E-02 0.  1.
    8880023    1    1    2    0    0  0.14264638978E+03  0.22362714350E+03 -0.18306528200E+03  0.73326679699E+03  0.65864270000E+03 0.  1.
    8880022    1    1    2    0    0 -0.14264638978E+03 -0.22362714350E+03  0.58915693879E+03  0.66396885723E+03  0.15294330000E+03 0.  0.
<mgrwt>
<rscale>  0 0.57538851E+03</rscale>
<asrwt>0</asrwt>
<pdfrwt beam="1">  1        2 0.13871748E+00 0.71004739E+03</pdfrwt>
<pdfrwt beam="2">  1       -2 0.76241846E-01 0.71004739E+03</pdfrwt>
<totfact> 0.45843814E+01</totfact>
</mgrwt>
</event>
<event>
 4    2  0.3388003E-007  0.6665404E+03  0.7818608E-02  0.1018275E+00
          2   -1    0    0  501    0  0.00000000000E+00  0.00000000000E+00  0.98133201254E+03  0.98133201255E+03  0.25500000000E-02 0. -1.
         -2   -1    0    0    0  501 -0.00000000000E+00 -0.00000000000E+00 -0.18572092095E+03  0.18572092097E+03  0.25500000000E-02 0.  1.
    8880023    1    1    2    0    0 -0.12776096518E+02  0.10150227068E+03  0.57960908843E+03  0.88330223664E+03  0.65864270000E+03 0.  1.
    8880022    1    1    2    0    0  0.12776096518E+02 -0.10150227068E+03  0.21600200316E+03  0.28375069688E+03  0.15294330000E+03 0. -1.
<mgrwt>
<rscale>  0 0.48314433E+03</rscale>
<asrwt>0</asrwt>
<pdfrwt beam="1">  1        2 0.15097415E+00 0.66654043E+03</pdfrwt>
<pdfrwt beam="2">  1       -2 0.28572450E-01 0.66654043E+03</pdfrwt>
<totfact> 0.29428454E+02</totfact>
</mgrwt>
</event>
<event>
 4    2  0.3388003E-007  0.1127100E+04  0.7818608E-02  0.9231467E-01
         -2   -1    0    0    0  501 -0.00000000000E+00  0.00000000000E+00  0.29820955385E+03  0.29820955386E+03  0.25500000000E-02 0.  1.
          2   -1    0    0  501    0  0.00000000000E+00 -0.00000000000E+00 -0.39565902122E+04  0.39565902122E+04  0.25500000000E-02 0. -1.
    8880023    1    1    2    0    0  0.84056219097E+03  0.36055515410E+03 -0.12995114538E+04  0.17201991283E+04  0.65864270000E+03 0.  0.
    8880022    1    1    2    0    0 -0.84056219097E+03 -0.36055515410E+03 -0.23588692045E+04  0.25346006378E+04  0.15294330000E+03 0.  0.
<mgrwt>
<rscale>  0 0.10734460E+04</rscale>
<asrwt>0</asrwt>
<pdfrwt beam="1">  1        2 0.60870615E+00 0.11271003E+04</pdfrwt>
<pdfrwt beam="2">  1       -2 0.45878396E-01 0.11271003E+04</pdfrwt>
<totfact> 0.17229261E+00</totfact>
</mgrwt>
</event>
<event>
 4    2  0.3388003E-007  0.7776903E+03  0.7818608E-02  0.9761291E-01
         -2   -1    0    0    0  501 -0.00000000000E+00  0.00000000000E+00  0.13947512924E+03  0.13947512926E+03  0.25500000000E-02 0.  1.
          2   -1    0    0  501    0  0.00000000000E+00 -0.00000000000E+00 -0.28713229424E+04  0.28713229424E+04  0.25500000000E-02 0. -1.
    8880023    1    1    2    0    0 -0.24375349117E+03 -0.33403024708E+03 -0.13237493640E+04  0.15352897301E+04  0.65864270000E+03 0.  1.
    8880022    1    1    2    0    0  0.24375349117E+03  0.33403024708E+03 -0.14080984492E+04  0.14755083416E+04  0.15294330000E+03 0.  0.
<mgrwt>
<rscale>  0 0.67481925E+03</rscale>
<asrwt>0</asrwt>
<pdfrwt beam="1">  1        2 0.44174195E+00 0.77769028E+03</pdfrwt>
<pdfrwt beam="2">  1       -2 0.21457714E-01 0.77769028E+03</pdfrwt>
<totfact> 0.41323600E+01</totfact>
</mgrwt>
</event>
<event>
 4    2  0.3388003E-007  0.9343289E+03  0.7818608E-02  0.9473029E-01
         -2   -1    0    0    0  501 -0.00000000000E+00  0.00000000000E+00  0.26423431586E+03  0.26423431588E+03  0.25500000000E-02 0.  1.
          2   -1    0    0  501    0  0.00000000000E+00 -0.00000000000E+00 -0.28899830149E+04  0.28899830149E+04  0.25500000000E-02 0. -1.
    8880023    1    1    2    0    0  0.47367902939E+03 -0.46345269756E+03 -0.89163771646E+03  0.12915061941E+04  0.65864270000E+03 0.  0.
    8880022    1    1    2    0    0 -0.47367902939E+03  0.46345269756E+03 -0.17341109826E+04  0.18627111367E+04  0.15294330000E+03 0.  0.
<mgrwt>
<rscale>  0 0.86301805E+03</rscale>
<asrwt>0</asrwt>
<pdfrwt beam="1">  1        2 0.44461275E+00 0.93432887E+03</pdfrwt>
<pdfrwt beam="2">  1       -2 0.40651435E-01 0.93432887E+03</pdfrwt>
<totfact> 0.12017966E+01</totfact>
</mgrwt>
</event>
<event>
 4    2  0.3388003E-007  0.1517533E+04  0.7818608E-02  0.8897354E-01
          2   -1    0    0  501    0  0.00000000000E+00  0.00000000000E+00  0.23207209727E+04  0.23207209727E+04  0.25500000000E-02 0. -1.
         -2   -1    0    0    0  501 -0.00000000000E+00 -0.00000000000E+00 -0.12760567308E+04  0.12760567308E+04  0.25500000000E-02 0.  1.
    8880023    1    1    2    0    0 -0.13166677137E+04 -0.36807839649E+03  0.15136346989E+04  0.21433608614E+04  0.65864270000E+03 0.  0.
    8880022    1    1    2    0    0  0.13166677137E+04  0.36807839649E+03 -0.46897045706E+03  0.14534168421E+04  0.15294330000E+03 0.  0.
<mgrwt>
<rscale>  0 0.14807532E+04</rscale>
<asrwt>0</asrwt>
<pdfrwt beam="1">  1        2 0.35703399E+00 0.15175328E+04</pdfrwt>
<pdfrwt beam="2">  1       -2 0.19631642E+00 0.15175328E+04</pdfrwt>
<totfact> 0.58198912E-01</totfact>
</mgrwt>
</event>
<event>
 4    2  0.3388003E-007  0.6745784E+03  0.7818608E-02  0.1012573E+00
          2   -1    0    0  501    0  0.00000000000E+00  0.00000000000E+00  0.38600091289E+03  0.38600091290E+03  0.25500000000E-02 0. -1.
         -2   -1    0    0    0  501 -0.00000000000E+00 -0.00000000000E+00 -0.60141383196E+03  0.60141383196E+03  0.25500000000E-02 0.  1.
    8880023    1    1    2    0    0  0.11443147414E+03 -0.90284357114E+02 -0.32569472214E+03  0.74908816952E+03  0.65864270000E+03 0. -1.
    8880022    1    1    2    0    0 -0.11443147414E+03  0.90284357114E+02  0.11028180308E+03  0.23832657535E+03  0.15294330000E+03 0.  0.
<mgrwt>
<rscale>  0 0.50464595E+03</rscale>
<asrwt>0</asrwt>
<pdfrwt beam="1">  1        2 0.59384756E-01 0.67457841E+03</pdfrwt>
<pdfrwt beam="2">  1       -2 0.92525205E-01 0.67457841E+03</pdfrwt>
<totfact> 0.83260735E+01</totfact>
</mgrwt>
</event>
<event>
 4    2  0.3388003E-007  0.6876518E+03  0.7818608E-02  0.1005289E+00
         -2   -1    0    0    0  501 -0.00000000000E+00  0.00000000000E+00  0.54587431932E+03  0.54587431933E+03  0.25500000000E-02 0.  1.
          2   -1    0    0  501    0  0.00000000000E+00 -0.00000000000E+00 -0.72121130095E+03  0.72121130095E+03  0.25500000000E-02 0. -1.
    8880023    1    1    2    0    0  0.69760371454E+02 -0.18490059915E+03  0.28414587037E+03  0.74404557851E+03  0.65864270000E+03 0.  1.
    8880022    1    1    2    0    0 -0.69760371454E+02  0.18490059915E+03 -0.45948285200E+03  0.52304004176E+03  0.15294330000E+03 0.  0.
<mgrwt>
<rscale>  0 0.53390605E+03</rscale>
<asrwt>0</asrwt>
<pdfrwt beam="1">  1        2 0.11095559E+00 0.68765176E+03</pdfrwt>
<pdfrwt beam="2">  1       -2 0.83980664E-01 0.68765176E+03</pdfrwt>
<totfact> 0.49732872E+01</totfact>
</mgrwt>
</event>
<event>
 4    2  0.3388003E-007  0.7236031E+03  0.7818608E-02  0.9910578E-01
         -2   -1    0    0    0  501 -0.00000000000E+00  0.00000000000E+00  0.23732378890E+03  0.23732378891E+03  0.25500000000E-02 0.  1.
          2   -1    0    0  501    0  0.00000000000E+00 -0.00000000000E+00 -0.26860805197E+04  0.26860805197E+04  0.25500000000E-02 0. -1.
    8880023    1    1    2    0    0 -0.19451262514E+03  0.22793869000E+03 -0.36088857588E+03  0.80860495806E+03  0.65864270000E+03 0.  1.
    8880022    1    1    2    0    0  0.19451262514E+03 -0.22793869000E+03 -0.20878681549E+04  0.21147993506E+04  0.15294330000E+03 0.  0.
<mgrwt>
<rscale>  0 0.59751373E+03</rscale>
<asrwt>0</asrwt>
<pdfrwt beam="1">  1        2 0.41324314E+00 0.72360308E+03</pdfrwt>
<pdfrwt beam="2">  1       -2 0.36511354E-01 0.72360308E+03</pdfrwt>
<totfact> 0.20165026E+01</totfact>
</mgrwt>
</event>
<event>
 4    2  0.3388003E-007  0.7062792E+03  0.7818608E-02  0.9972086E-01
         -2   -1    0    0    0  501 -0.00000000000E+00  0.00000000000E+00  0.11733408295E+04  0.11733408295E+04  0.25500000000E-02 0.  1.
          2   -1    0    0  501    0  0.00000000000E+00 -0.00000000000E+00 -0.11437591472E+04  0.11437591472E+04  0.25500000000E-02 0. -1.
    8880023    1    1    2    0    0 -0.11821456509E+03  0.22593228230E+03  0.10437422686E+04  0.12602492647E+04  0.65864270000E+03 0.  1.
    8880022    1    1    2    0    0  0.11821456509E+03 -0.22593228230E+03 -0.10141605863E+04  0.10568507120E+04  0.15294330000E+03 0.  0.
<mgrwt>
<rscale>  0 0.56891324E+03</rscale>
<asrwt>0</asrwt>
<pdfrwt beam="1">  1        2 0.17596295E+00 0.70627918E+03</pdfrwt>
<pdfrwt beam="2">  1       -2 0.18051397E+00 0.70627918E+03</pdfrwt>
<totfact> 0.37950687E+00</totfact>
</mgrwt>
</event>
<event>
 4    2  0.3388003E-007  0.7335058E+03  0.7818608E-02  0.9879285E-01
         -2   -1    0    0    0  501 -0.00000000000E+00  0.00000000000E+00  0.27389170071E+03  0.27389170073E+03  0.25500000000E-02 0.  1.
          2   -1    0    0  501    0  0.00000000000E+00 -0.00000000000E+00 -0.17183839967E+04  0.17183839967E+04  0.25500000000E-02 0. -1.
    8880023    1    1    2    0    0 -0.76863180688E+02 -0.31354836672E+03 -0.29853619271E+03  0.79193092593E+03  0.65864270000E+03 0.  0.
    8880022    1    1    2    0    0  0.76863180688E+02  0.31354836672E+03 -0.11459561033E+04  0.12003447715E+04  0.15294330000E+03 0.  0.
<mgrwt>
<rscale>  0 0.61275826E+03</rscale>
<asrwt>0</asrwt>
<pdfrwt beam="1">  1        2 0.26436676E+00 0.73350578E+03</pdfrwt>
<pdfrwt beam="2">  1       -2 0.42137186E-01 0.73350578E+03</pdfrwt>
<totfact> 0.52495315E+01</totfact>
</mgrwt>
</event>
<event>
 4    2  0.3388003E-007  0.8244533E+03  0.7818608E-02  0.9660222E-01
          2   -1    0    0  501    0  0.00000000000E+00  0.00000000000E+00  0.19040920870E+04  0.19040920870E+04  0.25500000000E-02 0. -1.
         -2   -1    0    0    0  501 -0.00000000000E+00 -0.00000000000E+00 -0.47069283885E+03  0.47069283886E+03  0.25500000000E-02 0.  1.
    8880023    1    1    2    0    0 -0.34027052267E+03 -0.36073407262E+03 -0.27028799384E+02  0.82489627348E+03  0.65864270000E+03 0.  1.
    8880022    1    1    2    0    0  0.34027052267E+03  0.36073407262E+03  0.14604280476E+04  0.15498886524E+04  0.15294330000E+03 0.  0.
<mgrwt>
<rscale>  0 0.73435332E+03</rscale>
<asrwt>0</asrwt>
<pdfrwt beam="1">  1        2 0.29293724E+00 0.82445334E+03</pdfrwt>
<pdfrwt beam="2">  1       -2 0.72414284E-01 0.82445334E+03</pdfrwt>
<totfact> 0.13326161E+01</totfact>
</mgrwt>
</event>
<event>
 4    2  0.3388003E-007  0.7595674E+03  0.7818608E-02  0.9806229E-01
         -2   -1    0    0    0  501 -0.00000000000E+00  0.00000000000E+00  0.13443085790E+03  0.13443085792E+03  0.25500000000E-02 0.  1.
          2   -1    0    0  501    0  0.00000000000E+00 -0.00000000000E+00 -0.37136007712E+04  0.37136007712E+04  0.25500000000E-02 0. -1.
    8880023    1    1    2    0    0 -0.37791838798E+03  0.17609172811E+02 -0.32070304994E+04  0.32957529066E+04  0.65864270000E+03 0. -1.
    8880022    1    1    2    0    0  0.37791838798E+03 -0.17609172811E+02 -0.37213941382E+03  0.55227872245E+03  0.15294330000E+03 0.  0.
<mgrwt>
<rscale>  0 0.65029340E+03</rscale>
<asrwt>0</asrwt>
<pdfrwt beam="1">  1        2 0.57132312E+00 0.75956738E+03</pdfrwt>
<pdfrwt beam="2">  1       -2 0.20681673E-01 0.75956738E+03</pdfrwt>
<totfact> 0.12453943E+01</totfact>
</mgrwt>
</event>
<event>
 4    2  0.3388003E-007  0.8053543E+03  0.7818608E-02  0.9699336E-01
          2   -1    0    0  501    0  0.00000000000E+00  0.00000000000E+00  0.26664465716E+04  0.26664465716E+04  0.25500000000E-02 0. -1.
         -2   -1    0    0    0  501 -0.00000000000E+00 -0.00000000000E+00 -0.44367752965E+03  0.44367752965E+03  0.25500000000E-02 0.  1.
    8880023    1    1    2    0    0  0.29205785314E+03 -0.35984367764E+03  0.24447450980E+04  0.25739801985E+04  0.65864270000E+03 0. -1.
    8880022    1    1    2    0    0 -0.29205785314E+03  0.35984367764E+03 -0.22197605607E+03  0.53614390271E+03  0.15294330000E+03 0.  0.
<mgrwt>
<rscale>  0 0.71056314E+03</rscale>
<asrwt>0</asrwt>
<pdfrwt beam="1">  1        2 0.41022254E+00 0.80535425E+03</pdfrwt>
<pdfrwt beam="2">  1       -2 0.68258083E-01 0.80535425E+03</pdfrwt>
<totfact> 0.57041533E+00</totfact>
</mgrwt>
</event>
<event>
 4    2  0.3388003E-007  0.6674519E+03  0.7818608E-02  0.1017559E+00
         -2   -1    0    0    0  501 -0.00000000000E+00  0.00000000000E+00  0.51524815729E+03  0.51524815729E+03  0.25500000000E-02 0.  1.
          2   -1    0    0  501    0  0.00000000000E+00 -0.00000000000E+00 -0.18939501472E+04  0.18939501472E+04  0.25500000000E-02 0. -1.
    8880023    1    1    2    0    0  0.30714044423E+02  0.10362642135E+03  0.29164316821E+03  0.72838707536E+03  0.65864270000E+03 0.  1.
    8880022    1    1    2    0    0 -0.30714044423E+02 -0.10362642135E+03 -0.16703451582E+04  0.16808112292E+04  0.15294330000E+03 0.  0.
<mgrwt>
<rscale>  0 0.48577735E+03</rscale>
<asrwt>0</asrwt>
<pdfrwt beam="1">  1        2 0.29137694E+00 0.66745187E+03</pdfrwt>
<pdfrwt beam="2">  1       -2 0.79268948E-01 0.66745187E+03</pdfrwt>
<totfact> 0.11296526E+01</totfact>
</mgrwt>
</event>
<event>
 4    2  0.3388003E-007  0.7931419E+03  0.7818608E-02  0.9725826E-01
          2   -1    0    0  501    0  0.00000000000E+00  0.00000000000E+00  0.20055965070E+04  0.20055965070E+04  0.25500000000E-02 0. -1.
         -2   -1    0    0    0  501 -0.00000000000E+00 -0.00000000000E+00 -0.37288367093E+03  0.37288367094E+03  0.25500000000E-02 0.  1.
    8880023    1    1    2    0    0  0.43245083611E+03 -0.90830249880E+02  0.12877892010E+03  0.80352851628E+03  0.65864270000E+03 0.  0.
    8880022    1    1    2    0    0 -0.43245083611E+03  0.90830249880E+02  0.15039339160E+04  0.15749516617E+04  0.15294330000E+03 0. -1.
<mgrwt>
<rscale>  0 0.69499747E+03</rscale>
<asrwt>0</asrwt>
<pdfrwt beam="1">  1        2 0.30855331E+00 0.79314190E+03</pdfrwt>
<pdfrwt beam="2">  1       -2 0.57366719E-01 0.79314190E+03</pdfrwt>
<totfact> 0.19417754E+01</totfact>
</mgrwt>
</event>
<event>
 4    2  0.3388003E-007  0.7548652E+03  0.7818608E-02  0.9818587E-01
          2   -1    0    0  501    0  0.00000000000E+00  0.00000000000E+00  0.86583742064E+03  0.86583742064E+03  0.25500000000E-02 0. -1.
         -2   -1    0    0    0  501 -0.00000000000E+00 -0.00000000000E+00 -0.72688183095E+03  0.72688183095E+03  0.25500000000E-02 0.  1.
    8880023    1    1    2    0    0 -0.33459602420E+03 -0.15510262264E+03 -0.45176990526E+03  0.87972585305E+03  0.65864270000E+03 0.  0.
    8880022    1    1    2    0    0  0.33459602420E+03  0.15510262264E+03  0.59072549495E+03  0.71299339854E+03  0.15294330000E+03 0.  0.
<mgrwt>
<rscale>  0 0.64374538E+03</rscale>
<asrwt>0</asrwt>
<pdfrwt beam="1">  1        2 0.13320576E+00 0.75486524E+03</pdfrwt>
<pdfrwt beam="2">  1       -2 0.11182797E+00 0.75486524E+03</pdfrwt>
<totfact> 0.19820014E+01</totfact>
</mgrwt>
</event>
<event>
 4    2  0.3388003E-007  0.7844790E+03  0.7818608E-02  0.9745419E-01
         -2   -1    0    0    0  501 -0.00000000000E+00  0.00000000000E+00  0.13115416061E+04  0.13115416061E+04  0.25500000000E-02 0.  1.
          2   -1    0    0  501    0  0.00000000000E+00 -0.00000000000E+00 -0.12490275681E+04  0.12490275681E+04  0.25500000000E-02 0. -1.
    8880023    1    1    2    0    0 -0.10940643232E+03 -0.41185841339E+03  0.11445726658E+04  0.13876072621E+04  0.65864270000E+03 0.  0.
    8880022    1    1    2    0    0  0.10940643232E+03  0.41185841339E+03 -0.10820586279E+04  0.11729619121E+04  0.15294330000E+03 0.  0.
<mgrwt>
<rscale>  0 0.68375774E+03</rscale>
<asrwt>0</asrwt>
<pdfrwt beam="1">  1        2 0.19215809E+00 0.78447902E+03</pdfrwt>
<pdfrwt beam="2">  1       -2 0.20177563E+00 0.78447902E+03</pdfrwt>
<totfact> 0.23447761E+00</totfact>
</mgrwt>
</event>
<event>
 4    2  0.3388003E-007  0.7277642E+03  0.7818608E-02  0.9897140E-01
          2   -1    0    0  501    0  0.00000000000E+00  0.00000000000E+00  0.19281204777E+04  0.19281204777E+04  0.25500000000E-02 0. -1.
         -2   -1    0    0    0  501 -0.00000000000E+00 -0.00000000000E+00 -0.40342926589E+03  0.40342926590E+03  0.25500000000E-02 0.  1.
    8880023    1    1    2    0    0 -0.25060784628E+03  0.18173118365E+03 -0.40340327657E+02  0.72888137857E+03  0.65864270000E+03 0.  1.
    8880022    1    1    2    0    0  0.25060784628E+03 -0.18173118365E+03  0.15650315394E+04  0.16026683650E+04  0.15294330000E+03 0.  0.
<mgrwt>
<rscale>  0 0.60400098E+03</rscale>
<asrwt>0</asrwt>
<pdfrwt beam="1">  1        2 0.29663392E+00 0.72776419E+03</pdfrwt>
<pdfrwt beam="2">  1       -2 0.62066041E-01 0.72776419E+03</pdfrwt>
<totfact> 0.18288977E+01</totfact>
</mgrwt>
</event>
<event>
 4    2  0.3388003E-007  0.9938296E+03  0.7818608E-02  0.9389675E-01
         -2   -1    0    0    0  501 -0.00000000000E+00  0.00000000000E+00  0.68761018174E+03  0.68761018174E+03  0.25500000000E-02 0.  1.
          2   -1    0    0  501    0  0.00000000000E+00 -0.00000000000E+00 -0.14624061425E+04  0.14624061425E+04  0.25500000000E-02 0. -1.
    8880023    1    1    2    0    0 -0.20994316974E+03 -0.71401046947E+03  0.91149281003E+02  0.99800074285E+03  0.65864270000E+03 0.  0.
    8880022    1    1    2    0    0  0.20994316974E+03  0.71401046947E+03 -0.86594524179E+03  0.11520155814E+04  0.15294330000E+03 0.  0.
<mgrwt>
<rscale>  0 0.92930258E+03</rscale>
<asrwt>0</asrwt>
<pdfrwt beam="1">  1        2 0.22498556E+00 0.99382961E+03</pdfrwt>
<pdfrwt beam="2">  1       -2 0.10578618E+00 0.99382961E+03</pdfrwt>
<totfact> 0.95817410E+00</totfact>
</mgrwt>
</event>
<event>
 4    2  0.3388003E-007  0.6953485E+03  0.7818608E-02  0.1001707E+00
         -2   -1    0    0    0  501 -0.00000000000E+00  0.00000000000E+00  0.13658951917E+03  0.13658951919E+03  0.25500000000E-02 0.  1.
          2   -1    0    0  501    0  0.00000000000E+00 -0.00000000000E+00 -0.24983656920E+04  0.24983656920E+04  0.25500000000E-02 0. -1.
    8880023    1    1    2    0    0 -0.16682293645E+03  0.14788313147E+03 -0.84521651219E+03  0.10944863962E+04  0.65864270000E+03 0.  1.
    8880022    1    1    2    0    0  0.16682293645E+03 -0.14788313147E+03 -0.15165596607E+04  0.15404688150E+04  0.15294330000E+03 0.  0.
<mgrwt>
<rscale>  0 0.54907902E+03</rscale>
<asrwt>0</asrwt>
<pdfrwt beam="1">  1        2 0.38436392E+00 0.69534849E+03</pdfrwt>
<pdfrwt beam="2">  1       -2 0.21013774E-01 0.69534849E+03</pdfrwt>
<totfact> 0.71423912E+01</totfact>
</mgrwt>
</event>
<event>
 4    2  0.3388003E-007  0.7064740E+03  0.7818608E-02  0.9971335E-01
         -2   -1    0    0    0  501 -0.00000000000E+00  0.00000000000E+00  0.28598389946E+03  0.28598389947E+03  0.25500000000E-02 0.  1.
          2   -1    0    0  501    0  0.00000000000E+00 -0.00000000000E+00 -0.18139850729E+04  0.18139850729E+04  0.25500000000E-02 0. -1.
    8880023    1    1    2    0    0 -0.13309020884E+03  0.21813354934E+03 -0.19329093909E+03  0.73243896840E+03  0.65864270000E+03 0.  1.
    8880022    1    1    2    0    0  0.13309020884E+03 -0.21813354934E+03 -0.13347102343E+04  0.13675300039E+04  0.15294330000E+03 0.  0.
<mgrwt>
<rscale>  0 0.56925199E+03</rscale>
<asrwt>0</asrwt>
<pdfrwt beam="1">  1        2 0.27907462E+00 0.70647396E+03</pdfrwt>
<pdfrwt beam="2">  1       -2 0.43997524E-01 0.70647396E+03</pdfrwt>
<totfact> 0.42886595E+01</totfact>
</mgrwt>
</event>
<event>
 4    2  0.3388003E-007  0.6628687E+03  0.7818608E-02  0.1021393E+00
          2   -1    0    0  501    0  0.00000000000E+00  0.00000000000E+00  0.13268566957E+04  0.13268566957E+04  0.25500000000E-02 0. -1.
         -2   -1    0    0    0  501 -0.00000000000E+00 -0.00000000000E+00 -0.15099013873E+03  0.15099013876E+03  0.25500000000E-02 0.  1.
    8880023    1    1    2    0    0  0.35508214352E+02  0.65756343503E+02  0.66325650751E+03  0.93771217920E+03  0.65864270000E+03 0.  1.
    8880022    1    1    2    0    0 -0.35508214352E+02 -0.65756343503E+02  0.51261004949E+03  0.54013465529E+03  0.15294330000E+03 0.  0.
<mgrwt>
<rscale>  0 0.47187413E+03</rscale>
<asrwt>0</asrwt>
<pdfrwt beam="1">  1        2 0.20413181E+00 0.66286872E+03</pdfrwt>
<pdfrwt beam="2">  1       -2 0.23229251E-01 0.66286872E+03</pdfrwt>
<totfact> 0.26546635E+02</totfact>
</mgrwt>
</event>
<event>
 4    2  0.3388003E-007  0.7760020E+03  0.7818608E-02  0.9765313E-01
          2   -1    0    0  501    0  0.00000000000E+00  0.00000000000E+00  0.24418059126E+04  0.24418059126E+04  0.25500000000E-02 0. -1.
         -2   -1    0    0    0  501 -0.00000000000E+00 -0.00000000000E+00 -0.21904022897E+03  0.21904022898E+03  0.25500000000E-02 0.  1.
    8880023    1    1    2    0    0 -0.37451349889E+03  0.16765622732E+03  0.60247405556E+03  0.98242260016E+03  0.65864270000E+03 0.  0.
    8880022    1    1    2    0    0  0.37451349889E+03 -0.16765622732E+03  0.16202916280E+04  0.16784235414E+04  0.15294330000E+03 0.  0.
<mgrwt>
<rscale>  0 0.67257711E+03</rscale>
<asrwt>0</asrwt>
<pdfrwt beam="1">  1        2 0.37566246E+00 0.77600205E+03</pdfrwt>
<pdfrwt beam="2">  1       -2 0.33698496E-01 0.77600205E+03</pdfrwt>
<totfact> 0.32151360E+01</totfact>
</mgrwt>
</event>
<event>
 4    2  0.3388003E-007  0.8027500E+03  0.7818608E-02  0.9704881E-01
         -2   -1    0    0    0  501 -0.00000000000E+00  0.00000000000E+00  0.32712144858E+03  0.32712144859E+03  0.25500000000E-02 0.  1.
          2   -1    0    0  501    0  0.00000000000E+00 -0.00000000000E+00 -0.22220367870E+04  0.22220367870E+04  0.25500000000E-02 0. -1.
    8880023    1    1    2    0    0  0.40083121555E+03 -0.22345404279E+03 -0.25941857250E+03  0.84362644258E+03  0.65864270000E+03 0.  0.
    8880022    1    1    2    0    0 -0.40083121555E+03  0.22345404279E+03 -0.16354967659E+04  0.17055317930E+04  0.15294330000E+03 0.  0.
<mgrwt>
<rscale>  0 0.70726909E+03</rscale>
<asrwt>0</asrwt>
<pdfrwt beam="1">  1        2 0.34185180E+00 0.80275001E+03</pdfrwt>
<pdfrwt beam="2">  1       -2 0.50326378E-01 0.80275001E+03</pdfrwt>
<totfact> 0.19329960E+01</totfact>
</mgrwt>
</event>
<event>
 4    2  0.3388003E-007  0.8562417E+03  0.7818608E-02  0.9600284E-01
          2   -1    0    0  501    0  0.00000000000E+00  0.00000000000E+00  0.21165436806E+04  0.21165436806E+04  0.25500000000E-02 0. -1.
         -2   -1    0    0    0  501 -0.00000000000E+00 -0.00000000000E+00 -0.32094684730E+03  0.32094684731E+03  0.25500000000E-02 0.  1.
    8880023    1    1    2    0    0  0.40017806992E+03  0.37309128382E+03  0.42938422393E+03  0.95787296221E+03  0.65864270000E+03 0.  0.
    8880022    1    1    2    0    0 -0.40017806992E+03 -0.37309128382E+03  0.13662126094E+04  0.14796175657E+04  0.15294330000E+03 0.  0.
<mgrwt>
<rscale>  0 0.77277381E+03</rscale>
<asrwt>0</asrwt>
<pdfrwt beam="1">  1        2 0.32562211E+00 0.85624167E+03</pdfrwt>
<pdfrwt beam="2">  1       -2 0.49376437E-01 0.85624167E+03</pdfrwt>
<totfact> 0.22820369E+01</totfact>
</mgrwt>
</event>
<event>
 4    2  0.3388003E-007  0.7822055E+03  0.7818608E-02  0.9750681E-01
          2   -1    0    0  501    0  0.00000000000E+00  0.00000000000E+00  0.16420212059E+04  0.16420212059E+04  0.25500000000E-02 0. -1.
         -2   -1    0    0    0  501 -0.00000000000E+00 -0.00000000000E+00 -0.26305612676E+03  0.26305612677E+03  0.25500000000E-02 0.  1.
    8880023    1    1    2    0    0 -0.79528664335E+02 -0.41437957993E+03  0.11763074255E+04  0.14126374660E+04  0.65864270000E+03 0.  0.
    8880022    1    1    2    0    0  0.79528664335E+02  0.41437957993E+03  0.20265765361E+03  0.49243986668E+03  0.15294330000E+03 0.  0.
<mgrwt>
<rscale>  0 0.68077772E+03</rscale>
<asrwt>0</asrwt>
<pdfrwt beam="1">  1        2 0.25261865E+00 0.78220550E+03</pdfrwt>
<pdfrwt beam="2">  1       -2 0.40470173E-01 0.78220550E+03</pdfrwt>
<totfact> 0.62249785E+01</totfact>
</mgrwt>
</event>
<event>
 4    2  0.3388003E-007  0.6598482E+03  0.7818608E-02  0.1024312E+00
         -2   -1    0    0    0  501 -0.00000000000E+00  0.00000000000E+00  0.24540172851E+03  0.24540172852E+03  0.25500000000E-02 0.  1.
          2   -1    0    0  501    0  0.00000000000E+00 -0.00000000000E+00 -0.68164042999E+03  0.68164043000E+03  0.25500000000E-02 0. -1.
    8880023    1    1    2    0    0 -0.14189601559E+02 -0.37257908162E+02 -0.35717645855E+03  0.75031641680E+03  0.65864270000E+03 0.  0.
    8880022    1    1    2    0    0  0.14189601559E+02  0.37257908162E+02 -0.79062242941E+02  0.17672574172E+03  0.15294330000E+03 0. -1.
<mgrwt>
<rscale>  0 0.46161998E+03</rscale>
<asrwt>0</asrwt>
<pdfrwt beam="1">  1        2 0.10486776E+00 0.65984824E+03</pdfrwt>
<pdfrwt beam="2">  1       -2 0.37754112E-01 0.65984824E+03</pdfrwt>
<totfact> 0.28373814E+02</totfact>
</mgrwt>
</event>
<event>
 4    2  0.3388003E-007  0.8632165E+03  0.7818608E-02  0.9587867E-01
          2   -1    0    0  501    0  0.00000000000E+00  0.00000000000E+00  0.16995183211E+04  0.16995183211E+04  0.25500000000E-02 0. -1.
         -2   -1    0    0    0  501 -0.00000000000E+00 -0.00000000000E+00 -0.61617291556E+03  0.61617291557E+03  0.25500000000E-02 0.  1.
    8880023    1    1    2    0    0  0.52018383177E+03  0.20184467487E+03 -0.21904864453E+03  0.89057566020E+03  0.65864270000E+03 0.  1.
    8880022    1    1    2    0    0 -0.52018383177E+03 -0.20184467487E+03  0.13023940500E+04  0.14251155764E+04  0.15294330000E+03 0.  0.
<mgrwt>
<rscale>  0 0.78104431E+03</rscale>
<asrwt>0</asrwt>
<pdfrwt beam="1">  1        2 0.26146436E+00 0.86321648E+03</pdfrwt>
<pdfrwt beam="2">  1       -2 0.94795834E-01 0.86321648E+03</pdfrwt>
<totfact> 0.93135480E+00</totfact>
</mgrwt>
</event>
<event>
 4    2  0.3388003E-007  0.7580310E+03  0.7818608E-02  0.9810232E-01
          2   -1    0    0  501    0  0.00000000000E+00  0.00000000000E+00  0.15260543501E+04  0.15260543501E+04  0.25500000000E-02 0. -1.
         -2   -1    0    0    0  501 -0.00000000000E+00 -0.00000000000E+00 -0.46611690886E+03  0.46611690887E+03  0.25500000000E-02 0.  1.
    8880023    1    1    2    0    0 -0.30502097718E+03 -0.21854730870E+03 -0.98971906120E+02  0.76446475859E+03  0.65864270000E+03 0.  1.
    8880022    1    1    2    0    0  0.30502097718E+03  0.21854730870E+03  0.11589093474E+04  0.12277065004E+04  0.15294330000E+03 0.  0.
<mgrwt>
<rscale>  0 0.64816314E+03</rscale>
<asrwt>0</asrwt>
<pdfrwt beam="1">  1        2 0.23477760E+00 0.75803096E+03</pdfrwt>
<pdfrwt beam="2">  1       -2 0.71710292E-01 0.75803096E+03</pdfrwt>
<totfact> 0.22139510E+01</totfact>
</mgrwt>
</event>
<event>
 4    2  0.3388003E-007  0.6695832E+03  0.7818608E-02  0.1015963E+00
          2   -1    0    0  501    0  0.00000000000E+00  0.00000000000E+00  0.59305718240E+03  0.59305718241E+03  0.25500000000E-02 0. -1.
         -2   -1    0    0    0  501 -0.00000000000E+00 -0.00000000000E+00 -0.33287540763E+03  0.33287540764E+03  0.25500000000E-02 0.  1.
    8880023    1    1    2    0    0 -0.11259518094E+03 -0.43055130023E+02  0.10680797239E+03  0.67804835242E+03  0.65864270000E+03 0.  0.
    8880022    1    1    2    0    0  0.11259518094E+03  0.43055130023E+02  0.15337380238E+03  0.24788423762E+03  0.15294330000E+03 0.  0.
<mgrwt>
<rscale>  0 0.49171826E+03</rscale>
<asrwt>0</asrwt>
<pdfrwt beam="1">  1        2 0.91239565E-01 0.66958317E+03</pdfrwt>
<pdfrwt beam="2">  1       -2 0.51211602E-01 0.66958317E+03</pdfrwt>
<totfact> 0.18372038E+02</totfact>
</mgrwt>
</event>
<event>
 4    2  0.3388003E-007  0.7710148E+03  0.7818608E-02  0.9777383E-01
          2   -1    0    0  501    0  0.00000000000E+00  0.00000000000E+00  0.25168126663E+04  0.25168126663E+04  0.25500000000E-02 0. -1.
         -2   -1    0    0    0  501 -0.00000000000E+00 -0.00000000000E+00 -0.16371230407E+03  0.16371230409E+03  0.25500000000E-02 0.  1.
    8880023    1    1    2    0    0 -0.80858034914E+02  0.39257560871E+03  0.10105179234E+04  0.12710666033E+04  0.65864270000E+03 0.  0.
    8880022    1    1    2    0    0  0.80858034914E+02 -0.39257560871E+03  0.13425824388E+04  0.14094583671E+04  0.15294330000E+03 0.  0.
<mgrwt>
<rscale>  0 0.66590554E+03</rscale>
<asrwt>0</asrwt>
<pdfrwt beam="1">  1        2 0.38720192E+00 0.77101481E+03</pdfrwt>
<pdfrwt beam="2">  1       -2 0.25186510E-01 0.77101481E+03</pdfrwt>
<totfact> 0.49980952E+01</totfact>
</mgrwt>
</event>
<event>
 4    2  0.3388003E-007  0.9450797E+03  0.7818608E-02  0.9457229E-01
          2   -1    0    0  501    0  0.00000000000E+00  0.00000000000E+00  0.31781201179E+04  0.31781201179E+04  0.25500000000E-02 0. -1.
         -2   -1    0    0    0  501 -0.00000000000E+00 -0.00000000000E+00 -0.26515800016E+03  0.26515800018E+03  0.25500000000E-02 0.  1.
    8880023    1    1    2    0    0  0.53707200547E+03 -0.41342363911E+03  0.86687563346E+03  0.12824386982E+04  0.65864270000E+03 0.  1.
    8880022    1    1    2    0    0 -0.53707200547E+03  0.41342363911E+03  0.20460864843E+04  0.21608394199E+04  0.15294330000E+03 0.  0.
<mgrwt>
<rscale>  0 0.87511960E+03</rscale>
<asrwt>0</asrwt>
<pdfrwt beam="1">  1        2 0.48894157E+00 0.94507971E+03</pdfrwt>
<pdfrwt beam="2">  1       -2 0.40793538E-01 0.94507971E+03</pdfrwt>
<totfact> 0.78985954E+00</totfact>
</mgrwt>
</event>
<event>
 4    2  0.3388003E-007  0.7490700E+03  0.7818608E-02  0.9834273E-01
         -2   -1    0    0    0  501 -0.00000000000E+00  0.00000000000E+00  0.34714721172E+03  0.34714721173E+03  0.25500000000E-02 0.  1.
          2   -1    0    0  501    0  0.00000000000E+00 -0.00000000000E+00 -0.15855988969E+04  0.15855988969E+04  0.25500000000E-02 0. -1.
    8880023    1    1    2    0    0  0.55497229619E+02 -0.35244260089E+03 -0.13256702819E+03  0.76071016336E+03  0.65864270000E+03 0.  1.
    8880022    1    1    2    0    0 -0.55497229619E+02  0.35244260089E+03 -0.11058846570E+04  0.11720359453E+04  0.15294330000E+03 0.  0.
<mgrwt>
<rscale>  0 0.63555250E+03</rscale>
<asrwt>0</asrwt>
<pdfrwt beam="1">  1        2 0.24393829E+00 0.74907005E+03</pdfrwt>
<pdfrwt beam="2">  1       -2 0.53407264E-01 0.74907005E+03</pdfrwt>
<totfact> 0.38447340E+01</totfact>
</mgrwt>
</event>
<event>
 4    2  0.3388003E-007  0.7060743E+03  0.7818608E-02  0.9972878E-01
          2   -1    0    0  501    0  0.00000000000E+00  0.00000000000E+00  0.20714300418E+04  0.20714300418E+04  0.25500000000E-02 0. -1.
         -2   -1    0    0    0  501 -0.00000000000E+00 -0.00000000000E+00 -0.21806660946E+03  0.21806660948E+03  0.25500000000E-02 0.  1.
    8880023    1    1    2    0    0 -0.87414044024E+02  0.23893408634E+03  0.41117068481E+03  0.81706930613E+03  0.65864270000E+03 0.  1.
    8880022    1    1    2    0    0  0.87414044024E+02 -0.23893408634E+03  0.14421927476E+04  0.14724273452E+04  0.15294330000E+03 0.  0.
<mgrwt>
<rscale>  0 0.56855643E+03</rscale>
<asrwt>0</asrwt>
<pdfrwt beam="1">  1        2 0.31868153E+00 0.70607430E+03</pdfrwt>
<pdfrwt beam="2">  1       -2 0.33548711E-01 0.70607430E+03</pdfrwt>
<totfact> 0.52482417E+01</totfact>
</mgrwt>
</event>
<event>
 4    2  0.3388003E-007  0.6958331E+03  0.7818608E-02  0.1001495E+00
          2   -1    0    0  501    0  0.00000000000E+00  0.00000000000E+00  0.98230498573E+03  0.98230498573E+03  0.25500000000E-02 0. -1.
         -2   -1    0    0    0  501 -0.00000000000E+00 -0.00000000000E+00 -0.35746574986E+03  0.35746574987E+03  0.25500000000E-02 0.  1.
    8880023    1    1    2    0    0 -0.11455300024E+02  0.22414785841E+03  0.42404959980E+02  0.69712400133E+03  0.65864270000E+03 0.  1.
    8880022    1    1    2    0    0  0.11455300024E+02 -0.22414785841E+03  0.58243427589E+03  0.64264673428E+03  0.15294330000E+03 0.  0.
<mgrwt>
<rscale>  0 0.54999685E+03</rscale>
<asrwt>0</asrwt>
<pdfrwt beam="1">  1        2 0.15112384E+00 0.69583309E+03</pdfrwt>
<pdfrwt beam="2">  1       -2 0.54994730E-01 0.69583309E+03</pdfrwt>
<totfact> 0.81903879E+01</totfact>
</mgrwt>
</event>
<event>
 4    2  0.3388003E-007  0.6789604E+03  0.7818608E-02  0.1009918E+00
          2   -1    0    0  501    0  0.00000000000E+00  0.00000000000E+00  0.66697677643E+03  0.66697677643E+03  0.25500000000E-02 0. -1.
         -2   -1    0    0    0  501 -0.00000000000E+00 -0.00000000000E+00 -0.30621379780E+03  0.30621379781E+03  0.25500000000E-02 0.  1.
    8880023    1    1    2    0    0  0.93049515672E+02  0.13608371405E+03  0.27363742143E+03  0.73202775512E+03  0.65864270000E+03 0.  1.
    8880022    1    1    2    0    0 -0.93049515672E+02 -0.13608371405E+03  0.87125557193E+02  0.24116281912E+03  0.15294330000E+03 0. -1.
<mgrwt>
<rscale>  0 0.51507265E+03</rscale>
<asrwt>0</asrwt>
<pdfrwt beam="1">  1        2 0.10261181E+00 0.67896038E+03</pdfrwt>
<pdfrwt beam="2">  1       -2 0.47109816E-01 0.67896038E+03</pdfrwt>
<totfact> 0.18844428E+02</totfact>
</mgrwt>
</event>
<event>
 4    2  0.3388003E-007  0.8381986E+03  0.7818608E-02  0.9633586E-01
          2   -1    0    0  501    0  0.00000000000E+00  0.00000000000E+00  0.92804421562E+03  0.92804421563E+03  0.25500000000E-02 0. -1.
         -2   -1    0    0    0  501 -0.00000000000E+00 -0.00000000000E+00 -0.81848140787E+03  0.81848140788E+03  0.25500000000E-02 0.  1.
    8880023    1    1    2    0    0  0.32048904839E+03  0.40749649065E+03  0.58865054103E+03  0.10242491327E+04  0.65864270000E+03 0.  0.
    8880022    1    1    2    0    0 -0.32048904839E+03 -0.40749649065E+03 -0.47908773328E+03  0.72227649085E+03  0.15294330000E+03 0.  1.
<mgrwt>
<rscale>  0 0.75112541E+03</rscale>
<asrwt>0</asrwt>
<pdfrwt beam="1">  1        2 0.14277603E+00 0.83819856E+03</pdfrwt>
<pdfrwt beam="2">  1       -2 0.12592022E+00 0.83819856E+03</pdfrwt>
<totfact> 0.13307816E+01</totfact>
</mgrwt>
</event>
<event>
 4    2  0.3388003E-007  0.6744293E+03  0.7818608E-02  0.1012668E+00
          2   -1    0    0  501    0  0.00000000000E+00  0.00000000000E+00  0.16424679061E+04  0.16424679061E+04  0.25500000000E-02 0. -1.
         -2   -1    0    0    0  501 -0.00000000000E+00 -0.00000000000E+00 -0.19680878134E+03  0.19680878136E+03  0.25500000000E-02 0.  1.
    8880023    1    1    2    0    0  0.14506647527E+03 -0.58049062773E+00  0.42520943507E+03  0.79728156203E+03  0.65864270000E+03 0.  0.
    8880022    1    1    2    0    0 -0.14506647527E+03  0.58049062773E+00  0.10204496897E+04  0.10419951255E+04  0.15294330000E+03 0.  0.
<mgrwt>
<rscale>  0 0.50427740E+03</rscale>
<asrwt>0</asrwt>
<pdfrwt beam="1">  1        2 0.25268738E+00 0.67442926E+03</pdfrwt>
<pdfrwt beam="2">  1       -2 0.30278273E-01 0.67442926E+03</pdfrwt>
<totfact> 0.10929512E+02</totfact>
</mgrwt>
</event>
<event>
 4    2  0.3388003E-007  0.6717864E+03  0.7818608E-02  0.1014413E+00
          2   -1    0    0  501    0  0.00000000000E+00  0.00000000000E+00  0.69700652598E+03  0.69700652598E+03  0.25500000000E-02 0. -1.
         -2   -1    0    0    0  501 -0.00000000000E+00 -0.00000000000E+00 -0.40782410429E+03  0.40782410430E+03  0.25500000000E-02 0.  1.
    8880023    1    1    2    0    0  0.68391120506E+02  0.11317898409E+03 -0.87357272982E+02  0.67744248996E+03  0.65864270000E+03 0.  1.
    8880022    1    1    2    0    0 -0.68391120506E+02 -0.11317898409E+03  0.37653969467E+03  0.42738814032E+03  0.15294330000E+03 0.  0.
<mgrwt>
<rscale>  0 0.49757697E+03</rscale>
<asrwt>0</asrwt>
<pdfrwt beam="1">  1        2 0.10723177E+00 0.67178645E+03</pdfrwt>
<pdfrwt beam="2">  1       -2 0.62742170E-01 0.67178645E+03</pdfrwt>
<totfact> 0.98677458E+01</totfact>
</mgrwt>
</event>
<event>
 4    2  0.3388003E-007  0.7229479E+03  0.7818608E-02  0.9912735E-01
         -2   -1    0    0    0  501 -0.00000000000E+00  0.00000000000E+00  0.39751504340E+03  0.39751504341E+03  0.25500000000E-02 0.  1.
          2   -1    0    0  501    0  0.00000000000E+00 -0.00000000000E+00 -0.16159037744E+04  0.16159037744E+04  0.25500000000E-02 0. -1.
    8880023    1    1    2    0    0 -0.28411412668E+03  0.90125367976E+02  0.27303926149E+02  0.72346328834E+03  0.65864270000E+03 0.  0.
    8880022    1    1    2    0    0  0.28411412668E+03 -0.90125367976E+02 -0.12456926572E+04  0.12899555295E+04  0.15294330000E+03 0.  0.
<mgrwt>
<rscale>  0 0.59648058E+03</rscale>
<asrwt>0</asrwt>
<pdfrwt beam="1">  1        2 0.24860058E+00 0.72294787E+03</pdfrwt>
<pdfrwt beam="2">  1       -2 0.61156161E-01 0.72294787E+03</pdfrwt>
<totfact> 0.27957215E+01</totfact>
</mgrwt>
</event>
<event>
 4    2  0.3388003E-007  0.7340629E+03  0.7818608E-02  0.9877592E-01
          2   -1    0    0  501    0  0.00000000000E+00  0.00000000000E+00  0.24473841172E+04  0.24473841172E+04  0.25500000000E-02 0. -1.
         -2   -1    0    0    0  501 -0.00000000000E+00 -0.00000000000E+00 -0.15887902371E+03  0.15887902374E+03  0.25500000000E-02 0.  1.
    8880023    1    1    2    0    0 -0.32403667570E+03  0.61889659545E+01  0.84676743391E+03  0.11206530970E+04  0.65864270000E+03 0.  0.
    8880022    1    1    2    0    0  0.32403667570E+03 -0.61889659545E+01  0.14417376596E+04  0.14856100439E+04  0.15294330000E+03 0.  0.
<mgrwt>
<rscale>  0 0.61359686E+03</rscale>
<asrwt>0</asrwt>
<pdfrwt beam="1">  1        2 0.37652062E+00 0.73406286E+03</pdfrwt>
<pdfrwt beam="2">  1       -2 0.24442927E-01 0.73406286E+03</pdfrwt>
<totfact> 0.58026688E+01</totfact>
</mgrwt>
</event>
<event>
 4    2  0.3388003E-007  0.7590134E+03  0.7818608E-02  0.9807668E-01
          2   -1    0    0  501    0  0.00000000000E+00  0.00000000000E+00  0.19537392958E+04  0.19537392958E+04  0.25500000000E-02 0. -1.
         -2   -1    0    0    0  501 -0.00000000000E+00 -0.00000000000E+00 -0.53628093347E+03  0.53628093348E+03  0.25500000000E-02 0.  1.
    8880023    1    1    2    0    0  0.30777631968E+03  0.21809385651E+03 -0.22994149317E+03  0.79307911948E+03  0.65864270000E+03 0.  1.
    8880022    1    1    2    0    0 -0.30777631968E+03 -0.21809385651E+03  0.16473998555E+04  0.16969411098E+04  0.15294330000E+03 0.  0.
<mgrwt>
<rscale>  0 0.64952638E+03</rscale>
<asrwt>0</asrwt>
<pdfrwt beam="1">  1        2 0.30057527E+00 0.75901344E+03</pdfrwt>
<pdfrwt beam="2">  1       -2 0.82504760E-01 0.75901344E+03</pdfrwt>
<totfact> 0.94411597E+00</totfact>
</mgrwt>
</event>
<event>
 4    2  0.3388003E-007  0.7453972E+03  0.7818608E-02  0.9844495E-01
         -2   -1    0    0    0  501 -0.00000000000E+00  0.00000000000E+00  0.30875619726E+03  0.30875619727E+03  0.25500000000E-02 0.  1.
          2   -1    0    0  501    0  0.00000000000E+00 -0.00000000000E+00 -0.15090233781E+04  0.15090233781E+04  0.25500000000E-02 0. -1.
    8880023    1    1    2    0    0 -0.28126025057E+03 -0.20663850308E+03 -0.23745436064E+03  0.78230529792E+03  0.65864270000E+03 0.  1.
    8880022    1    1    2    0    0  0.28126025057E+03  0.20663850308E+03 -0.96281282015E+03  0.10354742774E+04  0.15294330000E+03 0.  0.
<mgrwt>
<rscale>  0 0.63028369E+03</rscale>
<asrwt>0</asrwt>
<pdfrwt beam="1">  1        2 0.23215744E+00 0.74539721E+03</pdfrwt>
<pdfrwt beam="2">  1       -2 0.47500954E-01 0.74539721E+03</pdfrwt>
<totfact> 0.53853176E+01</totfact>
</mgrwt>
</event>
<event>
 4    2  0.3388003E-007  0.9448720E+03  0.7818608E-02  0.9457531E-01
         -2   -1    0    0    0  501 -0.00000000000E+00  0.00000000000E+00  0.69978080166E+03  0.69978080167E+03  0.25500000000E-02 0.  1.
          2   -1    0    0  501    0  0.00000000000E+00 -0.00000000000E+00 -0.17221127437E+04  0.17221127437E+04  0.25500000000E-02 0. -1.
    8880023    1    1    2    0    0 -0.67745706794E+03 -0.49804631889E+01  0.24554252968E+03  0.97625520437E+03  0.65864270000E+03 0.  0.
    8880022    1    1    2    0    0  0.67745706794E+03  0.49804631889E+01 -0.12678744717E+04  0.14456383410E+04  0.15294330000E+03 0.  0.
<mgrwt>
<rscale>  0 0.87488638E+03</rscale>
<asrwt>0</asrwt>
<pdfrwt beam="1">  1        2 0.26494042E+00 0.94487200E+03</pdfrwt>
<pdfrwt beam="2">  1       -2 0.10765859E+00 0.94487200E+03</pdfrwt>
<totfact> 0.66182515E+00</totfact>
</mgrwt>
</event>
<event>
 4    2  0.3388003E-007  0.6594429E+03  0.7818608E-02  0.1024735E+00
         -2   -1    0    0    0  501 -0.00000000000E+00  0.00000000000E+00  0.36042308565E+03  0.36042308566E+03  0.25500000000E-02 0.  1.
          2   -1    0    0  501    0  0.00000000000E+00 -0.00000000000E+00 -0.11424640094E+04  0.11424640094E+04  0.25500000000E-02 0. -1.
    8880023    1    1    2    0    0 -0.20598256117E+02  0.25108708369E+02  0.45209339525E+02  0.66099079119E+03  0.65864270000E+03 0.  1.
    8880022    1    1    2    0    0  0.20598256117E+02 -0.25108708369E+02 -0.82725026329E+03  0.84189630390E+03  0.15294330000E+03 0.  0.
<mgrwt>
<rscale>  0 0.46016092E+03</rscale>
<asrwt>0</asrwt>
<pdfrwt beam="1">  1        2 0.17576369E+00 0.65944290E+03</pdfrwt>
<pdfrwt beam="2">  1       -2 0.55449706E-01 0.65944290E+03</pdfrwt>
<totfact> 0.64283497E+01</totfact>
</mgrwt>
</event>
<event>
 4    2  0.3388003E-007  0.8488122E+03  0.7818608E-02  0.9613783E-01
         -2   -1    0    0    0  501 -0.00000000000E+00  0.00000000000E+00  0.24528981565E+03  0.24528981566E+03  0.25500000000E-02 0.  1.
          2   -1    0    0  501    0  0.00000000000E+00 -0.00000000000E+00 -0.33267193527E+04  0.33267193527E+04  0.25500000000E-02 0. -1.
    8880023    1    1    2    0    0 -0.51593470193E+03 -0.14311985161E+03 -0.62718294269E+03  0.10553864498E+04  0.65864270000E+03 0.  0.
    8880022    1    1    2    0    0  0.51593470193E+03  0.14311985161E+03 -0.24542465944E+04  0.25166227186E+04  0.15294330000E+03 0.  0.
<mgrwt>
<rscale>  0 0.76390621E+03</rscale>
<asrwt>0</asrwt>
<pdfrwt beam="1">  1        2 0.51180294E+00 0.84881218E+03</pdfrwt>
<pdfrwt beam="2">  1       -2 0.37736897E-01 0.84881218E+03</pdfrwt>
<totfact> 0.74799703E+00</totfact>
</mgrwt>
</event>
<event>
 4    2  0.3388003E-007  0.6655802E+03  0.7818608E-02  0.1019052E+00
         -2   -1    0    0    0  501 -0.00000000000E+00  0.00000000000E+00  0.42993840566E+03  0.42993840567E+03  0.25500000000E-02 0.  1.
          2   -1    0    0  501    0  0.00000000000E+00 -0.00000000000E+00 -0.98042004041E+03  0.98042004041E+03  0.25500000000E-02 0. -1.
    8880023    1    1    2    0    0  0.24333271331E+01 -0.95817174924E+02  0.15396480524E+03  0.68315607266E+03  0.65864270000E+03 0.  1.
    8880022    1    1    2    0    0 -0.24333271331E+01  0.95817174924E+02 -0.70444643999E+03  0.72720237342E+03  0.15294330000E+03 0.  0.
<mgrwt>
<rscale>  0 0.48030456E+03</rscale>
<asrwt>0</asrwt>
<pdfrwt beam="1">  1        2 0.15083385E+00 0.66558024E+03</pdfrwt>
<pdfrwt beam="2">  1       -2 0.66144370E-01 0.66558024E+03</pdfrwt>
<totfact> 0.55767101E+01</totfact>
</mgrwt>
</event>
<event>
 4    2  0.3388003E-007  0.6673959E+03  0.7818608E-02  0.1017603E+00
         -2   -1    0    0    0  501 -0.00000000000E+00  0.00000000000E+00  0.41988466076E+03  0.41988466077E+03  0.25500000000E-02 0.  1.
          2   -1    0    0  501    0  0.00000000000E+00 -0.00000000000E+00 -0.66016577546E+03  0.66016577547E+03  0.25500000000E-02 0. -1.
    8880023    1    1    2    0    0  0.10753213605E+03  0.66303901402E+01  0.11622430253E+03  0.67744034211E+03  0.65864270000E+03 0.  1.
    8880022    1    1    2    0    0 -0.10753213605E+03 -0.66303901402E+01 -0.35650541723E+03  0.40261009412E+03  0.15294330000E+03 0.  0.
<mgrwt>
<rscale>  0 0.48561744E+03</rscale>
<asrwt>0</asrwt>
<pdfrwt beam="1">  1        2 0.10156397E+00 0.66739593E+03</pdfrwt>
<pdfrwt beam="2">  1       -2 0.64597640E-01 0.66739593E+03</pdfrwt>
<totfact> 0.99244143E+01</totfact>
</mgrwt>
</event>
<event>
 4    2  0.3388003E-007  0.7027575E+03  0.7818608E-02  0.9985949E-01
          2   -1    0    0  501    0  0.00000000000E+00  0.00000000000E+00  0.12068599089E+04  0.12068599089E+04  0.25500000000E-02 0. -1.
         -2   -1    0    0    0  501 -0.00000000000E+00 -0.00000000000E+00 -0.29194295653E+03  0.29194295655E+03  0.25500000000E-02 0.  1.
    8880023    1    1    2    0    0 -0.24080518181E+03  0.45504913849E+02  0.20451301740E+03  0.73191093264E+03  0.65864270000E+03 0.  0.
    8880022    1    1    2    0    0  0.24080518181E+03 -0.45504913849E+02  0.71040393496E+03  0.76689193279E+03  0.15294330000E+03 0.  0.
<mgrwt>
<rscale>  0 0.56270666E+03</rscale>
<asrwt>0</asrwt>
<pdfrwt beam="1">  1        2 0.18567075E+00 0.70275745E+03</pdfrwt>
<pdfrwt beam="2">  1       -2 0.44914301E-01 0.70275745E+03</pdfrwt>
<totfact> 0.89954186E+01</totfact>
</mgrwt>
</event>
<event>
 4    2  0.3388003E-007  0.1029651E+04  0.7818608E-02  0.9343753E-01
         -2   -1    0    0    0  501 -0.00000000000E+00  0.00000000000E+00  0.45273231287E+03  0.45273231288E+03  0.25500000000E-02 0.  1.
          2   -1    0    0  501    0  0.00000000000E+00 -0.00000000000E+00 -0.20873694981E+04  0.20873694981E+04  0.25500000000E-02 0. -1.
    8880023    1    1    2    0    0  0.24023870820E+03 -0.75409342210E+03 -0.13216470410E+04  0.16753902929E+04  0.65864270000E+03 0.  0.
    8880022    1    1    2    0    0 -0.24023870820E+03  0.75409342210E+03 -0.31299014422E+03  0.86471151812E+03  0.15294330000E+03 0.  0.
<mgrwt>
<rscale>  0 0.96852761E+03</rscale>
<asrwt>0</asrwt>
<pdfrwt beam="1">  1        2 0.32113376E+00 0.10296513E+04</pdfrwt>
<pdfrwt beam="2">  1       -2 0.69651126E-01 0.10296513E+04</pdfrwt>
<totfact> 0.11233633E+01</totfact>
</mgrwt>
</event>
<event>
 4    2  0.3388003E-007  0.8511238E+03  0.7818608E-02  0.9609552E-01
         -2   -1    0    0    0  501 -0.00000000000E+00  0.00000000000E+00  0.23527815550E+03  0.23527815552E+03  0.25500000000E-02 0.  1.
          2   -1    0    0  501    0  0.00000000000E+00 -0.00000000000E+00 -0.22641791803E+04  0.22641791803E+04  0.25500000000E-02 0. -1.
    8880023    1    1    2    0    0 -0.23962526789E+03  0.48288851371E+03 -0.89751590835E+03  0.12369101009E+04  0.65864270000E+03 0.  0.
    8880022    1    1    2    0    0  0.23962526789E+03 -0.48288851371E+03 -0.11313851165E+04  0.12625472350E+04  0.15294330000E+03 0.  0.
<mgrwt>
<rscale>  0 0.76667200E+03</rscale>
<asrwt>0</asrwt>
<pdfrwt beam="1">  1        2 0.34833524E+00 0.85112384E+03</pdfrwt>
<pdfrwt beam="2">  1       -2 0.36196641E-01 0.85112384E+03</pdfrwt>
<totfact> 0.34935703E+01</totfact>
</mgrwt>
</event>
<event>
 4    2  0.3388003E-007  0.8640998E+03  0.7818608E-02  0.9586312E-01
          2   -1    0    0  501    0  0.00000000000E+00  0.00000000000E+00  0.18160416259E+04  0.18160416259E+04  0.25500000000E-02 0. -1.
         -2   -1    0    0    0  501 -0.00000000000E+00 -0.00000000000E+00 -0.77459751989E+03  0.77459751989E+03  0.25500000000E-02 0.  1.
    8880023    1    1    2    0    0  0.54545690678E+03 -0.12383431112E+03 -0.46156623182E+03  0.97964879747E+03  0.65864270000E+03 0.  1.
    8880022    1    1    2    0    0 -0.54545690678E+03  0.12383431112E+03  0.15030103379E+04  0.16109903484E+04  0.15294330000E+03 0.  0.
<mgrwt>
<rscale>  0 0.78208808E+03</rscale>
<asrwt>0</asrwt>
<pdfrwt beam="1">  1        2 0.27939101E+00 0.86409975E+03</pdfrwt>
<pdfrwt beam="2">  1       -2 0.11916885E+00 0.86409975E+03</pdfrwt>
<totfact> 0.46328587E+00</totfact>
</mgrwt>
</event>
<event>
 4    2  0.3388003E-007  0.9456928E+03  0.7818608E-02  0.9456339E-01
          2   -1    0    0  501    0  0.00000000000E+00  0.00000000000E+00  0.44556100153E+03  0.44556100154E+03  0.25500000000E-02 0. -1.
         -2   -1    0    0    0  501 -0.00000000000E+00 -0.00000000000E+00 -0.25692232917E+04  0.25692232917E+04  0.25500000000E-02 0.  1.
    8880023    1    1    2    0    0 -0.52640547867E+02  0.67657488372E+03 -0.21175377804E+04  0.23191164391E+04  0.65864270000E+03 0.  1.
    8880022    1    1    2    0    0  0.52640547867E+02 -0.67657488372E+03 -0.61245097351E+01  0.69566785408E+03  0.15294330000E+03 0.  0.
<mgrwt>
<rscale>  0 0.87580784E+03</rscale>
<asrwt>0</asrwt>
<pdfrwt beam="1">  1        2 0.68547848E-01 0.94569277E+03</pdfrwt>
<pdfrwt beam="2">  1       -2 0.39526511E+00 0.94569277E+03</pdfrwt>
<totfact> 0.57663780E-01</totfact>
</mgrwt>
</event>
<event>
 4    2  0.3388003E-007  0.9555925E+03  0.7818608E-02  0.9442113E-01
         -2   -1    0    0    0  501 -0.00000000000E+00  0.00000000000E+00  0.12260321232E+04  0.12260321232E+04  0.25500000000E-02 0.  1.
          2   -1    0    0  501    0  0.00000000000E+00 -0.00000000000E+00 -0.11698964889E+04  0.11698964889E+04  0.25500000000E-02 0. -1.
    8880023    1    1    2    0    0 -0.68219576155E+03  0.11813490822E+03  0.88688696335E+03  0.13037352514E+04  0.65864270000E+03 0.  0.
    8880022    1    1    2    0    0  0.68219576155E+03 -0.11813490822E+03 -0.83075132907E+03  0.10921933608E+04  0.15294330000E+03 0.  0.
<mgrwt>
<rscale>  0 0.88689528E+03</rscale>
<asrwt>0</asrwt>
<pdfrwt beam="1">  1        2 0.17998408E+00 0.95559255E+03</pdfrwt>
<pdfrwt beam="2">  1       -2 0.18862033E+00 0.95559255E+03</pdfrwt>
<totfact> 0.31169702E+00</totfact>
</mgrwt>
</event>
<event>
 4    2  0.3388003E-007  0.7990443E+03  0.7818608E-02  0.9712866E-01
         -2   -1    0    0    0  501 -0.00000000000E+00  0.00000000000E+00  0.36197732610E+03  0.36197732611E+03  0.25500000000E-02 0.  1.
          2   -1    0    0  501    0  0.00000000000E+00 -0.00000000000E+00 -0.25862401372E+04  0.25862401372E+04  0.25500000000E-02 0. -1.
    8880023    1    1    2    0    0 -0.36834433150E+03 -0.26264811707E+03 -0.14158538534E+03  0.81149134780E+03  0.65864270000E+03 0.  1.
    8880022    1    1    2    0    0  0.36834433150E+03  0.26264811707E+03 -0.20826774258E+04  0.21367261155E+04  0.15294330000E+03 0.  0.
<mgrwt>
<rscale>  0 0.70255879E+03</rscale>
<asrwt>0</asrwt>
<pdfrwt beam="1">  1        2 0.39788309E+00 0.79904430E+03</pdfrwt>
<pdfrwt beam="2">  1       -2 0.55688821E-01 0.79904430E+03</pdfrwt>
<totfact> 0.97928201E+00</totfact>
</mgrwt>
</event>
<event>
 4    2  0.3388003E-007  0.6952577E+03  0.7818608E-02  0.1001747E+00
         -2   -1    0    0    0  501 -0.00000000000E+00  0.00000000000E+00  0.19870366612E+03  0.19870366613E+03  0.25500000000E-02 0.  1.
          2   -1    0    0  501    0  0.00000000000E+00 -0.00000000000E+00 -0.23853629054E+04  0.23853629054E+04  0.25500000000E-02 0. -1.
    8880023    1    1    2    0    0  0.10112470374E+03  0.19836058744E+03 -0.45373483834E+03  0.83021601896E+03  0.65864270000E+03 0.  1.
    8880022    1    1    2    0    0 -0.10112470374E+03 -0.19836058744E+03 -0.17329244009E+04  0.17538505526E+04  0.15294330000E+03 0.  0.
<mgrwt>
<rscale>  0 0.54890671E+03</rscale>
<asrwt>0</asrwt>
<pdfrwt beam="1">  1        2 0.36697889E+00 0.69525775E+03</pdfrwt>
<pdfrwt beam="2">  1       -2 0.30569796E-01 0.69525775E+03</pdfrwt>
<totfact> 0.41994401E+01</totfact>
</mgrwt>
</event>
<event>
 4    2  0.3388003E-007  0.6724327E+03  0.7818608E-02  0.1013976E+00
          2   -1    0    0  501    0  0.00000000000E+00  0.00000000000E+00  0.10687860967E+04  0.10687860967E+04  0.25500000000E-02 0. -1.
         -2   -1    0    0    0  501 -0.00000000000E+00 -0.00000000000E+00 -0.30573155847E+03  0.30573155849E+03  0.25500000000E-02 0.  1.
    8880023    1    1    2    0    0 -0.13261160525E+03 -0.27742658542E+02  0.98927205812E+02  0.67967072268E+03  0.65864270000E+03 0.  1.
    8880022    1    1    2    0    0  0.13261160525E+03  0.27742658542E+02  0.66412733242E+03  0.69484693252E+03  0.15294330000E+03 0.  0.
<mgrwt>
<rscale>  0 0.49924641E+03</rscale>
<asrwt>0</asrwt>
<pdfrwt beam="1">  1        2 0.16442863E+00 0.67243267E+03</pdfrwt>
<pdfrwt beam="2">  1       -2 0.47035624E-01 0.67243267E+03</pdfrwt>
<totfact> 0.99599018E+01</totfact>
</mgrwt>
</event>
<event>
 4    2  0.3388003E-007  0.6956754E+03  0.7818608E-02  0.1001564E+00
          2   -1    0    0  501    0  0.00000000000E+00  0.00000000000E+00  0.41766932063E+04  0.41766932063E+04  0.25500000000E-02 0. -1.
         -2   -1    0    0    0  501 -0.00000000000E+00 -0.00000000000E+00 -0.17465421300E+03  0.17465421301E+03  0.25500000000E-02 0.  1.
    8880023    1    1    2    0    0 -0.21410399984E+03 -0.65677963407E+02  0.54512721810E+03  0.88381446458E+03  0.65864270000E+03 0.  1.
    8880022    1    1    2    0    0  0.21410399984E+03  0.65677963407E+02  0.34569117752E+04  0.34675329548E+04  0.15294330000E+03 0.  0.
<mgrwt>
<rscale>  0 0.54969871E+03</rscale>
<asrwt>0</asrwt>
<pdfrwt beam="1">  1        2 0.64256816E+00 0.69567544E+03</pdfrwt>
<pdfrwt beam="2">  1       -2 0.26869880E-01 0.69567544E+03</pdfrwt>
<totfact> 0.34573663E+00</totfact>
</mgrwt>
</event>
<event>
 4    2  0.3388003E-007  0.1005047E+04  0.7818608E-02  0.9374984E-01
         -2   -1    0    0    0  501 -0.00000000000E+00  0.00000000000E+00  0.16550585668E+04  0.16550585668E+04  0.25500000000E-02 0.  1.
          2   -1    0    0  501    0  0.00000000000E+00 -0.00000000000E+00 -0.62510002652E+03  0.62510002653E+03  0.25500000000E-02 0. -1.
    8880023    1    1    2    0    0 -0.75907190448E+03  0.10902936890E+02  0.11149828450E+04  0.15011015892E+04  0.65864270000E+03 0.  0.
    8880022    1    1    2    0    0  0.75907190448E+03 -0.10902936890E+02 -0.85024304769E+02  0.77905700408E+03  0.15294330000E+03 0.  0.
<mgrwt>
<rscale>  0 0.94163276E+03</rscale>
<asrwt>0</asrwt>
<pdfrwt beam="1">  1        2 0.96169233E-01 0.10050469E+04</pdfrwt>
<pdfrwt beam="2">  1       -2 0.25462440E+00 0.10050469E+04</pdfrwt>
<totfact> 0.28363793E+00</totfact>
</mgrwt>
</event>
<event>
 4    2  0.3388003E-007  0.6778827E+03  0.7818608E-02  0.1010548E+00
          2   -1    0    0  501    0  0.00000000000E+00  0.00000000000E+00  0.12278310032E+04  0.12278310032E+04  0.25500000000E-02 0. -1.
         -2   -1    0    0    0  501 -0.00000000000E+00 -0.00000000000E+00 -0.41453843879E+03  0.41453843879E+03  0.25500000000E-02 0.  1.
    8880023    1    1    2    0    0  0.76022639081E+02 -0.14119227335E+03 -0.11537308395E+03  0.68763060903E+03  0.65864270000E+03 0.  1.
    8880022    1    1    2    0    0 -0.76022639081E+02  0.14119227335E+03  0.92866564834E+03  0.95473883294E+03  0.15294330000E+03 0.  0.
<mgrwt>
<rscale>  0 0.51257581E+03</rscale>
<asrwt>0</asrwt>
<pdfrwt beam="1">  1        2 0.18889708E+00 0.67788266E+03</pdfrwt>
<pdfrwt beam="2">  1       -2 0.63775145E-01 0.67788266E+03</pdfrwt>
<totfact> 0.42542903E+01</totfact>
</mgrwt>
</event>
<event>
 4    2  0.3388003E-007  0.6686818E+03  0.7818608E-02  0.1016626E+00
          2   -1    0    0  501    0  0.00000000000E+00  0.00000000000E+00  0.40938540998E+03  0.40938540999E+03  0.25500000000E-02 0. -1.
         -2   -1    0    0    0  501 -0.00000000000E+00 -0.00000000000E+00 -0.18393430088E+04  0.18393430088E+04  0.25500000000E-02 0.  1.
    8880023    1    1    2    0    0  0.62162429380E+02  0.97267301935E+02 -0.17512866186E+04  0.18746039909E+04  0.65864270000E+03 0.  1.
    8880022    1    1    2    0    0 -0.62162429380E+02 -0.97267301935E+02  0.32132901977E+03  0.37412442798E+03  0.15294330000E+03 0.  0.
<mgrwt>
<rscale>  0 0.48924077E+03</rscale>
<asrwt>0</asrwt>
<pdfrwt beam="1">  1        2 0.62982372E-01 0.66868176E+03</pdfrwt>
<pdfrwt beam="2">  1       -2 0.28297584E+00 0.66868176E+03</pdfrwt>
<totfact> 0.32820257E+00</totfact>
</mgrwt>
</event>
<event>
 4    2  0.3388003E-007  0.7401630E+03  0.7818608E-02  0.9859473E-01
          2   -1    0    0  501    0  0.00000000000E+00  0.00000000000E+00  0.48215649910E+03  0.48215649910E+03  0.25500000000E-02 0. -1.
         -2   -1    0    0    0  501 -0.00000000000E+00 -0.00000000000E+00 -0.10599026099E+04  0.10599026099E+04  0.25500000000E-02 0.  1.
    8880023    1    1    2    0    0 -0.11299351807E+03  0.31821925961E+03 -0.81577567047E+03  0.11015131334E+04  0.65864270000E+03 0.  1.
    8880022    1    1    2    0    0  0.11299351807E+03 -0.31821925961E+03  0.23802955966E+03  0.44054597558E+03  0.15294330000E+03 0.  0.
<mgrwt>
<rscale>  0 0.62266266E+03</rscale>
<asrwt>0</asrwt>
<pdfrwt beam="1">  1        2 0.74177923E-01 0.74016298E+03</pdfrwt>
<pdfrwt beam="2">  1       -2 0.16306194E+00 0.74016298E+03</pdfrwt>
<totfact> 0.15601374E+01</totfact>
</mgrwt>
</event>
<event>
 4    2  0.3388003E-007  0.8557265E+03  0.7818608E-02  0.9601211E-01
          2   -1    0    0  501    0  0.00000000000E+00  0.00000000000E+00  0.24967818111E+04  0.24967818111E+04  0.25500000000E-02 0. -1.
         -2   -1    0    0    0  501 -0.00000000000E+00 -0.00000000000E+00 -0.47559004797E+03  0.47559004798E+03  0.25500000000E-02 0.  1.
    8880023    1    1    2    0    0  0.22536474198E+03  0.49766285589E+03 -0.17816194725E+02  0.85591191610E+03  0.65864270000E+03 0.  1.
    8880022    1    1    2    0    0 -0.22536474198E+03 -0.49766285589E+03  0.20390079578E+04  0.21164599430E+04  0.15294330000E+03 0.  0.
<mgrwt>
<rscale>  0 0.77216086E+03</rscale>
<asrwt>0</asrwt>
<pdfrwt beam="1">  1        2 0.38412028E+00 0.85572647E+03</pdfrwt>
<pdfrwt beam="2">  1       -2 0.73167699E-01 0.85572647E+03</pdfrwt>
<totfact> 0.60821402E+00</totfact>
</mgrwt>
</event>
<event>
 4    2  0.3388003E-007  0.6939378E+03  0.7818608E-02  0.1002334E+00
          2   -1    0    0  501    0  0.00000000000E+00  0.00000000000E+00  0.69341595671E+03  0.69341595671E+03  0.25500000000E-02 0. -1.
         -2   -1    0    0    0  501 -0.00000000000E+00 -0.00000000000E+00 -0.37651131372E+03  0.37651131373E+03  0.25500000000E-02 0.  1.
    8880023    1    1    2    0    0  0.79509457515E+01  0.21834898137E+03  0.54975965482E+02  0.69611210178E+03  0.65864270000E+03 0.  1.
    8880022    1    1    2    0    0 -0.79509457515E+01 -0.21834898137E+03  0.26192867751E+03  0.37381516866E+03  0.15294330000E+03 0.  0.
<mgrwt>
<rscale>  0 0.54638390E+03</rscale>
<asrwt>0</asrwt>
<pdfrwt beam="1">  1        2 0.10667938E+00 0.69393782E+03</pdfrwt>
<pdfrwt beam="2">  1       -2 0.57924818E-01 0.69393782E+03</pdfrwt>
<totfact> 0.11739436E+02</totfact>
</mgrwt>
</event>
<event>
 4    2  0.3388003E-007  0.6946030E+03  0.7818608E-02  0.1002037E+00
         -2   -1    0    0    0  501 -0.00000000000E+00  0.00000000000E+00  0.52550505059E+03  0.52550505060E+03  0.25500000000E-02 0.  1.
          2   -1    0    0  501    0  0.00000000000E+00 -0.00000000000E+00 -0.72874216881E+03  0.72874216882E+03  0.25500000000E-02 0. -1.
    8880023    1    1    2    0    0 -0.14917460116E+03 -0.16251188914E+03  0.24098666880E+03  0.73521966551E+03  0.65864270000E+03 0.  0.
    8880022    1    1    2    0    0  0.14917460116E+03  0.16251188914E+03 -0.44422378702E+03  0.51902755391E+03  0.15294330000E+03 0.  0.
<mgrwt>
<rscale>  0 0.54765921E+03</rscale>
<asrwt>0</asrwt>
<pdfrwt beam="1">  1        2 0.11211418E+00 0.69460304E+03</pdfrwt>
<pdfrwt beam="2">  1       -2 0.80846931E-01 0.69460304E+03</pdfrwt>
<totfact> 0.53453517E+01</totfact>
</mgrwt>
</event>
<event>
 4    2  0.3388003E-007  0.1135861E+04  0.7818608E-02  0.9222141E-01
          2   -1    0    0  501    0  0.00000000000E+00  0.00000000000E+00  0.11669069172E+04  0.11669069172E+04  0.25500000000E-02 0. -1.
         -2   -1    0    0    0  501 -0.00000000000E+00 -0.00000000000E+00 -0.29142765920E+04  0.29142765920E+04  0.25500000000E-02 0.  1.
    8880023    1    1    2    0    0 -0.68919503824E+03  0.61756044568E+03 -0.25850673454E+04  0.28236065751E+04  0.65864270000E+03 0.  0.
    8880022    1    1    2    0    0  0.68919503824E+03 -0.61756044568E+03  0.83769767056E+03  0.12575769341E+04  0.15294330000E+03 0.  0.
<mgrwt>
<rscale>  0 0.10827786E+04</rscale>
<asrwt>0</asrwt>
<pdfrwt beam="1">  1        2 0.17952414E+00 0.11358613E+04</pdfrwt>
<pdfrwt beam="2">  1       -2 0.44835024E+00 0.11358613E+04</pdfrwt>
<totfact> 0.70151666E-02</totfact>
</mgrwt>
</event>
<event>
 4    2  0.3388003E-007  0.6604203E+03  0.7818608E-02  0.1023730E+00
          2   -1    0    0  501    0  0.00000000000E+00  0.00000000000E+00  0.77878273696E+03  0.77878273696E+03  0.25500000000E-02 0. -1.
         -2   -1    0    0    0  501 -0.00000000000E+00 -0.00000000000E+00 -0.32285888052E+03  0.32285888053E+03  0.25500000000E-02 0.  1.
    8880023    1    1    2    0    0  0.37822350625E+02 -0.30235882525E+02  0.46669312551E+02  0.66206719432E+03  0.65864270000E+03 0.  1.
    8880022    1    1    2    0    0 -0.37822350625E+02  0.30235882525E+02  0.40925454389E+03  0.43957442317E+03  0.15294330000E+03 0.  0.
<mgrwt>
<rscale>  0 0.46364305E+03</rscale>
<asrwt>0</asrwt>
<pdfrwt beam="1">  1        2 0.11981273E+00 0.66042028E+03</pdfrwt>
<pdfrwt beam="2">  1       -2 0.49670597E-01 0.66042028E+03</pdfrwt>
<totfact> 0.13921709E+02</totfact>
</mgrwt>
</event>
<event>
 4    2  0.3583674E-007  0.6918900E+03  0.7818608E-02  0.1003267E+00
          2   -1    0    0  501    0  0.00000000000E+00  0.00000000000E+00  0.10611406358E+04  0.10611406358E+04  0.25500000000E-02 0. -1.
         -2   -1    0    0    0  501 -0.00000000000E+00 -0.00000000000E+00 -0.20879399028E+04  0.20879399028E+04  0.25500000000E-02 0.  1.
    8880023    1    1    2    0    0  0.20735646672E+03  0.43644538530E+02 -0.20131339794E+04  0.21287132675E+04  0.65864270000E+03 0.  1.
    8880022    1    1    2    0    0 -0.20735646672E+03 -0.43644538530E+02  0.98633471235E+03  0.10203672711E+04  0.15294330000E+03 0.  0.
<mgrwt>
<rscale>  0 0.54240661E+03</rscale>
<asrwt>0</asrwt>
<pdfrwt beam="1">  1        2 0.16325241E+00 0.69188999E+03</pdfrwt>
<pdfrwt beam="2">  1       -2 0.32122152E+00 0.69188999E+03</pdfrwt>
<totfact> 0.57783124E-01</totfact>
</mgrwt>
</event>
<event>
 4    2  0.3388003E-007  0.7963761E+03  0.7818608E-02  0.9718687E-01
         -2   -1    0    0    0  501 -0.00000000000E+00  0.00000000000E+00  0.34835987488E+03  0.34835987489E+03  0.25500000000E-02 0.  1.
          2   -1    0    0  501    0  0.00000000000E+00 -0.00000000000E+00 -0.21593941082E+04  0.21593941082E+04  0.25500000000E-02 0. -1.
    8880023    1    1    2    0    0 -0.44296590807E+03 -0.64698824798E+02 -0.18948706162E+03  0.81860875052E+03  0.65864270000E+03 0.  0.
    8880022    1    1    2    0    0  0.44296590807E+03  0.64698824798E+02 -0.16215471717E+04  0.16891452326E+04  0.15294330000E+03 0.  0.
<mgrwt>
<rscale>  0 0.69914992E+03</rscale>
<asrwt>0</asrwt>
<pdfrwt beam="1">  1        2 0.33221447E+00 0.79637613E+03</pdfrwt>
<pdfrwt beam="2">  1       -2 0.53593828E-01 0.79637613E+03</pdfrwt>
<totfact> 0.18411892E+01</totfact>
</mgrwt>
</event>
<event>
 4    2  0.3388003E-007  0.6651241E+03  0.7818608E-02  0.1019430E+00
         -2   -1    0    0    0  501 -0.00000000000E+00  0.00000000000E+00  0.17049868409E+03  0.17049868411E+03  0.25500000000E-02 0.  1.
          2   -1    0    0  501    0  0.00000000000E+00 -0.00000000000E+00 -0.28661280082E+04  0.28661280082E+04  0.25500000000E-02 0. -1.
    8880023    1    1    2    0    0  0.92044025772E+02  0.10382909855E+02 -0.49590118618E+03  0.82964335724E+03  0.65864270000E+03 0.  1.
    8880022    1    1    2    0    0 -0.92044025772E+02 -0.10382909855E+02 -0.21997281380E+04  0.22069833351E+04  0.15294330000E+03 0.  0.
<mgrwt>
<rscale>  0 0.47893052E+03</rscale>
<asrwt>0</asrwt>
<pdfrwt beam="1">  1        2 0.44094274E+00 0.66512413E+03</pdfrwt>
<pdfrwt beam="2">  1       -2 0.26230569E-01 0.66512413E+03</pdfrwt>
<totfact> 0.29568200E+01</totfact>
</mgrwt>
</event>
<event>
 4    2  0.3388003E-007  0.7252959E+03  0.7818608E-02  0.9905058E-01
         -2   -1    0    0    0  501 -0.00000000000E+00  0.00000000000E+00  0.12891730615E+03  0.12891730618E+03  0.25500000000E-02 0.  1.
          2   -1    0    0  501    0  0.00000000000E+00 -0.00000000000E+00 -0.24958962683E+04  0.24958962683E+04  0.25500000000E-02 0. -1.
    8880023    1    1    2    0    0 -0.15179512059E+03 -0.26306296780E+03 -0.11365408364E+04  0.13482504080E+04  0.65864270000E+03 0.  1.
    8880022    1    1    2    0    0  0.15179512059E+03  0.26306296780E+03 -0.12304381258E+04  0.12765631665E+04  0.15294330000E+03 0.  0.
<mgrwt>
<rscale>  0 0.60016797E+03</rscale>
<asrwt>0</asrwt>
<pdfrwt beam="1">  1        2 0.38398400E+00 0.72529586E+03</pdfrwt>
<pdfrwt beam="2">  1       -2 0.19833434E-01 0.72529586E+03</pdfrwt>
<totfact> 0.78984611E+01</totfact>
</mgrwt>
</event>
<event>
 4    2  0.3388003E-007  0.1482754E+04  0.7818608E-02  0.8921911E-01
         -2   -1    0    0    0  501 -0.00000000000E+00  0.00000000000E+00  0.12499493161E+04  0.12499493161E+04  0.25500000000E-02 0.  1.
          2   -1    0    0  501    0  0.00000000000E+00 -0.00000000000E+00 -0.28804298981E+04  0.28804298981E+04  0.25500000000E-02 0. -1.
    8880023    1    1    2    0    0  0.98255093768E+03 -0.89405895973E+03  0.54252634709E+03  0.15788897403E+04  0.65864270000E+03 0.  1.
    8880022    1    1    2    0    0 -0.98255093768E+03  0.89405895973E+03 -0.21730069291E+04  0.25514894739E+04  0.15294330000E+03 0.  0.
<mgrwt>
<rscale>  0 0.14449469E+04</rscale>
<asrwt>0</asrwt>
<pdfrwt beam="1">  1        2 0.44314306E+00 0.14827535E+04</pdfrwt>
<pdfrwt beam="2">  1       -2 0.19229990E+00 0.14827535E+04</pdfrwt>
<totfact> 0.29174819E-01</totfact>
</mgrwt>
</event>
<event>
 4    2  0.3388003E-007  0.1286640E+04  0.7818608E-02  0.9077184E-01
         -2   -1    0    0    0  501 -0.00000000000E+00  0.00000000000E+00  0.10715125047E+04  0.10715125047E+04  0.25500000000E-02 0.  1.
          2   -1    0    0  501    0  0.00000000000E+00 -0.00000000000E+00 -0.23384363117E+04  0.23384363117E+04  0.25500000000E-02 0. -1.
    8880023    1    1    2    0    0 -0.41507914229E+03 -0.10243740242E+04  0.44934911868E+03  0.13628491012E+04  0.65864270000E+03 0.  0.
    8880022    1    1    2    0    0  0.41507914229E+03  0.10243740242E+04 -0.17162729256E+04  0.20470997152E+04  0.15294330000E+03 0.  0.
<mgrwt>
<rscale>  0 0.12416239E+04</rscale>
<asrwt>0</asrwt>
<pdfrwt beam="1">  1        2 0.35975943E+00 0.12866402E+04</pdfrwt>
<pdfrwt beam="2">  1       -2 0.16484808E+00 0.12866402E+04</pdfrwt>
<totfact> 0.96528806E-01</totfact>
</mgrwt>
</event>
<event>
 4    2  0.3388003E-007  0.7155718E+03  0.7818608E-02  0.9937864E-01
         -2   -1    0    0    0  501 -0.00000000000E+00  0.00000000000E+00  0.38192298143E+03  0.38192298144E+03  0.25500000000E-02 0.  1.
          2   -1    0    0  501    0  0.00000000000E+00 -0.00000000000E+00 -0.75929793862E+03  0.75929793863E+03  0.25500000000E-02 0. -1.
    8880023    1    1    2    0    0 -0.27385709153E+03  0.56877921352E+02 -0.10762285940E+03  0.72361985231E+03  0.65864270000E+03 0.  0.
    8880022    1    1    2    0    0  0.27385709153E+03 -0.56877921352E+02 -0.26975209779E+03  0.41760106776E+03  0.15294330000E+03 0.  0.
<mgrwt>
<rscale>  0 0.58460792E+03</rscale>
<asrwt>0</asrwt>
<pdfrwt beam="1">  1        2 0.11681507E+00 0.71557181E+03</pdfrwt>
<pdfrwt beam="2">  1       -2 0.58757382E-01 0.71557181E+03</pdfrwt>
<totfact> 0.10133348E+02</totfact>
</mgrwt>
</event>
<event>
 4    2  0.3388003E-007  0.1101292E+04  0.7818608E-02  0.9259619E-01
         -2   -1    0    0    0  501 -0.00000000000E+00  0.00000000000E+00  0.11369555772E+04  0.11369555772E+04  0.25500000000E-02 0.  1.
          2   -1    0    0  501    0  0.00000000000E+00 -0.00000000000E+00 -0.13539568651E+04  0.13539568651E+04  0.25500000000E-02 0. -1.
    8880023    1    1    2    0    0 -0.48311862261E+03  0.73866777870E+03  0.62095733304E+03  0.12642910687E+04  0.65864270000E+03 0.  0.
    8880022    1    1    2    0    0  0.48311862261E+03 -0.73866777870E+03 -0.83795862085E+03  0.12266213736E+04  0.15294330000E+03 0.  0.
<mgrwt>
<rscale>  0 0.10458693E+04</rscale>
<asrwt>0</asrwt>
<pdfrwt beam="1">  1        2 0.20830106E+00 0.11012919E+04</pdfrwt>
<pdfrwt beam="2">  1       -2 0.17491624E+00 0.11012919E+04</pdfrwt>
<totfact> 0.29675934E+00</totfact>
</mgrwt>
</event>
<event>
 4    2  0.3388003E-007  0.8407680E+03  0.7818608E-02  0.9628734E-01
          2   -1    0    0  501    0  0.00000000000E+00  0.00000000000E+00  0.23389774153E+04  0.23389774153E+04  0.25500000000E-02 0. -1.
         -2   -1    0    0    0  501 -0.00000000000E+00 -0.00000000000E+00 -0.34281065347E+03  0.34281065348E+03  0.25500000000E-02 0.  1.
    8880023    1    1    2    0    0 -0.30593371684E+03  0.42365698121E+03  0.19639421686E+04  0.21363426047E+04  0.65864270000E+03 0. -1.
    8880022    1    1    2    0    0  0.30593371684E+03 -0.42365698121E+03  0.32224593209E+02  0.54544546404E+03  0.15294330000E+03 0.  0.
<mgrwt>
<rscale>  0 0.75423236E+03</rscale>
<asrwt>0</asrwt>
<pdfrwt beam="1">  1        2 0.35984268E+00 0.84076803E+03</pdfrwt>
<pdfrwt beam="2">  1       -2 0.52740100E-01 0.84076803E+03</pdfrwt>
<totfact> 0.15038650E+01</totfact>
</mgrwt>
</event>
<event>
 4    2  0.3388003E-007  0.8289697E+03  0.7818608E-02  0.9651340E-01
          2   -1    0    0  501    0  0.00000000000E+00  0.00000000000E+00  0.15701345531E+04  0.15701345531E+04  0.25500000000E-02 0. -1.
         -2   -1    0    0    0  501 -0.00000000000E+00 -0.00000000000E+00 -0.71859636652E+03  0.71859636652E+03  0.25500000000E-02 0.  1.
    8880023    1    1    2    0    0  0.14129546568E+03 -0.48313155905E+03 -0.40785527325E+03  0.92387046828E+03  0.65864270000E+03 0.  0.
    8880022    1    1    2    0    0 -0.14129546568E+03  0.48313155905E+03  0.12593934599E+04  0.13648604514E+04  0.15294330000E+03 0.  0.
<mgrwt>
<rscale>  0 0.73989362E+03</rscale>
<asrwt>0</asrwt>
<pdfrwt beam="1">  1        2 0.24155916E+00 0.82896967E+03</pdfrwt>
<pdfrwt beam="2">  1       -2 0.11055329E+00 0.82896967E+03</pdfrwt>
<totfact> 0.76380356E+00</totfact>
</mgrwt>
</event>
<event>
 4    2  0.3388003E-007  0.8251423E+03  0.7818608E-02  0.9658859E-01
          2   -1    0    0  501    0  0.00000000000E+00  0.00000000000E+00  0.12225671026E+04  0.12225671026E+04  0.25500000000E-02 0. -1.
         -2   -1    0    0    0  501 -0.00000000000E+00 -0.00000000000E+00 -0.38858887420E+03  0.38858887421E+03  0.25500000000E-02 0.  1.
    8880023    1    1    2    0    0 -0.14667006758E+03  0.47490780671E+03  0.33533359389E+03  0.89067859470E+03  0.65864270000E+03 0.  0.
    8880022    1    1    2    0    0  0.14667006758E+03 -0.47490780671E+03  0.49864463449E+03  0.72047738209E+03  0.15294330000E+03 0.  0.
<mgrwt>
<rscale>  0 0.73520038E+03</rscale>
<asrwt>0</asrwt>
<pdfrwt beam="1">  1        2 0.18808725E+00 0.82514225E+03</pdfrwt>
<pdfrwt beam="2">  1       -2 0.59782904E-01 0.82514225E+03</pdfrwt>
<totfact> 0.48456873E+01</totfact>
</mgrwt>
</event>
<event>
 4    2  0.3388003E-007  0.8236254E+03  0.7818608E-02  0.9661865E-01
          2   -1    0    0  501    0  0.00000000000E+00  0.00000000000E+00  0.10616044037E+04  0.10616044037E+04  0.25500000000E-02 0. -1.
         -2   -1    0    0    0  501 -0.00000000000E+00 -0.00000000000E+00 -0.48024863961E+03  0.48024863962E+03  0.25500000000E-02 0.  1.
    8880023    1    1    2    0    0  0.25179030421E+03 -0.42561745631E+03  0.90651165538E+02  0.82859906860E+03  0.65864270000E+03 0.  1.
    8880022    1    1    2    0    0 -0.25179030421E+03  0.42561745631E+03  0.49070459859E+03  0.71325397476E+03  0.15294330000E+03 0.  0.
<mgrwt>
<rscale>  0 0.73333436E+03</rscale>
<asrwt>0</asrwt>
<pdfrwt beam="1">  1        2 0.16332375E+00 0.82362539E+03</pdfrwt>
<pdfrwt beam="2">  1       -2 0.73884406E-01 0.82362539E+03</pdfrwt>
<totfact> 0.38372151E+01</totfact>
</mgrwt>
</event>
<event>
 4    2  0.3388003E-007  0.8277636E+03  0.7818608E-02  0.9653700E-01
         -2   -1    0    0    0  501 -0.00000000000E+00  0.00000000000E+00  0.72807525943E+03  0.72807525944E+03  0.25500000000E-02 0.  1.
          2   -1    0    0  501    0  0.00000000000E+00 -0.00000000000E+00 -0.11085823873E+04  0.11085823873E+04  0.25500000000E-02 0. -1.
    8880023    1    1    2    0    0 -0.63651326614E+02 -0.49732365452E+03  0.38175524489E+03  0.91155338955E+03  0.65864270000E+03 0.  1.
    8880022    1    1    2    0    0  0.63651326614E+02  0.49732365452E+03 -0.76226237271E+03  0.92510425715E+03  0.15294330000E+03 0.  0.
<mgrwt>
<rscale>  0 0.73841698E+03</rscale>
<asrwt>0</asrwt>
<pdfrwt beam="1">  1        2 0.17055114E+00 0.82776356E+03</pdfrwt>
<pdfrwt beam="2">  1       -2 0.11201158E+00 0.82776356E+03</pdfrwt>
<totfact> 0.13660702E+01</totfact>
</mgrwt>
</event>
<event>
 4    2  0.3388003E-007  0.7174550E+03  0.7818608E-02  0.9931293E-01
         -2   -1    0    0    0  501 -0.00000000000E+00  0.00000000000E+00  0.18591668962E+04  0.18591668962E+04  0.25500000000E-02 0.  1.
          2   -1    0    0  501    0  0.00000000000E+00 -0.00000000000E+00 -0.38189183121E+03  0.38189183122E+03  0.25500000000E-02 0. -1.
    8880023    1    1    2    0    0 -0.12390030435E+03 -0.25608634215E+03  0.17023646116E+04  0.18473729935E+04  0.65864270000E+03 0.  0.
    8880022    1    1    2    0    0  0.12390030435E+03  0.25608634215E+03 -0.22508954663E+03  0.39368573389E+03  0.15294330000E+03 0. -1.
<mgrwt>
<rscale>  0 0.58768364E+03</rscale>
<asrwt>0</asrwt>
<pdfrwt beam="1">  1        2 0.58752590E-01 0.71745502E+03</pdfrwt>
<pdfrwt beam="2">  1       -2 0.28602567E+00 0.71745502E+03</pdfrwt>
<totfact> 0.33771630E+00</totfact>
</mgrwt>
</event>
<event>
 4    2  0.3388003E-007  0.6670917E+03  0.7818608E-02  0.1017840E+00
         -2   -1    0    0    0  501 -0.00000000000E+00  0.00000000000E+00  0.32148965608E+03  0.32148965609E+03  0.25500000000E-02 0.  1.
          2   -1    0    0  501    0  0.00000000000E+00 -0.00000000000E+00 -0.10016791526E+04  0.10016791526E+04  0.25500000000E-02 0. -1.
    8880023    1    1    2    0    0  0.10522024928E+03  0.11393930197E+02 -0.53240033782E+02  0.66921284354E+03  0.65864270000E+03 0.  1.
    8880022    1    1    2    0    0 -0.10522024928E+03 -0.11393930197E+02 -0.62694946275E+03  0.65395596515E+03  0.15294330000E+03 0.  0.
<mgrwt>
<rscale>  0 0.48474387E+03</rscale>
<asrwt>0</asrwt>
<pdfrwt beam="1">  1        2 0.15410448E+00 0.66709169E+03</pdfrwt>
<pdfrwt beam="2">  1       -2 0.49459948E-01 0.66709169E+03</pdfrwt>
<totfact> 0.99175690E+01</totfact>
</mgrwt>
</event>
<event>
 4    2  0.3388003E-007  0.8035720E+03  0.7818608E-02  0.9703125E-01
         -2   -1    0    0    0  501 -0.00000000000E+00  0.00000000000E+00  0.34444590623E+03  0.34444590624E+03  0.25500000000E-02 0.  1.
          2   -1    0    0  501    0  0.00000000000E+00 -0.00000000000E+00 -0.19603129735E+04  0.19603129735E+04  0.25500000000E-02 0. -1.
    8880023    1    1    2    0    0  0.41502058304E+03 -0.19918732885E+03 -0.22909092560E+03  0.83558993219E+03  0.65864270000E+03 0.  0.
    8880022    1    1    2    0    0 -0.41502058304E+03  0.19918732885E+03 -0.13867761416E+04  0.14691689475E+04  0.15294330000E+03 0.  0.
<mgrwt>
<rscale>  0 0.70831016E+03</rscale>
<asrwt>0</asrwt>
<pdfrwt beam="1">  1        2 0.30158660E+00 0.80357195E+03</pdfrwt>
<pdfrwt beam="2">  1       -2 0.52991679E-01 0.80357195E+03</pdfrwt>
<totfact> 0.24208932E+01</totfact>
</mgrwt>
</event>
<event>
 4    2  0.3388003E-007  0.6985967E+03  0.7818608E-02  0.1000307E+00
         -2   -1    0    0    0  501 -0.00000000000E+00  0.00000000000E+00  0.44188884167E+03  0.44188884168E+03  0.25500000000E-02 0.  1.
          2   -1    0    0  501    0  0.00000000000E+00 -0.00000000000E+00 -0.75562075851E+03  0.75562075852E+03  0.25500000000E-02 0. -1.
    8880023    1    1    2    0    0  0.52183862718E+02  0.22694498273E+03  0.92737742069E+02  0.70472524843E+03  0.65864270000E+03 0.  1.
    8880022    1    1    2    0    0 -0.52183862718E+02 -0.22694498273E+03 -0.40646965891E+03  0.49278435176E+03  0.15294330000E+03 0.  0.
<mgrwt>
<rscale>  0 0.55515697E+03</rscale>
<asrwt>0</asrwt>
<pdfrwt beam="1">  1        2 0.11624935E+00 0.69859673E+03</pdfrwt>
<pdfrwt beam="2">  1       -2 0.67982899E-01 0.69859673E+03</pdfrwt>
<totfact> 0.74794039E+01</totfact>
</mgrwt>
</event>
<event>
 4    2  0.3388003E-007  0.7953415E+03  0.7818608E-02  0.9720961E-01
          2   -1    0    0  501    0  0.00000000000E+00  0.00000000000E+00  0.97916473237E+03  0.97916473237E+03  0.25500000000E-02 0. -1.
         -2   -1    0    0    0  501 -0.00000000000E+00 -0.00000000000E+00 -0.61377891365E+03  0.61377891365E+03  0.25500000000E-02 0.  1.
    8880023    1    1    2    0    0 -0.44530919843E+03 -0.21390464856E+02 -0.23529911499E+03  0.82941769572E+03  0.65864270000E+03 0.  0.
    8880022    1    1    2    0    0  0.44530919843E+03  0.21390464856E+02  0.60068493371E+03  0.76352595031E+03  0.15294330000E+03 0.  0.
<mgrwt>
<rscale>  0 0.69782397E+03</rscale>
<asrwt>0</asrwt>
<pdfrwt beam="1">  1        2 0.15064073E+00 0.79534146E+03</pdfrwt>
<pdfrwt beam="2">  1       -2 0.94427526E-01 0.79534146E+03</pdfrwt>
<totfact> 0.24846227E+01</totfact>
</mgrwt>
</event>
<event>
 4    2  0.3388003E-007  0.1023707E+04  0.7818608E-02  0.9351179E-01
         -2   -1    0    0    0  501 -0.00000000000E+00  0.00000000000E+00  0.53562154524E+03  0.53562154524E+03  0.25500000000E-02 0.  1.
          2   -1    0    0  501    0  0.00000000000E+00 -0.00000000000E+00 -0.30833913599E+04  0.30833913599E+04  0.25500000000E-02 0. -1.
    8880023    1    1    2    0    0 -0.64192412163E+03  0.44955406494E+03 -0.26242824026E+04  0.28168836984E+04  0.65864270000E+03 0.  0.
    8880022    1    1    2    0    0  0.64192412163E+03 -0.44955406494E+03  0.76512587942E+02  0.80212920678E+03  0.15294330000E+03 0.  0.
<mgrwt>
<rscale>  0 0.96204764E+03</rscale>
<asrwt>0</asrwt>
<pdfrwt beam="1">  1        2 0.47436789E+00 0.10237068E+04</pdfrwt>
<pdfrwt beam="2">  1       -2 0.82403317E-01 0.10237068E+04</pdfrwt>
<totfact> 0.20323592E+00</totfact>
</mgrwt>
</event>
<event>
 4    2  0.3388003E-007  0.7426014E+03  0.7818608E-02  0.9852433E-01
          2   -1    0    0  501    0  0.00000000000E+00  0.00000000000E+00  0.13511192979E+04  0.13511192979E+04  0.25500000000E-02 0. -1.
         -2   -1    0    0    0  501 -0.00000000000E+00 -0.00000000000E+00 -0.41997729349E+03  0.41997729350E+03  0.25500000000E-02 0.  1.
    8880023    1    1    2    0    0 -0.17448228751E+03 -0.29530082599E+03 -0.25852692193E+02  0.74305128655E+03  0.65864270000E+03 0.  1.
    8880022    1    1    2    0    0  0.17448228751E+03  0.29530082599E+03  0.95699469660E+03  0.10280453048E+04  0.15294330000E+03 0.  0.
<mgrwt>
<rscale>  0 0.62623013E+03</rscale>
<asrwt>0</asrwt>
<pdfrwt beam="1">  1        2 0.20786450E+00 0.74260141E+03</pdfrwt>
<pdfrwt beam="2">  1       -2 0.64611892E-01 0.74260141E+03</pdfrwt>
<totfact> 0.34873026E+01</totfact>
</mgrwt>
</event>
<event>
 4    2  0.3388003E-007  0.1554077E+04  0.7818608E-02  0.8872365E-01
         -2   -1    0    0    0  501 -0.00000000000E+00  0.00000000000E+00  0.15989884684E+04  0.15989884684E+04  0.25500000000E-02 0.  1.
          2   -1    0    0  501    0  0.00000000000E+00 -0.00000000000E+00 -0.17858304274E+04  0.17858304274E+04  0.25500000000E-02 0. -1.
    8880023    1    1    2    0    0  0.13977391561E+04 -0.16634481616E+03 -0.90377663594E+03  0.17977674378E+04  0.65864270000E+03 0.  0.
    8880022    1    1    2    0    0 -0.13977391561E+04  0.16634481616E+03  0.71693467689E+03  0.15870514580E+04  0.15294330000E+03 0.  0.
<mgrwt>
<rscale>  0 0.15183140E+04</rscale>
<asrwt>0</asrwt>
<pdfrwt beam="1">  1        2 0.27474314E+00 0.15540771E+04</pdfrwt>
<pdfrwt beam="2">  1       -2 0.24599823E+00 0.15540771E+04</pdfrwt>
<totfact> 0.55774937E-01</totfact>
</mgrwt>
</event>
<event>
 4    2  0.3388003E-007  0.7292505E+03  0.7818608E-02  0.9892444E-01
         -2   -1    0    0    0  501 -0.00000000000E+00  0.00000000000E+00  0.29258829210E+03  0.29258829211E+03  0.25500000000E-02 0.  1.
          2   -1    0    0  501    0  0.00000000000E+00 -0.00000000000E+00 -0.37598529832E+04  0.37598529832E+04  0.25500000000E-02 0. -1.
    8880023    1    1    2    0    0 -0.29947557401E+03 -0.91161666417E+02 -0.18582028659E+03  0.75255262542E+03  0.65864270000E+03 0.  1.
    8880022    1    1    2    0    0  0.29947557401E+03  0.91161666417E+02 -0.32814444045E+04  0.32998886499E+04  0.15294330000E+03 0.  0.
<mgrwt>
<rscale>  0 0.60628859E+03</rscale>
<asrwt>0</asrwt>
<pdfrwt beam="1">  1        2 0.57843889E+00 0.72925049E+03</pdfrwt>
<pdfrwt beam="2">  1       -2 0.45013586E-01 0.72925049E+03</pdfrwt>
<totfact> 0.27179277E+00</totfact>
</mgrwt>
</event>
<event>
 4    2  0.3388003E-007  0.9544438E+03  0.7818608E-02  0.9443749E-01
          2   -1    0    0  501    0  0.00000000000E+00  0.00000000000E+00  0.26847903876E+04  0.26847903876E+04  0.25500000000E-02 0. -1.
         -2   -1    0    0    0  501 -0.00000000000E+00 -0.00000000000E+00 -0.65678620252E+03  0.65678620252E+03  0.25500000000E-02 0.  1.
    8880023    1    1    2    0    0 -0.53920546852E+03 -0.43175260145E+03 -0.22457229479E+03  0.98050791327E+03  0.65864270000E+03 0.  0.
    8880022    1    1    2    0    0  0.53920546852E+03  0.43175260145E+03  0.22525764799E+04  0.23610686769E+04  0.15294330000E+03 0.  0.
<mgrwt>
<rscale>  0 0.88561125E+03</rscale>
<asrwt>0</asrwt>
<pdfrwt beam="1">  1        2 0.41304467E+00 0.95444384E+03</pdfrwt>
<pdfrwt beam="2">  1       -2 0.10104403E+00 0.95444384E+03</pdfrwt>
<totfact> 0.22271019E+00</totfact>
</mgrwt>
</event>
<event>
 4    2  0.3388003E-007  0.7001512E+03  0.7818608E-02  0.9996575E-01
          2   -1    0    0  501    0  0.00000000000E+00  0.00000000000E+00  0.67713349323E+03  0.67713349324E+03  0.25500000000E-02 0. -1.
         -2   -1    0    0    0  501 -0.00000000000E+00 -0.00000000000E+00 -0.53937207460E+03  0.53937207460E+03  0.25500000000E-02 0.  1.
    8880023    1    1    2    0    0  0.17058268938E+03  0.16523632710E+03 -0.24413296024E+03  0.74149349711E+03  0.65864270000E+03 0.  1.
    8880022    1    1    2    0    0 -0.17058268938E+03 -0.16523632710E+03  0.38189437888E+03  0.47501207074E+03  0.15294330000E+03 0.  0.
<mgrwt>
<rscale>  0 0.55800691E+03</rscale>
<asrwt>0</asrwt>
<pdfrwt beam="1">  1        2 0.10417438E+00 0.70015120E+03</pdfrwt>
<pdfrwt beam="2">  1       -2 0.82980319E-01 0.70015120E+03</pdfrwt>
<totfact> 0.55268812E+01</totfact>
</mgrwt>
</event>
<event>
 4    2  0.3388003E-007  0.7549455E+03  0.7818608E-02  0.9818373E-01
         -2   -1    0    0    0  501 -0.00000000000E+00  0.00000000000E+00  0.29331548779E+03  0.29331548781E+03  0.25500000000E-02 0.  1.
          2   -1    0    0  501    0  0.00000000000E+00 -0.00000000000E+00 -0.13889068970E+04  0.13889068970E+04  0.25500000000E-02 0. -1.
    8880023    1    1    2    0    0 -0.28565534508E+02  0.36785401075E+03 -0.34087135612E+03  0.82833329685E+03  0.65864270000E+03 0.  1.
    8880022    1    1    2    0    0  0.28565534508E+02 -0.36785401075E+03 -0.75472005312E+03  0.85388908799E+03  0.15294330000E+03 0.  0.
<mgrwt>
<rscale>  0 0.64385792E+03</rscale>
<asrwt>0</asrwt>
<pdfrwt beam="1">  1        2 0.21367798E+00 0.75494554E+03</pdfrwt>
<pdfrwt beam="2">  1       -2 0.45125461E-01 0.75494554E+03</pdfrwt>
<totfact> 0.69641392E+01</totfact>
</mgrwt>
</event>
<event>
 4    2  0.3388003E-007  0.8742845E+03  0.7818608E-02  0.9568642E-01
         -2   -1    0    0    0  501 -0.00000000000E+00  0.00000000000E+00  0.76992597377E+03  0.76992597377E+03  0.25500000000E-02 0.  1.
          2   -1    0    0  501    0  0.00000000000E+00 -0.00000000000E+00 -0.71527482615E+03  0.71527482616E+03  0.25500000000E-02 0. -1.
    8880023    1    1    2    0    0 -0.49344001594E+03  0.29509356530E+03  0.13573946977E+03  0.88475910367E+03  0.65864270000E+03 0.  1.
    8880022    1    1    2    0    0  0.49344001594E+03 -0.29509356530E+03 -0.81088322156E+02  0.60044169626E+03  0.15294330000E+03 0.  1.
<mgrwt>
<rscale>  0 0.79406873E+03</rscale>
<asrwt>0</asrwt>
<pdfrwt beam="1">  1        2 0.11004228E+00 0.87428455E+03</pdfrwt>
<pdfrwt beam="2">  1       -2 0.11845015E+00 0.87428455E+03</pdfrwt>
<totfact> 0.21930331E+01</totfact>
</mgrwt>
</event>
<event>
 4    2  0.3388003E-007  0.9507644E+03  0.7818608E-02  0.9449015E-01
         -2   -1    0    0    0  501 -0.00000000000E+00  0.00000000000E+00  0.93527783318E+03  0.93527783318E+03  0.25500000000E-02 0.  1.
          2   -1    0    0  501    0  0.00000000000E+00 -0.00000000000E+00 -0.17048111353E+04  0.17048111353E+04  0.25500000000E-02 0. -1.
    8880023    1    1    2    0    0 -0.99117046936E+02  0.67846780737E+03 -0.14025580323E+04  0.16944385486E+04  0.65864270000E+03 0.  0.
    8880022    1    1    2    0    0  0.99117046936E+02 -0.67846780737E+03  0.63302473019E+03  0.94565041991E+03  0.15294330000E+03 0.  0.
<mgrwt>
<rscale>  0 0.88149401E+03</rscale>
<asrwt>0</asrwt>
<pdfrwt beam="1">  1        2 0.26227864E+00 0.95076441E+03</pdfrwt>
<pdfrwt beam="2">  1       -2 0.14388890E+00 0.95076441E+03</pdfrwt>
<totfact> 0.32612617E+00</totfact>
</mgrwt>
</event>
<event>
 4    2  0.3388003E-007  0.6802177E+03  0.7818608E-02  0.1009201E+00
          2   -1    0    0  501    0  0.00000000000E+00  0.00000000000E+00  0.70202410481E+03  0.70202410482E+03  0.25500000000E-02 0. -1.
         -2   -1    0    0    0  501 -0.00000000000E+00 -0.00000000000E+00 -0.66866111104E+03  0.66866111105E+03  0.25500000000E-02 0.  1.
    8880023    1    1    2    0    0 -0.75092986193E+02 -0.15246948781E+03 -0.46391968856E+03  0.82335750740E+03  0.65864270000E+03 0.  1.
    8880022    1    1    2    0    0  0.75092986193E+02  0.15246948781E+03  0.49728268233E+03  0.54732770846E+03  0.15294330000E+03 0.  0.
<mgrwt>
<rscale>  0 0.51793511E+03</rscale>
<asrwt>0</asrwt>
<pdfrwt beam="1">  1        2 0.10800371E+00 0.68021769E+03</pdfrwt>
<pdfrwt beam="2">  1       -2 0.10287094E+00 0.68021769E+03</pdfrwt>
<totfact> 0.32137440E+01</totfact>
</mgrwt>
</event>
<event>
 4    2  0.3388003E-007  0.1487729E+04  0.7818608E-02  0.8918350E-01
         -2   -1    0    0    0  501 -0.00000000000E+00  0.00000000000E+00  0.11291145962E+04  0.11291145962E+04  0.25500000000E-02 0.  1.
          2   -1    0    0  501    0  0.00000000000E+00 -0.00000000000E+00 -0.23552329206E+04  0.23552329206E+04  0.25500000000E-02 0. -1.
    8880023    1    1    2    0    0 -0.11416534276E+04 -0.69003954519E+03  0.22801368672E+03  0.15051005183E+04  0.65864270000E+03 0.  0.
    8880022    1    1    2    0    0  0.11416534276E+04  0.69003954519E+03 -0.14541320111E+04  0.19792469986E+04  0.15294330000E+03 0.  0.
<mgrwt>
<rscale>  0 0.14500730E+04</rscale>
<asrwt>0</asrwt>
<pdfrwt beam="1">  1        2 0.36234353E+00 0.14877289E+04</pdfrwt>
<pdfrwt beam="2">  1       -2 0.17370994E+00 0.14877289E+04</pdfrwt>
<totfact> 0.79765106E-01</totfact>
</mgrwt>
</event>
<event>
 4    2  0.3388003E-007  0.7169649E+03  0.7818608E-02  0.9932993E-01
          2   -1    0    0  501    0  0.00000000000E+00  0.00000000000E+00  0.12646866368E+04  0.12646866368E+04  0.25500000000E-02 0. -1.
         -2   -1    0    0    0  501 -0.00000000000E+00 -0.00000000000E+00 -0.59031988686E+03  0.59031988686E+03  0.25500000000E-02 0.  1.
    8880023    1    1    2    0    0 -0.16953711833E+03 -0.22690442537E+03 -0.33803755632E+03  0.79265884748E+03  0.65864270000E+03 0.  1.
    8880022    1    1    2    0    0  0.16953711833E+03  0.22690442537E+03  0.10124043063E+04  0.10623476762E+04  0.15294330000E+03 0.  0.
<mgrwt>
<rscale>  0 0.58688623E+03</rscale>
<asrwt>0</asrwt>
<pdfrwt beam="1">  1        2 0.19456717E+00 0.71696489E+03</pdfrwt>
<pdfrwt beam="2">  1       -2 0.90818445E-01 0.71696489E+03</pdfrwt>
<totfact> 0.18377089E+01</totfact>
</mgrwt>
</event>
<event>
 4    2  0.3388003E-007  0.1246471E+04  0.7818608E-02  0.9113221E-01
          2   -1    0    0  501    0  0.00000000000E+00  0.00000000000E+00  0.24863728366E+04  0.24863728366E+04  0.25500000000E-02 0. -1.
         -2   -1    0    0    0  501 -0.00000000000E+00 -0.00000000000E+00 -0.89462713116E+03  0.89462713116E+03  0.25500000000E-02 0.  1.
    8880023    1    1    2    0    0 -0.59001039294E+03  0.87850364736E+03 -0.23108625185E+03  0.12677113174E+04  0.65864270000E+03 0.  0.
    8880022    1    1    2    0    0  0.59001039294E+03 -0.87850364736E+03  0.18228319573E+04  0.21132886504E+04  0.15294330000E+03 0.  0.
<mgrwt>
<rscale>  0 0.11995835E+04</rscale>
<asrwt>0</asrwt>
<pdfrwt beam="1">  1        2 0.38251890E+00 0.12464715E+04</pdfrwt>
<pdfrwt beam="2">  1       -2 0.13763494E+00 0.12464715E+04</pdfrwt>
<totfact> 0.12949498E+00</totfact>
</mgrwt>
</event>
<event>
 4    2  0.3388003E-007  0.6865536E+03  0.7818608E-02  0.1005836E+00
         -2   -1    0    0    0  501 -0.00000000000E+00  0.00000000000E+00  0.91825900266E+03  0.91825900267E+03  0.25500000000E-02 0.  1.
          2   -1    0    0  501    0  0.00000000000E+00 -0.00000000000E+00 -0.30321513472E+03  0.30321513474E+03  0.25500000000E-02 0. -1.
    8880023    1    1    2    0    0 -0.10045585221E+03 -0.16569316402E+03  0.67990177874E+03  0.96624129380E+03  0.65864270000E+03 0.  1.
    8880022    1    1    2    0    0  0.10045585221E+03  0.16569316402E+03 -0.64857910803E+02  0.25523284360E+03  0.15294330000E+03 0.  0.
<mgrwt>
<rscale>  0 0.53163821E+03</rscale>
<asrwt>0</asrwt>
<pdfrwt beam="1">  1        2 0.46648482E-01 0.68655357E+03</pdfrwt>
<pdfrwt beam="2">  1       -2 0.14127062E+00 0.68655357E+03</pdfrwt>
<totfact> 0.38653248E+01</totfact>
</mgrwt>
</event>
<event>
 4    2  0.3388003E-007  0.6678746E+03  0.7818608E-02  0.1017235E+00
         -2   -1    0    0    0  501 -0.00000000000E+00  0.00000000000E+00  0.66762696139E+03  0.66762696139E+03  0.25500000000E-02 0.  1.
          2   -1    0    0  501    0  0.00000000000E+00 -0.00000000000E+00 -0.30959338295E+04  0.30959338295E+04  0.25500000000E-02 0. -1.
    8880023    1    1    2    0    0  0.11065851661E+03 -0.97108972125E+00  0.49678895117E+03  0.83237955199E+03  0.65864270000E+03 0.  1.
    8880022    1    1    2    0    0 -0.11065851661E+03  0.97108972125E+00 -0.29250958193E+04  0.29311812389E+04  0.15294330000E+03 0.  0.
<mgrwt>
<rscale>  0 0.48697897E+03</rscale>
<asrwt>0</asrwt>
<pdfrwt beam="1">  1        2 0.47629751E+00 0.66787458E+03</pdfrwt>
<pdfrwt beam="2">  1       -2 0.10271184E+00 0.66787458E+03</pdfrwt>
<totfact> 0.12819405E+00</totfact>
</mgrwt>
</event>
<event>
 4    2  0.3388003E-007  0.7815558E+03  0.7818608E-02  0.9752195E-01
         -2   -1    0    0    0  501 -0.00000000000E+00  0.00000000000E+00  0.25806594706E+03  0.25806594707E+03  0.25500000000E-02 0.  1.
          2   -1    0    0  501    0  0.00000000000E+00 -0.00000000000E+00 -0.31923441626E+04  0.31923441626E+04  0.25500000000E-02 0. -1.
    8880023    1    1    2    0    0  0.17716667680E+03 -0.38161657160E+03 -0.40203195754E+03  0.87889654695E+03  0.65864270000E+03 0.  1.
    8880022    1    1    2    0    0 -0.17716667680E+03  0.38161657160E+03 -0.25322462580E+04  0.25715135628E+04  0.15294330000E+03 0.  0.
<mgrwt>
<rscale>  0 0.67992366E+03</rscale>
<asrwt>0</asrwt>
<pdfrwt beam="1">  1        2 0.49112984E+00 0.78155579E+03</pdfrwt>
<pdfrwt beam="2">  1       -2 0.39702456E-01 0.78155579E+03</pdfrwt>
<totfact> 0.83767716E+00</totfact>
</mgrwt>
</event>
<event>
 4    2  0.3388003E-007  0.7138583E+03  0.7818608E-02  0.9943943E-01
          2   -1    0    0  501    0  0.00000000000E+00  0.00000000000E+00  0.34913096306E+04  0.34913096306E+04  0.25500000000E-02 0. -1.
         -2   -1    0    0    0  501 -0.00000000000E+00 -0.00000000000E+00 -0.15500733437E+03  0.15500733440E+03  0.25500000000E-02 0.  1.
    8880023    1    1    2    0    0 -0.14291263365E+03  0.23528591878E+03  0.72988560010E+03  0.10209440141E+04  0.65864270000E+03 0.  1.
    8880022    1    1    2    0    0  0.14291263365E+03 -0.23528591878E+03  0.26064166961E+04  0.26253729509E+04  0.15294330000E+03 0.  0.
<mgrwt>
<rscale>  0 0.58178078E+03</rscale>
<asrwt>0</asrwt>
<pdfrwt beam="1">  1        2 0.53712456E+00 0.71385831E+03</pdfrwt>
<pdfrwt beam="2">  1       -2 0.23847282E-01 0.71385831E+03</pdfrwt>
<totfact> 0.13965522E+01</totfact>
</mgrwt>
</event>
<event>
 4    2  0.3388003E-007  0.1131555E+04  0.7818608E-02  0.9226711E-01
         -2   -1    0    0    0  501 -0.00000000000E+00  0.00000000000E+00  0.14618520499E+04  0.14618520499E+04  0.25500000000E-02 0.  1.
          2   -1    0    0  501    0  0.00000000000E+00 -0.00000000000E+00 -0.10308375982E+04  0.10308375982E+04  0.25500000000E-02 0. -1.
    8880023    1    1    2    0    0 -0.91725484818E+03  0.72453103141E+02 -0.44230150038E+03  0.12149266365E+04  0.65864270000E+03 0.  0.
    8880022    1    1    2    0    0  0.91725484818E+03 -0.72453103141E+02  0.87331595208E+03  0.12777630116E+04  0.15294330000E+03 0.  0.
<mgrwt>
<rscale>  0 0.10781928E+04</rscale>
<asrwt>0</asrwt>
<pdfrwt beam="1">  1        2 0.15859040E+00 0.11315547E+04</pdfrwt>
<pdfrwt beam="2">  1       -2 0.22490031E+00 0.11315547E+04</pdfrwt>
<totfact> 0.21700904E+00</totfact>
</mgrwt>
</event>
<event>
 4    2  0.3388003E-007  0.6760053E+03  0.7818608E-02  0.1011680E+00
         -2   -1    0    0    0  501 -0.00000000000E+00  0.00000000000E+00  0.55418780809E+02  0.55418780868E+02  0.25500000000E-02 0.  1.
          2   -1    0    0  501    0  0.00000000000E+00 -0.00000000000E+00 -0.46408697602E+04  0.46408697602E+04  0.25500000000E-02 0. -1.
    8880023    1    1    2    0    0  0.11412424201E+03  0.10074033461E+03 -0.22105519606E+04  0.23116061806E+04  0.65864270000E+03 0.  1.
    8880022    1    1    2    0    0 -0.11412424201E+03 -0.10074033461E+03 -0.23748990188E+04  0.23846823605E+04  0.15294330000E+03 0.  0.
<mgrwt>
<rscale>  0 0.50812384E+03</rscale>
<asrwt>0</asrwt>
<pdfrwt beam="1">  1        2 0.71397966E+00 0.67600530E+03</pdfrwt>
<pdfrwt beam="2">  1       -2 0.85259699E-02 0.67600530E+03</pdfrwt>
<totfact> 0.91477111E+00</totfact>
</mgrwt>
</event>
<event>
 4    2  0.3388003E-007  0.7658056E+03  0.7818608E-02  0.9790303E-01
          2   -1    0    0  501    0  0.00000000000E+00  0.00000000000E+00  0.12020395079E+04  0.12020395079E+04  0.25500000000E-02 0. -1.
         -2   -1    0    0    0  501 -0.00000000000E+00 -0.00000000000E+00 -0.29408612347E+03  0.29408612348E+03  0.25500000000E-02 0.  1.
    8880023    1    1    2    0    0  0.26445204236E+03 -0.28759900640E+03  0.52898302749E+03  0.93074234933E+03  0.65864270000E+03 0.  0.
    8880022    1    1    2    0    0 -0.26445204236E+03  0.28759900640E+03  0.37897035698E+03  0.56538328210E+03  0.15294330000E+03 0.  1.
<mgrwt>
<rscale>  0 0.65885562E+03</rscale>
<asrwt>0</asrwt>
<pdfrwt beam="1">  1        2 0.18492915E+00 0.76580564E+03</pdfrwt>
<pdfrwt beam="2">  1       -2 0.45244020E-01 0.76580564E+03</pdfrwt>
<totfact> 0.88759881E+01</totfact>
</mgrwt>
</event>
<event>
 4    2  0.3388003E-007  0.8333624E+03  0.7818608E-02  0.9642825E-01
          2   -1    0    0  501    0  0.00000000000E+00  0.00000000000E+00  0.68437173406E+03  0.68437173406E+03  0.25500000000E-02 0. -1.
         -2   -1    0    0    0  501 -0.00000000000E+00 -0.00000000000E+00 -0.88477817485E+03  0.88477817486E+03  0.25500000000E-02 0.  1.
    8880023    1    1    2    0    0 -0.54399259120E+02 -0.50766472314E+03 -0.48574128269E+03  0.96459190878E+03  0.65864270000E+03 0.  0.
    8880022    1    1    2    0    0  0.54399259120E+02  0.50766472314E+03  0.28533484190E+03  0.60455800014E+03  0.15294330000E+03 0.  0.
<mgrwt>
<rscale>  0 0.74525424E+03</rscale>
<asrwt>0</asrwt>
<pdfrwt beam="1">  1        2 0.10528796E+00 0.83336244E+03</pdfrwt>
<pdfrwt beam="2">  1       -2 0.13611972E+00 0.83336244E+03</pdfrwt>
<totfact> 0.16389753E+01</totfact>
</mgrwt>
</event>
<event>
 4    2  0.3388003E-007  0.9152639E+03  0.7818608E-02  0.9501959E-01
          2   -1    0    0  501    0  0.00000000000E+00  0.00000000000E+00  0.17116905460E+04  0.17116905460E+04  0.25500000000E-02 0. -1.
         -2   -1    0    0    0  501 -0.00000000000E+00 -0.00000000000E+00 -0.56497879122E+03  0.56497879122E+03  0.25500000000E-02 0.  1.
    8880023    1    1    2    0    0  0.61787395242E+03  0.14876039194E+03 -0.46170345270E+02  0.91642772892E+03  0.65864270000E+03 0.  0.
    8880022    1    1    2    0    0 -0.61787395242E+03 -0.14876039194E+03  0.11928821000E+04  0.13602416083E+04  0.15294330000E+03 0.  0.
<mgrwt>
<rscale>  0 0.84139523E+03</rscale>
<asrwt>0</asrwt>
<pdfrwt beam="1">  1        2 0.26333701E+00 0.91526394E+03</pdfrwt>
<pdfrwt beam="2">  1       -2 0.86919814E-01 0.91526394E+03</pdfrwt>
<totfact> 0.11144602E+01</totfact>
</mgrwt>
</event>
<event>
 4    2  0.3388003E-007  0.6766486E+03  0.7818608E-02  0.1011287E+00
         -2   -1    0    0    0  501 -0.00000000000E+00  0.00000000000E+00  0.81544629563E+03  0.81544629563E+03  0.25500000000E-02 0.  1.
          2   -1    0    0  501    0  0.00000000000E+00 -0.00000000000E+00 -0.58877939860E+03  0.58877939861E+03  0.25500000000E-02 0. -1.
    8880023    1    1    2    0    0  0.14929235171E+03  0.41891411508E+02  0.64359063382E+03  0.93384270990E+03  0.65864270000E+03 0.  1.
    8880022    1    1    2    0    0 -0.14929235171E+03 -0.41891411508E+02 -0.41692373679E+03  0.47038298434E+03  0.15294330000E+03 0.  0.
<mgrwt>
<rscale>  0 0.50966459E+03</rscale>
<asrwt>0</asrwt>
<pdfrwt beam="1">  1        2 0.90581446E-01 0.67664858E+03</pdfrwt>
<pdfrwt beam="2">  1       -2 0.12545328E+00 0.67664858E+03</pdfrwt>
<totfact> 0.24584885E+01</totfact>
</mgrwt>
</event>
<event>
 4    2  0.3388003E-007  0.1193248E+04  0.7818608E-02  0.9163714E-01
          2   -1    0    0  501    0  0.00000000000E+00  0.00000000000E+00  0.42670256247E+04  0.42670256247E+04  0.25500000000E-02 0. -1.
         -2   -1    0    0    0  501 -0.00000000000E+00 -0.00000000000E+00 -0.59338463519E+03  0.59338463519E+03  0.25500000000E-02 0.  1.
    8880023    1    1    2    0    0  0.13935452085E+03  0.98519609165E+03  0.15822330924E+03  0.12036925867E+04  0.65864270000E+03 0.  1.
    8880022    1    1    2    0    0 -0.13935452085E+03 -0.98519609165E+03  0.35154176802E+04  0.36567176731E+04  0.15294330000E+03 0.  0.
<mgrwt>
<rscale>  0 0.11435941E+04</rscale>
<asrwt>0</asrwt>
<pdfrwt beam="1">  1        2 0.65646547E+00 0.11932482E+04</pdfrwt>
<pdfrwt beam="2">  1       -2 0.91289946E-01 0.11932482E+04</pdfrwt>
<totfact> 0.21266240E-01</totfact>
</mgrwt>
</event>
<event>
 4    2  0.3388003E-007  0.8100400E+03  0.7818608E-02  0.9689494E-01
         -2   -1    0    0    0  501 -0.00000000000E+00  0.00000000000E+00  0.11803957434E+04  0.11803957434E+04  0.25500000000E-02 0.  1.
          2   -1    0    0  501    0  0.00000000000E+00 -0.00000000000E+00 -0.81509176280E+03  0.81509176280E+03  0.25500000000E-02 0. -1.
    8880023    1    1    2    0    0 -0.36680832276E+03 -0.29632121143E+03 -0.53286721103E+03  0.96959387211E+03  0.65864270000E+03 0.  0.
    8880022    1    1    2    0    0  0.36680832276E+03  0.29632121143E+03  0.89817119163E+03  0.10258936341E+04  0.15294330000E+03 0.  0.
<mgrwt>
<rscale>  0 0.71645797E+03</rscale>
<asrwt>0</asrwt>
<pdfrwt beam="1">  1        2 0.12539873E+00 0.81004001E+03</pdfrwt>
<pdfrwt beam="2">  1       -2 0.18159935E+00 0.81004001E+03</pdfrwt>
<totfact> 0.60102622E+00</totfact>
</mgrwt>
</event>
<event>
 4    2  0.3388003E-007  0.7946503E+03  0.7818608E-02  0.9722485E-01
         -2   -1    0    0    0  501 -0.00000000000E+00  0.00000000000E+00  0.35812363606E+03  0.35812363607E+03  0.25500000000E-02 0.  1.
          2   -1    0    0  501    0  0.00000000000E+00 -0.00000000000E+00 -0.18785533122E+04  0.18785533122E+04  0.25500000000E-02 0. -1.
    8880023    1    1    2    0    0 -0.42665835667E+03  0.12498617390E+03 -0.17806381672E+03  0.81435608063E+03  0.65864270000E+03 0.  1.
    8880022    1    1    2    0    0  0.42665835667E+03 -0.12498617390E+03 -0.13423658595E+04  0.14223208677E+04  0.15294330000E+03 0.  0.
<mgrwt>
<rscale>  0 0.69693695E+03</rscale>
<asrwt>0</asrwt>
<pdfrwt beam="1">  1        2 0.28900820E+00 0.79465030E+03</pdfrwt>
<pdfrwt beam="2">  1       -2 0.55095945E-01 0.79465030E+03</pdfrwt>
<totfact> 0.24780395E+01</totfact>
</mgrwt>
</event>
<event>
 4    2  0.3388003E-007  0.7731765E+03  0.7818608E-02  0.9772117E-01
         -2   -1    0    0    0  501 -0.00000000000E+00  0.00000000000E+00  0.36297050019E+03  0.36297050020E+03  0.25500000000E-02 0.  1.
          2   -1    0    0  501    0  0.00000000000E+00 -0.00000000000E+00 -0.18619806499E+04  0.18619806499E+04  0.25500000000E-02 0. -1.
    8880023    1    1    2    0    0  0.46120334774E+02 -0.40232398080E+03 -0.12355407449E+03  0.78298626194E+03  0.65864270000E+03 0.  1.
    8880022    1    1    2    0    0 -0.46120334774E+02  0.40232398080E+03 -0.13754560752E+04  0.14419648882E+04  0.15294330000E+03 0.  0.
<mgrwt>
<rscale>  0 0.66880628E+03</rscale>
<asrwt>0</asrwt>
<pdfrwt beam="1">  1        2 0.28645856E+00 0.77317649E+03</pdfrwt>
<pdfrwt beam="2">  1       -2 0.55841617E-01 0.77317649E+03</pdfrwt>
<totfact> 0.24669772E+01</totfact>
</mgrwt>
</event>
<event>
 4    2  0.3388003E-007  0.6863747E+03  0.7818608E-02  0.1005926E+00
          2   -1    0    0  501    0  0.00000000000E+00  0.00000000000E+00  0.20304085491E+04  0.20304085491E+04  0.25500000000E-02 0. -1.
         -2   -1    0    0    0  501 -0.00000000000E+00 -0.00000000000E+00 -0.20976461510E+03  0.20976461511E+03  0.25500000000E-02 0.  1.
    8880023    1    1    2    0    0 -0.19275771012E+03  0.12018754450E+02  0.39196476981E+03  0.79040911704E+03  0.65864270000E+03 0.  1.
    8880022    1    1    2    0    0  0.19275771012E+03 -0.12018754450E+02  0.14286791642E+04  0.14497640472E+04  0.15294330000E+03 0.  0.
<mgrwt>
<rscale>  0 0.53126603E+03</rscale>
<asrwt>0</asrwt>
<pdfrwt beam="1">  1        2 0.31237054E+00 0.68637467E+03</pdfrwt>
<pdfrwt beam="2">  1       -2 0.32271480E-01 0.68637467E+03</pdfrwt>
<totfact> 0.59597408E+01</totfact>
</mgrwt>
</event>
<event>
 4    2  0.3388003E-007  0.6831550E+03  0.7818608E-02  0.1007592E+00
         -2   -1    0    0    0  501 -0.00000000000E+00  0.00000000000E+00  0.47767034115E+03  0.47767034115E+03  0.25500000000E-02 0.  1.
          2   -1    0    0  501    0  0.00000000000E+00 -0.00000000000E+00 -0.84626452375E+03  0.84626452375E+03  0.25500000000E-02 0. -1.
    8880023    1    1    2    0    0 -0.16136099211E+03 -0.82784171346E+02  0.19667338943E+03  0.71090169304E+03  0.65864270000E+03 0.  0.
    8880022    1    1    2    0    0  0.16136099211E+03  0.82784171346E+02 -0.56526757203E+03  0.61303317187E+03  0.15294330000E+03 0.  0.
<mgrwt>
<rscale>  0 0.52442801E+03</rscale>
<asrwt>0</asrwt>
<pdfrwt beam="1">  1        2 0.13019454E+00 0.68315503E+03</pdfrwt>
<pdfrwt beam="2">  1       -2 0.73487745E-01 0.68315503E+03</pdfrwt>
<totfact> 0.54383926E+01</totfact>
</mgrwt>
</event>
<event>
 4    2  0.3388003E-007  0.9295552E+03  0.7818608E-02  0.9480161E-01
          2   -1    0    0  501    0  0.00000000000E+00  0.00000000000E+00  0.30672823395E+04  0.30672823395E+04  0.25500000000E-02 0. -1.
         -2   -1    0    0    0  501 -0.00000000000E+00 -0.00000000000E+00 -0.32734454796E+03  0.32734454797E+03  0.25500000000E-02 0.  1.
    8880023    1    1    2    0    0  0.11490085805E+03 -0.64580212106E+03  0.49975464359E+03  0.10553802617E+04  0.65864270000E+03 0.  1.
    8880022    1    1    2    0    0 -0.11490085805E+03  0.64580212106E+03  0.22401831479E+04  0.23392466257E+04  0.15294330000E+03 0.  0.
<mgrwt>
<rscale>  0 0.85762414E+03</rscale>
<asrwt>0</asrwt>
<pdfrwt beam="1">  1        2 0.47188959E+00 0.92955516E+03</pdfrwt>
<pdfrwt beam="2">  1       -2 0.50360700E-01 0.92955516E+03</pdfrwt>
<totfact> 0.60965550E+00</totfact>
</mgrwt>
</event>
<event>
 4    2  0.3388003E-007  0.8677163E+03  0.7818608E-02  0.9579982E-01
          2   -1    0    0  501    0  0.00000000000E+00  0.00000000000E+00  0.11696427456E+04  0.11696427456E+04  0.25500000000E-02 0. -1.
         -2   -1    0    0    0  501 -0.00000000000E+00 -0.00000000000E+00 -0.18517677686E+04  0.18517677686E+04  0.25500000000E-02 0.  1.
    8880023    1    1    2    0    0 -0.10206543437E+03  0.55561142492E+03 -0.16649708029E+04  0.18775141515E+04  0.65864270000E+03 0.  1.
    8880022    1    1    2    0    0  0.10206543437E+03 -0.55561142492E+03  0.98284577992E+03  0.11438963627E+04  0.15294330000E+03 0.  0.
<mgrwt>
<rscale>  0 0.78635376E+03</rscale>
<asrwt>0</asrwt>
<pdfrwt beam="1">  1        2 0.17994504E+00 0.86771632E+03</pdfrwt>
<pdfrwt beam="2">  1       -2 0.28488735E+00 0.86771632E+03</pdfrwt>
<totfact> 0.79424364E-01</totfact>
</mgrwt>
</event>
<event>
 4    2  0.3388003E-007  0.7017341E+03  0.7818608E-02  0.9990082E-01
         -2   -1    0    0    0  501 -0.00000000000E+00  0.00000000000E+00  0.60662299516E+03  0.60662299516E+03  0.25500000000E-02 0.  1.
          2   -1    0    0  501    0  0.00000000000E+00 -0.00000000000E+00 -0.77629321493E+03  0.77629321493E+03  0.25500000000E-02 0. -1.
    8880023    1    1    2    0    0  0.11480291877E+03 -0.21316843174E+03  0.35406545938E+03  0.78599812101E+03  0.65864270000E+03 0.  1.
    8880022    1    1    2    0    0 -0.11480291877E+03  0.21316843174E+03 -0.52373567915E+03  0.59691808908E+03  0.15294330000E+03 0.  0.
<mgrwt>
<rscale>  0 0.56087256E+03</rscale>
<asrwt>0</asrwt>
<pdfrwt beam="1">  1        2 0.11942972E+00 0.70173406E+03</pdfrwt>
<pdfrwt beam="2">  1       -2 0.93326615E-01 0.70173406E+03</pdfrwt>
<totfact> 0.35455939E+01</totfact>
</mgrwt>
</event>
<event>
 4    2  0.3388003E-007  0.8724519E+03  0.7818608E-02  0.9571786E-01
          2   -1    0    0  501    0  0.00000000000E+00  0.00000000000E+00  0.96496639794E+03  0.96496639795E+03  0.25500000000E-02 0. -1.
         -2   -1    0    0    0  501 -0.00000000000E+00 -0.00000000000E+00 -0.11462259225E+04  0.11462259225E+04  0.25500000000E-02 0.  1.
    8880023    1    1    2    0    0  0.33223978012E+02 -0.57119022986E+03  0.65181607487E+03  0.10890530350E+04  0.65864270000E+03 0.  0.
    8880022    1    1    2    0    0 -0.33223978012E+02  0.57119022986E+03 -0.83307559943E+03  0.10221392854E+04  0.15294330000E+03 0.  0.
<mgrwt>
<rscale>  0 0.79192018E+03</rscale>
<asrwt>0</asrwt>
<pdfrwt beam="1">  1        2 0.14845637E+00 0.87245190E+03</pdfrwt>
<pdfrwt beam="2">  1       -2 0.17634245E+00 0.87245190E+03</pdfrwt>
<totfact> 0.51286534E+00</totfact>
</mgrwt>
</event>
<event>
 4    2  0.3388003E-007  0.8348557E+03  0.7818608E-02  0.9639958E-01
         -2   -1    0    0    0  501 -0.00000000000E+00  0.00000000000E+00  0.52140425101E+03  0.52140425102E+03  0.25500000000E-02 0.  1.
          2   -1    0    0  501    0  0.00000000000E+00 -0.00000000000E+00 -0.18544858454E+04  0.18544858454E+04  0.25500000000E-02 0. -1.
    8880023    1    1    2    0    0  0.24491998502E+03  0.45076386347E+03  0.10497397269E+03  0.84142949846E+03  0.65864270000E+03 0.  1.
    8880022    1    1    2    0    0 -0.24491998502E+03 -0.45076386347E+03 -0.14380555671E+04  0.15344605980E+04  0.15294330000E+03 0.  0.
<mgrwt>
<rscale>  0 0.74707045E+03</rscale>
<asrwt>0</asrwt>
<pdfrwt beam="1">  1        2 0.28530551E+00 0.83485572E+03</pdfrwt>
<pdfrwt beam="2">  1       -2 0.80216039E-01 0.83485572E+03</pdfrwt>
<totfact> 0.11278278E+01</totfact>
</mgrwt>
</event>
<event>
 4    2  0.3388003E-007  0.7681302E+03  0.7818608E-02  0.9784496E-01
         -2   -1    0    0    0  501 -0.00000000000E+00  0.00000000000E+00  0.14616095351E+04  0.14616095351E+04  0.25500000000E-02 0.  1.
          2   -1    0    0  501    0  0.00000000000E+00 -0.00000000000E+00 -0.80676574401E+03  0.80676574401E+03  0.25500000000E-02 0. -1.
    8880023    1    1    2    0    0 -0.14156212519E+03  0.36901753325E+03  0.12920323567E+04  0.15031206180E+04  0.65864270000E+03 0.  0.
    8880022    1    1    2    0    0  0.14156212519E+03 -0.36901753325E+03 -0.63718856565E+03  0.76525466110E+03  0.15294330000E+03 0.  0.
<mgrwt>
<rscale>  0 0.66201230E+03</rscale>
<asrwt>0</asrwt>
<pdfrwt beam="1">  1        2 0.12411781E+00 0.76813019E+03</pdfrwt>
<pdfrwt beam="2">  1       -2 0.22486301E+00 0.76813019E+03</pdfrwt>
<totfact> 0.32110059E+00</totfact>
</mgrwt>
</event>
<event>
 4    2  0.3388003E-007  0.7691610E+03  0.7818608E-02  0.9781943E-01
          2   -1    0    0  501    0  0.00000000000E+00  0.00000000000E+00  0.12104064717E+04  0.12104064717E+04  0.25500000000E-02 0. -1.
         -2   -1    0    0    0  501 -0.00000000000E+00 -0.00000000000E+00 -0.57788431048E+03  0.57788431048E+03  0.25500000000E-02 0.  1.
    8880023    1    1    2    0    0 -0.34604403487E+03  0.19506926902E+03 -0.24975769545E+03  0.80869500214E+03  0.65864270000E+03 0.  1.
    8880022    1    1    2    0    0  0.34604403487E+03 -0.19506926902E+03  0.88227985670E+03  0.97959578008E+03  0.15294330000E+03 0. -1.
<mgrwt>
<rscale>  0 0.66340659E+03</rscale>
<asrwt>0</asrwt>
<pdfrwt beam="1">  1        2 0.18621638E+00 0.76916104E+03</pdfrwt>
<pdfrwt beam="2">  1       -2 0.88905279E-01 0.76916104E+03</pdfrwt>
<totfact> 0.20643906E+01</totfact>
</mgrwt>
</event>
<event>
 4    2  0.3388003E-007  0.7283818E+03  0.7818608E-02  0.9895182E-01
         -2   -1    0    0    0  501 -0.00000000000E+00  0.00000000000E+00  0.21855170740E+03  0.21855170742E+03  0.25500000000E-02 0.  1.
          2   -1    0    0  501    0  0.00000000000E+00 -0.00000000000E+00 -0.22613635803E+04  0.22613635803E+04  0.25500000000E-02 0. -1.
    8880023    1    1    2    0    0  0.15842504971E+02  0.31061045357E+03 -0.46424747147E+03  0.86375098255E+03  0.65864270000E+03 0.  1.
    8880022    1    1    2    0    0 -0.15842504971E+02 -0.31061045357E+03 -0.15785644014E+04  0.16161643051E+04  0.15294330000E+03 0.  0.
<mgrwt>
<rscale>  0 0.60495337E+03</rscale>
<asrwt>0</asrwt>
<pdfrwt beam="1">  1        2 0.34790207E+00 0.72838180E+03</pdfrwt>
<pdfrwt beam="2">  1       -2 0.33623341E-01 0.72838180E+03</pdfrwt>
<totfact> 0.40978921E+01</totfact>
</mgrwt>
</event>
<event>
 4    2  0.3388003E-007  0.6636367E+03  0.7818608E-02  0.1020706E+00
          2   -1    0    0  501    0  0.00000000000E+00  0.00000000000E+00  0.74637149148E+03  0.74637149149E+03  0.25500000000E-02 0. -1.
         -2   -1    0    0    0  501 -0.00000000000E+00 -0.00000000000E+00 -0.65359776133E+03  0.65359776134E+03  0.25500000000E-02 0.  1.
    8880023    1    1    2    0    0 -0.14836904332E+02 -0.79895373606E+02 -0.46865437080E+03  0.81243493893E+03  0.65864270000E+03 0.  1.
    8880022    1    1    2    0    0  0.14836904332E+02  0.79895373606E+02  0.56142810095E+03  0.58753431390E+03  0.15294330000E+03 0.  0.
<mgrwt>
<rscale>  0 0.47432825E+03</rscale>
<asrwt>0</asrwt>
<pdfrwt beam="1">  1        2 0.11482638E+00 0.66363666E+03</pdfrwt>
<pdfrwt beam="2">  1       -2 0.10055350E+00 0.66363666E+03</pdfrwt>
<totfact> 0.31433722E+01</totfact>
</mgrwt>
</event>
<event>
 4    2  0.3388003E-007  0.7200539E+03  0.7818608E-02  0.9922404E-01
          2   -1    0    0  501    0  0.00000000000E+00  0.00000000000E+00  0.15017383454E+04  0.15017383454E+04  0.25500000000E-02 0. -1.
         -2   -1    0    0    0  501 -0.00000000000E+00 -0.00000000000E+00 -0.23790124460E+03  0.23790124462E+03  0.25500000000E-02 0.  1.
    8880023    1    1    2    0    0  0.26463201902E+03 -0.12098446881E+03  0.41896932291E+03  0.83307433461E+03  0.65864270000E+03 0.  0.
    8880022    1    1    2    0    0 -0.26463201902E+03  0.12098446881E+03  0.84486777793E+03  0.90656525545E+03  0.15294330000E+03 0.  0.
<mgrwt>
<rscale>  0 0.59187685E+03</rscale>
<asrwt>0</asrwt>
<pdfrwt beam="1">  1        2 0.23103667E+00 0.72005385E+03</pdfrwt>
<pdfrwt beam="2">  1       -2 0.36600192E-01 0.72005385E+03</pdfrwt>
<totfact> 0.90962306E+01</totfact>
</mgrwt>
</event>
<event>
 4    2  0.3388003E-007  0.8367722E+03  0.7818608E-02  0.9636297E-01
          2   -1    0    0  501    0  0.00000000000E+00  0.00000000000E+00  0.26003686426E+04  0.26003686426E+04  0.25500000000E-02 0. -1.
         -2   -1    0    0    0  501 -0.00000000000E+00 -0.00000000000E+00 -0.29902924591E+03  0.29902924593E+03  0.25500000000E-02 0.  1.
    8880023    1    1    2    0    0  0.50704189238E+03 -0.96364404535E+02  0.40784581978E+03  0.93087378203E+03  0.65864270000E+03 0.  1.
    8880022    1    1    2    0    0 -0.50704189238E+03  0.96364404535E+02  0.18934935769E+04  0.19685241065E+04  0.15294330000E+03 0.  0.
<mgrwt>
<rscale>  0 0.74939706E+03</rscale>
<asrwt>0</asrwt>
<pdfrwt beam="1">  1        2 0.40005671E+00 0.83677224E+03</pdfrwt>
<pdfrwt beam="2">  1       -2 0.46004499E-01 0.83677224E+03</pdfrwt>
<totfact> 0.14119999E+01</totfact>
</mgrwt>
</event>
<event>
 4    2  0.3388003E-007  0.9039190E+03  0.7818608E-02  0.9519769E-01
         -2   -1    0    0    0  501 -0.00000000000E+00  0.00000000000E+00  0.46157696249E+03  0.46157696249E+03  0.25500000000E-02 0.  1.
          2   -1    0    0  501    0  0.00000000000E+00 -0.00000000000E+00 -0.18000220839E+04  0.18000220839E+04  0.25500000000E-02 0. -1.
    8880023    1    1    2    0    0  0.60207882675E+03  0.14408488329E+03 -0.15476381647E+03  0.91707219583E+03  0.65864270000E+03 0.  0.
    8880022    1    1    2    0    0 -0.60207882675E+03 -0.14408488329E+03 -0.11836813049E+04  0.13445268506E+04  0.15294330000E+03 0.  0.
<mgrwt>
<rscale>  0 0.82841866E+03</rscale>
<asrwt>0</asrwt>
<pdfrwt beam="1">  1        2 0.27692647E+00 0.90391901E+03</pdfrwt>
<pdfrwt beam="2">  1       -2 0.71011841E-01 0.90391901E+03</pdfrwt>
<totfact> 0.15710879E+01</totfact>
</mgrwt>
</event>
<event>
 4    2  0.3388003E-007  0.7768524E+03  0.7818608E-02  0.9763283E-01
         -2   -1    0    0    0  501 -0.00000000000E+00  0.00000000000E+00  0.18053056340E+03  0.18053056342E+03  0.25500000000E-02 0.  1.
          2   -1    0    0  501    0  0.00000000000E+00 -0.00000000000E+00 -0.27908532004E+04  0.27908532004E+04  0.25500000000E-02 0. -1.
    8880023    1    1    2    0    0 -0.55412585214E+02 -0.40818969066E+03 -0.82669248432E+03  0.11344249856E+04  0.65864270000E+03 0.  1.
    8880022    1    1    2    0    0  0.55412585214E+02  0.40818969066E+03 -0.17836301526E+04  0.18369587781E+04  0.15294330000E+03 0.  0.
<mgrwt>
<rscale>  0 0.67370740E+03</rscale>
<asrwt>0</asrwt>
<pdfrwt beam="1">  1        2 0.42936200E+00 0.77685236E+03</pdfrwt>
<pdfrwt beam="2">  1       -2 0.27773935E-01 0.77685236E+03</pdfrwt>
<totfact> 0.29002297E+01</totfact>
</mgrwt>
</event>
<event>
 4    2  0.3388003E-007  0.7573423E+03  0.7818608E-02  0.9812037E-01
          2   -1    0    0  501    0  0.00000000000E+00  0.00000000000E+00  0.16247607210E+04  0.16247607210E+04  0.25500000000E-02 0. -1.
         -2   -1    0    0    0  501 -0.00000000000E+00 -0.00000000000E+00 -0.60421562491E+03  0.60421562491E+03  0.25500000000E-02 0.  1.
    8880023    1    1    2    0    0 -0.32922798500E+03  0.17710454372E+03 -0.32498669222E+03  0.82412598667E+03  0.65864270000E+03 0.  1.
    8880022    1    1    2    0    0  0.32922798500E+03 -0.17710454372E+03  0.13455317883E+04  0.14048503593E+04  0.15294330000E+03 0.  0.
<mgrwt>
<rscale>  0 0.64720536E+03</rscale>
<asrwt>0</asrwt>
<pdfrwt beam="1">  1        2 0.24996318E+00 0.75734226E+03</pdfrwt>
<pdfrwt beam="2">  1       -2 0.92956251E-01 0.75734226E+03</pdfrwt>
<totfact> 0.10866347E+01</totfact>
</mgrwt>
</event>
<event>
 4    2  0.3388003E-007  0.6955147E+03  0.7818608E-02  0.1001634E+00
         -2   -1    0    0    0  501 -0.00000000000E+00  0.00000000000E+00  0.24935294563E+03  0.24935294564E+03  0.25500000000E-02 0.  1.
          2   -1    0    0  501    0  0.00000000000E+00 -0.00000000000E+00 -0.10904198423E+04  0.10904198423E+04  0.25500000000E-02 0. -1.
    8880023    1    1    2    0    0 -0.20226393670E+03  0.94972598494E+02 -0.34910274975E+03  0.77821168759E+03  0.65864270000E+03 0.  0.
    8880022    1    1    2    0    0  0.20226393670E+03 -0.94972598494E+02 -0.49196414693E+03  0.56156110035E+03  0.15294330000E+03 0.  0.
<mgrwt>
<rscale>  0 0.54939428E+03</rscale>
<asrwt>0</asrwt>
<pdfrwt beam="1">  1        2 0.16775690E+00 0.69551470E+03</pdfrwt>
<pdfrwt beam="2">  1       -2 0.38361992E-01 0.69551470E+03</pdfrwt>
<totfact> 0.14405674E+02</totfact>
</mgrwt>
</event>
<event>
 4    2  0.3388003E-007  0.9284875E+03  0.7818608E-02  0.9481766E-01
         -2   -1    0    0    0  501 -0.00000000000E+00  0.00000000000E+00  0.88530809831E+03  0.88530809831E+03  0.25500000000E-02 0.  1.
          2   -1    0    0  501    0  0.00000000000E+00 -0.00000000000E+00 -0.98638473918E+03  0.98638473918E+03  0.25500000000E-02 0. -1.
    8880023    1    1    2    0    0 -0.22676439899E+02 -0.65403709839E+03  0.42216600291E+03  0.10199573948E+04  0.65864270000E+03 0.  0.
    8880022    1    1    2    0    0  0.22676439899E+02  0.65403709839E+03 -0.52324264378E+03  0.85173544266E+03  0.15294330000E+03 0.  0.
<mgrwt>
<rscale>  0 0.85641592E+03</rscale>
<asrwt>0</asrwt>
<pdfrwt beam="1">  1        2 0.15175150E+00 0.92848745E+03</pdfrwt>
<pdfrwt beam="2">  1       -2 0.13620125E+00 0.92848745E+03</pdfrwt>
<totfact> 0.98960559E+00</totfact>
</mgrwt>
</event>
<event>
 4    2  0.3388003E-007  0.1020082E+04  0.7818608E-02  0.9355743E-01
          2   -1    0    0  501    0  0.00000000000E+00  0.00000000000E+00  0.24282970681E+04  0.24282970681E+04  0.25500000000E-02 0. -1.
         -2   -1    0    0    0  501 -0.00000000000E+00 -0.00000000000E+00 -0.67234241736E+03  0.67234241737E+03  0.25500000000E-02 0.  1.
    8880023    1    1    2    0    0  0.39827064309E+03  0.66943066388E+03 -0.15460356244E+03  0.10317312570E+04  0.65864270000E+03 0.  1.
    8880022    1    1    2    0    0 -0.39827064309E+03 -0.66943066388E+03  0.19105582132E+04  0.20689082285E+04  0.15294330000E+03 0.  0.
<mgrwt>
<rscale>  0 0.95809077E+03</rscale>
<asrwt>0</asrwt>
<pdfrwt beam="1">  1        2 0.37358415E+00 0.10200819E+04</pdfrwt>
<pdfrwt beam="2">  1       -2 0.10343730E+00 0.10200819E+04</pdfrwt>
<totfact> 0.29303958E+00</totfact>
</mgrwt>
</event>
<event>
 4    2  0.3388003E-007  0.6653756E+03  0.7818608E-02  0.1019220E+00
         -2   -1    0    0    0  501 -0.00000000000E+00  0.00000000000E+00  0.68740242493E+03  0.68740242494E+03  0.25500000000E-02 0.  1.
          2   -1    0    0  501    0  0.00000000000E+00 -0.00000000000E+00 -0.47730440529E+03  0.47730440529E+03  0.25500000000E-02 0. -1.
    8880023    1    1    2    0    0  0.85441610704E+02  0.40177899658E+02  0.49398673812E+03  0.82870238093E+03  0.65864270000E+03 0.  1.
    8880022    1    1    2    0    0 -0.85441610704E+02 -0.40177899658E+02 -0.28388871847E+03  0.33600444930E+03  0.15294330000E+03 0.  0.
<mgrwt>
<rscale>  0 0.47969024E+03</rscale>
<asrwt>0</asrwt>
<pdfrwt beam="1">  1        2 0.73431447E-01 0.66537564E+03</pdfrwt>
<pdfrwt beam="2">  1       -2 0.10575422E+00 0.66537564E+03</pdfrwt>
<totfact> 0.47791432E+01</totfact>
</mgrwt>
</event>
<event>
 4    2  0.3388003E-007  0.7482585E+03  0.7818608E-02  0.9836512E-01
          2   -1    0    0  501    0  0.00000000000E+00  0.00000000000E+00  0.16102187104E+04  0.16102187104E+04  0.25500000000E-02 0. -1.
         -2   -1    0    0    0  501 -0.00000000000E+00 -0.00000000000E+00 -0.46619931208E+03  0.46619931209E+03  0.25500000000E-02 0.  1.
    8880023    1    1    2    0    0  0.34048927687E+03  0.10073507294E+03 -0.11710142925E+03  0.75736612915E+03  0.65864270000E+03 0.  1.
    8880022    1    1    2    0    0 -0.34048927687E+03 -0.10073507294E+03  0.12611208276E+04  0.13190518933E+04  0.15294330000E+03 0.  0.
<mgrwt>
<rscale>  0 0.63439355E+03</rscale>
<asrwt>0</asrwt>
<pdfrwt beam="1">  1        2 0.24772596E+00 0.74825845E+03</pdfrwt>
<pdfrwt beam="2">  1       -2 0.71722971E-01 0.74825845E+03</pdfrwt>
<totfact> 0.19906072E+01</totfact>
</mgrwt>
</event>
<event>
 4    2  0.3388003E-007  0.6610738E+03  0.7818608E-02  0.1023082E+00
          2   -1    0    0  501    0  0.00000000000E+00  0.00000000000E+00  0.74757498783E+03  0.74757498784E+03  0.25500000000E-02 0. -1.
         -2   -1    0    0    0  501 -0.00000000000E+00 -0.00000000000E+00 -0.96405541359E+03  0.96405541359E+03  0.25500000000E-02 0.  1.
    8880023    1    1    2    0    0 -0.55755623350E+02  0.99858131459E+01 -0.83897306860E+03  0.10681265946E+04  0.65864270000E+03 0.  1.
    8880022    1    1    2    0    0  0.55755623350E+02 -0.99858131459E+01  0.62249264284E+03  0.64350380683E+03  0.15294330000E+03 0.  0.
<mgrwt>
<rscale>  0 0.46590546E+03</rscale>
<asrwt>0</asrwt>
<pdfrwt beam="1">  1        2 0.11501154E+00 0.66107383E+03</pdfrwt>
<pdfrwt beam="2">  1       -2 0.14831622E+00 0.66107383E+03</pdfrwt>
<totfact> 0.11927483E+01</totfact>
</mgrwt>
</event>
<event>
 4    2  0.3388003E-007  0.8484534E+03  0.7818608E-02  0.9614442E-01
         -2   -1    0    0    0  501 -0.00000000000E+00  0.00000000000E+00  0.91703764538E+03  0.91703764538E+03  0.25500000000E-02 0.  1.
          2   -1    0    0  501    0  0.00000000000E+00 -0.00000000000E+00 -0.13170081794E+04  0.13170081794E+04  0.25500000000E-02 0. -1.
    8880023    1    1    2    0    0  0.12390230982E+03  0.52029909332E+03  0.63451704356E+03  0.10594739325E+04  0.65864270000E+03 0.  1.
    8880022    1    1    2    0    0 -0.12390230982E+03 -0.52029909332E+03 -0.10344875776E+04  0.11745718923E+04  0.15294330000E+03 0.  0.
<mgrwt>
<rscale>  0 0.76347637E+03</rscale>
<asrwt>0</asrwt>
<pdfrwt beam="1">  1        2 0.20261664E+00 0.84845338E+03</pdfrwt>
<pdfrwt beam="2">  1       -2 0.14108271E+00 0.84845338E+03</pdfrwt>
<totfact> 0.57412526E+00</totfact>
</mgrwt>
</event>
<event>
 4    2  0.3388003E-007  0.8065225E+03  0.7818608E-02  0.9696866E-01
         -2   -1    0    0    0  501 -0.00000000000E+00  0.00000000000E+00  0.27091409764E+03  0.27091409765E+03  0.25500000000E-02 0.  1.
          2   -1    0    0  501    0  0.00000000000E+00 -0.00000000000E+00 -0.19770655217E+04  0.19770655217E+04  0.25500000000E-02 0. -1.
    8880023    1    1    2    0    0 -0.37719620325E+03 -0.27274788184E+03 -0.15258655970E+04  0.17259039397E+04  0.65864270000E+03 0. -1.
    8880022    1    1    2    0    0  0.37719620325E+03  0.27274788184E+03 -0.18028582706E+03  0.52207567962E+03  0.15294330000E+03 0.  1.
<mgrwt>
<rscale>  0 0.71203667E+03</rscale>
<asrwt>0</asrwt>
<pdfrwt beam="1">  1        2 0.30416392E+00 0.80652253E+03</pdfrwt>
<pdfrwt beam="2">  1       -2 0.41679093E-01 0.80652253E+03</pdfrwt>
<totfact> 0.38427790E+01</totfact>
</mgrwt>
</event>
<event>
 4    2  0.3388003E-007  0.1143782E+04  0.7818608E-02  0.9213807E-01
          2   -1    0    0  501    0  0.00000000000E+00  0.00000000000E+00  0.11767250632E+04  0.11767250632E+04  0.25500000000E-02 0. -1.
         -2   -1    0    0    0  501 -0.00000000000E+00 -0.00000000000E+00 -0.98387014038E+03  0.98387014038E+03  0.25500000000E-02 0.  1.
    8880023    1    1    2    0    0  0.45186787963E+03 -0.81868362200E+03 -0.14864459726E+03  0.11534005705E+04  0.65864270000E+03 0.  1.
    8880022    1    1    2    0    0 -0.45186787963E+03  0.81868362200E+03  0.34149952007E+03  0.10071946330E+04  0.15294330000E+03 0.  0.
<mgrwt>
<rscale>  0 0.10912044E+04</rscale>
<asrwt>0</asrwt>
<pdfrwt beam="1">  1        2 0.18103462E+00 0.11437822E+04</pdfrwt>
<pdfrwt beam="2">  1       -2 0.15136464E+00 0.11437822E+04</pdfrwt>
<totfact> 0.55944702E+00</totfact>
</mgrwt>
</event>
<event>
 4    2  0.3388003E-007  0.1724239E+04  0.7818608E-02  0.8765644E-01
         -2   -1    0    0    0  501 -0.00000000000E+00  0.00000000000E+00  0.14755992900E+04  0.14755992900E+04  0.25500000000E-02 0.  1.
          2   -1    0    0  501    0  0.00000000000E+00 -0.00000000000E+00 -0.22006997156E+04  0.22006997156E+04  0.25500000000E-02 0. -1.
    8880023    1    1    2    0    0  0.67884571189E+03  0.14416516394E+04  0.33475629343E+03  0.17564347219E+04  0.65864270000E+03 0.  1.
    8880022    1    1    2    0    0 -0.67884571189E+03 -0.14416516394E+04 -0.10598567190E+04  0.19198642837E+04  0.15294330000E+03 0.  0.
<mgrwt>
<rscale>  0 0.16925164E+04</rscale>
<asrwt>0</asrwt>
<pdfrwt beam="1">  1        2 0.33856919E+00 0.17242393E+04</pdfrwt>
<pdfrwt beam="2">  1       -2 0.22701528E+00 0.17242393E+04</pdfrwt>
<totfact> 0.42212542E-01</totfact>
</mgrwt>
</event>
<event>
 4    2  0.6039871E-007  0.7335783E+03  0.7818608E-02  0.9879064E-01
          2   -1    0    0  501    0  0.00000000000E+00  0.00000000000E+00  0.24371770554E+04  0.24371770554E+04  0.25500000000E-02 0. -1.
         -2   -1    0    0    0  501 -0.00000000000E+00 -0.00000000000E+00 -0.14130691437E+04  0.14130691437E+04  0.25500000000E-02 0.  1.
    8880023    1    1    2    0    0  0.19986887762E+03 -0.25373079851E+03 -0.13032950291E+04  0.14955651191E+04  0.65864270000E+03 0.  0.
    8880022    1    1    2    0    0 -0.19986887762E+03  0.25373079851E+03  0.23274029408E+04  0.23546810799E+04  0.15294330000E+03 0.  0.
<mgrwt>
<rscale>  0 0.61286750E+03</rscale>
<asrwt>0</asrwt>
<pdfrwt beam="1">  1        2 0.37495031E+00 0.73357828E+03</pdfrwt>
<pdfrwt beam="2">  1       -2 0.21739525E+00 0.73357828E+03</pdfrwt>
<totfact> 0.41330241E-01</totfact>
</mgrwt>
</event>
<event>
 4    2  0.3388003E-007  0.1082414E+04  0.7818608E-02  0.9280893E-01
         -2   -1    0    0    0  501 -0.00000000000E+00  0.00000000000E+00  0.72299956797E+03  0.72299956797E+03  0.25500000000E-02 0.  1.
          2   -1    0    0  501    0  0.00000000000E+00 -0.00000000000E+00 -0.33213672299E+04  0.33213672299E+04  0.25500000000E-02 0. -1.
    8880023    1    1    2    0    0 -0.22193782322E+03  0.82979129350E+03  0.21087218119E+03  0.11027634702E+04  0.65864270000E+03 0.  0.
    8880022    1    1    2    0    0  0.22193782322E+03 -0.82979129350E+03 -0.28092398431E+04  0.29416033276E+04  0.15294330000E+03 0.  0.
<mgrwt>
<rscale>  0 0.10256107E+04</rscale>
<asrwt>0</asrwt>
<pdfrwt beam="1">  1        2 0.51097957E+00 0.10824141E+04</pdfrwt>
<pdfrwt beam="2">  1       -2 0.11123070E+00 0.10824141E+04</pdfrwt>
<totfact> 0.69827448E-01</totfact>
</mgrwt>
</event>
<event>
 4    2  0.3388003E-007  0.7784542E+03  0.7818608E-02  0.9759481E-01
          2   -1    0    0  501    0  0.00000000000E+00  0.00000000000E+00  0.11559962785E+04  0.11559962785E+04  0.25500000000E-02 0. -1.
         -2   -1    0    0    0  501 -0.00000000000E+00 -0.00000000000E+00 -0.34092416486E+03  0.34092416487E+03  0.25500000000E-02 0.  1.
    8880023    1    1    2    0    0 -0.26559426735E+03  0.31881098423E+03  0.34486856124E+03  0.85142544554E+03  0.65864270000E+03 0. -1.
    8880022    1    1    2    0    0  0.26559426735E+03 -0.31881098423E+03  0.47020355238E+03  0.64549499782E+03  0.15294330000E+03 0.  1.
<mgrwt>
<rscale>  0 0.67583123E+03</rscale>
<asrwt>0</asrwt>
<pdfrwt beam="1">  1        2 0.17784558E+00 0.77845421E+03</pdfrwt>
<pdfrwt beam="2">  1       -2 0.52449872E-01 0.77845421E+03</pdfrwt>
<totfact> 0.70013117E+01</totfact>
</mgrwt>
</event>
<event>
 4    2  0.3388003E-007  0.7656841E+03  0.7818608E-02  0.9790608E-01
         -2   -1    0    0    0  501 -0.00000000000E+00  0.00000000000E+00  0.29053392881E+03  0.29053392882E+03  0.25500000000E-02 0.  1.
          2   -1    0    0  501    0  0.00000000000E+00 -0.00000000000E+00 -0.15123098917E+04  0.15123098917E+04  0.25500000000E-02 0. -1.
    8880023    1    1    2    0    0  0.14354958241E+03 -0.36311908228E+03 -0.11436148342E+04  0.13762728821E+04  0.65864270000E+03 0.  0.
    8880022    1    1    2    0    0 -0.14354958241E+03  0.36311908228E+03 -0.78161128691E+02  0.42657093851E+03  0.15294330000E+03 0.  0.
<mgrwt>
<rscale>  0 0.65869010E+03</rscale>
<asrwt>0</asrwt>
<pdfrwt beam="1">  1        2 0.23266305E+00 0.76568411E+03</pdfrwt>
<pdfrwt beam="2">  1       -2 0.44697529E-01 0.76568411E+03</pdfrwt>
<totfact> 0.60453013E+01</totfact>
</mgrwt>
</event>
<event>
 4    2  0.3388003E-007  0.7173912E+03  0.7818608E-02  0.9931514E-01
         -2   -1    0    0    0  501 -0.00000000000E+00  0.00000000000E+00  0.38760087861E+03  0.38760087862E+03  0.25500000000E-02 0.  1.
          2   -1    0    0  501    0  0.00000000000E+00 -0.00000000000E+00 -0.94647697317E+03  0.94647697318E+03  0.25500000000E-02 0. -1.
    8880023    1    1    2    0    0  0.74339164658E+02  0.27443317032E+03 -0.68076602001E+03  0.98898556948E+03  0.65864270000E+03 0.  0.
    8880022    1    1    2    0    0 -0.74339164658E+02 -0.27443317032E+03  0.12188992545E+03  0.34509228231E+03  0.15294330000E+03 0.  0.
<mgrwt>
<rscale>  0 0.58757987E+03</rscale>
<asrwt>0</asrwt>
<pdfrwt beam="1">  1        2 0.14561184E+00 0.71739116E+03</pdfrwt>
<pdfrwt beam="2">  1       -2 0.59630905E-01 0.71739116E+03</pdfrwt>
<totfact> 0.72826155E+01</totfact>
</mgrwt>
</event>
<event>
 4    2  0.3388003E-007  0.7950571E+03  0.7818608E-02  0.9721587E-01
         -2   -1    0    0    0  501 -0.00000000000E+00  0.00000000000E+00  0.27634131636E+03  0.27634131637E+03  0.25500000000E-02 0.  1.
          2   -1    0    0  501    0  0.00000000000E+00 -0.00000000000E+00 -0.23200284700E+04  0.23200284700E+04  0.25500000000E-02 0. -1.
    8880023    1    1    2    0    0  0.29017012515E+03 -0.33779704331E+03 -0.40675350370E+03  0.89306447865E+03  0.65864270000E+03 0.  1.
    8880022    1    1    2    0    0 -0.29017012515E+03  0.33779704331E+03 -0.16369336499E+04  0.17033053077E+04  0.15294330000E+03 0.  0.
<mgrwt>
<rscale>  0 0.69745912E+03</rscale>
<asrwt>0</asrwt>
<pdfrwt beam="1">  1        2 0.35692744E+00 0.79505707E+03</pdfrwt>
<pdfrwt beam="2">  1       -2 0.42514050E-01 0.79505707E+03</pdfrwt>
<totfact> 0.23949079E+01</totfact>
</mgrwt>
</event>
<event>
 4    2  0.3388003E-007  0.1146161E+04  0.7818608E-02  0.9211322E-01
         -2   -1    0    0    0  501 -0.00000000000E+00  0.00000000000E+00  0.24146581313E+04  0.24146581313E+04  0.25500000000E-02 0.  1.
          2   -1    0    0  501    0  0.00000000000E+00 -0.00000000000E+00 -0.66204013542E+03  0.66204013542E+03  0.25500000000E-02 0. -1.
    8880023    1    1    2    0    0  0.77191249952E+03 -0.53294000194E+03  0.17900596036E+04  0.21255581721E+04  0.65864270000E+03 0.  0.
    8880022    1    1    2    0    0 -0.77191249952E+03  0.53294000194E+03 -0.37441607646E+02  0.95114009462E+03  0.15294330000E+03 0.  0.
<mgrwt>
<rscale>  0 0.10937323E+04</rscale>
<asrwt>0</asrwt>
<pdfrwt beam="1">  1        2 0.10185233E+00 0.11461606E+04</pdfrwt>
<pdfrwt beam="2">  1       -2 0.37148587E+00 0.11461606E+04</pdfrwt>
<totfact> 0.49706561E-01</totfact>
</mgrwt>
</event>
<event>
 4    2  0.3873535E-007  0.7164862E+03  0.7818608E-02  0.9934660E-01
          2   -1    0    0  501    0  0.00000000000E+00  0.00000000000E+00  0.18273396968E+04  0.18273396968E+04  0.25500000000E-02 0. -1.
         -2   -1    0    0    0  501 -0.00000000000E+00 -0.00000000000E+00 -0.11686227191E+04  0.11686227191E+04  0.25500000000E-02 0.  1.
    8880023    1    1    2    0    0 -0.14619503211E+03  0.24118302239E+03 -0.10423798681E+04  0.12648747896E+04  0.65864270000E+03 0.  0.
    8880022    1    1    2    0    0  0.14619503211E+03 -0.24118302239E+03  0.17010968458E+04  0.17310876262E+04  0.15294330000E+03 0.  0.
<mgrwt>
<rscale>  0 0.58610532E+03</rscale>
<asrwt>0</asrwt>
<pdfrwt beam="1">  1        2 0.28112918E+00 0.71648618E+03</pdfrwt>
<pdfrwt beam="2">  1       -2 0.17978811E+00 0.71648618E+03</pdfrwt>
<totfact> 0.15816918E+00</totfact>
</mgrwt>
</event>
<event>
 4    2  0.3388003E-007  0.6694045E+03  0.7818608E-02  0.1016093E+00
          2   -1    0    0  501    0  0.00000000000E+00  0.00000000000E+00  0.15409991540E+04  0.15409991540E+04  0.25500000000E-02 0. -1.
         -2   -1    0    0    0  501 -0.00000000000E+00 -0.00000000000E+00 -0.12977594080E+03  0.12977594083E+03  0.25500000000E-02 0.  1.
    8880023    1    1    2    0    0  0.10856081726E+03  0.50067440501E+02  0.88332942051E+03  0.11083200219E+04  0.65864270000E+03 0.  1.
    8880022    1    1    2    0    0 -0.10856081726E+03 -0.50067440501E+02  0.52789379273E+03  0.56245507293E+03  0.15294330000E+03 0.  0.
<mgrwt>
<rscale>  0 0.49123114E+03</rscale>
<asrwt>0</asrwt>
<pdfrwt beam="1">  1        2 0.23707680E+00 0.66940452E+03</pdfrwt>
<pdfrwt beam="2">  1       -2 0.19965529E-01 0.66940452E+03</pdfrwt>
<totfact> 0.26288801E+02</totfact>
</mgrwt>
</event>
<event>
 4    2  0.3388003E-007  0.6806212E+03  0.7818608E-02  0.1008974E+00
         -2   -1    0    0    0  501 -0.00000000000E+00  0.00000000000E+00  0.15012139555E+03  0.15012139557E+03  0.25500000000E-02 0.  1.
          2   -1    0    0  501    0  0.00000000000E+00 -0.00000000000E+00 -0.17213137131E+04  0.17213137131E+04  0.25500000000E-02 0. -1.
    8880023    1    1    2    0    0  0.16703398695E+03  0.39174400581E+02 -0.72430404966E+03  0.99391224415E+03  0.65864270000E+03 0.  1.
    8880022    1    1    2    0    0 -0.16703398695E+03 -0.39174400581E+02 -0.84688826793E+03  0.87752286456E+03  0.15294330000E+03 0.  0.
<mgrwt>
<rscale>  0 0.51884271E+03</rscale>
<asrwt>0</asrwt>
<pdfrwt beam="1">  1        2 0.26481748E+00 0.68062118E+03</pdfrwt>
<pdfrwt beam="2">  1       -2 0.23095600E-01 0.68062118E+03</pdfrwt>
<totfact> 0.16180141E+02</totfact>
</mgrwt>
</event>
<event>
 4    2  0.3388003E-007  0.7689412E+03  0.7818608E-02  0.9782486E-01
          2   -1    0    0  501    0  0.00000000000E+00  0.00000000000E+00  0.14828054525E+04  0.14828054525E+04  0.25500000000E-02 0. -1.
         -2   -1    0    0    0  501 -0.00000000000E+00 -0.00000000000E+00 -0.76607719011E+03  0.76607719012E+03  0.25500000000E-02 0.  1.
    8880023    1    1    2    0    0 -0.33255627558E+03  0.21648728467E+03 -0.52849227187E+03  0.93304593056E+03  0.65864270000E+03 0.  0.
    8880022    1    1    2    0    0  0.33255627558E+03 -0.21648728467E+03  0.12452205343E+04  0.13158367121E+04  0.15294330000E+03 0.  0.
<mgrwt>
<rscale>  0 0.66310958E+03</rscale>
<asrwt>0</asrwt>
<pdfrwt beam="1">  1        2 0.22812391E+00 0.76894124E+03</pdfrwt>
<pdfrwt beam="2">  1       -2 0.11785803E+00 0.76894124E+03</pdfrwt>
<totfact> 0.73661147E+00</totfact>
</mgrwt>
</event>
<event>
 4    2  0.3388003E-007  0.8895814E+03  0.7818608E-02  0.9542968E-01
          2   -1    0    0  501    0  0.00000000000E+00  0.00000000000E+00  0.27065948550E+04  0.27065948550E+04  0.25500000000E-02 0. -1.
         -2   -1    0    0    0  501 -0.00000000000E+00 -0.00000000000E+00 -0.41275836829E+03  0.41275836830E+03  0.25500000000E-02 0.  1.
    8880023    1    1    2    0    0  0.32911009008E+03  0.49923082487E+03  0.16744998556E+03  0.90520416030E+03  0.65864270000E+03 0.  1.
    8880022    1    1    2    0    0 -0.32911009008E+03 -0.49923082487E+03  0.21263865011E+04  0.22141490630E+04  0.15294330000E+03 0.  0.
<mgrwt>
<rscale>  0 0.81188749E+03</rscale>
<asrwt>0</asrwt>
<pdfrwt beam="1">  1        2 0.41639922E+00 0.88958140E+03</pdfrwt>
<pdfrwt beam="2">  1       -2 0.63501286E-01 0.88958140E+03</pdfrwt>
<totfact> 0.62319261E+00</totfact>
</mgrwt>
</event>
<event>
 4    2  0.3388003E-007  0.1040278E+04  0.7818608E-02  0.9330661E-01
         -2   -1    0    0    0  501 -0.00000000000E+00  0.00000000000E+00  0.96570895639E+03  0.96570895639E+03  0.25500000000E-02 0.  1.
          2   -1    0    0  501    0  0.00000000000E+00 -0.00000000000E+00 -0.19935854019E+04  0.19935854019E+04  0.25500000000E-02 0. -1.
    8880023    1    1    2    0    0  0.21987147906E+03  0.77461270340E+03  0.55333516879E+03  0.11782861804E+04  0.65864270000E+03 0.  1.
    8880022    1    1    2    0    0 -0.21987147906E+03 -0.77461270340E+03 -0.15812116143E+04  0.17810081779E+04  0.15294330000E+03 0.  0.
<mgrwt>
<rscale>  0 0.98008525E+03</rscale>
<asrwt>0</asrwt>
<pdfrwt beam="1">  1        2 0.30670545E+00 0.10402781E+04</pdfrwt>
<pdfrwt beam="2">  1       -2 0.14857061E+00 0.10402781E+04</pdfrwt>
<totfact> 0.20542788E+00</totfact>
</mgrwt>
</event>
<event>
 4    2  0.3388003E-007  0.7087831E+03  0.7818608E-02  0.9962548E-01
          2   -1    0    0  501    0  0.00000000000E+00  0.00000000000E+00  0.33229797790E+04  0.33229797790E+04  0.25500000000E-02 0. -1.
         -2   -1    0    0    0  501 -0.00000000000E+00 -0.00000000000E+00 -0.27609741298E+03  0.27609741299E+03  0.25500000000E-02 0.  1.
    8880023    1    1    2    0    0  0.25789155988E+03 -0.45334672064E+02  0.20051191111E+03  0.73659929535E+03  0.65864270000E+03 0.  1.
    8880022    1    1    2    0    0 -0.25789155988E+03  0.45334672064E+02  0.28463704550E+04  0.28624778967E+04  0.15294330000E+03 0.  0.
<mgrwt>
<rscale>  0 0.57323395E+03</rscale>
<asrwt>0</asrwt>
<pdfrwt beam="1">  1        2 0.51122764E+00 0.70878311E+03</pdfrwt>
<pdfrwt beam="2">  1       -2 0.42476527E-01 0.70878311E+03</pdfrwt>
<totfact> 0.61308489E+00</totfact>
</mgrwt>
</event>
<event>
 4    2  0.3388003E-007  0.8684058E+03  0.7818608E-02  0.9578783E-01
         -2   -1    0    0    0  501 -0.00000000000E+00  0.00000000000E+00  0.18804376707E+04  0.18804376707E+04  0.25500000000E-02 0.  1.
          2   -1    0    0  501    0  0.00000000000E+00 -0.00000000000E+00 -0.47532628226E+03  0.47532628227E+03  0.25500000000E-02 0. -1.
    8880023    1    1    2    0    0  0.50007344010E+03  0.26503773349E+03  0.15272781104E+04  0.17569026947E+04  0.65864270000E+03 0.  0.
    8880022    1    1    2    0    0 -0.50007344010E+03 -0.26503773349E+03 -0.12216672203E+03  0.59886125827E+03  0.15294330000E+03 0.  0.
<mgrwt>
<rscale>  0 0.78716555E+03</rscale>
<asrwt>0</asrwt>
<pdfrwt beam="1">  1        2 0.73127121E-01 0.86840581E+03</pdfrwt>
<pdfrwt beam="2">  1       -2 0.28929810E+00 0.86840581E+03</pdfrwt>
<totfact> 0.24653254E+00</totfact>
</mgrwt>
</event>
<event>
 4    2  0.3388003E-007  0.6949371E+03  0.7818608E-02  0.1001889E+00
         -2   -1    0    0    0  501 -0.00000000000E+00  0.00000000000E+00  0.44114048946E+03  0.44114048947E+03  0.25500000000E-02 0.  1.
          2   -1    0    0  501    0  0.00000000000E+00 -0.00000000000E+00 -0.92010217094E+03  0.92010217094E+03  0.25500000000E-02 0. -1.
    8880023    1    1    2    0    0 -0.20022742403E+03  0.95059980493E+02  0.11935868530E+03  0.70511284433E+03  0.65864270000E+03 0.  1.
    8880022    1    1    2    0    0  0.20022742403E+03 -0.95059980493E+02 -0.59832036678E+03  0.65612981607E+03  0.15294330000E+03 0.  0.
<mgrwt>
<rscale>  0 0.54829675E+03</rscale>
<asrwt>0</asrwt>
<pdfrwt beam="1">  1        2 0.14155418E+00 0.69493714E+03</pdfrwt>
<pdfrwt beam="2">  1       -2 0.67867768E-01 0.69493714E+03</pdfrwt>
<totfact> 0.57601542E+01</totfact>
</mgrwt>
</event>
<event>
 4    2  0.3388003E-007  0.1073303E+04  0.7818608E-02  0.9291378E-01
         -2   -1    0    0    0  501 -0.00000000000E+00  0.00000000000E+00  0.70336336315E+03  0.70336336315E+03  0.25500000000E-02 0.  1.
          2   -1    0    0  501    0  0.00000000000E+00 -0.00000000000E+00 -0.13546726792E+04  0.13546726792E+04  0.25500000000E-02 0. -1.
    8880023    1    1    2    0    0 -0.68456044969E+03 -0.49954650254E+03 -0.49859666644E+03  0.11834604174E+04  0.65864270000E+03 0.  0.
    8880022    1    1    2    0    0  0.68456044969E+03  0.49954650254E+03 -0.15271264965E+03  0.87457562500E+03  0.15294330000E+03 0.  0.
<mgrwt>
<rscale>  0 0.10158047E+04</rscale>
<asrwt>0</asrwt>
<pdfrwt beam="1">  1        2 0.20841118E+00 0.10733033E+04</pdfrwt>
<pdfrwt beam="2">  1       -2 0.10820975E+00 0.10733033E+04</pdfrwt>
<totfact> 0.10371347E+01</totfact>
</mgrwt>
</event>
<event>
 4    2  0.3388003E-007  0.6843352E+03  0.7818608E-02  0.1006971E+00
         -2   -1    0    0    0  501 -0.00000000000E+00  0.00000000000E+00  0.14561191639E+03  0.14561191641E+03  0.25500000000E-02 0.  1.
          2   -1    0    0  501    0  0.00000000000E+00 -0.00000000000E+00 -0.35425829477E+04  0.35425829477E+04  0.25500000000E-02 0. -1.
    8880023    1    1    2    0    0  0.14782188150E+03 -0.11248620930E+03 -0.69441871100E+03  0.97495231082E+03  0.65864270000E+03 0.  1.
    8880022    1    1    2    0    0 -0.14782188150E+03  0.11248620930E+03 -0.27025523203E+04  0.27132425533E+04  0.15294330000E+03 0.  0.
<mgrwt>
<rscale>  0 0.52696629E+03</rscale>
<asrwt>0</asrwt>
<pdfrwt beam="1">  1        2 0.54501270E+00 0.68433520E+03</pdfrwt>
<pdfrwt beam="2">  1       -2 0.22401836E-01 0.68433520E+03</pdfrwt>
<totfact> 0.14486815E+01</totfact>
</mgrwt>
</event>
<event>
 4    2  0.3388003E-007  0.8328403E+03  0.7818608E-02  0.9643831E-01
          2   -1    0    0  501    0  0.00000000000E+00  0.00000000000E+00  0.18534836938E+04  0.18534836938E+04  0.25500000000E-02 0. -1.
         -2   -1    0    0    0  501 -0.00000000000E+00 -0.00000000000E+00 -0.86651681343E+03  0.86651681343E+03  0.25500000000E-02 0.  1.
    8880023    1    1    2    0    0 -0.87484754187E+02  0.50215446656E+03 -0.61282970359E+03  0.10340131249E+04  0.65864270000E+03 0.  1.
    8880022    1    1    2    0    0  0.87484754187E+02 -0.50215446656E+03  0.15997965840E+04  0.16859873824E+04  0.15294330000E+03 0.  0.
<mgrwt>
<rscale>  0 0.74461841E+03</rscale>
<asrwt>0</asrwt>
<pdfrwt beam="1">  1        2 0.28515134E+00 0.83284026E+03</pdfrwt>
<pdfrwt beam="2">  1       -2 0.13331028E+00 0.83284026E+03</pdfrwt>
<totfact> 0.33478280E+00</totfact>
</mgrwt>
</event>
<event>
 4    2  0.3388003E-007  0.6956698E+03  0.7818608E-02  0.1001566E+00
          2   -1    0    0  501    0  0.00000000000E+00  0.00000000000E+00  0.11857116732E+04  0.11857116733E+04  0.25500000000E-02 0. -1.
         -2   -1    0    0    0  501 -0.00000000000E+00 -0.00000000000E+00 -0.29342679784E+03  0.29342679785E+03  0.25500000000E-02 0.  1.
    8880023    1    1    2    0    0  0.16373798776E+03  0.15276159187E+03  0.18234608363E+03  0.71917072595E+03  0.65864270000E+03 0.  1.
    8880022    1    1    2    0    0 -0.16373798776E+03 -0.15276159187E+03  0.70993879178E+03  0.75996774515E+03  0.15294330000E+03 0.  0.
<mgrwt>
<rscale>  0 0.54968799E+03</rscale>
<asrwt>0</asrwt>
<pdfrwt beam="1">  1        2 0.18241718E+00 0.69566978E+03</pdfrwt>
<pdfrwt beam="2">  1       -2 0.45142584E-01 0.69566978E+03</pdfrwt>
<totfact> 0.91708440E+01</totfact>
</mgrwt>
</event>
<event>
 4    2  0.3388003E-007  0.7158287E+03  0.7818608E-02  0.9936961E-01
          2   -1    0    0  501    0  0.00000000000E+00  0.00000000000E+00  0.25932351376E+04  0.25932351376E+04  0.25500000000E-02 0. -1.
         -2   -1    0    0    0  501 -0.00000000000E+00 -0.00000000000E+00 -0.21931006005E+03  0.21931006006E+03  0.25500000000E-02 0.  1.
    8880023    1    1    2    0    0 -0.39160455986E+02  0.27760940697E+03  0.41431860687E+03  0.82708562943E+03  0.65864270000E+03 0.  1.
    8880022    1    1    2    0    0  0.39160455986E+02 -0.27760940697E+03  0.19596064707E+04  0.19854595682E+04  0.15294330000E+03 0.  0.
<mgrwt>
<rscale>  0 0.58502940E+03</rscale>
<asrwt>0</asrwt>
<pdfrwt beam="1">  1        2 0.39895927E+00 0.71582870E+03</pdfrwt>
<pdfrwt beam="2">  1       -2 0.33740008E-01 0.71582870E+03</pdfrwt>
<totfact> 0.26542656E+01</totfact>
</mgrwt>
</event>
<event>
 4    2  0.3388003E-007  0.1142600E+04  0.7818608E-02  0.9215046E-01
         -2   -1    0    0    0  501 -0.00000000000E+00  0.00000000000E+00  0.38633997874E+03  0.38633997875E+03  0.25500000000E-02 0.  1.
          2   -1    0    0  501    0  0.00000000000E+00 -0.00000000000E+00 -0.35779041463E+04  0.35779041463E+04  0.25500000000E-02 0. -1.
    8880023    1    1    2    0    0 -0.88703638220E+03  0.29135993063E+03 -0.80701038736E+03  0.13988567204E+04  0.65864270000E+03 0.  0.
    8880022    1    1    2    0    0  0.88703638220E+03 -0.29135993063E+03 -0.23845537802E+04  0.25653874047E+04  0.15294330000E+03 0.  0.
<mgrwt>
<rscale>  0 0.10899473E+04</rscale>
<asrwt>0</asrwt>
<pdfrwt beam="1">  1        2 0.55044677E+00 0.11425998E+04</pdfrwt>
<pdfrwt beam="2">  1       -2 0.59436922E-01 0.11425998E+04</pdfrwt>
<totfact> 0.19233628E+00</totfact>
</mgrwt>
</event>
<event>
 4    2  0.3388003E-007  0.1054560E+04  0.7818608E-02  0.9313420E-01
         -2   -1    0    0    0  501 -0.00000000000E+00  0.00000000000E+00  0.10909994236E+04  0.10909994236E+04  0.25500000000E-02 0.  1.
          2   -1    0    0  501    0  0.00000000000E+00 -0.00000000000E+00 -0.17773695107E+04  0.17773695107E+04  0.25500000000E-02 0. -1.
    8880023    1    1    2    0    0  0.31987973988E+03 -0.75892262720E+03  0.68778634922E+03  0.12590261596E+04  0.65864270000E+03 0.  0.
    8880022    1    1    2    0    0 -0.31987973988E+03  0.75892262720E+03 -0.13741564364E+04  0.16093427747E+04  0.15294330000E+03 0. -1.
<mgrwt>
<rscale>  0 0.99556753E+03</rscale>
<asrwt>0</asrwt>
<pdfrwt beam="1">  1        2 0.27344146E+00 0.10545600E+04</pdfrwt>
<pdfrwt beam="2">  1       -2 0.16784607E+00 0.10545600E+04</pdfrwt>
<totfact> 0.19376862E+00</totfact>
</mgrwt>
</event>
<event>
 4    2  0.3388003E-007  0.8045861E+03  0.7818608E-02  0.9700966E-01
         -2   -1    0    0    0  501 -0.00000000000E+00  0.00000000000E+00  0.82821357503E+03  0.82821357504E+03  0.25500000000E-02 0.  1.
          2   -1    0    0  501    0  0.00000000000E+00 -0.00000000000E+00 -0.60712973186E+03  0.60712973187E+03  0.25500000000E-02 0. -1.
    8880023    1    1    2    0    0 -0.64860950237E+02  0.45753867024E+03  0.42224165266E+03  0.90865108657E+03  0.65864270000E+03 0. -1.
    8880022    1    1    2    0    0  0.64860950237E+02 -0.45753867024E+03 -0.20115780948E+03  0.52669222033E+03  0.15294330000E+03 0.  0.
<mgrwt>
<rscale>  0 0.70959287E+03</rscale>
<asrwt>0</asrwt>
<pdfrwt beam="1">  1        2 0.93404574E-01 0.80458609E+03</pdfrwt>
<pdfrwt beam="2">  1       -2 0.12741747E+00 0.80458609E+03</pdfrwt>
<totfact> 0.22530123E+01</totfact>
</mgrwt>
</event>
<event>
 4    2  0.3388003E-007  0.8322127E+03  0.7818608E-02  0.9645042E-01
         -2   -1    0    0    0  501 -0.00000000000E+00  0.00000000000E+00  0.19352959004E+03  0.19352959006E+03  0.25500000000E-02 0.  1.
          2   -1    0    0  501    0  0.00000000000E+00 -0.00000000000E+00 -0.27192755347E+04  0.27192755347E+04  0.25500000000E-02 0. -1.
    8880023    1    1    2    0    0  0.32529454964E+03 -0.39108972777E+03 -0.10218741018E+04  0.13178788280E+04  0.65864270000E+03 0. -1.
    8880022    1    1    2    0    0 -0.32529454964E+03  0.39108972777E+03 -0.15038718429E+04  0.15949262967E+04  0.15294330000E+03 0.  0.
<mgrwt>
<rscale>  0 0.74385374E+03</rscale>
<asrwt>0</asrwt>
<pdfrwt beam="1">  1        2 0.41835006E+00 0.83221267E+03</pdfrwt>
<pdfrwt beam="2">  1       -2 0.29773785E-01 0.83221267E+03</pdfrwt>
<totfact> 0.27886738E+01</totfact>
</mgrwt>
</event>
<event>
 4    2  0.3388003E-007  0.6741219E+03  0.7818608E-02  0.1012866E+00
          2   -1    0    0  501    0  0.00000000000E+00  0.00000000000E+00  0.14495345142E+04  0.14495345142E+04  0.25500000000E-02 0. -1.
         -2   -1    0    0    0  501 -0.00000000000E+00 -0.00000000000E+00 -0.45198986653E+03  0.45198986654E+03  0.25500000000E-02 0.  1.
    8880023    1    1    2    0    0 -0.80573603858E+02  0.11890367932E+03 -0.18617170976E+03  0.69935706358E+03  0.65864270000E+03 0.  1.
    8880022    1    1    2    0    0  0.80573603858E+02 -0.11890367932E+03  0.11837163574E+04  0.12021673171E+04  0.15294330000E+03 0.  0.
<mgrwt>
<rscale>  0 0.50351496E+03</rscale>
<asrwt>0</asrwt>
<pdfrwt beam="1">  1        2 0.22300531E+00 0.67412195E+03</pdfrwt>
<pdfrwt beam="2">  1       -2 0.69536903E-01 0.67412195E+03</pdfrwt>
<totfact> 0.26395655E+01</totfact>
</mgrwt>
</event>
<event>
 4    2  0.3388003E-007  0.6958965E+03  0.7818608E-02  0.1001467E+00
         -2   -1    0    0    0  501 -0.00000000000E+00  0.00000000000E+00  0.73178864403E+03  0.73178864404E+03  0.25500000000E-02 0.  1.
          2   -1    0    0  501    0  0.00000000000E+00 -0.00000000000E+00 -0.13900025033E+04  0.13900025033E+04  0.25500000000E-02 0. -1.
    8880023    1    1    2    0    0 -0.15221023830E+03  0.16520833914E+03  0.54773626095E+03  0.88559977969E+03  0.65864270000E+03 0.  1.
    8880022    1    1    2    0    0  0.15221023830E+03 -0.16520833914E+03 -0.12059501202E+04  0.12361913676E+04  0.15294330000E+03 0.  0.
<mgrwt>
<rscale>  0 0.55011668E+03</rscale>
<asrwt>0</asrwt>
<pdfrwt beam="1">  1        2 0.21384654E+00 0.69589651E+03</pdfrwt>
<pdfrwt beam="2">  1       -2 0.11258287E+00 0.69589651E+03</pdfrwt>
<totfact> 0.93838648E+00</totfact>
</mgrwt>
</event>
<event>
 4    2  0.3388003E-007  0.9203759E+03  0.7818608E-02  0.9494083E-01
         -2   -1    0    0    0  501 -0.00000000000E+00  0.00000000000E+00  0.67628232360E+03  0.67628232361E+03  0.25500000000E-02 0.  1.
          2   -1    0    0  501    0  0.00000000000E+00 -0.00000000000E+00 -0.19424363630E+04  0.19424363630E+04  0.25500000000E-02 0. -1.
    8880023    1    1    2    0    0 -0.58938043047E+03 -0.25673391856E+03  0.25936779489E+03  0.95622353875E+03  0.65864270000E+03 0.  0.
    8880022    1    1    2    0    0  0.58938043047E+03  0.25673391856E+03 -0.15255218343E+04  0.16624951479E+04  0.15294330000E+03 0.  0.
<mgrwt>
<rscale>  0 0.84721474E+03</rscale>
<asrwt>0</asrwt>
<pdfrwt beam="1">  1        2 0.29883636E+00 0.92037590E+03</pdfrwt>
<pdfrwt beam="2">  1       -2 0.10404344E+00 0.92037590E+03</pdfrwt>
<totfact> 0.54553078E+00</totfact>
</mgrwt>
</event>
<event>
 4    2  0.3388003E-007  0.1342071E+04  0.7818608E-02  0.9030055E-01
          2   -1    0    0  501    0  0.00000000000E+00  0.00000000000E+00  0.40726334017E+04  0.40726334017E+04  0.25500000000E-02 0. -1.
         -2   -1    0    0    0  501 -0.00000000000E+00 -0.00000000000E+00 -0.87860598878E+03  0.87860598878E+03  0.25500000000E-02 0.  1.
    8880023    1    1    2    0    0  0.21809822030E+03  0.11488151421E+04 -0.20116958094E+03  0.13570639156E+04  0.65864270000E+03 0.  1.
    8880022    1    1    2    0    0 -0.21809822030E+03 -0.11488151421E+04  0.33951969939E+04  0.35941754750E+04  0.15294330000E+03 0.  0.
<mgrwt>
<rscale>  0 0.12993826E+04</rscale>
<asrwt>0</asrwt>
<pdfrwt beam="1">  1        2 0.62655899E+00 0.13420705E+04</pdfrwt>
<pdfrwt beam="2">  1       -2 0.13517015E+00 0.13420705E+04</pdfrwt>
<totfact> 0.11584382E-01</totfact>
</mgrwt>
</event>
<event>
 4    2  0.3388003E-007  0.6763101E+03  0.7818608E-02  0.1011493E+00
         -2   -1    0    0    0  501 -0.00000000000E+00  0.00000000000E+00  0.91541891967E+03  0.91541891967E+03  0.25500000000E-02 0.  1.
          2   -1    0    0  501    0  0.00000000000E+00 -0.00000000000E+00 -0.64395223059E+03  0.64395223060E+03  0.25500000000E-02 0. -1.
    8880023    1    1    2    0    0  0.79701322591E+02  0.13127416194E+03  0.76455218249E+03  0.10207523953E+04  0.65864270000E+03 0.  1.
    8880022    1    1    2    0    0 -0.79701322591E+02 -0.13127416194E+03 -0.49308549342E+03  0.53861875501E+03  0.15294330000E+03 0.  0.
<mgrwt>
<rscale>  0 0.50885603E+03</rscale>
<asrwt>0</asrwt>
<pdfrwt beam="1">  1        2 0.99069574E-01 0.67631015E+03</pdfrwt>
<pdfrwt beam="2">  1       -2 0.14083368E+00 0.67631015E+03</pdfrwt>
<totfact> 0.16436819E+01</totfact>
</mgrwt>
</event>
<event>
 4    2  0.3388003E-007  0.1241236E+04  0.7818608E-02  0.9118045E-01
          2   -1    0    0  501    0  0.00000000000E+00  0.00000000000E+00  0.13921708317E+04  0.13921708317E+04  0.25500000000E-02 0. -1.
         -2   -1    0    0    0  501 -0.00000000000E+00 -0.00000000000E+00 -0.16754070806E+04  0.16754070806E+04  0.25500000000E-02 0.  1.
    8880023    1    1    2    0    0 -0.43380257260E+03 -0.95847334804E+03 -0.11528957729E+04  0.16940586472E+04  0.65864270000E+03 0.  0.
    8880022    1    1    2    0    0  0.43380257260E+03  0.95847334804E+03  0.86965952393E+03  0.13735192651E+04  0.15294330000E+03 0.  0.
<mgrwt>
<rscale>  0 0.11940909E+04</rscale>
<asrwt>0</asrwt>
<pdfrwt beam="1">  1        2 0.21418013E+00 0.12412357E+04</pdfrwt>
<pdfrwt beam="2">  1       -2 0.25775494E+00 0.12412357E+04</pdfrwt>
<totfact> 0.81469252E-01</totfact>
</mgrwt>
</event>
<event>
 4    2  0.3388003E-007  0.6666846E+03  0.7818608E-02  0.1018160E+00
         -2   -1    0    0    0  501 -0.00000000000E+00  0.00000000000E+00  0.13693089564E+04  0.13693089564E+04  0.25500000000E-02 0.  1.
          2   -1    0    0  501    0  0.00000000000E+00 -0.00000000000E+00 -0.31468530363E+03  0.31468530364E+03  0.25500000000E-02 0. -1.
    8880023    1    1    2    0    0 -0.46016798844E+02  0.92415121479E+02  0.12491161204E+04  0.14158952606E+04  0.65864270000E+03 0.  1.
    8880022    1    1    2    0    0  0.46016798844E+02 -0.92415121479E+02 -0.19449246772E+03  0.26809899938E+03  0.15294330000E+03 0.  0.
<mgrwt>
<rscale>  0 0.48356465E+03</rscale>
<asrwt>0</asrwt>
<pdfrwt beam="1">  1        2 0.48413124E-01 0.66668456E+03</pdfrwt>
<pdfrwt beam="2">  1       -2 0.21066291E+00 0.66668456E+03</pdfrwt>
<totfact> 0.12135200E+01</totfact>
</mgrwt>
</event>
<event>
 4    2  0.3388003E-007  0.7012860E+03  0.7818608E-02  0.9991908E-01
          2   -1    0    0  501    0  0.00000000000E+00  0.00000000000E+00  0.29148926625E+03  0.29148926626E+03  0.25500000000E-02 0. -1.
         -2   -1    0    0    0  501 -0.00000000000E+00 -0.00000000000E+00 -0.83645583658E+03  0.83645583658E+03  0.25500000000E-02 0.  1.
    8880023    1    1    2    0    0  0.84916091715E+02  0.22534650250E+03 -0.41010137688E+03  0.81239469127E+03  0.65864270000E+03 0.  1.
    8880022    1    1    2    0    0 -0.84916091715E+02 -0.22534650250E+03 -0.13486519345E+03  0.31555041157E+03  0.15294330000E+03 0. -1.
<mgrwt>
<rscale>  0 0.56006491E+03</rscale>
<asrwt>0</asrwt>
<pdfrwt beam="1">  1        2 0.44844503E-01 0.70128596E+03</pdfrwt>
<pdfrwt beam="2">  1       -2 0.12868551E+00 0.70128596E+03</pdfrwt>
<totfact> 0.51200400E+01</totfact>
</mgrwt>
</event>
<event>
 4    2  0.3388003E-007  0.6724979E+03  0.7818608E-02  0.1013932E+00
          2   -1    0    0  501    0  0.00000000000E+00  0.00000000000E+00  0.15157586754E+04  0.15157586754E+04  0.25500000000E-02 0. -1.
         -2   -1    0    0    0  501 -0.00000000000E+00 -0.00000000000E+00 -0.27838728297E+03  0.27838728298E+03  0.25500000000E-02 0.  1.
    8880023    1    1    2    0    0  0.10524159722E+03  0.85833944064E+02  0.15172613001E+03  0.68940139580E+03  0.65864270000E+03 0.  1.
    8880022    1    1    2    0    0 -0.10524159722E+03 -0.85833944064E+02  0.10856452624E+04  0.11047445626E+04  0.15294330000E+03 0.  0.
<mgrwt>
<rscale>  0 0.49941384E+03</rscale>
<asrwt>0</asrwt>
<pdfrwt beam="1">  1        2 0.23319364E+00 0.67249793E+03</pdfrwt>
<pdfrwt beam="2">  1       -2 0.42828813E-01 0.67249793E+03</pdfrwt>
<totfact> 0.66146497E+01</totfact>
</mgrwt>
</event>
<event>
 4    2  0.3388003E-007  0.6749585E+03  0.7818608E-02  0.1012332E+00
          2   -1    0    0  501    0  0.00000000000E+00  0.00000000000E+00  0.12138777389E+04  0.12138777389E+04  0.25500000000E-02 0. -1.
         -2   -1    0    0    0  501 -0.00000000000E+00 -0.00000000000E+00 -0.41534415849E+03  0.41534415850E+03  0.25500000000E-02 0.  1.
    8880023    1    1    2    0    0 -0.13624285444E+03  0.56538444432E+02 -0.12077260814E+03  0.68567845250E+03  0.65864270000E+03 0.  1.
    8880022    1    1    2    0    0  0.13624285444E+03 -0.56538444432E+02  0.91930618852E+03  0.94354344487E+03  0.15294330000E+03 0.  0.
<mgrwt>
<rscale>  0 0.50558064E+03</rscale>
<asrwt>0</asrwt>
<pdfrwt beam="1">  1        2 0.18675042E+00 0.67495846E+03</pdfrwt>
<pdfrwt beam="2">  1       -2 0.63899102E-01 0.67495846E+03</pdfrwt>
<totfact> 0.43186165E+01</totfact>
</mgrwt>
</event>
<event>
 4    2  0.3388003E-007  0.6651417E+03  0.7818608E-02  0.1019415E+00
          2   -1    0    0  501    0  0.00000000000E+00  0.00000000000E+00  0.37910404083E+03  0.37910404083E+03  0.25500000000E-02 0. -1.
         -2   -1    0    0    0  501 -0.00000000000E+00 -0.00000000000E+00 -0.14875314164E+04  0.14875314164E+04  0.25500000000E-02 0.  1.
    8880023    1    1    2    0    0  0.80889759529E+02  0.45387878147E+02 -0.13854734538E+04  0.15368637253E+04  0.65864270000E+03 0.  1.
    8880022    1    1    2    0    0 -0.80889759529E+02 -0.45387878147E+02  0.27704607825E+03  0.32977173192E+03  0.15294330000E+03 0.  0.
<mgrwt>
<rscale>  0 0.47898360E+03</rscale>
<asrwt>0</asrwt>
<pdfrwt beam="1">  1        2 0.58323699E-01 0.66514165E+03</pdfrwt>
<pdfrwt beam="2">  1       -2 0.22885098E+00 0.66514165E+03</pdfrwt>
<totfact> 0.75934622E+00</totfact>
</mgrwt>
</event>
<event>
 4    2  0.3388003E-007  0.7870390E+03  0.7818608E-02  0.9739555E-01
          2   -1    0    0  501    0  0.00000000000E+00  0.00000000000E+00  0.76348815599E+03  0.76348815599E+03  0.25500000000E-02 0. -1.
         -2   -1    0    0    0  501 -0.00000000000E+00 -0.00000000000E+00 -0.13518714618E+04  0.13518714618E+04  0.25500000000E-02 0.  1.
    8880023    1    1    2    0    0 -0.43083400707E+03 -0.14786388132E+01 -0.11485351876E+04  0.13923230270E+04  0.65864270000E+03 0.  1.
    8880022    1    1    2    0    0  0.43083400707E+03  0.14786388132E+01  0.56015188177E+03  0.72303659084E+03  0.15294330000E+03 0.  0.
<mgrwt>
<rscale>  0 0.68709774E+03</rscale>
<asrwt>0</asrwt>
<pdfrwt beam="1">  1        2 0.11745972E+00 0.78703897E+03</pdfrwt>
<pdfrwt beam="2">  1       -2 0.20798023E+00 0.78703897E+03</pdfrwt>
<totfact> 0.44004732E+00</totfact>
</mgrwt>
</event>
<event>
 4    2  0.3388003E-007  0.1074642E+04  0.7818608E-02  0.9289829E-01
          2   -1    0    0  501    0  0.00000000000E+00  0.00000000000E+00  0.71573297055E+03  0.71573297056E+03  0.25500000000E-02 0. -1.
         -2   -1    0    0    0  501 -0.00000000000E+00 -0.00000000000E+00 -0.14910914792E+04  0.14910914792E+04  0.25500000000E-02 0.  1.
    8880023    1    1    2    0    0 -0.18932961281E+03 -0.82776743432E+03 -0.43651185400E+02  0.10755278982E+04  0.65864270000E+03 0. -1.
    8880022    1    1    2    0    0  0.18932961281E+03  0.82776743432E+03 -0.73170732323E+03  0.11312965515E+04  0.15294330000E+03 0.  0.
<mgrwt>
<rscale>  0 0.10172465E+04</rscale>
<asrwt>0</asrwt>
<pdfrwt beam="1">  1        2 0.11011277E+00 0.10746417E+04</pdfrwt>
<pdfrwt beam="2">  1       -2 0.22939869E+00 0.10746417E+04</pdfrwt>
<totfact> 0.33946254E+00</totfact>
</mgrwt>
</event>
<event>
 4    2  0.3388003E-007  0.6870480E+03  0.7818608E-02  0.1005588E+00
          2   -1    0    0  501    0  0.00000000000E+00  0.00000000000E+00  0.16199502552E+04  0.16199502552E+04  0.25500000000E-02 0. -1.
         -2   -1    0    0    0  501 -0.00000000000E+00 -0.00000000000E+00 -0.21548982835E+03  0.21548982837E+03  0.25500000000E-02 0.  1.
    8880023    1    1    2    0    0 -0.89636834605E+02  0.17375248901E+03  0.38784869306E+03  0.78896229601E+03  0.65864270000E+03 0.  1.
    8880022    1    1    2    0    0  0.89636834605E+02 -0.17375248901E+03  0.10166117338E+04  0.10464777876E+04  0.15294330000E+03 0.  0.
<mgrwt>
<rscale>  0 0.53266269E+03</rscale>
<asrwt>0</asrwt>
<pdfrwt beam="1">  1        2 0.24922311E+00 0.68704796E+03</pdfrwt>
<pdfrwt beam="2">  1       -2 0.33152282E-01 0.68704796E+03</pdfrwt>
<totfact> 0.94782497E+01</totfact>
</mgrwt>
</event>
<event>
 4    2  0.3388003E-007  0.7537147E+03  0.7818608E-02  0.9821660E-01
          2   -1    0    0  501    0  0.00000000000E+00  0.00000000000E+00  0.10119650454E+04  0.10119650454E+04  0.25500000000E-02 0. -1.
         -2   -1    0    0    0  501 -0.00000000000E+00 -0.00000000000E+00 -0.37229994188E+03  0.37229994189E+03  0.25500000000E-02 0.  1.
    8880023    1    1    2    0    0 -0.23334013736E+03 -0.28253857914E+03  0.17633603217E+03  0.77406735554E+03  0.65864270000E+03 0. -1.
    8880022    1    1    2    0    0  0.23334013736E+03  0.28253857914E+03  0.46332907131E+03  0.61019763171E+03  0.15294330000E+03 0.  0.
<mgrwt>
<rscale>  0 0.64213000E+03</rscale>
<asrwt>0</asrwt>
<pdfrwt beam="1">  1        2 0.15568693E+00 0.75371472E+03</pdfrwt>
<pdfrwt beam="2">  1       -2 0.57276915E-01 0.75371472E+03</pdfrwt>
<totfact> 0.71705128E+01</totfact>
</mgrwt>
</event>
<event>
 4    2  0.3388003E-007  0.8469037E+03  0.7818608E-02  0.9617298E-01
          2   -1    0    0  501    0  0.00000000000E+00  0.00000000000E+00  0.11166981753E+04  0.11166981753E+04  0.25500000000E-02 0. -1.
         -2   -1    0    0    0  501 -0.00000000000E+00 -0.00000000000E+00 -0.47521327748E+03  0.47521327749E+03  0.25500000000E-02 0.  1.
    8880023    1    1    2    0    0  0.46070610513E+03 -0.26680636504E+03  0.16844545045E+03  0.86349280702E+03  0.65864270000E+03 0.  0.
    8880022    1    1    2    0    0 -0.46070610513E+03  0.26680636504E+03  0.47303944734E+03  0.72841864576E+03  0.15294330000E+03 0.  0.
<mgrwt>
<rscale>  0 0.76161819E+03</rscale>
<asrwt>0</asrwt>
<pdfrwt beam="1">  1        2 0.17179972E+00 0.84690375E+03</pdfrwt>
<pdfrwt beam="2">  1       -2 0.73109736E-01 0.84690375E+03</pdfrwt>
<totfact> 0.36248053E+01</totfact>
</mgrwt>
</event>
<event>
 4    2  0.3388003E-007  0.1108055E+04  0.7818608E-02  0.9252140E-01
         -2   -1    0    0    0  501 -0.00000000000E+00  0.00000000000E+00  0.12058359312E+04  0.12058359312E+04  0.25500000000E-02 0.  1.
          2   -1    0    0  501    0  0.00000000000E+00 -0.00000000000E+00 -0.13367714109E+04  0.13367714109E+04  0.25500000000E-02 0. -1.
    8880023    1    1    2    0    0  0.85885302509E+03 -0.23737653070E+03  0.70332392970E+03  0.13124217662E+04  0.65864270000E+03 0.  1.
    8880022    1    1    2    0    0 -0.85885302509E+03  0.23737653070E+03 -0.83425940934E+03  0.12301855759E+04  0.15294330000E+03 0. -1.
<mgrwt>
<rscale>  0 0.10531088E+04</rscale>
<asrwt>0</asrwt>
<pdfrwt beam="1">  1        2 0.20565714E+00 0.11080552E+04</pdfrwt>
<pdfrwt beam="2">  1       -2 0.18551322E+00 0.11080552E+04</pdfrwt>
<totfact> 0.25630794E+00</totfact>
</mgrwt>
</event>
<event>
 4    2  0.3388003E-007  0.7480402E+03  0.7818608E-02  0.9837116E-01
         -2   -1    0    0    0  501 -0.00000000000E+00  0.00000000000E+00  0.65202761109E+03  0.65202761110E+03  0.25500000000E-02 0.  1.
          2   -1    0    0  501    0  0.00000000000E+00 -0.00000000000E+00 -0.13654174289E+04  0.13654174289E+04  0.25500000000E-02 0. -1.
    8880023    1    1    2    0    0 -0.24446709409E+03  0.25688488930E+03  0.39342359767E+03  0.84519012057E+03  0.65864270000E+03 0. -1.
    8880022    1    1    2    0    0  0.24446709409E+03 -0.25688488930E+03 -0.11068134155E+04  0.11722549194E+04  0.15294330000E+03 0.  0.
<mgrwt>
<rscale>  0 0.63408145E+03</rscale>
<asrwt>0</asrwt>
<pdfrwt beam="1">  1        2 0.21006422E+00 0.74804025E+03</pdfrwt>
<pdfrwt beam="2">  1       -2 0.10031194E+00 0.74804025E+03</pdfrwt>
<totfact> 0.12697874E+01</totfact>
</mgrwt>
</event>
<event>
 4    2  0.3388003E-007  0.6979833E+03  0.7818608E-02  0.1000567E+00
          2   -1    0    0  501    0  0.00000000000E+00  0.00000000000E+00  0.52642270093E+03  0.52642270094E+03  0.25500000000E-02 0. -1.
         -2   -1    0    0    0  501 -0.00000000000E+00 -0.00000000000E+00 -0.66569647860E+03  0.66569647861E+03  0.25500000000E-02 0.  1.
    8880023    1    1    2    0    0 -0.13635458561E+03 -0.18648845066E+03 -0.40604965303E+03  0.80750049054E+03  0.65864270000E+03 0.  1.
    8880022    1    1    2    0    0  0.13635458561E+03  0.18648845066E+03  0.26677587535E+03  0.38461868900E+03  0.15294330000E+03 0.  0.
<mgrwt>
<rscale>  0 0.55402223E+03</rscale>
<asrwt>0</asrwt>
<pdfrwt beam="1">  1        2 0.80988108E-01 0.69798332E+03</pdfrwt>
<pdfrwt beam="2">  1       -2 0.10241484E+00 0.69798332E+03</pdfrwt>
<totfact> 0.45954366E+01</totfact>
</mgrwt>
</event>
<event>
 4    2  0.3388003E-007  0.8886105E+03  0.7818608E-02  0.9544568E-01
          2   -1    0    0  501    0  0.00000000000E+00  0.00000000000E+00  0.26422258635E+04  0.26422258635E+04  0.25500000000E-02 0. -1.
         -2   -1    0    0    0  501 -0.00000000000E+00 -0.00000000000E+00 -0.29283920184E+03  0.29283920185E+03  0.25500000000E-02 0.  1.
    8880023    1    1    2    0    0 -0.33863488287E+03 -0.49106492404E+03  0.57890275413E+03  0.10605455900E+04  0.65864270000E+03 0.  0.
    8880022    1    1    2    0    0  0.33863488287E+03  0.49106492404E+03  0.17704839076E+04  0.18745194754E+04  0.15294330000E+03 0.  0.
<mgrwt>
<rscale>  0 0.81076229E+03</rscale>
<asrwt>0</asrwt>
<pdfrwt beam="1">  1        2 0.40649627E+00 0.88861046E+03</pdfrwt>
<pdfrwt beam="2">  1       -2 0.45052187E-01 0.88861046E+03</pdfrwt>
<totfact> 0.13824715E+01</totfact>
</mgrwt>
</event>
<event>
 4    2  0.4770337E-007  0.1067129E+04  0.7818608E-02  0.9298568E-01
         -2   -1    0    0    0  501 -0.00000000000E+00  0.00000000000E+00  0.12015755740E+04  0.12015755740E+04  0.25500000000E-02 0.  1.
          2   -1    0    0  501    0  0.00000000000E+00 -0.00000000000E+00 -0.28460546964E+04  0.28460546964E+04  0.25500000000E-02 0. -1.
    8880023    1    1    2    0    0 -0.12086057973E+03  0.83087068062E+03  0.87976304277E+03  0.13830208188E+04  0.65864270000E+03 0.  0.
    8880022    1    1    2    0    0  0.12086057973E+03 -0.83087068062E+03 -0.25242421652E+04  0.26646094515E+04  0.15294330000E+03 0.  0.
<mgrwt>
<rscale>  0 0.10091477E+04</rscale>
<asrwt>0</asrwt>
<pdfrwt beam="1">  1        2 0.43785457E+00 0.10671287E+04</pdfrwt>
<pdfrwt beam="2">  1       -2 0.18485778E+00 0.10671287E+04</pdfrwt>
<totfact> 0.36458630E-01</totfact>
</mgrwt>
</event>
<event>
 4    2  0.3388003E-007  0.8804235E+03  0.7818608E-02  0.9558218E-01
         -2   -1    0    0    0  501 -0.00000000000E+00  0.00000000000E+00  0.15250853081E+03  0.15250853083E+03  0.25500000000E-02 0.  1.
          2   -1    0    0  501    0  0.00000000000E+00 -0.00000000000E+00 -0.36696838351E+04  0.36696838351E+04  0.25500000000E-02 0. -1.
    8880023    1    1    2    0    0 -0.53169607855E+03  0.24214577296E+03 -0.18450214413E+04  0.20443213104E+04  0.65864270000E+03 0.  1.
    8880022    1    1    2    0    0  0.53169607855E+03 -0.24214577296E+03 -0.16721538631E+04  0.17778710555E+04  0.15294330000E+03 0. -1.
<mgrwt>
<rscale>  0 0.80124382E+03</rscale>
<asrwt>0</asrwt>
<pdfrwt beam="1">  1        2 0.56456668E+00 0.88042348E+03</pdfrwt>
<pdfrwt beam="2">  1       -2 0.23462854E-01 0.88042348E+03</pdfrwt>
<totfact> 0.10480322E+01</totfact>
</mgrwt>
</event>
<event>
 4    2  0.3388003E-007  0.7867401E+03  0.7818608E-02  0.9740236E-01
          2   -1    0    0  501    0  0.00000000000E+00  0.00000000000E+00  0.94598671016E+03  0.94598671016E+03  0.25500000000E-02 0. -1.
         -2   -1    0    0    0  501 -0.00000000000E+00 -0.00000000000E+00 -0.46876620169E+03  0.46876620170E+03  0.25500000000E-02 0.  1.
    8880023    1    1    2    0    0 -0.25451202075E+03  0.34694872033E+03  0.48264701022E+02  0.78821917693E+03  0.65864270000E+03 0.  0.
    8880022    1    1    2    0    0  0.25451202075E+03 -0.34694872033E+03  0.42895580745E+03  0.62653373493E+03  0.15294330000E+03 0.  0.
<mgrwt>
<rscale>  0 0.68670864E+03</rscale>
<asrwt>0</asrwt>
<pdfrwt beam="1">  1        2 0.14553642E+00 0.78674010E+03</pdfrwt>
<pdfrwt beam="2">  1       -2 0.72117878E-01 0.78674010E+03</pdfrwt>
<totfact> 0.48129868E+01</totfact>
</mgrwt>
</event>
<event>
 4    2  0.3388003E-007  0.9458443E+03  0.7818608E-02  0.9456119E-01
         -2   -1    0    0    0  501 -0.00000000000E+00  0.00000000000E+00  0.55024529718E+03  0.55024529718E+03  0.25500000000E-02 0.  1.
          2   -1    0    0  501    0  0.00000000000E+00 -0.00000000000E+00 -0.15459569824E+04  0.15459569824E+04  0.25500000000E-02 0. -1.
    8880023    1    1    2    0    0 -0.54993024616E+03 -0.39797983933E+03 -0.84400418279E+02  0.94960247737E+03  0.65864270000E+03 0.  1.
    8880022    1    1    2    0    0  0.54993024616E+03  0.39797983933E+03 -0.91131126692E+03  0.11465998022E+04  0.15294330000E+03 0.  0.
<mgrwt>
<rscale>  0 0.87597792E+03</rscale>
<asrwt>0</asrwt>
<pdfrwt beam="1">  1        2 0.23783953E+00 0.94584430E+03</pdfrwt>
<pdfrwt beam="2">  1       -2 0.84653123E-01 0.94584430E+03</pdfrwt>
<totfact> 0.14579045E+01</totfact>
</mgrwt>
</event>
<event>
 4    2  0.3388003E-007  0.7860985E+03  0.7818608E-02  0.9741702E-01
         -2   -1    0    0    0  501 -0.00000000000E+00  0.00000000000E+00  0.68503633564E+03  0.68503633564E+03  0.25500000000E-02 0.  1.
          2   -1    0    0  501    0  0.00000000000E+00 -0.00000000000E+00 -0.15713339463E+04  0.15713339463E+04  0.25500000000E-02 0. -1.
    8880023    1    1    2    0    0 -0.39874583750E+03  0.15856379796E+03  0.40698037759E+03  0.88520277618E+03  0.65864270000E+03 0.  1.
    8880022    1    1    2    0    0  0.39874583750E+03 -0.15856379796E+03 -0.12932779882E+04  0.13711675057E+04  0.15294330000E+03 0.  0.
<mgrwt>
<rscale>  0 0.68587264E+03</rscale>
<asrwt>0</asrwt>
<pdfrwt beam="1">  1        2 0.24174368E+00 0.78609855E+03</pdfrwt>
<pdfrwt beam="2">  1       -2 0.10539021E+00 0.78609855E+03</pdfrwt>
<totfact> 0.86089653E+00</totfact>
</mgrwt>
</event>
<event>
 4    2  0.3388003E-007  0.6705859E+03  0.7818608E-02  0.1015246E+00
         -2   -1    0    0    0  501 -0.00000000000E+00  0.00000000000E+00  0.45019963359E+03  0.45019963360E+03  0.25500000000E-02 0.  1.
          2   -1    0    0  501    0  0.00000000000E+00 -0.00000000000E+00 -0.90037023476E+03  0.90037023476E+03  0.25500000000E-02 0. -1.
    8880023    1    1    2    0    0  0.12540775530E+03  0.12169501832E+02  0.17640994777E+03  0.69340167133E+03  0.65864270000E+03 0.  1.
    8880022    1    1    2    0    0 -0.12540775530E+03 -0.12169501832E+02 -0.62658054894E+03  0.65716819703E+03  0.15294330000E+03 0.  0.
<mgrwt>
<rscale>  0 0.49441776E+03</rscale>
<asrwt>0</asrwt>
<pdfrwt beam="1">  1        2 0.13851850E+00 0.67058587E+03</pdfrwt>
<pdfrwt beam="2">  1       -2 0.69261482E-01 0.67058587E+03</pdfrwt>
<totfact> 0.56934144E+01</totfact>
</mgrwt>
</event>
<event>
 4    2  0.3388003E-007  0.8813920E+03  0.7818608E-02  0.9556589E-01
         -2   -1    0    0    0  501 -0.00000000000E+00  0.00000000000E+00  0.85257587542E+03  0.85257587543E+03  0.25500000000E-02 0.  1.
          2   -1    0    0  501    0  0.00000000000E+00 -0.00000000000E+00 -0.14552020270E+04  0.14552020270E+04  0.25500000000E-02 0. -1.
    8880023    1    1    2    0    0 -0.46093789454E+03 -0.36135558177E+03  0.52646497557E+03  0.10266533864E+04  0.65864270000E+03 0.  0.
    8880022    1    1    2    0    0  0.46093789454E+03  0.36135558177E+03 -0.11290911272E+04  0.12811245160E+04  0.15294330000E+03 0.  0.
<mgrwt>
<rscale>  0 0.80237276E+03</rscale>
<asrwt>0</asrwt>
<pdfrwt beam="1">  1        2 0.22387723E+00 0.88139197E+03</pdfrwt>
<pdfrwt beam="2">  1       -2 0.13116552E+00 0.88139197E+03</pdfrwt>
<totfact> 0.57526422E+00</totfact>
</mgrwt>
</event>
<event>
 4    2  0.3388003E-007  0.1161844E+04  0.7818608E-02  0.9195135E-01
          2   -1    0    0  501    0  0.00000000000E+00  0.00000000000E+00  0.15350908286E+04  0.15350908286E+04  0.25500000000E-02 0. -1.
         -2   -1    0    0    0  501 -0.00000000000E+00 -0.00000000000E+00 -0.12150480966E+04  0.12150480966E+04  0.25500000000E-02 0.  1.
    8880023    1    1    2    0    0 -0.92071956226E+03 -0.26143433167E+03 -0.68916749733E+03  0.13508643410E+04  0.65864270000E+03 0.  0.
    8880022    1    1    2    0    0  0.92071956226E+03  0.26143433167E+03  0.10092102294E+04  0.13992745843E+04  0.15294330000E+03 0.  0.
<mgrwt>
<rscale>  0 0.11103785E+04</rscale>
<asrwt>0</asrwt>
<pdfrwt beam="1">  1        2 0.23616782E+00 0.11618445E+04</pdfrwt>
<pdfrwt beam="2">  1       -2 0.18693048E+00 0.11618445E+04</pdfrwt>
<totfact> 0.19208777E+00</totfact>
</mgrwt>
</event>
<event>
 4    2  0.3388003E-007  0.8471065E+03  0.7818608E-02  0.9616923E-01
         -2   -1    0    0    0  501 -0.00000000000E+00  0.00000000000E+00  0.43571534374E+03  0.43571534375E+03  0.25500000000E-02 0.  1.
          2   -1    0    0  501    0  0.00000000000E+00 -0.00000000000E+00 -0.17166855540E+04  0.17166855540E+04  0.25500000000E-02 0. -1.
    8880023    1    1    2    0    0  0.40270446486E+03  0.34872384406E+03 -0.10656014179E+03  0.85378245210E+03  0.65864270000E+03 0.  1.
    8880022    1    1    2    0    0 -0.40270446486E+03 -0.34872384406E+03 -0.11744100684E+04  0.12986184456E+04  0.15294330000E+03 0.  0.
<mgrwt>
<rscale>  0 0.76186147E+03</rscale>
<asrwt>0</asrwt>
<pdfrwt beam="1">  1        2 0.26410547E+00 0.84710649E+03</pdfrwt>
<pdfrwt beam="2">  1       -2 0.67033131E-01 0.84710649E+03</pdfrwt>
<totfact> 0.19922377E+01</totfact>
</mgrwt>
</event>
<event>
 4    2  0.3388003E-007  0.6742709E+03  0.7818608E-02  0.1012770E+00
         -2   -1    0    0    0  501 -0.00000000000E+00  0.00000000000E+00  0.45919052822E+03  0.45919052822E+03  0.25500000000E-02 0.  1.
          2   -1    0    0  501    0  0.00000000000E+00 -0.00000000000E+00 -0.61227007912E+03  0.61227007913E+03  0.25500000000E-02 0. -1.
    8880023    1    1    2    0    0 -0.14291704421E+03 -0.20144410629E+02  0.16123964655E+03  0.69328169505E+03  0.65864270000E+03 0.  1.
    8880022    1    1    2    0    0  0.14291704421E+03  0.20144410629E+02 -0.31431919746E+03  0.37817891230E+03  0.15294330000E+03 0. -1.
<mgrwt>
<rscale>  0 0.50388511E+03</rscale>
<asrwt>0</asrwt>
<pdfrwt beam="1">  1        2 0.94195397E-01 0.67427093E+03</pdfrwt>
<pdfrwt beam="2">  1       -2 0.70644696E-01 0.67427093E+03</pdfrwt>
<totfact> 0.89626961E+01</totfact>
</mgrwt>
</event>
<event>
 4    2  0.3388003E-007  0.7215715E+03  0.7818608E-02  0.9917304E-01
         -2   -1    0    0    0  501 -0.00000000000E+00  0.00000000000E+00  0.12757023845E+03  0.12757023848E+03  0.25500000000E-02 0.  1.
          2   -1    0    0  501    0  0.00000000000E+00 -0.00000000000E+00 -0.30237795180E+04  0.30237795180E+04  0.25500000000E-02 0. -1.
    8880023    1    1    2    0    0 -0.80949928024E+02 -0.28337660902E+03 -0.10407911917E+04  0.12664563570E+04  0.65864270000E+03 0.  0.
    8880022    1    1    2    0    0  0.80949928024E+02  0.28337660902E+03 -0.18554180878E+04  0.18848933994E+04  0.15294330000E+03 0.  0.
<mgrwt>
<rscale>  0 0.59429940E+03</rscale>
<asrwt>0</asrwt>
<pdfrwt beam="1">  1        2 0.46519679E+00 0.72157148E+03</pdfrwt>
<pdfrwt beam="2">  1       -2 0.19626193E-01 0.72157148E+03</pdfrwt>
<totfact> 0.39393569E+01</totfact>
</mgrwt>
</event>
<event>
 4    2  0.3388003E-007  0.8189601E+03  0.7818608E-02  0.9671207E-01
          2   -1    0    0  501    0  0.00000000000E+00  0.00000000000E+00  0.10508663576E+04  0.10508663576E+04  0.25500000000E-02 0. -1.
         -2   -1    0    0    0  501 -0.00000000000E+00 -0.00000000000E+00 -0.72148368343E+03  0.72148368343E+03  0.25500000000E-02 0.  1.
    8880023    1    1    2    0    0 -0.86975067335E+02  0.47887444328E+03 -0.37653654451E+03  0.90137415671E+03  0.65864270000E+03 0.  0.
    8880022    1    1    2    0    0  0.86975067335E+02 -0.47887444328E+03  0.70591921867E+03  0.87097588432E+03  0.15294330000E+03 0.  0.
<mgrwt>
<rscale>  0 0.72757293E+03</rscale>
<asrwt>0</asrwt>
<pdfrwt beam="1">  1        2 0.16167175E+00 0.81896007E+03</pdfrwt>
<pdfrwt beam="2">  1       -2 0.11099749E+00 0.81896007E+03</pdfrwt>
<totfact> 0.15176809E+01</totfact>
</mgrwt>
</event>
<event>
 4    2  0.3388003E-007  0.7063927E+03  0.7818608E-02  0.9971648E-01
          2   -1    0    0  501    0  0.00000000000E+00  0.00000000000E+00  0.39611744150E+03  0.39611744151E+03  0.25500000000E-02 0. -1.
         -2   -1    0    0    0  501 -0.00000000000E+00 -0.00000000000E+00 -0.13806161387E+04  0.13806161387E+04  0.25500000000E-02 0.  1.
    8880023    1    1    2    0    0  0.19646990261E+03 -0.16303391440E+03 -0.12115224014E+04  0.14024183453E+04  0.65864270000E+03 0.  1.
    8880022    1    1    2    0    0 -0.19646990261E+03  0.16303391440E+03  0.22702370414E+03  0.37431523497E+03  0.15294330000E+03 0.  0.
<mgrwt>
<rscale>  0 0.56911077E+03</rscale>
<asrwt>0</asrwt>
<pdfrwt beam="1">  1        2 0.60941146E-01 0.70639273E+03</pdfrwt>
<pdfrwt beam="2">  1       -2 0.21240248E+00 0.70639273E+03</pdfrwt>
<totfact> 0.91112575E+00</totfact>
</mgrwt>
</event>
<event>
 4    2  0.3388003E-007  0.7423714E+03  0.7818608E-02  0.9853093E-01
         -2   -1    0    0    0  501 -0.00000000000E+00  0.00000000000E+00  0.78605820768E+03  0.78605820769E+03  0.25500000000E-02 0.  1.
          2   -1    0    0  501    0  0.00000000000E+00 -0.00000000000E+00 -0.11185438316E+04  0.11185438316E+04  0.25500000000E-02 0. -1.
    8880023    1    1    2    0    0  0.23859849544E+03 -0.24571486627E+03  0.56432290194E+03  0.93251036533E+03  0.65864270000E+03 0.  1.
    8880022    1    1    2    0    0 -0.23859849544E+03  0.24571486627E+03 -0.89680852582E+03  0.97209167393E+03  0.15294330000E+03 0.  0.
<mgrwt>
<rscale>  0 0.62589487E+03</rscale>
<asrwt>0</asrwt>
<pdfrwt beam="1">  1        2 0.17208367E+00 0.74237137E+03</pdfrwt>
<pdfrwt beam="2">  1       -2 0.12093203E+00 0.74237137E+03</pdfrwt>
<totfact> 0.11269072E+01</totfact>
</mgrwt>
</event>
<event>
 4    2  0.3388003E-007  0.8678774E+03  0.7818608E-02  0.9579702E-01
         -2   -1    0    0    0  501 -0.00000000000E+00  0.00000000000E+00  0.55694166715E+03  0.55694166716E+03  0.25500000000E-02 0.  1.
          2   -1    0    0  501    0  0.00000000000E+00 -0.00000000000E+00 -0.18798939856E+04  0.18798939856E+04  0.25500000000E-02 0. -1.
    8880023    1    1    2    0    0 -0.40616485212E+03  0.39297722411E+03  0.12327624814E+03  0.87658897175E+03  0.65864270000E+03 0.  1.
    8880022    1    1    2    0    0  0.40616485212E+03 -0.39297722411E+03 -0.14462285666E+04  0.15602466810E+04  0.15294330000E+03 0.  0.
<mgrwt>
<rscale>  0 0.78654346E+03</rscale>
<asrwt>0</asrwt>
<pdfrwt beam="1">  1        2 0.28921446E+00 0.86787741E+03</pdfrwt>
<pdfrwt beam="2">  1       -2 0.85683334E-01 0.86787741E+03</pdfrwt>
<totfact> 0.93645352E+00</totfact>
</mgrwt>
</event>
<event>
 4    2  0.3388003E-007  0.7072718E+03  0.7818608E-02  0.9968275E-01
          2   -1    0    0  501    0  0.00000000000E+00  0.00000000000E+00  0.22699160768E+04  0.22699160768E+04  0.25500000000E-02 0. -1.
         -2   -1    0    0    0  501 -0.00000000000E+00 -0.00000000000E+00 -0.14473139191E+03  0.14473139193E+03  0.25500000000E-02 0.  1.
    8880023    1    1    2    0    0  0.15516963666E+03  0.20578038578E+03  0.85516905749E+03  0.11097511011E+04  0.65864270000E+03 0.  0.
    8880022    1    1    2    0    0 -0.15516963666E+03 -0.20578038578E+03  0.12700156274E+04  0.13048963676E+04  0.15294330000E+03 0.  0.
<mgrwt>
<rscale>  0 0.57063481E+03</rscale>
<asrwt>0</asrwt>
<pdfrwt beam="1">  1        2 0.34921786E+00 0.70727179E+03</pdfrwt>
<pdfrwt beam="2">  1       -2 0.22266368E-01 0.70727179E+03</pdfrwt>
<totfact> 0.86384774E+01</totfact>
</mgrwt>
</event>
<event>
 4    2  0.3388003E-007  0.7698157E+03  0.7818608E-02  0.9780328E-01
         -2   -1    0    0    0  501 -0.00000000000E+00  0.00000000000E+00  0.15005813695E+03  0.15005813697E+03  0.25500000000E-02 0.  1.
          2   -1    0    0  501    0  0.00000000000E+00 -0.00000000000E+00 -0.27692669531E+04  0.27692669531E+04  0.25500000000E-02 0. -1.
    8880023    1    1    2    0    0  0.75531503034E+02  0.39128127284E+03 -0.21565977900E+04  0.22898756028E+04  0.65864270000E+03 0.  0.
    8880022    1    1    2    0    0 -0.75531503034E+02 -0.39128127284E+03 -0.46261102617E+03  0.62944948723E+03  0.15294330000E+03 0.  0.
<mgrwt>
<rscale>  0 0.66429035E+03</rscale>
<asrwt>0</asrwt>
<pdfrwt beam="1">  1        2 0.42604103E+00 0.76981572E+03</pdfrwt>
<pdfrwt beam="2">  1       -2 0.23085869E-01 0.76981572E+03</pdfrwt>
<totfact> 0.41767636E+01</totfact>
</mgrwt>
</event>
<event>
 4    2  0.3388003E-007  0.9348000E+03  0.7818608E-02  0.9472329E-01
         -2   -1    0    0    0  501 -0.00000000000E+00  0.00000000000E+00  0.26356372607E+03  0.26356372609E+03  0.25500000000E-02 0.  1.
          2   -1    0    0  501    0  0.00000000000E+00 -0.00000000000E+00 -0.24829538132E+04  0.24829538132E+04  0.25500000000E-02 0. -1.
    8880023    1    1    2    0    0 -0.29074939673E+03  0.59624294455E+03 -0.12104317810E+04  0.15293777046E+04  0.65864270000E+03 0.  1.
    8880022    1    1    2    0    0  0.29074939673E+03 -0.59624294455E+03 -0.10089583061E+04  0.12171398347E+04  0.15294330000E+03 0. -1.
<mgrwt>
<rscale>  0 0.86354972E+03</rscale>
<asrwt>0</asrwt>
<pdfrwt beam="1">  1        2 0.38199288E+00 0.93480001E+03</pdfrwt>
<pdfrwt beam="2">  1       -2 0.40548267E-01 0.93480001E+03</pdfrwt>
<totfact> 0.20904779E+01</totfact>
</mgrwt>
</event>
<event>
 4    2  0.3388003E-007  0.6631907E+03  0.7818608E-02  0.1021102E+00
          2   -1    0    0  501    0  0.00000000000E+00  0.00000000000E+00  0.92804523661E+03  0.92804523661E+03  0.25500000000E-02 0. -1.
         -2   -1    0    0    0  501 -0.00000000000E+00 -0.00000000000E+00 -0.48020796602E+03  0.48020796602E+03  0.25500000000E-02 0.  1.
    8880023    1    1    2    0    0 -0.33021056237E+02  0.70151646323E+02 -0.23547474813E+03  0.70375436546E+03  0.65864270000E+03 0.  1.
    8880022    1    1    2    0    0  0.33021056237E+02 -0.70151646323E+02  0.68331201872E+03  0.70449883718E+03  0.15294330000E+03 0.  0.
<mgrwt>
<rscale>  0 0.47290979E+03</rscale>
<asrwt>0</asrwt>
<pdfrwt beam="1">  1        2 0.14277619E+00 0.66319066E+03</pdfrwt>
<pdfrwt beam="2">  1       -2 0.73878149E-01 0.66319066E+03</pdfrwt>
<totfact> 0.47414315E+01</totfact>
</mgrwt>
</event>
<event>
 4    2  0.3388003E-007  0.1135801E+04  0.7818608E-02  0.9222206E-01
          2   -1    0    0  501    0  0.00000000000E+00  0.00000000000E+00  0.44438751358E+03  0.44438751359E+03  0.25500000000E-02 0. -1.
         -2   -1    0    0    0  501 -0.00000000000E+00 -0.00000000000E+00 -0.31607921273E+04  0.31607921273E+04  0.25500000000E-02 0.  1.
    8880023    1    1    2    0    0 -0.86295543460E+03  0.33397692006E+03 -0.58730187291E+03  0.12786580315E+04  0.65864270000E+03 0.  0.
    8880022    1    1    2    0    0  0.86295543460E+03 -0.33397692006E+03 -0.21291027408E+04  0.23265216095E+04  0.15294330000E+03 0.  0.
<mgrwt>
<rscale>  0 0.10827139E+04</rscale>
<asrwt>0</asrwt>
<pdfrwt beam="1">  1        2 0.68367312E-01 0.11358005E+04</pdfrwt>
<pdfrwt beam="2">  1       -2 0.48627570E+00 0.11358005E+04</pdfrwt>
<totfact> 0.14170633E-01</totfact>
</mgrwt>
</event>
<event>
 4    2  0.3388003E-007  0.6712079E+03  0.7818608E-02  0.1014811E+00
          2   -1    0    0  501    0  0.00000000000E+00  0.00000000000E+00  0.19574516273E+04  0.19574516273E+04  0.25500000000E-02 0. -1.
         -2   -1    0    0    0  501 -0.00000000000E+00 -0.00000000000E+00 -0.20241005777E+03  0.20241005779E+03  0.25500000000E-02 0.  1.
    8880023    1    1    2    0    0  0.10210110521E+03 -0.79279427669E+02  0.38200833843E+03  0.77230203951E+03  0.65864270000E+03 0.  1.
    8880022    1    1    2    0    0 -0.10210110521E+03  0.79279427669E+02  0.13730332311E+04  0.13875596456E+04  0.15294330000E+03 0.  0.
<mgrwt>
<rscale>  0 0.49606422E+03</rscale>
<asrwt>0</asrwt>
<pdfrwt beam="1">  1        2 0.30114639E+00 0.67120792E+03</pdfrwt>
<pdfrwt beam="2">  1       -2 0.31140010E-01 0.67120792E+03</pdfrwt>
<totfact> 0.69941630E+01</totfact>
</mgrwt>
</event>
<event>
 4    2  0.3388003E-007  0.6743068E+03  0.7818608E-02  0.1012747E+00
         -2   -1    0    0    0  501 -0.00000000000E+00  0.00000000000E+00  0.21018768228E+03  0.21018768230E+03  0.25500000000E-02 0.  1.
          2   -1    0    0  501    0  0.00000000000E+00 -0.00000000000E+00 -0.16255204092E+04  0.16255204092E+04  0.25500000000E-02 0. -1.
    8880023    1    1    2    0    0 -0.11090870211E+03  0.92621461106E+02 -0.36947690100E+03  0.76889717251E+03  0.65864270000E+03 0.  1.
    8880022    1    1    2    0    0  0.11090870211E+03 -0.92621461106E+02 -0.10458558259E+04  0.10668109190E+04  0.15294330000E+03 0.  0.
<mgrwt>
<rscale>  0 0.50397412E+03</rscale>
<asrwt>0</asrwt>
<pdfrwt beam="1">  1        2 0.25008005E+00 0.67430682E+03</pdfrwt>
<pdfrwt beam="2">  1       -2 0.32336568E-01 0.67430682E+03</pdfrwt>
<totfact> 0.98763498E+01</totfact>
</mgrwt>
</event>
<event>
 4    2  0.3388003E-007  0.6695244E+03  0.7818608E-02  0.1016006E+00
          2   -1    0    0  501    0  0.00000000000E+00  0.00000000000E+00  0.43005487467E+03  0.43005487468E+03  0.25500000000E-02 0. -1.
         -2   -1    0    0    0  501 -0.00000000000E+00 -0.00000000000E+00 -0.70544033241E+03  0.70544033242E+03  0.25500000000E-02 0.  1.
    8880023    1    1    2    0    0 -0.12404719081E+02  0.11957772896E+03 -0.50201065728E+03  0.83682591774E+03  0.65864270000E+03 0.  0.
    8880022    1    1    2    0    0  0.12404719081E+02 -0.11957772896E+03  0.22662519954E+03  0.29866928935E+03  0.15294330000E+03 0.  0.
<mgrwt>
<rscale>  0 0.49155821E+03</rscale>
<asrwt>0</asrwt>
<pdfrwt beam="1">  1        2 0.66162288E-01 0.66952440E+03</pdfrwt>
<pdfrwt beam="2">  1       -2 0.10852928E+00 0.66952440E+03</pdfrwt>
<totfact> 0.50554797E+01</totfact>
</mgrwt>
</event>
<event>
 4    2  0.3388003E-007  0.1030582E+04  0.7818608E-02  0.9342596E-01
          2   -1    0    0  501    0  0.00000000000E+00  0.00000000000E+00  0.96331549563E+03  0.96331549564E+03  0.25500000000E-02 0. -1.
         -2   -1    0    0    0  501 -0.00000000000E+00 -0.00000000000E+00 -0.13172524806E+04  0.13172524806E+04  0.25500000000E-02 0.  1.
    8880023    1    1    2    0    0  0.43260809726E+03  0.66418394308E+03 -0.84756252062E+03  0.13343397276E+04  0.65864270000E+03 0.  0.
    8880022    1    1    2    0    0 -0.43260809726E+03 -0.66418394308E+03  0.49362553565E+03  0.94622824863E+03  0.15294330000E+03 0.  0.
<mgrwt>
<rscale>  0 0.96954175E+03</rscale>
<asrwt>0</asrwt>
<pdfrwt beam="1">  1        2 0.14820239E+00 0.10305825E+04</pdfrwt>
<pdfrwt beam="2">  1       -2 0.20265423E+00 0.10305825E+04</pdfrwt>
<totfact> 0.33630982E+00</totfact>
</mgrwt>
</event>
<event>
 4    2  0.3388003E-007  0.1030854E+04  0.7818608E-02  0.9342260E-01
          2   -1    0    0  501    0  0.00000000000E+00  0.00000000000E+00  0.24863773797E+04  0.24863773797E+04  0.25500000000E-02 0. -1.
         -2   -1    0    0    0  501 -0.00000000000E+00 -0.00000000000E+00 -0.46449424335E+03  0.46449424336E+03  0.25500000000E-02 0.  1.
    8880023    1    1    2    0    0  0.72661351527E+03 -0.31761930453E+03  0.34058034326E+03  0.10856585097E+04  0.65864270000E+03 0.  1.
    8880022    1    1    2    0    0 -0.72661351527E+03  0.31761930453E+03  0.16813027931E+04  0.18652131133E+04  0.15294330000E+03 0. -1.
<mgrwt>
<rscale>  0 0.96983709E+03</rscale>
<asrwt>0</asrwt>
<pdfrwt beam="1">  1        2 0.38251959E+00 0.10308537E+04</pdfrwt>
<pdfrwt beam="2">  1       -2 0.71460654E-01 0.10308537E+04</pdfrwt>
<totfact> 0.63407278E+00</totfact>
</mgrwt>
</event>
<event>
 4    2  0.3388003E-007  0.6797558E+03  0.7818608E-02  0.1009462E+00
         -2   -1    0    0    0  501 -0.00000000000E+00  0.00000000000E+00  0.14585427833E+04  0.14585427833E+04  0.25500000000E-02 0.  1.
          2   -1    0    0  501    0  0.00000000000E+00 -0.00000000000E+00 -0.58874028521E+03  0.58874028522E+03  0.25500000000E-02 0. -1.
    8880023    1    1    2    0    0  0.83349776065E+02 -0.14598156574E+03  0.13525269251E+04  0.15137361369E+04  0.65864270000E+03 0.  1.
    8880022    1    1    2    0    0 -0.83349776065E+02  0.14598156574E+03 -0.48272442707E+03  0.53354693159E+03  0.15294330000E+03 0.  0.
<mgrwt>
<rscale>  0 0.51688976E+03</rscale>
<asrwt>0</asrwt>
<pdfrwt beam="1">  1        2 0.90575429E-01 0.67975585E+03</pdfrwt>
<pdfrwt beam="2">  1       -2 0.22439120E+00 0.67975585E+03</pdfrwt>
<totfact> 0.48661457E+00</totfact>
</mgrwt>
</event>
<event>
 4    2  0.3388003E-007  0.6936848E+03  0.7818608E-02  0.1002448E+00
         -2   -1    0    0    0  501 -0.00000000000E+00  0.00000000000E+00  0.19514400629E+03  0.19514400631E+03  0.25500000000E-02 0.  1.
          2   -1    0    0  501    0  0.00000000000E+00 -0.00000000000E+00 -0.25989099786E+04  0.25989099786E+04  0.25500000000E-02 0. -1.
    8880023    1    1    2    0    0  0.19262119755E+03 -0.10141715224E+03 -0.46041024050E+03  0.83257201510E+03  0.65864270000E+03 0.  1.
    8880022    1    1    2    0    0 -0.19262119755E+03  0.10141715224E+03 -0.19433557318E+04  0.19614819698E+04  0.15294330000E+03 0.  0.
<mgrwt>
<rscale>  0 0.54589668E+03</rscale>
<asrwt>0</asrwt>
<pdfrwt beam="1">  1        2 0.39983228E+00 0.69368478E+03</pdfrwt>
<pdfrwt beam="2">  1       -2 0.30022157E-01 0.69368478E+03</pdfrwt>
<totfact> 0.32897069E+01</totfact>
</mgrwt>
</event>
<event>
 4    2  0.3388003E-007  0.9855108E+03  0.7818608E-02  0.9400764E-01
          2   -1    0    0  501    0  0.00000000000E+00  0.00000000000E+00  0.25784090039E+04  0.25784090039E+04  0.25500000000E-02 0. -1.
         -2   -1    0    0    0  501 -0.00000000000E+00 -0.00000000000E+00 -0.80127089430E+03  0.80127089431E+03  0.25500000000E-02 0.  1.
    8880023    1    1    2    0    0 -0.51612389833E+03 -0.52061259108E+03 -0.41037006274E+03  0.10675369516E+04  0.65864270000E+03 0.  0.
    8880022    1    1    2    0    0  0.51612389833E+03  0.52061259108E+03  0.21875081724E+04  0.23121429466E+04  0.15294330000E+03 0.  0.
<mgrwt>
<rscale>  0 0.92012812E+03</rscale>
<asrwt>0</asrwt>
<pdfrwt beam="1">  1        2 0.39667830E+00 0.98551081E+03</pdfrwt>
<pdfrwt beam="2">  1       -2 0.12327245E+00 0.98551081E+03</pdfrwt>
<totfact> 0.15723693E+00</totfact>
</mgrwt>
</event>
<event>
 4    2  0.3388003E-007  0.6606284E+03  0.7818608E-02  0.1023522E+00
         -2   -1    0    0    0  501 -0.00000000000E+00  0.00000000000E+00  0.68619394668E+02  0.68619394715E+02  0.25500000000E-02 0.  1.
          2   -1    0    0  501    0  0.00000000000E+00 -0.00000000000E+00 -0.33198562298E+04  0.33198562298E+04  0.25500000000E-02 0. -1.
    8880023    1    1    2    0    0  0.62782909478E+01  0.50796670302E+02 -0.16234403410E+04  0.17527088936E+04  0.65864270000E+03 0.  1.
    8880022    1    1    2    0    0 -0.62782909478E+01 -0.50796670302E+02 -0.16277964942E+04  0.16357667310E+04  0.15294330000E+03 0.  0.
<mgrwt>
<rscale>  0 0.46436914E+03</rscale>
<asrwt>0</asrwt>
<pdfrwt beam="1">  1        2 0.51074699E+00 0.66062843E+03</pdfrwt>
<pdfrwt beam="2">  1       -2 0.10556833E-01 0.66062843E+03</pdfrwt>
<totfact> 0.73474634E+01</totfact>
</mgrwt>
</event>
<event>
 4    2  0.3388003E-007  0.7202270E+03  0.7818608E-02  0.9921819E-01
         -2   -1    0    0    0  501 -0.00000000000E+00  0.00000000000E+00  0.12109087489E+03  0.12109087492E+03  0.25500000000E-02 0.  1.
          2   -1    0    0  501    0  0.00000000000E+00 -0.00000000000E+00 -0.27406463291E+04  0.27406463291E+04  0.25500000000E-02 0. -1.
    8880023    1    1    2    0    0  0.99891037405E+02  0.27374900152E+03 -0.11589296828E+04  0.13644943940E+04  0.65864270000E+03 0.  1.
    8880022    1    1    2    0    0 -0.99891037405E+02 -0.27374900152E+03 -0.14606257714E+04  0.14972428101E+04  0.15294330000E+03 0.  0.
<mgrwt>
<rscale>  0 0.59215420E+03</rscale>
<asrwt>0</asrwt>
<pdfrwt beam="1">  1        2 0.42163785E+00 0.72022701E+03</pdfrwt>
<pdfrwt beam="2">  1       -2 0.18629367E-01 0.72022701E+03</pdfrwt>
<totfact> 0.63740437E+01</totfact>
</mgrwt>
</event>
<event>
 4    2  0.3388003E-007  0.9047707E+03  0.7818608E-02  0.9518416E-01
          2   -1    0    0  501    0  0.00000000000E+00  0.00000000000E+00  0.14679514898E+04  0.14679514898E+04  0.25500000000E-02 0. -1.
         -2   -1    0    0    0  501 -0.00000000000E+00 -0.00000000000E+00 -0.83463789168E+03  0.83463789168E+03  0.25500000000E-02 0.  1.
    8880023    1    1    2    0    0 -0.57323196713E+03 -0.23707589214E+03 -0.47607667649E+03  0.10223791249E+04  0.65864270000E+03 0.  0.
    8880022    1    1    2    0    0  0.57323196713E+03  0.23707589214E+03  0.11093902746E+04  0.12802102566E+04  0.15294330000E+03 0.  0.
<mgrwt>
<rscale>  0 0.82939594E+03</rscale>
<asrwt>0</asrwt>
<pdfrwt beam="1">  1        2 0.22583869E+00 0.90477073E+03</pdfrwt>
<pdfrwt beam="2">  1       -2 0.12840583E+00 0.90477073E+03</pdfrwt>
<totfact> 0.59549774E+00</totfact>
</mgrwt>
</event>
<event>
 4    2  0.3388003E-007  0.7361244E+03  0.7818608E-02  0.9871384E-01
          2   -1    0    0  501    0  0.00000000000E+00  0.00000000000E+00  0.11620044468E+04  0.11620044468E+04  0.25500000000E-02 0. -1.
         -2   -1    0    0    0  501 -0.00000000000E+00 -0.00000000000E+00 -0.29599723399E+03  0.29599723400E+03  0.25500000000E-02 0.  1.
    8880023    1    1    2    0    0 -0.32629049929E+03 -0.40042554074E+02  0.32021925713E+03  0.80275741975E+03  0.65864270000E+03 0.  0.
    8880022    1    1    2    0    0  0.32629049929E+03  0.40042554074E+02  0.54578795568E+03  0.65524426105E+03  0.15294330000E+03 0.  0.
<mgrwt>
<rscale>  0 0.61668421E+03</rscale>
<asrwt>0</asrwt>
<pdfrwt beam="1">  1        2 0.17876991E+00 0.73612438E+03</pdfrwt>
<pdfrwt beam="2">  1       -2 0.45538037E-01 0.73612438E+03</pdfrwt>
<totfact> 0.92784670E+01</totfact>
</mgrwt>
</event>
<event>
 4    2  0.3388003E-007  0.6724399E+03  0.7818608E-02  0.1013971E+00
         -2   -1    0    0    0  501 -0.00000000000E+00  0.00000000000E+00  0.28356824065E+03  0.28356824066E+03  0.25500000000E-02 0.  1.
          2   -1    0    0  501    0  0.00000000000E+00 -0.00000000000E+00 -0.74338296787E+03  0.74338296787E+03  0.25500000000E-02 0. -1.
    8880023    1    1    2    0    0  0.11659966540E+03  0.69063226052E+02 -0.21055100915E+03  0.70463263115E+03  0.65864270000E+03 0. -1.
    8880022    1    1    2    0    0 -0.11659966540E+03 -0.69063226052E+02 -0.24926371807E+03  0.32231857738E+03  0.15294330000E+03 0.  0.
<mgrwt>
<rscale>  0 0.49926496E+03</rscale>
<asrwt>0</asrwt>
<pdfrwt beam="1">  1        2 0.11436661E+00 0.67243990E+03</pdfrwt>
<pdfrwt beam="2">  1       -2 0.43625883E-01 0.67243990E+03</pdfrwt>
<totfact> 0.19162404E+02</totfact>
</mgrwt>
</event>
<event>
 4    2  0.3388003E-007  0.9089830E+03  0.7818608E-02  0.9511762E-01
          2   -1    0    0  501    0  0.00000000000E+00  0.00000000000E+00  0.16348401287E+04  0.16348401287E+04  0.25500000000E-02 0. -1.
         -2   -1    0    0    0  501 -0.00000000000E+00 -0.00000000000E+00 -0.47946944238E+03  0.47946944239E+03  0.25500000000E-02 0.  1.
    8880023    1    1    2    0    0  0.26250031825E+03  0.56880002724E+03  0.15202349584E+03  0.92160796308E+03  0.65864270000E+03 0.  0.
    8880022    1    1    2    0    0 -0.26250031825E+03 -0.56880002724E+03  0.10033471904E+04  0.11927016080E+04  0.15294330000E+03 0.  0.
<mgrwt>
<rscale>  0 0.83422173E+03</rscale>
<asrwt>0</asrwt>
<pdfrwt beam="1">  1        2 0.25151386E+00 0.90898300E+03</pdfrwt>
<pdfrwt beam="2">  1       -2 0.73764530E-01 0.90898300E+03</pdfrwt>
<totfact> 0.17802550E+01</totfact>
</mgrwt>
</event>
<event>
 4    2  0.3388003E-007  0.8814953E+03  0.7818608E-02  0.9556415E-01
          2   -1    0    0  501    0  0.00000000000E+00  0.00000000000E+00  0.16881567002E+04  0.16881567002E+04  0.25500000000E-02 0. -1.
         -2   -1    0    0    0  501 -0.00000000000E+00 -0.00000000000E+00 -0.33554002223E+03  0.33554002224E+03  0.25500000000E-02 0.  1.
    8880023    1    1    2    0    0 -0.30880898609E+03 -0.49785608375E+03  0.95330649023E+03  0.12983940621E+04  0.65864270000E+03 0.  0.
    8880022    1    1    2    0    0  0.30880898609E+03  0.49785608375E+03  0.39931018775E+03  0.72530266032E+03  0.15294330000E+03 0.  0.
<mgrwt>
<rscale>  0 0.80249310E+03</rscale>
<asrwt>0</asrwt>
<pdfrwt beam="1">  1        2 0.25971642E+00 0.88149525E+03</pdfrwt>
<pdfrwt beam="2">  1       -2 0.51621542E-01 0.88149525E+03</pdfrwt>
<totfact> 0.35699908E+01</totfact>
</mgrwt>
</event>
<event>
 4    2  0.3388003E-007  0.6598666E+03  0.7818608E-02  0.1024294E+00
         -2   -1    0    0    0  501 -0.00000000000E+00  0.00000000000E+00  0.46822194853E+03  0.46822194854E+03  0.25500000000E-02 0.  1.
          2   -1    0    0  501    0  0.00000000000E+00 -0.00000000000E+00 -0.90543505949E+03  0.90543505949E+03  0.25500000000E-02 0. -1.
    8880023    1    1    2    0    0  0.15597601998E+02 -0.37018850949E+02  0.22163862227E+03  0.69609450914E+03  0.65864270000E+03 0.  1.
    8880022    1    1    2    0    0 -0.15597601998E+02  0.37018850949E+02 -0.65885173322E+03  0.67756249889E+03  0.15294330000E+03 0.  0.
<mgrwt>
<rscale>  0 0.46168544E+03</rscale>
<asrwt>0</asrwt>
<pdfrwt beam="1">  1        2 0.13929770E+00 0.65986657E+03</pdfrwt>
<pdfrwt beam="2">  1       -2 0.72034146E-01 0.65986657E+03</pdfrwt>
<totfact> 0.51902720E+01</totfact>
</mgrwt>
</event>
<event>
 4    2  0.3388003E-007  0.6688692E+03  0.7818608E-02  0.1016487E+00
         -2   -1    0    0    0  501 -0.00000000000E+00  0.00000000000E+00  0.30493209945E+03  0.30493209946E+03  0.25500000000E-02 0.  1.
          2   -1    0    0  501    0  0.00000000000E+00 -0.00000000000E+00 -0.29674680441E+04  0.29674680441E+04  0.25500000000E-02 0. -1.
    8880023    1    1    2    0    0 -0.34616835999E+01 -0.11646373052E+03 -0.69751192685E+02  0.67249625941E+03  0.65864270000E+03 0.  1.
    8880022    1    1    2    0    0  0.34616835999E+01  0.11646373052E+03 -0.25927847520E+04  0.25999038842E+04  0.15294330000E+03 0.  0.
<mgrwt>
<rscale>  0 0.48976000E+03</rscale>
<asrwt>0</asrwt>
<pdfrwt beam="1">  1        2 0.45653352E+00 0.66886919E+03</pdfrwt>
<pdfrwt beam="2">  1       -2 0.46912633E-01 0.66886919E+03</pdfrwt>
<totfact> 0.84875801E+00</totfact>
</mgrwt>
</event>
<event>
 4    2  0.3388003E-007  0.7220196E+03  0.7818608E-02  0.9915811E-01
         -2   -1    0    0    0  501 -0.00000000000E+00  0.00000000000E+00  0.65544711643E+03  0.65544711644E+03  0.25500000000E-02 0.  1.
          2   -1    0    0  501    0  0.00000000000E+00 -0.00000000000E+00 -0.15723807230E+04  0.15723807230E+04  0.25500000000E-02 0. -1.
    8880023    1    1    2    0    0 -0.27149720368E+03  0.11743693755E+03  0.42998316805E+03  0.84035581570E+03  0.65864270000E+03 0.  1.
    8880022    1    1    2    0    0  0.27149720368E+03 -0.11743693755E+03 -0.13469167746E+04  0.13874720238E+04  0.15294330000E+03 0.  0.
<mgrwt>
<rscale>  0 0.59501125E+03</rscale>
<asrwt>0</asrwt>
<pdfrwt beam="1">  1        2 0.24190473E+00 0.72201965E+03</pdfrwt>
<pdfrwt beam="2">  1       -2 0.10083802E+00 0.72201965E+03</pdfrwt>
<totfact> 0.96401674E+00</totfact>
</mgrwt>
</event>
<event>
 4    2  0.3388003E-007  0.6908543E+03  0.7818608E-02  0.1003749E+00
          2   -1    0    0  501    0  0.00000000000E+00  0.00000000000E+00  0.10238429611E+04  0.10238429611E+04  0.25500000000E-02 0. -1.
         -2   -1    0    0    0  501 -0.00000000000E+00 -0.00000000000E+00 -0.98036753487E+03  0.98036753487E+03  0.25500000000E-02 0.  1.
    8880023    1    1    2    0    0 -0.16789136457E+03  0.12361998200E+03 -0.83773035643E+03  0.10858507110E+04  0.65864270000E+03 0.  1.
    8880022    1    1    2    0    0  0.16789136457E+03 -0.12361998200E+03  0.88120578265E+03  0.91835978497E+03  0.15294330000E+03 0.  0.
<mgrwt>
<rscale>  0 0.54036411E+03</rscale>
<asrwt>0</asrwt>
<pdfrwt beam="1">  1        2 0.15751430E+00 0.69085427E+03</pdfrwt>
<pdfrwt beam="2">  1       -2 0.15082577E+00 0.69085427E+03</pdfrwt>
<totfact> 0.73737999E+00</totfact>
</mgrwt>
</event>
<event>
 4    2  0.3388003E-007  0.7002169E+03  0.7818608E-02  0.9996303E-01
          2   -1    0    0  501    0  0.00000000000E+00  0.00000000000E+00  0.20414284543E+04  0.20414284543E+04  0.25500000000E-02 0. -1.
         -2   -1    0    0    0  501 -0.00000000000E+00 -0.00000000000E+00 -0.21783275090E+03  0.21783275091E+03  0.25500000000E-02 0.  1.
    8880023    1    1    2    0    0  0.18871661320E+03 -0.14449762470E+03  0.39698730546E+03  0.80492400300E+03  0.65864270000E+03 0.  1.
    8880022    1    1    2    0    0 -0.18871661320E+03  0.14449762470E+03  0.14266083979E+04  0.14543372022E+04  0.15294330000E+03 0.  0.
<mgrwt>
<rscale>  0 0.55812660E+03</rscale>
<asrwt>0</asrwt>
<pdfrwt beam="1">  1        2 0.31406590E+00 0.70021692E+03</pdfrwt>
<pdfrwt beam="2">  1       -2 0.33512732E-01 0.70021692E+03</pdfrwt>
<totfact> 0.54650908E+01</totfact>
</mgrwt>
</event>
<event>
 4    2  0.3388003E-007  0.7428924E+03  0.7818608E-02  0.9851600E-01
          2   -1    0    0  501    0  0.00000000000E+00  0.00000000000E+00  0.39345717643E+03  0.39345717644E+03  0.25500000000E-02 0. -1.
         -2   -1    0    0    0  501 -0.00000000000E+00 -0.00000000000E+00 -0.10267027814E+04  0.10267027814E+04  0.25500000000E-02 0.  1.
    8880023    1    1    2    0    0 -0.34358178126E+03  0.55222756597E+01 -0.74509492767E+02  0.74661958635E+03  0.65864270000E+03 0. -1.
    8880022    1    1    2    0    0  0.34358178126E+03 -0.55222756597E+01 -0.55873611220E+03  0.67354037150E+03  0.15294330000E+03 0.  0.
<mgrwt>
<rscale>  0 0.62665385E+03</rscale>
<asrwt>0</asrwt>
<pdfrwt beam="1">  1        2 0.60531874E-01 0.74289242E+03</pdfrwt>
<pdfrwt beam="2">  1       -2 0.15795427E+00 0.74289242E+03</pdfrwt>
<totfact> 0.21429783E+01</totfact>
</mgrwt>
</event>
<event>
 4    2  0.3388003E-007  0.1149767E+04  0.7818608E-02  0.9207569E-01
         -2   -1    0    0    0  501 -0.00000000000E+00  0.00000000000E+00  0.13361756866E+04  0.13361756866E+04  0.25500000000E-02 0.  1.
          2   -1    0    0  501    0  0.00000000000E+00 -0.00000000000E+00 -0.86537841457E+03  0.86537841458E+03  0.25500000000E-02 0. -1.
    8880023    1    1    2    0    0  0.13770649906E+03  0.93230462665E+03  0.30504671814E+02  0.11501720471E+04  0.65864270000E+03 0.  0.
    8880022    1    1    2    0    0 -0.13770649906E+03 -0.93230462665E+03  0.44029260023E+03  0.10513820541E+04  0.15294330000E+03 0.  0.
<mgrwt>
<rscale>  0 0.10975640E+04</rscale>
<asrwt>0</asrwt>
<pdfrwt beam="1">  1        2 0.13313514E+00 0.11497675E+04</pdfrwt>
<pdfrwt beam="2">  1       -2 0.20556549E+00 0.11497675E+04</pdfrwt>
<totfact> 0.37065154E+00</totfact>
</mgrwt>
</event>
<event>
 4    2  0.3388003E-007  0.7383572E+03  0.7818608E-02  0.9864759E-01
          2   -1    0    0  501    0  0.00000000000E+00  0.00000000000E+00  0.31139212798E+04  0.31139212798E+04  0.25500000000E-02 0. -1.
         -2   -1    0    0    0  501 -0.00000000000E+00 -0.00000000000E+00 -0.17854099019E+03  0.17854099020E+03  0.25500000000E-02 0.  1.
    8880023    1    1    2    0    0  0.10891772835E+03  0.31543313541E+03  0.66841029233E+03  0.99596368389E+03  0.65864270000E+03 0.  0.
    8880022    1    1    2    0    0 -0.10891772835E+03 -0.31543313541E+03  0.22669699973E+04  0.22964985861E+04  0.15294330000E+03 0. -1.
<mgrwt>
<rscale>  0 0.62000059E+03</rscale>
<asrwt>0</asrwt>
<pdfrwt beam="1">  1        2 0.47906478E+00 0.73835719E+03</pdfrwt>
<pdfrwt beam="2">  1       -2 0.27467846E-01 0.73835719E+03</pdfrwt>
<totfact> 0.18956001E+01</totfact>
</mgrwt>
</event>
<event>
 4    2  0.3388003E-007  0.7194345E+03  0.7818608E-02  0.9924504E-01
          2   -1    0    0  501    0  0.00000000000E+00  0.00000000000E+00  0.16428753670E+04  0.16428753670E+04  0.25500000000E-02 0. -1.
         -2   -1    0    0    0  501 -0.00000000000E+00 -0.00000000000E+00 -0.56157418359E+03  0.56157418359E+03  0.25500000000E-02 0.  1.
    8880023    1    1    2    0    0 -0.34589512801E+02  0.28736621197E+03 -0.30397605807E+03  0.78101691680E+03  0.65864270000E+03 0.  0.
    8880022    1    1    2    0    0  0.34589512801E+02 -0.28736621197E+03  0.13852772415E+04  0.14234326338E+04  0.15294330000E+03 0.  0.
<mgrwt>
<rscale>  0 0.59088272E+03</rscale>
<asrwt>0</asrwt>
<pdfrwt beam="1">  1        2 0.25275005E+00 0.71943449E+03</pdfrwt>
<pdfrwt beam="2">  1       -2 0.86396029E-01 0.71943449E+03</pdfrwt>
<totfact> 0.12637644E+01</totfact>
</mgrwt>
</event>
<event>
 4    2  0.3388003E-007  0.9646759E+03  0.7818608E-02  0.9429306E-01
          2   -1    0    0  501    0  0.00000000000E+00  0.00000000000E+00  0.15707155909E+04  0.15707155909E+04  0.25500000000E-02 0. -1.
         -2   -1    0    0    0  501 -0.00000000000E+00 -0.00000000000E+00 -0.95336742456E+03  0.95336742456E+03  0.25500000000E-02 0.  1.
    8880023    1    1    2    0    0 -0.29076702619E+03  0.64206229729E+03 -0.58049542653E+03  0.11258661571E+04  0.65864270000E+03 0.  0.
    8880022    1    1    2    0    0  0.29076702619E+03 -0.64206229729E+03  0.11978435929E+04  0.13982168584E+04  0.15294330000E+03 0.  0.
<mgrwt>
<rscale>  0 0.89702677E+03</rscale>
<asrwt>0</asrwt>
<pdfrwt beam="1">  1        2 0.24164855E+00 0.96467594E+03</pdfrwt>
<pdfrwt beam="2">  1       -2 0.14667191E+00 0.96467594E+03</pdfrwt>
<totfact> 0.36731523E+00</totfact>
</mgrwt>
</event>
<event>
 4    2  0.3388003E-007  0.1189036E+04  0.7818608E-02  0.9167854E-01
         -2   -1    0    0    0  501 -0.00000000000E+00  0.00000000000E+00  0.81239681571E+03  0.81239681572E+03  0.25500000000E-02 0.  1.
          2   -1    0    0  501    0  0.00000000000E+00 -0.00000000000E+00 -0.23695038057E+04  0.23695038057E+04  0.25500000000E-02 0. -1.
    8880023    1    1    2    0    0  0.95311543201E+03 -0.26752055283E+03  0.15419065561E+03  0.11989917587E+04  0.65864270000E+03 0.  1.
    8880022    1    1    2    0    0 -0.95311543201E+03  0.26752055283E+03 -0.17112976456E+04  0.19829088627E+04  0.15294330000E+03 0.  0.
<mgrwt>
<rscale>  0 0.11391472E+04</rscale>
<asrwt>0</asrwt>
<pdfrwt beam="1">  1        2 0.36453904E+00 0.11890359E+04</pdfrwt>
<pdfrwt beam="2">  1       -2 0.12498413E+00 0.11890359E+04</pdfrwt>
<totfact> 0.19453406E+00</totfact>
</mgrwt>
</event>
<event>
 4    2  0.3388003E-007  0.7761978E+03  0.7818608E-02  0.9764845E-01
         -2   -1    0    0    0  501 -0.00000000000E+00  0.00000000000E+00  0.17635422452E+04  0.17635422452E+04  0.25500000000E-02 0.  1.
          2   -1    0    0  501    0  0.00000000000E+00 -0.00000000000E+00 -0.37232844898E+03  0.37232844899E+03  0.25500000000E-02 0. -1.
    8880023    1    1    2    0    0 -0.39339547138E+03  0.11795239665E+03  0.14959000385E+04  0.16852892619E+04  0.65864270000E+03 0.  0.
    8880022    1    1    2    0    0  0.39339547138E+03 -0.11795239665E+03 -0.10468624230E+03  0.45058143229E+03  0.15294330000E+03 0.  0.
<mgrwt>
<rscale>  0 0.67283745E+03</rscale>
<asrwt>0</asrwt>
<pdfrwt beam="1">  1        2 0.57281301E-01 0.77619777E+03</pdfrwt>
<pdfrwt beam="2">  1       -2 0.27131419E+00 0.77619777E+03</pdfrwt>
<totfact> 0.42235352E+00</totfact>
</mgrwt>
</event>
<event>
 4    2  0.3388003E-007  0.8091353E+03  0.7818608E-02  0.9691381E-01
         -2   -1    0    0    0  501 -0.00000000000E+00  0.00000000000E+00  0.25416169173E+03  0.25416169174E+03  0.25500000000E-02 0.  1.
          2   -1    0    0  501    0  0.00000000000E+00 -0.00000000000E+00 -0.20057482303E+04  0.20057482303E+04  0.25500000000E-02 0. -1.
    8880023    1    1    2    0    0 -0.46499367776E+02 -0.46768320825E+03 -0.15023241687E+04  0.17063639379E+04  0.65864270000E+03 0.  0.
    8880022    1    1    2    0    0  0.46499367776E+02  0.46768320825E+03 -0.24926236984E+03  0.55354598410E+03  0.15294330000E+03 0.  0.
<mgrwt>
<rscale>  0 0.71532298E+03</rscale>
<asrwt>0</asrwt>
<pdfrwt beam="1">  1        2 0.30857664E+00 0.80913533E+03</pdfrwt>
<pdfrwt beam="2">  1       -2 0.39101800E-01 0.80913533E+03</pdfrwt>
<totfact> 0.41980274E+01</totfact>
</mgrwt>
</event>
<event>
 4    2  0.3388003E-007  0.6619873E+03  0.7818608E-02  0.1022207E+00
         -2   -1    0    0    0  501 -0.00000000000E+00  0.00000000000E+00  0.51447375857E+03  0.51447375858E+03  0.25500000000E-02 0.  1.
          2   -1    0    0  501    0  0.00000000000E+00 -0.00000000000E+00 -0.34506554664E+03  0.34506554665E+03  0.25500000000E-02 0. -1.
    8880023    1    1    2    0    0 -0.30813681005E+02  0.58885271885E+02  0.19663072475E+03  0.69057281032E+03  0.65864270000E+03 0.  0.
    8880022    1    1    2    0    0  0.30813681005E+02 -0.58885271885E+02 -0.27222512817E+02  0.16896649491E+03  0.15294330000E+03 0.  0.
<mgrwt>
<rscale>  0 0.46898575E+03</rscale>
<asrwt>0</asrwt>
<pdfrwt beam="1">  1        2 0.53087007E-01 0.66198728E+03</pdfrwt>
<pdfrwt beam="2">  1       -2 0.79149809E-01 0.66198728E+03</pdfrwt>
<totfact> 0.13475414E+02</totfact>
</mgrwt>
</event>
<event>
 4    2  0.3388003E-007  0.1023593E+04  0.7818608E-02  0.9351321E-01
         -2   -1    0    0    0  501 -0.00000000000E+00  0.00000000000E+00  0.93172503426E+03  0.93172503426E+03  0.25500000000E-02 0.  1.
          2   -1    0    0  501    0  0.00000000000E+00 -0.00000000000E+00 -0.15511146230E+04  0.15511146230E+04  0.25500000000E-02 0. -1.
    8880023    1    1    2    0    0  0.78353775803E+03  0.94842560523E+00  0.47481886633E+03  0.11283596412E+04  0.65864270000E+03 0.  0.
    8880022    1    1    2    0    0 -0.78353775803E+03 -0.94842560523E+00 -0.10942084551E+04  0.13544800161E+04  0.15294330000E+03 0.  0.
<mgrwt>
<rscale>  0 0.96192341E+03</rscale>
<asrwt>0</asrwt>
<pdfrwt beam="1">  1        2 0.23863302E+00 0.10235929E+04</pdfrwt>
<pdfrwt beam="2">  1       -2 0.14334231E+00 0.10235929E+04</pdfrwt>
<totfact> 0.39737667E+00</totfact>
</mgrwt>
</event>
<event>
 4    2  0.3388003E-007  0.8635533E+03  0.7818608E-02  0.9587274E-01
          2   -1    0    0  501    0  0.00000000000E+00  0.00000000000E+00  0.13881101810E+04  0.13881101810E+04  0.25500000000E-02 0. -1.
         -2   -1    0    0    0  501 -0.00000000000E+00 -0.00000000000E+00 -0.45528088988E+03  0.45528088988E+03  0.25500000000E-02 0.  1.
    8880023    1    1    2    0    0 -0.46660776546E+03  0.30690585749E+03  0.16090151713E+03  0.87841534403E+03  0.65864270000E+03 0.  0.
    8880022    1    1    2    0    0  0.46660776546E+03 -0.30690585749E+03  0.77192777404E+03  0.96497572690E+03  0.15294330000E+03 0.  0.
<mgrwt>
<rscale>  0 0.78144237E+03</rscale>
<asrwt>0</asrwt>
<pdfrwt beam="1">  1        2 0.21355541E+00 0.86355325E+03</pdfrwt>
<pdfrwt beam="2">  1       -2 0.70043214E-01 0.86355325E+03</pdfrwt>
<totfact> 0.27549264E+01</totfact>
</mgrwt>
</event>
<event>
 4    2  0.3388003E-007  0.9502301E+03  0.7818608E-02  0.9449783E-01
         -2   -1    0    0    0  501 -0.00000000000E+00  0.00000000000E+00  0.60675086669E+03  0.60675086670E+03  0.25500000000E-02 0.  1.
          2   -1    0    0  501    0  0.00000000000E+00 -0.00000000000E+00 -0.14515439337E+04  0.14515439337E+04  0.25500000000E-02 0. -1.
    8880023    1    1    2    0    0  0.78311853951E+02  0.68043682064E+03 -0.95580053330E+03  0.13477729331E+04  0.65864270000E+03 0.  0.
    8880022    1    1    2    0    0 -0.78311853951E+02 -0.68043682064E+03  0.11100746631E+03  0.71052186732E+03  0.15294330000E+03 0.  0.
<mgrwt>
<rscale>  0 0.88089556E+03</rscale>
<asrwt>0</asrwt>
<pdfrwt beam="1">  1        2 0.22331445E+00 0.95023009E+03</pdfrwt>
<pdfrwt beam="2">  1       -2 0.93346288E-01 0.95023009E+03</pdfrwt>
<totfact> 0.13138259E+01</totfact>
</mgrwt>
</event>
<event>
 4    2  0.3388003E-007  0.6676598E+03  0.7818608E-02  0.1017399E+00
          2   -1    0    0  501    0  0.00000000000E+00  0.00000000000E+00  0.20065191943E+04  0.20065191943E+04  0.25500000000E-02 0. -1.
         -2   -1    0    0    0  501 -0.00000000000E+00 -0.00000000000E+00 -0.28239984329E+03  0.28239984330E+03  0.25500000000E-02 0.  1.
    8880023    1    1    2    0    0  0.91440141654E+02  0.59983651421E+02  0.12558850831E+03  0.67936883769E+03  0.65864270000E+03 0.  1.
    8880022    1    1    2    0    0 -0.91440141654E+02 -0.59983651421E+02  0.15985308427E+04  0.16095501999E+04  0.15294330000E+03 0.  0.
<mgrwt>
<rscale>  0 0.48636980E+03</rscale>
<asrwt>0</asrwt>
<pdfrwt beam="1">  1        2 0.30869527E+00 0.66765975E+03</pdfrwt>
<pdfrwt beam="2">  1       -2 0.43446129E-01 0.66765975E+03</pdfrwt>
<totfact> 0.34736653E+01</totfact>
</mgrwt>
</event>
<event>
 4    2  0.3388003E-007  0.9518029E+03  0.7818608E-02  0.9447525E-01
         -2   -1    0    0    0  501 -0.00000000000E+00  0.00000000000E+00  0.69395476907E+03  0.69395476908E+03  0.25500000000E-02 0.  1.
          2   -1    0    0  501    0  0.00000000000E+00 -0.00000000000E+00 -0.24846311377E+04  0.24846311377E+04  0.25500000000E-02 0. -1.
    8880023    1    1    2    0    0 -0.23911630065E+03  0.64415987356E+03  0.27950941522E+03  0.99199509444E+03  0.65864270000E+03 0.  0.
    8880022    1    1    2    0    0  0.23911630065E+03 -0.64415987356E+03 -0.20701857839E+04  0.21865908124E+04  0.15294330000E+03 0.  0.
<mgrwt>
<rscale>  0 0.88265674E+03</rscale>
<asrwt>0</asrwt>
<pdfrwt beam="1">  1        2 0.38225094E+00 0.95180290E+03</pdfrwt>
<pdfrwt beam="2">  1       -2 0.10676227E+00 0.95180290E+03</pdfrwt>
<totfact> 0.25467790E+00</totfact>
</mgrwt>
</event>
<event>
 4    2  0.3388003E-007  0.7780882E+03  0.7818608E-02  0.9760347E-01
         -2   -1    0    0    0  501 -0.00000000000E+00  0.00000000000E+00  0.62268678175E+03  0.62268678175E+03  0.25500000000E-02 0.  1.
          2   -1    0    0  501    0  0.00000000000E+00 -0.00000000000E+00 -0.80273302522E+03  0.80273302522E+03  0.25500000000E-02 0. -1.
    8880023    1    1    2    0    0 -0.26227378204E+03 -0.32066114282E+03  0.24172321465E+03  0.81477078005E+03  0.65864270000E+03 0.  0.
    8880022    1    1    2    0    0  0.26227378204E+03  0.32066114282E+03 -0.42176945813E+03  0.61064902693E+03  0.15294330000E+03 0.  0.
<mgrwt>
<rscale>  0 0.67534662E+03</rscale>
<asrwt>0</asrwt>
<pdfrwt beam="1">  1        2 0.12349739E+00 0.77808824E+03</pdfrwt>
<pdfrwt beam="2">  1       -2 0.95797966E-01 0.77808824E+03</pdfrwt>
<totfact> 0.31704472E+01</totfact>
</mgrwt>
</event>
<event>
 4    2  0.3388003E-007  0.8869161E+03  0.7818608E-02  0.9547370E-01
         -2   -1    0    0    0  501 -0.00000000000E+00  0.00000000000E+00  0.49773336375E+03  0.49773336375E+03  0.25500000000E-02 0.  1.
          2   -1    0    0  501    0  0.00000000000E+00 -0.00000000000E+00 -0.17198130018E+04  0.17198130018E+04  0.25500000000E-02 0. -1.
    8880023    1    1    2    0    0  0.58031351923E+03  0.12667375734E+03 -0.42383650803E+02  0.88792826372E+03  0.65864270000E+03 0.  1.
    8880022    1    1    2    0    0 -0.58031351923E+03 -0.12667375734E+03 -0.11796959873E+04  0.13296181019E+04  0.15294330000E+03 0.  0.
<mgrwt>
<rscale>  0 0.80879695E+03</rscale>
<asrwt>0</asrwt>
<pdfrwt beam="1">  1        2 0.26458661E+00 0.88691613E+03</pdfrwt>
<pdfrwt beam="2">  1       -2 0.76574364E-01 0.88691613E+03</pdfrwt>
<totfact> 0.14742546E+01</totfact>
</mgrwt>
</event>
<event>
 4    2  0.3388003E-007  0.6875418E+03  0.7818608E-02  0.1005344E+00
         -2   -1    0    0    0  501 -0.00000000000E+00  0.00000000000E+00  0.28671250137E+03  0.28671250138E+03  0.25500000000E-02 0.  1.
          2   -1    0    0  501    0  0.00000000000E+00 -0.00000000000E+00 -0.16601751987E+04  0.16601751987E+04  0.25500000000E-02 0. -1.
    8880023    1    1    2    0    0 -0.17795359246E+03  0.85064770090E+02 -0.15720552859E+03  0.70528524773E+03  0.65864270000E+03 0.  1.
    8880022    1    1    2    0    0  0.17795359246E+03 -0.85064770090E+02 -0.12162571687E+04  0.12416024523E+04  0.15294330000E+03 0.  0.
<mgrwt>
<rscale>  0 0.53368021E+03</rscale>
<asrwt>0</asrwt>
<pdfrwt beam="1">  1        2 0.25541156E+00 0.68754178E+03</pdfrwt>
<pdfrwt beam="2">  1       -2 0.44109617E-01 0.68754178E+03</pdfrwt>
<totfact> 0.51880669E+01</totfact>
</mgrwt>
</event>
<event>
 4    2  0.3388003E-007  0.6831579E+03  0.7818608E-02  0.1007591E+00
         -2   -1    0    0    0  501 -0.00000000000E+00  0.00000000000E+00  0.42948313088E+03  0.42948313088E+03  0.25500000000E-02 0.  1.
          2   -1    0    0  501    0  0.00000000000E+00 -0.00000000000E+00 -0.10455405185E+04  0.10455405185E+04  0.25500000000E-02 0. -1.
    8880023    1    1    2    0    0  0.65217074022E+01  0.18125106946E+03  0.12713052418E+03  0.69488622039E+03  0.65864270000E+03 0.  1.
    8880022    1    1    2    0    0 -0.65217074022E+01 -0.18125106946E+03 -0.74318791181E+03  0.78013742900E+03  0.15294330000E+03 0.  0.
<mgrwt>
<rscale>  0 0.52443418E+03</rscale>
<asrwt>0</asrwt>
<pdfrwt beam="1">  1        2 0.16085239E+00 0.68315788E+03</pdfrwt>
<pdfrwt beam="2">  1       -2 0.66074328E-01 0.68315788E+03</pdfrwt>
<totfact> 0.50753773E+01</totfact>
</mgrwt>
</event>
<event>
 4    2  0.3388003E-007  0.6591706E+03  0.7818608E-02  0.1025023E+00
         -2   -1    0    0    0  501 -0.00000000000E+00  0.00000000000E+00  0.60784100564E+02  0.60784100618E+02  0.25500000000E-02 0.  1.
          2   -1    0    0  501    0  0.00000000000E+00 -0.00000000000E+00 -0.27598253332E+04  0.27598253332E+04  0.25500000000E-02 0. -1.
    8880023    1    1    2    0    0  0.43587456737E+01 -0.26012446715E+02 -0.20549688007E+04  0.21581016251E+04  0.65864270000E+03 0.  1.
    8880022    1    1    2    0    0 -0.43587456737E+01  0.26012446715E+02 -0.64407243185E+03  0.66250780866E+03  0.15294330000E+03 0.  0.
<mgrwt>
<rscale>  0 0.45916828E+03</rscale>
<asrwt>0</asrwt>
<pdfrwt beam="1">  1        2 0.42458842E+00 0.65917058E+03</pdfrwt>
<pdfrwt beam="2">  1       -2 0.93514022E-02 0.65917058E+03</pdfrwt>
<totfact> 0.19788639E+02</totfact>
</mgrwt>
</event>
<event>
 4    2  0.3388003E-007  0.6756343E+03  0.7818608E-02  0.1011909E+00
         -2   -1    0    0    0  501 -0.00000000000E+00  0.00000000000E+00  0.11601262442E+04  0.11601262442E+04  0.25500000000E-02 0.  1.
          2   -1    0    0  501    0  0.00000000000E+00 -0.00000000000E+00 -0.96352206019E+03  0.96352206020E+03  0.25500000000E-02 0. -1.
    8880023    1    1    2    0    0 -0.55306997069E+02  0.14004523982E+03  0.10472856837E+04  0.12463101712E+04  0.65864270000E+03 0.  1.
    8880022    1    1    2    0    0  0.55306997069E+02 -0.14004523982E+03 -0.85068149970E+03  0.87733813326E+03  0.15294330000E+03 0.  0.
<mgrwt>
<rscale>  0 0.50722777E+03</rscale>
<asrwt>0</asrwt>
<pdfrwt beam="1">  1        2 0.14823416E+00 0.67563432E+03</pdfrwt>
<pdfrwt beam="2">  1       -2 0.17848096E+00 0.67563432E+03</pdfrwt>
<totfact> 0.50982312E+00</totfact>
</mgrwt>
</event>
<event>
 4    2  0.3388003E-007  0.7505501E+03  0.7818608E-02  0.9830217E-01
         -2   -1    0    0    0  501 -0.00000000000E+00  0.00000000000E+00  0.24466242846E+03  0.24466242847E+03  0.25500000000E-02 0.  1.
          2   -1    0    0  501    0  0.00000000000E+00 -0.00000000000E+00 -0.22730393852E+04  0.22730393852E+04  0.25500000000E-02 0. -1.
    8880023    1    1    2    0    0 -0.50497907183E+01 -0.35984676388E+03 -0.41505840974E+03  0.85767061488E+03  0.65864270000E+03 0.  1.
    8880022    1    1    2    0    0  0.50497907183E+01  0.35984676388E+03 -0.16133185470E+04  0.16600311988E+04  0.15294330000E+03 0.  0.
<mgrwt>
<rscale>  0 0.63765845E+03</rscale>
<asrwt>0</asrwt>
<pdfrwt beam="1">  1        2 0.34969835E+00 0.75055007E+03</pdfrwt>
<pdfrwt beam="2">  1       -2 0.37640375E-01 0.75055007E+03</pdfrwt>
<totfact> 0.32449687E+01</totfact>
</mgrwt>
</event>
<event>
 4    2  0.3388003E-007  0.7701052E+03  0.7818608E-02  0.9779615E-01
         -2   -1    0    0    0  501 -0.00000000000E+00  0.00000000000E+00  0.17758176502E+04  0.17758176502E+04  0.25500000000E-02 0.  1.
          2   -1    0    0  501    0  0.00000000000E+00 -0.00000000000E+00 -0.25344791144E+03  0.25344791145E+03  0.25500000000E-02 0. -1.
    8880023    1    1    2    0    0  0.33510883403E+03 -0.21668847847E+03  0.13772416555E+04  0.15779279487E+04  0.65864270000E+03 0.  0.
    8880022    1    1    2    0    0 -0.33510883403E+03  0.21668847847E+03  0.14512808332E+03  0.45133761302E+03  0.15294330000E+03 0.  1.
<mgrwt>
<rscale>  0 0.66468070E+03</rscale>
<asrwt>0</asrwt>
<pdfrwt beam="1">  1        2 0.38991987E-01 0.77010521E+03</pdfrwt>
<pdfrwt beam="2">  1       -2 0.27320271E+00 0.77010521E+03</pdfrwt>
<totfact> 0.63232155E+00</totfact>
</mgrwt>
</event>
<event>
 4    2  0.3388003E-007  0.6651451E+03  0.7818608E-02  0.1019412E+00
         -2   -1    0    0    0  501 -0.00000000000E+00  0.00000000000E+00  0.13337947060E+03  0.13337947062E+03  0.25500000000E-02 0.  1.
          2   -1    0    0  501    0  0.00000000000E+00 -0.00000000000E+00 -0.40181792359E+04  0.40181792359E+04  0.25500000000E-02 0. -1.
    8880023    1    1    2    0    0  0.10426688298E+02 -0.92190201037E+02 -0.71436571457E+03  0.97608213251E+03  0.65864270000E+03 0.  1.
    8880022    1    1    2    0    0 -0.10426688298E+02  0.92190201037E+02 -0.31704340507E+04  0.31754765740E+04  0.15294330000E+03 0.  0.
<mgrwt>
<rscale>  0 0.47899393E+03</rscale>
<asrwt>0</asrwt>
<pdfrwt beam="1">  1        2 0.61818133E+00 0.66514506E+03</pdfrwt>
<pdfrwt beam="2">  1       -2 0.20519922E-01 0.66514506E+03</pdfrwt>
<totfact> 0.75858250E+00</totfact>
</mgrwt>
</event>
<event>
 4    2  0.4156044E-007  0.9117981E+03  0.7818608E-02  0.9507351E-01
         -2   -1    0    0    0  501 -0.00000000000E+00  0.00000000000E+00  0.23438544171E+04  0.23438544171E+04  0.25500000000E-02 0.  1.
          2   -1    0    0  501    0  0.00000000000E+00 -0.00000000000E+00 -0.11510730449E+04  0.11510730449E+04  0.25500000000E-02 0. -1.
    8880023    1    1    2    0    0 -0.14349634216E+03 -0.61398241123E+03  0.21518240046E+04  0.23370328099E+04  0.65864270000E+03 0.  1.
    8880022    1    1    2    0    0  0.14349634216E+03  0.61398241123E+03 -0.95904263242E+03  0.11578946521E+04  0.15294330000E+03 0.  0.
<mgrwt>
<rscale>  0 0.83744013E+03</rscale>
<asrwt>0</asrwt>
<pdfrwt beam="1">  1        2 0.17708816E+00 0.91179812E+03</pdfrwt>
<pdfrwt beam="2">  1       -2 0.36059299E+00 0.91179812E+03</pdfrwt>
<totfact> 0.27802084E-01</totfact>
</mgrwt>
</event>
<event>
 4    2  0.3388003E-007  0.7795347E+03  0.7818608E-02  0.9756931E-01
          2   -1    0    0  501    0  0.00000000000E+00  0.00000000000E+00  0.22413721342E+04  0.22413721342E+04  0.25500000000E-02 0. -1.
         -2   -1    0    0    0  501 -0.00000000000E+00 -0.00000000000E+00 -0.33206974490E+03  0.33206974491E+03  0.25500000000E-02 0.  1.
    8880023    1    1    2    0    0 -0.28865820368E+03 -0.30089973427E+03  0.19639794951E+03  0.80389462585E+03  0.65864270000E+03 0.  0.
    8880022    1    1    2    0    0  0.28865820368E+03  0.30089973427E+03  0.17129044398E+04  0.17695472532E+04  0.15294330000E+03 0.  0.
<mgrwt>
<rscale>  0 0.67725988E+03</rscale>
<asrwt>0</asrwt>
<pdfrwt beam="1">  1        2 0.34482648E+00 0.77953474E+03</pdfrwt>
<pdfrwt beam="2">  1       -2 0.51087653E-01 0.77953474E+03</pdfrwt>
<totfact> 0.18348710E+01</totfact>
</mgrwt>
</event>
<event>
 4    2  0.3388003E-007  0.8259512E+03  0.7818608E-02  0.9657262E-01
         -2   -1    0    0    0  501 -0.00000000000E+00  0.00000000000E+00  0.16735404955E+03  0.16735404957E+03  0.25500000000E-02 0.  1.
          2   -1    0    0  501    0  0.00000000000E+00 -0.00000000000E+00 -0.35723139239E+04  0.35723139239E+04  0.25500000000E-02 0. -1.
    8880023    1    1    2    0    0  0.18070742102E+02 -0.49805485166E+03 -0.10947989167E+04  0.13714153497E+04  0.65864270000E+03 0.  0.
    8880022    1    1    2    0    0 -0.18070742102E+02  0.49805485166E+03 -0.23101609577E+04  0.23682526238E+04  0.15294330000E+03 0.  0.
<mgrwt>
<rscale>  0 0.73619413E+03</rscale>
<asrwt>0</asrwt>
<pdfrwt beam="1">  1        2 0.54958670E+00 0.82595121E+03</pdfrwt>
<pdfrwt beam="2">  1       -2 0.25746780E-01 0.82595121E+03</pdfrwt>
<totfact> 0.10481382E+01</totfact>
</mgrwt>
</event>
<event>
 4    2  0.3388003E-007  0.7318831E+03  0.7818608E-02  0.9884255E-01
         -2   -1    0    0    0  501 -0.00000000000E+00  0.00000000000E+00  0.13220579663E+04  0.13220579663E+04  0.25500000000E-02 0.  1.
          2   -1    0    0  501    0  0.00000000000E+00 -0.00000000000E+00 -0.40141541458E+03  0.40141541458E+03  0.25500000000E-02 0. -1.
    8880023    1    1    2    0    0 -0.31345728565E+03  0.59893370432E+02  0.11042662096E+04  0.13247855500E+04  0.65864270000E+03 0.  1.
    8880022    1    1    2    0    0  0.31345728565E+03 -0.59893370432E+02 -0.18362365782E+03  0.39868783086E+03  0.15294330000E+03 0. -1.
<mgrwt>
<rscale>  0 0.61030471E+03</rscale>
<asrwt>0</asrwt>
<pdfrwt beam="1">  1        2 0.61756219E-01 0.73188311E+03</pdfrwt>
<pdfrwt beam="2">  1       -2 0.20339353E+00 0.73188311E+03</pdfrwt>
<totfact> 0.10219201E+01</totfact>
</mgrwt>
</event>
<event>
 4    2  0.3388003E-007  0.6593671E+03  0.7818608E-02  0.1024814E+00
          2   -1    0    0  501    0  0.00000000000E+00  0.00000000000E+00  0.28826789868E+04  0.28826789868E+04  0.25500000000E-02 0. -1.
         -2   -1    0    0    0  501 -0.00000000000E+00 -0.00000000000E+00 -0.25193643926E+03  0.25193643927E+03  0.25500000000E-02 0.  1.
    8880023    1    1    2    0    0 -0.20872835060E+02 -0.22784901253E+02  0.18627633989E+03  0.68517436323E+03  0.65864270000E+03 0.  1.
    8880022    1    1    2    0    0  0.20872835060E+02  0.22784901253E+02  0.24444662076E+04  0.24494410628E+04  0.15294330000E+03 0.  0.
<mgrwt>
<rscale>  0 0.45988580E+03</rscale>
<asrwt>0</asrwt>
<pdfrwt beam="1">  1        2 0.44348910E+00 0.65936715E+03</pdfrwt>
<pdfrwt beam="2">  1       -2 0.38759450E-01 0.65936715E+03</pdfrwt>
<totfact> 0.13930571E+01</totfact>
</mgrwt>
</event>
<event>
 4    2  0.3388003E-007  0.6967929E+03  0.7818608E-02  0.1001077E+00
          2   -1    0    0  501    0  0.00000000000E+00  0.00000000000E+00  0.12694070007E+04  0.12694070007E+04  0.25500000000E-02 0. -1.
         -2   -1    0    0    0  501 -0.00000000000E+00 -0.00000000000E+00 -0.27063546867E+03  0.27063546868E+03  0.25500000000E-02 0.  1.
    8880023    1    1    2    0    0  0.18486504832E+03 -0.13241984956E+03  0.24600605793E+03  0.73894471339E+03  0.65864270000E+03 0.  1.
    8880022    1    1    2    0    0 -0.18486504832E+03  0.13241984956E+03  0.75276547406E+03  0.80109775596E+03  0.15294330000E+03 0.  0.
<mgrwt>
<rscale>  0 0.55180297E+03</rscale>
<asrwt>0</asrwt>
<pdfrwt beam="1">  1        2 0.19529339E+00 0.69679287E+03</pdfrwt>
<pdfrwt beam="2">  1       -2 0.41636226E-01 0.69679287E+03</pdfrwt>
<totfact> 0.96110834E+01</totfact>
</mgrwt>
</event>
<event>
 4    2  0.3388003E-007  0.6988663E+03  0.7818608E-02  0.1000194E+00
         -2   -1    0    0    0  501 -0.00000000000E+00  0.00000000000E+00  0.32459256136E+03  0.32459256137E+03  0.25500000000E-02 0.  1.
          2   -1    0    0  501    0  0.00000000000E+00 -0.00000000000E+00 -0.73859043069E+03  0.73859043070E+03  0.25500000000E-02 0. -1.
    8880023    1    1    2    0    0 -0.27852322392E+02 -0.23200879264E+03 -0.27258362564E+03  0.75014390016E+03  0.65864270000E+03 0.  0.
    8880022    1    1    2    0    0  0.27852322392E+02  0.23200879264E+03 -0.14141424370E+03  0.31303909190E+03  0.15294330000E+03 0. -1.
<mgrwt>
<rscale>  0 0.55565373E+03</rscale>
<asrwt>0</asrwt>
<pdfrwt beam="1">  1        2 0.11362930E+00 0.69886625E+03</pdfrwt>
<pdfrwt beam="2">  1       -2 0.49937317E-01 0.69886625E+03</pdfrwt>
<totfact> 0.14713171E+02</totfact>
</mgrwt>
</event>
<event>
 4    2  0.3388003E-007  0.8800511E+03  0.7818608E-02  0.9558846E-01
          2   -1    0    0  501    0  0.00000000000E+00  0.00000000000E+00  0.25706047811E+04  0.25706047811E+04  0.25500000000E-02 0. -1.
         -2   -1    0    0    0  501 -0.00000000000E+00 -0.00000000000E+00 -0.31684763487E+03  0.31684763488E+03  0.25500000000E-02 0.  1.
    8880023    1    1    2    0    0  0.47865777359E+03  0.33401559833E+03  0.45607038351E+03  0.99120637867E+03  0.65864270000E+03 0.  1.
    8880022    1    1    2    0    0 -0.47865777359E+03 -0.33401559833E+03  0.17976867627E+04  0.18962460373E+04  0.15294330000E+03 0.  0.
<mgrwt>
<rscale>  0 0.80080950E+03</rscale>
<asrwt>0</asrwt>
<pdfrwt beam="1">  1        2 0.39547765E+00 0.88005107E+03</pdfrwt>
<pdfrwt beam="2">  1       -2 0.48745791E-01 0.88005107E+03</pdfrwt>
<totfact> 0.12988906E+01</totfact>
</mgrwt>
</event>
<event>
 4    2  0.3388003E-007  0.1171607E+04  0.7818608E-02  0.9185228E-01
          2   -1    0    0  501    0  0.00000000000E+00  0.00000000000E+00  0.14270843597E+04  0.14270843597E+04  0.25500000000E-02 0. -1.
         -2   -1    0    0    0  501 -0.00000000000E+00 -0.00000000000E+00 -0.16876607058E+04  0.16876607058E+04  0.25500000000E-02 0.  1.
    8880023    1    1    2    0    0  0.96652133711E+03  0.68482720045E+02 -0.12557175253E+04  0.17174079561E+04  0.65864270000E+03 0.  0.
    8880022    1    1    2    0    0 -0.96652133711E+03 -0.68482720045E+02  0.99514117913E+03  0.13973371095E+04  0.15294330000E+03 0.  0.
<mgrwt>
<rscale>  0 0.11207203E+04</rscale>
<asrwt>0</asrwt>
<pdfrwt beam="1">  1        2 0.21955144E+00 0.11716073E+04</pdfrwt>
<pdfrwt beam="2">  1       -2 0.25964011E+00 0.11716073E+04</pdfrwt>
<totfact> 0.76414284E-01</totfact>
</mgrwt>
</event>
<event>
 4    2  0.3388003E-007  0.6634955E+03  0.7818608E-02  0.1020830E+00
         -2   -1    0    0    0  501 -0.00000000000E+00  0.00000000000E+00  0.14939425074E+03  0.14939425076E+03  0.25500000000E-02 0.  1.
          2   -1    0    0  501    0  0.00000000000E+00 -0.00000000000E+00 -0.19087340763E+04  0.19087340763E+04  0.25500000000E-02 0. -1.
    8880023    1    1    2    0    0  0.14185304324E+02 -0.78834452798E+02 -0.62759972860E+03  0.91329497941E+03  0.65864270000E+03 0.  1.
    8880022    1    1    2    0    0 -0.14185304324E+02  0.78834452798E+02 -0.11317400970E+04  0.11448333477E+04  0.15294330000E+03 0.  0.
<mgrwt>
<rscale>  0 0.47388137E+03</rscale>
<asrwt>0</asrwt>
<pdfrwt beam="1">  1        2 0.29365138E+00 0.66349552E+03</pdfrwt>
<pdfrwt beam="2">  1       -2 0.22983732E-01 0.66349552E+03</pdfrwt>
<totfact> 0.12931588E+02</totfact>
</mgrwt>
</event>
<event>
 4    2  0.3388003E-007  0.7002828E+03  0.7818608E-02  0.9996030E-01
          2   -1    0    0  501    0  0.00000000000E+00  0.00000000000E+00  0.22419495211E+04  0.22419495211E+04  0.25500000000E-02 0. -1.
         -2   -1    0    0    0  501 -0.00000000000E+00 -0.00000000000E+00 -0.22794967353E+03  0.22794967354E+03  0.25500000000E-02 0.  1.
    8880023    1    1    2    0    0  0.21578741296E+03 -0.10010807104E+03  0.35155775606E+03  0.78357443526E+03  0.65864270000E+03 0.  1.
    8880022    1    1    2    0    0 -0.21578741296E+03  0.10010807104E+03  0.16624420915E+04  0.16863247593E+04  0.15294330000E+03 0.  0.
<mgrwt>
<rscale>  0 0.55824659E+03</rscale>
<asrwt>0</asrwt>
<pdfrwt beam="1">  1        2 0.34491532E+00 0.70028283E+03</pdfrwt>
<pdfrwt beam="2">  1       -2 0.35069180E-01 0.70028283E+03</pdfrwt>
<totfact> 0.38931513E+01</totfact>
</mgrwt>
</event>
<event>
 4    2  0.3388003E-007  0.6602561E+03  0.7818608E-02  0.1023896E+00
         -2   -1    0    0    0  501 -0.00000000000E+00  0.00000000000E+00  0.77388598323E+03  0.77388598323E+03  0.25500000000E-02 0.  1.
          2   -1    0    0  501    0  0.00000000000E+00 -0.00000000000E+00 -0.21728730749E+03  0.21728730751E+03  0.25500000000E-02 0. -1.
    8880023    1    1    2    0    0  0.21562208966E+02 -0.40779966263E+02  0.44109507720E+03  0.79404219529E+03  0.65864270000E+03 0.  0.
    8880022    1    1    2    0    0 -0.21562208966E+02  0.40779966263E+02  0.11550359854E+03  0.19713109545E+03  0.15294330000E+03 0.  1.
<mgrwt>
<rscale>  0 0.46306668E+03</rscale>
<asrwt>0</asrwt>
<pdfrwt beam="1">  1        2 0.33428817E-01 0.66025612E+03</pdfrwt>
<pdfrwt beam="2">  1       -2 0.11905938E+00 0.66025612E+03</pdfrwt>
<totfact> 0.86436915E+01</totfact>
</mgrwt>
</event>
<event>
 4    2  0.3388003E-007  0.8896543E+03  0.7818608E-02  0.9542848E-01
          2   -1    0    0  501    0  0.00000000000E+00  0.00000000000E+00  0.19190102283E+04  0.19190102283E+04  0.25500000000E-02 0. -1.
         -2   -1    0    0    0  501 -0.00000000000E+00 -0.00000000000E+00 -0.31426878810E+03  0.31426878812E+03  0.25500000000E-02 0.  1.
    8880023    1    1    2    0    0 -0.63190778271E+01  0.59802568461E+03  0.67271318593E+03  0.11153599809E+04  0.65864270000E+03 0.  0.
    8880022    1    1    2    0    0  0.63190778271E+01 -0.59802568461E+03  0.93202825424E+03  0.11179190355E+04  0.15294330000E+03 0.  1.
<mgrwt>
<rscale>  0 0.81197199E+03</rscale>
<asrwt>0</asrwt>
<pdfrwt beam="1">  1        2 0.29523234E+00 0.88965435E+03</pdfrwt>
<pdfrwt beam="2">  1       -2 0.48349044E-01 0.88965435E+03</pdfrwt>
<totfact> 0.30455849E+01</totfact>
</mgrwt>
</event>
<event>
 4    2  0.3388003E-007  0.8034707E+03  0.7818608E-02  0.9703341E-01
          2   -1    0    0  501    0  0.00000000000E+00  0.00000000000E+00  0.76344305265E+03  0.76344305266E+03  0.25500000000E-02 0. -1.
         -2   -1    0    0    0  501 -0.00000000000E+00 -0.00000000000E+00 -0.61257120033E+03  0.61257120034E+03  0.25500000000E-02 0.  1.
    8880023    1    1    2    0    0 -0.34717147029E+03 -0.30203785053E+03 -0.13256846490E+03  0.81433377499E+03  0.65864270000E+03 0.  1.
    8880022    1    1    2    0    0  0.34717147029E+03  0.30203785053E+03  0.28344031722E+03  0.56168047801E+03  0.15294330000E+03 0.  0.
<mgrwt>
<rscale>  0 0.70818193E+03</rscale>
<asrwt>0</asrwt>
<pdfrwt beam="1">  1        2 0.11745278E+00 0.80347066E+03</pdfrwt>
<pdfrwt beam="2">  1       -2 0.94241723E-01 0.80347066E+03</pdfrwt>
<totfact> 0.35119426E+01</totfact>
</mgrwt>
</event>
<event>
 4    2  0.3388003E-007  0.9955882E+03  0.7818608E-02  0.9387352E-01
          2   -1    0    0  501    0  0.00000000000E+00  0.00000000000E+00  0.11262631574E+04  0.11262631574E+04  0.25500000000E-02 0. -1.
         -2   -1    0    0    0  501 -0.00000000000E+00 -0.00000000000E+00 -0.94351872954E+03  0.94351872954E+03  0.25500000000E-02 0.  1.
    8880023    1    1    2    0    0 -0.12771260587E+02  0.74647344662E+03 -0.43722717215E+03  0.10873654022E+04  0.65864270000E+03 0.  0.
    8880022    1    1    2    0    0  0.12771260587E+02 -0.74647344662E+03  0.61997159997E+03  0.98241648469E+03  0.15294330000E+03 0.  0.
<mgrwt>
<rscale>  0 0.93123872E+03</rscale>
<asrwt>0</asrwt>
<pdfrwt beam="1">  1        2 0.17327125E+00 0.99558823E+03</pdfrwt>
<pdfrwt beam="2">  1       -2 0.14515673E+00 0.99558823E+03</pdfrwt>
<totfact> 0.68025882E+00</totfact>
</mgrwt>
</event>
<event>
 4    2  0.3388003E-007  0.6866846E+03  0.7818608E-02  0.1005770E+00
          2   -1    0    0  501    0  0.00000000000E+00  0.00000000000E+00  0.21189326313E+04  0.21189326313E+04  0.25500000000E-02 0. -1.
         -2   -1    0    0    0  501 -0.00000000000E+00 -0.00000000000E+00 -0.17137967177E+03  0.17137967179E+03  0.25500000000E-02 0.  1.
    8880023    1    1    2    0    0  0.67285418331E+02 -0.18220381790E+03  0.57488690716E+03  0.89556167910E+03  0.65864270000E+03 0.  1.
    8880022    1    1    2    0    0 -0.67285418331E+02  0.18220381790E+03  0.13726660523E+04  0.13947506240E+04  0.15294330000E+03 0.  0.
<mgrwt>
<rscale>  0 0.53191034E+03</rscale>
<asrwt>0</asrwt>
<pdfrwt beam="1">  1        2 0.32598965E+00 0.68668462E+03</pdfrwt>
<pdfrwt beam="2">  1       -2 0.26366102E-01 0.68668462E+03</pdfrwt>
<totfact> 0.77424064E+01</totfact>
</mgrwt>
</event>
<event>
 4    2  0.3388003E-007  0.7275372E+03  0.7818608E-02  0.9897862E-01
         -2   -1    0    0    0  501 -0.00000000000E+00  0.00000000000E+00  0.23812259282E+03  0.23812259283E+03  0.25500000000E-02 0.  1.
          2   -1    0    0  501    0  0.00000000000E+00 -0.00000000000E+00 -0.16580799178E+04  0.16580799178E+04  0.25500000000E-02 0. -1.
    8880023    1    1    2    0    0  0.12653768246E+03  0.28193675229E+03 -0.42360577982E+03  0.84187420695E+03  0.65864270000E+03 0.  1.
    8880022    1    1    2    0    0 -0.12653768246E+03 -0.28193675229E+03 -0.99635154515E+03  0.10543283037E+04  0.15294330000E+03 0.  0.
<mgrwt>
<rscale>  0 0.60365022E+03</rscale>
<asrwt>0</asrwt>
<pdfrwt beam="1">  1        2 0.25508921E+00 0.72753716E+03</pdfrwt>
<pdfrwt beam="2">  1       -2 0.36634246E-01 0.72753716E+03</pdfrwt>
<totfact> 0.74389499E+01</totfact>
</mgrwt>
</event>
<event>
 4    2  0.3388003E-007  0.8524617E+03  0.7818608E-02  0.9607116E-01
         -2   -1    0    0    0  501 -0.00000000000E+00  0.00000000000E+00  0.80063944162E+03  0.80063944163E+03  0.25500000000E-02 0.  1.
          2   -1    0    0  501    0  0.00000000000E+00 -0.00000000000E+00 -0.85888057099E+03  0.85888057099E+03  0.25500000000E-02 0. -1.
    8880023    1    1    2    0    0  0.50214016556E+03  0.20183161594E+03  0.39280352525E+03  0.93860831169E+03  0.65864270000E+03 0.  0.
    8880022    1    1    2    0    0 -0.50214016556E+03 -0.20183161594E+03 -0.45104465461E+03  0.72091170093E+03  0.15294330000E+03 0.  0.
<mgrwt>
<rscale>  0 0.76826990E+03</rscale>
<asrwt>0</asrwt>
<pdfrwt beam="1">  1        2 0.13213547E+00 0.85246170E+03</pdfrwt>
<pdfrwt beam="2">  1       -2 0.12317530E+00 0.85246170E+03</pdfrwt>
<totfact> 0.15648182E+01</totfact>
</mgrwt>
</event>
<event>
 4    2  0.3388003E-007  0.7902076E+03  0.7818608E-02  0.9732383E-01
         -2   -1    0    0    0  501 -0.00000000000E+00  0.00000000000E+00  0.30895147373E+03  0.30895147374E+03  0.25500000000E-02 0.  1.
          2   -1    0    0  501    0  0.00000000000E+00 -0.00000000000E+00 -0.17419069927E+04  0.17419069927E+04  0.25500000000E-02 0. -1.
    8880023    1    1    2    0    0  0.23019298101E+03  0.37098379208E+03 -0.33286028582E+03  0.85745201535E+03  0.65864270000E+03 0.  1.
    8880022    1    1    2    0    0 -0.23019298101E+03 -0.37098379208E+03 -0.11000952331E+04  0.11934064511E+04  0.15294330000E+03 0.  0.
<mgrwt>
<rscale>  0 0.69120998E+03</rscale>
<asrwt>0</asrwt>
<pdfrwt beam="1">  1        2 0.26798569E+00 0.79020756E+03</pdfrwt>
<pdfrwt beam="2">  1       -2 0.47530997E-01 0.79020756E+03</pdfrwt>
<totfact> 0.39836890E+01</totfact>
</mgrwt>
</event>
<event>
 4    2  0.3388003E-007  0.7060698E+03  0.7818608E-02  0.9972895E-01
         -2   -1    0    0    0  501 -0.00000000000E+00  0.00000000000E+00  0.16769473337E+03  0.16769473339E+03  0.25500000000E-02 0.  1.
          2   -1    0    0  501    0  0.00000000000E+00 -0.00000000000E+00 -0.17977816316E+04  0.17977816316E+04  0.25500000000E-02 0. -1.
    8880023    1    1    2    0    0  0.10860314530E+03  0.23006467227E+03 -0.14638959340E+04  0.16252771789E+04  0.65864270000E+03 0. -1.
    8880022    1    1    2    0    0 -0.10860314530E+03 -0.23006467227E+03 -0.16619096430E+03  0.34019918610E+03  0.15294330000E+03 0.  1.
<mgrwt>
<rscale>  0 0.56854863E+03</rscale>
<asrwt>0</asrwt>
<pdfrwt beam="1">  1        2 0.27658178E+00 0.70606983E+03</pdfrwt>
<pdfrwt beam="2">  1       -2 0.25799191E-01 0.70606983E+03</pdfrwt>
<totfact> 0.12020162E+02</totfact>
</mgrwt>
</event>
<event>
 4    2  0.3388003E-007  0.7285001E+03  0.7818608E-02  0.9894808E-01
          2   -1    0    0  501    0  0.00000000000E+00  0.00000000000E+00  0.35697623822E+04  0.35697623822E+04  0.25500000000E-02 0. -1.
         -2   -1    0    0    0  501 -0.00000000000E+00 -0.00000000000E+00 -0.17382047562E+03  0.17382047564E+03  0.25500000000E-02 0.  1.
    8880023    1    1    2    0    0  0.25285961118E+03 -0.18156067200E+03  0.65154128564E+03  0.97735280925E+03  0.65864270000E+03 0.  1.
    8880022    1    1    2    0    0 -0.25285961118E+03  0.18156067200E+03  0.27444006209E+04  0.27662300486E+04  0.15294330000E+03 0.  0.
<mgrwt>
<rscale>  0 0.60513558E+03</rscale>
<asrwt>0</asrwt>
<pdfrwt beam="1">  1        2 0.54919426E+00 0.72850015E+03</pdfrwt>
<pdfrwt beam="2">  1       -2 0.26741610E-01 0.72850015E+03</pdfrwt>
<totfact> 0.10001892E+01</totfact>
</mgrwt>
</event>
<event>
 4    2  0.3388003E-007  0.7012016E+03  0.7818608E-02  0.9992252E-01
         -2   -1    0    0    0  501 -0.00000000000E+00  0.00000000000E+00  0.42409921687E+03  0.42409921688E+03  0.25500000000E-02 0.  1.
          2   -1    0    0  501    0  0.00000000000E+00 -0.00000000000E+00 -0.86152378862E+03  0.86152378863E+03  0.25500000000E-02 0. -1.
    8880023    1    1    2    0    0 -0.19778930685E+03  0.13694116725E+03  0.68884870853E+02  0.70457705390E+03  0.65864270000E+03 0.  1.
    8880022    1    1    2    0    0  0.19778930685E+03 -0.13694116725E+03 -0.50630944260E+03  0.58104595160E+03  0.15294330000E+03 0.  0.
<mgrwt>
<rscale>  0 0.55991257E+03</rscale>
<asrwt>0</asrwt>
<pdfrwt beam="1">  1        2 0.13254212E+00 0.70120161E+03</pdfrwt>
<pdfrwt beam="2">  1       -2 0.65246033E-01 0.70120161E+03</pdfrwt>
<totfact> 0.68652580E+01</totfact>
</mgrwt>
</event>
<event>
 4    2  0.3388003E-007  0.1689993E+04  0.7818608E-02  0.8785961E-01
         -2   -1    0    0    0  501 -0.00000000000E+00  0.00000000000E+00  0.28856817956E+04  0.28856817956E+04  0.25500000000E-02 0.  1.
          2   -1    0    0  501    0  0.00000000000E+00 -0.00000000000E+00 -0.12684271577E+04  0.12684271577E+04  0.25500000000E-02 0. -1.
    8880023    1    1    2    0    0 -0.10215868793E+04  0.11741486276E+04 -0.26100767000E+03  0.17100292283E+04  0.65864270000E+03 0.  0.
    8880022    1    1    2    0    0  0.10215868793E+04 -0.11741486276E+04  0.18782623079E+04  0.24440797249E+04  0.15294330000E+03 0.  0.
<mgrwt>
<rscale>  0 0.16575362E+04</rscale>
<asrwt>0</asrwt>
<pdfrwt beam="1">  1        2 0.19514264E+00 0.16899926E+04</pdfrwt>
<pdfrwt beam="2">  1       -2 0.44395104E+00 0.16899926E+04</pdfrwt>
<totfact> 0.60631792E-02</totfact>
</mgrwt>
</event>
<event>
 4    2  0.5892449E-007  0.1017779E+04  0.7818608E-02  0.9358659E-01
         -2   -1    0    0    0  501 -0.00000000000E+00  0.00000000000E+00  0.10037408169E+04  0.10037408170E+04  0.25500000000E-02 0.  1.
          2   -1    0    0  501    0  0.00000000000E+00 -0.00000000000E+00 -0.33133310922E+04  0.33133310922E+04  0.25500000000E-02 0. -1.
    8880023    1    1    2    0    0 -0.25570009256E+02 -0.77550594741E+03  0.68039742780E+03  0.12242606609E+04  0.65864270000E+03 0.  0.
    8880022    1    1    2    0    0  0.25570009256E+02  0.77550594741E+03 -0.29899877031E+04  0.30928112482E+04  0.15294330000E+03 0. -1.
<mgrwt>
<rscale>  0 0.95557444E+03</rscale>
<asrwt>0</asrwt>
<pdfrwt beam="1">  1        2 0.50974324E+00 0.10177787E+04</pdfrwt>
<pdfrwt beam="2">  1       -2 0.15442167E+00 0.10177787E+04</pdfrwt>
<totfact> 0.30909678E-01</totfact>
</mgrwt>
</event>
<event>
 4    2  0.3388003E-007  0.7283021E+03  0.7818608E-02  0.9895434E-01
          2   -1    0    0  501    0  0.00000000000E+00  0.00000000000E+00  0.36136791922E+03  0.36136791923E+03  0.25500000000E-02 0. -1.
         -2   -1    0    0    0  501 -0.00000000000E+00 -0.00000000000E+00 -0.80509819290E+03  0.80509819290E+03  0.25500000000E-02 0.  1.
    8880023    1    1    2    0    0 -0.31082733948E+03  0.30879207017E+00 -0.25288399242E+03  0.77095671098E+03  0.65864270000E+03 0.  0.
    8880022    1    1    2    0    0  0.31082733948E+03 -0.30879207017E+00 -0.19084628125E+03  0.39550940115E+03  0.15294330000E+03 0.  0.
<mgrwt>
<rscale>  0 0.60483061E+03</rscale>
<asrwt>0</asrwt>
<pdfrwt beam="1">  1        2 0.55595065E-01 0.72830209E+03</pdfrwt>
<pdfrwt beam="2">  1       -2 0.12386126E+00 0.72830209E+03</pdfrwt>
<totfact> 0.44289634E+01</totfact>
</mgrwt>
</event>
<event>
 4    2  0.3388003E-007  0.7190370E+03  0.7818608E-02  0.9925858E-01
         -2   -1    0    0    0  501 -0.00000000000E+00  0.00000000000E+00  0.68403407012E+03  0.68403407013E+03  0.25500000000E-02 0.  1.
          2   -1    0    0  501    0  0.00000000000E+00 -0.00000000000E+00 -0.72164926162E+03  0.72164926162E+03  0.25500000000E-02 0. -1.
    8880023    1    1    2    0    0  0.24203949559E+03  0.15691034805E+03  0.42817154940E+03  0.83686621197E+03  0.65864270000E+03 0.  1.
    8880022    1    1    2    0    0 -0.24203949559E+03 -0.15691034805E+03 -0.46578674090E+03  0.56881711979E+03  0.15294330000E+03 0.  0.
<mgrwt>
<rscale>  0 0.59024300E+03</rscale>
<asrwt>0</asrwt>
<pdfrwt beam="1">  1        2 0.11102296E+00 0.71903698E+03</pdfrwt>
<pdfrwt beam="2">  1       -2 0.10523601E+00 0.71903698E+03</pdfrwt>
<totfact> 0.29286942E+01</totfact>
</mgrwt>
</event>
<event>
 4    2  0.3388003E-007  0.6725738E+03  0.7818608E-02  0.1013881E+00
          2   -1    0    0  501    0  0.00000000000E+00  0.00000000000E+00  0.16799211507E+04  0.16799211507E+04  0.25500000000E-02 0. -1.
         -2   -1    0    0    0  501 -0.00000000000E+00 -0.00000000000E+00 -0.34342399529E+03  0.34342399530E+03  0.25500000000E-02 0.  1.
    8880023    1    1    2    0    0 -0.13361982367E+03 -0.26287168135E+02  0.13406966320E+01  0.67257510823E+03  0.65864270000E+03 0.  1.
    8880022    1    1    2    0    0  0.13361982367E+03  0.26287168135E+02  0.13351564588E+04  0.13507700377E+04  0.15294330000E+03 0.  0.
<mgrwt>
<rscale>  0 0.49960816E+03</rscale>
<asrwt>0</asrwt>
<pdfrwt beam="1">  1        2 0.25844941E+00 0.67257377E+03</pdfrwt>
<pdfrwt beam="2">  1       -2 0.52834460E-01 0.67257377E+03</pdfrwt>
<totfact> 0.35220619E+01</totfact>
</mgrwt>
</event>
<event>
 4    2  0.3388003E-007  0.1071359E+04  0.7818608E-02  0.9293635E-01
          2   -1    0    0  501    0  0.00000000000E+00  0.00000000000E+00  0.21203305495E+04  0.21203305495E+04  0.25500000000E-02 0. -1.
         -2   -1    0    0    0  501 -0.00000000000E+00 -0.00000000000E+00 -0.84455718476E+03  0.84455718477E+03  0.25500000000E-02 0.  1.
    8880023    1    1    2    0    0  0.26263013830E+03  0.80313474795E+03  0.16981897699E+04  0.20078990795E+04  0.65864270000E+03 0. -1.
    8880022    1    1    2    0    0 -0.26263013830E+03 -0.80313474795E+03 -0.42241640514E+03  0.95698865471E+03  0.15294330000E+03 0.  0.
<mgrwt>
<rscale>  0 0.10137096E+04</rscale>
<asrwt>0</asrwt>
<pdfrwt beam="1">  1        2 0.32620469E+00 0.10713591E+04</pdfrwt>
<pdfrwt beam="2">  1       -2 0.12993188E+00 0.10713591E+04</pdfrwt>
<totfact> 0.24665501E+00</totfact>
</mgrwt>
</event>
<event>
 4    2  0.3388003E-007  0.8015314E+03  0.7818608E-02  0.9707495E-01
          2   -1    0    0  501    0  0.00000000000E+00  0.00000000000E+00  0.12826310935E+04  0.12826310935E+04  0.25500000000E-02 0. -1.
         -2   -1    0    0    0  501 -0.00000000000E+00 -0.00000000000E+00 -0.55236051236E+03  0.55236051237E+03  0.25500000000E-02 0.  1.
    8880023    1    1    2    0    0  0.28210152073E+02 -0.45590189018E+03 -0.16501843065E+03  0.81834200361E+03  0.65864270000E+03 0.  0.
    8880022    1    1    2    0    0 -0.28210152073E+02  0.45590189018E+03  0.89528901180E+03  0.10166496023E+04  0.15294330000E+03 0.  0.
<mgrwt>
<rscale>  0 0.70572313E+03</rscale>
<asrwt>0</asrwt>
<pdfrwt beam="1">  1        2 0.19732786E+00 0.80153138E+03</pdfrwt>
<pdfrwt beam="2">  1       -2 0.84978542E-01 0.80153138E+03</pdfrwt>
<totfact> 0.20698577E+01</totfact>
</mgrwt>
</event>
<event>
 4    2  0.3388003E-007  0.9756247E+03  0.7818608E-02  0.9414167E-01
         -2   -1    0    0    0  501 -0.00000000000E+00  0.00000000000E+00  0.38712484120E+03  0.38712484121E+03  0.25500000000E-02 0.  1.
          2   -1    0    0  501    0  0.00000000000E+00 -0.00000000000E+00 -0.42731040103E+04  0.42731040103E+04  0.25500000000E-02 0. -1.
    8880023    1    1    2    0    0 -0.54316544466E+03 -0.47223360618E+03 -0.37954828850E+04  0.39188689460E+04  0.65864270000E+03 0.  0.
    8880022    1    1    2    0    0  0.54316544466E+03  0.47223360618E+03 -0.90496284076E+02  0.74135990553E+03  0.15294330000E+03 0.  0.
<mgrwt>
<rscale>  0 0.90918939E+03</rscale>
<asrwt>0</asrwt>
<pdfrwt beam="1">  1        2 0.65740058E+00 0.97562466E+03</pdfrwt>
<pdfrwt beam="2">  1       -2 0.59557671E-01 0.97562466E+03</pdfrwt>
<totfact> 0.56490477E-01</totfact>
</mgrwt>
</event>
<event>
 4    2  0.3388003E-007  0.7888243E+03  0.7818608E-02  0.9735503E-01
         -2   -1    0    0    0  501 -0.00000000000E+00  0.00000000000E+00  0.20582477303E+03  0.20582477305E+03  0.25500000000E-02 0.  1.
          2   -1    0    0  501    0  0.00000000000E+00 -0.00000000000E+00 -0.27173673093E+04  0.27173673093E+04  0.25500000000E-02 0. -1.
    8880023    1    1    2    0    0  0.35003837703E+03  0.25672290487E+03 -0.70174225299E+03  0.10557868683E+04  0.65864270000E+03 0.  1.
    8880022    1    1    2    0    0 -0.35003837703E+03 -0.25672290487E+03 -0.18098002832E+04  0.18674052141E+04  0.15294330000E+03 0.  0.
<mgrwt>
<rscale>  0 0.68941764E+03</rscale>
<asrwt>0</asrwt>
<pdfrwt beam="1">  1        2 0.41805648E+00 0.78882427E+03</pdfrwt>
<pdfrwt beam="2">  1       -2 0.31665352E-01 0.78882427E+03</pdfrwt>
<totfact> 0.25076367E+01</totfact>
</mgrwt>
</event>
<event>
 4    2  0.3388003E-007  0.7159006E+03  0.7818608E-02  0.9936709E-01
          2   -1    0    0  501    0  0.00000000000E+00  0.00000000000E+00  0.69925835438E+03  0.69925835438E+03  0.25500000000E-02 0. -1.
         -2   -1    0    0    0  501 -0.00000000000E+00 -0.00000000000E+00 -0.40942775943E+03  0.40942775944E+03  0.25500000000E-02 0.  1.
    8880023    1    1    2    0    0  0.13055102874E+03 -0.24831415374E+03  0.66774891498E+02  0.71900805451E+03  0.65864270000E+03 0.  1.
    8880022    1    1    2    0    0 -0.13055102874E+03  0.24831415374E+03  0.22305570345E+03  0.38967805931E+03  0.15294330000E+03 0. -1.
<mgrwt>
<rscale>  0 0.58514728E+03</rscale>
<asrwt>0</asrwt>
<pdfrwt beam="1">  1        2 0.10757821E+00 0.71590062E+03</pdfrwt>
<pdfrwt beam="2">  1       -2 0.62988886E-01 0.71590062E+03</pdfrwt>
<totfact> 0.97172214E+01</totfact>
</mgrwt>
</event>
<event>
 4    2  0.3388003E-007  0.1506072E+04  0.7818608E-02  0.8905360E-01
          2   -1    0    0  501    0  0.00000000000E+00  0.00000000000E+00  0.23299208990E+04  0.23299208990E+04  0.25500000000E-02 0. -1.
         -2   -1    0    0    0  501 -0.00000000000E+00 -0.00000000000E+00 -0.14076183293E+04  0.14076183293E+04  0.25500000000E-02 0.  1.
    8880023    1    1    2    0    0  0.79372980195E+02 -0.13520877879E+04 -0.66411548497E+03  0.16459954556E+04  0.65864270000E+03 0.  0.
    8880022    1    1    2    0    0 -0.79372980195E+02  0.13520877879E+04  0.15864180546E+04  0.20915437727E+04  0.15294330000E+03 0.  0.
<mgrwt>
<rscale>  0 0.14689603E+04</rscale>
<asrwt>0</asrwt>
<pdfrwt beam="1">  1        2 0.35844937E+00 0.15060716E+04</pdfrwt>
<pdfrwt beam="2">  1       -2 0.21655667E+00 0.15060716E+04</pdfrwt>
<totfact> 0.42489873E-01</totfact>
</mgrwt>
</event>
<event>
 4    2  0.3388003E-007  0.1135970E+04  0.7818608E-02  0.9222026E-01
          2   -1    0    0  501    0  0.00000000000E+00  0.00000000000E+00  0.18047200496E+04  0.18047200496E+04  0.25500000000E-02 0. -1.
         -2   -1    0    0    0  501 -0.00000000000E+00 -0.00000000000E+00 -0.13857745409E+04  0.13857745409E+04  0.25500000000E-02 0.  1.
    8880023    1    1    2    0    0  0.85349031950E+03 -0.35801120067E+03 -0.98394765789E+03  0.15028575931E+04  0.65864270000E+03 0.  1.
    8880022    1    1    2    0    0 -0.85349031950E+03  0.35801120067E+03  0.14028931666E+04  0.16876369975E+04  0.15294330000E+03 0.  0.
<mgrwt>
<rscale>  0 0.10828943E+04</rscale>
<asrwt>0</asrwt>
<pdfrwt beam="1">  1        2 0.27764924E+00 0.11359700E+04</pdfrwt>
<pdfrwt beam="2">  1       -2 0.21319608E+00 0.11359700E+04</pdfrwt>
<totfact> 0.91659977E-01</totfact>
</mgrwt>
</event>
<event>
 4    2  0.3388003E-007  0.8133486E+03  0.7818608E-02  0.9682644E-01
         -2   -1    0    0    0  501 -0.00000000000E+00  0.00000000000E+00  0.20337210286E+03  0.20337210288E+03  0.25500000000E-02 0.  1.
          2   -1    0    0  501    0  0.00000000000E+00 -0.00000000000E+00 -0.24985593869E+04  0.24985593869E+04  0.25500000000E-02 0. -1.
    8880023    1    1    2    0    0 -0.47653737125E+03  0.25257189763E+02 -0.86892116935E+03  0.11901932602E+04  0.65864270000E+03 0.  1.
    8880022    1    1    2    0    0  0.47653737125E+03 -0.25257189763E+02 -0.14262661147E+04  0.15117382296E+04  0.15294330000E+03 0.  0.
<mgrwt>
<rscale>  0 0.72059653E+03</rscale>
<asrwt>0</asrwt>
<pdfrwt beam="1">  1        2 0.38439373E+00 0.81334863E+03</pdfrwt>
<pdfrwt beam="2">  1       -2 0.31288018E-01 0.81334863E+03</pdfrwt>
<totfact> 0.34165313E+01</totfact>
</mgrwt>
</event>
<event>
 4    2  0.3388003E-007  0.7736131E+03  0.7818608E-02  0.9771060E-01
         -2   -1    0    0    0  501 -0.00000000000E+00  0.00000000000E+00  0.60674230598E+03  0.60674230599E+03  0.25500000000E-02 0.  1.
          2   -1    0    0  501    0  0.00000000000E+00 -0.00000000000E+00 -0.10121276903E+04  0.10121276903E+04  0.25500000000E-02 0. -1.
    8880023    1    1    2    0    0 -0.40190322489E+03 -0.56042390215E+02  0.26732320555E+03  0.81849792557E+03  0.65864270000E+03 0.  0.
    8880022    1    1    2    0    0  0.40190322489E+03  0.56042390215E+02 -0.67270858982E+03  0.80037207068E+03  0.15294330000E+03 0.  0.
<mgrwt>
<rscale>  0 0.66939042E+03</rscale>
<asrwt>0</asrwt>
<pdfrwt beam="1">  1        2 0.15571195E+00 0.77361305E+03</pdfrwt>
<pdfrwt beam="2">  1       -2 0.93344970E-01 0.77361305E+03</pdfrwt>
<totfact> 0.24363050E+01</totfact>
</mgrwt>
</event>
<event>
 4    2  0.3388003E-007  0.6909167E+03  0.7818608E-02  0.1003720E+00
         -2   -1    0    0    0  501 -0.00000000000E+00  0.00000000000E+00  0.83814694275E+03  0.83814694275E+03  0.25500000000E-02 0.  1.
          2   -1    0    0  501    0  0.00000000000E+00 -0.00000000000E+00 -0.33341025373E+03  0.33341025374E+03  0.25500000000E-02 0. -1.
    8880023    1    1    2    0    0 -0.17506684924E+03 -0.11361033526E+03  0.58000156122E+03  0.90209075334E+03  0.65864270000E+03 0.  1.
    8880022    1    1    2    0    0  0.17506684924E+03  0.11361033526E+03 -0.75264872197E+02  0.26946644315E+03  0.15294330000E+03 0.  0.
<mgrwt>
<rscale>  0 0.54048788E+03</rscale>
<asrwt>0</asrwt>
<pdfrwt beam="1">  1        2 0.51293885E-01 0.69091672E+03</pdfrwt>
<pdfrwt beam="2">  1       -2 0.12894568E+00 0.69091672E+03</pdfrwt>
<totfact> 0.43905630E+01</totfact>
</mgrwt>
</event>
<event>
 4    2  0.3388003E-007  0.8208260E+03  0.7818608E-02  0.9667453E-01
         -2   -1    0    0    0  501 -0.00000000000E+00  0.00000000000E+00  0.61872023850E+03  0.61872023851E+03  0.25500000000E-02 0.  1.
          2   -1    0    0  501    0  0.00000000000E+00 -0.00000000000E+00 -0.11183580096E+04  0.11183580096E+04  0.25500000000E-02 0. -1.
    8880023    1    1    2    0    0 -0.34835985807E+03 -0.34436964080E+03  0.22317759216E+03  0.85062534886E+03  0.65864270000E+03 0.  1.
    8880022    1    1    2    0    0  0.34835985807E+03  0.34436964080E+03 -0.72281536328E+03  0.88645289927E+03  0.15294330000E+03 0.  0.
<mgrwt>
<rscale>  0 0.72988129E+03</rscale>
<asrwt>0</asrwt>
<pdfrwt beam="1">  1        2 0.17205508E+00 0.82082595E+03</pdfrwt>
<pdfrwt beam="2">  1       -2 0.95187729E-01 0.82082595E+03</pdfrwt>
<totfact> 0.19898873E+01</totfact>
</mgrwt>
</event>
<event>
 4    2  0.3388003E-007  0.7095342E+03  0.7818608E-02  0.9959735E-01
          2   -1    0    0  501    0  0.00000000000E+00  0.00000000000E+00  0.19565069769E+04  0.19565069769E+04  0.25500000000E-02 0. -1.
         -2   -1    0    0    0  501 -0.00000000000E+00 -0.00000000000E+00 -0.19579133716E+03  0.19579133718E+03  0.25500000000E-02 0.  1.
    8880023    1    1    2    0    0  0.13702206758E+02  0.26351619340E+03  0.53343614188E+03  0.88768961827E+03  0.65864270000E+03 0.  0.
    8880022    1    1    2    0    0 -0.13702206758E+02 -0.26351619340E+03  0.12272794978E+04  0.12646086958E+04  0.15294330000E+03 0.  1.
<mgrwt>
<rscale>  0 0.57451601E+03</rscale>
<asrwt>0</asrwt>
<pdfrwt beam="1">  1        2 0.30100109E+00 0.70953417E+03</pdfrwt>
<pdfrwt beam="2">  1       -2 0.30121743E-01 0.70953417E+03</pdfrwt>
<totfact> 0.74144812E+01</totfact>
</mgrwt>
</event>
<event>
 4    2  0.3388003E-007  0.7432682E+03  0.7818608E-02  0.9850527E-01
          2   -1    0    0  501    0  0.00000000000E+00  0.00000000000E+00  0.11336581800E+04  0.11336581800E+04  0.25500000000E-02 0. -1.
         -2   -1    0    0    0  501 -0.00000000000E+00 -0.00000000000E+00 -0.45334447906E+03  0.45334447907E+03  0.25500000000E-02 0.  1.
    8880023    1    1    2    0    0 -0.23034330372E+03 -0.25608464276E+03 -0.70812651603E+02  0.74663379224E+03  0.65864270000E+03 0.  1.
    8880022    1    1    2    0    0  0.23034330372E+03  0.25608464276E+03  0.75112635249E+03  0.84036886678E+03  0.15294330000E+03 0.  0.
<mgrwt>
<rscale>  0 0.62720036E+03</rscale>
<asrwt>0</asrwt>
<pdfrwt beam="1">  1        2 0.17440895E+00 0.74326818E+03</pdfrwt>
<pdfrwt beam="2">  1       -2 0.69745305E-01 0.74326818E+03</pdfrwt>
<totfact> 0.39627049E+01</totfact>
</mgrwt>
</event>
<event>
 4    2  0.3388003E-007  0.1023543E+04  0.7818608E-02  0.9351385E-01
         -2   -1    0    0    0  501 -0.00000000000E+00  0.00000000000E+00  0.74524854560E+03  0.74524854560E+03  0.25500000000E-02 0.  1.
          2   -1    0    0  501    0  0.00000000000E+00 -0.00000000000E+00 -0.21613665973E+04  0.21613665973E+04  0.25500000000E-02 0. -1.
    8880023    1    1    2    0    0  0.76235332845E+03 -0.18068410392E+03  0.25482412538E+03  0.10547866533E+04  0.65864270000E+03 0.  0.
    8880022    1    1    2    0    0 -0.76235332845E+03  0.18068410392E+03 -0.16709421770E+04  0.18518284896E+04  0.15294330000E+03 0.  0.
<mgrwt>
<rscale>  0 0.96186853E+03</rscale>
<asrwt>0</asrwt>
<pdfrwt beam="1">  1        2 0.33251794E+00 0.10235426E+04</pdfrwt>
<pdfrwt beam="2">  1       -2 0.11465362E+00 0.10235426E+04</pdfrwt>
<totfact> 0.32201843E+00</totfact>
</mgrwt>
</event>
<event>
 4    2  0.3388003E-007  0.7262866E+03  0.7818608E-02  0.9901861E-01
         -2   -1    0    0    0  501 -0.00000000000E+00  0.00000000000E+00  0.29195219583E+03  0.29195219584E+03  0.25500000000E-02 0.  1.
          2   -1    0    0  501    0  0.00000000000E+00 -0.00000000000E+00 -0.10059144224E+04  0.10059144224E+04  0.25500000000E-02 0. -1.
    8880023    1    1    2    0    0 -0.14673240811E+02 -0.30572316249E+03 -0.37978549515E+03  0.81959086419E+03  0.65864270000E+03 0.  0.
    8880022    1    1    2    0    0  0.14673240811E+02  0.30572316249E+03 -0.33417673144E+03  0.47827575407E+03  0.15294330000E+03 0.  0.
<mgrwt>
<rscale>  0 0.60171159E+03</rscale>
<asrwt>0</asrwt>
<pdfrwt beam="1">  1        2 0.15475606E+00 0.72628656E+03</pdfrwt>
<pdfrwt beam="2">  1       -2 0.44915723E-01 0.72628656E+03</pdfrwt>
<totfact> 0.11908135E+02</totfact>
</mgrwt>
</event>
<event>
 4    2  0.3388003E-007  0.9394048E+03  0.7818608E-02  0.9465525E-01
         -2   -1    0    0    0  501 -0.00000000000E+00  0.00000000000E+00  0.85327525967E+03  0.85327525967E+03  0.25500000000E-02 0.  1.
          2   -1    0    0  501    0  0.00000000000E+00 -0.00000000000E+00 -0.21461160108E+04  0.21461160108E+04  0.25500000000E-02 0. -1.
    8880023    1    1    2    0    0 -0.32175474040E+03 -0.58749049880E+03  0.51081422109E+03  0.10693047152E+04  0.65864270000E+03 0.  0.
    8880022    1    1    2    0    0  0.32175474040E+03  0.58749049880E+03 -0.18036549722E+04  0.19300865553E+04  0.15294330000E+03 0.  0.
<mgrwt>
<rscale>  0 0.86873949E+03</rscale>
<asrwt>0</asrwt>
<pdfrwt beam="1">  1        2 0.33017169E+00 0.93940481E+03</pdfrwt>
<pdfrwt beam="2">  1       -2 0.13127312E+00 0.93940481E+03</pdfrwt>
<totfact> 0.23670704E+00</totfact>
</mgrwt>
</event>
<event>
 4    2  0.4851495E-007  0.6962887E+03  0.7818608E-02  0.1001296E+00
          2   -1    0    0  501    0  0.00000000000E+00  0.00000000000E+00  0.27395567523E+04  0.27395567523E+04  0.25500000000E-02 0. -1.
         -2   -1    0    0    0  501 -0.00000000000E+00 -0.00000000000E+00 -0.71915266446E+03  0.71915266446E+03  0.25500000000E-02 0.  1.
    8880023    1    1    2    0    0 -0.14928707579E+03  0.16947318904E+03 -0.54166166160E+03  0.88216515161E+03  0.65864270000E+03 0.  1.
    8880022    1    1    2    0    0  0.14928707579E+03 -0.16947318904E+03  0.25620657494E+04  0.25765442651E+04  0.15294330000E+03 0.  0.
<mgrwt>
<rscale>  0 0.55085620E+03</rscale>
<asrwt>0</asrwt>
<pdfrwt beam="1">  1        2 0.42147026E+00 0.69628873E+03</pdfrwt>
<pdfrwt beam="2">  1       -2 0.11063887E+00 0.69628873E+03</pdfrwt>
<totfact> 0.17446967E+00</totfact>
</mgrwt>
</event>
<event>
 4    2  0.3388003E-007  0.9191942E+03  0.7818608E-02  0.9495896E-01
         -2   -1    0    0    0  501 -0.00000000000E+00  0.00000000000E+00  0.71218971143E+03  0.71218971144E+03  0.25500000000E-02 0.  1.
          2   -1    0    0  501    0  0.00000000000E+00 -0.00000000000E+00 -0.23890184946E+04  0.23890184946E+04  0.25500000000E-02 0. -1.
    8880023    1    1    2    0    0  0.53811585841E+03 -0.34862468177E+03  0.33948598797E+03  0.97988202764E+03  0.65864270000E+03 0.  1.
    8880022    1    1    2    0    0 -0.53811585841E+03  0.34862468177E+03 -0.20163147711E+04  0.21213261783E+04  0.15294330000E+03 0.  0.
<mgrwt>
<rscale>  0 0.84587099E+03</rscale>
<asrwt>0</asrwt>
<pdfrwt beam="1">  1        2 0.36754130E+00 0.91919424E+03</pdfrwt>
<pdfrwt beam="2">  1       -2 0.10956765E+00 0.91919424E+03</pdfrwt>
<totfact> 0.27228503E+00</totfact>
</mgrwt>
</event>
<event>
 4    2  0.3388003E-007  0.9090951E+03  0.7818608E-02  0.9511586E-01
          2   -1    0    0  501    0  0.00000000000E+00  0.00000000000E+00  0.30756197843E+04  0.30756197843E+04  0.25500000000E-02 0. -1.
         -2   -1    0    0    0  501 -0.00000000000E+00 -0.00000000000E+00 -0.29945388932E+03  0.29945388933E+03  0.25500000000E-02 0.  1.
    8880023    1    1    2    0    0 -0.30531040430E+03  0.54720136728E+03  0.56179598263E+03  0.10686761491E+04  0.65864270000E+03 0.  1.
    8880022    1    1    2    0    0  0.30531040430E+03 -0.54720136728E+03  0.22143699123E+04  0.23063975245E+04  0.15294330000E+03 0. -1.
<mgrwt>
<rscale>  0 0.83435005E+03</rscale>
<asrwt>0</asrwt>
<pdfrwt beam="1">  1        2 0.47317225E+00 0.90909515E+03</pdfrwt>
<pdfrwt beam="2">  1       -2 0.46069831E-01 0.90909515E+03</pdfrwt>
<totfact> 0.72378990E+00</totfact>
</mgrwt>
</event>
<event>
 4    2  0.3388003E-007  0.9474536E+03  0.7818608E-02  0.9453787E-01
         -2   -1    0    0    0  501 -0.00000000000E+00  0.00000000000E+00  0.10148997702E+04  0.10148997702E+04  0.25500000000E-02 0.  1.
          2   -1    0    0  501    0  0.00000000000E+00 -0.00000000000E+00 -0.72139758841E+03  0.72139758841E+03  0.25500000000E-02 0. -1.
    8880023    1    1    2    0    0 -0.26298553941E+03  0.62824897407E+03 -0.68599696153E+02  0.94993383556E+03  0.65864270000E+03 0.  1.
    8880022    1    1    2    0    0  0.26298553941E+03 -0.62824897407E+03  0.36210187792E+03  0.78636352304E+03  0.15294330000E+03 0.  0.
<mgrwt>
<rscale>  0 0.87778354E+03</rscale>
<asrwt>0</asrwt>
<pdfrwt beam="1">  1        2 0.11098424E+00 0.94745363E+03</pdfrwt>
<pdfrwt beam="2">  1       -2 0.15613843E+00 0.94745363E+03</pdfrwt>
<totfact> 0.10578075E+01</totfact>
</mgrwt>
</event>
<event>
 4    2  0.3388003E-007  0.8345119E+03  0.7818608E-02  0.9640617E-01
          2   -1    0    0  501    0  0.00000000000E+00  0.00000000000E+00  0.86157519452E+03  0.86157519452E+03  0.25500000000E-02 0. -1.
         -2   -1    0    0    0  501 -0.00000000000E+00 -0.00000000000E+00 -0.58525908355E+03  0.58525908355E+03  0.25500000000E-02 0.  1.
    8880023    1    1    2    0    0 -0.39346699280E+03 -0.32830409435E+03  0.35390384060E+03  0.90645352195E+03  0.65864270000E+03 0. -1.
    8880022    1    1    2    0    0  0.39346699280E+03  0.32830409435E+03 -0.77587729625E+02  0.54038075613E+03  0.15294330000E+03 0.  0.
<mgrwt>
<rscale>  0 0.74665251E+03</rscale>
<asrwt>0</asrwt>
<pdfrwt beam="1">  1        2 0.13255003E+00 0.83451187E+03</pdfrwt>
<pdfrwt beam="2">  1       -2 0.90039859E-01 0.83451187E+03</pdfrwt>
<totfact> 0.33134114E+01</totfact>
</mgrwt>
</event>
<event>
 4    2  0.3388003E-007  0.7000376E+03  0.7818608E-02  0.9997045E-01
          2   -1    0    0  501    0  0.00000000000E+00  0.00000000000E+00  0.36094879270E+03  0.36094879271E+03  0.25500000000E-02 0. -1.
         -2   -1    0    0    0  501 -0.00000000000E+00 -0.00000000000E+00 -0.68570025886E+03  0.68570025886E+03  0.25500000000E-02 0.  1.
    8880023    1    1    2    0    0  0.57734376821E+02  0.23001984919E+03 -0.30550925095E+03  0.76379872870E+03  0.65864270000E+03 0.  0.
    8880022    1    1    2    0    0 -0.57734376821E+02 -0.23001984919E+03 -0.19242215207E+02  0.28285032287E+03  0.15294330000E+03 0.  0.
<mgrwt>
<rscale>  0 0.55779980E+03</rscale>
<asrwt>0</asrwt>
<pdfrwt beam="1">  1        2 0.55530583E-01 0.70003757E+03</pdfrwt>
<pdfrwt beam="2">  1       -2 0.10549235E+00 0.70003757E+03</pdfrwt>
<totfact> 0.65766172E+01</totfact>
</mgrwt>
</event>
<event>
 4    2  0.3388003E-007  0.1014354E+04  0.7818608E-02  0.9363014E-01
         -2   -1    0    0    0  501 -0.00000000000E+00  0.00000000000E+00  0.37742315595E+03  0.37742315596E+03  0.25500000000E-02 0.  1.
          2   -1    0    0  501    0  0.00000000000E+00 -0.00000000000E+00 -0.26397338088E+04  0.26397338088E+04  0.25500000000E-02 0. -1.
    8880023    1    1    2    0    0  0.76106088443E+03  0.12605843322E+03 -0.60082362022E+03  0.11789417404E+04  0.65864270000E+03 0.  0.
    8880022    1    1    2    0    0 -0.76106088443E+03 -0.12605843322E+03 -0.16614870327E+04  0.18382152244E+04  0.15294330000E+03 0.  0.
<mgrwt>
<rscale>  0 0.95182995E+03</rscale>
<asrwt>0</asrwt>
<pdfrwt beam="1">  1        2 0.40611288E+00 0.10143543E+04</pdfrwt>
<pdfrwt beam="2">  1       -2 0.58065103E-01 0.10143543E+04</pdfrwt>
<totfact> 0.81052703E+00</totfact>
</mgrwt>
</event>
<event>
 4    2  0.3388003E-007  0.7513300E+03  0.7818608E-02  0.9828093E-01
          2   -1    0    0  501    0  0.00000000000E+00  0.00000000000E+00  0.29618200309E+03  0.29618200310E+03  0.25500000000E-02 0. -1.
         -2   -1    0    0    0  501 -0.00000000000E+00 -0.00000000000E+00 -0.16272396208E+04  0.16272396208E+04  0.25500000000E-02 0.  1.
    8880023    1    1    2    0    0 -0.97183474308E+02  0.34819814513E+03 -0.13338322562E+04  0.15308838199E+04  0.65864270000E+03 0.  1.
    8880022    1    1    2    0    0  0.97183474308E+02 -0.34819814513E+03  0.27746385241E+01  0.39253780402E+03  0.15294330000E+03 0.  0.
<mgrwt>
<rscale>  0 0.63876441E+03</rscale>
<asrwt>0</asrwt>
<pdfrwt beam="1">  1        2 0.45566463E-01 0.75133001E+03</pdfrwt>
<pdfrwt beam="2">  1       -2 0.25034455E+00 0.75133001E+03</pdfrwt>
<totfact> 0.73152959E+00</totfact>
</mgrwt>
</event>
<event>
 4    2  0.3388003E-007  0.7164441E+03  0.7818608E-02  0.9934807E-01
         -2   -1    0    0    0  501 -0.00000000000E+00  0.00000000000E+00  0.59660045484E+03  0.59660045485E+03  0.25500000000E-02 0.  1.
          2   -1    0    0  501    0  0.00000000000E+00 -0.00000000000E+00 -0.15485126347E+04  0.15485126347E+04  0.25500000000E-02 0. -1.
    8880023    1    1    2    0    0  0.69885361533E+02 -0.27312617444E+03  0.35489103102E+03  0.79952468447E+03  0.65864270000E+03 0.  1.
    8880022    1    1    2    0    0 -0.69885361533E+02  0.27312617444E+03 -0.13068032109E+04  0.13455884051E+04  0.15294330000E+03 0.  0.
<mgrwt>
<rscale>  0 0.58603650E+03</rscale>
<asrwt>0</asrwt>
<pdfrwt beam="1">  1        2 0.23823271E+00 0.71644405E+03</pdfrwt>
<pdfrwt beam="2">  1       -2 0.91784686E-01 0.71644405E+03</pdfrwt>
<totfact> 0.12398302E+01</totfact>
</mgrwt>
</event>
<event>
 4    2  0.3388003E-007  0.8975733E+03  0.7818608E-02  0.9529938E-01
         -2   -1    0    0    0  501 -0.00000000000E+00  0.00000000000E+00  0.14545022152E+04  0.14545022152E+04  0.25500000000E-02 0.  1.
          2   -1    0    0  501    0  0.00000000000E+00 -0.00000000000E+00 -0.92377392012E+03  0.92377392012E+03  0.25500000000E-02 0. -1.
    8880023    1    1    2    0    0  0.12389100345E+03  0.59705837329E+03  0.11746721350E+04  0.14783411355E+04  0.65864270000E+03 0.  0.
    8880022    1    1    2    0    0 -0.12389100345E+03 -0.59705837329E+03 -0.64394383995E+03  0.89993499981E+03  0.15294330000E+03 0.  0.
<mgrwt>
<rscale>  0 0.82112113E+03</rscale>
<asrwt>0</asrwt>
<pdfrwt beam="1">  1        2 0.14211907E+00 0.89757333E+03</pdfrwt>
<pdfrwt beam="2">  1       -2 0.22376957E+00 0.89757333E+03</pdfrwt>
<totfact> 0.26611708E+00</totfact>
</mgrwt>
</event>
<event>
 4    2  0.3388003E-007  0.8415297E+03  0.7818608E-02  0.9627303E-01
          2   -1    0    0  501    0  0.00000000000E+00  0.00000000000E+00  0.23956605912E+04  0.23956605912E+04  0.25500000000E-02 0. -1.
         -2   -1    0    0    0  501 -0.00000000000E+00 -0.00000000000E+00 -0.32562165837E+03  0.32562165838E+03  0.25500000000E-02 0.  1.
    8880023    1    1    2    0    0 -0.36327756298E+03 -0.37734791609E+03  0.34067348947E+03  0.90787150535E+03  0.65864270000E+03 0.  0.
    8880022    1    1    2    0    0  0.36327756298E+03  0.37734791609E+03  0.17293654434E+04  0.18134107442E+04  0.15294330000E+03 0.  0.
<mgrwt>
<rscale>  0 0.75515175E+03</rscale>
<asrwt>0</asrwt>
<pdfrwt beam="1">  1        2 0.36856318E+00 0.84152970E+03</pdfrwt>
<pdfrwt beam="2">  1       -2 0.50095638E-01 0.84152970E+03</pdfrwt>
<totfact> 0.15530069E+01</totfact>
</mgrwt>
</event>
<event>
 4    2  0.3388003E-007  0.7147512E+03  0.7818608E-02  0.9940763E-01
          2   -1    0    0  501    0  0.00000000000E+00  0.00000000000E+00  0.19496732415E+04  0.19496732415E+04  0.25500000000E-02 0. -1.
         -2   -1    0    0    0  501 -0.00000000000E+00 -0.00000000000E+00 -0.16547812919E+03  0.16547812921E+03  0.25500000000E-02 0.  1.
    8880023    1    1    2    0    0 -0.25526263045E+03  0.10908767197E+03  0.76114339672E+03  0.10441305509E+04  0.65864270000E+03 0.  1.
    8880022    1    1    2    0    0  0.25526263045E+03 -0.10908767197E+03  0.10230517156E+04  0.10710208199E+04  0.15294330000E+03 0.  0.
<mgrwt>
<rscale>  0 0.58325753E+03</rscale>
<asrwt>0</asrwt>
<pdfrwt beam="1">  1        2 0.29994973E+00 0.71475124E+03</pdfrwt>
<pdfrwt beam="2">  1       -2 0.25458173E-01 0.71475124E+03</pdfrwt>
<totfact> 0.10170130E+02</totfact>
</mgrwt>
</event>
<event>
 4    2  0.3388003E-007  0.9120644E+03  0.7818608E-02  0.9506935E-01
          2   -1    0    0  501    0  0.00000000000E+00  0.00000000000E+00  0.27884433232E+04  0.27884433232E+04  0.25500000000E-02 0. -1.
         -2   -1    0    0    0  501 -0.00000000000E+00 -0.00000000000E+00 -0.34564465904E+03  0.34564465905E+03  0.25500000000E-02 0.  1.
    8880023    1    1    2    0    0 -0.33252885135E+03 -0.53616765508E+03  0.40969752655E+03  0.99985672016E+03  0.65864270000E+03 0.  1.
    8880022    1    1    2    0    0  0.33252885135E+03  0.53616765508E+03  0.20331011377E+04  0.21342312621E+04  0.15294330000E+03 0.  0.
<mgrwt>
<rscale>  0 0.83774424E+03</rscale>
<asrwt>0</asrwt>
<pdfrwt beam="1">  1        2 0.42899130E+00 0.91206436E+03</pdfrwt>
<pdfrwt beam="2">  1       -2 0.53176099E-01 0.91206436E+03</pdfrwt>
<totfact> 0.80742144E+00</totfact>
</mgrwt>
</event>
<event>
 4    2  0.3388003E-007  0.7257057E+03  0.7818608E-02  0.9903732E-01
          2   -1    0    0  501    0  0.00000000000E+00  0.00000000000E+00  0.30459528625E+04  0.30459528625E+04  0.25500000000E-02 0. -1.
         -2   -1    0    0    0  501 -0.00000000000E+00 -0.00000000000E+00 -0.29517913464E+03  0.29517913465E+03  0.25500000000E-02 0.  1.
    8880023    1    1    2    0    0  0.10876853731E+03  0.28461907212E+03  0.17979347535E+03  0.74764597970E+03  0.65864270000E+03 0.  1.
    8880022    1    1    2    0    0 -0.10876853731E+03 -0.28461907212E+03  0.25709802525E+04  0.25934860175E+04  0.15294330000E+03 0.  0.
<mgrwt>
<rscale>  0 0.60080747E+03</rscale>
<asrwt>0</asrwt>
<pdfrwt beam="1">  1        2 0.46860810E+00 0.72570574E+03</pdfrwt>
<pdfrwt beam="2">  1       -2 0.45412178E-01 0.72570574E+03</pdfrwt>
<totfact> 0.80189150E+00</totfact>
</mgrwt>
</event>
<event>
 4    2  0.3388003E-007  0.6744013E+03  0.7818608E-02  0.1012686E+00
         -2   -1    0    0    0  501 -0.00000000000E+00  0.00000000000E+00  0.49623176797E+03  0.49623176797E+03  0.25500000000E-02 0.  1.
          2   -1    0    0  501    0  0.00000000000E+00 -0.00000000000E+00 -0.14894870143E+04  0.14894870143E+04  0.25500000000E-02 0. -1.
    8880023    1    1    2    0    0 -0.56236412910E+02  0.13358266343E+03  0.25410652375E+03  0.72068522517E+03  0.65864270000E+03 0.  1.
    8880022    1    1    2    0    0  0.56236412910E+02 -0.13358266343E+03 -0.12473617701E+04  0.12650335571E+04  0.15294330000E+03 0.  0.
<mgrwt>
<rscale>  0 0.50420812E+03</rscale>
<asrwt>0</asrwt>
<pdfrwt beam="1">  1        2 0.22915185E+00 0.67440127E+03</pdfrwt>
<pdfrwt beam="2">  1       -2 0.76343350E-01 0.67440127E+03</pdfrwt>
<totfact> 0.20420653E+01</totfact>
</mgrwt>
</event>
<event>
 4    2  0.3388003E-007  0.7000503E+03  0.7818608E-02  0.9996992E-01
          2   -1    0    0  501    0  0.00000000000E+00  0.00000000000E+00  0.48579258124E+03  0.48579258125E+03  0.25500000000E-02 0. -1.
         -2   -1    0    0    0  501 -0.00000000000E+00 -0.00000000000E+00 -0.83901338694E+03  0.83901338694E+03  0.25500000000E-02 0.  1.
    8880023    1    1    2    0    0 -0.13767057009E+03  0.19315041114E+03 -0.62097361991E+03  0.93577706217E+03  0.65864270000E+03 0. -1.
    8880022    1    1    2    0    0  0.13767057009E+03 -0.19315041114E+03  0.26775281421E+03  0.38902890603E+03  0.15294330000E+03 0.  0.
<mgrwt>
<rscale>  0 0.55782308E+03</rscale>
<asrwt>0</asrwt>
<pdfrwt beam="1">  1        2 0.74737320E-01 0.70005034E+03</pdfrwt>
<pdfrwt beam="2">  1       -2 0.12907898E+00 0.70005034E+03</pdfrwt>
<totfact> 0.28622087E+01</totfact>
</mgrwt>
</event>
<event>
 4    2  0.3388003E-007  0.6657429E+03  0.7818608E-02  0.1018918E+00
         -2   -1    0    0    0  501 -0.00000000000E+00  0.00000000000E+00  0.24848075656E+03  0.24848075657E+03  0.25500000000E-02 0.  1.
          2   -1    0    0  501    0  0.00000000000E+00 -0.00000000000E+00 -0.26614292835E+04  0.26614292835E+04  0.25500000000E-02 0. -1.
    8880023    1    1    2    0    0  0.91330138191E+02 -0.32592141873E+02 -0.20791723132E+03  0.69745481803E+03  0.65864270000E+03 0.  1.
    8880022    1    1    2    0    0 -0.91330138191E+02  0.32592141873E+02 -0.22050312956E+04  0.22124552221E+04  0.15294330000E+03 0.  0.
<mgrwt>
<rscale>  0 0.48079067E+03</rscale>
<asrwt>0</asrwt>
<pdfrwt beam="1">  1        2 0.40945064E+00 0.66574293E+03</pdfrwt>
<pdfrwt beam="2">  1       -2 0.38227810E-01 0.66574293E+03</pdfrwt>
<totfact> 0.19266541E+01</totfact>
</mgrwt>
</event>
<event>
 4    2  0.3388003E-007  0.1193299E+04  0.7818608E-02  0.9163663E-01
         -2   -1    0    0    0  501 -0.00000000000E+00  0.00000000000E+00  0.24703182751E+04  0.24703182751E+04  0.25500000000E-02 0.  1.
          2   -1    0    0  501    0  0.00000000000E+00 -0.00000000000E+00 -0.11038899298E+04  0.11038899298E+04  0.25500000000E-02 0. -1.
    8880023    1    1    2    0    0 -0.62955119086E+03  0.77059626159E+03  0.20396689257E+04  0.23630939112E+04  0.65864270000E+03 0.  1.
    8880022    1    1    2    0    0  0.62955119086E+03 -0.77059626159E+03 -0.67324058040E+03  0.12111142937E+04  0.15294330000E+03 0.  0.
<mgrwt>
<rscale>  0 0.11436482E+04</rscale>
<asrwt>0</asrwt>
<pdfrwt beam="1">  1        2 0.16982922E+00 0.11932994E+04</pdfrwt>
<pdfrwt beam="2">  1       -2 0.38004896E+00 0.11932994E+04</pdfrwt>
<totfact> 0.21351982E-01</totfact>
</mgrwt>
</event>
<event>
 4    2  0.3388003E-007  0.7722574E+03  0.7818608E-02  0.9774349E-01
         -2   -1    0    0    0  501 -0.00000000000E+00  0.00000000000E+00  0.53779903075E+03  0.53779903075E+03  0.25500000000E-02 0.  1.
          2   -1    0    0  501    0  0.00000000000E+00 -0.00000000000E+00 -0.21184667089E+04  0.21184667089E+04  0.25500000000E-02 0. -1.
    8880023    1    1    2    0    0 -0.37338107664E+03  0.15217693137E+03  0.22136127850E+03  0.80335687507E+03  0.65864270000E+03 0.  1.
    8880022    1    1    2    0    0  0.37338107664E+03 -0.15217693137E+03 -0.18020289566E+04  0.18529088646E+04  0.15294330000E+03 0.  0.
<mgrwt>
<rscale>  0 0.66757465E+03</rscale>
<asrwt>0</asrwt>
<pdfrwt beam="1">  1        2 0.32591795E+00 0.77225737E+03</pdfrwt>
<pdfrwt beam="2">  1       -2 0.82738314E-01 0.77225737E+03</pdfrwt>
<totfact> 0.76079788E+00</totfact>
</mgrwt>
</event>
<event>
 4    2  0.3388003E-007  0.6863626E+03  0.7818608E-02  0.1005932E+00
         -2   -1    0    0    0  501 -0.00000000000E+00  0.00000000000E+00  0.44485141425E+03  0.44485141426E+03  0.25500000000E-02 0.  1.
          2   -1    0    0  501    0  0.00000000000E+00 -0.00000000000E+00 -0.50275368874E+03  0.50275368874E+03  0.25500000000E-02 0. -1.
    8880023    1    1    2    0    0 -0.15124222687E+03  0.12003824699E+03  0.27456347671E+02  0.68691152940E+03  0.65864270000E+03 0.  0.
    8880022    1    1    2    0    0  0.15124222687E+03 -0.12003824699E+03 -0.85358622154E+02  0.26069357360E+03  0.15294330000E+03 0.  1.
<mgrwt>
<rscale>  0 0.53124085E+03</rscale>
<asrwt>0</asrwt>
<pdfrwt beam="1">  1        2 0.77346722E-01 0.68636259E+03</pdfrwt>
<pdfrwt beam="2">  1       -2 0.68438679E-01 0.68636259E+03</pdfrwt>
<totfact> 0.12115861E+02</totfact>
</mgrwt>
</event>
<event>
 4    2  0.3514759E-007  0.8282042E+03  0.7818608E-02  0.9652837E-01
          2   -1    0    0  501    0  0.00000000000E+00  0.00000000000E+00  0.18195431568E+04  0.18195431568E+04  0.25500000000E-02 0. -1.
         -2   -1    0    0    0  501 -0.00000000000E+00 -0.00000000000E+00 -0.96611980056E+03  0.96611980056E+03  0.25500000000E-02 0.  1.
    8880023    1    1    2    0    0 -0.14277775941E+03  0.48137972678E+03 -0.73837518419E+03  0.11095584927E+04  0.65864270000E+03 0.  0.
    8880022    1    1    2    0    0  0.14277775941E+03 -0.48137972678E+03  0.15917985404E+04  0.16761044646E+04  0.15294330000E+03 0.  0.
<mgrwt>
<rscale>  0 0.73895665E+03</rscale>
<asrwt>0</asrwt>
<pdfrwt beam="1">  1        2 0.27992972E+00 0.82820416E+03</pdfrwt>
<pdfrwt beam="2">  1       -2 0.14863382E+00 0.82820416E+03</pdfrwt>
<totfact> 0.26355206E+00</totfact>
</mgrwt>
</event>
<event>
 4    2  0.3388003E-007  0.7510956E+03  0.7818608E-02  0.9828731E-01
         -2   -1    0    0    0  501 -0.00000000000E+00  0.00000000000E+00  0.68763627651E+03  0.68763627652E+03  0.25500000000E-02 0.  1.
          2   -1    0    0  501    0  0.00000000000E+00 -0.00000000000E+00 -0.13255135393E+04  0.13255135393E+04  0.25500000000E-02 0. -1.
    8880023    1    1    2    0    0 -0.18234283740E+03 -0.31158533975E+03  0.43701641282E+03  0.86898094665E+03  0.65864270000E+03 0.  0.
    8880022    1    1    2    0    0  0.18234283740E+03  0.31158533975E+03 -0.10748936756E+04  0.11441688692E+04  0.15294330000E+03 0.  0.
<mgrwt>
<rscale>  0 0.63843224E+03</rscale>
<asrwt>0</asrwt>
<pdfrwt beam="1">  1        2 0.20392516E+00 0.75109556E+03</pdfrwt>
<pdfrwt beam="2">  1       -2 0.10579020E+00 0.75109556E+03</pdfrwt>
<totfact> 0.11780112E+01</totfact>
</mgrwt>
</event>
<event>
 4    2  0.3388003E-007  0.6781278E+03  0.7818608E-02  0.1010403E+00
         -2   -1    0    0    0  501 -0.00000000000E+00  0.00000000000E+00  0.12518645108E+03  0.12518645111E+03  0.25500000000E-02 0.  1.
          2   -1    0    0  501    0  0.00000000000E+00 -0.00000000000E+00 -0.31615162399E+04  0.31615162399E+04  0.25500000000E-02 0. -1.
    8880023    1    1    2    0    0  0.14914803544E+03 -0.61660229408E+02 -0.84192527368E+03  0.10810622059E+04  0.65864270000E+03 0.  1.
    8880022    1    1    2    0    0 -0.14914803544E+03  0.61660229408E+02 -0.21944045151E+04  0.22056404851E+04  0.15294330000E+03 0.  0.
<mgrwt>
<rscale>  0 0.51314739E+03</rscale>
<asrwt>0</asrwt>
<pdfrwt beam="1">  1        2 0.48638705E+00 0.67812781E+03</pdfrwt>
<pdfrwt beam="2">  1       -2 0.19259456E-01 0.67812781E+03</pdfrwt>
<totfact> 0.33669809E+01</totfact>
</mgrwt>
</event>
<event>
 4    2  0.3388003E-007  0.6863311E+03  0.7818608E-02  0.1005947E+00
         -2   -1    0    0    0  501 -0.00000000000E+00  0.00000000000E+00  0.13753227263E+03  0.13753227265E+03  0.25500000000E-02 0.  1.
          2   -1    0    0  501    0  0.00000000000E+00 -0.00000000000E+00 -0.27867275090E+04  0.27867275090E+04  0.25500000000E-02 0. -1.
    8880023    1    1    2    0    0 -0.13799415559E+03  0.13489929314E+03 -0.78020957396E+03  0.10391233766E+04  0.65864270000E+03 0.  1.
    8880022    1    1    2    0    0  0.13799415559E+03 -0.13489929314E+03 -0.18689856624E+04  0.18851364050E+04  0.15294330000E+03 0.  0.
<mgrwt>
<rscale>  0 0.53117531E+03</rscale>
<asrwt>0</asrwt>
<pdfrwt beam="1">  1        2 0.42872727E+00 0.68633112E+03</pdfrwt>
<pdfrwt beam="2">  1       -2 0.21158813E-01 0.68633112E+03</pdfrwt>
<totfact> 0.48192591E+01</totfact>
</mgrwt>
</event>
<event>
 4    2  0.3388003E-007  0.1343530E+04  0.7818608E-02  0.9028852E-01
          2   -1    0    0  501    0  0.00000000000E+00  0.00000000000E+00  0.10113877357E+04  0.10113877357E+04  0.25500000000E-02 0. -1.
         -2   -1    0    0    0  501 -0.00000000000E+00 -0.00000000000E+00 -0.22454565424E+04  0.22454565424E+04  0.25500000000E-02 0.  1.
    8880023    1    1    2    0    0  0.58478099985E+03 -0.10145412153E+04  0.24339834727E+03  0.13653994496E+04  0.65864270000E+03 0.  0.
    8880022    1    1    2    0    0 -0.58478099985E+03  0.10145412153E+04 -0.14774671539E+04  0.18914448285E+04  0.15294330000E+03 0.  0.
<mgrwt>
<rscale>  0 0.13008998E+04</rscale>
<asrwt>0</asrwt>
<pdfrwt beam="1">  1        2 0.15559811E+00 0.13435300E+04</pdfrwt>
<pdfrwt beam="2">  1       -2 0.34545485E+00 0.13435300E+04</pdfrwt>
<totfact> 0.39727839E-01</totfact>
</mgrwt>
</event>
<event>
 4    2  0.3388003E-007  0.6752788E+03  0.7818608E-02  0.1012131E+00
          2   -1    0    0  501    0  0.00000000000E+00  0.00000000000E+00  0.18506487963E+03  0.18506487965E+03  0.25500000000E-02 0. -1.
         -2   -1    0    0    0  501 -0.00000000000E+00 -0.00000000000E+00 -0.16139024097E+04  0.16139024097E+04  0.25500000000E-02 0.  1.
    8880023    1    1    2    0    0  0.14760248016E+03  0.20117661243E+02 -0.14343889715E+04  0.15853936862E+04  0.65864270000E+03 0.  1.
    8880022    1    1    2    0    0 -0.14760248016E+03 -0.20117661243E+02  0.55514414335E+01  0.21357360314E+03  0.15294330000E+03 0.  0.
<mgrwt>
<rscale>  0 0.50636365E+03</rscale>
<asrwt>0</asrwt>
<pdfrwt beam="1">  1        2 0.28471521E-01 0.67527877E+03</pdfrwt>
<pdfrwt beam="2">  1       -2 0.24829267E+00 0.67527877E+03</pdfrwt>
<totfact> 0.12851338E+01</totfact>
</mgrwt>
</event>
<event>
 4    2  0.3388003E-007  0.7613010E+03  0.7818608E-02  0.9801751E-01
          2   -1    0    0  501    0  0.00000000000E+00  0.00000000000E+00  0.27726222793E+04  0.27726222793E+04  0.25500000000E-02 0. -1.
         -2   -1    0    0    0  501 -0.00000000000E+00 -0.00000000000E+00 -0.12397852300E+03  0.12397852303E+03  0.25500000000E-02 0.  1.
    8880023    1    1    2    0    0 -0.31851183197E+03 -0.21052146098E+03  0.17160611098E+04  0.18773505297E+04  0.65864270000E+03 0.  0.
    8880022    1    1    2    0    0  0.31851183197E+03  0.21052146098E+03  0.93258264649E+03  0.10192502726E+04  0.15294330000E+03 0.  1.
<mgrwt>
<rscale>  0 0.65268670E+03</rscale>
<asrwt>0</asrwt>
<pdfrwt beam="1">  1        2 0.42655729E+00 0.76130104E+03</pdfrwt>
<pdfrwt beam="2">  1       -2 0.19073618E-01 0.76130104E+03</pdfrwt>
<totfact> 0.58273133E+01</totfact>
</mgrwt>
</event>
<event>
 4    2  0.3388003E-007  0.8428429E+03  0.7818608E-02  0.9624843E-01
         -2   -1    0    0    0  501 -0.00000000000E+00  0.00000000000E+00  0.27721429809E+03  0.27721429810E+03  0.25500000000E-02 0.  1.
          2   -1    0    0  501    0  0.00000000000E+00 -0.00000000000E+00 -0.18831532085E+04  0.18831532085E+04  0.25500000000E-02 0. -1.
    8880023    1    1    2    0    0  0.21547138275E+03 -0.47973533137E+03 -0.12484750216E+04  0.15063445791E+04  0.65864270000E+03 0. -1.
    8880022    1    1    2    0    0 -0.21547138275E+03  0.47973533137E+03 -0.35746388876E+03  0.65402292753E+03  0.15294330000E+03 0.  0.
<mgrwt>
<rscale>  0 0.75673512E+03</rscale>
<asrwt>0</asrwt>
<pdfrwt beam="1">  1        2 0.28971587E+00 0.84284287E+03</pdfrwt>
<pdfrwt beam="2">  1       -2 0.42648355E-01 0.84284287E+03</pdfrwt>
<totfact> 0.41166848E+01</totfact>
</mgrwt>
</event>
<event>
 4    2  0.3388003E-007  0.6658892E+03  0.7818608E-02  0.1018799E+00
         -2   -1    0    0    0  501 -0.00000000000E+00  0.00000000000E+00  0.42802331936E+03  0.42802331937E+03  0.25500000000E-02 0.  1.
          2   -1    0    0  501    0  0.00000000000E+00 -0.00000000000E+00 -0.60812248774E+03  0.60812248774E+03  0.25500000000E-02 0. -1.
    8880023    1    1    2    0    0 -0.70129398352E+02  0.68410973357E+02  0.12839393421E+03  0.67815440896E+03  0.65864270000E+03 0.  1.
    8880022    1    1    2    0    0  0.70129398352E+02 -0.68410973357E+02 -0.30849310259E+03  0.35799139815E+03  0.15294330000E+03 0.  0.
<mgrwt>
<rscale>  0 0.48122591E+03</rscale>
<asrwt>0</asrwt>
<pdfrwt beam="1">  1        2 0.93557306E-01 0.66588918E+03</pdfrwt>
<pdfrwt beam="2">  1       -2 0.65849742E-01 0.66588918E+03</pdfrwt>
<totfact> 0.10529251E+02</totfact>
</mgrwt>
</event>
<event>
 4    2  0.3388003E-007  0.6736888E+03  0.7818608E-02  0.1013146E+00
          2   -1    0    0  501    0  0.00000000000E+00  0.00000000000E+00  0.15560045555E+04  0.15560045555E+04  0.25500000000E-02 0. -1.
         -2   -1    0    0    0  501 -0.00000000000E+00 -0.00000000000E+00 -0.50091085844E+03  0.50091085844E+03  0.25500000000E-02 0.  1.
    8880023    1    1    2    0    0 -0.49163242897E+02 -0.13277562951E+03 -0.26243803073E+03  0.72300091181E+03  0.65864270000E+03 0.  1.
    8880022    1    1    2    0    0  0.49163242897E+02  0.13277562951E+03  0.13175317278E+04  0.13339145021E+04  0.15294330000E+03 0.  0.
<mgrwt>
<rscale>  0 0.50243314E+03</rscale>
<asrwt>0</asrwt>
<pdfrwt beam="1">  1        2 0.23938532E+00 0.67368880E+03</pdfrwt>
<pdfrwt beam="2">  1       -2 0.77063209E-01 0.67368880E+03</pdfrwt>
<totfact> 0.18375280E+01</totfact>
</mgrwt>
</event>
<event>
 4    2  0.3388003E-007  0.7218633E+03  0.7818608E-02  0.9916331E-01
          2   -1    0    0  501    0  0.00000000000E+00  0.00000000000E+00  0.11490486338E+04  0.11490486338E+04  0.25500000000E-02 0. -1.
         -2   -1    0    0    0  501 -0.00000000000E+00 -0.00000000000E+00 -0.50673037084E+03  0.50673037085E+03  0.25500000000E-02 0.  1.
    8880023    1    1    2    0    0 -0.26200820690E+03  0.13648464736E+03  0.95641720406E+03  0.11982572486E+04  0.65864270000E+03 0. -1.
    8880022    1    1    2    0    0  0.26200820690E+03 -0.13648464736E+03 -0.31409894107E+03  0.45752175604E+03  0.15294330000E+03 0.  0.
<mgrwt>
<rscale>  0 0.59476303E+03</rscale>
<asrwt>0</asrwt>
<pdfrwt beam="1">  1        2 0.17677671E+00 0.72186326E+03</pdfrwt>
<pdfrwt beam="2">  1       -2 0.77958519E-01 0.72186326E+03</pdfrwt>
<totfact> 0.30403704E+01</totfact>
</mgrwt>
</event>
<event>
 4    2  0.3388003E-007  0.8792770E+03  0.7818608E-02  0.9560153E-01
          2   -1    0    0  501    0  0.00000000000E+00  0.00000000000E+00  0.35233659345E+04  0.35233659345E+04  0.25500000000E-02 0. -1.
         -2   -1    0    0    0  501 -0.00000000000E+00 -0.00000000000E+00 -0.36957704403E+03  0.36957704404E+03  0.25500000000E-02 0.  1.
    8880023    1    1    2    0    0  0.30006047230E+03  0.49928097069E+03  0.23150177711E+03  0.90924202158E+03  0.65864270000E+03 0.  1.
    8880022    1    1    2    0    0 -0.30006047230E+03 -0.49928097069E+03  0.29222871133E+04  0.29837009569E+04  0.15294330000E+03 0.  0.
<mgrwt>
<rscale>  0 0.79990632E+03</rscale>
<asrwt>0</asrwt>
<pdfrwt beam="1">  1        2 0.54205632E+00 0.87927696E+03</pdfrwt>
<pdfrwt beam="2">  1       -2 0.56858004E-01 0.87927696E+03</pdfrwt>
<totfact> 0.24059146E+00</totfact>
</mgrwt>
</event>
<event>
 4    2  0.3388003E-007  0.8909615E+03  0.7818608E-02  0.9540700E-01
         -2   -1    0    0    0  501 -0.00000000000E+00  0.00000000000E+00  0.10588945138E+04  0.10588945138E+04  0.25500000000E-02 0.  1.
          2   -1    0    0  501    0  0.00000000000E+00 -0.00000000000E+00 -0.79131292246E+03  0.79131292246E+03  0.25500000000E-02 0. -1.
    8880023    1    1    2    0    0 -0.90977439414E+02 -0.59306427177E+03  0.66735105915E+03  0.11131800247E+04  0.65864270000E+03 0.  1.
    8880022    1    1    2    0    0  0.90977439414E+02  0.59306427177E+03 -0.39976946784E+03  0.73702741155E+03  0.15294330000E+03 0.  0.
<mgrwt>
<rscale>  0 0.81348551E+03</rscale>
<asrwt>0</asrwt>
<pdfrwt beam="1">  1        2 0.12174045E+00 0.89096146E+03</pdfrwt>
<pdfrwt beam="2">  1       -2 0.16290685E+00 0.89096146E+03</pdfrwt>
<totfact> 0.83967381E+00</totfact>
</mgrwt>
</event>
<event>
 4    2  0.3388003E-007  0.6792074E+03  0.7818608E-02  0.1009776E+00
         -2   -1    0    0    0  501 -0.00000000000E+00  0.00000000000E+00  0.43473845558E+03  0.43473845558E+03  0.25500000000E-02 0.  1.
          2   -1    0    0  501    0  0.00000000000E+00 -0.00000000000E+00 -0.15253141111E+04  0.15253141111E+04  0.25500000000E-02 0. -1.
    8880023    1    1    2    0    0 -0.13591850907E+03 -0.95071633770E+02  0.15295767260E+03  0.69621743193E+03  0.65864270000E+03 0.  1.
    8880022    1    1    2    0    0  0.13591850907E+03  0.95071633770E+02 -0.12435333281E+04  0.12638351347E+04  0.15294330000E+03 0.  0.
<mgrwt>
<rscale>  0 0.51563917E+03</rscale>
<asrwt>0</asrwt>
<pdfrwt beam="1">  1        2 0.23466371E+00 0.67920738E+03</pdfrwt>
<pdfrwt beam="2">  1       -2 0.66882840E-01 0.67920738E+03</pdfrwt>
<totfact> 0.26046224E+01</totfact>
</mgrwt>
</event>
<event>
 4    2  0.3388003E-007  0.8524040E+03  0.7818608E-02  0.9607221E-01
          2   -1    0    0  501    0  0.00000000000E+00  0.00000000000E+00  0.11356014294E+04  0.11356014294E+04  0.25500000000E-02 0. -1.
         -2   -1    0    0    0  501 -0.00000000000E+00 -0.00000000000E+00 -0.71471890778E+03  0.71471890779E+03  0.25500000000E-02 0.  1.
    8880023    1    1    2    0    0  0.10566563856E+03 -0.53067606243E+03 -0.32843607359E+03  0.91348933826E+03  0.65864270000E+03 0.  0.
    8880022    1    1    2    0    0 -0.10566563856E+03  0.53067606243E+03  0.74931859518E+03  0.93683099890E+03  0.15294330000E+03 0.  0.
<mgrwt>
<rscale>  0 0.76820098E+03</rscale>
<asrwt>0</asrwt>
<pdfrwt beam="1">  1        2 0.17470791E+00 0.85240396E+03</pdfrwt>
<pdfrwt beam="2">  1       -2 0.10995676E+00 0.85240396E+03</pdfrwt>
<totfact> 0.13722412E+01</totfact>
</mgrwt>
</event>
<event>
 4    2  0.3388003E-007  0.8289517E+03  0.7818608E-02  0.9651375E-01
          2   -1    0    0  501    0  0.00000000000E+00  0.00000000000E+00  0.12555189083E+04  0.12555189083E+04  0.25500000000E-02 0. -1.
         -2   -1    0    0    0  501 -0.00000000000E+00 -0.00000000000E+00 -0.43558436476E+03  0.43558436477E+03  0.25500000000E-02 0.  1.
    8880023    1    1    2    0    0 -0.30272448354E+02 -0.50242841076E+03  0.15513865975E+03  0.84334390321E+03  0.65864270000E+03 0.  1.
    8880022    1    1    2    0    0  0.30272448354E+02  0.50242841076E+03  0.66479588380E+03  0.84775936987E+03  0.15294330000E+03 0.  0.
<mgrwt>
<rscale>  0 0.73987164E+03</rscale>
<asrwt>0</asrwt>
<pdfrwt beam="1">  1        2 0.19315675E+00 0.82895171E+03</pdfrwt>
<pdfrwt beam="2">  1       -2 0.67012980E-01 0.82895171E+03</pdfrwt>
<totfact> 0.36290435E+01</totfact>
</mgrwt>
</event>
<event>
 4    2  0.3388003E-007  0.7014600E+03  0.7818608E-02  0.9991197E-01
          2   -1    0    0  501    0  0.00000000000E+00  0.00000000000E+00  0.12011457190E+04  0.12011457190E+04  0.25500000000E-02 0. -1.
         -2   -1    0    0    0  501 -0.00000000000E+00 -0.00000000000E+00 -0.44816749487E+03  0.44816749488E+03  0.25500000000E-02 0.  1.
    8880023    1    1    2    0    0  0.17877704445E+03  0.16209489453E+03 -0.13690084369E+03  0.71469436385E+03  0.65864270000E+03 0.  0.
    8880022    1    1    2    0    0 -0.17877704445E+03 -0.16209489453E+03  0.88987906778E+03  0.93461884998E+03  0.15294330000E+03 0.  0.
<mgrwt>
<rscale>  0 0.56037901E+03</rscale>
<asrwt>0</asrwt>
<pdfrwt beam="1">  1        2 0.18479165E+00 0.70146004E+03</pdfrwt>
<pdfrwt beam="2">  1       -2 0.68948846E-01 0.70146004E+03</pdfrwt>
<totfact> 0.37188154E+01</totfact>
</mgrwt>
</event>
<event>
 4    2  0.3388003E-007  0.8369359E+03  0.7818608E-02  0.9635985E-01
         -2   -1    0    0    0  501 -0.00000000000E+00  0.00000000000E+00  0.49958833746E+03  0.49958833746E+03  0.25500000000E-02 0.  1.
          2   -1    0    0  501    0  0.00000000000E+00 -0.00000000000E+00 -0.26126959263E+04  0.26126959263E+04  0.25500000000E-02 0. -1.
    8880023    1    1    2    0    0  0.26094288509E+03 -0.44560101808E+03  0.92356875187E+02  0.84201630344E+03  0.65864270000E+03 0.  0.
    8880022    1    1    2    0    0 -0.26094288509E+03  0.44560101808E+03 -0.22054644640E+04  0.22702679603E+04  0.15294330000E+03 0.  0.
<mgrwt>
<rscale>  0 0.74959548E+03</rscale>
<asrwt>0</asrwt>
<pdfrwt beam="1">  1        2 0.40195321E+00 0.83693588E+03</pdfrwt>
<pdfrwt beam="2">  1       -2 0.76859746E-01 0.83693588E+03</pdfrwt>
<totfact> 0.46933510E+00</totfact>
</mgrwt>
</event>
<event>
 4    2  0.3388003E-007  0.7789566E+03  0.7818608E-02  0.9758294E-01
         -2   -1    0    0    0  501 -0.00000000000E+00  0.00000000000E+00  0.18556996933E+04  0.18556996933E+04  0.25500000000E-02 0.  1.
          2   -1    0    0  501    0  0.00000000000E+00 -0.00000000000E+00 -0.31056285516E+03  0.31056285517E+03  0.25500000000E-02 0. -1.
    8880023    1    1    2    0    0 -0.18753652380E+03  0.37120508055E+03  0.15369410292E+04  0.17230673501E+04  0.65864270000E+03 0.  1.
    8880022    1    1    2    0    0  0.18753652380E+03 -0.37120508055E+03  0.81958090026E+01  0.44319519840E+03  0.15294330000E+03 0.  0.
<mgrwt>
<rscale>  0 0.67649585E+03</rscale>
<asrwt>0</asrwt>
<pdfrwt beam="1">  1        2 0.47778902E-01 0.77895659E+03</pdfrwt>
<pdfrwt beam="2">  1       -2 0.28549225E+00 0.77895659E+03</pdfrwt>
<totfact> 0.42504445E+00</totfact>
</mgrwt>
</event>
<event>
 4    2  0.3388003E-007  0.7150488E+03  0.7818608E-02  0.9939710E-01
         -2   -1    0    0    0  501 -0.00000000000E+00  0.00000000000E+00  0.17066353555E+03  0.17066353557E+03  0.25500000000E-02 0.  1.
          2   -1    0    0  501    0  0.00000000000E+00 -0.00000000000E+00 -0.30602598563E+04  0.30602598563E+04  0.25500000000E-02 0. -1.
    8880023    1    1    2    0    0 -0.15292403277E+03  0.23259140831E+03 -0.64190843701E+03  0.96090643186E+03  0.65864270000E+03 0.  1.
    8880022    1    1    2    0    0  0.15292403277E+03 -0.23259140831E+03 -0.22476878837E+04  0.22700169600E+04  0.15294330000E+03 0.  0.
<mgrwt>
<rscale>  0 0.58374788E+03</rscale>
<asrwt>0</asrwt>
<pdfrwt beam="1">  1        2 0.47080917E+00 0.71504876E+03</pdfrwt>
<pdfrwt beam="2">  1       -2 0.26255931E-01 0.71504876E+03</pdfrwt>
<totfact> 0.22312453E+01</totfact>
</mgrwt>
</event>
<event>
 4    2  0.3388003E-007  0.1024592E+04  0.7818608E-02  0.9350068E-01
         -2   -1    0    0    0  501 -0.00000000000E+00  0.00000000000E+00  0.36015491592E+04  0.36015491592E+04  0.25500000000E-02 0.  1.
          2   -1    0    0  501    0  0.00000000000E+00 -0.00000000000E+00 -0.68898395564E+03  0.68898395564E+03  0.25500000000E-02 0. -1.
    8880023    1    1    2    0    0 -0.70807429556E+03  0.33853968182E+03  0.32610993710E+04  0.34182682221E+04  0.65864270000E+03 0.  0.
    8880022    1    1    2    0    0  0.70807429556E+03 -0.33853968182E+03 -0.34853416747E+03  0.87226489274E+03  0.15294330000E+03 0.  0.
<mgrwt>
<rscale>  0 0.96301314E+03</rscale>
<asrwt>0</asrwt>
<pdfrwt beam="1">  1        2 0.10599753E+00 0.10245919E+04</pdfrwt>
<pdfrwt beam="2">  1       -2 0.55408448E+00 0.10245919E+04</pdfrwt>
<totfact> 0.33633752E-02</totfact>
</mgrwt>
</event>
<event>
 4    2  0.3388003E-007  0.7420259E+03  0.7818608E-02  0.9854085E-01
         -2   -1    0    0    0  501 -0.00000000000E+00  0.00000000000E+00  0.21505204323E+03  0.21505204324E+03  0.25500000000E-02 0.  1.
          2   -1    0    0  501    0  0.00000000000E+00 -0.00000000000E+00 -0.26787810429E+04  0.26787810429E+04  0.25500000000E-02 0. -1.
    8880023    1    1    2    0    0 -0.31069498604E+03 -0.14234081956E+03 -0.50008152392E+03  0.89480948815E+03  0.65864270000E+03 0.  0.
    8880022    1    1    2    0    0  0.31069498604E+03  0.14234081956E+03 -0.19636474758E+04  0.19990235980E+04  0.15294330000E+03 0.  0.
<mgrwt>
<rscale>  0 0.62539095E+03</rscale>
<asrwt>0</asrwt>
<pdfrwt beam="1">  1        2 0.41212014E+00 0.74202594E+03</pdfrwt>
<pdfrwt beam="2">  1       -2 0.33084932E-01 0.74202594E+03</pdfrwt>
<totfact> 0.24488263E+01</totfact>
</mgrwt>
</event>
<event>
 4    2  0.9635525E-007  0.9074908E+03  0.7818608E-02  0.9514112E-01
         -2   -1    0    0    0  501 -0.00000000000E+00  0.00000000000E+00  0.36344463910E+04  0.36344463910E+04  0.25500000000E-02 0.  1.
          2   -1    0    0  501    0  0.00000000000E+00 -0.00000000000E+00 -0.18428964294E+04  0.18428964294E+04  0.25500000000E-02 0. -1.
    8880023    1    1    2    0    0 -0.44228223480E+03 -0.44058580185E+03  0.35190325863E+04  0.36341615228E+04  0.65864270000E+03 0.  1.
    8880022    1    1    2    0    0  0.44228223480E+03  0.44058580185E+03 -0.17274826247E+04  0.18431812976E+04  0.15294330000E+03 0.  0.
<mgrwt>
<rscale>  0 0.83251364E+03</rscale>
<asrwt>0</asrwt>
<pdfrwt beam="1">  1        2 0.28352253E+00 0.90749084E+03</pdfrwt>
<pdfrwt beam="2">  1       -2 0.55914559E+00 0.90749084E+03</pdfrwt>
<totfact> 0.63590163E-03</totfact>
</mgrwt>
</event>
<event>
 4    2  0.3388003E-007  0.1614640E+04  0.7818608E-02  0.8832658E-01
          2   -1    0    0  501    0  0.00000000000E+00  0.00000000000E+00  0.52604490806E+04  0.52604490806E+04  0.25500000000E-02 0. -1.
         -2   -1    0    0    0  501 -0.00000000000E+00 -0.00000000000E+00 -0.59526964273E+03  0.59526964274E+03  0.25500000000E-02 0.  1.
    8880023    1    1    2    0    0 -0.14629840384E+04 -0.18146935317E+03  0.38254740373E+04  0.41522662774E+04  0.65864270000E+03 0.  0.
    8880022    1    1    2    0    0  0.14629840384E+04  0.18146935317E+03  0.83970540059E+03  0.17034524459E+04  0.15294330000E+03 0.  0.
<mgrwt>
<rscale>  0 0.15804358E+04</rscale>
<asrwt>0</asrwt>
<pdfrwt beam="1">  1        2 0.80929985E+00 0.16146404E+04</pdfrwt>
<pdfrwt beam="2">  1       -2 0.91579946E-01 0.16146404E+04</pdfrwt>
<totfact> 0.15052426E-02</totfact>
</mgrwt>
</event>
<event>
 4    2  0.3388003E-007  0.7499936E+03  0.7818608E-02  0.9831738E-01
         -2   -1    0    0    0  501 -0.00000000000E+00  0.00000000000E+00  0.38570194389E+03  0.38570194389E+03  0.25500000000E-02 0.  1.
          2   -1    0    0  501    0  0.00000000000E+00 -0.00000000000E+00 -0.15603128758E+04  0.15603128758E+04  0.25500000000E-02 0. -1.
    8880023    1    1    2    0    0 -0.35871984395E+03  0.57543636427E+00 -0.45402195762E+02  0.75136663701E+03  0.65864270000E+03 0.  1.
    8880022    1    1    2    0    0  0.35871984395E+03 -0.57543636427E+00 -0.11292087362E+04  0.11946481827E+04  0.15294330000E+03 0.  0.
<mgrwt>
<rscale>  0 0.63686783E+03</rscale>
<asrwt>0</asrwt>
<pdfrwt beam="1">  1        2 0.24004813E+00 0.74999364E+03</pdfrwt>
<pdfrwt beam="2">  1       -2 0.59338761E-01 0.74999364E+03</pdfrwt>
<totfact> 0.31873774E+01</totfact>
</mgrwt>
</event>
<event>
 4    2  0.3388003E-007  0.6701739E+03  0.7818608E-02  0.1015539E+00
          2   -1    0    0  501    0  0.00000000000E+00  0.00000000000E+00  0.15773891255E+04  0.15773891255E+04  0.25500000000E-02 0. -1.
         -2   -1    0    0    0  501 -0.00000000000E+00 -0.00000000000E+00 -0.35918169921E+03  0.35918169922E+03  0.25500000000E-02 0.  1.
    8880023    1    1    2    0    0  0.10145447811E+03  0.70921144208E+02 -0.32036175549E+02  0.67093914972E+03  0.65864270000E+03 0.  1.
    8880022    1    1    2    0    0 -0.10145447811E+03 -0.70921144208E+02  0.12502436018E+04  0.12656316750E+04  0.15294330000E+03 0.  0.
<mgrwt>
<rscale>  0 0.49331553E+03</rscale>
<asrwt>0</asrwt>
<pdfrwt beam="1">  1        2 0.24267524E+00 0.67017388E+03</pdfrwt>
<pdfrwt beam="2">  1       -2 0.55258725E-01 0.67017388E+03</pdfrwt>
<totfact> 0.36549760E+01</totfact>
</mgrwt>
</event>
<event>
 4    2  0.3388003E-007  0.6763326E+03  0.7818608E-02  0.1011479E+00
         -2   -1    0    0    0  501 -0.00000000000E+00  0.00000000000E+00  0.17805263216E+03  0.17805263217E+03  0.25500000000E-02 0.  1.
          2   -1    0    0  501    0  0.00000000000E+00 -0.00000000000E+00 -0.18339303290E+04  0.18339303290E+04  0.25500000000E-02 0. -1.
    8880023    1    1    2    0    0  0.15106947499E+03  0.28171857465E+02 -0.51341499791E+03  0.84912944017E+03  0.65864270000E+03 0.  1.
    8880022    1    1    2    0    0 -0.15106947499E+03 -0.28171857465E+02 -0.11424626989E+04  0.11628535210E+04  0.15294330000E+03 0.  0.
<mgrwt>
<rscale>  0 0.50890992E+03</rscale>
<asrwt>0</asrwt>
<pdfrwt beam="1">  1        2 0.28214311E+00 0.67633264E+03</pdfrwt>
<pdfrwt beam="2">  1       -2 0.27392714E-01 0.67633264E+03</pdfrwt>
<totfact> 0.10334728E+02</totfact>
</mgrwt>
</event>
<event>
 4    2  0.3388003E-007  0.7901430E+03  0.7818608E-02  0.9732529E-01
         -2   -1    0    0    0  501 -0.00000000000E+00  0.00000000000E+00  0.19004702304E+03  0.19004702306E+03  0.25500000000E-02 0.  1.
          2   -1    0    0  501    0  0.00000000000E+00 -0.00000000000E+00 -0.41320077771E+04  0.41320077771E+04  0.25500000000E-02 0. -1.
    8880023    1    1    2    0    0 -0.29057353023E+03  0.32570358844E+03 -0.72608598722E+03  0.10730922007E+04  0.65864270000E+03 0.  1.
    8880022    1    1    2    0    0  0.29057353023E+03 -0.32570358844E+03 -0.32158747668E+04  0.32489625995E+04  0.15294330000E+03 0.  0.
<mgrwt>
<rscale>  0 0.69112647E+03</rscale>
<asrwt>0</asrwt>
<pdfrwt beam="1">  1        2 0.63569344E+00 0.79014303E+03</pdfrwt>
<pdfrwt beam="2">  1       -2 0.29238007E-01 0.79014303E+03</pdfrwt>
<totfact> 0.31550152E+00</totfact>
</mgrwt>
</event>
<event>
 4    2  0.3388003E-007  0.1016473E+04  0.7818608E-02  0.9360316E-01
          2   -1    0    0  501    0  0.00000000000E+00  0.00000000000E+00  0.10286572516E+04  0.10286572517E+04  0.25500000000E-02 0. -1.
         -2   -1    0    0    0  501 -0.00000000000E+00 -0.00000000000E+00 -0.13892837214E+04  0.13892837214E+04  0.25500000000E-02 0.  1.
    8880023    1    1    2    0    0  0.17301216007E+03  0.75463552919E+03 -0.98211736482E+03  0.14134258785E+04  0.65864270000E+03 0.  0.
    8880022    1    1    2    0    0 -0.17301216007E+03 -0.75463552919E+03  0.62149089510E+03  0.10045150945E+04  0.15294330000E+03 0.  1.
<mgrwt>
<rscale>  0 0.95414760E+03</rscale>
<asrwt>0</asrwt>
<pdfrwt beam="1">  1        2 0.15825496E+00 0.10164734E+04</pdfrwt>
<pdfrwt beam="2">  1       -2 0.21373596E+00 0.10164734E+04</pdfrwt>
<totfact> 0.25934122E+00</totfact>
</mgrwt>
</event>
<event>
 4    2  0.3388003E-007  0.1160410E+04  0.7818608E-02  0.9196602E-01
         -2   -1    0    0    0  501 -0.00000000000E+00  0.00000000000E+00  0.98818305259E+03  0.98818305260E+03  0.25500000000E-02 0.  1.
          2   -1    0    0  501    0  0.00000000000E+00 -0.00000000000E+00 -0.20050294735E+04  0.20050294735E+04  0.25500000000E-02 0. -1.
    8880023    1    1    2    0    0 -0.82878712705E+03  0.47523879250E+03  0.44279138957E+03  0.12420203029E+04  0.65864270000E+03 0.  0.
    8880022    1    1    2    0    0  0.82878712705E+03 -0.47523879250E+03 -0.14596378105E+04  0.17511922232E+04  0.15294330000E+03 0.  0.
<mgrwt>
<rscale>  0 0.11088571E+04</rscale>
<asrwt>0</asrwt>
<pdfrwt beam="1">  1        2 0.30846607E+00 0.11604095E+04</pdfrwt>
<pdfrwt beam="2">  1       -2 0.15202816E+00 0.11604095E+04</pdfrwt>
<totfact> 0.18763418E+00</totfact>
</mgrwt>
</event>
<event>
 4    2  0.3388003E-007  0.7919997E+03  0.7818608E-02  0.9728369E-01
         -2   -1    0    0    0  501 -0.00000000000E+00  0.00000000000E+00  0.42812253593E+03  0.42812253594E+03  0.25500000000E-02 0.  1.
          2   -1    0    0  501    0  0.00000000000E+00 -0.00000000000E+00 -0.17237948045E+04  0.17237948045E+04  0.25500000000E-02 0. -1.
    8880023    1    1    2    0    0 -0.20113817880E+03 -0.39114807268E+03 -0.18189245465E+02  0.79220858153E+03  0.65864270000E+03 0.  1.
    8880022    1    1    2    0    0  0.20113817880E+03  0.39114807268E+03 -0.12774830231E+04  0.13597087589E+04  0.15294330000E+03 0.  0.
<mgrwt>
<rscale>  0 0.69352555E+03</rscale>
<asrwt>0</asrwt>
<pdfrwt beam="1">  1        2 0.26519920E+00 0.79199974E+03</pdfrwt>
<pdfrwt beam="2">  1       -2 0.65865007E-01 0.79199974E+03</pdfrwt>
<totfact> 0.20642979E+01</totfact>
</mgrwt>
</event>
<event>
 4    2  0.3388003E-007  0.8461136E+03  0.7818608E-02  0.9618759E-01
          2   -1    0    0  501    0  0.00000000000E+00  0.00000000000E+00  0.78038884037E+03  0.78038884037E+03  0.25500000000E-02 0. -1.
         -2   -1    0    0    0  501 -0.00000000000E+00 -0.00000000000E+00 -0.76283025745E+03  0.76283025745E+03  0.25500000000E-02 0.  1.
    8880023    1    1    2    0    0 -0.42764784698E+03 -0.31498460169E+03 -0.30955616774E+03  0.90096237856E+03  0.65864270000E+03 0.  1.
    8880022    1    1    2    0    0  0.42764784698E+03  0.31498460169E+03  0.32711475066E+03  0.64225671927E+03  0.15294330000E+03 0.  0.
<mgrwt>
<rscale>  0 0.76066960E+03</rscale>
<asrwt>0</asrwt>
<pdfrwt beam="1">  1        2 0.12005982E+00 0.84611358E+03</pdfrwt>
<pdfrwt beam="2">  1       -2 0.11735850E+00 0.84611358E+03</pdfrwt>
<totfact> 0.20084838E+01</totfact>
</mgrwt>
</event>
<event>
 4    2  0.3388003E-007  0.7812961E+03  0.7818608E-02  0.9752801E-01
          2   -1    0    0  501    0  0.00000000000E+00  0.00000000000E+00  0.44194003385E+04  0.44194003385E+04  0.25500000000E-02 0. -1.
         -2   -1    0    0    0  501 -0.00000000000E+00 -0.00000000000E+00 -0.18668235836E+03  0.18668235838E+03  0.25500000000E-02 0.  1.
    8880023    1    1    2    0    0 -0.68718968617E+02  0.41459755462E+03  0.71194271975E+03  0.10570175360E+04  0.65864270000E+03 0.  1.
    8880022    1    1    2    0    0  0.68718968617E+02 -0.41459755462E+03  0.35207752604E+04  0.35490651609E+04  0.15294330000E+03 0.  0.
<mgrwt>
<rscale>  0 0.67958202E+03</rscale>
<asrwt>0</asrwt>
<pdfrwt beam="1">  1        2 0.67990773E+00 0.78129613E+03</pdfrwt>
<pdfrwt beam="2">  1       -2 0.28720363E-01 0.78129613E+03</pdfrwt>
<totfact> 0.18353959E+00</totfact>
</mgrwt>
</event>
<event>
 4    2  0.3388003E-007  0.6689459E+03  0.7818608E-02  0.1016430E+00
         -2   -1    0    0    0  501 -0.00000000000E+00  0.00000000000E+00  0.27288705123E+03  0.27288705125E+03  0.25500000000E-02 0.  1.
          2   -1    0    0  501    0  0.00000000000E+00 -0.00000000000E+00 -0.98828714256E+03  0.98828714256E+03  0.25500000000E-02 0. -1.
    8880023    1    1    2    0    0 -0.59970761840E+02  0.10040842675E+03 -0.18078247859E+03  0.69294361622E+03  0.65864270000E+03 0.  1.
    8880022    1    1    2    0    0  0.59970761840E+02 -0.10040842675E+03 -0.53461761273E+03  0.56823057758E+03  0.15294330000E+03 0.  0.
<mgrwt>
<rscale>  0 0.48997175E+03</rscale>
<asrwt>0</asrwt>
<pdfrwt beam="1">  1        2 0.15204417E+00 0.66894585E+03</pdfrwt>
<pdfrwt beam="2">  1       -2 0.41982624E-01 0.66894585E+03</pdfrwt>
<totfact> 0.14025626E+02</totfact>
</mgrwt>
</event>
<event>
 4    2  0.3388003E-007  0.8446931E+03  0.7818608E-02  0.9621394E-01
         -2   -1    0    0    0  501 -0.00000000000E+00  0.00000000000E+00  0.69703608367E+03  0.69703608368E+03  0.25500000000E-02 0.  1.
          2   -1    0    0  501    0  0.00000000000E+00 -0.00000000000E+00 -0.11424532132E+04  0.11424532132E+04  0.25500000000E-02 0. -1.
    8880023    1    1    2    0    0  0.18824724830E+03  0.49422589077E+03  0.31429721391E+03  0.90127088188E+03  0.65864270000E+03 0.  1.
    8880022    1    1    2    0    0 -0.18824724830E+03 -0.49422589077E+03 -0.75971434340E+03  0.93821841496E+03  0.15294330000E+03 0.  0.
<mgrwt>
<rscale>  0 0.75896246E+03</rscale>
<asrwt>0</asrwt>
<pdfrwt beam="1">  1        2 0.17576203E+00 0.84469312E+03</pdfrwt>
<pdfrwt beam="2">  1       -2 0.10723632E+00 0.84469312E+03</pdfrwt>
<totfact> 0.14452947E+01</totfact>
</mgrwt>
</event>
<event>
 4    2  0.3388003E-007  0.7143946E+03  0.7818608E-02  0.9942030E-01
          2   -1    0    0  501    0  0.00000000000E+00  0.00000000000E+00  0.25038319892E+04  0.25038319892E+04  0.25500000000E-02 0. -1.
         -2   -1    0    0    0  501 -0.00000000000E+00 -0.00000000000E+00 -0.25169030348E+03  0.25169030349E+03  0.25500000000E-02 0.  1.
    8880023    1    1    2    0    0  0.14360681301E+03  0.23648802003E+03  0.29482509587E+03  0.77283992119E+03  0.65864270000E+03 0.  1.
    8880022    1    1    2    0    0 -0.14360681301E+03 -0.23648802003E+03  0.19573165898E+04  0.19826823715E+04  0.15294330000E+03 0.  0.
<mgrwt>
<rscale>  0 0.58266870E+03</rscale>
<asrwt>0</asrwt>
<pdfrwt beam="1">  1        2 0.38520494E+00 0.71439464E+03</pdfrwt>
<pdfrwt beam="2">  1       -2 0.38721583E-01 0.71439464E+03</pdfrwt>
<totfact> 0.22935128E+01</totfact>
</mgrwt>
</event>
<event>
 4    2  0.3388003E-007  0.6637614E+03  0.7818608E-02  0.1020596E+00
          2   -1    0    0  501    0  0.00000000000E+00  0.00000000000E+00  0.20257995350E+04  0.20257995350E+04  0.25500000000E-02 0. -1.
         -2   -1    0    0    0  501 -0.00000000000E+00 -0.00000000000E+00 -0.13795827259E+03  0.13795827261E+03  0.25500000000E-02 0.  1.
    8880023    1    1    2    0    0  0.81201613838E+02  0.13240744260E+02  0.70524643539E+03  0.96847909646E+03  0.65864270000E+03 0.  1.
    8880022    1    1    2    0    0 -0.81201613838E+02 -0.13240744260E+02  0.11825948270E+04  0.11952787111E+04  0.15294330000E+03 0.  0.
<mgrwt>
<rscale>  0 0.47472175E+03</rscale>
<asrwt>0</asrwt>
<pdfrwt beam="1">  1        2 0.31166143E+00 0.66376142E+03</pdfrwt>
<pdfrwt beam="2">  1       -2 0.21224352E-01 0.66376142E+03</pdfrwt>
<totfact> 0.12860175E+02</totfact>
</mgrwt>
</event>
<event>
 4    2  0.3388003E-007  0.7596924E+03  0.7818608E-02  0.9805905E-01
         -2   -1    0    0    0  501 -0.00000000000E+00  0.00000000000E+00  0.10819674834E+04  0.10819674834E+04  0.25500000000E-02 0.  1.
          2   -1    0    0  501    0  0.00000000000E+00 -0.00000000000E+00 -0.18870596500E+04  0.18870596500E+04  0.25500000000E-02 0. -1.
    8880023    1    1    2    0    0 -0.36871122538E+03 -0.85873880389E+02  0.92180808542E+03  0.11945135594E+04  0.65864270000E+03 0.  1.
    8880022    1    1    2    0    0  0.36871122538E+03  0.85873880389E+02 -0.17269002520E+04  0.17745135741E+04  0.15294330000E+03 0.  0.
<mgrwt>
<rscale>  0 0.65046632E+03</rscale>
<asrwt>0</asrwt>
<pdfrwt beam="1">  1        2 0.29031687E+00 0.75969237E+03</pdfrwt>
<pdfrwt beam="2">  1       -2 0.16645654E+00 0.75969237E+03</pdfrwt>
<totfact> 0.18051097E+00</totfact>
</mgrwt>
</event>
<event>
 4    2  0.3388003E-007  0.6988227E+03  0.7818608E-02  0.1000212E+00
         -2   -1    0    0    0  501 -0.00000000000E+00  0.00000000000E+00  0.35470580175E+03  0.35470580176E+03  0.25500000000E-02 0.  1.
          2   -1    0    0  501    0  0.00000000000E+00 -0.00000000000E+00 -0.89223295778E+03  0.89223295778E+03  0.25500000000E-02 0. -1.
    8880023    1    1    2    0    0  0.52902451940E+02 -0.22747380070E+03 -0.64190946596E+03  0.94889460331E+03  0.65864270000E+03 0.  0.
    8880022    1    1    2    0    0 -0.52902451940E+02  0.22747380070E+03  0.10438230993E+03  0.29804415624E+03  0.15294330000E+03 0.  0.
<mgrwt>
<rscale>  0 0.55557359E+03</rscale>
<asrwt>0</asrwt>
<pdfrwt beam="1">  1        2 0.13726661E+00 0.69882273E+03</pdfrwt>
<pdfrwt beam="2">  1       -2 0.54570124E-01 0.69882273E+03</pdfrwt>
<totfact> 0.95366969E+01</totfact>
</mgrwt>
</event>
<event>
 4    2  0.3388003E-007  0.1085191E+04  0.7818608E-02  0.9277726E-01
          2   -1    0    0  501    0  0.00000000000E+00  0.00000000000E+00  0.83866046890E+03  0.83866046890E+03  0.25500000000E-02 0. -1.
         -2   -1    0    0    0  501 -0.00000000000E+00 -0.00000000000E+00 -0.22321417980E+04  0.22321417980E+04  0.25500000000E-02 0.  1.
    8880023    1    1    2    0    0 -0.19941282667E+03  0.83908491229E+03  0.33275043572E+03  0.11350603615E+04  0.65864270000E+03 0.  0.
    8880022    1    1    2    0    0  0.19941282667E+03 -0.83908491229E+03 -0.17262317648E+04  0.19357419054E+04  0.15294330000E+03 0.  0.
<mgrwt>
<rscale>  0 0.10285955E+04</rscale>
<asrwt>0</asrwt>
<pdfrwt beam="1">  1        2 0.12902469E+00 0.10851908E+04</pdfrwt>
<pdfrwt beam="2">  1       -2 0.34340643E+00 0.10851908E+04</pdfrwt>
<totfact> 0.55265248E-01</totfact>
</mgrwt>
</event>
<event>
 4    2  0.3388003E-007  0.6995185E+03  0.7818608E-02  0.9999204E-01
         -2   -1    0    0    0  501 -0.00000000000E+00  0.00000000000E+00  0.13183549568E+03  0.13183549571E+03  0.25500000000E-02 0.  1.
          2   -1    0    0  501    0  0.00000000000E+00 -0.00000000000E+00 -0.22673940437E+04  0.22673940437E+04  0.25500000000E-02 0. -1.
    8880023    1    1    2    0    0  0.76688410782E+02  0.22278877076E+03 -0.94354755840E+03  0.11745672182E+04  0.65864270000E+03 0.  1.
    8880022    1    1    2    0    0 -0.76688410782E+02 -0.22278877076E+03 -0.11920109896E+04  0.12246623212E+04  0.15294330000E+03 0. -1.
<mgrwt>
<rscale>  0 0.55685134E+03</rscale>
<asrwt>0</asrwt>
<pdfrwt beam="1">  1        2 0.34882983E+00 0.69951852E+03</pdfrwt>
<pdfrwt beam="2">  1       -2 0.20282386E-01 0.69951852E+03</pdfrwt>
<totfact> 0.10225180E+02</totfact>
</mgrwt>
</event>
<event>
 4    2  0.3388003E-007  0.6756105E+03  0.7818608E-02  0.1011924E+00
          2   -1    0    0  501    0  0.00000000000E+00  0.00000000000E+00  0.75505373846E+03  0.75505373846E+03  0.25500000000E-02 0. -1.
         -2   -1    0    0    0  501 -0.00000000000E+00 -0.00000000000E+00 -0.53810331902E+03  0.53810331903E+03  0.25500000000E-02 0.  1.
    8880023    1    1    2    0    0  0.48223803579E+02 -0.14252649283E+03 -0.29565040161E+03  0.73746776379E+03  0.65864270000E+03 0.  1.
    8880022    1    1    2    0    0 -0.48223803579E+02  0.14252649283E+03  0.51260082104E+03  0.55568929371E+03  0.15294330000E+03 0.  0.
<mgrwt>
<rscale>  0 0.50717003E+03</rscale>
<asrwt>0</asrwt>
<pdfrwt beam="1">  1        2 0.11616211E+00 0.67561050E+03</pdfrwt>
<pdfrwt beam="2">  1       -2 0.82785126E-01 0.67561050E+03</pdfrwt>
<totfact> 0.48491431E+01</totfact>
</mgrwt>
</event>
<event>
 4    2  0.3388003E-007  0.7754107E+03  0.7818608E-02  0.9766730E-01
         -2   -1    0    0    0  501 -0.00000000000E+00  0.00000000000E+00  0.14117079236E+03  0.14117079238E+03  0.25500000000E-02 0.  1.
          2   -1    0    0  501    0  0.00000000000E+00 -0.00000000000E+00 -0.40195627504E+04  0.40195627504E+04  0.25500000000E-02 0. -1.
    8880023    1    1    2    0    0  0.27019841936E+03  0.30731800726E+03 -0.10862109177E+04  0.13345845449E+04  0.65864270000E+03 0.  1.
    8880022    1    1    2    0    0 -0.27019841936E+03 -0.30731800726E+03 -0.27921810403E+04  0.28261489978E+04  0.15294330000E+03 0.  0.
<mgrwt>
<rscale>  0 0.67178983E+03</rscale>
<asrwt>0</asrwt>
<pdfrwt beam="1">  1        2 0.61839418E+00 0.77541070E+03</pdfrwt>
<pdfrwt beam="2">  1       -2 0.21718587E-01 0.77541070E+03</pdfrwt>
<totfact> 0.66822819E+00</totfact>
</mgrwt>
</event>
<event>
 4    2  0.3388003E-007  0.6720985E+03  0.7818608E-02  0.1014201E+00
          2   -1    0    0  501    0  0.00000000000E+00  0.00000000000E+00  0.21198799600E+04  0.21198799600E+04  0.25500000000E-02 0. -1.
         -2   -1    0    0    0  501 -0.00000000000E+00 -0.00000000000E+00 -0.40724780442E+03  0.40724780442E+03  0.25500000000E-02 0.  1.
    8880023    1    1    2    0    0 -0.11615508846E+03  0.66439633191E+02 -0.12045765974E+03  0.68280779395E+03  0.65864270000E+03 0.  0.
    8880022    1    1    2    0    0  0.11615508846E+03 -0.66439633191E+02  0.18330898153E+04  0.18443199705E+04  0.15294330000E+03 0. -1.
<mgrwt>
<rscale>  0 0.49838583E+03</rscale>
<asrwt>0</asrwt>
<pdfrwt beam="1">  1        2 0.32613538E+00 0.67209853E+03</pdfrwt>
<pdfrwt beam="2">  1       -2 0.62653509E-01 0.67209853E+03</pdfrwt>
<totfact> 0.14213135E+01</totfact>
</mgrwt>
</event>
<event>
 4    2  0.3388003E-007  0.6628174E+03  0.7818608E-02  0.1021439E+00
          2   -1    0    0  501    0  0.00000000000E+00  0.00000000000E+00  0.29230413466E+04  0.29230413466E+04  0.25500000000E-02 0. -1.
         -2   -1    0    0    0  501 -0.00000000000E+00 -0.00000000000E+00 -0.17209389406E+03  0.17209389408E+03  0.25500000000E-02 0.  1.
    8880023    1    1    2    0    0  0.65686450286E+01 -0.73983722477E+02  0.48130833114E+03  0.81913652963E+03  0.65864270000E+03 0.  1.
    8880022    1    1    2    0    0 -0.65686450286E+01  0.73983722477E+02  0.22696391214E+04  0.22759987110E+04  0.15294330000E+03 0.  0.
<mgrwt>
<rscale>  0 0.47170821E+03</rscale>
<asrwt>0</asrwt>
<pdfrwt beam="1">  1        2 0.44969862E+00 0.66281743E+03</pdfrwt>
<pdfrwt beam="2">  1       -2 0.26475986E-01 0.66281743E+03</pdfrwt>
<totfact> 0.26891413E+01</totfact>
</mgrwt>
</event>
<event>
 4    2  0.3388003E-007  0.8276208E+03  0.7818608E-02  0.9653979E-01
          2   -1    0    0  501    0  0.00000000000E+00  0.00000000000E+00  0.26237458845E+04  0.26237458845E+04  0.25500000000E-02 0. -1.
         -2   -1    0    0    0  501 -0.00000000000E+00 -0.00000000000E+00 -0.43639729747E+03  0.43639729748E+03  0.25500000000E-02 0.  1.
    8880023    1    1    2    0    0 -0.32601210079E+03  0.38060751637E+03  0.17370527776E+02  0.82780306407E+03  0.65864270000E+03 0.  1.
    8880022    1    1    2    0    0  0.32601210079E+03 -0.38060751637E+03  0.21699780593E+04  0.22323401179E+04  0.15294330000E+03 0.  0.
<mgrwt>
<rscale>  0 0.73824205E+03</rscale>
<asrwt>0</asrwt>
<pdfrwt beam="1">  1        2 0.40365322E+00 0.82762079E+03</pdfrwt>
<pdfrwt beam="2">  1       -2 0.67138045E-01 0.82762079E+03</pdfrwt>
<totfact> 0.62360274E+00</totfact>
</mgrwt>
</event>
<event>
 4    2  0.3388003E-007  0.8583383E+03  0.7818608E-02  0.9596526E-01
          2   -1    0    0  501    0  0.00000000000E+00  0.00000000000E+00  0.13700549778E+04  0.13700549778E+04  0.25500000000E-02 0. -1.
         -2   -1    0    0    0  501 -0.00000000000E+00 -0.00000000000E+00 -0.57183934505E+03  0.57183934505E+03  0.25500000000E-02 0.  1.
    8880023    1    1    2    0    0  0.54981434607E+03 -0.25270225734E+02 -0.11369285364E+03  0.86583524454E+03  0.65864270000E+03 0.  0.
    8880022    1    1    2    0    0 -0.54981434607E+03  0.25270225734E+02  0.91190848642E+03  0.10760590783E+04  0.15294330000E+03 0.  0.
<mgrwt>
<rscale>  0 0.77526527E+03</rscale>
<asrwt>0</asrwt>
<pdfrwt beam="1">  1        2 0.21077769E+00 0.85833828E+03</pdfrwt>
<pdfrwt beam="2">  1       -2 0.87975285E-01 0.85833828E+03</pdfrwt>
<totfact> 0.16925832E+01</totfact>
</mgrwt>
</event>
<event>
 4    2  0.4007600E-007  0.7986430E+03  0.7818608E-02  0.9713738E-01
          2   -1    0    0  501    0  0.00000000000E+00  0.00000000000E+00  0.10992657406E+04  0.10992657406E+04  0.25500000000E-02 0. -1.
         -2   -1    0    0    0  501 -0.00000000000E+00 -0.00000000000E+00 -0.25246236496E+04  0.25246236496E+04  0.25500000000E-02 0.  1.
    8880023    1    1    2    0    0 -0.41421762963E+03  0.18012282518E+03 -0.24051110340E+04  0.25342434312E+04  0.65864270000E+03 0.  0.
    8880022    1    1    2    0    0  0.41421762963E+03 -0.18012282518E+03  0.97975312498E+03  0.10896459589E+04  0.15294330000E+03 0.  0.
<mgrwt>
<rscale>  0 0.70204707E+03</rscale>
<asrwt>0</asrwt>
<pdfrwt beam="1">  1        2 0.16911781E+00 0.79864303E+03</pdfrwt>
<pdfrwt beam="2">  1       -2 0.38840364E+00 0.79864303E+03</pdfrwt>
<totfact> 0.20355992E-01</totfact>
</mgrwt>
</event>
<event>
 4    2  0.3388003E-007  0.9680113E+03  0.7818608E-02  0.9424660E-01
          2   -1    0    0  501    0  0.00000000000E+00  0.00000000000E+00  0.14292508818E+04  0.14292508818E+04  0.25500000000E-02 0. -1.
         -2   -1    0    0    0  501 -0.00000000000E+00 -0.00000000000E+00 -0.64484388772E+03  0.64484388773E+03  0.25500000000E-02 0.  1.
    8880023    1    1    2    0    0 -0.60033661194E+03  0.37793069129E+03 -0.48710872539E+02  0.96923609633E+03  0.65864270000E+03 0.  1.
    8880022    1    1    2    0    0  0.60033661194E+03 -0.37793069129E+03  0.83311786659E+03  0.11048586732E+04  0.15294330000E+03 0.  0.
<mgrwt>
<rscale>  0 0.90073749E+03</rscale>
<asrwt>0</asrwt>
<pdfrwt beam="1">  1        2 0.21988475E+00 0.96801129E+03</pdfrwt>
<pdfrwt beam="2">  1       -2 0.99206754E-01 0.96801129E+03</pdfrwt>
<totfact> 0.11699557E+01</totfact>
</mgrwt>
</event>
<event>
 4    2  0.3388003E-007  0.6667256E+03  0.7818608E-02  0.1018128E+00
          2   -1    0    0  501    0  0.00000000000E+00  0.00000000000E+00  0.16629185878E+04  0.16629185878E+04  0.25500000000E-02 0. -1.
         -2   -1    0    0    0  501 -0.00000000000E+00 -0.00000000000E+00 -0.25491172113E+03  0.25491172114E+03  0.25500000000E-02 0.  1.
    8880023    1    1    2    0    0  0.76587206409E+02  0.69621840433E+02  0.20041075172E+03  0.69619499892E+03  0.65864270000E+03 0.  1.
    8880022    1    1    2    0    0 -0.76587206409E+02 -0.69621840433E+02  0.12075961149E+04  0.12216353100E+04  0.15294330000E+03 0.  0.
<mgrwt>
<rscale>  0 0.48368401E+03</rscale>
<asrwt>0</asrwt>
<pdfrwt beam="1">  1        2 0.25583363E+00 0.66672559E+03</pdfrwt>
<pdfrwt beam="2">  1       -2 0.39217188E-01 0.66672559E+03</pdfrwt>
<totfact> 0.65271988E+01</totfact>
</mgrwt>
</event>
<event>
 4    2  0.3388003E-007  0.9115184E+03  0.7818608E-02  0.9507788E-01
          2   -1    0    0  501    0  0.00000000000E+00  0.00000000000E+00  0.31573977800E+04  0.31573977800E+04  0.25500000000E-02 0. -1.
         -2   -1    0    0    0  501 -0.00000000000E+00 -0.00000000000E+00 -0.20295306799E+03  0.20295306801E+03  0.25500000000E-02 0.  1.
    8880023    1    1    2    0    0  0.48035553815E+03  0.40781642219E+03  0.13407867167E+04  0.16212880383E+04  0.65864270000E+03 0.  1.
    8880022    1    1    2    0    0 -0.48035553815E+03 -0.40781642219E+03  0.16136579952E+04  0.17390628096E+04  0.15294330000E+03 0. -1.
<mgrwt>
<rscale>  0 0.83712063E+03</rscale>
<asrwt>0</asrwt>
<pdfrwt beam="1">  1        2 0.48575350E+00 0.91151845E+03</pdfrwt>
<pdfrwt beam="2">  1       -2 0.31223549E-01 0.91151845E+03</pdfrwt>
<totfact> 0.13662085E+01</totfact>
</mgrwt>
</event>
<event>
 4    2  0.3388003E-007  0.6977823E+03  0.7818608E-02  0.1000653E+00
         -2   -1    0    0    0  501 -0.00000000000E+00  0.00000000000E+00  0.13321239515E+03  0.13321239517E+03  0.25500000000E-02 0.  1.
          2   -1    0    0  501    0  0.00000000000E+00 -0.00000000000E+00 -0.19758803313E+04  0.19758803313E+04  0.25500000000E-02 0. -1.
    8880023    1    1    2    0    0 -0.18127917157E+03  0.14222451564E+03 -0.97896794118E+03  0.12021973162E+04  0.65864270000E+03 0.  0.
    8880022    1    1    2    0    0  0.18127917157E+03 -0.14222451564E+03 -0.86369999499E+03  0.90689541031E+03  0.15294330000E+03 0.  0.
<mgrwt>
<rscale>  0 0.55364909E+03</rscale>
<asrwt>0</asrwt>
<pdfrwt beam="1">  1        2 0.30398157E+00 0.69778231E+03</pdfrwt>
<pdfrwt beam="2">  1       -2 0.20494216E-01 0.69778231E+03</pdfrwt>
<totfact> 0.14504897E+02</totfact>
</mgrwt>
</event>
<event>
 4    2  0.3388003E-007  0.7856171E+03  0.7818608E-02  0.9742804E-01
          2   -1    0    0  501    0  0.00000000000E+00  0.00000000000E+00  0.19732371260E+04  0.19732371260E+04  0.25500000000E-02 0. -1.
         -2   -1    0    0    0  501 -0.00000000000E+00 -0.00000000000E+00 -0.39485832582E+03  0.39485832583E+03  0.25500000000E-02 0.  1.
    8880023    1    1    2    0    0  0.35149883532E+03 -0.24460711446E+03  0.65485475150E+02  0.78834169330E+03  0.65864270000E+03 0.  0.
    8880022    1    1    2    0    0 -0.35149883532E+03  0.24460711446E+03  0.15128933251E+04  0.15797537586E+04  0.15294330000E+03 0.  0.
<mgrwt>
<rscale>  0 0.68524465E+03</rscale>
<asrwt>0</asrwt>
<pdfrwt beam="1">  1        2 0.30357494E+00 0.78561713E+03</pdfrwt>
<pdfrwt beam="2">  1       -2 0.60747434E-01 0.78561713E+03</pdfrwt>
<totfact> 0.17944819E+01</totfact>
</mgrwt>
</event>
<event>
 4    2  0.3388003E-007  0.7003315E+03  0.7818608E-02  0.9995829E-01
         -2   -1    0    0    0  501 -0.00000000000E+00  0.00000000000E+00  0.16707970509E+04  0.16707970509E+04  0.25500000000E-02 0.  1.
          2   -1    0    0  501    0  0.00000000000E+00 -0.00000000000E+00 -0.18125007968E+03  0.18125007969E+03  0.25500000000E-02 0. -1.
    8880023    1    1    2    0    0 -0.68786850851E+02 -0.22786471465E+03  0.13821002832E+04  0.15494080670E+04  0.65864270000E+03 0.  1.
    8880022    1    1    2    0    0  0.68786850851E+02  0.22786471465E+03  0.10744668804E+03  0.30263906361E+03  0.15294330000E+03 0. -1.
<mgrwt>
<rscale>  0 0.55833509E+03</rscale>
<asrwt>0</asrwt>
<pdfrwt beam="1">  1        2 0.27884628E-01 0.70033147E+03</pdfrwt>
<pdfrwt beam="2">  1       -2 0.25704570E+00 0.70033147E+03</pdfrwt>
<totfact> 0.11620769E+01</totfact>
</mgrwt>
</event>
<event>
 4    2  0.3388003E-007  0.1092095E+04  0.7818608E-02  0.9269909E-01
         -2   -1    0    0    0  501 -0.00000000000E+00  0.00000000000E+00  0.56692779380E+03  0.56692779381E+03  0.25500000000E-02 0.  1.
          2   -1    0    0  501    0  0.00000000000E+00 -0.00000000000E+00 -0.27283644805E+04  0.27283644805E+04  0.25500000000E-02 0. -1.
    8880023    1    1    2    0    0  0.39224934356E+03 -0.77781842676E+03 -0.15560939947E+03  0.11031253528E+04  0.65864270000E+03 0.  1.
    8880022    1    1    2    0    0 -0.39224934356E+03  0.77781842676E+03 -0.20058272872E+04  0.21921669215E+04  0.15294330000E+03 0.  0.
<mgrwt>
<rscale>  0 0.10360093E+04</rscale>
<asrwt>0</asrwt>
<pdfrwt beam="1">  1        2 0.41974837E+00 0.10920949E+04</pdfrwt>
<pdfrwt beam="2">  1       -2 0.87219662E-01 0.10920949E+04</pdfrwt>
<totfact> 0.29055915E+00</totfact>
</mgrwt>
</event>
<event>
 4    2  0.3388003E-007  0.1063361E+04  0.7818608E-02  0.9302990E-01
         -2   -1    0    0    0  501 -0.00000000000E+00  0.00000000000E+00  0.89918572969E+03  0.89918572969E+03  0.25500000000E-02 0.  1.
          2   -1    0    0  501    0  0.00000000000E+00 -0.00000000000E+00 -0.15246483279E+04  0.15246483279E+04  0.25500000000E-02 0. -1.
    8880023    1    1    2    0    0  0.71113834016E+03  0.43727297396E+03  0.36058255604E+03  0.11228336380E+04  0.65864270000E+03 0.  1.
    8880022    1    1    2    0    0 -0.71113834016E+03 -0.43727297396E+03 -0.98604515427E+03  0.13010004196E+04  0.15294330000E+03 0.  0.
<mgrwt>
<rscale>  0 0.10050805E+04</rscale>
<asrwt>0</asrwt>
<pdfrwt beam="1">  1        2 0.23456128E+00 0.10633605E+04</pdfrwt>
<pdfrwt beam="2">  1       -2 0.13833627E+00 0.10633605E+04</pdfrwt>
<totfact> 0.44923308E+00</totfact>
</mgrwt>
</event>
<event>
 4    2  0.3388003E-007  0.7465237E+03  0.7818608E-02  0.9841336E-01
         -2   -1    0    0    0  501 -0.00000000000E+00  0.00000000000E+00  0.28146623289E+03  0.28146623290E+03  0.25500000000E-02 0.  1.
          2   -1    0    0  501    0  0.00000000000E+00 -0.00000000000E+00 -0.17652949177E+04  0.17652949177E+04  0.25500000000E-02 0. -1.
    8880023    1    1    2    0    0  0.11806280481E+03  0.33098121971E+03 -0.30365321678E+03  0.80591741264E+03  0.65864270000E+03 0.  0.
    8880022    1    1    2    0    0 -0.11806280481E+03 -0.33098121971E+03 -0.11801754680E+04  0.12408437379E+04  0.15294330000E+03 0.  0.
<mgrwt>
<rscale>  0 0.63190628E+03</rscale>
<asrwt>0</asrwt>
<pdfrwt beam="1">  1        2 0.27158383E+00 0.74652368E+03</pdfrwt>
<pdfrwt beam="2">  1       -2 0.43302499E-01 0.74652368E+03</pdfrwt>
<totfact> 0.46824921E+01</totfact>
</mgrwt>
</event>
<event>
 4    2  0.3388003E-007  0.7604199E+03  0.7818608E-02  0.9804022E-01
         -2   -1    0    0    0  501 -0.00000000000E+00  0.00000000000E+00  0.58968274693E+03  0.58968274693E+03  0.25500000000E-02 0.  1.
          2   -1    0    0  501    0  0.00000000000E+00 -0.00000000000E+00 -0.98941065528E+03  0.98941065528E+03  0.25500000000E-02 0. -1.
    8880023    1    1    2    0    0  0.12139502156E+03  0.36012698927E+03  0.25904706520E+03  0.80333292471E+03  0.65864270000E+03 0.  0.
    8880022    1    1    2    0    0 -0.12139502156E+03 -0.36012698927E+03 -0.65877497356E+03  0.77576047751E+03  0.15294330000E+03 0. -1.
<mgrwt>
<rscale>  0 0.65147164E+03</rscale>
<asrwt>0</asrwt>
<pdfrwt beam="1">  1        2 0.15221702E+00 0.76041989E+03</pdfrwt>
<pdfrwt beam="2">  1       -2 0.90720423E-01 0.76041989E+03</pdfrwt>
<totfact> 0.26948317E+01</totfact>
</mgrwt>
</event>
<event>
 4    2  0.3388003E-007  0.7889947E+03  0.7818608E-02  0.9735117E-01
          2   -1    0    0  501    0  0.00000000000E+00  0.00000000000E+00  0.24427747122E+04  0.24427747122E+04  0.25500000000E-02 0. -1.
         -2   -1    0    0    0  501 -0.00000000000E+00 -0.00000000000E+00 -0.32884178326E+03  0.32884178327E+03  0.25500000000E-02 0.  1.
    8880023    1    1    2    0    0 -0.82061836291E+02 -0.42657738097E+03  0.21518048455E+03  0.81781125825E+03  0.65864270000E+03 0.  1.
    8880022    1    1    2    0    0  0.82061836291E+02  0.42657738097E+03  0.18987524444E+04  0.19538052372E+04  0.15294330000E+03 0.  0.
<mgrwt>
<rscale>  0 0.68963870E+03</rscale>
<asrwt>0</asrwt>
<pdfrwt beam="1">  1        2 0.37581148E+00 0.78899469E+03</pdfrwt>
<pdfrwt beam="2">  1       -2 0.50591045E-01 0.78899469E+03</pdfrwt>
<totfact> 0.14427345E+01</totfact>
</mgrwt>
</event>
<event>
 4    2  0.3388003E-007  0.6860940E+03  0.7818608E-02  0.1006067E+00
         -2   -1    0    0    0  501 -0.00000000000E+00  0.00000000000E+00  0.13214477592E+04  0.13214477592E+04  0.25500000000E-02 0.  1.
          2   -1    0    0  501    0  0.00000000000E+00 -0.00000000000E+00 -0.64343865168E+03  0.64343865168E+03  0.25500000000E-02 0. -1.
    8880023    1    1    2    0    0  0.40780876970E+02  0.18775425395E+03  0.12032275838E+04  0.13850926194E+04  0.65864270000E+03 0.  1.
    8880022    1    1    2    0    0 -0.40780876970E+02 -0.18775425395E+03 -0.52521847625E+03  0.57979379145E+03  0.15294330000E+03 0.  0.
<mgrwt>
<rscale>  0 0.53068049E+03</rscale>
<asrwt>0</asrwt>
<pdfrwt beam="1">  1        2 0.98990563E-01 0.68609398E+03</pdfrwt>
<pdfrwt beam="2">  1       -2 0.20329965E+00 0.68609398E+03</pdfrwt>
<totfact> 0.59318524E+00</totfact>
</mgrwt>
</event>
<event>
 4    2  0.3388003E-007  0.8120654E+03  0.7818608E-02  0.9685291E-01
          2   -1    0    0  501    0  0.00000000000E+00  0.00000000000E+00  0.28825351628E+04  0.28825351628E+04  0.25500000000E-02 0. -1.
         -2   -1    0    0    0  501 -0.00000000000E+00 -0.00000000000E+00 -0.44262194619E+03  0.44262194620E+03  0.25500000000E-02 0.  1.
    8880023    1    1    2    0    0  0.45584544295E+03 -0.13358483407E+03 -0.22806650624E+02  0.81238557676E+03  0.65864270000E+03 0.  1.
    8880022    1    1    2    0    0 -0.45584544295E+03  0.13358483407E+03  0.24627198673E+04  0.25127715323E+04  0.15294330000E+03 0.  0.
<mgrwt>
<rscale>  0 0.71899366E+03</rscale>
<asrwt>0</asrwt>
<pdfrwt beam="1">  1        2 0.44346696E+00 0.81206538E+03</pdfrwt>
<pdfrwt beam="2">  1       -2 0.68095683E-01 0.81206538E+03</pdfrwt>
<totfact> 0.42697266E+00</totfact>
</mgrwt>
</event>
<event>
 4    2  0.3388003E-007  0.7984031E+03  0.7818608E-02  0.9714260E-01
          2   -1    0    0  501    0  0.00000000000E+00  0.00000000000E+00  0.10934351611E+04  0.10934351611E+04  0.25500000000E-02 0. -1.
         -2   -1    0    0    0  501 -0.00000000000E+00 -0.00000000000E+00 -0.37359553494E+03  0.37359553494E+03  0.25500000000E-02 0.  1.
    8880023    1    1    2    0    0 -0.31034965461E+03 -0.32759786119E+03  0.39854009253E+03  0.89234616511E+03  0.65864270000E+03 0.  1.
    8880022    1    1    2    0    0  0.31034965461E+03  0.32759786119E+03  0.32129953363E+03  0.57468453094E+03  0.15294330000E+03 0.  0.
<mgrwt>
<rscale>  0 0.70174092E+03</rscale>
<asrwt>0</asrwt>
<pdfrwt beam="1">  1        2 0.16822079E+00 0.79840308E+03</pdfrwt>
<pdfrwt beam="2">  1       -2 0.57476237E-01 0.79840308E+03</pdfrwt>
<totfact> 0.63091506E+01</totfact>
</mgrwt>
</event>
<event>
 4    2  0.3388003E-007  0.7812302E+03  0.7818608E-02  0.9752955E-01
         -2   -1    0    0    0  501 -0.00000000000E+00  0.00000000000E+00  0.11661580050E+04  0.11661580050E+04  0.25500000000E-02 0.  1.
          2   -1    0    0  501    0  0.00000000000E+00 -0.00000000000E+00 -0.40877399329E+03  0.40877399330E+03  0.25500000000E-02 0. -1.
    8880023    1    1    2    0    0 -0.10827902783E+03  0.40593849348E+03  0.80926891531E+03  0.11248274498E+04  0.65864270000E+03 0.  0.
    8880022    1    1    2    0    0  0.10827902783E+03 -0.40593849348E+03 -0.51884903561E+02  0.45010454851E+03  0.15294330000E+03 0.  1.
<mgrwt>
<rscale>  0 0.67949525E+03</rscale>
<asrwt>0</asrwt>
<pdfrwt beam="1">  1        2 0.62888307E-01 0.78123019E+03</pdfrwt>
<pdfrwt beam="2">  1       -2 0.17940892E+00 0.78123019E+03</pdfrwt>
<totfact> 0.14385702E+01</totfact>
</mgrwt>
</event>
<event>
 4    2  0.3388003E-007  0.7216161E+03  0.7818608E-02  0.9917155E-01
         -2   -1    0    0    0  501 -0.00000000000E+00  0.00000000000E+00  0.25444224441E+03  0.25444224442E+03  0.25500000000E-02 0.  1.
          2   -1    0    0  501    0  0.00000000000E+00 -0.00000000000E+00 -0.14195477304E+04  0.14195477304E+04  0.25500000000E-02 0. -1.
    8880023    1    1    2    0    0 -0.14960727822E+03  0.25404186069E+03 -0.11289828290E+04  0.13399000108E+04  0.65864270000E+03 0. -1.
    8880022    1    1    2    0    0  0.14960727822E+03 -0.25404186069E+03 -0.36122657034E+02  0.33408996400E+03  0.15294330000E+03 0.  0.
<mgrwt>
<rscale>  0 0.59437036E+03</rscale>
<asrwt>0</asrwt>
<pdfrwt beam="1">  1        2 0.21839195E+00 0.72161611E+03</pdfrwt>
<pdfrwt beam="2">  1       -2 0.39144962E-01 0.72161611E+03</pdfrwt>
<totfact> 0.88804295E+01</totfact>
</mgrwt>
</event>
<event>
 4    2  0.4659693E-007  0.6841284E+03  0.7818608E-02  0.1007079E+00
          2   -1    0    0  501    0  0.00000000000E+00  0.00000000000E+00  0.10951618158E+04  0.10951618158E+04  0.25500000000E-02 0. -1.
         -2   -1    0    0    0  501 -0.00000000000E+00 -0.00000000000E+00 -0.15836111155E+04  0.15836111155E+04  0.25500000000E-02 0.  1.
    8880023    1    1    2    0    0  0.15442442485E+03 -0.10185560371E+03 -0.14949475613E+04  0.16440498424E+04  0.65864270000E+03 0.  1.
    8880022    1    1    2    0    0 -0.15442442485E+03  0.10185560371E+03  0.10064982616E+04  0.10347230889E+04  0.15294330000E+03 0.  0.
<mgrwt>
<rscale>  0 0.52652427E+03</rscale>
<asrwt>0</asrwt>
<pdfrwt beam="1">  1        2 0.16848643E+00 0.68412840E+03</pdfrwt>
<pdfrwt beam="2">  1       -2 0.24363248E+00 0.68412840E+03</pdfrwt>
<totfact> 0.16147033E+00</totfact>
</mgrwt>
</event>
<event>
 4    2  0.3388003E-007  0.6668004E+03  0.7818608E-02  0.1018068E+00
         -2   -1    0    0    0  501 -0.00000000000E+00  0.00000000000E+00  0.15916025659E+04  0.15916025659E+04  0.25500000000E-02 0.  1.
          2   -1    0    0  501    0  0.00000000000E+00 -0.00000000000E+00 -0.44226024563E+03  0.44226024563E+03  0.25500000000E-02 0. -1.
    8880023    1    1    2    0    0 -0.10327229663E+03  0.12142776384E+02  0.14977144854E+04  0.16394424358E+04  0.65864270000E+03 0.  1.
    8880022    1    1    2    0    0  0.10327229663E+03 -0.12142776384E+02 -0.34837216518E+03  0.39442037568E+03  0.15294330000E+03 0.  0.
<mgrwt>
<rscale>  0 0.48390147E+03</rscale>
<asrwt>0</asrwt>
<pdfrwt beam="1">  1        2 0.68040037E-01 0.66680044E+03</pdfrwt>
<pdfrwt beam="2">  1       -2 0.24486194E+00 0.66680044E+03</pdfrwt>
<totfact> 0.50954095E+00</totfact>
</mgrwt>
</event>
<event>
 4    2  0.3388003E-007  0.1547708E+04  0.7818608E-02  0.8876662E-01
          2   -1    0    0  501    0  0.00000000000E+00  0.00000000000E+00  0.24315575185E+04  0.24315575185E+04  0.25500000000E-02 0. -1.
         -2   -1    0    0    0  501 -0.00000000000E+00 -0.00000000000E+00 -0.11406087230E+04  0.11406087230E+04  0.25500000000E-02 0.  1.
    8880023    1    1    2    0    0 -0.10882680509E+04  0.88162575345E+03  0.14910893791E+04  0.21491275119E+04  0.65864270000E+03 0. -1.
    8880022    1    1    2    0    0  0.10882680509E+04 -0.88162575345E+03 -0.20014058354E+03  0.14230387296E+04  0.15294330000E+03 0.  0.
<mgrwt>
<rscale>  0 0.15117726E+04</rscale>
<asrwt>0</asrwt>
<pdfrwt beam="1">  1        2 0.37408577E+00 0.15477085E+04</pdfrwt>
<pdfrwt beam="2">  1       -2 0.17547827E+00 0.15477085E+04</pdfrwt>
<totfact> 0.69650986E-01</totfact>
</mgrwt>
</event>
<event>
 4    2  0.3388003E-007  0.7243183E+03  0.7818608E-02  0.9908236E-01
         -2   -1    0    0    0  501 -0.00000000000E+00  0.00000000000E+00  0.10984003437E+03  0.10984003440E+03  0.25500000000E-02 0.  1.
          2   -1    0    0  501    0  0.00000000000E+00 -0.00000000000E+00 -0.33433162300E+04  0.33433162300E+04  0.25500000000E-02 0. -1.
    8880023    1    1    2    0    0 -0.26349744059E+03 -0.14627349546E+03 -0.12805719666E+04  0.14712245256E+04  0.65864270000E+03 0.  1.
    8880022    1    1    2    0    0  0.26349744059E+03  0.14627349546E+03 -0.19529042291E+04  0.19819317389E+04  0.15294330000E+03 0.  0.
<mgrwt>
<rscale>  0 0.59863783E+03</rscale>
<asrwt>0</asrwt>
<pdfrwt beam="1">  1        2 0.51435626E+00 0.72431833E+03</pdfrwt>
<pdfrwt beam="2">  1       -2 0.16898469E-01 0.72431833E+03</pdfrwt>
<totfact> 0.31983378E+01</totfact>
</mgrwt>
</event>
<event>
 4    2  0.3388003E-007  0.7476084E+03  0.7818608E-02  0.9838314E-01
         -2   -1    0    0    0  501 -0.00000000000E+00  0.00000000000E+00  0.36455782751E+03  0.36455782752E+03  0.25500000000E-02 0.  1.
          2   -1    0    0  501    0  0.00000000000E+00 -0.00000000000E+00 -0.93382991598E+03  0.93382991598E+03  0.25500000000E-02 0. -1.
    8880023    1    1    2    0    0  0.35171434483E+03  0.37485143108E+02 -0.22260342801E+03  0.78004526070E+03  0.65864270000E+03 0.  1.
    8880022    1    1    2    0    0 -0.35171434483E+03 -0.37485143108E+02 -0.34666866046E+03  0.51834248280E+03  0.15294330000E+03 0.  0.
<mgrwt>
<rscale>  0 0.63346314E+03</rscale>
<asrwt>0</asrwt>
<pdfrwt beam="1">  1        2 0.14366614E+00 0.74760840E+03</pdfrwt>
<pdfrwt beam="2">  1       -2 0.56085820E-01 0.74760840E+03</pdfrwt>
<totfact> 0.84208358E+01</totfact>
</mgrwt>
</event>
<event>
 4    2  0.3388003E-007  0.8533536E+03  0.7818608E-02  0.9605497E-01
         -2   -1    0    0    0  501 -0.00000000000E+00  0.00000000000E+00  0.61864534733E+03  0.61864534733E+03  0.25500000000E-02 0.  1.
          2   -1    0    0  501    0  0.00000000000E+00 -0.00000000000E+00 -0.13460616382E+04  0.13460616382E+04  0.25500000000E-02 0. -1.
    8880023    1    1    2    0    0 -0.53008081065E+03  0.11582937845E+03  0.20269358101E+03  0.87709577857E+03  0.65864270000E+03 0.  1.
    8880022    1    1    2    0    0  0.53008081065E+03 -0.11582937845E+03 -0.93010987192E+03  0.10876112070E+04  0.15294330000E+03 0.  0.
<mgrwt>
<rscale>  0 0.76933401E+03</rscale>
<asrwt>0</asrwt>
<pdfrwt beam="1">  1        2 0.20708641E+00 0.85335357E+03</pdfrwt>
<pdfrwt beam="2">  1       -2 0.95176207E-01 0.85335357E+03</pdfrwt>
<totfact> 0.14561571E+01</totfact>
</mgrwt>
</event>
<event>
 4    2  0.3388003E-007  0.7724474E+03  0.7818608E-02  0.9773887E-01
          2   -1    0    0  501    0  0.00000000000E+00  0.00000000000E+00  0.35042338528E+04  0.35042338528E+04  0.25500000000E-02 0. -1.
         -2   -1    0    0    0  501 -0.00000000000E+00 -0.00000000000E+00 -0.23004838705E+03  0.23004838706E+03  0.25500000000E-02 0.  1.
    8880023    1    1    2    0    0 -0.17567195995E+03 -0.36332384694E+03  0.48539519489E+03  0.91229576167E+03  0.65864270000E+03 0.  1.
    8880022    1    1    2    0    0  0.17567195995E+03  0.36332384694E+03  0.27887902709E+04  0.28219864782E+04  0.15294330000E+03 0.  0.
<mgrwt>
<rscale>  0 0.66782956E+03</rscale>
<asrwt>0</asrwt>
<pdfrwt beam="1">  1        2 0.53911290E+00 0.77244745E+03</pdfrwt>
<pdfrwt beam="2">  1       -2 0.35392060E-01 0.77244745E+03</pdfrwt>
<totfact> 0.65249025E+00</totfact>
</mgrwt>
</event>
<event>
 4    2  0.3388003E-007  0.6873821E+03  0.7818608E-02  0.1005422E+00
          2   -1    0    0  501    0  0.00000000000E+00  0.00000000000E+00  0.11554202434E+04  0.11554202434E+04  0.25500000000E-02 0. -1.
         -2   -1    0    0    0  501 -0.00000000000E+00 -0.00000000000E+00 -0.52043824720E+03  0.52043824720E+03  0.25500000000E-02 0.  1.
    8880023    1    1    2    0    0  0.19499974240E+03 -0.25671954676E+02 -0.26902055235E+03  0.73815053522E+03  0.65864270000E+03 0.  1.
    8880022    1    1    2    0    0 -0.19499974240E+03  0.25671954676E+02  0.90400254858E+03  0.93770795542E+03  0.15294330000E+03 0.  0.
<mgrwt>
<rscale>  0 0.53335182E+03</rscale>
<asrwt>0</asrwt>
<pdfrwt beam="1">  1        2 0.17775696E+00 0.68738210E+03</pdfrwt>
<pdfrwt beam="2">  1       -2 0.80067424E-01 0.68738210E+03</pdfrwt>
<totfact> 0.28495860E+01</totfact>
</mgrwt>
</event>
<event>
 4    2  0.3388003E-007  0.7676856E+03  0.7818608E-02  0.9785602E-01
          2   -1    0    0  501    0  0.00000000000E+00  0.00000000000E+00  0.23171359315E+04  0.23171359315E+04  0.25500000000E-02 0. -1.
         -2   -1    0    0    0  501 -0.00000000000E+00 -0.00000000000E+00 -0.28622317159E+03  0.28622317160E+03  0.25500000000E-02 0.  1.
    8880023    1    1    2    0    0  0.31431716344E+03 -0.23819239833E+03  0.20406301225E+04  0.21802551229E+04  0.65864270000E+03 0. -1.
    8880022    1    1    2    0    0 -0.31431716344E+03  0.23819239833E+03 -0.97173626442E+01  0.42310398013E+03  0.15294330000E+03 0.  0.
<mgrwt>
<rscale>  0 0.66140985E+03</rscale>
<asrwt>0</asrwt>
<pdfrwt beam="1">  1        2 0.35648243E+00 0.76768555E+03</pdfrwt>
<pdfrwt beam="2">  1       -2 0.44034337E-01 0.76768555E+03</pdfrwt>
<totfact> 0.22507427E+01</totfact>
</mgrwt>
</event>
<event>
 4    2  0.3388003E-007  0.7925502E+03  0.7818608E-02  0.9727142E-01
         -2   -1    0    0    0  501 -0.00000000000E+00  0.00000000000E+00  0.62215475661E+03  0.62215475662E+03  0.25500000000E-02 0.  1.
          2   -1    0    0  501    0  0.00000000000E+00 -0.00000000000E+00 -0.13223968469E+04  0.13223968469E+04  0.25500000000E-02 0. -1.
    8880023    1    1    2    0    0 -0.41495211797E+03 -0.14879617102E+03  0.29475071968E+03  0.84558485898E+03  0.65864270000E+03 0.  0.
    8880022    1    1    2    0    0  0.41495211797E+03  0.14879617102E+03 -0.99499281001E+03  0.10989667446E+04  0.15294330000E+03 0.  0.
<mgrwt>
<rscale>  0 0.69423526E+03</rscale>
<asrwt>0</asrwt>
<pdfrwt beam="1">  1        2 0.20344567E+00 0.79255017E+03</pdfrwt>
<pdfrwt beam="2">  1       -2 0.95716116E-01 0.79255017E+03</pdfrwt>
<totfact> 0.14927581E+01</totfact>
</mgrwt>
</event>
<event>
 4    2  0.3388003E-007  0.6665022E+03  0.7818608E-02  0.1018305E+00
          2   -1    0    0  501    0  0.00000000000E+00  0.00000000000E+00  0.83702631904E+03  0.83702631904E+03  0.25500000000E-02 0. -1.
         -2   -1    0    0    0  501 -0.00000000000E+00 -0.00000000000E+00 -0.34211840906E+03  0.34211840907E+03  0.25500000000E-02 0.  1.
    8880023    1    1    2    0    0  0.81694314586E+02  0.61163541615E+02  0.16594127777E+02  0.66670871541E+03  0.65864270000E+03 0.  1.
    8880022    1    1    2    0    0 -0.81694314586E+02 -0.61163541615E+02  0.47831378220E+03  0.51243601270E+03  0.15294330000E+03 0.  0.
<mgrwt>
<rscale>  0 0.48303250E+03</rscale>
<asrwt>0</asrwt>
<pdfrwt beam="1">  1        2 0.12877328E+00 0.66650217E+03</pdfrwt>
<pdfrwt beam="2">  1       -2 0.52633602E-01 0.66650217E+03</pdfrwt>
<totfact> 0.11236865E+02</totfact>
</mgrwt>
</event>
<event>
 4    2  0.3388003E-007  0.1304650E+04  0.7818608E-02  0.9061555E-01
          2   -1    0    0  501    0  0.00000000000E+00  0.00000000000E+00  0.18761058712E+04  0.18761058712E+04  0.25500000000E-02 0. -1.
         -2   -1    0    0    0  501 -0.00000000000E+00 -0.00000000000E+00 -0.12364482494E+04  0.12364482494E+04  0.25500000000E-02 0.  1.
    8880023    1    1    2    0    0  0.38242964799E+03 -0.10592678401E+04  0.12633984773E+04  0.18161185841E+04  0.65864270000E+03 0.  0.
    8880022    1    1    2    0    0 -0.38242964799E+03  0.10592678401E+04 -0.62374085541E+03  0.12964355366E+04  0.15294330000E+03 0.  0.
<mgrwt>
<rscale>  0 0.12604202E+04</rscale>
<asrwt>0</asrwt>
<pdfrwt beam="1">  1        2 0.28863167E+00 0.13046498E+04</pdfrwt>
<pdfrwt beam="2">  1       -2 0.19022281E+00 0.13046498E+04</pdfrwt>
<totfact> 0.11601236E+00</totfact>
</mgrwt>
</event>
<event>
 4    2  0.3388003E-007  0.1247003E+04  0.7818608E-02  0.9112733E-01
          2   -1    0    0  501    0  0.00000000000E+00  0.00000000000E+00  0.20226636370E+04  0.20226636370E+04  0.25500000000E-02 0. -1.
         -2   -1    0    0    0  501 -0.00000000000E+00 -0.00000000000E+00 -0.67930489764E+03  0.67930489764E+03  0.25500000000E-02 0.  1.
    8880023    1    1    2    0    0  0.10588579530E+04  0.52272357194E+01  0.92755520943E+03  0.15541481144E+04  0.65864270000E+03 0.  0.
    8880022    1    1    2    0    0 -0.10588579530E+04 -0.52272357194E+01  0.41580352990E+03  0.11478204202E+04  0.15294330000E+03 0.  0.
<mgrwt>
<rscale>  0 0.12001414E+04</rscale>
<asrwt>0</asrwt>
<pdfrwt beam="1">  1        2 0.31117901E+00 0.12470035E+04</pdfrwt>
<pdfrwt beam="2">  1       -2 0.10450845E+00 0.12470035E+04</pdfrwt>
<totfact> 0.46985708E+00</totfact>
</mgrwt>
</event>
<event>
 4    2  0.3388003E-007  0.8772603E+03  0.7818608E-02  0.9563569E-01
          2   -1    0    0  501    0  0.00000000000E+00  0.00000000000E+00  0.16123135950E+04  0.16123135950E+04  0.25500000000E-02 0. -1.
         -2   -1    0    0    0  501 -0.00000000000E+00 -0.00000000000E+00 -0.87659257817E+03  0.87659257817E+03  0.25500000000E-02 0.  1.
    8880023    1    1    2    0    0 -0.10602219446E+03 -0.56967952362E+03 -0.57415079737E+03  0.10484439946E+04  0.65864270000E+03 0.  1.
    8880022    1    1    2    0    0  0.10602219446E+03  0.56967952362E+03  0.13098718142E+04  0.14404621786E+04  0.15294330000E+03 0.  0.
<mgrwt>
<rscale>  0 0.79755095E+03</rscale>
<asrwt>0</asrwt>
<pdfrwt beam="1">  1        2 0.24804825E+00 0.87726032E+03</pdfrwt>
<pdfrwt beam="2">  1       -2 0.13486040E+00 0.87726032E+03</pdfrwt>
<totfact> 0.43819901E+00</totfact>
</mgrwt>
</event>
<event>
 4    2  0.3388003E-007  0.7536271E+03  0.7818608E-02  0.9821895E-01
          2   -1    0    0  501    0  0.00000000000E+00  0.00000000000E+00  0.94255278769E+03  0.94255278769E+03  0.25500000000E-02 0. -1.
         -2   -1    0    0    0  501 -0.00000000000E+00 -0.00000000000E+00 -0.50264840912E+03  0.50264840913E+03  0.25500000000E-02 0.  1.
    8880023    1    1    2    0    0  0.31592325238E+03  0.18529982400E+03 -0.11563069842E+03  0.76244618882E+03  0.65864270000E+03 0.  1.
    8880022    1    1    2    0    0 -0.31592325238E+03 -0.18529982400E+03  0.55553507699E+03  0.68275500800E+03  0.15294330000E+03 0.  0.
<mgrwt>
<rscale>  0 0.64200669E+03</rscale>
<asrwt>0</asrwt>
<pdfrwt beam="1">  1        2 0.14500812E+00 0.75362705E+03</pdfrwt>
<pdfrwt beam="2">  1       -2 0.77330524E-01 0.75362705E+03</pdfrwt>
<totfact> 0.41566570E+01</totfact>
</mgrwt>
</event>
<event>
 4    2  0.3388003E-007  0.7837284E+03  0.7818608E-02  0.9747151E-01
          2   -1    0    0  501    0  0.00000000000E+00  0.00000000000E+00  0.12133711839E+04  0.12133711839E+04  0.25500000000E-02 0. -1.
         -2   -1    0    0    0  501 -0.00000000000E+00 -0.00000000000E+00 -0.47656918860E+03  0.47656918861E+03  0.25500000000E-02 0.  1.
    8880023    1    1    2    0    0  0.41926327391E+03  0.68105139267E+02 -0.47305952441E+02  0.78515480146E+03  0.65864270000E+03 0.  1.
    8880022    1    1    2    0    0 -0.41926327391E+03 -0.68105139267E+02  0.78410794771E+03  0.90478557102E+03  0.15294330000E+03 0.  0.
<mgrwt>
<rscale>  0 0.68277532E+03</rscale>
<asrwt>0</asrwt>
<pdfrwt beam="1">  1        2 0.18667249E+00 0.78372840E+03</pdfrwt>
<pdfrwt beam="2">  1       -2 0.73318338E-01 0.78372840E+03</pdfrwt>
<totfact> 0.31700698E+01</totfact>
</mgrwt>
</event>
<event>
 4    2  0.3388003E-007  0.7159882E+03  0.7818608E-02  0.9936402E-01
         -2   -1    0    0    0  501 -0.00000000000E+00  0.00000000000E+00  0.19740625641E+03  0.19740625642E+03  0.25500000000E-02 0.  1.
          2   -1    0    0  501    0  0.00000000000E+00 -0.00000000000E+00 -0.14817168294E+04  0.14817168294E+04  0.25500000000E-02 0. -1.
    8880023    1    1    2    0    0 -0.27246417597E+03 -0.67765086643E+02 -0.64212200164E+03  0.96174825469E+03  0.65864270000E+03 0.  0.
    8880022    1    1    2    0    0  0.27246417597E+03  0.67765086643E+02 -0.64218857135E+03  0.71737483113E+03  0.15294330000E+03 0.  0.
<mgrwt>
<rscale>  0 0.58529070E+03</rscale>
<asrwt>0</asrwt>
<pdfrwt beam="1">  1        2 0.22795643E+00 0.71598816E+03</pdfrwt>
<pdfrwt beam="2">  1       -2 0.30370194E-01 0.71598816E+03</pdfrwt>
<totfact> 0.13278290E+02</totfact>
</mgrwt>
</event>
<event>
 4    2  0.3388003E-007  0.6706035E+03  0.7818608E-02  0.1015234E+00
         -2   -1    0    0    0  501 -0.00000000000E+00  0.00000000000E+00  0.19384681657E+04  0.19384681657E+04  0.25500000000E-02 0.  1.
          2   -1    0    0  501    0  0.00000000000E+00 -0.00000000000E+00 -0.36101077125E+03  0.36101077126E+03  0.25500000000E-02 0. -1.
    8880023    1    1    2    0    0  0.11677329024E+02  0.12554866742E+03  0.18469577632E+04  0.19649330811E+04  0.65864270000E+03 0.  0.
    8880022    1    1    2    0    0 -0.11677329024E+02 -0.12554866742E+03 -0.26950036874E+03  0.33454585586E+03  0.15294330000E+03 0.  0.
<mgrwt>
<rscale>  0 0.49446468E+03</rscale>
<asrwt>0</asrwt>
<pdfrwt beam="1">  1        2 0.55540120E-01 0.67060349E+03</pdfrwt>
<pdfrwt beam="2">  1       -2 0.29822586E+00 0.67060349E+03</pdfrwt>
<totfact> 0.30610365E+00</totfact>
</mgrwt>
</event>
<event>
 4    2  0.3388003E-007  0.8289533E+03  0.7818608E-02  0.9651372E-01
         -2   -1    0    0    0  501 -0.00000000000E+00  0.00000000000E+00  0.27145276636E+03  0.27145276637E+03  0.25500000000E-02 0.  1.
          2   -1    0    0  501    0  0.00000000000E+00 -0.00000000000E+00 -0.26398824336E+04  0.26398824336E+04  0.25500000000E-02 0. -1.
    8880023    1    1    2    0    0 -0.35549876613E+02  0.50208529750E+03 -0.49511759423E+03  0.96555946377E+03  0.65864270000E+03 0.  0.
    8880022    1    1    2    0    0  0.35549876613E+02 -0.50208529750E+03 -0.18733120730E+04  0.19457757362E+04  0.15294330000E+03 0.  0.
<mgrwt>
<rscale>  0 0.73987364E+03</rscale>
<asrwt>0</asrwt>
<pdfrwt beam="1">  1        2 0.40613574E+00 0.82895334E+03</pdfrwt>
<pdfrwt beam="2">  1       -2 0.41761966E-01 0.82895334E+03</pdfrwt>
<totfact> 0.16255942E+01</totfact>
</mgrwt>
</event>
<event>
 4    2  0.3388003E-007  0.8737960E+03  0.7818608E-02  0.9569479E-01
          2   -1    0    0  501    0  0.00000000000E+00  0.00000000000E+00  0.28420332213E+04  0.28420332213E+04  0.25500000000E-02 0. -1.
         -2   -1    0    0    0  501 -0.00000000000E+00 -0.00000000000E+00 -0.23268344615E+03  0.23268344616E+03  0.25500000000E-02 0.  1.
    8880023    1    1    2    0    0  0.57393991350E+03  0.17383515825E+02  0.85521276188E+03  0.12226644205E+04  0.65864270000E+03 0.  0.
    8880022    1    1    2    0    0 -0.57393991350E+03 -0.17383515825E+02  0.17541370132E+04  0.18520522469E+04  0.15294330000E+03 0.  0.
<mgrwt>
<rscale>  0 0.79349625E+03</rscale>
<asrwt>0</asrwt>
<pdfrwt beam="1">  1        2 0.43723592E+00 0.87379598E+03</pdfrwt>
<pdfrwt beam="2">  1       -2 0.35797450E-01 0.87379598E+03</pdfrwt>
<totfact> 0.16570490E+01</totfact>
</mgrwt>
</event>
<event>
 4    2  0.3388003E-007  0.9716621E+03  0.7818608E-02  0.9419609E-01
         -2   -1    0    0    0  501 -0.00000000000E+00  0.00000000000E+00  0.68063520975E+03  0.68063520976E+03  0.25500000000E-02 0.  1.
          2   -1    0    0  501    0  0.00000000000E+00 -0.00000000000E+00 -0.21014401653E+04  0.21014401653E+04  0.25500000000E-02 0. -1.
    8880023    1    1    2    0    0 -0.65577187195E+03  0.28333784242E+03  0.21090458769E+03  0.99428770100E+03  0.65864270000E+03 0.  0.
    8880022    1    1    2    0    0  0.65577187195E+03 -0.28333784242E+03 -0.16317095432E+04  0.17877876740E+04  0.15294330000E+03 0.  0.
<mgrwt>
<rscale>  0 0.90479355E+03</rscale>
<asrwt>0</asrwt>
<pdfrwt beam="1">  1        2 0.32329848E+00 0.97166213E+03</pdfrwt>
<pdfrwt beam="2">  1       -2 0.10471311E+00 0.97166213E+03</pdfrwt>
<totfact> 0.43622271E+00</totfact>
</mgrwt>
</event>
<event>
 4    2  0.3388003E-007  0.8711633E+03  0.7818608E-02  0.9574006E-01
          2   -1    0    0  501    0  0.00000000000E+00  0.00000000000E+00  0.39417587527E+04  0.39417587527E+04  0.25500000000E-02 0. -1.
         -2   -1    0    0    0  501 -0.00000000000E+00 -0.00000000000E+00 -0.14898740674E+03  0.14898740676E+03  0.25500000000E-02 0.  1.
    8880023    1    1    2    0    0  0.56867728422E+03  0.41490075305E+02  0.28333068674E+04  0.29642120860E+04  0.65864270000E+03 0.  0.
    8880022    1    1    2    0    0 -0.56867728422E+03 -0.41490075305E+02  0.95946447855E+03  0.11265340734E+04  0.15294330000E+03 0.  0.
<mgrwt>
<rscale>  0 0.79040759E+03</rscale>
<asrwt>0</asrwt>
<pdfrwt beam="1">  1        2 0.60642432E+00 0.87116329E+03</pdfrwt>
<pdfrwt beam="2">  1       -2 0.22921143E-01 0.87116329E+03</pdfrwt>
<totfact> 0.68611716E+00</totfact>
</mgrwt>
</event>
<event>
 4    2  0.3388003E-007  0.7305706E+03  0.7818608E-02  0.9888318E-01
         -2   -1    0    0    0  501 -0.00000000000E+00  0.00000000000E+00  0.29559223582E+03  0.29559223583E+03  0.25500000000E-02 0.  1.
          2   -1    0    0  501    0  0.00000000000E+00 -0.00000000000E+00 -0.10117840120E+04  0.10117840120E+04  0.25500000000E-02 0. -1.
    8880023    1    1    2    0    0  0.16445001740E+03 -0.26996179363E+03 -0.39029236315E+03  0.82828830322E+03  0.65864270000E+03 0.  0.
    8880022    1    1    2    0    0 -0.16445001740E+03  0.26996179363E+03 -0.32589941301E+03  0.47908794460E+03  0.15294330000E+03 0.  1.
<mgrwt>
<rscale>  0 0.60830803E+03</rscale>
<asrwt>0</asrwt>
<pdfrwt beam="1">  1        2 0.15565908E+00 0.73057059E+03</pdfrwt>
<pdfrwt beam="2">  1       -2 0.45475729E-01 0.73057059E+03</pdfrwt>
<totfact> 0.11514577E+02</totfact>
</mgrwt>
</event>
<event>
 4    2  0.3388003E-007  0.1279537E+04  0.7818608E-02  0.9083436E-01
          2   -1    0    0  501    0  0.00000000000E+00  0.00000000000E+00  0.39556231793E+04  0.39556231793E+04  0.25500000000E-02 0. -1.
         -2   -1    0    0    0  501 -0.00000000000E+00 -0.00000000000E+00 -0.51888738701E+03  0.51888738701E+03  0.25500000000E-02 0.  1.
    8880023    1    1    2    0    0  0.10955520841E+04 -0.56295497946E+02  0.56907068663E+03  0.14003768081E+04  0.65864270000E+03 0.  1.
    8880022    1    1    2    0    0 -0.10955520841E+04  0.56295497946E+02  0.28676651056E+04  0.30741337582E+04  0.15294330000E+03 0.  0.
<mgrwt>
<rscale>  0 0.12342014E+04</rscale>
<asrwt>0</asrwt>
<pdfrwt beam="1">  1        2 0.60855742E+00 0.12795365E+04</pdfrwt>
<pdfrwt beam="2">  1       -2 0.79828827E-01 0.12795365E+04</pdfrwt>
<totfact> 0.51747544E-01</totfact>
</mgrwt>
</event>
<event>
 4    2  0.3388003E-007  0.7990572E+03  0.7818608E-02  0.9712838E-01
          2   -1    0    0  501    0  0.00000000000E+00  0.00000000000E+00  0.27321046673E+04  0.27321046673E+04  0.25500000000E-02 0. -1.
         -2   -1    0    0    0  501 -0.00000000000E+00 -0.00000000000E+00 -0.36185740790E+03  0.36185740791E+03  0.25500000000E-02 0.  1.
    8880023    1    1    2    0    0  0.18822081204E+03  0.41140620644E+03  0.13761124375E+03  0.81082007958E+03  0.65864270000E+03 0.  1.
    8880022    1    1    2    0    0 -0.18822081204E+03 -0.41140620644E+03  0.22326360156E+04  0.22831419956E+04  0.15294330000E+03 0.  0.
<mgrwt>
<rscale>  0 0.70257519E+03</rscale>
<asrwt>0</asrwt>
<pdfrwt beam="1">  1        2 0.42032378E+00 0.79905716E+03</pdfrwt>
<pdfrwt beam="2">  1       -2 0.55670373E-01 0.79905716E+03</pdfrwt>
<totfact> 0.80652586E+00</totfact>
</mgrwt>
</event>
<event>
 4    2  0.3388003E-007  0.1055101E+04  0.7818608E-02  0.9312774E-01
         -2   -1    0    0    0  501 -0.00000000000E+00  0.00000000000E+00  0.42573779936E+03  0.42573779937E+03  0.25500000000E-02 0.  1.
          2   -1    0    0  501    0  0.00000000000E+00 -0.00000000000E+00 -0.45258684951E+04  0.45258684951E+04  0.25500000000E-02 0. -1.
    8880023    1    1    2    0    0 -0.82400213939E+03 -0.21196211091E+02 -0.35413452454E+03  0.11129466622E+04  0.65864270000E+03 0.  0.
    8880022    1    1    2    0    0  0.82400213939E+03  0.21196211091E+02 -0.37459961712E+04  0.38386596323E+04  0.15294330000E+03 0.  0.
<mgrwt>
<rscale>  0 0.99615336E+03</rscale>
<asrwt>0</asrwt>
<pdfrwt beam="1">  1        2 0.69628743E+00 0.10551014E+04</pdfrwt>
<pdfrwt beam="2">  1       -2 0.65498126E-01 0.10551014E+04</pdfrwt>
<totfact> 0.26534383E-01</totfact>
</mgrwt>
</event>
<event>
 4    2  0.3388003E-007  0.8186451E+03  0.7818608E-02  0.9671843E-01
         -2   -1    0    0    0  501 -0.00000000000E+00  0.00000000000E+00  0.69412200272E+03  0.69412200272E+03  0.25500000000E-02 0.  1.
          2   -1    0    0  501    0  0.00000000000E+00 -0.00000000000E+00 -0.36561729515E+04  0.36561729515E+04  0.25500000000E-02 0. -1.
    8880023    1    1    2    0    0 -0.45554638474E+03  0.16984429929E+03  0.42687641574E+03  0.92325688474E+03  0.65864270000E+03 0.  1.
    8880022    1    1    2    0    0  0.45554638474E+03 -0.16984429929E+03 -0.33889273645E+04  0.34270380695E+04  0.15294330000E+03 0.  0.
<mgrwt>
<rscale>  0 0.72718271E+03</rscale>
<asrwt>0</asrwt>
<pdfrwt beam="1">  1        2 0.56248813E+00 0.81864510E+03</pdfrwt>
<pdfrwt beam="2">  1       -2 0.10678800E+00 0.81864510E+03</pdfrwt>
<totfact> 0.47837972E-01</totfact>
</mgrwt>
</event>
<event>
 4    2  0.3388003E-007  0.6697479E+03  0.7818608E-02  0.1015844E+00
         -2   -1    0    0    0  501 -0.00000000000E+00  0.00000000000E+00  0.46257604671E+03  0.46257604672E+03  0.25500000000E-02 0.  1.
          2   -1    0    0  501    0  0.00000000000E+00 -0.00000000000E+00 -0.10966569242E+04  0.10966569242E+04  0.25500000000E-02 0. -1.
    8880023    1    1    2    0    0 -0.11855310291E+03  0.26405627353E+02  0.20286832233E+03  0.69979844086E+03  0.65864270000E+03 0.  1.
    8880022    1    1    2    0    0  0.11855310291E+03 -0.26405627353E+02 -0.83694919981E+03  0.85943453005E+03  0.15294330000E+03 0.  0.
<mgrwt>
<rscale>  0 0.49216583E+03</rscale>
<asrwt>0</asrwt>
<pdfrwt beam="1">  1        2 0.16871645E+00 0.66974794E+03</pdfrwt>
<pdfrwt beam="2">  1       -2 0.71165546E-01 0.66974794E+03</pdfrwt>
<totfact> 0.40233304E+01</totfact>
</mgrwt>
</event>
<event>
 4    2  0.3388003E-007  0.9411197E+03  0.7818608E-02  0.9463008E-01
          2   -1    0    0  501    0  0.00000000000E+00  0.00000000000E+00  0.71968427394E+03  0.71968427395E+03  0.25500000000E-02 0. -1.
         -2   -1    0    0    0  501 -0.00000000000E+00 -0.00000000000E+00 -0.13604323188E+04  0.13604323188E+04  0.25500000000E-02 0.  1.
    8880023    1    1    2    0    0 -0.31566959410E+03 -0.59350553339E+03  0.23065930237E+03  0.96897369976E+03  0.65864270000E+03 0. -1.
    8880022    1    1    2    0    0  0.31566959410E+03  0.59350553339E+03 -0.87140734718E+03  0.11111428929E+04  0.15294330000E+03 0.  0.
<mgrwt>
<rscale>  0 0.87066930E+03</rscale>
<asrwt>0</asrwt>
<pdfrwt beam="1">  1        2 0.11072066E+00 0.94111971E+03</pdfrwt>
<pdfrwt beam="2">  1       -2 0.20929728E+00 0.94111971E+03</pdfrwt>
<totfact> 0.45760259E+00</totfact>
</mgrwt>
</event>
<event>
 4    2  0.3388003E-007  0.7817635E+03  0.7818608E-02  0.9751711E-01
          2   -1    0    0  501    0  0.00000000000E+00  0.00000000000E+00  0.13422640471E+04  0.13422640471E+04  0.25500000000E-02 0. -1.
         -2   -1    0    0    0  501 -0.00000000000E+00 -0.00000000000E+00 -0.73228570111E+03  0.73228570111E+03  0.25500000000E-02 0.  1.
    8880023    1    1    2    0    0 -0.19256446804E+03  0.37451689631E+03 -0.46523488214E+03  0.90972395912E+03  0.65864270000E+03 0.  0.
    8880022    1    1    2    0    0  0.19256446804E+03 -0.37451689631E+03  0.10752132281E+04  0.11648257891E+04  0.15294330000E+03 0.  0.
<mgrwt>
<rscale>  0 0.68019683E+03</rscale>
<asrwt>0</asrwt>
<pdfrwt beam="1">  1        2 0.20650216E+00 0.78176351E+03</pdfrwt>
<pdfrwt beam="2">  1       -2 0.11265934E+00 0.78176351E+03</pdfrwt>
<totfact> 0.98580994E+00</totfact>
</mgrwt>
</event>
<event>
 4    2  0.3388003E-007  0.7468902E+03  0.7818608E-02  0.9840312E-01
         -2   -1    0    0    0  501 -0.00000000000E+00  0.00000000000E+00  0.92257817600E+03  0.92257817601E+03  0.25500000000E-02 0.  1.
          2   -1    0    0  501    0  0.00000000000E+00 -0.00000000000E+00 -0.53854001103E+03  0.53854001104E+03  0.25500000000E-02 0. -1.
    8880023    1    1    2    0    0 -0.21653538211E+03 -0.27775395931E+03  0.65318611943E+03  0.99221829579E+03  0.65864270000E+03 0.  0.
    8880022    1    1    2    0    0  0.21653538211E+03  0.27775395931E+03 -0.26914795446E+03  0.46889989126E+03  0.15294330000E+03 0.  0.
<mgrwt>
<rscale>  0 0.63243301E+03</rscale>
<asrwt>0</asrwt>
<pdfrwt beam="1">  1        2 0.82852310E-01 0.74689025E+03</pdfrwt>
<pdfrwt beam="2">  1       -2 0.14193510E+00 0.74689025E+03</pdfrwt>
<totfact> 0.19827267E+01</totfact>
</mgrwt>
</event>
<event>
 4    2  0.3388003E-007  0.6636384E+03  0.7818608E-02  0.1020704E+00
         -2   -1    0    0    0  501 -0.00000000000E+00  0.00000000000E+00  0.15836960038E+04  0.15836960038E+04  0.25500000000E-02 0.  1.
          2   -1    0    0  501    0  0.00000000000E+00 -0.00000000000E+00 -0.13915834076E+03  0.13915834078E+03  0.25500000000E-02 0. -1.
    8880023    1    1    2    0    0  0.80707189441E+02 -0.95949111400E+01  0.72546282341E+03  0.98321524966E+03  0.65864270000E+03 0. -1.
    8880022    1    1    2    0    0 -0.80707189441E+02  0.95949111400E+01  0.71907483965E+03  0.73963909495E+03  0.15294330000E+03 0. -1.
<mgrwt>
<rscale>  0 0.47433374E+03</rscale>
<asrwt>0</asrwt>
<pdfrwt beam="1">  1        2 0.21408976E-01 0.66363839E+03</pdfrwt>
<pdfrwt beam="2">  1       -2 0.24364553E+00 0.66363839E+03</pdfrwt>
<totfact> 0.19057314E+01</totfact>
</mgrwt>
</event>
<event>
 4    2  0.3388003E-007  0.8956515E+03  0.7818608E-02  0.9533049E-01
         -2   -1    0    0    0  501 -0.00000000000E+00  0.00000000000E+00  0.10556141622E+04  0.10556141622E+04  0.25500000000E-02 0.  1.
          2   -1    0    0  501    0  0.00000000000E+00 -0.00000000000E+00 -0.10619524526E+04  0.10619524526E+04  0.25500000000E-02 0. -1.
    8880023    1    1    2    0    0 -0.59050638513E+03 -0.14029827293E+03  0.72690080712E+03  0.11535061274E+04  0.65864270000E+03 0.  1.
    8880022    1    1    2    0    0  0.59050638513E+03  0.14029827293E+03 -0.73323909755E+03  0.96406048744E+03  0.15294330000E+03 0.  0.
<mgrwt>
<rscale>  0 0.81890517E+03</rscale>
<asrwt>0</asrwt>
<pdfrwt beam="1">  1        2 0.16337730E+00 0.89565150E+03</pdfrwt>
<pdfrwt beam="2">  1       -2 0.16240218E+00 0.89565150E+03</pdfrwt>
<totfact> 0.55759140E+00</totfact>
</mgrwt>
</event>
<event>
 4    2  0.3388003E-007  0.7584535E+03  0.7818608E-02  0.9809128E-01
         -2   -1    0    0    0  501 -0.00000000000E+00  0.00000000000E+00  0.16697675559E+03  0.16697675561E+03  0.25500000000E-02 0.  1.
          2   -1    0    0  501    0  0.00000000000E+00 -0.00000000000E+00 -0.22925711435E+04  0.22925711435E+04  0.25500000000E-02 0. -1.
    8880023    1    1    2    0    0  0.67686865034E+01  0.37602612951E+03 -0.94882032220E+03  0.12147064153E+04  0.65864270000E+03 0.  1.
    8880022    1    1    2    0    0 -0.67686865034E+01 -0.37602612951E+03 -0.11767740658E+04  0.12448414839E+04  0.15294330000E+03 0.  0.
<mgrwt>
<rscale>  0 0.64874985E+03</rscale>
<asrwt>0</asrwt>
<pdfrwt beam="1">  1        2 0.35270323E+00 0.75845347E+03</pdfrwt>
<pdfrwt beam="2">  1       -2 0.25688733E-01 0.75845347E+03</pdfrwt>
<totfact> 0.64550223E+01</totfact>
</mgrwt>
</event>
<event>
 4    2  0.3388003E-007  0.8830684E+03  0.7818608E-02  0.9553778E-01
         -2   -1    0    0    0  501 -0.00000000000E+00  0.00000000000E+00  0.47570974108E+03  0.47570974109E+03  0.25500000000E-02 0.  1.
          2   -1    0    0  501    0  0.00000000000E+00 -0.00000000000E+00 -0.30165854081E+04  0.30165854081E+04  0.25500000000E-02 0. -1.
    8880023    1    1    2    0    0  0.43411074025E+03 -0.39692246983E+03 -0.34284665114E+01  0.88307504919E+03  0.65864270000E+03 0.  1.
    8880022    1    1    2    0    0 -0.43411074025E+03  0.39692246983E+03 -0.25374472005E+04  0.26092201000E+04  0.15294330000E+03 0.  0.
<mgrwt>
<rscale>  0 0.80432502E+03</rscale>
<asrwt>0</asrwt>
<pdfrwt beam="1">  1        2 0.46409005E+00 0.88306839E+03</pdfrwt>
<pdfrwt beam="2">  1       -2 0.73186116E-01 0.88306839E+03</pdfrwt>
<totfact> 0.29843216E+00</totfact>
</mgrwt>
</event>
<event>
 4    2  0.3388003E-007  0.8298323E+03  0.7818608E-02  0.9649659E-01
         -2   -1    0    0    0  501 -0.00000000000E+00  0.00000000000E+00  0.21130565821E+03  0.21130565822E+03  0.25500000000E-02 0.  1.
          2   -1    0    0  501    0  0.00000000000E+00 -0.00000000000E+00 -0.25704766384E+04  0.25704766384E+04  0.25500000000E-02 0. -1.
    8880023    1    1    2    0    0 -0.43709191444E+03 -0.25251156526E+03 -0.87154055263E+03  0.12034137166E+04  0.65864270000E+03 0.  1.
    8880022    1    1    2    0    0  0.43709191444E+03  0.25251156526E+03 -0.14876304276E+04  0.15783685800E+04  0.15294330000E+03 0. -1.
<mgrwt>
<rscale>  0 0.74094845E+03</rscale>
<asrwt>0</asrwt>
<pdfrwt beam="1">  1        2 0.39545792E+00 0.82983230E+03</pdfrwt>
<pdfrwt beam="2">  1       -2 0.32508565E-01 0.82983230E+03</pdfrwt>
<totfact> 0.28865547E+01</totfact>
</mgrwt>
</event>
<event>
 4    2  0.3388003E-007  0.6740070E+03  0.7818608E-02  0.1012940E+00
          2   -1    0    0  501    0  0.00000000000E+00  0.00000000000E+00  0.74835989335E+03  0.74835989336E+03  0.25500000000E-02 0. -1.
         -2   -1    0    0    0  501 -0.00000000000E+00 -0.00000000000E+00 -0.42384273901E+03  0.42384273902E+03  0.25500000000E-02 0.  1.
    8880023    1    1    2    0    0  0.13721883138E+03 -0.40573968255E+02 -0.11647858547E+03  0.68399760359E+03  0.65864270000E+03 0.  1.
    8880022    1    1    2    0    0 -0.13721883138E+03  0.40573968255E+02  0.44099573981E+03  0.48820502878E+03  0.15294330000E+03 0.  0.
<mgrwt>
<rscale>  0 0.50322875E+03</rscale>
<asrwt>0</asrwt>
<pdfrwt beam="1">  1        2 0.11513229E+00 0.67400702E+03</pdfrwt>
<pdfrwt beam="2">  1       -2 0.65206576E-01 0.67400702E+03</pdfrwt>
<totfact> 0.83009407E+01</totfact>
</mgrwt>
</event>
<event>
 4    2  0.3388003E-007  0.1101249E+04  0.7818608E-02  0.9259666E-01
          2   -1    0    0  501    0  0.00000000000E+00  0.00000000000E+00  0.98519169629E+03  0.98519169629E+03  0.25500000000E-02 0. -1.
         -2   -1    0    0    0  501 -0.00000000000E+00 -0.00000000000E+00 -0.15361112632E+04  0.15361112632E+04  0.25500000000E-02 0.  1.
    8880023    1    1    2    0    0 -0.28427629653E+03 -0.83553996954E+03 -0.10279542482E+04  0.15064661285E+04  0.65864270000E+03 0.  1.
    8880022    1    1    2    0    0  0.28427629653E+03  0.83553996954E+03  0.47703468130E+03  0.10148368310E+04  0.15294330000E+03 0.  0.
<mgrwt>
<rscale>  0 0.10458238E+04</rscale>
<asrwt>0</asrwt>
<pdfrwt beam="1">  1        2 0.15156795E+00 0.11012494E+04</pdfrwt>
<pdfrwt beam="2">  1       -2 0.23632481E+00 0.11012494E+04</pdfrwt>
<totfact> 0.19775926E+00</totfact>
</mgrwt>
</event>
<event>
 4    2  0.3478817E-007  0.7603828E+03  0.7818608E-02  0.9804117E-01
          2   -1    0    0  501    0  0.00000000000E+00  0.00000000000E+00  0.12412922487E+04  0.12412922487E+04  0.25500000000E-02 0. -1.
         -2   -1    0    0    0  501 -0.00000000000E+00 -0.00000000000E+00 -0.18655744706E+04  0.18655744706E+04  0.25500000000E-02 0.  1.
    8880023    1    1    2    0    0 -0.78216152857E+02 -0.37182527159E+03 -0.17504809424E+04  0.19084982408E+04  0.65864270000E+03 0.  0.
    8880022    1    1    2    0    0  0.78216152857E+02  0.37182527159E+03  0.11261987205E+04  0.11983684785E+04  0.15294330000E+03 0.  0.
<mgrwt>
<rscale>  0 0.65142044E+03</rscale>
<asrwt>0</asrwt>
<pdfrwt beam="1">  1        2 0.19096804E+00 0.76038280E+03</pdfrwt>
<pdfrwt beam="2">  1       -2 0.28701146E+00 0.76038280E+03</pdfrwt>
<totfact> 0.71342026E-01</totfact>
</mgrwt>
</event>
<event>
 4    2  0.3388003E-007  0.7587448E+03  0.7818608E-02  0.9808368E-01
         -2   -1    0    0    0  501 -0.00000000000E+00  0.00000000000E+00  0.71804847026E+03  0.71804847027E+03  0.25500000000E-02 0.  1.
          2   -1    0    0  501    0  0.00000000000E+00 -0.00000000000E+00 -0.48164002460E+03  0.48164002461E+03  0.25500000000E-02 0. -1.
    8880023    1    1    2    0    0  0.25642881745E+03  0.27591248468E+03  0.23093692962E+03  0.79311128434E+03  0.65864270000E+03 0.  1.
    8880022    1    1    2    0    0 -0.25642881745E+03 -0.27591248468E+03  0.54715160426E+01  0.40657721054E+03  0.15294330000E+03 0. -1.
<mgrwt>
<rscale>  0 0.64915396E+03</rscale>
<asrwt>0</asrwt>
<pdfrwt beam="1">  1        2 0.74098465E-01 0.75874478E+03</pdfrwt>
<pdfrwt beam="2">  1       -2 0.11046900E+00 0.75874478E+03</pdfrwt>
<totfact> 0.42290012E+01</totfact>
</mgrwt>
</event>
<event>
 4    2  0.3388003E-007  0.7501542E+03  0.7818608E-02  0.9831298E-01
          2   -1    0    0  501    0  0.00000000000E+00  0.00000000000E+00  0.23061597157E+04  0.23061597157E+04  0.25500000000E-02 0. -1.
         -2   -1    0    0    0  501 -0.00000000000E+00 -0.00000000000E+00 -0.44037012050E+03  0.44037012051E+03  0.25500000000E-02 0.  1.
    8880023    1    1    2    0    0 -0.35751581429E+03 -0.33219246869E+02 -0.86946185348E+02  0.75517608625E+03  0.65864270000E+03 0.  1.
    8880022    1    1    2    0    0  0.35751581429E+03  0.33219246869E+02  0.19527357805E+04  0.19913537500E+04  0.15294330000E+03 0.  0.
<mgrwt>
<rscale>  0 0.63709606E+03</rscale>
<asrwt>0</asrwt>
<pdfrwt beam="1">  1        2 0.35479380E+00 0.75015417E+03</pdfrwt>
<pdfrwt beam="2">  1       -2 0.67749249E-01 0.75015417E+03</pdfrwt>
<totfact> 0.93659508E+00</totfact>
</mgrwt>
</event>
<event>
 4    2  0.3388003E-007  0.1001610E+04  0.7818608E-02  0.9379455E-01
         -2   -1    0    0    0  501 -0.00000000000E+00  0.00000000000E+00  0.11528225062E+04  0.11528225062E+04  0.25500000000E-02 0.  1.
          2   -1    0    0  501    0  0.00000000000E+00 -0.00000000000E+00 -0.69786562685E+03  0.69786562685E+03  0.25500000000E-02 0. -1.
    8880023    1    1    2    0    0  0.70346047272E+03 -0.27304808051E+03  0.40087875205E+03  0.10788539619E+04  0.65864270000E+03 0.  1.
    8880022    1    1    2    0    0 -0.70346047272E+03  0.27304808051E+03  0.54078127316E+02  0.77183417119E+03  0.15294330000E+03 0.  0.
<mgrwt>
<rscale>  0 0.93785945E+03</rscale>
<asrwt>0</asrwt>
<pdfrwt beam="1">  1        2 0.10736394E+00 0.10016098E+04</pdfrwt>
<pdfrwt beam="2">  1       -2 0.17735731E+00 0.10016098E+04</pdfrwt>
<totfact> 0.77217851E+00</totfact>
</mgrwt>
</event>
<event>
 4    2  0.3388003E-007  0.8219028E+03  0.7818608E-02  0.9665297E-01
          2   -1    0    0  501    0  0.00000000000E+00  0.00000000000E+00  0.24232238322E+04  0.24232238322E+04  0.25500000000E-02 0. -1.
         -2   -1    0    0    0  501 -0.00000000000E+00 -0.00000000000E+00 -0.33552589783E+03  0.33552589784E+03  0.25500000000E-02 0.  1.
    8880023    1    1    2    0    0 -0.18660375418E+03  0.45485505726E+03  0.26323862644E+03  0.86302888996E+03  0.65864270000E+03 0.  1.
    8880022    1    1    2    0    0  0.18660375418E+03 -0.45485505726E+03  0.18244593079E+04  0.18957208401E+04  0.15294330000E+03 0.  0.
<mgrwt>
<rscale>  0 0.73121106E+03</rscale>
<asrwt>0</asrwt>
<pdfrwt beam="1">  1        2 0.37280364E+00 0.82190285E+03</pdfrwt>
<pdfrwt beam="2">  1       -2 0.51619372E-01 0.82190285E+03</pdfrwt>
<totfact> 0.14133006E+01</totfact>
</mgrwt>
</event>
<event>
 4    2  0.3388003E-007  0.8978752E+03  0.7818608E-02  0.9529451E-01
          2   -1    0    0  501    0  0.00000000000E+00  0.00000000000E+00  0.55379998493E+03  0.55379998493E+03  0.25500000000E-02 0. -1.
         -2   -1    0    0    0  501 -0.00000000000E+00 -0.00000000000E+00 -0.16732014736E+04  0.16732014736E+04  0.25500000000E-02 0.  1.
    8880023    1    1    2    0    0 -0.32220658697E+03 -0.51822064888E+03 -0.12931998504E+04  0.15743397934E+04  0.65864270000E+03 0.  0.
    8880022    1    1    2    0    0  0.32220658697E+03  0.51822064888E+03  0.17379836175E+03  0.65266166516E+03  0.15294330000E+03 0.  0.
<mgrwt>
<rscale>  0 0.82146898E+03</rscale>
<asrwt>0</asrwt>
<pdfrwt beam="1">  1        2 0.85199999E-01 0.89787523E+03</pdfrwt>
<pdfrwt beam="2">  1       -2 0.25741561E+00 0.89787523E+03</pdfrwt>
<totfact> 0.31968756E+00</totfact>
</mgrwt>
</event>
<event>
 4    2  0.3388003E-007  0.8599157E+03  0.7818608E-02  0.9593713E-01
         -2   -1    0    0    0  501 -0.00000000000E+00  0.00000000000E+00  0.36867922614E+03  0.36867922615E+03  0.25500000000E-02 0.  1.
          2   -1    0    0  501    0  0.00000000000E+00 -0.00000000000E+00 -0.29470552424E+04  0.29470552424E+04  0.25500000000E-02 0. -1.
    8880023    1    1    2    0    0 -0.43441655765E+03  0.34194607625E+03 -0.21863419723E+03  0.88727446886E+03  0.65864270000E+03 0.  1.
    8880022    1    1    2    0    0  0.43441655765E+03 -0.34194607625E+03 -0.23597418190E+04  0.24284599997E+04  0.15294330000E+03 0.  0.
<mgrwt>
<rscale>  0 0.77713673E+03</rscale>
<asrwt>0</asrwt>
<pdfrwt beam="1">  1        2 0.45339310E+00 0.85991573E+03</pdfrwt>
<pdfrwt beam="2">  1       -2 0.56719883E-01 0.85991573E+03</pdfrwt>
<totfact> 0.57150588E+00</totfact>
</mgrwt>
</event>
<event>
 4    2  0.3388003E-007  0.1106127E+04  0.7818608E-02  0.9254265E-01
         -2   -1    0    0    0  501 -0.00000000000E+00  0.00000000000E+00  0.83792201302E+03  0.83792201302E+03  0.25500000000E-02 0.  1.
          2   -1    0    0  501    0  0.00000000000E+00 -0.00000000000E+00 -0.12029027800E+04  0.12029027800E+04  0.25500000000E-02 0. -1.
    8880023    1    1    2    0    0  0.55998568376E+01 -0.88863627076E+03 -0.20997458308E+03  0.11258797946E+04  0.65864270000E+03 0. -1.
    8880022    1    1    2    0    0 -0.55998568376E+01  0.88863627076E+03 -0.15500618393E+03  0.91494499844E+03  0.15294330000E+03 0.  1.
<mgrwt>
<rscale>  0 0.10510453E+04</rscale>
<asrwt>0</asrwt>
<pdfrwt beam="1">  1        2 0.18506197E+00 0.11061266E+04</pdfrwt>
<pdfrwt beam="2">  1       -2 0.12891108E+00 0.11061266E+04</pdfrwt>
<totfact> 0.82241252E+00</totfact>
</mgrwt>
</event>
<event>
 4    2  0.3388003E-007  0.7435009E+03  0.7818608E-02  0.9849864E-01
         -2   -1    0    0    0  501 -0.00000000000E+00  0.00000000000E+00  0.37739630073E+03  0.37739630074E+03  0.25500000000E-02 0.  1.
          2   -1    0    0  501    0  0.00000000000E+00 -0.00000000000E+00 -0.30615505266E+04  0.30615505266E+04  0.25500000000E-02 0. -1.
    8880023    1    1    2    0    0 -0.15050826289E+03 -0.31037183814E+03 -0.15410568201E+02  0.74366061277E+03  0.65864270000E+03 0.  1.
    8880022    1    1    2    0    0  0.15050826289E+03  0.31037183814E+03 -0.26687436577E+04  0.26952862146E+04  0.15294330000E+03 0.  0.
<mgrwt>
<rscale>  0 0.62753850E+03</rscale>
<asrwt>0</asrwt>
<pdfrwt beam="1">  1        2 0.47100776E+00 0.74350092E+03</pdfrwt>
<pdfrwt beam="2">  1       -2 0.58060971E-01 0.74350092E+03</pdfrwt>
<totfact> 0.47275149E+00</totfact>
</mgrwt>
</event>
<event>
 4    2  0.3388003E-007  0.7379529E+03  0.7818608E-02  0.9865951E-01
          2   -1    0    0  501    0  0.00000000000E+00  0.00000000000E+00  0.88537092401E+03  0.88537092401E+03  0.25500000000E-02 0. -1.
         -2   -1    0    0    0  501 -0.00000000000E+00 -0.00000000000E+00 -0.82937974637E+03  0.82937974637E+03  0.25500000000E-02 0.  1.
    8880023    1    1    2    0    0 -0.29521549245E+03  0.15366204863E+03 -0.60818424265E+03  0.95627532199E+03  0.65864270000E+03 0.  1.
    8880022    1    1    2    0    0  0.29521549245E+03 -0.15366204863E+03  0.66417542030E+03  0.75847534839E+03  0.15294330000E+03 0.  0.
<mgrwt>
<rscale>  0 0.61940210E+03</rscale>
<asrwt>0</asrwt>
<pdfrwt beam="1">  1        2 0.13621091E+00 0.73795286E+03</pdfrwt>
<pdfrwt beam="2">  1       -2 0.12759688E+00 0.73795286E+03</pdfrwt>
<totfact> 0.13894071E+01</totfact>
</mgrwt>
</event>
<event>
 4    2  0.3388003E-007  0.6662915E+03  0.7818608E-02  0.1018474E+00
          2   -1    0    0  501    0  0.00000000000E+00  0.00000000000E+00  0.28118698369E+04  0.28118698369E+04  0.25500000000E-02 0. -1.
         -2   -1    0    0    0  501 -0.00000000000E+00 -0.00000000000E+00 -0.14207235761E+03  0.14207235763E+03  0.25500000000E-02 0.  1.
    8880023    1    1    2    0    0  0.45921406704E+02 -0.89584304370E+02  0.66695555132E+03  0.94274813014E+03  0.65864270000E+03 0.  1.
    8880022    1    1    2    0    0 -0.45921406704E+02  0.89584304370E+02  0.20028419280E+04  0.20111940644E+04  0.15294330000E+03 0.  0.
<mgrwt>
<rscale>  0 0.48241472E+03</rscale>
<asrwt>0</asrwt>
<pdfrwt beam="1">  1        2 0.43259533E+00 0.66629147E+03</pdfrwt>
<pdfrwt beam="2">  1       -2 0.21857287E-01 0.66629147E+03</pdfrwt>
<totfact> 0.44123854E+01</totfact>
</mgrwt>
</event>
<event>
 4    2  0.3388003E-007  0.7039689E+03  0.7818608E-02  0.9981119E-01
          2   -1    0    0  501    0  0.00000000000E+00  0.00000000000E+00  0.68736571571E+03  0.68736571571E+03  0.25500000000E-02 0. -1.
         -2   -1    0    0    0  501 -0.00000000000E+00 -0.00000000000E+00 -0.53912828194E+03  0.53912828195E+03  0.25500000000E-02 0.  1.
    8880023    1    1    2    0    0  0.14201988273E+03 -0.20394204546E+03 -0.23737535194E+03  0.74291269270E+03  0.65864270000E+03 0.  1.
    8880022    1    1    2    0    0 -0.14201988273E+03  0.20394204546E+03  0.38561278570E+03  0.48358130496E+03  0.15294330000E+03 0.  0.
<mgrwt>
<rscale>  0 0.56485961E+03</rscale>
<asrwt>0</asrwt>
<pdfrwt beam="1">  1        2 0.10574857E+00 0.70396890E+03</pdfrwt>
<pdfrwt beam="2">  1       -2 0.82942813E-01 0.70396890E+03</pdfrwt>
<totfact> 0.54281976E+01</totfact>
</mgrwt>
</event>
<event>
 4    2  0.3388003E-007  0.1394938E+04  0.7818608E-02  0.8987626E-01
          2   -1    0    0  501    0  0.00000000000E+00  0.00000000000E+00  0.12414017557E+04  0.12414017557E+04  0.25500000000E-02 0. -1.
         -2   -1    0    0    0  501 -0.00000000000E+00 -0.00000000000E+00 -0.18707750423E+04  0.18707750423E+04  0.25500000000E-02 0.  1.
    8880023    1    1    2    0    0 -0.50459408088E+03 -0.11213508918E+04  0.45324887695E+03  0.14667268865E+04  0.65864270000E+03 0. -1.
    8880022    1    1    2    0    0  0.50459408088E+03  0.11213508918E+04 -0.10826221635E+04  0.16454499114E+04  0.15294330000E+03 0.  0.
<mgrwt>
<rscale>  0 0.13542386E+04</rscale>
<asrwt>0</asrwt>
<pdfrwt beam="1">  1        2 0.19098489E+00 0.13949384E+04</pdfrwt>
<pdfrwt beam="2">  1       -2 0.28781154E+00 0.13949384E+04</pdfrwt>
<totfact> 0.64413188E-01</totfact>
</mgrwt>
</event>
<event>
 4    2  0.3388003E-007  0.9042559E+03  0.7818608E-02  0.9519234E-01
          2   -1    0    0  501    0  0.00000000000E+00  0.00000000000E+00  0.80090171525E+03  0.80090171525E+03  0.25500000000E-02 0. -1.
         -2   -1    0    0    0  501 -0.00000000000E+00 -0.00000000000E+00 -0.95908221804E+03  0.95908221804E+03  0.25500000000E-02 0.  1.
    8880023    1    1    2    0    0  0.18321578999E+03 -0.59186188751E+03 -0.50286913729E+03  0.10346768071E+04  0.65864270000E+03 0.  0.
    8880022    1    1    2    0    0 -0.18321578999E+03  0.59186188751E+03  0.34468863450E+03  0.72530712623E+03  0.15294330000E+03 0.  0.
<mgrwt>
<rscale>  0 0.82880527E+03</rscale>
<asrwt>0</asrwt>
<pdfrwt beam="1">  1        2 0.12321565E+00 0.90425590E+03</pdfrwt>
<pdfrwt beam="2">  1       -2 0.14755111E+00 0.90425590E+03</pdfrwt>
<totfact> 0.10767828E+01</totfact>
</mgrwt>
</event>
<event>
 4    2  0.3388003E-007  0.6770922E+03  0.7818608E-02  0.1011019E+00
         -2   -1    0    0    0  501 -0.00000000000E+00  0.00000000000E+00  0.12197649320E+03  0.12197649323E+03  0.25500000000E-02 0.  1.
          2   -1    0    0  501    0  0.00000000000E+00 -0.00000000000E+00 -0.38546479636E+04  0.38546479636E+04  0.25500000000E-02 0. -1.
    8880023    1    1    2    0    0 -0.74752049678E+02 -0.13804279287E+03 -0.85506331140E+03  0.10906819676E+04  0.65864270000E+03 0.  0.
    8880022    1    1    2    0    0  0.74752049678E+02  0.13804279287E+03 -0.28776081590E+04  0.28859424893E+04  0.15294330000E+03 0.  0.
<mgrwt>
<rscale>  0 0.51071778E+03</rscale>
<asrwt>0</asrwt>
<pdfrwt beam="1">  1        2 0.59302267E+00 0.67709223E+03</pdfrwt>
<pdfrwt beam="2">  1       -2 0.18765617E-01 0.67709223E+03</pdfrwt>
<totfact> 0.11814691E+01</totfact>
</mgrwt>
</event>
<event>
 4    2  0.3388003E-007  0.6789105E+03  0.7818608E-02  0.1009947E+00
          2   -1    0    0  501    0  0.00000000000E+00  0.00000000000E+00  0.81909087237E+03  0.81909087237E+03  0.25500000000E-02 0. -1.
         -2   -1    0    0    0  501 -0.00000000000E+00 -0.00000000000E+00 -0.28001097959E+03  0.28001097960E+03  0.25500000000E-02 0.  1.
    8880023    1    1    2    0    0  0.10167826994E+03 -0.12950196330E+03  0.22969384655E+03  0.71671381910E+03  0.65864270000E+03 0.  1.
    8880022    1    1    2    0    0 -0.10167826994E+03  0.12950196330E+03  0.30938604622E+03  0.38238803288E+03  0.15294330000E+03 0.  0.
<mgrwt>
<rscale>  0 0.51495793E+03</rscale>
<asrwt>0</asrwt>
<pdfrwt beam="1">  1        2 0.12601398E+00 0.67891048E+03</pdfrwt>
<pdfrwt beam="2">  1       -2 0.43078612E-01 0.67891048E+03</pdfrwt>
<totfact> 0.17298853E+02</totfact>
</mgrwt>
</event>
<event>
 4    2  0.3388003E-007  0.8433373E+03  0.7818608E-02  0.9623919E-01
         -2   -1    0    0    0  501 -0.00000000000E+00  0.00000000000E+00  0.49225379328E+03  0.49225379328E+03  0.25500000000E-02 0.  1.
          2   -1    0    0  501    0  0.00000000000E+00 -0.00000000000E+00 -0.14905399461E+04  0.14905399461E+04  0.25500000000E-02 0. -1.
    8880023    1    1    2    0    0 -0.48466308120E+03  0.20617769288E+03  0.49386381216E+00  0.84333741378E+03  0.65864270000E+03 0.  1.
    8880022    1    1    2    0    0  0.48466308120E+03 -0.20617769288E+03 -0.99878001666E+03  0.11394563256E+04  0.15294330000E+03 0.  0.
<mgrwt>
<rscale>  0 0.75733069E+03</rscale>
<asrwt>0</asrwt>
<pdfrwt beam="1">  1        2 0.22931384E+00 0.84333727E+03</pdfrwt>
<pdfrwt beam="2">  1       -2 0.75731354E-01 0.84333727E+03</pdfrwt>
<totfact> 0.20342180E+01</totfact>
</mgrwt>
</event>
<event>
 4    2  0.3388003E-007  0.7757143E+03  0.7818608E-02  0.9766002E-01
         -2   -1    0    0    0  501 -0.00000000000E+00  0.00000000000E+00  0.25166971293E+03  0.25166971294E+03  0.25500000000E-02 0.  1.
          2   -1    0    0  501    0  0.00000000000E+00 -0.00000000000E+00 -0.15196562283E+04  0.15196562283E+04  0.25500000000E-02 0. -1.
    8880023    1    1    2    0    0 -0.38925154344E+02  0.40793054017E+03 -0.97020168069E+03  0.12421851717E+04  0.65864270000E+03 0. -1.
    8880022    1    1    2    0    0  0.38925154344E+02 -0.40793054017E+03 -0.29778483469E+03  0.52914076958E+03  0.15294330000E+03 0.  1.
<mgrwt>
<rscale>  0 0.67219417E+03</rscale>
<asrwt>0</asrwt>
<pdfrwt beam="1">  1        2 0.23379326E+00 0.77571432E+03</pdfrwt>
<pdfrwt beam="2">  1       -2 0.38718418E-01 0.77571432E+03</pdfrwt>
<totfact> 0.79340713E+01</totfact>
</mgrwt>
</event>
<event>
 4    2  0.3388003E-007  0.7105044E+03  0.7818608E-02  0.9956133E-01
          2   -1    0    0  501    0  0.00000000000E+00  0.00000000000E+00  0.21900988683E+04  0.21900988683E+04  0.25500000000E-02 0. -1.
         -2   -1    0    0    0  501 -0.00000000000E+00 -0.00000000000E+00 -0.12858554514E+03  0.12858554517E+03  0.25500000000E-02 0.  1.
    8880023    1    1    2    0    0 -0.10087367889E+03  0.24663890927E+03  0.11020872901E+04  0.13112638376E+04  0.65864270000E+03 0.  1.
    8880022    1    1    2    0    0  0.10087367889E+03 -0.24663890927E+03  0.95942603308E+03  0.10074205758E+04  0.15294330000E+03 0.  0.
<mgrwt>
<rscale>  0 0.57616299E+03</rscale>
<asrwt>0</asrwt>
<pdfrwt beam="1">  1        2 0.33693830E+00 0.71050437E+03</pdfrwt>
<pdfrwt beam="2">  1       -2 0.19782391E-01 0.71050437E+03</pdfrwt>
<totfact> 0.11767438E+02</totfact>
</mgrwt>
</event>
<event>
 4    2  0.3388003E-007  0.6774902E+03  0.7818608E-02  0.1010780E+00
          2   -1    0    0  501    0  0.00000000000E+00  0.00000000000E+00  0.27036260198E+04  0.27036260198E+04  0.25500000000E-02 0. -1.
         -2   -1    0    0    0  501 -0.00000000000E+00 -0.00000000000E+00 -0.10145947300E+03  0.10145947303E+03  0.25500000000E-02 0.  1.
    8880023    1    1    2    0    0  0.22362737521E+02  0.15710728038E+03  0.11378187334E+04  0.13242448663E+04  0.65864270000E+03 0.  0.
    8880022    1    1    2    0    0 -0.22362737521E+02 -0.15710728038E+03  0.14643478134E+04  0.14808406265E+04  0.15294330000E+03 0.  0.
<mgrwt>
<rscale>  0 0.51165621E+03</rscale>
<asrwt>0</asrwt>
<pdfrwt beam="1">  1        2 0.41594236E+00 0.67749022E+03</pdfrwt>
<pdfrwt beam="2">  1       -2 0.15609154E-01 0.67749022E+03</pdfrwt>
<totfact> 0.91253770E+01</totfact>
</mgrwt>
</event>
<event>
 4    2  0.3388003E-007  0.1600419E+04  0.7818608E-02  0.8841799E-01
         -2   -1    0    0    0  501 -0.00000000000E+00  0.00000000000E+00  0.16239743037E+04  0.16239743037E+04  0.25500000000E-02 0.  1.
          2   -1    0    0  501    0  0.00000000000E+00 -0.00000000000E+00 -0.20406639927E+04  0.20406639927E+04  0.25500000000E-02 0. -1.
    8880023    1    1    2    0    0  0.45066936006E+03  0.13872380515E+04 -0.12015158939E+04  0.20012453456E+04  0.65864270000E+03 0.  0.
    8880022    1    1    2    0    0 -0.45066936006E+03 -0.13872380515E+04  0.78482620491E+03  0.16633929508E+04  0.15294330000E+03 0.  0.
<mgrwt>
<rscale>  0 0.15658621E+04</rscale>
<asrwt>0</asrwt>
<pdfrwt beam="1">  1        2 0.31394831E+00 0.16004195E+04</pdfrwt>
<pdfrwt beam="2">  1       -2 0.24984220E+00 0.16004195E+04</pdfrwt>
<totfact> 0.37881911E-01</totfact>
</mgrwt>
</event>
<event>
 4    2  0.3388003E-007  0.1595529E+04  0.7818608E-02  0.8844968E-01
         -2   -1    0    0    0  501 -0.00000000000E+00  0.00000000000E+00  0.13388551852E+04  0.13388551852E+04  0.25500000000E-02 0.  1.
          2   -1    0    0  501    0  0.00000000000E+00 -0.00000000000E+00 -0.44165244742E+04  0.44165244742E+04  0.25500000000E-02 0. -1.
    8880023    1    1    2    0    0 -0.14077358576E+04  0.36081007702E+03  0.67182462592E+03  0.17312026718E+04  0.65864270000E+03 0.  1.
    8880022    1    1    2    0    0  0.14077358576E+04 -0.36081007702E+03 -0.37494939149E+04  0.40241769876E+04  0.15294330000E+03 0.  0.
<mgrwt>
<rscale>  0 0.15608490E+04</rscale>
<asrwt>0</asrwt>
<pdfrwt beam="1">  1        2 0.67946530E+00 0.15955295E+04</pdfrwt>
<pdfrwt beam="2">  1       -2 0.20597772E+00 0.15955295E+04</pdfrwt>
<totfact> 0.17087862E-02</totfact>
</mgrwt>
</event>
<event>
 4    2  0.3388003E-007  0.7475778E+03  0.7818608E-02  0.9838399E-01
          2   -1    0    0  501    0  0.00000000000E+00  0.00000000000E+00  0.30641174216E+04  0.30641174216E+04  0.25500000000E-02 0. -1.
         -2   -1    0    0    0  501 -0.00000000000E+00 -0.00000000000E+00 -0.14227897256E+03  0.14227897259E+03  0.25500000000E-02 0.  1.
    8880023    1    1    2    0    0  0.13480853059E+03 -0.32693888403E+03  0.10125682124E+04  0.12586369472E+04  0.65864270000E+03 0.  1.
    8880022    1    1    2    0    0 -0.13480853059E+03  0.32693888403E+03  0.19092702367E+04  0.19477594471E+04  0.15294330000E+03 0.  0.
<mgrwt>
<rscale>  0 0.63341931E+03</rscale>
<asrwt>0</asrwt>
<pdfrwt beam="1">  1        2 0.47140263E+00 0.74757781E+03</pdfrwt>
<pdfrwt beam="2">  1       -2 0.21889075E-01 0.74757781E+03</pdfrwt>
<totfact> 0.30584221E+01</totfact>
</mgrwt>
</event>
<event>
 4    2  0.3388003E-007  0.8098833E+03  0.7818608E-02  0.9689820E-01
         -2   -1    0    0    0  501 -0.00000000000E+00  0.00000000000E+00  0.58650231436E+03  0.58650231436E+03  0.25500000000E-02 0.  1.
          2   -1    0    0  501    0  0.00000000000E+00 -0.00000000000E+00 -0.21255632774E+04  0.21255632774E+04  0.25500000000E-02 0. -1.
    8880023    1    1    2    0    0 -0.47038311604E+03 -0.28992380421E+02  0.25639452612E+03  0.84949937802E+03  0.65864270000E+03 0.  1.
    8880022    1    1    2    0    0  0.47038311604E+03  0.28992380421E+02 -0.17954554891E+04  0.18625662137E+04  0.15294330000E+03 0.  0.
<mgrwt>
<rscale>  0 0.71626153E+03</rscale>
<asrwt>0</asrwt>
<pdfrwt beam="1">  1        2 0.32700973E+00 0.80988335E+03</pdfrwt>
<pdfrwt beam="2">  1       -2 0.90231126E-01 0.80988335E+03</pdfrwt>
<totfact> 0.61478930E+00</totfact>
</mgrwt>
</event>
<event>
 4    2  0.3388003E-007  0.8013624E+03  0.7818608E-02  0.9707858E-01
         -2   -1    0    0    0  501 -0.00000000000E+00  0.00000000000E+00  0.10207378827E+04  0.10207378827E+04  0.25500000000E-02 0.  1.
          2   -1    0    0  501    0  0.00000000000E+00 -0.00000000000E+00 -0.11614124384E+04  0.11614124384E+04  0.25500000000E-02 0. -1.
    8880023    1    1    2    0    0 -0.38574699377E+03  0.24407110588E+03  0.79567969451E+03  0.11292864253E+04  0.65864270000E+03 0.  0.
    8880022    1    1    2    0    0  0.38574699377E+03 -0.24407110588E+03 -0.93635425030E+03  0.10528638958E+04  0.15294330000E+03 0.  0.
<mgrwt>
<rscale>  0 0.70550849E+03</rscale>
<asrwt>0</asrwt>
<pdfrwt beam="1">  1        2 0.17867884E+00 0.80136237E+03</pdfrwt>
<pdfrwt beam="2">  1       -2 0.15703660E+00 0.80136237E+03</pdfrwt>
<totfact> 0.53707634E+00</totfact>
</mgrwt>
</event>
<event>
 4    2  0.3388003E-007  0.1186145E+04  0.7818608E-02  0.9170710E-01
          2   -1    0    0  501    0  0.00000000000E+00  0.00000000000E+00  0.21326993519E+04  0.21326993519E+04  0.25500000000E-02 0. -1.
         -2   -1    0    0    0  501 -0.00000000000E+00 -0.00000000000E+00 -0.70269293196E+03  0.70269293196E+03  0.25500000000E-02 0.  1.
    8880023    1    1    2    0    0  0.88828793212E+03  0.42903780861E+03  0.12551525700E+03  0.11927670257E+04  0.65864270000E+03 0.  0.
    8880022    1    1    2    0    0 -0.88828793212E+03 -0.42903780861E+03  0.13044911630E+04  0.16426252582E+04  0.15294330000E+03 0.  0.
<mgrwt>
<rscale>  0 0.11360934E+04</rscale>
<asrwt>0</asrwt>
<pdfrwt beam="1">  1        2 0.32810759E+00 0.11861446E+04</pdfrwt>
<pdfrwt beam="2">  1       -2 0.10810660E+00 0.11861446E+04</pdfrwt>
<totfact> 0.37835366E+00</totfact>
</mgrwt>
</event>
<event>
 4    2  0.5621367E-007  0.6731510E+03  0.7818608E-02  0.1013498E+00
          2   -1    0    0  501    0  0.00000000000E+00  0.00000000000E+00  0.35089258214E+04  0.35089258214E+04  0.25500000000E-02 0. -1.
         -2   -1    0    0    0  501 -0.00000000000E+00 -0.00000000000E+00 -0.11108756288E+04  0.11108756288E+04  0.25500000000E-02 0.  1.
    8880023    1    1    2    0    0 -0.12776274668E+03  0.54761256463E+02 -0.10054761042E+04  0.12100059988E+04  0.65864270000E+03 0.  1.
    8880022    1    1    2    0    0  0.12776274668E+03 -0.54761256463E+02  0.34035262968E+04  0.34097954514E+04  0.15294330000E+03 0.  0.
<mgrwt>
<rscale>  0 0.50107805E+03</rscale>
<asrwt>0</asrwt>
<pdfrwt beam="1">  1        2 0.53983473E+00 0.67315104E+03</pdfrwt>
<pdfrwt beam="2">  1       -2 0.17090395E+00 0.67315104E+03</pdfrwt>
<totfact> 0.18817509E-01</totfact>
</mgrwt>
</event>
<event>
 4    2  0.3388003E-007  0.7205524E+03  0.7818608E-02  0.9920721E-01
          2   -1    0    0  501    0  0.00000000000E+00  0.00000000000E+00  0.11835356497E+04  0.11835356497E+04  0.25500000000E-02 0. -1.
         -2   -1    0    0    0  501 -0.00000000000E+00 -0.00000000000E+00 -0.24495141316E+03  0.24495141317E+03  0.25500000000E-02 0.  1.
    8880023    1    1    2    0    0  0.19262985117E+03 -0.21972565821E+03  0.48864828740E+03  0.87061643649E+03  0.65864270000E+03 0.  1.
    8880022    1    1    2    0    0 -0.19262985117E+03  0.21972565821E+03  0.44993594913E+03  0.55787062638E+03  0.15294330000E+03 0. -1.
<mgrwt>
<rscale>  0 0.59267481E+03</rscale>
<asrwt>0</asrwt>
<pdfrwt beam="1">  1        2 0.18208241E+00 0.72055245E+03</pdfrwt>
<pdfrwt beam="2">  1       -2 0.37684833E-01 0.72055245E+03</pdfrwt>
<totfact> 0.13076798E+02</totfact>
</mgrwt>
</event>
<event>
 4    2  0.3388003E-007  0.7267774E+03  0.7818608E-02  0.9900287E-01
          2   -1    0    0  501    0  0.00000000000E+00  0.00000000000E+00  0.85385574194E+03  0.85385574194E+03  0.25500000000E-02 0. -1.
         -2   -1    0    0    0  501 -0.00000000000E+00 -0.00000000000E+00 -0.38785089842E+03  0.38785089843E+03  0.25500000000E-02 0.  1.
    8880023    1    1    2    0    0  0.16255637368E+03  0.26071183943E+03  0.89523155853E+02  0.73227033228E+03  0.65864270000E+03 0.  0.
    8880022    1    1    2    0    0 -0.16255637368E+03 -0.26071183943E+03  0.37648168767E+03  0.50943630809E+03  0.15294330000E+03 0.  0.
<mgrwt>
<rscale>  0 0.60247384E+03</rscale>
<asrwt>0</asrwt>
<pdfrwt beam="1">  1        2 0.13136242E+00 0.72677744E+03</pdfrwt>
<pdfrwt beam="2">  1       -2 0.59669369E-01 0.72677744E+03</pdfrwt>
<totfact> 0.83880290E+01</totfact>
</mgrwt>
</event>
<event>
 4    2  0.3388003E-007  0.7093746E+03  0.7818608E-02  0.9960331E-01
         -2   -1    0    0    0  501 -0.00000000000E+00  0.00000000000E+00  0.12442373619E+03  0.12442373621E+03  0.25500000000E-02 0.  1.
          2   -1    0    0  501    0  0.00000000000E+00 -0.00000000000E+00 -0.35722461105E+04  0.35722461105E+04  0.25500000000E-02 0. -1.
    8880023    1    1    2    0    0 -0.18012968695E+03 -0.19223772909E+03 -0.97825156134E+03  0.12083825438E+04  0.65864270000E+03 0.  1.
    8880022    1    1    2    0    0  0.18012968695E+03  0.19223772909E+03 -0.24695708130E+04  0.24882873030E+04  0.15294330000E+03 0.  0.
<mgrwt>
<rscale>  0 0.57424407E+03</rscale>
<asrwt>0</asrwt>
<pdfrwt beam="1">  1        2 0.54957625E+00 0.70937455E+03</pdfrwt>
<pdfrwt beam="2">  1       -2 0.19142116E-01 0.70937455E+03</pdfrwt>
<totfact> 0.18123275E+01</totfact>
</mgrwt>
</event>
<event>
 4    2  0.3388003E-007  0.7975246E+03  0.7818608E-02  0.9716174E-01
         -2   -1    0    0    0  501 -0.00000000000E+00  0.00000000000E+00  0.11362944211E+03  0.11362944214E+03  0.25500000000E-02 0.  1.
          2   -1    0    0  501    0  0.00000000000E+00 -0.00000000000E+00 -0.43295678721E+04  0.43295678721E+04  0.25500000000E-02 0. -1.
    8880023    1    1    2    0    0  0.43391960317E+03 -0.11810595267E+03 -0.16376895190E+04  0.18215576864E+04  0.65864270000E+03 0.  1.
    8880022    1    1    2    0    0 -0.43391960317E+03  0.11810595267E+03 -0.25782489110E+04  0.26216396278E+04  0.15294330000E+03 0.  0.
<mgrwt>
<rscale>  0 0.70061900E+03</rscale>
<asrwt>0</asrwt>
<pdfrwt beam="1">  1        2 0.66608724E+00 0.79752457E+03</pdfrwt>
<pdfrwt beam="2">  1       -2 0.17481456E-01 0.79752457E+03</pdfrwt>
<totfact> 0.53366204E+00</totfact>
</mgrwt>
</event>
<event>
 4    2  0.3388003E-007  0.6874152E+03  0.7818608E-02  0.1005406E+00
         -2   -1    0    0    0  501 -0.00000000000E+00  0.00000000000E+00  0.61210554408E+03  0.61210554408E+03  0.25500000000E-02 0.  1.
          2   -1    0    0  501    0  0.00000000000E+00 -0.00000000000E+00 -0.60229303607E+03  0.60229303608E+03  0.25500000000E-02 0. -1.
    8880023    1    1    2    0    0 -0.38795529788E+02 -0.19293629160E+03  0.36668969739E+03  0.77910271863E+03  0.65864270000E+03 0.  0.
    8880022    1    1    2    0    0  0.38795529788E+02  0.19293629160E+03 -0.35687718938E+03  0.43529586153E+03  0.15294330000E+03 0.  0.
<mgrwt>
<rscale>  0 0.53342002E+03</rscale>
<asrwt>0</asrwt>
<pdfrwt beam="1">  1        2 0.92660467E-01 0.68741524E+03</pdfrwt>
<pdfrwt beam="2">  1       -2 0.94170084E-01 0.68741524E+03</pdfrwt>
<totfact> 0.47767833E+01</totfact>
</mgrwt>
</event>
<event>
 4    2  0.3388003E-007  0.7132462E+03  0.7818608E-02  0.9946138E-01
         -2   -1    0    0    0  501 -0.00000000000E+00  0.00000000000E+00  0.13662452991E+03  0.13662452993E+03  0.25500000000E-02 0.  1.
          2   -1    0    0  501    0  0.00000000000E+00 -0.00000000000E+00 -0.22461053595E+04  0.22461053595E+04  0.25500000000E-02 0. -1.
    8880023    1    1    2    0    0 -0.23989489573E+03  0.13175868041E+03 -0.98999555609E+03  0.12201685614E+04  0.65864270000E+03 0.  0.
    8880022    1    1    2    0    0  0.23989489573E+03 -0.13175868041E+03 -0.11194852735E+04  0.11625613281E+04  0.15294330000E+03 0.  0.
<mgrwt>
<rscale>  0 0.58076394E+03</rscale>
<asrwt>0</asrwt>
<pdfrwt beam="1">  1        2 0.34555464E+00 0.71324618E+03</pdfrwt>
<pdfrwt beam="2">  1       -2 0.21019160E-01 0.71324618E+03</pdfrwt>
<totfact> 0.98516841E+01</totfact>
</mgrwt>
</event>
<event>
 4    2  0.3388003E-007  0.6877531E+03  0.7818608E-02  0.1005239E+00
          2   -1    0    0  501    0  0.00000000000E+00  0.00000000000E+00  0.18577526369E+04  0.18577526369E+04  0.25500000000E-02 0. -1.
         -2   -1    0    0    0  501 -0.00000000000E+00 -0.00000000000E+00 -0.23498908555E+03  0.23498908556E+03  0.25500000000E-02 0.  1.
    8880023    1    1    2    0    0 -0.15385207524E+03 -0.12459413753E+03  0.30657568017E+03  0.75298938512E+03  0.65864270000E+03 0.  1.
    8880022    1    1    2    0    0  0.15385207524E+03  0.12459413753E+03  0.13161878712E+04  0.13397523374E+04  0.15294330000E+03 0.  0.
<mgrwt>
<rscale>  0 0.53411395E+03</rscale>
<asrwt>0</asrwt>
<pdfrwt beam="1">  1        2 0.28580808E+00 0.68775313E+03</pdfrwt>
<pdfrwt beam="2">  1       -2 0.36152169E-01 0.68775313E+03</pdfrwt>
<totfact> 0.59653199E+01</totfact>
</mgrwt>
</event>
<event>
 4    2  0.3388003E-007  0.9989536E+03  0.7818608E-02  0.9382928E-01
         -2   -1    0    0    0  501 -0.00000000000E+00  0.00000000000E+00  0.16242796764E+04  0.16242796764E+04  0.25500000000E-02 0.  1.
          2   -1    0    0  501    0  0.00000000000E+00 -0.00000000000E+00 -0.68421814271E+03  0.68421814272E+03  0.25500000000E-02 0. -1.
    8880023    1    1    2    0    0  0.11841793270E+03 -0.74167058737E+03 -0.11376327793E+03  0.10054105413E+04  0.65864270000E+03 0.  0.
    8880022    1    1    2    0    0 -0.11841793270E+03  0.74167058737E+03  0.10538248117E+04  0.13030872778E+04  0.15294330000E+03 0.  0.
<mgrwt>
<rscale>  0 0.93494060E+03</rscale>
<asrwt>0</asrwt>
<pdfrwt beam="1">  1        2 0.10526433E+00 0.99895359E+03</pdfrwt>
<pdfrwt beam="2">  1       -2 0.24988918E+00 0.99895359E+03</pdfrwt>
<totfact> 0.27098506E+00</totfact>
</mgrwt>
</event>
<event>
 4    2  0.3388003E-007  0.6766911E+03  0.7818608E-02  0.1011261E+00
          2   -1    0    0  501    0  0.00000000000E+00  0.00000000000E+00  0.84838883853E+03  0.84838883854E+03  0.25500000000E-02 0. -1.
         -2   -1    0    0    0  501 -0.00000000000E+00 -0.00000000000E+00 -0.67310596633E+03  0.67310596634E+03  0.25500000000E-02 0.  1.
    8880023    1    1    2    0    0  0.13167902292E+03 -0.82227114508E+02 -0.48083713981E+03  0.83012964332E+03  0.65864270000E+03 0.  1.
    8880022    1    1    2    0    0 -0.13167902292E+03  0.82227114508E+02  0.65612001201E+03  0.69136516155E+03  0.15294330000E+03 0.  0.
<mgrwt>
<rscale>  0 0.50976590E+03</rscale>
<asrwt>0</asrwt>
<pdfrwt beam="1">  1        2 0.13052136E+00 0.67669112E+03</pdfrwt>
<pdfrwt beam="2">  1       -2 0.10355477E+00 0.67669112E+03</pdfrwt>
<totfact> 0.24720134E+01</totfact>
</mgrwt>
</event>
<event>
 4    2  0.3388003E-007  0.8795894E+03  0.7818608E-02  0.9559625E-01
          2   -1    0    0  501    0  0.00000000000E+00  0.00000000000E+00  0.13324787618E+04  0.13324787619E+04  0.25500000000E-02 0. -1.
         -2   -1    0    0    0  501 -0.00000000000E+00 -0.00000000000E+00 -0.54392964960E+03  0.54392964961E+03  0.25500000000E-02 0.  1.
    8880023    1    1    2    0    0 -0.57375141231E+03 -0.10332777739E+03 -0.54005812185E+01  0.87960598296E+03  0.65864270000E+03 0.  0.
    8880022    1    1    2    0    0  0.57375141231E+03  0.10332777739E+03  0.79394969346E+03  0.99680242851E+03  0.15294330000E+03 0.  0.
<mgrwt>
<rscale>  0 0.80027092E+03</rscale>
<asrwt>0</asrwt>
<pdfrwt beam="1">  1        2 0.20499673E+00 0.87958940E+03</pdfrwt>
<pdfrwt beam="2">  1       -2 0.83681485E-01 0.87958940E+03</pdfrwt>
<totfact> 0.19899986E+01</totfact>
</mgrwt>
</event>
<event>
 4    2  0.3388003E-007  0.7938213E+03  0.7818608E-02  0.9724318E-01
         -2   -1    0    0    0  501 -0.00000000000E+00  0.00000000000E+00  0.10002703356E+04  0.10002703356E+04  0.25500000000E-02 0.  1.
          2   -1    0    0  501    0  0.00000000000E+00 -0.00000000000E+00 -0.46544420676E+03  0.46544420677E+03  0.25500000000E-02 0. -1.
    8880023    1    1    2    0    0 -0.47460518222E+02  0.44055588974E+03  0.59644500074E+03  0.99292438682E+03  0.65864270000E+03 0.  1.
    8880022    1    1    2    0    0  0.47460518222E+02 -0.44055588974E+03 -0.61618871927E+02  0.47279015553E+03  0.15294330000E+03 0.  0.
<mgrwt>
<rscale>  0 0.69587161E+03</rscale>
<asrwt>0</asrwt>
<pdfrwt beam="1">  1        2 0.71606802E-01 0.79382126E+03</pdfrwt>
<pdfrwt beam="2">  1       -2 0.15388774E+00 0.79382126E+03</pdfrwt>
<totfact> 0.18910791E+01</totfact>
</mgrwt>
</event>
<event>
 4    2  0.3388003E-007  0.6642635E+03  0.7818608E-02  0.1020159E+00
          2   -1    0    0  501    0  0.00000000000E+00  0.00000000000E+00  0.74827239964E+03  0.74827239964E+03  0.25500000000E-02 0. -1.
         -2   -1    0    0    0  501 -0.00000000000E+00 -0.00000000000E+00 -0.94910957467E+03  0.94910957468E+03  0.25500000000E-02 0.  1.
    8880023    1    1    2    0    0 -0.39273257465E+02 -0.76768689120E+02 -0.81914409940E+03  0.10546293577E+04  0.65864270000E+03 0.  1.
    8880022    1    1    2    0    0  0.39273257465E+02  0.76768689120E+02  0.61830692436E+03  0.64275261657E+03  0.15294330000E+03 0.  0.
<mgrwt>
<rscale>  0 0.47629119E+03</rscale>
<asrwt>0</asrwt>
<pdfrwt beam="1">  1        2 0.11511883E+00 0.66426352E+03</pdfrwt>
<pdfrwt beam="2">  1       -2 0.14601686E+00 0.66426352E+03</pdfrwt>
<totfact> 0.12406779E+01</totfact>
</mgrwt>
</event>
<event>
 4    2  0.3388003E-007  0.6798132E+03  0.7818608E-02  0.1009430E+00
         -2   -1    0    0    0  501 -0.00000000000E+00  0.00000000000E+00  0.45707899231E+03  0.45707899231E+03  0.25500000000E-02 0.  1.
          2   -1    0    0  501    0  0.00000000000E+00 -0.00000000000E+00 -0.67778819314E+03  0.67778819314E+03  0.25500000000E-02 0. -1.
    8880023    1    1    2    0    0 -0.16543013550E+03 -0.31122801617E+02  0.15353299193E+03  0.69693496425E+03  0.65864270000E+03 0.  1.
    8880022    1    1    2    0    0  0.16543013550E+03  0.31122801617E+02 -0.37424219276E+03  0.43793222121E+03  0.15294330000E+03 0.  0.
<mgrwt>
<rscale>  0 0.51701993E+03</rscale>
<asrwt>0</asrwt>
<pdfrwt beam="1">  1        2 0.10427511E+00 0.67981318E+03</pdfrwt>
<pdfrwt beam="2">  1       -2 0.70319845E-01 0.67981318E+03</pdfrwt>
<totfact> 0.79882439E+01</totfact>
</mgrwt>
</event>
<event>
 4    2  0.3388003E-007  0.8261500E+03  0.7818608E-02  0.9656870E-01
          2   -1    0    0  501    0  0.00000000000E+00  0.00000000000E+00  0.95637515617E+03  0.95637515617E+03  0.25500000000E-02 0. -1.
         -2   -1    0    0    0  501 -0.00000000000E+00 -0.00000000000E+00 -0.59942261066E+03  0.59942261066E+03  0.25500000000E-02 0.  1.
    8880023    1    1    2    0    0  0.47291236433E+03 -0.15832697899E+03 -0.13696298500E+03  0.83742617712E+03  0.65864270000E+03 0.  1.
    8880022    1    1    2    0    0 -0.47291236433E+03  0.15832697899E+03  0.49391553051E+03  0.71837158971E+03  0.15294330000E+03 0.  0.
<mgrwt>
<rscale>  0 0.73643813E+03</rscale>
<asrwt>0</asrwt>
<pdfrwt beam="1">  1        2 0.14713464E+00 0.82614995E+03</pdfrwt>
<pdfrwt beam="2">  1       -2 0.92218864E-01 0.82614995E+03</pdfrwt>
<totfact> 0.27089803E+01</totfact>
</mgrwt>
</event>
<event>
 4    2  0.3935086E-007  0.9966413E+03  0.7818608E-02  0.9385965E-01
         -2   -1    0    0    0  501 -0.00000000000E+00  0.00000000000E+00  0.11193610096E+04  0.11193610096E+04  0.25500000000E-02 0.  1.
          2   -1    0    0  501    0  0.00000000000E+00 -0.00000000000E+00 -0.23152696366E+04  0.23152696366E+04  0.25500000000E-02 0. -1.
    8880023    1    1    2    0    0  0.43487753399E+03  0.60857633421E+03  0.81259077981E+03  0.12859228615E+04  0.65864270000E+03 0.  1.
    8880022    1    1    2    0    0 -0.43487753399E+03 -0.60857633421E+03 -0.20084994068E+04  0.21487077847E+04  0.15294330000E+03 0.  0.
<mgrwt>
<rscale>  0 0.93239751E+03</rscale>
<asrwt>0</asrwt>
<pdfrwt beam="1">  1        2 0.35619533E+00 0.99664127E+03</pdfrwt>
<pdfrwt beam="2">  1       -2 0.17220939E+00 0.99664127E+03</pdfrwt>
<totfact> 0.91624039E-01</totfact>
</mgrwt>
</event>
<event>
 4    2  0.3388003E-007  0.6612341E+03  0.7818608E-02  0.1022926E+00
         -2   -1    0    0    0  501 -0.00000000000E+00  0.00000000000E+00  0.22162614020E+03  0.22162614022E+03  0.25500000000E-02 0.  1.
          2   -1    0    0  501    0  0.00000000000E+00 -0.00000000000E+00 -0.15006691591E+04  0.15006691591E+04  0.25500000000E-02 0. -1.
    8880023    1    1    2    0    0 -0.37225511264E+02 -0.45106433607E+02 -0.29384938835E+03  0.72358689757E+03  0.65864270000E+03 0.  1.
    8880022    1    1    2    0    0  0.37225511264E+02  0.45106433607E+02 -0.98519363054E+03  0.99870840174E+03  0.15294330000E+03 0.  0.
<mgrwt>
<rscale>  0 0.46645263E+03</rscale>
<asrwt>0</asrwt>
<pdfrwt beam="1">  1        2 0.23087217E+00 0.66123410E+03</pdfrwt>
<pdfrwt beam="2">  1       -2 0.34096330E-01 0.66123410E+03</pdfrwt>
<totfact> 0.10486157E+02</totfact>
</mgrwt>
</event>
<event>
 4    2  0.3388003E-007  0.8893916E+03  0.7818608E-02  0.9543281E-01
         -2   -1    0    0    0  501 -0.00000000000E+00  0.00000000000E+00  0.72713820373E+03  0.72713820373E+03  0.25500000000E-02 0.  1.
          2   -1    0    0  501    0  0.00000000000E+00 -0.00000000000E+00 -0.95269597398E+03  0.95269597399E+03  0.25500000000E-02 0. -1.
    8880023    1    1    2    0    0  0.58975737556E+03 -0.96919546008E+02 -0.48214870437E+03  0.10116742261E+04  0.65864270000E+03 0. -1.
    8880022    1    1    2    0    0 -0.58975737556E+03  0.96919546008E+02  0.25659093411E+03  0.66815995159E+03  0.15294330000E+03 0.  1.
<mgrwt>
<rscale>  0 0.81166755E+03</rscale>
<asrwt>0</asrwt>
<pdfrwt beam="1">  1        2 0.14656861E+00 0.88939157E+03</pdfrwt>
<pdfrwt beam="2">  1       -2 0.11186742E+00 0.88939157E+03</pdfrwt>
<totfact> 0.17096557E+01</totfact>
</mgrwt>
</event>
<event>
 4    2  0.3388003E-007  0.6816143E+03  0.7818608E-02  0.1008425E+00
         -2   -1    0    0    0  501 -0.00000000000E+00  0.00000000000E+00  0.12521636770E+03  0.12521636773E+03  0.25500000000E-02 0.  1.
          2   -1    0    0  501    0  0.00000000000E+00 -0.00000000000E+00 -0.19278144829E+04  0.19278144829E+04  0.25500000000E-02 0. -1.
    8880023    1    1    2    0    0 -0.59311468594E+02 -0.16513610479E+03 -0.94999417055E+03  0.11692249201E+04  0.65864270000E+03 0.  0.
    8880022    1    1    2    0    0  0.59311468594E+02  0.16513610479E+03 -0.85260394463E+03  0.88380593053E+03  0.15294330000E+03 0.  0.
<mgrwt>
<rscale>  0 0.52105469E+03</rscale>
<asrwt>0</asrwt>
<pdfrwt beam="1">  1        2 0.29658682E+00 0.68161425E+03</pdfrwt>
<pdfrwt beam="2">  1       -2 0.19264058E-01 0.68161425E+03</pdfrwt>
<totfact> 0.17191624E+02</totfact>
</mgrwt>
</event>
<event>
 4    2  0.3388003E-007  0.1466131E+04  0.7818608E-02  0.8933930E-01
         -2   -1    0    0    0  501 -0.00000000000E+00  0.00000000000E+00  0.92615600283E+03  0.92615600283E+03  0.25500000000E-02 0.  1.
          2   -1    0    0  501    0  0.00000000000E+00 -0.00000000000E+00 -0.23760438220E+04  0.23760438220E+04  0.25500000000E-02 0. -1.
    8880023    1    1    2    0    0 -0.10791753468E+04  0.74236755572E+03 -0.19007726761E+03  0.14784006868E+04  0.65864270000E+03 0. -1.
    8880022    1    1    2    0    0  0.10791753468E+04 -0.74236755572E+03 -0.12598105516E+04  0.18237991380E+04  0.15294330000E+03 0.  0.
<mgrwt>
<rscale>  0 0.14278110E+04</rscale>
<asrwt>0</asrwt>
<pdfrwt beam="1">  1        2 0.36554520E+00 0.14661307E+04</pdfrwt>
<pdfrwt beam="2">  1       -2 0.14248554E+00 0.14661307E+04</pdfrwt>
<totfact> 0.13355114E+00</totfact>
</mgrwt>
</event>
<event>
 4    2  0.3388003E-007  0.1048629E+04  0.7818608E-02  0.9320531E-01
          2   -1    0    0  501    0  0.00000000000E+00  0.00000000000E+00  0.11406864940E+04  0.11406864940E+04  0.25500000000E-02 0. -1.
         -2   -1    0    0    0  501 -0.00000000000E+00 -0.00000000000E+00 -0.10450922125E+04  0.10450922125E+04  0.25500000000E-02 0.  1.
    8880023    1    1    2    0    0 -0.78215615299E+03  0.23247535157E+03 -0.50227952103E+03  0.11627157693E+04  0.65864270000E+03 0.  1.
    8880022    1    1    2    0    0  0.78215615299E+03 -0.23247535157E+03  0.59787380246E+03  0.10230629372E+04  0.15294330000E+03 0.  0.
<mgrwt>
<rscale>  0 0.98914508E+03</rscale>
<asrwt>0</asrwt>
<pdfrwt beam="1">  1        2 0.17549023E+00 0.10486292E+04</pdfrwt>
<pdfrwt beam="2">  1       -2 0.16078342E+00 0.10486292E+04</pdfrwt>
<totfact> 0.50423191E+00</totfact>
</mgrwt>
</event>
<event>
 4    2  0.3388003E-007  0.9087838E+03  0.7818608E-02  0.9512075E-01
         -2   -1    0    0    0  501 -0.00000000000E+00  0.00000000000E+00  0.20145718854E+04  0.20145718854E+04  0.25500000000E-02 0.  1.
          2   -1    0    0  501    0  0.00000000000E+00 -0.00000000000E+00 -0.58714282160E+03  0.58714282161E+03  0.25500000000E-02 0. -1.
    8880023    1    1    2    0    0 -0.54907764495E+03 -0.30098437597E+03  0.16795002326E+04  0.19096096702E+04  0.65864270000E+03 0.  1.
    8880022    1    1    2    0    0  0.54907764495E+03  0.30098437597E+03 -0.25207116888E+03  0.69210503679E+03  0.15294330000E+03 0.  0.
<mgrwt>
<rscale>  0 0.83399383E+03</rscale>
<asrwt>0</asrwt>
<pdfrwt beam="1">  1        2 0.90329666E-01 0.90878384E+03</pdfrwt>
<pdfrwt beam="2">  1       -2 0.30993413E+00 0.90878384E+03</pdfrwt>
<totfact> 0.14341055E+00</totfact>
</mgrwt>
</event>
<event>
 4    2  0.3388003E-007  0.7252820E+03  0.7818608E-02  0.9905103E-01
          2   -1    0    0  501    0  0.00000000000E+00  0.00000000000E+00  0.23035631332E+04  0.23035631332E+04  0.25500000000E-02 0. -1.
         -2   -1    0    0    0  501 -0.00000000000E+00 -0.00000000000E+00 -0.16231855293E+03  0.16231855295E+03  0.25500000000E-02 0.  1.
    8880023    1    1    2    0    0 -0.28818650902E+03  0.95771955846E+02  0.78970127621E+03  0.10722229448E+04  0.65864270000E+03 0.  0.
    8880022    1    1    2    0    0  0.28818650902E+03 -0.95771955846E+02  0.13515433041E+04  0.13936587414E+04  0.15294330000E+03 0.  0.
<mgrwt>
<rscale>  0 0.60014628E+03</rscale>
<asrwt>0</asrwt>
<pdfrwt beam="1">  1        2 0.35439428E+00 0.72528197E+03</pdfrwt>
<pdfrwt beam="2">  1       -2 0.24972088E-01 0.72528197E+03</pdfrwt>
<totfact> 0.67261036E+01</totfact>
</mgrwt>
</event>
<event>
 4    2  0.3388003E-007  0.6732113E+03  0.7818608E-02  0.1013458E+00
         -2   -1    0    0    0  501 -0.00000000000E+00  0.00000000000E+00  0.14764571083E+03  0.14764571085E+03  0.25500000000E-02 0.  1.
          2   -1    0    0  501    0  0.00000000000E+00 -0.00000000000E+00 -0.13116733761E+04  0.13116733761E+04  0.25500000000E-02 0. -1.
    8880023    1    1    2    0    0  0.74751963677E+02 -0.11753912754E+03 -0.89773321378E+03  0.11221133775E+04  0.65864270000E+03 0.  1.
    8880022    1    1    2    0    0 -0.74751963677E+02  0.11753912754E+03 -0.26629445145E+03  0.33720570941E+03  0.15294330000E+03 0. -1.
<mgrwt>
<rscale>  0 0.50123067E+03</rscale>
<asrwt>0</asrwt>
<pdfrwt beam="1">  1        2 0.20179590E+00 0.67321134E+03</pdfrwt>
<pdfrwt beam="2">  1       -2 0.22714726E-01 0.67321134E+03</pdfrwt>
<totfact> 0.28163522E+02</totfact>
</mgrwt>
</event>
<event>
 4    2  0.3388003E-007  0.6902574E+03  0.7818608E-02  0.1004030E+00
         -2   -1    0    0    0  501 -0.00000000000E+00  0.00000000000E+00  0.34129728804E+03  0.34129728805E+03  0.25500000000E-02 0.  1.
          2   -1    0    0  501    0  0.00000000000E+00 -0.00000000000E+00 -0.11895461708E+04  0.11895461708E+04  0.25500000000E-02 0. -1.
    8880023    1    1    2    0    0 -0.29087929544E+01  0.20648624061E+03 -0.49790072651E+02  0.69205078299E+03  0.65864270000E+03 0.  1.
    8880022    1    1    2    0    0  0.29087929544E+01 -0.20648624061E+03 -0.79845881010E+03  0.83879267586E+03  0.15294330000E+03 0.  0.
<mgrwt>
<rscale>  0 0.53917711E+03</rscale>
<asrwt>0</asrwt>
<pdfrwt beam="1">  1        2 0.18300710E+00 0.69025737E+03</pdfrwt>
<pdfrwt beam="2">  1       -2 0.52507276E-01 0.69025737E+03</pdfrwt>
<totfact> 0.67236555E+01</totfact>
</mgrwt>
</event>
<event>
 4    2  0.3388003E-007  0.6791438E+03  0.7818608E-02  0.1009812E+00
         -2   -1    0    0    0  501 -0.00000000000E+00  0.00000000000E+00  0.12514499750E+04  0.12514499750E+04  0.25500000000E-02 0.  1.
          2   -1    0    0  501    0  0.00000000000E+00 -0.00000000000E+00 -0.54629829024E+03  0.54629829024E+03  0.25500000000E-02 0. -1.
    8880023    1    1    2    0    0  0.67700616169E+02  0.15113807406E+03  0.11290882012E+04  0.13176025437E+04  0.65864270000E+03 0.  1.
    8880022    1    1    2    0    0 -0.67700616169E+02 -0.15113807406E+03 -0.42393651647E+03  0.48014572150E+03  0.15294330000E+03 0.  0.
<mgrwt>
<rscale>  0 0.51549354E+03</rscale>
<asrwt>0</asrwt>
<pdfrwt beam="1">  1        2 0.84045891E-01 0.67914380E+03</pdfrwt>
<pdfrwt beam="2">  1       -2 0.19253076E+00 0.67914380E+03</pdfrwt>
<totfact> 0.84962978E+00</totfact>
</mgrwt>
</event>
<event>
 4    2  0.3388003E-007  0.7041863E+03  0.7818608E-02  0.9980259E-01
         -2   -1    0    0    0  501 -0.00000000000E+00  0.00000000000E+00  0.48448715913E+03  0.48448715914E+03  0.25500000000E-02 0.  1.
          2   -1    0    0  501    0  0.00000000000E+00 -0.00000000000E+00 -0.12081006577E+04  0.12081006577E+04  0.25500000000E-02 0. -1.
    8880023    1    1    2    0    0  0.20902074874E+03  0.13556706274E+03  0.19327130856E+03  0.73022743504E+03  0.65864270000E+03 0.  1.
    8880022    1    1    2    0    0 -0.20902074874E+03 -0.13556706274E+03 -0.91688480712E+03  0.96236038180E+03  0.15294330000E+03 0.  0.
<mgrwt>
<rscale>  0 0.56524388E+03</rscale>
<asrwt>0</asrwt>
<pdfrwt beam="1">  1        2 0.18586164E+00 0.70418627E+03</pdfrwt>
<pdfrwt beam="2">  1       -2 0.74536486E-01 0.70418627E+03</pdfrwt>
<totfact> 0.31043777E+01</totfact>
</mgrwt>
</event>
<event>
 4    2  0.3388003E-007  0.1055008E+04  0.7818608E-02  0.9312885E-01
          2   -1    0    0  501    0  0.00000000000E+00  0.00000000000E+00  0.32115481391E+04  0.32115481391E+04  0.25500000000E-02 0. -1.
         -2   -1    0    0    0  501 -0.00000000000E+00 -0.00000000000E+00 -0.32314805090E+03  0.32314805091E+03  0.25500000000E-02 0.  1.
    8880023    1    1    2    0    0 -0.64378872102E+03 -0.51455690371E+03  0.93758993748E+03  0.14114240403E+04  0.65864270000E+03 0.  0.
    8880022    1    1    2    0    0  0.64378872102E+03  0.51455690371E+03  0.19508101507E+04  0.21232721497E+04  0.15294330000E+03 0.  1.
<mgrwt>
<rscale>  0 0.99605282E+03</rscale>
<asrwt>0</asrwt>
<pdfrwt beam="1">  1        2 0.49408431E+00 0.10550085E+04</pdfrwt>
<pdfrwt beam="2">  1       -2 0.49715086E-01 0.10550085E+04</pdfrwt>
<totfact> 0.49798501E+00</totfact>
</mgrwt>
</event>
<event>
 4    2  0.3388003E-007  0.6928956E+03  0.7818608E-02  0.1002806E+00
         -2   -1    0    0    0  501 -0.00000000000E+00  0.00000000000E+00  0.31843387696E+03  0.31843387697E+03  0.25500000000E-02 0.  1.
          2   -1    0    0  501    0  0.00000000000E+00 -0.00000000000E+00 -0.14687581478E+04  0.14687581478E+04  0.25500000000E-02 0. -1.
    8880023    1    1    2    0    0  0.19903603820E+03  0.81723286289E+02 -0.95030372455E+02  0.69938188279E+03  0.65864270000E+03 0.  1.
    8880022    1    1    2    0    0 -0.19903603820E+03 -0.81723286289E+02 -0.10552938984E+04  0.10878101420E+04  0.15294330000E+03 0.  0.
<mgrwt>
<rscale>  0 0.54436950E+03</rscale>
<asrwt>0</asrwt>
<pdfrwt beam="1">  1        2 0.22596279E+00 0.69289555E+03</pdfrwt>
<pdfrwt beam="2">  1       -2 0.48989828E-01 0.69289555E+03</pdfrwt>
<totfact> 0.53581188E+01</totfact>
</mgrwt>
</event>
<event>
 4    2  0.3388003E-007  0.7504066E+03  0.7818608E-02  0.9830609E-01
         -2   -1    0    0    0  501 -0.00000000000E+00  0.00000000000E+00  0.11871679791E+03  0.11871679794E+03  0.25500000000E-02 0.  1.
          2   -1    0    0  501    0  0.00000000000E+00 -0.00000000000E+00 -0.33003472156E+04  0.33003472156E+04  0.25500000000E-02 0. -1.
    8880023    1    1    2    0    0  0.32572273280E+03  0.15233020102E+03 -0.13341151803E+04  0.15306774021E+04  0.65864270000E+03 0.  0.
    8880022    1    1    2    0    0 -0.32572273280E+03 -0.15233020102E+03 -0.18475152374E+04  0.18883866114E+04  0.15294330000E+03 0.  0.
<mgrwt>
<rscale>  0 0.63745466E+03</rscale>
<asrwt>0</asrwt>
<pdfrwt beam="1">  1        2 0.50774566E+00 0.75040655E+03</pdfrwt>
<pdfrwt beam="2">  1       -2 0.18264125E-01 0.75040655E+03</pdfrwt>
<totfact> 0.29720867E+01</totfact>
</mgrwt>
</event>
<event>
 4    2  0.3388003E-007  0.7290955E+03  0.7818608E-02  0.9892932E-01
          2   -1    0    0  501    0  0.00000000000E+00  0.00000000000E+00  0.23499158129E+03  0.23499158131E+03  0.25500000000E-02 0. -1.
         -2   -1    0    0    0  501 -0.00000000000E+00 -0.00000000000E+00 -0.12352550532E+04  0.12352550532E+04  0.25500000000E-02 0.  1.
    8880023    1    1    2    0    0  0.15702062350E+03 -0.27039707812E+03 -0.65903805740E+03  0.98280792804E+03  0.65864270000E+03 0.  0.
    8880022    1    1    2    0    0 -0.15702062350E+03  0.27039707812E+03 -0.34122541456E+03  0.48743870652E+03  0.15294330000E+03 0. -1.
<mgrwt>
<rscale>  0 0.60605075E+03</rscale>
<asrwt>0</asrwt>
<pdfrwt beam="1">  1        2 0.36152552E-01 0.72909551E+03</pdfrwt>
<pdfrwt beam="2">  1       -2 0.19003923E+00 0.72909551E+03</pdfrwt>
<totfact> 0.22720674E+01</totfact>
</mgrwt>
</event>
<event>
 4    2  0.3388003E-007  0.1611554E+04  0.7818608E-02  0.8834633E-01
         -2   -1    0    0    0  501 -0.00000000000E+00  0.00000000000E+00  0.22506749256E+04  0.22506749256E+04  0.25500000000E-02 0.  1.
          2   -1    0    0  501    0  0.00000000000E+00 -0.00000000000E+00 -0.12213796573E+04  0.12213796573E+04  0.25500000000E-02 0. -1.
    8880023    1    1    2    0    0  0.88702983397E+03  0.11732325476E+04  0.11628484210E+04  0.19872904150E+04  0.65864270000E+03 0.  0.
    8880022    1    1    2    0    0 -0.88702983397E+03 -0.11732325476E+04 -0.13355315265E+03  0.14847641680E+04  0.15294330000E+03 0.  0.
<mgrwt>
<rscale>  0 0.15772736E+04</rscale>
<asrwt>0</asrwt>
<pdfrwt beam="1">  1        2 0.18790456E+00 0.16115541E+04</pdfrwt>
<pdfrwt beam="2">  1       -2 0.34625768E+00 0.16115541E+04</pdfrwt>
<totfact> 0.28233753E-01</totfact>
</mgrwt>
</event>
<event>
 4    2  0.3388003E-007  0.6784825E+03  0.7818608E-02  0.1010195E+00
         -2   -1    0    0    0  501 -0.00000000000E+00  0.00000000000E+00  0.20870776055E+03  0.20870776056E+03  0.25500000000E-02 0.  1.
          2   -1    0    0  501    0  0.00000000000E+00 -0.00000000000E+00 -0.15493100213E+04  0.15493100213E+04  0.25500000000E-02 0. -1.
    8880023    1    1    2    0    0 -0.15678466851E+03  0.44123822201E+02 -0.39226403661E+03  0.78371527014E+03  0.65864270000E+03 0.  1.
    8880022    1    1    2    0    0  0.15678466851E+03 -0.44123822201E+02 -0.94833822417E+03  0.97430251175E+03  0.15294330000E+03 0.  0.
<mgrwt>
<rscale>  0 0.51397065E+03</rscale>
<asrwt>0</asrwt>
<pdfrwt beam="1">  1        2 0.23835538E+00 0.67848253E+03</pdfrwt>
<pdfrwt beam="2">  1       -2 0.32108887E-01 0.67848253E+03</pdfrwt>
<totfact> 0.11017105E+02</totfact>
</mgrwt>
</event>
<event>
 4    2  0.3388003E-007  0.7179468E+03  0.7818608E-02  0.9929596E-01
          2   -1    0    0  501    0  0.00000000000E+00  0.00000000000E+00  0.93550956003E+03  0.93550956003E+03  0.25500000000E-02 0. -1.
         -2   -1    0    0    0  501 -0.00000000000E+00 -0.00000000000E+00 -0.44717059015E+03  0.44717059016E+03  0.25500000000E-02 0.  1.
    8880023    1    1    2    0    0 -0.23028370826E+03  0.16913529715E+03 -0.86137201162E+02  0.72309553914E+03  0.65864270000E+03 0.  1.
    8880022    1    1    2    0    0  0.23028370826E+03 -0.16913529715E+03  0.57447617104E+03  0.65958461105E+03  0.15294330000E+03 0.  0.
<mgrwt>
<rscale>  0 0.58848151E+03</rscale>
<asrwt>0</asrwt>
<pdfrwt beam="1">  1        2 0.14392455E+00 0.71794675E+03</pdfrwt>
<pdfrwt beam="2">  1       -2 0.68795475E-01 0.71794675E+03</pdfrwt>
<totfact> 0.54523902E+01</totfact>
</mgrwt>
</event>
<event>
 4    2  0.3388003E-007  0.8114126E+03  0.7818608E-02  0.9686642E-01
          2   -1    0    0  501    0  0.00000000000E+00  0.00000000000E+00  0.13170610514E+04  0.13170610514E+04  0.25500000000E-02 0. -1.
         -2   -1    0    0    0  501 -0.00000000000E+00 -0.00000000000E+00 -0.49392869238E+03  0.49392869238E+03  0.25500000000E-02 0.  1.
    8880023    1    1    2    0    0 -0.42034461739E+03 -0.21883939508E+03  0.99526403240E+03  0.12841109682E+04  0.65864270000E+03 0. -1.
    8880022    1    1    2    0    0  0.42034461739E+03  0.21883939508E+03 -0.17213167335E+03  0.52687877561E+03  0.15294330000E+03 0.  0.
<mgrwt>
<rscale>  0 0.71817725E+03</rscale>
<asrwt>0</asrwt>
<pdfrwt beam="1">  1        2 0.20262478E+00 0.81141265E+03</pdfrwt>
<pdfrwt beam="2">  1       -2 0.75989030E-01 0.81141265E+03</pdfrwt>
<totfact> 0.25408481E+01</totfact>
</mgrwt>
</event>
<event>
 4    2  0.3388003E-007  0.8107663E+03  0.7818608E-02  0.9687983E-01
         -2   -1    0    0    0  501 -0.00000000000E+00  0.00000000000E+00  0.84438728236E+03  0.84438728236E+03  0.25500000000E-02 0.  1.
          2   -1    0    0  501    0  0.00000000000E+00 -0.00000000000E+00 -0.99797382986E+03  0.99797382987E+03  0.25500000000E-02 0. -1.
    8880023    1    1    2    0    0 -0.47033314552E+03 -0.48151592793E+02  0.55092568783E+03  0.98023525923E+03  0.65864270000E+03 0.  1.
    8880022    1    1    2    0    0  0.47033314552E+03  0.48151592793E+02 -0.70451223533E+03  0.86212585300E+03  0.15294330000E+03 0.  0.
<mgrwt>
<rscale>  0 0.71736814E+03</rscale>
<asrwt>0</asrwt>
<pdfrwt beam="1">  1        2 0.15353443E+00 0.81076633E+03</pdfrwt>
<pdfrwt beam="2">  1       -2 0.12990574E+00 0.81076633E+03</pdfrwt>
<totfact> 0.11106564E+01</totfact>
</mgrwt>
</event>
<event>
 4    2  0.3388003E-007  0.7430319E+03  0.7818608E-02  0.9851202E-01
         -2   -1    0    0    0  501 -0.00000000000E+00  0.00000000000E+00  0.56966783492E+03  0.56966783493E+03  0.25500000000E-02 0.  1.
          2   -1    0    0  501    0  0.00000000000E+00 -0.00000000000E+00 -0.11237955605E+04  0.11237955605E+04  0.25500000000E-02 0. -1.
    8880023    1    1    2    0    0 -0.33246576229E+03 -0.88049412470E+02  0.26750351935E+03  0.78971800110E+03  0.65864270000E+03 0.  1.
    8880022    1    1    2    0    0  0.33246576229E+03  0.88049412470E+02 -0.82163124493E+03  0.90374539434E+03  0.15294330000E+03 0.  0.
<mgrwt>
<rscale>  0 0.62685678E+03</rscale>
<asrwt>0</asrwt>
<pdfrwt beam="1">  1        2 0.17289162E+00 0.74303189E+03</pdfrwt>
<pdfrwt beam="2">  1       -2 0.87641206E-01 0.74303189E+03</pdfrwt>
<totfact> 0.24105057E+01</totfact>
</mgrwt>
</event>
<event>
 4    2  0.3388003E-007  0.7653174E+03  0.7818608E-02  0.9791531E-01
         -2   -1    0    0    0  501 -0.00000000000E+00  0.00000000000E+00  0.10480292386E+04  0.10480292386E+04  0.25500000000E-02 0.  1.
          2   -1    0    0  501    0  0.00000000000E+00 -0.00000000000E+00 -0.15247897005E+04  0.15247897005E+04  0.25500000000E-02 0. -1.
    8880023    1    1    2    0    0 -0.12371088757E+03 -0.36958904213E+03  0.87220910474E+03  0.11603703600E+04  0.65864270000E+03 0.  1.
    8880022    1    1    2    0    0  0.12371088757E+03  0.36958904213E+03 -0.13489695666E+04  0.14124485791E+04  0.15294330000E+03 0.  0.
<mgrwt>
<rscale>  0 0.65819028E+03</rscale>
<asrwt>0</asrwt>
<pdfrwt beam="1">  1        2 0.23458303E+00 0.76531735E+03</pdfrwt>
<pdfrwt beam="2">  1       -2 0.16123527E+00 0.76531735E+03</pdfrwt>
<totfact> 0.31090597E+00</totfact>
</mgrwt>
</event>
<event>
 4    2  0.3388003E-007  0.7215208E+03  0.7818608E-02  0.9917473E-01
         -2   -1    0    0    0  501 -0.00000000000E+00  0.00000000000E+00  0.62006718060E+03  0.62006718061E+03  0.25500000000E-02 0.  1.
          2   -1    0    0  501    0  0.00000000000E+00 -0.00000000000E+00 -0.73551015844E+03  0.73551015844E+03  0.25500000000E-02 0. -1.
    8880023    1    1    2    0    0  0.12607169833E+03  0.26624800533E+03  0.33544865876E+03  0.79568717622E+03  0.65864270000E+03 0.  1.
    8880022    1    1    2    0    0 -0.12607169833E+03 -0.26624800533E+03 -0.45089163660E+03  0.55989016283E+03  0.15294330000E+03 0.  0.
<mgrwt>
<rscale>  0 0.59421882E+03</rscale>
<asrwt>0</asrwt>
<pdfrwt beam="1">  1        2 0.11315541E+00 0.72152081E+03</pdfrwt>
<pdfrwt beam="2">  1       -2 0.95394951E-01 0.72152081E+03</pdfrwt>
<totfact> 0.36063582E+01</totfact>
</mgrwt>
</event>
<event>
 4    2  0.3388003E-007  0.7860819E+03  0.7818608E-02  0.9741740E-01
         -2   -1    0    0    0  501 -0.00000000000E+00  0.00000000000E+00  0.17947444208E+03  0.17947444210E+03  0.25500000000E-02 0.  1.
          2   -1    0    0  501    0  0.00000000000E+00 -0.00000000000E+00 -0.31335647602E+04  0.31335647602E+04  0.25500000000E-02 0. -1.
    8880023    1    1    2    0    0 -0.75486274454E+02  0.42239364358E+03 -0.84006769129E+03  0.11504948935E+04  0.65864270000E+03 0.  1.
    8880022    1    1    2    0    0  0.75486274454E+02 -0.42239364358E+03 -0.21140226269E+04  0.21625443088E+04  0.15294330000E+03 0.  0.
<mgrwt>
<rscale>  0 0.68585095E+03</rscale>
<asrwt>0</asrwt>
<pdfrwt beam="1">  1        2 0.48208685E+00 0.78608191E+03</pdfrwt>
<pdfrwt beam="2">  1       -2 0.27611455E-01 0.78608191E+03</pdfrwt>
<totfact> 0.18107242E+01</totfact>
</mgrwt>
</event>
<event>
 4    2  0.3388003E-007  0.7208163E+03  0.7818608E-02  0.9919833E-01
         -2   -1    0    0    0  501 -0.00000000000E+00  0.00000000000E+00  0.14663409021E+03  0.14663409023E+03  0.25500000000E-02 0.  1.
          2   -1    0    0  501    0  0.00000000000E+00 -0.00000000000E+00 -0.29021002665E+04  0.29021002665E+04  0.25500000000E-02 0. -1.
    8880023    1    1    2    0    0 -0.38420691040E+01 -0.29283306901E+03 -0.84841967000E+03  0.11132798887E+04  0.65864270000E+03 0.  1.
    8880022    1    1    2    0    0  0.38420691040E+01  0.29283306901E+03 -0.19070465063E+04  0.19354544681E+04  0.15294330000E+03 0.  0.
<mgrwt>
<rscale>  0 0.59309630E+03</rscale>
<asrwt>0</asrwt>
<pdfrwt beam="1">  1        2 0.44647692E+00 0.72081632E+03</pdfrwt>
<pdfrwt beam="2">  1       -2 0.22559093E-01 0.72081632E+03</pdfrwt>
<totfact> 0.36545709E+01</totfact>
</mgrwt>
</event>
<event>
 4    2  0.3388003E-007  0.6919238E+03  0.7818608E-02  0.1003251E+00
          2   -1    0    0  501    0  0.00000000000E+00  0.00000000000E+00  0.21905415457E+04  0.21905415457E+04  0.25500000000E-02 0. -1.
         -2   -1    0    0    0  501 -0.00000000000E+00 -0.00000000000E+00 -0.18413512870E+03  0.18413512872E+03  0.25500000000E-02 0.  1.
    8880023    1    1    2    0    0 -0.64929683388E+02 -0.20182295829E+03  0.52021478682E+03  0.86566852834E+03  0.65864270000E+03 0.  1.
    8880022    1    1    2    0    0  0.64929683388E+02  0.20182295829E+03  0.14861916302E+04  0.15090081461E+04  0.15294330000E+03 0.  0.
<mgrwt>
<rscale>  0 0.54247297E+03</rscale>
<asrwt>0</asrwt>
<pdfrwt beam="1">  1        2 0.33700638E+00 0.69192382E+03</pdfrwt>
<pdfrwt beam="2">  1       -2 0.28328482E-01 0.69192382E+03</pdfrwt>
<totfact> 0.61999555E+01</totfact>
</mgrwt>
</event>
<event>
 4    2  0.3388003E-007  0.8304128E+03  0.7818608E-02  0.9648530E-01
          2   -1    0    0  501    0  0.00000000000E+00  0.00000000000E+00  0.56754797587E+03  0.56754797588E+03  0.25500000000E-02 0. -1.
         -2   -1    0    0    0  501 -0.00000000000E+00 -0.00000000000E+00 -0.11584010238E+04  0.11584010238E+04  0.25500000000E-02 0.  1.
    8880023    1    1    2    0    0  0.49563977255E+03  0.10058045736E+03 -0.80433482062E+03  0.11560881984E+04  0.65864270000E+03 0.  0.
    8880022    1    1    2    0    0 -0.49563977255E+03 -0.10058045736E+03  0.21348177270E+03  0.56986080128E+03  0.15294330000E+03 0.  0.
<mgrwt>
<rscale>  0 0.74165770E+03</rscale>
<asrwt>0</asrwt>
<pdfrwt beam="1">  1        2 0.87315073E-01 0.83041280E+03</pdfrwt>
<pdfrwt beam="2">  1       -2 0.17821554E+00 0.83041280E+03</pdfrwt>
<totfact> 0.99790195E+00</totfact>
</mgrwt>
</event>
<event>
 4    2  0.3388003E-007  0.8835877E+03  0.7818608E-02  0.9552909E-01
          2   -1    0    0  501    0  0.00000000000E+00  0.00000000000E+00  0.24471164611E+04  0.24471164611E+04  0.25500000000E-02 0. -1.
         -2   -1    0    0    0  501 -0.00000000000E+00 -0.00000000000E+00 -0.23060853339E+03  0.23060853341E+03  0.25500000000E-02 0.  1.
    8880023    1    1    2    0    0 -0.32468820582E+03 -0.49142095055E+03  0.11557833746E+04  0.14548410212E+04  0.65864270000E+03 0.  0.
    8880022    1    1    2    0    0  0.32468820582E+03  0.49142095055E+03  0.10607245531E+04  0.12228839733E+04  0.15294330000E+03 0.  0.
<mgrwt>
<rscale>  0 0.80492927E+03</rscale>
<asrwt>0</asrwt>
<pdfrwt beam="1">  1        2 0.37647946E+00 0.88358768E+03</pdfrwt>
<pdfrwt beam="2">  1       -2 0.35478236E-01 0.88358768E+03</pdfrwt>
<totfact> 0.28552569E+01</totfact>
</mgrwt>
</event>
<event>
 4    2  0.3388003E-007  0.7010432E+03  0.7818608E-02  0.9992901E-01
          2   -1    0    0  501    0  0.00000000000E+00  0.00000000000E+00  0.14844527105E+04  0.14844527105E+04  0.25500000000E-02 0. -1.
         -2   -1    0    0    0  501 -0.00000000000E+00 -0.00000000000E+00 -0.45161457076E+03  0.45161457077E+03  0.25500000000E-02 0.  1.
    8880023    1    1    2    0    0 -0.23597707712E+03  0.44342216773E+02 -0.15214913532E+03  0.71736390957E+03  0.65864270000E+03 0.  1.
    8880022    1    1    2    0    0  0.23597707712E+03 -0.44342216773E+02  0.11849872751E+04  0.12187033717E+04  0.15294330000E+03 0.  0.
<mgrwt>
<rscale>  0 0.55962626E+03</rscale>
<asrwt>0</asrwt>
<pdfrwt beam="1">  1        2 0.22837734E+00 0.70104324E+03</pdfrwt>
<pdfrwt beam="2">  1       -2 0.69479165E-01 0.70104324E+03</pdfrwt>
<totfact> 0.25196840E+01</totfact>
</mgrwt>
</event>
<event>
 4    2  0.3388003E-007  0.7104139E+03  0.7818608E-02  0.9956467E-01
         -2   -1    0    0    0  501 -0.00000000000E+00  0.00000000000E+00  0.25947786568E+03  0.25947786569E+03  0.25500000000E-02 0.  1.
          2   -1    0    0  501    0  0.00000000000E+00 -0.00000000000E+00 -0.16335748444E+04  0.16335748444E+04  0.25500000000E-02 0. -1.
    8880023    1    1    2    0    0  0.22088804409E+03  0.14861425709E+03 -0.29173044412E+03  0.76798084854E+03  0.65864270000E+03 0.  1.
    8880022    1    1    2    0    0 -0.22088804409E+03 -0.14861425709E+03 -0.10823665346E+04  0.11250718616E+04  0.15294330000E+03 0.  0.
<mgrwt>
<rscale>  0 0.57600987E+03</rscale>
<asrwt>0</asrwt>
<pdfrwt beam="1">  1        2 0.25131920E+00 0.71041392E+03</pdfrwt>
<pdfrwt beam="2">  1       -2 0.39919672E-01 0.71041392E+03</pdfrwt>
<totfact> 0.65109033E+01</totfact>
</mgrwt>
</event>
<event>
 4    2  0.3388003E-007  0.8444241E+03  0.7818608E-02  0.9621894E-01
          2   -1    0    0  501    0  0.00000000000E+00  0.00000000000E+00  0.47642687060E+03  0.47642687060E+03  0.25500000000E-02 0. -1.
         -2   -1    0    0    0  501 -0.00000000000E+00 -0.00000000000E+00 -0.17121342338E+04  0.17121342338E+04  0.25500000000E-02 0.  1.
    8880023    1    1    2    0    0 -0.52836739959E+03 -0.83467555461E+01 -0.13817837915E+04  0.16193759384E+04  0.65864270000E+03 0.  1.
    8880022    1    1    2    0    0  0.52836739959E+03  0.83467555461E+01  0.14607642827E+03  0.56918516599E+03  0.15294330000E+03 0.  0.
<mgrwt>
<rscale>  0 0.75863882E+03</rscale>
<asrwt>0</asrwt>
<pdfrwt beam="1">  1        2 0.73296442E-01 0.84442405E+03</pdfrwt>
<pdfrwt beam="2">  1       -2 0.26340526E+00 0.84442405E+03</pdfrwt>
<totfact> 0.35313634E+00</totfact>
</mgrwt>
</event>
<event>
 4    2  0.3388003E-007  0.7783358E+03  0.7818608E-02  0.9759761E-01
          2   -1    0    0  501    0  0.00000000000E+00  0.00000000000E+00  0.34693603823E+04  0.34693603823E+04  0.25500000000E-02 0. -1.
         -2   -1    0    0    0  501 -0.00000000000E+00 -0.00000000000E+00 -0.39684418716E+03  0.39684418717E+03  0.25500000000E-02 0.  1.
    8880023    1    1    2    0    0  0.24775071107E+03  0.33258986732E+03  0.16628678883E+02  0.77851342564E+03  0.65864270000E+03 0.  0.
    8880022    1    1    2    0    0 -0.24775071107E+03 -0.33258986732E+03  0.30558875163E+04  0.30876911439E+04  0.15294330000E+03 0.  0.
<mgrwt>
<rscale>  0 0.67567449E+03</rscale>
<asrwt>0</asrwt>
<pdfrwt beam="1">  1        2 0.53374775E+00 0.77833582E+03</pdfrwt>
<pdfrwt beam="2">  1       -2 0.61052952E-01 0.77833582E+03</pdfrwt>
<totfact> 0.23004791E+00</totfact>
</mgrwt>
</event>
<event>
 4    2  0.3388003E-007  0.9670784E+03  0.7818608E-02  0.9425956E-01
          2   -1    0    0  501    0  0.00000000000E+00  0.00000000000E+00  0.21740100655E+04  0.21740100655E+04  0.25500000000E-02 0. -1.
         -2   -1    0    0    0  501 -0.00000000000E+00 -0.00000000000E+00 -0.51682039964E+03  0.51682039965E+03  0.25500000000E-02 0.  1.
    8880023    1    1    2    0    0  0.15319384925E+03  0.69134799419E+03  0.98586053128E+02  0.97209043852E+03  0.65864270000E+03 0.  0.
    8880022    1    1    2    0    0 -0.15319384925E+03 -0.69134799419E+03  0.15586036128E+04  0.17187400267E+04  0.15294330000E+03 0.  0.
<mgrwt>
<rscale>  0 0.89970010E+03</rscale>
<asrwt>0</asrwt>
<pdfrwt beam="1">  1        2 0.33446308E+00 0.96707839E+03</pdfrwt>
<pdfrwt beam="2">  1       -2 0.79510833E-01 0.96707839E+03</pdfrwt>
<totfact> 0.75501765E+00</totfact>
</mgrwt>
</event>
<event>
 4    2  0.3388003E-007  0.9283916E+03  0.7818608E-02  0.9481910E-01
         -2   -1    0    0    0  501 -0.00000000000E+00  0.00000000000E+00  0.48094602605E+03  0.48094602606E+03  0.25500000000E-02 0.  1.
          2   -1    0    0  501    0  0.00000000000E+00 -0.00000000000E+00 -0.46611894367E+04  0.46611894367E+04  0.25500000000E-02 0. -1.
    8880023    1    1    2    0    0  0.58153830391E+03 -0.29985664212E+03 -0.20650960772E+02  0.92862127543E+03  0.65864270000E+03 0.  1.
    8880022    1    1    2    0    0 -0.58153830391E+03  0.29985664212E+03 -0.41595924498E+04  0.42135141873E+04  0.15294330000E+03 0.  0.
<mgrwt>
<rscale>  0 0.85630745E+03</rscale>
<asrwt>0</asrwt>
<pdfrwt beam="1">  1        2 0.71710604E+00 0.92839163E+03</pdfrwt>
<pdfrwt beam="2">  1       -2 0.73991700E-01 0.92839163E+03</pdfrwt>
<totfact> 0.15298310E-01</totfact>
</mgrwt>
</event>
<event>
 4    2  0.3388003E-007  0.1213200E+04  0.7818608E-02  0.9144396E-01
          2   -1    0    0  501    0  0.00000000000E+00  0.00000000000E+00  0.17437934097E+04  0.17437934097E+04  0.25500000000E-02 0. -1.
         -2   -1    0    0    0  501 -0.00000000000E+00 -0.00000000000E+00 -0.12883892488E+04  0.12883892488E+04  0.25500000000E-02 0.  1.
    8880023    1    1    2    0    0  0.97232241620E+03 -0.30435769767E+03 -0.76561715375E+03  0.14345815841E+04  0.65864270000E+03 0.  1.
    8880022    1    1    2    0    0 -0.97232241620E+03  0.30435769767E+03  0.12210213146E+04  0.15976010744E+04  0.15294330000E+03 0.  0.
<mgrwt>
<rscale>  0 0.11646249E+04</rscale>
<asrwt>0</asrwt>
<pdfrwt beam="1">  1        2 0.26827591E+00 0.12132002E+04</pdfrwt>
<pdfrwt beam="2">  1       -2 0.19821373E+00 0.12132002E+04</pdfrwt>
<totfact> 0.12275102E+00</totfact>
</mgrwt>
</event>
<event>
 4    2  0.3388003E-007  0.7052723E+03  0.7818608E-02  0.9975995E-01
         -2   -1    0    0    0  501 -0.00000000000E+00  0.00000000000E+00  0.52268097898E+03  0.52268097898E+03  0.25500000000E-02 0.  1.
          2   -1    0    0  501    0  0.00000000000E+00 -0.00000000000E+00 -0.26898390108E+04  0.26898390108E+04  0.25500000000E-02 0. -1.
    8880023    1    1    2    0    0  0.13795312322E+03 -0.21111066361E+03  0.27177019923E+03  0.75582274638E+03  0.65864270000E+03 0.  1.
    8880022    1    1    2    0    0 -0.13795312322E+03  0.21111066361E+03 -0.24389282311E+04  0.24566972434E+04  0.15294330000E+03 0.  0.
<mgrwt>
<rscale>  0 0.56715471E+03</rscale>
<asrwt>0</asrwt>
<pdfrwt beam="1">  1        2 0.41382138E+00 0.70527228E+03</pdfrwt>
<pdfrwt beam="2">  1       -2 0.80412460E-01 0.70527228E+03</pdfrwt>
<totfact> 0.39198652E+00</totfact>
</mgrwt>
</event>
<event>
 4    2  0.3388003E-007  0.9491964E+03  0.7818608E-02  0.9451271E-01
         -2   -1    0    0    0  501 -0.00000000000E+00  0.00000000000E+00  0.39592067259E+03  0.39592067259E+03  0.25500000000E-02 0.  1.
          2   -1    0    0  501    0  0.00000000000E+00 -0.00000000000E+00 -0.17875892984E+04  0.17875892984E+04  0.25500000000E-02 0. -1.
    8880023    1    1    2    0    0 -0.67118173151E+03  0.12914584991E+03 -0.10093756947E+04  0.13855731906E+04  0.65864270000E+03 0. -1.
    8880022    1    1    2    0    0  0.67118173151E+03 -0.12914584991E+03 -0.38229293110E+03  0.79793678035E+03  0.15294330000E+03 0.  1.
<mgrwt>
<rscale>  0 0.87973738E+03</rscale>
<asrwt>0</asrwt>
<pdfrwt beam="1">  1        2 0.27501373E+00 0.94919638E+03</pdfrwt>
<pdfrwt beam="2">  1       -2 0.60910874E-01 0.94919638E+03</pdfrwt>
<totfact> 0.22125320E+01</totfact>
</mgrwt>
</event>
<event>
 4    2  0.3388003E-007  0.7263332E+03  0.7818608E-02  0.9901712E-01
          2   -1    0    0  501    0  0.00000000000E+00  0.00000000000E+00  0.26260240364E+04  0.26260240364E+04  0.25500000000E-02 0. -1.
         -2   -1    0    0    0  501 -0.00000000000E+00 -0.00000000000E+00 -0.19723958449E+03  0.19723958451E+03  0.25500000000E-02 0.  1.
    8880023    1    1    2    0    0  0.29217016523E+03  0.91576419959E+02  0.54350867441E+03  0.90717227226E+03  0.65864270000E+03 0.  1.
    8880022    1    1    2    0    0 -0.29217016523E+03 -0.91576419959E+02  0.18852757775E+04  0.19160913486E+04  0.15294330000E+03 0.  1.
<mgrwt>
<rscale>  0 0.60178403E+03</rscale>
<asrwt>0</asrwt>
<pdfrwt beam="1">  1        2 0.40400366E+00 0.72633316E+03</pdfrwt>
<pdfrwt beam="2">  1       -2 0.30344554E-01 0.72633316E+03</pdfrwt>
<totfact> 0.30958177E+01</totfact>
</mgrwt>
</event>
<event>
 4    2  0.3388003E-007  0.6600283E+03  0.7818608E-02  0.1024127E+00
         -2   -1    0    0    0  501 -0.00000000000E+00  0.00000000000E+00  0.39057603046E+03  0.39057603047E+03  0.25500000000E-02 0.  1.
          2   -1    0    0  501    0  0.00000000000E+00 -0.00000000000E+00 -0.78085687421E+03  0.78085687421E+03  0.25500000000E-02 0. -1.
    8880023    1    1    2    0    0 -0.42505947904E+02  0.45095442517E+01  0.89485895260E+02  0.66606683096E+03  0.65864270000E+03 0.  1.
    8880022    1    1    2    0    0  0.42505947904E+02 -0.45095442517E+01 -0.47976673900E+03  0.50536607372E+03  0.15294330000E+03 0.  0.
<mgrwt>
<rscale>  0 0.46226108E+03</rscale>
<asrwt>0</asrwt>
<pdfrwt beam="1">  1        2 0.12013183E+00 0.66002826E+03</pdfrwt>
<pdfrwt beam="2">  1       -2 0.60088620E-01 0.66002826E+03</pdfrwt>
<totfact> 0.93572916E+01</totfact>
</mgrwt>
</event>
<event>
 4    2  0.3388003E-007  0.6711661E+03  0.7818608E-02  0.1014840E+00
          2   -1    0    0  501    0  0.00000000000E+00  0.00000000000E+00  0.98883745458E+03  0.98883745459E+03  0.25500000000E-02 0. -1.
         -2   -1    0    0    0  501 -0.00000000000E+00 -0.00000000000E+00 -0.28762805303E+03  0.28762805304E+03  0.25500000000E-02 0.  1.
    8880023    1    1    2    0    0  0.77461523396E+02 -0.10321563701E+03  0.14678178496E+03  0.68702900520E+03  0.65864270000E+03 0.  1.
    8880022    1    1    2    0    0 -0.77461523396E+02  0.10321563701E+03  0.55442761660E+03  0.58943650243E+03  0.15294330000E+03 0.  0.
<mgrwt>
<rscale>  0 0.49595424E+03</rscale>
<asrwt>0</asrwt>
<pdfrwt beam="1">  1        2 0.15212884E+00 0.67116612E+03</pdfrwt>
<pdfrwt beam="2">  1       -2 0.44250470E-01 0.67116612E+03</pdfrwt>
<totfact> 0.12629613E+02</totfact>
</mgrwt>
</event>
<event>
 4    2  0.3388003E-007  0.7721016E+03  0.7818608E-02  0.9774728E-01
          2   -1    0    0  501    0  0.00000000000E+00  0.00000000000E+00  0.74407920109E+03  0.74407920110E+03  0.25500000000E-02 0. -1.
         -2   -1    0    0    0  501 -0.00000000000E+00 -0.00000000000E+00 -0.57045039320E+03  0.57045039320E+03  0.25500000000E-02 0.  1.
    8880023    1    1    2    0    0  0.35378334445E+03  0.19279021507E+03 -0.13585329494E+03  0.78396240079E+03  0.65864270000E+03 0. -1.
    8880022    1    1    2    0    0 -0.35378334445E+03 -0.19279021507E+03  0.30948210284E+03  0.53056719351E+03  0.15294330000E+03 0.  0.
<mgrwt>
<rscale>  0 0.66736570E+03</rscale>
<asrwt>0</asrwt>
<pdfrwt beam="1">  1        2 0.11447372E+00 0.77210163E+03</pdfrwt>
<pdfrwt beam="2">  1       -2 0.87761599E-01 0.77210163E+03</pdfrwt>
<totfact> 0.42924486E+01</totfact>
</mgrwt>
</event>
<event>
 4    2  0.3388003E-007  0.7669229E+03  0.7818608E-02  0.9787504E-01
          2   -1    0    0  501    0  0.00000000000E+00  0.00000000000E+00  0.65268066522E+03  0.65268066523E+03  0.25500000000E-02 0. -1.
         -2   -1    0    0    0  501 -0.00000000000E+00 -0.00000000000E+00 -0.12426608237E+04  0.12426608237E+04  0.25500000000E-02 0.  1.
    8880023    1    1    2    0    0  0.20287446740E+03 -0.33645580149E+03 -0.10311666897E+04  0.12850974687E+04  0.65864270000E+03 0.  0.
    8880022    1    1    2    0    0 -0.20287446740E+03  0.33645580149E+03  0.44118653122E+03  0.61024402023E+03  0.15294330000E+03 0.  0.
<mgrwt>
<rscale>  0 0.66037506E+03</rscale>
<asrwt>0</asrwt>
<pdfrwt beam="1">  1        2 0.10041241E+00 0.76692292E+03</pdfrwt>
<pdfrwt beam="2">  1       -2 0.19117859E+00 0.76692292E+03</pdfrwt>
<totfact> 0.69259007E+00</totfact>
</mgrwt>
</event>
<event>
 4    2  0.3388003E-007  0.1169913E+04  0.7818608E-02  0.9186939E-01
         -2   -1    0    0    0  501 -0.00000000000E+00  0.00000000000E+00  0.32924868516E+03  0.32924868517E+03  0.25500000000E-02 0.  1.
          2   -1    0    0  501    0  0.00000000000E+00 -0.00000000000E+00 -0.43946335713E+04  0.43946335713E+04  0.25500000000E-02 0. -1.
    8880023    1    1    2    0    0 -0.94977477657E+03  0.18114666019E+03 -0.32355527362E+04  0.34405665163E+04  0.65864270000E+03 0.  0.
    8880022    1    1    2    0    0  0.94977477657E+03 -0.18114666019E+03 -0.82983215003E+03  0.12833157402E+04  0.15294330000E+03 0.  0.
<mgrwt>
<rscale>  0 0.11189266E+04</rscale>
<asrwt>0</asrwt>
<pdfrwt beam="1">  1        2 0.67609743E+00 0.11699130E+04</pdfrwt>
<pdfrwt beam="2">  1       -2 0.50653647E-01 0.11699130E+04</pdfrwt>
<totfact> 0.59436046E-01</totfact>
</mgrwt>
</event>
<event>
 4    2  0.3388003E-007  0.7010184E+03  0.7818608E-02  0.9993002E-01
         -2   -1    0    0    0  501 -0.00000000000E+00  0.00000000000E+00  0.10716967250E+03  0.10716967253E+03  0.25500000000E-02 0.  1.
          2   -1    0    0  501    0  0.00000000000E+00 -0.00000000000E+00 -0.30439407780E+04  0.30439407780E+04  0.25500000000E-02 0. -1.
    8880023    1    1    2    0    0  0.10217547931E+03 -0.21720209355E+03 -0.11886389659E+04  0.13799599180E+04  0.65864270000E+03 0.  1.
    8880022    1    1    2    0    0 -0.10217547931E+03  0.21720209355E+03 -0.17481321396E+04  0.17711505324E+04  0.15294330000E+03 0.  0.
<mgrwt>
<rscale>  0 0.55958131E+03</rscale>
<asrwt>0</asrwt>
<pdfrwt beam="1">  1        2 0.46829852E+00 0.70101839E+03</pdfrwt>
<pdfrwt beam="2">  1       -2 0.16487644E-01 0.70101839E+03</pdfrwt>
<totfact> 0.51882512E+01</totfact>
</mgrwt>
</event>
<event>
 4    2  0.3388003E-007  0.8461318E+03  0.7818608E-02  0.9618725E-01
         -2   -1    0    0    0  501 -0.00000000000E+00  0.00000000000E+00  0.17179966025E+04  0.17179966025E+04  0.25500000000E-02 0.  1.
          2   -1    0    0  501    0  0.00000000000E+00 -0.00000000000E+00 -0.85629820221E+03  0.85629820221E+03  0.25500000000E-02 0. -1.
    8880023    1    1    2    0    0 -0.52856120022E+03 -0.52458428483E+02  0.15047537156E+04  0.17263321755E+04  0.65864270000E+03 0.  1.
    8880022    1    1    2    0    0  0.52856120022E+03  0.52458428483E+02 -0.64305531531E+03  0.84796262928E+03  0.15294330000E+03 0.  0.
<mgrwt>
<rscale>  0 0.76069149E+03</rscale>
<asrwt>0</asrwt>
<pdfrwt beam="1">  1        2 0.13173819E+00 0.84613181E+03</pdfrwt>
<pdfrwt beam="2">  1       -2 0.26430717E+00 0.84613181E+03</pdfrwt>
<totfact> 0.16829728E+00</totfact>
</mgrwt>
</event>
<event>
 4    2  0.3388003E-007  0.9518401E+03  0.7818608E-02  0.9447472E-01
          2   -1    0    0  501    0  0.00000000000E+00  0.00000000000E+00  0.91688243369E+03  0.91688243369E+03  0.25500000000E-02 0. -1.
         -2   -1    0    0    0  501 -0.00000000000E+00 -0.00000000000E+00 -0.16065663562E+04  0.16065663562E+04  0.25500000000E-02 0.  1.
    8880023    1    1    2    0    0  0.60725212817E+03  0.32161184827E+03 -0.12866355847E+04  0.16004470195E+04  0.65864270000E+03 0.  0.
    8880022    1    1    2    0    0 -0.60725212817E+03 -0.32161184827E+03  0.59695166220E+03  0.92300177038E+03  0.15294330000E+03 0.  0.
<mgrwt>
<rscale>  0 0.88269836E+03</rscale>
<asrwt>0</asrwt>
<pdfrwt beam="1">  1        2 0.14105884E+00 0.95184008E+03</pdfrwt>
<pdfrwt beam="2">  1       -2 0.24716405E+00 0.95184008E+03</pdfrwt>
<totfact> 0.19159843E+00</totfact>
</mgrwt>
</event>
<event>
 4    2  0.3388003E-007  0.6618213E+03  0.7818608E-02  0.1022364E+00
          2   -1    0    0  501    0  0.00000000000E+00  0.00000000000E+00  0.24625330288E+04  0.24625330288E+04  0.25500000000E-02 0. -1.
         -2   -1    0    0    0  501 -0.00000000000E+00 -0.00000000000E+00 -0.16456617088E+03  0.16456617090E+03  0.25500000000E-02 0.  1.
    8880023    1    1    2    0    0  0.56590440141E+02 -0.31538889878E+02  0.52073824773E+03  0.84212570819E+03  0.65864270000E+03 0.  1.
    8880022    1    1    2    0    0 -0.56590440141E+02  0.31538889878E+02  0.17772286102E+04  0.17849734915E+04  0.15294330000E+03 0.  0.
<mgrwt>
<rscale>  0 0.46843270E+03</rscale>
<asrwt>0</asrwt>
<pdfrwt beam="1">  1        2 0.37885125E+00 0.66182126E+03</pdfrwt>
<pdfrwt beam="2">  1       -2 0.25317872E-01 0.66182126E+03</pdfrwt>
<totfact> 0.53951006E+01</totfact>
</mgrwt>
</event>
<event>
 4    2  0.3388003E-007  0.7427346E+03  0.7818608E-02  0.9852052E-01
         -2   -1    0    0    0  501 -0.00000000000E+00  0.00000000000E+00  0.11214201889E+03  0.11214201892E+03  0.25500000000E-02 0.  1.
          2   -1    0    0  501    0  0.00000000000E+00 -0.00000000000E+00 -0.27925375906E+04  0.27925375906E+04  0.25500000000E-02 0. -1.
    8880023    1    1    2    0    0 -0.92213888822E+02  0.33066767506E+03 -0.18266589359E+04  0.19718868088E+04  0.65864270000E+03 0. -1.
    8880022    1    1    2    0    0  0.92213888822E+02 -0.33066767506E+03 -0.85373663582E+03  0.93279280067E+03  0.15294330000E+03 0.  1.
<mgrwt>
<rscale>  0 0.62642415E+03</rscale>
<asrwt>0</asrwt>
<pdfrwt beam="1">  1        2 0.42962112E+00 0.74273462E+03</pdfrwt>
<pdfrwt beam="2">  1       -2 0.17252620E-01 0.74273462E+03</pdfrwt>
<totfact> 0.67628549E+01</totfact>
</mgrwt>
</event>
<event>
 4    2  0.3388003E-007  0.8916879E+03  0.7818608E-02  0.9539509E-01
         -2   -1    0    0    0  501 -0.00000000000E+00  0.00000000000E+00  0.36406902540E+03  0.36406902541E+03  0.25500000000E-02 0.  1.
          2   -1    0    0  501    0  0.00000000000E+00 -0.00000000000E+00 -0.22759309121E+04  0.22759309121E+04  0.25500000000E-02 0. -1.
    8880023    1    1    2    0    0  0.56021571284E+03  0.21784273044E+03 -0.34721354359E+03  0.95690362693E+03  0.65864270000E+03 0.  1.
    8880022    1    1    2    0    0 -0.56021571284E+03 -0.21784273044E+03 -0.15646483431E+04  0.16830963106E+04  0.15294330000E+03 0.  0.
<mgrwt>
<rscale>  0 0.81432607E+03</rscale>
<asrwt>0</asrwt>
<pdfrwt beam="1">  1        2 0.35014321E+00 0.89168790E+03</pdfrwt>
<pdfrwt beam="2">  1       -2 0.56010621E-01 0.89168790E+03</pdfrwt>
<totfact> 0.14298509E+01</totfact>
</mgrwt>
</event>
<event>
 4    2  0.4117046E-007  0.7437766E+03  0.7818608E-02  0.9849079E-01
         -2   -1    0    0    0  501 -0.00000000000E+00  0.00000000000E+00  0.12000202997E+04  0.12000202997E+04  0.25500000000E-02 0.  1.
          2   -1    0    0  501    0  0.00000000000E+00 -0.00000000000E+00 -0.15126231975E+04  0.15126231975E+04  0.25500000000E-02 0. -1.
    8880023    1    1    2    0    0 -0.33377730805E+03 -0.89365524044E+02  0.10566689177E+04  0.12921891875E+04  0.65864270000E+03 0.  1.
    8880022    1    1    2    0    0  0.33377730805E+03  0.89365524044E+02 -0.13692718155E+04  0.14204543097E+04  0.15294330000E+03 0.  0.
<mgrwt>
<rscale>  0 0.62793874E+03</rscale>
<asrwt>0</asrwt>
<pdfrwt beam="1">  1        2 0.23271126E+00 0.74377664E+03</pdfrwt>
<pdfrwt beam="2">  1       -2 0.18461851E+00 0.74377664E+03</pdfrwt>
<totfact> 0.21711015E+00</totfact>
</mgrwt>
</event>
<event>
 4    2  0.9176615E-007  0.6637749E+03  0.7818608E-02  0.1020584E+00
          2   -1    0    0  501    0  0.00000000000E+00  0.00000000000E+00  0.23077243387E+04  0.23077243387E+04  0.25500000000E-02 0. -1.
         -2   -1    0    0    0  501 -0.00000000000E+00 -0.00000000000E+00 -0.15335088713E+04  0.15335088713E+04  0.25500000000E-02 0.  1.
    8880023    1    1    2    0    0  0.65885796015E+02 -0.49456475492E+02 -0.14581476413E+04  0.16021209790E+04  0.65864270000E+03 0.  1.
    8880022    1    1    2    0    0 -0.65885796015E+02  0.49456475492E+02  0.22323631087E+04  0.22391122310E+04  0.15294330000E+03 0.  0.
<mgrwt>
<rscale>  0 0.47476410E+03</rscale>
<asrwt>0</asrwt>
<pdfrwt beam="1">  1        2 0.35503451E+00 0.66377488E+03</pdfrwt>
<pdfrwt beam="2">  1       -2 0.23592444E+00 0.66377488E+03</pdfrwt>
<totfact> 0.38165244E-01</totfact>
</mgrwt>
</event>
<event>
 4    2  0.3388003E-007  0.9266960E+03  0.7818608E-02  0.9484467E-01
         -2   -1    0    0    0  501 -0.00000000000E+00  0.00000000000E+00  0.48976775240E+03  0.48976775241E+03  0.25500000000E-02 0.  1.
          2   -1    0    0  501    0  0.00000000000E+00 -0.00000000000E+00 -0.15572871034E+04  0.15572871034E+04  0.25500000000E-02 0. -1.
    8880023    1    1    2    0    0  0.65174604637E+03 -0.13507295535E+02 -0.10165197669E+04  0.13755282617E+04  0.65864270000E+03 0.  1.
    8880022    1    1    2    0    0 -0.65174604637E+03  0.13507295535E+02 -0.50999584102E+02  0.67152659410E+03  0.15294330000E+03 0.  0.
<mgrwt>
<rscale>  0 0.85438727E+03</rscale>
<asrwt>0</asrwt>
<pdfrwt beam="1">  1        2 0.23958263E+00 0.92669605E+03</pdfrwt>
<pdfrwt beam="2">  1       -2 0.75348885E-01 0.92669605E+03</pdfrwt>
<totfact> 0.18717810E+01</totfact>
</mgrwt>
</event>
<event>
 4    2  0.3388003E-007  0.8478827E+03  0.7818608E-02  0.9615492E-01
          2   -1    0    0  501    0  0.00000000000E+00  0.00000000000E+00  0.14800195886E+04  0.14800195886E+04  0.25500000000E-02 0. -1.
         -2   -1    0    0    0  501 -0.00000000000E+00 -0.00000000000E+00 -0.33298432741E+03  0.33298432742E+03  0.25500000000E-02 0.  1.
    8880023    1    1    2    0    0  0.47318587933E+03 -0.24736620786E+03  0.72149252760E+03  0.11133088479E+04  0.65864270000E+03 0.  1.
    8880022    1    1    2    0    0 -0.47318587933E+03  0.24736620786E+03  0.42554273355E+03  0.69969506807E+03  0.15294330000E+03 0. -1.
<mgrwt>
<rscale>  0 0.76279243E+03</rscale>
<asrwt>0</asrwt>
<pdfrwt beam="1">  1        2 0.22769532E+00 0.84788273E+03</pdfrwt>
<pdfrwt beam="2">  1       -2 0.51228357E-01 0.84788273E+03</pdfrwt>
<totfact> 0.47466196E+01</totfact>
</mgrwt>
</event>
<event>
 4    2  0.3388003E-007  0.7597826E+03  0.7818608E-02  0.9805671E-01
          2   -1    0    0  501    0  0.00000000000E+00  0.00000000000E+00  0.63954349329E+03  0.63954349329E+03  0.25500000000E-02 0. -1.
         -2   -1    0    0    0  501 -0.00000000000E+00 -0.00000000000E+00 -0.12348519261E+04  0.12348519261E+04  0.25500000000E-02 0.  1.
    8880023    1    1    2    0    0 -0.10435366741E+03 -0.36410132852E+03 -0.10286880510E+04  0.12788544788E+04  0.65864270000E+03 0.  1.
    8880022    1    1    2    0    0  0.10435366741E+03  0.36410132852E+03  0.43337961826E+03  0.59554094055E+03  0.15294330000E+03 0.  0.
<mgrwt>
<rscale>  0 0.65059118E+03</rscale>
<asrwt>0</asrwt>
<pdfrwt beam="1">  1        2 0.98391307E-01 0.75978265E+03</pdfrwt>
<pdfrwt beam="2">  1       -2 0.18997722E+00 0.75978265E+03</pdfrwt>
<totfact> 0.72395249E+00</totfact>
</mgrwt>
</event>
<event>
 4    2  0.3388003E-007  0.6898834E+03  0.7818608E-02  0.1004208E+00
          2   -1    0    0  501    0  0.00000000000E+00  0.00000000000E+00  0.55696465999E+03  0.55696466000E+03  0.25500000000E-02 0. -1.
         -2   -1    0    0    0  501 -0.00000000000E+00 -0.00000000000E+00 -0.43707074944E+03  0.43707074945E+03  0.25500000000E-02 0.  1.
    8880023    1    1    2    0    0 -0.36140107219E+02  0.20204643770E+03 -0.42008164097E+02  0.69116116966E+03  0.65864270000E+03 0.  1.
    8880022    1    1    2    0    0  0.36140107219E+02 -0.20204643770E+03  0.16190207465E+03  0.30287423978E+03  0.15294330000E+03 0.  1.
<mgrwt>
<rscale>  0 0.53842960E+03</rscale>
<asrwt>0</asrwt>
<pdfrwt beam="1">  1        2 0.85686871E-01 0.68988338E+03</pdfrwt>
<pdfrwt beam="2">  1       -2 0.67241654E-01 0.68988338E+03</pdfrwt>
<totfact> 0.11163064E+02</totfact>
</mgrwt>
</event>
<event>
 4    2  0.3388003E-007  0.8747490E+03  0.7818608E-02  0.9567848E-01
         -2   -1    0    0    0  501 -0.00000000000E+00  0.00000000000E+00  0.93134780706E+03  0.93134780707E+03  0.25500000000E-02 0.  1.
          2   -1    0    0  501    0  0.00000000000E+00 -0.00000000000E+00 -0.14445940929E+04  0.14445940929E+04  0.25500000000E-02 0. -1.
    8880023    1    1    2    0    0 -0.64186366900E+02 -0.57206270699E+03  0.63599951401E+03  0.10815180158E+04  0.65864270000E+03 0.  1.
    8880022    1    1    2    0    0  0.64186366900E+02  0.57206270699E+03 -0.11492457999E+04  0.12944238842E+04  0.15294330000E+03 0.  0.
<mgrwt>
<rscale>  0 0.79461277E+03</rscale>
<asrwt>0</asrwt>
<pdfrwt beam="1">  1        2 0.22224524E+00 0.87474901E+03</pdfrwt>
<pdfrwt beam="2">  1       -2 0.14328428E+00 0.87474901E+03</pdfrwt>
<totfact> 0.46479123E+00</totfact>
</mgrwt>
</event>
<event>
 4    2  0.3388003E-007  0.7876925E+03  0.7818608E-02  0.9738068E-01
          2   -1    0    0  501    0  0.00000000000E+00  0.00000000000E+00  0.55823857570E+03  0.55823857571E+03  0.25500000000E-02 0. -1.
         -2   -1    0    0    0  501 -0.00000000000E+00 -0.00000000000E+00 -0.10694882590E+04  0.10694882590E+04  0.25500000000E-02 0.  1.
    8880023    1    1    2    0    0  0.25143644017E+03  0.35132454800E+03 -0.76991602072E+03  0.11014672518E+04  0.65864270000E+03 0.  1.
    8880022    1    1    2    0    0 -0.25143644017E+03 -0.35132454800E+03  0.25866633745E+03  0.52625958293E+03  0.15294330000E+03 0.  0.
<mgrwt>
<rscale>  0 0.68794782E+03</rscale>
<asrwt>0</asrwt>
<pdfrwt beam="1">  1        2 0.85882858E-01 0.78769247E+03</pdfrwt>
<pdfrwt beam="2">  1       -2 0.16453666E+00 0.78769247E+03</pdfrwt>
<totfact> 0.12765985E+01</totfact>
</mgrwt>
</event>
<event>
 4    2  0.3388003E-007  0.1172272E+04  0.7818608E-02  0.9184559E-01
         -2   -1    0    0    0  501 -0.00000000000E+00  0.00000000000E+00  0.13361950039E+04  0.13361950039E+04  0.25500000000E-02 0.  1.
          2   -1    0    0  501    0  0.00000000000E+00 -0.00000000000E+00 -0.11317844981E+04  0.11317844981E+04  0.25500000000E-02 0. -1.
    8880023    1    1    2    0    0  0.79291782614E+03 -0.55829389642E+03 -0.48470697130E+03  0.12685274172E+04  0.65864270000E+03 0.  0.
    8880022    1    1    2    0    0 -0.79291782614E+03  0.55829389642E+03  0.68911747706E+03  0.11994520849E+04  0.15294330000E+03 0.  0.
<mgrwt>
<rscale>  0 0.11214237E+04</rscale>
<asrwt>0</asrwt>
<pdfrwt beam="1">  1        2 0.17412069E+00 0.11722717E+04</pdfrwt>
<pdfrwt beam="2">  1       -2 0.20556846E+00 0.11722717E+04</pdfrwt>
<totfact> 0.24818578E+00</totfact>
</mgrwt>
</event>
<event>
 4    2  0.4138472E-007  0.1246679E+04  0.7818608E-02  0.9113031E-01
          2   -1    0    0  501    0  0.00000000000E+00  0.00000000000E+00  0.17324552004E+04  0.17324552004E+04  0.25500000000E-02 0. -1.
         -2   -1    0    0    0  501 -0.00000000000E+00 -0.00000000000E+00 -0.20050493854E+04  0.20050493854E+04  0.25500000000E-02 0.  1.
    8880023    1    1    2    0    0  0.10584642695E+04 -0.71786169383E+01 -0.16028785409E+04  0.20306225561E+04  0.65864270000E+03 0.  1.
    8880022    1    1    2    0    0 -0.10584642695E+04  0.71786169383E+01  0.13302843560E+04  0.17068820297E+04  0.15294330000E+03 0.  0.
<mgrwt>
<rscale>  0 0.11998011E+04</rscale>
<asrwt>0</asrwt>
<pdfrwt beam="1">  1        2 0.26653157E+00 0.12466789E+04</pdfrwt>
<pdfrwt beam="2">  1       -2 0.30846914E+00 0.12466789E+04</pdfrwt>
<totfact> 0.25733629E-01</totfact>
</mgrwt>
</event>
<event>
 4    2  0.3388003E-007  0.6629143E+03  0.7818608E-02  0.1021351E+00
          2   -1    0    0  501    0  0.00000000000E+00  0.00000000000E+00  0.24780095723E+04  0.24780095723E+04  0.25500000000E-02 0. -1.
         -2   -1    0    0    0  501 -0.00000000000E+00 -0.00000000000E+00 -0.12806605338E+03  0.12806605341E+03  0.25500000000E-02 0.  1.
    8880023    1    1    2    0    0  0.42650100526E+02 -0.61855462569E+02  0.76611927958E+03  0.10131110927E+04  0.65864270000E+03 0.  1.
    8880022    1    1    2    0    0 -0.42650100526E+02  0.61855462569E+02  0.15838242394E+04  0.15929645331E+04  0.15294330000E+03 0.  0.
<mgrwt>
<rscale>  0 0.47202129E+03</rscale>
<asrwt>0</asrwt>
<pdfrwt beam="1">  1        2 0.38123223E+00 0.66291427E+03</pdfrwt>
<pdfrwt beam="2">  1       -2 0.19702470E-01 0.66291427E+03</pdfrwt>
<totfact> 0.82465961E+01</totfact>
</mgrwt>
</event>
<event>
 4    2  0.3388003E-007  0.6816491E+03  0.7818608E-02  0.1008406E+00
         -2   -1    0    0    0  501 -0.00000000000E+00  0.00000000000E+00  0.52488554498E+03  0.52488554499E+03  0.25500000000E-02 0.  1.
          2   -1    0    0  501    0  0.00000000000E+00 -0.00000000000E+00 -0.40754387480E+03  0.40754387481E+03  0.25500000000E-02 0. -1.
    8880023    1    1    2    0    0 -0.49818572836E+02 -0.16838476573E+03  0.25560798151E+02  0.68212819924E+03  0.65864270000E+03 0.  0.
    8880022    1    1    2    0    0  0.49818572836E+02  0.16838476573E+03  0.91780872027E+02  0.25030122056E+03  0.15294330000E+03 0.  0.
<mgrwt>
<rscale>  0 0.52113181E+03</rscale>
<asrwt>0</asrwt>
<pdfrwt beam="1">  1        2 0.62699058E-01 0.68164912E+03</pdfrwt>
<pdfrwt beam="2">  1       -2 0.80751622E-01 0.68164912E+03</pdfrwt>
<totfact> 0.10684522E+02</totfact>
</mgrwt>
</event>
<event>
 4    2  0.3388003E-007  0.6872852E+03  0.7818608E-02  0.1005471E+00
          2   -1    0    0  501    0  0.00000000000E+00  0.00000000000E+00  0.64656871270E+03  0.64656871271E+03  0.25500000000E-02 0. -1.
         -2   -1    0    0    0  501 -0.00000000000E+00 -0.00000000000E+00 -0.38303467147E+03  0.38303467148E+03  0.25500000000E-02 0.  1.
    8880023    1    1    2    0    0 -0.31779461980E+02  0.19375433435E+03  0.29421024252E+02  0.68791458715E+03  0.65864270000E+03 0.  0.
    8880022    1    1    2    0    0  0.31779461980E+02 -0.19375433435E+03  0.23411301698E+03  0.34168879704E+03  0.15294330000E+03 0.  0.
<mgrwt>
<rscale>  0 0.53315215E+03</rscale>
<asrwt>0</asrwt>
<pdfrwt beam="1">  1        2 0.99472108E-01 0.68728515E+03</pdfrwt>
<pdfrwt beam="2">  1       -2 0.58928412E-01 0.68728515E+03</pdfrwt>
<totfact> 0.12356949E+02</totfact>
</mgrwt>
</event>
<event>
 4    2  0.3388003E-007  0.6616676E+03  0.7818608E-02  0.1022509E+00
         -2   -1    0    0    0  501 -0.00000000000E+00  0.00000000000E+00  0.86602903708E+03  0.86602903708E+03  0.25500000000E-02 0.  1.
          2   -1    0    0  501    0  0.00000000000E+00 -0.00000000000E+00 -0.37945837296E+03  0.37945837297E+03  0.25500000000E-02 0. -1.
    8880023    1    1    2    0    0  0.87990724259E+01 -0.62581032535E+02  0.70799804398E+03  0.96905378894E+03  0.65864270000E+03 0.  1.
    8880022    1    1    2    0    0 -0.87990724259E+01  0.62581032535E+02 -0.22142737987E+03  0.27643362111E+03  0.15294330000E+03 0.  0.
<mgrwt>
<rscale>  0 0.46791817E+03</rscale>
<asrwt>0</asrwt>
<pdfrwt beam="1">  1        2 0.58378212E-01 0.66166760E+03</pdfrwt>
<pdfrwt beam="2">  1       -2 0.13323524E+00 0.66166760E+03</pdfrwt>
<totfact> 0.35061235E+01</totfact>
</mgrwt>
</event>
<event>
 4    2  0.3388003E-007  0.6631497E+03  0.7818608E-02  0.1021139E+00
          2   -1    0    0  501    0  0.00000000000E+00  0.00000000000E+00  0.59424708342E+03  0.59424708343E+03  0.25500000000E-02 0. -1.
         -2   -1    0    0    0  501 -0.00000000000E+00 -0.00000000000E+00 -0.39114169581E+03  0.39114169582E+03  0.25500000000E-02 0.  1.
    8880023    1    1    2    0    0 -0.21111609540E+02  0.74239985854E+02 -0.65951239263E+02  0.66642107393E+03  0.65864270000E+03 0.  1.
    8880022    1    1    2    0    0  0.21111609540E+02 -0.74239985854E+02  0.26905662687E+03  0.31896770532E+03  0.15294330000E+03 0.  0.
<mgrwt>
<rscale>  0 0.47277848E+03</rscale>
<asrwt>0</asrwt>
<pdfrwt beam="1">  1        2 0.91422627E-01 0.66314967E+03</pdfrwt>
<pdfrwt beam="2">  1       -2 0.60175646E-01 0.66314967E+03</pdfrwt>
<totfact> 0.13118335E+02</totfact>
</mgrwt>
</event>
<event>
 4    2  0.3388003E-007  0.8103328E+03  0.7818608E-02  0.9688884E-01
          2   -1    0    0  501    0  0.00000000000E+00  0.00000000000E+00  0.19482865012E+04  0.19482865012E+04  0.25500000000E-02 0. -1.
         -2   -1    0    0    0  501 -0.00000000000E+00 -0.00000000000E+00 -0.27412292284E+03  0.27412292285E+03  0.25500000000E-02 0.  1.
    8880023    1    1    2    0    0 -0.25698509467E+03  0.39596421215E+03  0.51144430523E+03  0.95823508588E+03  0.65864270000E+03 0.  1.
    8880022    1    1    2    0    0  0.25698509467E+03 -0.39596421215E+03  0.11627192731E+04  0.12641743382E+04  0.15294330000E+03 0.  0.
<mgrwt>
<rscale>  0 0.71682495E+03</rscale>
<asrwt>0</asrwt>
<pdfrwt beam="1">  1        2 0.29973640E+00 0.81033277E+03</pdfrwt>
<pdfrwt beam="2">  1       -2 0.42172756E-01 0.81033277E+03</pdfrwt>
<totfact> 0.38914908E+01</totfact>
</mgrwt>
</event>
<event>
 4    2  0.3388003E-007  0.6603240E+03  0.7818608E-02  0.1023827E+00
          2   -1    0    0  501    0  0.00000000000E+00  0.00000000000E+00  0.13558766609E+04  0.13558766609E+04  0.25500000000E-02 0. -1.
         -2   -1    0    0    0  501 -0.00000000000E+00 -0.00000000000E+00 -0.29938415188E+03  0.29938415189E+03  0.25500000000E-02 0.  1.
    8880023    1    1    2    0    0  0.48071683868E+01 -0.46845473859E+02  0.79319748702E+02  0.66507100079E+03  0.65864270000E+03 0.  1.
    8880022    1    1    2    0    0 -0.48071683868E+01  0.46845473859E+02  0.97717276035E+03  0.99018981205E+03  0.15294330000E+03 0.  0.
<mgrwt>
<rscale>  0 0.46330550E+03</rscale>
<asrwt>0</asrwt>
<pdfrwt beam="1">  1        2 0.20859641E+00 0.66032402E+03</pdfrwt>
<pdfrwt beam="2">  1       -2 0.46059100E-01 0.66032402E+03</pdfrwt>
<totfact> 0.70456134E+01</totfact>
</mgrwt>
</event>
<event>
 4    2  0.3388003E-007  0.6830321E+03  0.7818608E-02  0.1007658E+00
         -2   -1    0    0    0  501 -0.00000000000E+00  0.00000000000E+00  0.27190322211E+03  0.27190322212E+03  0.25500000000E-02 0.  1.
          2   -1    0    0  501    0  0.00000000000E+00 -0.00000000000E+00 -0.16088115688E+04  0.16088115688E+04  0.25500000000E-02 0. -1.
    8880023    1    1    2    0    0  0.10728812823E+03  0.14564324145E+03 -0.18911152602E+03  0.70872848947E+03  0.65864270000E+03 0.  1.
    8880022    1    1    2    0    0 -0.10728812823E+03 -0.14564324145E+03 -0.11477968207E+04  0.11719863015E+04  0.15294330000E+03 0.  0.
<mgrwt>
<rscale>  0 0.52416147E+03</rscale>
<asrwt>0</asrwt>
<pdfrwt beam="1">  1        2 0.24750947E+00 0.68303214E+03</pdfrwt>
<pdfrwt beam="2">  1       -2 0.41831266E-01 0.68303214E+03</pdfrwt>
<totfact> 0.61494572E+01</totfact>
</mgrwt>
</event>
<event>
 4    2  0.3388003E-007  0.8059276E+03  0.7818608E-02  0.9698123E-01
         -2   -1    0    0    0  501 -0.00000000000E+00  0.00000000000E+00  0.35717513631E+03  0.35717513632E+03  0.25500000000E-02 0.  1.
          2   -1    0    0  501    0  0.00000000000E+00 -0.00000000000E+00 -0.22258911769E+04  0.22258911769E+04  0.25500000000E-02 0. -1.
    8880023    1    1    2    0    0 -0.38741764749E+03 -0.25615737659E+03 -0.18108180544E+03  0.82602049714E+03  0.65864270000E+03 0.  0.
    8880022    1    1    2    0    0  0.38741764749E+03  0.25615737659E+03 -0.16876342352E+04  0.17570458161E+04  0.15294330000E+03 0.  0.
<mgrwt>
<rscale>  0 0.71128657E+03</rscale>
<asrwt>0</asrwt>
<pdfrwt beam="1">  1        2 0.34244479E+00 0.80592757E+03</pdfrwt>
<pdfrwt beam="2">  1       -2 0.54950022E-01 0.80592757E+03</pdfrwt>
<totfact> 0.16044701E+01</totfact>
</mgrwt>
</event>
<event>
 4    2  0.3388003E-007  0.6600107E+03  0.7818608E-02  0.1024145E+00
          2   -1    0    0  501    0  0.00000000000E+00  0.00000000000E+00  0.10145249348E+04  0.10145249348E+04  0.25500000000E-02 0. -1.
         -2   -1    0    0    0  501 -0.00000000000E+00 -0.00000000000E+00 -0.18328168776E+03  0.18328168777E+03  0.25500000000E-02 0.  1.
    8880023    1    1    2    0    0 -0.41960727531E+02  0.65758685595E+01  0.49182899515E+03  0.82310990241E+03  0.65864270000E+03 0.  1.
    8880022    1    1    2    0    0  0.41960727531E+02 -0.65758685595E+01  0.33941425187E+03  0.37469672014E+03  0.15294330000E+03 0.  0.
<mgrwt>
<rscale>  0 0.46219881E+03</rscale>
<asrwt>0</asrwt>
<pdfrwt beam="1">  1        2 0.15608076E+00 0.66001072E+03</pdfrwt>
<pdfrwt beam="2">  1       -2 0.28197183E-01 0.66001072E+03</pdfrwt>
<totfact> 0.28731454E+02</totfact>
</mgrwt>
</event>
<event>
 4    2  0.3388003E-007  0.6815288E+03  0.7818608E-02  0.1008472E+00
          2   -1    0    0  501    0  0.00000000000E+00  0.00000000000E+00  0.98045812218E+03  0.98045812218E+03  0.25500000000E-02 0. -1.
         -2   -1    0    0    0  501 -0.00000000000E+00 -0.00000000000E+00 -0.37654245316E+03  0.37654245316E+03  0.25500000000E-02 0.  1.
    8880023    1    1    2    0    0 -0.13043156596E+03 -0.11687156925E+03 -0.29592001587E+02  0.68217098291E+03  0.65864270000E+03 0.  1.
    8880022    1    1    2    0    0  0.13043156596E+03  0.11687156925E+03  0.63350767061E+03  0.67482959244E+03  0.15294330000E+03 0.  0.
<mgrwt>
<rscale>  0 0.52086564E+03</rscale>
<asrwt>0</asrwt>
<pdfrwt beam="1">  1        2 0.15083971E+00 0.68152884E+03</pdfrwt>
<pdfrwt beam="2">  1       -2 0.57929610E-01 0.68152884E+03</pdfrwt>
<totfact> 0.73785761E+01</totfact>
</mgrwt>
</event>
<event>
 4    2  0.3388003E-007  0.7304529E+03  0.7818608E-02  0.9888684E-01
          2   -1    0    0  501    0  0.00000000000E+00  0.00000000000E+00  0.69303566981E+03  0.69303566982E+03  0.25500000000E-02 0. -1.
         -2   -1    0    0    0  501 -0.00000000000E+00 -0.00000000000E+00 -0.74794192775E+03  0.74794192776E+03  0.25500000000E-02 0.  1.
    8880023    1    1    2    0    0 -0.18514133457E+03 -0.25587876142E+03 -0.49181440529E+03  0.88059234032E+03  0.65864270000E+03 0.  0.
    8880022    1    1    2    0    0  0.18514133457E+03  0.25587876142E+03  0.43690814735E+03  0.56038525726E+03  0.15294330000E+03 0.  0.
<mgrwt>
<rscale>  0 0.60812848E+03</rscale>
<asrwt>0</asrwt>
<pdfrwt beam="1">  1        2 0.10662087E+00 0.73045291E+03</pdfrwt>
<pdfrwt beam="2">  1       -2 0.11506799E+00 0.73045291E+03</pdfrwt>
<totfact> 0.24807213E+01</totfact>
</mgrwt>
</event>
<event>
 4    2  0.3388003E-007  0.6755556E+03  0.7818608E-02  0.1011958E+00
         -2   -1    0    0    0  501 -0.00000000000E+00  0.00000000000E+00  0.23278371428E+03  0.23278371429E+03  0.25500000000E-02 0.  1.
          2   -1    0    0  501    0  0.00000000000E+00 -0.00000000000E+00 -0.10007336484E+04  0.10007336484E+04  0.25500000000E-02 0. -1.
    8880023    1    1    2    0    0 -0.27938035113E+02 -0.14759604422E+03 -0.34319988792E+03  0.75773444914E+03  0.65864270000E+03 0.  1.
    8880022    1    1    2    0    0  0.27938035113E+02  0.14759604422E+03 -0.42475004624E+03  0.47578291360E+03  0.15294330000E+03 0.  0.
<mgrwt>
<rscale>  0 0.50703683E+03</rscale>
<asrwt>0</asrwt>
<pdfrwt beam="1">  1        2 0.15395902E+00 0.67555557E+03</pdfrwt>
<pdfrwt beam="2">  1       -2 0.35812880E-01 0.67555557E+03</pdfrwt>
<totfact> 0.18725668E+02</totfact>
</mgrwt>
</event>
<event>
 4    2  0.3388003E-007  0.9770109E+03  0.7818608E-02  0.9412272E-01
          2   -1    0    0  501    0  0.00000000000E+00  0.00000000000E+00  0.24768995947E+04  0.24768995947E+04  0.25500000000E-02 0. -1.
         -2   -1    0    0    0  501 -0.00000000000E+00 -0.00000000000E+00 -0.55943667521E+03  0.55943667521E+03  0.25500000000E-02 0.  1.
    8880023    1    1    2    0    0 -0.48965307568E+03 -0.53007537705E+03 -0.51999227542E+01  0.97702471071E+03  0.65864270000E+03 0.  0.
    8880022    1    1    2    0    0  0.48965307568E+03  0.53007537705E+03  0.19226628422E+04  0.20593115592E+04  0.15294330000E+03 0.  0.
<mgrwt>
<rscale>  0 0.91072561E+03</rscale>
<asrwt>0</asrwt>
<pdfrwt beam="1">  1        2 0.38106147E+00 0.97701087E+03</pdfrwt>
<pdfrwt beam="2">  1       -2 0.86067182E-01 0.97701087E+03</pdfrwt>
<totfact> 0.42567298E+00</totfact>
</mgrwt>
</event>
<event>
 4    2  0.3388003E-007  0.6797259E+03  0.7818608E-02  0.1009479E+00
          2   -1    0    0  501    0  0.00000000000E+00  0.00000000000E+00  0.82367396381E+03  0.82367396381E+03  0.25500000000E-02 0. -1.
         -2   -1    0    0    0  501 -0.00000000000E+00 -0.00000000000E+00 -0.33245632286E+03  0.33245632287E+03  0.25500000000E-02 0.  1.
    8880023    1    1    2    0    0  0.16795638685E+03 -0.27743324019E+01  0.77481219486E+02  0.68412761269E+03  0.65864270000E+03 0.  1.
    8880022    1    1    2    0    0 -0.16795638685E+03  0.27743324019E+01  0.41373642146E+03  0.47200267400E+03  0.15294330000E+03 0.  0.
<mgrwt>
<rscale>  0 0.51682166E+03</rscale>
<asrwt>0</asrwt>
<pdfrwt beam="1">  1        2 0.12671907E+00 0.67972586E+03</pdfrwt>
<pdfrwt beam="2">  1       -2 0.51147127E-01 0.67972586E+03</pdfrwt>
<totfact> 0.12163973E+02</totfact>
</mgrwt>
</event>
<event>
 4    2  0.3388003E-007  0.7450009E+03  0.7818608E-02  0.9845612E-01
         -2   -1    0    0    0  501 -0.00000000000E+00  0.00000000000E+00  0.50677471687E+03  0.50677471687E+03  0.25500000000E-02 0.  1.
          2   -1    0    0  501    0  0.00000000000E+00 -0.00000000000E+00 -0.11973073313E+04  0.11973073313E+04  0.25500000000E-02 0. -1.
    8880023    1    1    2    0    0 -0.22859233373E+03  0.26260548228E+03  0.16922662327E+03  0.76397902500E+03  0.65864270000E+03 0.  1.
    8880022    1    1    2    0    0  0.22859233373E+03 -0.26260548228E+03 -0.85975923773E+03  0.94010302320E+03  0.15294330000E+03 0.  0.
<mgrwt>
<rscale>  0 0.62971136E+03</rscale>
<asrwt>0</asrwt>
<pdfrwt beam="1">  1        2 0.18420113E+00 0.74500087E+03</pdfrwt>
<pdfrwt beam="2">  1       -2 0.77965341E-01 0.74500087E+03</pdfrwt>
<totfact> 0.28379481E+01</totfact>
</mgrwt>
</event>
<event>
 4    2  0.3388003E-007  0.6787305E+03  0.7818608E-02  0.1010051E+00
         -2   -1    0    0    0  501 -0.00000000000E+00  0.00000000000E+00  0.11204857249E+03  0.11204857252E+03  0.25500000000E-02 0.  1.
          2   -1    0    0  501    0  0.00000000000E+00 -0.00000000000E+00 -0.47002908370E+04  0.47002908370E+04  0.25500000000E-02 0. -1.
    8880023    1    1    2    0    0 -0.97189097935E+02 -0.13198182560E+03 -0.95192188847E+03  0.11691152257E+04  0.65864270000E+03 0.  1.
    8880022    1    1    2    0    0  0.97189097935E+02  0.13198182560E+03 -0.36363203760E+04  0.36432241838E+04  0.15294330000E+03 0.  0.
<mgrwt>
<rscale>  0 0.51454356E+03</rscale>
<asrwt>0</asrwt>
<pdfrwt beam="1">  1        2 0.72312151E+00 0.67873053E+03</pdfrwt>
<pdfrwt beam="2">  1       -2 0.17238246E-01 0.67873053E+03</pdfrwt>
<totfact> 0.24757670E+00</totfact>
</mgrwt>
</event>
<event>
 4    2  0.3388003E-007  0.8503964E+03  0.7818608E-02  0.9610880E-01
         -2   -1    0    0    0  501 -0.00000000000E+00  0.00000000000E+00  0.26353154206E+03  0.26353154207E+03  0.25500000000E-02 0.  1.
          2   -1    0    0  501    0  0.00000000000E+00 -0.00000000000E+00 -0.27112980887E+04  0.27112980887E+04  0.25500000000E-02 0. -1.
    8880023    1    1    2    0    0 -0.52866235241E+03 -0.99397597980E+02 -0.59080184790E+03  0.10354809487E+04  0.65864270000E+03 0.  1.
    8880022    1    1    2    0    0  0.52866235241E+03  0.99397597980E+02 -0.18569646987E+04  0.19393486821E+04  0.15294330000E+03 0.  0.
<mgrwt>
<rscale>  0 0.76580227E+03</rscale>
<asrwt>0</asrwt>
<pdfrwt beam="1">  1        2 0.41712276E+00 0.85039636E+03</pdfrwt>
<pdfrwt beam="2">  1       -2 0.40543316E-01 0.85039636E+03</pdfrwt>
<totfact> 0.15608255E+01</totfact>
</mgrwt>
</event>
<event>
 4    2  0.3388003E-007  0.1270514E+04  0.7818608E-02  0.9091451E-01
         -2   -1    0    0    0  501 -0.00000000000E+00  0.00000000000E+00  0.17007129423E+04  0.17007129423E+04  0.25500000000E-02 0.  1.
          2   -1    0    0  501    0  0.00000000000E+00 -0.00000000000E+00 -0.14818988851E+04  0.14818988851E+04  0.25500000000E-02 0. -1.
    8880023    1    1    2    0    0  0.99063923807E+02 -0.10819338159E+04  0.11725226949E+04  0.17288765483E+04  0.65864270000E+03 0.  0.
    8880022    1    1    2    0    0 -0.99063923807E+02  0.10819338159E+04 -0.95370863770E+03  0.14537352791E+04  0.15294330000E+03 0.  0.
<mgrwt>
<rscale>  0 0.12247660E+04</rscale>
<asrwt>0</asrwt>
<pdfrwt beam="1">  1        2 0.22798444E+00 0.12705135E+04</pdfrwt>
<pdfrwt beam="2">  1       -2 0.26164814E+00 0.12705135E+04</pdfrwt>
<totfact> 0.68305962E-01</totfact>
</mgrwt>
</event>
<event>
 4    2  0.3388003E-007  0.6959278E+03  0.7818608E-02  0.1001453E+00
         -2   -1    0    0    0  501 -0.00000000000E+00  0.00000000000E+00  0.13302739638E+04  0.13302739638E+04  0.25500000000E-02 0.  1.
          2   -1    0    0  501    0  0.00000000000E+00 -0.00000000000E+00 -0.81159019779E+03  0.81159019779E+03  0.25500000000E-02 0. -1.
    8880023    1    1    2    0    0 -0.96286323338E+02 -0.20306226540E+03  0.12117604817E+04  0.13973829149E+04  0.65864270000E+03 0.  1.
    8880022    1    1    2    0    0  0.96286323338E+02  0.20306226540E+03 -0.69307671572E+03  0.74448124663E+03  0.15294330000E+03 0.  0.
<mgrwt>
<rscale>  0 0.55017582E+03</rscale>
<asrwt>0</asrwt>
<pdfrwt beam="1">  1        2 0.12486003E+00 0.69592783E+03</pdfrwt>
<pdfrwt beam="2">  1       -2 0.20465753E+00 0.69592783E+03</pdfrwt>
<totfact> 0.43183302E+00</totfact>
</mgrwt>
</event>
<event>
 4    2  0.3388003E-007  0.9906609E+03  0.7818608E-02  0.9393879E-01
          2   -1    0    0  501    0  0.00000000000E+00  0.00000000000E+00  0.28973087318E+04  0.28973087318E+04  0.25500000000E-02 0. -1.
         -2   -1    0    0    0  501 -0.00000000000E+00 -0.00000000000E+00 -0.29860691126E+03  0.29860691127E+03  0.25500000000E-02 0.  1.
    8880023    1    1    2    0    0  0.68603008690E+02  0.73681237305E+03  0.90712880632E+03  0.13432392651E+04  0.65864270000E+03 0.  0.
    8880022    1    1    2    0    0 -0.68603008690E+02 -0.73681237305E+03  0.16915730142E+04  0.18526763779E+04  0.15294330000E+03 0.  0.
<mgrwt>
<rscale>  0 0.92581110E+03</rscale>
<asrwt>0</asrwt>
<pdfrwt beam="1">  1        2 0.44573978E+00 0.99066092E+03</pdfrwt>
<pdfrwt beam="2">  1       -2 0.45939527E-01 0.99066092E+03</pdfrwt>
<totfact> 0.92600831E+00</totfact>
</mgrwt>
</event>
<event>
 4    2  0.3388003E-007  0.7060679E+03  0.7818608E-02  0.9972903E-01
         -2   -1    0    0    0  501 -0.00000000000E+00  0.00000000000E+00  0.51083615571E+03  0.51083615572E+03  0.25500000000E-02 0.  1.
          2   -1    0    0  501    0  0.00000000000E+00 -0.00000000000E+00 -0.20142071688E+04  0.20142071688E+04  0.25500000000E-02 0. -1.
    8880023    1    1    2    0    0  0.23493718668E+03 -0.97601927471E+02  0.24825768373E+03  0.74844084718E+03  0.65864270000E+03 0.  1.
    8880022    1    1    2    0    0 -0.23493718668E+03  0.97601927471E+02 -0.17516286968E+04  0.17766024773E+04  0.15294330000E+03 0.  0.
<mgrwt>
<rscale>  0 0.56854520E+03</rscale>
<asrwt>0</asrwt>
<pdfrwt beam="1">  1        2 0.30987802E+00 0.70606786E+03</pdfrwt>
<pdfrwt beam="2">  1       -2 0.78590179E-01 0.70606786E+03</pdfrwt>
<totfact> 0.98435967E+00</totfact>
</mgrwt>
</event>
<event>
 4    2  0.3388003E-007  0.6912722E+03  0.7818608E-02  0.1003554E+00
         -2   -1    0    0    0  501 -0.00000000000E+00  0.00000000000E+00  0.12047630697E+04  0.12047630697E+04  0.25500000000E-02 0.  1.
          2   -1    0    0  501    0  0.00000000000E+00 -0.00000000000E+00 -0.19597836581E+03  0.19597836582E+03  0.25500000000E-02 0. -1.
    8880023    1    1    2    0    0  0.18294167661E+03  0.10285593776E+03  0.85289203282E+03  0.10978533722E+04  0.65864270000E+03 0.  0.
    8880022    1    1    2    0    0 -0.18294167661E+03 -0.10285593776E+03  0.15589267103E+03  0.30288806326E+03  0.15294330000E+03 0. -1.
<mgrwt>
<rscale>  0 0.54119081E+03</rscale>
<asrwt>0</asrwt>
<pdfrwt beam="1">  1        2 0.30150518E-01 0.69127217E+03</pdfrwt>
<pdfrwt beam="2">  1       -2 0.18534816E+00 0.69127217E+03</pdfrwt>
<totfact> 0.30038774E+01</totfact>
</mgrwt>
</event>
<event>
 4    2  0.3388003E-007  0.7683404E+03  0.7818608E-02  0.9783975E-01
          2   -1    0    0  501    0  0.00000000000E+00  0.00000000000E+00  0.33027382783E+04  0.33027382783E+04  0.25500000000E-02 0. -1.
         -2   -1    0    0    0  501 -0.00000000000E+00 -0.00000000000E+00 -0.24411299066E+03  0.24411299068E+03  0.25500000000E-02 0.  1.
    8880023    1    1    2    0    0  0.57734817190E+02 -0.39141211564E+03  0.42255166698E+03  0.87686764732E+03  0.65864270000E+03 0.  0.
    8880022    1    1    2    0    0 -0.57734817190E+02  0.39141211564E+03  0.26360736206E+04  0.26699836216E+04  0.15294330000E+03 0.  0.
<mgrwt>
<rscale>  0 0.66229689E+03</rscale>
<asrwt>0</asrwt>
<pdfrwt beam="1">  1        2 0.50811357E+00 0.76834039E+03</pdfrwt>
<pdfrwt beam="2">  1       -2 0.37555846E-01 0.76834039E+03</pdfrwt>
<totfact> 0.79408074E+00</totfact>
</mgrwt>
</event>
<event>
 4    2  0.3388003E-007  0.1496053E+04  0.7818608E-02  0.8912428E-01
         -2   -1    0    0    0  501 -0.00000000000E+00  0.00000000000E+00  0.15077441453E+04  0.15077441453E+04  0.25500000000E-02 0.  1.
          2   -1    0    0  501    0  0.00000000000E+00 -0.00000000000E+00 -0.30925982972E+04  0.30925982972E+04  0.25500000000E-02 0. -1.
    8880023    1    1    2    0    0  0.13415929289E+04  0.67021636752E+02  0.91831630676E+03  0.17554140629E+04  0.65864270000E+03 0.  1.
    8880022    1    1    2    0    0 -0.13415929289E+04 -0.67021636752E+02 -0.25031704586E+04  0.28449283795E+04  0.15294330000E+03 0.  0.
<mgrwt>
<rscale>  0 0.14586461E+04</rscale>
<asrwt>0</asrwt>
<pdfrwt beam="1">  1        2 0.47578435E+00 0.14960527E+04</pdfrwt>
<pdfrwt beam="2">  1       -2 0.23196064E+00 0.14960527E+04</pdfrwt>
<totfact> 0.11915714E-01</totfact>
</mgrwt>
</event>
<event>
 4    2  0.3388003E-007  0.8033824E+03  0.7818608E-02  0.9703530E-01
          2   -1    0    0  501    0  0.00000000000E+00  0.00000000000E+00  0.20435796932E+04  0.20435796932E+04  0.25500000000E-02 0. -1.
         -2   -1    0    0    0  501 -0.00000000000E+00 -0.00000000000E+00 -0.25226909347E+03  0.25226909349E+03  0.25500000000E-02 0.  1.
    8880023    1    1    2    0    0 -0.45656311369E+03 -0.56242652467E+02  0.57922824555E+03  0.99041843655E+03  0.65864270000E+03 0.  1.
    8880022    1    1    2    0    0  0.45656311369E+03  0.56242652467E+02  0.12120823541E+04  0.13054303501E+04  0.15294330000E+03 0. -1.
<mgrwt>
<rscale>  0 0.70807022E+03</rscale>
<asrwt>0</asrwt>
<pdfrwt beam="1">  1        2 0.31439688E+00 0.80338242E+03</pdfrwt>
<pdfrwt beam="2">  1       -2 0.38810629E-01 0.80338242E+03</pdfrwt>
<totfact> 0.40637476E+01</totfact>
</mgrwt>
</event>
<event>
 4    2  0.3388003E-007  0.9826448E+03  0.7818608E-02  0.9404624E-01
         -2   -1    0    0    0  501 -0.00000000000E+00  0.00000000000E+00  0.59749534784E+03  0.59749534784E+03  0.25500000000E-02 0.  1.
          2   -1    0    0  501    0  0.00000000000E+00 -0.00000000000E+00 -0.23470268240E+04  0.23470268240E+04  0.25500000000E-02 0. -1.
    8880023    1    1    2    0    0 -0.15411649437E+03 -0.71276138381E+03  0.63156833827E+02  0.98467236988E+03  0.65864270000E+03 0.  0.
    8880022    1    1    2    0    0  0.15411649437E+03  0.71276138381E+03 -0.18126883100E+04  0.19598498020E+04  0.15294330000E+03 0.  0.
<mgrwt>
<rscale>  0 0.91696110E+03</rscale>
<asrwt>0</asrwt>
<pdfrwt beam="1">  1        2 0.36108104E+00 0.98264484E+03</pdfrwt>
<pdfrwt beam="2">  1       -2 0.91922363E-01 0.98264484E+03</pdfrwt>
<totfact> 0.43274960E+00</totfact>
</mgrwt>
</event>
<event>
 4    2  0.3388003E-007  0.1243945E+04  0.7818608E-02  0.9115545E-01
         -2   -1    0    0    0  501 -0.00000000000E+00  0.00000000000E+00  0.82914471103E+03  0.82914471104E+03  0.25500000000E-02 0.  1.
          2   -1    0    0  501    0  0.00000000000E+00 -0.00000000000E+00 -0.16740388852E+04  0.16740388852E+04  0.25500000000E-02 0. -1.
    8880023    1    1    2    0    0  0.52129726581E+03 -0.91751740899E+03 -0.69920091196E+03  0.14269832363E+04  0.65864270000E+03 0.  0.
    8880022    1    1    2    0    0 -0.52129726581E+03  0.91751740899E+03 -0.14569326225E+03  0.10762003600E+04  0.15294330000E+03 0.  0.
<mgrwt>
<rscale>  0 0.11969335E+04</rscale>
<asrwt>0</asrwt>
<pdfrwt beam="1">  1        2 0.25754444E+00 0.12439450E+04</pdfrwt>
<pdfrwt beam="2">  1       -2 0.12756073E+00 0.12439450E+04</pdfrwt>
<totfact> 0.44816605E+00</totfact>
</mgrwt>
</event>
<event>
 4    2  0.3388003E-007  0.7306554E+03  0.7818608E-02  0.9888054E-01
          2   -1    0    0  501    0  0.00000000000E+00  0.00000000000E+00  0.19582388695E+04  0.19582388695E+04  0.25500000000E-02 0. -1.
         -2   -1    0    0    0  501 -0.00000000000E+00 -0.00000000000E+00 -0.25772835319E+03  0.25772835320E+03  0.25500000000E-02 0.  1.
    8880023    1    1    2    0    0 -0.59037312644E+02  0.31074377465E+03  0.33104597597E+03  0.80215256793E+03  0.65864270000E+03 0.  1.
    8880022    1    1    2    0    0  0.59037312644E+02 -0.31074377465E+03  0.13694645403E+04  0.14138146547E+04  0.15294330000E+03 0.  0.
<mgrwt>
<rscale>  0 0.60843738E+03</rscale>
<asrwt>0</asrwt>
<pdfrwt beam="1">  1        2 0.30126752E+00 0.73065539E+03</pdfrwt>
<pdfrwt beam="2">  1       -2 0.39650515E-01 0.73065539E+03</pdfrwt>
<totfact> 0.43779016E+01</totfact>
</mgrwt>
</event>
<event>
 4    2  0.3388003E-007  0.7244909E+03  0.7818608E-02  0.9907673E-01
         -2   -1    0    0    0  501 -0.00000000000E+00  0.00000000000E+00  0.58286833312E+03  0.58286833313E+03  0.25500000000E-02 0.  1.
          2   -1    0    0  501    0  0.00000000000E+00 -0.00000000000E+00 -0.85354028430E+03  0.85354028431E+03  0.25500000000E-02 0. -1.
    8880023    1    1    2    0    0  0.13058685305E+03 -0.27207333377E+03  0.29096680572E+03  0.78073600751E+03  0.65864270000E+03 0.  1.
    8880022    1    1    2    0    0 -0.13058685305E+03  0.27207333377E+03 -0.56163875689E+03  0.65567260992E+03  0.15294330000E+03 0.  0.
<mgrwt>
<rscale>  0 0.59890843E+03</rscale>
<asrwt>0</asrwt>
<pdfrwt beam="1">  1        2 0.13131389E+00 0.72449088E+03</pdfrwt>
<pdfrwt beam="2">  1       -2 0.89672051E-01 0.72449088E+03</pdfrwt>
<totfact> 0.34200379E+01</totfact>
</mgrwt>
</event>
<event>
 4    2  0.3388003E-007  0.6656944E+03  0.7818608E-02  0.1018958E+00
         -2   -1    0    0    0  501 -0.00000000000E+00  0.00000000000E+00  0.74216344305E+03  0.74216344305E+03  0.25500000000E-02 0.  1.
          2   -1    0    0  501    0  0.00000000000E+00 -0.00000000000E+00 -0.88473770558E+03  0.88473770558E+03  0.25500000000E-02 0. -1.
    8880023    1    1    2    0    0  0.44133510300E+02  0.85971222479E+02  0.57944790891E+03  0.88255815855E+03  0.65864270000E+03 0.  1.
    8880022    1    1    2    0    0 -0.44133510300E+02 -0.85971222479E+02 -0.72202217143E+03  0.74434299008E+03  0.15294330000E+03 0.  0.
<mgrwt>
<rscale>  0 0.48064586E+03</rscale>
<asrwt>0</asrwt>
<pdfrwt beam="1">  1        2 0.13611349E+00 0.66569439E+03</pdfrwt>
<pdfrwt beam="2">  1       -2 0.11417899E+00 0.66569439E+03</pdfrwt>
<totfact> 0.18466891E+01</totfact>
</mgrwt>
</event>
<event>
 4    2  0.3388003E-007  0.6877217E+03  0.7818608E-02  0.1005255E+00
         -2   -1    0    0    0  501 -0.00000000000E+00  0.00000000000E+00  0.17426867669E+03  0.17426867671E+03  0.25500000000E-02 0.  1.
          2   -1    0    0  501    0  0.00000000000E+00 -0.00000000000E+00 -0.13553177884E+04  0.13553177884E+04  0.25500000000E-02 0. -1.
    8880023    1    1    2    0    0  0.18376922261E+03  0.73347434732E+02 -0.10265581846E+04  0.12356305621E+04  0.65864270000E+03 0. -1.
    8880022    1    1    2    0    0 -0.18376922261E+03 -0.73347434732E+02 -0.15449092718E+03  0.29395590308E+03  0.15294330000E+03 0.  0.
<mgrwt>
<rscale>  0 0.53404958E+03</rscale>
<asrwt>0</asrwt>
<pdfrwt beam="1">  1        2 0.20851042E+00 0.68772173E+03</pdfrwt>
<pdfrwt beam="2">  1       -2 0.26810567E-01 0.68772173E+03</pdfrwt>
<totfact> 0.19717620E+02</totfact>
</mgrwt>
</event>
<event>
 4    2  0.3388003E-007  0.6602460E+03  0.7818608E-02  0.1023906E+00
          2   -1    0    0  501    0  0.00000000000E+00  0.00000000000E+00  0.54627664508E+03  0.54627664509E+03  0.25500000000E-02 0. -1.
         -2   -1    0    0    0  501 -0.00000000000E+00 -0.00000000000E+00 -0.61757431566E+03  0.61757431567E+03  0.25500000000E-02 0.  1.
    8880023    1    1    2    0    0 -0.45524055686E+02 -0.64945642777E+01 -0.41847976568E+03  0.78169696146E+03  0.65864270000E+03 0.  1.
    8880022    1    1    2    0    0  0.45524055686E+02  0.64945642777E+01  0.34718209509E+03  0.38215399930E+03  0.15294330000E+03 0.  0.
<mgrwt>
<rscale>  0 0.46303117E+03</rscale>
<asrwt>0</asrwt>
<pdfrwt beam="1">  1        2 0.84042560E-01 0.66024603E+03</pdfrwt>
<pdfrwt beam="2">  1       -2 0.95011434E-01 0.66024603E+03</pdfrwt>
<totfact> 0.52665430E+01</totfact>
</mgrwt>
</event>
<event>
 4    2  0.3388003E-007  0.8171160E+03  0.7818608E-02  0.9674941E-01
         -2   -1    0    0    0  501 -0.00000000000E+00  0.00000000000E+00  0.62906216258E+03  0.62906216259E+03  0.25500000000E-02 0.  1.
          2   -1    0    0  501    0  0.00000000000E+00 -0.00000000000E+00 -0.20524681462E+04  0.20524681462E+04  0.25500000000E-02 0. -1.
    8880023    1    1    2    0    0 -0.32800738978E+03  0.35535833160E+03  0.31113860925E+03  0.87434880455E+03  0.65864270000E+03 0.  1.
    8880022    1    1    2    0    0  0.32800738978E+03 -0.35535833160E+03 -0.17345445929E+04  0.18071815042E+04  0.15294330000E+03 0.  0.
<mgrwt>
<rscale>  0 0.72528607E+03</rscale>
<asrwt>0</asrwt>
<pdfrwt beam="1">  1        2 0.31576433E+00 0.81711602E+03</pdfrwt>
<pdfrwt beam="2">  1       -2 0.96778795E-01 0.81711602E+03</pdfrwt>
<totfact> 0.57210619E+00</totfact>
</mgrwt>
</event>
<event>
 4    2  0.3388003E-007  0.6829518E+03  0.7818608E-02  0.1007701E+00
          2   -1    0    0  501    0  0.00000000000E+00  0.00000000000E+00  0.21870400179E+04  0.21870400179E+04  0.25500000000E-02 0. -1.
         -2   -1    0    0    0  501 -0.00000000000E+00 -0.00000000000E+00 -0.10468693674E+03  0.10468693677E+03  0.25500000000E-02 0.  1.
    8880023    1    1    2    0    0  0.53073577779E+02  0.17261567547E+03  0.17882987240E+04  0.19142715347E+04  0.65864270000E+03 0. -1.
    8880022    1    1    2    0    0 -0.53073577779E+02 -0.17261567547E+03  0.29405435713E+03  0.37745541994E+03  0.15294330000E+03 0.  0.
<mgrwt>
<rscale>  0 0.52398703E+03</rscale>
<asrwt>0</asrwt>
<pdfrwt beam="1">  1        2 0.33646767E+00 0.68295182E+03</pdfrwt>
<pdfrwt beam="2">  1       -2 0.16105684E-01 0.68295182E+03</pdfrwt>
<totfact> 0.16888140E+02</totfact>
</mgrwt>
</event>
<event>
 4    2  0.3388003E-007  0.9345499E+03  0.7818608E-02  0.9472701E-01
          2   -1    0    0  501    0  0.00000000000E+00  0.00000000000E+00  0.13012388508E+04  0.13012388508E+04  0.25500000000E-02 0. -1.
         -2   -1    0    0    0  501 -0.00000000000E+00 -0.00000000000E+00 -0.79257888884E+03  0.79257888884E+03  0.25500000000E-02 0.  1.
    8880023    1    1    2    0    0 -0.16111606874E+03  0.64312895051E+03 -0.35027632274E+03  0.99803654398E+03  0.65864270000E+03 0.  0.
    8880022    1    1    2    0    0  0.16111606874E+03 -0.64312895051E+03  0.85893628470E+03  0.10957811957E+04  0.15294330000E+03 0.  0.
<mgrwt>
<rscale>  0 0.86326745E+03</rscale>
<asrwt>0</asrwt>
<pdfrwt beam="1">  1        2 0.20019059E+00 0.93454986E+03</pdfrwt>
<pdfrwt beam="2">  1       -2 0.12193522E+00 0.93454986E+03</pdfrwt>
<totfact> 0.84168893E+00</totfact>
</mgrwt>
</event>
<event>
 4    2  0.3388003E-007  0.7524380E+03  0.7818608E-02  0.9825093E-01
         -2   -1    0    0    0  501 -0.00000000000E+00  0.00000000000E+00  0.62699691264E+03  0.62699691265E+03  0.25500000000E-02 0.  1.
          2   -1    0    0  501    0  0.00000000000E+00 -0.00000000000E+00 -0.11803318149E+04  0.11803318149E+04  0.25500000000E-02 0. -1.
    8880023    1    1    2    0    0 -0.28320183537E+03 -0.22836248523E+03  0.34377572229E+03  0.82725126637E+03  0.65864270000E+03 0.  1.
    8880022    1    1    2    0    0  0.28320183537E+03  0.22836248523E+03 -0.89711062458E+03  0.98007746121E+03  0.15294330000E+03 0.  0.
<mgrwt>
<rscale>  0 0.64033106E+03</rscale>
<asrwt>0</asrwt>
<pdfrwt beam="1">  1        2 0.18158951E+00 0.75243798E+03</pdfrwt>
<pdfrwt beam="2">  1       -2 0.96461064E-01 0.75243798E+03</pdfrwt>
<totfact> 0.17828610E+01</totfact>
</mgrwt>
</event>
<event>
 4    2  0.3388003E-007  0.8890830E+03  0.7818608E-02  0.9543789E-01
          2   -1    0    0  501    0  0.00000000000E+00  0.00000000000E+00  0.35059033888E+04  0.35059033888E+04  0.25500000000E-02 0. -1.
         -2   -1    0    0    0  501 -0.00000000000E+00 -0.00000000000E+00 -0.57440588453E+03  0.57440588453E+03  0.25500000000E-02 0.  1.
    8880023    1    1    2    0    0  0.55815113727E+03  0.21242813523E+03 -0.18102270139E+03  0.90732454467E+03  0.65864270000E+03 0.  0.
    8880022    1    1    2    0    0 -0.55815113727E+03 -0.21242813523E+03  0.31125202056E+04  0.31729847286E+04  0.15294330000E+03 0.  0.
<mgrwt>
<rscale>  0 0.81131001E+03</rscale>
<asrwt>0</asrwt>
<pdfrwt beam="1">  1        2 0.53936975E+00 0.88908302E+03</pdfrwt>
<pdfrwt beam="2">  1       -2 0.88370137E-01 0.88908302E+03</pdfrwt>
<totfact> 0.93757253E-01</totfact>
</mgrwt>
</event>
<event>
 4    2  0.3388003E-007  0.7117990E+03  0.7818608E-02  0.9951380E-01
         -2   -1    0    0    0  501 -0.00000000000E+00  0.00000000000E+00  0.42873208537E+03  0.42873208538E+03  0.25500000000E-02 0.  1.
          2   -1    0    0  501    0  0.00000000000E+00 -0.00000000000E+00 -0.81864672782E+03  0.81864672783E+03  0.25500000000E-02 0. -1.
    8880023    1    1    2    0    0  0.17845052420E+03  0.20249212604E+03  0.44931194575E+02  0.71321572417E+03  0.65864270000E+03 0.  0.
    8880022    1    1    2    0    0 -0.17845052420E+03 -0.20249212604E+03 -0.43484583703E+03  0.53416308904E+03  0.15294330000E+03 0.  0.
<mgrwt>
<rscale>  0 0.57834516E+03</rscale>
<asrwt>0</asrwt>
<pdfrwt beam="1">  1        2 0.12594565E+00 0.71179903E+03</pdfrwt>
<pdfrwt beam="2">  1       -2 0.65958783E-01 0.71179903E+03</pdfrwt>
<totfact> 0.71790613E+01</totfact>
</mgrwt>
</event>
<event>
 4    2  0.3388003E-007  0.1071051E+04  0.7818608E-02  0.9293994E-01
         -2   -1    0    0    0  501 -0.00000000000E+00  0.00000000000E+00  0.81772716775E+03  0.81772716776E+03  0.25500000000E-02 0.  1.
          2   -1    0    0  501    0  0.00000000000E+00 -0.00000000000E+00 -0.30130944721E+04  0.30130944721E+04  0.25500000000E-02 0. -1.
    8880023    1    1    2    0    0 -0.74210655133E+03 -0.40325785523E+03  0.36411513724E+03  0.11312511086E+04  0.65864270000E+03 0.  1.
    8880022    1    1    2    0    0  0.74210655133E+03  0.40325785523E+03 -0.25594824416E+04  0.26995705312E+04  0.15294330000E+03 0.  0.
<mgrwt>
<rscale>  0 0.10133771E+04</rscale>
<asrwt>0</asrwt>
<pdfrwt beam="1">  1        2 0.46355299E+00 0.10710505E+04</pdfrwt>
<pdfrwt beam="2">  1       -2 0.12580418E+00 0.10710505E+04</pdfrwt>
<totfact> 0.81118602E-01</totfact>
</mgrwt>
</event>
<event>
 4    2  0.3388003E-007  0.7065152E+03  0.7818608E-02  0.9971176E-01
         -2   -1    0    0    0  501 -0.00000000000E+00  0.00000000000E+00  0.17877675911E+03  0.17877675912E+03  0.25500000000E-02 0.  1.
          2   -1    0    0  501    0  0.00000000000E+00 -0.00000000000E+00 -0.31228508212E+04  0.31228508212E+04  0.25500000000E-02 0. -1.
    8880023    1    1    2    0    0  0.19185550153E+03  0.16895270810E+03 -0.56683494257E+03  0.90579556712E+03  0.65864270000E+03 0.  1.
    8880022    1    1    2    0    0 -0.19185550153E+03 -0.16895270810E+03 -0.23772391195E+04  0.23958320132E+04  0.15294330000E+03 0.  0.
<mgrwt>
<rscale>  0 0.56932369E+03</rscale>
<asrwt>0</asrwt>
<pdfrwt beam="1">  1        2 0.48043855E+00 0.70651522E+03</pdfrwt>
<pdfrwt beam="2">  1       -2 0.27504119E-01 0.70651522E+03</pdfrwt>
<totfact> 0.18773440E+01</totfact>
</mgrwt>
</event>
<event>
 4    2  0.3388003E-007  0.7814225E+03  0.7818608E-02  0.9752506E-01
         -2   -1    0    0    0  501 -0.00000000000E+00  0.00000000000E+00  0.30713182159E+03  0.30713182160E+03  0.25500000000E-02 0.  1.
          2   -1    0    0  501    0  0.00000000000E+00 -0.00000000000E+00 -0.14243008198E+04  0.14243008198E+04  0.25500000000E-02 0. -1.
    8880023    1    1    2    0    0 -0.39769453524E+03 -0.13656489182E+03 -0.99963169382E+03  0.12688122960E+04  0.65864270000E+03 0.  0.
    8880022    1    1    2    0    0  0.39769453524E+03  0.13656489182E+03 -0.11753730443E+03  0.46262034540E+03  0.15294330000E+03 0.  0.
<mgrwt>
<rscale>  0 0.67974831E+03</rscale>
<asrwt>0</asrwt>
<pdfrwt beam="1">  1        2 0.21912320E+00 0.78142250E+03</pdfrwt>
<pdfrwt beam="2">  1       -2 0.47251050E-01 0.78142250E+03</pdfrwt>
<totfact> 0.60494386E+01</totfact>
</mgrwt>
</event>
<event>
 4    2  0.3388003E-007  0.9080766E+03  0.7818608E-02  0.9513188E-01
         -2   -1    0    0    0  501 -0.00000000000E+00  0.00000000000E+00  0.32720004552E+03  0.32720004553E+03  0.25500000000E-02 0.  1.
          2   -1    0    0  501    0  0.00000000000E+00 -0.00000000000E+00 -0.19654602193E+04  0.19654602193E+04  0.25500000000E-02 0. -1.
    8880023    1    1    2    0    0 -0.27288793582E+03  0.56242791518E+03 -0.12359793992E+04  0.15337041001E+04  0.65864270000E+03 0.  0.
    8880022    1    1    2    0    0  0.27288793582E+03 -0.56242791518E+03 -0.40228077456E+03  0.75895616467E+03  0.15294330000E+03 0.  0.
<mgrwt>
<rscale>  0 0.83318440E+03</rscale>
<asrwt>0</asrwt>
<pdfrwt beam="1">  1        2 0.30237849E+00 0.90807664E+03</pdfrwt>
<pdfrwt beam="2">  1       -2 0.50338470E-01 0.90807664E+03</pdfrwt>
<totfact> 0.26405747E+01</totfact>
</mgrwt>
</event>
<event>
 4    2  0.4215386E-007  0.7527873E+03  0.7818608E-02  0.9824151E-01
          2   -1    0    0  501    0  0.00000000000E+00  0.00000000000E+00  0.17120805019E+04  0.17120805019E+04  0.25500000000E-02 0. -1.
         -2   -1    0    0    0  501 -0.00000000000E+00 -0.00000000000E+00 -0.10299075196E+04  0.10299075196E+04  0.25500000000E-02 0.  1.
    8880023    1    1    2    0    0  0.94413544205E+02 -0.35208599296E+03 -0.86407995100E+03  0.11460029807E+04  0.65864270000E+03 0.  1.
    8880022    1    1    2    0    0 -0.94413544205E+02  0.35208599296E+03  0.15462529333E+04  0.15959850408E+04  0.15294330000E+03 0.  0.
<mgrwt>
<rscale>  0 0.64082389E+03</rscale>
<asrwt>0</asrwt>
<pdfrwt beam="1">  1        2 0.26339700E+00 0.75278727E+03</pdfrwt>
<pdfrwt beam="2">  1       -2 0.15844731E+00 0.75278727E+03</pdfrwt>
<totfact> 0.25757513E+00</totfact>
</mgrwt>
</event>
<event>
 4    2  0.3388003E-007  0.1145753E+04  0.7818608E-02  0.9211747E-01
          2   -1    0    0  501    0  0.00000000000E+00  0.00000000000E+00  0.93819828648E+03  0.93819828648E+03  0.25500000000E-02 0. -1.
         -2   -1    0    0    0  501 -0.00000000000E+00 -0.00000000000E+00 -0.14355031615E+04  0.14355031615E+04  0.25500000000E-02 0.  1.
    8880023    1    1    2    0    0  0.49949659125E+03 -0.79337497370E+03 -0.77593047147E+03  0.13837698495E+04  0.65864270000E+03 0.  0.
    8880022    1    1    2    0    0 -0.49949659125E+03  0.79337497370E+03  0.27862559649E+03  0.98993159845E+03  0.15294330000E+03 0.  0.
<mgrwt>
<rscale>  0 0.10932996E+04</rscale>
<asrwt>0</asrwt>
<pdfrwt beam="1">  1        2 0.14433820E+00 0.11457534E+04</pdfrwt>
<pdfrwt beam="2">  1       -2 0.22084664E+00 0.11457534E+04</pdfrwt>
<totfact> 0.26409242E+00</totfact>
</mgrwt>
</event>
<event>
 4    2  0.3388003E-007  0.6626057E+03  0.7818608E-02  0.1021633E+00
         -2   -1    0    0    0  501 -0.00000000000E+00  0.00000000000E+00  0.67632048333E+03  0.67632048333E+03  0.25500000000E-02 0.  1.
          2   -1    0    0  501    0  0.00000000000E+00 -0.00000000000E+00 -0.35375555528E+03  0.35375555529E+03  0.25500000000E-02 0. -1.
    8880023    1    1    2    0    0  0.71495160574E+02 -0.11160613089E+02  0.46452300010E+03  0.80921439752E+03  0.65864270000E+03 0.  1.
    8880022    1    1    2    0    0 -0.71495160574E+02  0.11160613089E+02 -0.14195807206E+03  0.22086164110E+03  0.15294330000E+03 0.  0.
<mgrwt>
<rscale>  0 0.47102051E+03</rscale>
<asrwt>0</asrwt>
<pdfrwt beam="1">  1        2 0.54423932E-01 0.66260571E+03</pdfrwt>
<pdfrwt beam="2">  1       -2 0.10404930E+00 0.66260571E+03</pdfrwt>
<totfact> 0.69671885E+01</totfact>
</mgrwt>
</event>
<event>
 4    2  0.3388003E-007  0.8386953E+03  0.7818608E-02  0.9632645E-01
         -2   -1    0    0    0  501 -0.00000000000E+00  0.00000000000E+00  0.15766241305E+04  0.15766241305E+04  0.25500000000E-02 0.  1.
          2   -1    0    0  501    0  0.00000000000E+00 -0.00000000000E+00 -0.91437302122E+03  0.91437302123E+03  0.25500000000E-02 0. -1.
    8880023    1    1    2    0    0 -0.51856802942E+03  0.26207856631E+02  0.13661437207E+04  0.16030466383E+04  0.65864270000E+03 0.  1.
    8880022    1    1    2    0    0  0.51856802942E+03 -0.26207856631E+02 -0.70389261138E+03  0.88795051341E+03  0.15294330000E+03 0.  0.
<mgrwt>
<rscale>  0 0.75172676E+03</rscale>
<asrwt>0</asrwt>
<pdfrwt beam="1">  1        2 0.14067277E+00 0.83869533E+03</pdfrwt>
<pdfrwt beam="2">  1       -2 0.24255756E+00 0.83869533E+03</pdfrwt>
<totfact> 0.20837083E+00</totfact>
</mgrwt>
</event>
<event>
 4    2  0.3388003E-007  0.7402222E+03  0.7818608E-02  0.9859300E-01
         -2   -1    0    0    0  501 -0.00000000000E+00  0.00000000000E+00  0.17742156824E+03  0.17742156826E+03  0.25500000000E-02 0.  1.
          2   -1    0    0  501    0  0.00000000000E+00 -0.00000000000E+00 -0.32760974889E+04  0.32760974889E+04  0.25500000000E-02 0. -1.
    8880023    1    1    2    0    0 -0.78436151743E+02  0.32858243057E+03 -0.67543308483E+03  0.10020672143E+04  0.65864270000E+03 0.  1.
    8880022    1    1    2    0    0  0.78436151743E+02 -0.32858243057E+03 -0.24232428359E+04  0.24514518429E+04  0.15294330000E+03 0.  0.
<mgrwt>
<rscale>  0 0.62274961E+03</rscale>
<asrwt>0</asrwt>
<pdfrwt beam="1">  1        2 0.50401495E+00 0.74022216E+03</pdfrwt>
<pdfrwt beam="2">  1       -2 0.27295628E-01 0.74022216E+03</pdfrwt>
<totfact> 0.15118205E+01</totfact>
</mgrwt>
</event>
<event>
 4    2  0.3388003E-007  0.9406565E+03  0.7818608E-02  0.9463687E-01
          2   -1    0    0  501    0  0.00000000000E+00  0.00000000000E+00  0.48199367465E+04  0.48199367465E+04  0.25500000000E-02 0. -1.
         -2   -1    0    0    0  501 -0.00000000000E+00 -0.00000000000E+00 -0.27937206730E+03  0.27937206731E+03  0.25500000000E-02 0.  1.
    8880023    1    1    2    0    0 -0.65287305172E+03 -0.15742026875E+03  0.63842687400E+03  0.11368480296E+04  0.65864270000E+03 0.  0.
    8880022    1    1    2    0    0  0.65287305172E+03  0.15742026875E+03  0.39021378052E+04  0.39624607842E+04  0.15294330000E+03 0.  0.
<mgrwt>
<rscale>  0 0.87014814E+03</rscale>
<asrwt>0</asrwt>
<pdfrwt beam="1">  1        2 0.74152875E+00 0.94065646E+03</pdfrwt>
<pdfrwt beam="2">  1       -2 0.42980317E-01 0.94065646E+03</pdfrwt>
<totfact> 0.32140552E-01</totfact>
</mgrwt>
</event>
<event>
 4    2  0.3388003E-007  0.7120210E+03  0.7818608E-02  0.9950572E-01
          2   -1    0    0  501    0  0.00000000000E+00  0.00000000000E+00  0.93935266602E+03  0.93935266602E+03  0.25500000000E-02 0. -1.
         -2   -1    0    0    0  501 -0.00000000000E+00 -0.00000000000E+00 -0.47854694739E+03  0.47854694739E+03  0.25500000000E-02 0.  1.
    8880023    1    1    2    0    0  0.28126884750E+02 -0.26902140328E+03 -0.15449386612E+03  0.72858918329E+03  0.65864270000E+03 0.  1.
    8880022    1    1    2    0    0 -0.28126884750E+02  0.26902140328E+03  0.61529958475E+03  0.68931043013E+03  0.15294330000E+03 0.  0.
<mgrwt>
<rscale>  0 0.57871747E+03</rscale>
<asrwt>0</asrwt>
<pdfrwt beam="1">  1        2 0.14451579E+00 0.71202096E+03</pdfrwt>
<pdfrwt beam="2">  1       -2 0.73622609E-01 0.71202096E+03</pdfrwt>
<totfact> 0.46752327E+01</totfact>
</mgrwt>
</event>
<event>
 4    2  0.3388003E-007  0.7828030E+03  0.7818608E-02  0.9749293E-01
         -2   -1    0    0    0  501 -0.00000000000E+00  0.00000000000E+00  0.13926896853E+04  0.13926896853E+04  0.25500000000E-02 0.  1.
          2   -1    0    0  501    0  0.00000000000E+00 -0.00000000000E+00 -0.10328044974E+04  0.10328044975E+04  0.25500000000E-02 0. -1.
    8880023    1    1    2    0    0  0.42164595077E+03  0.34424636626E+02  0.12230665221E+04  0.14521268151E+04  0.65864270000E+03 0.  1.
    8880022    1    1    2    0    0 -0.42164595077E+03 -0.34424636626E+02 -0.86318133430E+03  0.97336736760E+03  0.15294330000E+03 0.  0.
<mgrwt>
<rscale>  0 0.68156220E+03</rscale>
<asrwt>0</asrwt>
<pdfrwt beam="1">  1        2 0.15889300E+00 0.78280302E+03</pdfrwt>
<pdfrwt beam="2">  1       -2 0.21425995E+00 0.78280302E+03</pdfrwt>
<totfact> 0.26371311E+00</totfact>
</mgrwt>
</event>
<event>
 4    2  0.3388003E-007  0.8106740E+03  0.7818608E-02  0.9688175E-01
          2   -1    0    0  501    0  0.00000000000E+00  0.00000000000E+00  0.51937347461E+03  0.51937347462E+03  0.25500000000E-02 0. -1.
         -2   -1    0    0    0  501 -0.00000000000E+00 -0.00000000000E+00 -0.24268060286E+04  0.24268060286E+04  0.25500000000E-02 0.  1.
    8880023    1    1    2    0    0  0.22660243408E+03 -0.41476911572E+03  0.15448742883E+03  0.82526277901E+03  0.65864270000E+03 0.  0.
    8880022    1    1    2    0    0 -0.22660243408E+03  0.41476911572E+03 -0.20619199828E+04  0.21209167242E+04  0.15294330000E+03 0.  0.
<mgrwt>
<rscale>  0 0.71725245E+03</rscale>
<asrwt>0</asrwt>
<pdfrwt beam="1">  1        2 0.79903613E-01 0.81067397E+03</pdfrwt>
<pdfrwt beam="2">  1       -2 0.37335477E+00 0.81067397E+03</pdfrwt>
<totfact> 0.68189572E-01</totfact>
</mgrwt>
</event>
<event>
 4    2  0.3388003E-007  0.6595416E+03  0.7818608E-02  0.1024631E+00
         -2   -1    0    0    0  501 -0.00000000000E+00  0.00000000000E+00  0.34844612131E+03  0.34844612132E+03  0.25500000000E-02 0.  1.
          2   -1    0    0  501    0  0.00000000000E+00 -0.00000000000E+00 -0.72871937887E+03  0.72871937888E+03  0.25500000000E-02 0. -1.
    8880023    1    1    2    0    0 -0.19904035242E+02  0.28084358595E+02  0.67721379342E+01  0.65957635641E+03  0.65864270000E+03 0.  0.
    8880022    1    1    2    0    0  0.19904035242E+02 -0.28084358595E+02 -0.38704539550E+03  0.41758914379E+03  0.15294330000E+03 0. -1.
<mgrwt>
<rscale>  0 0.46051816E+03</rscale>
<asrwt>0</asrwt>
<pdfrwt beam="1">  1        2 0.11211067E+00 0.65954159E+03</pdfrwt>
<pdfrwt beam="2">  1       -2 0.53607096E-01 0.65954159E+03</pdfrwt>
<totfact> 0.12978240E+02</totfact>
</mgrwt>
</event>
<event>
 4    2  0.3388003E-007  0.1257497E+04  0.7818608E-02  0.9103161E-01
         -2   -1    0    0    0  501 -0.00000000000E+00  0.00000000000E+00  0.66850348856E+03  0.66850348857E+03  0.25500000000E-02 0.  1.
          2   -1    0    0  501    0  0.00000000000E+00 -0.00000000000E+00 -0.24618764043E+04  0.24618764043E+04  0.25500000000E-02 0. -1.
    8880023    1    1    2    0    0  0.79175718246E+03  0.72153312309E+03 -0.15936503587E+04  0.20300298411E+04  0.65864270000E+03 0.  0.
    8880022    1    1    2    0    0 -0.79175718246E+03 -0.72153312309E+03 -0.19972255709E+03  0.11003500518E+04  0.15294330000E+03 0.  0.
<mgrwt>
<rscale>  0 0.12111402E+04</rscale>
<asrwt>0</asrwt>
<pdfrwt beam="1">  1        2 0.37875021E+00 0.12574974E+04</pdfrwt>
<pdfrwt beam="2">  1       -2 0.10284669E+00 0.12574974E+04</pdfrwt>
<totfact> 0.27620117E+00</totfact>
</mgrwt>
</event>
<event>
 4    2  0.3388003E-007  0.6962745E+03  0.7818608E-02  0.1001302E+00
          2   -1    0    0  501    0  0.00000000000E+00  0.00000000000E+00  0.54571593681E+03  0.54571593681E+03  0.25500000000E-02 0. -1.
         -2   -1    0    0    0  501 -0.00000000000E+00 -0.00000000000E+00 -0.68393179648E+03  0.68393179649E+03  0.25500000000E-02 0.  1.
    8880023    1    1    2    0    0  0.15304598108E+03 -0.16602688830E+03 -0.43940329244E+03  0.82333071097E+03  0.65864270000E+03 0.  1.
    8880022    1    1    2    0    0 -0.15304598108E+03  0.16602688830E+03  0.30118743276E+03  0.40631702233E+03  0.15294330000E+03 0.  0.
<mgrwt>
<rscale>  0 0.55082944E+03</rscale>
<asrwt>0</asrwt>
<pdfrwt beam="1">  1        2 0.83956298E-01 0.69627452E+03</pdfrwt>
<pdfrwt beam="2">  1       -2 0.10522028E+00 0.69627452E+03</pdfrwt>
<totfact> 0.41300395E+01</totfact>
</mgrwt>
</event>
<event>
 4    2  0.3388003E-007  0.8724207E+03  0.7818608E-02  0.9571840E-01
         -2   -1    0    0    0  501 -0.00000000000E+00  0.00000000000E+00  0.82976949532E+03  0.82976949532E+03  0.25500000000E-02 0.  1.
          2   -1    0    0  501    0  0.00000000000E+00 -0.00000000000E+00 -0.11907069765E+04  0.11907069765E+04  0.25500000000E-02 0. -1.
    8880023    1    1    2    0    0 -0.51599659344E+02 -0.56977645095E+03  0.47706939866E+03  0.99434055851E+03  0.65864270000E+03 0.  0.
    8880022    1    1    2    0    0  0.51599659344E+02  0.56977645095E+03 -0.83800687980E+03  0.10261359133E+04  0.15294330000E+03 0.  0.
<mgrwt>
<rscale>  0 0.79188362E+03</rscale>
<asrwt>0</asrwt>
<pdfrwt beam="1">  1        2 0.18318569E+00 0.87242073E+03</pdfrwt>
<pdfrwt beam="2">  1       -2 0.12765684E+00 0.87242073E+03</pdfrwt>
<totfact> 0.87700448E+00</totfact>
</mgrwt>
</event>
<event>
 4    2  0.3388003E-007  0.8278685E+03  0.7818608E-02  0.9653494E-01
          2   -1    0    0  501    0  0.00000000000E+00  0.00000000000E+00  0.90821597555E+03  0.90821597556E+03  0.25500000000E-02 0. -1.
         -2   -1    0    0    0  501 -0.00000000000E+00 -0.00000000000E+00 -0.15438827718E+04  0.15438827718E+04  0.25500000000E-02 0.  1.
    8880023    1    1    2    0    0  0.30421056743E+03 -0.39876306439E+03 -0.13393377898E+04  0.15745450048E+04  0.65864270000E+03 0.  1.
    8880022    1    1    2    0    0 -0.30421056743E+03  0.39876306439E+03  0.70367099353E+03  0.87755374252E+03  0.15294330000E+03 0.  0.
<mgrwt>
<rscale>  0 0.73854554E+03</rscale>
<asrwt>0</asrwt>
<pdfrwt beam="1">  1        2 0.13972553E+00 0.82786850E+03</pdfrwt>
<pdfrwt beam="2">  1       -2 0.23752043E+00 0.82786850E+03</pdfrwt>
<totfact> 0.22619009E+00</totfact>
</mgrwt>
</event>
<event>
 4    2  0.3388003E-007  0.6669003E+03  0.7818608E-02  0.1017990E+00
         -2   -1    0    0    0  501 -0.00000000000E+00  0.00000000000E+00  0.69666301516E+03  0.69666301516E+03  0.25500000000E-02 0.  1.
          2   -1    0    0  501    0  0.00000000000E+00 -0.00000000000E+00 -0.86938417038E+03  0.86938417038E+03  0.25500000000E-02 0. -1.
    8880023    1    1    2    0    0  0.99708674696E+02 -0.31685436092E+02  0.52208674043E+03  0.84695369264E+03  0.65864270000E+03 0.  1.
    8880022    1    1    2    0    0 -0.99708674696E+02  0.31685436092E+02 -0.69480789565E+03  0.71909349291E+03  0.15294330000E+03 0.  0.
<mgrwt>
<rscale>  0 0.48419095E+03</rscale>
<asrwt>0</asrwt>
<pdfrwt beam="1">  1        2 0.13375141E+00 0.66690029E+03</pdfrwt>
<pdfrwt beam="2">  1       -2 0.10717893E+00 0.66690029E+03</pdfrwt>
<totfact> 0.22041961E+01</totfact>
</mgrwt>
</event>
<event>
 4    2  0.3388003E-007  0.7589563E+03  0.7818608E-02  0.9807817E-01
          2   -1    0    0  501    0  0.00000000000E+00  0.00000000000E+00  0.17827572446E+04  0.17827572446E+04  0.25500000000E-02 0. -1.
         -2   -1    0    0    0  501 -0.00000000000E+00 -0.00000000000E+00 -0.28415270837E+03  0.28415270838E+03  0.25500000000E-02 0.  1.
    8880023    1    1    2    0    0 -0.24520411441E+03 -0.28649497181E+03  0.32655839310E+03  0.82622939730E+03  0.65864270000E+03 0.  0.
    8880022    1    1    2    0    0  0.24520411441E+03  0.28649497181E+03  0.11720461431E+04  0.12406805557E+04  0.15294330000E+03 0.  0.
<mgrwt>
<rscale>  0 0.64944716E+03</rscale>
<asrwt>0</asrwt>
<pdfrwt beam="1">  1        2 0.27427035E+00 0.75895628E+03</pdfrwt>
<pdfrwt beam="2">  1       -2 0.43715800E-01 0.75895628E+03</pdfrwt>
<totfact> 0.44890773E+01</totfact>
</mgrwt>
</event>
<event>
 4    2  0.3388003E-007  0.6941974E+03  0.7818608E-02  0.1002218E+00
          2   -1    0    0  501    0  0.00000000000E+00  0.00000000000E+00  0.34406041839E+04  0.34406041839E+04  0.25500000000E-02 0. -1.
         -2   -1    0    0    0  501 -0.00000000000E+00 -0.00000000000E+00 -0.41739166040E+03  0.41739166041E+03  0.25500000000E-02 0.  1.
    8880023    1    1    2    0    0 -0.10626546964E+03  0.19185265561E+03 -0.11908991568E+03  0.70433827511E+03  0.65864270000E+03 0.  1.
    8880022    1    1    2    0    0  0.10626546964E+03 -0.19185265561E+03  0.31423024392E+04  0.31536575692E+04  0.15294330000E+03 0.  0.
<mgrwt>
<rscale>  0 0.54688245E+03</rscale>
<asrwt>0</asrwt>
<pdfrwt beam="1">  1        2 0.52932375E+00 0.69419738E+03</pdfrwt>
<pdfrwt beam="2">  1       -2 0.64214098E-01 0.69419738E+03</pdfrwt>
<totfact> 0.22015576E+00</totfact>
</mgrwt>
</event>
<event>
 4    2  0.3388003E-007  0.1294390E+04  0.7818608E-02  0.9070420E-01
         -2   -1    0    0    0  501 -0.00000000000E+00  0.00000000000E+00  0.65265401189E+03  0.65265401190E+03  0.25500000000E-02 0.  1.
          2   -1    0    0  501    0  0.00000000000E+00 -0.00000000000E+00 -0.25661803167E+04  0.25661803167E+04  0.25500000000E-02 0. -1.
    8880023    1    1    2    0    0  0.92719619948E+03 -0.61801393558E+03 -0.15864611181E+04  0.20475114414E+04  0.65864270000E+03 0.  0.
    8880022    1    1    2    0    0 -0.92719619948E+03  0.61801393558E+03 -0.32706518673E+03  0.11713228873E+04  0.15294330000E+03 0.  0.
<mgrwt>
<rscale>  0 0.12497155E+04</rscale>
<asrwt>0</asrwt>
<pdfrwt beam="1">  1        2 0.39479697E+00 0.12943895E+04</pdfrwt>
<pdfrwt beam="2">  1       -2 0.10040831E+00 0.12943895E+04</pdfrwt>
<totfact> 0.25371819E+00</totfact>
</mgrwt>
</event>
<event>
 4    2  0.3388003E-007  0.8915939E+03  0.7818608E-02  0.9539663E-01
          2   -1    0    0  501    0  0.00000000000E+00  0.00000000000E+00  0.46179127846E+03  0.46179127847E+03  0.25500000000E-02 0. -1.
         -2   -1    0    0    0  501 -0.00000000000E+00 -0.00000000000E+00 -0.17509182271E+04  0.17509182271E+04  0.25500000000E-02 0.  1.
    8880023    1    1    2    0    0 -0.35091110774E+03  0.48784311390E+03 -0.13187926905E+04  0.15919025963E+04  0.65864270000E+03 0.  0.
    8880022    1    1    2    0    0  0.35091110774E+03 -0.48784311390E+03  0.29665741893E+02  0.62080690925E+03  0.15294330000E+03 0.  0.
<mgrwt>
<rscale>  0 0.81421735E+03</rscale>
<asrwt>0</asrwt>
<pdfrwt beam="1">  1        2 0.71044813E-01 0.89159392E+03</pdfrwt>
<pdfrwt beam="2">  1       -2 0.26937203E+00 0.89159392E+03</pdfrwt>
<totfact> 0.33507852E+00</totfact>
</mgrwt>
</event>
<event>
 4    2  0.3388003E-007  0.1093221E+04  0.7818608E-02  0.9268642E-01
         -2   -1    0    0    0  501 -0.00000000000E+00  0.00000000000E+00  0.16103036329E+04  0.16103036329E+04  0.25500000000E-02 0.  1.
          2   -1    0    0  501    0  0.00000000000E+00 -0.00000000000E+00 -0.84523390645E+03  0.84523390645E+03  0.25500000000E-02 0. -1.
    8880023    1    1    2    0    0 -0.73539143322E+03  0.46959638466E+03  0.10591619082E+04  0.15221548799E+04  0.65864270000E+03 0.  0.
    8880022    1    1    2    0    0  0.73539143322E+03 -0.46959638466E+03 -0.29409218173E+03  0.93338265942E+03  0.15294330000E+03 0. -1.
<mgrwt>
<rscale>  0 0.10372173E+04</rscale>
<asrwt>0</asrwt>
<pdfrwt beam="1">  1        2 0.13003599E+00 0.10932207E+04</pdfrwt>
<pdfrwt beam="2">  1       -2 0.24773902E+00 0.10932207E+04</pdfrwt>
<totfact> 0.20938580E+00</totfact>
</mgrwt>
</event>
<event>
 4    2  0.3388003E-007  0.6647318E+03  0.7818608E-02  0.1019759E+00
          2   -1    0    0  501    0  0.00000000000E+00  0.00000000000E+00  0.19143607930E+04  0.19143607930E+04  0.25500000000E-02 0. -1.
         -2   -1    0    0    0  501 -0.00000000000E+00 -0.00000000000E+00 -0.19720288875E+03  0.19720288877E+03  0.25500000000E-02 0.  1.
    8880023    1    1    2    0    0 -0.30513247735E+02  0.84422495478E+02  0.38606604984E+03  0.76871022963E+03  0.65864270000E+03 0.  1.
    8880022    1    1    2    0    0  0.30513247735E+02 -0.84422495478E+02  0.13310918544E+04  0.13428534521E+04  0.15294330000E+03 0.  0.
<mgrwt>
<rscale>  0 0.47773517E+03</rscale>
<asrwt>0</asrwt>
<pdfrwt beam="1">  1        2 0.29451705E+00 0.66473184E+03</pdfrwt>
<pdfrwt beam="2">  1       -2 0.30338905E-01 0.66473184E+03</pdfrwt>
<totfact> 0.77542061E+01</totfact>
</mgrwt>
</event>
<event>
 4    2  0.3388003E-007  0.7164963E+03  0.7818608E-02  0.9934624E-01
          2   -1    0    0  501    0  0.00000000000E+00  0.00000000000E+00  0.16341247350E+04  0.16341247350E+04  0.25500000000E-02 0. -1.
         -2   -1    0    0    0  501 -0.00000000000E+00 -0.00000000000E+00 -0.30804148613E+03  0.30804148614E+03  0.25500000000E-02 0.  1.
    8880023    1    1    2    0    0 -0.23920261331E+03 -0.14946210846E+03  0.16187700721E+03  0.73455509242E+03  0.65864270000E+03 0.  1.
    8880022    1    1    2    0    0  0.23920261331E+03  0.14946210846E+03  0.11642062417E+04  0.12076111288E+04  0.15294330000E+03 0.  0.
<mgrwt>
<rscale>  0 0.58612193E+03</rscale>
<asrwt>0</asrwt>
<pdfrwt beam="1">  1        2 0.25140381E+00 0.71649635E+03</pdfrwt>
<pdfrwt beam="2">  1       -2 0.47390996E-01 0.71649635E+03</pdfrwt>
<totfact> 0.46294092E+01</totfact>
</mgrwt>
</event>
<event>
 4    2  0.3694890E-007  0.8509355E+03  0.7818608E-02  0.9609895E-01
          2   -1    0    0  501    0  0.00000000000E+00  0.00000000000E+00  0.24954052206E+04  0.24954052206E+04  0.25500000000E-02 0. -1.
         -2   -1    0    0    0  501 -0.00000000000E+00 -0.00000000000E+00 -0.72094629731E+03  0.72094629731E+03  0.25500000000E-02 0.  1.
    8880023    1    1    2    0    0 -0.47144221267E+03  0.26081281810E+03 -0.42184693562E+03  0.94976109066E+03  0.65864270000E+03 0.  1.
    8880022    1    1    2    0    0  0.47144221267E+03 -0.26081281810E+03  0.21963058589E+04  0.22665904272E+04  0.15294330000E+03 0.  0.
<mgrwt>
<rscale>  0 0.76644694E+03</rscale>
<asrwt>0</asrwt>
<pdfrwt beam="1">  1        2 0.38390850E+00 0.85093554E+03</pdfrwt>
<pdfrwt beam="2">  1       -2 0.11091481E+00 0.85093554E+03</pdfrwt>
<totfact> 0.23261827E+00</totfact>
</mgrwt>
</event>
<event>
 4    2  0.3388003E-007  0.9722600E+03  0.7818608E-02  0.9418785E-01
         -2   -1    0    0    0  501 -0.00000000000E+00  0.00000000000E+00  0.66027676770E+03  0.66027676771E+03  0.25500000000E-02 0.  1.
          2   -1    0    0  501    0  0.00000000000E+00 -0.00000000000E+00 -0.15100872506E+04  0.15100872506E+04  0.25500000000E-02 0. -1.
    8880023    1    1    2    0    0 -0.49127702691E+03 -0.51973662521E+03  0.93509274787E+02  0.97674636805E+03  0.65864270000E+03 0.  0.
    8880022    1    1    2    0    0  0.49127702691E+03  0.51973662521E+03 -0.94331975768E+03  0.11936176503E+04  0.15294330000E+03 0.  0.
<mgrwt>
<rscale>  0 0.90545722E+03</rscale>
<asrwt>0</asrwt>
<pdfrwt beam="1">  1        2 0.23232111E+00 0.97225999E+03</pdfrwt>
<pdfrwt beam="2">  1       -2 0.10158104E+00 0.97225999E+03</pdfrwt>
<totfact> 0.99517333E+00</totfact>
</mgrwt>
</event>
<event>
 4    2  0.3388003E-007  0.6642392E+03  0.7818608E-02  0.1020180E+00
          2   -1    0    0  501    0  0.00000000000E+00  0.00000000000E+00  0.38723940361E+04  0.38723940361E+04  0.25500000000E-02 0. -1.
         -2   -1    0    0    0  501 -0.00000000000E+00 -0.00000000000E+00 -0.15925808869E+03  0.15925808871E+03  0.25500000000E-02 0.  1.
    8880023    1    1    2    0    0  0.49571656364E+02 -0.70329156014E+02  0.54650823049E+03  0.86016567681E+03  0.65864270000E+03 0.  1.
    8880022    1    1    2    0    0 -0.49571656364E+02  0.70329156014E+02  0.31666277169E+04  0.31714864480E+04  0.15294330000E+03 0.  0.
<mgrwt>
<rscale>  0 0.47621575E+03</rscale>
<asrwt>0</asrwt>
<pdfrwt beam="1">  1        2 0.59575288E+00 0.66423922E+03</pdfrwt>
<pdfrwt beam="2">  1       -2 0.24501246E-01 0.66423922E+03</pdfrwt>
<totfact> 0.71795205E+00</totfact>
</mgrwt>
</event>
<event>
 4    2  0.3388003E-007  0.6885129E+03  0.7818608E-02  0.1004868E+00
          2   -1    0    0  501    0  0.00000000000E+00  0.00000000000E+00  0.14264985888E+03  0.14264985890E+03  0.25500000000E-02 0. -1.
         -2   -1    0    0    0  501 -0.00000000000E+00 -0.00000000000E+00 -0.25334937438E+04  0.25334937438E+04  0.25500000000E-02 0.  1.
    8880023    1    1    2    0    0  0.10070050816E+03 -0.17349116069E+03 -0.23112627054E+04  0.24116353943E+04  0.65864270000E+03 0.  1.
    8880022    1    1    2    0    0 -0.10070050816E+03  0.17349116069E+03 -0.79581179501E+02  0.26450820843E+03  0.15294330000E+03 0.  0.
<mgrwt>
<rscale>  0 0.53566468E+03</rscale>
<asrwt>0</asrwt>
<pdfrwt beam="1">  1        2 0.21946134E-01 0.68851288E+03</pdfrwt>
<pdfrwt beam="2">  1       -2 0.38976824E+00 0.68851288E+03</pdfrwt>
<totfact> 0.23587837E+00</totfact>
</mgrwt>
</event>
<event>
 4    2  0.3388003E-007  0.1363358E+04  0.7818608E-02  0.9012691E-01
          2   -1    0    0  501    0  0.00000000000E+00  0.00000000000E+00  0.32954915441E+04  0.32954915441E+04  0.25500000000E-02 0. -1.
         -2   -1    0    0    0  501 -0.00000000000E+00 -0.00000000000E+00 -0.10229502773E+04  0.10229502773E+04  0.25500000000E-02 0.  1.
    8880023    1    1    2    0    0  0.11844829989E+04 -0.14810335171E+03 -0.37178241563E+03  0.14131408098E+04  0.65864270000E+03 0.  0.
    8880022    1    1    2    0    0 -0.11844829989E+04  0.14810335171E+03  0.26443236824E+04  0.29053010116E+04  0.15294330000E+03 0.  0.
<mgrwt>
<rscale>  0 0.13214956E+04</rscale>
<asrwt>0</asrwt>
<pdfrwt beam="1">  1        2 0.50699870E+00 0.13633579E+04</pdfrwt>
<pdfrwt beam="2">  1       -2 0.15737697E+00 0.13633579E+04</pdfrwt>
<totfact> 0.28563875E-01</totfact>
</mgrwt>
</event>
<event>
 4    2  0.3388003E-007  0.7550919E+03  0.7818608E-02  0.9817984E-01
          2   -1    0    0  501    0  0.00000000000E+00  0.00000000000E+00  0.11267871875E+04  0.11267871875E+04  0.25500000000E-02 0. -1.
         -2   -1    0    0    0  501 -0.00000000000E+00 -0.00000000000E+00 -0.53595107251E+03  0.53595107252E+03  0.25500000000E-02 0.  1.
    8880023    1    1    2    0    0 -0.32303381861E+03 -0.17889316573E+03 -0.19608279315E+03  0.78013606553E+03  0.65864270000E+03 0.  1.
    8880022    1    1    2    0    0  0.32303381861E+03  0.17889316573E+03  0.78691890813E+03  0.88260219448E+03  0.15294330000E+03 0.  0.
<mgrwt>
<rscale>  0 0.64406303E+03</rscale>
<asrwt>0</asrwt>
<pdfrwt beam="1">  1        2 0.17335188E+00 0.75509193E+03</pdfrwt>
<pdfrwt beam="2">  1       -2 0.82454011E-01 0.75509193E+03</pdfrwt>
<totfact> 0.27548321E+01</totfact>
</mgrwt>
</event>
<event>
 4    2  0.3388003E-007  0.7108241E+03  0.7818608E-02  0.9954953E-01
         -2   -1    0    0    0  501 -0.00000000000E+00  0.00000000000E+00  0.43405668081E+03  0.43405668082E+03  0.25500000000E-02 0.  1.
          2   -1    0    0  501    0  0.00000000000E+00 -0.00000000000E+00 -0.81397589928E+03  0.81397589929E+03  0.25500000000E-02 0. -1.
    8880023    1    1    2    0    0 -0.13861516863E+03  0.22857502658E+03  0.57412335975E+02  0.71313889975E+03  0.65864270000E+03 0.  1.
    8880022    1    1    2    0    0  0.13861516863E+03 -0.22857502658E+03 -0.43733155445E+03  0.53489368035E+03  0.15294330000E+03 0.  0.
<mgrwt>
<rscale>  0 0.57670356E+03</rscale>
<asrwt>0</asrwt>
<pdfrwt beam="1">  1        2 0.12522706E+00 0.71082411E+03</pdfrwt>
<pdfrwt beam="2">  1       -2 0.66777951E-01 0.71082411E+03</pdfrwt>
<totfact> 0.70446106E+01</totfact>
</mgrwt>
</event>
<event>
 4    2  0.3388003E-007  0.6851397E+03  0.7818608E-02  0.1006554E+00
          2   -1    0    0  501    0  0.00000000000E+00  0.00000000000E+00  0.25257298695E+04  0.25257298695E+04  0.25500000000E-02 0. -1.
         -2   -1    0    0    0  501 -0.00000000000E+00 -0.00000000000E+00 -0.13917133836E+03  0.13917133838E+03  0.25500000000E-02 0.  1.
    8880023    1    1    2    0    0  0.60919913932E+02 -0.17859162789E+03  0.77203336829E+03  0.10322073113E+04  0.65864270000E+03 0.  0.
    8880022    1    1    2    0    0 -0.60919913932E+02  0.17859162789E+03  0.16145251629E+04  0.16326938966E+04  0.15294330000E+03 0.  0.
<mgrwt>
<rscale>  0 0.52867513E+03</rscale>
<asrwt>0</asrwt>
<pdfrwt beam="1">  1        2 0.38857380E+00 0.68513970E+03</pdfrwt>
<pdfrwt beam="2">  1       -2 0.21410977E-01 0.68513970E+03</pdfrwt>
<totfact> 0.66778699E+01</totfact>
</mgrwt>
</event>
<event>
 4    2  0.3388003E-007  0.1774331E+04  0.7818608E-02  0.8736870E-01
          2   -1    0    0  501    0  0.00000000000E+00  0.00000000000E+00  0.35845536086E+04  0.35845536086E+04  0.25500000000E-02 0. -1.
         -2   -1    0    0    0  501 -0.00000000000E+00 -0.00000000000E+00 -0.92471172259E+03  0.92471172259E+03  0.25500000000E-02 0.  1.
    8880023    1    1    2    0    0  0.14957045675E+04  0.69087465485E+03  0.21292517853E+04  0.27716354943E+04  0.65864270000E+03 0.  0.
    8880022    1    1    2    0    0 -0.14957045675E+04 -0.69087465485E+03  0.53059010069E+03  0.17376298369E+04  0.15294330000E+03 0.  0.
<mgrwt>
<rscale>  0 0.17436198E+04</rscale>
<asrwt>0</asrwt>
<pdfrwt beam="1">  1        2 0.55146980E+00 0.17743309E+04</pdfrwt>
<pdfrwt beam="2">  1       -2 0.14226334E+00 0.17743309E+04</pdfrwt>
<totfact> 0.22577564E-01</totfact>
</mgrwt>
</event>
<event>
 4    2  0.3388003E-007  0.7507399E+03  0.7818608E-02  0.9829699E-01
         -2   -1    0    0    0  501 -0.00000000000E+00  0.00000000000E+00  0.14919660864E+03  0.14919660866E+03  0.25500000000E-02 0.  1.
          2   -1    0    0  501    0  0.00000000000E+00 -0.00000000000E+00 -0.26119564605E+04  0.26119564605E+04  0.25500000000E-02 0. -1.
    8880023    1    1    2    0    0 -0.32173930616E+03  0.16212361411E+03 -0.10215649223E+04  0.12677560271E+04  0.65864270000E+03 0.  1.
    8880022    1    1    2    0    0  0.32173930616E+03 -0.16212361411E+03 -0.14411949296E+04  0.14933970421E+04  0.15294330000E+03 0.  0.
<mgrwt>
<rscale>  0 0.63792793E+03</rscale>
<asrwt>0</asrwt>
<pdfrwt beam="1">  1        2 0.40183942E+00 0.75073994E+03</pdfrwt>
<pdfrwt beam="2">  1       -2 0.22953326E-01 0.75073994E+03</pdfrwt>
<totfact> 0.52231281E+01</totfact>
</mgrwt>
</event>
<event>
 4    2  0.3388003E-007  0.7643284E+03  0.7818608E-02  0.9794028E-01
          2   -1    0    0  501    0  0.00000000000E+00  0.00000000000E+00  0.69994290073E+03  0.69994290074E+03  0.25500000000E-02 0. -1.
         -2   -1    0    0    0  501 -0.00000000000E+00 -0.00000000000E+00 -0.77489521548E+03  0.77489521548E+03  0.25500000000E-02 0.  1.
    8880023    1    1    2    0    0 -0.35763589668E+03  0.14994735076E+03 -0.47267467475E+03  0.89867635832E+03  0.65864270000E+03 0.  0.
    8880022    1    1    2    0    0  0.35763589668E+03 -0.14994735076E+03  0.39772236001E+03  0.57616175789E+03  0.15294330000E+03 0. -1.
<mgrwt>
<rscale>  0 0.65684022E+03</rscale>
<asrwt>0</asrwt>
<pdfrwt beam="1">  1        2 0.10768352E+00 0.76432836E+03</pdfrwt>
<pdfrwt beam="2">  1       -2 0.11921465E+00 0.76432836E+03</pdfrwt>
<totfact> 0.22391538E+01</totfact>
</mgrwt>
</event>
<event>
 4    2  0.3388003E-007  0.6995240E+03  0.7818608E-02  0.9999181E-01
          2   -1    0    0  501    0  0.00000000000E+00  0.00000000000E+00  0.58341093384E+03  0.58341093385E+03  0.25500000000E-02 0. -1.
         -2   -1    0    0    0  501 -0.00000000000E+00 -0.00000000000E+00 -0.92040466423E+03  0.92040466423E+03  0.25500000000E-02 0.  1.
    8880023    1    1    2    0    0  0.23551118499E+03 -0.76256288388E+01 -0.73628678610E+03  0.10156043059E+04  0.65864270000E+03 0.  1.
    8880022    1    1    2    0    0 -0.23551118499E+03  0.76256288388E+01  0.39929305571E+03  0.48821129220E+03  0.15294330000E+03 0.  0.
<mgrwt>
<rscale>  0 0.55686144E+03</rscale>
<asrwt>0</asrwt>
<pdfrwt beam="1">  1        2 0.89755529E-01 0.69952403E+03</pdfrwt>
<pdfrwt beam="2">  1       -2 0.14160072E+00 0.69952403E+03</pdfrwt>
<totfact> 0.18222050E+01</totfact>
</mgrwt>
</event>
<event>
 4    2  0.3388003E-007  0.6683358E+03  0.7818608E-02  0.1016885E+00
         -2   -1    0    0    0  501 -0.00000000000E+00  0.00000000000E+00  0.19289382667E+03  0.19289382668E+03  0.25500000000E-02 0.  1.
          2   -1    0    0  501    0  0.00000000000E+00 -0.00000000000E+00 -0.98615928040E+03  0.98615928041E+03  0.25500000000E-02 0. -1.
    8880023    1    1    2    0    0 -0.69638906024E+02 -0.89514937081E+02 -0.52397672525E+03  0.84924926615E+03  0.65864270000E+03 0.  1.
    8880022    1    1    2    0    0  0.69638906024E+02  0.89514937081E+02 -0.26928872849E+03  0.32980384094E+03  0.15294330000E+03 0. -1.
<mgrwt>
<rscale>  0 0.48827642E+03</rscale>
<asrwt>0</asrwt>
<pdfrwt beam="1">  1        2 0.15171681E+00 0.66833577E+03</pdfrwt>
<pdfrwt beam="2">  1       -2 0.29675974E-01 0.66833577E+03</pdfrwt>
<totfact> 0.27244849E+02</totfact>
</mgrwt>
</event>
<event>
 4    2  0.3388003E-007  0.6909222E+03  0.7818608E-02  0.1003717E+00
          2   -1    0    0  501    0  0.00000000000E+00  0.00000000000E+00  0.17859788735E+04  0.17859788735E+04  0.25500000000E-02 0. -1.
         -2   -1    0    0    0  501 -0.00000000000E+00 -0.00000000000E+00 -0.17043096428E+03  0.17043096430E+03  0.25500000000E-02 0.  1.
    8880023    1    1    2    0    0 -0.20220802322E+03 -0.51722080003E+02  0.62178123824E+03  0.92950813483E+03  0.65864270000E+03 0. -1.
    8880022    1    1    2    0    0  0.20220802322E+03  0.51722080003E+02  0.99376667100E+03  0.10269017030E+04  0.15294330000E+03 0.  0.
<mgrwt>
<rscale>  0 0.54049870E+03</rscale>
<asrwt>0</asrwt>
<pdfrwt beam="1">  1        2 0.27476597E+00 0.69092218E+03</pdfrwt>
<pdfrwt beam="2">  1       -2 0.26220149E-01 0.69092218E+03</pdfrwt>
<totfact> 0.11865053E+02</totfact>
</mgrwt>
</event>
<event>
 4    2  0.3388003E-007  0.7004265E+03  0.7818608E-02  0.9995436E-01
         -2   -1    0    0    0  501 -0.00000000000E+00  0.00000000000E+00  0.12624296690E+03  0.12624296692E+03  0.25500000000E-02 0.  1.
          2   -1    0    0  501    0  0.00000000000E+00 -0.00000000000E+00 -0.19931644864E+04  0.19931644864E+04  0.25500000000E-02 0. -1.
    8880023    1    1    2    0    0  0.23289515849E+03  0.50467600091E+02 -0.15039262939E+04  0.16590333443E+04  0.65864270000E+03 0. -1.
    8880022    1    1    2    0    0 -0.23289515849E+03 -0.50467600091E+02 -0.36299522559E+03  0.46037410909E+03  0.15294330000E+03 0.  1.
<mgrwt>
<rscale>  0 0.55850798E+03</rscale>
<asrwt>0</asrwt>
<pdfrwt beam="1">  1        2 0.30664067E+00 0.70042654E+03</pdfrwt>
<pdfrwt beam="2">  1       -2 0.19421996E-01 0.70042654E+03</pdfrwt>
<totfact> 0.15587429E+02</totfact>
</mgrwt>
</event>
<event>
 4    2  0.3388003E-007  0.7304815E+03  0.7818608E-02  0.9888595E-01
         -2   -1    0    0    0  501 -0.00000000000E+00  0.00000000000E+00  0.21077735673E+03  0.21077735674E+03  0.25500000000E-02 0.  1.
          2   -1    0    0  501    0  0.00000000000E+00 -0.00000000000E+00 -0.17330409824E+04  0.17330409824E+04  0.25500000000E-02 0. -1.
    8880023    1    1    2    0    0 -0.67854861296E+02  0.30852666179E+03 -0.56270152740E+03  0.92208253342E+03  0.65864270000E+03 0.  0.
    8880022    1    1    2    0    0  0.67854861296E+02 -0.30852666179E+03 -0.95956209827E+03  0.10217358057E+04  0.15294330000E+03 0.  0.
<mgrwt>
<rscale>  0 0.60817207E+03</rscale>
<asrwt>0</asrwt>
<pdfrwt beam="1">  1        2 0.26662168E+00 0.73048148E+03</pdfrwt>
<pdfrwt beam="2">  1       -2 0.32427287E-01 0.73048148E+03</pdfrwt>
<totfact> 0.85301897E+01</totfact>
</mgrwt>
</event>
<event>
 4    2  0.3388003E-007  0.9232904E+03  0.7818608E-02  0.9489632E-01
         -2   -1    0    0    0  501 -0.00000000000E+00  0.00000000000E+00  0.47312167429E+03  0.47312167429E+03  0.25500000000E-02 0.  1.
          2   -1    0    0  501    0  0.00000000000E+00 -0.00000000000E+00 -0.15124019477E+04  0.15124019477E+04  0.25500000000E-02 0. -1.
    8880023    1    1    2    0    0  0.64570421332E+03  0.41485531521E+02 -0.25602377837E+03  0.95813013823E+03  0.65864270000E+03 0.  0.
    8880022    1    1    2    0    0 -0.64570421332E+03 -0.41485531521E+02 -0.78325649503E+03  0.10273934837E+04  0.15294330000E+03 0.  0.
<mgrwt>
<rscale>  0 0.85052534E+03</rscale>
<asrwt>0</asrwt>
<pdfrwt beam="1">  1        2 0.23267722E+00 0.92329041E+03</pdfrwt>
<pdfrwt beam="2">  1       -2 0.72787950E-01 0.92329041E+03</pdfrwt>
<totfact> 0.21417385E+01</totfact>
</mgrwt>
</event>
<event>
 4    2  0.3388003E-007  0.8630224E+03  0.7818608E-02  0.9588210E-01
         -2   -1    0    0    0  501 -0.00000000000E+00  0.00000000000E+00  0.41604970217E+03  0.41604970218E+03  0.25500000000E-02 0.  1.
          2   -1    0    0  501    0  0.00000000000E+00 -0.00000000000E+00 -0.13501573098E+04  0.13501573098E+04  0.25500000000E-02 0. -1.
    8880023    1    1    2    0    0  0.49619534978E+03 -0.25453424625E+03 -0.31414426503E+03  0.91841947561E+03  0.65864270000E+03 0.  1.
    8880022    1    1    2    0    0 -0.49619534978E+03  0.25453424625E+03 -0.61996334259E+03  0.84778753637E+03  0.15294330000E+03 0.  1.
<mgrwt>
<rscale>  0 0.78081489E+03</rscale>
<asrwt>0</asrwt>
<pdfrwt beam="1">  1        2 0.20771651E+00 0.86302243E+03</pdfrwt>
<pdfrwt beam="2">  1       -2 0.64007647E-01 0.86302243E+03</pdfrwt>
<totfact> 0.35203940E+01</totfact>
</mgrwt>
</event>
<event>
 4    2  0.3388003E-007  0.1162745E+04  0.7818608E-02  0.9194216E-01
         -2   -1    0    0    0  501 -0.00000000000E+00  0.00000000000E+00  0.18430196731E+04  0.18430196731E+04  0.25500000000E-02 0.  1.
          2   -1    0    0  501    0  0.00000000000E+00 -0.00000000000E+00 -0.81916975989E+03  0.81916975989E+03  0.25500000000E-02 0. -1.
    8880023    1    1    2    0    0 -0.19544093273E+03 -0.93806595400E+03  0.12056328163E+04  0.16749703240E+04  0.65864270000E+03 0.  0.
    8880022    1    1    2    0    0  0.19544093273E+03  0.93806595400E+03 -0.18178290312E+03  0.98721910898E+03  0.15294330000E+03 0.  0.
<mgrwt>
<rscale>  0 0.11113326E+04</rscale>
<asrwt>0</asrwt>
<pdfrwt beam="1">  1        2 0.12602612E+00 0.11627446E+04</pdfrwt>
<pdfrwt beam="2">  1       -2 0.28354149E+00 0.11627446E+04</pdfrwt>
<totfact> 0.13141597E+00</totfact>
</mgrwt>
</event>
<event>
 4    2  0.3388003E-007  0.6880905E+03  0.7818608E-02  0.1005074E+00
          2   -1    0    0  501    0  0.00000000000E+00  0.00000000000E+00  0.16280247338E+04  0.16280247338E+04  0.25500000000E-02 0. -1.
         -2   -1    0    0    0  501 -0.00000000000E+00 -0.00000000000E+00 -0.45238864383E+03  0.45238864383E+03  0.25500000000E-02 0.  1.
    8880023    1    1    2    0    0  0.55394909621E+02  0.19128441292E+03 -0.17226277771E+03  0.70932573158E+03  0.65864270000E+03 0.  1.
    8880022    1    1    2    0    0 -0.55394909621E+02 -0.19128441292E+03  0.13478988677E+04  0.13710876460E+04  0.15294330000E+03 0.  0.
<mgrwt>
<rscale>  0 0.53480417E+03</rscale>
<asrwt>0</asrwt>
<pdfrwt beam="1">  1        2 0.25046534E+00 0.68809049E+03</pdfrwt>
<pdfrwt beam="2">  1       -2 0.69598253E-01 0.68809049E+03</pdfrwt>
<totfact> 0.20950723E+01</totfact>
</mgrwt>
</event>
<event>
 4    2  0.3388003E-007  0.7229033E+03  0.7818608E-02  0.9912882E-01
         -2   -1    0    0    0  501 -0.00000000000E+00  0.00000000000E+00  0.65203770655E+03  0.65203770656E+03  0.25500000000E-02 0.  1.
          2   -1    0    0  501    0  0.00000000000E+00 -0.00000000000E+00 -0.18546259128E+04  0.18546259128E+04  0.25500000000E-02 0. -1.
    8880023    1    1    2    0    0  0.20202831365E+03 -0.21900582935E+03  0.42929691324E+03  0.84076455609E+03  0.65864270000E+03 0.  1.
    8880022    1    1    2    0    0 -0.20202831365E+03  0.21900582935E+03 -0.16318851195E+04  0.16658990633E+04  0.15294330000E+03 0.  0.
<mgrwt>
<rscale>  0 0.59641020E+03</rscale>
<asrwt>0</asrwt>
<pdfrwt beam="1">  1        2 0.28532706E+00 0.72290331E+03</pdfrwt>
<pdfrwt beam="2">  1       -2 0.10031349E+00 0.72290331E+03</pdfrwt>
<totfact> 0.68399036E+00</totfact>
</mgrwt>
</event>
<event>
 4    2  0.3388003E-007  0.9842486E+03  0.7818608E-02  0.9402462E-01
          2   -1    0    0  501    0  0.00000000000E+00  0.00000000000E+00  0.11540383527E+04  0.11540383527E+04  0.25500000000E-02 0. -1.
         -2   -1    0    0    0  501 -0.00000000000E+00 -0.00000000000E+00 -0.84123520959E+03  0.84123520959E+03  0.25500000000E-02 0.  1.
    8880023    1    1    2    0    0 -0.31119967191E+03 -0.66188359721E+03 -0.29995525686E+03  0.10289404718E+04  0.65864270000E+03 0.  0.
    8880022    1    1    2    0    0  0.31119967191E+03  0.66188359721E+03  0.61275839994E+03  0.96633309049E+03  0.15294330000E+03 0.  0.
<mgrwt>
<rscale>  0 0.91873374E+03</rscale>
<asrwt>0</asrwt>
<pdfrwt beam="1">  1        2 0.17754436E+00 0.98424862E+03</pdfrwt>
<pdfrwt beam="2">  1       -2 0.12942080E+00 0.98424862E+03</pdfrwt>
<totfact> 0.88103690E+00</totfact>
</mgrwt>
</event>
<event>
 4    2  0.3388003E-007  0.8613388E+03  0.7818608E-02  0.9591186E-01
         -2   -1    0    0    0  501 -0.00000000000E+00  0.00000000000E+00  0.38592021806E+03  0.38592021807E+03  0.25500000000E-02 0.  1.
          2   -1    0    0  501    0  0.00000000000E+00 -0.00000000000E+00 -0.34313954400E+04  0.34313954400E+04  0.25500000000E-02 0. -1.
    8880023    1    1    2    0    0  0.29032172341E+03  0.47308312710E+03 -0.16139574592E+03  0.87632935663E+03  0.65864270000E+03 0.  1.
    8880022    1    1    2    0    0 -0.29032172341E+03 -0.47308312710E+03 -0.28840794760E+04  0.29409863015E+04  0.15294330000E+03 0.  0.
<mgrwt>
<rscale>  0 0.77882281E+03</rscale>
<asrwt>0</asrwt>
<pdfrwt beam="1">  1        2 0.52790697E+00 0.86133882E+03</pdfrwt>
<pdfrwt beam="2">  1       -2 0.59372344E-01 0.86133882E+03</pdfrwt>
<totfact> 0.25460925E+00</totfact>
</mgrwt>
</event>
<event>
 4    2  0.3388003E-007  0.9505557E+03  0.7818608E-02  0.9449315E-01
         -2   -1    0    0    0  501 -0.00000000000E+00  0.00000000000E+00  0.76402009733E+03  0.76402009734E+03  0.25500000000E-02 0.  1.
          2   -1    0    0  501    0  0.00000000000E+00 -0.00000000000E+00 -0.15436930362E+04  0.15436930362E+04  0.25500000000E-02 0. -1.
    8880023    1    1    2    0    0 -0.65191537033E+03 -0.21154742461E+03  0.31997588830E+03  0.10029659707E+04  0.65864270000E+03 0.  1.
    8880022    1    1    2    0    0  0.65191537033E+03  0.21154742461E+03 -0.10996488272E+04  0.13047471629E+04  0.15294330000E+03 0.  0.
<mgrwt>
<rscale>  0 0.88126029E+03</rscale>
<asrwt>0</asrwt>
<pdfrwt beam="1">  1        2 0.23749123E+00 0.95055572E+03</pdfrwt>
<pdfrwt beam="2">  1       -2 0.11754155E+00 0.95055572E+03</pdfrwt>
<totfact> 0.67029135E+00</totfact>
</mgrwt>
</event>
<event>
 4    2  0.3388003E-007  0.1104073E+04  0.7818608E-02  0.9256535E-01
          2   -1    0    0  501    0  0.00000000000E+00  0.00000000000E+00  0.11750591926E+04  0.11750591926E+04  0.25500000000E-02 0. -1.
         -2   -1    0    0    0  501 -0.00000000000E+00 -0.00000000000E+00 -0.10763531482E+04  0.10763531482E+04  0.25500000000E-02 0.  1.
    8880023    1    1    2    0    0  0.54966422687E+03  0.69500756867E+03 -0.45638300825E+03  0.11946806851E+04  0.65864270000E+03 0.  0.
    8880022    1    1    2    0    0 -0.54966422687E+03 -0.69500756867E+03  0.55508905269E+03  0.10567316557E+04  0.15294330000E+03 0.  0.
<mgrwt>
<rscale>  0 0.10488470E+04</rscale>
<asrwt>0</asrwt>
<pdfrwt beam="1">  1        2 0.18077834E+00 0.11040727E+04</pdfrwt>
<pdfrwt beam="2">  1       -2 0.16559279E+00 0.11040727E+04</pdfrwt>
<totfact> 0.44080884E+00</totfact>
</mgrwt>
</event>
<event>
 4    2  0.3388003E-007  0.9933950E+03  0.7818608E-02  0.9390251E-01
         -2   -1    0    0    0  501 -0.00000000000E+00  0.00000000000E+00  0.13823703318E+04  0.13823703318E+04  0.25500000000E-02 0.  1.
          2   -1    0    0  501    0  0.00000000000E+00 -0.00000000000E+00 -0.16612544660E+04  0.16612544660E+04  0.25500000000E-02 0. -1.
    8880023    1    1    2    0    0 -0.28991032469E+03  0.68481775052E+03  0.10921863301E+04  0.14763822451E+04  0.65864270000E+03 0.  0.
    8880022    1    1    2    0    0  0.28991032469E+03 -0.68481775052E+03 -0.13710704643E+04  0.15672425527E+04  0.15294330000E+03 0.  0.
<mgrwt>
<rscale>  0 0.92882388E+03</rscale>
<asrwt>0</asrwt>
<pdfrwt beam="1">  1        2 0.25557761E+00 0.99339496E+03</pdfrwt>
<pdfrwt beam="2">  1       -2 0.21267236E+00 0.99339496E+03</pdfrwt>
<totfact> 0.11306423E+00</totfact>
</mgrwt>
</event>
<event>
 4    2  0.3388003E-007  0.9161960E+03  0.7818608E-02  0.9500516E-01
          2   -1    0    0  501    0  0.00000000000E+00  0.00000000000E+00  0.30672475938E+03  0.30672475939E+03  0.25500000000E-02 0. -1.
         -2   -1    0    0    0  501 -0.00000000000E+00 -0.00000000000E+00 -0.23564486881E+04  0.23564486881E+04  0.25500000000E-02 0.  1.
    8880023    1    1    2    0    0  0.26375375111E+03  0.57968858275E+03 -0.16733650586E+04  0.19077645871E+04  0.65864270000E+03 0.  1.
    8880022    1    1    2    0    0 -0.26375375111E+03 -0.57968858275E+03 -0.37635887007E+03  0.75540886035E+03  0.15294330000E+03 0.  0.
<mgrwt>
<rscale>  0 0.84245753E+03</rscale>
<asrwt>0</asrwt>
<pdfrwt beam="1">  1        2 0.47188426E-01 0.91619599E+03</pdfrwt>
<pdfrwt beam="2">  1       -2 0.36253056E+00 0.91619599E+03</pdfrwt>
<totfact> 0.14289509E+00</totfact>
</mgrwt>
</event>
<event>
 4    2  0.3388003E-007  0.6748368E+03  0.7818608E-02  0.1012409E+00
         -2   -1    0    0    0  501 -0.00000000000E+00  0.00000000000E+00  0.42918410390E+03  0.42918410391E+03  0.25500000000E-02 0.  1.
          2   -1    0    0  501    0  0.00000000000E+00 -0.00000000000E+00 -0.64042062443E+03  0.64042062444E+03  0.25500000000E-02 0. -1.
    8880023    1    1    2    0    0  0.65744968626E+02  0.13142330570E+03  0.11092458952E+03  0.68389250398E+03  0.65864270000E+03 0.  1.
    8880022    1    1    2    0    0 -0.65744968626E+02 -0.13142330570E+03 -0.32216111004E+03  0.38571222436E+03  0.15294330000E+03 0.  0.
<mgrwt>
<rscale>  0 0.50528209E+03</rscale>
<asrwt>0</asrwt>
<pdfrwt beam="1">  1        2 0.98526250E-01 0.67483679E+03</pdfrwt>
<pdfrwt beam="2">  1       -2 0.66028324E-01 0.67483679E+03</pdfrwt>
<totfact> 0.98239750E+01</totfact>
</mgrwt>
</event>
<event>
 4    2  0.3388003E-007  0.7026347E+03  0.7818608E-02  0.9986442E-01
         -2   -1    0    0    0  501 -0.00000000000E+00  0.00000000000E+00  0.44684293732E+03  0.44684293732E+03  0.25500000000E-02 0.  1.
          2   -1    0    0  501    0  0.00000000000E+00 -0.00000000000E+00 -0.66901833897E+03  0.66901833897E+03  0.25500000000E-02 0. -1.
    8880023    1    1    2    0    0  0.16701711701E+03 -0.17885921308E+03  0.68870500368E+02  0.70600190337E+03  0.65864270000E+03 0.  1.
    8880022    1    1    2    0    0 -0.16701711701E+03  0.17885921308E+03 -0.29104590202E+03  0.40985937293E+03  0.15294330000E+03 0. -1.
<mgrwt>
<rscale>  0 0.56248744E+03</rscale>
<asrwt>0</asrwt>
<pdfrwt beam="1">  1        2 0.10292590E+00 0.70263471E+03</pdfrwt>
<pdfrwt beam="2">  1       -2 0.68745067E-01 0.70263471E+03</pdfrwt>
<totfact> 0.85155712E+01</totfact>
</mgrwt>
</event>
<event>
 4    2  0.3910936E-007  0.7036455E+03  0.7818608E-02  0.9982401E-01
         -2   -1    0    0    0  501 -0.00000000000E+00  0.00000000000E+00  0.11263786350E+04  0.11263786350E+04  0.25500000000E-02 0.  1.
          2   -1    0    0  501    0  0.00000000000E+00 -0.00000000000E+00 -0.17780669186E+04  0.17780669186E+04  0.25500000000E-02 0. -1.
    8880023    1    1    2    0    0  0.15443911470E+03 -0.19353397682E+03  0.10025310200E+04  0.12248205961E+04  0.65864270000E+03 0.  1.
    8880022    1    1    2    0    0 -0.15443911470E+03  0.19353397682E+03 -0.16542193036E+04  0.16796249575E+04  0.15294330000E+03 0.  0.
<mgrwt>
<rscale>  0 0.56428683E+03</rscale>
<asrwt>0</asrwt>
<pdfrwt beam="1">  1        2 0.27354876E+00 0.70364554E+03</pdfrwt>
<pdfrwt beam="2">  1       -2 0.17328902E+00 0.70364554E+03</pdfrwt>
<totfact> 0.18711561E+00</totfact>
</mgrwt>
</event>
<event>
 4    2  0.3388003E-007  0.7519856E+03  0.7818608E-02  0.9826316E-01
          2   -1    0    0  501    0  0.00000000000E+00  0.00000000000E+00  0.40341434295E+03  0.40341434296E+03  0.25500000000E-02 0. -1.
         -2   -1    0    0    0  501 -0.00000000000E+00 -0.00000000000E+00 -0.88912839508E+03  0.88912839508E+03  0.25500000000E-02 0.  1.
    8880023    1    1    2    0    0  0.31441271949E+03 -0.18115412608E+03 -0.49213354609E+03  0.89870896792E+03  0.65864270000E+03 0.  1.
    8880022    1    1    2    0    0 -0.31441271949E+03  0.18115412608E+03  0.64194939680E+01  0.39383377012E+03  0.15294330000E+03 0.  0.
<mgrwt>
<rscale>  0 0.63969207E+03</rscale>
<asrwt>0</asrwt>
<pdfrwt beam="1">  1        2 0.62063745E-01 0.75198563E+03</pdfrwt>
<pdfrwt beam="2">  1       -2 0.13678898E+00 0.75198563E+03</pdfrwt>
<totfact> 0.30398665E+01</totfact>
</mgrwt>
</event>
<event>
 4    2  0.3388003E-007  0.7385637E+03  0.7818608E-02  0.9864151E-01
          2   -1    0    0  501    0  0.00000000000E+00  0.00000000000E+00  0.10497093189E+04  0.10497093189E+04  0.25500000000E-02 0. -1.
         -2   -1    0    0    0  501 -0.00000000000E+00 -0.00000000000E+00 -0.29479807876E+03  0.29479807877E+03  0.25500000000E-02 0.  1.
    8880023    1    1    2    0    0 -0.17766993093E+03  0.28301850638E+03  0.57103087121E+03  0.93356978392E+03  0.65864270000E+03 0.  1.
    8880022    1    1    2    0    0  0.17766993093E+03 -0.28301850638E+03  0.18388036893E+03  0.41093761376E+03  0.15294330000E+03 0. -1.
<mgrwt>
<rscale>  0 0.62030586E+03</rscale>
<asrwt>0</asrwt>
<pdfrwt beam="1">  1        2 0.16149374E+00 0.73856366E+03</pdfrwt>
<pdfrwt beam="2">  1       -2 0.45353551E-01 0.73856366E+03</pdfrwt>
<totfact> 0.10951525E+02</totfact>
</mgrwt>
</event>
<event>
 4    2  0.3388003E-007  0.8108203E+03  0.7818608E-02  0.9687871E-01
         -2   -1    0    0    0  501 -0.00000000000E+00  0.00000000000E+00  0.28041085495E+03  0.28041085496E+03  0.25500000000E-02 0.  1.
          2   -1    0    0  501    0  0.00000000000E+00 -0.00000000000E+00 -0.16155721135E+04  0.16155721135E+04  0.25500000000E-02 0. -1.
    8880023    1    1    2    0    0 -0.17056440322E+03  0.44105221966E+03 -0.60038936752E+03  0.10089087545E+04  0.65864270000E+03 0.  0.
    8880022    1    1    2    0    0  0.17056440322E+03 -0.44105221966E+03 -0.73477189100E+03  0.88707421388E+03  0.15294330000E+03 0.  0.
<mgrwt>
<rscale>  0 0.71743566E+03</rscale>
<asrwt>0</asrwt>
<pdfrwt beam="1">  1        2 0.24854955E+00 0.81082025E+03</pdfrwt>
<pdfrwt beam="2">  1       -2 0.43140133E-01 0.81082025E+03</pdfrwt>
<totfact> 0.56607717E+01</totfact>
</mgrwt>
</event>
<event>
 4    2  0.3388003E-007  0.8485171E+03  0.7818608E-02  0.9614325E-01
         -2   -1    0    0    0  501 -0.00000000000E+00  0.00000000000E+00  0.39874896195E+03  0.39874896196E+03  0.25500000000E-02 0.  1.
          2   -1    0    0  501    0  0.00000000000E+00 -0.00000000000E+00 -0.17909096385E+04  0.17909096385E+04  0.25500000000E-02 0. -1.
    8880023    1    1    2    0    0 -0.30337325717E+03 -0.44060837985E+03 -0.19663074427E+03  0.87100225798E+03  0.65864270000E+03 0.  1.
    8880022    1    1    2    0    0  0.30337325717E+03  0.44060837985E+03 -0.11955299322E+04  0.13186563424E+04  0.15294330000E+03 0.  0.
<mgrwt>
<rscale>  0 0.76355273E+03</rscale>
<asrwt>0</asrwt>
<pdfrwt beam="1">  1        2 0.27552455E+00 0.84851711E+03</pdfrwt>
<pdfrwt beam="2">  1       -2 0.61345995E-01 0.84851711E+03</pdfrwt>
<totfact> 0.21937504E+01</totfact>
</mgrwt>
</event>
<event>
 4    2  0.3388003E-007  0.6812032E+03  0.7818608E-02  0.1008651E+00
         -2   -1    0    0    0  501 -0.00000000000E+00  0.00000000000E+00  0.41813286194E+03  0.41813286195E+03  0.25500000000E-02 0.  1.
          2   -1    0    0  501    0  0.00000000000E+00 -0.00000000000E+00 -0.14214514089E+04  0.14214514089E+04  0.25500000000E-02 0. -1.
    8880023    1    1    2    0    0  0.12213892072E+03  0.12373225407E+03  0.12082843397E+03  0.69183618247E+03  0.65864270000E+03 0.  0.
    8880022    1    1    2    0    0 -0.12213892072E+03 -0.12373225407E+03 -0.11241469809E+04  0.11477480884E+04  0.15294330000E+03 0. -1.
<mgrwt>
<rscale>  0 0.52014280E+03</rscale>
<asrwt>0</asrwt>
<pdfrwt beam="1">  1        2 0.21868483E+00 0.68120320E+03</pdfrwt>
<pdfrwt beam="2">  1       -2 0.64328133E-01 0.68120320E+03</pdfrwt>
<totfact> 0.32348655E+01</totfact>
</mgrwt>
</event>
<event>
 4    2  0.3388003E-007  0.1028893E+04  0.7818608E-02  0.9344696E-01
          2   -1    0    0  501    0  0.00000000000E+00  0.00000000000E+00  0.12837582493E+04  0.12837582493E+04  0.25500000000E-02 0. -1.
         -2   -1    0    0    0  501 -0.00000000000E+00 -0.00000000000E+00 -0.74955019807E+03  0.74955019807E+03  0.25500000000E-02 0.  1.
    8880023    1    1    2    0    0 -0.54777865132E+03 -0.56986807552E+03 -0.63093009634E+02  0.10308258866E+04  0.65864270000E+03 0.  1.
    8880022    1    1    2    0    0  0.54777865132E+03  0.56986807552E+03  0.59730106087E+03  0.10024825608E+04  0.15294330000E+03 0. -1.
<mgrwt>
<rscale>  0 0.96770189E+03</rscale>
<asrwt>0</asrwt>
<pdfrwt beam="1">  1        2 0.19750127E+00 0.10288932E+04</pdfrwt>
<pdfrwt beam="2">  1       -2 0.11531541E+00 0.10288932E+04</pdfrwt>
<totfact> 0.98030957E+00</totfact>
</mgrwt>
</event>
<event>
 4    2  0.3388003E-007  0.7595528E+03  0.7818608E-02  0.9806267E-01
         -2   -1    0    0    0  501 -0.00000000000E+00  0.00000000000E+00  0.32104932141E+03  0.32104932142E+03  0.25500000000E-02 0.  1.
          2   -1    0    0  501    0  0.00000000000E+00 -0.00000000000E+00 -0.19318490227E+04  0.19318490227E+04  0.25500000000E-02 0. -1.
    8880023    1    1    2    0    0 -0.47154651025E+02 -0.37534866342E+03 -0.20165803452E+03  0.78586662316E+03  0.65864270000E+03 0.  1.
    8880022    1    1    2    0    0  0.47154651025E+02  0.37534866342E+03 -0.14091416668E+04  0.14670317210E+04  0.15294330000E+03 0.  0.
<mgrwt>
<rscale>  0 0.65027317E+03</rscale>
<asrwt>0</asrwt>
<pdfrwt beam="1">  1        2 0.29720753E+00 0.75955275E+03</pdfrwt>
<pdfrwt beam="2">  1       -2 0.49392205E-01 0.75955275E+03</pdfrwt>
<totfact> 0.29135507E+01</totfact>
</mgrwt>
</event>
<event>
 4    2  0.3388003E-007  0.6833619E+03  0.7818608E-02  0.1007482E+00
         -2   -1    0    0    0  501 -0.00000000000E+00  0.00000000000E+00  0.11494594750E+03  0.11494594753E+03  0.25500000000E-02 0.  1.
          2   -1    0    0  501    0  0.00000000000E+00 -0.00000000000E+00 -0.22123163976E+04  0.22123163976E+04  0.25500000000E-02 0. -1.
    8880023    1    1    2    0    0  0.44411245863E+02 -0.17663775046E+03 -0.10468163937E+04  0.12501232028E+04  0.65864270000E+03 0.  1.
    8880022    1    1    2    0    0 -0.44411245863E+02  0.17663775046E+03 -0.10505540563E+04  0.10771391423E+04  0.15294330000E+03 0.  0.
<mgrwt>
<rscale>  0 0.52487568E+03</rscale>
<asrwt>0</asrwt>
<pdfrwt beam="1">  1        2 0.34035634E+00 0.68336188E+03</pdfrwt>
<pdfrwt beam="2">  1       -2 0.17683994E-01 0.68336188E+03</pdfrwt>
<totfact> 0.13938024E+02</totfact>
</mgrwt>
</event>
<event>
 4    2  0.3388003E-007  0.8746458E+03  0.7818608E-02  0.9568024E-01
          2   -1    0    0  501    0  0.00000000000E+00  0.00000000000E+00  0.34409768187E+04  0.34409768187E+04  0.25500000000E-02 0. -1.
         -2   -1    0    0    0  501 -0.00000000000E+00 -0.00000000000E+00 -0.28122212653E+03  0.28122212654E+03  0.25500000000E-02 0.  1.
    8880023    1    1    2    0    0  0.57549279526E+03 -0.17732756903E+01  0.52309494708E+03  0.10191337654E+04  0.65864270000E+03 0.  1.
    8880022    1    1    2    0    0 -0.57549279526E+03  0.17732756903E+01  0.26366597451E+04  0.27030651798E+04  0.15294330000E+03 0.  0.
<mgrwt>
<rscale>  0 0.79449191E+03</rscale>
<asrwt>0</asrwt>
<pdfrwt beam="1">  1        2 0.52938107E+00 0.87464582E+03</pdfrwt>
<pdfrwt beam="2">  1       -2 0.43264941E-01 0.87464582E+03</pdfrwt>
<totfact> 0.47820880E+00</totfact>
</mgrwt>
</event>
<event>
 4    2  0.3388003E-007  0.8497399E+03  0.7818608E-02  0.9612081E-01
         -2   -1    0    0    0  501 -0.00000000000E+00  0.00000000000E+00  0.70844946889E+03  0.70844946889E+03  0.25500000000E-02 0.  1.
          2   -1    0    0  501    0  0.00000000000E+00 -0.00000000000E+00 -0.11150883523E+04  0.11150883523E+04  0.25500000000E-02 0. -1.
    8880023    1    1    2    0    0  0.46175372731E+03  0.27391821939E+03  0.31931926856E+03  0.90775695929E+03  0.65864270000E+03 0.  1.
    8880022    1    1    2    0    0 -0.46175372731E+03 -0.27391821939E+03 -0.72595815193E+03  0.91578086187E+03  0.15294330000E+03 0.  0.
<mgrwt>
<rscale>  0 0.76501693E+03</rscale>
<asrwt>0</asrwt>
<pdfrwt beam="1">  1        2 0.17155205E+00 0.84973990E+03</pdfrwt>
<pdfrwt beam="2">  1       -2 0.10899223E+00 0.84973990E+03</pdfrwt>
<totfact> 0.14431611E+01</totfact>
</mgrwt>
</event>
<event>
 4    2  0.3388003E-007  0.7023468E+03  0.7818608E-02  0.9987602E-01
         -2   -1    0    0    0  501 -0.00000000000E+00  0.00000000000E+00  0.16965543958E+03  0.16965543960E+03  0.25500000000E-02 0.  1.
          2   -1    0    0  501    0  0.00000000000E+00 -0.00000000000E+00 -0.25423525267E+04  0.25423525267E+04  0.25500000000E-02 0. -1.
    8880023    1    1    2    0    0  0.24358978399E+03  0.12032368390E+02 -0.62316283407E+03  0.93894775402E+03  0.65864270000E+03 0.  1.
    8880022    1    1    2    0    0 -0.24358978399E+03 -0.12032368390E+02 -0.17495342531E+04  0.17730602123E+04  0.15294330000E+03 0.  0.
<mgrwt>
<rscale>  0 0.56197233E+03</rscale>
<asrwt>0</asrwt>
<pdfrwt beam="1">  1        2 0.39113113E+00 0.70234676E+03</pdfrwt>
<pdfrwt beam="2">  1       -2 0.26100839E-01 0.70234676E+03</pdfrwt>
<totfact> 0.45743409E+01</totfact>
</mgrwt>
</event>
<event>
 4    2  0.3388003E-007  0.9814475E+03  0.7818608E-02  0.9406243E-01
          2   -1    0    0  501    0  0.00000000000E+00  0.00000000000E+00  0.11786046926E+04  0.11786046926E+04  0.25500000000E-02 0. -1.
         -2   -1    0    0    0  501 -0.00000000000E+00 -0.00000000000E+00 -0.63219007263E+03  0.63219007264E+03  0.25500000000E-02 0.  1.
    8880023    1    1    2    0    0 -0.11203340488E+03 -0.71894193237E+03  0.34718672036E+03  0.10410464980E+04  0.65864270000E+03 0. -1.
    8880022    1    1    2    0    0  0.11203340488E+03  0.71894193237E+03  0.19922789961E+03  0.76974826725E+03  0.15294330000E+03 0.  1.
<mgrwt>
<rscale>  0 0.91563700E+03</rscale>
<asrwt>0</asrwt>
<pdfrwt beam="1">  1        2 0.18132380E+00 0.98144750E+03</pdfrwt>
<pdfrwt beam="2">  1       -2 0.97260012E-01 0.98144750E+03</pdfrwt>
<totfact> 0.17136795E+01</totfact>
</mgrwt>
</event>
<event>
 4    2  0.3388003E-007  0.6679791E+03  0.7818608E-02  0.1017155E+00
          2   -1    0    0  501    0  0.00000000000E+00  0.00000000000E+00  0.11882178120E+04  0.11882178120E+04  0.25500000000E-02 0. -1.
         -2   -1    0    0    0  501 -0.00000000000E+00 -0.00000000000E+00 -0.28702573005E+03  0.28702573006E+03  0.25500000000E-02 0.  1.
    8880023    1    1    2    0    0 -0.72486154647E+01  0.11105556343E+03  0.12912617479E+03  0.68034524756E+03  0.65864270000E+03 0.  1.
    8880022    1    1    2    0    0  0.72486154647E+01 -0.11105556343E+03  0.77206590716E+03  0.79489829451E+03  0.15294330000E+03 0.  0.
<mgrwt>
<rscale>  0 0.48727425E+03</rscale>
<asrwt>0</asrwt>
<pdfrwt beam="1">  1        2 0.18280274E+00 0.66797911E+03</pdfrwt>
<pdfrwt beam="2">  1       -2 0.44157805E-01 0.66797911E+03</pdfrwt>
<totfact> 0.95729705E+01</totfact>
</mgrwt>
</event>
<event>
 4    2  0.3388003E-007  0.6615749E+03  0.7818608E-02  0.1022598E+00
         -2   -1    0    0    0  501 -0.00000000000E+00  0.00000000000E+00  0.69646274731E+03  0.69646274732E+03  0.25500000000E-02 0.  1.
          2   -1    0    0  501    0  0.00000000000E+00 -0.00000000000E+00 -0.39812083110E+03  0.39812083110E+03  0.25500000000E-02 0. -1.
    8880023    1    1    2    0    0  0.50547711223E+02 -0.36277393711E+02  0.50339470226E+03  0.83131675848E+03  0.65864270000E+03 0.  1.
    8880022    1    1    2    0    0 -0.50547711223E+02  0.36277393711E+02 -0.20505278604E+03  0.26326681994E+03  0.15294330000E+03 0.  0.
<mgrwt>
<rscale>  0 0.46760647E+03</rscale>
<asrwt>0</asrwt>
<pdfrwt beam="1">  1        2 0.61249359E-01 0.66157488E+03</pdfrwt>
<pdfrwt beam="2">  1       -2 0.10714811E+00 0.66157488E+03</pdfrwt>
<totfact> 0.56906247E+01</totfact>
</mgrwt>
</event>
<event>
 4    2  0.3388003E-007  0.7873596E+03  0.7818608E-02  0.9738825E-01
          2   -1    0    0  501    0  0.00000000000E+00  0.00000000000E+00  0.15065791341E+04  0.15065791341E+04  0.25500000000E-02 0. -1.
         -2   -1    0    0    0  501 -0.00000000000E+00 -0.00000000000E+00 -0.99390523018E+03  0.99390523018E+03  0.25500000000E-02 0.  1.
    8880023    1    1    2    0    0  0.86987554729E+02 -0.42256128511E+03 -0.79264412671E+03  0.11172375720E+04  0.65864270000E+03 0.  1.
    8880022    1    1    2    0    0 -0.86987554729E+02  0.42256128511E+03  0.13053180306E+04  0.13832467923E+04  0.15294330000E+03 0.  0.
<mgrwt>
<rscale>  0 0.68751490E+03</rscale>
<asrwt>0</asrwt>
<pdfrwt beam="1">  1        2 0.23178141E+00 0.78735956E+03</pdfrwt>
<pdfrwt beam="2">  1       -2 0.15290850E+00 0.78735956E+03</pdfrwt>
<totfact> 0.36584338E+00</totfact>
</mgrwt>
</event>
<event>
 4    2  0.3388003E-007  0.6632503E+03  0.7818608E-02  0.1021049E+00
         -2   -1    0    0    0  501 -0.00000000000E+00  0.00000000000E+00  0.61013830809E+03  0.61013830809E+03  0.25500000000E-02 0.  1.
          2   -1    0    0  501    0  0.00000000000E+00 -0.00000000000E+00 -0.67116928931E+03  0.67116928931E+03  0.25500000000E-02 0. -1.
    8880023    1    1    2    0    0 -0.36378343676E+02  0.69046581829E+02  0.41014505552E+03  0.77982048395E+03  0.65864270000E+03 0.  1.
    8880022    1    1    2    0    0  0.36378343676E+02 -0.69046581829E+02 -0.47117603674E+03  0.50148711346E+03  0.15294330000E+03 0.  0.
<mgrwt>
<rscale>  0 0.47310070E+03</rscale>
<asrwt>0</asrwt>
<pdfrwt beam="1">  1        2 0.10325681E+00 0.66325035E+03</pdfrwt>
<pdfrwt beam="2">  1       -2 0.93867432E-01 0.66325035E+03</pdfrwt>
<totfact> 0.42243391E+01</totfact>
</mgrwt>
</event>
<event>
 4    2  0.3388003E-007  0.9592312E+03  0.7818608E-02  0.9436955E-01
         -2   -1    0    0    0  501 -0.00000000000E+00  0.00000000000E+00  0.44043515558E+03  0.44043515559E+03  0.25500000000E-02 0.  1.
          2   -1    0    0  501    0  0.00000000000E+00 -0.00000000000E+00 -0.19044472607E+04  0.19044472607E+04  0.25500000000E-02 0. -1.
    8880023    1    1    2    0    0 -0.58590686065E+03  0.37818972259E+03 -0.34871683610E+03  0.10206507501E+04  0.65864270000E+03 0.  1.
    8880022    1    1    2    0    0  0.58590686065E+03 -0.37818972259E+03 -0.11152952690E+04  0.13242316662E+04  0.15294330000E+03 0.  0.
<mgrwt>
<rscale>  0 0.89095843E+03</rscale>
<asrwt>0</asrwt>
<pdfrwt beam="1">  1        2 0.29299188E+00 0.95923121E+03</pdfrwt>
<pdfrwt beam="2">  1       -2 0.67759256E-01 0.95923121E+03</pdfrwt>
<totfact> 0.15161291E+01</totfact>
</mgrwt>
</event>
<event>
 4    2  0.3388003E-007  0.7862068E+03  0.7818608E-02  0.9741454E-01
          2   -1    0    0  501    0  0.00000000000E+00  0.00000000000E+00  0.10465881879E+04  0.10465881879E+04  0.25500000000E-02 0. -1.
         -2   -1    0    0    0  501 -0.00000000000E+00 -0.00000000000E+00 -0.39466631164E+03  0.39466631165E+03  0.25500000000E-02 0.  1.
    8880023    1    1    2    0    0  0.42515110873E+03  0.59643882784E+02  0.22742812192E+03  0.81844035513E+03  0.65864270000E+03 0.  1.
    8880022    1    1    2    0    0 -0.42515110873E+03 -0.59643882784E+02  0.42449375436E+03  0.62281414444E+03  0.15294330000E+03 0. -1.
<mgrwt>
<rscale>  0 0.68601371E+03</rscale>
<asrwt>0</asrwt>
<pdfrwt beam="1">  1        2 0.16101356E+00 0.78620676E+03</pdfrwt>
<pdfrwt beam="2">  1       -2 0.60717895E-01 0.78620676E+03</pdfrwt>
<totfact> 0.60152877E+01</totfact>
</mgrwt>
</event>
<event>
 4    2  0.3388003E-007  0.6867252E+03  0.7818608E-02  0.1005750E+00
          2   -1    0    0  501    0  0.00000000000E+00  0.00000000000E+00  0.11562233176E+04  0.11562233176E+04  0.25500000000E-02 0. -1.
         -2   -1    0    0    0  501 -0.00000000000E+00 -0.00000000000E+00 -0.37482432793E+03  0.37482432793E+03  0.25500000000E-02 0.  1.
    8880023    1    1    2    0    0  0.17061153543E+03  0.93128811704E+02 -0.25394127848E+02  0.68719454275E+03  0.65864270000E+03 0.  1.
    8880022    1    1    2    0    0 -0.17061153543E+03 -0.93128811704E+02  0.80679311755E+03  0.84385310281E+03  0.15294330000E+03 0.  0.
<mgrwt>
<rscale>  0 0.53199449E+03</rscale>
<asrwt>0</asrwt>
<pdfrwt beam="1">  1        2 0.17788051E+00 0.68672518E+03</pdfrwt>
<pdfrwt beam="2">  1       -2 0.57665282E-01 0.68672518E+03</pdfrwt>
<totfact> 0.57973795E+01</totfact>
</mgrwt>
</event>
<event>
 4    2  0.3388003E-007  0.7885647E+03  0.7818608E-02  0.9736090E-01
          2   -1    0    0  501    0  0.00000000000E+00  0.00000000000E+00  0.19139848201E+04  0.19139848201E+04  0.25500000000E-02 0. -1.
         -2   -1    0    0    0  501 -0.00000000000E+00 -0.00000000000E+00 -0.55986176680E+03  0.55986176680E+03  0.25500000000E-02 0.  1.
    8880023    1    1    2    0    0 -0.20802621307E+03 -0.38045910831E+03 -0.23235240763E+03  0.82208386800E+03  0.65864270000E+03 0.  1.
    8880022    1    1    2    0    0  0.20802621307E+03  0.38045910831E+03  0.15864754610E+04  0.16517627189E+04  0.15294330000E+03 0.  0.
<mgrwt>
<rscale>  0 0.68908079E+03</rscale>
<asrwt>0</asrwt>
<pdfrwt beam="1">  1        2 0.29445921E+00 0.78856467E+03</pdfrwt>
<pdfrwt beam="2">  1       -2 0.86132579E-01 0.78856467E+03</pdfrwt>
<totfact> 0.89607140E+00</totfact>
</mgrwt>
</event>
<event>
 4    2  0.3388003E-007  0.1691802E+04  0.7818608E-02  0.8784874E-01
         -2   -1    0    0    0  501 -0.00000000000E+00  0.00000000000E+00  0.12223707635E+04  0.12223707635E+04  0.25500000000E-02 0.  1.
          2   -1    0    0  501    0  0.00000000000E+00 -0.00000000000E+00 -0.31412302170E+04  0.31412302170E+04  0.25500000000E-02 0. -1.
    8880023    1    1    2    0    0  0.15536497386E+04 -0.12064448147E+03 -0.21973826507E+04  0.27732081280E+04  0.65864270000E+03 0.  0.
    8880022    1    1    2    0    0 -0.15536497386E+04  0.12064448147E+03  0.27852319714E+03  0.15903928525E+04  0.15294330000E+03 0.  0.
<mgrwt>
<rscale>  0 0.16593849E+04</rscale>
<asrwt>0</asrwt>
<pdfrwt beam="1">  1        2 0.48326618E+00 0.16918016E+04</pdfrwt>
<pdfrwt beam="2">  1       -2 0.18805704E+00 0.16918016E+04</pdfrwt>
<totfact> 0.20892613E-01</totfact>
</mgrwt>
</event>
<event>
 4    2  0.3388003E-007  0.6807014E+03  0.7818608E-02  0.1008930E+00
         -2   -1    0    0    0  501 -0.00000000000E+00  0.00000000000E+00  0.14153284619E+04  0.14153284619E+04  0.25500000000E-02 0.  1.
          2   -1    0    0  501    0  0.00000000000E+00 -0.00000000000E+00 -0.65741212785E+03  0.65741212786E+03  0.25500000000E-02 0. -1.
    8880023    1    1    2    0    0  0.10906704508E+03 -0.13284798254E+03  0.13090806922E+04  0.14754818439E+04  0.65864270000E+03 0.  1.
    8880022    1    1    2    0    0 -0.10906704508E+03  0.13284798254E+03 -0.55116435814E+03  0.59725874585E+03  0.15294330000E+03 0.  0.
<mgrwt>
<rscale>  0 0.51902256E+03</rscale>
<asrwt>0</asrwt>
<pdfrwt beam="1">  1        2 0.10114033E+00 0.68070141E+03</pdfrwt>
<pdfrwt beam="2">  1       -2 0.21774284E+00 0.68070141E+03</pdfrwt>
<totfact> 0.46807539E+00</totfact>
</mgrwt>
</event>
<event>
 4    2  0.3388003E-007  0.9131359E+03  0.7818608E-02  0.9505265E-01
         -2   -1    0    0    0  501 -0.00000000000E+00  0.00000000000E+00  0.45398973738E+03  0.45398973738E+03  0.25500000000E-02 0.  1.
          2   -1    0    0  501    0  0.00000000000E+00 -0.00000000000E+00 -0.16681011843E+04  0.16681011843E+04  0.25500000000E-02 0. -1.
    8880023    1    1    2    0    0 -0.12135438783E+03 -0.62070933155E+03 -0.11497209485E+04  0.14682218590E+04  0.65864270000E+03 0.  0.
    8880022    1    1    2    0    0  0.12135438783E+03  0.62070933155E+03 -0.64390498392E+02  0.65386906260E+03  0.15294330000E+03 0.  0.
<mgrwt>
<rscale>  0 0.83896770E+03</rscale>
<asrwt>0</asrwt>
<pdfrwt beam="1">  1        2 0.25663095E+00 0.91313590E+03</pdfrwt>
<pdfrwt beam="2">  1       -2 0.69844576E-01 0.91313590E+03</pdfrwt>
<totfact> 0.19236098E+01</totfact>
</mgrwt>
</event>
<event>
 4    2  0.3388003E-007  0.7077910E+03  0.7818608E-02  0.9966297E-01
          2   -1    0    0  501    0  0.00000000000E+00  0.00000000000E+00  0.14067042939E+04  0.14067042939E+04  0.25500000000E-02 0. -1.
         -2   -1    0    0    0  501 -0.00000000000E+00 -0.00000000000E+00 -0.41657497345E+03  0.41657497346E+03  0.25500000000E-02 0.  1.
    8880023    1    1    2    0    0 -0.16646608975E+03 -0.19861264254E+03 -0.79394325415E+02  0.71223002323E+03  0.65864270000E+03 0.  1.
    8880022    1    1    2    0    0  0.16646608975E+03  0.19861264254E+03  0.10695236459E+04  0.11110492441E+04  0.15294330000E+03 0.  0.
<mgrwt>
<rscale>  0 0.57153076E+03</rscale>
<asrwt>0</asrwt>
<pdfrwt beam="1">  1        2 0.21641604E+00 0.70779103E+03</pdfrwt>
<pdfrwt beam="2">  1       -2 0.64088458E-01 0.70779103E+03</pdfrwt>
<totfact> 0.33131371E+01</totfact>
</mgrwt>
</event>
<event>
 4    2  0.3388003E-007  0.6785440E+03  0.7818608E-02  0.1010160E+00
         -2   -1    0    0    0  501 -0.00000000000E+00  0.00000000000E+00  0.99409702269E+02  0.99409702302E+02  0.25500000000E-02 0.  1.
          2   -1    0    0  501    0  0.00000000000E+00 -0.00000000000E+00 -0.27865643794E+04  0.27865643794E+04  0.25500000000E-02 0. -1.
    8880023    1    1    2    0    0 -0.23977658074E+02 -0.16135922899E+03 -0.11707703538E+04  0.13531907317E+04  0.65864270000E+03 0.  1.
    8880022    1    1    2    0    0  0.23977658074E+02  0.16135922899E+03 -0.15163843233E+04  0.15327833499E+04  0.15294330000E+03 0.  0.
<mgrwt>
<rscale>  0 0.51411281E+03</rscale>
<asrwt>0</asrwt>
<pdfrwt beam="1">  1        2 0.42870215E+00 0.67854398E+03</pdfrwt>
<pdfrwt beam="2">  1       -2 0.15293802E-01 0.67854398E+03</pdfrwt>
<totfact> 0.84477450E+01</totfact>
</mgrwt>
</event>
<event>
 4    2  0.3388003E-007  0.8788274E+03  0.7818608E-02  0.9560913E-01
          2   -1    0    0  501    0  0.00000000000E+00  0.00000000000E+00  0.22109861264E+04  0.22109861264E+04  0.25500000000E-02 0. -1.
         -2   -1    0    0    0  501 -0.00000000000E+00 -0.00000000000E+00 -0.43546984663E+03  0.43546984664E+03  0.25500000000E-02 0.  1.
    8880023    1    1    2    0    0 -0.27055920343E+03  0.51509722717E+03  0.18422857088E+04  0.20411649309E+04  0.65864270000E+03 0. -1.
    8880022    1    1    2    0    0  0.27055920343E+03 -0.51509722717E+03 -0.66769429061E+02  0.60529104211E+03  0.15294330000E+03 0.  0.
<mgrwt>
<rscale>  0 0.79938158E+03</rscale>
<asrwt>0</asrwt>
<pdfrwt beam="1">  1        2 0.34015171E+00 0.87882742E+03</pdfrwt>
<pdfrwt beam="2">  1       -2 0.66995361E-01 0.87882742E+03</pdfrwt>
<totfact> 0.10634398E+01</totfact>
</mgrwt>
</event>
<event>
 4    2  0.3388003E-007  0.1026058E+04  0.7818608E-02  0.9348233E-01
         -2   -1    0    0    0  501 -0.00000000000E+00  0.00000000000E+00  0.62075093160E+03  0.62075093160E+03  0.25500000000E-02 0.  1.
          2   -1    0    0  501    0  0.00000000000E+00 -0.00000000000E+00 -0.23968818132E+04  0.23968818132E+04  0.25500000000E-02 0. -1.
    8880023    1    1    2    0    0 -0.35034728708E+03  0.70444433313E+03  0.45928802311E+02  0.10270855374E+04  0.65864270000E+03 0.  0.
    8880022    1    1    2    0    0  0.35034728708E+03 -0.70444433313E+03 -0.18220596839E+04  0.19905472074E+04  0.15294330000E+03 0.  0.
<mgrwt>
<rscale>  0 0.96461207E+03</rscale>
<asrwt>0</asrwt>
<pdfrwt beam="1">  1        2 0.36875104E+00 0.10260581E+04</pdfrwt>
<pdfrwt beam="2">  1       -2 0.95500145E-01 0.10260581E+04</pdfrwt>
<totfact> 0.36881395E+00</totfact>
</mgrwt>
</event>
<event>
 4    2  0.3388003E-007  0.7455468E+03  0.7818608E-02  0.9844074E-01
         -2   -1    0    0    0  501 -0.00000000000E+00  0.00000000000E+00  0.56927414574E+03  0.56927414575E+03  0.25500000000E-02 0.  1.
          2   -1    0    0  501    0  0.00000000000E+00 -0.00000000000E+00 -0.10626851742E+04  0.10626851742E+04  0.25500000000E-02 0. -1.
    8880023    1    1    2    0    0 -0.33204734025E+03  0.10851010189E+03  0.25832376362E+03  0.78903184441E+03  0.65864270000E+03 0.  1.
    8880022    1    1    2    0    0  0.33204734025E+03 -0.10851010189E+03 -0.75173479205E+03  0.84292747551E+03  0.15294330000E+03 0.  0.
<mgrwt>
<rscale>  0 0.63049956E+03</rscale>
<asrwt>0</asrwt>
<pdfrwt beam="1">  1        2 0.16349003E+00 0.74554684E+03</pdfrwt>
<pdfrwt beam="2">  1       -2 0.87580638E-01 0.74554684E+03</pdfrwt>
<totfact> 0.26312856E+01</totfact>
</mgrwt>
</event>
<event>
 4    2  0.3388003E-007  0.9941218E+03  0.7818608E-02  0.9389289E-01
          2   -1    0    0  501    0  0.00000000000E+00  0.00000000000E+00  0.12134454340E+04  0.12134454340E+04  0.25500000000E-02 0. -1.
         -2   -1    0    0    0  501 -0.00000000000E+00 -0.00000000000E+00 -0.69625613094E+03  0.69625613094E+03  0.25500000000E-02 0.  1.
    8880023    1    1    2    0    0 -0.42601327793E+03 -0.61072138041E+03  0.57308691670E+03  0.11474784259E+04  0.65864270000E+03 0.  0.
    8880022    1    1    2    0    0  0.42601327793E+03  0.61072138041E+03 -0.55897613677E+02  0.76222313905E+03  0.15294330000E+03 0. -1.
<mgrwt>
<rscale>  0 0.92962433E+03</rscale>
<asrwt>0</asrwt>
<pdfrwt beam="1">  1        2 0.18668391E+00 0.99412179E+03</pdfrwt>
<pdfrwt beam="2">  1       -2 0.10711633E+00 0.99412179E+03</pdfrwt>
<totfact> 0.12950850E+01</totfact>
</mgrwt>
</event>
<event>
 4    2  0.3388003E-007  0.6597262E+03  0.7818608E-02  0.1024439E+00
         -2   -1    0    0    0  501 -0.00000000000E+00  0.00000000000E+00  0.15074877997E+03  0.15074877999E+03  0.25500000000E-02 0.  1.
          2   -1    0    0  501    0  0.00000000000E+00 -0.00000000000E+00 -0.13051671079E+04  0.13051671079E+04  0.25500000000E-02 0. -1.
    8880023    1    1    2    0    0 -0.37787376014E+02  0.78217805471E+00 -0.64479337854E+03  0.92249509747E+03  0.65864270000E+03 0.  1.
    8880022    1    1    2    0    0  0.37787376014E+02 -0.78217805471E+00 -0.50962494936E+03  0.53342079038E+03  0.15294330000E+03 0.  0.
<mgrwt>
<rscale>  0 0.46118308E+03</rscale>
<asrwt>0</asrwt>
<pdfrwt beam="1">  1        2 0.20079493E+00 0.65972623E+03</pdfrwt>
<pdfrwt beam="2">  1       -2 0.23192121E-01 0.65972623E+03</pdfrwt>
<totfact> 0.27400234E+02</totfact>
</mgrwt>
</event>
<event>
 4    2  0.3388003E-007  0.7375522E+03  0.7818608E-02  0.9867136E-01
         -2   -1    0    0    0  501 -0.00000000000E+00  0.00000000000E+00  0.52670455654E+03  0.52670455654E+03  0.25500000000E-02 0.  1.
          2   -1    0    0  501    0  0.00000000000E+00 -0.00000000000E+00 -0.19010160125E+04  0.19010160125E+04  0.25500000000E-02 0. -1.
    8880023    1    1    2    0    0  0.32905030616E+03 -0.43576409472E+02  0.23761489026E+03  0.77488324913E+03  0.65864270000E+03 0.  1.
    8880022    1    1    2    0    0 -0.32905030616E+03  0.43576409472E+02 -0.16119263462E+04  0.16528373199E+04  0.15294330000E+03 0.  0.
<mgrwt>
<rscale>  0 0.61880813E+03</rscale>
<asrwt>0</asrwt>
<pdfrwt beam="1">  1        2 0.29246400E+00 0.73755218E+03</pdfrwt>
<pdfrwt beam="2">  1       -2 0.81031471E-01 0.73755218E+03</pdfrwt>
<totfact> 0.10539761E+01</totfact>
</mgrwt>
</event>
<event>
 4    2  0.3388003E-007  0.9002146E+03  0.7818608E-02  0.9525687E-01
          2   -1    0    0  501    0  0.00000000000E+00  0.00000000000E+00  0.14264593915E+04  0.14264593915E+04  0.25500000000E-02 0. -1.
         -2   -1    0    0    0  501 -0.00000000000E+00 -0.00000000000E+00 -0.44347974742E+03  0.44347974743E+03  0.25500000000E-02 0.  1.
    8880023    1    1    2    0    0  0.53824026014E+03 -0.29474319196E+03  0.32442892014E+03  0.95689103733E+03  0.65864270000E+03 0.  0.
    8880022    1    1    2    0    0 -0.53824026014E+03  0.29474319196E+03  0.65855072396E+03  0.91304810162E+03  0.15294330000E+03 0.  0.
<mgrwt>
<rscale>  0 0.82416215E+03</rscale>
<asrwt>0</asrwt>
<pdfrwt beam="1">  1        2 0.21945529E+00 0.90021460E+03</pdfrwt>
<pdfrwt beam="2">  1       -2 0.68227654E-01 0.90021460E+03</pdfrwt>
<totfact> 0.27651107E+01</totfact>
</mgrwt>
</event>
<event>
 4    2  0.3388003E-007  0.9050195E+03  0.7818608E-02  0.9518021E-01
         -2   -1    0    0    0  501 -0.00000000000E+00  0.00000000000E+00  0.49896357538E+03  0.49896357539E+03  0.25500000000E-02 0.  1.
          2   -1    0    0  501    0  0.00000000000E+00 -0.00000000000E+00 -0.14019724269E+04  0.14019724269E+04  0.25500000000E-02 0. -1.
    8880023    1    1    2    0    0  0.38743337937E+03  0.48491791491E+03 -0.87840484029E+03  0.12612118289E+04  0.65864270000E+03 0.  0.
    8880022    1    1    2    0    0 -0.38743337937E+03 -0.48491791491E+03 -0.24604011241E+02  0.63972417340E+03  0.15294330000E+03 0. -1.
<mgrwt>
<rscale>  0 0.82968123E+03</rscale>
<asrwt>0</asrwt>
<pdfrwt beam="1">  1        2 0.21568806E+00 0.90501945E+03</pdfrwt>
<pdfrwt beam="2">  1       -2 0.76763628E-01 0.90501945E+03</pdfrwt>
<totfact> 0.22005280E+01</totfact>
</mgrwt>
</event>
<event>
 4    2  0.3388003E-007  0.7065931E+03  0.7818608E-02  0.9970877E-01
         -2   -1    0    0    0  501 -0.00000000000E+00  0.00000000000E+00  0.22757399665E+03  0.22757399666E+03  0.25500000000E-02 0.  1.
          2   -1    0    0  501    0  0.00000000000E+00 -0.00000000000E+00 -0.21818181422E+04  0.21818181422E+04  0.25500000000E-02 0. -1.
    8880023    1    1    2    0    0 -0.10871174531E+03 -0.23161463801E+03 -0.37049468319E+03  0.79783463239E+03  0.65864270000E+03 0.  0.
    8880022    1    1    2    0    0  0.10871174531E+03  0.23161463801E+03 -0.15837494624E+04  0.16115575065E+04  0.15294330000E+03 0.  0.
<mgrwt>
<rscale>  0 0.56945894E+03</rscale>
<asrwt>0</asrwt>
<pdfrwt beam="1">  1        2 0.33566432E+00 0.70659309E+03</pdfrwt>
<pdfrwt beam="2">  1       -2 0.35011386E-01 0.70659309E+03</pdfrwt>
<totfact> 0.42110028E+01</totfact>
</mgrwt>
</event>
<event>
 4    2  0.3388003E-007  0.7487867E+03  0.7818608E-02  0.9835054E-01
         -2   -1    0    0    0  501 -0.00000000000E+00  0.00000000000E+00  0.43051687062E+03  0.43051687062E+03  0.25500000000E-02 0.  1.
          2   -1    0    0  501    0  0.00000000000E+00 -0.00000000000E+00 -0.17739872623E+04  0.17739872623E+04  0.25500000000E-02 0. -1.
    8880023    1    1    2    0    0 -0.13974824025E+03 -0.32763044318E+03  0.57407074488E+02  0.75098405869E+03  0.65864270000E+03 0.  1.
    8880022    1    1    2    0    0  0.13974824025E+03  0.32763044318E+03 -0.14008774662E+04  0.14535200743E+04  0.15294330000E+03 0.  0.
<mgrwt>
<rscale>  0 0.63514819E+03</rscale>
<asrwt>0</asrwt>
<pdfrwt beam="1">  1        2 0.27292111E+00 0.74878667E+03</pdfrwt>
<pdfrwt beam="2">  1       -2 0.66233366E-01 0.74878667E+03</pdfrwt>
<totfact> 0.19252505E+01</totfact>
</mgrwt>
</event>
<event>
 4    2  0.3388003E-007  0.8896544E+03  0.7818608E-02  0.9542848E-01
          2   -1    0    0  501    0  0.00000000000E+00  0.00000000000E+00  0.33606720256E+04  0.33606720256E+04  0.25500000000E-02 0. -1.
         -2   -1    0    0    0  501 -0.00000000000E+00 -0.00000000000E+00 -0.38390624276E+03  0.38390624277E+03  0.25500000000E-02 0.  1.
    8880023    1    1    2    0    0 -0.23521627694E+03  0.54986188612E+03  0.21581195755E+03  0.91545606013E+03  0.65864270000E+03 0.  1.
    8880022    1    1    2    0    0  0.23521627694E+03 -0.54986188612E+03  0.27609538253E+04  0.28291222083E+04  0.15294330000E+03 0.  0.
<mgrwt>
<rscale>  0 0.81197208E+03</rscale>
<asrwt>0</asrwt>
<pdfrwt beam="1">  1        2 0.51702647E+00 0.88965443E+03</pdfrwt>
<pdfrwt beam="2">  1       -2 0.59062498E-01 0.88965443E+03</pdfrwt>
<totfact> 0.28554981E+00</totfact>
</mgrwt>
</event>
<event>
 4    2  0.3388003E-007  0.9835950E+03  0.7818608E-02  0.9403342E-01
         -2   -1    0    0    0  501 -0.00000000000E+00  0.00000000000E+00  0.10774641881E+04  0.10774641882E+04  0.25500000000E-02 0.  1.
          2   -1    0    0  501    0  0.00000000000E+00 -0.00000000000E+00 -0.18458568143E+04  0.18458568143E+04  0.25500000000E-02 0. -1.
    8880023    1    1    2    0    0  0.64993241975E+03  0.33352184720E+03  0.74633751678E+03  0.12346978853E+04  0.65864270000E+03 0.  0.
    8880022    1    1    2    0    0 -0.64993241975E+03 -0.33352184720E+03 -0.15147301430E+04  0.16886231172E+04  0.15294330000E+03 0.  0.
<mgrwt>
<rscale>  0 0.91801146E+03</rscale>
<asrwt>0</asrwt>
<pdfrwt beam="1">  1        2 0.28397797E+00 0.98359503E+03</pdfrwt>
<pdfrwt beam="2">  1       -2 0.16576372E+00 0.98359503E+03</pdfrwt>
<totfact> 0.18563014E+00</totfact>
</mgrwt>
</event>
<event>
 4    2  0.3388003E-007  0.7878427E+03  0.7818608E-02  0.9737727E-01
          2   -1    0    0  501    0  0.00000000000E+00  0.00000000000E+00  0.21698785863E+04  0.21698785863E+04  0.25500000000E-02 0. -1.
         -2   -1    0    0    0  501 -0.00000000000E+00 -0.00000000000E+00 -0.46397820810E+03  0.46397820810E+03  0.25500000000E-02 0.  1.
    8880023    1    1    2    0    0  0.12742124939E+03  0.41309768271E+03 -0.78250299188E+02  0.79171913318E+03  0.65864270000E+03 0.  1.
    8880022    1    1    2    0    0 -0.12742124939E+03 -0.41309768271E+03  0.17841506774E+04  0.18421376612E+04  0.15294330000E+03 0.  0.
<mgrwt>
<rscale>  0 0.68814306E+03</rscale>
<asrwt>0</asrwt>
<pdfrwt beam="1">  1        2 0.33382748E+00 0.78784267E+03</pdfrwt>
<pdfrwt beam="2">  1       -2 0.71381262E-01 0.78784267E+03</pdfrwt>
<totfact> 0.98845638E+00</totfact>
</mgrwt>
</event>
<event>
 4    2  0.3388003E-007  0.7511976E+03  0.7818608E-02  0.9828453E-01
         -2   -1    0    0    0  501 -0.00000000000E+00  0.00000000000E+00  0.43011354324E+03  0.43011354325E+03  0.25500000000E-02 0.  1.
          2   -1    0    0  501    0  0.00000000000E+00 -0.00000000000E+00 -0.25536136252E+04  0.25536136252E+04  0.25500000000E-02 0. -1.
    8880023    1    1    2    0    0  0.35986074304E+03 -0.31429711329E+02  0.70904627184E+02  0.75453644945E+03  0.65864270000E+03 0.  1.
    8880022    1    1    2    0    0 -0.35986074304E+03  0.31429711329E+02 -0.21944047092E+04  0.22291907190E+04  0.15294330000E+03 0.  0.
<mgrwt>
<rscale>  0 0.63857679E+03</rscale>
<asrwt>0</asrwt>
<pdfrwt beam="1">  1        2 0.39286363E+00 0.75119757E+03</pdfrwt>
<pdfrwt beam="2">  1       -2 0.66171316E-01 0.75119757E+03</pdfrwt>
<totfact> 0.71505573E+00</totfact>
</mgrwt>
</event>
<event>
 4    2  0.3388003E-007  0.6719038E+03  0.7818608E-02  0.1014333E+00
         -2   -1    0    0    0  501 -0.00000000000E+00  0.00000000000E+00  0.10088807651E+03  0.10088807655E+03  0.25500000000E-02 0.  1.
          2   -1    0    0  501    0  0.00000000000E+00 -0.00000000000E+00 -0.19647120973E+04  0.19647120973E+04  0.25500000000E-02 0. -1.
    8880023    1    1    2    0    0  0.11787247837E+03  0.61242328450E+02 -0.12489204635E+04  0.14181879545E+04  0.65864270000E+03 0.  0.
    8880022    1    1    2    0    0 -0.11787247837E+03 -0.61242328450E+02 -0.61490355731E+03  0.64741221934E+03  0.15294330000E+03 0.  1.
<mgrwt>
<rscale>  0 0.49788177E+03</rscale>
<asrwt>0</asrwt>
<pdfrwt beam="1">  1        2 0.30226337E+00 0.67190383E+03</pdfrwt>
<pdfrwt beam="2">  1       -2 0.15521244E-01 0.67190383E+03</pdfrwt>
<totfact> 0.23805020E+02</totfact>
</mgrwt>
</event>
<event>
 4    2  0.3388003E-007  0.7937439E+03  0.7818608E-02  0.9724490E-01
         -2   -1    0    0    0  501 -0.00000000000E+00  0.00000000000E+00  0.47332001497E+03  0.47332001497E+03  0.25500000000E-02 0.  1.
          2   -1    0    0  501    0  0.00000000000E+00 -0.00000000000E+00 -0.35220862673E+04  0.35220862673E+04  0.25500000000E-02 0. -1.
    8880023    1    1    2    0    0 -0.27615893959E+03 -0.34634570130E+03  0.11065439826E+03  0.80141980687E+03  0.65864270000E+03 0.  0.
    8880022    1    1    2    0    0  0.27615893959E+03  0.34634570130E+03 -0.31594206506E+04  0.31939864754E+04  0.15294330000E+03 0.  0.
<mgrwt>
<rscale>  0 0.69577206E+03</rscale>
<asrwt>0</asrwt>
<pdfrwt beam="1">  1        2 0.54185941E+00 0.79374386E+03</pdfrwt>
<pdfrwt beam="2">  1       -2 0.72818466E-01 0.79374386E+03</pdfrwt>
<totfact> 0.14419635E+00</totfact>
</mgrwt>
</event>
<event>
 4    2  0.3388003E-007  0.7005698E+03  0.7818608E-02  0.9994845E-01
         -2   -1    0    0    0  501 -0.00000000000E+00  0.00000000000E+00  0.16452438005E+03  0.16452438007E+03  0.25500000000E-02 0.  1.
          2   -1    0    0  501    0  0.00000000000E+00 -0.00000000000E+00 -0.32349028912E+04  0.32349028912E+04  0.25500000000E-02 0. -1.
    8880023    1    1    2    0    0 -0.10962114188E+03  0.21206392523E+03 -0.62859118525E+03  0.94123588307E+03  0.65864270000E+03 0.  1.
    8880022    1    1    2    0    0  0.10962114188E+03 -0.21206392523E+03 -0.24417873259E+04  0.24581913882E+04  0.15294330000E+03 0.  0.
<mgrwt>
<rscale>  0 0.55876833E+03</rscale>
<asrwt>0</asrwt>
<pdfrwt beam="1">  1        2 0.49767732E+00 0.70056985E+03</pdfrwt>
<pdfrwt beam="2">  1       -2 0.25311445E-01 0.70056985E+03</pdfrwt>
<totfact> 0.18564754E+01</totfact>
</mgrwt>
</event>
<event>
 4    2  0.3388003E-007  0.6611208E+03  0.7818608E-02  0.1023036E+00
         -2   -1    0    0    0  501 -0.00000000000E+00  0.00000000000E+00  0.45247802926E+03  0.45247802927E+03  0.25500000000E-02 0.  1.
          2   -1    0    0  501    0  0.00000000000E+00 -0.00000000000E+00 -0.19890484975E+04  0.19890484975E+04  0.25500000000E-02 0. -1.
    8880023    1    1    2    0    0  0.42808318021E+02  0.37921169305E+02  0.20511107006E+03  0.69220757327E+03  0.65864270000E+03 0.  1.
    8880022    1    1    2    0    0 -0.42808318021E+02 -0.37921169305E+02 -0.17416815383E+04  0.17493189534E+04  0.15294330000E+03 0.  0.
<mgrwt>
<rscale>  0 0.46606627E+03</rscale>
<asrwt>0</asrwt>
<pdfrwt beam="1">  1        2 0.30600745E+00 0.66112085E+03</pdfrwt>
<pdfrwt beam="2">  1       -2 0.69612006E-01 0.66112085E+03</pdfrwt>
<totfact> 0.13376451E+01</totfact>
</mgrwt>
</event>
<event>
 4    2  0.3388003E-007  0.8083787E+03  0.7818608E-02  0.9692964E-01
          2   -1    0    0  501    0  0.00000000000E+00  0.00000000000E+00  0.22343694320E+04  0.22343694320E+04  0.25500000000E-02 0. -1.
         -2   -1    0    0    0  501 -0.00000000000E+00 -0.00000000000E+00 -0.44720009661E+03  0.44720009661E+03  0.25500000000E-02 0.  1.
    8880023    1    1    2    0    0 -0.34046497415E+03 -0.32210166988E+03 -0.19729830074E+02  0.80861941408E+03  0.65864270000E+03 0.  1.
    8880022    1    1    2    0    0  0.34046497415E+03  0.32210166988E+03  0.18068991655E+04  0.18729501146E+04  0.15294330000E+03 0.  0.
<mgrwt>
<rscale>  0 0.71437258E+03</rscale>
<asrwt>0</asrwt>
<pdfrwt beam="1">  1        2 0.34374914E+00 0.80837868E+03</pdfrwt>
<pdfrwt beam="2">  1       -2 0.68800015E-01 0.80837868E+03</pdfrwt>
<totfact> 0.98394339E+00</totfact>
</mgrwt>
</event>
<event>
 4    2  0.3388003E-007  0.7939023E+03  0.7818608E-02  0.9724139E-01
         -2   -1    0    0    0  501 -0.00000000000E+00  0.00000000000E+00  0.33010095389E+03  0.33010095390E+03  0.25500000000E-02 0.  1.
          2   -1    0    0  501    0  0.00000000000E+00 -0.00000000000E+00 -0.44760217606E+04  0.44760217606E+04  0.25500000000E-02 0. -1.
    8880023    1    1    2    0    0 -0.19867061672E+03 -0.39623316265E+03 -0.18191091631E+03  0.81447683876E+03  0.65864270000E+03 0.  1.
    8880022    1    1    2    0    0  0.19867061672E+03  0.39623316265E+03 -0.39640098904E+04  0.39916458758E+04  0.15294330000E+03 0. -1.
<mgrwt>
<rscale>  0 0.69597587E+03</rscale>
<asrwt>0</asrwt>
<pdfrwt beam="1">  1        2 0.68861869E+00 0.79390235E+03</pdfrwt>
<pdfrwt beam="2">  1       -2 0.50784765E-01 0.79390235E+03</pdfrwt>
<totfact> 0.53667910E-01</totfact>
</mgrwt>
</event>
<event>
 4    2  0.3388003E-007  0.1417864E+04  0.7818608E-02  0.8969924E-01
          2   -1    0    0  501    0  0.00000000000E+00  0.00000000000E+00  0.34295911497E+04  0.34295911497E+04  0.25500000000E-02 0. -1.
         -2   -1    0    0    0  501 -0.00000000000E+00 -0.00000000000E+00 -0.95061451587E+03  0.95061451587E+03  0.25500000000E-02 0.  1.
    8880023    1    1    2    0    0  0.58195072412E+03  0.11125928581E+04 -0.18626534884E+03  0.14300470271E+04  0.65864270000E+03 0.  0.
    8880022    1    1    2    0    0 -0.58195072412E+03 -0.11125928581E+04  0.26652419827E+04  0.29501586385E+04  0.15294330000E+03 0.  0.
<mgrwt>
<rscale>  0 0.13779656E+04</rscale>
<asrwt>0</asrwt>
<pdfrwt beam="1">  1        2 0.52762941E+00 0.14178645E+04</pdfrwt>
<pdfrwt beam="2">  1       -2 0.14624839E+00 0.14178645E+04</pdfrwt>
<totfact> 0.28067684E-01</totfact>
</mgrwt>
</event>
<event>
 4    2  0.3388003E-007  0.7721176E+03  0.7818608E-02  0.9774690E-01
         -2   -1    0    0    0  501 -0.00000000000E+00  0.00000000000E+00  0.37396510067E+03  0.37396510068E+03  0.25500000000E-02 0.  1.
          2   -1    0    0  501    0  0.00000000000E+00 -0.00000000000E+00 -0.30955080731E+04  0.30955080731E+04  0.25500000000E-02 0. -1.
    8880023    1    1    2    0    0 -0.12153604079E+02  0.40275013707E+03 -0.29014634886E+04  0.30024416672E+04  0.65864270000E+03 0. -1.
    8880022    1    1    2    0    0  0.12153604079E+02 -0.40275013707E+03  0.17992051616E+03  0.46703150660E+03  0.15294330000E+03 0.  0.
<mgrwt>
<rscale>  0 0.66738713E+03</rscale>
<asrwt>0</asrwt>
<pdfrwt beam="1">  1        2 0.47623199E+00 0.77211760E+03</pdfrwt>
<pdfrwt beam="2">  1       -2 0.57533094E-01 0.77211760E+03</pdfrwt>
<totfact> 0.45650845E+00</totfact>
</mgrwt>
</event>
<event>
 4    2  0.3388003E-007  0.7732214E+03  0.7818608E-02  0.9772008E-01
         -2   -1    0    0    0  501 -0.00000000000E+00  0.00000000000E+00  0.85842196651E+03  0.85842196651E+03  0.25500000000E-02 0.  1.
          2   -1    0    0  501    0  0.00000000000E+00 -0.00000000000E+00 -0.81524231479E+03  0.81524231479E+03  0.25500000000E-02 0. -1.
    8880023    1    1    2    0    0 -0.36119208394E+03  0.18330669151E+03  0.59257380406E+03  0.97417400097E+03  0.65864270000E+03 0.  1.
    8880022    1    1    2    0    0  0.36119208394E+03 -0.18330669151E+03 -0.54939415233E+03  0.69949028034E+03  0.15294330000E+03 0.  0.
<mgrwt>
<rscale>  0 0.66886635E+03</rscale>
<asrwt>0</asrwt>
<pdfrwt beam="1">  1        2 0.12542189E+00 0.77322136E+03</pdfrwt>
<pdfrwt beam="2">  1       -2 0.13206492E+00 0.77322136E+03</pdfrwt>
<totfact> 0.14194803E+01</totfact>
</mgrwt>
</event>
<event>
 4    2  0.3388003E-007  0.7917930E+03  0.7818608E-02  0.9728830E-01
         -2   -1    0    0    0  501 -0.00000000000E+00  0.00000000000E+00  0.51176236747E+03  0.51176236748E+03  0.25500000000E-02 0.  1.
          2   -1    0    0  501    0  0.00000000000E+00 -0.00000000000E+00 -0.81965243409E+03  0.81965243409E+03  0.25500000000E-02 0. -1.
    8880023    1    1    2    0    0 -0.37554660222E+03 -0.22823398451E+03 -0.36267673673E+02  0.79262320969E+03  0.65864270000E+03 0. -1.
    8880022    1    1    2    0    0  0.37554660222E+03  0.22823398451E+03 -0.27162239294E+03  0.53879159188E+03  0.15294330000E+03 0.  0.
<mgrwt>
<rscale>  0 0.69325885E+03</rscale>
<asrwt>0</asrwt>
<pdfrwt beam="1">  1        2 0.12610037E+00 0.79179303E+03</pdfrwt>
<pdfrwt beam="2">  1       -2 0.78732672E-01 0.79179303E+03</pdfrwt>
<totfact> 0.48279027E+01</totfact>
</mgrwt>
</event>
<event>
 4    2  0.3388003E-007  0.6646824E+03  0.7818608E-02  0.1019801E+00
          2   -1    0    0  501    0  0.00000000000E+00  0.00000000000E+00  0.65186297559E+03  0.65186297559E+03  0.25500000000E-02 0. -1.
         -2   -1    0    0    0  501 -0.00000000000E+00 -0.00000000000E+00 -0.36427922666E+03  0.36427922667E+03  0.25500000000E-02 0.  1.
    8880023    1    1    2    0    0  0.87893539719E+02  0.16346357417E+02 -0.15745812851E+02  0.66486887024E+03  0.65864270000E+03 0.  1.
    8880022    1    1    2    0    0 -0.87893539719E+02 -0.16346357417E+02  0.30332956178E+03  0.35127333202E+03  0.15294330000E+03 0.  0.
<mgrwt>
<rscale>  0 0.47758359E+03</rscale>
<asrwt>0</asrwt>
<pdfrwt beam="1">  1        2 0.10028661E+00 0.66468239E+03</pdfrwt>
<pdfrwt beam="2">  1       -2 0.56042959E-01 0.66468239E+03</pdfrwt>
<totfact> 0.13605731E+02</totfact>
</mgrwt>
</event>
<event>
 4    2  0.3388003E-007  0.7107625E+03  0.7818608E-02  0.9955180E-01
          2   -1    0    0  501    0  0.00000000000E+00  0.00000000000E+00  0.76933521589E+03  0.76933521590E+03  0.25500000000E-02 0. -1.
         -2   -1    0    0    0  501 -0.00000000000E+00 -0.00000000000E+00 -0.55628575482E+03  0.55628575482E+03  0.25500000000E-02 0.  1.
    8880023    1    1    2    0    0  0.44046987333E+02  0.26350135873E+03 -0.26371573264E+03  0.75810902715E+03  0.65864270000E+03 0.  1.
    8880022    1    1    2    0    0 -0.44046987333E+02 -0.26350135873E+03  0.47676519371E+03  0.56751194357E+03  0.15294330000E+03 0.  0.
<mgrwt>
<rscale>  0 0.57659946E+03</rscale>
<asrwt>0</asrwt>
<pdfrwt beam="1">  1        2 0.11835926E+00 0.71076248E+03</pdfrwt>
<pdfrwt beam="2">  1       -2 0.85582424E-01 0.71076248E+03</pdfrwt>
<totfact> 0.43756489E+01</totfact>
</mgrwt>
</event>
<event>
 4    2  0.3388003E-007  0.9064585E+03  0.7818608E-02  0.9515742E-01
         -2   -1    0    0    0  501 -0.00000000000E+00  0.00000000000E+00  0.74458079363E+03  0.74458079364E+03  0.25500000000E-02 0.  1.
          2   -1    0    0  501    0  0.00000000000E+00 -0.00000000000E+00 -0.29372712939E+04  0.29372712939E+04  0.25500000000E-02 0. -1.
    8880023    1    1    2    0    0 -0.32042991563E+03  0.53402382535E+03  0.41465739158E+03  0.99679874374E+03  0.65864270000E+03 0.  1.
    8880022    1    1    2    0    0  0.32042991563E+03 -0.53402382535E+03 -0.26073478918E+04  0.26850533438E+04  0.15294330000E+03 0.  0.
<mgrwt>
<rscale>  0 0.83133099E+03</rscale>
<asrwt>0</asrwt>
<pdfrwt beam="1">  1        2 0.45188789E+00 0.90645848E+03</pdfrwt>
<pdfrwt beam="2">  1       -2 0.11455089E+00 0.90645848E+03</pdfrwt>
<totfact> 0.11719305E+00</totfact>
</mgrwt>
</event>
<event>
 4    2  0.3388003E-007  0.6614672E+03  0.7818608E-02  0.1022701E+00
         -2   -1    0    0    0  501 -0.00000000000E+00  0.00000000000E+00  0.19922370142E+03  0.19922370144E+03  0.25500000000E-02 0.  1.
          2   -1    0    0  501    0  0.00000000000E+00 -0.00000000000E+00 -0.10614173619E+04  0.10614173619E+04  0.25500000000E-02 0. -1.
    8880023    1    1    2    0    0  0.35301755452E+02  0.49824342210E+02 -0.40718840962E+03  0.77675046586E+03  0.65864270000E+03 0.  1.
    8880022    1    1    2    0    0 -0.35301755452E+02 -0.49824342210E+02 -0.45500525084E+03  0.48389059747E+03  0.15294330000E+03 0. -1.
<mgrwt>
<rscale>  0 0.46724334E+03</rscale>
<asrwt>0</asrwt>
<pdfrwt beam="1">  1        2 0.16329497E+00 0.66146722E+03</pdfrwt>
<pdfrwt beam="2">  1       -2 0.30649801E-01 0.66146722E+03</pdfrwt>
<totfact> 0.23022070E+02</totfact>
</mgrwt>
</event>
<event>
 4    2  0.3805179E-007  0.8697832E+03  0.7818608E-02  0.9576392E-01
          2   -1    0    0  501    0  0.00000000000E+00  0.00000000000E+00  0.17093200721E+04  0.17093200721E+04  0.25500000000E-02 0. -1.
         -2   -1    0    0    0  501 -0.00000000000E+00 -0.00000000000E+00 -0.11206887479E+04  0.11206887479E+04  0.25500000000E-02 0.  1.
    8880023    1    1    2    0    0  0.56749281980E+03 -0.25777338365E+02 -0.88647290470E+03  0.12419166593E+04  0.65864270000E+03 0.  1.
    8880022    1    1    2    0    0 -0.56749281980E+03  0.25777338365E+02  0.14751042289E+04  0.15880921607E+04  0.15294330000E+03 0.  0.
<mgrwt>
<rscale>  0 0.78878586E+03</rscale>
<asrwt>0</asrwt>
<pdfrwt beam="1">  1        2 0.26297232E+00 0.86978318E+03</pdfrwt>
<pdfrwt beam="2">  1       -2 0.17241366E+00 0.86978318E+03</pdfrwt>
<totfact> 0.20109545E+00</totfact>
</mgrwt>
</event>
<event>
 4    2  0.3388003E-007  0.8476641E+03  0.7818608E-02  0.9615895E-01
         -2   -1    0    0    0  501 -0.00000000000E+00  0.00000000000E+00  0.12477053112E+04  0.12477053112E+04  0.25500000000E-02 0.  1.
          2   -1    0    0  501    0  0.00000000000E+00 -0.00000000000E+00 -0.66371814948E+03  0.66371814948E+03  0.25500000000E-02 0. -1.
    8880023    1    1    2    0    0 -0.52295932122E+03  0.10600839052E+03  0.92919695821E+03  0.12577525289E+04  0.65864270000E+03 0.  0.
    8880022    1    1    2    0    0  0.52295932122E+03 -0.10600839052E+03 -0.34520979646E+03  0.65367093182E+03  0.15294330000E+03 0.  0.
<mgrwt>
<rscale>  0 0.76253030E+03</rscale>
<asrwt>0</asrwt>
<pdfrwt beam="1">  1        2 0.10211048E+00 0.84766411E+03</pdfrwt>
<pdfrwt beam="2">  1       -2 0.19195466E+00 0.84766411E+03</pdfrwt>
<totfact> 0.66430963E+00</totfact>
</mgrwt>
</event>
<event>
 4    2  0.3388003E-007  0.6640056E+03  0.7818608E-02  0.1020383E+00
         -2   -1    0    0    0  501 -0.00000000000E+00  0.00000000000E+00  0.10917666688E+03  0.10917666691E+03  0.25500000000E-02 0.  1.
          2   -1    0    0  501    0  0.00000000000E+00 -0.00000000000E+00 -0.19258171865E+04  0.19258171865E+04  0.25500000000E-02 0. -1.
    8880023    1    1    2    0    0  0.40521298381E+02 -0.73832699214E+02 -0.10033211902E+04  0.12031445715E+04  0.65864270000E+03 0.  1.
    8880022    1    1    2    0    0 -0.40521298381E+02  0.73832699214E+02 -0.81331932947E+03  0.83184928190E+03  0.15294330000E+03 0. -1.
<mgrwt>
<rscale>  0 0.47548782E+03</rscale>
<asrwt>0</asrwt>
<pdfrwt beam="1">  1        2 0.29627954E+00 0.66400561E+03</pdfrwt>
<pdfrwt beam="2">  1       -2 0.16796412E-01 0.66400561E+03</pdfrwt>
<totfact> 0.21865726E+02</totfact>
</mgrwt>
</event>
<event>
 4    2  0.3388003E-007  0.1370559E+04  0.7818608E-02  0.9006903E-01
         -2   -1    0    0    0  501 -0.00000000000E+00  0.00000000000E+00  0.21621816359E+04  0.21621816359E+04  0.25500000000E-02 0.  1.
          2   -1    0    0  501    0  0.00000000000E+00 -0.00000000000E+00 -0.93214247608E+03  0.93214247608E+03  0.25500000000E-02 0. -1.
    8880023    1    1    2    0    0 -0.72213952673E+03  0.96079996339E+03  0.12887244118E+04  0.18812875595E+04  0.65864270000E+03 0.  1.
    8880022    1    1    2    0    0  0.72213952673E+03 -0.96079996339E+03 -0.58685252025E+02  0.12130365524E+04  0.15294330000E+03 0.  0.
<mgrwt>
<rscale>  0 0.13289682E+04</rscale>
<asrwt>0</asrwt>
<pdfrwt beam="1">  1        2 0.14340654E+00 0.13705591E+04</pdfrwt>
<pdfrwt beam="2">  1       -2 0.33264333E+00 0.13705591E+04</pdfrwt>
<totfact> 0.53693850E-01</totfact>
</mgrwt>
</event>
<event>
 4    2  0.3388003E-007  0.7105860E+03  0.7818608E-02  0.9955831E-01
         -2   -1    0    0    0  501 -0.00000000000E+00  0.00000000000E+00  0.42470612928E+03  0.42470612929E+03  0.25500000000E-02 0.  1.
          2   -1    0    0  501    0  0.00000000000E+00 -0.00000000000E+00 -0.94600492358E+03  0.94600492359E+03  0.25500000000E-02 0. -1.
    8880023    1    1    2    0    0 -0.84713840600E+02 -0.25287509666E+03  0.60008547440E+02  0.71311533522E+03  0.65864270000E+03 0.  0.
    8880022    1    1    2    0    0  0.84713840600E+02  0.25287509666E+03 -0.58130734174E+03  0.65759571765E+03  0.15294330000E+03 0.  0.
<mgrwt>
<rscale>  0 0.57630109E+03</rscale>
<asrwt>0</asrwt>
<pdfrwt beam="1">  1        2 0.14553922E+00 0.71058599E+03</pdfrwt>
<pdfrwt beam="2">  1       -2 0.65339405E-01 0.71058599E+03</pdfrwt>
<totfact> 0.60027224E+01</totfact>
</mgrwt>
</event>
<event>
 4    2  0.3388003E-007  0.9652760E+03  0.7818608E-02  0.9428468E-01
          2   -1    0    0  501    0  0.00000000000E+00  0.00000000000E+00  0.40362189608E+04  0.40362189608E+04  0.25500000000E-02 0. -1.
         -2   -1    0    0    0  501 -0.00000000000E+00 -0.00000000000E+00 -0.42859005140E+03  0.42859005141E+03  0.25500000000E-02 0.  1.
    8880023    1    1    2    0    0  0.53949320295E+03 -0.45485672299E+03  0.20550504561E+03  0.98690935983E+03  0.65864270000E+03 0.  1.
    8880022    1    1    2    0    0 -0.53949320295E+03  0.45485672299E+03  0.34021238638E+04  0.34778996524E+04  0.15294330000E+03 0.  0.
<mgrwt>
<rscale>  0 0.89769474E+03</rscale>
<asrwt>0</asrwt>
<pdfrwt beam="1">  1        2 0.62095675E+00 0.96527600E+03</pdfrwt>
<pdfrwt beam="2">  1       -2 0.65936933E-01 0.96527600E+03</pdfrwt>
<totfact> 0.71895699E-01</totfact>
</mgrwt>
</event>
<event>
 4    2  0.3388003E-007  0.7208291E+03  0.7818608E-02  0.9919790E-01
         -2   -1    0    0    0  501 -0.00000000000E+00  0.00000000000E+00  0.35361218859E+03  0.35361218859E+03  0.25500000000E-02 0.  1.
          2   -1    0    0  501    0  0.00000000000E+00 -0.00000000000E+00 -0.10165155797E+04  0.10165155797E+04  0.25500000000E-02 0. -1.
    8880023    1    1    2    0    0  0.25543755322E+03 -0.14330426438E+03 -0.11448629913E+03  0.72986421664E+03  0.65864270000E+03 0.  1.
    8880022    1    1    2    0    0 -0.25543755322E+03  0.14330426438E+03 -0.54841709197E+03  0.64026355165E+03  0.15294330000E+03 0.  0.
<mgrwt>
<rscale>  0 0.59311677E+03</rscale>
<asrwt>0</asrwt>
<pdfrwt beam="1">  1        2 0.15638701E+00 0.72082915E+03</pdfrwt>
<pdfrwt beam="2">  1       -2 0.54401875E-01 0.72082915E+03</pdfrwt>
<totfact> 0.79499340E+01</totfact>
</mgrwt>
</event>
<event>
 4    2  0.3388003E-007  0.7038800E+03  0.7818608E-02  0.9981471E-01
         -2   -1    0    0    0  501 -0.00000000000E+00  0.00000000000E+00  0.37135585142E+03  0.37135585143E+03  0.25500000000E-02 0.  1.
          2   -1    0    0  501    0  0.00000000000E+00 -0.00000000000E+00 -0.15256173786E+04  0.15256173786E+04  0.25500000000E-02 0. -1.
    8880023    1    1    2    0    0 -0.20797431675E+03  0.13558576872E+03  0.26443400308E+01  0.70388494508E+03  0.65864270000E+03 0.  1.
    8880022    1    1    2    0    0  0.20797431675E+03 -0.13558576872E+03 -0.11569058672E+04  0.11930882850E+04  0.15294330000E+03 0.  0.
<mgrwt>
<rscale>  0 0.56470223E+03</rscale>
<asrwt>0</asrwt>
<pdfrwt beam="1">  1        2 0.23471036E+00 0.70387998E+03</pdfrwt>
<pdfrwt beam="2">  1       -2 0.57131670E-01 0.70387998E+03</pdfrwt>
<totfact> 0.36267554E+01</totfact>
</mgrwt>
</event>
<event>
 4    2  0.3388003E-007  0.8538247E+03  0.7818608E-02  0.9604644E-01
          2   -1    0    0  501    0  0.00000000000E+00  0.00000000000E+00  0.17537024256E+04  0.17537024256E+04  0.25500000000E-02 0. -1.
         -2   -1    0    0    0  501 -0.00000000000E+00 -0.00000000000E+00 -0.40735893507E+03  0.40735893508E+03  0.25500000000E-02 0.  1.
    8880023    1    1    2    0    0 -0.43307772214E+01 -0.54331175454E+03  0.19058608737E+03  0.87483694550E+03  0.65864270000E+03 0.  1.
    8880022    1    1    2    0    0  0.43307772214E+01  0.54331175454E+03  0.11557574032E+04  0.12862244152E+04  0.15294330000E+03 0.  0.
<mgrwt>
<rscale>  0 0.76989576E+03</rscale>
<asrwt>0</asrwt>
<pdfrwt beam="1">  1        2 0.26980037E+00 0.85382470E+03</pdfrwt>
<pdfrwt beam="2">  1       -2 0.62670605E-01 0.85382470E+03</pdfrwt>
<totfact> 0.21955866E+01</totfact>
</mgrwt>
</event>
<event>
 4    2  0.3388003E-007  0.1371777E+04  0.7818608E-02  0.9005929E-01
         -2   -1    0    0    0  501 -0.00000000000E+00  0.00000000000E+00  0.19123815176E+04  0.19123815176E+04  0.25500000000E-02 0.  1.
          2   -1    0    0  501    0  0.00000000000E+00 -0.00000000000E+00 -0.18275094718E+04  0.18275094718E+04  0.25500000000E-02 0. -1.
    8880023    1    1    2    0    0  0.33250205545E+03 -0.11564621954E+04  0.13936014225E+04  0.19554788563E+04  0.65864270000E+03 0.  1.
    8880022    1    1    2    0    0 -0.33250205545E+03  0.11564621954E+04 -0.13087293767E+04  0.17844121331E+04  0.15294330000E+03 0.  0.
<mgrwt>
<rscale>  0 0.13302318E+04</rscale>
<asrwt>0</asrwt>
<pdfrwt beam="1">  1        2 0.28115530E+00 0.13717772E+04</pdfrwt>
<pdfrwt beam="2">  1       -2 0.29421254E+00 0.13717772E+04</pdfrwt>
<totfact> 0.27381157E-01</totfact>
</mgrwt>
</event>
<event>
 4    2  0.3388003E-007  0.9736467E+03  0.7818608E-02  0.9416878E-01
          2   -1    0    0  501    0  0.00000000000E+00  0.00000000000E+00  0.23591143548E+04  0.23591143548E+04  0.25500000000E-02 0. -1.
         -2   -1    0    0    0  501 -0.00000000000E+00 -0.00000000000E+00 -0.55535930032E+03  0.55535930033E+03  0.25500000000E-02 0.  1.
    8880023    1    1    2    0    0 -0.51845403589E+03 -0.49536161363E+03  0.19382439009E+04  0.21690498706E+04  0.65864270000E+03 0. -1.
    8880022    1    1    2    0    0  0.51845403589E+03  0.49536161363E+03 -0.13448884648E+03  0.74542378445E+03  0.15294330000E+03 0.  0.
<mgrwt>
<rscale>  0 0.90699599E+03</rscale>
<asrwt>0</asrwt>
<pdfrwt beam="1">  1        2 0.36294068E+00 0.97364671E+03</pdfrwt>
<pdfrwt beam="2">  1       -2 0.85439891E-01 0.97364671E+03</pdfrwt>
<totfact> 0.50496587E+00</totfact>
</mgrwt>
</event>
<event>
 4    2  0.3388003E-007  0.6840404E+03  0.7818608E-02  0.1007125E+00
         -2   -1    0    0    0  501 -0.00000000000E+00  0.00000000000E+00  0.14356657001E+03  0.14356657003E+03  0.25500000000E-02 0.  1.
          2   -1    0    0  501    0  0.00000000000E+00 -0.00000000000E+00 -0.20256047802E+04  0.20256047802E+04  0.25500000000E-02 0. -1.
    8880023    1    1    2    0    0  0.14953237218E+02 -0.18405840128E+03 -0.76300563201E+03  0.10247384521E+04  0.65864270000E+03 0.  1.
    8880022    1    1    2    0    0 -0.14953237218E+02  0.18405840128E+03 -0.11190325782E+04  0.11444328982E+04  0.15294330000E+03 0. -1.
<mgrwt>
<rscale>  0 0.52633586E+03</rscale>
<asrwt>0</asrwt>
<pdfrwt beam="1">  1        2 0.31163148E+00 0.68404042E+03</pdfrwt>
<pdfrwt beam="2">  1       -2 0.22087166E-01 0.68404042E+03</pdfrwt>
<totfact> 0.11962150E+02</totfact>
</mgrwt>
</event>
<event>
 4    2  0.3388003E-007  0.7722067E+03  0.7818608E-02  0.9774473E-01
         -2   -1    0    0    0  501 -0.00000000000E+00  0.00000000000E+00  0.42207097391E+03  0.42207097391E+03  0.25500000000E-02 0.  1.
          2   -1    0    0  501    0  0.00000000000E+00 -0.00000000000E+00 -0.11194570998E+04  0.11194570998E+04  0.25500000000E-02 0. -1.
    8880023    1    1    2    0    0 -0.45971044992E-01 -0.40310420246E+03 -0.78546456856E+03  0.11014798205E+04  0.65864270000E+03 0. -1.
    8880022    1    1    2    0    0  0.45971044992E-01  0.40310420246E+03  0.88078442632E+02  0.44004825329E+03  0.15294330000E+03 0.  0.
<mgrwt>
<rscale>  0 0.66750669E+03</rscale>
<asrwt>0</asrwt>
<pdfrwt beam="1">  1        2 0.17222417E+00 0.77220671E+03</pdfrwt>
<pdfrwt beam="2">  1       -2 0.64933996E-01 0.77220671E+03</pdfrwt>
<totfact> 0.47057353E+01</totfact>
</mgrwt>
</event>
<event>
 4    2  0.3388003E-007  0.1332996E+04  0.7818608E-02  0.9037577E-01
         -2   -1    0    0    0  501 -0.00000000000E+00  0.00000000000E+00  0.23278505730E+04  0.23278505730E+04  0.25500000000E-02 0.  1.
          2   -1    0    0  501    0  0.00000000000E+00 -0.00000000000E+00 -0.77982333869E+03  0.77982333869E+03  0.25500000000E-02 0. -1.
    8880023    1    1    2    0    0 -0.51450541718E+02  0.11577650010E+04  0.13937537157E+04  0.19285814949E+04  0.65864270000E+03 0.  0.
    8880022    1    1    2    0    0  0.51450541718E+02 -0.11577650010E+04  0.15427351856E+03  0.11790924168E+04  0.15294330000E+03 0.  0.
<mgrwt>
<rscale>  0 0.12899447E+04</rscale>
<asrwt>0</asrwt>
<pdfrwt beam="1">  1        2 0.11997282E+00 0.13329956E+04</pdfrwt>
<pdfrwt beam="2">  1       -2 0.35813086E+00 0.13329956E+04</pdfrwt>
<totfact> 0.47819256E-01</totfact>
</mgrwt>
</event>
<event>
 4    2  0.3388003E-007  0.8218204E+03  0.7818608E-02  0.9665462E-01
         -2   -1    0    0    0  501 -0.00000000000E+00  0.00000000000E+00  0.19358650930E+04  0.19358650930E+04  0.25500000000E-02 0.  1.
          2   -1    0    0  501    0  0.00000000000E+00 -0.00000000000E+00 -0.64172331232E+03  0.64172331233E+03  0.25500000000E-02 0. -1.
    8880023    1    1    2    0    0 -0.28702348169E+03 -0.39899387155E+03  0.17221174598E+04  0.19081607218E+04  0.65864270000E+03 0.  0.
    8880022    1    1    2    0    0  0.28702348169E+03  0.39899387155E+03 -0.42797567911E+03  0.66942768355E+03  0.15294330000E+03 0.  0.
<mgrwt>
<rscale>  0 0.73110934E+03</rscale>
<asrwt>0</asrwt>
<pdfrwt beam="1">  1        2 0.98726664E-01 0.82182042E+03</pdfrwt>
<pdfrwt beam="2">  1       -2 0.29782540E+00 0.82182042E+03</pdfrwt>
<totfact> 0.15423151E+00</totfact>
</mgrwt>
</event>
<event>
 4    2  0.3388003E-007  0.6793377E+03  0.7818608E-02  0.1009701E+00
         -2   -1    0    0    0  501 -0.00000000000E+00  0.00000000000E+00  0.10783494580E+03  0.10783494583E+03  0.25500000000E-02 0.  1.
          2   -1    0    0  501    0  0.00000000000E+00 -0.00000000000E+00 -0.20276842178E+04  0.20276842178E+04  0.25500000000E-02 0. -1.
    8880023    1    1    2    0    0 -0.64115879245E+02  0.15355363217E+03 -0.11762504860E+04  0.13583316885E+04  0.65864270000E+03 0.  0.
    8880022    1    1    2    0    0  0.64115879245E+02 -0.15355363217E+03 -0.74359878603E+03  0.77718747514E+03  0.15294330000E+03 0.  0.
<mgrwt>
<rscale>  0 0.51593734E+03</rscale>
<asrwt>0</asrwt>
<pdfrwt beam="1">  1        2 0.31195139E+00 0.67933774E+03</pdfrwt>
<pdfrwt beam="2">  1       -2 0.16589993E-01 0.67933774E+03</pdfrwt>
<totfact> 0.19629588E+02</totfact>
</mgrwt>
</event>
<event>
 4    2  0.3388003E-007  0.9326272E+03  0.7818608E-02  0.9475563E-01
          2   -1    0    0  501    0  0.00000000000E+00  0.00000000000E+00  0.99276672869E+03  0.99276672869E+03  0.25500000000E-02 0. -1.
         -2   -1    0    0    0  501 -0.00000000000E+00 -0.00000000000E+00 -0.11973386196E+04  0.11973386196E+04  0.25500000000E-02 0.  1.
    8880023    1    1    2    0    0 -0.59005675423E+03  0.29633804171E+03 -0.84435539794E+03  0.12580657584E+04  0.65864270000E+03 0.  1.
    8880022    1    1    2    0    0  0.59005675423E+03 -0.29633804171E+03  0.63978350704E+03  0.93203958987E+03  0.15294330000E+03 0.  0.
<mgrwt>
<rscale>  0 0.86109674E+03</rscale>
<asrwt>0</asrwt>
<pdfrwt beam="1">  1        2 0.15273334E+00 0.93262716E+03</pdfrwt>
<pdfrwt beam="2">  1       -2 0.18420594E+00 0.93262716E+03</pdfrwt>
<totfact> 0.43140033E+00</totfact>
</mgrwt>
</event>
<event>
 4    2  0.3388003E-007  0.7430516E+03  0.7818608E-02  0.9851146E-01
          2   -1    0    0  501    0  0.00000000000E+00  0.00000000000E+00  0.43588542775E+04  0.43588542775E+04  0.25500000000E-02 0. -1.
         -2   -1    0    0    0  501 -0.00000000000E+00 -0.00000000000E+00 -0.95321486854E+02  0.95321486888E+02  0.25500000000E-02 0.  1.
    8880023    1    1    2    0    0  0.24095910756E+03  0.24546716564E+03  0.15993825298E+04  0.17635617664E+04  0.65864270000E+03 0.  1.
    8880022    1    1    2    0    0 -0.24095910756E+03 -0.24546716564E+03  0.26641502609E+04  0.26906139981E+04  0.15294330000E+03 0.  0.
<mgrwt>
<rscale>  0 0.62688540E+03</rscale>
<asrwt>0</asrwt>
<pdfrwt beam="1">  1        2 0.67059302E+00 0.74305156E+03</pdfrwt>
<pdfrwt beam="2">  1       -2 0.14664843E-01 0.74305156E+03</pdfrwt>
<totfact> 0.68580615E+00</totfact>
</mgrwt>
</event>
<event>
 4    2  0.3388003E-007  0.7669024E+03  0.7818608E-02  0.9787555E-01
         -2   -1    0    0    0  501 -0.00000000000E+00  0.00000000000E+00  0.17251896460E+03  0.17251896462E+03  0.25500000000E-02 0.  1.
          2   -1    0    0  501    0  0.00000000000E+00 -0.00000000000E+00 -0.20800135435E+04  0.20800135435E+04  0.25500000000E-02 0. -1.
    8880023    1    1    2    0    0 -0.12804656539E+02  0.39263870277E+03 -0.10902289527E+04  0.13329435419E+04  0.65864270000E+03 0.  0.
    8880022    1    1    2    0    0  0.12804656539E+02 -0.39263870277E+03 -0.81726562614E+03  0.91958896623E+03  0.15294330000E+03 0.  1.
<mgrwt>
<rscale>  0 0.66034722E+03</rscale>
<asrwt>0</asrwt>
<pdfrwt beam="1">  1        2 0.32000207E+00 0.76690242E+03</pdfrwt>
<pdfrwt beam="2">  1       -2 0.26541381E-01 0.76690242E+03</pdfrwt>
<totfact> 0.79594379E+01</totfact>
</mgrwt>
</event>
<event>
 4    2  0.3388003E-007  0.7889169E+03  0.7818608E-02  0.9735293E-01
         -2   -1    0    0    0  501 -0.00000000000E+00  0.00000000000E+00  0.12109201827E+04  0.12109201827E+04  0.25500000000E-02 0.  1.
          2   -1    0    0  501    0  0.00000000000E+00 -0.00000000000E+00 -0.74840929833E+03  0.74840929833E+03  0.25500000000E-02 0. -1.
    8880023    1    1    2    0    0 -0.27762745433E+03 -0.33392003662E+03  0.98561783721E+03  0.12624707211E+04  0.65864270000E+03 0.  0.
    8880022    1    1    2    0    0  0.27762745433E+03  0.33392003662E+03 -0.52310695282E+03  0.69685875998E+03  0.15294330000E+03 0.  0.
<mgrwt>
<rscale>  0 0.68953775E+03</rscale>
<asrwt>0</asrwt>
<pdfrwt beam="1">  1        2 0.11513989E+00 0.78891685E+03</pdfrwt>
<pdfrwt beam="2">  1       -2 0.18629541E+00 0.78891685E+03</pdfrwt>
<totfact> 0.62643517E+00</totfact>
</mgrwt>
</event>
<event>
 4    2  0.3388003E-007  0.6593144E+03  0.7818608E-02  0.1024870E+00
          2   -1    0    0  501    0  0.00000000000E+00  0.00000000000E+00  0.26917985224E+03  0.26917985226E+03  0.25500000000E-02 0. -1.
         -2   -1    0    0    0  501 -0.00000000000E+00 -0.00000000000E+00 -0.95094339672E+03  0.95094339672E+03  0.25500000000E-02 0.  1.
    8880023    1    1    2    0    0  0.25017062105E+02  0.16106089265E+02 -0.79106663148E+03  0.10297970097E+04  0.65864270000E+03 0.  1.
    8880022    1    1    2    0    0 -0.25017062105E+02 -0.16106089265E+02  0.10930308701E+03  0.19032623926E+03  0.15294330000E+03 0.  0.
<mgrwt>
<rscale>  0 0.45969375E+03</rscale>
<asrwt>0</asrwt>
<pdfrwt beam="1">  1        2 0.41412286E-01 0.65931439E+03</pdfrwt>
<pdfrwt beam="2">  1       -2 0.14629898E+00 0.65931439E+03</pdfrwt>
<totfact> 0.40343844E+01</totfact>
</mgrwt>
</event>
<event>
 4    2  0.3388003E-007  0.7301342E+03  0.7818608E-02  0.9889677E-01
         -2   -1    0    0    0  501 -0.00000000000E+00  0.00000000000E+00  0.27651497535E+03  0.27651497536E+03  0.25500000000E-02 0.  1.
          2   -1    0    0  501    0  0.00000000000E+00 -0.00000000000E+00 -0.25329160592E+04  0.25329160592E+04  0.25500000000E-02 0. -1.
    8880023    1    1    2    0    0 -0.25162463852E+03 -0.18965974653E+03 -0.24858124485E+03  0.77129023053E+03  0.65864270000E+03 0.  1.
    8880022    1    1    2    0    0  0.25162463852E+03  0.18965974653E+03 -0.20078198390E+04  0.20381408040E+04  0.15294330000E+03 0.  0.
<mgrwt>
<rscale>  0 0.60764176E+03</rscale>
<asrwt>0</asrwt>
<pdfrwt beam="1">  1        2 0.38967938E+00 0.73013422E+03</pdfrwt>
<pdfrwt beam="2">  1       -2 0.42540767E-01 0.73013422E+03</pdfrwt>
<totfact> 0.18325994E+01</totfact>
</mgrwt>
</event>
<event>
 4    2  0.3388003E-007  0.7723265E+03  0.7818608E-02  0.9774181E-01
          2   -1    0    0  501    0  0.00000000000E+00  0.00000000000E+00  0.61081277072E+03  0.61081277073E+03  0.25500000000E-02 0. -1.
         -2   -1    0    0    0  501 -0.00000000000E+00 -0.00000000000E+00 -0.71600854691E+03  0.71600854691E+03  0.25500000000E-02 0.  1.
    8880023    1    1    2    0    0 -0.35543311424E+02  0.40176440732E+03 -0.33061365382E+03  0.84011520658E+03  0.65864270000E+03 0.  1.
    8880022    1    1    2    0    0  0.35543311424E+02 -0.40176440732E+03  0.22541787763E+03  0.48670611106E+03  0.15294330000E+03 0.  0.
<mgrwt>
<rscale>  0 0.66766732E+03</rscale>
<asrwt>0</asrwt>
<pdfrwt beam="1">  1        2 0.93971196E-01 0.77232647E+03</pdfrwt>
<pdfrwt beam="2">  1       -2 0.11015516E+00 0.77232647E+03</pdfrwt>
<totfact> 0.32126806E+01</totfact>
</mgrwt>
</event>
<event>
 4    2  0.3388003E-007  0.7527757E+03  0.7818608E-02  0.9824183E-01
         -2   -1    0    0    0  501 -0.00000000000E+00  0.00000000000E+00  0.50434387813E+03  0.50434387814E+03  0.25500000000E-02 0.  1.
          2   -1    0    0  501    0  0.00000000000E+00 -0.00000000000E+00 -0.13229755274E+04  0.13229755274E+04  0.25500000000E-02 0. -1.
    8880023    1    1    2    0    0  0.23543358459E+03  0.27826611653E+03  0.16200513277E+03  0.77001095685E+03  0.65864270000E+03 0.  1.
    8880022    1    1    2    0    0 -0.23543358459E+03 -0.27826611653E+03 -0.98063678206E+03  0.10573084487E+04  0.15294330000E+03 0.  0.
<mgrwt>
<rscale>  0 0.64080753E+03</rscale>
<asrwt>0</asrwt>
<pdfrwt beam="1">  1        2 0.20353470E+00 0.75277567E+03</pdfrwt>
<pdfrwt beam="2">  1       -2 0.77591366E-01 0.75277567E+03</pdfrwt>
<totfact> 0.24215975E+01</totfact>
</mgrwt>
</event>
<event>
 4    2  0.3388003E-007  0.7314659E+03  0.7818608E-02  0.9885542E-01
          2   -1    0    0  501    0  0.00000000000E+00  0.00000000000E+00  0.11158853670E+04  0.11158853670E+04  0.25500000000E-02 0. -1.
         -2   -1    0    0    0  501 -0.00000000000E+00 -0.00000000000E+00 -0.34342053012E+03  0.34342053013E+03  0.25500000000E-02 0.  1.
    8880023    1    1    2    0    0 -0.31529819417E+03 -0.42652365251E+02  0.15448473763E+03  0.74760144190E+03  0.65864270000E+03 0.  0.
    8880022    1    1    2    0    0  0.31529819417E+03  0.42652365251E+02  0.61798009922E+03  0.71170445520E+03  0.15294330000E+03 0.  0.
<mgrwt>
<rscale>  0 0.60967124E+03</rscale>
<asrwt>0</asrwt>
<pdfrwt beam="1">  1        2 0.17167467E+00 0.73146591E+03</pdfrwt>
<pdfrwt beam="2">  1       -2 0.52833928E-01 0.73146591E+03</pdfrwt>
<totfact> 0.73217816E+01</totfact>
</mgrwt>
</event>
<event>
 4    2  0.3388003E-007  0.7904555E+03  0.7818608E-02  0.9731826E-01
         -2   -1    0    0    0  501 -0.00000000000E+00  0.00000000000E+00  0.16574326448E+04  0.16574326448E+04  0.25500000000E-02 0.  1.
          2   -1    0    0  501    0  0.00000000000E+00 -0.00000000000E+00 -0.46525332012E+03  0.46525332012E+03  0.25500000000E-02 0. -1.
    8880023    1    1    2    0    0  0.23360232847E+03 -0.36937729906E+03  0.14057682494E+04  0.16127629132E+04  0.65864270000E+03 0.  1.
    8880022    1    1    2    0    0 -0.23360232847E+03  0.36937729906E+03 -0.21358892469E+03  0.50992305174E+03  0.15294330000E+03 0.  0.
<mgrwt>
<rscale>  0 0.69153072E+03</rscale>
<asrwt>0</asrwt>
<pdfrwt beam="1">  1        2 0.71577434E-01 0.79045547E+03</pdfrwt>
<pdfrwt beam="2">  1       -2 0.25498964E+00 0.79045547E+03</pdfrwt>
<totfact> 0.41071638E+00</totfact>
</mgrwt>
</event>
<event>
 4    2  0.3388003E-007  0.7619435E+03  0.7818608E-02  0.9800102E-01
          2   -1    0    0  501    0  0.00000000000E+00  0.00000000000E+00  0.14124126963E+04  0.14124126963E+04  0.25500000000E-02 0. -1.
         -2   -1    0    0    0  501 -0.00000000000E+00 -0.00000000000E+00 -0.29453555336E+03  0.29453555338E+03  0.25500000000E-02 0.  1.
    8880023    1    1    2    0    0 -0.18785840278E+03 -0.33385165685E+03  0.35694169232E+03  0.84140673057E+03  0.65864270000E+03 0.  1.
    8880022    1    1    2    0    0  0.18785840278E+03  0.33385165685E+03  0.76093545062E+03  0.86554151911E+03  0.15294330000E+03 0.  0.
<mgrwt>
<rscale>  0 0.65357086E+03</rscale>
<asrwt>0</asrwt>
<pdfrwt beam="1">  1        2 0.21729426E+00 0.76194351E+03</pdfrwt>
<pdfrwt beam="2">  1       -2 0.45313162E-01 0.76194351E+03</pdfrwt>
<totfact> 0.66941083E+01</totfact>
</mgrwt>
</event>
<event>
 4    2  0.3388003E-007  0.6619044E+03  0.7818608E-02  0.1022285E+00
          2   -1    0    0  501    0  0.00000000000E+00  0.00000000000E+00  0.29565140351E+04  0.29565140351E+04  0.25500000000E-02 0. -1.
         -2   -1    0    0    0  501 -0.00000000000E+00 -0.00000000000E+00 -0.23467431514E+03  0.23467431515E+03  0.25500000000E-02 0.  1.
    8880023    1    1    2    0    0 -0.44217945963E+02  0.48498043308E+02  0.24045311266E+03  0.70422666280E+03  0.65864270000E+03 0.  1.
    8880022    1    1    2    0    0  0.44217945963E+02 -0.48498043308E+02  0.24813866073E+04  0.24869616874E+04  0.15294330000E+03 0.  0.
<mgrwt>
<rscale>  0 0.46871016E+03</rscale>
<asrwt>0</asrwt>
<pdfrwt beam="1">  1        2 0.45484833E+00 0.66190444E+03</pdfrwt>
<pdfrwt beam="2">  1       -2 0.36103740E-01 0.66190444E+03</pdfrwt>
<totfact> 0.14410141E+01</totfact>
</mgrwt>
</event>
<event>
 4    2  0.4178385E-007  0.9055663E+03  0.7818608E-02  0.9517154E-01
         -2   -1    0    0    0  501 -0.00000000000E+00  0.00000000000E+00  0.93380051459E+03  0.93380051459E+03  0.25500000000E-02 0.  1.
          2   -1    0    0  501    0  0.00000000000E+00 -0.00000000000E+00 -0.27184981617E+04  0.27184981617E+04  0.25500000000E-02 0. -1.
    8880023    1    1    2    0    0 -0.61477463663E+03  0.91061843506E+02  0.66298705476E+03  0.11223199875E+04  0.65864270000E+03 0.  1.
    8880022    1    1    2    0    0  0.61477463663E+03 -0.91061843506E+02 -0.24476847018E+04  0.25299786888E+04  0.15294330000E+03 0.  0.
<mgrwt>
<rscale>  0 0.83030832E+03</rscale>
<asrwt>0</asrwt>
<pdfrwt beam="1">  1        2 0.41823048E+00 0.90556630E+03</pdfrwt>
<pdfrwt beam="2">  1       -2 0.14366162E+00 0.90556630E+03</pdfrwt>
<totfact> 0.89254737E-01</totfact>
</mgrwt>
</event>
<event>
 4    2  0.3388003E-007  0.1203073E+04  0.7818608E-02  0.9154140E-01
          2   -1    0    0  501    0  0.00000000000E+00  0.00000000000E+00  0.14750512117E+04  0.14750512117E+04  0.25500000000E-02 0. -1.
         -2   -1    0    0    0  501 -0.00000000000E+00 -0.00000000000E+00 -0.11733554663E+04  0.11733554664E+04  0.25500000000E-02 0.  1.
    8880023    1    1    2    0    0 -0.63658654024E+03  0.77995716044E+03 -0.54814244625E+03  0.13220612478E+04  0.65864270000E+03 0.  1.
    8880022    1    1    2    0    0  0.63658654024E+03 -0.77995716044E+03  0.84983819156E+03  0.13263454302E+04  0.15294330000E+03 0.  0.
<mgrwt>
<rscale>  0 0.11539573E+04</rscale>
<asrwt>0</asrwt>
<pdfrwt beam="1">  1        2 0.22693095E+00 0.12030735E+04</pdfrwt>
<pdfrwt beam="2">  1       -2 0.18051623E+00 0.12030735E+04</pdfrwt>
<totfact> 0.22878948E+00</totfact>
</mgrwt>
</event>
<event>
 4    2  0.3388003E-007  0.1131564E+04  0.7818608E-02  0.9226701E-01
          2   -1    0    0  501    0  0.00000000000E+00  0.00000000000E+00  0.13239842289E+04  0.13239842289E+04  0.25500000000E-02 0. -1.
         -2   -1    0    0    0  501 -0.00000000000E+00 -0.00000000000E+00 -0.13776012666E+04  0.13776012666E+04  0.25500000000E-02 0.  1.
    8880023    1    1    2    0    0 -0.91966520503E+03 -0.29036430884E+02 -0.89708790304E+03  0.14440235856E+04  0.65864270000E+03 0.  1.
    8880022    1    1    2    0    0  0.91966520503E+03  0.29036430884E+02  0.84347086528E+03  0.12575619099E+04  0.15294330000E+03 0.  0.
<mgrwt>
<rscale>  0 0.10782028E+04</rscale>
<asrwt>0</asrwt>
<pdfrwt beam="1">  1        2 0.20368988E+00 0.11315641E+04</pdfrwt>
<pdfrwt beam="2">  1       -2 0.21193866E+00 0.11315641E+04</pdfrwt>
<totfact> 0.17417528E+00</totfact>
</mgrwt>
</event>
<event>
 4    2  0.3388003E-007  0.7735117E+03  0.7818608E-02  0.9771305E-01
         -2   -1    0    0    0  501 -0.00000000000E+00  0.00000000000E+00  0.64791586831E+03  0.64791586832E+03  0.25500000000E-02 0.  1.
          2   -1    0    0  501    0  0.00000000000E+00 -0.00000000000E+00 -0.82156200471E+03  0.82156200471E+03  0.25500000000E-02 0. -1.
    8880023    1    1    2    0    0  0.36598466187E+03 -0.17482955923E+03  0.29796449325E+03  0.82891687943E+03  0.65864270000E+03 0.  1.
    8880022    1    1    2    0    0 -0.36598466187E+03  0.17482955923E+03 -0.47161062965E+03  0.64056099360E+03  0.15294330000E+03 0.  0.
<mgrwt>
<rscale>  0 0.66925486E+03</rscale>
<asrwt>0</asrwt>
<pdfrwt beam="1">  1        2 0.12639415E+00 0.77351170E+03</pdfrwt>
<pdfrwt beam="2">  1       -2 0.99679365E-01 0.77351170E+03</pdfrwt>
<totfact> 0.28005527E+01</totfact>
</mgrwt>
</event>
<event>
 4    2  0.3388003E-007  0.7054484E+03  0.7818608E-02  0.9975308E-01
          2   -1    0    0  501    0  0.00000000000E+00  0.00000000000E+00  0.89696073011E+03  0.89696073012E+03  0.25500000000E-02 0. -1.
         -2   -1    0    0    0  501 -0.00000000000E+00 -0.00000000000E+00 -0.29757557355E+03  0.29757557356E+03  0.25500000000E-02 0.  1.
    8880023    1    1    2    0    0  0.87054076274E+02 -0.23721050953E+03  0.27856083712E+03  0.75845473449E+03  0.65864270000E+03 0. -1.
    8880022    1    1    2    0    0 -0.87054076274E+02  0.23721050953E+03  0.32082431944E+03  0.43608156919E+03  0.15294330000E+03 0.  1.
<mgrwt>
<rscale>  0 0.56746320E+03</rscale>
<asrwt>0</asrwt>
<pdfrwt beam="1">  1        2 0.13799396E+00 0.70544840E+03</pdfrwt>
<pdfrwt beam="2">  1       -2 0.45780857E-01 0.70544840E+03</pdfrwt>
<totfact> 0.13524393E+02</totfact>
</mgrwt>
</event>
<event>
 4    2  0.3388003E-007  0.7430783E+03  0.7818608E-02  0.9851069E-01
          2   -1    0    0  501    0  0.00000000000E+00  0.00000000000E+00  0.23764529203E+04  0.23764529203E+04  0.25500000000E-02 0. -1.
         -2   -1    0    0    0  501 -0.00000000000E+00 -0.00000000000E+00 -0.46898749713E+03  0.46898749713E+03  0.25500000000E-02 0.  1.
    8880023    1    1    2    0    0  0.34398877353E+03 -0.51807738171E+01 -0.14639156506E+03  0.75736108516E+03  0.65864270000E+03 0.  1.
    8880022    1    1    2    0    0 -0.34398877353E+03  0.51807738171E+01  0.20538569882E+04  0.20880793322E+04  0.15294330000E+03 0.  0.
<mgrwt>
<rscale>  0 0.62692425E+03</rscale>
<asrwt>0</asrwt>
<pdfrwt beam="1">  1        2 0.36560814E+00 0.74307828E+03</pdfrwt>
<pdfrwt beam="2">  1       -2 0.72151924E-01 0.74307828E+03</pdfrwt>
<totfact> 0.74678653E+00</totfact>
</mgrwt>
</event>
<event>
 4    2  0.3388003E-007  0.6846758E+03  0.7818608E-02  0.1006793E+00
          2   -1    0    0  501    0  0.00000000000E+00  0.00000000000E+00  0.38312815847E+04  0.38312815847E+04  0.25500000000E-02 0. -1.
         -2   -1    0    0    0  501 -0.00000000000E+00 -0.00000000000E+00 -0.91531028184E+02  0.91531028220E+02  0.25500000000E-02 0.  1.
    8880023    1    1    2    0    0  0.74828898645E+01  0.18685500814E+03  0.12834126532E+04  0.14546233300E+04  0.65864270000E+03 0.  1.
    8880022    1    1    2    0    0 -0.74828898645E+01 -0.18685500814E+03  0.24563379033E+04  0.24681892829E+04  0.15294330000E+03 0.  0.
<mgrwt>
<rscale>  0 0.52769190E+03</rscale>
<asrwt>0</asrwt>
<pdfrwt beam="1">  1        2 0.58942805E+00 0.68467583E+03</pdfrwt>
<pdfrwt beam="2">  1       -2 0.14081694E-01 0.68467583E+03</pdfrwt>
<totfact> 0.20032273E+01</totfact>
</mgrwt>
</event>
<event>
 4    2  0.3388003E-007  0.7153585E+03  0.7818608E-02  0.9938616E-01
          2   -1    0    0  501    0  0.00000000000E+00  0.00000000000E+00  0.21356842741E+04  0.21356842741E+04  0.25500000000E-02 0. -1.
         -2   -1    0    0    0  501 -0.00000000000E+00 -0.00000000000E+00 -0.13372966079E+03  0.13372966082E+03  0.25500000000E-02 0.  1.
    8880023    1    1    2    0    0 -0.79915928308E+02  0.26747142077E+03  0.10925392691E+04  0.13059019019E+04  0.65864270000E+03 0.  0.
    8880022    1    1    2    0    0  0.79915928308E+02 -0.26747142077E+03  0.90941534417E+03  0.96351203301E+03  0.15294330000E+03 0.  0.
<mgrwt>
<rscale>  0 0.58425742E+03</rscale>
<asrwt>0</asrwt>
<pdfrwt beam="1">  1        2 0.32856680E+00 0.71535846E+03</pdfrwt>
<pdfrwt beam="2">  1       -2 0.20573795E-01 0.71535846E+03</pdfrwt>
<totfact> 0.11762370E+02</totfact>
</mgrwt>
</event>
<event>
 4    2  0.3388003E-007  0.7969844E+03  0.7818608E-02  0.9717355E-01
          2   -1    0    0  501    0  0.00000000000E+00  0.00000000000E+00  0.20595765851E+04  0.20595765851E+04  0.25500000000E-02 0. -1.
         -2   -1    0    0    0  501 -0.00000000000E+00 -0.00000000000E+00 -0.36388707255E+03  0.36388707256E+03  0.25500000000E-02 0.  1.
    8880023    1    1    2    0    0 -0.44127754076E+03  0.81535945872E+02  0.15557097042E+03  0.81202617664E+03  0.65864270000E+03 0.  1.
    8880022    1    1    2    0    0  0.44127754076E+03 -0.81535945872E+02  0.15401185421E+04  0.16114374810E+04  0.15294330000E+03 0.  0.
<mgrwt>
<rscale>  0 0.69992840E+03</rscale>
<asrwt>0</asrwt>
<pdfrwt beam="1">  1        2 0.31685795E+00 0.79698443E+03</pdfrwt>
<pdfrwt beam="2">  1       -2 0.55982625E-01 0.79698443E+03</pdfrwt>
<totfact> 0.19080633E+01</totfact>
</mgrwt>
</event>
<event>
 4    2  0.3388003E-007  0.1352711E+04  0.7818608E-02  0.9021327E-01
         -2   -1    0    0    0  501 -0.00000000000E+00  0.00000000000E+00  0.14999793160E+04  0.14999793160E+04  0.25500000000E-02 0.  1.
          2   -1    0    0  501    0  0.00000000000E+00 -0.00000000000E+00 -0.12153469722E+04  0.12153469722E+04  0.25500000000E-02 0. -1.
    8880023    1    1    2    0    0  0.54496767181E+03 -0.10483445651E+04  0.60466249550E+03  0.14817027470E+04  0.65864270000E+03 0.  0.
    8880022    1    1    2    0    0 -0.54496767181E+03  0.10483445651E+04 -0.32003015167E+03  0.12336235413E+04  0.15294330000E+03 0.  0.
<mgrwt>
<rscale>  0 0.13104399E+04</rscale>
<asrwt>0</asrwt>
<pdfrwt beam="1">  1        2 0.18697646E+00 0.13527107E+04</pdfrwt>
<pdfrwt beam="2">  1       -2 0.23076605E+00 0.13527107E+04</pdfrwt>
<totfact> 0.15004518E+00</totfact>
</mgrwt>
</event>
<event>
 4    2  0.3388003E-007  0.7397900E+03  0.7818608E-02  0.9860559E-01
          2   -1    0    0  501    0  0.00000000000E+00  0.00000000000E+00  0.50018972820E+03  0.50018972820E+03  0.25500000000E-02 0. -1.
         -2   -1    0    0    0  501 -0.00000000000E+00 -0.00000000000E+00 -0.62288964471E+03  0.62288964472E+03  0.25500000000E-02 0.  1.
    8880023    1    1    2    0    0 -0.11864449720E+03  0.31528167625E+03 -0.13910865122E+03  0.75275525585E+03  0.65864270000E+03 0. -1.
    8880022    1    1    2    0    0  0.11864449720E+03 -0.31528167625E+03  0.16408734711E+02  0.37032411707E+03  0.15294330000E+03 0.  0.
<mgrwt>
<rscale>  0 0.62211426E+03</rscale>
<asrwt>0</asrwt>
<pdfrwt beam="1">  1        2 0.76952266E-01 0.73979001E+03</pdfrwt>
<pdfrwt beam="2">  1       -2 0.95829176E-01 0.73979001E+03</pdfrwt>
<totfact> 0.56901751E+01</totfact>
</mgrwt>
</event>
<event>
 4    2  0.3388003E-007  0.1238437E+04  0.7818608E-02  0.9120635E-01
         -2   -1    0    0    0  501 -0.00000000000E+00  0.00000000000E+00  0.11690358073E+04  0.11690358073E+04  0.25500000000E-02 0.  1.
          2   -1    0    0  501    0  0.00000000000E+00 -0.00000000000E+00 -0.19134619398E+04  0.19134619398E+04  0.25500000000E-02 0. -1.
    8880023    1    1    2    0    0  0.96086638420E+03  0.42030010400E+03  0.59542045588E+03  0.13741368605E+04  0.65864270000E+03 0.  0.
    8880022    1    1    2    0    0 -0.96086638420E+03 -0.42030010400E+03 -0.13398465884E+04  0.17083608867E+04  0.15294330000E+03 0.  0.
<mgrwt>
<rscale>  0 0.11911538E+04</rscale>
<asrwt>0</asrwt>
<pdfrwt beam="1">  1        2 0.29437876E+00 0.12384372E+04</pdfrwt>
<pdfrwt beam="2">  1       -2 0.17985166E+00 0.12384372E+04</pdfrwt>
<totfact> 0.13117309E+00</totfact>
</mgrwt>
</event>
<event>
 4    2  0.3388003E-007  0.6736145E+03  0.7818608E-02  0.1013194E+00
         -2   -1    0    0    0  501 -0.00000000000E+00  0.00000000000E+00  0.33232484154E+03  0.33232484155E+03  0.25500000000E-02 0.  1.
          2   -1    0    0  501    0  0.00000000000E+00 -0.00000000000E+00 -0.65105756865E+03  0.65105756865E+03  0.25500000000E-02 0. -1.
    8880023    1    1    2    0    0 -0.10359065401E+03 -0.95996139369E+02 -0.37061361998E+03  0.76883739760E+03  0.65864270000E+03 0. -1.
    8880022    1    1    2    0    0  0.10359065401E+03  0.95996139369E+02  0.51880892876E+02  0.21454501260E+03  0.15294330000E+03 0. -1.
<mgrwt>
<rscale>  0 0.50224670E+03</rscale>
<asrwt>0</asrwt>
<pdfrwt beam="1">  1        2 0.10016270E+00 0.67361450E+03</pdfrwt>
<pdfrwt beam="2">  1       -2 0.51126899E-01 0.67361450E+03</pdfrwt>
<totfact> 0.16455325E+02</totfact>
</mgrwt>
</event>
<event>
 4    2  0.3388003E-007  0.8891997E+03  0.7818608E-02  0.9543597E-01
         -2   -1    0    0    0  501 -0.00000000000E+00  0.00000000000E+00  0.71101301425E+03  0.71101301425E+03  0.25500000000E-02 0.  1.
          2   -1    0    0  501    0  0.00000000000E+00 -0.00000000000E+00 -0.21969177045E+04  0.21969177045E+04  0.25500000000E-02 0. -1.
    8880023    1    1    2    0    0  0.58214400316E+03 -0.13406809860E+03  0.36184143241E+03  0.96000277289E+03  0.65864270000E+03 0.  1.
    8880022    1    1    2    0    0 -0.58214400316E+03  0.13406809860E+03 -0.18477461227E+04  0.19479279459E+04  0.15294330000E+03 0.  0.
<mgrwt>
<rscale>  0 0.81144523E+03</rscale>
<asrwt>0</asrwt>
<pdfrwt beam="1">  1        2 0.33798734E+00 0.88919970E+03</pdfrwt>
<pdfrwt beam="2">  1       -2 0.10938662E+00 0.88919970E+03</pdfrwt>
<totfact> 0.35156648E+00</totfact>
</mgrwt>
</event>
<event>
 4    2  0.3388003E-007  0.6622391E+03  0.7818608E-02  0.1021971E+00
         -2   -1    0    0    0  501 -0.00000000000E+00  0.00000000000E+00  0.53597607446E+03  0.53597607447E+03  0.25500000000E-02 0.  1.
          2   -1    0    0  501    0  0.00000000000E+00 -0.00000000000E+00 -0.29007770042E+04  0.29007770042E+04  0.25500000000E-02 0. -1.
    8880023    1    1    2    0    0  0.40988456802E+02 -0.55410722268E+02  0.32780289247E+03  0.73892851096E+03  0.65864270000E+03 0.  1.
    8880022    1    1    2    0    0 -0.40988456802E+02  0.55410722268E+02 -0.26926038222E+04  0.26978245677E+04  0.15294330000E+03 0.  0.
<mgrwt>
<rscale>  0 0.46981901E+03</rscale>
<asrwt>0</asrwt>
<pdfrwt beam="1">  1        2 0.44627338E+00 0.66223909E+03</pdfrwt>
<pdfrwt beam="2">  1       -2 0.82457859E-01 0.66223909E+03</pdfrwt>
<totfact> 0.28084709E+00</totfact>
</mgrwt>
</event>
<event>
 4    2  0.3388003E-007  0.1230705E+04  0.7818608E-02  0.9127838E-01
          2   -1    0    0  501    0  0.00000000000E+00  0.00000000000E+00  0.22550555348E+04  0.22550555348E+04  0.25500000000E-02 0. -1.
         -2   -1    0    0    0  501 -0.00000000000E+00 -0.00000000000E+00 -0.72760352053E+03  0.72760352054E+03  0.25500000000E-02 0.  1.
    8880023    1    1    2    0    0 -0.21496637161E+03  0.10171601217E+04  0.13483754795E+03  0.12380697172E+04  0.65864270000E+03 0.  0.
    8880022    1    1    2    0    0  0.21496637161E+03 -0.10171601217E+04  0.13926144664E+04  0.17445893382E+04  0.15294330000E+03 0.  0.
<mgrwt>
<rscale>  0 0.11830343E+04</rscale>
<asrwt>0</asrwt>
<pdfrwt beam="1">  1        2 0.34693162E+00 0.12307053E+04</pdfrwt>
<pdfrwt beam="2">  1       -2 0.11193900E+00 0.12307053E+04</pdfrwt>
<totfact> 0.29544753E+00</totfact>
</mgrwt>
</event>
<event>
 4    2  0.3388003E-007  0.7271428E+03  0.7818608E-02  0.9899119E-01
          2   -1    0    0  501    0  0.00000000000E+00  0.00000000000E+00  0.26573102390E+04  0.26573102390E+04  0.25500000000E-02 0. -1.
         -2   -1    0    0    0  501 -0.00000000000E+00 -0.00000000000E+00 -0.17551974711E+03  0.17551974713E+03  0.25500000000E-02 0.  1.
    8880023    1    1    2    0    0 -0.74770355268E+02 -0.29889092663E+03  0.67025849574E+03  0.98893025509E+03  0.65864270000E+03 0.  1.
    8880022    1    1    2    0    0  0.74770355268E+02  0.29889092663E+03  0.18115319961E+04  0.18438997310E+04  0.15294330000E+03 0.  0.
<mgrwt>
<rscale>  0 0.60304002E+03</rscale>
<asrwt>0</asrwt>
<pdfrwt beam="1">  1        2 0.40881697E+00 0.72714276E+03</pdfrwt>
<pdfrwt beam="2">  1       -2 0.27003037E-01 0.72714276E+03</pdfrwt>
<totfact> 0.36811749E+01</totfact>
</mgrwt>
</event>
<event>
 4    2  0.3660601E-007  0.7085419E+03  0.7818608E-02  0.9963456E-01
          2   -1    0    0  501    0  0.00000000000E+00  0.00000000000E+00  0.32256713057E+04  0.32256713057E+04  0.25500000000E-02 0. -1.
         -2   -1    0    0    0  501 -0.00000000000E+00 -0.00000000000E+00 -0.53496520338E+03  0.53496520338E+03  0.25500000000E-02 0.  1.
    8880023    1    1    2    0    0 -0.19669126143E+03  0.17185437156E+03 -0.28927897542E+03  0.76531948180E+03  0.65864270000E+03 0.  1.
    8880022    1    1    2    0    0  0.19669126143E+03 -0.17185437156E+03  0.29799850778E+04  0.29953170273E+04  0.15294330000E+03 0.  0.
<mgrwt>
<rscale>  0 0.57282082E+03</rscale>
<asrwt>0</asrwt>
<pdfrwt beam="1">  1        2 0.49625714E+00 0.70854187E+03</pdfrwt>
<pdfrwt beam="2">  1       -2 0.82302336E-01 0.70854187E+03</pdfrwt>
<totfact> 0.17572066E+00</totfact>
</mgrwt>
</event>
<event>
 4    2  0.3388003E-007  0.7959194E+03  0.7818608E-02  0.9719690E-01
          2   -1    0    0  501    0  0.00000000000E+00  0.00000000000E+00  0.17208581836E+04  0.17208581836E+04  0.25500000000E-02 0. -1.
         -2   -1    0    0    0  501 -0.00000000000E+00 -0.00000000000E+00 -0.41012543755E+03  0.41012543756E+03  0.25500000000E-02 0.  1.
    8880023    1    1    2    0    0 -0.17039290069E+03  0.41309047861E+03  0.64820176037E+02  0.79855453515E+03  0.65864270000E+03 0.  1.
    8880022    1    1    2    0    0  0.17039290069E+03 -0.41309047861E+03  0.12459125700E+04  0.13324290860E+04  0.15294330000E+03 0.  0.
<mgrwt>
<rscale>  0 0.69856489E+03</rscale>
<asrwt>0</asrwt>
<pdfrwt beam="1">  1        2 0.26474740E+00 0.79591940E+03</pdfrwt>
<pdfrwt beam="2">  1       -2 0.63096224E-01 0.79591940E+03</pdfrwt>
<totfact> 0.22709261E+01</totfact>
</mgrwt>
</event>
<event>
 4    2  0.3388003E-007  0.8158904E+03  0.7818608E-02  0.9677436E-01
          2   -1    0    0  501    0  0.00000000000E+00  0.00000000000E+00  0.11905581963E+04  0.11905581963E+04  0.25500000000E-02 0. -1.
         -2   -1    0    0    0  501 -0.00000000000E+00 -0.00000000000E+00 -0.88111696642E+03  0.88111696642E+03  0.25500000000E-02 0.  1.
    8880023    1    1    2    0    0 -0.22866845746E+03 -0.42376602696E+03 -0.61260935710E+03  0.10202780698E+04  0.65864270000E+03 0.  0.
    8880022    1    1    2    0    0  0.22866845746E+03  0.42376602696E+03  0.92205058701E+03  0.10513970930E+04  0.15294330000E+03 0.  0.
<mgrwt>
<rscale>  0 0.72376304E+03</rscale>
<asrwt>0</asrwt>
<pdfrwt beam="1">  1        2 0.18316280E+00 0.81589038E+03</pdfrwt>
<pdfrwt beam="2">  1       -2 0.13555646E+00 0.81589038E+03</pdfrwt>
<totfact> 0.75798295E+00</totfact>
</mgrwt>
</event>
<event>
 4    2  0.3388003E-007  0.1019763E+04  0.7818608E-02  0.9356147E-01
         -2   -1    0    0    0  501 -0.00000000000E+00  0.00000000000E+00  0.79374036209E+03  0.79374036209E+03  0.25500000000E-02 0.  1.
          2   -1    0    0  501    0  0.00000000000E+00 -0.00000000000E+00 -0.12509190557E+04  0.12509190557E+04  0.25500000000E-02 0. -1.
    8880023    1    1    2    0    0  0.19017300317E+03  0.75494346500E+03  0.16931568848E+03  0.10337230843E+04  0.65864270000E+03 0.  0.
    8880022    1    1    2    0    0 -0.19017300317E+03 -0.75494346500E+03 -0.62649438206E+03  0.10109363334E+04  0.15294330000E+03 0.  0.
<mgrwt>
<rscale>  0 0.95774193E+03</rscale>
<asrwt>0</asrwt>
<pdfrwt beam="1">  1        2 0.19244909E+00 0.10197625E+04</pdfrwt>
<pdfrwt beam="2">  1       -2 0.12211390E+00 0.10197625E+04</pdfrwt>
<totfact> 0.88982968E+00</totfact>
</mgrwt>
</event>
<event>
 4    2  0.3388003E-007  0.6779970E+03  0.7818608E-02  0.1010480E+00
          2   -1    0    0  501    0  0.00000000000E+00  0.00000000000E+00  0.17989130814E+04  0.17989130814E+04  0.25500000000E-02 0. -1.
         -2   -1    0    0    0  501 -0.00000000000E+00 -0.00000000000E+00 -0.12082903266E+03  0.12082903269E+03  0.25500000000E-02 0.  1.
    8880023    1    1    2    0    0 -0.13927850434E+03 -0.80443863585E+02  0.10160147200E+04  0.12214605333E+04  0.65864270000E+03 0.  1.
    8880022    1    1    2    0    0  0.13927850434E+03  0.80443863585E+02  0.66206932875E+03  0.69828158077E+03  0.15294330000E+03 0.  0.
<mgrwt>
<rscale>  0 0.51284265E+03</rscale>
<asrwt>0</asrwt>
<pdfrwt beam="1">  1        2 0.27675583E+00 0.67799699E+03</pdfrwt>
<pdfrwt beam="2">  1       -2 0.18589084E-01 0.67799699E+03</pdfrwt>
<totfact> 0.21496428E+02</totfact>
</mgrwt>
</event>
<event>
 4    2  0.3388003E-007  0.8161464E+03  0.7818608E-02  0.9676914E-01
          2   -1    0    0  501    0  0.00000000000E+00  0.00000000000E+00  0.97851489500E+03  0.97851489500E+03  0.25500000000E-02 0. -1.
         -2   -1    0    0    0  501 -0.00000000000E+00 -0.00000000000E+00 -0.67153524847E+03  0.67153524847E+03  0.25500000000E-02 0.  1.
    8880023    1    1    2    0    0  0.20390582209E+03  0.43670029858E+03 -0.29142754388E+03  0.86661695959E+03  0.65864270000E+03 0.  0.
    8880022    1    1    2    0    0 -0.20390582209E+03 -0.43670029858E+03  0.59840719041E+03  0.78343318388E+03  0.15294330000E+03 0.  0.
<mgrwt>
<rscale>  0 0.72408138E+03</rscale>
<asrwt>0</asrwt>
<pdfrwt beam="1">  1        2 0.15054075E+00 0.81614640E+03</pdfrwt>
<pdfrwt beam="2">  1       -2 0.10331312E+00 0.81614640E+03</pdfrwt>
<totfact> 0.20066322E+01</totfact>
</mgrwt>
</event>
<event>
 4    2  0.3388003E-007  0.8932430E+03  0.7818608E-02  0.9536967E-01
          2   -1    0    0  501    0  0.00000000000E+00  0.00000000000E+00  0.24140733252E+04  0.24140733252E+04  0.25500000000E-02 0. -1.
         -2   -1    0    0    0  501 -0.00000000000E+00 -0.00000000000E+00 -0.64117359748E+03  0.64117359748E+03  0.25500000000E-02 0.  1.
    8880023    1    1    2    0    0 -0.24917860196E+03  0.54952961590E+03 -0.25908524553E+03  0.93005814073E+03  0.65864270000E+03 0.  0.
    8880022    1    1    2    0    0  0.24917860196E+03 -0.54952961590E+03  0.20319849733E+04  0.21251887820E+04  0.15294330000E+03 0. -1.
<mgrwt>
<rscale>  0 0.81612406E+03</rscale>
<asrwt>0</asrwt>
<pdfrwt beam="1">  1        2 0.37139590E+00 0.89324296E+03</pdfrwt>
<pdfrwt beam="2">  1       -2 0.98642092E-01 0.89324296E+03</pdfrwt>
<totfact> 0.34048693E+00</totfact>
</mgrwt>
</event>
<event>
 4    2  0.3388003E-007  0.8957414E+03  0.7818608E-02  0.9532903E-01
         -2   -1    0    0    0  501 -0.00000000000E+00  0.00000000000E+00  0.82634434088E+03  0.82634434089E+03  0.25500000000E-02 0.  1.
          2   -1    0    0  501    0  0.00000000000E+00 -0.00000000000E+00 -0.13914878115E+04  0.13914878115E+04  0.25500000000E-02 0. -1.
    8880023    1    1    2    0    0  0.53870121548E+03 -0.27989915151E+03  0.46737578081E+03  0.10103429424E+04  0.65864270000E+03 0.  1.
    8880022    1    1    2    0    0 -0.53870121548E+03  0.27989915151E+03 -0.10325192514E+04  0.12074892100E+04  0.15294330000E+03 0.  0.
<mgrwt>
<rscale>  0 0.81900895E+03</rscale>
<asrwt>0</asrwt>
<pdfrwt beam="1">  1        2 0.21407505E+00 0.89574145E+03</pdfrwt>
<pdfrwt beam="2">  1       -2 0.12712990E+00 0.89574145E+03</pdfrwt>
<totfact> 0.67544071E+00</totfact>
</mgrwt>
</event>
<event>
 4    2  0.3388003E-007  0.7067942E+03  0.7818608E-02  0.9970104E-01
          2   -1    0    0  501    0  0.00000000000E+00  0.00000000000E+00  0.10967365990E+04  0.10967365990E+04  0.25500000000E-02 0. -1.
         -2   -1    0    0    0  501 -0.00000000000E+00 -0.00000000000E+00 -0.49014696464E+03  0.49014696465E+03  0.25500000000E-02 0.  1.
    8880023    1    1    2    0    0  0.12934664159E+03 -0.22139833470E+03 -0.19358324182E+03  0.73282498188E+03  0.65864270000E+03 0.  1.
    8880022    1    1    2    0    0 -0.12934664159E+03  0.22139833470E+03  0.80017287613E+03  0.85405858172E+03  0.15294330000E+03 0.  0.
<mgrwt>
<rscale>  0 0.56980787E+03</rscale>
<asrwt>0</asrwt>
<pdfrwt beam="1">  1        2 0.16872871E+00 0.70679416E+03</pdfrwt>
<pdfrwt beam="2">  1       -2 0.75407226E-01 0.70679416E+03</pdfrwt>
<totfact> 0.35275615E+01</totfact>
</mgrwt>
</event>
<event>
 4    2  0.3388003E-007  0.8234629E+03  0.7818608E-02  0.9662188E-01
         -2   -1    0    0    0  501 -0.00000000000E+00  0.00000000000E+00  0.46504069221E+03  0.46504069222E+03  0.25500000000E-02 0.  1.
          2   -1    0    0  501    0  0.00000000000E+00 -0.00000000000E+00 -0.14297914314E+04  0.14297914314E+04  0.25500000000E-02 0. -1.
    8880023    1    1    2    0    0  0.26854991245E+03 -0.41492395084E+03 -0.27091432597E+02  0.82390842479E+03  0.65864270000E+03 0.  1.
    8880022    1    1    2    0    0 -0.26854991245E+03  0.41492395084E+03 -0.93765930656E+03  0.10709236988E+04  0.15294330000E+03 0. -1.
<mgrwt>
<rscale>  0 0.73313426E+03</rscale>
<asrwt>0</asrwt>
<pdfrwt beam="1">  1        2 0.21996791E+00 0.82346290E+03</pdfrwt>
<pdfrwt beam="2">  1       -2 0.71544722E-01 0.82346290E+03</pdfrwt>
<totfact> 0.25006990E+01</totfact>
</mgrwt>
</event>
<event>
 4    2  0.3388003E-007  0.1031407E+04  0.7818608E-02  0.9341574E-01
          2   -1    0    0  501    0  0.00000000000E+00  0.00000000000E+00  0.15113505708E+04  0.15113505708E+04  0.25500000000E-02 0. -1.
         -2   -1    0    0    0  501 -0.00000000000E+00 -0.00000000000E+00 -0.57436457953E+03  0.57436457954E+03  0.25500000000E-02 0.  1.
    8880023    1    1    2    0    0 -0.69351972929E+03  0.38603182116E+03  0.35935379016E+03  0.10922158828E+04  0.65864270000E+03 0.  1.
    8880022    1    1    2    0    0  0.69351972929E+03 -0.38603182116E+03  0.57763220113E+03  0.99349926757E+03  0.15294330000E+03 0. -1.
<mgrwt>
<rscale>  0 0.97043943E+03</rscale>
<asrwt>0</asrwt>
<pdfrwt beam="1">  1        2 0.23251547E+00 0.10314070E+04</pdfrwt>
<pdfrwt beam="2">  1       -2 0.88363783E-01 0.10314070E+04</pdfrwt>
<totfact> 0.13700121E+01</totfact>
</mgrwt>
</event>
<event>
 4    2  0.3388003E-007  0.8547630E+03  0.7818608E-02  0.9602948E-01
         -2   -1    0    0    0  501 -0.00000000000E+00  0.00000000000E+00  0.12723003185E+04  0.12723003185E+04  0.25500000000E-02 0.  1.
          2   -1    0    0  501    0  0.00000000000E+00 -0.00000000000E+00 -0.57037822809E+03  0.57037822810E+03  0.25500000000E-02 0. -1.
    8880023    1    1    2    0    0 -0.50098557485E+03  0.21406331712E+03  0.90182702553E+03  0.12425424903E+04  0.65864270000E+03 0.  1.
    8880022    1    1    2    0    0  0.50098557485E+03 -0.21406331712E+03 -0.19990493514E+03  0.60013605628E+03  0.15294330000E+03 0.  0.
<mgrwt>
<rscale>  0 0.77101387E+03</rscale>
<asrwt>0</asrwt>
<pdfrwt beam="1">  1        2 0.87750497E-01 0.85476304E+03</pdfrwt>
<pdfrwt beam="2">  1       -2 0.19573851E+00 0.85476304E+03</pdfrwt>
<totfact> 0.75393111E+00</totfact>
</mgrwt>
</event>
<event>
 4    2  0.3388003E-007  0.7063616E+03  0.7818608E-02  0.9971768E-01
         -2   -1    0    0    0  501 -0.00000000000E+00  0.00000000000E+00  0.72743414758E+03  0.72743414759E+03  0.25500000000E-02 0.  1.
          2   -1    0    0  501    0  0.00000000000E+00 -0.00000000000E+00 -0.11646005321E+04  0.11646005321E+04  0.25500000000E-02 0. -1.
    8880023    1    1    2    0    0  0.38519148918E+02 -0.25229504265E+03  0.52810098623E+03  0.88195088939E+03  0.65864270000E+03 0.  0.
    8880022    1    1    2    0    0 -0.38519148918E+02  0.25229504265E+03 -0.96526737078E+03  0.10100837903E+04  0.15294330000E+03 0.  0.
<mgrwt>
<rscale>  0 0.56905664E+03</rscale>
<asrwt>0</asrwt>
<pdfrwt beam="1">  1        2 0.17916931E+00 0.70636161E+03</pdfrwt>
<pdfrwt beam="2">  1       -2 0.11191295E+00 0.70636161E+03</pdfrwt>
<totfact> 0.12841884E+01</totfact>
</mgrwt>
</event>
<event>
 4    2  0.3388003E-007  0.8327121E+03  0.7818608E-02  0.9644078E-01
          2   -1    0    0  501    0  0.00000000000E+00  0.00000000000E+00  0.16431852154E+04  0.16431852154E+04  0.25500000000E-02 0. -1.
         -2   -1    0    0    0  501 -0.00000000000E+00 -0.00000000000E+00 -0.50970457848E+03  0.50970457848E+03  0.25500000000E-02 0.  1.
    8880023    1    1    2    0    0  0.31046881956E+03  0.40399047370E+03 -0.71431453468E+02  0.83577021338E+03  0.65864270000E+03 0.  1.
    8880022    1    1    2    0    0 -0.31046881956E+03 -0.40399047370E+03  0.12049120904E+04  0.13171195805E+04  0.15294330000E+03 0.  0.
<mgrwt>
<rscale>  0 0.74446227E+03</rscale>
<asrwt>0</asrwt>
<pdfrwt beam="1">  1        2 0.25279772E+00 0.83271207E+03</pdfrwt>
<pdfrwt beam="2">  1       -2 0.78416090E-01 0.83271207E+03</pdfrwt>
<totfact> 0.15502287E+01</totfact>
</mgrwt>
</event>
<event>
 4    2  0.3388003E-007  0.6745782E+03  0.7818608E-02  0.1012573E+00
         -2   -1    0    0    0  501 -0.00000000000E+00  0.00000000000E+00  0.86305767239E+03  0.86305767240E+03  0.25500000000E-02 0.  1.
          2   -1    0    0  501    0  0.00000000000E+00 -0.00000000000E+00 -0.63159024604E+03  0.63159024604E+03  0.25500000000E-02 0. -1.
    8880023    1    1    2    0    0 -0.13813569878E+03  0.46519964781E+02  0.70522897716E+03  0.97591172495E+03  0.65864270000E+03 0.  1.
    8880022    1    1    2    0    0  0.13813569878E+03 -0.46519964781E+02 -0.47376155081E+03  0.51873619349E+03  0.15294330000E+03 0.  0.
<mgrwt>
<rscale>  0 0.50464549E+03</rscale>
<asrwt>0</asrwt>
<pdfrwt beam="1">  1        2 0.97167731E-01 0.67457823E+03</pdfrwt>
<pdfrwt beam="2">  1       -2 0.13277810E+00 0.67457823E+03</pdfrwt>
<totfact> 0.19578614E+01</totfact>
</mgrwt>
</event>
<event>
 4    2  0.3388003E-007  0.6749458E+03  0.7818608E-02  0.1012340E+00
         -2   -1    0    0    0  501 -0.00000000000E+00  0.00000000000E+00  0.18444643567E+03  0.18444643569E+03  0.25500000000E-02 0.  1.
          2   -1    0    0  501    0  0.00000000000E+00 -0.00000000000E+00 -0.14597241289E+04  0.14597241289E+04  0.25500000000E-02 0. -1.
    8880023    1    1    2    0    0  0.14238324517E+03  0.38323607744E+02 -0.49907874190E+03  0.83942330459E+03  0.65864270000E+03 0.  1.
    8880022    1    1    2    0    0 -0.14238324517E+03 -0.38323607744E+02 -0.77619895134E+03  0.80474726001E+03  0.15294330000E+03 0.  0.
<mgrwt>
<rscale>  0 0.50554973E+03</rscale>
<asrwt>0</asrwt>
<pdfrwt beam="1">  1        2 0.22457294E+00 0.67494584E+03</pdfrwt>
<pdfrwt beam="2">  1       -2 0.28376376E-01 0.67494584E+03</pdfrwt>
<totfact> 0.15540663E+02</totfact>
</mgrwt>
</event>
<event>
 4    2  0.3388003E-007  0.7162958E+03  0.7818608E-02  0.9935325E-01
         -2   -1    0    0    0  501 -0.00000000000E+00  0.00000000000E+00  0.73126238427E+03  0.73126238427E+03  0.25500000000E-02 0.  1.
          2   -1    0    0  501    0  0.00000000000E+00 -0.00000000000E+00 -0.49326917998E+03  0.49326917999E+03  0.25500000000E-02 0. -1.
    8880023    1    1    2    0    0 -0.26367109319E+03 -0.98727038219E+02  0.44481287275E+03  0.84317149590E+03  0.65864270000E+03 0.  0.
    8880022    1    1    2    0    0  0.26367109319E+03  0.98727038219E+02 -0.20681966847E+03  0.38136006836E+03  0.15294330000E+03 0.  0.
<mgrwt>
<rscale>  0 0.58579419E+03</rscale>
<asrwt>0</asrwt>
<pdfrwt beam="1">  1        2 0.75887566E-01 0.71629580E+03</pdfrwt>
<pdfrwt beam="2">  1       -2 0.11250191E+00 0.71629580E+03</pdfrwt>
<totfact> 0.39478856E+01</totfact>
</mgrwt>
</event>
<event>
 4    2  0.3388003E-007  0.8265167E+03  0.7818608E-02  0.9656148E-01
         -2   -1    0    0    0  501 -0.00000000000E+00  0.00000000000E+00  0.61045099130E+03  0.61045099130E+03  0.25500000000E-02 0.  1.
          2   -1    0    0  501    0  0.00000000000E+00 -0.00000000000E+00 -0.74935530230E+03  0.74935530231E+03  0.25500000000E-02 0. -1.
    8880023    1    1    2    0    0 -0.41613908023E+03 -0.27594904486E+03 -0.13567694259E+03  0.83757868196E+03  0.65864270000E+03 0.  1.
    8880022    1    1    2    0    0  0.41613908023E+03  0.27594904486E+03 -0.32273684198E+01  0.52222761166E+03  0.15294330000E+03 0. -1.
<mgrwt>
<rscale>  0 0.73688820E+03</rscale>
<asrwt>0</asrwt>
<pdfrwt beam="1">  1        2 0.11528543E+00 0.82651668E+03</pdfrwt>
<pdfrwt beam="2">  1       -2 0.93915537E-01 0.82651668E+03</pdfrwt>
<totfact> 0.36208227E+01</totfact>
</mgrwt>
</event>
<event>
 4    2  0.3388003E-007  0.1465887E+04  0.7818608E-02  0.8934107E-01
         -2   -1    0    0    0  501 -0.00000000000E+00  0.00000000000E+00  0.26104060423E+04  0.26104060423E+04  0.25500000000E-02 0.  1.
          2   -1    0    0  501    0  0.00000000000E+00 -0.00000000000E+00 -0.11519901107E+04  0.11519901107E+04  0.25500000000E-02 0. -1.
    8880023    1    1    2    0    0  0.93182451148E+03 -0.92017320071E+03  0.18746811832E+04  0.23797595224E+04  0.65864270000E+03 0.  0.
    8880022    1    1    2    0    0 -0.93182451148E+03  0.92017320071E+03 -0.41626525160E+03  0.13826366306E+04  0.15294330000E+03 0.  0.
<mgrwt>
<rscale>  0 0.14275601E+04</rscale>
<asrwt>0</asrwt>
<pdfrwt beam="1">  1        2 0.17722925E+00 0.14658874E+04</pdfrwt>
<pdfrwt beam="2">  1       -2 0.40160093E+00 0.14658874E+04</pdfrwt>
<totfact> 0.13949020E-01</totfact>
</mgrwt>
</event>
<event>
 4    2  0.3388003E-007  0.6664871E+03  0.7818608E-02  0.1018317E+00
         -2   -1    0    0    0  501 -0.00000000000E+00  0.00000000000E+00  0.52408065778E+03  0.52408065779E+03  0.25500000000E-02 0.  1.
          2   -1    0    0  501    0  0.00000000000E+00 -0.00000000000E+00 -0.59204361249E+03  0.59204361250E+03  0.25500000000E-02 0. -1.
    8880023    1    1    2    0    0 -0.60426266278E+02  0.82119125364E+02  0.27974937109E+03  0.72281726688E+03  0.65864270000E+03 0.  0.
    8880022    1    1    2    0    0  0.60426266278E+02 -0.82119125364E+02 -0.34771232580E+03  0.39330700341E+03  0.15294330000E+03 0.  0.
<mgrwt>
<rscale>  0 0.48298849E+03</rscale>
<asrwt>0</asrwt>
<pdfrwt beam="1">  1        2 0.91083632E-01 0.66648713E+03</pdfrwt>
<pdfrwt beam="2">  1       -2 0.80627794E-01 0.66648713E+03</pdfrwt>
<totfact> 0.69666868E+01</totfact>
</mgrwt>
</event>
<event>
 4    2  0.3388003E-007  0.7448534E+03  0.7818608E-02  0.9846028E-01
         -2   -1    0    0    0  501 -0.00000000000E+00  0.00000000000E+00  0.38280280357E+03  0.38280280358E+03  0.25500000000E-02 0.  1.
          2   -1    0    0  501    0  0.00000000000E+00 -0.00000000000E+00 -0.21865835599E+04  0.21865835599E+04  0.25500000000E-02 0. -1.
    8880023    1    1    2    0    0  0.34675121065E+03  0.27567823440E+02 -0.19516280289E+02  0.74510903795E+03  0.65864270000E+03 0.  0.
    8880022    1    1    2    0    0 -0.34675121065E+03 -0.27567823440E+02 -0.17842644760E+04  0.18242773255E+04  0.15294330000E+03 0.  0.
<mgrwt>
<rscale>  0 0.62949822E+03</rscale>
<asrwt>0</asrwt>
<pdfrwt beam="1">  1        2 0.33639746E+00 0.74485340E+03</pdfrwt>
<pdfrwt beam="2">  1       -2 0.58892740E-01 0.74485340E+03</pdfrwt>
<totfact> 0.14721401E+01</totfact>
</mgrwt>
</event>
<event>
 4    2  0.3388003E-007  0.7829452E+03  0.7818608E-02  0.9748964E-01
         -2   -1    0    0    0  501 -0.00000000000E+00  0.00000000000E+00  0.57467756756E+03  0.57467756756E+03  0.25500000000E-02 0.  1.
          2   -1    0    0  501    0  0.00000000000E+00 -0.00000000000E+00 -0.13233337348E+04  0.13233337348E+04  0.25500000000E-02 0. -1.
    8880023    1    1    2    0    0 -0.35194316738E+03  0.23522126190E+03  0.23401164667E+03  0.81716870483E+03  0.65864270000E+03 0.  1.
    8880022    1    1    2    0    0  0.35194316738E+03 -0.23522126190E+03 -0.98266781391E+03  0.10808425975E+04  0.15294330000E+03 0.  0.
<mgrwt>
<rscale>  0 0.68174878E+03</rscale>
<asrwt>0</asrwt>
<pdfrwt beam="1">  1        2 0.20358980E+00 0.78294524E+03</pdfrwt>
<pdfrwt beam="2">  1       -2 0.88411934E-01 0.78294524E+03</pdfrwt>
<totfact> 0.17945086E+01</totfact>
</mgrwt>
</event>
<event>
 4    2  0.3388003E-007  0.6815279E+03  0.7818608E-02  0.1008472E+00
          2   -1    0    0  501    0  0.00000000000E+00  0.00000000000E+00  0.27285022767E+04  0.27285022767E+04  0.25500000000E-02 0. -1.
         -2   -1    0    0    0  501 -0.00000000000E+00 -0.00000000000E+00 -0.25622741016E+03  0.25622741017E+03  0.25500000000E-02 0.  1.
    8880023    1    1    2    0    0 -0.17390076528E+03 -0.20702045747E+02  0.21374048379E+03  0.71425853270E+03  0.65864270000E+03 0.  1.
    8880022    1    1    2    0    0  0.17390076528E+03  0.20702045747E+02  0.22585343828E+04  0.22704711542E+04  0.15294330000E+03 0.  0.
<mgrwt>
<rscale>  0 0.52086352E+03</rscale>
<asrwt>0</asrwt>
<pdfrwt beam="1">  1        2 0.41976960E+00 0.68152788E+03</pdfrwt>
<pdfrwt beam="2">  1       -2 0.39419600E-01 0.68152788E+03</pdfrwt>
<totfact> 0.16552424E+01</totfact>
</mgrwt>
</event>
<event>
 4    2  0.3388003E-007  0.8877712E+03  0.7818608E-02  0.9545955E-01
         -2   -1    0    0    0  501 -0.00000000000E+00  0.00000000000E+00  0.83845866047E+03  0.83845866047E+03  0.25500000000E-02 0.  1.
          2   -1    0    0  501    0  0.00000000000E+00 -0.00000000000E+00 -0.69490255760E+03  0.69490255761E+03  0.25500000000E-02 0. -1.
    8880023    1    1    2    0    0  0.17172477502E+03 -0.56994575165E+03  0.21837578855E+03  0.91423506248E+03  0.65864270000E+03 0. -1.
    8880022    1    1    2    0    0 -0.17172477502E+03  0.56994575165E+03 -0.74819685684E+02  0.61912615560E+03  0.15294330000E+03 0.  1.
<mgrwt>
<rscale>  0 0.80978912E+03</rscale>
<asrwt>0</asrwt>
<pdfrwt beam="1">  1        2 0.10690809E+00 0.88777123E+03</pdfrwt>
<pdfrwt beam="2">  1       -2 0.12899364E+00 0.88777123E+03</pdfrwt>
<totfact> 0.18352082E+01</totfact>
</mgrwt>
</event>
<event>
 4    2  0.3388003E-007  0.1789305E+04  0.7818608E-02  0.8728476E-01
         -2   -1    0    0    0  501 -0.00000000000E+00  0.00000000000E+00  0.14712697343E+04  0.14712697343E+04  0.25500000000E-02 0.  1.
          2   -1    0    0  501    0  0.00000000000E+00 -0.00000000000E+00 -0.29554203851E+04  0.29554203851E+04  0.25500000000E-02 0. -1.
    8880023    1    1    2    0    0 -0.15719213860E+04 -0.54485380317E+03  0.47562422392E+03  0.18514402824E+04  0.65864270000E+03 0.  0.
    8880022    1    1    2    0    0  0.15719213860E+04  0.54485380317E+03 -0.19597748747E+04  0.25752498371E+04  0.15294330000E+03 0.  0.
<mgrwt>
<rscale>  0 0.17588834E+04</rscale>
<asrwt>0</asrwt>
<pdfrwt beam="1">  1        2 0.45468006E+00 0.17893051E+04</pdfrwt>
<pdfrwt beam="2">  1       -2 0.22634919E+00 0.17893051E+04</pdfrwt>
<totfact> 0.15218835E-01</totfact>
</mgrwt>
</event>
<event>
 4    2  0.3388003E-007  0.6784798E+03  0.7818608E-02  0.1010197E+00
          2   -1    0    0  501    0  0.00000000000E+00  0.00000000000E+00  0.21266133660E+04  0.21266133660E+04  0.25500000000E-02 0. -1.
         -2   -1    0    0    0  501 -0.00000000000E+00 -0.00000000000E+00 -0.24079144273E+03  0.24079144275E+03  0.25500000000E-02 0.  1.
    8880023    1    1    2    0    0  0.14041036372E+03  0.82520087425E+02  0.26045474010E+03  0.72675409388E+03  0.65864270000E+03 0.  1.
    8880022    1    1    2    0    0 -0.14041036372E+03 -0.82520087425E+02  0.16253671832E+04  0.16406507149E+04  0.15294330000E+03 0.  0.
<mgrwt>
<rscale>  0 0.51396433E+03</rscale>
<asrwt>0</asrwt>
<pdfrwt beam="1">  1        2 0.32717130E+00 0.67847980E+03</pdfrwt>
<pdfrwt beam="2">  1       -2 0.37044836E-01 0.67847980E+03</pdfrwt>
<totfact> 0.40690821E+01</totfact>
</mgrwt>
</event>
<event>
 4    2  0.3388003E-007  0.8511009E+03  0.7818608E-02  0.9609593E-01
         -2   -1    0    0    0  501 -0.00000000000E+00  0.00000000000E+00  0.93688630484E+03  0.93688630484E+03  0.25500000000E-02 0.  1.
          2   -1    0    0  501    0  0.00000000000E+00 -0.00000000000E+00 -0.75092010877E+03  0.75092010877E+03  0.25500000000E-02 0. -1.
    8880023    1    1    2    0    0  0.50365547004E+03  0.19207751366E+03  0.55574003101E+03  0.10164741965E+04  0.65864270000E+03 0. -1.
    8880022    1    1    2    0    0 -0.50365547004E+03 -0.19207751366E+03 -0.36977383494E+03  0.67133221715E+03  0.15294330000E+03 0.  0.
<mgrwt>
<rscale>  0 0.76664463E+03</rscale>
<asrwt>0</asrwt>
<pdfrwt beam="1">  1        2 0.11552617E+00 0.85110094E+03</pdfrwt>
<pdfrwt beam="2">  1       -2 0.14413635E+00 0.85110094E+03</pdfrwt>
<totfact> 0.12526602E+01</totfact>
</mgrwt>
</event>
<event>
 4    2  0.3388003E-007  0.9414839E+03  0.7818608E-02  0.9462474E-01
          2   -1    0    0  501    0  0.00000000000E+00  0.00000000000E+00  0.24919284330E+04  0.24919284330E+04  0.25500000000E-02 0. -1.
         -2   -1    0    0    0  501 -0.00000000000E+00 -0.00000000000E+00 -0.36163583308E+03  0.36163583309E+03  0.25500000000E-02 0.  1.
    8880023    1    1    2    0    0 -0.62509486931E+03  0.24867290287E+03  0.46300294316E+03  0.10491728837E+04  0.65864270000E+03 0.  1.
    8880022    1    1    2    0    0  0.62509486931E+03 -0.24867290287E+03  0.16672896567E+04  0.18043913824E+04  0.15294330000E+03 0.  0.
<mgrwt>
<rscale>  0 0.87107897E+03</rscale>
<asrwt>0</asrwt>
<pdfrwt beam="1">  1        2 0.38337360E+00 0.94148394E+03</pdfrwt>
<pdfrwt beam="2">  1       -2 0.55636283E-01 0.94148394E+03</pdfrwt>
<totfact> 0.10886729E+01</totfact>
</mgrwt>
</event>
<event>
 4    2  0.3388003E-007  0.1199577E+04  0.7818608E-02  0.9157534E-01
         -2   -1    0    0    0  501 -0.00000000000E+00  0.00000000000E+00  0.18336728941E+04  0.18336728941E+04  0.25500000000E-02 0.  1.
          2   -1    0    0  501    0  0.00000000000E+00 -0.00000000000E+00 -0.13192048432E+04  0.13192048432E+04  0.25500000000E-02 0. -1.
    8880023    1    1    2    0    0  0.81100496404E+03 -0.58944443515E+03  0.13736344831E+04  0.18236928725E+04  0.65864270000E+03 0.  1.
    8880022    1    1    2    0    0 -0.81100496404E+03  0.58944443515E+03 -0.85916643217E+03  0.13291848649E+04  0.15294330000E+03 0.  0.
<mgrwt>
<rscale>  0 0.11502705E+04</rscale>
<asrwt>0</asrwt>
<pdfrwt beam="1">  1        2 0.20295459E+00 0.11995766E+04</pdfrwt>
<pdfrwt beam="2">  1       -2 0.28210352E+00 0.11995766E+04</pdfrwt>
<totfact> 0.64193430E-01</totfact>
</mgrwt>
</event>
<event>
 4    2  0.3388003E-007  0.1044548E+04  0.7818608E-02  0.9325464E-01
         -2   -1    0    0    0  501 -0.00000000000E+00  0.00000000000E+00  0.89204826382E+03  0.89204826383E+03  0.25500000000E-02 0.  1.
          2   -1    0    0  501    0  0.00000000000E+00 -0.00000000000E+00 -0.11934402750E+04  0.11934402750E+04  0.25500000000E-02 0. -1.
    8880023    1    1    2    0    0 -0.53330965877E+03  0.61061543440E+03  0.27369636742E+03  0.10798103114E+04  0.65864270000E+03 0.  0.
    8880022    1    1    2    0    0  0.53330965877E+03 -0.61061543440E+03 -0.57508837861E+03  0.10056782274E+04  0.15294330000E+03 0.  0.
<mgrwt>
<rscale>  0 0.98471999E+03</rscale>
<asrwt>0</asrwt>
<pdfrwt beam="1">  1        2 0.18360620E+00 0.10445480E+04</pdfrwt>
<pdfrwt beam="2">  1       -2 0.13723819E+00 0.10445480E+04</pdfrwt>
<totfact> 0.71382813E+00</totfact>
</mgrwt>
</event>
<event>
 4    2  0.3388003E-007  0.6899157E+03  0.7818608E-02  0.1004193E+00
          2   -1    0    0  501    0  0.00000000000E+00  0.00000000000E+00  0.63962518013E+03  0.63962518013E+03  0.25500000000E-02 0. -1.
         -2   -1    0    0    0  501 -0.00000000000E+00 -0.00000000000E+00 -0.92781933734E+03  0.92781933735E+03  0.25500000000E-02 0.  1.
    8880023    1    1    2    0    0 -0.13783892427E+03  0.15222974073E+03 -0.76258660901E+03  0.10283588895E+04  0.65864270000E+03 0.  1.
    8880022    1    1    2    0    0  0.13783892427E+03 -0.15222974073E+03  0.47439245180E+03  0.53908562803E+03  0.15294330000E+03 0.  0.
<mgrwt>
<rscale>  0 0.53849432E+03</rscale>
<asrwt>0</asrwt>
<pdfrwt beam="1">  1        2 0.98403874E-01 0.68991570E+03</pdfrwt>
<pdfrwt beam="2">  1       -2 0.14274144E+00 0.68991570E+03</pdfrwt>
<totfact> 0.15980831E+01</totfact>
</mgrwt>
</event>
<event>
 4    2  0.3388003E-007  0.7417008E+03  0.7818608E-02  0.9855020E-01
         -2   -1    0    0    0  501 -0.00000000000E+00  0.00000000000E+00  0.47606120433E+03  0.47606120434E+03  0.25500000000E-02 0.  1.
          2   -1    0    0  501    0  0.00000000000E+00 -0.00000000000E+00 -0.14101013725E+04  0.14101013725E+04  0.25500000000E-02 0. -1.
    8880023    1    1    2    0    0 -0.14270007214E+03  0.30975235883E+03  0.13480357479E+03  0.75385147372E+03  0.65864270000E+03 0.  1.
    8880022    1    1    2    0    0  0.14270007214E+03 -0.30975235883E+03 -0.10688437430E+04  0.11323111031E+04  0.15294330000E+03 0.  0.
<mgrwt>
<rscale>  0 0.62491605E+03</rscale>
<asrwt>0</asrwt>
<pdfrwt beam="1">  1        2 0.21693867E+00 0.74170078E+03</pdfrwt>
<pdfrwt beam="2">  1       -2 0.73240186E-01 0.74170078E+03</pdfrwt>
<totfact> 0.24587232E+01</totfact>
</mgrwt>
</event>
<event>
 4    2  0.3388003E-007  0.9591801E+03  0.7818608E-02  0.9437027E-01
         -2   -1    0    0    0  501 -0.00000000000E+00  0.00000000000E+00  0.21869265464E+04  0.21869265464E+04  0.25500000000E-02 0.  1.
          2   -1    0    0  501    0  0.00000000000E+00 -0.00000000000E+00 -0.78555774916E+03  0.78555774917E+03  0.25500000000E-02 0. -1.
    8880023    1    1    2    0    0  0.66481506385E+03  0.21032622806E+03  0.18816977328E+04  0.21120636248E+04  0.65864270000E+03 0.  1.
    8880022    1    1    2    0    0 -0.66481506385E+03 -0.21032622806E+03 -0.48032893556E+03  0.86042067077E+03  0.15294330000E+03 0.  0.
<mgrwt>
<rscale>  0 0.89090136E+03</rscale>
<asrwt>0</asrwt>
<pdfrwt beam="1">  1        2 0.12085504E+00 0.95918007E+03</pdfrwt>
<pdfrwt beam="2">  1       -2 0.33645024E+00 0.95918007E+03</pdfrwt>
<totfact> 0.67870079E-01</totfact>
</mgrwt>
</event>
<event>
 4    2  0.3388003E-007  0.7647093E+03  0.7818608E-02  0.9793065E-01
         -2   -1    0    0    0  501 -0.00000000000E+00  0.00000000000E+00  0.45713558575E+03  0.45713558576E+03  0.25500000000E-02 0.  1.
          2   -1    0    0  501    0  0.00000000000E+00 -0.00000000000E+00 -0.10585423150E+04  0.10585423150E+04  0.25500000000E-02 0. -1.
    8880023    1    1    2    0    0 -0.14442232793E+03 -0.36071072983E+03  0.22372781707E+02  0.76503646125E+03  0.65864270000E+03 0.  1.
    8880022    1    1    2    0    0  0.14442232793E+03  0.36071072983E+03 -0.62377951095E+03  0.75064143951E+03  0.15294330000E+03 0.  0.
<mgrwt>
<rscale>  0 0.65736056E+03</rscale>
<asrwt>0</asrwt>
<pdfrwt beam="1">  1        2 0.16285266E+00 0.76470926E+03</pdfrwt>
<pdfrwt beam="2">  1       -2 0.70328552E-01 0.76470926E+03</pdfrwt>
<totfact> 0.43179234E+01</totfact>
</mgrwt>
</event>
<event>
 4    2  0.3388003E-007  0.7891268E+03  0.7818608E-02  0.9734819E-01
         -2   -1    0    0    0  501 -0.00000000000E+00  0.00000000000E+00  0.47103965393E+03  0.47103965393E+03  0.25500000000E-02 0.  1.
          2   -1    0    0  501    0  0.00000000000E+00 -0.00000000000E+00 -0.15509211270E+04  0.15509211270E+04  0.25500000000E-02 0. -1.
    8880023    1    1    2    0    0  0.42330598386E+03  0.98605014344E+02  0.61067767620E+02  0.79148618645E+03  0.65864270000E+03 0.  1.
    8880022    1    1    2    0    0 -0.42330598386E+03 -0.98605014344E+02 -0.11409492407E+04  0.12304745945E+04  0.15294330000E+03 0.  0.
<mgrwt>
<rscale>  0 0.68981002E+03</rscale>
<asrwt>0</asrwt>
<pdfrwt beam="1">  1        2 0.23860325E+00 0.78912680E+03</pdfrwt>
<pdfrwt beam="2">  1       -2 0.72467640E-01 0.78912680E+03</pdfrwt>
<totfact> 0.20880554E+01</totfact>
</mgrwt>
</event>
<event>
 4    2  0.3388003E-007  0.6755544E+03  0.7818608E-02  0.1011959E+00
         -2   -1    0    0    0  501 -0.00000000000E+00  0.00000000000E+00  0.52739152951E+03  0.52739152952E+03  0.25500000000E-02 0.  1.
          2   -1    0    0  501    0  0.00000000000E+00 -0.00000000000E+00 -0.69076343630E+03  0.69076343630E+03  0.25500000000E-02 0. -1.
    8880023    1    1    2    0    0  0.41228496008E+02  0.14444305488E+03  0.27562059458E+03  0.72961668251E+03  0.65864270000E+03 0.  1.
    8880022    1    1    2    0    0 -0.41228496008E+02 -0.14444305488E+03 -0.43899250136E+03  0.48853828330E+03  0.15294330000E+03 0.  0.
<mgrwt>
<rscale>  0 0.50703407E+03</rscale>
<asrwt>0</asrwt>
<pdfrwt beam="1">  1        2 0.10627130E+00 0.67555443E+03</pdfrwt>
<pdfrwt beam="2">  1       -2 0.81137159E-01 0.67555443E+03</pdfrwt>
<totfact> 0.56824513E+01</totfact>
</mgrwt>
</event>
<event>
 4    2  0.3388003E-007  0.6904870E+03  0.7818608E-02  0.1003922E+00
         -2   -1    0    0    0  501 -0.00000000000E+00  0.00000000000E+00  0.61777662972E+03  0.61777662973E+03  0.25500000000E-02 0.  1.
          2   -1    0    0  501    0  0.00000000000E+00 -0.00000000000E+00 -0.65640131295E+03  0.65640131296E+03  0.25500000000E-02 0. -1.
    8880023    1    1    2    0    0  0.17066830811E+03 -0.11761976428E+03  0.37587005837E+03  0.78616193458E+03  0.65864270000E+03 0.  1.
    8880022    1    1    2    0    0 -0.17066830811E+03  0.11761976428E+03 -0.41449474160E+03  0.48801600811E+03  0.15294330000E+03 0.  0.
<mgrwt>
<rscale>  0 0.53963461E+03</rscale>
<asrwt>0</asrwt>
<pdfrwt beam="1">  1        2 0.10098482E+00 0.69048699E+03</pdfrwt>
<pdfrwt beam="2">  1       -2 0.95042558E-01 0.69048699E+03</pdfrwt>
<totfact> 0.42084336E+01</totfact>
</mgrwt>
</event>
<event>
 4    2  0.3388003E-007  0.7107284E+03  0.7818608E-02  0.9955306E-01
         -2   -1    0    0    0  501 -0.00000000000E+00  0.00000000000E+00  0.18161910539E+03  0.18161910540E+03  0.25500000000E-02 0.  1.
          2   -1    0    0  501    0  0.00000000000E+00 -0.00000000000E+00 -0.25198962743E+04  0.25198962743E+04  0.25500000000E-02 0. -1.
    8880023    1    1    2    0    0 -0.10438380307E+03 -0.24582230823E+03 -0.58240089663E+03  0.91887191502E+03  0.65864270000E+03 0.  1.
    8880022    1    1    2    0    0  0.10438380307E+03  0.24582230823E+03 -0.17558762723E+04  0.17826434647E+04  0.15294330000E+03 0.  0.
<mgrwt>
<rscale>  0 0.57654178E+03</rscale>
<asrwt>0</asrwt>
<pdfrwt beam="1">  1        2 0.38767632E+00 0.71072835E+03</pdfrwt>
<pdfrwt beam="2">  1       -2 0.27941403E-01 0.71072835E+03</pdfrwt>
<totfact> 0.41550828E+01</totfact>
</mgrwt>
</event>
<event>
 4    2  0.3388003E-007  0.7003254E+03  0.7818608E-02  0.9995854E-01
          2   -1    0    0  501    0  0.00000000000E+00  0.00000000000E+00  0.52314981856E+03  0.52314981857E+03  0.25500000000E-02 0. -1.
         -2   -1    0    0    0  501 -0.00000000000E+00 -0.00000000000E+00 -0.98531724634E+03  0.98531724634E+03  0.25500000000E-02 0.  1.
    8880023    1    1    2    0    0  0.18735065534E+03 -0.14678257132E+03 -0.80301971197E+03  0.10655028181E+04  0.65864270000E+03 0.  1.
    8880022    1    1    2    0    0 -0.18735065534E+03  0.14678257132E+03  0.34085228419E+03  0.44296424681E+03  0.15294330000E+03 0.  0.
<mgrwt>
<rscale>  0 0.55832396E+03</rscale>
<asrwt>0</asrwt>
<pdfrwt beam="1">  1        2 0.80484587E-01 0.70032535E+03</pdfrwt>
<pdfrwt beam="2">  1       -2 0.15158727E+00 0.70032535E+03</pdfrwt>
<totfact> 0.17334450E+01</totfact>
</mgrwt>
</event>
<event>
 4    2  0.3388003E-007  0.7363485E+03  0.7818608E-02  0.9870714E-01
          2   -1    0    0  501    0  0.00000000000E+00  0.00000000000E+00  0.29520079460E+04  0.29520079460E+04  0.25500000000E-02 0. -1.
         -2   -1    0    0    0  501 -0.00000000000E+00 -0.00000000000E+00 -0.14214221089E+03  0.14214221092E+03  0.25500000000E-02 0.  1.
    8880023    1    1    2    0    0  0.30953400617E+03 -0.11219447804E+03  0.96470729003E+03  0.12136182528E+04  0.65864270000E+03 0.  0.
    8880022    1    1    2    0    0 -0.30953400617E+03  0.11219447804E+03  0.18451584451E+04  0.18805319041E+04  0.15294330000E+03 0.  0.
<mgrwt>
<rscale>  0 0.61701836E+03</rscale>
<asrwt>0</asrwt>
<pdfrwt beam="1">  1        2 0.45415503E+00 0.73634850E+03</pdfrwt>
<pdfrwt beam="2">  1       -2 0.21868034E-01 0.73634850E+03</pdfrwt>
<totfact> 0.35947163E+01</totfact>
</mgrwt>
</event>
<event>
 4    2  0.3388003E-007  0.8757943E+03  0.7818608E-02  0.9566063E-01
         -2   -1    0    0    0  501 -0.00000000000E+00  0.00000000000E+00  0.15190728884E+04  0.15190728884E+04  0.25500000000E-02 0.  1.
          2   -1    0    0  501    0  0.00000000000E+00 -0.00000000000E+00 -0.54201135412E+03  0.54201135413E+03  0.25500000000E-02 0. -1.
    8880023    1    1    2    0    0  0.46808903291E+03 -0.33778417918E+03  0.11442674359E+04  0.14409592865E+04  0.65864270000E+03 0.  1.
    8880022    1    1    2    0    0 -0.46808903291E+03  0.33778417918E+03 -0.16720590163E+03  0.62012495595E+03  0.15294330000E+03 0.  0.
<mgrwt>
<rscale>  0 0.79583645E+03</rscale>
<asrwt>0</asrwt>
<pdfrwt beam="1">  1        2 0.83386363E-01 0.87579433E+03</pdfrwt>
<pdfrwt beam="2">  1       -2 0.23370352E+00 0.87579433E+03</pdfrwt>
<totfact> 0.45885926E+00</totfact>
</mgrwt>
</event>
<event>
 4    2  0.3388003E-007  0.7402195E+03  0.7818608E-02  0.9859308E-01
          2   -1    0    0  501    0  0.00000000000E+00  0.00000000000E+00  0.93263984974E+03  0.93263984975E+03  0.25500000000E-02 0. -1.
         -2   -1    0    0    0  501 -0.00000000000E+00 -0.00000000000E+00 -0.62962866321E+03  0.62962866321E+03  0.25500000000E-02 0.  1.
    8880023    1    1    2    0    0 -0.26468564754E+02  0.33677015838E+03 -0.34421663764E+03  0.81633940514E+03  0.65864270000E+03 0.  1.
    8880022    1    1    2    0    0  0.26468564754E+02 -0.33677015838E+03  0.64722782418E+03  0.74592910782E+03  0.15294330000E+03 0.  0.
<mgrwt>
<rscale>  0 0.62274572E+03</rscale>
<asrwt>0</asrwt>
<pdfrwt beam="1">  1        2 0.14348305E+00 0.74021952E+03</pdfrwt>
<pdfrwt beam="2">  1       -2 0.96865949E-01 0.74021952E+03</pdfrwt>
<totfact> 0.25235189E+01</totfact>
</mgrwt>
</event>
<event>
 4    2  0.3388003E-007  0.7110297E+03  0.7818608E-02  0.9954197E-01
          2   -1    0    0  501    0  0.00000000000E+00  0.00000000000E+00  0.16633721464E+04  0.16633721464E+04  0.25500000000E-02 0. -1.
         -2   -1    0    0    0  501 -0.00000000000E+00 -0.00000000000E+00 -0.25258511863E+03  0.25258511865E+03  0.25500000000E-02 0.  1.
    8880023    1    1    2    0    0  0.24094854471E+03 -0.11703332759E+03  0.31517468789E+03  0.77775207561E+03  0.65864270000E+03 0.  1.
    8880022    1    1    2    0    0 -0.24094854471E+03  0.11703332759E+03  0.10956123399E+04  0.11382051894E+04  0.15294330000E+03 0.  0.
<mgrwt>
<rscale>  0 0.57705053E+03</rscale>
<asrwt>0</asrwt>
<pdfrwt beam="1">  1        2 0.25590341E+00 0.71102968E+03</pdfrwt>
<pdfrwt beam="2">  1       -2 0.38859248E-01 0.71102968E+03</pdfrwt>
<totfact> 0.66069441E+01</totfact>
</mgrwt>
</event>
<event>
 4    2  0.3388003E-007  0.7169593E+03  0.7818608E-02  0.9933012E-01
         -2   -1    0    0    0  501 -0.00000000000E+00  0.00000000000E+00  0.44248353409E+03  0.44248353410E+03  0.25500000000E-02 0.  1.
          2   -1    0    0  501    0  0.00000000000E+00 -0.00000000000E+00 -0.93607184082E+03  0.93607184083E+03  0.25500000000E-02 0. -1.
    8880023    1    1    2    0    0  0.16435243077E+03 -0.23067010488E+03  0.79400857884E+02  0.72134258247E+03  0.65864270000E+03 0.  0.
    8880022    1    1    2    0    0 -0.16435243077E+03  0.23067010488E+03 -0.57298916462E+03  0.65721279246E+03  0.15294330000E+03 0.  0.
<mgrwt>
<rscale>  0 0.58687711E+03</rscale>
<asrwt>0</asrwt>
<pdfrwt beam="1">  1        2 0.14401105E+00 0.71695929E+03</pdfrwt>
<pdfrwt beam="2">  1       -2 0.68074390E-01 0.71695929E+03</pdfrwt>
<totfact> 0.55742703E+01</totfact>
</mgrwt>
</event>
<event>
 4    2  0.3388003E-007  0.7335599E+03  0.7818608E-02  0.9879120E-01
          2   -1    0    0  501    0  0.00000000000E+00  0.00000000000E+00  0.23743858370E+04  0.23743858370E+04  0.25500000000E-02 0. -1.
         -2   -1    0    0    0  501 -0.00000000000E+00 -0.00000000000E+00 -0.50590119924E+03  0.50590119925E+03  0.25500000000E-02 0.  1.
    8880023    1    1    2    0    0 -0.19550305565E+03 -0.25705731926E+03 -0.21654801619E+03  0.76485499262E+03  0.65864270000E+03 0.  1.
    8880022    1    1    2    0    0  0.19550305565E+03  0.25705731926E+03  0.20850326540E+04  0.21154320436E+04  0.15294330000E+03 0.  0.
<mgrwt>
<rscale>  0 0.61283980E+03</rscale>
<asrwt>0</asrwt>
<pdfrwt beam="1">  1        2 0.36529013E+00 0.73355989E+03</pdfrwt>
<pdfrwt beam="2">  1       -2 0.77830954E-01 0.73355989E+03</pdfrwt>
<totfact> 0.63409439E+00</totfact>
</mgrwt>
</event>
<event>
 4    2  0.3388003E-007  0.1041957E+04  0.7818608E-02  0.9328613E-01
          2   -1    0    0  501    0  0.00000000000E+00  0.00000000000E+00  0.14823303407E+04  0.14823303407E+04  0.25500000000E-02 0. -1.
         -2   -1    0    0    0  501 -0.00000000000E+00 -0.00000000000E+00 -0.64571975044E+03  0.64571975045E+03  0.25500000000E-02 0.  1.
    8880023    1    1    2    0    0 -0.79680861824E+03 -0.13023415009E+03  0.14106542871E+03  0.10514630614E+04  0.65864270000E+03 0.  0.
    8880022    1    1    2    0    0  0.79680861824E+03  0.13023415009E+03  0.69554516152E+03  0.10765870298E+04  0.15294330000E+03 0.  0.
<mgrwt>
<rscale>  0 0.98190859E+03</rscale>
<asrwt>0</asrwt>
<pdfrwt beam="1">  1        2 0.22805082E+00 0.10419573E+04</pdfrwt>
<pdfrwt beam="2">  1       -2 0.99341501E-01 0.10419573E+04</pdfrwt>
<totfact> 0.10804429E+01</totfact>
</mgrwt>
</event>
<event>
 4    2  0.3388003E-007  0.9232243E+03  0.7818608E-02  0.9489733E-01
          2   -1    0    0  501    0  0.00000000000E+00  0.00000000000E+00  0.63542435338E+03  0.63542435338E+03  0.25500000000E-02 0. -1.
         -2   -1    0    0    0  501 -0.00000000000E+00 -0.00000000000E+00 -0.26583437419E+04  0.26583437419E+04  0.25500000000E-02 0.  1.
    8880023    1    1    2    0    0 -0.12213380498E+03 -0.63530801568E+03  0.22446964582E+03  0.95012092349E+03  0.65864270000E+03 0.  0.
    8880022    1    1    2    0    0  0.12213380498E+03  0.63530801568E+03 -0.22473890343E+04  0.23436471717E+04  0.15294330000E+03 0.  0.
<mgrwt>
<rscale>  0 0.85045032E+03</rscale>
<asrwt>0</asrwt>
<pdfrwt beam="1">  1        2 0.97757594E-01 0.92322432E+03</pdfrwt>
<pdfrwt beam="2">  1       -2 0.40897595E+00 0.92322432E+03</pdfrwt>
<totfact> 0.30931474E-01</totfact>
</mgrwt>
</event>
<event>
 4    2  0.3388003E-007  0.6863931E+03  0.7818608E-02  0.1005916E+00
          2   -1    0    0  501    0  0.00000000000E+00  0.00000000000E+00  0.94033100760E+03  0.94033100760E+03  0.25500000000E-02 0. -1.
         -2   -1    0    0    0  501 -0.00000000000E+00 -0.00000000000E+00 -0.52897606184E+03  0.52897606184E+03  0.25500000000E-02 0.  1.
    8880023    1    1    2    0    0  0.40710744128E+02 -0.18885952220E+03 -0.27547837732E+03  0.73961059109E+03  0.65864270000E+03 0.  1.
    8880022    1    1    2    0    0 -0.40710744128E+02  0.18885952220E+03  0.68683332308E+03  0.72969647835E+03  0.15294330000E+03 0.  0.
<mgrwt>
<rscale>  0 0.53130440E+03</rscale>
<asrwt>0</asrwt>
<pdfrwt beam="1">  1        2 0.14466631E+00 0.68639310E+03</pdfrwt>
<pdfrwt beam="2">  1       -2 0.81380933E-01 0.68639310E+03</pdfrwt>
<totfact> 0.37427037E+01</totfact>
</mgrwt>
</event>
<event>
 4    2  0.3388003E-007  0.1035594E+04  0.7818608E-02  0.9336403E-01
          2   -1    0    0  501    0  0.00000000000E+00  0.00000000000E+00  0.21684302213E+04  0.21684302213E+04  0.25500000000E-02 0. -1.
         -2   -1    0    0    0  501 -0.00000000000E+00 -0.00000000000E+00 -0.59031905532E+03  0.59031905533E+03  0.25500000000E-02 0.  1.
    8880023    1    1    2    0    0 -0.79563848396E+03  0.74865153124E+02  0.61205994550E+02  0.10374014499E+04  0.65864270000E+03 0.  0.
    8880022    1    1    2    0    0  0.79563848396E+03 -0.74865153124E+02  0.15169051714E+04  0.17213478267E+04  0.15294330000E+03 0.  0.
<mgrwt>
<rscale>  0 0.97499532E+03</rscale>
<asrwt>0</asrwt>
<pdfrwt beam="1">  1        2 0.33360465E+00 0.10355943E+04</pdfrwt>
<pdfrwt beam="2">  1       -2 0.90818316E-01 0.10355943E+04</pdfrwt>
<totfact> 0.55631924E+00</totfact>
</mgrwt>
</event>
<event>
 4    2  0.3388003E-007  0.6905205E+03  0.7818608E-02  0.1003906E+00
         -2   -1    0    0    0  501 -0.00000000000E+00  0.00000000000E+00  0.17410412849E+03  0.17410412851E+03  0.25500000000E-02 0.  1.
          2   -1    0    0  501    0  0.00000000000E+00 -0.00000000000E+00 -0.25314367865E+04  0.25314367865E+04  0.25500000000E-02 0. -1.
    8880023    1    1    2    0    0  0.20685869756E+03  0.14760272663E+02 -0.55785024469E+03  0.88770236463E+03  0.65864270000E+03 0.  1.
    8880022    1    1    2    0    0 -0.20685869756E+03 -0.14760272663E+02 -0.17994824133E+04  0.18178385503E+04  0.15294330000E+03 0.  0.
<mgrwt>
<rscale>  0 0.53970133E+03</rscale>
<asrwt>0</asrwt>
<pdfrwt beam="1">  1        2 0.38945179E+00 0.69052052E+03</pdfrwt>
<pdfrwt beam="2">  1       -2 0.26785252E-01 0.69052052E+03</pdfrwt>
<totfact> 0.44347571E+01</totfact>
</mgrwt>
</event>
<event>
 4    2  0.3388003E-007  0.1514845E+04  0.7818608E-02  0.8899224E-01
         -2   -1    0    0    0  501 -0.00000000000E+00  0.00000000000E+00  0.16274846119E+04  0.16274846119E+04  0.25500000000E-02 0.  1.
          2   -1    0    0  501    0  0.00000000000E+00 -0.00000000000E+00 -0.12923413744E+04  0.12923413744E+04  0.25500000000E-02 0. -1.
    8880023    1    1    2    0    0  0.71746459163E+03  0.11602537594E+04  0.31349961365E+03  0.15469442267E+04  0.65864270000E+03 0.  0.
    8880022    1    1    2    0    0 -0.71746459163E+03 -0.11602537594E+04  0.21643623786E+02  0.13728817596E+04  0.15294330000E+03 0.  0.
<mgrwt>
<rscale>  0 0.14779879E+04</rscale>
<asrwt>0</asrwt>
<pdfrwt beam="1">  1        2 0.19882175E+00 0.15148447E+04</pdfrwt>
<pdfrwt beam="2">  1       -2 0.25038225E+00 0.15148447E+04</pdfrwt>
<totfact> 0.10051188E+00</totfact>
</mgrwt>
</event>
<event>
 4    2  0.3388003E-007  0.7484901E+03  0.7818608E-02  0.9835872E-01
         -2   -1    0    0    0  501 -0.00000000000E+00  0.00000000000E+00  0.27818753530E+03  0.27818753531E+03  0.25500000000E-02 0.  1.
          2   -1    0    0  501    0  0.00000000000E+00 -0.00000000000E+00 -0.14287393586E+04  0.14287393586E+04  0.25500000000E-02 0. -1.
    8880023    1    1    2    0    0 -0.34823755508E+03  0.71818212651E+02 -0.10791726836E+04  0.13133358815E+04  0.65864270000E+03 0.  0.
    8880022    1    1    2    0    0  0.34823755508E+03 -0.71818212651E+02 -0.71379139720E+02  0.39359101240E+03  0.15294330000E+03 0.  0.
<mgrwt>
<rscale>  0 0.63472467E+03</rscale>
<asrwt>0</asrwt>
<pdfrwt beam="1">  1        2 0.21980605E+00 0.74849012E+03</pdfrwt>
<pdfrwt beam="2">  1       -2 0.42798083E-01 0.74849012E+03</pdfrwt>
<totfact> 0.73501250E+01</totfact>
</mgrwt>
</event>
<event>
 4    2  0.3388003E-007  0.7130807E+03  0.7818608E-02  0.9946734E-01
          2   -1    0    0  501    0  0.00000000000E+00  0.00000000000E+00  0.78378560315E+03  0.78378560315E+03  0.25500000000E-02 0. -1.
         -2   -1    0    0    0  501 -0.00000000000E+00 -0.00000000000E+00 -0.37535335685E+03  0.37535335686E+03  0.25500000000E-02 0.  1.
    8880023    1    1    2    0    0  0.20726127615E+03 -0.17809159171E+03  0.45005913481E+03  0.84323026673E+03  0.65864270000E+03 0.  0.
    8880022    1    1    2    0    0 -0.20726127615E+03  0.17809159171E+03 -0.41626888519E+02  0.31590869329E+03  0.15294330000E+03 0.  0.
<mgrwt>
<rscale>  0 0.58048839E+03</rscale>
<asrwt>0</asrwt>
<pdfrwt beam="1">  1        2 0.12058240E+00 0.71308068E+03</pdfrwt>
<pdfrwt beam="2">  1       -2 0.57746670E-01 0.71308068E+03</pdfrwt>
<totfact> 0.10084293E+02</totfact>
</mgrwt>
</event>
<event>
 4    2  0.3388003E-007  0.6738020E+03  0.7818608E-02  0.1013072E+00
          2   -1    0    0  501    0  0.00000000000E+00  0.00000000000E+00  0.23417368259E+04  0.23417368259E+04  0.25500000000E-02 0. -1.
         -2   -1    0    0    0  501 -0.00000000000E+00 -0.00000000000E+00 -0.89768899268E+02  0.89768899304E+02  0.25500000000E-02 0.  1.
    8880023    1    1    2    0    0  0.11452622628E+03  0.84158427263E+02  0.13912633917E+04  0.15458405250E+04  0.65864270000E+03 0.  1.
    8880022    1    1    2    0    0 -0.11452622628E+03 -0.84158427263E+02  0.86070453495E+03  0.88566520022E+03  0.15294330000E+03 0. -1.
<mgrwt>
<rscale>  0 0.50271663E+03</rscale>
<asrwt>0</asrwt>
<pdfrwt beam="1">  1        2 0.36026714E+00 0.67380198E+03</pdfrwt>
<pdfrwt beam="2">  1       -2 0.13810602E-01 0.67380198E+03</pdfrwt>
<totfact> 0.18000607E+02</totfact>
</mgrwt>
</event>
<event>
 4    2  0.3388003E-007  0.6652231E+03  0.7818608E-02  0.1019347E+00
          2   -1    0    0  501    0  0.00000000000E+00  0.00000000000E+00  0.10087750111E+04  0.10087750111E+04  0.25500000000E-02 0. -1.
         -2   -1    0    0    0  501 -0.00000000000E+00 -0.00000000000E+00 -0.23699323487E+03  0.23699323489E+03  0.25500000000E-02 0.  1.
    8880023    1    1    2    0    0  0.68102389874E+02 -0.63825232870E+02  0.27888790346E+03  0.72131842124E+03  0.65864270000E+03 0.  0.
    8880022    1    1    2    0    0 -0.68102389874E+02  0.63825232870E+02  0.49289387278E+03  0.52444982477E+03  0.15294330000E+03 0.  0.
<mgrwt>
<rscale>  0 0.47923014E+03</rscale>
<asrwt>0</asrwt>
<pdfrwt beam="1">  1        2 0.15519615E+00 0.66522312E+03</pdfrwt>
<pdfrwt beam="2">  1       -2 0.36460498E-01 0.66522312E+03</pdfrwt>
<totfact> 0.17896328E+02</totfact>
</mgrwt>
</event>
<event>
 4    2  0.3388003E-007  0.8348801E+03  0.7818608E-02  0.9639911E-01
          2   -1    0    0  501    0  0.00000000000E+00  0.00000000000E+00  0.21569933822E+04  0.21569933822E+04  0.25500000000E-02 0. -1.
         -2   -1    0    0    0  501 -0.00000000000E+00 -0.00000000000E+00 -0.22969627200E+03  0.22969627202E+03  0.25500000000E-02 0.  1.
    8880023    1    1    2    0    0 -0.46033535167E+03 -0.22650798180E+03  0.14306655500E+04  0.16564506102E+04  0.65864270000E+03 0. -1.
    8880022    1    1    2    0    0  0.46033535167E+03  0.22650798180E+03  0.49663156019E+03  0.73023904402E+03  0.15294330000E+03 0.  1.
<mgrwt>
<rscale>  0 0.74710003E+03</rscale>
<asrwt>0</asrwt>
<pdfrwt beam="1">  1        2 0.33184515E+00 0.83488006E+03</pdfrwt>
<pdfrwt beam="2">  1       -2 0.35337887E-01 0.83488006E+03</pdfrwt>
<totfact> 0.42016147E+01</totfact>
</mgrwt>
</event>
<event>
 4    2  0.3388003E-007  0.1112927E+04  0.7818608E-02  0.9246798E-01
          2   -1    0    0  501    0  0.00000000000E+00  0.00000000000E+00  0.19870993463E+04  0.19870993463E+04  0.25500000000E-02 0. -1.
         -2   -1    0    0    0  501 -0.00000000000E+00 -0.00000000000E+00 -0.11367603357E+04  0.11367603357E+04  0.25500000000E-02 0.  1.
    8880023    1    1    2    0    0  0.72928773554E+03  0.52243220063E+03 -0.70815054260E+03  0.13191222092E+04  0.65864270000E+03 0.  0.
    8880022    1    1    2    0    0 -0.72928773554E+03 -0.52243220063E+03  0.15584895532E+04  0.18047374728E+04  0.15294330000E+03 0.  0.
<mgrwt>
<rscale>  0 0.10583177E+04</rscale>
<asrwt>0</asrwt>
<pdfrwt beam="1">  1        2 0.30570759E+00 0.11129269E+04</pdfrwt>
<pdfrwt beam="2">  1       -2 0.17488621E+00 0.11129269E+04</pdfrwt>
<totfact> 0.13134192E+00</totfact>
</mgrwt>
</event>
<event>
 4    2  0.3388003E-007  0.1163474E+04  0.7818608E-02  0.9193473E-01
         -2   -1    0    0    0  501 -0.00000000000E+00  0.00000000000E+00  0.94534825796E+03  0.94534825796E+03  0.25500000000E-02 0.  1.
          2   -1    0    0  501    0  0.00000000000E+00 -0.00000000000E+00 -0.15902586550E+04  0.15902586550E+04  0.25500000000E-02 0. -1.
    8880023    1    1    2    0    0 -0.51738399333E+03  0.80757335747E+03  0.27756504140E+03  0.11961243592E+04  0.65864270000E+03 0.  0.
    8880022    1    1    2    0    0  0.51738399333E+03 -0.80757335747E+03 -0.92247543844E+03  0.13394825537E+04  0.15294330000E+03 0.  0.
<mgrwt>
<rscale>  0 0.11121054E+04</rscale>
<asrwt>0</asrwt>
<pdfrwt beam="1">  1        2 0.24465518E+00 0.11634737E+04</pdfrwt>
<pdfrwt beam="2">  1       -2 0.14543819E+00 0.11634737E+04</pdfrwt>
<totfact> 0.35828452E+00</totfact>
</mgrwt>
</event>
<event>
 4    2  0.3388003E-007  0.9075393E+03  0.7818608E-02  0.9514035E-01
         -2   -1    0    0    0  501 -0.00000000000E+00  0.00000000000E+00  0.29415291865E+03  0.29415291866E+03  0.25500000000E-02 0.  1.
          2   -1    0    0  501    0  0.00000000000E+00 -0.00000000000E+00 -0.32103025340E+04  0.32103025340E+04  0.25500000000E-02 0. -1.
    8880023    1    1    2    0    0 -0.59461401416E+02  0.62151567718E+03 -0.26633360460E+04  0.28137140038E+04  0.65864270000E+03 0.  0.
    8880022    1    1    2    0    0  0.59461401416E+02 -0.62151567718E+03 -0.25281356933E+03  0.69074144880E+03  0.15294330000E+03 0.  1.
<mgrwt>
<rscale>  0 0.83256915E+03</rscale>
<asrwt>0</asrwt>
<pdfrwt beam="1">  1        2 0.49389267E+00 0.90753931E+03</pdfrwt>
<pdfrwt beam="2">  1       -2 0.45254297E-01 0.90753931E+03</pdfrwt>
<totfact> 0.61671470E+00</totfact>
</mgrwt>
</event>
<event>
 4    2  0.3388003E-007  0.1014116E+04  0.7818608E-02  0.9363318E-01
          2   -1    0    0  501    0  0.00000000000E+00  0.00000000000E+00  0.32333770799E+04  0.32333770799E+04  0.25500000000E-02 0. -1.
         -2   -1    0    0    0  501 -0.00000000000E+00 -0.00000000000E+00 -0.36970959104E+03  0.36970959105E+03  0.25500000000E-02 0.  1.
    8880023    1    1    2    0    0  0.43902296671E+03 -0.63394021556E+03  0.53767286921E+03  0.11478343446E+04  0.65864270000E+03 0.  1.
    8880022    1    1    2    0    0 -0.43902296671E+03  0.63394021556E+03  0.23259946197E+04  0.24552523263E+04  0.15294330000E+03 0.  0.
<mgrwt>
<rscale>  0 0.95156942E+03</rscale>
<asrwt>0</asrwt>
<pdfrwt beam="1">  1        2 0.49744264E+00 0.10141162E+04</pdfrwt>
<pdfrwt beam="2">  1       -2 0.56878397E-01 0.10141162E+04</pdfrwt>
<totfact> 0.36698038E+00</totfact>
</mgrwt>
</event>
<event>
 4    2  0.3388003E-007  0.6633131E+03  0.7818608E-02  0.1020993E+00
          2   -1    0    0  501    0  0.00000000000E+00  0.00000000000E+00  0.10095174798E+04  0.10095174798E+04  0.25500000000E-02 0. -1.
         -2   -1    0    0    0  501 -0.00000000000E+00 -0.00000000000E+00 -0.99315703506E+03  0.99315703506E+03  0.25500000000E-02 0.  1.
    8880023    1    1    2    0    0 -0.72526220685E+02 -0.30231989920E+02 -0.87324489108E+03  0.10966042458E+04  0.65864270000E+03 0.  1.
    8880022    1    1    2    0    0  0.72526220685E+02  0.30231989920E+02  0.88960533578E+03  0.90607026900E+03  0.15294330000E+03 0.  0.
<mgrwt>
<rscale>  0 0.47330098E+03</rscale>
<asrwt>0</asrwt>
<pdfrwt beam="1">  1        2 0.15531038E+00 0.66331307E+03</pdfrwt>
<pdfrwt beam="2">  1       -2 0.15279339E+00 0.66331307E+03</pdfrwt>
<totfact> 0.73034626E+00</totfact>
</mgrwt>
</event>
<event>
 4    2  0.3388003E-007  0.8406557E+03  0.7818608E-02  0.9628945E-01
          2   -1    0    0  501    0  0.00000000000E+00  0.00000000000E+00  0.20900218254E+04  0.20900218254E+04  0.25500000000E-02 0. -1.
         -2   -1    0    0    0  501 -0.00000000000E+00 -0.00000000000E+00 -0.68383251380E+03  0.68383251380E+03  0.25500000000E-02 0.  1.
    8880023    1    1    2    0    0  0.49508234085E+03  0.16668926373E+03 -0.36827259997E+03  0.91778360686E+03  0.65864270000E+03 0.  1.
    8880022    1    1    2    0    0 -0.49508234085E+03 -0.16668926373E+03  0.17744619115E+04  0.18560707323E+04  0.15294330000E+03 0.  0.
<mgrwt>
<rscale>  0 0.75409674E+03</rscale>
<asrwt>0</asrwt>
<pdfrwt beam="1">  1        2 0.32154182E+00 0.84065572E+03</pdfrwt>
<pdfrwt beam="2">  1       -2 0.10520500E+00 0.84065572E+03</pdfrwt>
<totfact> 0.44569525E+00</totfact>
</mgrwt>
</event>
<event>
 4    2  0.5225024E-007  0.6859549E+03  0.7818608E-02  0.1006138E+00
          2   -1    0    0  501    0  0.00000000000E+00  0.00000000000E+00  0.13092136511E+04  0.13092136511E+04  0.25500000000E-02 0. -1.
         -2   -1    0    0    0  501 -0.00000000000E+00 -0.00000000000E+00 -0.23244030710E+04  0.23244030710E+04  0.25500000000E-02 0.  1.
    8880023    1    1    2    0    0 -0.18554930596E+03 -0.47909783049E+02 -0.22615902505E+04  0.23633291264E+04  0.65864270000E+03 0.  1.
    8880022    1    1    2    0    0  0.18554930596E+03  0.47909783049E+02  0.12464008306E+04  0.12702875957E+04  0.15294330000E+03 0.  0.
<mgrwt>
<rscale>  0 0.53038961E+03</rscale>
<asrwt>0</asrwt>
<pdfrwt beam="1">  1        2 0.20141749E+00 0.68595488E+03</pdfrwt>
<pdfrwt beam="2">  1       -2 0.35760047E+00 0.68595488E+03</pdfrwt>
<totfact> 0.24624788E-01</totfact>
</mgrwt>
</event>
<event>
 4    2  0.3388003E-007  0.7360632E+03  0.7818608E-02  0.9871567E-01
         -2   -1    0    0    0  501 -0.00000000000E+00  0.00000000000E+00  0.14128953153E+03  0.14128953155E+03  0.25500000000E-02 0.  1.
          2   -1    0    0  501    0  0.00000000000E+00 -0.00000000000E+00 -0.30237045818E+04  0.30237045818E+04  0.25500000000E-02 0. -1.
    8880023    1    1    2    0    0 -0.26352317740E+02  0.32754292556E+03 -0.96529517445E+03  0.12139125969E+04  0.65864270000E+03 0.  0.
    8880022    1    1    2    0    0  0.26352317740E+02 -0.32754292556E+03 -0.19171198758E+04  0.19510815165E+04  0.15294330000E+03 0.  0.
<mgrwt>
<rscale>  0 0.61659293E+03</rscale>
<asrwt>0</asrwt>
<pdfrwt beam="1">  1        2 0.46518527E+00 0.73606319E+03</pdfrwt>
<pdfrwt beam="2">  1       -2 0.21736853E-01 0.73606319E+03</pdfrwt>
<totfact> 0.32852089E+01</totfact>
</mgrwt>
</event>
<event>
 4    2  0.3388003E-007  0.7573961E+03  0.7818608E-02  0.9811896E-01
         -2   -1    0    0    0  501 -0.00000000000E+00  0.00000000000E+00  0.20392241706E+04  0.20392241706E+04  0.25500000000E-02 0.  1.
          2   -1    0    0  501    0  0.00000000000E+00 -0.00000000000E+00 -0.58928884147E+03  0.58928884148E+03  0.25500000000E-02 0. -1.
    8880023    1    1    2    0    0 -0.19365749960E+03 -0.31989912173E+03  0.18869953359E+04  0.20333224730E+04  0.65864270000E+03 0.  1.
    8880022    1    1    2    0    0  0.19365749960E+03  0.31989912173E+03 -0.43706000679E+03  0.59519053906E+03  0.15294330000E+03 0.  0.
<mgrwt>
<rscale>  0 0.64728034E+03</rscale>
<asrwt>0</asrwt>
<pdfrwt beam="1">  1        2 0.90659822E-01 0.75739612E+03</pdfrwt>
<pdfrwt beam="2">  1       -2 0.31372679E+00 0.75739612E+03</pdfrwt>
<totfact> 0.13857706E+00</totfact>
</mgrwt>
</event>
<event>
 4    2  0.3388003E-007  0.9959054E+03  0.7818608E-02  0.9386934E-01
          2   -1    0    0  501    0  0.00000000000E+00  0.00000000000E+00  0.18527010217E+04  0.18527010217E+04  0.25500000000E-02 0. -1.
         -2   -1    0    0    0  501 -0.00000000000E+00 -0.00000000000E+00 -0.42168908662E+03  0.42168908663E+03  0.25500000000E-02 0.  1.
    8880023    1    1    2    0    0 -0.35870843981E+03  0.65524468255E+03  0.69353417091E+03  0.12135967993E+04  0.65864270000E+03 0. -1.
    8880022    1    1    2    0    0  0.35870843981E+03 -0.65524468255E+03  0.73747776414E+03  0.10607933090E+04  0.15294330000E+03 0.  1.
<mgrwt>
<rscale>  0 0.93158777E+03</rscale>
<asrwt>0</asrwt>
<pdfrwt beam="1">  1        2 0.28503092E+00 0.99590539E+03</pdfrwt>
<pdfrwt beam="2">  1       -2 0.64875244E-01 0.99590539E+03</pdfrwt>
<totfact> 0.17717809E+01</totfact>
</mgrwt>
</event>
<event>
 4    2  0.3388003E-007  0.1032866E+04  0.7818608E-02  0.9339768E-01
         -2   -1    0    0    0  501 -0.00000000000E+00  0.00000000000E+00  0.94418997800E+03  0.94418997800E+03  0.25500000000E-02 0.  1.
          2   -1    0    0  501    0  0.00000000000E+00 -0.00000000000E+00 -0.15279427612E+04  0.15279427612E+04  0.25500000000E-02 0. -1.
    8880023    1    1    2    0    0  0.42351111408E+03  0.67352812312E+03  0.47673599347E+03  0.11375804192E+04  0.65864270000E+03 0.  0.
    8880022    1    1    2    0    0 -0.42351111408E+03 -0.67352812312E+03 -0.10604887766E+04  0.13345523200E+04  0.15294330000E+03 0.  0.
<mgrwt>
<rscale>  0 0.97202736E+03</rscale>
<asrwt>0</asrwt>
<pdfrwt beam="1">  1        2 0.23506812E+00 0.10328659E+04</pdfrwt>
<pdfrwt beam="2">  1       -2 0.14526000E+00 0.10328659E+04</pdfrwt>
<totfact> 0.39495840E+00</totfact>
</mgrwt>
</event>
<event>
 4    2  0.3388003E-007  0.7820800E+03  0.7818608E-02  0.9750974E-01
         -2   -1    0    0    0  501 -0.00000000000E+00  0.00000000000E+00  0.52388130149E+03  0.52388130150E+03  0.25500000000E-02 0.  1.
          2   -1    0    0  501    0  0.00000000000E+00 -0.00000000000E+00 -0.83987926353E+03  0.83987926353E+03  0.25500000000E-02 0. -1.
    8880023    1    1    2    0    0 -0.34620878302E+02  0.42028599221E+03  0.51622397599E+02  0.78378185655E+03  0.65864270000E+03 0.  0.
    8880022    1    1    2    0    0  0.34620878302E+02 -0.42028599221E+03 -0.36762035963E+03  0.57997870848E+03  0.15294330000E+03 0.  0.
<mgrwt>
<rscale>  0 0.68061283E+03</rscale>
<asrwt>0</asrwt>
<pdfrwt beam="1">  1        2 0.12921219E+00 0.78208000E+03</pdfrwt>
<pdfrwt beam="2">  1       -2 0.80597124E-01 0.78208000E+03</pdfrwt>
<totfact> 0.44358025E+01</totfact>
</mgrwt>
</event>
<event>
 4    2  0.3388003E-007  0.1932982E+04  0.7818608E-02  0.8652337E-01
         -2   -1    0    0    0  501 -0.00000000000E+00  0.00000000000E+00  0.20405745795E+04  0.20405745795E+04  0.25500000000E-02 0.  1.
          2   -1    0    0  501    0  0.00000000000E+00 -0.00000000000E+00 -0.20573614461E+04  0.20573614461E+04  0.25500000000E-02 0. -1.
    8880023    1    1    2    0    0 -0.83511179291E+03  0.16140618813E+04  0.80963732658E+03  0.20956932672E+04  0.65864270000E+03 0.  0.
    8880022    1    1    2    0    0  0.83511179291E+03 -0.16140618813E+04 -0.82642419321E+03  0.20022427584E+04  0.15294330000E+03 0.  0.
<mgrwt>
<rscale>  0 0.19050705E+04</rscale>
<asrwt>0</asrwt>
<pdfrwt beam="1">  1        2 0.31651714E+00 0.19329815E+04</pdfrwt>
<pdfrwt beam="2">  1       -2 0.31393455E+00 0.19329815E+04</pdfrwt>
<totfact> 0.14501985E-01</totfact>
</mgrwt>
</event>
<event>
 4    2  0.3388003E-007  0.8451628E+03  0.7818608E-02  0.9620521E-01
          2   -1    0    0  501    0  0.00000000000E+00  0.00000000000E+00  0.33953642752E+04  0.33953642752E+04  0.25500000000E-02 0. -1.
         -2   -1    0    0    0  501 -0.00000000000E+00 -0.00000000000E+00 -0.40237268457E+03  0.40237268458E+03  0.25500000000E-02 0.  1.
    8880023    1    1    2    0    0 -0.52073457656E+03  0.96568747479E+02  0.98111828878E+02  0.85083850374E+03  0.65864270000E+03 0.  1.
    8880022    1    1    2    0    0  0.52073457656E+03 -0.96568747479E+02  0.28948797617E+04  0.29468984560E+04  0.15294330000E+03 0.  0.
<mgrwt>
<rscale>  0 0.75952725E+03</rscale>
<asrwt>0</asrwt>
<pdfrwt beam="1">  1        2 0.52236375E+00 0.84516284E+03</pdfrwt>
<pdfrwt beam="2">  1       -2 0.61903488E-01 0.84516284E+03</pdfrwt>
<totfact> 0.24713270E+00</totfact>
</mgrwt>
</event>
<event>
 4    2  0.3388003E-007  0.1205716E+04  0.7818608E-02  0.9151586E-01
          2   -1    0    0  501    0  0.00000000000E+00  0.00000000000E+00  0.28754794777E+04  0.28754794777E+04  0.25500000000E-02 0. -1.
         -2   -1    0    0    0  501 -0.00000000000E+00 -0.00000000000E+00 -0.17222104613E+04  0.17222104613E+04  0.25500000000E-02 0.  1.
    8880023    1    1    2    0    0 -0.37145145986E+03 -0.93912915049E+03  0.25771955803E+04  0.28452920788E+04  0.65864270000E+03 0. -1.
    8880022    1    1    2    0    0  0.37145145986E+03  0.93912915049E+03 -0.14239265638E+04  0.17523978602E+04  0.15294330000E+03 0.  0.
<mgrwt>
<rscale>  0 0.11567418E+04</rscale>
<asrwt>0</asrwt>
<pdfrwt beam="1">  1        2 0.44238145E+00 0.12057155E+04</pdfrwt>
<pdfrwt beam="2">  1       -2 0.26495546E+00 0.12057155E+04</pdfrwt>
<totfact> 0.10634266E-01</totfact>
</mgrwt>
</event>
<event>
 4    2  0.3388003E-007  0.6602137E+03  0.7818608E-02  0.1023939E+00
         -2   -1    0    0    0  501 -0.00000000000E+00  0.00000000000E+00  0.43583930806E+03  0.43583930807E+03  0.25500000000E-02 0.  1.
          2   -1    0    0  501    0  0.00000000000E+00 -0.00000000000E+00 -0.13325370031E+04  0.13325370031E+04  0.25500000000E-02 0. -1.
    8880023    1    1    2    0    0  0.44644489308E+02 -0.88758148933E+01  0.17648471768E+03  0.68339518022E+03  0.65864270000E+03 0.  1.
    8880022    1    1    2    0    0 -0.44644489308E+02  0.88758148933E+01 -0.10731824127E+04  0.10849811309E+04  0.15294330000E+03 0.  0.
<mgrwt>
<rscale>  0 0.46291717E+03</rscale>
<asrwt>0</asrwt>
<pdfrwt beam="1">  1        2 0.20500569E+00 0.66021369E+03</pdfrwt>
<pdfrwt beam="2">  1       -2 0.67052202E-01 0.66021369E+03</pdfrwt>
<totfact> 0.33307278E+01</totfact>
</mgrwt>
</event>
<event>
 4    2  0.3388003E-007  0.7090822E+03  0.7818608E-02  0.9961425E-01
         -2   -1    0    0    0  501 -0.00000000000E+00  0.00000000000E+00  0.27824109297E+03  0.27824109299E+03  0.25500000000E-02 0.  1.
          2   -1    0    0  501    0  0.00000000000E+00 -0.00000000000E+00 -0.11266055483E+04  0.11266055483E+04  0.25500000000E-02 0. -1.
    8880023    1    1    2    0    0  0.47820896221E+02 -0.25826439728E+03 -0.28399753206E+03  0.76384039006E+03  0.65864270000E+03 0.  0.
    8880022    1    1    2    0    0 -0.47820896221E+02  0.25826439728E+03 -0.56436692329E+03  0.64100625125E+03  0.15294330000E+03 0.  0.
<mgrwt>
<rscale>  0 0.57374522E+03</rscale>
<asrwt>0</asrwt>
<pdfrwt beam="1">  1        2 0.17332393E+00 0.70908218E+03</pdfrwt>
<pdfrwt beam="2">  1       -2 0.42806323E-01 0.70908218E+03</pdfrwt>
<totfact> 0.11042624E+02</totfact>
</mgrwt>
</event>
<event>
 4    2  0.3388003E-007  0.6650180E+03  0.7818608E-02  0.1019518E+00
         -2   -1    0    0    0  501 -0.00000000000E+00  0.00000000000E+00  0.10157696089E+03  0.10157696092E+03  0.25500000000E-02 0.  1.
          2   -1    0    0  501    0  0.00000000000E+00 -0.00000000000E+00 -0.18836768729E+04  0.18836768729E+04  0.25500000000E-02 0. -1.
    8880023    1    1    2    0    0 -0.23313402258E+02  0.88855169598E+02 -0.11497984269E+04  0.13282640493E+04  0.65864270000E+03 0.  1.
    8880022    1    1    2    0    0  0.23313402258E+02 -0.88855169598E+02 -0.63230148507E+03  0.65698978449E+03  0.15294330000E+03 0.  0.
<mgrwt>
<rscale>  0 0.47860842E+03</rscale>
<asrwt>0</asrwt>
<pdfrwt beam="1">  1        2 0.28979642E+00 0.66501802E+03</pdfrwt>
<pdfrwt beam="2">  1       -2 0.15627226E-01 0.66501802E+03</pdfrwt>
<totfact> 0.26057689E+02</totfact>
</mgrwt>
</event>
<event>
 4    2  0.3388003E-007  0.7220447E+03  0.7818608E-02  0.9915727E-01
          2   -1    0    0  501    0  0.00000000000E+00  0.00000000000E+00  0.18109778537E+04  0.18109778537E+04  0.25500000000E-02 0. -1.
         -2   -1    0    0    0  501 -0.00000000000E+00 -0.00000000000E+00 -0.21898142535E+03  0.21898142537E+03  0.25500000000E-02 0.  1.
    8880023    1    1    2    0    0 -0.28020273139E+03 -0.94998908203E+02  0.47478415768E+03  0.86415772049E+03  0.65864270000E+03 0.  1.
    8880022    1    1    2    0    0  0.28020273139E+03  0.94998908203E+02  0.11172122707E+04  0.11658015586E+04  0.15294330000E+03 0.  0.
<mgrwt>
<rscale>  0 0.59505102E+03</rscale>
<asrwt>0</asrwt>
<pdfrwt beam="1">  1        2 0.27861197E+00 0.72204471E+03</pdfrwt>
<pdfrwt beam="2">  1       -2 0.33689451E-01 0.72204471E+03</pdfrwt>
<totfact> 0.72043598E+01</totfact>
</mgrwt>
</event>
<event>
 4    2  0.3388003E-007  0.6649322E+03  0.7818608E-02  0.1019590E+00
         -2   -1    0    0    0  501 -0.00000000000E+00  0.00000000000E+00  0.29363831318E+03  0.29363831319E+03  0.25500000000E-02 0.  1.
          2   -1    0    0  501    0  0.00000000000E+00 -0.00000000000E+00 -0.80842278176E+03  0.80842278176E+03  0.25500000000E-02 0. -1.
    8880023    1    1    2    0    0 -0.28988191700E+01  0.91193184031E+02 -0.12924504247E+03  0.67737662141E+03  0.65864270000E+03 0.  1.
    8880022    1    1    2    0    0  0.28988191700E+01 -0.91193184031E+02 -0.38553942611E+03  0.42468447354E+03  0.15294330000E+03 0.  0.
<mgrwt>
<rscale>  0 0.47834721E+03</rscale>
<asrwt>0</asrwt>
<pdfrwt beam="1">  1        2 0.12437273E+00 0.66493218E+03</pdfrwt>
<pdfrwt beam="2">  1       -2 0.45175125E-01 0.66493218E+03</pdfrwt>
<totfact> 0.16033947E+02</totfact>
</mgrwt>
</event>
<event>
 4    2  0.3388003E-007  0.7586683E+03  0.7818608E-02  0.9808567E-01
          2   -1    0    0  501    0  0.00000000000E+00  0.00000000000E+00  0.25299034791E+04  0.25299034791E+04  0.25500000000E-02 0. -1.
         -2   -1    0    0    0  501 -0.00000000000E+00 -0.00000000000E+00 -0.28535541032E+03  0.28535541033E+03  0.25500000000E-02 0.  1.
    8880023    1    1    2    0    0 -0.56009915607E+02  0.37233081866E+03  0.27932506385E+03  0.80845534616E+03  0.65864270000E+03 0.  1.
    8880022    1    1    2    0    0  0.56009915607E+02 -0.37233081866E+03  0.19652230049E+04  0.20068035433E+04  0.15294330000E+03 0.  0.
<mgrwt>
<rscale>  0 0.64904786E+03</rscale>
<asrwt>0</asrwt>
<pdfrwt beam="1">  1        2 0.38921591E+00 0.75866828E+03</pdfrwt>
<pdfrwt beam="2">  1       -2 0.43900834E-01 0.75866828E+03</pdfrwt>
<totfact> 0.17211275E+01</totfact>
</mgrwt>
</event>
<event>
 4    2  0.3388003E-007  0.7783729E+03  0.7818608E-02  0.9759673E-01
          2   -1    0    0  501    0  0.00000000000E+00  0.00000000000E+00  0.37874359403E+04  0.37874359403E+04  0.25500000000E-02 0. -1.
         -2   -1    0    0    0  501 -0.00000000000E+00 -0.00000000000E+00 -0.11468038007E+03  0.11468038010E+03  0.25500000000E-02 0.  1.
    8880023    1    1    2    0    0 -0.34373713027E+03 -0.23216132258E+03  0.15576641725E+04  0.17413161617E+04  0.65864270000E+03 0.  0.
    8880022    1    1    2    0    0  0.34373713027E+03  0.23216132258E+03  0.21150913877E+04  0.21608001586E+04  0.15294330000E+03 0.  0.
<mgrwt>
<rscale>  0 0.67572353E+03</rscale>
<asrwt>0</asrwt>
<pdfrwt beam="1">  1        2 0.58268245E+00 0.77837285E+03</pdfrwt>
<pdfrwt beam="2">  1       -2 0.17643135E-01 0.77837285E+03</pdfrwt>
<totfact> 0.14454427E+01</totfact>
</mgrwt>
</event>
<event>
 4    2  0.3388003E-007  0.9219800E+03  0.7818608E-02  0.9491630E-01
          2   -1    0    0  501    0  0.00000000000E+00  0.00000000000E+00  0.10843610203E+04  0.10843610203E+04  0.25500000000E-02 0. -1.
         -2   -1    0    0    0  501 -0.00000000000E+00 -0.00000000000E+00 -0.98739497632E+03  0.98739497632E+03  0.25500000000E-02 0.  1.
    8880023    1    1    2    0    0 -0.51790336111E+03 -0.38472471974E+03 -0.60766114291E+03  0.11042188516E+04  0.65864270000E+03 0.  0.
    8880022    1    1    2    0    0  0.51790336111E+03  0.38472471974E+03  0.70462718689E+03  0.96753714500E+03  0.15294330000E+03 0.  0.
<mgrwt>
<rscale>  0 0.84903754E+03</rscale>
<asrwt>0</asrwt>
<pdfrwt beam="1">  1        2 0.16682477E+00 0.92198005E+03</pdfrwt>
<pdfrwt beam="2">  1       -2 0.15190692E+00 0.92198005E+03</pdfrwt>
<totfact> 0.64488984E+00</totfact>
</mgrwt>
</event>
<event>
 4    2  0.3388003E-007  0.7924844E+03  0.7818608E-02  0.9727288E-01
          2   -1    0    0  501    0  0.00000000000E+00  0.00000000000E+00  0.38691444136E+04  0.38691444136E+04  0.25500000000E-02 0. -1.
         -2   -1    0    0    0  501 -0.00000000000E+00 -0.00000000000E+00 -0.14102220184E+03  0.14102220186E+03  0.25500000000E-02 0.  1.
    8880023    1    1    2    0    0 -0.55495020932E+01 -0.44067053245E+03  0.11913222221E+04  0.14308319811E+04  0.65864270000E+03 0.  1.
    8880022    1    1    2    0    0  0.55495020932E+01  0.44067053245E+03  0.25367999897E+04  0.25793346343E+04  0.15294330000E+03 0.  0.
<mgrwt>
<rscale>  0 0.69415049E+03</rscale>
<asrwt>0</asrwt>
<pdfrwt beam="1">  1        2 0.59525312E+00 0.79248440E+03</pdfrwt>
<pdfrwt beam="2">  1       -2 0.21695719E-01 0.79248440E+03</pdfrwt>
<totfact> 0.87276269E+00</totfact>
</mgrwt>
</event>
<event>
 4    2  0.3388003E-007  0.1227961E+04  0.7818608E-02  0.9130410E-01
          2   -1    0    0  501    0  0.00000000000E+00  0.00000000000E+00  0.16352899729E+04  0.16352899729E+04  0.25500000000E-02 0. -1.
         -2   -1    0    0    0  501 -0.00000000000E+00 -0.00000000000E+00 -0.12257413747E+04  0.12257413747E+04  0.25500000000E-02 0.  1.
    8880023    1    1    2    0    0  0.10070448523E+04  0.24482619109E+03 -0.63433480586E+03  0.13821251935E+04  0.65864270000E+03 0.  0.
    8880022    1    1    2    0    0 -0.10070448523E+04 -0.24482619109E+03  0.10438834040E+04  0.14789061541E+04  0.15294330000E+03 0.  0.
<mgrwt>
<rscale>  0 0.11801513E+04</rscale>
<asrwt>0</asrwt>
<pdfrwt beam="1">  1        2 0.25158307E+00 0.12279615E+04</pdfrwt>
<pdfrwt beam="2">  1       -2 0.18857560E+00 0.12279615E+04</pdfrwt>
<totfact> 0.16332896E+00</totfact>
</mgrwt>
</event>
<event>
 4    2  0.3388003E-007  0.8684103E+03  0.7818608E-02  0.9578775E-01
         -2   -1    0    0    0  501 -0.00000000000E+00  0.00000000000E+00  0.33300648914E+03  0.33300648915E+03  0.25500000000E-02 0.  1.
          2   -1    0    0  501    0  0.00000000000E+00 -0.00000000000E+00 -0.22092670813E+04  0.22092670813E+04  0.25500000000E-02 0. -1.
    8880023    1    1    2    0    0  0.56512673148E+03 -0.30951299653E+02 -0.40441419887E+03  0.95795994493E+03  0.65864270000E+03 0.  1.
    8880022    1    1    2    0    0 -0.56512673148E+03  0.30951299653E+02 -0.14718463933E+04  0.15843136256E+04  0.15294330000E+03 0.  0.
<mgrwt>
<rscale>  0 0.78717081E+03</rscale>
<asrwt>0</asrwt>
<pdfrwt beam="1">  1        2 0.33988723E+00 0.86841028E+03</pdfrwt>
<pdfrwt beam="2">  1       -2 0.51231769E-01 0.86841028E+03</pdfrwt>
<totfact> 0.18781552E+01</totfact>
</mgrwt>
</event>
<event>
 4    2  0.3388003E-007  0.6894849E+03  0.7818608E-02  0.1004398E+00
         -2   -1    0    0    0  501 -0.00000000000E+00  0.00000000000E+00  0.77705404657E+03  0.77705404657E+03  0.25500000000E-02 0.  1.
          2   -1    0    0  501    0  0.00000000000E+00 -0.00000000000E+00 -0.62095141436E+03  0.62095141437E+03  0.25500000000E-02 0. -1.
    8880023    1    1    2    0    0  0.70815362413E+02 -0.19121818433E+03  0.58158548443E+03  0.90201501736E+03  0.65864270000E+03 0.  1.
    8880022    1    1    2    0    0 -0.70815362413E+02  0.19121818433E+03 -0.42548285223E+03  0.49599044358E+03  0.15294330000E+03 0.  0.
<mgrwt>
<rscale>  0 0.53762988E+03</rscale>
<asrwt>0</asrwt>
<pdfrwt beam="1">  1        2 0.95530986E-01 0.68948489E+03</pdfrwt>
<pdfrwt beam="2">  1       -2 0.11954678E+00 0.68948489E+03</pdfrwt>
<totfact> 0.25969140E+01</totfact>
</mgrwt>
</event>
<event>
 4    2  0.3388003E-007  0.1063513E+04  0.7818608E-02  0.9302810E-01
          2   -1    0    0  501    0  0.00000000000E+00  0.00000000000E+00  0.33055148671E+04  0.33055148671E+04  0.25500000000E-02 0. -1.
         -2   -1    0    0    0  501 -0.00000000000E+00 -0.00000000000E+00 -0.42836867685E+03  0.42836867686E+03  0.25500000000E-02 0.  1.
    8880023    1    1    2    0    0 -0.28212381994E+03 -0.78591114899E+03  0.43612405130E+03  0.11494627346E+04  0.65864270000E+03 0.  1.
    8880022    1    1    2    0    0  0.28212381994E+03  0.78591114899E+03  0.24410221389E+04  0.25844208093E+04  0.15294330000E+03 0.  0.
<mgrwt>
<rscale>  0 0.10052454E+04</rscale>
<asrwt>0</asrwt>
<pdfrwt beam="1">  1        2 0.50854077E+00 0.10635132E+04</pdfrwt>
<pdfrwt beam="2">  1       -2 0.65902871E-01 0.10635132E+04</pdfrwt>
<totfact> 0.23884945E+00</totfact>
</mgrwt>
</event>
<event>
 4    2  0.3388003E-007  0.7388513E+03  0.7818608E-02  0.9863306E-01
          2   -1    0    0  501    0  0.00000000000E+00  0.00000000000E+00  0.45680477131E+03  0.45680477132E+03  0.25500000000E-02 0. -1.
         -2   -1    0    0    0  501 -0.00000000000E+00 -0.00000000000E+00 -0.70521359462E+03  0.70521359463E+03  0.25500000000E-02 0.  1.
    8880023    1    1    2    0    0  0.25066159537E+03  0.22194536643E+03 -0.42068276480E+02  0.74004792225E+03  0.65864270000E+03 0. -1.
    8880022    1    1    2    0    0 -0.25066159537E+03 -0.22194536643E+03 -0.20634054683E+03  0.42197044370E+03  0.15294330000E+03 0.  1.
<mgrwt>
<rscale>  0 0.62073069E+03</rscale>
<asrwt>0</asrwt>
<pdfrwt beam="1">  1        2 0.70277657E-01 0.73885126E+03</pdfrwt>
<pdfrwt beam="2">  1       -2 0.10849440E+00 0.73885126E+03</pdfrwt>
<totfact> 0.47010750E+01</totfact>
</mgrwt>
</event>
<event>
 4    2  0.3388003E-007  0.8711380E+03  0.7818608E-02  0.9574050E-01
          2   -1    0    0  501    0  0.00000000000E+00  0.00000000000E+00  0.30269650980E+04  0.30269650980E+04  0.25500000000E-02 0. -1.
         -2   -1    0    0    0  501 -0.00000000000E+00 -0.00000000000E+00 -0.52802937348E+03  0.52802937348E+03  0.25500000000E-02 0.  1.
    8880023    1    1    2    0    0 -0.38316978874E+03 -0.42219907783E+03 -0.11186467661E+03  0.87829098849E+03  0.65864270000E+03 0.  1.
    8880022    1    1    2    0    0  0.38316978874E+03  0.42219907783E+03  0.26108004011E+04  0.26767034830E+04  0.15294330000E+03 0.  0.
<mgrwt>
<rscale>  0 0.79037785E+03</rscale>
<asrwt>0</asrwt>
<pdfrwt beam="1">  1        2 0.46568693E+00 0.87113797E+03</pdfrwt>
<pdfrwt beam="2">  1       -2 0.81235290E-01 0.87113797E+03</pdfrwt>
<totfact> 0.23336504E+00</totfact>
</mgrwt>
</event>
<event>
 4    2  0.3388003E-007  0.9102490E+03  0.7818608E-02  0.9509775E-01
         -2   -1    0    0    0  501 -0.00000000000E+00  0.00000000000E+00  0.11756594574E+04  0.11756594574E+04  0.25500000000E-02 0.  1.
          2   -1    0    0  501    0  0.00000000000E+00 -0.00000000000E+00 -0.67865231050E+03  0.67865231051E+03  0.25500000000E-02 0. -1.
    8880023    1    1    2    0    0  0.30775555529E+03  0.54774959018E+03  0.73017619896E+03  0.11669235550E+04  0.65864270000E+03 0.  0.
    8880022    1    1    2    0    0 -0.30775555529E+03 -0.54774959018E+03 -0.23316905210E+03  0.68738821290E+03  0.15294330000E+03 0.  0.
<mgrwt>
<rscale>  0 0.83566979E+03</rscale>
<asrwt>0</asrwt>
<pdfrwt beam="1">  1        2 0.10440805E+00 0.91024903E+03</pdfrwt>
<pdfrwt beam="2">  1       -2 0.18087068E+00 0.91024903E+03</pdfrwt>
<totfact> 0.76272710E+00</totfact>
</mgrwt>
</event>
<event>
 4    2  0.3388003E-007  0.1362546E+04  0.7818608E-02  0.9013346E-01
          2   -1    0    0  501    0  0.00000000000E+00  0.00000000000E+00  0.11920342614E+04  0.11920342614E+04  0.25500000000E-02 0. -1.
         -2   -1    0    0    0  501 -0.00000000000E+00 -0.00000000000E+00 -0.20375581812E+04  0.20375581812E+04  0.25500000000E-02 0.  1.
    8880023    1    1    2    0    0  0.11174010447E+04 -0.41729642461E+03 -0.13568004433E+04  0.19228726037E+04  0.65864270000E+03 0.  0.
    8880022    1    1    2    0    0 -0.11174010447E+04  0.41729642461E+03  0.51127652360E+03  0.13067198389E+04  0.15294330000E+03 0.  0.
<mgrwt>
<rscale>  0 0.13206528E+04</rscale>
<asrwt>0</asrwt>
<pdfrwt beam="1">  1        2 0.18338989E+00 0.13625460E+04</pdfrwt>
<pdfrwt beam="2">  1       -2 0.31347049E+00 0.13625460E+04</pdfrwt>
<totfact> 0.48247733E-01</totfact>
</mgrwt>
</event>
<event>
 4    2  0.3388003E-007  0.6948004E+03  0.7818608E-02  0.1001950E+00
          2   -1    0    0  501    0  0.00000000000E+00  0.00000000000E+00  0.19875815188E+04  0.19875815188E+04  0.25500000000E-02 0. -1.
         -2   -1    0    0    0  501 -0.00000000000E+00 -0.00000000000E+00 -0.20451429549E+03  0.20451429550E+03  0.25500000000E-02 0.  1.
    8880023    1    1    2    0    0 -0.69884885265E+01  0.22110765638E+03  0.44008343856E+03  0.82244821955E+03  0.65864270000E+03 0.  1.
    8880022    1    1    2    0    0  0.69884885265E+01 -0.22110765638E+03  0.13429837848E+04  0.13696475948E+04  0.15294330000E+03 0. -1.
<mgrwt>
<rscale>  0 0.54803612E+03</rscale>
<asrwt>0</asrwt>
<pdfrwt beam="1">  1        2 0.30578177E+00 0.69480043E+03</pdfrwt>
<pdfrwt beam="2">  1       -2 0.31463738E-01 0.69480043E+03</pdfrwt>
<totfact> 0.65870758E+01</totfact>
</mgrwt>
</event>
<event>
 4    2  0.3388003E-007  0.6954111E+03  0.7818608E-02  0.1001680E+00
         -2   -1    0    0    0  501 -0.00000000000E+00  0.00000000000E+00  0.12612368922E+03  0.12612368924E+03  0.25500000000E-02 0.  1.
          2   -1    0    0  501    0  0.00000000000E+00 -0.00000000000E+00 -0.20151231460E+04  0.20151231460E+04  0.25500000000E-02 0. -1.
    8880023    1    1    2    0    0  0.13439315920E+03 -0.17811479116E+03 -0.10473678990E+04  0.12572096572E+04  0.65864270000E+03 0.  0.
    8880022    1    1    2    0    0 -0.13439315920E+03  0.17811479116E+03 -0.84163155776E+03  0.88403717801E+03  0.15294330000E+03 0.  1.
<mgrwt>
<rscale>  0 0.54919784E+03</rscale>
<asrwt>0</asrwt>
<pdfrwt beam="1">  1        2 0.31001892E+00 0.69541111E+03</pdfrwt>
<pdfrwt beam="2">  1       -2 0.19403646E-01 0.69541111E+03</pdfrwt>
<totfact> 0.15196916E+02</totfact>
</mgrwt>
</event>
<event>
 4    2  0.3388003E-007  0.8906290E+03  0.7818608E-02  0.9541246E-01
          2   -1    0    0  501    0  0.00000000000E+00  0.00000000000E+00  0.23090654919E+04  0.23090654919E+04  0.25500000000E-02 0. -1.
         -2   -1    0    0    0  501 -0.00000000000E+00 -0.00000000000E+00 -0.32933025672E+03  0.32933025673E+03  0.25500000000E-02 0.  1.
    8880023    1    1    2    0    0 -0.23937612673E+03  0.54964427510E+03  0.17763437963E+04  0.19871127920E+04  0.65864270000E+03 0. -1.
    8880022    1    1    2    0    0  0.23937612673E+03 -0.54964427510E+03  0.20339143889E+03  0.65128295665E+03  0.15294330000E+03 0.  0.
<mgrwt>
<rscale>  0 0.81310064E+03</rscale>
<asrwt>0</asrwt>
<pdfrwt beam="1">  1        2 0.35524087E+00 0.89062897E+03</pdfrwt>
<pdfrwt beam="2">  1       -2 0.50666190E-01 0.89062897E+03</pdfrwt>
<totfact> 0.16860721E+01</totfact>
</mgrwt>
</event>
<event>
 4    2  0.3388003E-007  0.9182250E+03  0.7818608E-02  0.9497386E-01
         -2   -1    0    0    0  501 -0.00000000000E+00  0.00000000000E+00  0.57291838828E+03  0.57291838829E+03  0.25500000000E-02 0.  1.
          2   -1    0    0  501    0  0.00000000000E+00 -0.00000000000E+00 -0.12323914227E+04  0.12323914227E+04  0.25500000000E-02 0. -1.
    8880023    1    1    2    0    0 -0.41629718354E+03 -0.48582263964E+03 -0.68089642140E+02  0.92074610389E+03  0.65864270000E+03 0.  0.
    8880022    1    1    2    0    0  0.41629718354E+03  0.48582263964E+03 -0.59138339224E+03  0.88456370705E+03  0.15294330000E+03 0.  0.
<mgrwt>
<rscale>  0 0.84476817E+03</rscale>
<asrwt>0</asrwt>
<pdfrwt beam="1">  1        2 0.18959868E+00 0.91822502E+03</pdfrwt>
<pdfrwt beam="2">  1       -2 0.88141291E-01 0.91822502E+03</pdfrwt>
<totfact> 0.20136716E+01</totfact>
</mgrwt>
</event>
<event>
 4    2  0.3388003E-007  0.7065308E+03  0.7818608E-02  0.9971116E-01
          2   -1    0    0  501    0  0.00000000000E+00  0.00000000000E+00  0.90899823297E+03  0.90899823298E+03  0.25500000000E-02 0. -1.
         -2   -1    0    0    0  501 -0.00000000000E+00 -0.00000000000E+00 -0.28853381346E+03  0.28853381347E+03  0.25500000000E-02 0.  1.
    8880023    1    1    2    0    0 -0.61992865837E+02 -0.24805748683E+03  0.53900753451E+03  0.88865908014E+03  0.65864270000E+03 0. -1.
    8880022    1    1    2    0    0  0.61992865837E+02  0.24805748683E+03  0.81456885008E+02  0.30887296631E+03  0.15294330000E+03 0.  1.
<mgrwt>
<rscale>  0 0.56935084E+03</rscale>
<asrwt>0</asrwt>
<pdfrwt beam="1">  1        2 0.13984588E+00 0.70653085E+03</pdfrwt>
<pdfrwt beam="2">  1       -2 0.44389818E-01 0.70653085E+03</pdfrwt>
<totfact> 0.14116320E+02</totfact>
</mgrwt>
</event>
<event>
 4    2  0.3388003E-007  0.6705088E+03  0.7818608E-02  0.1015301E+00
         -2   -1    0    0    0  501 -0.00000000000E+00  0.00000000000E+00  0.19694445431E+03  0.19694445432E+03  0.25500000000E-02 0.  1.
          2   -1    0    0  501    0  0.00000000000E+00 -0.00000000000E+00 -0.24980649078E+04  0.24980649078E+04  0.25500000000E-02 0. -1.
    8880023    1    1    2    0    0 -0.61666360108E+02  0.10940368143E+03 -0.39410624805E+03  0.77775436128E+03  0.65864270000E+03 0.  0.
    8880022    1    1    2    0    0  0.61666360108E+02 -0.10940368143E+03 -0.19070142054E+04  0.19172550008E+04  0.15294330000E+03 0.  0.
<mgrwt>
<rscale>  0 0.49421242E+03</rscale>
<asrwt>0</asrwt>
<pdfrwt beam="1">  1        2 0.38431766E+00 0.67050885E+03</pdfrwt>
<pdfrwt beam="2">  1       -2 0.30299149E-01 0.67050885E+03</pdfrwt>
<totfact> 0.37042466E+01</totfact>
</mgrwt>
</event>
<event>
 4    2  0.3388003E-007  0.6633852E+03  0.7818608E-02  0.1020928E+00
          2   -1    0    0  501    0  0.00000000000E+00  0.00000000000E+00  0.16597534864E+04  0.16597534864E+04  0.25500000000E-02 0. -1.
         -2   -1    0    0    0  501 -0.00000000000E+00 -0.00000000000E+00 -0.11399662608E+03  0.11399662610E+03  0.25500000000E-02 0.  1.
    8880023    1    1    2    0    0 -0.79028505480E+02  0.49272503455E+01  0.98834738817E+03  0.11903405179E+04  0.65864270000E+03 0.  1.
    8880022    1    1    2    0    0  0.79028505480E+02 -0.49272503455E+01  0.55740947218E+03  0.58340959468E+03  0.15294330000E+03 0.  0.
<mgrwt>
<rscale>  0 0.47353096E+03</rscale>
<asrwt>0</asrwt>
<pdfrwt beam="1">  1        2 0.25534669E+00 0.66338525E+03</pdfrwt>
<pdfrwt beam="2">  1       -2 0.17537942E-01 0.66338525E+03</pdfrwt>
<totfact> 0.28332958E+02</totfact>
</mgrwt>
</event>
<event>
 4    2  0.3388003E-007  0.7160824E+03  0.7818608E-02  0.9936072E-01
         -2   -1    0    0    0  501 -0.00000000000E+00  0.00000000000E+00  0.44723753623E+03  0.44723753624E+03  0.25500000000E-02 0.  1.
          2   -1    0    0  501    0  0.00000000000E+00 -0.00000000000E+00 -0.95359245964E+03  0.95359245965E+03  0.25500000000E-02 0. -1.
    8880023    1    1    2    0    0 -0.27928483380E+03  0.31043870626E+02  0.92342575193E+02  0.72201184045E+03  0.65864270000E+03 0.  1.
    8880022    1    1    2    0    0  0.27928483380E+03 -0.31043870626E+02 -0.59869749861E+03  0.67881815543E+03  0.15294330000E+03 0.  0.
<mgrwt>
<rscale>  0 0.58544496E+03</rscale>
<asrwt>0</asrwt>
<pdfrwt beam="1">  1        2 0.14670653E+00 0.71608236E+03</pdfrwt>
<pdfrwt beam="2">  1       -2 0.68805775E-01 0.71608236E+03</pdfrwt>
<totfact> 0.53047890E+01</totfact>
</mgrwt>
</event>
<event>
 4    2  0.3388003E-007  0.7930675E+03  0.7818608E-02  0.9725991E-01
          2   -1    0    0  501    0  0.00000000000E+00  0.00000000000E+00  0.93621286356E+03  0.93621286356E+03  0.25500000000E-02 0. -1.
         -2   -1    0    0    0  501 -0.00000000000E+00 -0.00000000000E+00 -0.52882977539E+03  0.52882977540E+03  0.25500000000E-02 0.  1.
    8880023    1    1    2    0    0  0.24657977524E+03  0.36653008280E+03  0.56272600524E+03  0.97242822377E+03  0.65864270000E+03 0.  0.
    8880022    1    1    2    0    0 -0.24657977524E+03 -0.36653008280E+03 -0.15534291707E+03  0.49261441519E+03  0.15294330000E+03 0.  0.
<mgrwt>
<rscale>  0 0.69490171E+03</rscale>
<asrwt>0</asrwt>
<pdfrwt beam="1">  1        2 0.14403275E+00 0.79306752E+03</pdfrwt>
<pdfrwt beam="2">  1       -2 0.81358428E-01 0.79306752E+03</pdfrwt>
<totfact> 0.37318783E+01</totfact>
</mgrwt>
</event>
<event>
 4    2  0.3388003E-007  0.7413318E+03  0.7818608E-02  0.9856085E-01
          2   -1    0    0  501    0  0.00000000000E+00  0.00000000000E+00  0.14393966494E+04  0.14393966494E+04  0.25500000000E-02 0. -1.
         -2   -1    0    0    0  501 -0.00000000000E+00 -0.00000000000E+00 -0.33659160326E+03  0.33659160327E+03  0.25500000000E-02 0.  1.
    8880023    1    1    2    0    0  0.33639381875E+03 -0.51007833890E+02  0.15492563996E+03  0.75734718630E+03  0.65864270000E+03 0.  0.
    8880022    1    1    2    0    0 -0.33639381875E+03  0.51007833890E+02  0.94787940614E+03  0.10186410663E+04  0.15294330000E+03 0.  0.
<mgrwt>
<rscale>  0 0.62437646E+03</rscale>
<asrwt>0</asrwt>
<pdfrwt beam="1">  1        2 0.22144564E+00 0.74133178E+03</pdfrwt>
<pdfrwt beam="2">  1       -2 0.51783323E-01 0.74133178E+03</pdfrwt>
<totfact> 0.49444940E+01</totfact>
</mgrwt>
</event>
<event>
 4    2  0.3388003E-007  0.7854681E+03  0.7818608E-02  0.9743146E-01
          2   -1    0    0  501    0  0.00000000000E+00  0.00000000000E+00  0.11335618622E+04  0.11335618622E+04  0.25500000000E-02 0. -1.
         -2   -1    0    0    0  501 -0.00000000000E+00 -0.00000000000E+00 -0.80868430285E+03  0.80868430285E+03  0.25500000000E-02 0.  1.
    8880023    1    1    2    0    0 -0.36737376154E+03  0.21951411334E+03 -0.54827757224E+03  0.95789792207E+03  0.65864270000E+03 0.  0.
    8880022    1    1    2    0    0  0.36737376154E+03 -0.21951411334E+03  0.87315513154E+03  0.98434824294E+03  0.15294330000E+03 0.  0.
<mgrwt>
<rscale>  0 0.68505012E+03</rscale>
<asrwt>0</asrwt>
<pdfrwt beam="1">  1        2 0.17439413E+00 0.78546810E+03</pdfrwt>
<pdfrwt beam="2">  1       -2 0.12441297E+00 0.78546810E+03</pdfrwt>
<totfact> 0.10227413E+01</totfact>
</mgrwt>
</event>
<event>
 4    2  0.3388003E-007  0.7728160E+03  0.7818608E-02  0.9772991E-01
          2   -1    0    0  501    0  0.00000000000E+00  0.00000000000E+00  0.54870317763E+03  0.54870317764E+03  0.25500000000E-02 0. -1.
         -2   -1    0    0    0  501 -0.00000000000E+00 -0.00000000000E+00 -0.76373216692E+03  0.76373216692E+03  0.25500000000E-02 0.  1.
    8880023    1    1    2    0    0 -0.31198609350E+02  0.40306443722E+03 -0.36532864444E+03  0.85481548798E+03  0.65864270000E+03 0.  0.
    8880022    1    1    2    0    0  0.31198609350E+02 -0.40306443722E+03  0.15029965516E+03  0.45761985658E+03  0.15294330000E+03 0.  0.
<mgrwt>
<rscale>  0 0.66832346E+03</rscale>
<asrwt>0</asrwt>
<pdfrwt beam="1">  1        2 0.84415873E-01 0.77281595E+03</pdfrwt>
<pdfrwt beam="2">  1       -2 0.11749726E+00 0.77281595E+03</pdfrwt>
<totfact> 0.31213320E+01</totfact>
</mgrwt>
</event>
<event>
 4    2  0.5239602E-007  0.8301139E+03  0.7818608E-02  0.9649111E-01
         -2   -1    0    0    0  501 -0.00000000000E+00  0.00000000000E+00  0.15089290382E+04  0.15089290382E+04  0.25500000000E-02 0.  1.
          2   -1    0    0  501    0  0.00000000000E+00 -0.00000000000E+00 -0.20277345785E+04  0.20277345785E+04  0.25500000000E-02 0. -1.
    8880023    1    1    2    0    0 -0.14992503721E+03  0.48249501575E+03  0.13554723194E+04  0.15894635485E+04  0.65864270000E+03 0.  1.
    8880022    1    1    2    0    0  0.14992503721E+03 -0.48249501575E+03 -0.18742778598E+04  0.19472000682E+04  0.15294330000E+03 0.  0.
<mgrwt>
<rscale>  0 0.74129262E+03</rscale>
<asrwt>0</asrwt>
<pdfrwt beam="1">  1        2 0.31195917E+00 0.83011395E+03</pdfrwt>
<pdfrwt beam="2">  1       -2 0.23214293E+00 0.83011395E+03</pdfrwt>
<totfact> 0.55213617E-01</totfact>
</mgrwt>
</event>
<event>
 4    2  0.3388003E-007  0.7668305E+03  0.7818608E-02  0.9787734E-01
          2   -1    0    0  501    0  0.00000000000E+00  0.00000000000E+00  0.20929738111E+04  0.20929738111E+04  0.25500000000E-02 0. -1.
         -2   -1    0    0    0  501 -0.00000000000E+00 -0.00000000000E+00 -0.19132862948E+03  0.19132862950E+03  0.25500000000E-02 0.  1.
    8880023    1    1    2    0    0 -0.29684549995E+03  0.25710223095E+03  0.81621163678E+03  0.11199243056E+04  0.65864270000E+03 0.  0.
    8880022    1    1    2    0    0  0.29684549995E+03 -0.25710223095E+03  0.10854335448E+04  0.11643781350E+04  0.15294330000E+03 0.  0.
<mgrwt>
<rscale>  0 0.66024953E+03</rscale>
<asrwt>0</asrwt>
<pdfrwt beam="1">  1        2 0.32199597E+00 0.76683050E+03</pdfrwt>
<pdfrwt beam="2">  1       -2 0.29435174E-01 0.76683050E+03</pdfrwt>
<totfact> 0.64753081E+01</totfact>
</mgrwt>
</event>
<event>
 4    2  0.3388003E-007  0.9241286E+03  0.7818608E-02  0.9488357E-01
          2   -1    0    0  501    0  0.00000000000E+00  0.00000000000E+00  0.73044455509E+03  0.73044455509E+03  0.25500000000E-02 0. -1.
         -2   -1    0    0    0  501 -0.00000000000E+00 -0.00000000000E+00 -0.95905591293E+03  0.95905591293E+03  0.25500000000E-02 0.  1.
    8880023    1    1    2    0    0  0.14239691839E+03 -0.63239749034E+03 -0.39182711800E+03  0.10037639986E+04  0.65864270000E+03 0.  0.
    8880022    1    1    2    0    0 -0.14239691839E+03  0.63239749034E+03  0.16321576016E+03  0.68573646945E+03  0.15294330000E+03 0.  0.
<mgrwt>
<rscale>  0 0.85147648E+03</rscale>
<asrwt>0</asrwt>
<pdfrwt beam="1">  1        2 0.11237609E+00 0.92412860E+03</pdfrwt>
<pdfrwt beam="2">  1       -2 0.14754706E+00 0.92412860E+03</pdfrwt>
<totfact> 0.12128896E+01</totfact>
</mgrwt>
</event>
<event>
 4    2  0.3388003E-007  0.7172845E+03  0.7818608E-02  0.9931884E-01
         -2   -1    0    0    0  501 -0.00000000000E+00  0.00000000000E+00  0.13761491440E+04  0.13761491440E+04  0.25500000000E-02 0.  1.
          2   -1    0    0  501    0  0.00000000000E+00 -0.00000000000E+00 -0.80807834941E+03  0.80807834941E+03  0.25500000000E-02 0. -1.
    8880023    1    1    2    0    0 -0.20942823874E+02 -0.28328115512E+03  0.12435915761E+04  0.14356242646E+04  0.65864270000E+03 0.  1.
    8880022    1    1    2    0    0  0.20942823874E+02  0.28328115512E+03 -0.67552078158E+03  0.74860322874E+03  0.15294330000E+03 0.  0.
<mgrwt>
<rscale>  0 0.58740642E+03</rscale>
<asrwt>0</asrwt>
<pdfrwt beam="1">  1        2 0.12431975E+00 0.71728448E+03</pdfrwt>
<pdfrwt beam="2">  1       -2 0.21171525E+00 0.71728448E+03</pdfrwt>
<totfact> 0.39031474E+00</totfact>
</mgrwt>
</event>
<event>
 4    2  0.3388003E-007  0.7074521E+03  0.7818608E-02  0.9967587E-01
         -2   -1    0    0    0  501 -0.00000000000E+00  0.00000000000E+00  0.20300760545E+03  0.20300760547E+03  0.25500000000E-02 0.  1.
          2   -1    0    0  501    0  0.00000000000E+00 -0.00000000000E+00 -0.26301919503E+04  0.26301919504E+04  0.25500000000E-02 0. -1.
    8880023    1    1    2    0    0  0.33231889314E+02 -0.25607409831E+03 -0.46135387100E+03  0.84459215178E+03  0.65864270000E+03 0.  0.
    8880022    1    1    2    0    0 -0.33231889314E+02  0.25607409831E+03 -0.19658304739E+04  0.19886074040E+04  0.15294330000E+03 0.  0.
<mgrwt>
<rscale>  0 0.57094633E+03</rscale>
<asrwt>0</asrwt>
<pdfrwt beam="1">  1        2 0.40464489E+00 0.70745212E+03</pdfrwt>
<pdfrwt beam="2">  1       -2 0.31231941E-01 0.70745212E+03</pdfrwt>
<totfact> 0.29263905E+01</totfact>
</mgrwt>
</event>
<event>
 4    2  0.3388003E-007  0.7789331E+03  0.7818608E-02  0.9758349E-01
         -2   -1    0    0    0  501 -0.00000000000E+00  0.00000000000E+00  0.19325910660E+03  0.19325910661E+03  0.25500000000E-02 0.  1.
          2   -1    0    0  501    0  0.00000000000E+00 -0.00000000000E+00 -0.21547377720E+04  0.21547377720E+04  0.25500000000E-02 0. -1.
    8880023    1    1    2    0    0  0.86720447123E+02 -0.40670154627E+03 -0.85773049302E+03  0.11586364350E+04  0.65864270000E+03 0.  1.
    8880022    1    1    2    0    0 -0.86720447123E+02  0.40670154627E+03 -0.11037481724E+04  0.11893604436E+04  0.15294330000E+03 0.  0.
<mgrwt>
<rscale>  0 0.67646480E+03</rscale>
<asrwt>0</asrwt>
<pdfrwt beam="1">  1        2 0.33149810E+00 0.77893311E+03</pdfrwt>
<pdfrwt beam="2">  1       -2 0.29732172E-01 0.77893311E+03</pdfrwt>
<totfact> 0.58702743E+01</totfact>
</mgrwt>
</event>
<event>
 4    2  0.3388003E-007  0.7353563E+03  0.7818608E-02  0.9873686E-01
         -2   -1    0    0    0  501 -0.00000000000E+00  0.00000000000E+00  0.41666276941E+03  0.41666276941E+03  0.25500000000E-02 0.  1.
          2   -1    0    0  501    0  0.00000000000E+00 -0.00000000000E+00 -0.12552273505E+04  0.12552273505E+04  0.25500000000E-02 0. -1.
    8880023    1    1    2    0    0 -0.15199876685E+03 -0.28954295456E+03  0.25126044588E+02  0.73578547963E+03  0.65864270000E+03 0.  0.
    8880022    1    1    2    0    0  0.15199876685E+03  0.28954295456E+03 -0.86369062571E+03  0.93610464031E+03  0.15294330000E+03 0.  0.
<mgrwt>
<rscale>  0 0.61553691E+03</rscale>
<asrwt>0</asrwt>
<pdfrwt beam="1">  1        2 0.19311190E+00 0.73535634E+03</pdfrwt>
<pdfrwt beam="2">  1       -2 0.64101965E-01 0.73535634E+03</pdfrwt>
<totfact> 0.40312638E+01</totfact>
</mgrwt>
</event>
<event>
 4    2  0.3388003E-007  0.7682966E+03  0.7818608E-02  0.9784083E-01
          2   -1    0    0  501    0  0.00000000000E+00  0.00000000000E+00  0.15267503338E+04  0.15267503338E+04  0.25500000000E-02 0. -1.
         -2   -1    0    0    0  501 -0.00000000000E+00 -0.00000000000E+00 -0.84420839318E+03  0.84420839319E+03  0.25500000000E-02 0.  1.
    8880023    1    1    2    0    0 -0.32525665229E+03 -0.22511673208E+03 -0.62875851403E+03  0.99278240725E+03  0.65864270000E+03 0.  1.
    8880022    1    1    2    0    0  0.32525665229E+03  0.22511673208E+03  0.13113004546E+04  0.13781763197E+04  0.15294330000E+03 0.  0.
<mgrwt>
<rscale>  0 0.66223759E+03</rscale>
<asrwt>0</asrwt>
<pdfrwt beam="1">  1        2 0.23488467E+00 0.76829658E+03</pdfrwt>
<pdfrwt beam="2">  1       -2 0.12987821E+00 0.76829658E+03</pdfrwt>
<totfact> 0.54612464E+00</totfact>
</mgrwt>
</event>
<event>
 4    2  0.3388003E-007  0.1106535E+04  0.7818608E-02  0.9253814E-01
         -2   -1    0    0    0  501 -0.00000000000E+00  0.00000000000E+00  0.16077575882E+04  0.16077575882E+04  0.25500000000E-02 0.  1.
          2   -1    0    0  501    0  0.00000000000E+00 -0.00000000000E+00 -0.73007004049E+03  0.73007004050E+03  0.25500000000E-02 0. -1.
    8880023    1    1    2    0    0  0.71220611399E+03  0.53232788306E+03  0.91351280352E+03  0.14348959448E+04  0.65864270000E+03 0.  0.
    8880022    1    1    2    0    0 -0.71220611399E+03 -0.53232788306E+03 -0.35825255802E+02  0.90293168393E+03  0.15294330000E+03 0.  0.
<mgrwt>
<rscale>  0 0.10514829E+04</rscale>
<asrwt>0</asrwt>
<pdfrwt beam="1">  1        2 0.11231847E+00 0.11065355E+04</pdfrwt>
<pdfrwt beam="2">  1       -2 0.24734732E+00 0.11065355E+04</pdfrwt>
<totfact> 0.25557189E+00</totfact>
</mgrwt>
</event>
<event>
 4    2  0.3388003E-007  0.7257950E+03  0.7818608E-02  0.9903444E-01
          2   -1    0    0  501    0  0.00000000000E+00  0.00000000000E+00  0.19725412411E+04  0.19725412411E+04  0.25500000000E-02 0. -1.
         -2   -1    0    0    0  501 -0.00000000000E+00 -0.00000000000E+00 -0.53758224949E+03  0.53758224949E+03  0.25500000000E-02 0.  1.
    8880023    1    1    2    0    0 -0.30327611619E+03  0.31492898501E+02 -0.26773051377E+03  0.77360069776E+03  0.65864270000E+03 0.  1.
    8880022    1    1    2    0    0  0.30327611619E+03 -0.31492898501E+02  0.17026895054E+04  0.17365227928E+04  0.15294330000E+03 0.  0.
<mgrwt>
<rscale>  0 0.60094661E+03</rscale>
<asrwt>0</asrwt>
<pdfrwt beam="1">  1        2 0.30346789E+00 0.72579502E+03</pdfrwt>
<pdfrwt beam="2">  1       -2 0.82704960E-01 0.72579502E+03</pdfrwt>
<totfact> 0.92170046E+00</totfact>
</mgrwt>
</event>
<event>
 4    2  0.3388003E-007  0.8340068E+03  0.7818608E-02  0.9641586E-01
         -2   -1    0    0    0  501 -0.00000000000E+00  0.00000000000E+00  0.76711053821E+03  0.76711053822E+03  0.25500000000E-02 0.  1.
          2   -1    0    0  501    0  0.00000000000E+00 -0.00000000000E+00 -0.11816933695E+04  0.11816933695E+04  0.25500000000E-02 0. -1.
    8880023    1    1    2    0    0 -0.10116022205E+03 -0.50152137357E+03  0.43858938604E+03  0.94229928074E+03  0.65864270000E+03 0.  1.
    8880022    1    1    2    0    0  0.10116022205E+03  0.50152137357E+03 -0.85317221730E+03  0.10065046269E+04  0.15294330000E+03 0.  0.
<mgrwt>
<rscale>  0 0.74603828E+03</rscale>
<asrwt>0</asrwt>
<pdfrwt beam="1">  1        2 0.18179898E+00 0.83400677E+03</pdfrwt>
<pdfrwt beam="2">  1       -2 0.11801701E+00 0.83400677E+03</pdfrwt>
<totfact> 0.10852345E+01</totfact>
</mgrwt>
</event>
<event>
 4    2  0.3388003E-007  0.6836222E+03  0.7818608E-02  0.1007345E+00
          2   -1    0    0  501    0  0.00000000000E+00  0.00000000000E+00  0.12925668970E+04  0.12925668971E+04  0.25500000000E-02 0. -1.
         -2   -1    0    0    0  501 -0.00000000000E+00 -0.00000000000E+00 -0.18005988858E+03  0.18005988860E+03  0.25500000000E-02 0.  1.
    8880023    1    1    2    0    0 -0.17963072394E+03  0.35523547811E+02  0.60937110607E+03  0.91579062597E+03  0.65864270000E+03 0.  1.
    8880022    1    1    2    0    0  0.17963072394E+03 -0.35523547811E+02  0.50313590240E+03  0.55683615968E+03  0.15294330000E+03 0.  0.
<mgrwt>
<rscale>  0 0.52543739E+03</rscale>
<asrwt>0</asrwt>
<pdfrwt beam="1">  1        2 0.19885644E+00 0.68362221E+03</pdfrwt>
<pdfrwt beam="2">  1       -2 0.27701522E-01 0.68362221E+03</pdfrwt>
<totfact> 0.20182052E+02</totfact>
</mgrwt>
</event>
<event>
 4    2  0.3388003E-007  0.7285599E+03  0.7818608E-02  0.9894620E-01
         -2   -1    0    0    0  501 -0.00000000000E+00  0.00000000000E+00  0.35826188750E+03  0.35826188751E+03  0.25500000000E-02 0.  1.
          2   -1    0    0  501    0  0.00000000000E+00 -0.00000000000E+00 -0.11476565244E+04  0.11476565244E+04  0.25500000000E-02 0. -1.
    8880023    1    1    2    0    0  0.23034710267E+03  0.20959369201E+03 -0.10165794075E+03  0.73561800319E+03  0.65864270000E+03 0.  0.
    8880022    1    1    2    0    0 -0.23034710267E+03 -0.20959369201E+03 -0.68773669610E+03  0.77030040869E+03  0.15294330000E+03 0.  0.
<mgrwt>
<rscale>  0 0.60522752E+03</rscale>
<asrwt>0</asrwt>
<pdfrwt beam="1">  1        2 0.17656254E+00 0.72855989E+03</pdfrwt>
<pdfrwt beam="2">  1       -2 0.55117214E-01 0.72855989E+03</pdfrwt>
<totfact> 0.64203237E+01</totfact>
</mgrwt>
</event>
<event>
 4    2  0.3388003E-007  0.7388191E+03  0.7818608E-02  0.9863400E-01
          2   -1    0    0  501    0  0.00000000000E+00  0.00000000000E+00  0.42484201927E+04  0.42484201927E+04  0.25500000000E-02 0. -1.
         -2   -1    0    0    0  501 -0.00000000000E+00 -0.00000000000E+00 -0.89546363020E+02  0.89546363056E+02  0.25500000000E-02 0.  1.
    8880023    1    1    2    0    0  0.31680550673E+03 -0.10806329698E+03  0.17269195875E+04  0.18783250180E+04  0.65864270000E+03 0.  0.
    8880022    1    1    2    0    0 -0.31680550673E+03  0.10806329698E+03  0.24319542421E+04  0.24596415377E+04  0.15294330000E+03 0.  0.
<mgrwt>
<rscale>  0 0.62068315E+03</rscale>
<asrwt>0</asrwt>
<pdfrwt beam="1">  1        2 0.65360300E+00 0.73881907E+03</pdfrwt>
<pdfrwt beam="2">  1       -2 0.13776366E-01 0.73881907E+03</pdfrwt>
<totfact> 0.95341902E+00</totfact>
</mgrwt>
</event>
<event>
 4    2  0.3388003E-007  0.8138225E+03  0.7818608E-02  0.9681669E-01
         -2   -1    0    0    0  501 -0.00000000000E+00  0.00000000000E+00  0.78508277406E+03  0.78508277406E+03  0.25500000000E-02 0.  1.
          2   -1    0    0  501    0  0.00000000000E+00 -0.00000000000E+00 -0.64878212425E+03  0.64878212425E+03  0.25500000000E-02 0. -1.
    8880023    1    1    2    0    0  0.41968491720E+03 -0.22882620041E+03  0.35314208330E+03  0.88713944618E+03  0.65864270000E+03 0. -1.
    8880022    1    1    2    0    0 -0.41968491720E+03  0.22882620041E+03 -0.21684143349E+03  0.54672545213E+03  0.15294330000E+03 0. -1.
<mgrwt>
<rscale>  0 0.72118771E+03</rscale>
<asrwt>0</asrwt>
<pdfrwt beam="1">  1        2 0.99812635E-01 0.81382250E+03</pdfrwt>
<pdfrwt beam="2">  1       -2 0.12078196E+00 0.81382250E+03</pdfrwt>
<totfact> 0.23732695E+01</totfact>
</mgrwt>
</event>
<event>
 4    2  0.3388003E-007  0.6725021E+03  0.7818608E-02  0.1013929E+00
          2   -1    0    0  501    0  0.00000000000E+00  0.00000000000E+00  0.63766170997E+03  0.63766170997E+03  0.25500000000E-02 0. -1.
         -2   -1    0    0    0  501 -0.00000000000E+00 -0.00000000000E+00 -0.32629634776E+03  0.32629634777E+03  0.25500000000E-02 0.  1.
    8880023    1    1    2    0    0  0.57999836266E+02 -0.12282037268E+03  0.11857932042E+03  0.68287633320E+03  0.65864270000E+03 0.  0.
    8880022    1    1    2    0    0 -0.57999836266E+02  0.12282037268E+03  0.19278604178E+03  0.28108172454E+03  0.15294330000E+03 0.  0.
<mgrwt>
<rscale>  0 0.49942445E+03</rscale>
<asrwt>0</asrwt>
<pdfrwt beam="1">  1        2 0.98101800E-01 0.67250207E+03</pdfrwt>
<pdfrwt beam="2">  1       -2 0.50199439E-01 0.67250207E+03</pdfrwt>
<totfact> 0.17523089E+02</totfact>
</mgrwt>
</event>
<event>
 4    2  0.3388003E-007  0.8300410E+03  0.7818608E-02  0.9649253E-01
         -2   -1    0    0    0  501 -0.00000000000E+00  0.00000000000E+00  0.38641865850E+03  0.38641865851E+03  0.25500000000E-02 0.  1.
          2   -1    0    0  501    0  0.00000000000E+00 -0.00000000000E+00 -0.20649327943E+04  0.20649327943E+04  0.25500000000E-02 0. -1.
    8880023    1    1    2    0    0  0.50148327555E+03 -0.60599556263E+02 -0.16210531679E+03  0.84572224865E+03  0.65864270000E+03 0.  0.
    8880022    1    1    2    0    0 -0.50148327555E+03  0.60599556263E+02 -0.15164088191E+04  0.16056292042E+04  0.15294330000E+03 0. -1.
<mgrwt>
<rscale>  0 0.74120344E+03</rscale>
<asrwt>0</asrwt>
<pdfrwt beam="1">  1        2 0.31768196E+00 0.83004096E+03</pdfrwt>
<pdfrwt beam="2">  1       -2 0.59449026E-01 0.83004096E+03</pdfrwt>
<totfact> 0.16635788E+01</totfact>
</mgrwt>
</event>
<event>
 4    2  0.3388003E-007  0.6967149E+03  0.7818608E-02  0.1001111E+00
         -2   -1    0    0    0  501 -0.00000000000E+00  0.00000000000E+00  0.39913720038E+03  0.39913720039E+03  0.25500000000E-02 0.  1.
          2   -1    0    0  501    0  0.00000000000E+00 -0.00000000000E+00 -0.64455802776E+03  0.64455802777E+03  0.25500000000E-02 0. -1.
    8880023    1    1    2    0    0  0.22560936732E+03  0.26491628398E+02 -0.33669199938E+02  0.69752793083E+03  0.65864270000E+03 0.  0.
    8880022    1    1    2    0    0 -0.22560936732E+03 -0.26491628398E+02 -0.21175162744E+03  0.34616729733E+03  0.15294330000E+03 0.  0.
<mgrwt>
<rscale>  0 0.55165674E+03</rscale>
<asrwt>0</asrwt>
<pdfrwt beam="1">  1        2 0.99162773E-01 0.69671486E+03</pdfrwt>
<pdfrwt beam="2">  1       -2 0.61405723E-01 0.69671486E+03</pdfrwt>
<totfact> 0.11365286E+02</totfact>
</mgrwt>
</event>
<event>
 4    2  0.3388003E-007  0.8969041E+03  0.7818608E-02  0.9531020E-01
         -2   -1    0    0    0  501 -0.00000000000E+00  0.00000000000E+00  0.12648362082E+04  0.12648362082E+04  0.25500000000E-02 0.  1.
          2   -1    0    0  501    0  0.00000000000E+00 -0.00000000000E+00 -0.84936881299E+03  0.84936881299E+03  0.25500000000E-02 0. -1.
    8880023    1    1    2    0    0  0.33675183640E+03 -0.50717348917E+03  0.93775770024E+03  0.12976233884E+04  0.65864270000E+03 0.  1.
    8880022    1    1    2    0    0 -0.33675183640E+03  0.50717348917E+03 -0.52229030499E+03  0.81658163286E+03  0.15294330000E+03 0.  0.
<mgrwt>
<rscale>  0 0.82034978E+03</rscale>
<asrwt>0</asrwt>
<pdfrwt beam="1">  1        2 0.13067213E+00 0.89690409E+03</pdfrwt>
<pdfrwt beam="2">  1       -2 0.19459019E+00 0.89690409E+03</pdfrwt>
<totfact> 0.46033654E+00</totfact>
</mgrwt>
</event>
<event>
 4    2  0.3388003E-007  0.6794899E+03  0.7818608E-02  0.1009614E+00
          2   -1    0    0  501    0  0.00000000000E+00  0.00000000000E+00  0.93340101774E+03  0.93340101774E+03  0.25500000000E-02 0. -1.
         -2   -1    0    0    0  501 -0.00000000000E+00 -0.00000000000E+00 -0.34215461344E+03  0.34215461345E+03  0.25500000000E-02 0.  1.
    8880023    1    1    2    0    0 -0.56380167380E+02 -0.15721848692E+03  0.41230042210E+02  0.68073967017E+03  0.65864270000E+03 0.  1.
    8880022    1    1    2    0    0  0.56380167380E+02  0.15721848692E+03  0.55001636209E+03  0.59481596102E+03  0.15294330000E+03 0.  0.
<mgrwt>
<rscale>  0 0.51628472E+03</rscale>
<asrwt>0</asrwt>
<pdfrwt beam="1">  1        2 0.14360016E+00 0.67948994E+03</pdfrwt>
<pdfrwt beam="2">  1       -2 0.52639171E-01 0.67948994E+03</pdfrwt>
<totfact> 0.96578929E+01</totfact>
</mgrwt>
</event>
<event>
 4    2  0.3388003E-007  0.6702238E+03  0.7818608E-02  0.1015503E+00
         -2   -1    0    0    0  501 -0.00000000000E+00  0.00000000000E+00  0.39145479443E+03  0.39145479444E+03  0.25500000000E-02 0.  1.
          2   -1    0    0  501    0  0.00000000000E+00 -0.00000000000E+00 -0.18475466981E+04  0.18475466981E+04  0.25500000000E-02 0. -1.
    8880023    1    1    2    0    0  0.69434760916E+02  0.10280320084E+03  0.93705321349E+02  0.67674262289E+03  0.65864270000E+03 0.  1.
    8880022    1    1    2    0    0 -0.69434760916E+02 -0.10280320084E+03 -0.15497972250E+04  0.15622588697E+04  0.15294330000E+03 0.  0.
<mgrwt>
<rscale>  0 0.49344950E+03</rscale>
<asrwt>0</asrwt>
<pdfrwt beam="1">  1        2 0.28423795E+00 0.67022376E+03</pdfrwt>
<pdfrwt beam="2">  1       -2 0.60223816E-01 0.67022376E+03</pdfrwt>
<totfact> 0.21745026E+01</totfact>
</mgrwt>
</event>
<event>
 4    2  0.3388003E-007  0.8678512E+03  0.7818608E-02  0.9579747E-01
         -2   -1    0    0    0  501 -0.00000000000E+00  0.00000000000E+00  0.98184635663E+03  0.98184635663E+03  0.25500000000E-02 0.  1.
          2   -1    0    0  501    0  0.00000000000E+00 -0.00000000000E+00 -0.15527731219E+04  0.15527731219E+04  0.25500000000E-02 0. -1.
    8880023    1    1    2    0    0  0.51444790787E+03 -0.23387777398E+03  0.71321665495E+03  0.11233181501E+04  0.65864270000E+03 0.  1.
    8880022    1    1    2    0    0 -0.51444790787E+03  0.23387777398E+03 -0.12841434202E+04  0.14113013284E+04  0.15294330000E+03 0.  0.
<mgrwt>
<rscale>  0 0.78651257E+03</rscale>
<asrwt>0</asrwt>
<pdfrwt beam="1">  1        2 0.23888817E+00 0.86785118E+03</pdfrwt>
<pdfrwt beam="2">  1       -2 0.15105328E+00 0.86785118E+03</pdfrwt>
<totfact> 0.35206025E+00</totfact>
</mgrwt>
</event>
<event>
 4    2  0.3388003E-007  0.6593473E+03  0.7818608E-02  0.1024835E+00
          2   -1    0    0  501    0  0.00000000000E+00  0.00000000000E+00  0.67825431340E+03  0.67825431341E+03  0.25500000000E-02 0. -1.
         -2   -1    0    0    0  501 -0.00000000000E+00 -0.00000000000E+00 -0.43189383261E+03  0.43189383262E+03  0.25500000000E-02 0.  1.
    8880023    1    1    2    0    0  0.22133880731E+02 -0.20947487817E+02 -0.15692132739E+03  0.67776339173E+03  0.65864270000E+03 0.  1.
    8880022    1    1    2    0    0 -0.22133880731E+02  0.20947487817E+02  0.40328180818E+03  0.43238475429E+03  0.15294330000E+03 0.  0.
<mgrwt>
<rscale>  0 0.45981374E+03</rscale>
<asrwt>0</asrwt>
<pdfrwt beam="1">  1        2 0.10434682E+00 0.65934734E+03</pdfrwt>
<pdfrwt beam="2">  1       -2 0.66445205E-01 0.65934734E+03</pdfrwt>
<totfact> 0.90382034E+01</totfact>
</mgrwt>
</event>
<event>
 4    2  0.3388003E-007  0.7766954E+03  0.7818608E-02  0.9763658E-01
          2   -1    0    0  501    0  0.00000000000E+00  0.00000000000E+00  0.19412845811E+04  0.19412845811E+04  0.25500000000E-02 0. -1.
         -2   -1    0    0    0  501 -0.00000000000E+00 -0.00000000000E+00 -0.23931360575E+03  0.23931360576E+03  0.25500000000E-02 0.  1.
    8880023    1    1    2    0    0 -0.37763005711E+03 -0.16383255520E+03  0.56120842882E+03  0.95823309952E+03  0.65864270000E+03 0.  0.
    8880022    1    1    2    0    0  0.37763005711E+03  0.16383255520E+03  0.11407625465E+04  0.12223650873E+04  0.15294330000E+03 0.  0.
<mgrwt>
<rscale>  0 0.67349894E+03</rscale>
<asrwt>0</asrwt>
<pdfrwt beam="1">  1        2 0.29865917E+00 0.77669542E+03</pdfrwt>
<pdfrwt beam="2">  1       -2 0.36817477E-01 0.77669542E+03</pdfrwt>
<totfact> 0.51335470E+01</totfact>
</mgrwt>
</event>
<event>
 4    2  0.3388003E-007  0.1003507E+04  0.7818608E-02  0.9376984E-01
          2   -1    0    0  501    0  0.00000000000E+00  0.00000000000E+00  0.56301951474E+03  0.56301951474E+03  0.25500000000E-02 0. -1.
         -2   -1    0    0    0  501 -0.00000000000E+00 -0.00000000000E+00 -0.15406880808E+04  0.15406880808E+04  0.25500000000E-02 0.  1.
    8880023    1    1    2    0    0  0.74513482657E+03 -0.13412745348E+03 -0.86158015487E+03  0.13226286906E+04  0.65864270000E+03 0. -1.
    8880022    1    1    2    0    0 -0.74513482657E+03  0.13412745348E+03 -0.11608841116E+03  0.78107890496E+03  0.15294330000E+03 0.  0.
<mgrwt>
<rscale>  0 0.93994277E+03</rscale>
<asrwt>0</asrwt>
<pdfrwt beam="1">  1        2 0.86618388E-01 0.10035070E+04</pdfrwt>
<pdfrwt beam="2">  1       -2 0.23702893E+00 0.10035070E+04</pdfrwt>
<totfact> 0.41276567E+00</totfact>
</mgrwt>
</event>
<event>
 4    2  0.3388003E-007  0.7130047E+03  0.7818608E-02  0.9947008E-01
         -2   -1    0    0    0  501 -0.00000000000E+00  0.00000000000E+00  0.21513261464E+03  0.21513261466E+03  0.25500000000E-02 0.  1.
          2   -1    0    0  501    0  0.00000000000E+00 -0.00000000000E+00 -0.12676842538E+04  0.12676842538E+04  0.25500000000E-02 0. -1.
    8880023    1    1    2    0    0 -0.18202225938E+03  0.20355178443E+03 -0.59605653278E+03  0.92933257147E+03  0.65864270000E+03 0. -1.
    8880022    1    1    2    0    0  0.18202225938E+03 -0.20355178443E+03 -0.45649510636E+03  0.55348429698E+03  0.15294330000E+03 0.  1.
<mgrwt>
<rscale>  0 0.58036172E+03</rscale>
<asrwt>0</asrwt>
<pdfrwt beam="1">  1        2 0.19502834E+00 0.71300466E+03</pdfrwt>
<pdfrwt beam="2">  1       -2 0.33097326E-01 0.71300466E+03</pdfrwt>
<totfact> 0.14956597E+02</totfact>
</mgrwt>
</event>
<event>
 4    2  0.3388003E-007  0.6723350E+03  0.7818608E-02  0.1014041E+00
         -2   -1    0    0    0  501 -0.00000000000E+00  0.00000000000E+00  0.68333777225E+03  0.68333777225E+03  0.25500000000E-02 0.  1.
          2   -1    0    0  501    0  0.00000000000E+00 -0.00000000000E+00 -0.68287694783E+03  0.68287694783E+03  0.25500000000E-02 0. -1.
    8880023    1    1    2    0    0 -0.13469235947E+03 -0.90590099105E+01  0.49259347299E+03  0.83347623437E+03  0.65864270000E+03 0.  1.
    8880022    1    1    2    0    0  0.13469235947E+03  0.90590099105E+01 -0.49213264857E+03  0.53273848572E+03  0.15294330000E+03 0.  0.
<mgrwt>
<rscale>  0 0.49899534E+03</rscale>
<asrwt>0</asrwt>
<pdfrwt beam="1">  1        2 0.10505799E+00 0.67233496E+03</pdfrwt>
<pdfrwt beam="2">  1       -2 0.10512889E+00 0.67233496E+03</pdfrwt>
<totfact> 0.31611112E+01</totfact>
</mgrwt>
</event>
<event>
 4    2  0.3388003E-007  0.7776294E+03  0.7818608E-02  0.9761435E-01
         -2   -1    0    0    0  501 -0.00000000000E+00  0.00000000000E+00  0.18389968225E+03  0.18389968227E+03  0.25500000000E-02 0.  1.
          2   -1    0    0  501    0  0.00000000000E+00 -0.00000000000E+00 -0.28700753547E+04  0.28700753547E+04  0.25500000000E-02 0. -1.
    8880023    1    1    2    0    0  0.16392352054E+03  0.37950796225E+03 -0.79489690714E+03  0.11120110221E+04  0.65864270000E+03 0.  0.
    8880022    1    1    2    0    0 -0.16392352054E+03 -0.37950796225E+03 -0.18912787653E+04  0.19419640149E+04  0.15294330000E+03 0.  0.
<mgrwt>
<rscale>  0 0.67473848E+03</rscale>
<asrwt>0</asrwt>
<pdfrwt beam="1">  1        2 0.44155002E+00 0.77762936E+03</pdfrwt>
<pdfrwt beam="2">  1       -2 0.28292261E-01 0.77762936E+03</pdfrwt>
<totfact> 0.25148932E+01</totfact>
</mgrwt>
</event>
<event>
 4    2  0.3388003E-007  0.7776119E+03  0.7818608E-02  0.9761477E-01
          2   -1    0    0  501    0  0.00000000000E+00  0.00000000000E+00  0.14719153711E+04  0.14719153711E+04  0.25500000000E-02 0. -1.
         -2   -1    0    0    0  501 -0.00000000000E+00 -0.00000000000E+00 -0.68694437946E+03  0.68694437947E+03  0.25500000000E-02 0.  1.
    8880023    1    1    2    0    0  0.40781979598E+03  0.67475986193E+02 -0.41434876741E+03  0.88111582781E+03  0.65864270000E+03 0.  0.
    8880022    1    1    2    0    0 -0.40781979598E+03 -0.67475986193E+02  0.11993197591E+04  0.12777439228E+04  0.15294330000E+03 0.  0.
<mgrwt>
<rscale>  0 0.67471527E+03</rscale>
<asrwt>0</asrwt>
<pdfrwt beam="1">  1        2 0.22644852E+00 0.77761186E+03</pdfrwt>
<pdfrwt beam="2">  1       -2 0.10568375E+00 0.77761186E+03</pdfrwt>
<totfact> 0.97241058E+00</totfact>
</mgrwt>
</event>
<event>
 4    2  0.3388003E-007  0.7579899E+03  0.7818608E-02  0.9810340E-01
          2   -1    0    0  501    0  0.00000000000E+00  0.00000000000E+00  0.33944181041E+04  0.33944181041E+04  0.25500000000E-02 0. -1.
         -2   -1    0    0    0  501 -0.00000000000E+00 -0.00000000000E+00 -0.10423209714E+03  0.10423209717E+03  0.25500000000E-02 0.  1.
    8880023    1    1    2    0    0  0.34574618024E+03 -0.14559532590E+03  0.17714287454E+04  0.19267870734E+04  0.65864270000E+03 0. -1.
    8880022    1    1    2    0    0 -0.34574618024E+03  0.14559532590E+03  0.15187572616E+04  0.15718631279E+04  0.15294330000E+03 0.  1.
<mgrwt>
<rscale>  0 0.64810604E+03</rscale>
<asrwt>0</asrwt>
<pdfrwt beam="1">  1        2 0.52221814E+00 0.75798986E+03</pdfrwt>
<pdfrwt beam="2">  1       -2 0.16035708E-01 0.75798986E+03</pdfrwt>
<totfact> 0.32186531E+01</totfact>
</mgrwt>
</event>
<event>
 4    2  0.3388003E-007  0.6817074E+03  0.7818608E-02  0.1008374E+00
         -2   -1    0    0    0  501 -0.00000000000E+00  0.00000000000E+00  0.21913843385E+03  0.21913843386E+03  0.25500000000E-02 0.  1.
          2   -1    0    0  501    0  0.00000000000E+00 -0.00000000000E+00 -0.24460190995E+04  0.24460190995E+04  0.25500000000E-02 0. -1.
    8880023    1    1    2    0    0 -0.38304559485E+01 -0.17578418761E+03 -0.33607792499E+03  0.76004824250E+03  0.65864270000E+03 0.  1.
    8880022    1    1    2    0    0  0.38304559485E+01  0.17578418761E+03 -0.18908027406E+04  0.19051092908E+04  0.15294330000E+03 0.  0.
<mgrwt>
<rscale>  0 0.52126058E+03</rscale>
<asrwt>0</asrwt>
<pdfrwt beam="1">  1        2 0.37631061E+00 0.68170739E+03</pdfrwt>
<pdfrwt beam="2">  1       -2 0.33713607E-01 0.68170739E+03</pdfrwt>
<totfact> 0.32390785E+01</totfact>
</mgrwt>
</event>
<event>
 4    2  0.3388003E-007  0.6960264E+03  0.7818608E-02  0.1001410E+00
          2   -1    0    0  501    0  0.00000000000E+00  0.00000000000E+00  0.12223301867E+04  0.12223301867E+04  0.25500000000E-02 0. -1.
         -2   -1    0    0    0  501 -0.00000000000E+00 -0.00000000000E+00 -0.19336763920E+03  0.19336763921E+03  0.25500000000E-02 0.  1.
    8880023    1    1    2    0    0 -0.15720828533E+03 -0.16102193987E+03  0.79708454517E+03  0.10582043699E+04  0.65864270000E+03 0.  0.
    8880022    1    1    2    0    0  0.15720828533E+03  0.16102193987E+03  0.23187800230E+03  0.35749345597E+03  0.15294330000E+03 0. -1.
<mgrwt>
<rscale>  0 0.55036182E+03</rscale>
<asrwt>0</asrwt>
<pdfrwt beam="1">  1        2 0.18805079E+00 0.69602638E+03</pdfrwt>
<pdfrwt beam="2">  1       -2 0.29748868E-01 0.69602638E+03</pdfrwt>
<totfact> 0.19425631E+02</totfact>
</mgrwt>
</event>
<event>
 4    2  0.3388003E-007  0.6788438E+03  0.7818608E-02  0.1009985E+00
         -2   -1    0    0    0  501 -0.00000000000E+00  0.00000000000E+00  0.63077762250E+03  0.63077762250E+03  0.25500000000E-02 0.  1.
          2   -1    0    0  501    0  0.00000000000E+00 -0.00000000000E+00 -0.45494853256E+03  0.45494853257E+03  0.25500000000E-02 0. -1.
    8880023    1    1    2    0    0  0.57332653365E+01 -0.16427343346E+03  0.38367678718E+03  0.77976708994E+03  0.65864270000E+03 0.  1.
    8880022    1    1    2    0    0 -0.57332653365E+01  0.16427343346E+03 -0.20784769724E+03  0.30595906513E+03  0.15294330000E+03 0.  0.
<mgrwt>
<rscale>  0 0.51480441E+03</rscale>
<asrwt>0</asrwt>
<pdfrwt beam="1">  1        2 0.69992082E-01 0.67884375E+03</pdfrwt>
<pdfrwt beam="2">  1       -2 0.97042710E-01 0.67884375E+03</pdfrwt>
<totfact> 0.61863115E+01</totfact>
</mgrwt>
</event>
<event>
 4    2  0.3388003E-007  0.7157026E+03  0.7818608E-02  0.9937405E-01
          2   -1    0    0  501    0  0.00000000000E+00  0.00000000000E+00  0.18424583260E+04  0.18424583260E+04  0.25500000000E-02 0. -1.
         -2   -1    0    0    0  501 -0.00000000000E+00 -0.00000000000E+00 -0.45138926230E+03  0.45138926230E+03  0.25500000000E-02 0.  1.
    8880023    1    1    2    0    0 -0.27311748229E+03  0.61860971183E+02 -0.14052635546E+03  0.72936808384E+03  0.65864270000E+03 0.  1.
    8880022    1    1    2    0    0  0.27311748229E+03 -0.61860971183E+02  0.15315954192E+04  0.15644795045E+04  0.15294330000E+03 0.  0.
<mgrwt>
<rscale>  0 0.58482251E+03</rscale>
<asrwt>0</asrwt>
<pdfrwt beam="1">  1        2 0.28345512E+00 0.71570255E+03</pdfrwt>
<pdfrwt beam="2">  1       -2 0.69444503E-01 0.71570255E+03</pdfrwt>
<totfact> 0.16017464E+01</totfact>
</mgrwt>
</event>
<event>
 4    2  0.3388003E-007  0.6900347E+03  0.7818608E-02  0.1004136E+00
          2   -1    0    0  501    0  0.00000000000E+00  0.00000000000E+00  0.35050730941E+03  0.35050730942E+03  0.25500000000E-02 0. -1.
         -2   -1    0    0    0  501 -0.00000000000E+00 -0.00000000000E+00 -0.14365475050E+04  0.14365475050E+04  0.25500000000E-02 0.  1.
    8880023    1    1    2    0    0  0.86747576621E+02  0.18658135151E+03 -0.12876598277E+04  0.14608955407E+04  0.65864270000E+03 0.  1.
    8880022    1    1    2    0    0 -0.86747576621E+02 -0.18658135151E+03  0.20161963208E+03  0.32615927372E+03  0.15294330000E+03 0.  0.
<mgrwt>
<rscale>  0 0.53873250E+03</rscale>
<asrwt>0</asrwt>
<pdfrwt beam="1">  1        2 0.53924202E-01 0.69003474E+03</pdfrwt>
<pdfrwt beam="2">  1       -2 0.22100731E+00 0.69003474E+03</pdfrwt>
<totfact> 0.92419196E+00</totfact>
</mgrwt>
</event>
<event>
 4    2  0.3388003E-007  0.1070978E+04  0.7818608E-02  0.9294078E-01
         -2   -1    0    0    0  501 -0.00000000000E+00  0.00000000000E+00  0.14127229263E+04  0.14127229263E+04  0.25500000000E-02 0.  1.
          2   -1    0    0  501    0  0.00000000000E+00 -0.00000000000E+00 -0.12733052983E+04  0.12733052983E+04  0.25500000000E-02 0. -1.
    8880023    1    1    2    0    0 -0.84285394013E+03  0.52724360462E+02  0.10038610918E+04  0.14678998332E+04  0.65864270000E+03 0.  1.
    8880022    1    1    2    0    0  0.84285394013E+03 -0.52724360462E+02 -0.86444346377E+03  0.12181283913E+04  0.15294330000E+03 0.  0.
<mgrwt>
<rscale>  0 0.10132983E+04</rscale>
<asrwt>0</asrwt>
<pdfrwt beam="1">  1        2 0.19589312E+00 0.10709775E+04</pdfrwt>
<pdfrwt beam="2">  1       -2 0.21734199E+00 0.10709775E+04</pdfrwt>
<totfact> 0.17345461E+00</totfact>
</mgrwt>
</event>
<event>
 4    2  0.3388003E-007  0.1264811E+04  0.7818608E-02  0.9096560E-01
          2   -1    0    0  501    0  0.00000000000E+00  0.00000000000E+00  0.14659246516E+04  0.14659246516E+04  0.25500000000E-02 0. -1.
         -2   -1    0    0    0  501 -0.00000000000E+00 -0.00000000000E+00 -0.11308412951E+04  0.11308412951E+04  0.25500000000E-02 0.  1.
    8880023    1    1    2    0    0  0.73214325776E+03 -0.79366413760E+03 -0.34563923521E+03  0.13111877060E+04  0.65864270000E+03 0.  0.
    8880022    1    1    2    0    0 -0.73214325776E+03  0.79366413760E+03  0.68072259167E+03  0.12855782407E+04  0.15294330000E+03 0.  0.
<mgrwt>
<rscale>  0 0.12187985E+04</rscale>
<asrwt>0</asrwt>
<pdfrwt beam="1">  1        2 0.22552687E+00 0.12648109E+04</pdfrwt>
<pdfrwt beam="2">  1       -2 0.17397558E+00 0.12648109E+04</pdfrwt>
<totfact> 0.25568510E+00</totfact>
</mgrwt>
</event>
<event>
 4    2  0.3388003E-007  0.9319676E+03  0.7818608E-02  0.9476548E-01
          2   -1    0    0  501    0  0.00000000000E+00  0.00000000000E+00  0.20945819058E+04  0.20945819058E+04  0.25500000000E-02 0. -1.
         -2   -1    0    0    0  501 -0.00000000000E+00 -0.00000000000E+00 -0.33304033797E+03  0.33304033798E+03  0.25500000000E-02 0.  1.
    8880023    1    1    2    0    0 -0.26749388974E+01 -0.65935293577E+03  0.68757850161E+03  0.11581570927E+04  0.65864270000E+03 0.  1.
    8880022    1    1    2    0    0  0.26749388974E+01  0.65935293577E+03  0.10739630662E+04  0.12694651511E+04  0.15294330000E+03 0.  0.
<mgrwt>
<rscale>  0 0.86035166E+03</rscale>
<asrwt>0</asrwt>
<pdfrwt beam="1">  1        2 0.32224336E+00 0.93196763E+03</pdfrwt>
<pdfrwt beam="2">  1       -2 0.51236976E-01 0.93196763E+03</pdfrwt>
<totfact> 0.21568053E+01</totfact>
</mgrwt>
</event>
<event>
 4    2  0.3388003E-007  0.8082819E+03  0.7818608E-02  0.9693167E-01
          2   -1    0    0  501    0  0.00000000000E+00  0.00000000000E+00  0.13430642764E+04  0.13430642764E+04  0.25500000000E-02 0. -1.
         -2   -1    0    0    0  501 -0.00000000000E+00 -0.00000000000E+00 -0.84975710637E+03  0.84975710637E+03  0.25500000000E-02 0.  1.
    8880023    1    1    2    0    0  0.80407170128E+02 -0.46156709580E+03 -0.59130797334E+03  0.10014813141E+04  0.65864270000E+03 0.  0.
    8880022    1    1    2    0    0 -0.80407170128E+02  0.46156709580E+03  0.10846151434E+04  0.11913400687E+04  0.15294330000E+03 0.  0.
<mgrwt>
<rscale>  0 0.71425100E+03</rscale>
<asrwt>0</asrwt>
<pdfrwt beam="1">  1        2 0.20662527E+00 0.80828195E+03</pdfrwt>
<pdfrwt beam="2">  1       -2 0.13073186E+00 0.80828195E+03</pdfrwt>
<totfact> 0.67795819E+00</totfact>
</mgrwt>
</event>
<event>
 4    2  0.3388003E-007  0.8197414E+03  0.7818608E-02  0.9669632E-01
          2   -1    0    0  501    0  0.00000000000E+00  0.00000000000E+00  0.58368707474E+03  0.58368707474E+03  0.25500000000E-02 0. -1.
         -2   -1    0    0    0  501 -0.00000000000E+00 -0.00000000000E+00 -0.16568992557E+04  0.16568992557E+04  0.25500000000E-02 0.  1.
    8880023    1    1    2    0    0  0.38591439639E+03  0.29872379004E+03 -0.14080565252E+04  0.16292940829E+04  0.65864270000E+03 0.  1.
    8880022    1    1    2    0    0 -0.38591439639E+03 -0.29872379004E+03  0.33484434422E+03  0.61129224758E+03  0.15294330000E+03 0.  0.
<mgrwt>
<rscale>  0 0.72854027E+03</rscale>
<asrwt>0</asrwt>
<pdfrwt beam="1">  1        2 0.89798012E-01 0.81974144E+03</pdfrwt>
<pdfrwt beam="2">  1       -2 0.25490758E+00 0.81974144E+03</pdfrwt>
<totfact> 0.31390892E+00</totfact>
</mgrwt>
</event>
<event>
 4    2  0.3388003E-007  0.7880607E+03  0.7818608E-02  0.9737232E-01
          2   -1    0    0  501    0  0.00000000000E+00  0.00000000000E+00  0.45517340660E+03  0.45517340661E+03  0.25500000000E-02 0. -1.
         -2   -1    0    0    0  501 -0.00000000000E+00 -0.00000000000E+00 -0.10633052454E+04  0.10633052454E+04  0.25500000000E-02 0.  1.
    8880023    1    1    2    0    0 -0.31540286930E+03  0.29622703241E+03 -0.69576635326E+03  0.10512518486E+04  0.65864270000E+03 0.  0.
    8880022    1    1    2    0    0  0.31540286930E+03 -0.29622703241E+03  0.87634514424E+02  0.46722680341E+03  0.15294330000E+03 0.  0.
<mgrwt>
<rscale>  0 0.68842633E+03</rscale>
<asrwt>0</asrwt>
<pdfrwt beam="1">  1        2 0.70026678E-01 0.78806068E+03</pdfrwt>
<pdfrwt beam="2">  1       -2 0.16358542E+00 0.78806068E+03</pdfrwt>
<totfact> 0.16453060E+01</totfact>
</mgrwt>
</event>
<event>
 4    2  0.3388003E-007  0.7343887E+03  0.7818608E-02  0.9876605E-01
          2   -1    0    0  501    0  0.00000000000E+00  0.00000000000E+00  0.35911274187E+04  0.35911274187E+04  0.25500000000E-02 0. -1.
         -2   -1    0    0    0  501 -0.00000000000E+00 -0.00000000000E+00 -0.10914542454E+03  0.10914542457E+03  0.25500000000E-02 0.  1.
    8880023    1    1    2    0    0 -0.24161474208E+03 -0.21711478115E+03  0.13366987984E+04  0.15251525811E+04  0.65864270000E+03 0.  1.
    8880022    1    1    2    0    0  0.24161474208E+03  0.21711478115E+03  0.21452831958E+04  0.21751202622E+04  0.15294330000E+03 0.  0.
<mgrwt>
<rscale>  0 0.61408647E+03</rscale>
<asrwt>0</asrwt>
<pdfrwt beam="1">  1        2 0.55248105E+00 0.73438867E+03</pdfrwt>
<pdfrwt beam="2">  1       -2 0.16791607E-01 0.73438867E+03</pdfrwt>
<totfact> 0.21939962E+01</totfact>
</mgrwt>
</event>
<event>
 4    2  0.3388003E-007  0.7049860E+03  0.7818608E-02  0.9977114E-01
         -2   -1    0    0    0  501 -0.00000000000E+00  0.00000000000E+00  0.61132018609E+02  0.61132018662E+02  0.25500000000E-02 0.  1.
          2   -1    0    0  501    0  0.00000000000E+00 -0.00000000000E+00 -0.52001820501E+04  0.52001820501E+04  0.25500000000E-02 0. -1.
    8880023    1    1    2    0    0  0.24256956531E+03 -0.65992811000E+02 -0.22634655493E+04  0.23707132986E+04  0.65864270000E+03 0.  1.
    8880022    1    1    2    0    0 -0.24256956531E+03  0.65992811000E+02 -0.28755844822E+04  0.28906007702E+04  0.15294330000E+03 0.  0.
<mgrwt>
<rscale>  0 0.56665244E+03</rscale>
<asrwt>0</asrwt>
<pdfrwt beam="1">  1        2 0.80002766E+00 0.70498599E+03</pdfrwt>
<pdfrwt beam="2">  1       -2 0.94049301E-02 0.70498599E+03</pdfrwt>
<totfact> 0.16865302E+00</totfact>
</mgrwt>
</event>
<event>
 4    2  0.3388003E-007  0.7404967E+03  0.7818608E-02  0.9858503E-01
         -2   -1    0    0    0  501 -0.00000000000E+00  0.00000000000E+00  0.91080045639E+03  0.91080045640E+03  0.25500000000E-02 0.  1.
          2   -1    0    0  501    0  0.00000000000E+00 -0.00000000000E+00 -0.68186175428E+03  0.68186175428E+03  0.25500000000E-02 0. -1.
    8880023    1    1    2    0    0  0.13515525005E+03 -0.31025502585E+03  0.68209528301E+03  0.10067717239E+04  0.65864270000E+03 0.  0.
    8880022    1    1    2    0    0 -0.13515525005E+03  0.31025502585E+03 -0.45315658089E+03  0.58589048678E+03  0.15294330000E+03 0.  0.
<mgrwt>
<rscale>  0 0.62315269E+03</rscale>
<asrwt>0</asrwt>
<pdfrwt beam="1">  1        2 0.10490181E+00 0.74049668E+03</pdfrwt>
<pdfrwt beam="2">  1       -2 0.14012315E+00 0.74049668E+03</pdfrwt>
<totfact> 0.15411345E+01</totfact>
</mgrwt>
</event>
<event>
 4    2  0.3388003E-007  0.6779442E+03  0.7818608E-02  0.1010511E+00
         -2   -1    0    0    0  501 -0.00000000000E+00  0.00000000000E+00  0.21812959632E+03  0.21812959633E+03  0.25500000000E-02 0.  1.
          2   -1    0    0  501    0  0.00000000000E+00 -0.00000000000E+00 -0.11156733353E+04  0.11156733353E+04  0.25500000000E-02 0. -1.
    8880023    1    1    2    0    0 -0.42541698964E+02  0.15488165824E+03 -0.39531310532E+03  0.78478072206E+03  0.65864270000E+03 0.  0.
    8880022    1    1    2    0    0  0.42541698964E+02 -0.15488165824E+03 -0.50223063366E+03  0.54902220958E+03  0.15294330000E+03 0.  0.
<mgrwt>
<rscale>  0 0.51271948E+03</rscale>
<asrwt>0</asrwt>
<pdfrwt beam="1">  1        2 0.17164205E+00 0.67794419E+03</pdfrwt>
<pdfrwt beam="2">  1       -2 0.33558400E-01 0.67794419E+03</pdfrwt>
<totfact> 0.17975486E+02</totfact>
</mgrwt>
</event>
<event>
 4    2  0.3388003E-007  0.6650961E+03  0.7818608E-02  0.1019453E+00
          2   -1    0    0  501    0  0.00000000000E+00  0.00000000000E+00  0.17053224823E+04  0.17053224823E+04  0.25500000000E-02 0. -1.
         -2   -1    0    0    0  501 -0.00000000000E+00 -0.00000000000E+00 -0.10491213596E+03  0.10491213599E+03  0.25500000000E-02 0.  1.
    8880023    1    1    2    0    0  0.17227790730E+02  0.90806137422E+02  0.12062955988E+04  0.13774983954E+04  0.65864270000E+03 0.  0.
    8880022    1    1    2    0    0 -0.17227790730E+02 -0.90806137422E+02  0.39411474754E+03  0.43273622290E+03  0.15294330000E+03 0. -1.
<mgrwt>
<rscale>  0 0.47884537E+03</rscale>
<asrwt>0</asrwt>
<pdfrwt beam="1">  1        2 0.26235728E+00 0.66509605E+03</pdfrwt>
<pdfrwt beam="2">  1       -2 0.16140330E-01 0.66509605E+03</pdfrwt>
<totfact> 0.30833672E+02</totfact>
</mgrwt>
</event>
<event>
 4    2  0.3388003E-007  0.1196693E+04  0.7818608E-02  0.9160344E-01
          2   -1    0    0  501    0  0.00000000000E+00  0.00000000000E+00  0.25194926412E+04  0.25194926412E+04  0.25500000000E-02 0. -1.
         -2   -1    0    0    0  501 -0.00000000000E+00 -0.00000000000E+00 -0.59795288814E+03  0.59795288815E+03  0.25500000000E-02 0.  1.
    8880023    1    1    2    0    0  0.92681243136E+03  0.37320432991E+03  0.17061341225E+04  0.20839785519E+04  0.65864270000E+03 0.  0.
    8880022    1    1    2    0    0 -0.92681243136E+03 -0.37320432991E+03  0.21540563062E+03  0.10334669775E+04  0.15294330000E+03 0.  0.
<mgrwt>
<rscale>  0 0.11472285E+04</rscale>
<asrwt>0</asrwt>
<pdfrwt beam="1">  1        2 0.38761425E+00 0.11966925E+04</pdfrwt>
<pdfrwt beam="2">  1       -2 0.91992752E-01 0.11966925E+04</pdfrwt>
<totfact> 0.33562907E+00</totfact>
</mgrwt>
</event>
<event>
 4    2  0.3388003E-007  0.7270380E+03  0.7818608E-02  0.9899453E-01
          2   -1    0    0  501    0  0.00000000000E+00  0.00000000000E+00  0.76459993260E+03  0.76459993260E+03  0.25500000000E-02 0. -1.
         -2   -1    0    0    0  501 -0.00000000000E+00 -0.00000000000E+00 -0.18847806276E+04  0.18847806276E+04  0.25500000000E-02 0.  1.
    8880023    1    1    2    0    0 -0.20960594452E+03  0.22547604771E+03 -0.17704090500E+04  0.19138789174E+04  0.65864270000E+03 0.  0.
    8880022    1    1    2    0    0  0.20960594452E+03 -0.22547604771E+03  0.65022835492E+03  0.73550164284E+03  0.15294330000E+03 0. -1.
<mgrwt>
<rscale>  0 0.60287781E+03</rscale>
<asrwt>0</asrwt>
<pdfrwt beam="1">  1        2 0.11763076E+00 0.72703804E+03</pdfrwt>
<pdfrwt beam="2">  1       -2 0.28996625E+00 0.72703804E+03</pdfrwt>
<totfact> 0.13993668E+00</totfact>
</mgrwt>
</event>
<event>
 4    2  0.3388003E-007  0.8288197E+03  0.7818608E-02  0.9651633E-01
          2   -1    0    0  501    0  0.00000000000E+00  0.00000000000E+00  0.15765225144E+04  0.15765225144E+04  0.25500000000E-02 0. -1.
         -2   -1    0    0    0  501 -0.00000000000E+00 -0.00000000000E+00 -0.36892702154E+03  0.36892702155E+03  0.25500000000E-02 0.  1.
    8880023    1    1    2    0    0  0.42586333805E+02 -0.50131663230E+03  0.27219627823E+03  0.87237204322E+03  0.65864270000E+03 0.  0.
    8880022    1    1    2    0    0 -0.42586333805E+02  0.50131663230E+03  0.93539921459E+03  0.10730774927E+04  0.15294330000E+03 0.  0.
<mgrwt>
<rscale>  0 0.73971018E+03</rscale>
<asrwt>0</asrwt>
<pdfrwt beam="1">  1        2 0.24254192E+00 0.82881974E+03</pdfrwt>
<pdfrwt beam="2">  1       -2 0.56758004E-01 0.82881974E+03</pdfrwt>
<totfact> 0.33982652E+01</totfact>
</mgrwt>
</event>
<event>
 4    2  0.3388003E-007  0.9426333E+03  0.7818608E-02  0.9460793E-01
         -2   -1    0    0    0  501 -0.00000000000E+00  0.00000000000E+00  0.10379717996E+04  0.10379717996E+04  0.25500000000E-02 0.  1.
          2   -1    0    0  501    0  0.00000000000E+00 -0.00000000000E+00 -0.77105994840E+03  0.77105994840E+03  0.25500000000E-02 0. -1.
    8880023    1    1    2    0    0  0.64567627733E+03  0.19454938259E+03  0.51531235634E+03  0.10742924873E+04  0.65864270000E+03 0.  0.
    8880022    1    1    2    0    0 -0.64567627733E+03 -0.19454938259E+03 -0.24840050510E+03  0.73473926077E+03  0.15294330000E+03 0.  0.
<mgrwt>
<rscale>  0 0.87237126E+03</rscale>
<asrwt>0</asrwt>
<pdfrwt beam="1">  1        2 0.11862461E+00 0.94263329E+03</pdfrwt>
<pdfrwt beam="2">  1       -2 0.15968797E+00 0.94263329E+03</pdfrwt>
<totfact> 0.91314547E+00</totfact>
</mgrwt>
</event>
<event>
 4    2  0.3388003E-007  0.7074554E+03  0.7818608E-02  0.9967574E-01
         -2   -1    0    0    0  501 -0.00000000000E+00  0.00000000000E+00  0.44648290518E+03  0.44648290519E+03  0.25500000000E-02 0.  1.
          2   -1    0    0  501    0  0.00000000000E+00 -0.00000000000E+00 -0.22483180984E+04  0.22483180984E+04  0.25500000000E-02 0. -1.
    8880023    1    1    2    0    0  0.17630881219E+03 -0.18867457626E+03  0.14735658567E+03  0.72263895728E+03  0.65864270000E+03 0.  1.
    8880022    1    1    2    0    0 -0.17630881219E+03  0.18867457626E+03 -0.19491917789E+04  0.19721620463E+04  0.15294330000E+03 0.  0.
<mgrwt>
<rscale>  0 0.57095193E+03</rscale>
<asrwt>0</asrwt>
<pdfrwt beam="1">  1        2 0.34589508E+00 0.70745537E+03</pdfrwt>
<pdfrwt beam="2">  1       -2 0.68689679E-01 0.70745537E+03</pdfrwt>
<totfact> 0.98552340E+00</totfact>
</mgrwt>
</event>
<event>
 4    2  0.3388003E-007  0.6968152E+03  0.7818608E-02  0.1001068E+00
          2   -1    0    0  501    0  0.00000000000E+00  0.00000000000E+00  0.79216036304E+03  0.79216036305E+03  0.25500000000E-02 0. -1.
         -2   -1    0    0    0  501 -0.00000000000E+00 -0.00000000000E+00 -0.15483757598E+04  0.15483757598E+04  0.25500000000E-02 0.  1.
    8880023    1    1    2    0    0  0.20579503821E+03  0.96900326817E+02 -0.14422548450E+04  0.16017648127E+04  0.65864270000E+03 0.  1.
    8880022    1    1    2    0    0 -0.20579503821E+03 -0.96900326817E+02  0.68603944825E+03  0.73877131012E+03  0.15294330000E+03 0.  0.
<mgrwt>
<rscale>  0 0.55184488E+03</rscale>
<asrwt>0</asrwt>
<pdfrwt beam="1">  1        2 0.12187083E+00 0.69681524E+03</pdfrwt>
<pdfrwt beam="2">  1       -2 0.23821165E+00 0.69681524E+03</pdfrwt>
<totfact> 0.27520187E+00</totfact>
</mgrwt>
</event>
<event>
 4    2  0.3388003E-007  0.9251263E+03  0.7818608E-02  0.9486843E-01
          2   -1    0    0  501    0  0.00000000000E+00  0.00000000000E+00  0.26174363681E+04  0.26174363681E+04  0.25500000000E-02 0. -1.
         -2   -1    0    0    0  501 -0.00000000000E+00 -0.00000000000E+00 -0.93785035425E+03  0.93785035425E+03  0.25500000000E-02 0.  1.
    8880023    1    1    2    0    0 -0.51101047097E+03  0.40114439755E+03 -0.65086926194E+03  0.11311452301E+04  0.65864270000E+03 0.  0.
    8880022    1    1    2    0    0  0.51101047097E+03 -0.40114439755E+03  0.23304552758E+04  0.24241414922E+04  0.15294330000E+03 0.  0.
<mgrwt>
<rscale>  0 0.85260810E+03</rscale>
<asrwt>0</asrwt>
<pdfrwt beam="1">  1        2 0.40268252E+00 0.92512633E+03</pdfrwt>
<pdfrwt beam="2">  1       -2 0.14428467E+00 0.92512633E+03</pdfrwt>
<totfact> 0.10072204E+00</totfact>
</mgrwt>
</event>
<event>
 4    2  0.3388003E-007  0.7481862E+03  0.7818608E-02  0.9836712E-01
          2   -1    0    0  501    0  0.00000000000E+00  0.00000000000E+00  0.20173557547E+04  0.20173557547E+04  0.25500000000E-02 0. -1.
         -2   -1    0    0    0  501 -0.00000000000E+00 -0.00000000000E+00 -0.44171113676E+03  0.44171113676E+03  0.25500000000E-02 0.  1.
    8880023    1    1    2    0    0  0.14634835955E+03  0.32334889855E+03 -0.85960479570E+02  0.75310806851E+03  0.65864270000E+03 0.  1.
    8880022    1    1    2    0    0 -0.14634835955E+03 -0.32334889855E+03  0.16616050975E+04  0.17059588230E+04  0.15294330000E+03 0.  0.
<mgrwt>
<rscale>  0 0.63429021E+03</rscale>
<asrwt>0</asrwt>
<pdfrwt beam="1">  1        2 0.31036243E+00 0.74818618E+03</pdfrwt>
<pdfrwt beam="2">  1       -2 0.67955559E-01 0.74818618E+03</pdfrwt>
<totfact> 0.13419067E+01</totfact>
</mgrwt>
</event>
<event>
 4    2  0.3388003E-007  0.1102284E+04  0.7818608E-02  0.9258517E-01
          2   -1    0    0  501    0  0.00000000000E+00  0.00000000000E+00  0.27226161580E+04  0.27226161580E+04  0.25500000000E-02 0. -1.
         -2   -1    0    0    0  501 -0.00000000000E+00 -0.00000000000E+00 -0.87235486007E+03  0.87235486008E+03  0.25500000000E-02 0.  1.
    8880023    1    1    2    0    0 -0.60549281796E+03  0.64389335854E+03  0.23301138890E+04  0.25776852313E+04  0.65864270000E+03 0.  0.
    8880022    1    1    2    0    0  0.60549281796E+03 -0.64389335854E+03 -0.47985259108E+03  0.10172857868E+04  0.15294330000E+03 0.  0.
<mgrwt>
<rscale>  0 0.10469320E+04</rscale>
<asrwt>0</asrwt>
<pdfrwt beam="1">  1        2 0.41886403E+00 0.11022842E+04</pdfrwt>
<pdfrwt beam="2">  1       -2 0.13420844E+00 0.11022842E+04</pdfrwt>
<totfact> 0.10261093E+00</totfact>
</mgrwt>
</event>
<event>
 4    2  0.3388003E-007  0.7723090E+03  0.7818608E-02  0.9774224E-01
         -2   -1    0    0    0  501 -0.00000000000E+00  0.00000000000E+00  0.19267940982E+03  0.19267940984E+03  0.25500000000E-02 0.  1.
          2   -1    0    0  501    0  0.00000000000E+00 -0.00000000000E+00 -0.19231177305E+04  0.19231177305E+04  0.25500000000E-02 0. -1.
    8880023    1    1    2    0    0 -0.39505435465E+03 -0.81135486821E+02 -0.12573466935E+04  0.14755954135E+04  0.65864270000E+03 0.  0.
    8880022    1    1    2    0    0  0.39505435465E+03  0.81135486821E+02 -0.47309162714E+03  0.64020172683E+03  0.15294330000E+03 0.  1.
<mgrwt>
<rscale>  0 0.66764383E+03</rscale>
<asrwt>0</asrwt>
<pdfrwt beam="1">  1        2 0.29586425E+00 0.77230895E+03</pdfrwt>
<pdfrwt beam="2">  1       -2 0.29642987E-01 0.77230895E+03</pdfrwt>
<totfact> 0.79100584E+01</totfact>
</mgrwt>
</event>
<event>
 4    2  0.3965416E-007  0.7326951E+03  0.7818608E-02  0.9881760E-01
          2   -1    0    0  501    0  0.00000000000E+00  0.00000000000E+00  0.98156494097E+03  0.98156494097E+03  0.25500000000E-02 0. -1.
         -2   -1    0    0    0  501 -0.00000000000E+00 -0.00000000000E+00 -0.22106063588E+04  0.22106063588E+04  0.25500000000E-02 0.  1.
    8880023    1    1    2    0    0 -0.30033510470E+02  0.31957775890E+03 -0.21145775666E+04  0.22379187758E+04  0.65864270000E+03 0.  1.
    8880022    1    1    2    0    0  0.30033510470E+02 -0.31957775890E+03  0.88553614875E+03  0.95425252397E+03  0.15294330000E+03 0.  0.
<mgrwt>
<rscale>  0 0.61153456E+03</rscale>
<asrwt>0</asrwt>
<pdfrwt beam="1">  1        2 0.15100999E+00 0.73269514E+03</pdfrwt>
<pdfrwt beam="2">  1       -2 0.34009329E+00 0.73269514E+03</pdfrwt>
<totfact> 0.49289767E-01</totfact>
</mgrwt>
</event>
<event>
 4    2  0.3388003E-007  0.9410066E+03  0.7818608E-02  0.9463173E-01
         -2   -1    0    0    0  501 -0.00000000000E+00  0.00000000000E+00  0.51954950490E+03  0.51954950491E+03  0.25500000000E-02 0.  1.
          2   -1    0    0  501    0  0.00000000000E+00 -0.00000000000E+00 -0.20976438924E+04  0.20976438924E+04  0.25500000000E-02 0. -1.
    8880023    1    1    2    0    0 -0.58221940613E+03 -0.33571382063E+03 -0.51737654257E+02  0.94242782077E+03  0.65864270000E+03 0.  1.
    8880022    1    1    2    0    0  0.58221940613E+03  0.33571382063E+03 -0.15263567333E+04  0.16747655766E+04  0.15294330000E+03 0.  0.
<mgrwt>
<rscale>  0 0.87054206E+03</rscale>
<asrwt>0</asrwt>
<pdfrwt beam="1">  1        2 0.32271444E+00 0.94100660E+03</pdfrwt>
<pdfrwt beam="2">  1       -2 0.79930694E-01 0.94100660E+03</pdfrwt>
<totfact> 0.82499790E+00</totfact>
</mgrwt>
</event>
<event>
 4    2  0.3388003E-007  0.8536841E+03  0.7818608E-02  0.9604899E-01
         -2   -1    0    0    0  501 -0.00000000000E+00  0.00000000000E+00  0.54073383937E+03  0.54073383938E+03  0.25500000000E-02 0.  1.
          2   -1    0    0  501    0  0.00000000000E+00 -0.00000000000E+00 -0.14939868076E+04  0.14939868076E+04  0.25500000000E-02 0. -1.
    8880023    1    1    2    0    0 -0.24085353397E+03  0.48678111857E+03  0.80024921569E+02  0.85742665958E+03  0.65864270000E+03 0.  0.
    8880022    1    1    2    0    0  0.24085353397E+03 -0.48678111857E+03 -0.10332778898E+04  0.11772939874E+04  0.15294330000E+03 0.  0.
<mgrwt>
<rscale>  0 0.76972810E+03</rscale>
<asrwt>0</asrwt>
<pdfrwt beam="1">  1        2 0.22984412E+00 0.85368407E+03</pdfrwt>
<pdfrwt beam="2">  1       -2 0.83189822E-01 0.85368407E+03</pdfrwt>
<totfact> 0.16377311E+01</totfact>
</mgrwt>
</event>
<event>
 4    2  0.3388003E-007  0.6793606E+03  0.7818608E-02  0.1009688E+00
          2   -1    0    0  501    0  0.00000000000E+00  0.00000000000E+00  0.10376797135E+04  0.10376797135E+04  0.25500000000E-02 0. -1.
         -2   -1    0    0    0  501 -0.00000000000E+00 -0.00000000000E+00 -0.46317705669E+03  0.46317705669E+03  0.25500000000E-02 0.  1.
    8880023    1    1    2    0    0 -0.14886963652E+03  0.74554607812E+02 -0.18853065199E+03  0.70503515602E+03  0.65864270000E+03 0.  1.
    8880022    1    1    2    0    0  0.14886963652E+03 -0.74554607812E+02  0.76303330879E+03  0.79582161416E+03  0.15294330000E+03 0.  0.
<mgrwt>
<rscale>  0 0.51598946E+03</rscale>
<asrwt>0</asrwt>
<pdfrwt beam="1">  1        2 0.15964303E+00 0.67936056E+03</pdfrwt>
<pdfrwt beam="2">  1       -2 0.71258010E-01 0.67936056E+03</pdfrwt>
<totfact> 0.43585613E+01</totfact>
</mgrwt>
</event>
<event>
 4    2  0.3794807E-007  0.8523762E+03  0.7818608E-02  0.9607271E-01
          2   -1    0    0  501    0  0.00000000000E+00  0.00000000000E+00  0.11976411951E+04  0.11976411951E+04  0.25500000000E-02 0. -1.
         -2   -1    0    0    0  501 -0.00000000000E+00 -0.00000000000E+00 -0.14898113106E+04  0.14898113106E+04  0.25500000000E-02 0.  1.
    8880023    1    1    2    0    0 -0.13697497992E+03 -0.52342413714E+03 -0.12876228673E+04  0.15441884040E+04  0.65864270000E+03 0.  1.
    8880022    1    1    2    0    0  0.13697497992E+03  0.52342413714E+03  0.99545275176E+03  0.11432641018E+04  0.15294330000E+03 0.  0.
<mgrwt>
<rscale>  0 0.76816784E+03</rscale>
<asrwt>0</asrwt>
<pdfrwt beam="1">  1        2 0.18425249E+00 0.85237620E+03</pdfrwt>
<pdfrwt beam="2">  1       -2 0.22920174E+00 0.85237620E+03</pdfrwt>
<totfact> 0.16686476E+00</totfact>
</mgrwt>
</event>
<event>
 4    2  0.3388003E-007  0.9032624E+03  0.7818608E-02  0.9520815E-01
         -2   -1    0    0    0  501 -0.00000000000E+00  0.00000000000E+00  0.13633137362E+04  0.13633137362E+04  0.25500000000E-02 0.  1.
          2   -1    0    0  501    0  0.00000000000E+00 -0.00000000000E+00 -0.10336569922E+04  0.10336569922E+04  0.25500000000E-02 0. -1.
    8880023    1    1    2    0    0 -0.59750057772E+03  0.15832179669E+03  0.10832152372E+04  0.14104035551E+04  0.65864270000E+03 0.  1.
    8880022    1    1    2    0    0  0.59750057772E+03 -0.15832179669E+03 -0.75355849327E+03  0.98656717332E+03  0.15294330000E+03 0.  0.
<mgrwt>
<rscale>  0 0.82766489E+03</rscale>
<asrwt>0</asrwt>
<pdfrwt beam="1">  1        2 0.15902415E+00 0.90326239E+03</pdfrwt>
<pdfrwt beam="2">  1       -2 0.20974058E+00 0.90326239E+03</pdfrwt>
<totfact> 0.27678156E+00</totfact>
</mgrwt>
</event>
<event>
 4    2  0.3388003E-007  0.9777493E+03  0.7818608E-02  0.9411265E-01
          2   -1    0    0  501    0  0.00000000000E+00  0.00000000000E+00  0.17884444419E+04  0.17884444419E+04  0.25500000000E-02 0. -1.
         -2   -1    0    0    0  501 -0.00000000000E+00 -0.00000000000E+00 -0.48847987743E+03  0.48847987744E+03  0.25500000000E-02 0.  1.
    8880023    1    1    2    0    0 -0.72201498673E+03  0.29627539107E+02  0.11736636887E+04  0.15275732692E+04  0.65864270000E+03 0.  0.
    8880022    1    1    2    0    0  0.72201498673E+03 -0.29627539107E+02  0.12630087570E+03  0.74935105014E+03  0.15294330000E+03 0.  0.
<mgrwt>
<rscale>  0 0.91154359E+03</rscale>
<asrwt>0</asrwt>
<pdfrwt beam="1">  1        2 0.27514530E+00 0.97774927E+03</pdfrwt>
<pdfrwt beam="2">  1       -2 0.75150751E-01 0.97774927E+03</pdfrwt>
<totfact> 0.13954059E+01</totfact>
</mgrwt>
</event>
<event>
 4    2  0.3388003E-007  0.7534651E+03  0.7818608E-02  0.9822329E-01
         -2   -1    0    0    0  501 -0.00000000000E+00  0.00000000000E+00  0.65392441624E+03  0.65392441625E+03  0.25500000000E-02 0.  1.
          2   -1    0    0  501    0  0.00000000000E+00 -0.00000000000E+00 -0.52264349465E+03  0.52264349466E+03  0.25500000000E-02 0. -1.
    8880023    1    1    2    0    0 -0.24120926745E+02 -0.36512696399E+03 -0.15645470452E+02  0.75362756448E+03  0.65864270000E+03 0. -1.
    8880022    1    1    2    0    0  0.24120926745E+02  0.36512696399E+03  0.14692639204E+03  0.42294034643E+03  0.15294330000E+03 0.  1.
<mgrwt>
<rscale>  0 0.64177888E+03</rscale>
<asrwt>0</asrwt>
<pdfrwt beam="1">  1        2 0.80406691E-01 0.75346515E+03</pdfrwt>
<pdfrwt beam="2">  1       -2 0.10060376E+00 0.75346515E+03</pdfrwt>
<totfact> 0.48164575E+01</totfact>
</mgrwt>
</event>
<event>
 4    2  0.3388003E-007  0.6769261E+03  0.7818608E-02  0.1011119E+00
         -2   -1    0    0    0  501 -0.00000000000E+00  0.00000000000E+00  0.27496265152E+03  0.27496265153E+03  0.25500000000E-02 0.  1.
          2   -1    0    0  501    0  0.00000000000E+00 -0.00000000000E+00 -0.80142637916E+03  0.80142637917E+03  0.25500000000E-02 0. -1.
    8880023    1    1    2    0    0 -0.78600348912E+02  0.13505837560E+03 -0.52676054709E+03  0.85773286046E+03  0.65864270000E+03 0. -1.
    8880022    1    1    2    0    0  0.78600348912E+02 -0.13505837560E+03  0.29681944599E+00  0.21865617024E+03  0.15294330000E+03 0. -1.
<mgrwt>
<rscale>  0 0.51032435E+03</rscale>
<asrwt>0</asrwt>
<pdfrwt beam="1">  1        2 0.12329637E+00 0.67692613E+03</pdfrwt>
<pdfrwt beam="2">  1       -2 0.42301947E-01 0.67692613E+03</pdfrwt>
<totfact> 0.18459259E+02</totfact>
</mgrwt>
</event>
<event>
 4    2  0.3388003E-007  0.8075564E+03  0.7818608E-02  0.9694689E-01
         -2   -1    0    0    0  501 -0.00000000000E+00  0.00000000000E+00  0.14910673215E+03  0.14910673217E+03  0.25500000000E-02 0.  1.
          2   -1    0    0  501    0  0.00000000000E+00 -0.00000000000E+00 -0.30646646620E+04  0.30646646621E+04  0.25500000000E-02 0. -1.
    8880023    1    1    2    0    0  0.37219549051E+03 -0.28250261068E+03 -0.13528757775E+04  0.15755698283E+04  0.65864270000E+03 0.  1.
    8880022    1    1    2    0    0 -0.37219549051E+03  0.28250261068E+03 -0.15626821524E+04  0.16382015659E+04  0.15294330000E+03 0. -1.
<mgrwt>
<rscale>  0 0.71333861E+03</rscale>
<asrwt>0</asrwt>
<pdfrwt beam="1">  1        2 0.47148683E+00 0.80755645E+03</pdfrwt>
<pdfrwt beam="2">  1       -2 0.22939499E-01 0.80755645E+03</pdfrwt>
<totfact> 0.27862100E+01</totfact>
</mgrwt>
</event>
<event>
 4    2  0.3388003E-007  0.6695790E+03  0.7818608E-02  0.1015966E+00
          2   -1    0    0  501    0  0.00000000000E+00  0.00000000000E+00  0.25155900216E+04  0.25155900216E+04  0.25500000000E-02 0. -1.
         -2   -1    0    0    0  501 -0.00000000000E+00 -0.00000000000E+00 -0.78572997604E+02  0.78572997646E+02  0.25500000000E-02 0.  1.
    8880023    1    1    2    0    0 -0.95466253751E+02  0.73566607856E+02  0.21085924561E+04  0.22123512840E+04  0.65864270000E+03 0. -1.
    8880022    1    1    2    0    0  0.95466253751E+02 -0.73566607856E+02  0.32842456786E+03  0.38181173526E+03  0.15294330000E+03 0.  0.
<mgrwt>
<rscale>  0 0.49170695E+03</rscale>
<asrwt>0</asrwt>
<pdfrwt beam="1">  1        2 0.38701383E+00 0.66957902E+03</pdfrwt>
<pdfrwt beam="2">  1       -2 0.12088154E-01 0.66957902E+03</pdfrwt>
<totfact> 0.17956800E+02</totfact>
</mgrwt>
</event>
<event>
 4    2  0.3388003E-007  0.8029366E+03  0.7818608E-02  0.9704482E-01
          2   -1    0    0  501    0  0.00000000000E+00  0.00000000000E+00  0.11861959963E+04  0.11861959963E+04  0.25500000000E-02 0. -1.
         -2   -1    0    0    0  501 -0.00000000000E+00 -0.00000000000E+00 -0.76047108411E+03  0.76047108411E+03  0.25500000000E-02 0.  1.
    8880023    1    1    2    0    0  0.44105064310E+03 -0.12795057493E+03 -0.46866034814E+03  0.92970411830E+03  0.65864270000E+03 0.  1.
    8880022    1    1    2    0    0 -0.44105064310E+03  0.12795057493E+03  0.89438526035E+03  0.10169629621E+04  0.15294330000E+03 0.  0.
<mgrwt>
<rscale>  0 0.70750557E+03</rscale>
<asrwt>0</asrwt>
<pdfrwt beam="1">  1        2 0.18249169E+00 0.80293663E+03</pdfrwt>
<pdfrwt beam="2">  1       -2 0.11699555E+00 0.80293663E+03</pdfrwt>
<totfact> 0.11056893E+01</totfact>
</mgrwt>
</event>
<event>
 4    2  0.3388003E-007  0.7098307E+03  0.7818608E-02  0.9958630E-01
         -2   -1    0    0    0  501 -0.00000000000E+00  0.00000000000E+00  0.28387516782E+03  0.28387516783E+03  0.25500000000E-02 0.  1.
          2   -1    0    0  501    0  0.00000000000E+00 -0.00000000000E+00 -0.22341295336E+04  0.22341295336E+04  0.25500000000E-02 0. -1.
    8880023    1    1    2    0    0  0.59899654166E+02 -0.25780124565E+03 -0.19471759326E+03  0.73605339359E+03  0.65864270000E+03 0.  0.
    8880022    1    1    2    0    0 -0.59899654166E+02  0.25780124565E+03 -0.17555367726E+04  0.17819513079E+04  0.15294330000E+03 0.  0.
<mgrwt>
<rscale>  0 0.57502052E+03</rscale>
<asrwt>0</asrwt>
<pdfrwt beam="1">  1        2 0.34371222E+00 0.70983072E+03</pdfrwt>
<pdfrwt beam="2">  1       -2 0.43673104E-01 0.70983072E+03</pdfrwt>
<totfact> 0.25647586E+01</totfact>
</mgrwt>
</event>
<event>
 4    2  0.3388003E-007  0.8251647E+03  0.7818608E-02  0.9658815E-01
         -2   -1    0    0    0  501 -0.00000000000E+00  0.00000000000E+00  0.57510518417E+03  0.57510518418E+03  0.25500000000E-02 0.  1.
          2   -1    0    0  501    0  0.00000000000E+00 -0.00000000000E+00 -0.90174813072E+03  0.90174813072E+03  0.25500000000E-02 0. -1.
    8880023    1    1    2    0    0  0.16346863631E+03 -0.46943007022E+03 -0.45344078371E+03  0.94154412349E+03  0.65864270000E+03 0. -1.
    8880022    1    1    2    0    0 -0.16346863631E+03  0.46943007022E+03  0.12679783716E+03  0.53530919141E+03  0.15294330000E+03 0.  0.
<mgrwt>
<rscale>  0 0.73522798E+03</rscale>
<asrwt>0</asrwt>
<pdfrwt beam="1">  1        2 0.13873048E+00 0.82516471E+03</pdfrwt>
<pdfrwt beam="2">  1       -2 0.88477721E-01 0.82516471E+03</pdfrwt>
<totfact> 0.32412334E+01</totfact>
</mgrwt>
</event>
<event>
 4    2  0.3388003E-007  0.6672803E+03  0.7818608E-02  0.1017692E+00
         -2   -1    0    0    0  501 -0.00000000000E+00  0.00000000000E+00  0.63947107391E+02  0.63947107442E+02  0.25500000000E-02 0.  1.
          2   -1    0    0  501    0  0.00000000000E+00 -0.00000000000E+00 -0.28808851095E+04  0.28808851095E+04  0.25500000000E-02 0. -1.
    8880023    1    1    2    0    0 -0.10406901089E+03  0.24947435775E+02 -0.20684389469E+04  0.21734080650E+04  0.65864270000E+03 0.  0.
    8880022    1    1    2    0    0  0.10406901089E+03 -0.24947435775E+02 -0.74849905522E+03  0.77142415199E+03  0.15294330000E+03 0.  1.
<mgrwt>
<rscale>  0 0.48528605E+03</rscale>
<asrwt>0</asrwt>
<pdfrwt beam="1">  1        2 0.44321299E+00 0.66728026E+03</pdfrwt>
<pdfrwt beam="2">  1       -2 0.98380188E-02 0.66728026E+03</pdfrwt>
<totfact> 0.15443793E+02</totfact>
</mgrwt>
</event>
<event>
 4    2  0.3388003E-007  0.7149386E+03  0.7818608E-02  0.9940099E-01
          2   -1    0    0  501    0  0.00000000000E+00  0.00000000000E+00  0.13669200495E+04  0.13669200495E+04  0.25500000000E-02 0. -1.
         -2   -1    0    0    0  501 -0.00000000000E+00 -0.00000000000E+00 -0.22736186175E+03  0.22736186176E+03  0.25500000000E-02 0.  1.
    8880023    1    1    2    0    0 -0.12218650718E+03  0.24979485693E+03  0.47647908924E+03  0.85916793575E+03  0.65864270000E+03 0.  0.
    8880022    1    1    2    0    0  0.12218650718E+03 -0.24979485693E+03  0.66307909853E+03  0.73511397552E+03  0.15294330000E+03 0.  0.
<mgrwt>
<rscale>  0 0.58356644E+03</rscale>
<asrwt>0</asrwt>
<pdfrwt beam="1">  1        2 0.21029539E+00 0.71493861E+03</pdfrwt>
<pdfrwt beam="2">  1       -2 0.34978748E-01 0.71493861E+03</pdfrwt>
<totfact> 0.11813036E+02</totfact>
</mgrwt>
</event>
<event>
 4    2  0.3388003E-007  0.6938494E+03  0.7818608E-02  0.1002374E+00
          2   -1    0    0  501    0  0.00000000000E+00  0.00000000000E+00  0.35820451877E+03  0.35820451878E+03  0.25500000000E-02 0. -1.
         -2   -1    0    0    0  501 -0.00000000000E+00 -0.00000000000E+00 -0.72271171222E+03  0.72271171223E+03  0.25500000000E-02 0.  1.
    8880023    1    1    2    0    0  0.15439354919E+03 -0.15420594657E+03 -0.41672453256E+03  0.80937406945E+03  0.65864270000E+03 0.  1.
    8880022    1    1    2    0    0 -0.15439354919E+03  0.15420594657E+03  0.52217339114E+02  0.27154216156E+03  0.15294330000E+03 0. -1.
<mgrwt>
<rscale>  0 0.54621387E+03</rscale>
<asrwt>0</asrwt>
<pdfrwt beam="1">  1        2 0.55108388E-01 0.69384944E+03</pdfrwt>
<pdfrwt beam="2">  1       -2 0.11118642E+00 0.69384944E+03</pdfrwt>
<totfact> 0.58452977E+01</totfact>
</mgrwt>
</event>
<event>
 4    2  0.3388003E-007  0.6842246E+03  0.7818608E-02  0.1007028E+00
          2   -1    0    0  501    0  0.00000000000E+00  0.00000000000E+00  0.21791425331E+04  0.21791425331E+04  0.25500000000E-02 0. -1.
         -2   -1    0    0    0  501 -0.00000000000E+00 -0.00000000000E+00 -0.59168801230E+03  0.59168801230E+03  0.25500000000E-02 0.  1.
    8880023    1    1    2    0    0  0.77086487940E+02  0.16855512438E+03 -0.38411513380E+03  0.78467050337E+03  0.65864270000E+03 0.  1.
    8880022    1    1    2    0    0 -0.77086487940E+02 -0.16855512438E+03  0.19715696546E+04  0.19861600420E+04  0.15294330000E+03 0.  0.
<mgrwt>
<rscale>  0 0.52673012E+03</rscale>
<asrwt>0</asrwt>
<pdfrwt beam="1">  1        2 0.33525269E+00 0.68422464E+03</pdfrwt>
<pdfrwt beam="2">  1       -2 0.91028926E-01 0.68422464E+03</pdfrwt>
<totfact> 0.57489499E+00</totfact>
</mgrwt>
</event>
<event>
 4    2  0.3388003E-007  0.7675628E+03  0.7818608E-02  0.9785907E-01
          2   -1    0    0  501    0  0.00000000000E+00  0.00000000000E+00  0.16913680460E+04  0.16913680460E+04  0.25500000000E-02 0. -1.
         -2   -1    0    0    0  501 -0.00000000000E+00 -0.00000000000E+00 -0.55704409701E+03  0.55704409702E+03  0.25500000000E-02 0.  1.
    8880023    1    1    2    0    0 -0.38416079272E+03 -0.88107389085E+02 -0.24502878647E+03  0.80572435680E+03  0.65864270000E+03 0.  1.
    8880022    1    1    2    0    0  0.38416079272E+03  0.88107389085E+02  0.13793527354E+04  0.14426877862E+04  0.15294330000E+03 0.  0.
<mgrwt>
<rscale>  0 0.66124341E+03</rscale>
<asrwt>0</asrwt>
<pdfrwt beam="1">  1        2 0.26021046E+00 0.76756279E+03</pdfrwt>
<pdfrwt beam="2">  1       -2 0.85699094E-01 0.76756279E+03</pdfrwt>
<totfact> 0.12029176E+01</totfact>
</mgrwt>
</event>
<event>
 4    2  0.3388003E-007  0.8450167E+03  0.7818608E-02  0.9620792E-01
          2   -1    0    0  501    0  0.00000000000E+00  0.00000000000E+00  0.97953908211E+03  0.97953908212E+03  0.25500000000E-02 0. -1.
         -2   -1    0    0    0  501 -0.00000000000E+00 -0.00000000000E+00 -0.57541640292E+03  0.57541640293E+03  0.25500000000E-02 0.  1.
    8880023    1    1    2    0    0 -0.50867403040E+03 -0.14660759386E+03 -0.41867905452E+02  0.84605329829E+03  0.65864270000E+03 0.  1.
    8880022    1    1    2    0    0  0.50867403040E+03  0.14660759386E+03  0.44599058464E+03  0.70890218675E+03  0.15294330000E+03 0.  0.
<mgrwt>
<rscale>  0 0.75935159E+03</rscale>
<asrwt>0</asrwt>
<pdfrwt beam="1">  1        2 0.15069832E+00 0.84501672E+03</pdfrwt>
<pdfrwt beam="2">  1       -2 0.88525601E-01 0.84501672E+03</pdfrwt>
<totfact> 0.28713460E+01</totfact>
</mgrwt>
</event>
<event>
 4    2  0.3388003E-007  0.7092945E+03  0.7818608E-02  0.9960630E-01
          2   -1    0    0  501    0  0.00000000000E+00  0.00000000000E+00  0.17248207056E+04  0.17248207056E+04  0.25500000000E-02 0. -1.
         -2   -1    0    0    0  501 -0.00000000000E+00 -0.00000000000E+00 -0.32526175210E+03  0.32526175211E+03  0.25500000000E-02 0.  1.
    8880023    1    1    2    0    0  0.20448468418E+03 -0.16575444294E+03  0.10116138023E+03  0.71647215754E+03  0.65864270000E+03 0.  1.
    8880022    1    1    2    0    0 -0.20448468418E+03  0.16575444294E+03  0.12983975733E+04  0.13336103002E+04  0.15294330000E+03 0.  0.
<mgrwt>
<rscale>  0 0.57410762E+03</rscale>
<asrwt>0</asrwt>
<pdfrwt beam="1">  1        2 0.26535703E+00 0.70929453E+03</pdfrwt>
<pdfrwt beam="2">  1       -2 0.50040270E-01 0.70929453E+03</pdfrwt>
<totfact> 0.37023971E+01</totfact>
</mgrwt>
</event>
<event>
 4    2  0.3388003E-007  0.7960151E+03  0.7818608E-02  0.9719479E-01
         -2   -1    0    0    0  501 -0.00000000000E+00  0.00000000000E+00  0.10051363193E+04  0.10051363193E+04  0.25500000000E-02 0.  1.
          2   -1    0    0  501    0  0.00000000000E+00 -0.00000000000E+00 -0.12776478448E+04  0.12776478448E+04  0.25500000000E-02 0. -1.
    8880023    1    1    2    0    0  0.43467419819E+03 -0.10434650443E+03  0.78905632125E+03  0.11208255600E+04  0.65864270000E+03 0.  0.
    8880022    1    1    2    0    0 -0.43467419819E+03  0.10434650443E+03 -0.10615678467E+04  0.11619586041E+04  0.15294330000E+03 0.  0.
<mgrwt>
<rscale>  0 0.69868752E+03</rscale>
<asrwt>0</asrwt>
<pdfrwt beam="1">  1        2 0.19656121E+00 0.79601511E+03</pdfrwt>
<pdfrwt beam="2">  1       -2 0.15463636E+00 0.79601511E+03</pdfrwt>
<totfact> 0.47833911E+00</totfact>
</mgrwt>
</event>
<event>
 4    2  0.3388003E-007  0.7480159E+03  0.7818608E-02  0.9837184E-01
         -2   -1    0    0    0  501 -0.00000000000E+00  0.00000000000E+00  0.28386142452E+03  0.28386142453E+03  0.25500000000E-02 0.  1.
          2   -1    0    0  501    0  0.00000000000E+00 -0.00000000000E+00 -0.21712112910E+04  0.21712112910E+04  0.25500000000E-02 0. -1.
    8880023    1    1    2    0    0  0.24342313571E+03 -0.25780380288E+03 -0.27474022537E+03  0.79687516053E+03  0.65864270000E+03 0.  1.
    8880022    1    1    2    0    0 -0.24342313571E+03  0.25780380288E+03 -0.16126096411E+04  0.16581975550E+04  0.15294330000E+03 0.  0.
<mgrwt>
<rscale>  0 0.63404666E+03</rscale>
<asrwt>0</asrwt>
<pdfrwt beam="1">  1        2 0.33403250E+00 0.74801593E+03</pdfrwt>
<pdfrwt beam="2">  1       -2 0.43670990E-01 0.74801593E+03</pdfrwt>
<totfact> 0.27630386E+01</totfact>
</mgrwt>
</event>
<event>
 4    2  0.3388003E-007  0.8069646E+03  0.7818608E-02  0.9695935E-01
         -2   -1    0    0    0  501 -0.00000000000E+00  0.00000000000E+00  0.26341897064E+03  0.26341897065E+03  0.25500000000E-02 0.  1.
          2   -1    0    0  501    0  0.00000000000E+00 -0.00000000000E+00 -0.16491330842E+04  0.16491330842E+04  0.25500000000E-02 0. -1.
    8880023    1    1    2    0    0  0.17319031656E+03  0.43288201761E+03 -0.10197821418E+04  0.13004412905E+04  0.65864270000E+03 0.  0.
    8880022    1    1    2    0    0 -0.17319031656E+03 -0.43288201761E+03 -0.36593197175E+03  0.61211076439E+03  0.15294330000E+03 0.  0.
<mgrwt>
<rscale>  0 0.71259363E+03</rscale>
<asrwt>0</asrwt>
<pdfrwt beam="1">  1        2 0.25371278E+00 0.80696464E+03</pdfrwt>
<pdfrwt beam="2">  1       -2 0.40525996E-01 0.80696464E+03</pdfrwt>
<totfact> 0.61374859E+01</totfact>
</mgrwt>
</event>
<event>
 4    2  0.3388003E-007  0.1085213E+04  0.7818608E-02  0.9277701E-01
          2   -1    0    0  501    0  0.00000000000E+00  0.00000000000E+00  0.12649278023E+04  0.12649278023E+04  0.25500000000E-02 0. -1.
         -2   -1    0    0    0  501 -0.00000000000E+00 -0.00000000000E+00 -0.92911704316E+03  0.92911704316E+03  0.25500000000E-02 0.  1.
    8880023    1    1    2    0    0 -0.85465274212E+03  0.11595388570E+03 -0.28308119274E+03  0.11215265406E+04  0.65864270000E+03 0.  1.
    8880022    1    1    2    0    0  0.85465274212E+03 -0.11595388570E+03  0.61889195187E+03  0.10725183049E+04  0.15294330000E+03 0.  0.
<mgrwt>
<rscale>  0 0.10286191E+04</rscale>
<asrwt>0</asrwt>
<pdfrwt beam="1">  1        2 0.19460428E+00 0.10852128E+04</pdfrwt>
<pdfrwt beam="2">  1       -2 0.14294108E+00 0.10852128E+04</pdfrwt>
<totfact> 0.57986974E+00</totfact>
</mgrwt>
</event>
<event>
 4    2  0.3388003E-007  0.1019576E+04  0.7818608E-02  0.9356383E-01
         -2   -1    0    0    0  501 -0.00000000000E+00  0.00000000000E+00  0.15256736296E+04  0.15256736296E+04  0.25500000000E-02 0.  1.
          2   -1    0    0  501    0  0.00000000000E+00 -0.00000000000E+00 -0.90431598424E+03  0.90431598425E+03  0.25500000000E-02 0. -1.
    8880023    1    1    2    0    0  0.13255683843E+03  0.76691119649E+03  0.11029929280E+04  0.15020411793E+04  0.65864270000E+03 0.  0.
    8880022    1    1    2    0    0 -0.13255683843E+03 -0.76691119649E+03 -0.48163528266E+03  0.92794843458E+03  0.15294330000E+03 0.  0.
<mgrwt>
<rscale>  0 0.95753769E+03</rscale>
<asrwt>0</asrwt>
<pdfrwt beam="1">  1        2 0.13912554E+00 0.10195756E+04</pdfrwt>
<pdfrwt beam="2">  1       -2 0.23471902E+00 0.10195756E+04</pdfrwt>
<totfact> 0.23105561E+00</totfact>
</mgrwt>
</event>
<event>
 4    2  0.3388003E-007  0.7586707E+03  0.7818608E-02  0.9808561E-01
          2   -1    0    0  501    0  0.00000000000E+00  0.00000000000E+00  0.30154602719E+03  0.30154602720E+03  0.25500000000E-02 0. -1.
         -2   -1    0    0    0  501 -0.00000000000E+00 -0.00000000000E+00 -0.12491165881E+04  0.12491165881E+04  0.25500000000E-02 0.  1.
    8880023    1    1    2    0    0 -0.22208484164E+03 -0.30405472994E+03 -0.83662201455E+03  0.11293881340E+04  0.65864270000E+03 0.  0.
    8880022    1    1    2    0    0  0.22208484164E+03  0.30405472994E+03 -0.11094854638E+03  0.42127448135E+03  0.15294330000E+03 0.  0.
<mgrwt>
<rscale>  0 0.64905116E+03</rscale>
<asrwt>0</asrwt>
<pdfrwt beam="1">  1        2 0.46391697E-01 0.75867065E+03</pdfrwt>
<pdfrwt beam="2">  1       -2 0.19217178E+00 0.75867065E+03</pdfrwt>
<totfact> 0.16617289E+01</totfact>
</mgrwt>
</event>
<event>
 4    2  0.3388003E-007  0.8073810E+03  0.7818608E-02  0.9695058E-01
         -2   -1    0    0    0  501 -0.00000000000E+00  0.00000000000E+00  0.35263651381E+03  0.35263651382E+03  0.25500000000E-02 0.  1.
          2   -1    0    0  501    0  0.00000000000E+00 -0.00000000000E+00 -0.13873853096E+04  0.13873853096E+04  0.25500000000E-02 0. -1.
    8880023    1    1    2    0    0  0.24971242791E+03  0.39458522626E+03 -0.31094951142E+03  0.86518992270E+03  0.65864270000E+03 0.  1.
    8880022    1    1    2    0    0 -0.24971242791E+03 -0.39458522626E+03 -0.72379928440E+03  0.87483190073E+03  0.15294330000E+03 0.  0.
<mgrwt>
<rscale>  0 0.71311776E+03</rscale>
<asrwt>0</asrwt>
<pdfrwt beam="1">  1        2 0.21344389E+00 0.80738095E+03</pdfrwt>
<pdfrwt beam="2">  1       -2 0.54251772E-01 0.80738095E+03</pdfrwt>
<totfact> 0.47751145E+01</totfact>
</mgrwt>
</event>
<event>
 4    2  0.3388003E-007  0.6841682E+03  0.7818608E-02  0.1007058E+00
          2   -1    0    0  501    0  0.00000000000E+00  0.00000000000E+00  0.73869692496E+03  0.73869692496E+03  0.25500000000E-02 0. -1.
         -2   -1    0    0    0  501 -0.00000000000E+00 -0.00000000000E+00 -0.33383365015E+03  0.33383365016E+03  0.25500000000E-02 0.  1.
    8880023    1    1    2    0    0 -0.18509499944E+03 -0.39654098394E+01  0.11114219874E+03  0.69313683923E+03  0.65864270000E+03 0.  1.
    8880022    1    1    2    0    0  0.18509499944E+03  0.39654098394E+01  0.29372107607E+03  0.37939373589E+03  0.15294330000E+03 0.  0.
<mgrwt>
<rscale>  0 0.52660936E+03</rscale>
<asrwt>0</asrwt>
<pdfrwt beam="1">  1        2 0.11364568E+00 0.68416817E+03</pdfrwt>
<pdfrwt beam="2">  1       -2 0.51359023E-01 0.68416817E+03</pdfrwt>
<totfact> 0.13904775E+02</totfact>
</mgrwt>
</event>
<event>
 4    2  0.3388003E-007  0.8022728E+03  0.7818608E-02  0.9705903E-01
         -2   -1    0    0    0  501 -0.00000000000E+00  0.00000000000E+00  0.49209060922E+03  0.49209060923E+03  0.25500000000E-02 0.  1.
          2   -1    0    0  501    0  0.00000000000E+00 -0.00000000000E+00 -0.20233703570E+04  0.20233703570E+04  0.25500000000E-02 0. -1.
    8880023    1    1    2    0    0 -0.15716816594E+03  0.43026685460E+03 -0.17943421363E+04  0.19655292689E+04  0.65864270000E+03 0. -1.
    8880022    1    1    2    0    0  0.15716816594E+03 -0.43026685460E+03  0.26306238846E+03  0.54993169738E+03  0.15294330000E+03 0.  0.
<mgrwt>
<rscale>  0 0.70666401E+03</rscale>
<asrwt>0</asrwt>
<pdfrwt beam="1">  1        2 0.31128774E+00 0.80227277E+03</pdfrwt>
<pdfrwt beam="2">  1       -2 0.75706249E-01 0.80227277E+03</pdfrwt>
<totfact> 0.10424574E+01</totfact>
</mgrwt>
</event>
<event>
 4    2  0.3388003E-007  0.8542786E+03  0.7818608E-02  0.9603823E-01
          2   -1    0    0  501    0  0.00000000000E+00  0.00000000000E+00  0.41935947616E+04  0.41935947616E+04  0.25500000000E-02 0. -1.
         -2   -1    0    0    0  501 -0.00000000000E+00 -0.00000000000E+00 -0.12851735457E+03  0.12851735459E+03  0.25500000000E-02 0.  1.
    8880023    1    1    2    0    0 -0.41575968006E+03 -0.35089253933E+03  0.18774937682E+04  0.20627105327E+04  0.65864270000E+03 0.  0.
    8880022    1    1    2    0    0  0.41575968006E+03  0.35089253933E+03  0.21875836388E+04  0.22594015835E+04  0.15294330000E+03 0.  0.
<mgrwt>
<rscale>  0 0.77043671E+03</rscale>
<asrwt>0</asrwt>
<pdfrwt beam="1">  1        2 0.64516834E+00 0.85427858E+03</pdfrwt>
<pdfrwt beam="2">  1       -2 0.19771903E-01 0.85427858E+03</pdfrwt>
<totfact> 0.55887059E+00</totfact>
</mgrwt>
</event>
<event>
 4    2  0.3388003E-007  0.8604262E+03  0.7818608E-02  0.9592806E-01
         -2   -1    0    0    0  501 -0.00000000000E+00  0.00000000000E+00  0.94192933780E+03  0.94192933780E+03  0.25500000000E-02 0.  1.
          2   -1    0    0  501    0  0.00000000000E+00 -0.00000000000E+00 -0.61791521895E+03  0.61791521895E+03  0.25500000000E-02 0. -1.
    8880023    1    1    2    0    0  0.31756601420E+03  0.45351394892E+03  0.45119536471E+03  0.97155058471E+03  0.65864270000E+03 0.  1.
    8880022    1    1    2    0    0 -0.31756601420E+03 -0.45351394892E+03 -0.12718124586E+03  0.58829397205E+03  0.15294330000E+03 0. -1.
<mgrwt>
<rscale>  0 0.77774180E+03</rscale>
<asrwt>0</asrwt>
<pdfrwt beam="1">  1        2 0.95063880E-01 0.86042622E+03</pdfrwt>
<pdfrwt beam="2">  1       -2 0.14491221E+00 0.86042622E+03</pdfrwt>
<totfact> 0.15771390E+01</totfact>
</mgrwt>
</event>
<event>
 4    2  0.3388003E-007  0.8023493E+03  0.7818608E-02  0.9705739E-01
          2   -1    0    0  501    0  0.00000000000E+00  0.00000000000E+00  0.17668361010E+04  0.17668361010E+04  0.25500000000E-02 0. -1.
         -2   -1    0    0    0  501 -0.00000000000E+00 -0.00000000000E+00 -0.40900209906E+03  0.40900209907E+03  0.25500000000E-02 0.  1.
    8880023    1    1    2    0    0  0.24975575608E+03 -0.38415651056E+03  0.75924090286E+02  0.80593351838E+03  0.65864270000E+03 0.  0.
    8880022    1    1    2    0    0 -0.24975575608E+03  0.38415651056E+03  0.12819099116E+04  0.13699046817E+04  0.15294330000E+03 0.  0.
<mgrwt>
<rscale>  0 0.70676104E+03</rscale>
<asrwt>0</asrwt>
<pdfrwt beam="1">  1        2 0.27182095E+00 0.80234928E+03</pdfrwt>
<pdfrwt beam="2">  1       -2 0.62923398E-01 0.80234928E+03</pdfrwt>
<totfact> 0.21539763E+01</totfact>
</mgrwt>
</event>
<event>
 4    2  0.5653860E-007  0.8341092E+03  0.7818608E-02  0.9641390E-01
         -2   -1    0    0    0  501 -0.00000000000E+00  0.00000000000E+00  0.11287560348E+04  0.11287560348E+04  0.25500000000E-02 0.  1.
          2   -1    0    0  501    0  0.00000000000E+00 -0.00000000000E+00 -0.17639263692E+04  0.17639263692E+04  0.25500000000E-02 0. -1.
    8880023    1    1    2    0    0  0.40946907295E+03  0.30702278451E+03  0.92385656272E+03  0.12446883412E+04  0.65864270000E+03 0.  0.
    8880022    1    1    2    0    0 -0.40946907295E+03 -0.30702278451E+03 -0.15590268972E+04  0.16479940628E+04  0.15294330000E+03 0.  0.
<mgrwt>
<rscale>  0 0.74616284E+03</rscale>
<asrwt>0</asrwt>
<pdfrwt beam="1">  1        2 0.27137329E+00 0.83410918E+03</pdfrwt>
<pdfrwt beam="2">  1       -2 0.17365477E+00 0.83410918E+03</pdfrwt>
<totfact> 0.18500525E+00</totfact>
</mgrwt>
</event>
<event>
 4    2  0.3388003E-007  0.1080391E+04  0.7818608E-02  0.9283209E-01
          2   -1    0    0  501    0  0.00000000000E+00  0.00000000000E+00  0.17962063855E+04  0.17962063855E+04  0.25500000000E-02 0. -1.
         -2   -1    0    0    0  501 -0.00000000000E+00 -0.00000000000E+00 -0.11672170990E+04  0.11672170990E+04  0.25500000000E-02 0.  1.
    8880023    1    1    2    0    0 -0.78781252914E+03  0.33583575950E+03 -0.76250059033E+03  0.13223659081E+04  0.65864270000E+03 0.  1.
    8880022    1    1    2    0    0  0.78781252914E+03 -0.33583575950E+03  0.13914898769E+04  0.16410575763E+04  0.15294330000E+03 0.  0.
<mgrwt>
<rscale>  0 0.10234348E+04</rscale>
<asrwt>0</asrwt>
<pdfrwt beam="1">  1        2 0.27633944E+00 0.10803909E+04</pdfrwt>
<pdfrwt beam="2">  1       -2 0.17957186E+00 0.10803909E+04</pdfrwt>
<totfact> 0.15589569E+00</totfact>
</mgrwt>
</event>
<event>
 4    2  0.3388003E-007  0.6764315E+03  0.7818608E-02  0.1011419E+00
          2   -1    0    0  501    0  0.00000000000E+00  0.00000000000E+00  0.21422632933E+04  0.21422632933E+04  0.25500000000E-02 0. -1.
         -2   -1    0    0    0  501 -0.00000000000E+00 -0.00000000000E+00 -0.23939900656E+03  0.23939900657E+03  0.25500000000E-02 0.  1.
    8880023    1    1    2    0    0 -0.81223651050E+02 -0.13096582862E+03  0.26026246445E+03  0.72477312755E+03  0.65864270000E+03 0.  1.
    8880022    1    1    2    0    0  0.81223651050E+02  0.13096582862E+03  0.16426018223E+04  0.16568891723E+04  0.15294330000E+03 0.  0.
<mgrwt>
<rscale>  0 0.50914641E+03</rscale>
<asrwt>0</asrwt>
<pdfrwt beam="1">  1        2 0.32957897E+00 0.67643147E+03</pdfrwt>
<pdfrwt beam="2">  1       -2 0.36830617E-01 0.67643147E+03</pdfrwt>
<totfact> 0.40354772E+01</totfact>
</mgrwt>
</event>
<event>
 4    2  0.3388003E-007  0.8041992E+03  0.7818608E-02  0.9701789E-01
          2   -1    0    0  501    0  0.00000000000E+00  0.00000000000E+00  0.42428794919E+04  0.42428794919E+04  0.25500000000E-02 0. -1.
         -2   -1    0    0    0  501 -0.00000000000E+00 -0.00000000000E+00 -0.10809549317E+03  0.10809549320E+03  0.25500000000E-02 0.  1.
    8880023    1    1    2    0    0  0.17153245781E+03 -0.42837219993E+03  0.18869234232E+04  0.20511500036E+04  0.65864270000E+03 0.  1.
    8880022    1    1    2    0    0 -0.17153245781E+03  0.42837219993E+03  0.22478605755E+04  0.22998249815E+04  0.15294330000E+03 0.  0.
<mgrwt>
<rscale>  0 0.70910373E+03</rscale>
<asrwt>0</asrwt>
<pdfrwt beam="1">  1        2 0.65275076E+00 0.80419919E+03</pdfrwt>
<pdfrwt beam="2">  1       -2 0.16630074E-01 0.80419919E+03</pdfrwt>
<totfact> 0.69138019E+00</totfact>
</mgrwt>
</event>
<event>
 4    2  0.3388003E-007  0.6895910E+03  0.7818608E-02  0.1004348E+00
          2   -1    0    0  501    0  0.00000000000E+00  0.00000000000E+00  0.10910915233E+04  0.10910915233E+04  0.25500000000E-02 0. -1.
         -2   -1    0    0    0  501 -0.00000000000E+00 -0.00000000000E+00 -0.27279133723E+03  0.27279133724E+03  0.25500000000E-02 0.  1.
    8880023    1    1    2    0    0 -0.18120666202E+03  0.94285049753E+02  0.86314957772E+03  0.11047908964E+04  0.65864270000E+03 0. -1.
    8880022    1    1    2    0    0  0.18120666202E+03 -0.94285049753E+02 -0.44849391616E+02  0.25909196419E+03  0.15294330000E+03 0.  0.
<mgrwt>
<rscale>  0 0.53784313E+03</rscale>
<asrwt>0</asrwt>
<pdfrwt beam="1">  1        2 0.16786023E+00 0.68959099E+03</pdfrwt>
<pdfrwt beam="2">  1       -2 0.41967899E-01 0.68959099E+03</pdfrwt>
<totfact> 0.12085801E+02</totfact>
</mgrwt>
</event>
<event>
 4    2  0.3388003E-007  0.7512124E+03  0.7818608E-02  0.9828413E-01
         -2   -1    0    0    0  501 -0.00000000000E+00  0.00000000000E+00  0.32733379603E+03  0.32733379604E+03  0.25500000000E-02 0.  1.
          2   -1    0    0  501    0  0.00000000000E+00 -0.00000000000E+00 -0.19963549171E+04  0.19963549171E+04  0.25500000000E-02 0. -1.
    8880023    1    1    2    0    0 -0.34561625352E+03 -0.10516271307E+03 -0.16469935808E+03  0.76905518380E+03  0.65864270000E+03 0.  1.
    8880022    1    1    2    0    0  0.34561625352E+03  0.10516271307E+03 -0.15043217630E+04  0.15546335293E+04  0.15294330000E+03 0.  0.
<mgrwt>
<rscale>  0 0.63859774E+03</rscale>
<asrwt>0</asrwt>
<pdfrwt beam="1">  1        2 0.30713152E+00 0.75121235E+03</pdfrwt>
<pdfrwt beam="2">  1       -2 0.50359047E-01 0.75121235E+03</pdfrwt>
<totfact> 0.25856615E+01</totfact>
</mgrwt>
</event>
<event>
 4    2  0.3388003E-007  0.1026664E+04  0.7818608E-02  0.9347475E-01
         -2   -1    0    0    0  501 -0.00000000000E+00  0.00000000000E+00  0.51711422105E+03  0.51711422106E+03  0.25500000000E-02 0.  1.
          2   -1    0    0  501    0  0.00000000000E+00 -0.00000000000E+00 -0.17679210883E+04  0.17679210883E+04  0.25500000000E-02 0. -1.
    8880023    1    1    2    0    0 -0.48267714165E+03 -0.62229568047E+03 -0.36422720738E+03  0.10893579769E+04  0.65864270000E+03 0.  0.
    8880022    1    1    2    0    0  0.48267714165E+03  0.62229568047E+03 -0.88657965986E+03  0.11956773324E+04  0.15294330000E+03 0.  0.
<mgrwt>
<rscale>  0 0.96527279E+03</rscale>
<asrwt>0</asrwt>
<pdfrwt beam="1">  1        2 0.27198786E+00 0.10266642E+04</pdfrwt>
<pdfrwt beam="2">  1       -2 0.79556035E-01 0.10266642E+04</pdfrwt>
<totfact> 0.12542323E+01</totfact>
</mgrwt>
</event>
<event>
 4    2  0.3388003E-007  0.8582033E+03  0.7818608E-02  0.9596767E-01
         -2   -1    0    0    0  501 -0.00000000000E+00  0.00000000000E+00  0.36857099240E+03  0.36857099241E+03  0.25500000000E-02 0.  1.
          2   -1    0    0  501    0  0.00000000000E+00 -0.00000000000E+00 -0.44264251067E+04  0.44264251067E+04  0.25500000000E-02 0. -1.
    8880023    1    1    2    0    0 -0.42451947918E+03 -0.34997999109E+03 -0.18198614132E+03  0.87728669445E+03  0.65864270000E+03 0.  0.
    8880022    1    1    2    0    0  0.42451947918E+03  0.34997999109E+03 -0.38758679730E+04  0.39177094046E+04  0.15294330000E+03 0.  0.
<mgrwt>
<rscale>  0 0.77510507E+03</rscale>
<asrwt>0</asrwt>
<pdfrwt beam="1">  1        2 0.68098844E+00 0.85820335E+03</pdfrwt>
<pdfrwt beam="2">  1       -2 0.56703233E-01 0.85820335E+03</pdfrwt>
<totfact> 0.46781290E-01</totfact>
</mgrwt>
</event>
<event>
 4    2  0.3388003E-007  0.1094353E+04  0.7818608E-02  0.9267369E-01
          2   -1    0    0  501    0  0.00000000000E+00  0.00000000000E+00  0.13301060131E+04  0.13301060131E+04  0.25500000000E-02 0. -1.
         -2   -1    0    0    0  501 -0.00000000000E+00 -0.00000000000E+00 -0.32770440722E+04  0.32770440722E+04  0.25500000000E-02 0.  1.
    8880023    1    1    2    0    0  0.86332760617E+03 -0.13588366262E+03 -0.30215365843E+04  0.32136105025E+04  0.65864270000E+03 0.  1.
    8880022    1    1    2    0    0 -0.86332760617E+03  0.13588366262E+03  0.10745985252E+04  0.13935395828E+04  0.15294330000E+03 0.  0.
<mgrwt>
<rscale>  0 0.10384322E+04</rscale>
<asrwt>0</asrwt>
<pdfrwt beam="1">  1        2 0.20463170E+00 0.10943533E+04</pdfrwt>
<pdfrwt beam="2">  1       -2 0.50416062E+00 0.10943533E+04</pdfrwt>
<totfact> 0.24481396E-02</totfact>
</mgrwt>
</event>
<event>
 4    2  0.3388003E-007  0.7487216E+03  0.7818608E-02  0.9835233E-01
         -2   -1    0    0    0  501 -0.00000000000E+00  0.00000000000E+00  0.41532699279E+03  0.41532699280E+03  0.25500000000E-02 0.  1.
          2   -1    0    0  501    0  0.00000000000E+00 -0.00000000000E+00 -0.90246760949E+03  0.90246760950E+03  0.25500000000E-02 0. -1.
    8880023    1    1    2    0    0 -0.10052070197E+03  0.34156911312E+03 -0.75607973081E+02  0.75252949605E+03  0.65864270000E+03 0.  1.
    8880022    1    1    2    0    0  0.10052070197E+03 -0.34156911312E+03 -0.41153264362E+03  0.56526510625E+03  0.15294330000E+03 0.  0.
<mgrwt>
<rscale>  0 0.63505533E+03</rscale>
<asrwt>0</asrwt>
<pdfrwt beam="1">  1        2 0.13884117E+00 0.74872163E+03</pdfrwt>
<pdfrwt beam="2">  1       -2 0.63896461E-01 0.74872163E+03</pdfrwt>
<totfact> 0.67090495E+01</totfact>
</mgrwt>
</event>
<event>
 4    2  0.3388003E-007  0.1130915E+04  0.7818608E-02  0.9227393E-01
         -2   -1    0    0    0  501 -0.00000000000E+00  0.00000000000E+00  0.12291204095E+04  0.12291204095E+04  0.25500000000E-02 0.  1.
          2   -1    0    0  501    0  0.00000000000E+00 -0.00000000000E+00 -0.13036643288E+04  0.13036643288E+04  0.25500000000E-02 0. -1.
    8880023    1    1    2    0    0 -0.91432402067E+03  0.95755612895E+02  0.69221300143E+03  0.13259436631E+04  0.65864270000E+03 0.  0.
    8880022    1    1    2    0    0  0.91432402067E+03 -0.95755612895E+02 -0.76675692080E+03  0.12068410752E+04  0.15294330000E+03 0.  0.
<mgrwt>
<rscale>  0 0.10775109E+04</rscale>
<asrwt>0</asrwt>
<pdfrwt beam="1">  1        2 0.20056374E+00 0.11309146E+04</pdfrwt>
<pdfrwt beam="2">  1       -2 0.18909545E+00 0.11309146E+04</pdfrwt>
<totfact> 0.25277290E+00</totfact>
</mgrwt>
</event>
<event>
 4    2  0.3388003E-007  0.6676162E+03  0.7818608E-02  0.1017433E+00
         -2   -1    0    0    0  501 -0.00000000000E+00  0.00000000000E+00  0.18205771044E+04  0.18205771044E+04  0.25500000000E-02 0.  1.
          2   -1    0    0  501    0  0.00000000000E+00 -0.00000000000E+00 -0.37883184920E+03  0.37883184921E+03  0.25500000000E-02 0. -1.
    8880023    1    1    2    0    0  0.10896599902E+03 -0.52584654611E+01  0.17305591858E+04  0.18548710312E+04  0.65864270000E+03 0.  1.
    8880022    1    1    2    0    0 -0.10896599902E+03  0.52584654611E+01 -0.28881393067E+03  0.34453792239E+03  0.15294330000E+03 0.  0.
<mgrwt>
<rscale>  0 0.48624604E+03</rscale>
<asrwt>0</asrwt>
<pdfrwt beam="1">  1        2 0.58281823E-01 0.66761624E+03</pdfrwt>
<pdfrwt beam="2">  1       -2 0.28008879E+00 0.66761624E+03</pdfrwt>
<totfact> 0.37261075E+00</totfact>
</mgrwt>
</event>
<event>
 4    2  0.3388003E-007  0.9419609E+03  0.7818608E-02  0.9461776E-01
          2   -1    0    0  501    0  0.00000000000E+00  0.00000000000E+00  0.37919493300E+04  0.37919493300E+04  0.25500000000E-02 0. -1.
         -2   -1    0    0    0  501 -0.00000000000E+00 -0.00000000000E+00 -0.18789373466E+03  0.18789373468E+03  0.25500000000E-02 0.  1.
    8880023    1    1    2    0    0 -0.64147630813E+03 -0.20491035674E+03  0.15604486864E+04  0.18227151223E+04  0.65864270000E+03 0.  0.
    8880022    1    1    2    0    0  0.64147630813E+03  0.20491035674E+03  0.20436069090E+04  0.21571279423E+04  0.15294330000E+03 0.  1.
<mgrwt>
<rscale>  0 0.87161532E+03</rscale>
<asrwt>0</asrwt>
<pdfrwt beam="1">  1        2 0.58337679E+00 0.94196089E+03</pdfrwt>
<pdfrwt beam="2">  1       -2 0.28906730E-01 0.94196089E+03</pdfrwt>
<totfact> 0.57779065E+00</totfact>
</mgrwt>
</event>
<event>
 4    2  0.3388003E-007  0.7083163E+03  0.7818608E-02  0.9964307E-01
         -2   -1    0    0    0  501 -0.00000000000E+00  0.00000000000E+00  0.61220556132E+03  0.61220556133E+03  0.25500000000E-02 0.  1.
          2   -1    0    0  501    0  0.00000000000E+00 -0.00000000000E+00 -0.42987969656E+03  0.42987969657E+03  0.25500000000E-02 0. -1.
    8880023    1    1    2    0    0  0.19536004471E+03  0.17244207803E+03  0.20968388130E+03  0.73870112609E+03  0.65864270000E+03 0.  1.
    8880022    1    1    2    0    0 -0.19536004471E+03 -0.17244207803E+03 -0.27358016535E+02  0.30338413180E+03  0.15294330000E+03 0. -1.
<mgrwt>
<rscale>  0 0.57243398E+03</rscale>
<asrwt>0</asrwt>
<pdfrwt beam="1">  1        2 0.66135338E-01 0.70831633E+03</pdfrwt>
<pdfrwt beam="2">  1       -2 0.94185471E-01 0.70831633E+03</pdfrwt>
<totfact> 0.70624992E+01</totfact>
</mgrwt>
</event>
<event>
 4    2  0.3388003E-007  0.1317257E+04  0.7818608E-02  0.9050798E-01
         -2   -1    0    0    0  501 -0.00000000000E+00  0.00000000000E+00  0.19968595272E+04  0.19968595272E+04  0.25500000000E-02 0.  1.
          2   -1    0    0  501    0  0.00000000000E+00 -0.00000000000E+00 -0.10040490483E+04  0.10040490483E+04  0.25500000000E-02 0. -1.
    8880023    1    1    2    0    0  0.13648315988E+03  0.11325764347E+04  0.12561534654E+04  0.18201892122E+04  0.65864270000E+03 0.  0.
    8880022    1    1    2    0    0 -0.13648315988E+03 -0.11325764347E+04 -0.26334298647E+03  0.11807193633E+04  0.15294330000E+03 0.  0.
<mgrwt>
<rscale>  0 0.12735608E+04</rscale>
<asrwt>0</asrwt>
<pdfrwt beam="1">  1        2 0.15446908E+00 0.13172575E+04</pdfrwt>
<pdfrwt beam="2">  1       -2 0.30720916E+00 0.13172575E+04</pdfrwt>
<totfact> 0.69417407E-01</totfact>
</mgrwt>
</event>
<event>
 4    2  0.3388003E-007  0.6595736E+03  0.7818608E-02  0.1024598E+00
         -2   -1    0    0    0  501 -0.00000000000E+00  0.00000000000E+00  0.13109370762E+03  0.13109370765E+03  0.25500000000E-02 0.  1.
          2   -1    0    0  501    0  0.00000000000E+00 -0.00000000000E+00 -0.27666633801E+04  0.27666633801E+04  0.25500000000E-02 0. -1.
    8880023    1    1    2    0    0 -0.17365876019E+02  0.30423822545E+02 -0.72258621864E+03  0.97834974946E+03  0.65864270000E+03 0.  1.
    8880022    1    1    2    0    0  0.17365876019E+02 -0.30423822545E+02 -0.19129834538E+04  0.19194073383E+04  0.15294330000E+03 0.  0.
<mgrwt>
<rscale>  0 0.46063391E+03</rscale>
<asrwt>0</asrwt>
<pdfrwt beam="1">  1        2 0.42564048E+00 0.65957364E+03</pdfrwt>
<pdfrwt beam="2">  1       -2 0.20168265E-01 0.65957364E+03</pdfrwt>
<totfact> 0.54089240E+01</totfact>
</mgrwt>
</event>
<event>
 4    2  0.3388003E-007  0.1342397E+04  0.7818608E-02  0.9029786E-01
         -2   -1    0    0    0  501 -0.00000000000E+00  0.00000000000E+00  0.12245370878E+04  0.12245370878E+04  0.25500000000E-02 0.  1.
          2   -1    0    0  501    0  0.00000000000E+00 -0.00000000000E+00 -0.17608717809E+04  0.17608717809E+04  0.25500000000E-02 0. -1.
    8880023    1    1    2    0    0  0.10214006472E+04  0.57005224506E+03 -0.10445614709E+04  0.17009226076E+04  0.65864270000E+03 0.  0.
    8880022    1    1    2    0    0 -0.10214006472E+04 -0.57005224506E+03  0.50822677784E+03  0.12844862611E+04  0.15294330000E+03 0.  0.
<mgrwt>
<rscale>  0 0.12997217E+04</rscale>
<asrwt>0</asrwt>
<pdfrwt beam="1">  1        2 0.27090335E+00 0.13423968E+04</pdfrwt>
<pdfrwt beam="2">  1       -2 0.18839032E+00 0.13423968E+04</pdfrwt>
<totfact> 0.13776678E+00</totfact>
</mgrwt>
</event>
<event>
 4    2  0.3388003E-007  0.6638310E+03  0.7818608E-02  0.1020535E+00
          2   -1    0    0  501    0  0.00000000000E+00  0.00000000000E+00  0.34772901341E+04  0.34772901341E+04  0.25500000000E-02 0. -1.
         -2   -1    0    0    0  501 -0.00000000000E+00 -0.00000000000E+00 -0.54690057489E+02  0.54690057549E+02  0.25500000000E-02 0.  1.
    8880023    1    1    2    0    0  0.68944126740E+02  0.45913828399E+02  0.22282371677E+04  0.23250188072E+04  0.65864270000E+03 0.  1.
    8880022    1    1    2    0    0 -0.68944126740E+02 -0.45913828399E+02  0.11943629089E+04  0.12069613844E+04  0.15294330000E+03 0.  0.
<mgrwt>
<rscale>  0 0.47494054E+03</rscale>
<asrwt>0</asrwt>
<pdfrwt beam="1">  1        2 0.53496788E+00 0.66383099E+03</pdfrwt>
<pdfrwt beam="2">  1       -2 0.84138524E-02 0.66383099E+03</pdfrwt>
<totfact> 0.83339510E+01</totfact>
</mgrwt>
</event>
<event>
 4    2  0.3388003E-007  0.7169567E+03  0.7818608E-02  0.9933021E-01
          2   -1    0    0  501    0  0.00000000000E+00  0.00000000000E+00  0.18027081817E+04  0.18027081817E+04  0.25500000000E-02 0. -1.
         -2   -1    0    0    0  501 -0.00000000000E+00 -0.00000000000E+00 -0.65481161526E+03  0.65481161526E+03  0.25500000000E-02 0.  1.
    8880023    1    1    2    0    0  0.84168578736E+02 -0.27042988761E+03 -0.43741784131E+03  0.83985787364E+03  0.65864270000E+03 0.  1.
    8880022    1    1    2    0    0 -0.84168578736E+02  0.27042988761E+03  0.15853144077E+04  0.16176619233E+04  0.15294330000E+03 0.  0.
<mgrwt>
<rscale>  0 0.58687285E+03</rscale>
<asrwt>0</asrwt>
<pdfrwt beam="1">  1        2 0.27733971E+00 0.71695668E+03</pdfrwt>
<pdfrwt beam="2">  1       -2 0.10074025E+00 0.71695668E+03</pdfrwt>
<totfact> 0.72334484E+00</totfact>
</mgrwt>
</event>
<event>
 4    2  0.3388003E-007  0.9556465E+03  0.7818608E-02  0.9442036E-01
         -2   -1    0    0    0  501 -0.00000000000E+00  0.00000000000E+00  0.44106137104E+03  0.44106137105E+03  0.25500000000E-02 0.  1.
          2   -1    0    0  501    0  0.00000000000E+00 -0.00000000000E+00 -0.18805009195E+04  0.18805009196E+04  0.25500000000E-02 0. -1.
    8880023    1    1    2    0    0 -0.69145447709E+03 -0.36614775591E+02 -0.34208295933E+03  0.10150275331E+04  0.65864270000E+03 0.  1.
    8880022    1    1    2    0    0  0.69145447709E+03  0.36614775591E+02 -0.10973565892E+04  0.13065347575E+04  0.15294330000E+03 0.  0.
<mgrwt>
<rscale>  0 0.88695551E+03</rscale>
<asrwt>0</asrwt>
<pdfrwt beam="1">  1        2 0.28930783E+00 0.95564645E+03</pdfrwt>
<pdfrwt beam="2">  1       -2 0.67855596E-01 0.95564645E+03</pdfrwt>
<totfact> 0.15585292E+01</totfact>
</mgrwt>
</event>
<event>
 4    2  0.3388003E-007  0.7436372E+03  0.7818608E-02  0.9849476E-01
          2   -1    0    0  501    0  0.00000000000E+00  0.00000000000E+00  0.12359534799E+04  0.12359534799E+04  0.25500000000E-02 0. -1.
         -2   -1    0    0    0  501 -0.00000000000E+00 -0.00000000000E+00 -0.33564019782E+03  0.33564019783E+03  0.25500000000E-02 0.  1.
    8880023    1    1    2    0    0  0.21183959947E+01  0.34522695176E+03  0.19058557035E+03  0.76767128493E+03  0.65864270000E+03 0.  1.
    8880022    1    1    2    0    0 -0.21183959947E+01 -0.34522695176E+03  0.70972771172E+03  0.80392239278E+03  0.15294330000E+03 0.  0.
<mgrwt>
<rscale>  0 0.62773643E+03</rscale>
<asrwt>0</asrwt>
<pdfrwt beam="1">  1        2 0.19014669E+00 0.74363724E+03</pdfrwt>
<pdfrwt beam="2">  1       -2 0.51636953E-01 0.74363724E+03</pdfrwt>
<totfact> 0.65012712E+01</totfact>
</mgrwt>
</event>
<event>
 4    2  0.3388003E-007  0.8189076E+03  0.7818608E-02  0.9671313E-01
         -2   -1    0    0    0  501 -0.00000000000E+00  0.00000000000E+00  0.97446565080E+03  0.97446565080E+03  0.25500000000E-02 0.  1.
          2   -1    0    0  501    0  0.00000000000E+00 -0.00000000000E+00 -0.11362036249E+04  0.11362036249E+04  0.25500000000E-02 0. -1.
    8880023    1    1    2    0    0 -0.34773954108E+03 -0.34040661353E+03  0.72104800557E+03  0.10911094737E+04  0.65864270000E+03 0.  0.
    8880022    1    1    2    0    0  0.34773954108E+03  0.34040661353E+03 -0.88278597971E+03  0.10195598021E+04  0.15294330000E+03 0. -1.
<mgrwt>
<rscale>  0 0.72750793E+03</rscale>
<asrwt>0</asrwt>
<pdfrwt beam="1">  1        2 0.17480056E+00 0.81890760E+03</pdfrwt>
<pdfrwt beam="2">  1       -2 0.14991779E+00 0.81890760E+03</pdfrwt>
<totfact> 0.62812393E+00</totfact>
</mgrwt>
</event>
<event>
 4    2  0.3388003E-007  0.1308510E+04  0.7818608E-02  0.9058245E-01
          2   -1    0    0  501    0  0.00000000000E+00  0.00000000000E+00  0.84603892687E+03  0.84603892688E+03  0.25500000000E-02 0. -1.
         -2   -1    0    0    0  501 -0.00000000000E+00 -0.00000000000E+00 -0.22496671398E+04  0.22496671398E+04  0.25500000000E-02 0.  1.
    8880023    1    1    2    0    0  0.78615639303E+03  0.81261738793E+03 -0.14508713119E+04  0.19537724185E+04  0.65864270000E+03 0.  1.
    8880022    1    1    2    0    0 -0.78615639303E+03 -0.81261738793E+03  0.47243098924E+02  0.11419336482E+04  0.15294330000E+03 0.  0.
<mgrwt>
<rscale>  0 0.12644454E+04</rscale>
<asrwt>0</asrwt>
<pdfrwt beam="1">  1        2 0.13015984E+00 0.13085103E+04</pdfrwt>
<pdfrwt beam="2">  1       -2 0.34610263E+00 0.13085103E+04</pdfrwt>
<totfact> 0.51098685E-01</totfact>
</mgrwt>
</event>
<event>
 4    2  0.3388003E-007  0.1235739E+04  0.7818608E-02  0.9123141E-01
          2   -1    0    0  501    0  0.00000000000E+00  0.00000000000E+00  0.20747528584E+04  0.20747528584E+04  0.25500000000E-02 0. -1.
         -2   -1    0    0    0  501 -0.00000000000E+00 -0.00000000000E+00 -0.81489420239E+03  0.81489420240E+03  0.25500000000E-02 0.  1.
    8880023    1    1    2    0    0 -0.99052957193E+03 -0.33480021154E+03 -0.12374089776E+02  0.12358006874E+04  0.65864270000E+03 0.  0.
    8880022    1    1    2    0    0  0.99052957193E+03  0.33480021154E+03  0.12722327458E+04  0.16538463735E+04  0.15294330000E+03 0.  0.
<mgrwt>
<rscale>  0 0.11883209E+04</rscale>
<asrwt>0</asrwt>
<pdfrwt beam="1">  1        2 0.31919274E+00 0.12357387E+04</pdfrwt>
<pdfrwt beam="2">  1       -2 0.12536834E+00 0.12357387E+04</pdfrwt>
<totfact> 0.28093050E+00</totfact>
</mgrwt>
</event>
<event>
 4    2  0.3388003E-007  0.7354212E+03  0.7818608E-02  0.9873491E-01
         -2   -1    0    0    0  501 -0.00000000000E+00  0.00000000000E+00  0.26690615623E+03  0.26690615624E+03  0.25500000000E-02 0.  1.
          2   -1    0    0  501    0  0.00000000000E+00 -0.00000000000E+00 -0.21194201477E+04  0.21194201477E+04  0.25500000000E-02 0. -1.
    8880023    1    1    2    0    0  0.16779206043E+03 -0.28085580327E+03 -0.30318941697E+03  0.79546727563E+03  0.65864270000E+03 0.  1.
    8880022    1    1    2    0    0 -0.16779206043E+03  0.28085580327E+03 -0.15493245745E+04  0.15908590283E+04  0.15294330000E+03 0.  0.
<mgrwt>
<rscale>  0 0.61563395E+03</rscale>
<asrwt>0</asrwt>
<pdfrwt beam="1">  1        2 0.32606463E+00 0.73542122E+03</pdfrwt>
<pdfrwt beam="2">  1       -2 0.41062487E-01 0.73542122E+03</pdfrwt>
<totfact> 0.33364028E+01</totfact>
</mgrwt>
</event>
<event>
 4    2  0.3388003E-007  0.9215983E+03  0.7818608E-02  0.9492213E-01
          2   -1    0    0  501    0  0.00000000000E+00  0.00000000000E+00  0.42161392199E+04  0.42161392199E+04  0.25500000000E-02 0. -1.
         -2   -1    0    0    0  501 -0.00000000000E+00 -0.00000000000E+00 -0.71878429733E+03  0.71878429733E+03  0.25500000000E-02 0.  1.
    8880023    1    1    2    0    0 -0.19237336197E+03 -0.61524449874E+03 -0.38329443104E+03  0.99812731190E+03  0.65864270000E+03 0.  1.
    8880022    1    1    2    0    0  0.19237336197E+03  0.61524449874E+03  0.38806493536E+04  0.39367962053E+04  0.15294330000E+03 0.  0.
<mgrwt>
<rscale>  0 0.84860395E+03</rscale>
<asrwt>0</asrwt>
<pdfrwt beam="1">  1        2 0.64863681E+00 0.92159835E+03</pdfrwt>
<pdfrwt beam="2">  1       -2 0.11058220E+00 0.92159835E+03</pdfrwt>
<totfact> 0.15739484E-01</totfact>
</mgrwt>
</event>
<event>
 4    2  0.3388003E-007  0.7091705E+03  0.7818608E-02  0.9961094E-01
          2   -1    0    0  501    0  0.00000000000E+00  0.00000000000E+00  0.68393161612E+03  0.68393161613E+03  0.25500000000E-02 0. -1.
         -2   -1    0    0    0  501 -0.00000000000E+00 -0.00000000000E+00 -0.37547846956E+03  0.37547846957E+03  0.25500000000E-02 0.  1.
    8880023    1    1    2    0    0  0.17302315305E+03 -0.19792817782E+03  0.20629020040E+03  0.73856511434E+03  0.65864270000E+03 0.  0.
    8880022    1    1    2    0    0 -0.17302315305E+03  0.19792817782E+03  0.10216294616E+03  0.32084497136E+03  0.15294330000E+03 0.  1.
<mgrwt>
<rscale>  0 0.57389599E+03</rscale>
<asrwt>0</asrwt>
<pdfrwt beam="1">  1        2 0.10522025E+00 0.70917049E+03</pdfrwt>
<pdfrwt beam="2">  1       -2 0.57765919E-01 0.70917049E+03</pdfrwt>
<totfact> 0.12001459E+02</totfact>
</mgrwt>
</event>
<event>
 4    2  0.3388003E-007  0.9614477E+03  0.7818608E-02  0.9433831E-01
          2   -1    0    0  501    0  0.00000000000E+00  0.00000000000E+00  0.29966127584E+04  0.29966127584E+04  0.25500000000E-02 0. -1.
         -2   -1    0    0    0  501 -0.00000000000E+00 -0.00000000000E+00 -0.57764985455E+03  0.57764985455E+03  0.25500000000E-02 0.  1.
    8880023    1    1    2    0    0 -0.47084721842E+03 -0.51853105357E+03 -0.89272332309E+02  0.96558340509E+03  0.65864270000E+03 0.  1.
    8880022    1    1    2    0    0  0.47084721842E+03  0.51853105357E+03  0.25082352361E+04  0.26086792078E+04  0.15294330000E+03 0.  0.
<mgrwt>
<rscale>  0 0.89343049E+03</rscale>
<asrwt>0</asrwt>
<pdfrwt beam="1">  1        2 0.46101734E+00 0.96144774E+03</pdfrwt>
<pdfrwt beam="2">  1       -2 0.88869209E-01 0.96144774E+03</pdfrwt>
<totfact> 0.19545895E+00</totfact>
</mgrwt>
</event>
<event>
 4    2  0.3388003E-007  0.6621442E+03  0.7818608E-02  0.1022060E+00
          2   -1    0    0  501    0  0.00000000000E+00  0.00000000000E+00  0.11762251495E+04  0.11762251495E+04  0.25500000000E-02 0. -1.
         -2   -1    0    0    0  501 -0.00000000000E+00 -0.00000000000E+00 -0.22211934575E+03  0.22211934576E+03  0.25500000000E-02 0.  1.
    8880023    1    1    2    0    0 -0.67953907338E+02 -0.26532684524E+01  0.30683631227E+03  0.72978318845E+03  0.65864270000E+03 0.  1.
    8880022    1    1    2    0    0  0.67953907338E+02  0.26532684524E+01  0.64726949145E+03  0.66856130679E+03  0.15294330000E+03 0.  0.
<mgrwt>
<rscale>  0 0.46950589E+03</rscale>
<asrwt>0</asrwt>
<pdfrwt beam="1">  1        2 0.18095772E+00 0.66214423E+03</pdfrwt>
<pdfrwt beam="2">  1       -2 0.34172207E-01 0.66214423E+03</pdfrwt>
<totfact> 0.15995676E+02</totfact>
</mgrwt>
</event>
<event>
 4    2  0.3388003E-007  0.8335690E+03  0.7818608E-02  0.9642428E-01
         -2   -1    0    0    0  501 -0.00000000000E+00  0.00000000000E+00  0.15558696995E+03  0.15558696997E+03  0.25500000000E-02 0.  1.
          2   -1    0    0  501    0  0.00000000000E+00 -0.00000000000E+00 -0.37451423625E+04  0.37451423625E+04  0.25500000000E-02 0. -1.
    8880023    1    1    2    0    0  0.38961609125E+03  0.33049413515E+03 -0.29625782306E+04  0.30776138567E+04  0.65864270000E+03 0.  0.
    8880022    1    1    2    0    0 -0.38961609125E+03 -0.33049413515E+03 -0.62697716191E+03  0.82311547580E+03  0.15294330000E+03 0.  0.
<mgrwt>
<rscale>  0 0.74550565E+03</rscale>
<asrwt>0</asrwt>
<pdfrwt beam="1">  1        2 0.57617568E+00 0.83356900E+03</pdfrwt>
<pdfrwt beam="2">  1       -2 0.23936460E-01 0.83356900E+03</pdfrwt>
<totfact> 0.89887292E+00</totfact>
</mgrwt>
</event>
<event>
 4    2  0.3388003E-007  0.6669189E+03  0.7818608E-02  0.1017975E+00
         -2   -1    0    0    0  501 -0.00000000000E+00  0.00000000000E+00  0.73464495000E+03  0.73464495000E+03  0.25500000000E-02 0.  1.
          2   -1    0    0  501    0  0.00000000000E+00 -0.00000000000E+00 -0.10616355710E+04  0.10616355710E+04  0.25500000000E-02 0. -1.
    8880023    1    1    2    0    0  0.98455975131E+02 -0.35735392449E+02  0.57185401406E+03  0.87852024278E+03  0.65864270000E+03 0.  1.
    8880022    1    1    2    0    0 -0.98455975131E+02  0.35735392449E+02 -0.89884463508E+03  0.91776027825E+03  0.15294330000E+03 0.  0.
<mgrwt>
<rscale>  0 0.48424480E+03</rscale>
<asrwt>0</asrwt>
<pdfrwt beam="1">  1        2 0.16332855E+00 0.66691889E+03</pdfrwt>
<pdfrwt beam="2">  1       -2 0.11302230E+00 0.66691889E+03</pdfrwt>
<totfact> 0.14553231E+01</totfact>
</mgrwt>
</event>
<event>
 4    2  0.3388003E-007  0.7487278E+03  0.7818608E-02  0.9835216E-01
         -2   -1    0    0    0  501 -0.00000000000E+00  0.00000000000E+00  0.42487301682E+03  0.42487301682E+03  0.25500000000E-02 0.  1.
          2   -1    0    0  501    0  0.00000000000E+00 -0.00000000000E+00 -0.11115588492E+04  0.11115588492E+04  0.25500000000E-02 0. -1.
    8880023    1    1    2    0    0 -0.16209477186E+03 -0.31703047811E+03 -0.89998513208E+00  0.74872829207E+03  0.65864270000E+03 0.  1.
    8880022    1    1    2    0    0  0.16209477186E+03  0.31703047811E+03 -0.68578584722E+03  0.78770357392E+03  0.15294330000E+03 0.  0.
<mgrwt>
<rscale>  0 0.63506407E+03</rscale>
<asrwt>0</asrwt>
<pdfrwt beam="1">  1        2 0.17100905E+00 0.74872775E+03</pdfrwt>
<pdfrwt beam="2">  1       -2 0.65365080E-01 0.74872775E+03</pdfrwt>
<totfact> 0.47009425E+01</totfact>
</mgrwt>
</event>
<event>
 4    2  0.3388003E-007  0.7383828E+03  0.7818608E-02  0.9864683E-01
         -2   -1    0    0    0  501 -0.00000000000E+00  0.00000000000E+00  0.11912789854E+03  0.11912789857E+03  0.25500000000E-02 0.  1.
          2   -1    0    0  501    0  0.00000000000E+00 -0.00000000000E+00 -0.32460518639E+04  0.32460518639E+04  0.25500000000E-02 0. -1.
    8880023    1    1    2    0    0  0.31938786207E+03 -0.96903966680E+02 -0.12426493062E+04  0.14454710269E+04  0.65864270000E+03 0.  1.
    8880022    1    1    2    0    0 -0.31938786207E+03  0.96903966680E+02 -0.18842746592E+04  0.19197087356E+04  0.15294330000E+03 0.  0.
<mgrwt>
<rscale>  0 0.62003850E+03</rscale>
<asrwt>0</asrwt>
<pdfrwt beam="1">  1        2 0.49939253E+00 0.73838282E+03</pdfrwt>
<pdfrwt beam="2">  1       -2 0.18327372E-01 0.73838282E+03</pdfrwt>
<totfact> 0.32092907E+01</totfact>
</mgrwt>
</event>
<event>
 4    2  0.3388003E-007  0.1077418E+04  0.7818608E-02  0.9286625E-01
         -2   -1    0    0    0  501 -0.00000000000E+00  0.00000000000E+00  0.83124291913E+03  0.83124291914E+03  0.25500000000E-02 0.  1.
          2   -1    0    0  501    0  0.00000000000E+00 -0.00000000000E+00 -0.15291313772E+04  0.15291313772E+04  0.25500000000E-02 0. -1.
    8880023    1    1    2    0    0  0.71759753310E+03  0.46051343781E+03  0.21850126901E+03  0.10993506523E+04  0.65864270000E+03 0.  0.
    8880022    1    1    2    0    0 -0.71759753310E+03 -0.46051343781E+03 -0.91638972708E+03  0.12610236440E+04  0.15294330000E+03 0.  0.
<mgrwt>
<rscale>  0 0.10202356E+04</rscale>
<asrwt>0</asrwt>
<pdfrwt beam="1">  1        2 0.23525098E+00 0.10774178E+04</pdfrwt>
<pdfrwt beam="2">  1       -2 0.12788353E+00 0.10774178E+04</pdfrwt>
<totfact> 0.54537653E+00</totfact>
</mgrwt>
</event>
<event>
 4    2  0.3388003E-007  0.1154923E+04  0.7818608E-02  0.9202237E-01
          2   -1    0    0  501    0  0.00000000000E+00  0.00000000000E+00  0.44843266059E+04  0.44843266059E+04  0.25500000000E-02 0. -1.
         -2   -1    0    0    0  501 -0.00000000000E+00 -0.00000000000E+00 -0.28915160485E+03  0.28915160486E+03  0.25500000000E-02 0.  1.
    8880023    1    1    2    0    0  0.83867938529E+03 -0.44345546050E+03  0.13839136416E+04  0.18025157504E+04  0.65864270000E+03 0.  0.
    8880022    1    1    2    0    0 -0.83867938529E+03  0.44345546050E+03  0.28112613594E+04  0.29709624603E+04  0.15294330000E+03 0.  0.
<mgrwt>
<rscale>  0 0.11030368E+04</rscale>
<asrwt>0</asrwt>
<pdfrwt beam="1">  1        2 0.68989645E+00 0.11549225E+04</pdfrwt>
<pdfrwt beam="2">  1       -2 0.44484859E-01 0.11549225E+04</pdfrwt>
<totfact> 0.63875453E-01</totfact>
</mgrwt>
</event>
<event>
 4    2  0.3388003E-007  0.7456668E+03  0.7818608E-02  0.9843737E-01
          2   -1    0    0  501    0  0.00000000000E+00  0.00000000000E+00  0.49354763170E+03  0.49354763170E+03  0.25500000000E-02 0. -1.
         -2   -1    0    0    0  501 -0.00000000000E+00 -0.00000000000E+00 -0.64411460575E+03  0.64411460575E+03  0.25500000000E-02 0.  1.
    8880023    1    1    2    0    0 -0.25246097161E+03  0.24181033796E+03 -0.85037675889E+02  0.75050009615E+03  0.65864270000E+03 0.  1.
    8880022    1    1    2    0    0  0.25246097161E+03 -0.24181033796E+03 -0.65529298159E+02  0.38716214131E+03  0.15294330000E+03 0. -1.
<mgrwt>
<rscale>  0 0.63067257E+03</rscale>
<asrwt>0</asrwt>
<pdfrwt beam="1">  1        2 0.75930404E-01 0.74566681E+03</pdfrwt>
<pdfrwt beam="2">  1       -2 0.99094555E-01 0.74566681E+03</pdfrwt>
<totfact> 0.53392264E+01</totfact>
</mgrwt>
</event>
<event>
 4    2  0.3388003E-007  0.9120873E+03  0.7818608E-02  0.9506900E-01
          2   -1    0    0  501    0  0.00000000000E+00  0.00000000000E+00  0.16902773356E+04  0.16902773356E+04  0.25500000000E-02 0. -1.
         -2   -1    0    0    0  501 -0.00000000000E+00 -0.00000000000E+00 -0.44592090465E+03  0.44592090466E+03  0.25500000000E-02 0.  1.
    8880023    1    1    2    0    0 -0.62585397599E+02  0.62783445860E+03  0.24489965887E+03  0.94439350304E+03  0.65864270000E+03 0.  1.
    8880022    1    1    2    0    0  0.62585397599E+02 -0.62783445860E+03  0.99945677213E+03  0.11918047373E+04  0.15294330000E+03 0.  0.
<mgrwt>
<rscale>  0 0.83777044E+03</rscale>
<asrwt>0</asrwt>
<pdfrwt beam="1">  1        2 0.26004267E+00 0.91208730E+03</pdfrwt>
<pdfrwt beam="2">  1       -2 0.68603215E-01 0.91208730E+03</pdfrwt>
<totfact> 0.19450904E+01</totfact>
</mgrwt>
</event>
<event>
 4    2  0.3388003E-007  0.7991280E+03  0.7818608E-02  0.9712685E-01
         -2   -1    0    0    0  501 -0.00000000000E+00  0.00000000000E+00  0.68572300226E+03  0.68572300226E+03  0.25500000000E-02 0.  1.
          2   -1    0    0  501    0  0.00000000000E+00 -0.00000000000E+00 -0.16956589388E+04  0.16956589388E+04  0.25500000000E-02 0. -1.
    8880023    1    1    2    0    0 -0.38459437910E+03 -0.23850070354E+03  0.39933684705E+03  0.89335074058E+03  0.65864270000E+03 0.  0.
    8880022    1    1    2    0    0  0.38459437910E+03  0.23850070354E+03 -0.14092727836E+04  0.14880312005E+04  0.15294330000E+03 0.  0.
<mgrwt>
<rscale>  0 0.70266554E+03</rscale>
<asrwt>0</asrwt>
<pdfrwt beam="1">  1        2 0.26087061E+00 0.79912804E+03</pdfrwt>
<pdfrwt beam="2">  1       -2 0.10549585E+00 0.79912804E+03</pdfrwt>
<totfact> 0.73224066E+00</totfact>
</mgrwt>
</event>
<event>
 4    2  0.3388003E-007  0.9980523E+03  0.7818608E-02  0.9384110E-01
         -2   -1    0    0    0  501 -0.00000000000E+00  0.00000000000E+00  0.86513944971E+03  0.86513944972E+03  0.25500000000E-02 0.  1.
          2   -1    0    0  501    0  0.00000000000E+00 -0.00000000000E+00 -0.24797897601E+04  0.24797897601E+04  0.25500000000E-02 0. -1.
    8880023    1    1    2    0    0  0.44634516423E+03  0.60255644524E+03  0.48536250786E+03  0.11098131580E+04  0.65864270000E+03 0.  1.
    8880022    1    1    2    0    0 -0.44634516423E+03 -0.60255644524E+03 -0.21000128183E+04  0.22351160518E+04  0.15294330000E+03 0.  0.
<mgrwt>
<rscale>  0 0.93394964E+03</rscale>
<asrwt>0</asrwt>
<pdfrwt beam="1">  1        2 0.38150611E+00 0.99805234E+03</pdfrwt>
<pdfrwt beam="2">  1       -2 0.13309838E+00 0.99805234E+03</pdfrwt>
<totfact> 0.14721574E+00</totfact>
</mgrwt>
</event>
<event>
 4    2  0.3388003E-007  0.6987206E+03  0.7818608E-02  0.1000255E+00
         -2   -1    0    0    0  501 -0.00000000000E+00  0.00000000000E+00  0.14529887976E+04  0.14529887976E+04  0.25500000000E-02 0.  1.
          2   -1    0    0  501    0  0.00000000000E+00 -0.00000000000E+00 -0.72358498417E+03  0.72358498417E+03  0.25500000000E-02 0. -1.
    8880023    1    1    2    0    0 -0.23271479921E+03  0.15622639021E+02  0.13366939757E+04  0.15082974625E+04  0.65864270000E+03 0.  1.
    8880022    1    1    2    0    0  0.23271479921E+03 -0.15622639021E+02 -0.60729016227E+03  0.66827631922E+03  0.15294330000E+03 0.  0.
<mgrwt>
<rscale>  0 0.55538539E+03</rscale>
<asrwt>0</asrwt>
<pdfrwt beam="1">  1        2 0.11132077E+00 0.69872058E+03</pdfrwt>
<pdfrwt beam="2">  1       -2 0.22353674E+00 0.69872058E+03</pdfrwt>
<totfact> 0.38087522E+00</totfact>
</mgrwt>
</event>
<event>
 4    2  0.3388003E-007  0.6771673E+03  0.7818608E-02  0.1010974E+00
          2   -1    0    0  501    0  0.00000000000E+00  0.00000000000E+00  0.16650916297E+04  0.16650916297E+04  0.25500000000E-02 0. -1.
         -2   -1    0    0    0  501 -0.00000000000E+00 -0.00000000000E+00 -0.15505659981E+03  0.15505659983E+03  0.25500000000E-02 0.  1.
    8880023    1    1    2    0    0  0.13362103713E+03  0.83010824531E+02  0.67254552035E+03  0.95439670041E+03  0.65864270000E+03 0.  1.
    8880022    1    1    2    0    0 -0.13362103713E+03 -0.83010824531E+02  0.83748950957E+03  0.86575152914E+03  0.15294330000E+03 0.  0.
<mgrwt>
<rscale>  0 0.51089530E+03</rscale>
<asrwt>0</asrwt>
<pdfrwt beam="1">  1        2 0.25616795E+00 0.67716732E+03</pdfrwt>
<pdfrwt beam="2">  1       -2 0.23854861E-01 0.67716732E+03</pdfrwt>
<totfact> 0.16395703E+02</totfact>
</mgrwt>
</event>
<event>
 4    2  0.3388003E-007  0.7394704E+03  0.7818608E-02  0.9861492E-01
          2   -1    0    0  501    0  0.00000000000E+00  0.00000000000E+00  0.29921219852E+04  0.29921219852E+04  0.25500000000E-02 0. -1.
         -2   -1    0    0    0  501 -0.00000000000E+00 -0.00000000000E+00 -0.23575033780E+03  0.23575033782E+03  0.25500000000E-02 0.  1.
    8880023    1    1    2    0    0 -0.20702852123E+03  0.26484997127E+03  0.39608918143E+03  0.83887016981E+03  0.65864270000E+03 0.  0.
    8880022    1    1    2    0    0  0.20702852123E+03 -0.26484997127E+03  0.23602824660E+04  0.23890021532E+04  0.15294330000E+03 0.  0.
<mgrwt>
<rscale>  0 0.62164379E+03</rscale>
<asrwt>0</asrwt>
<pdfrwt beam="1">  1        2 0.46032647E+00 0.73947043E+03</pdfrwt>
<pdfrwt beam="2">  1       -2 0.36269282E-01 0.73947043E+03</pdfrwt>
<totfact> 0.13395457E+01</totfact>
</mgrwt>
</event>
<event>
 4    2  0.3388003E-007  0.1048736E+04  0.7818608E-02  0.9320403E-01
          2   -1    0    0  501    0  0.00000000000E+00  0.00000000000E+00  0.80002444629E+03  0.80002444629E+03  0.25500000000E-02 0. -1.
         -2   -1    0    0    0  501 -0.00000000000E+00 -0.00000000000E+00 -0.19191736564E+04  0.19191736564E+04  0.25500000000E-02 0.  1.
    8880023    1    1    2    0    0 -0.59136241155E+03 -0.56242915405E+03  0.28602415564E+03  0.10870400540E+04  0.65864270000E+03 0.  0.
    8880022    1    1    2    0    0  0.59136241155E+03  0.56242915405E+03 -0.14051733657E+04  0.16321580487E+04  0.15294330000E+03 0.  0.
<mgrwt>
<rscale>  0 0.98926031E+03</rscale>
<asrwt>0</asrwt>
<pdfrwt beam="1">  1        2 0.12308068E+00 0.10487356E+04</pdfrwt>
<pdfrwt beam="2">  1       -2 0.29525748E+00 0.10487356E+04</pdfrwt>
<totfact> 0.11675327E+00</totfact>
</mgrwt>
</event>
<event>
 4    2  0.3388003E-007  0.8146527E+03  0.7818608E-02  0.9679966E-01
          2   -1    0    0  501    0  0.00000000000E+00  0.00000000000E+00  0.29675129583E+04  0.29675129583E+04  0.25500000000E-02 0. -1.
         -2   -1    0    0    0  501 -0.00000000000E+00 -0.00000000000E+00 -0.33589860082E+03  0.33589860083E+03  0.25500000000E-02 0.  1.
    8880023    1    1    2    0    0  0.30854798492E+03  0.36694275327E+03  0.22557087246E+03  0.84530542879E+03  0.65864270000E+03 0.  0.
    8880022    1    1    2    0    0 -0.30854798492E+03 -0.36694275327E+03  0.24060434850E+04  0.24581061303E+04  0.15294330000E+03 0.  0.
<mgrwt>
<rscale>  0 0.72222252E+03</rscale>
<asrwt>0</asrwt>
<pdfrwt beam="1">  1        2 0.45654046E+00 0.81465272E+03</pdfrwt>
<pdfrwt beam="2">  1       -2 0.51676707E-01 0.81465272E+03</pdfrwt>
<totfact> 0.67868952E+00</totfact>
</mgrwt>
</event>
<event>
 4    2  0.3388003E-007  0.7982153E+03  0.7818608E-02  0.9714668E-01
          2   -1    0    0  501    0  0.00000000000E+00  0.00000000000E+00  0.14316831212E+04  0.14316831212E+04  0.25500000000E-02 0. -1.
         -2   -1    0    0    0  501 -0.00000000000E+00 -0.00000000000E+00 -0.65615718396E+03  0.65615718396E+03  0.25500000000E-02 0.  1.
    8880023    1    1    2    0    0  0.32053456863E+03 -0.31716732162E+03 -0.34557525594E+03  0.86981031459E+03  0.65864270000E+03 0.  1.
    8880022    1    1    2    0    0 -0.32053456863E+03  0.31716732162E+03  0.11211011932E+04  0.12180299906E+04  0.15294330000E+03 0.  0.
<mgrwt>
<rscale>  0 0.70150129E+03</rscale>
<asrwt>0</asrwt>
<pdfrwt beam="1">  1        2 0.22025894E+00 0.79821534E+03</pdfrwt>
<pdfrwt beam="2">  1       -2 0.10094726E+00 0.79821534E+03</pdfrwt>
<totfact> 0.11402017E+01</totfact>
</mgrwt>
</event>
<event>
 4    2  0.3388003E-007  0.7748784E+03  0.7818608E-02  0.9768008E-01
          2   -1    0    0  501    0  0.00000000000E+00  0.00000000000E+00  0.17679268168E+04  0.17679268168E+04  0.25500000000E-02 0. -1.
         -2   -1    0    0    0  501 -0.00000000000E+00 -0.00000000000E+00 -0.79906630539E+03  0.79906630539E+03  0.25500000000E-02 0.  1.
    8880023    1    1    2    0    0 -0.21135222480E+03 -0.34922285917E+03 -0.57362454959E+03  0.96409631181E+03  0.65864270000E+03 0.  1.
    8880022    1    1    2    0    0  0.21135222480E+03  0.34922285917E+03  0.15424850610E+04  0.16028968104E+04  0.15294330000E+03 0.  0.
<mgrwt>
<rscale>  0 0.67108036E+03</rscale>
<asrwt>0</asrwt>
<pdfrwt beam="1">  1        2 0.27198874E+00 0.77487843E+03</pdfrwt>
<pdfrwt beam="2">  1       -2 0.12293328E+00 0.77487843E+03</pdfrwt>
<totfact> 0.46153849E+00</totfact>
</mgrwt>
</event>
<event>
 4    2  0.3388003E-007  0.1251836E+04  0.7818608E-02  0.9108310E-01
         -2   -1    0    0    0  501 -0.00000000000E+00  0.00000000000E+00  0.79472035387E+03  0.79472035387E+03  0.25500000000E-02 0.  1.
          2   -1    0    0  501    0  0.00000000000E+00 -0.00000000000E+00 -0.31998513019E+04  0.31998513019E+04  0.25500000000E-02 0. -1.
    8880023    1    1    2    0    0  0.43317706651E+03  0.97244087420E+03  0.11246538633E+03  0.12568779949E+04  0.65864270000E+03 0.  0.
    8880022    1    1    2    0    0 -0.43317706651E+03 -0.97244087420E+03 -0.25175963344E+04  0.27376936609E+04  0.15294330000E+03 0.  0.
<mgrwt>
<rscale>  0 0.12052081E+04</rscale>
<asrwt>0</asrwt>
<pdfrwt beam="1">  1        2 0.49228481E+00 0.12518362E+04</pdfrwt>
<pdfrwt beam="2">  1       -2 0.12226467E+00 0.12518362E+04</pdfrwt>
<totfact> 0.64684491E-01</totfact>
</mgrwt>
</event>
<event>
 4    2  0.3388003E-007  0.6801575E+03  0.7818608E-02  0.1009235E+00
         -2   -1    0    0    0  501 -0.00000000000E+00  0.00000000000E+00  0.24315843720E+03  0.24315843722E+03  0.25500000000E-02 0.  1.
          2   -1    0    0  501    0  0.00000000000E+00 -0.00000000000E+00 -0.25411558878E+04  0.25411558878E+04  0.25500000000E-02 0. -1.
    8880023    1    1    2    0    0  0.85177826827E+02  0.14679489609E+03 -0.25159673091E+03  0.72520005858E+03  0.65864270000E+03 0.  1.
    8880022    1    1    2    0    0 -0.85177826827E+02 -0.14679489609E+03 -0.20464007197E+04  0.20591142665E+04  0.15294330000E+03 0.  0.
<mgrwt>
<rscale>  0 0.51779924E+03</rscale>
<asrwt>0</asrwt>
<pdfrwt beam="1">  1        2 0.39094704E+00 0.68015749E+03</pdfrwt>
<pdfrwt beam="2">  1       -2 0.37408992E-01 0.68015749E+03</pdfrwt>
<totfact> 0.23478872E+01</totfact>
</mgrwt>
</event>
<event>
 4    2  0.3388003E-007  0.6880813E+03  0.7818608E-02  0.1005078E+00
         -2   -1    0    0    0  501 -0.00000000000E+00  0.00000000000E+00  0.82423578793E+03  0.82423578794E+03  0.25500000000E-02 0.  1.
          2   -1    0    0  501    0  0.00000000000E+00 -0.00000000000E+00 -0.50650276055E+03  0.50650276056E+03  0.25500000000E-02 0. -1.
    8880023    1    1    2    0    0  0.62869316045E+02 -0.18892616546E+03  0.62802180949E+03  0.93159392782E+03  0.65864270000E+03 0.  1.
    8880022    1    1    2    0    0 -0.62869316045E+02  0.18892616546E+03 -0.31028878210E+03  0.39914462067E+03  0.15294330000E+03 0.  0.
<mgrwt>
<rscale>  0 0.53478536E+03</rscale>
<asrwt>0</asrwt>
<pdfrwt beam="1">  1        2 0.77923502E-01 0.68808128E+03</pdfrwt>
<pdfrwt beam="2">  1       -2 0.12680550E+00 0.68808128E+03</pdfrwt>
<totfact> 0.28548647E+01</totfact>
</mgrwt>
</event>
<event>
 4    2  0.3388003E-007  0.7469888E+03  0.7818608E-02  0.9840038E-01
          2   -1    0    0  501    0  0.00000000000E+00  0.00000000000E+00  0.54776243886E+03  0.54776243887E+03  0.25500000000E-02 0. -1.
         -2   -1    0    0    0  501 -0.00000000000E+00 -0.00000000000E+00 -0.11096120201E+04  0.11096120201E+04  0.25500000000E-02 0.  1.
    8880023    1    1    2    0    0  0.21597726780E+03  0.27845272950E+03 -0.88305828372E+03  0.11566262324E+04  0.65864270000E+03 0.  1.
    8880022    1    1    2    0    0 -0.21597726780E+03 -0.27845272950E+03  0.32120870253E+03  0.50074822652E+03  0.15294330000E+03 0.  0.
<mgrwt>
<rscale>  0 0.63257456E+03</rscale>
<asrwt>0</asrwt>
<pdfrwt beam="1">  1        2 0.84271144E-01 0.74698883E+03</pdfrwt>
<pdfrwt beam="2">  1       -2 0.17070954E+00 0.74698883E+03</pdfrwt>
<totfact> 0.11842565E+01</totfact>
</mgrwt>
</event>
<event>
 4    2  0.3388003E-007  0.1076665E+04  0.7818608E-02  0.9287492E-01
         -2   -1    0    0    0  501 -0.00000000000E+00  0.00000000000E+00  0.55705967251E+03  0.55705967251E+03  0.25500000000E-02 0.  1.
          2   -1    0    0  501    0  0.00000000000E+00 -0.00000000000E+00 -0.21602747147E+04  0.21602747147E+04  0.25500000000E-02 0. -1.
    8880023    1    1    2    0    0  0.74445814146E+03  0.41373908805E+03 -0.24067286515E+03  0.11032368701E+04  0.65864270000E+03 0.  0.
    8880022    1    1    2    0    0 -0.74445814146E+03 -0.41373908805E+03 -0.13625421770E+04  0.16140975170E+04  0.15294330000E+03 0.  0.
<mgrwt>
<rscale>  0 0.10194255E+04</rscale>
<asrwt>0</asrwt>
<pdfrwt beam="1">  1        2 0.33234995E+00 0.10766653E+04</pdfrwt>
<pdfrwt beam="2">  1       -2 0.85701489E-01 0.10766653E+04</pdfrwt>
<totfact> 0.63963606E+00</totfact>
</mgrwt>
</event>
<event>
 4    2  0.3388003E-007  0.6650613E+03  0.7818608E-02  0.1019482E+00
          2   -1    0    0  501    0  0.00000000000E+00  0.00000000000E+00  0.17500619947E+04  0.17500619947E+04  0.25500000000E-02 0. -1.
         -2   -1    0    0    0  501 -0.00000000000E+00 -0.00000000000E+00 -0.76376410254E+03  0.76376410254E+03  0.25500000000E-02 0.  1.
    8880023    1    1    2    0    0  0.67896535783E+02 -0.62341339414E+02 -0.61306843119E+03  0.90452169115E+03  0.65864270000E+03 0.  1.
    8880022    1    1    2    0    0 -0.67896535783E+02  0.62341339414E+02  0.15993663233E+04  0.16093044061E+04  0.15294330000E+03 0.  0.
<mgrwt>
<rscale>  0 0.47874004E+03</rscale>
<asrwt>0</asrwt>
<pdfrwt beam="1">  1        2 0.26924030E+00 0.66506134E+03</pdfrwt>
<pdfrwt beam="2">  1       -2 0.11750217E+00 0.66506134E+03</pdfrwt>
<totfact> 0.53766605E+00</totfact>
</mgrwt>
</event>
<event>
 4    2  0.3388003E-007  0.6738877E+03  0.7818608E-02  0.1013017E+00
         -2   -1    0    0    0  501 -0.00000000000E+00  0.00000000000E+00  0.19954197769E+03  0.19954197771E+03  0.25500000000E-02 0.  1.
          2   -1    0    0  501    0  0.00000000000E+00 -0.00000000000E+00 -0.15951912317E+04  0.15951912317E+04  0.25500000000E-02 0. -1.
    8880023    1    1    2    0    0 -0.14250429447E+03  0.26374943348E+01 -0.41362482727E+03  0.79070230448E+03  0.65864270000E+03 0.  1.
    8880022    1    1    2    0    0  0.14250429447E+03 -0.26374943348E+01 -0.98202442676E+03  0.10040309049E+04  0.15294330000E+03 0.  0.
<mgrwt>
<rscale>  0 0.50293098E+03</rscale>
<asrwt>0</asrwt>
<pdfrwt beam="1">  1        2 0.24541403E+00 0.67388770E+03</pdfrwt>
<pdfrwt beam="2">  1       -2 0.30698767E-01 0.67388770E+03</pdfrwt>
<totfact> 0.11308822E+02</totfact>
</mgrwt>
</event>
<event>
 4    2  0.3388003E-007  0.8819149E+03  0.7818608E-02  0.9555711E-01
         -2   -1    0    0    0  501 -0.00000000000E+00  0.00000000000E+00  0.36016932511E+03  0.36016932512E+03  0.25500000000E-02 0.  1.
          2   -1    0    0  501    0  0.00000000000E+00 -0.00000000000E+00 -0.53490062820E+04  0.53490062820E+04  0.25500000000E-02 0. -1.
    8880023    1    1    2    0    0 -0.25665053895E+02 -0.58592238801E+03 -0.22934649030E+03  0.91124846153E+03  0.65864270000E+03 0.  1.
    8880022    1    1    2    0    0  0.25665053895E+02  0.58592238801E+03 -0.47594904666E+04  0.47979271456E+04  0.15294330000E+03 0.  0.
<mgrwt>
<rscale>  0 0.80298203E+03</rscale>
<asrwt>0</asrwt>
<pdfrwt beam="1">  1        2 0.82292399E+00 0.88191493E+03</pdfrwt>
<pdfrwt beam="2">  1       -2 0.55410669E-01 0.88191493E+03</pdfrwt>
<totfact> 0.39054678E-02</totfact>
</mgrwt>
</event>
<event>
 4    2  0.3388003E-007  0.1384337E+04  0.7818608E-02  0.8995950E-01
         -2   -1    0    0    0  501 -0.00000000000E+00  0.00000000000E+00  0.17311098453E+04  0.17311098453E+04  0.25500000000E-02 0.  1.
          2   -1    0    0  501    0  0.00000000000E+00 -0.00000000000E+00 -0.13968477501E+04  0.13968477501E+04  0.25500000000E-02 0. -1.
    8880023    1    1    2    0    0 -0.32591887232E+03  0.11731820057E+04  0.10224484465E+04  0.17209852300E+04  0.65864270000E+03 0.  1.
    8880022    1    1    2    0    0  0.32591887232E+03 -0.11731820057E+04 -0.68818635129E+03  0.14069723654E+04  0.15294330000E+03 0.  0.
<mgrwt>
<rscale>  0 0.13432550E+04</rscale>
<asrwt>0</asrwt>
<pdfrwt beam="1">  1        2 0.21489965E+00 0.13843371E+04</pdfrwt>
<pdfrwt beam="2">  1       -2 0.26632459E+00 0.13843371E+04</pdfrwt>
<totfact> 0.70656201E-01</totfact>
</mgrwt>
</event>
<event>
 4    2  0.3388003E-007  0.6680365E+03  0.7818608E-02  0.1017111E+00
         -2   -1    0    0    0  501 -0.00000000000E+00  0.00000000000E+00  0.33546290516E+03  0.33546290517E+03  0.25500000000E-02 0.  1.
          2   -1    0    0  501    0  0.00000000000E+00 -0.00000000000E+00 -0.87172329174E+03  0.87172329175E+03  0.25500000000E-02 0. -1.
    8880023    1    1    2    0    0  0.10769201664E+03  0.29409576087E+02 -0.32288151020E+02  0.66881628612E+03  0.65864270000E+03 0.  1.
    8880022    1    1    2    0    0 -0.10769201664E+03 -0.29409576087E+02 -0.50397223557E+03  0.53836991080E+03  0.15294330000E+03 0.  0.
<mgrwt>
<rscale>  0 0.48743594E+03</rscale>
<asrwt>0</asrwt>
<pdfrwt beam="1">  1        2 0.13411127E+00 0.66803645E+03</pdfrwt>
<pdfrwt beam="2">  1       -2 0.51609678E-01 0.66803645E+03</pdfrwt>
<totfact> 0.11069927E+02</totfact>
</mgrwt>
</event>
<event>
 4    2  0.3388003E-007  0.1040515E+04  0.7818608E-02  0.9330371E-01
          2   -1    0    0  501    0  0.00000000000E+00  0.00000000000E+00  0.10762997913E+04  0.10762997913E+04  0.25500000000E-02 0. -1.
         -2   -1    0    0    0  501 -0.00000000000E+00 -0.00000000000E+00 -0.14797149087E+04  0.14797149087E+04  0.25500000000E-02 0.  1.
    8880023    1    1    2    0    0 -0.36030701908E+03  0.72044460929E+03 -0.10750532832E+04  0.14961321302E+04  0.65864270000E+03 0.  1.
    8880022    1    1    2    0    0  0.36030701908E+03 -0.72044460929E+03  0.67163816575E+03  0.10598825698E+04  0.15294330000E+03 0.  0.
<mgrwt>
<rscale>  0 0.98034270E+03</rscale>
<asrwt>0</asrwt>
<pdfrwt beam="1">  1        2 0.16558458E+00 0.10405152E+04</pdfrwt>
<pdfrwt beam="2">  1       -2 0.22764845E+00 0.10405152E+04</pdfrwt>
<totfact> 0.19723491E+00</totfact>
</mgrwt>
</event>
<event>
 4    2  0.3388003E-007  0.8691815E+03  0.7818608E-02  0.9577435E-01
          2   -1    0    0  501    0  0.00000000000E+00  0.00000000000E+00  0.23658549034E+04  0.23658549034E+04  0.25500000000E-02 0. -1.
         -2   -1    0    0    0  501 -0.00000000000E+00 -0.00000000000E+00 -0.23562333751E+03  0.23562333752E+03  0.25500000000E-02 0.  1.
    8880023    1    1    2    0    0 -0.13758074337E+03  0.55021619950E+03  0.97987573588E+03  0.13098217402E+04  0.65864270000E+03 0.  1.
    8880022    1    1    2    0    0  0.13758074337E+03 -0.55021619950E+03  0.11503558300E+04  0.12916565007E+04  0.15294330000E+03 0.  0.
<mgrwt>
<rscale>  0 0.78807831E+03</rscale>
<asrwt>0</asrwt>
<pdfrwt beam="1">  1        2 0.36397769E+00 0.86918153E+03</pdfrwt>
<pdfrwt beam="2">  1       -2 0.36249743E-01 0.86918153E+03</pdfrwt>
<totfact> 0.30500043E+01</totfact>
</mgrwt>
</event>
<event>
 4    2  0.3388003E-007  0.7323262E+03  0.7818608E-02  0.9882892E-01
         -2   -1    0    0    0  501 -0.00000000000E+00  0.00000000000E+00  0.67301780299E+03  0.67301780299E+03  0.25500000000E-02 0.  1.
          2   -1    0    0  501    0  0.00000000000E+00 -0.00000000000E+00 -0.12800438160E+04  0.12800438160E+04  0.25500000000E-02 0. -1.
    8880023    1    1    2    0    0 -0.27859881535E+03 -0.15771531495E+03  0.43534996408E+03  0.85195728647E+03  0.65864270000E+03 0.  1.
    8880022    1    1    2    0    0  0.27859881535E+03  0.15771531495E+03 -0.10423759771E+04  0.11011043325E+04  0.15294330000E+03 0.  0.
<mgrwt>
<rscale>  0 0.61097626E+03</rscale>
<asrwt>0</asrwt>
<pdfrwt beam="1">  1        2 0.19692982E+00 0.73232618E+03</pdfrwt>
<pdfrwt beam="2">  1       -2 0.10354120E+00 0.73232618E+03</pdfrwt>
<totfact> 0.13205395E+01</totfact>
</mgrwt>
</event>
<event>
 4    2  0.3388003E-007  0.7682179E+03  0.7818608E-02  0.9784279E-01
          2   -1    0    0  501    0  0.00000000000E+00  0.00000000000E+00  0.13879713218E+04  0.13879713218E+04  0.25500000000E-02 0. -1.
         -2   -1    0    0    0  501 -0.00000000000E+00 -0.00000000000E+00 -0.27935720533E+03  0.27935720534E+03  0.25500000000E-02 0.  1.
    8880023    1    1    2    0    0 -0.81316806280E+01  0.39532578799E+03  0.46932459821E+03  0.90023574003E+03  0.65864270000E+03 0.  1.
    8880022    1    1    2    0    0  0.81316806280E+01 -0.39532578799E+03  0.63928951830E+03  0.76709278715E+03  0.15294330000E+03 0. -1.
<mgrwt>
<rscale>  0 0.66213113E+03</rscale>
<asrwt>0</asrwt>
<pdfrwt beam="1">  1        2 0.21353405E+00 0.76821794E+03</pdfrwt>
<pdfrwt beam="2">  1       -2 0.42978032E-01 0.76821794E+03</pdfrwt>
<totfact> 0.76723512E+01</totfact>
</mgrwt>
</event>
<event>
 4    2  0.3388003E-007  0.1610775E+04  0.7818608E-02  0.8835132E-01
         -2   -1    0    0    0  501 -0.00000000000E+00  0.00000000000E+00  0.85106126865E+03  0.85106126866E+03  0.25500000000E-02 0.  1.
          2   -1    0    0  501    0  0.00000000000E+00 -0.00000000000E+00 -0.30085988412E+04  0.30085988412E+04  0.25500000000E-02 0. -1.
    8880023    1    1    2    0    0 -0.16353243424E+03  0.14608360328E+04 -0.16268422816E+04  0.22893690806E+04  0.65864270000E+03 0.  0.
    8880022    1    1    2    0    0  0.16353243424E+03 -0.14608360328E+04 -0.53069529093E+03  0.15702910292E+04  0.15294330000E+03 0.  0.
<mgrwt>
<rscale>  0 0.15764749E+04</rscale>
<asrwt>0</asrwt>
<pdfrwt beam="1">  1        2 0.46286136E+00 0.16107747E+04</pdfrwt>
<pdfrwt beam="2">  1       -2 0.13093250E+00 0.16107747E+04</pdfrwt>
<totfact> 0.68922942E-01</totfact>
</mgrwt>
</event>
<event>
 4    2  0.3388003E-007  0.7917008E+03  0.7818608E-02  0.9729037E-01
          2   -1    0    0  501    0  0.00000000000E+00  0.00000000000E+00  0.13869764511E+04  0.13869764511E+04  0.25500000000E-02 0. -1.
         -2   -1    0    0    0  501 -0.00000000000E+00 -0.00000000000E+00 -0.69698631011E+03  0.69698631011E+03  0.25500000000E-02 0.  1.
    8880023    1    1    2    0    0  0.17299064639E+03  0.40379964421E+03 -0.40862175738E+03  0.89093314186E+03  0.65864270000E+03 0.  0.
    8880022    1    1    2    0    0 -0.17299064639E+03 -0.40379964421E+03  0.10986118984E+04  0.11930296194E+04  0.15294330000E+03 0.  0.
<mgrwt>
<rscale>  0 0.69313979E+03</rscale>
<asrwt>0</asrwt>
<pdfrwt beam="1">  1        2 0.21338099E+00 0.79170078E+03</pdfrwt>
<pdfrwt beam="2">  1       -2 0.10722866E+00 0.79170078E+03</pdfrwt>
<totfact> 0.10465455E+01</totfact>
</mgrwt>
</event>
<event>
 4    2  0.3388003E-007  0.1012160E+04  0.7818608E-02  0.9365819E-01
          2   -1    0    0  501    0  0.00000000000E+00  0.00000000000E+00  0.22246412357E+04  0.22246412357E+04  0.25500000000E-02 0. -1.
         -2   -1    0    0    0  501 -0.00000000000E+00 -0.00000000000E+00 -0.11228486232E+04  0.11228486232E+04  0.25500000000E-02 0.  1.
    8880023    1    1    2    0    0  0.57052031446E+03  0.51494138483E+03 -0.80028516267E+03  0.12903195755E+04  0.65864270000E+03 0.  0.
    8880022    1    1    2    0    0 -0.57052031446E+03 -0.51494138483E+03  0.19020777752E+04  0.20571702834E+04  0.15294330000E+03 0.  0.
<mgrwt>
<rscale>  0 0.94942876E+03</rscale>
<asrwt>0</asrwt>
<pdfrwt beam="1">  1        2 0.34225250E+00 0.10121602E+04</pdfrwt>
<pdfrwt beam="2">  1       -2 0.17274594E+00 0.10121602E+04</pdfrwt>
<totfact> 0.10182650E+00</totfact>
</mgrwt>
</event>
<event>
 4    2  0.3388003E-007  0.6779375E+03  0.7818608E-02  0.1010515E+00
         -2   -1    0    0    0  501 -0.00000000000E+00  0.00000000000E+00  0.23794614956E+03  0.23794614958E+03  0.25500000000E-02 0.  1.
          2   -1    0    0  501    0  0.00000000000E+00 -0.00000000000E+00 -0.16935169750E+04  0.16935169750E+04  0.25500000000E-02 0. -1.
    8880023    1    1    2    0    0 -0.14393465538E+03 -0.71217166527E+02 -0.27722360683E+03  0.73242897558E+03  0.65864270000E+03 0.  1.
    8880022    1    1    2    0    0  0.14393465538E+03  0.71217166527E+02 -0.11783472186E+04  0.11990341490E+04  0.15294330000E+03 0.  0.
<mgrwt>
<rscale>  0 0.51270389E+03</rscale>
<asrwt>0</asrwt>
<pdfrwt beam="1">  1        2 0.26054107E+00 0.67793752E+03</pdfrwt>
<pdfrwt beam="2">  1       -2 0.36607101E-01 0.67793752E+03</pdfrwt>
<totfact> 0.71633464E+01</totfact>
</mgrwt>
</event>
<event>
 4    2  0.3388003E-007  0.1128053E+04  0.7818608E-02  0.9230447E-01
         -2   -1    0    0    0  501 -0.00000000000E+00  0.00000000000E+00  0.42388525887E+03  0.42388525887E+03  0.25500000000E-02 0.  1.
          2   -1    0    0  501    0  0.00000000000E+00 -0.00000000000E+00 -0.44890627829E+04  0.44890627829E+04  0.25500000000E-02 0. -1.
    8880023    1    1    2    0    0  0.91292507909E+03 -0.72539303328E+02 -0.37753545461E+04  0.39402799781E+04  0.65864270000E+03 0. -1.
    8880022    1    1    2    0    0 -0.91292507909E+03  0.72539303328E+02 -0.28982297790E+03  0.97266806368E+03  0.15294330000E+03 0.  0.
<mgrwt>
<rscale>  0 0.10744620E+04</rscale>
<asrwt>0</asrwt>
<pdfrwt beam="1">  1        2 0.69062501E+00 0.11280533E+04</pdfrwt>
<pdfrwt beam="2">  1       -2 0.65213120E-01 0.11280533E+04</pdfrwt>
<totfact> 0.28667145E-01</totfact>
</mgrwt>
</event>
<event>
 4    2  0.3388003E-007  0.7451158E+03  0.7818608E-02  0.9845288E-01
          2   -1    0    0  501    0  0.00000000000E+00  0.00000000000E+00  0.10381896058E+04  0.10381896058E+04  0.25500000000E-02 0. -1.
         -2   -1    0    0    0  501 -0.00000000000E+00 -0.00000000000E+00 -0.32212612006E+03  0.32212612007E+03  0.25500000000E-02 0.  1.
    8880023    1    1    2    0    0  0.31941476974E+03  0.13914566738E+03  0.31948182182E+03  0.81071952771E+03  0.65864270000E+03 0.  1.
    8880022    1    1    2    0    0 -0.31941476974E+03 -0.13914566738E+03  0.39658166396E+03  0.54959619820E+03  0.15294330000E+03 0.  0.
<mgrwt>
<rscale>  0 0.62987736E+03</rscale>
<asrwt>0</asrwt>
<pdfrwt beam="1">  1        2 0.15972148E+00 0.74511577E+03</pdfrwt>
<pdfrwt beam="2">  1       -2 0.49557865E-01 0.74511577E+03</pdfrwt>
<totfact> 0.93094651E+01</totfact>
</mgrwt>
</event>
<event>
 4    2  0.3388003E-007  0.6766115E+03  0.7818608E-02  0.1011309E+00
          2   -1    0    0  501    0  0.00000000000E+00  0.00000000000E+00  0.39408385452E+03  0.39408385453E+03  0.25500000000E-02 0. -1.
         -2   -1    0    0    0  501 -0.00000000000E+00 -0.00000000000E+00 -0.97699114052E+03  0.97699114052E+03  0.25500000000E-02 0.  1.
    8880023    1    1    2    0    0 -0.84624512196E+02 -0.12973668136E+03 -0.81072929670E+03  0.10559759057E+04  0.65864270000E+03 0.  1.
    8880022    1    1    2    0    0  0.84624512196E+02  0.12973668136E+03  0.22782201070E+03  0.31509908938E+03  0.15294330000E+03 0.  0.
<mgrwt>
<rscale>  0 0.50957621E+03</rscale>
<asrwt>0</asrwt>
<pdfrwt beam="1">  1        2 0.60628285E-01 0.67661150E+03</pdfrwt>
<pdfrwt beam="2">  1       -2 0.15030633E+00 0.67661150E+03</pdfrwt>
<totfact> 0.24556659E+01</totfact>
</mgrwt>
</event>
<event>
 4    2  0.3388003E-007  0.8274870E+03  0.7818608E-02  0.9654242E-01
          2   -1    0    0  501    0  0.00000000000E+00  0.00000000000E+00  0.97086059763E+03  0.97086059763E+03  0.25500000000E-02 0. -1.
         -2   -1    0    0    0  501 -0.00000000000E+00 -0.00000000000E+00 -0.66377499078E+03  0.66377499079E+03  0.25500000000E-02 0.  1.
    8880023    1    1    2    0    0  0.34713496070E+02  0.49971941980E+03 -0.25545538864E+03  0.86602089304E+03  0.65864270000E+03 0.  0.
    8880022    1    1    2    0    0 -0.34713496070E+02 -0.49971941980E+03  0.56254099549E+03  0.76861469538E+03  0.15294330000E+03 0.  0.
<mgrwt>
<rscale>  0 0.73807809E+03</rscale>
<asrwt>0</asrwt>
<pdfrwt beam="1">  1        2 0.14936317E+00 0.82748700E+03</pdfrwt>
<pdfrwt beam="2">  1       -2 0.10211923E+00 0.82748700E+03</pdfrwt>
<totfact> 0.20846894E+01</totfact>
</mgrwt>
</event>
<event>
 4    2  0.3388003E-007  0.1034633E+04  0.7818608E-02  0.9337587E-01
          2   -1    0    0  501    0  0.00000000000E+00  0.00000000000E+00  0.23182283588E+04  0.23182283588E+04  0.25500000000E-02 0. -1.
         -2   -1    0    0    0  501 -0.00000000000E+00 -0.00000000000E+00 -0.11020134188E+04  0.11020134188E+04  0.25500000000E-02 0.  1.
    8880023    1    1    2    0    0 -0.66564743784E+03  0.43996368922E+03 -0.75985205188E+03  0.12836821672E+04  0.65864270000E+03 0.  0.
    8880022    1    1    2    0    0  0.66564743784E+03 -0.43996368922E+03  0.19760669919E+04  0.21365596104E+04  0.15294330000E+03 0.  0.
<mgrwt>
<rscale>  0 0.97394949E+03</rscale>
<asrwt>0</asrwt>
<pdfrwt beam="1">  1        2 0.35665051E+00 0.10346327E+04</pdfrwt>
<pdfrwt beam="2">  1       -2 0.16954053E+00 0.10346327E+04</pdfrwt>
<totfact> 0.94785040E-01</totfact>
</mgrwt>
</event>
<event>
 4    2  0.3388003E-007  0.7787827E+03  0.7818608E-02  0.9758704E-01
          2   -1    0    0  501    0  0.00000000000E+00  0.00000000000E+00  0.12734857969E+04  0.12734857969E+04  0.25500000000E-02 0. -1.
         -2   -1    0    0    0  501 -0.00000000000E+00 -0.00000000000E+00 -0.35807081995E+03  0.35807081996E+03  0.25500000000E-02 0.  1.
    8880023    1    1    2    0    0  0.24731359398E+03  0.33395852629E+03  0.22375236553E+03  0.81028861426E+03  0.65864270000E+03 0.  0.
    8880022    1    1    2    0    0 -0.24731359398E+03 -0.33395852629E+03  0.69166261139E+03  0.82126800258E+03  0.15294330000E+03 0.  0.
<mgrwt>
<rscale>  0 0.67626590E+03</rscale>
<asrwt>0</asrwt>
<pdfrwt beam="1">  1        2 0.19592089E+00 0.77878272E+03</pdfrwt>
<pdfrwt beam="2">  1       -2 0.55087818E-01 0.77878272E+03</pdfrwt>
<totfact> 0.53921079E+01</totfact>
</mgrwt>
</event>
<event>
 4    2  0.3388003E-007  0.7548695E+03  0.7818608E-02  0.9818576E-01
          2   -1    0    0  501    0  0.00000000000E+00  0.00000000000E+00  0.15251803425E+04  0.15251803425E+04  0.25500000000E-02 0. -1.
         -2   -1    0    0    0  501 -0.00000000000E+00 -0.00000000000E+00 -0.71111788491E+03  0.71111788492E+03  0.25500000000E-02 0.  1.
    8880023    1    1    2    0    0 -0.31614934568E+03  0.18991402146E+03 -0.47159452357E+03  0.89007266291E+03  0.65864270000E+03 0.  1.
    8880022    1    1    2    0    0  0.31614934568E+03 -0.18991402146E+03  0.12856569811E+04  0.13462255645E+04  0.15294330000E+03 0.  0.
<mgrwt>
<rscale>  0 0.64375134E+03</rscale>
<asrwt>0</asrwt>
<pdfrwt beam="1">  1        2 0.23464313E+00 0.75486949E+03</pdfrwt>
<pdfrwt beam="2">  1       -2 0.10940275E+00 0.75486949E+03</pdfrwt>
<totfact> 0.83801975E+00</totfact>
</mgrwt>
</event>
<event>
 4    2  0.3388003E-007  0.7210028E+03  0.7818608E-02  0.9919207E-01
         -2   -1    0    0    0  501 -0.00000000000E+00  0.00000000000E+00  0.95882274130E+03  0.95882274130E+03  0.25500000000E-02 0.  1.
          2   -1    0    0  501    0  0.00000000000E+00 -0.00000000000E+00 -0.91040092282E+03  0.91040092282E+03  0.25500000000E-02 0. -1.
    8880023    1    1    2    0    0 -0.12592893961E+03 -0.26490882465E+03  0.78251739242E+03  0.10640387488E+04  0.65864270000E+03 0.  1.
    8880022    1    1    2    0    0  0.12592893961E+03  0.26490882465E+03 -0.73409557394E+03  0.80518491534E+03  0.15294330000E+03 0.  0.
<mgrwt>
<rscale>  0 0.59339377E+03</rscale>
<asrwt>0</asrwt>
<pdfrwt beam="1">  1        2 0.14006168E+00 0.72100277E+03</pdfrwt>
<pdfrwt beam="2">  1       -2 0.14751119E+00 0.72100277E+03</pdfrwt>
<totfact> 0.92231970E+00</totfact>
</mgrwt>
</event>
<event>
 4    2  0.3388003E-007  0.7219562E+03  0.7818608E-02  0.9916021E-01
         -2   -1    0    0    0  501 -0.00000000000E+00  0.00000000000E+00  0.48611193123E+03  0.48611193124E+03  0.25500000000E-02 0.  1.
          2   -1    0    0  501    0  0.00000000000E+00 -0.00000000000E+00 -0.29205526870E+04  0.29205526870E+04  0.25500000000E-02 0. -1.
    8880023    1    1    2    0    0 -0.29396449198E+03 -0.31551228844E+02  0.20169097330E+03  0.74959993167E+03  0.65864270000E+03 0.  1.
    8880022    1    1    2    0    0  0.29396449198E+03  0.31551228844E+02 -0.26361317291E+04  0.26570646866E+04  0.15294330000E+03 0.  0.
<mgrwt>
<rscale>  0 0.59491063E+03</rscale>
<asrwt>0</asrwt>
<pdfrwt beam="1">  1        2 0.44931579E+00 0.72195624E+03</pdfrwt>
<pdfrwt beam="2">  1       -2 0.74786453E-01 0.72195624E+03</pdfrwt>
<totfact> 0.33553049E+00</totfact>
</mgrwt>
</event>
<event>
 4    2  0.3388003E-007  0.8379894E+03  0.7818608E-02  0.9633983E-01
         -2   -1    0    0    0  501 -0.00000000000E+00  0.00000000000E+00  0.50762817130E+03  0.50762817130E+03  0.25500000000E-02 0.  1.
          2   -1    0    0  501    0  0.00000000000E+00 -0.00000000000E+00 -0.11638537714E+04  0.11638537714E+04  0.25500000000E-02 0. -1.
    8880023    1    1    2    0    0 -0.47163443474E+03  0.21442240669E+03 -0.21854018518E+02  0.83827430648E+03  0.65864270000E+03 0.  1.
    8880022    1    1    2    0    0  0.47163443474E+03 -0.21442240669E+03 -0.63437158160E+03  0.83320763624E+03  0.15294330000E+03 0.  0.
<mgrwt>
<rscale>  0 0.75087211E+03</rscale>
<asrwt>0</asrwt>
<pdfrwt beam="1">  1        2 0.17905443E+00 0.83798939E+03</pdfrwt>
<pdfrwt beam="2">  1       -2 0.78096642E-01 0.83798939E+03</pdfrwt>
<totfact> 0.29331972E+01</totfact>
</mgrwt>
</event>
<event>
 4    2  0.3388003E-007  0.7485475E+03  0.7818608E-02  0.9835714E-01
          2   -1    0    0  501    0  0.00000000000E+00  0.00000000000E+00  0.29320666183E+04  0.29320666183E+04  0.25500000000E-02 0. -1.
         -2   -1    0    0    0  501 -0.00000000000E+00 -0.00000000000E+00 -0.81282382889E+03  0.81282382889E+03  0.25500000000E-02 0.  1.
    8880023    1    1    2    0    0 -0.28266960371E+03  0.21589580324E+03 -0.62395993066E+03  0.97449951465E+03  0.65864270000E+03 0.  1.
    8880022    1    1    2    0    0  0.28266960371E+03 -0.21589580324E+03  0.27432027201E+04  0.27703909326E+04  0.15294330000E+03 0.  0.
<mgrwt>
<rscale>  0 0.63480660E+03</rscale>
<asrwt>0</asrwt>
<pdfrwt beam="1">  1        2 0.45108717E+00 0.74854747E+03</pdfrwt>
<pdfrwt beam="2">  1       -2 0.12504982E+00 0.74854747E+03</pdfrwt>
<totfact> 0.98036592E-01</totfact>
</mgrwt>
</event>
<event>
 4    2  0.3388003E-007  0.1236129E+04  0.7818608E-02  0.9122778E-01
         -2   -1    0    0    0  501 -0.00000000000E+00  0.00000000000E+00  0.92601404870E+03  0.92601404870E+03  0.25500000000E-02 0.  1.
          2   -1    0    0  501    0  0.00000000000E+00 -0.00000000000E+00 -0.14786294666E+04  0.14786294666E+04  0.25500000000E-02 0. -1.
    8880023    1    1    2    0    0  0.10226584168E+03 -0.10410318525E+04 -0.53603437260E+03  0.13473487578E+04  0.65864270000E+03 0.  0.
    8880022    1    1    2    0    0 -0.10226584168E+03  0.10410318525E+04 -0.16581045296E+02  0.10572947575E+04  0.15294330000E+03 0.  0.
<mgrwt>
<rscale>  0 0.11887311E+04</rscale>
<asrwt>0</asrwt>
<pdfrwt beam="1">  1        2 0.22748146E+00 0.12361294E+04</pdfrwt>
<pdfrwt beam="2">  1       -2 0.14246370E+00 0.12361294E+04</pdfrwt>
<totfact> 0.43425841E+00</totfact>
</mgrwt>
</event>
<event>
 4    2  0.3388003E-007  0.7800466E+03  0.7818608E-02  0.9755728E-01
          2   -1    0    0  501    0  0.00000000000E+00  0.00000000000E+00  0.35739014569E+04  0.35739014569E+04  0.25500000000E-02 0. -1.
         -2   -1    0    0    0  501 -0.00000000000E+00 -0.00000000000E+00 -0.17861027770E+03  0.17861027772E+03  0.25500000000E-02 0.  1.
    8880023    1    1    2    0    0 -0.40388161680E+03 -0.10743404495E+03  0.79266503304E+03  0.11121108287E+04  0.65864270000E+03 0.  1.
    8880022    1    1    2    0    0  0.40388161680E+03  0.10743404495E+03  0.26026261462E+04  0.26404009060E+04  0.15294330000E+03 0.  0.
<mgrwt>
<rscale>  0 0.67793549E+03</rscale>
<asrwt>0</asrwt>
<pdfrwt beam="1">  1        2 0.54983097E+00 0.78004656E+03</pdfrwt>
<pdfrwt beam="2">  1       -2 0.27478506E-01 0.78004656E+03</pdfrwt>
<totfact> 0.93620377E+00</totfact>
</mgrwt>
</event>
<event>
 4    2  0.3388003E-007  0.7106940E+03  0.7818608E-02  0.9955433E-01
          2   -1    0    0  501    0  0.00000000000E+00  0.00000000000E+00  0.12096903725E+04  0.12096903725E+04  0.25500000000E-02 0. -1.
         -2   -1    0    0    0  501 -0.00000000000E+00 -0.00000000000E+00 -0.34049821111E+03  0.34049821112E+03  0.25500000000E-02 0.  1.
    8880023    1    1    2    0    0  0.24458060469E+03 -0.10703277548E+03  0.94896874726E+02  0.71700161110E+03  0.65864270000E+03 0.  0.
    8880022    1    1    2    0    0 -0.24458060469E+03  0.10703277548E+03  0.77429528669E+03  0.83318697255E+03  0.15294330000E+03 0.  0.
<mgrwt>
<rscale>  0 0.57648364E+03</rscale>
<asrwt>0</asrwt>
<pdfrwt beam="1">  1        2 0.18610621E+00 0.71069395E+03</pdfrwt>
<pdfrwt beam="2">  1       -2 0.52384341E-01 0.71069395E+03</pdfrwt>
<totfact> 0.65607318E+01</totfact>
</mgrwt>
</event>
<event>
 4    2  0.3388003E-007  0.7397654E+03  0.7818608E-02  0.9860631E-01
          2   -1    0    0  501    0  0.00000000000E+00  0.00000000000E+00  0.25940521680E+04  0.25940521680E+04  0.25500000000E-02 0. -1.
         -2   -1    0    0    0  501 -0.00000000000E+00 -0.00000000000E+00 -0.40398616801E+03  0.40398616802E+03  0.25500000000E-02 0.  1.
    8880023    1    1    2    0    0 -0.29018123393E+03 -0.17098989313E+03 -0.36778471188E+02  0.74067911695E+03  0.65864270000E+03 0.  1.
    8880022    1    1    2    0    0  0.29018123393E+03  0.17098989313E+03  0.22268444712E+04  0.22573592191E+04  0.15294330000E+03 0.  0.
<mgrwt>
<rscale>  0 0.62207811E+03</rscale>
<asrwt>0</asrwt>
<pdfrwt beam="1">  1        2 0.39908493E+00 0.73976543E+03</pdfrwt>
<pdfrwt beam="2">  1       -2 0.62151721E-01 0.73976543E+03</pdfrwt>
<totfact> 0.77689319E+00</totfact>
</mgrwt>
</event>
<event>
 4    2  0.3388003E-007  0.8118426E+03  0.7818608E-02  0.9685752E-01
          2   -1    0    0  501    0  0.00000000000E+00  0.00000000000E+00  0.31519168719E+04  0.31519168719E+04  0.25500000000E-02 0. -1.
         -2   -1    0    0    0  501 -0.00000000000E+00 -0.00000000000E+00 -0.23205921692E+03  0.23205921694E+03  0.25500000000E-02 0.  1.
    8880023    1    1    2    0    0  0.39086516740E+03 -0.26926306140E+03  0.59576658332E+03  0.10069886809E+04  0.65864270000E+03 0.  1.
    8880022    1    1    2    0    0 -0.39086516740E+03  0.26926306140E+03  0.23240910717E+04  0.23769874080E+04  0.15294330000E+03 0.  0.
<mgrwt>
<rscale>  0 0.71871508E+03</rscale>
<asrwt>0</asrwt>
<pdfrwt beam="1">  1        2 0.48491021E+00 0.81184258E+03</pdfrwt>
<pdfrwt beam="2">  1       -2 0.35701423E-01 0.81184258E+03</pdfrwt>
<totfact> 0.10851569E+01</totfact>
</mgrwt>
</event>
<event>
 4    2  0.3388003E-007  0.6858946E+03  0.7818608E-02  0.1006168E+00
          2   -1    0    0  501    0  0.00000000000E+00  0.00000000000E+00  0.13269060022E+04  0.13269060022E+04  0.25500000000E-02 0. -1.
         -2   -1    0    0    0  501 -0.00000000000E+00 -0.00000000000E+00 -0.49489372694E+03  0.49489372695E+03  0.25500000000E-02 0.  1.
    8880023    1    1    2    0    0  0.26613339501E+02  0.18955983350E+03 -0.23652499525E+03  0.72553117091E+03  0.65864270000E+03 0.  1.
    8880022    1    1    2    0    0 -0.26613339501E+02 -0.18955983350E+03  0.10685372705E+04  0.10962685582E+04  0.15294330000E+03 0.  0.
<mgrwt>
<rscale>  0 0.53026341E+03</rscale>
<asrwt>0</asrwt>
<pdfrwt beam="1">  1        2 0.20413938E+00 0.68589460E+03</pdfrwt>
<pdfrwt beam="2">  1       -2 0.76137497E-01 0.68589460E+03</pdfrwt>
<totfact> 0.25325211E+01</totfact>
</mgrwt>
</event>
<event>
 4    2  0.3388003E-007  0.9160514E+03  0.7818608E-02  0.9500740E-01
         -2   -1    0    0    0  501 -0.00000000000E+00  0.00000000000E+00  0.39773537395E+03  0.39773537396E+03  0.25500000000E-02 0.  1.
          2   -1    0    0  501    0  0.00000000000E+00 -0.00000000000E+00 -0.20593884185E+04  0.20593884185E+04  0.25500000000E-02 0. -1.
    8880023    1    1    2    0    0  0.10649131846E+03 -0.62769381860E+03 -0.33085875065E+03  0.97397004572E+03  0.65864270000E+03 0.  0.
    8880022    1    1    2    0    0 -0.10649131846E+03  0.62769381860E+03 -0.13307942939E+04  0.14831537468E+04  0.15294330000E+03 0.  0.
<mgrwt>
<rscale>  0 0.84229275E+03</rscale>
<asrwt>0</asrwt>
<pdfrwt beam="1">  1        2 0.31682898E+00 0.91605138E+03</pdfrwt>
<pdfrwt beam="2">  1       -2 0.61190059E-01 0.91605138E+03</pdfrwt>
<totfact> 0.15593173E+01</totfact>
</mgrwt>
</event>
<event>
 4    2  0.3388003E-007  0.7622414E+03  0.7818608E-02  0.9799339E-01
         -2   -1    0    0    0  501 -0.00000000000E+00  0.00000000000E+00  0.25503325207E+03  0.25503325209E+03  0.25500000000E-02 0.  1.
          2   -1    0    0  501    0  0.00000000000E+00 -0.00000000000E+00 -0.17946600920E+04  0.17946600920E+04  0.25500000000E-02 0. -1.
    8880023    1    1    2    0    0  0.37299428100E+03  0.89872560029E+02 -0.45176096176E+03  0.88605867951E+03  0.65864270000E+03 0.  1.
    8880022    1    1    2    0    0 -0.37299428100E+03 -0.89872560029E+02 -0.10878658782E+04  0.11636346646E+04  0.15294330000E+03 0.  0.
<mgrwt>
<rscale>  0 0.65398038E+03</rscale>
<asrwt>0</asrwt>
<pdfrwt beam="1">  1        2 0.27610154E+00 0.76224144E+03</pdfrwt>
<pdfrwt beam="2">  1       -2 0.39235886E-01 0.76224144E+03</pdfrwt>
<totfact> 0.54663137E+01</totfact>
</mgrwt>
</event>
<event>
 4    2  0.3388003E-007  0.6806932E+03  0.7818608E-02  0.1008934E+00
          2   -1    0    0  501    0  0.00000000000E+00  0.00000000000E+00  0.10951665419E+04  0.10951665419E+04  0.25500000000E-02 0. -1.
         -2   -1    0    0    0  501 -0.00000000000E+00 -0.00000000000E+00 -0.19122860262E+03  0.19122860264E+03  0.25500000000E-02 0.  1.
    8880023    1    1    2    0    0  0.16942648693E+03 -0.28769147650E+02  0.61784835440E+03  0.91928221653E+03  0.65864270000E+03 0.  0.
    8880022    1    1    2    0    0 -0.16942648693E+03  0.28769147650E+02  0.28608958493E+03  0.36711292806E+03  0.15294330000E+03 0.  1.
<mgrwt>
<rscale>  0 0.51900411E+03</rscale>
<asrwt>0</asrwt>
<pdfrwt beam="1">  1        2 0.16848716E+00 0.68069318E+03</pdfrwt>
<pdfrwt beam="2">  1       -2 0.29419785E-01 0.68069318E+03</pdfrwt>
<totfact> 0.23649409E+02</totfact>
</mgrwt>
</event>
<event>
 4    2  0.3388003E-007  0.7724944E+03  0.7818608E-02  0.9773772E-01
         -2   -1    0    0    0  501 -0.00000000000E+00  0.00000000000E+00  0.90475999331E+03  0.90475999332E+03  0.25500000000E-02 0.  1.
          2   -1    0    0  501    0  0.00000000000E+00 -0.00000000000E+00 -0.41081022130E+03  0.41081022131E+03  0.25500000000E-02 0. -1.
    8880023    1    1    2    0    0  0.29009760046E+03  0.28067924062E+03  0.21585209734E+03  0.80208465145E+03  0.65864270000E+03 0. -1.
    8880022    1    1    2    0    0 -0.29009760046E+03 -0.28067924062E+03  0.27809767467E+03  0.51348556317E+03  0.15294330000E+03 0.  1.
<mgrwt>
<rscale>  0 0.66789257E+03</rscale>
<asrwt>0</asrwt>
<pdfrwt beam="1">  1        2 0.63201573E-01 0.77249444E+03</pdfrwt>
<pdfrwt beam="2">  1       -2 0.13919384E+00 0.77249444E+03</pdfrwt>
<totfact> 0.28427664E+01</totfact>
</mgrwt>
</event>
<event>
 4    2  0.3388003E-007  0.6774190E+03  0.7818608E-02  0.1010823E+00
          2   -1    0    0  501    0  0.00000000000E+00  0.00000000000E+00  0.20220822634E+04  0.20220822634E+04  0.25500000000E-02 0. -1.
         -2   -1    0    0    0  501 -0.00000000000E+00 -0.00000000000E+00 -0.14329280787E+03  0.14329280789E+03  0.25500000000E-02 0.  1.
    8880023    1    1    2    0    0 -0.30001018765E+02  0.15551909005E+03  0.73085752468E+03  0.99651852774E+03  0.65864270000E+03 0.  1.
    8880022    1    1    2    0    0  0.30001018765E+02 -0.15551909005E+03  0.11479319308E+04  0.11688565435E+04  0.15294330000E+03 0.  0.
<mgrwt>
<rscale>  0 0.51148864E+03</rscale>
<asrwt>0</asrwt>
<pdfrwt beam="1">  1        2 0.31108957E+00 0.67741897E+03</pdfrwt>
<pdfrwt beam="2">  1       -2 0.22045048E-01 0.67741897E+03</pdfrwt>
<totfact> 0.12064745E+02</totfact>
</mgrwt>
</event>
<event>
 4    2  0.3388003E-007  0.1384275E+04  0.7818608E-02  0.8995998E-01
          2   -1    0    0  501    0  0.00000000000E+00  0.00000000000E+00  0.13309659046E+04  0.13309659046E+04  0.25500000000E-02 0. -1.
         -2   -1    0    0    0  501 -0.00000000000E+00 -0.00000000000E+00 -0.16196160189E+04  0.16196160189E+04  0.25500000000E-02 0.  1.
    8880023    1    1    2    0    0  0.11958473156E+04 -0.22881757526E+03 -0.82489483737E+03  0.16114186247E+04  0.65864270000E+03 0.  0.
    8880022    1    1    2    0    0 -0.11958473156E+04  0.22881757526E+03  0.53624472302E+03  0.13391632989E+04  0.15294330000E+03 0.  0.
<mgrwt>
<rscale>  0 0.13431911E+04</rscale>
<asrwt>0</asrwt>
<pdfrwt beam="1">  1        2 0.20476399E+00 0.13842754E+04</pdfrwt>
<pdfrwt beam="2">  1       -2 0.24917170E+00 0.13842754E+04</pdfrwt>
<totfact> 0.98261593E-01</totfact>
</mgrwt>
</event>
<event>
 4    2  0.3388003E-007  0.8910266E+03  0.7818608E-02  0.9540593E-01
          2   -1    0    0  501    0  0.00000000000E+00  0.00000000000E+00  0.10017708694E+04  0.10017708694E+04  0.25500000000E-02 0. -1.
         -2   -1    0    0    0  501 -0.00000000000E+00 -0.00000000000E+00 -0.89483030914E+03  0.89483030914E+03  0.25500000000E-02 0.  1.
    8880023    1    1    2    0    0  0.94513939065E+02 -0.59260892945E+03 -0.50650030853E+03  0.10249248737E+04  0.65864270000E+03 0.  0.
    8880022    1    1    2    0    0 -0.94513939065E+02  0.59260892945E+03  0.61344086883E+03  0.87167630489E+03  0.15294330000E+03 0.  0.
<mgrwt>
<rscale>  0 0.81356092E+03</rscale>
<asrwt>0</asrwt>
<pdfrwt beam="1">  1        2 0.15411860E+00 0.89102662E+03</pdfrwt>
<pdfrwt beam="2">  1       -2 0.13766620E+00 0.89102662E+03</pdfrwt>
<totfact> 0.94440512E+00</totfact>
</mgrwt>
</event>
<event>
 4    2  0.3388003E-007  0.7113956E+03  0.7818608E-02  0.9952855E-01
          2   -1    0    0  501    0  0.00000000000E+00  0.00000000000E+00  0.16601382065E+04  0.16601382065E+04  0.25500000000E-02 0. -1.
         -2   -1    0    0    0  501 -0.00000000000E+00 -0.00000000000E+00 -0.26524304724E+03  0.26524304725E+03  0.25500000000E-02 0.  1.
    8880023    1    1    2    0    0  0.26815056787E+03  0.19202673273E+02  0.27357499770E+03  0.76218564362E+03  0.65864270000E+03 0.  1.
    8880022    1    1    2    0    0 -0.26815056787E+03 -0.19202673273E+02  0.11213201616E+04  0.11631956102E+04  0.15294330000E+03 0.  0.
<mgrwt>
<rscale>  0 0.57766703E+03</rscale>
<asrwt>0</asrwt>
<pdfrwt beam="1">  1        2 0.25540588E+00 0.71139558E+03</pdfrwt>
<pdfrwt beam="2">  1       -2 0.40806623E-01 0.71139558E+03</pdfrwt>
<totfact> 0.60312096E+01</totfact>
</mgrwt>
</event>
<event>
 4    2  0.3388003E-007  0.8020499E+03  0.7818608E-02  0.9706381E-01
         -2   -1    0    0    0  501 -0.00000000000E+00  0.00000000000E+00  0.24280888025E+03  0.24280888026E+03  0.25500000000E-02 0.  1.
          2   -1    0    0  501    0  0.00000000000E+00 -0.00000000000E+00 -0.27839588191E+04  0.27839588191E+04  0.25500000000E-02 0. -1.
    8880023    1    1    2    0    0  0.10977287257E+03 -0.44432395302E+03 -0.53671479958E+03  0.96506312805E+03  0.65864270000E+03 0.  0.
    8880022    1    1    2    0    0 -0.10977287257E+03  0.44432395302E+03 -0.20044351393E+04  0.20617045713E+04  0.15294330000E+03 0. -1.
<mgrwt>
<rscale>  0 0.70638130E+03</rscale>
<asrwt>0</asrwt>
<pdfrwt beam="1">  1        2 0.42830133E+00 0.80204991E+03</pdfrwt>
<pdfrwt beam="2">  1       -2 0.37355214E-01 0.80204991E+03</pdfrwt>
<totfact> 0.16706071E+01</totfact>
</mgrwt>
</event>
<event>
 4    2  0.3388003E-007  0.9118740E+03  0.7818608E-02  0.9507233E-01
          2   -1    0    0  501    0  0.00000000000E+00  0.00000000000E+00  0.13244016985E+04  0.13244016985E+04  0.25500000000E-02 0. -1.
         -2   -1    0    0    0  501 -0.00000000000E+00 -0.00000000000E+00 -0.13609660400E+04  0.13609660400E+04  0.25500000000E-02 0.  1.
    8880023    1    1    2    0    0 -0.18870128511E+03 -0.60174395512E+03 -0.11066226293E+04  0.14339204345E+04  0.65864270000E+03 0.  1.
    8880022    1    1    2    0    0  0.18870128511E+03  0.60174395512E+03  0.10700582878E+04  0.12514473041E+04  0.15294330000E+03 0.  0.
<mgrwt>
<rscale>  0 0.83752679E+03</rscale>
<asrwt>0</asrwt>
<pdfrwt beam="1">  1        2 0.20375411E+00 0.91187399E+03</pdfrwt>
<pdfrwt beam="2">  1       -2 0.20937939E+00 0.91187399E+03</pdfrwt>
<totfact> 0.18583498E+00</totfact>
</mgrwt>
</event>
<event>
 4    2  0.3388003E-007  0.8662431E+03  0.7818608E-02  0.9582553E-01
         -2   -1    0    0    0  501 -0.00000000000E+00  0.00000000000E+00  0.36179057570E+03  0.36179057571E+03  0.25500000000E-02 0.  1.
          2   -1    0    0  501    0  0.00000000000E+00 -0.00000000000E+00 -0.20720343113E+04  0.20720343113E+04  0.25500000000E-02 0. -1.
    8880023    1    1    2    0    0  0.13352823079E+03 -0.54656846633E+03 -0.31514728732E+03  0.92178896488E+03  0.65864270000E+03 0.  1.
    8880022    1    1    2    0    0 -0.13352823079E+03  0.54656846633E+03 -0.13950964483E+04  0.15120359221E+04  0.15294330000E+03 0.  0.
<mgrwt>
<rscale>  0 0.78461766E+03</rscale>
<asrwt>0</asrwt>
<pdfrwt beam="1">  1        2 0.31877450E+00 0.86624309E+03</pdfrwt>
<pdfrwt beam="2">  1       -2 0.55660090E-01 0.86624309E+03</pdfrwt>
<totfact> 0.18842882E+01</totfact>
</mgrwt>
</event>
<event>
 4    2  0.3388003E-007  0.1157376E+04  0.7818608E-02  0.9199712E-01
         -2   -1    0    0    0  501 -0.00000000000E+00  0.00000000000E+00  0.13623099104E+04  0.13623099104E+04  0.25500000000E-02 0.  1.
          2   -1    0    0  501    0  0.00000000000E+00 -0.00000000000E+00 -0.22756036685E+04  0.22756036685E+04  0.25500000000E-02 0. -1.
    8880023    1    1    2    0    0 -0.27992905009E+03  0.90958767803E+03 -0.19214565301E+04  0.22431039700E+04  0.65864270000E+03 0. -1.
    8880022    1    1    2    0    0  0.27992905009E+03 -0.90958767803E+03  0.10081627720E+04  0.13948096089E+04  0.15294330000E+03 0.  0.
<mgrwt>
<rscale>  0 0.11056404E+04</rscale>
<asrwt>0</asrwt>
<pdfrwt beam="1">  1        2 0.35009287E+00 0.11573764E+04</pdfrwt>
<pdfrwt beam="2">  1       -2 0.20958614E+00 0.11573764E+04</pdfrwt>
<totfact> 0.52810866E-01</totfact>
</mgrwt>
</event>
<event>
 4    2  0.3388003E-007  0.7466212E+03  0.7818608E-02  0.9841063E-01
          2   -1    0    0  501    0  0.00000000000E+00  0.00000000000E+00  0.28405003531E+03  0.28405003532E+03  0.25500000000E-02 0. -1.
         -2   -1    0    0    0  501 -0.00000000000E+00 -0.00000000000E+00 -0.15456597059E+04  0.15456597059E+04  0.25500000000E-02 0.  1.
    8880023    1    1    2    0    0 -0.30589435430E+03  0.17338308565E+03 -0.12377887549E+04  0.14455325173E+04  0.65864270000E+03 0.  1.
    8880022    1    1    2    0    0  0.30589435430E+03 -0.17338308565E+03 -0.23820915675E+02  0.38417722397E+03  0.15294330000E+03 0.  0.
<mgrwt>
<rscale>  0 0.63204651E+03</rscale>
<asrwt>0</asrwt>
<pdfrwt beam="1">  1        2 0.43700006E-01 0.74662123E+03</pdfrwt>
<pdfrwt beam="2">  1       -2 0.23779380E+00 0.74662123E+03</pdfrwt>
<totfact> 0.91411675E+00</totfact>
</mgrwt>
</event>
<event>
 4    2  0.3388003E-007  0.1374391E+04  0.7818608E-02  0.9003842E-01
          2   -1    0    0  501    0  0.00000000000E+00  0.00000000000E+00  0.24590554894E+04  0.24590554894E+04  0.25500000000E-02 0. -1.
         -2   -1    0    0    0  501 -0.00000000000E+00 -0.00000000000E+00 -0.10791693246E+04  0.10791693246E+04  0.25500000000E-02 0.  1.
    8880023    1    1    2    0    0  0.12036101679E+04  0.80385800115E+02 -0.35514181941E+03  0.14195334555E+04  0.65864270000E+03 0.  0.
    8880022    1    1    2    0    0 -0.12036101679E+04 -0.80385800115E+02  0.17350279842E+04  0.21186913585E+04  0.15294330000E+03 0.  0.
<mgrwt>
<rscale>  0 0.13329426E+04</rscale>
<asrwt>0</asrwt>
<pdfrwt beam="1">  1        2 0.37831622E+00 0.13743906E+04</pdfrwt>
<pdfrwt beam="2">  1       -2 0.16602605E+00 0.13743906E+04</pdfrwt>
<totfact> 0.79962069E-01</totfact>
</mgrwt>
</event>
<event>
 4    2  0.3388003E-007  0.8368043E+03  0.7818608E-02  0.9636236E-01
         -2   -1    0    0    0  501 -0.00000000000E+00  0.00000000000E+00  0.27410159152E+03  0.27410159153E+03  0.25500000000E-02 0.  1.
          2   -1    0    0  501    0  0.00000000000E+00 -0.00000000000E+00 -0.24929328747E+04  0.24929328747E+04  0.25500000000E-02 0. -1.
    8880023    1    1    2    0    0 -0.48274882718E+02  0.51390727885E+03 -0.52063138316E+03  0.98554472194E+03  0.65864270000E+03 0.  0.
    8880022    1    1    2    0    0  0.48274882718E+02 -0.51390727885E+03 -0.16981999000E+04  0.17814897443E+04  0.15294330000E+03 0.  0.
<mgrwt>
<rscale>  0 0.74943588E+03</rscale>
<asrwt>0</asrwt>
<pdfrwt beam="1">  1        2 0.38352812E+00 0.83680426E+03</pdfrwt>
<pdfrwt beam="2">  1       -2 0.42169477E-01 0.83680426E+03</pdfrwt>
<totfact> 0.19341657E+01</totfact>
</mgrwt>
</event>
<event>
 4    2  0.3388003E-007  0.7588627E+03  0.7818608E-02  0.9808061E-01
         -2   -1    0    0    0  501 -0.00000000000E+00  0.00000000000E+00  0.45076777715E+03  0.45076777715E+03  0.25500000000E-02 0.  1.
          2   -1    0    0  501    0  0.00000000000E+00 -0.00000000000E+00 -0.32271857506E+04  0.32271857506E+04  0.25500000000E-02 0. -1.
    8880023    1    1    2    0    0  0.20900903019E+03  0.31365208254E+03  0.10666109115E+03  0.76632186332E+03  0.65864270000E+03 0.  1.
    8880022    1    1    2    0    0 -0.20900903019E+03 -0.31365208254E+03 -0.28830790646E+04  0.29116316644E+04  0.15294330000E+03 0.  0.
<mgrwt>
<rscale>  0 0.64931747E+03</rscale>
<asrwt>0</asrwt>
<pdfrwt beam="1">  1        2 0.49649010E+00 0.75886271E+03</pdfrwt>
<pdfrwt beam="2">  1       -2 0.69348891E-01 0.75886271E+03</pdfrwt>
<totfact> 0.25358517E+00</totfact>
</mgrwt>
</event>
<event>
 4    2  0.3388003E-007  0.7839089E+03  0.7818608E-02  0.9746734E-01
          2   -1    0    0  501    0  0.00000000000E+00  0.00000000000E+00  0.12892648062E+04  0.12892648062E+04  0.25500000000E-02 0. -1.
         -2   -1    0    0    0  501 -0.00000000000E+00 -0.00000000000E+00 -0.31721582546E+03  0.31721582547E+03  0.25500000000E-02 0.  1.
    8880023    1    1    2    0    0 -0.25862669207E+03 -0.33736515354E+03  0.40773157001E+03  0.88360525809E+03  0.65864270000E+03 0.  0.
    8880022    1    1    2    0    0  0.25862669207E+03  0.33736515354E+03  0.56431741076E+03  0.72287537362E+03  0.15294330000E+03 0. -1.
<mgrwt>
<rscale>  0 0.68301174E+03</rscale>
<asrwt>0</asrwt>
<pdfrwt beam="1">  1        2 0.19834844E+00 0.78390894E+03</pdfrwt>
<pdfrwt beam="2">  1       -2 0.48802433E-01 0.78390894E+03</pdfrwt>
<totfact> 0.67664511E+01</totfact>
</mgrwt>
</event>
<event>
 4    2  0.3388003E-007  0.6726355E+03  0.7818608E-02  0.1013840E+00
         -2   -1    0    0    0  501 -0.00000000000E+00  0.00000000000E+00  0.18944114527E+04  0.18944114527E+04  0.25500000000E-02 0.  1.
          2   -1    0    0  501    0  0.00000000000E+00 -0.00000000000E+00 -0.37472871749E+03  0.37472871750E+03  0.25500000000E-02 0. -1.
    8880023    1    1    2    0    0  0.28352051109E+02  0.13350824135E+03  0.18001699961E+04  0.19217311234E+04  0.65864270000E+03 0.  1.
    8880022    1    1    2    0    0 -0.28352051109E+02 -0.13350824135E+03 -0.28048726089E+03  0.34740904687E+03  0.15294330000E+03 0.  0.
<mgrwt>
<rscale>  0 0.49976606E+03</rscale>
<asrwt>0</asrwt>
<pdfrwt beam="1">  1        2 0.57650573E-01 0.67263548E+03</pdfrwt>
<pdfrwt beam="2">  1       -2 0.29144791E+00 0.67263548E+03</pdfrwt>
<totfact> 0.32228754E+00</totfact>
</mgrwt>
</event>
<event>
 4    2  0.3388003E-007  0.6817238E+03  0.7818608E-02  0.1008365E+00
          2   -1    0    0  501    0  0.00000000000E+00  0.00000000000E+00  0.18354585998E+03  0.18354586000E+03  0.25500000000E-02 0. -1.
         -2   -1    0    0    0  501 -0.00000000000E+00 -0.00000000000E+00 -0.11703011277E+04  0.11703011277E+04  0.25500000000E-02 0.  1.
    8880023    1    1    2    0    0 -0.14241073481E+03 -0.10322955358E+03 -0.82456217672E+03  0.10698832402E+04  0.65864270000E+03 0.  1.
    8880022    1    1    2    0    0  0.14241073481E+03  0.10322955358E+03 -0.16219309103E+03  0.28396374754E+03  0.15294330000E+03 0.  0.
<mgrwt>
<rscale>  0 0.52129688E+03</rscale>
<asrwt>0</asrwt>
<pdfrwt beam="1">  1        2 0.28237825E-01 0.68172382E+03</pdfrwt>
<pdfrwt beam="2">  1       -2 0.18004632E+00 0.68172382E+03</pdfrwt>
<totfact> 0.35174404E+01</totfact>
</mgrwt>
</event>
<event>
 4    2  0.3388003E-007  0.7763077E+03  0.7818608E-02  0.9764583E-01
         -2   -1    0    0    0  501 -0.00000000000E+00  0.00000000000E+00  0.36892932057E+03  0.36892932058E+03  0.25500000000E-02 0.  1.
          2   -1    0    0  501    0  0.00000000000E+00 -0.00000000000E+00 -0.13481956530E+04  0.13481956530E+04  0.25500000000E-02 0. -1.
    8880023    1    1    2    0    0  0.35009884857E+03  0.21511445460E+03 -0.16698053444E+03  0.79406305637E+03  0.65864270000E+03 0.  0.
    8880022    1    1    2    0    0 -0.35009884857E+03 -0.21511445460E+03 -0.81228579800E+03  0.92306191720E+03  0.15294330000E+03 0.  0.
<mgrwt>
<rscale>  0 0.67298363E+03</rscale>
<asrwt>0</asrwt>
<pdfrwt beam="1">  1        2 0.20741471E+00 0.77630770E+03</pdfrwt>
<pdfrwt beam="2">  1       -2 0.56758358E-01 0.77630770E+03</pdfrwt>
<totfact> 0.45897508E+01</totfact>
</mgrwt>
</event>
<event>
 4    2  0.3388003E-007  0.6877269E+03  0.7818608E-02  0.1005252E+00
         -2   -1    0    0    0  501 -0.00000000000E+00  0.00000000000E+00  0.21063176729E+03  0.21063176730E+03  0.25500000000E-02 0.  1.
          2   -1    0    0  501    0  0.00000000000E+00 -0.00000000000E+00 -0.10634189929E+04  0.10634189929E+04  0.25500000000E-02 0. -1.
    8880023    1    1    2    0    0  0.19780653256E+03  0.55388688554E+01 -0.69823111592E+03  0.98004846864E+03  0.65864270000E+03 0. -1.
    8880022    1    1    2    0    0 -0.19780653256E+03 -0.55388688554E+01 -0.15455610973E+03  0.29400229159E+03  0.15294330000E+03 0.  1.
<mgrwt>
<rscale>  0 0.53406021E+03</rscale>
<asrwt>0</asrwt>
<pdfrwt beam="1">  1        2 0.16360292E+00 0.68772692E+03</pdfrwt>
<pdfrwt beam="2">  1       -2 0.32404888E-01 0.68772692E+03</pdfrwt>
<totfact> 0.20653045E+02</totfact>
</mgrwt>
</event>
<event>
 4    2  0.3388003E-007  0.1104435E+04  0.7818608E-02  0.9256134E-01
          2   -1    0    0  501    0  0.00000000000E+00  0.00000000000E+00  0.23274324009E+04  0.23274324009E+04  0.25500000000E-02 0. -1.
         -2   -1    0    0    0  501 -0.00000000000E+00 -0.00000000000E+00 -0.65720301173E+03  0.65720301174E+03  0.25500000000E-02 0.  1.
    8880023    1    1    2    0    0 -0.74462844232E+03 -0.48113937559E+03  0.19425729730E+02  0.11046058940E+04  0.65864270000E+03 0.  1.
    8880022    1    1    2    0    0  0.74462844232E+03  0.48113937559E+03  0.16508036594E+04  0.18800295186E+04  0.15294330000E+03 0.  0.
<mgrwt>
<rscale>  0 0.10492349E+04</rscale>
<asrwt>0</asrwt>
<pdfrwt beam="1">  1        2 0.35806653E+00 0.11044351E+04</pdfrwt>
<pdfrwt beam="2">  1       -2 0.10110816E+00 0.11044351E+04</pdfrwt>
<totfact> 0.34917308E+00</totfact>
</mgrwt>
</event>
<event>
 4    2  0.3388003E-007  0.9427436E+03  0.7818608E-02  0.9460632E-01
          2   -1    0    0  501    0  0.00000000000E+00  0.00000000000E+00  0.24616573598E+04  0.24616573598E+04  0.25500000000E-02 0. -1.
         -2   -1    0    0    0  501 -0.00000000000E+00 -0.00000000000E+00 -0.44017630274E+03  0.44017630274E+03  0.25500000000E-02 0.  1.
    8880023    1    1    2    0    0  0.63824850374E+03 -0.21816086564E+03  0.21425305631E+03  0.96678327159E+03  0.65864270000E+03 0.  1.
    8880022    1    1    2    0    0 -0.63824850374E+03  0.21816086564E+03  0.18072280007E+04  0.19350503909E+04  0.15294330000E+03 0.  0.
<mgrwt>
<rscale>  0 0.87249526E+03</rscale>
<asrwt>0</asrwt>
<pdfrwt beam="1">  1        2 0.37871650E+00 0.94274361E+03</pdfrwt>
<pdfrwt beam="2">  1       -2 0.67719434E-01 0.94274361E+03</pdfrwt>
<totfact> 0.74524303E+00</totfact>
</mgrwt>
</event>
<event>
 4    2  0.3388003E-007  0.7029282E+03  0.7818608E-02  0.9985264E-01
          2   -1    0    0  501    0  0.00000000000E+00  0.00000000000E+00  0.30001305809E+04  0.30001305809E+04  0.25500000000E-02 0. -1.
         -2   -1    0    0    0  501 -0.00000000000E+00 -0.00000000000E+00 -0.14779099051E+03  0.14779099053E+03  0.25500000000E-02 0.  1.
    8880023    1    1    2    0    0 -0.52603782938E+02  0.23985551386E+03  0.75827004702E+03  0.10339639723E+04  0.65864270000E+03 0.  1.
    8880022    1    1    2    0    0  0.52603782938E+02 -0.23985551386E+03  0.20940695434E+04  0.21139575991E+04  0.15294330000E+03 0.  0.
<mgrwt>
<rscale>  0 0.56301125E+03</rscale>
<asrwt>0</asrwt>
<pdfrwt beam="1">  1        2 0.46155856E+00 0.70292818E+03</pdfrwt>
<pdfrwt beam="2">  1       -2 0.22737075E-01 0.70292818E+03</pdfrwt>
<totfact> 0.31526671E+01</totfact>
</mgrwt>
</event>
<event>
 4    2  0.3388003E-007  0.7651835E+03  0.7818608E-02  0.9791868E-01
          2   -1    0    0  501    0  0.00000000000E+00  0.00000000000E+00  0.42230901790E+03  0.42230901790E+03  0.25500000000E-02 0. -1.
         -2   -1    0    0    0  501 -0.00000000000E+00 -0.00000000000E+00 -0.13858057806E+04  0.13858057806E+04  0.25500000000E-02 0.  1.
    8880023    1    1    2    0    0  0.31894224850E+03 -0.22354303900E+03 -0.11241835527E+04  0.13598876845E+04  0.65864270000E+03 0.  1.
    8880022    1    1    2    0    0 -0.31894224850E+03  0.22354303900E+03  0.16068679002E+03  0.44822711393E+03  0.15294330000E+03 0.  0.
<mgrwt>
<rscale>  0 0.65800781E+03</rscale>
<asrwt>0</asrwt>
<pdfrwt beam="1">  1        2 0.64970619E-01 0.76518354E+03</pdfrwt>
<pdfrwt beam="2">  1       -2 0.21320089E+00 0.76518354E+03</pdfrwt>
<totfact> 0.83239094E+00</totfact>
</mgrwt>
</event>
<event>
 4    2  0.3388003E-007  0.7549874E+03  0.7818608E-02  0.9818262E-01
          2   -1    0    0  501    0  0.00000000000E+00  0.00000000000E+00  0.11643766254E+04  0.11643766254E+04  0.25500000000E-02 0. -1.
         -2   -1    0    0    0  501 -0.00000000000E+00 -0.00000000000E+00 -0.44273931680E+03  0.44273931681E+03  0.25500000000E-02 0.  1.
    8880023    1    1    2    0    0  0.29072100380E+02 -0.36790025170E+03 -0.30357530354E+02  0.75559749082E+03  0.65864270000E+03 0.  1.
    8880022    1    1    2    0    0 -0.29072100380E+02  0.36790025170E+03  0.75199483894E+03  0.85151845138E+03  0.15294330000E+03 0.  0.
<mgrwt>
<rscale>  0 0.64391660E+03</rscale>
<asrwt>0</asrwt>
<pdfrwt beam="1">  1        2 0.17913486E+00 0.75498741E+03</pdfrwt>
<pdfrwt beam="2">  1       -2 0.68113742E-01 0.75498741E+03</pdfrwt>
<totfact> 0.39938517E+01</totfact>
</mgrwt>
</event>
<event>
 4    2  0.3388003E-007  0.7689072E+03  0.7818608E-02  0.9782571E-01
         -2   -1    0    0    0  501 -0.00000000000E+00  0.00000000000E+00  0.12341092328E+04  0.12341092329E+04  0.25500000000E-02 0.  1.
          2   -1    0    0  501    0  0.00000000000E+00 -0.00000000000E+00 -0.65254828101E+03  0.65254828102E+03  0.25500000000E-02 0. -1.
    8880023    1    1    2    0    0  0.12992811546E+02  0.39653400946E+03  0.10190426665E+04  0.12765837991E+04  0.65864270000E+03 0.  0.
    8880022    1    1    2    0    0 -0.12992811546E+02 -0.39653400946E+03 -0.43748171462E+03  0.61007371477E+03  0.15294330000E+03 0.  0.
<mgrwt>
<rscale>  0 0.66306353E+03</rscale>
<asrwt>0</asrwt>
<pdfrwt beam="1">  1        2 0.10039204E+00 0.76890717E+03</pdfrwt>
<pdfrwt beam="2">  1       -2 0.18986296E+00 0.76890717E+03</pdfrwt>
<totfact> 0.70670099E+00</totfact>
</mgrwt>
</event>
<event>
 4    2  0.3388003E-007  0.1305457E+04  0.7818608E-02  0.9060862E-01
          2   -1    0    0  501    0  0.00000000000E+00  0.00000000000E+00  0.14144771268E+04  0.14144771268E+04  0.25500000000E-02 0. -1.
         -2   -1    0    0    0  501 -0.00000000000E+00 -0.00000000000E+00 -0.15666539550E+04  0.15666539550E+04  0.25500000000E-02 0.  1.
    8880023    1    1    2    0    0 -0.62221266190E+03 -0.93981854734E+03 -0.93027244172E+03  0.16030048411E+04  0.65864270000E+03 0.  0.
    8880022    1    1    2    0    0  0.62221266190E+03  0.93981854734E+03  0.77809561352E+03  0.13781262407E+04  0.15294330000E+03 0.  0.
<mgrwt>
<rscale>  0 0.12612619E+04</rscale>
<asrwt>0</asrwt>
<pdfrwt beam="1">  1        2 0.21761186E+00 0.13054569E+04</pdfrwt>
<pdfrwt beam="2">  1       -2 0.24102369E+00 0.13054569E+04</pdfrwt>
<totfact> 0.99484605E-01</totfact>
</mgrwt>
</event>
<event>
 4    2  0.3388003E-007  0.7457745E+03  0.7818608E-02  0.9843435E-01
          2   -1    0    0  501    0  0.00000000000E+00  0.00000000000E+00  0.21618536128E+04  0.21618536128E+04  0.25500000000E-02 0. -1.
         -2   -1    0    0    0  501 -0.00000000000E+00 -0.00000000000E+00 -0.14702680846E+03  0.14702680849E+03  0.25500000000E-02 0.  1.
    8880023    1    1    2    0    0  0.27359638411E+03  0.21797803085E+03  0.13299493585E+04  0.15247770020E+04  0.65864270000E+03 0.  0.
    8880022    1    1    2    0    0 -0.27359638411E+03 -0.21797803085E+03  0.68487744576E+03  0.78410341924E+03  0.15294330000E+03 0.  1.
<mgrwt>
<rscale>  0 0.63082782E+03</rscale>
<asrwt>0</asrwt>
<pdfrwt beam="1">  1        2 0.33259286E+00 0.74577450E+03</pdfrwt>
<pdfrwt beam="2">  1       -2 0.22619509E-01 0.74577450E+03</pdfrwt>
<totfact> 0.95926028E+01</totfact>
</mgrwt>
</event>
<event>
 4    2  0.3388003E-007  0.7570503E+03  0.7818608E-02  0.9812805E-01
         -2   -1    0    0    0  501 -0.00000000000E+00  0.00000000000E+00  0.16117716000E+04  0.16117716000E+04  0.25500000000E-02 0.  1.
          2   -1    0    0  501    0  0.00000000000E+00 -0.00000000000E+00 -0.54322211870E+03  0.54322211871E+03  0.25500000000E-02 0. -1.
    8880023    1    1    2    0    0  0.32711872451E+03 -0.17974527943E+03  0.14269933837E+04  0.16153746776E+04  0.65864270000E+03 0.  1.
    8880022    1    1    2    0    0 -0.32711872451E+03  0.17974527943E+03 -0.35844390241E+03  0.53961904117E+03  0.15294330000E+03 0.  0.
<mgrwt>
<rscale>  0 0.64679886E+03</rscale>
<asrwt>0</asrwt>
<pdfrwt beam="1">  1        2 0.83572635E-01 0.75705035E+03</pdfrwt>
<pdfrwt beam="2">  1       -2 0.24796486E+00 0.75705035E+03</pdfrwt>
<totfact> 0.37989322E+00</totfact>
</mgrwt>
</event>
<event>
 4    2  0.3388003E-007  0.1208518E+04  0.7818608E-02  0.9148887E-01
         -2   -1    0    0    0  501 -0.00000000000E+00  0.00000000000E+00  0.55112505239E+03  0.55112505240E+03  0.25500000000E-02 0.  1.
          2   -1    0    0  501    0  0.00000000000E+00 -0.00000000000E+00 -0.30271195676E+04  0.30271195676E+04  0.25500000000E-02 0. -1.
    8880023    1    1    2    0    0  0.72388968553E+03  0.70900536393E+03 -0.41717007238E+03  0.12784936286E+04  0.65864270000E+03 0.  0.
    8880022    1    1    2    0    0 -0.72388968553E+03 -0.70900536393E+03 -0.20588244429E+04  0.22997509914E+04  0.15294330000E+03 0.  0.
<mgrwt>
<rscale>  0 0.11596940E+04</rscale>
<asrwt>0</asrwt>
<pdfrwt beam="1">  1        2 0.46571069E+00 0.12085177E+04</pdfrwt>
<pdfrwt beam="2">  1       -2 0.84788472E-01 0.12085177E+04</pdfrwt>
<totfact> 0.20127200E+00</totfact>
</mgrwt>
</event>
<event>
 4    2  0.3388003E-007  0.7443707E+03  0.7818608E-02  0.9847394E-01
          2   -1    0    0  501    0  0.00000000000E+00  0.00000000000E+00  0.21080579243E+04  0.21080579243E+04  0.25500000000E-02 0. -1.
         -2   -1    0    0    0  501 -0.00000000000E+00 -0.00000000000E+00 -0.37313899439E+03  0.37313899440E+03  0.25500000000E-02 0.  1.
    8880023    1    1    2    0    0 -0.10453958415E+03  0.33067969115E+03  0.41119937107E+02  0.74550562592E+03  0.65864270000E+03 0.  0.
    8880022    1    1    2    0    0  0.10453958415E+03 -0.33067969115E+03  0.16937989928E+04  0.17356912928E+04  0.15294330000E+03 0.  0.
<mgrwt>
<rscale>  0 0.62879987E+03</rscale>
<asrwt>0</asrwt>
<pdfrwt beam="1">  1        2 0.32431661E+00 0.74437073E+03</pdfrwt>
<pdfrwt beam="2">  1       -2 0.57405999E-01 0.74437073E+03</pdfrwt>
<totfact> 0.17155679E+01</totfact>
</mgrwt>
</event>
<event>
 4    2  0.3388003E-007  0.6624766E+03  0.7818608E-02  0.1021751E+00
         -2   -1    0    0    0  501 -0.00000000000E+00  0.00000000000E+00  0.18823829765E+03  0.18823829767E+03  0.25500000000E-02 0.  1.
          2   -1    0    0  501    0  0.00000000000E+00 -0.00000000000E+00 -0.14119118584E+04  0.14119118584E+04  0.25500000000E-02 0. -1.
    8880023    1    1    2    0    0  0.65391818914E+02  0.28087739732E+02 -0.43242041992E+03  0.79111480642E+03  0.65864270000E+03 0.  1.
    8880022    1    1    2    0    0 -0.65391818914E+02 -0.28087739732E+02 -0.79125314080E+03  0.80903534962E+03  0.15294330000E+03 0.  0.
<mgrwt>
<rscale>  0 0.47059889E+03</rscale>
<asrwt>0</asrwt>
<pdfrwt beam="1">  1        2 0.21721720E+00 0.66247658E+03</pdfrwt>
<pdfrwt beam="2">  1       -2 0.28959739E-01 0.66247658E+03</pdfrwt>
<totfact> 0.15938846E+02</totfact>
</mgrwt>
</event>
<event>
 4    2  0.3388003E-007  0.8551196E+03  0.7818608E-02  0.9602304E-01
         -2   -1    0    0    0  501 -0.00000000000E+00  0.00000000000E+00  0.21551716549E+03  0.21551716550E+03  0.25500000000E-02 0.  1.
          2   -1    0    0  501    0  0.00000000000E+00 -0.00000000000E+00 -0.40036287947E+04  0.40036287947E+04  0.25500000000E-02 0. -1.
    8880023    1    1    2    0    0 -0.42040001748E+03 -0.34739490031E+03 -0.34609958402E+04  0.35650696773E+04  0.65864270000E+03 0.  0.
    8880022    1    1    2    0    0  0.42040001748E+03  0.34739490031E+03 -0.32711578896E+03  0.65407628290E+03  0.15294330000E+03 0.  0.
<mgrwt>
<rscale>  0 0.77143853E+03</rscale>
<asrwt>0</asrwt>
<pdfrwt beam="1">  1        2 0.61594284E+00 0.85511964E+03</pdfrwt>
<pdfrwt beam="2">  1       -2 0.33156490E-01 0.85511964E+03</pdfrwt>
<totfact> 0.31241865E+00</totfact>
</mgrwt>
</event>
<event>
 4    2  0.3388003E-007  0.6754599E+03  0.7818608E-02  0.1012018E+00
          2   -1    0    0  501    0  0.00000000000E+00  0.00000000000E+00  0.17116928461E+04  0.17116928461E+04  0.25500000000E-02 0. -1.
         -2   -1    0    0    0  501 -0.00000000000E+00 -0.00000000000E+00 -0.18881832130E+03  0.18881832132E+03  0.25500000000E-02 0.  1.
    8880023    1    1    2    0    0 -0.67081002481E+02  0.13392522166E+03  0.46222300530E+03  0.81847183139E+03  0.65864270000E+03 0.  1.
    8880022    1    1    2    0    0  0.67081002481E+02 -0.13392522166E+03  0.10606515195E+04  0.10820393360E+04  0.15294330000E+03 0.  0.
<mgrwt>
<rscale>  0 0.50680444E+03</rscale>
<asrwt>0</asrwt>
<pdfrwt beam="1">  1        2 0.26333736E+00 0.67545987E+03</pdfrwt>
<pdfrwt beam="2">  1       -2 0.29048973E-01 0.67545987E+03</pdfrwt>
<totfact> 0.10815380E+02</totfact>
</mgrwt>
</event>
<event>
 4    2  0.3388003E-007  0.6991843E+03  0.7818608E-02  0.1000060E+00
          2   -1    0    0  501    0  0.00000000000E+00  0.00000000000E+00  0.16372105851E+04  0.16372105851E+04  0.25500000000E-02 0. -1.
         -2   -1    0    0    0  501 -0.00000000000E+00 -0.00000000000E+00 -0.22722660738E+03  0.22722660739E+03  0.25500000000E-02 0.  1.
    8880023    1    1    2    0    0  0.22105406863E+03  0.78635815016E+02  0.37738469978E+03  0.79452999349E+03  0.65864270000E+03 0.  1.
    8880022    1    1    2    0    0 -0.22105406863E+03 -0.78635815016E+02  0.10325992779E+04  0.10699071990E+04  0.15294330000E+03 0.  0.
<mgrwt>
<rscale>  0 0.55623851E+03</rscale>
<asrwt>0</asrwt>
<pdfrwt beam="1">  1        2 0.25187855E+00 0.69918431E+03</pdfrwt>
<pdfrwt beam="2">  1       -2 0.34957940E-01 0.69918431E+03</pdfrwt>
<totfact> 0.83773562E+01</totfact>
</mgrwt>
</event>
<event>
 4    2  0.3388003E-007  0.8639742E+03  0.7818608E-02  0.9586533E-01
          2   -1    0    0  501    0  0.00000000000E+00  0.00000000000E+00  0.27115167800E+04  0.27115167800E+04  0.25500000000E-02 0. -1.
         -2   -1    0    0    0  501 -0.00000000000E+00 -0.00000000000E+00 -0.31770099380E+03  0.31770099381E+03  0.25500000000E-02 0.  1.
    8880023    1    1    2    0    0  0.10316629159E+03  0.54954339324E+03  0.39858514553E+03  0.95148386706E+03  0.65864270000E+03 0.  1.
    8880022    1    1    2    0    0 -0.10316629159E+03 -0.54954339324E+03  0.19952306406E+04  0.20777339067E+04  0.15294330000E+03 0.  0.
<mgrwt>
<rscale>  0 0.78193977E+03</rscale>
<asrwt>0</asrwt>
<pdfrwt beam="1">  1        2 0.41715642E+00 0.86397421E+03</pdfrwt>
<pdfrwt beam="2">  1       -2 0.48877077E-01 0.86397421E+03</pdfrwt>
<totfact> 0.10726626E+01</totfact>
</mgrwt>
</event>
<event>
 4    2  0.3388003E-007  0.9561294E+03  0.7818608E-02  0.9441349E-01
          2   -1    0    0  501    0  0.00000000000E+00  0.00000000000E+00  0.33139371935E+04  0.33139371935E+04  0.25500000000E-02 0. -1.
         -2   -1    0    0    0  501 -0.00000000000E+00 -0.00000000000E+00 -0.33703683818E+03  0.33703683819E+03  0.25500000000E-02 0.  1.
    8880023    1    1    2    0    0  0.86506851324E+02 -0.68766982593E+03  0.50927620325E+03  0.10833031350E+04  0.65864270000E+03 0.  0.
    8880022    1    1    2    0    0 -0.86506851324E+02  0.68766982593E+03  0.24676241521E+04  0.25676708967E+04  0.15294330000E+03 0.  0.
<mgrwt>
<rscale>  0 0.88749515E+03</rscale>
<asrwt>0</asrwt>
<pdfrwt beam="1">  1        2 0.50983649E+00 0.95612940E+03</pdfrwt>
<pdfrwt beam="2">  1       -2 0.51851821E-01 0.95612940E+03</pdfrwt>
<totfact> 0.39768823E+00</totfact>
</mgrwt>
</event>
<event>
 4    2  0.3388003E-007  0.6960068E+03  0.7818608E-02  0.1001419E+00
          2   -1    0    0  501    0  0.00000000000E+00  0.00000000000E+00  0.13385456235E+04  0.13385456235E+04  0.25500000000E-02 0. -1.
         -2   -1    0    0    0  501 -0.00000000000E+00 -0.00000000000E+00 -0.28697552364E+03  0.28697552365E+03  0.25500000000E-02 0.  1.
    8880023    1    1    2    0    0 -0.29578949716E+02  0.22302545405E+03  0.18920685240E+03  0.72126604431E+03  0.65864270000E+03 0.  1.
    8880022    1    1    2    0    0  0.29578949716E+02 -0.22302545405E+03  0.86236324751E+03  0.90425510288E+03  0.15294330000E+03 0.  0.
<mgrwt>
<rscale>  0 0.55032489E+03</rscale>
<asrwt>0</asrwt>
<pdfrwt beam="1">  1        2 0.20593010E+00 0.69600681E+03</pdfrwt>
<pdfrwt beam="2">  1       -2 0.44150080E-01 0.69600681E+03</pdfrwt>
<totfact> 0.78130246E+01</totfact>
</mgrwt>
</event>
<event>
 4    2  0.3388003E-007  0.6872272E+03  0.7818608E-02  0.1005499E+00
          2   -1    0    0  501    0  0.00000000000E+00  0.00000000000E+00  0.99869530721E+03  0.99869530721E+03  0.25500000000E-02 0. -1.
         -2   -1    0    0    0  501 -0.00000000000E+00 -0.00000000000E+00 -0.26798264509E+03  0.26798264510E+03  0.25500000000E-02 0.  1.
    8880023    1    1    2    0    0  0.12816846568E+03  0.14847172246E+03  0.26089213919E+03  0.73508225562E+03  0.65864270000E+03 0.  0.
    8880022    1    1    2    0    0 -0.12816846568E+03 -0.14847172246E+03  0.46982052293E+03  0.53159569669E+03  0.15294330000E+03 0.  0.
<mgrwt>
<rscale>  0 0.53303267E+03</rscale>
<asrwt>0</asrwt>
<pdfrwt beam="1">  1        2 0.15364543E+00 0.68722719E+03</pdfrwt>
<pdfrwt beam="2">  1       -2 0.41228099E-01 0.68722719E+03</pdfrwt>
<totfact> 0.14293965E+02</totfact>
</mgrwt>
</event>
<event>
 4    2  0.3388003E-007  0.7098673E+03  0.7818608E-02  0.9958494E-01
          2   -1    0    0  501    0  0.00000000000E+00  0.00000000000E+00  0.63124000206E+03  0.63124000207E+03  0.25500000000E-02 0. -1.
         -2   -1    0    0    0  501 -0.00000000000E+00 -0.00000000000E+00 -0.11749658436E+04  0.11749658436E+04  0.25500000000E-02 0.  1.
    8880023    1    1    2    0    0  0.74109929690E+01  0.26466296348E+03 -0.10185107869E+04  0.12414813073E+04  0.65864270000E+03 0.  1.
    8880022    1    1    2    0    0 -0.74109929690E+01 -0.26466296348E+03  0.47478494528E+03  0.56472453846E+03  0.15294330000E+03 0.  0.
<mgrwt>
<rscale>  0 0.57508271E+03</rscale>
<asrwt>0</asrwt>
<pdfrwt beam="1">  1        2 0.97113847E-01 0.70986732E+03</pdfrwt>
<pdfrwt beam="2">  1       -2 0.18076398E+00 0.70986732E+03</pdfrwt>
<totfact> 0.85382311E+00</totfact>
</mgrwt>
</event>
<event>
 4    2  0.3388003E-007  0.8772941E+03  0.7818608E-02  0.9563511E-01
          2   -1    0    0  501    0  0.00000000000E+00  0.00000000000E+00  0.23637709405E+04  0.23637709406E+04  0.25500000000E-02 0. -1.
         -2   -1    0    0    0  501 -0.00000000000E+00 -0.00000000000E+00 -0.30133144866E+03  0.30133144867E+03  0.25500000000E-02 0.  1.
    8880023    1    1    2    0    0 -0.28993117852E+03 -0.50177146734E+03  0.54304567364E+03  0.10317671751E+04  0.65864270000E+03 0.  0.
    8880022    1    1    2    0    0  0.28993117852E+03  0.50177146734E+03  0.15193938182E+04  0.16333352141E+04  0.15294330000E+03 0.  0.
<mgrwt>
<rscale>  0 0.79759041E+03</rscale>
<asrwt>0</asrwt>
<pdfrwt beam="1">  1        2 0.36365706E+00 0.87729408E+03</pdfrwt>
<pdfrwt beam="2">  1       -2 0.46358685E-01 0.87729408E+03</pdfrwt>
<totfact> 0.18845579E+01</totfact>
</mgrwt>
</event>
<event>
 4    2  0.3388003E-007  0.7634215E+03  0.7818608E-02  0.9796329E-01
         -2   -1    0    0    0  501 -0.00000000000E+00  0.00000000000E+00  0.11008861206E+04  0.11008861206E+04  0.25500000000E-02 0.  1.
          2   -1    0    0  501    0  0.00000000000E+00 -0.00000000000E+00 -0.32992119349E+03  0.32992119350E+03  0.25500000000E-02 0. -1.
    8880023    1    1    2    0    0 -0.21578946085E+03 -0.32005787206E+03  0.63775569018E+03  0.99475859358E+03  0.65864270000E+03 0.  1.
    8880022    1    1    2    0    0  0.21578946085E+03  0.32005787206E+03  0.13320923696E+03  0.43604872057E+03  0.15294330000E+03 0.  0.
<mgrwt>
<rscale>  0 0.65559929E+03</rscale>
<asrwt>0</asrwt>
<pdfrwt beam="1">  1        2 0.50757107E-01 0.76342147E+03</pdfrwt>
<pdfrwt beam="2">  1       -2 0.16936709E+00 0.76342147E+03</pdfrwt>
<totfact> 0.21533783E+01</totfact>
</mgrwt>
</event>
<event>
 4    2  0.3388003E-007  0.6835512E+03  0.7818608E-02  0.1007382E+00
          2   -1    0    0  501    0  0.00000000000E+00  0.00000000000E+00  0.26482747074E+04  0.26482747074E+04  0.25500000000E-02 0. -1.
         -2   -1    0    0    0  501 -0.00000000000E+00 -0.00000000000E+00 -0.19836800335E+03  0.19836800337E+03  0.25500000000E-02 0.  1.
    8880023    1    1    2    0    0  0.11024038807E+03  0.14587371122E+03  0.41890656006E+03  0.80170131290E+03  0.65864270000E+03 0.  1.
    8880022    1    1    2    0    0 -0.11024038807E+03 -0.14587371122E+03  0.20310001440E+04  0.20449413979E+04  0.15294330000E+03 0.  0.
<mgrwt>
<rscale>  0 0.52528443E+03</rscale>
<asrwt>0</asrwt>
<pdfrwt beam="1">  1        2 0.40742687E+00 0.68355123E+03</pdfrwt>
<pdfrwt beam="2">  1       -2 0.30518155E-01 0.68355123E+03</pdfrwt>
<totfact> 0.29943387E+01</totfact>
</mgrwt>
</event>
<event>
 4    2  0.3388003E-007  0.8805856E+03  0.7818608E-02  0.9557945E-01
          2   -1    0    0  501    0  0.00000000000E+00  0.00000000000E+00  0.11140070872E+04  0.11140070872E+04  0.25500000000E-02 0. -1.
         -2   -1    0    0    0  501 -0.00000000000E+00 -0.00000000000E+00 -0.10507422228E+04  0.10507422228E+04  0.25500000000E-02 0.  1.
    8880023    1    1    2    0    0 -0.91361431618E+02  0.57729872836E+03 -0.74650925968E+03  0.11544293023E+04  0.65864270000E+03 0.  0.
    8880022    1    1    2    0    0  0.91361431618E+02 -0.57729872836E+03  0.80977412409E+03  0.10103200077E+04  0.15294330000E+03 0.  0.
<mgrwt>
<rscale>  0 0.80143282E+03</rscale>
<asrwt>0</asrwt>
<pdfrwt beam="1">  1        2 0.17138571E+00 0.88058557E+03</pdfrwt>
<pdfrwt beam="2">  1       -2 0.16165265E+00 0.88058557E+03</pdfrwt>
<totfact> 0.52525270E+00</totfact>
</mgrwt>
</event>
<event>
 4    2  0.3388003E-007  0.7266478E+03  0.7818608E-02  0.9900702E-01
          2   -1    0    0  501    0  0.00000000000E+00  0.00000000000E+00  0.18873113277E+04  0.18873113277E+04  0.25500000000E-02 0. -1.
         -2   -1    0    0    0  501 -0.00000000000E+00 -0.00000000000E+00 -0.20903907496E+03  0.20903907498E+03  0.25500000000E-02 0.  1.
    8880023    1    1    2    0    0  0.19966846525E+03  0.23310797327E+03  0.53390135249E+03  0.90170265812E+03  0.65864270000E+03 0.  0.
    8880022    1    1    2    0    0 -0.19966846525E+03 -0.23310797327E+03  0.11443709002E+04  0.11946477446E+04  0.15294330000E+03 0. -1.
<mgrwt>
<rscale>  0 0.60227271E+03</rscale>
<asrwt>0</asrwt>
<pdfrwt beam="1">  1        2 0.29035558E+00 0.72664780E+03</pdfrwt>
<pdfrwt beam="2">  1       -2 0.32159859E-01 0.72664780E+03</pdfrwt>
<totfact> 0.71421641E+01</totfact>
</mgrwt>
</event>
<event>
 4    2  0.3388003E-007  0.6675781E+03  0.7818608E-02  0.1017462E+00
         -2   -1    0    0    0  501 -0.00000000000E+00  0.00000000000E+00  0.52983786493E+03  0.52983786494E+03  0.25500000000E-02 0.  1.
          2   -1    0    0  501    0  0.00000000000E+00 -0.00000000000E+00 -0.15221979621E+04  0.15221979621E+04  0.25500000000E-02 0. -1.
    8880023    1    1    2    0    0 -0.87187422502E+02 -0.65181917664E+02  0.31012147624E+03  0.73609501107E+03  0.65864270000E+03 0.  1.
    8880022    1    1    2    0    0  0.87187422502E+02  0.65181917664E+02 -0.13024815734E+04  0.13159408159E+04  0.15294330000E+03 0.  0.
<mgrwt>
<rscale>  0 0.48613748E+03</rscale>
<asrwt>0</asrwt>
<pdfrwt beam="1">  1        2 0.23418430E+00 0.66757811E+03</pdfrwt>
<pdfrwt beam="2">  1       -2 0.81513518E-01 0.66757811E+03</pdfrwt>
<totfact> 0.16929958E+01</totfact>
</mgrwt>
</event>
<event>
 4    2  0.3388003E-007  0.6778488E+03  0.7818608E-02  0.1010568E+00
         -2   -1    0    0    0  501 -0.00000000000E+00  0.00000000000E+00  0.21323804226E+03  0.21323804227E+03  0.25500000000E-02 0.  1.
          2   -1    0    0  501    0  0.00000000000E+00 -0.00000000000E+00 -0.23175733613E+04  0.23175733613E+04  0.25500000000E-02 0. -1.
    8880023    1    1    2    0    0 -0.11973352874E+03  0.10645499627E+03 -0.35061299660E+03  0.76315690640E+03  0.65864270000E+03 0.  1.
    8880022    1    1    2    0    0  0.11973352874E+03 -0.10645499627E+03 -0.17537223224E+04  0.17676544971E+04  0.15294330000E+03 0.  0.
<mgrwt>
<rscale>  0 0.51249667E+03</rscale>
<asrwt>0</asrwt>
<pdfrwt beam="1">  1        2 0.35654973E+00 0.67784880E+03</pdfrwt>
<pdfrwt beam="2">  1       -2 0.32805854E-01 0.67784880E+03</pdfrwt>
<totfact> 0.40244330E+01</totfact>
</mgrwt>
</event>
<event>
 4    2  0.3388003E-007  0.6996515E+03  0.7818608E-02  0.9998650E-01
          2   -1    0    0  501    0  0.00000000000E+00  0.00000000000E+00  0.21093223674E+04  0.21093223674E+04  0.25500000000E-02 0. -1.
         -2   -1    0    0    0  501 -0.00000000000E+00 -0.00000000000E+00 -0.11914929111E+03  0.11914929114E+03  0.25500000000E-02 0.  1.
    8880023    1    1    2    0    0 -0.15887919997E+03  0.17452634525E+03  0.11915369041E+04  0.13817642510E+04  0.65864270000E+03 0.  1.
    8880022    1    1    2    0    0  0.15887919997E+03 -0.17452634525E+03  0.79863617222E+03  0.84670740753E+03  0.15294330000E+03 0. -1.
<mgrwt>
<rscale>  0 0.55709476E+03</rscale>
<asrwt>0</asrwt>
<pdfrwt beam="1">  1        2 0.32451112E+00 0.69965152E+03</pdfrwt>
<pdfrwt beam="2">  1       -2 0.18330661E-01 0.69965152E+03</pdfrwt>
<totfact> 0.14893968E+02</totfact>
</mgrwt>
</event>
<event>
 4    2  0.3388003E-007  0.7015522E+03  0.7818608E-02  0.9990822E-01
          2   -1    0    0  501    0  0.00000000000E+00  0.00000000000E+00  0.26797623968E+04  0.26797623968E+04  0.25500000000E-02 0. -1.
         -2   -1    0    0    0  501 -0.00000000000E+00 -0.00000000000E+00 -0.14094695094E+03  0.14094695096E+03  0.25500000000E-02 0.  1.
    8880023    1    1    2    0    0 -0.43547123430E+02 -0.23763184864E+03  0.82390477687E+03  0.10821250090E+04  0.65864270000E+03 0.  1.
    8880022    1    1    2    0    0  0.43547123430E+02  0.23763184864E+03  0.17149106690E+04  0.17385843388E+04  0.15294330000E+03 0.  0.
<mgrwt>
<rscale>  0 0.56054507E+03</rscale>
<asrwt>0</asrwt>
<pdfrwt beam="1">  1        2 0.41227110E+00 0.70155217E+03</pdfrwt>
<pdfrwt beam="2">  1       -2 0.21684148E-01 0.70155217E+03</pdfrwt>
<totfact> 0.53165053E+01</totfact>
</mgrwt>
</event>
<event>
 4    2  0.3388003E-007  0.8698816E+03  0.7818608E-02  0.9576222E-01
         -2   -1    0    0    0  501 -0.00000000000E+00  0.00000000000E+00  0.22831484595E+04  0.22831484595E+04  0.25500000000E-02 0.  1.
          2   -1    0    0  501    0  0.00000000000E+00 -0.00000000000E+00 -0.64966294579E+03  0.64966294580E+03  0.25500000000E-02 0. -1.
    8880023    1    1    2    0    0 -0.56803283501E+03 -0.14914863123E+02  0.20399165759E+04  0.22176459586E+04  0.65864270000E+03 0.  1.
    8880022    1    1    2    0    0  0.56803283501E+03  0.14914863123E+02 -0.40643106221E+03  0.71516544668E+03  0.15294330000E+03 0.  0.
<mgrwt>
<rscale>  0 0.78890155E+03</rscale>
<asrwt>0</asrwt>
<pdfrwt beam="1">  1        2 0.99948144E-01 0.86988158E+03</pdfrwt>
<pdfrwt beam="2">  1       -2 0.35125361E+00 0.86988158E+03</pdfrwt>
<totfact> 0.71030235E-01</totfact>
</mgrwt>
</event>
<event>
 4    2  0.3388003E-007  0.7077276E+03  0.7818608E-02  0.9966538E-01
         -2   -1    0    0    0  501 -0.00000000000E+00  0.00000000000E+00  0.73648505618E+03  0.73648505619E+03  0.25500000000E-02 0.  1.
          2   -1    0    0  501    0  0.00000000000E+00 -0.00000000000E+00 -0.10402551098E+04  0.10402551098E+04  0.25500000000E-02 0. -1.
    8880023    1    1    2    0    0 -0.29501804520E+02  0.25728921325E+03  0.53402054791E+03  0.88659813195E+03  0.65864270000E+03 0.  0.
    8880022    1    1    2    0    0  0.29501804520E+02 -0.25728921325E+03 -0.83779060149E+03  0.89014203400E+03  0.15294330000E+03 0.  0.
<mgrwt>
<rscale>  0 0.57142140E+03</rscale>
<asrwt>0</asrwt>
<pdfrwt beam="1">  1        2 0.16003925E+00 0.70772756E+03</pdfrwt>
<pdfrwt beam="2">  1       -2 0.11330539E+00 0.70772756E+03</pdfrwt>
<totfact> 0.14839569E+01</totfact>
</mgrwt>
</event>
<event>
 4    2  0.3388003E-007  0.6862666E+03  0.7818608E-02  0.1005980E+00
          2   -1    0    0  501    0  0.00000000000E+00  0.00000000000E+00  0.42825757101E+04  0.42825757101E+04  0.25500000000E-02 0. -1.
         -2   -1    0    0    0  501 -0.00000000000E+00 -0.00000000000E+00 -0.51598548473E+02  0.51598548536E+02  0.25500000000E-02 0.  1.
    8880023    1    1    2    0    0 -0.16511896511E+03  0.99435555387E+02  0.28510460058E+04  0.29324776616E+04  0.65864270000E+03 0.  1.
    8880022    1    1    2    0    0  0.16511896511E+03 -0.99435555387E+02  0.13799311558E+04  0.14016965970E+04  0.15294330000E+03 0.  1.
<mgrwt>
<rscale>  0 0.53104091E+03</rscale>
<asrwt>0</asrwt>
<pdfrwt beam="1">  1        2 0.65885763E+00 0.68626665E+03</pdfrwt>
<pdfrwt beam="2">  1       -2 0.79382403E-02 0.68626665E+03</pdfrwt>
<totfact> 0.22173407E+01</totfact>
</mgrwt>
</event>
<event>
 4    2  0.3388003E-007  0.8674555E+03  0.7818608E-02  0.9580437E-01
         -2   -1    0    0    0  501 -0.00000000000E+00  0.00000000000E+00  0.59469559285E+03  0.59469559285E+03  0.25500000000E-02 0.  1.
          2   -1    0    0  501    0  0.00000000000E+00 -0.00000000000E+00 -0.16572669725E+04  0.16572669725E+04  0.25500000000E-02 0. -1.
    8880023    1    1    2    0    0 -0.55485142841E+03 -0.10396534748E+03  0.17338303484E+03  0.88461335290E+03  0.65864270000E+03 0.  1.
    8880022    1    1    2    0    0  0.55485142841E+03  0.10396534748E+03 -0.12359544145E+04  0.13673492124E+04  0.15294330000E+03 0.  0.
<mgrwt>
<rscale>  0 0.78604660E+03</rscale>
<asrwt>0</asrwt>
<pdfrwt beam="1">  1        2 0.25496415E+00 0.86745554E+03</pdfrwt>
<pdfrwt beam="2">  1       -2 0.91491630E-01 0.86745554E+03</pdfrwt>
<totfact> 0.10667726E+01</totfact>
</mgrwt>
</event>
<event>
 4    2  0.3388003E-007  0.1000976E+04  0.7818608E-02  0.9380282E-01
         -2   -1    0    0    0  501 -0.00000000000E+00  0.00000000000E+00  0.37243645709E+03  0.37243645710E+03  0.25500000000E-02 0.  1.
          2   -1    0    0  501    0  0.00000000000E+00 -0.00000000000E+00 -0.31203704580E+04  0.31203704580E+04  0.25500000000E-02 0. -1.
    8880023    1    1    2    0    0 -0.44049540997E+03 -0.61164261760E+03 -0.50395091570E+03  0.11206782007E+04  0.65864270000E+03 0.  0.
    8880022    1    1    2    0    0  0.44049540997E+03  0.61164261760E+03 -0.22439830852E+04  0.23721287143E+04  0.15294330000E+03 0.  0.
<mgrwt>
<rscale>  0 0.93716333E+03</rscale>
<asrwt>0</asrwt>
<pdfrwt beam="1">  1        2 0.48005698E+00 0.10009761E+04</pdfrwt>
<pdfrwt beam="2">  1       -2 0.57297918E-01 0.10009761E+04</pdfrwt>
<totfact> 0.42753154E+00</totfact>
</mgrwt>
</event>
<event>
 4    2  0.3388003E-007  0.7622142E+03  0.7818608E-02  0.9799409E-01
          2   -1    0    0  501    0  0.00000000000E+00  0.00000000000E+00  0.11082699082E+04  0.11082699082E+04  0.25500000000E-02 0. -1.
         -2   -1    0    0    0  501 -0.00000000000E+00 -0.00000000000E+00 -0.61401100630E+03  0.61401100631E+03  0.25500000000E-02 0.  1.
    8880023    1    1    2    0    0 -0.19701068030E+03  0.32916113483E+03 -0.30631708852E+03  0.82146249203E+03  0.65864270000E+03 0.  1.
    8880022    1    1    2    0    0  0.19701068030E+03 -0.32916113483E+03  0.80057599046E+03  0.90081842252E+03  0.15294330000E+03 0.  0.
<mgrwt>
<rscale>  0 0.65394293E+03</rscale>
<asrwt>0</asrwt>
<pdfrwt beam="1">  1        2 0.17050306E+00 0.76221419E+03</pdfrwt>
<pdfrwt beam="2">  1       -2 0.94463233E-01 0.76221419E+03</pdfrwt>
<totfact> 0.20670612E+01</totfact>
</mgrwt>
</event>
<event>
 4    2  0.3388003E-007  0.6928712E+03  0.7818608E-02  0.1002817E+00
          2   -1    0    0  501    0  0.00000000000E+00  0.00000000000E+00  0.45649467412E+03  0.45649467413E+03  0.25500000000E-02 0. -1.
         -2   -1    0    0    0  501 -0.00000000000E+00 -0.00000000000E+00 -0.71795645605E+03  0.71795645605E+03  0.25500000000E-02 0.  1.
    8880023    1    1    2    0    0  0.13679526424E+03  0.16597394983E+03 -0.47071742919E+03  0.83764276439E+03  0.65864270000E+03 0.  1.
    8880022    1    1    2    0    0 -0.13679526424E+03 -0.16597394983E+03  0.20925564726E+03  0.33680836579E+03  0.15294330000E+03 0.  0.
<mgrwt>
<rscale>  0 0.54432219E+03</rscale>
<asrwt>0</asrwt>
<pdfrwt beam="1">  1        2 0.70229950E-01 0.69287120E+03</pdfrwt>
<pdfrwt beam="2">  1       -2 0.11045484E+00 0.69287120E+03</pdfrwt>
<totfact> 0.45198666E+01</totfact>
</mgrwt>
</event>
<event>
 4    2  0.3388003E-007  0.9051496E+03  0.7818608E-02  0.9517815E-01
         -2   -1    0    0    0  501 -0.00000000000E+00  0.00000000000E+00  0.66871712249E+03  0.66871712250E+03  0.25500000000E-02 0.  1.
          2   -1    0    0  501    0  0.00000000000E+00 -0.00000000000E+00 -0.10064398834E+04  0.10064398834E+04  0.25500000000E-02 0. -1.
    8880023    1    1    2    0    0 -0.54926040082E+03  0.28947996775E+03  0.84212566927E+02  0.90905863526E+03  0.65864270000E+03 0.  0.
    8880022    1    1    2    0    0  0.54926040082E+03 -0.28947996775E+03 -0.42193532787E+03  0.76609837068E+03  0.15294330000E+03 0.  0.
<mgrwt>
<rscale>  0 0.82983053E+03</rscale>
<asrwt>0</asrwt>
<pdfrwt beam="1">  1        2 0.15483690E+00 0.90514963E+03</pdfrwt>
<pdfrwt beam="2">  1       -2 0.10287956E+00 0.90514963E+03</pdfrwt>
<totfact> 0.19291243E+01</totfact>
</mgrwt>
</event>
<event>
 4    2  0.3388003E-007  0.8272949E+03  0.7818608E-02  0.9654619E-01
         -2   -1    0    0    0  501 -0.00000000000E+00  0.00000000000E+00  0.47983949480E+03  0.47983949481E+03  0.25500000000E-02 0.  1.
          2   -1    0    0  501    0  0.00000000000E+00 -0.00000000000E+00 -0.13648235067E+04  0.13648235067E+04  0.25500000000E-02 0. -1.
    8880023    1    1    2    0    0 -0.49015274098E+03 -0.10176917417E+03 -0.12722314976E+02  0.82739273496E+03  0.65864270000E+03 0.  1.
    8880022    1    1    2    0    0  0.49015274098E+03  0.10176917417E+03 -0.87226169697E+03  0.10172702666E+04  0.15294330000E+03 0.  0.
<mgrwt>
<rscale>  0 0.73784265E+03</rscale>
<asrwt>0</asrwt>
<pdfrwt beam="1">  1        2 0.20997285E+00 0.82729492E+03</pdfrwt>
<pdfrwt beam="2">  1       -2 0.73821461E-01 0.82729492E+03</pdfrwt>
<totfact> 0.25396168E+01</totfact>
</mgrwt>
</event>
<event>
 4    2  0.3388003E-007  0.6944865E+03  0.7818608E-02  0.1002089E+00
         -2   -1    0    0    0  501 -0.00000000000E+00  0.00000000000E+00  0.38049477140E+03  0.38049477141E+03  0.25500000000E-02 0.  1.
          2   -1    0    0  501    0  0.00000000000E+00 -0.00000000000E+00 -0.73751742382E+03  0.73751742383E+03  0.25500000000E-02 0. -1.
    8880023    1    1    2    0    0 -0.18776666399E+03 -0.11508668777E+03 -0.30017625590E+02  0.69513490052E+03  0.65864270000E+03 0.  0.
    8880022    1    1    2    0    0  0.18776666399E+03  0.11508668777E+03 -0.32700502683E+03  0.42287729472E+03  0.15294330000E+03 0.  0.
<mgrwt>
<rscale>  0 0.54743632E+03</rscale>
<asrwt>0</asrwt>
<pdfrwt beam="1">  1        2 0.11346422E+00 0.69448648E+03</pdfrwt>
<pdfrwt beam="2">  1       -2 0.58537657E-01 0.69448648E+03</pdfrwt>
<totfact> 0.10618878E+02</totfact>
</mgrwt>
</event>
<event>
 4    2  0.3388003E-007  0.7027294E+03  0.7818608E-02  0.9986062E-01
         -2   -1    0    0    0  501 -0.00000000000E+00  0.00000000000E+00  0.80557070987E+03  0.80557070988E+03  0.25500000000E-02 0.  1.
          2   -1    0    0  501    0  0.00000000000E+00 -0.00000000000E+00 -0.52371486279E+03  0.52371486279E+03  0.25500000000E-02 0. -1.
    8880023    1    1    2    0    0 -0.24227860012E+03 -0.36323994389E+02  0.58223056813E+03  0.91259026588E+03  0.65864270000E+03 0.  1.
    8880022    1    1    2    0    0  0.24227860012E+03  0.36323994389E+02 -0.30037472105E+03  0.41669530679E+03  0.15294330000E+03 0.  0.
<mgrwt>
<rscale>  0 0.56265651E+03</rscale>
<asrwt>0</asrwt>
<pdfrwt beam="1">  1        2 0.80571518E-01 0.70272936E+03</pdfrwt>
<pdfrwt beam="2">  1       -2 0.12393396E+00 0.70272936E+03</pdfrwt>
<totfact> 0.29044285E+01</totfact>
</mgrwt>
</event>
<event>
 4    2  0.3388003E-007  0.7429095E+03  0.7818608E-02  0.9851552E-01
          2   -1    0    0  501    0  0.00000000000E+00  0.00000000000E+00  0.10809643360E+04  0.10809643360E+04  0.25500000000E-02 0. -1.
         -2   -1    0    0    0  501 -0.00000000000E+00 -0.00000000000E+00 -0.54754057585E+03  0.54754057586E+03  0.25500000000E-02 0.  1.
    8880023    1    1    2    0    0 -0.34360312524E+03 -0.64189616574E+01 -0.22978333018E+03  0.77763416581E+03  0.65864270000E+03 0.  1.
    8880022    1    1    2    0    0  0.34360312524E+03  0.64189616574E+01  0.76320709029E+03  0.85087074601E+03  0.15294330000E+03 0.  0.
<mgrwt>
<rscale>  0 0.62667871E+03</rscale>
<asrwt>0</asrwt>
<pdfrwt beam="1">  1        2 0.16630221E+00 0.74290949E+03</pdfrwt>
<pdfrwt beam="2">  1       -2 0.84237012E-01 0.74290949E+03</pdfrwt>
<totfact> 0.28026209E+01</totfact>
</mgrwt>
</event>
<event>
 4    2  0.3388003E-007  0.7648590E+03  0.7818608E-02  0.9792687E-01
         -2   -1    0    0    0  501 -0.00000000000E+00  0.00000000000E+00  0.46595447251E+03  0.46595447252E+03  0.25500000000E-02 0.  1.
          2   -1    0    0  501    0  0.00000000000E+00 -0.00000000000E+00 -0.18659501726E+04  0.18659501726E+04  0.25500000000E-02 0. -1.
    8880023    1    1    2    0    0  0.38736319407E+03 -0.33893525209E+02  0.10313293760E+03  0.77178081361E+03  0.65864270000E+03 0.  1.
    8880022    1    1    2    0    0 -0.38736319407E+03  0.33893525209E+02 -0.15031286377E+04  0.15601238315E+04  0.15294330000E+03 0.  0.
<mgrwt>
<rscale>  0 0.65756493E+03</rscale>
<asrwt>0</asrwt>
<pdfrwt beam="1">  1        2 0.28706925E+00 0.76485896E+03</pdfrwt>
<pdfrwt beam="2">  1       -2 0.71685304E-01 0.76485896E+03</pdfrwt>
<totfact> 0.14409423E+01</totfact>
</mgrwt>
</event>
<event>
 4    2  0.3388003E-007  0.6900823E+03  0.7818608E-02  0.1004114E+00
         -2   -1    0    0    0  501 -0.00000000000E+00  0.00000000000E+00  0.20152690015E+03  0.20152690017E+03  0.25500000000E-02 0.  1.
          2   -1    0    0  501    0  0.00000000000E+00 -0.00000000000E+00 -0.19007866310E+04  0.19007866310E+04  0.25500000000E-02 0. -1.
    8880023    1    1    2    0    0  0.19878083946E+03 -0.53754125829E+02 -0.44278118615E+03  0.81991994319E+03  0.65864270000E+03 0.  1.
    8880022    1    1    2    0    0 -0.19878083946E+03  0.53754125829E+02 -0.12564785447E+04  0.12823935879E+04  0.15294330000E+03 0.  0.
<mgrwt>
<rscale>  0 0.53882749E+03</rscale>
<asrwt>0</asrwt>
<pdfrwt beam="1">  1        2 0.29242870E+00 0.69008227E+03</pdfrwt>
<pdfrwt beam="2">  1       -2 0.31004140E-01 0.69008227E+03</pdfrwt>
<totfact> 0.75520195E+01</totfact>
</mgrwt>
</event>
<event>
 4    2  0.3388003E-007  0.6724392E+03  0.7818608E-02  0.1013971E+00
         -2   -1    0    0    0  501 -0.00000000000E+00  0.00000000000E+00  0.37329557681E+03  0.37329557682E+03  0.25500000000E-02 0.  1.
          2   -1    0    0  501    0  0.00000000000E+00 -0.00000000000E+00 -0.13633147292E+04  0.13633147292E+04  0.25500000000E-02 0. -1.
    8880023    1    1    2    0    0  0.11944415624E+03  0.64011046915E+02  0.52280787008E+02  0.67446853710E+03  0.65864270000E+03 0.  1.
    8880022    1    1    2    0    0 -0.11944415624E+03 -0.64011046915E+02 -0.10422999394E+04  0.10621417689E+04  0.15294330000E+03 0.  0.
<mgrwt>
<rscale>  0 0.49926326E+03</rscale>
<asrwt>0</asrwt>
<pdfrwt beam="1">  1        2 0.20974073E+00 0.67243924E+03</pdfrwt>
<pdfrwt beam="2">  1       -2 0.57430089E-01 0.67243924E+03</pdfrwt>
<totfact> 0.44388183E+01</totfact>
</mgrwt>
</event>
<event>
 4    2  0.3388003E-007  0.6652044E+03  0.7818608E-02  0.1019363E+00
         -2   -1    0    0    0  501 -0.00000000000E+00  0.00000000000E+00  0.59041962691E+03  0.59041962691E+03  0.25500000000E-02 0.  1.
          2   -1    0    0  501    0  0.00000000000E+00 -0.00000000000E+00 -0.12591015415E+04  0.12591015415E+04  0.25500000000E-02 0. -1.
    8880023    1    1    2    0    0 -0.62763860795E+02  0.68901311841E+02  0.39314394738E+03  0.77269597037E+03  0.65864270000E+03 0.  1.
    8880022    1    1    2    0    0  0.62763860795E+02 -0.68901311841E+02 -0.10618258619E+04  0.10768251980E+04  0.15294330000E+03 0.  0.
<mgrwt>
<rscale>  0 0.47917355E+03</rscale>
<asrwt>0</asrwt>
<pdfrwt beam="1">  1        2 0.19370793E+00 0.66520440E+03</pdfrwt>
<pdfrwt beam="2">  1       -2 0.90833789E-01 0.66520440E+03</pdfrwt>
<totfact> 0.18629016E+01</totfact>
</mgrwt>
</event>
<event>
 4    2  0.3388003E-007  0.7519248E+03  0.7818608E-02  0.9826481E-01
          2   -1    0    0  501    0  0.00000000000E+00  0.00000000000E+00  0.16797397392E+04  0.16797397392E+04  0.25500000000E-02 0. -1.
         -2   -1    0    0    0  501 -0.00000000000E+00 -0.00000000000E+00 -0.25932223769E+03  0.25932223770E+03  0.25500000000E-02 0.  1.
    8880023    1    1    2    0    0 -0.25369793811E+03  0.25926432445E+03  0.41393605589E+03  0.85833204435E+03  0.65864270000E+03 0.  0.
    8880022    1    1    2    0    0  0.25369793811E+03 -0.25926432445E+03  0.10064814456E+04  0.10807299325E+04  0.15294330000E+03 0.  0.
<mgrwt>
<rscale>  0 0.63960602E+03</rscale>
<asrwt>0</asrwt>
<pdfrwt beam="1">  1        2 0.25842151E+00 0.75192476E+03</pdfrwt>
<pdfrwt beam="2">  1       -2 0.39895727E-01 0.75192476E+03</pdfrwt>
<totfact> 0.61221378E+01</totfact>
</mgrwt>
</event>
<event>
 4    2  0.3388003E-007  0.1066089E+04  0.7818608E-02  0.9299785E-01
         -2   -1    0    0    0  501 -0.00000000000E+00  0.00000000000E+00  0.11712110617E+04  0.11712110617E+04  0.25500000000E-02 0.  1.
          2   -1    0    0  501    0  0.00000000000E+00 -0.00000000000E+00 -0.14638307639E+04  0.14638307639E+04  0.25500000000E-02 0. -1.
    8880023    1    1    2    0    0 -0.19022575933E+03 -0.81642544823E+03  0.73886500215E+03  0.12970998611E+04  0.65864270000E+03 0.  0.
    8880022    1    1    2    0    0  0.19022575933E+03  0.81642544823E+03 -0.10314847044E+04  0.13379419645E+04  0.15294330000E+03 0.  0.
<mgrwt>
<rscale>  0 0.10080263E+04</rscale>
<asrwt>0</asrwt>
<pdfrwt beam="1">  1        2 0.22520473E+00 0.10660894E+04</pdfrwt>
<pdfrwt beam="2">  1       -2 0.18018632E+00 0.10660894E+04</pdfrwt>
<totfact> 0.23689406E+00</totfact>
</mgrwt>
</event>
<event>
 4    2  0.3388003E-007  0.1237393E+04  0.7818608E-02  0.9121604E-01
         -2   -1    0    0    0  501 -0.00000000000E+00  0.00000000000E+00  0.14143122754E+04  0.14143122754E+04  0.25500000000E-02 0.  1.
          2   -1    0    0  501    0  0.00000000000E+00 -0.00000000000E+00 -0.19550227680E+04  0.19550227680E+04  0.25500000000E-02 0. -1.
    8880023    1    1    2    0    0  0.70827878871E+03  0.77179768739E+03  0.93658848449E+03  0.15518823114E+04  0.65864270000E+03 0.  0.
    8880022    1    1    2    0    0 -0.70827878871E+03 -0.77179768739E+03 -0.14772989770E+04  0.18174527321E+04  0.15294330000E+03 0.  0.
<mgrwt>
<rscale>  0 0.11900574E+04</rscale>
<asrwt>0</asrwt>
<pdfrwt beam="1">  1        2 0.30077273E+00 0.12373927E+04</pdfrwt>
<pdfrwt beam="2">  1       -2 0.21758650E+00 0.12373927E+04</pdfrwt>
<totfact> 0.70049917E-01</totfact>
</mgrwt>
</event>
<event>
 4    2  0.3388003E-007  0.7689601E+03  0.7818608E-02  0.9782440E-01
         -2   -1    0    0    0  501 -0.00000000000E+00  0.00000000000E+00  0.28705940438E+03  0.28705940439E+03  0.25500000000E-02 0.  1.
          2   -1    0    0  501    0  0.00000000000E+00 -0.00000000000E+00 -0.37126863214E+04  0.37126863214E+04  0.25500000000E-02 0. -1.
    8880023    1    1    2    0    0 -0.39495694976E+03  0.38709926248E+02 -0.26908633165E+03  0.81468221454E+03  0.65864270000E+03 0.  1.
    8880022    1    1    2    0    0  0.39495694976E+03 -0.38709926248E+02 -0.31565405854E+04  0.31850635113E+04  0.15294330000E+03 0.  0.
<mgrwt>
<rscale>  0 0.66313509E+03</rscale>
<asrwt>0</asrwt>
<pdfrwt beam="1">  1        2 0.57118247E+00 0.76896011E+03</pdfrwt>
<pdfrwt beam="2">  1       -2 0.44162988E-01 0.76896011E+03</pdfrwt>
<totfact> 0.30283256E+00</totfact>
</mgrwt>
</event>
<event>
 4    2  0.3388003E-007  0.6639998E+03  0.7818608E-02  0.1020388E+00
          2   -1    0    0  501    0  0.00000000000E+00  0.00000000000E+00  0.19837049221E+03  0.19837049223E+03  0.25500000000E-02 0. -1.
         -2   -1    0    0    0  501 -0.00000000000E+00 -0.00000000000E+00 -0.19202829231E+04  0.19202829231E+04  0.25500000000E-02 0.  1.
    8880023    1    1    2    0    0  0.62877091490E+02 -0.55964466116E+02 -0.18064980853E+04  0.19246638897E+04  0.65864270000E+03 0.  1.
    8880022    1    1    2    0    0 -0.62877091490E+02  0.55964466116E+02  0.84585654379E+02  0.19398952560E+03  0.15294330000E+03 0.  0.
<mgrwt>
<rscale>  0 0.47546971E+03</rscale>
<asrwt>0</asrwt>
<pdfrwt beam="1">  1        2 0.30518539E-01 0.66399982E+03</pdfrwt>
<pdfrwt beam="2">  1       -2 0.29542813E+00 0.66399982E+03</pdfrwt>
<totfact> 0.62059720E+00</totfact>
</mgrwt>
</event>
<event>
 4    2  0.3388003E-007  0.1150571E+04  0.7818608E-02  0.9206736E-01
          2   -1    0    0  501    0  0.00000000000E+00  0.00000000000E+00  0.31875013071E+04  0.31875013071E+04  0.25500000000E-02 0. -1.
         -2   -1    0    0    0  501 -0.00000000000E+00 -0.00000000000E+00 -0.46140609261E+03  0.46140609261E+03  0.25500000000E-02 0.  1.
    8880023    1    1    2    0    0  0.43391204933E+03  0.83768907958E+03  0.55638834405E+03  0.12780378931E+04  0.65864270000E+03 0.  0.
    8880022    1    1    2    0    0 -0.43391204933E+03 -0.83768907958E+03  0.21697068705E+04  0.23708695066E+04  0.15294330000E+03 0.  0.
<mgrwt>
<rscale>  0 0.10984170E+04</rscale>
<asrwt>0</asrwt>
<pdfrwt beam="1">  1        2 0.49038483E+00 0.11505707E+04</pdfrwt>
<pdfrwt beam="2">  1       -2 0.70985551E-01 0.11505707E+04</pdfrwt>
<totfact> 0.23936500E+00</totfact>
</mgrwt>
</event>
<event>
 4    2  0.3388003E-007  0.7200824E+03  0.7818608E-02  0.9922307E-01
         -2   -1    0    0    0  501 -0.00000000000E+00  0.00000000000E+00  0.64280293528E+03  0.64280293529E+03  0.25500000000E-02 0.  1.
          2   -1    0    0  501    0  0.00000000000E+00 -0.00000000000E+00 -0.46414473343E+03  0.46414473344E+03  0.25500000000E-02 0. -1.
    8880023    1    1    2    0    0 -0.16236453334E+03  0.24154963320E+03  0.26452789754E+03  0.76713341853E+03  0.65864270000E+03 0.  1.
    8880022    1    1    2    0    0  0.16236453334E+03 -0.24154963320E+03 -0.85869695689E+02  0.33981425020E+03  0.15294330000E+03 0.  0.
<mgrwt>
<rscale>  0 0.59192260E+03</rscale>
<asrwt>0</asrwt>
<pdfrwt beam="1">  1        2 0.71406883E-01 0.72008241E+03</pdfrwt>
<pdfrwt beam="2">  1       -2 0.98892759E-01 0.72008241E+03</pdfrwt>
<totfact> 0.57680319E+01</totfact>
</mgrwt>
</event>
<event>
 4    2  0.3388003E-007  0.8129174E+03  0.7818608E-02  0.9683532E-01
          2   -1    0    0  501    0  0.00000000000E+00  0.00000000000E+00  0.15312202225E+04  0.15312202225E+04  0.25500000000E-02 0. -1.
         -2   -1    0    0    0  501 -0.00000000000E+00 -0.00000000000E+00 -0.83824084246E+03  0.83824084246E+03  0.25500000000E-02 0.  1.
    8880023    1    1    2    0    0  0.42514440573E+03 -0.21512029936E+03 -0.58200952188E+03  0.99978487623E+03  0.65864270000E+03 0.  1.
    8880022    1    1    2    0    0 -0.42514440573E+03  0.21512029936E+03  0.12749889019E+04  0.13696761887E+04  0.15294330000E+03 0.  0.
<mgrwt>
<rscale>  0 0.72005822E+03</rscale>
<asrwt>0</asrwt>
<pdfrwt beam="1">  1        2 0.23557234E+00 0.81291741E+03</pdfrwt>
<pdfrwt beam="2">  1       -2 0.12896013E+00 0.81291741E+03</pdfrwt>
<totfact> 0.54936122E+00</totfact>
</mgrwt>
</event>
<event>
 4    2  0.3388003E-007  0.8108677E+03  0.7818608E-02  0.9687772E-01
          2   -1    0    0  501    0  0.00000000000E+00  0.00000000000E+00  0.47551796829E+03  0.47551796829E+03  0.25500000000E-02 0. -1.
         -2   -1    0    0    0  501 -0.00000000000E+00 -0.00000000000E+00 -0.11102659260E+04  0.11102659260E+04  0.25500000000E-02 0.  1.
    8880023    1    1    2    0    0 -0.85964508955E+02  0.46508741207E+03 -0.71644577568E+03  0.10820355601E+04  0.65864270000E+03 0.  0.
    8880022    1    1    2    0    0  0.85964508955E+02 -0.46508741207E+03  0.81697817980E+02  0.50374833413E+03  0.15294330000E+03 0.  0.
<mgrwt>
<rscale>  0 0.71749507E+03</rscale>
<asrwt>0</asrwt>
<pdfrwt beam="1">  1        2 0.73156611E-01 0.81086769E+03</pdfrwt>
<pdfrwt beam="2">  1       -2 0.17081014E+00 0.81086769E+03</pdfrwt>
<totfact> 0.13861415E+01</totfact>
</mgrwt>
</event>
<event>
 4    2  0.3388003E-007  0.6790885E+03  0.7818608E-02  0.1009844E+00
         -2   -1    0    0    0  501 -0.00000000000E+00  0.00000000000E+00  0.65069426886E+03  0.65069426887E+03  0.25500000000E-02 0.  1.
          2   -1    0    0  501    0  0.00000000000E+00 -0.00000000000E+00 -0.86918392632E+03  0.86918392632E+03  0.25500000000E-02 0. -1.
    8880023    1    1    2    0    0  0.24702602959E+02  0.16352618361E+03  0.44986765731E+03  0.81458096386E+03  0.65864270000E+03 0.  1.
    8880022    1    1    2    0    0 -0.24702602959E+02 -0.16352618361E+03 -0.66835731476E+03  0.70529723133E+03  0.15294330000E+03 0.  0.
<mgrwt>
<rscale>  0 0.51536685E+03</rscale>
<asrwt>0</asrwt>
<pdfrwt beam="1">  1        2 0.13372060E+00 0.67908853E+03</pdfrwt>
<pdfrwt beam="2">  1       -2 0.10010681E+00 0.67908853E+03</pdfrwt>
<totfact> 0.25920794E+01</totfact>
</mgrwt>
</event>
<event>
 4    2  0.3388003E-007  0.8263121E+03  0.7818608E-02  0.9656551E-01
          2   -1    0    0  501    0  0.00000000000E+00  0.00000000000E+00  0.29873122159E+04  0.29873122159E+04  0.25500000000E-02 0. -1.
         -2   -1    0    0    0  501 -0.00000000000E+00 -0.00000000000E+00 -0.27860075149E+03  0.27860075150E+03  0.25500000000E-02 0.  1.
    8880023    1    1    2    0    0  0.46060112003E+03 -0.19190636754E+03  0.43646432331E+03  0.93450134160E+03  0.65864270000E+03 0.  1.
    8880022    1    1    2    0    0 -0.46060112003E+03  0.19190636754E+03  0.22722471411E+04  0.23314116258E+04  0.15294330000E+03 0.  0.
<mgrwt>
<rscale>  0 0.73663712E+03</rscale>
<asrwt>0</asrwt>
<pdfrwt beam="1">  1        2 0.45958648E+00 0.82631208E+03</pdfrwt>
<pdfrwt beam="2">  1       -2 0.42861655E-01 0.82631208E+03</pdfrwt>
<totfact> 0.96016841E+00</totfact>
</mgrwt>
</event>
<event>
 4    2  0.3388003E-007  0.8177776E+03  0.7818608E-02  0.9673599E-01
         -2   -1    0    0    0  501 -0.00000000000E+00  0.00000000000E+00  0.30355521140E+03  0.30355521141E+03  0.25500000000E-02 0.  1.
          2   -1    0    0  501    0  0.00000000000E+00 -0.00000000000E+00 -0.19320437369E+04  0.19320437369E+04  0.25500000000E-02 0. -1.
    8880023    1    1    2    0    0 -0.39878588342E+03  0.27553543672E+03 -0.40884304473E+03  0.91428266919E+03  0.65864270000E+03 0.  1.
    8880022    1    1    2    0    0  0.39878588342E+03 -0.27553543672E+03 -0.12196454807E+04  0.13213162791E+04  0.15294330000E+03 0.  0.
<mgrwt>
<rscale>  0 0.72610712E+03</rscale>
<asrwt>0</asrwt>
<pdfrwt beam="1">  1        2 0.29723749E+00 0.81777758E+03</pdfrwt>
<pdfrwt beam="2">  1       -2 0.46700803E-01 0.81777758E+03</pdfrwt>
<totfact> 0.32391164E+01</totfact>
</mgrwt>
</event>
<event>
 4    2  0.3388003E-007  0.8797157E+03  0.7818608E-02  0.9559412E-01
         -2   -1    0    0    0  501 -0.00000000000E+00  0.00000000000E+00  0.70344012326E+03  0.70344012327E+03  0.25500000000E-02 0.  1.
          2   -1    0    0  501    0  0.00000000000E+00 -0.00000000000E+00 -0.28006631014E+04  0.28006631014E+04  0.25500000000E-02 0. -1.
    8880023    1    1    2    0    0 -0.13592219338E+03  0.56711083448E+03  0.37728694072E+03  0.95720696986E+03  0.65864270000E+03 0.  1.
    8880022    1    1    2    0    0  0.13592219338E+03 -0.56711083448E+03 -0.24745099189E+04  0.25468962548E+04  0.15294330000E+03 0.  0.
<mgrwt>
<rscale>  0 0.80041830E+03</rscale>
<asrwt>0</asrwt>
<pdfrwt beam="1">  1        2 0.43087124E+00 0.87971572E+03</pdfrwt>
<pdfrwt beam="2">  1       -2 0.10822156E+00 0.87971572E+03</pdfrwt>
<totfact> 0.16334344E+00</totfact>
</mgrwt>
</event>
<event>
 4    2  0.3388003E-007  0.7463219E+03  0.7818608E-02  0.9841900E-01
         -2   -1    0    0    0  501 -0.00000000000E+00  0.00000000000E+00  0.27924058747E+03  0.27924058749E+03  0.25500000000E-02 0.  1.
          2   -1    0    0  501    0  0.00000000000E+00 -0.00000000000E+00 -0.20003879448E+04  0.20003879448E+04  0.25500000000E-02 0. -1.
    8880023    1    1    2    0    0  0.34813960428E+03  0.44552710858E+02 -0.29420438554E+03  0.80221727409E+03  0.65864270000E+03 0.  1.
    8880022    1    1    2    0    0 -0.34813960428E+03 -0.44552710858E+02 -0.14269429718E+04  0.14774112582E+04  0.15294330000E+03 0.  0.
<mgrwt>
<rscale>  0 0.63161603E+03</rscale>
<asrwt>0</asrwt>
<pdfrwt beam="1">  1        2 0.30775198E+00 0.74632187E+03</pdfrwt>
<pdfrwt beam="2">  1       -2 0.42960092E-01 0.74632187E+03</pdfrwt>
<totfact> 0.35411783E+01</totfact>
</mgrwt>
</event>
<event>
 4    2  0.3388003E-007  0.6628058E+03  0.7818608E-02  0.1021450E+00
          2   -1    0    0  501    0  0.00000000000E+00  0.00000000000E+00  0.13910597368E+04  0.13910597368E+04  0.25500000000E-02 0. -1.
         -2   -1    0    0    0  501 -0.00000000000E+00 -0.00000000000E+00 -0.24514724245E+03  0.24514724246E+03  0.25500000000E-02 0.  1.
    8880023    1    1    2    0    0 -0.65043433859E+02  0.35646844335E+02  0.22532637362E+03  0.70005965939E+03  0.65864270000E+03 0.  1.
    8880022    1    1    2    0    0  0.65043433859E+02 -0.35646844335E+02  0.92058612074E+03  0.93614731988E+03  0.15294330000E+03 0.  0.
<mgrwt>
<rscale>  0 0.47167060E+03</rscale>
<asrwt>0</asrwt>
<pdfrwt beam="1">  1        2 0.21400919E+00 0.66280582E+03</pdfrwt>
<pdfrwt beam="2">  1       -2 0.37714961E-01 0.66280582E+03</pdfrwt>
<totfact> 0.99584449E+01</totfact>
</mgrwt>
</event>
<event>
 4    2  0.3388003E-007  0.7870388E+03  0.7818608E-02  0.9739555E-01
          2   -1    0    0  501    0  0.00000000000E+00  0.00000000000E+00  0.20438879215E+04  0.20438879215E+04  0.25500000000E-02 0. -1.
         -2   -1    0    0    0  501 -0.00000000000E+00 -0.00000000000E+00 -0.69139418202E+03  0.69139418202E+03  0.25500000000E-02 0.  1.
    8880023    1    1    2    0    0  0.13101125042E+02 -0.43063691893E+03 -0.42879016372E+03  0.89626503122E+03  0.65864270000E+03 0.  1.
    8880022    1    1    2    0    0 -0.13101125042E+02  0.43063691893E+03  0.17812839032E+04  0.18390170723E+04  0.15294330000E+03 0.  0.
<mgrwt>
<rscale>  0 0.68709747E+03</rscale>
<asrwt>0</asrwt>
<pdfrwt beam="1">  1        2 0.31444429E+00 0.78703875E+03</pdfrwt>
<pdfrwt beam="2">  1       -2 0.10636834E+00 0.78703875E+03</pdfrwt>
<totfact> 0.46395718E+00</totfact>
</mgrwt>
</event>
<event>
 4    2  0.3388003E-007  0.9365406E+03  0.7818608E-02  0.9469749E-01
         -2   -1    0    0    0  501 -0.00000000000E+00  0.00000000000E+00  0.38188590424E+03  0.38188590425E+03  0.25500000000E-02 0.  1.
          2   -1    0    0  501    0  0.00000000000E+00 -0.00000000000E+00 -0.26571071913E+04  0.26571071913E+04  0.25500000000E-02 0. -1.
    8880023    1    1    2    0    0 -0.51802049101E+03 -0.41827376320E+03 -0.35618188925E+03  0.10019849872E+04  0.65864270000E+03 0.  0.
    8880022    1    1    2    0    0  0.51802049101E+03  0.41827376320E+03 -0.19190393978E+04  0.20370081083E+04  0.15294330000E+03 0.  0.
<mgrwt>
<rscale>  0 0.86551284E+03</rscale>
<asrwt>0</asrwt>
<pdfrwt beam="1">  1        2 0.40878571E+00 0.93654064E+03</pdfrwt>
<pdfrwt beam="2">  1       -2 0.58751679E-01 0.93654064E+03</pdfrwt>
<totfact> 0.78049241E+00</totfact>
</mgrwt>
</event>
<event>
 4    2  0.3388003E-007  0.8634960E+03  0.7818608E-02  0.9587375E-01
         -2   -1    0    0    0  501 -0.00000000000E+00  0.00000000000E+00  0.40494364622E+03  0.40494364622E+03  0.25500000000E-02 0.  1.
          2   -1    0    0  501    0  0.00000000000E+00 -0.00000000000E+00 -0.20611840001E+04  0.20611840001E+04  0.25500000000E-02 0. -1.
    8880023    1    1    2    0    0 -0.21947765375E+03  0.51346349376E+03 -0.18226713163E+03  0.88252292517E+03  0.65864270000E+03 0.  1.
    8880022    1    1    2    0    0  0.21947765375E+03 -0.51346349376E+03 -0.14739732223E+04  0.15836047212E+04  0.15294330000E+03 0.  0.
<mgrwt>
<rscale>  0 0.78137475E+03</rscale>
<asrwt>0</asrwt>
<pdfrwt beam="1">  1        2 0.31710522E+00 0.86349604E+03</pdfrwt>
<pdfrwt beam="2">  1       -2 0.62299024E-01 0.86349604E+03</pdfrwt>
<totfact> 0.15068996E+01</totfact>
</mgrwt>
</event>
<event>
 4    2  0.3388003E-007  0.7343479E+03  0.7818608E-02  0.9876728E-01
         -2   -1    0    0    0  501 -0.00000000000E+00  0.00000000000E+00  0.27764126253E+03  0.27764126254E+03  0.25500000000E-02 0.  1.
          2   -1    0    0  501    0  0.00000000000E+00 -0.00000000000E+00 -0.26140904136E+04  0.26140904136E+04  0.25500000000E-02 0. -1.
    8880023    1    1    2    0    0 -0.26863666201E+03 -0.18245813993E+03 -0.25167007404E+03  0.77627615024E+03  0.65864270000E+03 0.  0.
    8880022    1    1    2    0    0  0.26863666201E+03  0.18245813993E+03 -0.20847790770E+04  0.21154555259E+04  0.15294330000E+03 0.  0.
<mgrwt>
<rscale>  0 0.61402524E+03</rscale>
<asrwt>0</asrwt>
<pdfrwt beam="1">  1        2 0.40216774E+00 0.73434790E+03</pdfrwt>
<pdfrwt beam="2">  1       -2 0.42714042E-01 0.73434790E+03</pdfrwt>
<totfact> 0.16326096E+01</totfact>
</mgrwt>
</event>
<event>
 4    2  0.3388003E-007  0.7794403E+03  0.7818608E-02  0.9757153E-01
          2   -1    0    0  501    0  0.00000000000E+00  0.00000000000E+00  0.98097563030E+03  0.98097563031E+03  0.25500000000E-02 0. -1.
         -2   -1    0    0    0  501 -0.00000000000E+00 -0.00000000000E+00 -0.10163719573E+04  0.10163719573E+04  0.25500000000E-02 0.  1.
    8880023    1    1    2    0    0 -0.39713974073E+03 -0.12647900058E+03 -0.79763735813E+03  0.11152365097E+04  0.65864270000E+03 0.  1.
    8880022    1    1    2    0    0  0.39713974073E+03  0.12647900058E+03  0.76224103111E+03  0.88211107792E+03  0.15294330000E+03 0.  0.
<mgrwt>
<rscale>  0 0.67713508E+03</rscale>
<asrwt>0</asrwt>
<pdfrwt beam="1">  1        2 0.15091933E+00 0.77944026E+03</pdfrwt>
<pdfrwt beam="2">  1       -2 0.15636492E+00 0.77944026E+03</pdfrwt>
<totfact> 0.70511402E+00</totfact>
</mgrwt>
</event>
<event>
 4    2  0.3388003E-007  0.6826189E+03  0.7818608E-02  0.1007879E+00
          2   -1    0    0  501    0  0.00000000000E+00  0.00000000000E+00  0.17504693028E+04  0.17504693028E+04  0.25500000000E-02 0. -1.
         -2   -1    0    0    0  501 -0.00000000000E+00 -0.00000000000E+00 -0.17476455796E+03  0.17476455798E+03  0.25500000000E-02 0.  1.
    8880023    1    1    2    0    0 -0.72775663890E+02  0.16389642707E+03  0.56114800901E+03  0.88366035916E+03  0.65864270000E+03 0.  0.
    8880022    1    1    2    0    0  0.72775663890E+02 -0.16389642707E+03  0.10145567358E+04  0.10415735016E+04  0.15294330000E+03 0.  0.
<mgrwt>
<rscale>  0 0.52326203E+03</rscale>
<asrwt>0</asrwt>
<pdfrwt beam="1">  1        2 0.26930298E+00 0.68261889E+03</pdfrwt>
<pdfrwt beam="2">  1       -2 0.26886854E-01 0.68261889E+03</pdfrwt>
<totfact> 0.11861717E+02</totfact>
</mgrwt>
</event>
<event>
 4    2  0.3388003E-007  0.8004542E+03  0.7818608E-02  0.9709815E-01
         -2   -1    0    0    0  501 -0.00000000000E+00  0.00000000000E+00  0.39781090372E+03  0.39781090373E+03  0.25500000000E-02 0.  1.
          2   -1    0    0  501    0  0.00000000000E+00 -0.00000000000E+00 -0.16166387365E+04  0.16166387365E+04  0.25500000000E-02 0. -1.
    8880023    1    1    2    0    0 -0.38870213157E+03  0.23627813457E+03 -0.11224637772E+03  0.80828593922E+03  0.65864270000E+03 0.  1.
    8880022    1    1    2    0    0  0.38870213157E+03 -0.23627813457E+03 -0.11065814551E+04  0.12061637010E+04  0.15294330000E+03 0.  0.
<mgrwt>
<rscale>  0 0.70435414E+03</rscale>
<asrwt>0</asrwt>
<pdfrwt beam="1">  1        2 0.24871365E+00 0.80045419E+03</pdfrwt>
<pdfrwt beam="2">  1       -2 0.61201678E-01 0.80045419E+03</pdfrwt>
<totfact> 0.27634055E+01</totfact>
</mgrwt>
</event>
<event>
 4    2  0.3388003E-007  0.7266035E+03  0.7818608E-02  0.9900844E-01
         -2   -1    0    0    0  501 -0.00000000000E+00  0.00000000000E+00  0.46725734334E+03  0.46725734335E+03  0.25500000000E-02 0.  1.
          2   -1    0    0  501    0  0.00000000000E+00 -0.00000000000E+00 -0.12847132207E+04  0.12847132207E+04  0.25500000000E-02 0. -1.
    8880023    1    1    2    0    0 -0.25460622237E+03 -0.17122526466E+03  0.13558229192E+03  0.73914490046E+03  0.65864270000E+03 0.  1.
    8880022    1    1    2    0    0  0.25460622237E+03  0.17122526466E+03 -0.95303816929E+03  0.10128256636E+04  0.15294330000E+03 0.  0.
<mgrwt>
<rscale>  0 0.60220392E+03</rscale>
<asrwt>0</asrwt>
<pdfrwt beam="1">  1        2 0.19764819E+00 0.72660349E+03</pdfrwt>
<pdfrwt beam="2">  1       -2 0.71885746E-01 0.72660349E+03</pdfrwt>
<totfact> 0.30258050E+01</totfact>
</mgrwt>
</event>
<event>
 4    2  0.3388003E-007  0.1017664E+04  0.7818608E-02  0.9358804E-01
          2   -1    0    0  501    0  0.00000000000E+00  0.00000000000E+00  0.66867299240E+03  0.66867299241E+03  0.25500000000E-02 0. -1.
         -2   -1    0    0    0  501 -0.00000000000E+00 -0.00000000000E+00 -0.21677561610E+04  0.21677561610E+04  0.25500000000E-02 0.  1.
    8880023    1    1    2    0    0  0.64170286975E+03  0.43594352159E+03 -0.17348628904E+04  0.20113151871E+04  0.65864270000E+03 0.  1.
    8880022    1    1    2    0    0 -0.64170286975E+03 -0.43594352159E+03  0.23577972186E+03  0.82511396626E+03  0.15294330000E+03 0.  0.
<mgrwt>
<rscale>  0 0.95544881E+03</rscale>
<asrwt>0</asrwt>
<pdfrwt beam="1">  1        2 0.10287277E+00 0.10176638E+04</pdfrwt>
<pdfrwt beam="2">  1       -2 0.33350094E+00 0.10176638E+04</pdfrwt>
<totfact> 0.86390322E-01</totfact>
</mgrwt>
</event>
<event>
 4    2  0.3388003E-007  0.6918395E+03  0.7818608E-02  0.1003290E+00
         -2   -1    0    0    0  501 -0.00000000000E+00  0.00000000000E+00  0.25413838162E+03  0.25413838164E+03  0.25500000000E-02 0.  1.
          2   -1    0    0  501    0  0.00000000000E+00 -0.00000000000E+00 -0.17579119008E+04  0.17579119008E+04  0.25500000000E-02 0. -1.
    8880023    1    1    2    0    0 -0.10409289347E+03 -0.18438083689E+03 -0.25671635813E+03  0.73793300392E+03  0.65864270000E+03 0.  1.
    8880022    1    1    2    0    0  0.10409289347E+03  0.18438083689E+03 -0.12470571611E+04  0.12741172785E+04  0.15294330000E+03 0.  0.
<mgrwt>
<rscale>  0 0.54230744E+03</rscale>
<asrwt>0</asrwt>
<pdfrwt beam="1">  1        2 0.27044798E+00 0.69183945E+03</pdfrwt>
<pdfrwt beam="2">  1       -2 0.39098214E-01 0.69183945E+03</pdfrwt>
<totfact> 0.58101701E+01</totfact>
</mgrwt>
</event>
<event>
 4    2  0.3388003E-007  0.7215018E+03  0.7818608E-02  0.9917537E-01
          2   -1    0    0  501    0  0.00000000000E+00  0.00000000000E+00  0.71485467759E+03  0.71485467760E+03  0.25500000000E-02 0. -1.
         -2   -1    0    0    0  501 -0.00000000000E+00 -0.00000000000E+00 -0.44957667089E+03  0.44957667090E+03  0.25500000000E-02 0.  1.
    8880023    1    1    2    0    0  0.23389098541E+03 -0.17902419790E+03 -0.27269725177E+02  0.72201696702E+03  0.65864270000E+03 0.  1.
    8880022    1    1    2    0    0 -0.23389098541E+03  0.17902419790E+03  0.29254773188E+03  0.44241438147E+03  0.15294330000E+03 0.  0.
<mgrwt>
<rscale>  0 0.59418860E+03</rscale>
<asrwt>0</asrwt>
<pdfrwt beam="1">  1        2 0.10997764E+00 0.72150181E+03</pdfrwt>
<pdfrwt beam="2">  1       -2 0.69165642E-01 0.72150181E+03</pdfrwt>
<totfact> 0.77223178E+01</totfact>
</mgrwt>
</event>
<event>
 4    2  0.3388003E-007  0.6712915E+03  0.7818608E-02  0.1014753E+00
         -2   -1    0    0    0  501 -0.00000000000E+00  0.00000000000E+00  0.45619084534E+03  0.45619084535E+03  0.25500000000E-02 0.  1.
          2   -1    0    0  501    0  0.00000000000E+00 -0.00000000000E+00 -0.14484338045E+04  0.14484338045E+04  0.25500000000E-02 0. -1.
    8880023    1    1    2    0    0 -0.83903456600E+02  0.98905354191E+02  0.19620460951E+03  0.69937723310E+03  0.65864270000E+03 0.  1.
    8880022    1    1    2    0    0  0.83903456600E+02 -0.98905354191E+02 -0.11884475687E+04  0.12052474168E+04  0.15294330000E+03 0.  0.
<mgrwt>
<rscale>  0 0.49628383E+03</rscale>
<asrwt>0</asrwt>
<pdfrwt beam="1">  1        2 0.22283597E+00 0.67129149E+03</pdfrwt>
<pdfrwt beam="2">  1       -2 0.70183208E-01 0.67129149E+03</pdfrwt>
<totfact> 0.25915124E+01</totfact>
</mgrwt>
</event>
<event>
 4    2  0.3388003E-007  0.6711460E+03  0.7818608E-02  0.1014854E+00
          2   -1    0    0  501    0  0.00000000000E+00  0.00000000000E+00  0.30801550821E+04  0.30801550821E+04  0.25500000000E-02 0. -1.
         -2   -1    0    0    0  501 -0.00000000000E+00 -0.00000000000E+00 -0.64002266661E+02  0.64002266712E+02  0.25500000000E-02 0.  1.
    8880023    1    1    2    0    0 -0.10264569582E+02  0.12853575385E+03  0.20349263488E+04  0.21427464275E+04  0.65864270000E+03 0.  1.
    8880022    1    1    2    0    0  0.10264569582E+02 -0.12853575385E+03  0.98122646661E+03  0.10014109212E+04  0.15294330000E+03 0. -1.
<mgrwt>
<rscale>  0 0.49590138E+03</rscale>
<asrwt>0</asrwt>
<pdfrwt beam="1">  1        2 0.47386997E+00 0.67114604E+03</pdfrwt>
<pdfrwt beam="2">  1       -2 0.98465035E-02 0.67114604E+03</pdfrwt>
<totfact> 0.11662985E+02</totfact>
</mgrwt>
</event>
<event>
 4    2  0.3388003E-007  0.7314790E+03  0.7818608E-02  0.9885502E-01
         -2   -1    0    0    0  501 -0.00000000000E+00  0.00000000000E+00  0.24929528832E+03  0.24929528833E+03  0.25500000000E-02 0.  1.
          2   -1    0    0  501    0  0.00000000000E+00 -0.00000000000E+00 -0.15214495936E+04  0.15214495936E+04  0.25500000000E-02 0. -1.
    8880023    1    1    2    0    0  0.18445569820E+03  0.25928236984E+03 -0.40872418519E+03  0.83792417183E+03  0.65864270000E+03 0.  1.
    8880022    1    1    2    0    0 -0.18445569820E+03 -0.25928236984E+03 -0.86343012014E+03  0.93282071015E+03  0.15294330000E+03 0.  0.
<mgrwt>
<rscale>  0 0.60969105E+03</rscale>
<asrwt>0</asrwt>
<pdfrwt beam="1">  1        2 0.23406916E+00 0.73147895E+03</pdfrwt>
<pdfrwt beam="2">  1       -2 0.38353122E-01 0.73147895E+03</pdfrwt>
<totfact> 0.80964689E+01</totfact>
</mgrwt>
</event>
<event>
 4    2  0.3388003E-007  0.6649250E+03  0.7818608E-02  0.1019596E+00
          2   -1    0    0  501    0  0.00000000000E+00  0.00000000000E+00  0.11266347017E+04  0.11266347017E+04  0.25500000000E-02 0. -1.
         -2   -1    0    0    0  501 -0.00000000000E+00 -0.00000000000E+00 -0.34571324038E+03  0.34571324039E+03  0.25500000000E-02 0.  1.
    8880023    1    1    2    0    0  0.71603413785E+02 -0.56461934764E+02 -0.65888575226E+01  0.66495760636E+03  0.65864270000E+03 0.  1.
    8880022    1    1    2    0    0 -0.71603413785E+02  0.56461934764E+02  0.78751031882E+03  0.80739033571E+03  0.15294330000E+03 0.  0.
<mgrwt>
<rscale>  0 0.47832522E+03</rscale>
<asrwt>0</asrwt>
<pdfrwt beam="1">  1        2 0.17332842E+00 0.66492496E+03</pdfrwt>
<pdfrwt beam="2">  1       -2 0.53186651E-01 0.66492496E+03</pdfrwt>
<totfact> 0.71578158E+01</totfact>
</mgrwt>
</event>
<event>
 4    2  0.3388003E-007  0.7894064E+03  0.7818608E-02  0.9734188E-01
          2   -1    0    0  501    0  0.00000000000E+00  0.00000000000E+00  0.19582250450E+04  0.19582250450E+04  0.25500000000E-02 0. -1.
         -2   -1    0    0    0  501 -0.00000000000E+00 -0.00000000000E+00 -0.32486530275E+03  0.32486530276E+03  0.25500000000E-02 0.  1.
    8880023    1    1    2    0    0  0.36626238712E+03 -0.23495540822E+03  0.25494620487E+03  0.82955406919E+03  0.65864270000E+03 0.  1.
    8880022    1    1    2    0    0 -0.36626238712E+03  0.23495540822E+03  0.13784135374E+04  0.14535362786E+04  0.15294330000E+03 0.  0.
<mgrwt>
<rscale>  0 0.69017239E+03</rscale>
<asrwt>0</asrwt>
<pdfrwt beam="1">  1        2 0.30126540E+00 0.78940635E+03</pdfrwt>
<pdfrwt beam="2">  1       -2 0.49979276E-01 0.78940635E+03</pdfrwt>
<totfact> 0.27413585E+01</totfact>
</mgrwt>
</event>
<event>
 4    2  0.3973443E-007  0.8437213E+03  0.7818608E-02  0.9623203E-01
         -2   -1    0    0    0  501 -0.00000000000E+00  0.00000000000E+00  0.10926576734E+04  0.10926576734E+04  0.25500000000E-02 0.  1.
          2   -1    0    0  501    0  0.00000000000E+00 -0.00000000000E+00 -0.16290528639E+04  0.16290528639E+04  0.25500000000E-02 0. -1.
    8880023    1    1    2    0    0 -0.50046411693E+03  0.16610555458E+03  0.87001077716E+03  0.12119341344E+04  0.65864270000E+03 0.  1.
    8880022    1    1    2    0    0  0.50046411693E+03 -0.16610555458E+03 -0.14064059677E+04  0.15097764028E+04  0.15294330000E+03 0.  0.
<mgrwt>
<rscale>  0 0.75779307E+03</rscale>
<asrwt>0</asrwt>
<pdfrwt beam="1">  1        2 0.25062352E+00 0.84372128E+03</pdfrwt>
<pdfrwt beam="2">  1       -2 0.16810118E+00 0.84372128E+03</pdfrwt>
<totfact> 0.23984259E+00</totfact>
</mgrwt>
</event>
<event>
 4    2  0.3388003E-007  0.8506147E+03  0.7818608E-02  0.9610481E-01
          2   -1    0    0  501    0  0.00000000000E+00  0.00000000000E+00  0.29016503048E+04  0.29016503048E+04  0.25500000000E-02 0. -1.
         -2   -1    0    0    0  501 -0.00000000000E+00 -0.00000000000E+00 -0.27285942528E+03  0.27285942529E+03  0.25500000000E-02 0.  1.
    8880023    1    1    2    0    0  0.53564756909E+03  0.53074336513E+02  0.52958358069E+03  0.10020000892E+04  0.65864270000E+03 0.  1.
    8880022    1    1    2    0    0 -0.53564756909E+03 -0.53074336513E+02  0.20992072988E+04  0.21725096409E+04  0.15294330000E+03 0.  0.
<mgrwt>
<rscale>  0 0.76606340E+03</rscale>
<asrwt>0</asrwt>
<pdfrwt beam="1">  1        2 0.44640772E+00 0.85061472E+03</pdfrwt>
<pdfrwt beam="2">  1       -2 0.41978375E-01 0.85061472E+03</pdfrwt>
<totfact> 0.11235163E+01</totfact>
</mgrwt>
</event>
<event>
 4    2  0.3388003E-007  0.9276179E+03  0.7818608E-02  0.9483076E-01
         -2   -1    0    0    0  501 -0.00000000000E+00  0.00000000000E+00  0.13259830658E+04  0.13259830658E+04  0.25500000000E-02 0.  1.
          2   -1    0    0  501    0  0.00000000000E+00 -0.00000000000E+00 -0.16338798053E+04  0.16338798053E+04  0.25500000000E-02 0. -1.
    8880023    1    1    2    0    0  0.63717018844E+03 -0.14380141037E+03  0.10767734940E+04  0.14212375095E+04  0.65864270000E+03 0.  0.
    8880022    1    1    2    0    0 -0.63717018844E+03  0.14380141037E+03 -0.13846702336E+04  0.15386253616E+04  0.15294330000E+03 0.  0.
<mgrwt>
<rscale>  0 0.85543140E+03</rscale>
<asrwt>0</asrwt>
<pdfrwt beam="1">  1        2 0.25136612E+00 0.92761786E+03</pdfrwt>
<pdfrwt beam="2">  1       -2 0.20399740E+00 0.92761786E+03</pdfrwt>
<totfact> 0.13440585E+00</totfact>
</mgrwt>
</event>
<event>
 4    2  0.4553866E-007  0.6638615E+03  0.7818608E-02  0.1020508E+00
         -2   -1    0    0    0  501 -0.00000000000E+00  0.00000000000E+00  0.16527664559E+04  0.16527664559E+04  0.25500000000E-02 0.  1.
          2   -1    0    0  501    0  0.00000000000E+00 -0.00000000000E+00 -0.10987058655E+04  0.10987058655E+04  0.25500000000E-02 0. -1.
    8880023    1    1    2    0    0 -0.83034909259E+02  0.26654205167E+01  0.15784659127E+04  0.17123862720E+04  0.65864270000E+03 0.  1.
    8880022    1    1    2    0    0  0.83034909259E+02 -0.26654205167E+01 -0.10244053224E+04  0.10390860494E+04  0.15294330000E+03 0.  0.
<mgrwt>
<rscale>  0 0.47503641E+03</rscale>
<asrwt>0</asrwt>
<pdfrwt beam="1">  1        2 0.16903167E+00 0.66386151E+03</pdfrwt>
<pdfrwt beam="2">  1       -2 0.25427176E+00 0.66386151E+03</pdfrwt>
<totfact> 0.13910998E+00</totfact>
</mgrwt>
</event>
<event>
 4    2  0.3388003E-007  0.8716715E+03  0.7818608E-02  0.9573130E-01
         -2   -1    0    0    0  501 -0.00000000000E+00  0.00000000000E+00  0.33021544542E+04  0.33021544542E+04  0.25500000000E-02 0.  1.
          2   -1    0    0  501    0  0.00000000000E+00 -0.00000000000E+00 -0.42355026858E+03  0.42355026858E+03  0.25500000000E-02 0. -1.
    8880023    1    1    2    0    0  0.14842427570E+03  0.55133586650E+03  0.29984516149E+04  0.31225827926E+04  0.65864270000E+03 0.  0.
    8880022    1    1    2    0    0 -0.14842427570E+03 -0.55133586650E+03 -0.11984742933E+03  0.60312193016E+03  0.15294330000E+03 0.  0.
<mgrwt>
<rscale>  0 0.79100432E+03</rscale>
<asrwt>0</asrwt>
<pdfrwt beam="1">  1        2 0.65161580E-01 0.87167150E+03</pdfrwt>
<pdfrwt beam="2">  1       -2 0.50802376E+00 0.87167150E+03</pdfrwt>
<totfact> 0.11322917E-01</totfact>
</mgrwt>
</event>
<event>
 4    2  0.3388003E-007  0.6921005E+03  0.7818608E-02  0.1003170E+00
          2   -1    0    0  501    0  0.00000000000E+00  0.00000000000E+00  0.19030227931E+04  0.19030227931E+04  0.25500000000E-02 0. -1.
         -2   -1    0    0    0  501 -0.00000000000E+00 -0.00000000000E+00 -0.13829969869E+03  0.13829969871E+03  0.25500000000E-02 0.  1.
    8880023    1    1    2    0    0 -0.62212914866E+02  0.20327934755E+03  0.88525376655E+03  0.11236891818E+04  0.65864270000E+03 0.  1.
    8880022    1    1    2    0    0  0.62212914866E+02 -0.20327934755E+03  0.87946932782E+03  0.91763330994E+03  0.15294330000E+03 0.  0.
<mgrwt>
<rscale>  0 0.54281921E+03</rscale>
<asrwt>0</asrwt>
<pdfrwt beam="1">  1        2 0.29277271E+00 0.69210053E+03</pdfrwt>
<pdfrwt beam="2">  1       -2 0.21276879E-01 0.69210053E+03</pdfrwt>
<totfact> 0.14885956E+02</totfact>
</mgrwt>
</event>
<event>
 4    2  0.3388003E-007  0.9936908E+03  0.7818608E-02  0.9389859E-01
          2   -1    0    0  501    0  0.00000000000E+00  0.00000000000E+00  0.10230470214E+04  0.10230470214E+04  0.25500000000E-02 0. -1.
         -2   -1    0    0    0  501 -0.00000000000E+00 -0.00000000000E+00 -0.95793832513E+03  0.95793832513E+03  0.25500000000E-02 0.  1.
    8880023    1    1    2    0    0 -0.72769635111E+03  0.15514269744E+03 -0.42095272449E+03  0.10791768338E+04  0.65864270000E+03 0.  0.
    8880022    1    1    2    0    0  0.72769635111E+03 -0.15514269744E+03  0.48606142081E+03  0.90180851283E+03  0.15294330000E+03 0.  0.
<mgrwt>
<rscale>  0 0.92914973E+03</rscale>
<asrwt>0</asrwt>
<pdfrwt beam="1">  1        2 0.15739185E+00 0.99369082E+03</pdfrwt>
<pdfrwt beam="2">  1       -2 0.14737513E+00 0.99369082E+03</pdfrwt>
<totfact> 0.75820308E+00</totfact>
</mgrwt>
</event>
<event>
 4    2  0.3388003E-007  0.1201496E+04  0.7818608E-02  0.9155669E-01
         -2   -1    0    0    0  501 -0.00000000000E+00  0.00000000000E+00  0.94679488904E+03  0.94679488904E+03  0.25500000000E-02 0.  1.
          2   -1    0    0  501    0  0.00000000000E+00 -0.00000000000E+00 -0.19639684670E+04  0.19639684670E+04  0.25500000000E-02 0. -1.
    8880023    1    1    2    0    0  0.66383408843E+03 -0.75439181377E+03  0.30829779625E+03  0.12404194626E+04  0.65864270000E+03 0.  0.
    8880022    1    1    2    0    0 -0.66383408843E+03  0.75439181377E+03 -0.13254713743E+04  0.16703438935E+04  0.15294330000E+03 0.  0.
<mgrwt>
<rscale>  0 0.11522945E+04</rscale>
<asrwt>0</asrwt>
<pdfrwt beam="1">  1        2 0.30214899E+00 0.12014961E+04</pdfrwt>
<pdfrwt beam="2">  1       -2 0.14566075E+00 0.12014961E+04</pdfrwt>
<totfact> 0.22050368E+00</totfact>
</mgrwt>
</event>
<event>
 4    2  0.3388003E-007  0.7351116E+03  0.7818608E-02  0.9874422E-01
         -2   -1    0    0    0  501 -0.00000000000E+00  0.00000000000E+00  0.15431882237E+03  0.15431882240E+03  0.25500000000E-02 0.  1.
          2   -1    0    0  501    0  0.00000000000E+00 -0.00000000000E+00 -0.19556739489E+04  0.19556739489E+04  0.25500000000E-02 0. -1.
    8880023    1    1    2    0    0  0.31772349171E+03 -0.75037328996E+02 -0.11324883706E+04  0.13501551518E+04  0.65864270000E+03 0.  0.
    8880022    1    1    2    0    0 -0.31772349171E+03  0.75037328996E+02 -0.66886675592E+03  0.75983761957E+03  0.15294330000E+03 0.  1.
<mgrwt>
<rscale>  0 0.61517054E+03</rscale>
<asrwt>0</asrwt>
<pdfrwt beam="1">  1        2 0.30087290E+00 0.73511157E+03</pdfrwt>
<pdfrwt beam="2">  1       -2 0.23741359E-01 0.73511157E+03</pdfrwt>
<totfact> 0.11420266E+02</totfact>
</mgrwt>
</event>
<event>
 4    2  0.3388003E-007  0.1044165E+04  0.7818608E-02  0.9325929E-01
         -2   -1    0    0    0  501 -0.00000000000E+00  0.00000000000E+00  0.85702526755E+03  0.85702526755E+03  0.25500000000E-02 0.  1.
          2   -1    0    0  501    0  0.00000000000E+00 -0.00000000000E+00 -0.10213609923E+04  0.10213609923E+04  0.25500000000E-02 0. -1.
    8880023    1    1    2    0    0 -0.60759243075E+03  0.53600579202E+03 -0.13981218246E+03  0.10534839456E+04  0.65864270000E+03 0. -1.
    8880022    1    1    2    0    0  0.60759243075E+03 -0.53600579202E+03 -0.24523542320E+02  0.82490231429E+03  0.15294330000E+03 0.  1.
<mgrwt>
<rscale>  0 0.98430466E+03</rscale>
<asrwt>0</asrwt>
<pdfrwt beam="1">  1        2 0.15713246E+00 0.10441652E+04</pdfrwt>
<pdfrwt beam="2">  1       -2 0.13185004E+00 0.10441652E+04</pdfrwt>
<totfact> 0.10104906E+01</totfact>
</mgrwt>
</event>
<event>
 4    2  0.3388003E-007  0.6714876E+03  0.7818608E-02  0.1014618E+00
          2   -1    0    0  501    0  0.00000000000E+00  0.00000000000E+00  0.13799384070E+04  0.13799384070E+04  0.25500000000E-02 0. -1.
         -2   -1    0    0    0  501 -0.00000000000E+00 -0.00000000000E+00 -0.13933200387E+03  0.13933200390E+03  0.25500000000E-02 0.  1.
    8880023    1    1    2    0    0 -0.41058725751E+02 -0.12409482371E+03  0.88795258613E+03  0.11132633766E+04  0.65864270000E+03 0. -1.
    8880022    1    1    2    0    0  0.41058725751E+02  0.12409482371E+03  0.35265381702E+03  0.40600703430E+03  0.15294330000E+03 0.  1.
<mgrwt>
<rscale>  0 0.49679763E+03</rscale>
<asrwt>0</asrwt>
<pdfrwt beam="1">  1        2 0.21229822E+00 0.67148757E+03</pdfrwt>
<pdfrwt beam="2">  1       -2 0.21435692E-01 0.67148757E+03</pdfrwt>
<totfact> 0.28539281E+02</totfact>
</mgrwt>
</event>
<event>
 4    2  0.3388003E-007  0.7265268E+03  0.7818608E-02  0.9901090E-01
          2   -1    0    0  501    0  0.00000000000E+00  0.00000000000E+00  0.56263314261E+03  0.56263314262E+03  0.25500000000E-02 0. -1.
         -2   -1    0    0    0  501 -0.00000000000E+00 -0.00000000000E+00 -0.12047713678E+04  0.12047713678E+04  0.25500000000E-02 0.  1.
    8880023    1    1    2    0    0 -0.27866969860E+03 -0.12796138788E+03 -0.10232175480E+04  0.12549164413E+04  0.65864270000E+03 0.  0.
    8880022    1    1    2    0    0  0.27866969860E+03  0.12796138788E+03  0.38107932284E+03  0.51248806915E+03  0.15294330000E+03 0.  0.
<mgrwt>
<rscale>  0 0.60208479E+03</rscale>
<asrwt>0</asrwt>
<pdfrwt beam="1">  1        2 0.86558945E-01 0.72652675E+03</pdfrwt>
<pdfrwt beam="2">  1       -2 0.18534944E+00 0.72652675E+03</pdfrwt>
<totfact> 0.91109506E+00</totfact>
</mgrwt>
</event>
<event>
 4    2  0.3388003E-007  0.7086439E+03  0.7818608E-02  0.9963072E-01
         -2   -1    0    0    0  501 -0.00000000000E+00  0.00000000000E+00  0.21627874986E+03  0.21627874987E+03  0.25500000000E-02 0.  1.
          2   -1    0    0  501    0  0.00000000000E+00 -0.00000000000E+00 -0.15815952312E+04  0.15815952312E+04  0.25500000000E-02 0. -1.
    8880023    1    1    2    0    0 -0.80859371096E+01  0.26134375656E+03 -0.46405067474E+03  0.84706503674E+03  0.65864270000E+03 0.  0.
    8880022    1    1    2    0    0  0.80859371096E+01 -0.26134375656E+03 -0.90126580664E+03  0.95080894438E+03  0.15294330000E+03 0.  0.
<mgrwt>
<rscale>  0 0.57299559E+03</rscale>
<asrwt>0</asrwt>
<pdfrwt beam="1">  1        2 0.24332234E+00 0.70864388E+03</pdfrwt>
<pdfrwt beam="2">  1       -2 0.33273655E-01 0.70864388E+03</pdfrwt>
<totfact> 0.98597636E+01</totfact>
</mgrwt>
</event>
<event>
 4    2  0.3388003E-007  0.8084527E+03  0.7818608E-02  0.9692809E-01
         -2   -1    0    0    0  501 -0.00000000000E+00  0.00000000000E+00  0.94170393858E+03  0.94170393859E+03  0.25500000000E-02 0.  1.
          2   -1    0    0  501    0  0.00000000000E+00 -0.00000000000E+00 -0.45639830982E+03  0.45639830982E+03  0.25500000000E-02 0. -1.
    8880023    1    1    2    0    0 -0.46693646480E+03  0.41904065628E+02  0.38248868907E+03  0.89436760698E+03  0.65864270000E+03 0. -1.
    8880022    1    1    2    0    0  0.46693646480E+03 -0.41904065628E+02  0.10281693969E+03  0.50373464143E+03  0.15294330000E+03 0.  1.
<mgrwt>
<rscale>  0 0.71446564E+03</rscale>
<asrwt>0</asrwt>
<pdfrwt beam="1">  1        2 0.70215125E-01 0.80845273E+03</pdfrwt>
<pdfrwt beam="2">  1       -2 0.14487753E+00 0.80845273E+03</pdfrwt>
<totfact> 0.22659900E+01</totfact>
</mgrwt>
</event>
<event>
 4    2  0.3388003E-007  0.7455008E+03  0.7818608E-02  0.9844204E-01
          2   -1    0    0  501    0  0.00000000000E+00  0.00000000000E+00  0.62476458039E+03  0.62476458039E+03  0.25500000000E-02 0. -1.
         -2   -1    0    0    0  501 -0.00000000000E+00 -0.00000000000E+00 -0.58514784485E+03  0.58514784486E+03  0.25500000000E-02 0.  1.
    8880023    1    1    2    0    0 -0.97519924719E+02 -0.33533722883E+03 -0.18406440282E+03  0.76788742887E+03  0.65864270000E+03 0.  0.
    8880022    1    1    2    0    0  0.97519924719E+02  0.33533722883E+03  0.22368113836E+03  0.44202499639E+03  0.15294330000E+03 0.  0.
<mgrwt>
<rscale>  0 0.63043311E+03</rscale>
<asrwt>0</asrwt>
<pdfrwt beam="1">  1        2 0.96117628E-01 0.74550077E+03</pdfrwt>
<pdfrwt beam="2">  1       -2 0.90022745E-01 0.74550077E+03</pdfrwt>
<totfact> 0.50499912E+01</totfact>
</mgrwt>
</event>
<event>
 4    2  0.3388003E-007  0.7005493E+03  0.7818608E-02  0.9994930E-01
         -2   -1    0    0    0  501 -0.00000000000E+00  0.00000000000E+00  0.64651071061E+03  0.64651071061E+03  0.25500000000E-02 0.  1.
          2   -1    0    0  501    0  0.00000000000E+00 -0.00000000000E+00 -0.56790468109E+03  0.56790468110E+03  0.25500000000E-02 0. -1.
    8880023    1    1    2    0    0  0.23832750373E+03  0.12612589444E+02  0.38305376656E+03  0.79843563973E+03  0.65864270000E+03 0.  0.
    8880022    1    1    2    0    0 -0.23832750373E+03 -0.12612589444E+02 -0.30444773705E+03  0.41597975198E+03  0.15294330000E+03 0.  0.
<mgrwt>
<rscale>  0 0.55873097E+03</rscale>
<asrwt>0</asrwt>
<pdfrwt beam="1">  1        2 0.87369951E-01 0.70054927E+03</pdfrwt>
<pdfrwt beam="2">  1       -2 0.99463186E-01 0.70054927E+03</pdfrwt>
<totfact> 0.45037008E+01</totfact>
</mgrwt>
</event>
<event>
 4    2  0.3388003E-007  0.9392466E+03  0.7818608E-02  0.9465758E-01
          2   -1    0    0  501    0  0.00000000000E+00  0.00000000000E+00  0.75109167788E+03  0.75109167789E+03  0.25500000000E-02 0. -1.
         -2   -1    0    0    0  501 -0.00000000000E+00 -0.00000000000E+00 -0.12813290230E+04  0.12813290230E+04  0.25500000000E-02 0.  1.
    8880023    1    1    2    0    0 -0.58394940672E+03 -0.32768444294E+03 -0.85730253019E+03  0.12716728503E+04  0.65864270000E+03 0.  0.
    8880022    1    1    2    0    0  0.58394940672E+03  0.32768444294E+03  0.32706518510E+03  0.76074785052E+03  0.15294330000E+03 0.  0.
<mgrwt>
<rscale>  0 0.86856139E+03</rscale>
<asrwt>0</asrwt>
<pdfrwt beam="1">  1        2 0.11555257E+00 0.93924662E+03</pdfrwt>
<pdfrwt beam="2">  1       -2 0.19712754E+00 0.93924662E+03</pdfrwt>
<totfact> 0.51948594E+00</totfact>
</mgrwt>
</event>
<event>
 4    2  0.3388003E-007  0.8793824E+03  0.7818608E-02  0.9559975E-01
         -2   -1    0    0    0  501 -0.00000000000E+00  0.00000000000E+00  0.59204468200E+03  0.59204468201E+03  0.25500000000E-02 0.  1.
          2   -1    0    0  501    0  0.00000000000E+00 -0.00000000000E+00 -0.16940180095E+04  0.16940180095E+04  0.25500000000E-02 0. -1.
    8880023    1    1    2    0    0  0.89856564879E+02 -0.57569867927E+03  0.15430553425E+03  0.89281777297E+03  0.65864270000E+03 0.  0.
    8880022    1    1    2    0    0 -0.89856564879E+02  0.57569867927E+03 -0.12562788617E+04  0.13932449185E+04  0.15294330000E+03 0.  0.
<mgrwt>
<rscale>  0 0.80002935E+03</rscale>
<asrwt>0</asrwt>
<pdfrwt beam="1">  1        2 0.26061815E+00 0.87938238E+03</pdfrwt>
<pdfrwt beam="2">  1       -2 0.91083798E-01 0.87938238E+03</pdfrwt>
<totfact> 0.10273326E+01</totfact>
</mgrwt>
</event>
<event>
 4    2  0.3388003E-007  0.7652134E+03  0.7818608E-02  0.9791793E-01
          2   -1    0    0  501    0  0.00000000000E+00  0.00000000000E+00  0.28209832721E+04  0.28209832721E+04  0.25500000000E-02 0. -1.
         -2   -1    0    0    0  501 -0.00000000000E+00 -0.00000000000E+00 -0.17173987428E+03  0.17173987430E+03  0.25500000000E-02 0.  1.
    8880023    1    1    2    0    0 -0.53530472000E+02 -0.38584434175E+03  0.84246335633E+03  0.11381107506E+04  0.65864270000E+03 0.  1.
    8880022    1    1    2    0    0  0.53530472000E+02  0.38584434175E+03  0.18067800414E+04  0.18546123958E+04  0.15294330000E+03 0.  0.
<mgrwt>
<rscale>  0 0.65804855E+03</rscale>
<asrwt>0</asrwt>
<pdfrwt beam="1">  1        2 0.43399740E+00 0.76521342E+03</pdfrwt>
<pdfrwt beam="2">  1       -2 0.26421521E-01 0.76521342E+03</pdfrwt>
<totfact> 0.30545397E+01</totfact>
</mgrwt>
</event>
<event>
 4    2  0.3388003E-007  0.9800953E+03  0.7818608E-02  0.9408075E-01
          2   -1    0    0  501    0  0.00000000000E+00  0.00000000000E+00  0.17161916189E+04  0.17161916189E+04  0.25500000000E-02 0. -1.
         -2   -1    0    0    0  501 -0.00000000000E+00 -0.00000000000E+00 -0.78379002511E+03  0.78379002511E+03  0.25500000000E-02 0.  1.
    8880023    1    1    2    0    0 -0.15096862886E+03 -0.70991903411E+03 -0.33138806494E+03  0.10346037008E+04  0.65864270000E+03 0.  1.
    8880022    1    1    2    0    0  0.15096862886E+03  0.70991903411E+03  0.12637896588E+04  0.14653779432E+04  0.15294330000E+03 0. -1.
<mgrwt>
<rscale>  0 0.91414095E+03</rscale>
<asrwt>0</asrwt>
<pdfrwt beam="1">  1        2 0.26402948E+00 0.98009529E+03</pdfrwt>
<pdfrwt beam="2">  1       -2 0.12058308E+00 0.98009529E+03</pdfrwt>
<totfact> 0.50296836E+00</totfact>
</mgrwt>
</event>
<event>
 4    2  0.3388003E-007  0.9786655E+03  0.7818608E-02  0.9410018E-01
         -2   -1    0    0    0  501 -0.00000000000E+00  0.00000000000E+00  0.21966933378E+04  0.21966933378E+04  0.25500000000E-02 0.  1.
          2   -1    0    0  501    0  0.00000000000E+00 -0.00000000000E+00 -0.10482394232E+04  0.10482394232E+04  0.25500000000E-02 0. -1.
    8880023    1    1    2    0    0  0.71089877562E+03  0.13637781611E+03  0.19329604413E+04  0.21665923133E+04  0.65864270000E+03 0.  1.
    8880022    1    1    2    0    0 -0.71089877562E+03 -0.13637781611E+03 -0.78450652663E+03  0.10783404477E+04  0.15294330000E+03 0.  0.
<mgrwt>
<rscale>  0 0.91255826E+03</rscale>
<asrwt>0</asrwt>
<pdfrwt beam="1">  1        2 0.16126760E+00 0.97866551E+03</pdfrwt>
<pdfrwt beam="2">  1       -2 0.33795282E+00 0.97866551E+03</pdfrwt>
<totfact> 0.44028554E-01</totfact>
</mgrwt>
</event>
<event>
 4    2  0.3388003E-007  0.6598353E+03  0.7818608E-02  0.1024326E+00
          2   -1    0    0  501    0  0.00000000000E+00  0.00000000000E+00  0.67628605490E+03  0.67628605490E+03  0.25500000000E-02 0. -1.
         -2   -1    0    0    0  501 -0.00000000000E+00 -0.00000000000E+00 -0.26317246138E+03  0.26317246139E+03  0.25500000000E-02 0.  1.
    8880023    1    1    2    0    0  0.38750846029E+02 -0.84104394654E+01  0.23276165025E+03  0.69968604077E+03  0.65864270000E+03 0.  1.
    8880022    1    1    2    0    0 -0.38750846029E+02  0.84104394654E+01  0.18035194327E+03  0.23977247552E+03  0.15294330000E+03 0.  0.
<mgrwt>
<rscale>  0 0.46157359E+03</rscale>
<asrwt>0</asrwt>
<pdfrwt beam="1">  1        2 0.10404401E+00 0.65983526E+03</pdfrwt>
<pdfrwt beam="2">  1       -2 0.40488072E-01 0.65983526E+03</pdfrwt>
<totfact> 0.25022609E+02</totfact>
</mgrwt>
</event>
<event>
 4    2  0.3388003E-007  0.1304561E+04  0.7818608E-02  0.9061631E-01
          2   -1    0    0  501    0  0.00000000000E+00  0.00000000000E+00  0.45594338632E+04  0.45594338632E+04  0.25500000000E-02 0. -1.
         -2   -1    0    0    0  501 -0.00000000000E+00 -0.00000000000E+00 -0.36677187623E+03  0.36677187624E+03  0.25500000000E-02 0.  1.
    8880023    1    1    2    0    0  0.54154258366E+02  0.11247827439E+04  0.30373034967E+04  0.33056151685E+04  0.65864270000E+03 0.  1.
    8880022    1    1    2    0    0 -0.54154258366E+02 -0.11247827439E+04  0.11553584903E+04  0.16205905710E+04  0.15294330000E+03 0.  0.
<mgrwt>
<rscale>  0 0.12603275E+04</rscale>
<asrwt>0</asrwt>
<pdfrwt beam="1">  1        2 0.70145134E+00 0.13045609E+04</pdfrwt>
<pdfrwt beam="2">  1       -2 0.56426445E-01 0.13045609E+04</pdfrwt>
<totfact> 0.32332564E-01</totfact>
</mgrwt>
</event>
<event>
 4    2  0.3388003E-007  0.7412663E+03  0.7818608E-02  0.9856274E-01
         -2   -1    0    0    0  501 -0.00000000000E+00  0.00000000000E+00  0.80985178024E+03  0.80985178024E+03  0.25500000000E-02 0.  1.
          2   -1    0    0  501    0  0.00000000000E+00 -0.00000000000E+00 -0.55330282501E+03  0.55330282502E+03  0.25500000000E-02 0. -1.
    8880023    1    1    2    0    0  0.26961293419E+03 -0.20730275137E+03  0.52096017968E+03  0.90602167749E+03  0.65864270000E+03 0.  1.
    8880022    1    1    2    0    0 -0.26961293419E+03  0.20730275137E+03 -0.26441122446E+03  0.45713292776E+03  0.15294330000E+03 0.  0.
<mgrwt>
<rscale>  0 0.62428068E+03</rscale>
<asrwt>0</asrwt>
<pdfrwt beam="1">  1        2 0.85123512E-01 0.74126633E+03</pdfrwt>
<pdfrwt beam="2">  1       -2 0.12459258E+00 0.74126633E+03</pdfrwt>
<totfact> 0.26780480E+01</totfact>
</mgrwt>
</event>
<event>
 4    2  0.3388003E-007  0.6968169E+03  0.7818608E-02  0.1001067E+00
         -2   -1    0    0    0  501 -0.00000000000E+00  0.00000000000E+00  0.23473219501E+04  0.23473219501E+04  0.25500000000E-02 0.  1.
          2   -1    0    0  501    0  0.00000000000E+00 -0.00000000000E+00 -0.41521867238E+03  0.41521867239E+03  0.25500000000E-02 0. -1.
    8880023    1    1    2    0    0 -0.21684395592E+03  0.68718937633E+02  0.22425997738E+04  0.23483627372E+04  0.65864270000E+03 0.  0.
    8880022    1    1    2    0    0  0.21684395592E+03 -0.68718937633E+02 -0.31049649607E+03  0.41417788533E+03  0.15294330000E+03 0.  0.
<mgrwt>
<rscale>  0 0.55184800E+03</rscale>
<asrwt>0</asrwt>
<pdfrwt beam="1">  1        2 0.63879797E-01 0.69681691E+03</pdfrwt>
<pdfrwt beam="2">  1       -2 0.36112645E+00 0.69681691E+03</pdfrwt>
<totfact> 0.10749712E+00</totfact>
</mgrwt>
</event>
<event>
 4    2  0.3388003E-007  0.7683247E+03  0.7818608E-02  0.9784013E-01
          2   -1    0    0  501    0  0.00000000000E+00  0.00000000000E+00  0.11065417141E+04  0.11065417141E+04  0.25500000000E-02 0. -1.
         -2   -1    0    0    0  501 -0.00000000000E+00 -0.00000000000E+00 -0.63934200289E+03  0.63934200290E+03  0.25500000000E-02 0.  1.
    8880023    1    1    2    0    0 -0.33742823399E+03  0.20653062054E+03 -0.33521237685E+03  0.83826621915E+03  0.65864270000E+03 0.  0.
    8880022    1    1    2    0    0  0.33742823399E+03 -0.20653062054E+03  0.80241208803E+03  0.90761749782E+03  0.15294330000E+03 0.  0.
<mgrwt>
<rscale>  0 0.66227571E+03</rscale>
<asrwt>0</asrwt>
<pdfrwt beam="1">  1        2 0.17023718E+00 0.76832475E+03</pdfrwt>
<pdfrwt beam="2">  1       -2 0.98360309E-01 0.76832475E+03</pdfrwt>
<totfact> 0.18833769E+01</totfact>
</mgrwt>
</event>
<event>
 4    2  0.3388003E-007  0.6858617E+03  0.7818608E-02  0.1006185E+00
         -2   -1    0    0    0  501 -0.00000000000E+00  0.00000000000E+00  0.13849360592E+03  0.13849360595E+03  0.25500000000E-02 0.  1.
          2   -1    0    0  501    0  0.00000000000E+00 -0.00000000000E+00 -0.17242652514E+04  0.17242652514E+04  0.25500000000E-02 0. -1.
    8880023    1    1    2    0    0 -0.13187118258E+03 -0.13858582992E+03 -0.88007553227E+03  0.11157684302E+04  0.65864270000E+03 0.  0.
    8880022    1    1    2    0    0  0.13187118258E+03  0.13858582992E+03 -0.70569611320E+03  0.74699042715E+03  0.15294330000E+03 0.  0.
<mgrwt>
<rscale>  0 0.53019445E+03</rscale>
<asrwt>0</asrwt>
<pdfrwt beam="1">  1        2 0.26527156E+00 0.68586168E+03</pdfrwt>
<pdfrwt beam="2">  1       -2 0.21306710E-01 0.68586168E+03</pdfrwt>
<totfact> 0.18586100E+02</totfact>
</mgrwt>
</event>
<event>
 4    2  0.3388003E-007  0.1356729E+04  0.7818608E-02  0.9018056E-01
          2   -1    0    0  501    0  0.00000000000E+00  0.00000000000E+00  0.27844092556E+04  0.27844092556E+04  0.25500000000E-02 0. -1.
         -2   -1    0    0    0  501 -0.00000000000E+00 -0.00000000000E+00 -0.86526844681E+03  0.86526844681E+03  0.25500000000E-02 0.  1.
    8880023    1    1    2    0    0  0.84925899168E+03 -0.82804751123E+03  0.20375053381E+04  0.24478851535E+04  0.65864270000E+03 0.  1.
    8880022    1    1    2    0    0 -0.84925899168E+03  0.82804751123E+03 -0.11836452928E+03  0.12017925489E+04  0.15294330000E+03 0.  0.
<mgrwt>
<rscale>  0 0.13146134E+04</rscale>
<asrwt>0</asrwt>
<pdfrwt beam="1">  1        2 0.42837065E+00 0.13567291E+04</pdfrwt>
<pdfrwt beam="2">  1       -2 0.13311822E+00 0.13567291E+04</pdfrwt>
<totfact> 0.93156868E-01</totfact>
</mgrwt>
</event>
<event>
 4    2  0.6740377E-007  0.9894839E+03  0.7818608E-02  0.9395447E-01
          2   -1    0    0  501    0  0.00000000000E+00  0.00000000000E+00  0.28893594846E+04  0.28893594846E+04  0.25500000000E-02 0. -1.
         -2   -1    0    0    0  501 -0.00000000000E+00 -0.00000000000E+00 -0.14171691192E+04  0.14171691192E+04  0.25500000000E-02 0.  1.
    8880023    1    1    2    0    0  0.69702446056E+03 -0.24377264675E+03 -0.11853532566E+04  0.15440663040E+04  0.65864270000E+03 0.  1.
    8880022    1    1    2    0    0 -0.69702446056E+03  0.24377264675E+03  0.26575436220E+04  0.27624622998E+04  0.15294330000E+03 0.  0.
<mgrwt>
<rscale>  0 0.92451322E+03</rscale>
<asrwt>0</asrwt>
<pdfrwt beam="1">  1        2 0.44451684E+00 0.98948391E+03</pdfrwt>
<pdfrwt beam="2">  1       -2 0.21802602E+00 0.98948391E+03</pdfrwt>
<totfact> 0.21130139E-01</totfact>
</mgrwt>
</event>
<event>
 4    2  0.3388003E-007  0.1122824E+04  0.7818608E-02  0.9236061E-01
          2   -1    0    0  501    0  0.00000000000E+00  0.00000000000E+00  0.18427258643E+04  0.18427258643E+04  0.25500000000E-02 0. -1.
         -2   -1    0    0    0  501 -0.00000000000E+00 -0.00000000000E+00 -0.87080882749E+03  0.87080882749E+03  0.25500000000E-02 0.  1.
    8880023    1    1    2    0    0  0.86138542858E+03  0.29144065413E+03  0.13154553190E+04  0.17294957109E+04  0.65864270000E+03 0.  0.
    8880022    1    1    2    0    0 -0.86138542858E+03 -0.29144065413E+03 -0.34353828224E+03  0.98403898085E+03  0.15294330000E+03 0.  0.
<mgrwt>
<rscale>  0 0.10688852E+04</rscale>
<asrwt>0</asrwt>
<pdfrwt beam="1">  1        2 0.28349629E+00 0.11228235E+04</pdfrwt>
<pdfrwt beam="2">  1       -2 0.13397059E+00 0.11228235E+04</pdfrwt>
<totfact> 0.32280094E+00</totfact>
</mgrwt>
</event>
<event>
 4    2  0.4563349E-007  0.7902178E+03  0.7818608E-02  0.9732361E-01
         -2   -1    0    0    0  501 -0.00000000000E+00  0.00000000000E+00  0.15514380096E+04  0.15514380096E+04  0.25500000000E-02 0.  1.
          2   -1    0    0  501    0  0.00000000000E+00 -0.00000000000E+00 -0.14665835755E+04  0.14665835755E+04  0.25500000000E-02 0. -1.
    8880023    1    1    2    0    0 -0.35864085677E+03 -0.24901938162E+03  0.14089567603E+04  0.16154266543E+04  0.65864270000E+03 0.  1.
    8880022    1    1    2    0    0  0.35864085677E+03  0.24901938162E+03 -0.13241023263E+04  0.14025949309E+04  0.15294330000E+03 0.  0.
<mgrwt>
<rscale>  0 0.69122319E+03</rscale>
<asrwt>0</asrwt>
<pdfrwt beam="1">  1        2 0.22562824E+00 0.79021777E+03</pdfrwt>
<pdfrwt beam="2">  1       -2 0.23868277E+00 0.79021777E+03</pdfrwt>
<totfact> 0.10321107E+00</totfact>
</mgrwt>
</event>
<event>
 4    2  0.3579697E-007  0.8583553E+03  0.7818608E-02  0.9596496E-01
         -2   -1    0    0    0  501 -0.00000000000E+00  0.00000000000E+00  0.75842088575E+03  0.75842088575E+03  0.25500000000E-02 0.  1.
          2   -1    0    0  501    0  0.00000000000E+00 -0.00000000000E+00 -0.34673594083E+04  0.34673594083E+04  0.25500000000E-02 0. -1.
    8880023    1    1    2    0    0 -0.14225136742E+03  0.53172194823E+03  0.48178259904E+03  0.98432126908E+03  0.65864270000E+03 0.  0.
    8880022    1    1    2    0    0  0.14225136742E+03 -0.53172194823E+03 -0.31907211216E+04  0.32414590249E+04  0.15294330000E+03 0. -1.
<mgrwt>
<rscale>  0 0.77528552E+03</rscale>
<asrwt>0</asrwt>
<pdfrwt beam="1">  1        2 0.53343990E+00 0.85835534E+03</pdfrwt>
<pdfrwt beam="2">  1       -2 0.11668014E+00 0.85835534E+03</pdfrwt>
<totfact> 0.51710970E-01</totfact>
</mgrwt>
</event>
<event>
 4    2  0.3388003E-007  0.7417266E+03  0.7818608E-02  0.9854946E-01
          2   -1    0    0  501    0  0.00000000000E+00  0.00000000000E+00  0.10788119308E+04  0.10788119308E+04  0.25500000000E-02 0. -1.
         -2   -1    0    0    0  501 -0.00000000000E+00 -0.00000000000E+00 -0.88701085753E+03  0.88701085753E+03  0.25500000000E-02 0.  1.
    8880023    1    1    2    0    0 -0.30098586120E+03 -0.16048588754E+03 -0.68688521274E+03  0.10109251755E+04  0.65864270000E+03 0.  1.
    8880022    1    1    2    0    0  0.30098586120E+03  0.16048588754E+03  0.87868628602E+03  0.95489761283E+03  0.15294330000E+03 0.  0.
<mgrwt>
<rscale>  0 0.62495385E+03</rscale>
<asrwt>0</asrwt>
<pdfrwt beam="1">  1        2 0.16597107E+00 0.74172664E+03</pdfrwt>
<pdfrwt beam="2">  1       -2 0.13646321E+00 0.74172664E+03</pdfrwt>
<totfact> 0.87876873E+00</totfact>
</mgrwt>
</event>
<event>
 4    2  0.3388003E-007  0.1025420E+04  0.7818608E-02  0.9349031E-01
         -2   -1    0    0    0  501 -0.00000000000E+00  0.00000000000E+00  0.37772485857E+03  0.37772485858E+03  0.25500000000E-02 0.  1.
          2   -1    0    0  501    0  0.00000000000E+00 -0.00000000000E+00 -0.23804856816E+04  0.23804856816E+04  0.25500000000E-02 0. -1.
    8880023    1    1    2    0    0  0.63028152951E+02  0.78339262118E+03 -0.74599813252E+03  0.12680693857E+04  0.65864270000E+03 0.  1.
    8880022    1    1    2    0    0 -0.63028152951E+02 -0.78339262118E+03 -0.12567626906E+04  0.14901411545E+04  0.15294330000E+03 0.  0.
<mgrwt>
<rscale>  0 0.96391659E+03</rscale>
<asrwt>0</asrwt>
<pdfrwt beam="1">  1        2 0.36622856E+00 0.10254203E+04</pdfrwt>
<pdfrwt beam="2">  1       -2 0.58111518E-01 0.10254203E+04</pdfrwt>
<totfact> 0.11377487E+01</totfact>
</mgrwt>
</event>
<event>
 4    2  0.3388003E-007  0.8999485E+03  0.7818608E-02  0.9526114E-01
         -2   -1    0    0    0  501 -0.00000000000E+00  0.00000000000E+00  0.64892099698E+03  0.64892099698E+03  0.25500000000E-02 0.  1.
          2   -1    0    0  501    0  0.00000000000E+00 -0.00000000000E+00 -0.16533221984E+04  0.16533221984E+04  0.25500000000E-02 0. -1.
    8880023    1    1    2    0    0 -0.61304000538E+03  0.16702076343E+02  0.21811591582E+03  0.92600311368E+03  0.65864270000E+03 0.  1.
    8880022    1    1    2    0    0  0.61304000538E+03 -0.16702076343E+02 -0.12225171173E+04  0.13762400817E+04  0.15294330000E+03 0.  0.
<mgrwt>
<rscale>  0 0.82385595E+03</rscale>
<asrwt>0</asrwt>
<pdfrwt beam="1">  1        2 0.25435726E+00 0.89994845E+03</pdfrwt>
<pdfrwt beam="2">  1       -2 0.99834000E-01 0.89994845E+03</pdfrwt>
<totfact> 0.87029099E+00</totfact>
</mgrwt>
</event>
<event>
 4    2  0.3388003E-007  0.8946868E+03  0.7818608E-02  0.9534615E-01
         -2   -1    0    0    0  501 -0.00000000000E+00  0.00000000000E+00  0.33160455494E+03  0.33160455495E+03  0.25500000000E-02 0.  1.
          2   -1    0    0  501    0  0.00000000000E+00 -0.00000000000E+00 -0.18158861495E+04  0.18158861495E+04  0.25500000000E-02 0. -1.
    8880023    1    1    2    0    0  0.54524282670E+03  0.26337159124E+03 -0.10846714883E+04  0.14060500628E+04  0.65864270000E+03 0. -1.
    8880022    1    1    2    0    0 -0.54524282670E+03 -0.26337159124E+03 -0.39961010623E+03  0.74144064169E+03  0.15294330000E+03 0.  1.
<mgrwt>
<rscale>  0 0.81779182E+03</rscale>
<asrwt>0</asrwt>
<pdfrwt beam="1">  1        2 0.27936709E+00 0.89468684E+03</pdfrwt>
<pdfrwt beam="2">  1       -2 0.51016087E-01 0.89468684E+03</pdfrwt>
<totfact> 0.31076989E+01</totfact>
</mgrwt>
</event>
<event>
 4    2  0.3388003E-007  0.1061099E+04  0.7818608E-02  0.9305657E-01
         -2   -1    0    0    0  501 -0.00000000000E+00  0.00000000000E+00  0.94706950090E+03  0.94706950090E+03  0.25500000000E-02 0.  1.
          2   -1    0    0  501    0  0.00000000000E+00 -0.00000000000E+00 -0.21791536403E+04  0.21791536403E+04  0.25500000000E-02 0. -1.
    8880023    1    1    2    0    0 -0.15466441815E+03  0.81743461588E+03  0.51923243985E+03  0.11813267822E+04  0.65864270000E+03 0.  0.
    8880022    1    1    2    0    0  0.15466441815E+03 -0.81743461588E+03 -0.17513165793E+04  0.19448963590E+04  0.15294330000E+03 0.  0.
<mgrwt>
<rscale>  0 0.10026376E+04</rscale>
<asrwt>0</asrwt>
<pdfrwt beam="1">  1        2 0.33525440E+00 0.10610988E+04</pdfrwt>
<pdfrwt beam="2">  1       -2 0.14570300E+00 0.10610988E+04</pdfrwt>
<totfact> 0.17026190E+00</totfact>
</mgrwt>
</event>
<event>
 4    2  0.4118244E-007  0.7404824E+03  0.7818608E-02  0.9858544E-01
          2   -1    0    0  501    0  0.00000000000E+00  0.00000000000E+00  0.18072590039E+04  0.18072590039E+04  0.25500000000E-02 0. -1.
         -2   -1    0    0    0  501 -0.00000000000E+00 -0.00000000000E+00 -0.13011094937E+04  0.13011094937E+04  0.25500000000E-02 0.  1.
    8880023    1    1    2    0    0 -0.23630902433E+03  0.24220257960E+03 -0.11738105960E+04  0.13878564645E+04  0.65864270000E+03 0.  1.
    8880022    1    1    2    0    0  0.23630902433E+03 -0.24220257960E+03  0.16799601062E+04  0.17205120331E+04  0.15294330000E+03 0.  0.
<mgrwt>
<rscale>  0 0.62313180E+03</rscale>
<asrwt>0</asrwt>
<pdfrwt beam="1">  1        2 0.27803985E+00 0.74048244E+03</pdfrwt>
<pdfrwt beam="2">  1       -2 0.20017069E+00 0.74048244E+03</pdfrwt>
<totfact> 0.11806220E+00</totfact>
</mgrwt>
</event>
<event>
 4    2  0.3388003E-007  0.6750261E+03  0.7818608E-02  0.1012290E+00
          2   -1    0    0  501    0  0.00000000000E+00  0.00000000000E+00  0.85642664885E+03  0.85642664886E+03  0.25500000000E-02 0. -1.
         -2   -1    0    0    0  501 -0.00000000000E+00 -0.00000000000E+00 -0.41202579373E+03  0.41202579374E+03  0.25500000000E-02 0.  1.
    8880023    1    1    2    0    0 -0.11626706838E+03  0.91279675175E+02 -0.10146584764E+03  0.68260935739E+03  0.65864270000E+03 0.  1.
    8880022    1    1    2    0    0  0.11626706838E+03 -0.91279675175E+02  0.54586670276E+03  0.58584308521E+03  0.15294330000E+03 0.  0.
<mgrwt>
<rscale>  0 0.50574633E+03</rscale>
<asrwt>0</asrwt>
<pdfrwt beam="1">  1        2 0.13175794E+00 0.67502609E+03</pdfrwt>
<pdfrwt beam="2">  1       -2 0.63388584E-01 0.67502609E+03</pdfrwt>
<totfact> 0.73780161E+01</totfact>
</mgrwt>
</event>
<event>
 4    2  0.5975309E-007  0.8588608E+03  0.7818608E-02  0.9595593E-01
          2   -1    0    0  501    0  0.00000000000E+00  0.00000000000E+00  0.34018355592E+04  0.34018355592E+04  0.25500000000E-02 0. -1.
         -2   -1    0    0    0  501 -0.00000000000E+00 -0.00000000000E+00 -0.10010829405E+04  0.10010829405E+04  0.25500000000E-02 0.  1.
    8880023    1    1    2    0    0 -0.28809657574E+03 -0.46992775996E+03 -0.78660194968E+03  0.11646392446E+04  0.65864270000E+03 0.  1.
    8880022    1    1    2    0    0  0.28809657574E+03  0.46992775996E+03  0.31873545684E+04  0.32382792551E+04  0.15294330000E+03 0.  0.
<mgrwt>
<rscale>  0 0.77588551E+03</rscale>
<asrwt>0</asrwt>
<pdfrwt beam="1">  1        2 0.52335931E+00 0.85886084E+03</pdfrwt>
<pdfrwt beam="2">  1       -2 0.15401276E+00 0.85886084E+03</pdfrwt>
<totfact> 0.28094060E-01</totfact>
</mgrwt>
</event>
<event>
 4    2  0.3388003E-007  0.1241596E+04  0.7818608E-02  0.9117712E-01
         -2   -1    0    0    0  501 -0.00000000000E+00  0.00000000000E+00  0.48456120620E+03  0.48456120621E+03  0.25500000000E-02 0.  1.
          2   -1    0    0  501    0  0.00000000000E+00 -0.00000000000E+00 -0.43459131791E+04  0.43459131791E+04  0.25500000000E-02 0. -1.
    8880023    1    1    2    0    0  0.94573517110E+03 -0.46188139632E+03 -0.34894778175E+04  0.37037838872E+04  0.65864270000E+03 0. -1.
    8880022    1    1    2    0    0 -0.94573517110E+03  0.46188139632E+03 -0.37187415546E+03  0.11266904982E+04  0.15294330000E+03 0.  0.
<mgrwt>
<rscale>  0 0.11944686E+04</rscale>
<asrwt>0</asrwt>
<pdfrwt beam="1">  1        2 0.66860200E+00 0.12415956E+04</pdfrwt>
<pdfrwt beam="2">  1       -2 0.74547881E-01 0.12415956E+04</pdfrwt>
<totfact> 0.28470527E-01</totfact>
</mgrwt>
</event>
<event>
 4    2  0.3388003E-007  0.1086347E+04  0.7818608E-02  0.9276411E-01
         -2   -1    0    0    0  501 -0.00000000000E+00  0.00000000000E+00  0.66662662233E+03  0.66662662234E+03  0.25500000000E-02 0.  1.
          2   -1    0    0  501    0  0.00000000000E+00 -0.00000000000E+00 -0.16682400784E+04  0.16682400784E+04  0.25500000000E-02 0. -1.
    8880023    1    1    2    0    0  0.80333348673E+03  0.31779779125E+03 -0.12311944299E+03  0.10933017564E+04  0.65864270000E+03 0.  0.
    8880022    1    1    2    0    0 -0.80333348673E+03 -0.31779779125E+03 -0.87849401311E+03  0.12415649444E+04  0.15294330000E+03 0.  0.
<mgrwt>
<rscale>  0 0.10298380E+04</rscale>
<asrwt>0</asrwt>
<pdfrwt beam="1">  1        2 0.25665232E+00 0.10863472E+04</pdfrwt>
<pdfrwt beam="2">  1       -2 0.10255794E+00 0.10863472E+04</pdfrwt>
<totfact> 0.78472409E+00</totfact>
</mgrwt>
</event>
<event>
 4    2  0.3388003E-007  0.1040670E+04  0.7818608E-02  0.9330182E-01
         -2   -1    0    0    0  501 -0.00000000000E+00  0.00000000000E+00  0.10451403618E+04  0.10451403618E+04  0.25500000000E-02 0.  1.
          2   -1    0    0  501    0  0.00000000000E+00 -0.00000000000E+00 -0.31123580187E+04  0.31123580187E+04  0.25500000000E-02 0. -1.
    8880023    1    1    2    0    0  0.70407007780E+03  0.39175086784E+03 -0.28436873819E+04  0.30281267393E+04  0.65864270000E+03 0. -1.
    8880022    1    1    2    0    0 -0.70407007780E+03 -0.39175086784E+03  0.77646972503E+03  0.11293716411E+04  0.15294330000E+03 0.  0.
<mgrwt>
<rscale>  0 0.98051063E+03</rscale>
<asrwt>0</asrwt>
<pdfrwt beam="1">  1        2 0.47882431E+00 0.10406698E+04</pdfrwt>
<pdfrwt beam="2">  1       -2 0.16079083E+00 0.10406698E+04</pdfrwt>
<totfact> 0.37161909E-01</totfact>
</mgrwt>
</event>
<event>
 4    2  0.3388003E-007  0.7492292E+03  0.7818608E-02  0.9833835E-01
          2   -1    0    0  501    0  0.00000000000E+00  0.00000000000E+00  0.30331870094E+04  0.30331870094E+04  0.25500000000E-02 0. -1.
         -2   -1    0    0    0  501 -0.00000000000E+00 -0.00000000000E+00 -0.34453273252E+03  0.34453273253E+03  0.25500000000E-02 0.  1.
    8880023    1    1    2    0    0 -0.34762945659E+03  0.81780096172E+02  0.95111725328E+02  0.75524212659E+03  0.65864270000E+03 0.  1.
    8880022    1    1    2    0    0  0.34762945659E+03 -0.81780096172E+02  0.25935425516E+04  0.26224776154E+04  0.15294330000E+03 0.  0.
<mgrwt>
<rscale>  0 0.63577946E+03</rscale>
<asrwt>0</asrwt>
<pdfrwt beam="1">  1        2 0.46664416E+00 0.74922922E+03</pdfrwt>
<pdfrwt beam="2">  1       -2 0.53005035E-01 0.74922922E+03</pdfrwt>
<totfact> 0.59416277E+00</totfact>
</mgrwt>
</event>
<event>
 4    2  0.3388003E-007  0.6754245E+03  0.7818608E-02  0.1012040E+00
          2   -1    0    0  501    0  0.00000000000E+00  0.00000000000E+00  0.11129916979E+04  0.11129916979E+04  0.25500000000E-02 0. -1.
         -2   -1    0    0    0  501 -0.00000000000E+00 -0.00000000000E+00 -0.19721397314E+03  0.19721397316E+03  0.25500000000E-02 0.  1.
    8880023    1    1    2    0    0 -0.14671378044E+03 -0.29377888824E+02  0.49247343674E+03  0.83589968649E+03  0.65864270000E+03 0.  1.
    8880022    1    1    2    0    0  0.14671378044E+03  0.29377888824E+02  0.42330428805E+03  0.47430598459E+03  0.15294330000E+03 0.  0.
<mgrwt>
<rscale>  0 0.50671836E+03</rscale>
<asrwt>0</asrwt>
<pdfrwt beam="1">  1        2 0.17122950E+00 0.67542446E+03</pdfrwt>
<pdfrwt beam="2">  1       -2 0.30340611E-01 0.67542446E+03</pdfrwt>
<totfact> 0.21793655E+02</totfact>
</mgrwt>
</event>
<event>
 4    2  0.3388003E-007  0.6937553E+03  0.7818608E-02  0.1002416E+00
         -2   -1    0    0    0  501 -0.00000000000E+00  0.00000000000E+00  0.39113392049E+03  0.39113392049E+03  0.25500000000E-02 0.  1.
          2   -1    0    0  501    0  0.00000000000E+00 -0.00000000000E+00 -0.17897357015E+04  0.17897357015E+04  0.25500000000E-02 0. -1.
    8880023    1    1    2    0    0  0.19087784552E+03  0.10512781240E+03  0.61704109970E+02  0.69649394276E+03  0.65864270000E+03 0.  1.
    8880022    1    1    2    0    0 -0.19087784552E+03 -0.10512781240E+03 -0.14603058910E+04  0.14843756792E+04  0.15294330000E+03 0.  0.
<mgrwt>
<rscale>  0 0.54603259E+03</rscale>
<asrwt>0</asrwt>
<pdfrwt beam="1">  1        2 0.27534395E+00 0.69375530E+03</pdfrwt>
<pdfrwt beam="2">  1       -2 0.60174450E-01 0.69375530E+03</pdfrwt>
<totfact> 0.23337297E+01</totfact>
</mgrwt>
</event>
<event>
 4    2  0.6552931E-007  0.8787294E+03  0.7818608E-02  0.9561079E-01
         -2   -1    0    0    0  501 -0.00000000000E+00  0.00000000000E+00  0.13174069070E+04  0.13174069070E+04  0.25500000000E-02 0.  1.
          2   -1    0    0  501    0  0.00000000000E+00 -0.00000000000E+00 -0.27182552591E+04  0.27182552591E+04  0.25500000000E-02 0. -1.
    8880023    1    1    2    0    0 -0.26055027467E+03  0.52006599201E+03  0.11316295887E+04  0.14327424102E+04  0.65864270000E+03 0.  1.
    8880022    1    1    2    0    0  0.26055027467E+03 -0.52006599201E+03 -0.25324779409E+04  0.26029197559E+04  0.15294330000E+03 0.  0.
<mgrwt>
<rscale>  0 0.79926709E+03</rscale>
<asrwt>0</asrwt>
<pdfrwt beam="1">  1        2 0.41819311E+00 0.87872936E+03</pdfrwt>
<pdfrwt beam="2">  1       -2 0.20267799E+00 0.87872936E+03</pdfrwt>
<totfact> 0.34248377E-01</totfact>
</mgrwt>
</event>
<event>
 4    2  0.3388003E-007  0.8708345E+03  0.7818608E-02  0.9574574E-01
          2   -1    0    0  501    0  0.00000000000E+00  0.00000000000E+00  0.53349450579E+03  0.53349450579E+03  0.25500000000E-02 0. -1.
         -2   -1    0    0    0  501 -0.00000000000E+00 -0.00000000000E+00 -0.20447603317E+04  0.20447603317E+04  0.25500000000E-02 0.  1.
    8880023    1    1    2    0    0 -0.34463647318E+03  0.45361688103E+03 -0.17398776727E+04  0.19456431059E+04  0.65864270000E+03 0.  1.
    8880022    1    1    2    0    0  0.34463647318E+03 -0.45361688103E+03  0.22861184679E+03  0.63261173156E+03  0.15294330000E+03 0.  0.
<mgrwt>
<rscale>  0 0.79002144E+03</rscale>
<asrwt>0</asrwt>
<pdfrwt beam="1">  1        2 0.82076079E-01 0.87083453E+03</pdfrwt>
<pdfrwt beam="2">  1       -2 0.31457851E+00 0.87083453E+03</pdfrwt>
<totfact> 0.15147346E+00</totfact>
</mgrwt>
</event>
<event>
 4    2  0.3388003E-007  0.7601595E+03  0.7818608E-02  0.9804695E-01
         -2   -1    0    0    0  501 -0.00000000000E+00  0.00000000000E+00  0.14248676592E+03  0.14248676594E+03  0.25500000000E-02 0.  1.
          2   -1    0    0  501    0  0.00000000000E+00 -0.00000000000E+00 -0.25785788077E+04  0.25785788077E+04  0.25500000000E-02 0. -1.
    8880023    1    1    2    0    0  0.88741640260E+02 -0.36899490073E+03 -0.12146010850E+04  0.14328636772E+04  0.65864270000E+03 0. -1.
    8880022    1    1    2    0    0 -0.88741640260E+02  0.36899490073E+03 -0.12214909568E+04  0.12882018965E+04  0.15294330000E+03 0.  0.
<mgrwt>
<rscale>  0 0.65111210E+03</rscale>
<asrwt>0</asrwt>
<pdfrwt beam="1">  1        2 0.39670440E+00 0.76015954E+03</pdfrwt>
<pdfrwt beam="2">  1       -2 0.21921043E-01 0.76015954E+03</pdfrwt>
<totfact> 0.59165170E+01</totfact>
</mgrwt>
</event>
<event>
 4    2  0.3388003E-007  0.7809059E+03  0.7818608E-02  0.9753713E-01
         -2   -1    0    0    0  501 -0.00000000000E+00  0.00000000000E+00  0.45397215783E+03  0.45397215783E+03  0.25500000000E-02 0.  1.
          2   -1    0    0  501    0  0.00000000000E+00 -0.00000000000E+00 -0.18524517060E+04  0.18524517060E+04  0.25500000000E-02 0. -1.
    8880023    1    1    2    0    0 -0.30523881021E+03 -0.28780739349E+03  0.57974159694E+02  0.78305493834E+03  0.65864270000E+03 0.  0.
    8880022    1    1    2    0    0  0.30523881021E+03  0.28780739349E+03 -0.14564537079E+04  0.15233689255E+04  0.15294330000E+03 0.  0.
<mgrwt>
<rscale>  0 0.67906828E+03</rscale>
<asrwt>0</asrwt>
<pdfrwt beam="1">  1        2 0.28499257E+00 0.78090591E+03</pdfrwt>
<pdfrwt beam="2">  1       -2 0.69841871E-01 0.78090591E+03</pdfrwt>
<totfact> 0.15482377E+01</totfact>
</mgrwt>
</event>
<event>
 4    2  0.3388003E-007  0.7083869E+03  0.7818608E-02  0.9964040E-01
         -2   -1    0    0    0  501 -0.00000000000E+00  0.00000000000E+00  0.36302067492E+03  0.36302067492E+03  0.25500000000E-02 0.  1.
          2   -1    0    0  501    0  0.00000000000E+00 -0.00000000000E+00 -0.21981140357E+04  0.21981140357E+04  0.25500000000E-02 0. -1.
    8880023    1    1    2    0    0  0.24868498757E+03  0.78470219581E+02 -0.72134690011E+01  0.70842362948E+03  0.65864270000E+03 0.  0.
    8880022    1    1    2    0    0 -0.24868498757E+03 -0.78470219581E+02 -0.18278798918E+04  0.18527110812E+04  0.15294330000E+03 0. -1.
<mgrwt>
<rscale>  0 0.57255509E+03</rscale>
<asrwt>0</asrwt>
<pdfrwt beam="1">  1        2 0.33817138E+00 0.70838690E+03</pdfrwt>
<pdfrwt beam="2">  1       -2 0.55849336E-01 0.70838690E+03</pdfrwt>
<totfact> 0.16301813E+01</totfact>
</mgrwt>
</event>
<event>
 4    2  0.3388003E-007  0.6982223E+03  0.7818608E-02  0.1000466E+00
         -2   -1    0    0    0  501 -0.00000000000E+00  0.00000000000E+00  0.37606887506E+03  0.37606887506E+03  0.25500000000E-02 0.  1.
          2   -1    0    0  501    0  0.00000000000E+00 -0.00000000000E+00 -0.17438332686E+04  0.17438332686E+04  0.25500000000E-02 0. -1.
    8880023    1    1    2    0    0 -0.13168404156E+03 -0.19069210952E+03  0.26042463445E+02  0.69870779558E+03  0.65864270000E+03 0.  0.
    8880022    1    1    2    0    0  0.13168404156E+03  0.19069210952E+03 -0.13938068570E+04  0.14211943481E+04  0.15294330000E+03 0. -1.
<mgrwt>
<rscale>  0 0.55446500E+03</rscale>
<asrwt>0</asrwt>
<pdfrwt beam="1">  1        2 0.26828204E+00 0.69822230E+03</pdfrwt>
<pdfrwt beam="2">  1       -2 0.57856751E-01 0.69822230E+03</pdfrwt>
<totfact> 0.26830897E+01</totfact>
</mgrwt>
</event>
<event>
 4    2  0.3388003E-007  0.6714861E+03  0.7818608E-02  0.1014619E+00
         -2   -1    0    0    0  501 -0.00000000000E+00  0.00000000000E+00  0.40790858798E+03  0.40790858799E+03  0.25500000000E-02 0.  1.
          2   -1    0    0  501    0  0.00000000000E+00 -0.00000000000E+00 -0.23504366297E+04  0.23504366297E+04  0.25500000000E-02 0. -1.
    8880023    1    1    2    0    0  0.12179729456E+03 -0.47420900133E+02  0.12332673743E+03  0.68271737429E+03  0.65864270000E+03 0.  1.
    8880022    1    1    2    0    0 -0.12179729456E+03  0.47420900133E+02 -0.20658547791E+04  0.20756278434E+04  0.15294330000E+03 0.  0.
<mgrwt>
<rscale>  0 0.49679370E+03</rscale>
<asrwt>0</asrwt>
<pdfrwt beam="1">  1        2 0.36160563E+00 0.67148606E+03</pdfrwt>
<pdfrwt beam="2">  1       -2 0.62755169E-01 0.67148606E+03</pdfrwt>
<totfact> 0.10573691E+01</totfact>
</mgrwt>
</event>
<event>
 4    2  0.3388003E-007  0.6996019E+03  0.7818608E-02  0.9998857E-01
         -2   -1    0    0    0  501 -0.00000000000E+00  0.00000000000E+00  0.58350919371E+03  0.58350919372E+03  0.25500000000E-02 0.  1.
          2   -1    0    0  501    0  0.00000000000E+00 -0.00000000000E+00 -0.76075931995E+03  0.76075931996E+03  0.25500000000E-02 0. -1.
    8880023    1    1    2    0    0 -0.21367784591E+03 -0.99871611937E+02  0.32290570313E+03  0.77052635262E+03  0.65864270000E+03 0.  0.
    8880022    1    1    2    0    0  0.21367784591E+03  0.99871611937E+02 -0.50015582937E+03  0.57374216106E+03  0.15294330000E+03 0.  0.
<mgrwt>
<rscale>  0 0.55700391E+03</rscale>
<asrwt>0</asrwt>
<pdfrwt beam="1">  1        2 0.11703990E+00 0.69960186E+03</pdfrwt>
<pdfrwt beam="2">  1       -2 0.89770645E-01 0.69960186E+03</pdfrwt>
<totfact> 0.39833257E+01</totfact>
</mgrwt>
</event>
<event>
 4    2  0.3388003E-007  0.8074137E+03  0.7818608E-02  0.9694990E-01
         -2   -1    0    0    0  501 -0.00000000000E+00  0.00000000000E+00  0.58555002341E+03  0.58555002342E+03  0.25500000000E-02 0.  1.
          2   -1    0    0  501    0  0.00000000000E+00 -0.00000000000E+00 -0.16079098066E+04  0.16079098066E+04  0.25500000000E-02 0. -1.
    8880023    1    1    2    0    0 -0.84911980956E+02 -0.45923479257E+03  0.23711233327E+03  0.84151001424E+03  0.65864270000E+03 0.  0.
    8880022    1    1    2    0    0  0.84911980956E+02  0.45923479257E+03 -0.12594721165E+04  0.13519498158E+04  0.15294330000E+03 0.  0.
<mgrwt>
<rscale>  0 0.71315895E+03</rscale>
<asrwt>0</asrwt>
<pdfrwt beam="1">  1        2 0.24737074E+00 0.80741368E+03</pdfrwt>
<pdfrwt beam="2">  1       -2 0.90084620E-01 0.80741368E+03</pdfrwt>
<totfact> 0.11860689E+01</totfact>
</mgrwt>
</event>
<event>
 4    2  0.3388003E-007  0.8298037E+03  0.7818608E-02  0.9649715E-01
          2   -1    0    0  501    0  0.00000000000E+00  0.00000000000E+00  0.31139546019E+04  0.31139546019E+04  0.25500000000E-02 0. -1.
         -2   -1    0    0    0  501 -0.00000000000E+00 -0.00000000000E+00 -0.48299689612E+03  0.48299689613E+03  0.25500000000E-02 0.  1.
    8880023    1    1    2    0    0 -0.27428936870E+03  0.42370891761E+03 -0.81406781992E+02  0.83378724808E+03  0.65864270000E+03 0.  1.
    8880022    1    1    2    0    0  0.27428936870E+03 -0.42370891761E+03  0.27123644878E+04  0.27631642500E+04  0.15294330000E+03 0.  0.
<mgrwt>
<rscale>  0 0.74091345E+03</rscale>
<asrwt>0</asrwt>
<pdfrwt beam="1">  1        2 0.47906993E+00 0.82980366E+03</pdfrwt>
<pdfrwt beam="2">  1       -2 0.74307217E-01 0.82980366E+03</pdfrwt>
<totfact> 0.25343407E+00</totfact>
</mgrwt>
</event>
<event>
 4    2  0.3388003E-007  0.6612529E+03  0.7818608E-02  0.1022908E+00
         -2   -1    0    0    0  501 -0.00000000000E+00  0.00000000000E+00  0.10391052053E+03  0.10391052056E+03  0.25500000000E-02 0.  1.
          2   -1    0    0  501    0  0.00000000000E+00 -0.00000000000E+00 -0.17026706821E+04  0.17026706821E+04  0.25500000000E-02 0. -1.
    8880023    1    1    2    0    0  0.38150001020E+02  0.44607096057E+02 -0.11207937085E+04  0.13013200832E+04  0.65864270000E+03 0.  1.
    8880022    1    1    2    0    0 -0.38150001020E+02 -0.44607096057E+02 -0.47796645306E+03  0.50526111949E+03  0.15294330000E+03 0.  0.
<mgrwt>
<rscale>  0 0.46651669E+03</rscale>
<asrwt>0</asrwt>
<pdfrwt beam="1">  1        2 0.26194931E+00 0.66125292E+03</pdfrwt>
<pdfrwt beam="2">  1       -2 0.15986235E-01 0.66125292E+03</pdfrwt>
<totfact> 0.31454970E+02</totfact>
</mgrwt>
</event>
<event>
 4    2  0.3388003E-007  0.1934810E+04  0.7818608E-02  0.8651416E-01
         -2   -1    0    0    0  501 -0.00000000000E+00  0.00000000000E+00  0.91245045459E+03  0.91245045460E+03  0.25500000000E-02 0.  1.
          2   -1    0    0  501    0  0.00000000000E+00 -0.00000000000E+00 -0.45834632692E+04  0.45834632692E+04  0.25500000000E-02 0. -1.
    8880023    1    1    2    0    0 -0.55311480118E+03 -0.17331307118E+04 -0.29608927117E+04  0.35370006933E+04  0.65864270000E+03 0.  0.
    8880022    1    1    2    0    0  0.55311480118E+03  0.17331307118E+04 -0.71012010286E+03  0.19589130305E+04  0.15294330000E+03 0.  0.
<mgrwt>
<rscale>  0 0.19069277E+04</rscale>
<asrwt>0</asrwt>
<pdfrwt beam="1">  1        2 0.70514819E+00 0.19348096E+04</pdfrwt>
<pdfrwt beam="2">  1       -2 0.14037700E+00 0.19348096E+04</pdfrwt>
<totfact> 0.33297209E-02</totfact>
</mgrwt>
</event>
<event>
 4    2  0.3388003E-007  0.6648745E+03  0.7818608E-02  0.1019639E+00
          2   -1    0    0  501    0  0.00000000000E+00  0.00000000000E+00  0.84193557726E+03  0.84193557726E+03  0.25500000000E-02 0. -1.
         -2   -1    0    0    0  501 -0.00000000000E+00 -0.00000000000E+00 -0.95022216880E+03  0.95022216880E+03  0.25500000000E-02 0.  1.
    8880023    1    1    2    0    0 -0.54312041495E+02  0.72787708948E+02 -0.82164503739E+03  0.10569572471E+04  0.65864270000E+03 0.  1.
    8880022    1    1    2    0    0  0.54312041495E+02 -0.72787708948E+02  0.71335844585E+03  0.73520049898E+03  0.15294330000E+03 0.  0.
<mgrwt>
<rscale>  0 0.47817123E+03</rscale>
<asrwt>0</asrwt>
<pdfrwt beam="1">  1        2 0.12952855E+00 0.66487447E+03</pdfrwt>
<pdfrwt beam="2">  1       -2 0.14618803E+00 0.66487447E+03</pdfrwt>
<totfact> 0.10589239E+01</totfact>
</mgrwt>
</event>
<event>
 4    2  0.3388003E-007  0.7582723E+03  0.7818608E-02  0.9809601E-01
         -2   -1    0    0    0  501 -0.00000000000E+00  0.00000000000E+00  0.18559178080E+03  0.18559178082E+03  0.25500000000E-02 0.  1.
          2   -1    0    0  501    0  0.00000000000E+00 -0.00000000000E+00 -0.20015320407E+04  0.20015320407E+04  0.25500000000E-02 0. -1.
    8880023    1    1    2    0    0 -0.27937063288E+03  0.25123438225E+03 -0.84777813431E+03  0.11374113753E+04  0.65864270000E+03 0.  0.
    8880022    1    1    2    0    0  0.27937063288E+03 -0.25123438225E+03 -0.96816212558E+03  0.10497124462E+04  0.15294330000E+03 0.  0.
<mgrwt>
<rscale>  0 0.64849834E+03</rscale>
<asrwt>0</asrwt>
<pdfrwt beam="1">  1        2 0.30792799E+00 0.75827229E+03</pdfrwt>
<pdfrwt beam="2">  1       -2 0.28552583E-01 0.75827229E+03</pdfrwt>
<totfact> 0.76932819E+01</totfact>
</mgrwt>
</event>
<event>
 4    2  0.3388003E-007  0.7357917E+03  0.7818608E-02  0.9872379E-01
          2   -1    0    0  501    0  0.00000000000E+00  0.00000000000E+00  0.31784154866E+04  0.31784154866E+04  0.25500000000E-02 0. -1.
         -2   -1    0    0    0  501 -0.00000000000E+00 -0.00000000000E+00 -0.22005975664E+03  0.22005975665E+03  0.25500000000E-02 0.  1.
    8880023    1    1    2    0    0 -0.12917440902E+03 -0.30148497318E+03  0.44647120412E+03  0.86065437858E+03  0.65864270000E+03 0.  0.
    8880022    1    1    2    0    0  0.12917440902E+03  0.30148497318E+03  0.25118845259E+04  0.25378208647E+04  0.15294330000E+03 0.  0.
<mgrwt>
<rscale>  0 0.61618767E+03</rscale>
<asrwt>0</asrwt>
<pdfrwt beam="1">  1        2 0.48898695E+00 0.73579170E+03</pdfrwt>
<pdfrwt beam="2">  1       -2 0.33855351E-01 0.73579170E+03</pdfrwt>
<totfact> 0.11705356E+01</totfact>
</mgrwt>
</event>
<event>
 4    2  0.3388003E-007  0.9130861E+03  0.7818608E-02  0.9505342E-01
         -2   -1    0    0    0  501 -0.00000000000E+00  0.00000000000E+00  0.42304149194E+03  0.42304149194E+03  0.25500000000E-02 0.  1.
          2   -1    0    0  501    0  0.00000000000E+00 -0.00000000000E+00 -0.23946921048E+04  0.23946921048E+04  0.25500000000E-02 0. -1.
    8880023    1    1    2    0    0 -0.76112230327E+02 -0.62779213160E+03 -0.20601539186E+03  0.93603877059E+03  0.65864270000E+03 0.  0.
    8880022    1    1    2    0    0  0.76112230327E+02  0.62779213160E+03 -0.17656352210E+04  0.18816948262E+04  0.15294330000E+03 0.  0.
<mgrwt>
<rscale>  0 0.83891087E+03</rscale>
<asrwt>0</asrwt>
<pdfrwt beam="1">  1        2 0.36841416E+00 0.91308611E+03</pdfrwt>
<pdfrwt beam="2">  1       -2 0.65083308E-01 0.91308611E+03</pdfrwt>
<totfact> 0.88971662E+00</totfact>
</mgrwt>
</event>
<event>
 4    2  0.3388003E-007  0.1345062E+04  0.7818608E-02  0.9027591E-01
         -2   -1    0    0    0  501 -0.00000000000E+00  0.00000000000E+00  0.12998104673E+04  0.12998104673E+04  0.25500000000E-02 0.  1.
          2   -1    0    0  501    0  0.00000000000E+00 -0.00000000000E+00 -0.18673488371E+04  0.18673488371E+04  0.25500000000E-02 0. -1.
    8880023    1    1    2    0    0 -0.10715399640E+04  0.47663750626E+03 -0.12204323365E+04  0.18162176359E+04  0.65864270000E+03 0.  0.
    8880022    1    1    2    0    0  0.10715399640E+04 -0.47663750626E+03  0.65289396673E+03  0.13509416685E+04  0.15294330000E+03 0.  0.
<mgrwt>
<rscale>  0 0.13024921E+04</rscale>
<asrwt>0</asrwt>
<pdfrwt beam="1">  1        2 0.28728444E+00 0.13450619E+04</pdfrwt>
<pdfrwt beam="2">  1       -2 0.19997084E+00 0.13450619E+04</pdfrwt>
<totfact> 0.10057955E+00</totfact>
</mgrwt>
</event>
<event>
 4    2  0.3388003E-007  0.8031539E+03  0.7818608E-02  0.9704018E-01
          2   -1    0    0  501    0  0.00000000000E+00  0.00000000000E+00  0.16413429126E+04  0.16413429126E+04  0.25500000000E-02 0. -1.
         -2   -1    0    0    0  501 -0.00000000000E+00 -0.00000000000E+00 -0.26740112775E+03  0.26740112776E+03  0.25500000000E-02 0.  1.
    8880023    1    1    2    0    0  0.41086849364E+03  0.20599270409E+03  0.62892061148E+03  0.10200966891E+04  0.65864270000E+03 0.  0.
    8880022    1    1    2    0    0 -0.41086849364E+03 -0.20599270409E+03  0.74502117337E+03  0.88864735131E+03  0.15294330000E+03 0.  0.
<mgrwt>
<rscale>  0 0.70778076E+03</rscale>
<asrwt>0</asrwt>
<pdfrwt beam="1">  1        2 0.25251429E+00 0.80315386E+03</pdfrwt>
<pdfrwt beam="2">  1       -2 0.41138635E-01 0.80315386E+03</pdfrwt>
<totfact> 0.60210185E+01</totfact>
</mgrwt>
</event>
<event>
 4    2  0.3388003E-007  0.6917897E+03  0.7818608E-02  0.1003313E+00
         -2   -1    0    0    0  501 -0.00000000000E+00  0.00000000000E+00  0.81589416608E+03  0.81589416608E+03  0.25500000000E-02 0.  1.
          2   -1    0    0  501    0  0.00000000000E+00 -0.00000000000E+00 -0.12475805635E+04  0.12475805635E+04  0.25500000000E-02 0. -1.
    8880023    1    1    2    0    0  0.94013256974E+02 -0.18953704918E+03  0.65089418944E+03  0.94986116754E+03  0.65864270000E+03 0.  1.
    8880022    1    1    2    0    0 -0.94013256974E+02  0.18953704918E+03 -0.10825805869E+04  0.11136135620E+04  0.15294330000E+03 0.  0.
<mgrwt>
<rscale>  0 0.54220977E+03</rscale>
<asrwt>0</asrwt>
<pdfrwt beam="1">  1        2 0.19193547E+00 0.69178970E+03</pdfrwt>
<pdfrwt beam="2">  1       -2 0.12552218E+00 0.69178970E+03</pdfrwt>
<totfact> 0.86634500E+00</totfact>
</mgrwt>
</event>
<event>
 4    2  0.3388003E-007  0.1057327E+04  0.7818608E-02  0.9310125E-01
          2   -1    0    0  501    0  0.00000000000E+00  0.00000000000E+00  0.42183527023E+04  0.42183527023E+04  0.25500000000E-02 0. -1.
         -2   -1    0    0    0  501 -0.00000000000E+00 -0.00000000000E+00 -0.41365391701E+03  0.41365391702E+03  0.25500000000E-02 0.  1.
    8880023    1    1    2    0    0 -0.72130182478E+03  0.40478760017E+03  0.40899339198E+03  0.11336732883E+04  0.65864270000E+03 0.  0.
    8880022    1    1    2    0    0  0.72130182478E+03 -0.40478760017E+03  0.33957053933E+04  0.34983333310E+04  0.15294330000E+03 0.  0.
<mgrwt>
<rscale>  0 0.99856027E+03</rscale>
<asrwt>0</asrwt>
<pdfrwt beam="1">  1        2 0.64897733E+00 0.10573266E+04</pdfrwt>
<pdfrwt beam="2">  1       -2 0.63639065E-01 0.10573266E+04</pdfrwt>
<totfact> 0.53834937E-01</totfact>
</mgrwt>
</event>
<event>
 4    2  0.3388003E-007  0.6642336E+03  0.7818608E-02  0.1020185E+00
          2   -1    0    0  501    0  0.00000000000E+00  0.00000000000E+00  0.59457130281E+03  0.59457130282E+03  0.25500000000E-02 0. -1.
         -2   -1    0    0    0  501 -0.00000000000E+00 -0.00000000000E+00 -0.13734014788E+04  0.13734014788E+04  0.25500000000E-02 0.  1.
    8880023    1    1    2    0    0  0.11762719216E+01  0.85992104184E+02 -0.12772095139E+04  0.14396077154E+04  0.65864270000E+03 0.  1.
    8880022    1    1    2    0    0 -0.11762719216E+01 -0.85992104184E+02  0.49837933797E+03  0.52836506615E+03  0.15294330000E+03 0.  0.
<mgrwt>
<rscale>  0 0.47619818E+03</rscale>
<asrwt>0</asrwt>
<pdfrwt beam="1">  1        2 0.91472508E-01 0.66423357E+03</pdfrwt>
<pdfrwt beam="2">  1       -2 0.21129253E+00 0.66423357E+03</pdfrwt>
<totfact> 0.58223962E+00</totfact>
</mgrwt>
</event>
<event>
 4    2  0.3388003E-007  0.6960537E+03  0.7818608E-02  0.1001398E+00
          2   -1    0    0  501    0  0.00000000000E+00  0.00000000000E+00  0.10291515250E+04  0.10291515250E+04  0.25500000000E-02 0. -1.
         -2   -1    0    0    0  501 -0.00000000000E+00 -0.00000000000E+00 -0.12543033296E+04  0.12543033296E+04  0.25500000000E-02 0.  1.
    8880023    1    1    2    0    0  0.16591259276E+03  0.15216277377E+03 -0.11362918468E+04  0.13325351273E+04  0.65864270000E+03 0.  1.
    8880022    1    1    2    0    0 -0.16591259276E+03 -0.15216277377E+03  0.91114004223E+03  0.95091972728E+03  0.15294330000E+03 0.  0.
<mgrwt>
<rscale>  0 0.55041329E+03</rscale>
<asrwt>0</asrwt>
<pdfrwt beam="1">  1        2 0.15833100E+00 0.69605366E+03</pdfrwt>
<pdfrwt beam="2">  1       -2 0.19296974E+00 0.69605366E+03</pdfrwt>
<totfact> 0.36868876E+00</totfact>
</mgrwt>
</event>
<event>
 4    2  0.3388003E-007  0.1051820E+04  0.7818608E-02  0.9316696E-01
         -2   -1    0    0    0  501 -0.00000000000E+00  0.00000000000E+00  0.55498715148E+03  0.55498715149E+03  0.25500000000E-02 0.  1.
          2   -1    0    0  501    0  0.00000000000E+00 -0.00000000000E+00 -0.20720484020E+04  0.20720484020E+04  0.25500000000E-02 0. -1.
    8880023    1    1    2    0    0 -0.79434242296E+03 -0.20380361106E+03 -0.14483714820E+04  0.17900016628E+04  0.65864270000E+03 0.  0.
    8880022    1    1    2    0    0  0.79434242296E+03  0.20380361106E+03 -0.68689768522E+02  0.83703389066E+03  0.15294330000E+03 0.  0.
<mgrwt>
<rscale>  0 0.99260191E+03</rscale>
<asrwt>0</asrwt>
<pdfrwt beam="1">  1        2 0.31877667E+00 0.10518203E+04</pdfrwt>
<pdfrwt beam="2">  1       -2 0.85382639E-01 0.10518203E+04</pdfrwt>
<totfact> 0.72404229E+00</totfact>
</mgrwt>
</event>
<event>
 4    2  0.3388003E-007  0.7537712E+03  0.7818608E-02  0.9821508E-01
         -2   -1    0    0    0  501 -0.00000000000E+00  0.00000000000E+00  0.45973472517E+03  0.45973472518E+03  0.25500000000E-02 0.  1.
          2   -1    0    0  501    0  0.00000000000E+00 -0.00000000000E+00 -0.26992778692E+04  0.26992778692E+04  0.25500000000E-02 0. -1.
    8880023    1    1    2    0    0  0.35389276551E+03  0.95502854250E+02  0.12262950112E+03  0.76368127217E+03  0.65864270000E+03 0.  1.
    8880022    1    1    2    0    0 -0.35389276551E+03 -0.95502854250E+02 -0.23621726452E+04  0.23953313222E+04  0.15294330000E+03 0.  0.
<mgrwt>
<rscale>  0 0.64220949E+03</rscale>
<asrwt>0</asrwt>
<pdfrwt beam="1">  1        2 0.41527351E+00 0.75377125E+03</pdfrwt>
<pdfrwt beam="2">  1       -2 0.70728420E-01 0.75377125E+03</pdfrwt>
<totfact> 0.50976438E+00</totfact>
</mgrwt>
</event>
<event>
 4    2  0.3388003E-007  0.1047914E+04  0.7818608E-02  0.9321393E-01
         -2   -1    0    0    0  501 -0.00000000000E+00  0.00000000000E+00  0.14806435846E+04  0.14806435846E+04  0.25500000000E-02 0.  1.
          2   -1    0    0  501    0  0.00000000000E+00 -0.00000000000E+00 -0.10450669075E+04  0.10450669075E+04  0.25500000000E-02 0. -1.
    8880023    1    1    2    0    0  0.79956655883E+03  0.15813858522E+03 -0.59331831996E+03  0.12042222923E+04  0.65864270000E+03 0. -1.
    8880022    1    1    2    0    0 -0.79956655883E+03 -0.15813858522E+03  0.10288949971E+04  0.13214881998E+04  0.15294330000E+03 0.  0.
<mgrwt>
<rscale>  0 0.98837041E+03</rscale>
<asrwt>0</asrwt>
<pdfrwt beam="1">  1        2 0.16077953E+00 0.10479145E+04</pdfrwt>
<pdfrwt beam="2">  1       -2 0.22779132E+00 0.10479145E+04</pdfrwt>
<totfact> 0.20574886E+00</totfact>
</mgrwt>
</event>
<event>
 4    2  0.3388003E-007  0.8757991E+03  0.7818608E-02  0.9566055E-01
         -2   -1    0    0    0  501 -0.00000000000E+00  0.00000000000E+00  0.64039429533E+03  0.64039429533E+03  0.25500000000E-02 0.  1.
          2   -1    0    0  501    0  0.00000000000E+00 -0.00000000000E+00 -0.16312683115E+04  0.16312683115E+04  0.25500000000E-02 0. -1.
    8880023    1    1    2    0    0 -0.52354712393E+03  0.24313018964E+03  0.23611747084E+03  0.90706975828E+03  0.65864270000E+03 0.  1.
    8880022    1    1    2    0    0  0.52354712393E+03 -0.24313018964E+03 -0.12269914870E+04  0.13645928485E+04  0.15294330000E+03 0.  0.
<mgrwt>
<rscale>  0 0.79584206E+03</rscale>
<asrwt>0</asrwt>
<pdfrwt beam="1">  1        2 0.25096435E+00 0.87579911E+03</pdfrwt>
<pdfrwt beam="2">  1       -2 0.98522200E-01 0.87579911E+03</pdfrwt>
<totfact> 0.92616418E+00</totfact>
</mgrwt>
</event>
<event>
 4    2  0.3388003E-007  0.6612902E+03  0.7818608E-02  0.1022872E+00
         -2   -1    0    0    0  501 -0.00000000000E+00  0.00000000000E+00  0.27348087807E+03  0.27348087808E+03  0.25500000000E-02 0.  1.
          2   -1    0    0  501    0  0.00000000000E+00 -0.00000000000E+00 -0.11725191643E+04  0.11725191643E+04  0.25500000000E-02 0. -1.
    8880023    1    1    2    0    0 -0.23440124448E+01 -0.59068196555E+02 -0.14849942025E+03  0.67775868148E+03  0.65864270000E+03 0.  1.
    8880022    1    1    2    0    0  0.23440124448E+01  0.59068196555E+02 -0.75053886601E+03  0.76824136093E+03  0.15294330000E+03 0.  0.
<mgrwt>
<rscale>  0 0.46664353E+03</rscale>
<asrwt>0</asrwt>
<pdfrwt beam="1">  1        2 0.18038756E+00 0.66129022E+03</pdfrwt>
<pdfrwt beam="2">  1       -2 0.42073982E-01 0.66129022E+03</pdfrwt>
<totfact> 0.10766077E+02</totfact>
</mgrwt>
</event>
<event>
 4    2  0.3388003E-007  0.6743822E+03  0.7818608E-02  0.1012699E+00
          2   -1    0    0  501    0  0.00000000000E+00  0.00000000000E+00  0.96431099944E+03  0.96431099945E+03  0.25500000000E-02 0. -1.
         -2   -1    0    0    0  501 -0.00000000000E+00 -0.00000000000E+00 -0.38934869382E+03  0.38934869383E+03  0.25500000000E-02 0.  1.
    8880023    1    1    2    0    0  0.14294723232E+03 -0.23392162650E+02 -0.67303300523E+02  0.67773228123E+03  0.65864270000E+03 0.  1.
    8880022    1    1    2    0    0 -0.14294723232E+03  0.23392162650E+02  0.64226560615E+03  0.67592741205E+03  0.15294330000E+03 0.  0.
<mgrwt>
<rscale>  0 0.50416084E+03</rscale>
<asrwt>0</asrwt>
<pdfrwt beam="1">  1        2 0.14835554E+00 0.67438217E+03</pdfrwt>
<pdfrwt beam="2">  1       -2 0.59899800E-01 0.67438217E+03</pdfrwt>
<totfact> 0.70492118E+01</totfact>
</mgrwt>
</event>
<event>
 4    2  0.3388003E-007  0.6597132E+03  0.7818608E-02  0.1024452E+00
          2   -1    0    0  501    0  0.00000000000E+00  0.00000000000E+00  0.48713884621E+03  0.48713884621E+03  0.25500000000E-02 0. -1.
         -2   -1    0    0    0  501 -0.00000000000E+00 -0.00000000000E+00 -0.18937813166E+04  0.18937813166E+04  0.25500000000E-02 0.  1.
    8880023    1    1    2    0    0 -0.33219741260E+02  0.17544054086E+02 -0.18214398750E+04  0.19372312122E+04  0.65864270000E+03 0.  1.
    8880022    1    1    2    0    0  0.33219741260E+02 -0.17544054086E+02  0.41479740459E+03  0.44368895063E+03  0.15294330000E+03 0.  0.
<mgrwt>
<rscale>  0 0.46113642E+03</rscale>
<asrwt>0</asrwt>
<pdfrwt beam="1">  1        2 0.74944439E-01 0.65971323E+03</pdfrwt>
<pdfrwt beam="2">  1       -2 0.29135097E+00 0.65971323E+03</pdfrwt>
<totfact> 0.24030258E+00</totfact>
</mgrwt>
</event>
<event>
 4    2  0.3388003E-007  0.8075252E+03  0.7818608E-02  0.9694755E-01
          2   -1    0    0  501    0  0.00000000000E+00  0.00000000000E+00  0.11905532605E+04  0.11905532605E+04  0.25500000000E-02 0. -1.
         -2   -1    0    0    0  501 -0.00000000000E+00 -0.00000000000E+00 -0.59156077396E+03  0.59156077397E+03  0.25500000000E-02 0.  1.
    8880023    1    1    2    0    0  0.46320354508E+03  0.61066870634E+02 -0.21097509774E+03  0.83463008872E+03  0.65864270000E+03 0.  1.
    8880022    1    1    2    0    0 -0.46320354508E+03 -0.61066870634E+02  0.80996758433E+03  0.94748394579E+03  0.15294330000E+03 0.  0.
<mgrwt>
<rscale>  0 0.71329925E+03</rscale>
<asrwt>0</asrwt>
<pdfrwt beam="1">  1        2 0.18316204E+00 0.80752517E+03</pdfrwt>
<pdfrwt beam="2">  1       -2 0.91009351E-01 0.80752517E+03</pdfrwt>
<totfact> 0.20014362E+01</totfact>
</mgrwt>
</event>
<event>
 4    2  0.3388003E-007  0.6628515E+03  0.7818608E-02  0.1021408E+00
         -2   -1    0    0    0  501 -0.00000000000E+00  0.00000000000E+00  0.15507804497E+03  0.15507804499E+03  0.25500000000E-02 0.  1.
          2   -1    0    0  501    0  0.00000000000E+00 -0.00000000000E+00 -0.29577210176E+04  0.29577210176E+04  0.25500000000E-02 0. -1.
    8880023    1    1    2    0    0  0.55882715246E+02 -0.49386404517E+02 -0.57158231392E+03  0.87525907174E+03  0.65864270000E+03 0.  1.
    8880022    1    1    2    0    0 -0.55882715246E+02  0.49386404517E+02 -0.22310606588E+04  0.22375399909E+04  0.15294330000E+03 0.  0.
<mgrwt>
<rscale>  0 0.47181843E+03</rscale>
<asrwt>0</asrwt>
<pdfrwt beam="1">  1        2 0.45503396E+00 0.66285149E+03</pdfrwt>
<pdfrwt beam="2">  1       -2 0.23858163E-01 0.66285149E+03</pdfrwt>
<totfact> 0.30915539E+01</totfact>
</mgrwt>
</event>
<event>
 4    2  0.3388003E-007  0.8377612E+03  0.7818608E-02  0.9634416E-01
         -2   -1    0    0    0  501 -0.00000000000E+00  0.00000000000E+00  0.29347056177E+03  0.29347056178E+03  0.25500000000E-02 0.  1.
          2   -1    0    0  501    0  0.00000000000E+00 -0.00000000000E+00 -0.22364951933E+04  0.22364951933E+04  0.25500000000E-02 0. -1.
    8880023    1    1    2    0    0 -0.66933199279E+02 -0.51337473954E+03 -0.46879961157E+03  0.96000883248E+03  0.65864270000E+03 0.  1.
    8880022    1    1    2    0    0  0.66933199279E+02  0.51337473954E+03 -0.14742250199E+04  0.15699569226E+04  0.15294330000E+03 0.  0.
<mgrwt>
<rscale>  0 0.75059576E+03</rscale>
<asrwt>0</asrwt>
<pdfrwt beam="1">  1        2 0.34407617E+00 0.83776123E+03</pdfrwt>
<pdfrwt beam="2">  1       -2 0.45149319E-01 0.83776123E+03</pdfrwt>
<totfact> 0.23518865E+01</totfact>
</mgrwt>
</event>
<event>
 4    2  0.3388003E-007  0.6675185E+03  0.7818608E-02  0.1017508E+00
         -2   -1    0    0    0  501 -0.00000000000E+00  0.00000000000E+00  0.15935053730E+03  0.15935053732E+03  0.25500000000E-02 0.  1.
          2   -1    0    0  501    0  0.00000000000E+00 -0.00000000000E+00 -0.11492837065E+04  0.11492837065E+04  0.25500000000E-02 0. -1.
    8880023    1    1    2    0    0  0.69339770946E+02  0.83443001225E+02 -0.79655234053E+03  0.10392673264E+04  0.65864270000E+03 0.  0.
    8880022    1    1    2    0    0 -0.69339770946E+02 -0.83443001225E+02 -0.19338082869E+03  0.26936691744E+03  0.15294330000E+03 0. -1.
<mgrwt>
<rscale>  0 0.48596756E+03</rscale>
<asrwt>0</asrwt>
<pdfrwt beam="1">  1        2 0.17681287E+00 0.66751850E+03</pdfrwt>
<pdfrwt beam="2">  1       -2 0.24515468E-01 0.66751850E+03</pdfrwt>
<totfact> 0.30596297E+02</totfact>
</mgrwt>
</event>
<event>
 4    2  0.3388003E-007  0.8140176E+03  0.7818608E-02  0.9681268E-01
         -2   -1    0    0    0  501 -0.00000000000E+00  0.00000000000E+00  0.78872944615E+03  0.78872944615E+03  0.25500000000E-02 0.  1.
          2   -1    0    0  501    0  0.00000000000E+00 -0.00000000000E+00 -0.89176532691E+03  0.89176532691E+03  0.25500000000E-02 0. -1.
    8880023    1    1    2    0    0 -0.45054031390E+03  0.16071049496E+03  0.45272690899E+03  0.93144312657E+03  0.65864270000E+03 0.  0.
    8880022    1    1    2    0    0  0.45054031390E+03 -0.16071049496E+03 -0.55576278974E+03  0.74905164650E+03  0.15294330000E+03 0.  0.
<mgrwt>
<rscale>  0 0.72143098E+03</rscale>
<asrwt>0</asrwt>
<pdfrwt beam="1">  1        2 0.13719467E+00 0.81401759E+03</pdfrwt>
<pdfrwt beam="2">  1       -2 0.12134299E+00 0.81401759E+03</pdfrwt>
<totfact> 0.15480014E+01</totfact>
</mgrwt>
</event>
<event>
 4    2  0.3388003E-007  0.6993956E+03  0.7818608E-02  0.9999718E-01
         -2   -1    0    0    0  501 -0.00000000000E+00  0.00000000000E+00  0.82236085871E+03  0.82236085872E+03  0.25500000000E-02 0.  1.
          2   -1    0    0  501    0  0.00000000000E+00 -0.00000000000E+00 -0.15657190177E+04  0.15657190177E+04  0.25500000000E-02 0. -1.
    8880023    1    1    2    0    0 -0.64913891869E+02  0.22611970773E+03  0.65718065655E+03  0.95970857930E+03  0.65864270000E+03 0.  1.
    8880022    1    1    2    0    0  0.64913891869E+02 -0.22611970773E+03 -0.14005388155E+04  0.14283712971E+04  0.15294330000E+03 0.  0.
<mgrwt>
<rscale>  0 0.55662606E+03</rscale>
<asrwt>0</asrwt>
<pdfrwt beam="1">  1        2 0.24087985E+00 0.69939555E+03</pdfrwt>
<pdfrwt beam="2">  1       -2 0.12651706E+00 0.69939555E+03</pdfrwt>
<totfact> 0.56105057E+00</totfact>
</mgrwt>
</event>
<event>
 4    2  0.3388003E-007  0.8410799E+03  0.7818608E-02  0.9628147E-01
         -2   -1    0    0    0  501 -0.00000000000E+00  0.00000000000E+00  0.24631735034E+03  0.24631735035E+03  0.25500000000E-02 0.  1.
          2   -1    0    0  501    0  0.00000000000E+00 -0.00000000000E+00 -0.23986393376E+04  0.23986393376E+04  0.25500000000E-02 0. -1.
    8880023    1    1    2    0    0  0.52156216393E+03 -0.39725653880E+02 -0.70173232314E+03  0.10953737618E+04  0.65864270000E+03 0.  1.
    8880022    1    1    2    0    0 -0.52156216393E+03  0.39725653880E+02 -0.14505896642E+04  0.15495829262E+04  0.15294330000E+03 0. -1.
<mgrwt>
<rscale>  0 0.75460891E+03</rscale>
<asrwt>0</asrwt>
<pdfrwt beam="1">  1        2 0.36902142E+00 0.84107992E+03</pdfrwt>
<pdfrwt beam="2">  1       -2 0.37894978E-01 0.84107992E+03</pdfrwt>
<totfact> 0.26930424E+01</totfact>
</mgrwt>
</event>
<event>
 4    2  0.3388003E-007  0.7837237E+03  0.7818608E-02  0.9747162E-01
          2   -1    0    0  501    0  0.00000000000E+00  0.00000000000E+00  0.75424352478E+03  0.75424352478E+03  0.25500000000E-02 0. -1.
         -2   -1    0    0    0  501 -0.00000000000E+00 -0.00000000000E+00 -0.18418203574E+04  0.18418203574E+04  0.25500000000E-02 0.  1.
    8880023    1    1    2    0    0  0.58960867048E+02 -0.42063782939E+03 -0.16784848057E+04  0.18524400170E+04  0.65864270000E+03 0.  0.
    8880022    1    1    2    0    0 -0.58960867048E+02  0.42063782939E+03  0.59090797302E+03  0.74362386524E+03  0.15294330000E+03 0.  0.
<mgrwt>
<rscale>  0 0.68276911E+03</rscale>
<asrwt>0</asrwt>
<pdfrwt beam="1">  1        2 0.11603747E+00 0.78372366E+03</pdfrwt>
<pdfrwt beam="2">  1       -2 0.28335698E+00 0.78372366E+03</pdfrwt>
<totfact> 0.15457199E+00</totfact>
</mgrwt>
</event>
<event>
 4    2  0.3388003E-007  0.6622069E+03  0.7818608E-02  0.1022001E+00
          2   -1    0    0  501    0  0.00000000000E+00  0.00000000000E+00  0.11248918438E+04  0.11248918438E+04  0.25500000000E-02 0. -1.
         -2   -1    0    0    0  501 -0.00000000000E+00 -0.00000000000E+00 -0.74983355864E+03  0.74983355865E+03  0.25500000000E-02 0.  1.
    8880023    1    1    2    0    0 -0.48880548146E+02 -0.48150227029E+02 -0.59502507989E+03  0.89026558077E+03  0.65864270000E+03 0.  1.
    8880022    1    1    2    0    0  0.48880548146E+02  0.48150227029E+02  0.97008336503E+03  0.98445982167E+03  0.15294330000E+03 0.  0.
<mgrwt>
<rscale>  0 0.46971282E+03</rscale>
<asrwt>0</asrwt>
<pdfrwt beam="1">  1        2 0.17306028E+00 0.66220689E+03</pdfrwt>
<pdfrwt beam="2">  1       -2 0.11535901E+00 0.66220689E+03</pdfrwt>
<totfact> 0.12675049E+01</totfact>
</mgrwt>
</event>
<event>
 4    2  0.3388003E-007  0.6901084E+03  0.7818608E-02  0.1004101E+00
          2   -1    0    0  501    0  0.00000000000E+00  0.00000000000E+00  0.85811487072E+03  0.85811487072E+03  0.25500000000E-02 0. -1.
         -2   -1    0    0    0  501 -0.00000000000E+00 -0.00000000000E+00 -0.28808522505E+03  0.28808522506E+03  0.25500000000E-02 0.  1.
    8880023    1    1    2    0    0 -0.13771933123E+03 -0.15320835453E+03  0.24545223526E+03  0.73245915937E+03  0.65864270000E+03 0.  1.
    8880022    1    1    2    0    0  0.13771933123E+03  0.15320835453E+03  0.32457741041E+03  0.41374093640E+03  0.15294330000E+03 0. -1.
<mgrwt>
<rscale>  0 0.53887974E+03</rscale>
<asrwt>0</asrwt>
<pdfrwt beam="1">  1        2 0.13201767E+00 0.69010841E+03</pdfrwt>
<pdfrwt beam="2">  1       -2 0.44320804E-01 0.69010841E+03</pdfrwt>
<totfact> 0.15347480E+02</totfact>
</mgrwt>
</event>
<event>
 4    2  0.3388003E-007  0.7512565E+03  0.7818608E-02  0.9828293E-01
          2   -1    0    0  501    0  0.00000000000E+00  0.00000000000E+00  0.17918241458E+04  0.17918241458E+04  0.25500000000E-02 0. -1.
         -2   -1    0    0    0  501 -0.00000000000E+00 -0.00000000000E+00 -0.28773927145E+03  0.28773927146E+03  0.25500000000E-02 0.  1.
    8880023    1    1    2    0    0  0.34880617904E+03 -0.94394885116E+02  0.29278447652E+03  0.80629343345E+03  0.65864270000E+03 0.  1.
    8880022    1    1    2    0    0 -0.34880617904E+03  0.94394885116E+02  0.12113003978E+04  0.12732699838E+04  0.15294330000E+03 0.  0.
<mgrwt>
<rscale>  0 0.63866031E+03</rscale>
<asrwt>0</asrwt>
<pdfrwt beam="1">  1        2 0.27566525E+00 0.75125651E+03</pdfrwt>
<pdfrwt beam="2">  1       -2 0.44267580E-01 0.75125651E+03</pdfrwt>
<totfact> 0.43328891E+01</totfact>
</mgrwt>
</event>
<event>
 4    2  0.3388003E-007  0.8362365E+03  0.7818608E-02  0.9637318E-01
          2   -1    0    0  501    0  0.00000000000E+00  0.00000000000E+00  0.11585944763E+04  0.11585944763E+04  0.25500000000E-02 0. -1.
         -2   -1    0    0    0  501 -0.00000000000E+00 -0.00000000000E+00 -0.41695100394E+03  0.41695100394E+03  0.25500000000E-02 0.  1.
    8880023    1    1    2    0    0  0.35339593192E+03  0.37495668905E+03  0.33185992619E+03  0.89967906513E+03  0.65864270000E+03 0.  0.
    8880022    1    1    2    0    0 -0.35339593192E+03 -0.37495668905E+03  0.40978354620E+03  0.67586641514E+03  0.15294330000E+03 0.  0.
<mgrwt>
<rscale>  0 0.74874712E+03</rscale>
<asrwt>0</asrwt>
<pdfrwt beam="1">  1        2 0.17824530E+00 0.83623646E+03</pdfrwt>
<pdfrwt beam="2">  1       -2 0.64146310E-01 0.83623646E+03</pdfrwt>
<totfact> 0.45489297E+01</totfact>
</mgrwt>
</event>
<event>
 4    2  0.3388003E-007  0.1022201E+04  0.7818608E-02  0.9353072E-01
         -2   -1    0    0    0  501 -0.00000000000E+00  0.00000000000E+00  0.16708383142E+04  0.16708383142E+04  0.25500000000E-02 0.  1.
          2   -1    0    0  501    0  0.00000000000E+00 -0.00000000000E+00 -0.10222681269E+04  0.10222681269E+04  0.25500000000E-02 0. -1.
    8880023    1    1    2    0    0 -0.77610948496E+03  0.93476403645E+02  0.13072830179E+04  0.16594827103E+04  0.65864270000E+03 0.  1.
    8880022    1    1    2    0    0  0.77610948496E+03 -0.93476403645E+02 -0.65871283059E+03  0.10336237308E+04  0.15294330000E+03 0.  0.
<mgrwt>
<rscale>  0 0.96040394E+03</rscale>
<asrwt>0</asrwt>
<pdfrwt beam="1">  1        2 0.15727202E+00 0.10222006E+04</pdfrwt>
<pdfrwt beam="2">  1       -2 0.25705204E+00 0.10222006E+04</pdfrwt>
<totfact> 0.14103582E+00</totfact>
</mgrwt>
</event>
<event>
 4    2  0.3388003E-007  0.8102476E+03  0.7818608E-02  0.9689061E-01
         -2   -1    0    0    0  501 -0.00000000000E+00  0.00000000000E+00  0.80420580561E+03  0.80420580561E+03  0.25500000000E-02 0.  1.
          2   -1    0    0  501    0  0.00000000000E+00 -0.00000000000E+00 -0.82132521217E+03  0.82132521218E+03  0.25500000000E-02 0. -1.
    8880023    1    1    2    0    0  0.46486082255E+03  0.81212326152E+02  0.46464848545E+03  0.93402325857E+03  0.65864270000E+03 0.  1.
    8880022    1    1    2    0    0 -0.46486082255E+03 -0.81212326152E+02 -0.48176789201E+03  0.69150775921E+03  0.15294330000E+03 0.  0.
<mgrwt>
<rscale>  0 0.71671825E+03</rscale>
<asrwt>0</asrwt>
<pdfrwt beam="1">  1        2 0.12635773E+00 0.81024764E+03</pdfrwt>
<pdfrwt beam="2">  1       -2 0.12372397E+00 0.81024764E+03</pdfrwt>
<totfact> 0.16507668E+01</totfact>
</mgrwt>
</event>
<event>
 4    2  0.3388003E-007  0.6704640E+03  0.7818608E-02  0.1015332E+00
          2   -1    0    0  501    0  0.00000000000E+00  0.00000000000E+00  0.18809770365E+04  0.18809770365E+04  0.25500000000E-02 0. -1.
         -2   -1    0    0    0  501 -0.00000000000E+00 -0.00000000000E+00 -0.21441629489E+03  0.21441629491E+03  0.25500000000E-02 0.  1.
    8880023    1    1    2    0    0 -0.54240790751E+02  0.11300340945E+03  0.33549549985E+03  0.74971946127E+03  0.65864270000E+03 0.  1.
    8880022    1    1    2    0    0  0.54240790751E+02 -0.11300340945E+03  0.13310652417E+04  0.13456738701E+04  0.15294330000E+03 0.  0.
<mgrwt>
<rscale>  0 0.49409284E+03</rscale>
<asrwt>0</asrwt>
<pdfrwt beam="1">  1        2 0.28938108E+00 0.67046405E+03</pdfrwt>
<pdfrwt beam="2">  1       -2 0.32987123E-01 0.67046405E+03</pdfrwt>
<totfact> 0.69092521E+01</totfact>
</mgrwt>
</event>
<event>
 4    2  0.3388003E-007  0.8628413E+03  0.7818608E-02  0.9588529E-01
         -2   -1    0    0    0  501 -0.00000000000E+00  0.00000000000E+00  0.16416735453E+04  0.16416735453E+04  0.25500000000E-02 0.  1.
          2   -1    0    0  501    0  0.00000000000E+00 -0.00000000000E+00 -0.74385428400E+03  0.74385428400E+03  0.25500000000E-02 0. -1.
    8880023    1    1    2    0    0 -0.45884602640E+02 -0.55549928354E+03  0.13835388785E+04  0.16305443525E+04  0.65864270000E+03 0.  1.
    8880022    1    1    2    0    0  0.45884602640E+02  0.55549928354E+03 -0.48571961719E+03  0.75498347684E+03  0.15294330000E+03 0.  0.
<mgrwt>
<rscale>  0 0.78060068E+03</rscale>
<asrwt>0</asrwt>
<pdfrwt beam="1">  1        2 0.11443912E+00 0.86284127E+03</pdfrwt>
<pdfrwt beam="2">  1       -2 0.25256516E+00 0.86284127E+03</pdfrwt>
<totfact> 0.23844188E+00</totfact>
</mgrwt>
</event>
<event>
 4    2  0.3388003E-007  0.6801557E+03  0.7818608E-02  0.1009236E+00
         -2   -1    0    0    0  501 -0.00000000000E+00  0.00000000000E+00  0.25700729619E+03  0.25700729620E+03  0.25500000000E-02 0.  1.
          2   -1    0    0  501    0  0.00000000000E+00 -0.00000000000E+00 -0.29207826664E+04  0.29207826664E+04  0.25500000000E-02 0. -1.
    8880023    1    1    2    0    0 -0.15351546424E+02 -0.16901437842E+03 -0.20777047951E+03  0.71118233141E+03  0.65864270000E+03 0.  1.
    8880022    1    1    2    0    0  0.15351546424E+02  0.16901437842E+03 -0.24560048907E+04  0.24666076312E+04  0.15294330000E+03 0.  0.
<mgrwt>
<rscale>  0 0.51779513E+03</rscale>
<asrwt>0</asrwt>
<pdfrwt beam="1">  1        2 0.44935116E+00 0.68015567E+03</pdfrwt>
<pdfrwt beam="2">  1       -2 0.39539586E-01 0.68015567E+03</pdfrwt>
<totfact> 0.12664967E+01</totfact>
</mgrwt>
</event>
<event>
 4    2  0.3388003E-007  0.1376318E+04  0.7818608E-02  0.9002306E-01
         -2   -1    0    0    0  501 -0.00000000000E+00  0.00000000000E+00  0.13341757186E+04  0.13341757186E+04  0.25500000000E-02 0.  1.
          2   -1    0    0  501    0  0.00000000000E+00 -0.00000000000E+00 -0.19295845532E+04  0.19295845532E+04  0.25500000000E-02 0. -1.
    8880023    1    1    2    0    0  0.11837433442E+04 -0.24329832394E+03 -0.12687732903E+04  0.18719076494E+04  0.65864270000E+03 0.  0.
    8880022    1    1    2    0    0 -0.11837433442E+04  0.24329832394E+03  0.67336445569E+03  0.13918526224E+04  0.15294330000E+03 0.  0.
<mgrwt>
<rscale>  0 0.13349419E+04</rscale>
<asrwt>0</asrwt>
<pdfrwt beam="1">  1        2 0.29685916E+00 0.13763185E+04</pdfrwt>
<pdfrwt beam="2">  1       -2 0.20525780E+00 0.13763185E+04</pdfrwt>
<totfact> 0.85478902E-01</totfact>
</mgrwt>
</event>
<event>
 4    2  0.3388003E-007  0.7419935E+03  0.7818608E-02  0.9854178E-01
         -2   -1    0    0    0  501 -0.00000000000E+00  0.00000000000E+00  0.40050423607E+03  0.40050423608E+03  0.25500000000E-02 0.  1.
          2   -1    0    0  501    0  0.00000000000E+00 -0.00000000000E+00 -0.17671791634E+04  0.17671791634E+04  0.25500000000E-02 0. -1.
    8880023    1    1    2    0    0 -0.27050813814E+03  0.20873314023E+03  0.89349083481E+01  0.74204731350E+03  0.65864270000E+03 0.  0.
    8880022    1    1    2    0    0  0.27050813814E+03 -0.20873314023E+03 -0.13756098357E+04  0.14256360860E+04  0.15294330000E+03 0.  0.
<mgrwt>
<rscale>  0 0.62534363E+03</rscale>
<asrwt>0</asrwt>
<pdfrwt beam="1">  1        2 0.27187371E+00 0.74199352E+03</pdfrwt>
<pdfrwt beam="2">  1       -2 0.61616038E-01 0.74199352E+03</pdfrwt>
<totfact> 0.22685409E+01</totfact>
</mgrwt>
</event>
<event>
 4    2  0.3388003E-007  0.8485197E+03  0.7818608E-02  0.9614320E-01
         -2   -1    0    0    0  501 -0.00000000000E+00  0.00000000000E+00  0.39300513444E+03  0.39300513445E+03  0.25500000000E-02 0.  1.
          2   -1    0    0  501    0  0.00000000000E+00 -0.00000000000E+00 -0.14600590316E+04  0.14600590316E+04  0.25500000000E-02 0. -1.
    8880023    1    1    2    0    0  0.74012747937E+02  0.52980900851E+03 -0.28868144638E+03  0.89628268760E+03  0.65864270000E+03 0.  0.
    8880022    1    1    2    0    0 -0.74012747937E+02 -0.52980900851E+03 -0.77837245073E+03  0.95678147841E+03  0.15294330000E+03 0.  0.
<mgrwt>
<rscale>  0 0.76355584E+03</rscale>
<asrwt>0</asrwt>
<pdfrwt beam="1">  1        2 0.22462446E+00 0.84851970E+03</pdfrwt>
<pdfrwt beam="2">  1       -2 0.60462329E-01 0.84851970E+03</pdfrwt>
<totfact> 0.34481277E+01</totfact>
</mgrwt>
</event>
<event>
 4    2  0.3388003E-007  0.1090408E+04  0.7818608E-02  0.9271811E-01
          2   -1    0    0  501    0  0.00000000000E+00  0.00000000000E+00  0.10125768963E+04  0.10125768963E+04  0.25500000000E-02 0. -1.
         -2   -1    0    0    0  501 -0.00000000000E+00 -0.00000000000E+00 -0.16832202850E+04  0.16832202850E+04  0.25500000000E-02 0.  1.
    8880023    1    1    2    0    0 -0.68293377099E+03 -0.53738397795E+03 -0.12356971528E+04  0.16480102351E+04  0.65864270000E+03 0.  1.
    8880022    1    1    2    0    0  0.68293377099E+03  0.53738397795E+03  0.56505376411E+03  0.10477869462E+04  0.15294330000E+03 0.  0.
<mgrwt>
<rscale>  0 0.10341992E+04</rscale>
<asrwt>0</asrwt>
<pdfrwt beam="1">  1        2 0.15578106E+00 0.10904083E+04</pdfrwt>
<pdfrwt beam="2">  1       -2 0.25895697E+00 0.10904083E+04</pdfrwt>
<totfact> 0.13814226E+00</totfact>
</mgrwt>
</event>
<event>
 4    2  0.3388003E-007  0.7316573E+03  0.7818608E-02  0.9884951E-01
         -2   -1    0    0    0  501 -0.00000000000E+00  0.00000000000E+00  0.63259550111E+03  0.63259550111E+03  0.25500000000E-02 0.  1.
          2   -1    0    0  501    0  0.00000000000E+00 -0.00000000000E+00 -0.46595764946E+03  0.46595764946E+03  0.25500000000E-02 0. -1.
    8880023    1    1    2    0    0 -0.30281232721E+03  0.99080369979E+02  0.92981185344E+02  0.73754181733E+03  0.65864270000E+03 0. -1.
    8880022    1    1    2    0    0  0.30281232721E+03 -0.99080369979E+02  0.73656666308E+02  0.36101133324E+03  0.15294330000E+03 0.  1.
<mgrwt>
<rscale>  0 0.60996200E+03</rscale>
<asrwt>0</asrwt>
<pdfrwt beam="1">  1        2 0.71685792E-01 0.73165732E+03</pdfrwt>
<pdfrwt beam="2">  1       -2 0.97322385E-01 0.73165732E+03</pdfrwt>
<totfact> 0.59583847E+01</totfact>
</mgrwt>
</event>
<event>
 4    2  0.3388003E-007  0.7031149E+03  0.7818608E-02  0.9984517E-01
         -2   -1    0    0    0  501 -0.00000000000E+00  0.00000000000E+00  0.19343473660E+03  0.19343473661E+03  0.25500000000E-02 0.  1.
          2   -1    0    0  501    0  0.00000000000E+00 -0.00000000000E+00 -0.17636320329E+04  0.17636320329E+04  0.25500000000E-02 0. -1.
    8880023    1    1    2    0    0  0.27026553699E+02 -0.24460163527E+03 -0.15034419552E+04  0.16597313980E+04  0.65864270000E+03 0. -1.
    8880022    1    1    2    0    0 -0.27026553699E+02  0.24460163527E+03 -0.66755341114E+02  0.29733537153E+03  0.15294330000E+03 0.  0.
<mgrwt>
<rscale>  0 0.56334397E+03</rscale>
<asrwt>0</asrwt>
<pdfrwt beam="1">  1        2 0.27132799E+00 0.70311493E+03</pdfrwt>
<pdfrwt beam="2">  1       -2 0.29759191E-01 0.70311493E+03</pdfrwt>
<totfact> 0.96623271E+01</totfact>
</mgrwt>
</event>
<event>
 4    2  0.3388003E-007  0.7954009E+03  0.7818608E-02  0.9720830E-01
          2   -1    0    0  501    0  0.00000000000E+00  0.00000000000E+00  0.12336792537E+04  0.12336792537E+04  0.25500000000E-02 0. -1.
         -2   -1    0    0    0  501 -0.00000000000E+00 -0.00000000000E+00 -0.32958943861E+03  0.32958943862E+03  0.25500000000E-02 0.  1.
    8880023    1    1    2    0    0 -0.19954709244E+03  0.39878994353E+03  0.65318809896E+03  0.10292314414E+04  0.65864270000E+03 0.  0.
    8880022    1    1    2    0    0  0.19954709244E+03 -0.39878994353E+03  0.25090171613E+03  0.53403725089E+03  0.15294330000E+03 0.  1.
<mgrwt>
<rscale>  0 0.69790026E+03</rscale>
<asrwt>0</asrwt>
<pdfrwt beam="1">  1        2 0.18979681E+00 0.79540095E+03</pdfrwt>
<pdfrwt beam="2">  1       -2 0.50706067E-01 0.79540095E+03</pdfrwt>
<totfact> 0.67379370E+01</totfact>
</mgrwt>
</event>
<event>
 4    2  0.3388003E-007  0.1124182E+04  0.7818608E-02  0.9234598E-01
         -2   -1    0    0    0  501 -0.00000000000E+00  0.00000000000E+00  0.61214484556E+03  0.61214484557E+03  0.25500000000E-02 0.  1.
          2   -1    0    0  501    0  0.00000000000E+00 -0.00000000000E+00 -0.31036139830E+04  0.31036139830E+04  0.25500000000E-02 0. -1.
    8880023    1    1    2    0    0  0.89888910641E+03  0.14823598148E+03 -0.72635190648E+02  0.11265263463E+04  0.65864270000E+03 0.  0.
    8880022    1    1    2    0    0 -0.89888910641E+03 -0.14823598148E+03 -0.24188339467E+04  0.25892324822E+04  0.15294330000E+03 0.  0.
<mgrwt>
<rscale>  0 0.10703345E+04</rscale>
<asrwt>0</asrwt>
<pdfrwt beam="1">  1        2 0.47747907E+00 0.11241823E+04</pdfrwt>
<pdfrwt beam="2">  1       -2 0.94176132E-01 0.11241823E+04</pdfrwt>
<totfact> 0.14289494E+00</totfact>
</mgrwt>
</event>
<event>
 4    2  0.3388003E-007  0.7136813E+03  0.7818608E-02  0.9944577E-01
         -2   -1    0    0    0  501 -0.00000000000E+00  0.00000000000E+00  0.39728417922E+03  0.39728417923E+03  0.25500000000E-02 0.  1.
          2   -1    0    0  501    0  0.00000000000E+00 -0.00000000000E+00 -0.88986064178E+03  0.88986064178E+03  0.25500000000E-02 0. -1.
    8880023    1    1    2    0    0  0.23760140577E+03  0.13811699444E+03 -0.13203946817E+02  0.71380339216E+03  0.65864270000E+03 0. -1.
    8880022    1    1    2    0    0 -0.23760140577E+03 -0.13811699444E+03 -0.47937251574E+03  0.57334142886E+03  0.15294330000E+03 0.  0.
<mgrwt>
<rscale>  0 0.58148704E+03</rscale>
<asrwt>0</asrwt>
<pdfrwt beam="1">  1        2 0.13690164E+00 0.71368126E+03</pdfrwt>
<pdfrwt beam="2">  1       -2 0.61120643E-01 0.71368126E+03</pdfrwt>
<totfact> 0.75407868E+01</totfact>
</mgrwt>
</event>
<event>
 4    2  0.3388003E-007  0.1132136E+04  0.7818608E-02  0.9226093E-01
          2   -1    0    0  501    0  0.00000000000E+00  0.00000000000E+00  0.39310823405E+04  0.39310823405E+04  0.25500000000E-02 0. -1.
         -2   -1    0    0    0  501 -0.00000000000E+00 -0.00000000000E+00 -0.60848678929E+03  0.60848678929E+03  0.25500000000E-02 0.  1.
    8880023    1    1    2    0    0  0.59069373380E+03  0.70640074151E+03  0.34186146718E+04  0.36012022403E+04  0.65864270000E+03 0. -1.
    8880022    1    1    2    0    0 -0.59069373380E+03 -0.70640074151E+03 -0.96019120634E+02  0.93836688949E+03  0.15294330000E+03 0.  0.
<mgrwt>
<rscale>  0 0.10788117E+04</rscale>
<asrwt>0</asrwt>
<pdfrwt beam="1">  1        2 0.60478190E+00 0.11321357E+04</pdfrwt>
<pdfrwt beam="2">  1       -2 0.93613351E-01 0.11321357E+04</pdfrwt>
<totfact> 0.38374407E-01</totfact>
</mgrwt>
</event>
<event>
 4    2  0.3388003E-007  0.7658449E+03  0.7818608E-02  0.9790204E-01
          2   -1    0    0  501    0  0.00000000000E+00  0.00000000000E+00  0.17414773103E+04  0.17414773103E+04  0.25500000000E-02 0. -1.
         -2   -1    0    0    0  501 -0.00000000000E+00 -0.00000000000E+00 -0.20192164001E+03  0.20192164003E+03  0.25500000000E-02 0.  1.
    8880023    1    1    2    0    0 -0.23022697135E+03  0.31575902183E+03  0.10213909451E+04  0.12766197112E+04  0.65864270000E+03 0. -1.
    8880022    1    1    2    0    0  0.23022697135E+03 -0.31575902183E+03  0.51816472522E+03  0.66677923909E+03  0.15294330000E+03 0. -1.
<mgrwt>
<rscale>  0 0.65890909E+03</rscale>
<asrwt>0</asrwt>
<pdfrwt beam="1">  1        2 0.26791958E+00 0.76584491E+03</pdfrwt>
<pdfrwt beam="2">  1       -2 0.31064869E-01 0.76584491E+03</pdfrwt>
<totfact> 0.91145135E+01</totfact>
</mgrwt>
</event>
<event>
 4    2  0.3388003E-007  0.7303471E+03  0.7818608E-02  0.9889014E-01
         -2   -1    0    0    0  501 -0.00000000000E+00  0.00000000000E+00  0.39647603528E+03  0.39647603529E+03  0.25500000000E-02 0.  1.
          2   -1    0    0  501    0  0.00000000000E+00 -0.00000000000E+00 -0.26274905787E+04  0.26274905787E+04  0.25500000000E-02 0. -1.
    8880023    1    1    2    0    0 -0.31218601526E+03 -0.46222770790E+02  0.34797124389E+02  0.73117555949E+03  0.65864270000E+03 0.  0.
    8880022    1    1    2    0    0  0.31218601526E+03  0.46222770790E+02 -0.22658116678E+04  0.22927910545E+04  0.15294330000E+03 0.  0.
<mgrwt>
<rscale>  0 0.60796692E+03</rscale>
<asrwt>0</asrwt>
<pdfrwt beam="1">  1        2 0.40422931E+00 0.73034708E+03</pdfrwt>
<pdfrwt beam="2">  1       -2 0.60996315E-01 0.73034708E+03</pdfrwt>
<totfact> 0.77476271E+00</totfact>
</mgrwt>
</event>
<event>
 4    2  0.3388003E-007  0.6812771E+03  0.7818608E-02  0.1008610E+00
          2   -1    0    0  501    0  0.00000000000E+00  0.00000000000E+00  0.20918829481E+04  0.20918829481E+04  0.25500000000E-02 0. -1.
         -2   -1    0    0    0  501 -0.00000000000E+00 -0.00000000000E+00 -0.10202256819E+03  0.10202256823E+03  0.25500000000E-02 0.  1.
    8880023    1    1    2    0    0  0.86335838612E+02 -0.15124287119E+03  0.13265223978E+04  0.14912411479E+04  0.65864270000E+03 0.  1.
    8880022    1    1    2    0    0 -0.86335838612E+02  0.15124287119E+03  0.66333798209E+03  0.70266436839E+03  0.15294330000E+03 0. -1.
<mgrwt>
<rscale>  0 0.52030713E+03</rscale>
<asrwt>0</asrwt>
<pdfrwt beam="1">  1        2 0.32182814E+00 0.68127710E+03</pdfrwt>
<pdfrwt beam="2">  1       -2 0.15695780E-01 0.68127710E+03</pdfrwt>
<totfact> 0.19896789E+02</totfact>
</mgrwt>
</event>
<event>
 4    2  0.3388003E-007  0.6867991E+03  0.7818608E-02  0.1005713E+00
         -2   -1    0    0    0  501 -0.00000000000E+00  0.00000000000E+00  0.13642126021E+03  0.13642126024E+03  0.25500000000E-02 0.  1.
          2   -1    0    0  501    0  0.00000000000E+00 -0.00000000000E+00 -0.19371149912E+04  0.19371149912E+04  0.25500000000E-02 0. -1.
    8880023    1    1    2    0    0  0.78834951411E+02 -0.17795454332E+03 -0.16410861395E+04  0.17790044105E+04  0.65864270000E+03 0.  0.
    8880022    1    1    2    0    0 -0.78834951411E+02  0.17795454332E+03 -0.15960759149E+03  0.29453184094E+03  0.15294330000E+03 0.  0.
<mgrwt>
<rscale>  0 0.53214769E+03</rscale>
<asrwt>0</asrwt>
<pdfrwt beam="1">  1        2 0.29801767E+00 0.68679908E+03</pdfrwt>
<pdfrwt beam="2">  1       -2 0.20987888E-01 0.68679908E+03</pdfrwt>
<totfact> 0.14619742E+02</totfact>
</mgrwt>
</event>
<event>
 4    2  0.3388003E-007  0.8490941E+03  0.7818608E-02  0.9613265E-01
          2   -1    0    0  501    0  0.00000000000E+00  0.00000000000E+00  0.22080091684E+04  0.22080091684E+04  0.25500000000E-02 0. -1.
         -2   -1    0    0    0  501 -0.00000000000E+00 -0.00000000000E+00 -0.44252581554E+03  0.44252581555E+03  0.25500000000E-02 0.  1.
    8880023    1    1    2    0    0 -0.12281609701E+03  0.52160017191E+03  0.54220893541E+02  0.85082350965E+03  0.65864270000E+03 0.  1.
    8880022    1    1    2    0    0  0.12281609701E+03 -0.52160017191E+03  0.17112624593E+04  0.17997114743E+04  0.15294330000E+03 0. -1.
<mgrwt>
<rscale>  0 0.76424381E+03</rscale>
<asrwt>0</asrwt>
<pdfrwt beam="1">  1        2 0.33969372E+00 0.84909407E+03</pdfrwt>
<pdfrwt beam="2">  1       -2 0.68080895E-01 0.84909407E+03</pdfrwt>
<totfact> 0.10350539E+01</totfact>
</mgrwt>
</event>
<event>
 4    2  0.3388003E-007  0.7679214E+03  0.7818608E-02  0.9785015E-01
         -2   -1    0    0    0  501 -0.00000000000E+00  0.00000000000E+00  0.93075196307E+03  0.93075196308E+03  0.25500000000E-02 0.  1.
          2   -1    0    0  501    0  0.00000000000E+00 -0.00000000000E+00 -0.45977387421E+03  0.45977387422E+03  0.25500000000E-02 0. -1.
    8880023    1    1    2    0    0 -0.14705540826E+03 -0.36642571652E+03  0.56918790109E+03  0.95586514312E+03  0.65864270000E+03 0.  0.
    8880022    1    1    2    0    0  0.14705540826E+03  0.36642571652E+03 -0.98209812230E+02  0.43466069417E+03  0.15294330000E+03 0.  0.
<mgrwt>
<rscale>  0 0.66172951E+03</rscale>
<asrwt>0</asrwt>
<pdfrwt beam="1">  1        2 0.70734442E-01 0.76792142E+03</pdfrwt>
<pdfrwt beam="2">  1       -2 0.14319261E+00 0.76792142E+03</pdfrwt>
<totfact> 0.23240945E+01</totfact>
</mgrwt>
</event>
<event>
 4    2  0.3388003E-007  0.7752414E+03  0.7818608E-02  0.9767136E-01
         -2   -1    0    0    0  501 -0.00000000000E+00  0.00000000000E+00  0.17282765822E+03  0.17282765824E+03  0.25500000000E-02 0.  1.
          2   -1    0    0  501    0  0.00000000000E+00 -0.00000000000E+00 -0.35398275717E+04  0.35398275717E+04  0.25500000000E-02 0. -1.
    8880023    1    1    2    0    0 -0.36305503480E+03  0.18809595117E+03 -0.81975516623E+03  0.11282720346E+04  0.65864270000E+03 0.  0.
    8880022    1    1    2    0    0  0.36305503480E+03 -0.18809595117E+03 -0.25472447472E+04  0.25843831954E+04  0.15294330000E+03 0.  0.
<mgrwt>
<rscale>  0 0.67156428E+03</rscale>
<asrwt>0</asrwt>
<pdfrwt beam="1">  1        2 0.54458880E+00 0.77524141E+03</pdfrwt>
<pdfrwt beam="2">  1       -2 0.26588873E-01 0.77524141E+03</pdfrwt>
<totfact> 0.10506944E+01</totfact>
</mgrwt>
</event>
<event>
 4    2  0.3388003E-007  0.7854068E+03  0.7818608E-02  0.9743286E-01
          2   -1    0    0  501    0  0.00000000000E+00  0.00000000000E+00  0.12829682935E+04  0.12829682935E+04  0.25500000000E-02 0. -1.
         -2   -1    0    0    0  501 -0.00000000000E+00 -0.00000000000E+00 -0.46954995645E+03  0.46954995645E+03  0.25500000000E-02 0.  1.
    8880023    1    1    2    0    0 -0.23568466042E+03 -0.35708044359E+03 -0.39206149949E+02  0.78638478547E+03  0.65864270000E+03 0.  1.
    8880022    1    1    2    0    0  0.23568466042E+03  0.35708044359E+03  0.85262448701E+03  0.96613346450E+03  0.15294330000E+03 0.  0.
<mgrwt>
<rscale>  0 0.68497016E+03</rscale>
<asrwt>0</asrwt>
<pdfrwt beam="1">  1        2 0.19737973E+00 0.78540684E+03</pdfrwt>
<pdfrwt beam="2">  1       -2 0.72238456E-01 0.78540684E+03</pdfrwt>
<totfact> 0.29817899E+01</totfact>
</mgrwt>
</event>
<event>
 4    2  0.3388003E-007  0.7161016E+03  0.7818608E-02  0.9936005E-01
          2   -1    0    0  501    0  0.00000000000E+00  0.00000000000E+00  0.14464835915E+04  0.14464835915E+04  0.25500000000E-02 0. -1.
         -2   -1    0    0    0  501 -0.00000000000E+00 -0.00000000000E+00 -0.28479292549E+03  0.28479292550E+03  0.25500000000E-02 0.  1.
    8880023    1    1    2    0    0  0.71384997083E+02  0.27183717726E+03  0.23940164801E+03  0.75505935136E+03  0.65864270000E+03 0.  1.
    8880022    1    1    2    0    0 -0.71384997083E+02 -0.27183717726E+03  0.92228901799E+03  0.97621716563E+03  0.15294330000E+03 0.  1.
<mgrwt>
<rscale>  0 0.58547643E+03</rscale>
<asrwt>0</asrwt>
<pdfrwt beam="1">  1        2 0.22253593E+00 0.71610158E+03</pdfrwt>
<pdfrwt beam="2">  1       -2 0.43814297E-01 0.71610158E+03</pdfrwt>
<totfact> 0.68791877E+01</totfact>
</mgrwt>
</event>
<event>
 4    2  0.3388003E-007  0.7321933E+03  0.7818608E-02  0.9883300E-01
         -2   -1    0    0    0  501 -0.00000000000E+00  0.00000000000E+00  0.10493387390E+04  0.10493387390E+04  0.25500000000E-02 0.  1.
          2   -1    0    0  501    0  0.00000000000E+00 -0.00000000000E+00 -0.80001054171E+03  0.80001054172E+03  0.25500000000E-02 0. -1.
    8880023    1    1    2    0    0 -0.14914106185E+03  0.28293776494E+03  0.86844234728E+03  0.11359133558E+04  0.65864270000E+03 0.  0.
    8880022    1    1    2    0    0  0.14914106185E+03 -0.28293776494E+03 -0.61911415000E+03  0.71343592487E+03  0.15294330000E+03 0.  0.
<mgrwt>
<rscale>  0 0.61077500E+03</rscale>
<asrwt>0</asrwt>
<pdfrwt beam="1">  1        2 0.12307855E+00 0.73219331E+03</pdfrwt>
<pdfrwt beam="2">  1       -2 0.16143673E+00 0.73219331E+03</pdfrwt>
<totfact> 0.86303575E+00</totfact>
</mgrwt>
</event>
<event>
 4    2  0.3388003E-007  0.8150514E+03  0.7818608E-02  0.9679149E-01
          2   -1    0    0  501    0  0.00000000000E+00  0.00000000000E+00  0.24218414858E+04  0.24218414858E+04  0.25500000000E-02 0. -1.
         -2   -1    0    0    0  501 -0.00000000000E+00 -0.00000000000E+00 -0.25518148395E+03  0.25518148396E+03  0.25500000000E-02 0.  1.
    8880023    1    1    2    0    0  0.29695200291E+03  0.37725079684E+03  0.19773770368E+04  0.21387680584E+04  0.65864270000E+03 0.  0.
    8880022    1    1    2    0    0 -0.29695200291E+03 -0.37725079684E+03  0.18928296509E+03  0.53825491139E+03  0.15294330000E+03 0.  1.
<mgrwt>
<rscale>  0 0.72271910E+03</rscale>
<asrwt>0</asrwt>
<pdfrwt beam="1">  1        2 0.37259099E+00 0.81505145E+03</pdfrwt>
<pdfrwt beam="2">  1       -2 0.39258690E-01 0.81505145E+03</pdfrwt>
<totfact> 0.24483498E+01</totfact>
</mgrwt>
</event>
<event>
 4    2  0.3388003E-007  0.7097869E+03  0.7818608E-02  0.9958793E-01
         -2   -1    0    0    0  501 -0.00000000000E+00  0.00000000000E+00  0.12768232846E+03  0.12768232848E+03  0.25500000000E-02 0.  1.
          2   -1    0    0  501    0  0.00000000000E+00 -0.00000000000E+00 -0.20369553100E+04  0.20369553100E+04  0.25500000000E-02 0. -1.
    8880023    1    1    2    0    0 -0.16541713895E+03  0.20645681218E+03 -0.12369731998E+04  0.14261487119E+04  0.65864270000E+03 0. -1.
    8880022    1    1    2    0    0  0.16541713895E+03 -0.20645681218E+03 -0.67229978167E+03  0.73848892653E+03  0.15294330000E+03 0.  0.
<mgrwt>
<rscale>  0 0.57494603E+03</rscale>
<asrwt>0</asrwt>
<pdfrwt beam="1">  1        2 0.31337772E+00 0.70978691E+03</pdfrwt>
<pdfrwt beam="2">  1       -2 0.19643437E-01 0.70978691E+03</pdfrwt>
<totfact> 0.14451266E+02</totfact>
</mgrwt>
</event>
<event>
 4    2  0.3388003E-007  0.7066973E+03  0.7818608E-02  0.9970476E-01
          2   -1    0    0  501    0  0.00000000000E+00  0.00000000000E+00  0.70190710032E+03  0.70190710033E+03  0.25500000000E-02 0. -1.
         -2   -1    0    0    0  501 -0.00000000000E+00 -0.00000000000E+00 -0.51396888997E+03  0.51396888998E+03  0.25500000000E-02 0.  1.
    8880023    1    1    2    0    0  0.22832025129E+02  0.25512643223E+03 -0.19246925865E+03  0.73243799709E+03  0.65864270000E+03 0.  1.
    8880022    1    1    2    0    0 -0.22832025129E+02 -0.25512643223E+03  0.38040746901E+03  0.48343799321E+03  0.15294330000E+03 0.  0.
<mgrwt>
<rscale>  0 0.56963976E+03</rscale>
<asrwt>0</asrwt>
<pdfrwt beam="1">  1        2 0.10798571E+00 0.70669725E+03</pdfrwt>
<pdfrwt beam="2">  1       -2 0.79072137E-01 0.70669725E+03</pdfrwt>
<totfact> 0.58869890E+01</totfact>
</mgrwt>
</event>
<event>
 4    2  0.3388003E-007  0.7835774E+03  0.7818608E-02  0.9747500E-01
         -2   -1    0    0    0  501 -0.00000000000E+00  0.00000000000E+00  0.36091779471E+03  0.36091779472E+03  0.25500000000E-02 0.  1.
          2   -1    0    0  501    0  0.00000000000E+00 -0.00000000000E+00 -0.19722546417E+04  0.19722546417E+04  0.25500000000E-02 0. -1.
    8880023    1    1    2    0    0  0.28919129486E+03 -0.31072772372E+03 -0.14228122399E+03  0.79639027887E+03  0.65864270000E+03 0.  1.
    8880022    1    1    2    0    0 -0.28919129486E+03  0.31072772372E+03 -0.14690556230E+04  0.15367821576E+04  0.15294330000E+03 0.  0.
<mgrwt>
<rscale>  0 0.68257751E+03</rscale>
<asrwt>0</asrwt>
<pdfrwt beam="1">  1        2 0.30342378E+00 0.78357739E+03</pdfrwt>
<pdfrwt beam="2">  1       -2 0.55525816E-01 0.78357739E+03</pdfrwt>
<totfact> 0.21703846E+01</totfact>
</mgrwt>
</event>
<event>
 4    2  0.3388003E-007  0.8541868E+03  0.7818608E-02  0.9603989E-01
         -2   -1    0    0    0  501 -0.00000000000E+00  0.00000000000E+00  0.53332572971E+03  0.53332572972E+03  0.25500000000E-02 0.  1.
          2   -1    0    0  501    0  0.00000000000E+00 -0.00000000000E+00 -0.10453632819E+04  0.10453632819E+04  0.25500000000E-02 0. -1.
    8880023    1    1    2    0    0  0.18808804366E+01  0.54389465150E+03 -0.54414859341E+03  0.10127846897E+04  0.65864270000E+03 0. -1.
    8880022    1    1    2    0    0 -0.18808804366E+01 -0.54389465150E+03  0.32111041213E+02  0.56590432197E+03  0.15294330000E+03 0.  0.
<mgrwt>
<rscale>  0 0.77032738E+03</rscale>
<asrwt>0</asrwt>
<pdfrwt beam="1">  1        2 0.16082512E+00 0.85418683E+03</pdfrwt>
<pdfrwt beam="2">  1       -2 0.82050113E-01 0.85418683E+03</pdfrwt>
<totfact> 0.30982404E+01</totfact>
</mgrwt>
</event>
<event>
 4    2  0.3388003E-007  0.6700562E+03  0.7818608E-02  0.1015623E+00
          2   -1    0    0  501    0  0.00000000000E+00  0.00000000000E+00  0.25938037194E+03  0.25938037196E+03  0.25500000000E-02 0. -1.
         -2   -1    0    0    0  501 -0.00000000000E+00 -0.00000000000E+00 -0.23938740106E+04  0.23938740106E+04  0.25500000000E-02 0.  1.
    8880023    1    1    2    0    0 -0.91287763379E+02 -0.82653610246E+02 -0.23005189491E+04  0.23961140867E+04  0.65864270000E+03 0.  1.
    8880022    1    1    2    0    0  0.91287763379E+02  0.82653610246E+02  0.16602531045E+03  0.25714029586E+03  0.15294330000E+03 0.  0.
<mgrwt>
<rscale>  0 0.49299888E+03</rscale>
<asrwt>0</asrwt>
<pdfrwt beam="1">  1        2 0.39904674E-01 0.67005618E+03</pdfrwt>
<pdfrwt beam="2">  1       -2 0.36828829E+00 0.67005618E+03</pdfrwt>
<totfact> 0.16453622E+00</totfact>
</mgrwt>
</event>
<event>
 4    2  0.3388003E-007  0.8315526E+03  0.7818608E-02  0.9646319E-01
          2   -1    0    0  501    0  0.00000000000E+00  0.00000000000E+00  0.27251258213E+04  0.27251258213E+04  0.25500000000E-02 0. -1.
         -2   -1    0    0    0  501 -0.00000000000E+00 -0.00000000000E+00 -0.34547176586E+03  0.34547176587E+03  0.25500000000E-02 0.  1.
    8880023    1    1    2    0    0  0.81985126641E+02  0.50094701845E+03  0.23892098230E+03  0.86519530647E+03  0.65864270000E+03 0.  1.
    8880022    1    1    2    0    0 -0.81985126641E+02 -0.50094701845E+03  0.21407330732E+04  0.22054022807E+04  0.15294330000E+03 0.  0.
<mgrwt>
<rscale>  0 0.74304888E+03</rscale>
<asrwt>0</asrwt>
<pdfrwt beam="1">  1        2 0.41925011E+00 0.83155257E+03</pdfrwt>
<pdfrwt beam="2">  1       -2 0.53149505E-01 0.83155257E+03</pdfrwt>
<totfact> 0.89155206E+00</totfact>
</mgrwt>
</event>
<event>
 4    2  0.3388003E-007  0.7802260E+03  0.7818608E-02  0.9755306E-01
          2   -1    0    0  501    0  0.00000000000E+00  0.00000000000E+00  0.14809974597E+04  0.14809974597E+04  0.25500000000E-02 0. -1.
         -2   -1    0    0    0  501 -0.00000000000E+00 -0.00000000000E+00 -0.29916520424E+03  0.29916520425E+03  0.25500000000E-02 0.  1.
    8880023    1    1    2    0    0 -0.40564583550E+03 -0.10195008513E+03  0.39137841134E+03  0.87288580630E+03  0.65864270000E+03 0.  0.
    8880022    1    1    2    0    0  0.40564583550E+03  0.10195008513E+03  0.79045384413E+03  0.90727685765E+03  0.15294330000E+03 0.  0.
<mgrwt>
<rscale>  0 0.67817215E+03</rscale>
<asrwt>0</asrwt>
<pdfrwt beam="1">  1        2 0.22784576E+00 0.78022597E+03</pdfrwt>
<pdfrwt beam="2">  1       -2 0.46025416E-01 0.78022597E+03</pdfrwt>
<totfact> 0.59274146E+01</totfact>
</mgrwt>
</event>
<event>
 4    2  0.3388003E-007  0.7654441E+03  0.7818608E-02  0.9791212E-01
          2   -1    0    0  501    0  0.00000000000E+00  0.00000000000E+00  0.23830070824E+04  0.23830070824E+04  0.25500000000E-02 0. -1.
         -2   -1    0    0    0  501 -0.00000000000E+00 -0.00000000000E+00 -0.14888451321E+03  0.14888451323E+03  0.25500000000E-02 0.  1.
    8880023    1    1    2    0    0 -0.38172212265E+03 -0.79891593755E+02  0.13096090291E+04  0.15168983028E+04  0.65864270000E+03 0.  0.
    8880022    1    1    2    0    0  0.38172212265E+03  0.79891593755E+02  0.92451354017E+03  0.10149932929E+04  0.15294330000E+03 0.  1.
<mgrwt>
<rscale>  0 0.65836304E+03</rscale>
<asrwt>0</asrwt>
<pdfrwt beam="1">  1        2 0.36661650E+00 0.76544409E+03</pdfrwt>
<pdfrwt beam="2">  1       -2 0.22905308E-01 0.76544409E+03</pdfrwt>
<totfact> 0.70567338E+01</totfact>
</mgrwt>
</event>
<event>
 4    2  0.3388003E-007  0.9681076E+03  0.7818608E-02  0.9424526E-01
         -2   -1    0    0    0  501 -0.00000000000E+00  0.00000000000E+00  0.12309467875E+04  0.12309467875E+04  0.25500000000E-02 0.  1.
          2   -1    0    0  501    0  0.00000000000E+00 -0.00000000000E+00 -0.13973547048E+04  0.13973547048E+04  0.25500000000E-02 0. -1.
    8880023    1    1    2    0    0 -0.57643103093E+03 -0.41370200871E+03  0.91091642795E+03  0.13292859100E+04  0.65864270000E+03 0.  1.
    8880022    1    1    2    0    0  0.57643103093E+03  0.41370200871E+03 -0.10773243452E+04  0.12990155824E+04  0.15294330000E+03 0.  0.
<mgrwt>
<rscale>  0 0.90084454E+03</rscale>
<asrwt>0</asrwt>
<pdfrwt beam="1">  1        2 0.21497765E+00 0.96810758E+03</pdfrwt>
<pdfrwt beam="2">  1       -2 0.18937643E+00 0.96810758E+03</pdfrwt>
<totfact> 0.22646642E+00</totfact>
</mgrwt>
</event>
<event>
 4    2  0.3388003E-007  0.8208626E+03  0.7818608E-02  0.9667379E-01
         -2   -1    0    0    0  501 -0.00000000000E+00  0.00000000000E+00  0.36172492179E+03  0.36172492180E+03  0.25500000000E-02 0.  1.
          2   -1    0    0  501    0  0.00000000000E+00 -0.00000000000E+00 -0.15108462854E+04  0.15108462854E+04  0.25500000000E-02 0. -1.
    8880023    1    1    2    0    0 -0.13981384631E+03  0.46952884260E+03 -0.28763731424E+03  0.86979921618E+03  0.65864270000E+03 0.  0.
    8880022    1    1    2    0    0  0.13981384631E+03 -0.46952884260E+03 -0.86148404937E+03  0.10027719910E+04  0.15294330000E+03 0.  0.
<mgrwt>
<rscale>  0 0.72992661E+03</rscale>
<asrwt>0</asrwt>
<pdfrwt beam="1">  1        2 0.23243789E+00 0.82086263E+03</pdfrwt>
<pdfrwt beam="2">  1       -2 0.55649989E-01 0.82086263E+03</pdfrwt>
<totfact> 0.38547488E+01</totfact>
</mgrwt>
</event>
<event>
 4    2  0.5671584E-007  0.8007896E+03  0.7818608E-02  0.9709091E-01
         -2   -1    0    0    0  501 -0.00000000000E+00  0.00000000000E+00  0.14363894222E+04  0.14363894222E+04  0.25500000000E-02 0.  1.
          2   -1    0    0  501    0  0.00000000000E+00 -0.00000000000E+00 -0.17358359706E+04  0.17358359706E+04  0.25500000000E-02 0. -1.
    8880023    1    1    2    0    0  0.16035152583E+03  0.42631108342E+03  0.12863492850E+04  0.15152420404E+04  0.65864270000E+03 0.  0.
    8880022    1    1    2    0    0 -0.16035152583E+03 -0.42631108342E+03 -0.15857958334E+04  0.16569833524E+04  0.15294330000E+03 0.  0.
<mgrwt>
<rscale>  0 0.70478064E+03</rscale>
<asrwt>0</asrwt>
<pdfrwt beam="1">  1        2 0.26705169E+00 0.80078958E+03</pdfrwt>
<pdfrwt beam="2">  1       -2 0.22098299E+00 0.80078958E+03</pdfrwt>
<totfact> 0.94080164E-01</totfact>
</mgrwt>
</event>
<event>
 4    2  0.3388003E-007  0.8216612E+03  0.7818608E-02  0.9665780E-01
          2   -1    0    0  501    0  0.00000000000E+00  0.00000000000E+00  0.54301076695E+03  0.54301076696E+03  0.25500000000E-02 0. -1.
         -2   -1    0    0    0  501 -0.00000000000E+00 -0.00000000000E+00 -0.11052651428E+04  0.11052651428E+04  0.25500000000E-02 0.  1.
    8880023    1    1    2    0    0  0.47361952186E+03  0.13038983696E+03 -0.73815810533E+03  0.11045381640E+04  0.65864270000E+03 0.  0.
    8880022    1    1    2    0    0 -0.47361952186E+03 -0.13038983696E+03  0.17590372949E+03  0.54373774573E+03  0.15294330000E+03 0.  0.
<mgrwt>
<rscale>  0 0.73091286E+03</rscale>
<asrwt>0</asrwt>
<pdfrwt beam="1">  1        2 0.83540118E-01 0.82166122E+03</pdfrwt>
<pdfrwt beam="2">  1       -2 0.17004079E+00 0.82166122E+03</pdfrwt>
<totfact> 0.12009031E+01</totfact>
</mgrwt>
</event>
<event>
 4    2  0.3388003E-007  0.7626570E+03  0.7818608E-02  0.9798277E-01
         -2   -1    0    0    0  501 -0.00000000000E+00  0.00000000000E+00  0.76289041465E+03  0.76289041466E+03  0.25500000000E-02 0.  1.
          2   -1    0    0  501    0  0.00000000000E+00 -0.00000000000E+00 -0.11011378501E+04  0.11011378501E+04  0.25500000000E-02 0. -1.
    8880023    1    1    2    0    0  0.37017737645E+03 -0.10394321206E+03  0.51189982973E+03  0.91852442717E+03  0.65864270000E+03 0.  1.
    8880022    1    1    2    0    0 -0.37017737645E+03  0.10394321206E+03 -0.85014726515E+03  0.94550383755E+03  0.15294330000E+03 0.  0.
<mgrwt>
<rscale>  0 0.65455104E+03</rscale>
<asrwt>0</asrwt>
<pdfrwt beam="1">  1        2 0.16940582E+00 0.76265699E+03</pdfrwt>
<pdfrwt beam="2">  1       -2 0.11736776E+00 0.76265699E+03</pdfrwt>
<totfact> 0.12405168E+01</totfact>
</mgrwt>
</event>
<event>
 4    2  0.3388003E-007  0.8988886E+03  0.7818608E-02  0.9527818E-01
          2   -1    0    0  501    0  0.00000000000E+00  0.00000000000E+00  0.15792125277E+04  0.15792125277E+04  0.25500000000E-02 0. -1.
         -2   -1    0    0    0  501 -0.00000000000E+00 -0.00000000000E+00 -0.84389247948E+03  0.84389247948E+03  0.25500000000E-02 0.  1.
    8880023    1    1    2    0    0  0.42742088918E+03 -0.43760927302E+03 -0.50549230947E+03  0.10312725990E+04  0.65864270000E+03 0.  1.
    8880022    1    1    2    0    0 -0.42742088918E+03  0.43760927302E+03  0.12408123577E+04  0.13918324081E+04  0.15294330000E+03 0.  0.
<mgrwt>
<rscale>  0 0.82263609E+03</rscale>
<asrwt>0</asrwt>
<pdfrwt beam="1">  1        2 0.24295578E+00 0.89888859E+03</pdfrwt>
<pdfrwt beam="2">  1       -2 0.12982961E+00 0.89888859E+03</pdfrwt>
<totfact> 0.50219146E+00</totfact>
</mgrwt>
</event>
<event>
 4    2  0.3388003E-007  0.8782558E+03  0.7818608E-02  0.9561880E-01
          2   -1    0    0  501    0  0.00000000000E+00  0.00000000000E+00  0.23739077223E+04  0.23739077223E+04  0.25500000000E-02 0. -1.
         -2   -1    0    0    0  501 -0.00000000000E+00 -0.00000000000E+00 -0.26154549202E+03  0.26154549203E+03  0.25500000000E-02 0.  1.
    8880023    1    1    2    0    0 -0.11789921798E+03  0.56887858502E+03  0.78287313596E+03  0.11765303325E+04  0.65864270000E+03 0.  1.
    8880022    1    1    2    0    0  0.11789921798E+03 -0.56887858502E+03  0.13294890943E+04  0.14589228818E+04  0.15294330000E+03 0.  1.
<mgrwt>
<rscale>  0 0.79871410E+03</rscale>
<asrwt>0</asrwt>
<pdfrwt beam="1">  1        2 0.36521657E+00 0.87825581E+03</pdfrwt>
<pdfrwt beam="2">  1       -2 0.40237769E-01 0.87825581E+03</pdfrwt>
<totfact> 0.24628180E+01</totfact>
</mgrwt>
</event>
<event>
 4    2  0.3388003E-007  0.9275509E+03  0.7818608E-02  0.9483177E-01
         -2   -1    0    0    0  501 -0.00000000000E+00  0.00000000000E+00  0.68043799770E+03  0.68043799771E+03  0.25500000000E-02 0.  1.
          2   -1    0    0  501    0  0.00000000000E+00 -0.00000000000E+00 -0.14699877646E+04  0.14699877646E+04  0.25500000000E-02 0. -1.
    8880023    1    1    2    0    0  0.50826619134E+03  0.41012913704E+03 -0.10763862367E+04  0.14209004072E+04  0.65864270000E+03 0.  0.
    8880022    1    1    2    0    0 -0.50826619134E+03 -0.41012913704E+03  0.28683646983E+03  0.72952535511E+03  0.15294330000E+03 0.  0.
<mgrwt>
<rscale>  0 0.85535555E+03</rscale>
<asrwt>0</asrwt>
<pdfrwt beam="1">  1        2 0.22615196E+00 0.92755088E+03</pdfrwt>
<pdfrwt beam="2">  1       -2 0.10468277E+00 0.92755088E+03</pdfrwt>
<totfact> 0.97982371E+00</totfact>
</mgrwt>
</event>
<event>
 4    2  0.3388003E-007  0.9128619E+03  0.7818608E-02  0.9505692E-01
         -2   -1    0    0    0  501 -0.00000000000E+00  0.00000000000E+00  0.17524075389E+04  0.17524075389E+04  0.25500000000E-02 0.  1.
          2   -1    0    0  501    0  0.00000000000E+00 -0.00000000000E+00 -0.44956346278E+03  0.44956346279E+03  0.25500000000E-02 0. -1.
    8880023    1    1    2    0    0 -0.18355595778E+03  0.60482545066E+03  0.12523038156E+04  0.15497037356E+04  0.65864270000E+03 0.  1.
    8880022    1    1    2    0    0  0.18355595778E+03 -0.60482545066E+03  0.50540260499E+02  0.65226726604E+03  0.15294330000E+03 0.  0.
<mgrwt>
<rscale>  0 0.83865491E+03</rscale>
<asrwt>0</asrwt>
<pdfrwt beam="1">  1        2 0.69163610E-01 0.91286189E+03</pdfrwt>
<pdfrwt beam="2">  1       -2 0.26960116E+00 0.91286189E+03</pdfrwt>
<totfact> 0.34364980E+00</totfact>
</mgrwt>
</event>
<event>
 4    2  0.3388003E-007  0.7516995E+03  0.7818608E-02  0.9827091E-01
          2   -1    0    0  501    0  0.00000000000E+00  0.00000000000E+00  0.26834391249E+03  0.26834391251E+03  0.25500000000E-02 0. -1.
         -2   -1    0    0    0  501 -0.00000000000E+00 -0.00000000000E+00 -0.16773750961E+04  0.16773750961E+04  0.25500000000E-02 0.  1.
    8880023    1    1    2    0    0 -0.13086254220E+02 -0.36203675448E+03 -0.13539806801E+04  0.15486496537E+04  0.65864270000E+03 0.  1.
    8880022    1    1    2    0    0  0.13086254220E+02  0.36203675448E+03 -0.55050503524E+02  0.39706935490E+03  0.15294330000E+03 0.  0.
<mgrwt>
<rscale>  0 0.63928738E+03</rscale>
<asrwt>0</asrwt>
<pdfrwt beam="1">  1        2 0.41283680E-01 0.75169945E+03</pdfrwt>
<pdfrwt beam="2">  1       -2 0.25805770E+00 0.75169945E+03</pdfrwt>
<totfact> 0.73330867E+00</totfact>
</mgrwt>
</event>
<event>
 4    2  0.3388003E-007  0.1232402E+04  0.7818608E-02  0.9126252E-01
          2   -1    0    0  501    0  0.00000000000E+00  0.00000000000E+00  0.20640980199E+04  0.20640980199E+04  0.25500000000E-02 0. -1.
         -2   -1    0    0    0  501 -0.00000000000E+00 -0.00000000000E+00 -0.70026077791E+03  0.70026077791E+03  0.25500000000E-02 0.  1.
    8880023    1    1    2    0    0 -0.83910195124E+03 -0.61718031228E+03  0.11590824437E+04  0.16918291698E+04  0.65864270000E+03 0. -1.
    8880022    1    1    2    0    0  0.83910195124E+03  0.61718031228E+03  0.20475479832E+03  0.10725296280E+04  0.15294330000E+03 0.  0.
<mgrwt>
<rscale>  0 0.11848163E+04</rscale>
<asrwt>0</asrwt>
<pdfrwt beam="1">  1        2 0.31755354E+00 0.12324017E+04</pdfrwt>
<pdfrwt beam="2">  1       -2 0.10773243E+00 0.12324017E+04</pdfrwt>
<totfact> 0.41458570E+00</totfact>
</mgrwt>
</event>
<event>
 4    2  0.3388003E-007  0.6660047E+03  0.7818608E-02  0.1018705E+00
          2   -1    0    0  501    0  0.00000000000E+00  0.00000000000E+00  0.17022272833E+04  0.17022272833E+04  0.25500000000E-02 0. -1.
         -2   -1    0    0    0  501 -0.00000000000E+00 -0.00000000000E+00 -0.60996506918E+03  0.60996506919E+03  0.25500000000E-02 0.  1.
    8880023    1    1    2    0    0  0.95169707286E+02  0.26358852424E+02 -0.42107052101E+03  0.78794838169E+03  0.65864270000E+03 0.  1.
    8880022    1    1    2    0    0 -0.95169707286E+02 -0.26358852424E+02  0.15133327352E+04  0.15242439708E+04  0.15294330000E+03 0.  0.
<mgrwt>
<rscale>  0 0.48156856E+03</rscale>
<asrwt>0</asrwt>
<pdfrwt beam="1">  1        2 0.26188112E+00 0.66600471E+03</pdfrwt>
<pdfrwt beam="2">  1       -2 0.93840780E-01 0.66600471E+03</pdfrwt>
<totfact> 0.97725010E+00</totfact>
</mgrwt>
</event>
<event>
 4    2  0.3388003E-007  0.6727106E+03  0.7818608E-02  0.1013790E+00
         -2   -1    0    0    0  501 -0.00000000000E+00  0.00000000000E+00  0.79806615015E+03  0.79806615015E+03  0.25500000000E-02 0.  1.
          2   -1    0    0  501    0  0.00000000000E+00 -0.00000000000E+00 -0.61518473045E+03  0.61518473046E+03  0.25500000000E-02 0. -1.
    8880023    1    1    2    0    0  0.10754809060E+03 -0.84633429463E+02  0.62976685211E+03  0.92149113043E+03  0.65864270000E+03 0.  1.
    8880022    1    1    2    0    0 -0.10754809060E+03  0.84633429463E+02 -0.44688543242E+03  0.49175975018E+03  0.15294330000E+03 0.  0.
<mgrwt>
<rscale>  0 0.49995814E+03</rscale>
<asrwt>0</asrwt>
<pdfrwt beam="1">  1        2 0.94643804E-01 0.67271065E+03</pdfrwt>
<pdfrwt beam="2">  1       -2 0.12277941E+00 0.67271065E+03</pdfrwt>
<totfact> 0.24618451E+01</totfact>
</mgrwt>
</event>
<event>
 4    2  0.3388003E-007  0.1187664E+04  0.7818608E-02  0.9169208E-01
         -2   -1    0    0    0  501 -0.00000000000E+00  0.00000000000E+00  0.12242348902E+04  0.12242348902E+04  0.25500000000E-02 0.  1.
          2   -1    0    0  501    0  0.00000000000E+00 -0.00000000000E+00 -0.15234171137E+04  0.15234171137E+04  0.25500000000E-02 0. -1.
    8880023    1    1    2    0    0 -0.61856157310E+03  0.77078951629E+03  0.66273521386E+03  0.13600599502E+04  0.65864270000E+03 0.  0.
    8880022    1    1    2    0    0  0.61856157310E+03 -0.77078951629E+03 -0.96191743739E+03  0.13875920537E+04  0.15294330000E+03 0.  0.
<mgrwt>
<rscale>  0 0.11376980E+04</rscale>
<asrwt>0</asrwt>
<pdfrwt beam="1">  1        2 0.23437186E+00 0.11876637E+04</pdfrwt>
<pdfrwt beam="2">  1       -2 0.18834383E+00 0.11876637E+04</pdfrwt>
<totfact> 0.19023302E+00</totfact>
</mgrwt>
</event>
<event>
 4    2  0.3388003E-007  0.7345654E+03  0.7818608E-02  0.9876070E-01
          2   -1    0    0  501    0  0.00000000000E+00  0.00000000000E+00  0.12119205000E+04  0.12119205000E+04  0.25500000000E-02 0. -1.
         -2   -1    0    0    0  501 -0.00000000000E+00 -0.00000000000E+00 -0.28120224010E+03  0.28120224011E+03  0.25500000000E-02 0.  1.
    8880023    1    1    2    0    0 -0.50381983104E+02 -0.32130626191E+03  0.35844910031E+03  0.81735672869E+03  0.65864270000E+03 0.  0.
    8880022    1    1    2    0    0  0.50381983104E+02  0.32130626191E+03  0.57226915961E+03  0.67576601144E+03  0.15294330000E+03 0.  0.
<mgrwt>
<rscale>  0 0.61435172E+03</rscale>
<asrwt>0</asrwt>
<pdfrwt beam="1">  1        2 0.18644931E+00 0.73456536E+03</pdfrwt>
<pdfrwt beam="2">  1       -2 0.43261883E-01 0.73456536E+03</pdfrwt>
<totfact> 0.95976010E+01</totfact>
</mgrwt>
</event>
<event>
 4    2  0.3388003E-007  0.8232900E+03  0.7818608E-02  0.9662532E-01
         -2   -1    0    0    0  501 -0.00000000000E+00  0.00000000000E+00  0.91906498215E+03  0.91906498216E+03  0.25500000000E-02 0.  1.
          2   -1    0    0  501    0  0.00000000000E+00 -0.00000000000E+00 -0.11865882815E+04  0.11865882815E+04  0.25500000000E-02 0. -1.
    8880023    1    1    2    0    0  0.30393657382E+03 -0.38938247304E+03 -0.94503623835E+03  0.12533554361E+04  0.65864270000E+03 0. -1.
    8880022    1    1    2    0    0 -0.30393657382E+03  0.38938247304E+03  0.67751293902E+03  0.85229782751E+03  0.15294330000E+03 0.  1.
<mgrwt>
<rscale>  0 0.73292125E+03</rscale>
<asrwt>0</asrwt>
<pdfrwt beam="1">  1        2 0.18255204E+00 0.82328996E+03</pdfrwt>
<pdfrwt beam="2">  1       -2 0.14139461E+00 0.82328996E+03</pdfrwt>
<totfact> 0.68278370E+00</totfact>
</mgrwt>
</event>
<event>
 4    2  0.3388003E-007  0.6600649E+03  0.7818608E-02  0.1024090E+00
          2   -1    0    0  501    0  0.00000000000E+00  0.00000000000E+00  0.29174062418E+03  0.29174062419E+03  0.25500000000E-02 0. -1.
         -2   -1    0    0    0  501 -0.00000000000E+00 -0.00000000000E+00 -0.70245495142E+03  0.70245495142E+03  0.25500000000E-02 0.  1.
    8880023    1    1    2    0    0 -0.17653001371E+02  0.39545677734E+02 -0.48465128272E+03  0.81888494991E+03  0.65864270000E+03 0.  1.
    8880022    1    1    2    0    0  0.17653001371E+02 -0.39545677734E+02  0.73936955483E+02  0.17531062571E+03  0.15294330000E+03 0.  0.
<mgrwt>
<rscale>  0 0.46239114E+03</rscale>
<asrwt>0</asrwt>
<pdfrwt beam="1">  1        2 0.44883173E-01 0.66006492E+03</pdfrwt>
<pdfrwt beam="2">  1       -2 0.10806999E+00 0.66006492E+03</pdfrwt>
<totfact> 0.78806780E+01</totfact>
</mgrwt>
</event>
<event>
 4    2  0.3388003E-007  0.9202674E+03  0.7818608E-02  0.9494249E-01
          2   -1    0    0  501    0  0.00000000000E+00  0.00000000000E+00  0.18772094458E+04  0.18772094458E+04  0.25500000000E-02 0. -1.
         -2   -1    0    0    0  501 -0.00000000000E+00 -0.00000000000E+00 -0.46140010161E+03  0.46140010162E+03  0.25500000000E-02 0.  1.
    8880023    1    1    2    0    0 -0.61301474837E+03 -0.19311876984E+03  0.18060392585E+03  0.93782190488E+03  0.65864270000E+03 0.  0.
    8880022    1    1    2    0    0  0.61301474837E+03  0.19311876984E+03  0.12352054184E+04  0.14007876426E+04  0.15294330000E+03 0.  0.
<mgrwt>
<rscale>  0 0.84709143E+03</rscale>
<asrwt>0</asrwt>
<pdfrwt beam="1">  1        2 0.28880145E+00 0.92026743E+03</pdfrwt>
<pdfrwt beam="2">  1       -2 0.70984631E-01 0.92026743E+03</pdfrwt>
<totfact> 0.14237188E+01</totfact>
</mgrwt>
</event>
<event>
 4    2  0.3388003E-007  0.7391953E+03  0.7818608E-02  0.9862297E-01
         -2   -1    0    0    0  501 -0.00000000000E+00  0.00000000000E+00  0.15519319037E+03  0.15519319039E+03  0.25500000000E-02 0.  1.
          2   -1    0    0  501    0  0.00000000000E+00 -0.00000000000E+00 -0.19787566168E+04  0.19787566168E+04  0.25500000000E-02 0. -1.
    8880023    1    1    2    0    0  0.34020528632E+02 -0.33382936960E+03 -0.11912185821E+04  0.14019312969E+04  0.65864270000E+03 0.  0.
    8880022    1    1    2    0    0 -0.34020528632E+02  0.33382936960E+03 -0.63234484429E+03  0.73201851035E+03  0.15294330000E+03 0. -1.
<mgrwt>
<rscale>  0 0.62123826E+03</rscale>
<asrwt>0</asrwt>
<pdfrwt beam="1">  1        2 0.30442408E+00 0.73919527E+03</pdfrwt>
<pdfrwt beam="2">  1       -2 0.23875877E-01 0.73919527E+03</pdfrwt>
<totfact> 0.10977845E+02</totfact>
</mgrwt>
</event>
<event>
 4    2  0.3388003E-007  0.7532481E+03  0.7818608E-02  0.9822912E-01
         -2   -1    0    0    0  501 -0.00000000000E+00  0.00000000000E+00  0.54514721367E+03  0.54514721368E+03  0.25500000000E-02 0.  1.
          2   -1    0    0  501    0  0.00000000000E+00 -0.00000000000E+00 -0.16027958093E+04  0.16027958093E+04  0.25500000000E-02 0. -1.
    8880023    1    1    2    0    0 -0.24002246565E+00 -0.36547562460E+03  0.24047850812E+03  0.79070386929E+03  0.65864270000E+03 0.  1.
    8880022    1    1    2    0    0  0.24002246565E+00  0.36547562460E+03 -0.12981271038E+04  0.13572391537E+04  0.15294330000E+03 0.  0.
<mgrwt>
<rscale>  0 0.64147331E+03</rscale>
<asrwt>0</asrwt>
<pdfrwt beam="1">  1        2 0.24658397E+00 0.75324810E+03</pdfrwt>
<pdfrwt beam="2">  1       -2 0.83868803E-01 0.75324810E+03</pdfrwt>
<totfact> 0.14160150E+01</totfact>
</mgrwt>
</event>
<event>
 4    2  0.3388003E-007  0.7722136E+03  0.7818608E-02  0.9774456E-01
          2   -1    0    0  501    0  0.00000000000E+00  0.00000000000E+00  0.55818116282E+03  0.55818116283E+03  0.25500000000E-02 0. -1.
         -2   -1    0    0    0  501 -0.00000000000E+00 -0.00000000000E+00 -0.82646911163E+03  0.82646911164E+03  0.25500000000E-02 0.  1.
    8880023    1    1    2    0    0 -0.11710466212E+03 -0.38573316387E+03 -0.47488945568E+03  0.90655048231E+03  0.65864270000E+03 0.  1.
    8880022    1    1    2    0    0  0.11710466212E+03  0.38573316387E+03  0.20660150687E+03  0.47809979215E+03  0.15294330000E+03 0.  0.
<mgrwt>
<rscale>  0 0.66751587E+03</rscale>
<asrwt>0</asrwt>
<pdfrwt beam="1">  1        2 0.85874025E-01 0.77221356E+03</pdfrwt>
<pdfrwt beam="2">  1       -2 0.12714909E+00 0.77221356E+03</pdfrwt>
<totfact> 0.25121224E+01</totfact>
</mgrwt>
</event>
<event>
 4    2  0.3388003E-007  0.8478449E+03  0.7818608E-02  0.9615562E-01
          2   -1    0    0  501    0  0.00000000000E+00  0.00000000000E+00  0.39247330368E+04  0.39247330368E+04  0.25500000000E-02 0. -1.
         -2   -1    0    0    0  501 -0.00000000000E+00 -0.00000000000E+00 -0.13584573412E+03  0.13584573415E+03  0.25500000000E-02 0.  1.
    8880023    1    1    2    0    0 -0.51345968900E+03 -0.14625265754E+03  0.17079943678E+04  0.19068522908E+04  0.65864270000E+03 0.  1.
    8880022    1    1    2    0    0  0.51345968900E+03  0.14625265754E+03  0.20808929348E+04  0.21537264802E+04  0.15294330000E+03 0.  0.
<mgrwt>
<rscale>  0 0.76274702E+03</rscale>
<asrwt>0</asrwt>
<pdfrwt beam="1">  1        2 0.60380512E+00 0.84784486E+03</pdfrwt>
<pdfrwt beam="2">  1       -2 0.20899342E-01 0.84784486E+03</pdfrwt>
<totfact> 0.83678271E+00</totfact>
</mgrwt>
</event>
<event>
 4    2  0.3388003E-007  0.8560611E+03  0.7818608E-02  0.9600609E-01
          2   -1    0    0  501    0  0.00000000000E+00  0.00000000000E+00  0.42411778443E+03  0.42411778443E+03  0.25500000000E-02 0. -1.
         -2   -1    0    0    0  501 -0.00000000000E+00 -0.00000000000E+00 -0.12951597770E+04  0.12951597770E+04  0.25500000000E-02 0.  1.
    8880023    1    1    2    0    0 -0.45698223511E+03 -0.30032929318E+03 -0.75125513955E+03  0.11389578300E+04  0.65864270000E+03 0.  1.
    8880022    1    1    2    0    0  0.45698223511E+03  0.30032929318E+03 -0.11978685305E+03  0.58031973146E+03  0.15294330000E+03 0. -1.
<mgrwt>
<rscale>  0 0.77255905E+03</rscale>
<asrwt>0</asrwt>
<pdfrwt beam="1">  1        2 0.65248890E-01 0.85606113E+03</pdfrwt>
<pdfrwt beam="2">  1       -2 0.19925535E+00 0.85606113E+03</pdfrwt>
<totfact> 0.10091985E+01</totfact>
</mgrwt>
</event>
<event>
 4    2  0.3388003E-007  0.6676155E+03  0.7818608E-02  0.1017433E+00
          2   -1    0    0  501    0  0.00000000000E+00  0.00000000000E+00  0.16970351753E+04  0.16970351753E+04  0.25500000000E-02 0. -1.
         -2   -1    0    0    0  501 -0.00000000000E+00 -0.00000000000E+00 -0.63312767430E+03  0.63312767430E+03  0.25500000000E-02 0.  1.
    8880023    1    1    2    0    0  0.49278586613E+02 -0.97323408447E+02 -0.44969624536E+03  0.80494542938E+03  0.65864270000E+03 0.  1.
    8880022    1    1    2    0    0 -0.49278586613E+02  0.97323408447E+02  0.15136037464E+04  0.15252174202E+04  0.15294330000E+03 0.  0.
<mgrwt>
<rscale>  0 0.48624388E+03</rscale>
<asrwt>0</asrwt>
<pdfrwt beam="1">  1        2 0.26108234E+00 0.66761548E+03</pdfrwt>
<pdfrwt beam="2">  1       -2 0.97404257E-01 0.66761548E+03</pdfrwt>
<totfact> 0.90136645E+00</totfact>
</mgrwt>
</event>
<event>
 4    2  0.3388003E-007  0.6676021E+03  0.7818608E-02  0.1017443E+00
          2   -1    0    0  501    0  0.00000000000E+00  0.00000000000E+00  0.37904323738E+04  0.37904323738E+04  0.25500000000E-02 0. -1.
         -2   -1    0    0    0  501 -0.00000000000E+00 -0.00000000000E+00 -0.48586890525E+02  0.48586890592E+02  0.25500000000E-02 0.  1.
    8880023    1    1    2    0    0 -0.97774755685E+02 -0.48191875771E+02  0.30434126033E+04  0.31157748378E+04  0.65864270000E+03 0.  0.
    8880022    1    1    2    0    0  0.97774755685E+02  0.48191875771E+02  0.69843288004E+03  0.72324442665E+03  0.15294330000E+03 0. -1.
<mgrwt>
<rscale>  0 0.48620579E+03</rscale>
<asrwt>0</asrwt>
<pdfrwt beam="1">  1        2 0.58314329E+00 0.66760210E+03</pdfrwt>
<pdfrwt beam="2">  1       -2 0.74749082E-02 0.66760210E+03</pdfrwt>
<totfact> 0.60520921E+01</totfact>
</mgrwt>
</event>
<event>
 4    2  0.3388003E-007  0.1086421E+04  0.7818608E-02  0.9276327E-01
         -2   -1    0    0    0  501 -0.00000000000E+00  0.00000000000E+00  0.10118235964E+04  0.10118235964E+04  0.25500000000E-02 0.  1.
          2   -1    0    0  501    0  0.00000000000E+00 -0.00000000000E+00 -0.13888194206E+04  0.13888194206E+04  0.25500000000E-02 0. -1.
    8880023    1    1    2    0    0  0.47213062574E+03  0.72359771761E+03  0.46758619461E+03  0.11827713390E+04  0.65864270000E+03 0.  1.
    8880022    1    1    2    0    0 -0.47213062574E+03 -0.72359771761E+03 -0.84458201873E+03  0.12178716780E+04  0.15294330000E+03 0.  0.
<mgrwt>
<rscale>  0 0.10299176E+04</rscale>
<asrwt>0</asrwt>
<pdfrwt beam="1">  1        2 0.21366452E+00 0.10864213E+04</pdfrwt>
<pdfrwt beam="2">  1       -2 0.15566517E+00 0.10864213E+04</pdfrwt>
<totfact> 0.39165212E+00</totfact>
</mgrwt>
</event>
<event>
 4    2  0.3388003E-007  0.9695142E+03  0.7818608E-02  0.9422576E-01
         -2   -1    0    0    0  501 -0.00000000000E+00  0.00000000000E+00  0.69790534876E+03  0.69790534877E+03  0.25500000000E-02 0.  1.
          2   -1    0    0  501    0  0.00000000000E+00 -0.00000000000E+00 -0.12741523115E+04  0.12741523115E+04  0.25500000000E-02 0. -1.
    8880023    1    1    2    0    0 -0.48912665741E+03 -0.51662632174E+03 -0.74781413626E+03  0.12244116268E+04  0.65864270000E+03 0.  0.
    8880022    1    1    2    0    0  0.48912665741E+03  0.51662632174E+03  0.17156717350E+03  0.74764603345E+03  0.15294330000E+03 0.  0.
<mgrwt>
<rscale>  0 0.90240796E+03</rscale>
<asrwt>0</asrwt>
<pdfrwt beam="1">  1        2 0.19602343E+00 0.96951423E+03</pdfrwt>
<pdfrwt beam="2">  1       -2 0.10737005E+00 0.96951423E+03</pdfrwt>
<totfact> 0.11884539E+01</totfact>
</mgrwt>
</event>
<event>
 4    2  0.3388003E-007  0.9451063E+03  0.7818608E-02  0.9457190E-01
          2   -1    0    0  501    0  0.00000000000E+00  0.00000000000E+00  0.77266789246E+03  0.77266789246E+03  0.25500000000E-02 0. -1.
         -2   -1    0    0    0  501 -0.00000000000E+00 -0.00000000000E+00 -0.11643633328E+04  0.11643633328E+04  0.25500000000E-02 0.  1.
    8880023    1    1    2    0    0 -0.65795787993E+03  0.16281023288E+03 -0.70075348035E+03  0.11765548819E+04  0.65864270000E+03 0.  0.
    8880022    1    1    2    0    0  0.65795787993E+03 -0.16281023288E+03  0.30905804000E+03  0.76047634335E+03  0.15294330000E+03 0.  0.
<mgrwt>
<rscale>  0 0.87514948E+03</rscale>
<asrwt>0</asrwt>
<pdfrwt beam="1">  1        2 0.11887198E+00 0.94510632E+03</pdfrwt>
<pdfrwt beam="2">  1       -2 0.17913282E+00 0.94510632E+03</pdfrwt>
<totfact> 0.66134400E+00</totfact>
</mgrwt>
</event>
<event>
 4    2  0.3388003E-007  0.1038689E+04  0.7818608E-02  0.9332604E-01
         -2   -1    0    0    0  501 -0.00000000000E+00  0.00000000000E+00  0.14136108265E+04  0.14136108265E+04  0.25500000000E-02 0.  1.
          2   -1    0    0  501    0  0.00000000000E+00 -0.00000000000E+00 -0.78101202213E+03  0.78101202213E+03  0.25500000000E-02 0. -1.
    8880023    1    1    2    0    0  0.63674596920E+03 -0.48950885694E+03  0.85721976495E+03  0.13467369016E+04  0.65864270000E+03 0.  0.
    8880022    1    1    2    0    0 -0.63674596920E+03  0.48950885694E+03 -0.22462096058E+03  0.84788594708E+03  0.15294330000E+03 0.  0.
<mgrwt>
<rscale>  0 0.97835892E+03</rscale>
<asrwt>0</asrwt>
<pdfrwt beam="1">  1        2 0.12015570E+00 0.10386889E+04</pdfrwt>
<pdfrwt beam="2">  1       -2 0.21747859E+00 0.10386889E+04</pdfrwt>
<totfact> 0.36112590E+00</totfact>
</mgrwt>
</event>
<event>
 4    2  0.3388003E-007  0.6601063E+03  0.7818608E-02  0.1024048E+00
         -2   -1    0    0    0  501 -0.00000000000E+00  0.00000000000E+00  0.11070188150E+03  0.11070188153E+03  0.25500000000E-02 0.  1.
          2   -1    0    0  501    0  0.00000000000E+00 -0.00000000000E+00 -0.15564618957E+04  0.15564618957E+04  0.25500000000E-02 0. -1.
    8880023    1    1    2    0    0 -0.22106252816E+02 -0.37966103584E+02 -0.10457244543E+04  0.12366405913E+04  0.65864270000E+03 0.  1.
    8880022    1    1    2    0    0  0.22106252816E+02  0.37966103584E+02 -0.40003555993E+03  0.43052318597E+03  0.15294330000E+03 0. -1.
<mgrwt>
<rscale>  0 0.46253771E+03</rscale>
<asrwt>0</asrwt>
<pdfrwt beam="1">  1        2 0.23945566E+00 0.66010629E+03</pdfrwt>
<pdfrwt beam="2">  1       -2 0.17031060E-01 0.66010629E+03</pdfrwt>
<totfact> 0.33954338E+02</totfact>
</mgrwt>
</event>
<event>
 4    2  0.3388003E-007  0.7097145E+03  0.7818608E-02  0.9959063E-01
          2   -1    0    0  501    0  0.00000000000E+00  0.00000000000E+00  0.17485281252E+04  0.17485281252E+04  0.25500000000E-02 0. -1.
         -2   -1    0    0    0  501 -0.00000000000E+00 -0.00000000000E+00 -0.15477543201E+03  0.15477543203E+03  0.25500000000E-02 0.  1.
    8880023    1    1    2    0    0 -0.63727827127E+01 -0.26427978416E+03  0.90674820393E+03  0.11514716359E+04  0.65864270000E+03 0.  1.
    8880022    1    1    2    0    0  0.63727827127E+01  0.26427978416E+03  0.68700448927E+03  0.75183192135E+03  0.15294330000E+03 0. -1.
<mgrwt>
<rscale>  0 0.57482285E+03</rscale>
<asrwt>0</asrwt>
<pdfrwt beam="1">  1        2 0.26900433E+00 0.70971447E+03</pdfrwt>
<pdfrwt beam="2">  1       -2 0.23811605E-01 0.70971447E+03</pdfrwt>
<totfact> 0.14766129E+02</totfact>
</mgrwt>
</event>
<event>
 4    2  0.3388003E-007  0.7419158E+03  0.7818608E-02  0.9854401E-01
         -2   -1    0    0    0  501 -0.00000000000E+00  0.00000000000E+00  0.12007481653E+04  0.12007481653E+04  0.25500000000E-02 0.  1.
          2   -1    0    0  501    0  0.00000000000E+00 -0.00000000000E+00 -0.29721685059E+03  0.29721685060E+03  0.25500000000E-02 0. -1.
    8880023    1    1    2    0    0 -0.31048999297E+03 -0.14221401930E+03  0.83598309110E+03  0.11177239364E+04  0.65864270000E+03 0.  0.
    8880022    1    1    2    0    0  0.31048999297E+03  0.14221401930E+03  0.67548223562E+02  0.38024107950E+03  0.15294330000E+03 0.  0.
<mgrwt>
<rscale>  0 0.62523017E+03</rscale>
<asrwt>0</asrwt>
<pdfrwt beam="1">  1        2 0.45725668E-01 0.74191581E+03</pdfrwt>
<pdfrwt beam="2">  1       -2 0.18473049E+00 0.74191581E+03</pdfrwt>
<totfact> 0.18964148E+01</totfact>
</mgrwt>
</event>
<event>
 4    2  0.3388003E-007  0.7286288E+03  0.7818608E-02  0.9894402E-01
         -2   -1    0    0    0  501 -0.00000000000E+00  0.00000000000E+00  0.53808532209E+03  0.53808532210E+03  0.25500000000E-02 0.  1.
          2   -1    0    0  501    0  0.00000000000E+00 -0.00000000000E+00 -0.68212347663E+03  0.68212347663E+03  0.25500000000E-02 0. -1.
    8880023    1    1    2    0    0  0.16825643951E+03 -0.26225839136E+03  0.17434847763E+03  0.74919776507E+03  0.65864270000E+03 0.  1.
    8880022    1    1    2    0    0 -0.16825643951E+03  0.26225839136E+03 -0.31838663217E+03  0.47101103366E+03  0.15294330000E+03 0.  1.
<mgrwt>
<rscale>  0 0.60533351E+03</rscale>
<asrwt>0</asrwt>
<pdfrwt beam="1">  1        2 0.10494207E+00 0.72862878E+03</pdfrwt>
<pdfrwt beam="2">  1       -2 0.82782357E-01 0.72862878E+03</pdfrwt>
<totfact> 0.54942387E+01</totfact>
</mgrwt>
</event>
<event>
 4    2  0.3388003E-007  0.8411340E+03  0.7818608E-02  0.9628046E-01
         -2   -1    0    0    0  501 -0.00000000000E+00  0.00000000000E+00  0.53764905483E+03  0.53764905484E+03  0.25500000000E-02 0.  1.
          2   -1    0    0  501    0  0.00000000000E+00 -0.00000000000E+00 -0.22826283217E+04  0.22826283217E+04  0.25500000000E-02 0. -1.
    8880023    1    1    2    0    0  0.50208951704E+03  0.14697749613E+03  0.14476260103E+03  0.85350025449E+03  0.65864270000E+03 0.  0.
    8880022    1    1    2    0    0 -0.50208951704E+03 -0.14697749613E+03 -0.18897418679E+04  0.19667771220E+04  0.15294330000E+03 0.  0.
<mgrwt>
<rscale>  0 0.75467425E+03</rscale>
<asrwt>0</asrwt>
<pdfrwt beam="1">  1        2 0.35117358E+00 0.84113404E+03</pdfrwt>
<pdfrwt beam="2">  1       -2 0.82715241E-01 0.84113404E+03</pdfrwt>
<totfact> 0.61128322E+00</totfact>
</mgrwt>
</event>
<event>
 4    2  0.3388003E-007  0.8169341E+03  0.7818608E-02  0.9675310E-01
          2   -1    0    0  501    0  0.00000000000E+00  0.00000000000E+00  0.14346438956E+04  0.14346438956E+04  0.25500000000E-02 0. -1.
         -2   -1    0    0    0  501 -0.00000000000E+00 -0.00000000000E+00 -0.54343658764E+03  0.54343658765E+03  0.25500000000E-02 0.  1.
    8880023    1    1    2    0    0  0.48196107498E+03 -0.35842781795E+02 -0.14016095952E+03  0.82887060730E+03  0.65864270000E+03 0.  1.
    8880022    1    1    2    0    0 -0.48196107498E+03  0.35842781795E+02  0.10313682675E+04  0.11492098760E+04  0.15294330000E+03 0.  0.
<mgrwt>
<rscale>  0 0.72506021E+03</rscale>
<asrwt>0</asrwt>
<pdfrwt beam="1">  1        2 0.22071444E+00 0.81693414E+03</pdfrwt>
<pdfrwt beam="2">  1       -2 0.83605630E-01 0.81693414E+03</pdfrwt>
<totfact> 0.17556607E+01</totfact>
</mgrwt>
</event>
<event>
 4    2  0.3388003E-007  0.7381014E+03  0.7818608E-02  0.9865512E-01
          2   -1    0    0  501    0  0.00000000000E+00  0.00000000000E+00  0.24273343550E+04  0.24273343550E+04  0.25500000000E-02 0. -1.
         -2   -1    0    0    0  501 -0.00000000000E+00 -0.00000000000E+00 -0.21936708806E+03  0.21936708807E+03  0.25500000000E-02 0.  1.
    8880023    1    1    2    0    0  0.31437305266E+03  0.11024085282E+03  0.48039546430E+03  0.88066649207E+03  0.65864270000E+03 0.  1.
    8880022    1    1    2    0    0 -0.31437305266E+03 -0.11024085282E+03  0.17275718026E+04  0.17660349510E+04  0.15294330000E+03 0.  0.
<mgrwt>
<rscale>  0 0.61962207E+03</rscale>
<asrwt>0</asrwt>
<pdfrwt beam="1">  1        2 0.37343603E+00 0.73810139E+03</pdfrwt>
<pdfrwt beam="2">  1       -2 0.33748785E-01 0.73810139E+03</pdfrwt>
<totfact> 0.32839768E+01</totfact>
</mgrwt>
</event>
<event>
 4    2  0.3388003E-007  0.7257093E+03  0.7818608E-02  0.9903721E-01
         -2   -1    0    0    0  501 -0.00000000000E+00  0.00000000000E+00  0.90341281285E+03  0.90341281285E+03  0.25500000000E-02 0.  1.
          2   -1    0    0  501    0  0.00000000000E+00 -0.00000000000E+00 -0.31780643718E+03  0.31780643719E+03  0.25500000000E-02 0. -1.
    8880023    1    1    2    0    0  0.28569214303E+03  0.10594211697E+03  0.45249117780E+03  0.85522055926E+03  0.65864270000E+03 0.  0.
    8880022    1    1    2    0    0 -0.28569214303E+03 -0.10594211697E+03  0.13311519787E+03  0.36599869078E+03  0.15294330000E+03 0. -1.
<mgrwt>
<rscale>  0 0.60081297E+03</rscale>
<asrwt>0</asrwt>
<pdfrwt beam="1">  1        2 0.48893299E-01 0.72570927E+03</pdfrwt>
<pdfrwt beam="2">  1       -2 0.13898658E+00 0.72570927E+03</pdfrwt>
<totfact> 0.38165908E+01</totfact>
</mgrwt>
</event>
<event>
 4    2  0.3388003E-007  0.7311278E+03  0.7818608E-02  0.9886588E-01
         -2   -1    0    0    0  501 -0.00000000000E+00  0.00000000000E+00  0.94344767260E+03  0.94344767260E+03  0.25500000000E-02 0.  1.
          2   -1    0    0  501    0  0.00000000000E+00 -0.00000000000E+00 -0.11557705872E+04  0.11557705872E+04  0.25500000000E-02 0. -1.
    8880023    1    1    2    0    0 -0.30760202666E+03 -0.78221844727E+02  0.76628393791E+03  0.10591217794E+04  0.65864270000E+03 0.  1.
    8880022    1    1    2    0    0  0.30760202666E+03  0.78221844727E+02 -0.97860685247E+03  0.10400964804E+04  0.15294330000E+03 0.  0.
<mgrwt>
<rscale>  0 0.60915705E+03</rscale>
<asrwt>0</asrwt>
<pdfrwt beam="1">  1        2 0.17781086E+00 0.73112781E+03</pdfrwt>
<pdfrwt beam="2">  1       -2 0.14514580E+00 0.73112781E+03</pdfrwt>
<totfact> 0.67324709E+00</totfact>
</mgrwt>
</event>
<event>
 4    2  0.3388003E-007  0.1273695E+04  0.7818608E-02  0.9088616E-01
          2   -1    0    0  501    0  0.00000000000E+00  0.00000000000E+00  0.39588029926E+04  0.39588029926E+04  0.25500000000E-02 0. -1.
         -2   -1    0    0    0  501 -0.00000000000E+00 -0.00000000000E+00 -0.61912189453E+03  0.61912189454E+03  0.25500000000E-02 0.  1.
    8880023    1    1    2    0    0 -0.83041721655E+03 -0.70632527435E+03  0.25001781031E+03  0.12980012552E+04  0.65864270000E+03 0.  1.
    8880022    1    1    2    0    0  0.83041721655E+03  0.70632527435E+03  0.30896632877E+04  0.32799236319E+04  0.15294330000E+03 0.  0.
<mgrwt>
<rscale>  0 0.12280936E+04</rscale>
<asrwt>0</asrwt>
<pdfrwt beam="1">  1        2 0.60904664E+00 0.12736948E+04</pdfrwt>
<pdfrwt beam="2">  1       -2 0.95249519E-01 0.12736948E+04</pdfrwt>
<totfact> 0.34249796E-01</totfact>
</mgrwt>
</event>
<event>
 4    2  0.3388003E-007  0.8190703E+03  0.7818608E-02  0.9670985E-01
         -2   -1    0    0    0  501 -0.00000000000E+00  0.00000000000E+00  0.23227144214E+03  0.23227144216E+03  0.25500000000E-02 0.  1.
          2   -1    0    0  501    0  0.00000000000E+00 -0.00000000000E+00 -0.24595921756E+04  0.24595921756E+04  0.25500000000E-02 0. -1.
    8880023    1    1    2    0    0  0.41084914913E+03  0.26128323828E+03 -0.68648476269E+03  0.10687083277E+04  0.65864270000E+03 0.  1.
    8880022    1    1    2    0    0 -0.41084914913E+03 -0.26128323828E+03 -0.15408359707E+04  0.16231552901E+04  0.15294330000E+03 0.  0.
<mgrwt>
<rscale>  0 0.72770945E+03</rscale>
<asrwt>0</asrwt>
<pdfrwt beam="1">  1        2 0.37839878E+00 0.81907030E+03</pdfrwt>
<pdfrwt beam="2">  1       -2 0.35734070E-01 0.81907030E+03</pdfrwt>
<totfact> 0.27935794E+01</totfact>
</mgrwt>
</event>
<event>
 4    2  0.7367380E-007  0.7589420E+03  0.7818608E-02  0.9807854E-01
          2   -1    0    0  501    0  0.00000000000E+00  0.00000000000E+00  0.26094257358E+04  0.26094257358E+04  0.25500000000E-02 0. -1.
         -2   -1    0    0    0  501 -0.00000000000E+00 -0.00000000000E+00 -0.12349953370E+04  0.12349953370E+04  0.25500000000E-02 0.  1.
    8880023    1    1    2    0    0  0.14858805396E+03  0.34656072948E+03 -0.11001913433E+04  0.13365679733E+04  0.65864270000E+03 0.  1.
    8880022    1    1    2    0    0 -0.14858805396E+03 -0.34656072948E+03  0.24746217422E+04  0.25078530996E+04  0.15294330000E+03 0.  0.
<mgrwt>
<rscale>  0 0.64942737E+03</rscale>
<asrwt>0</asrwt>
<pdfrwt beam="1">  1        2 0.40145011E+00 0.75894200E+03</pdfrwt>
<pdfrwt beam="2">  1       -2 0.18999929E+00 0.75894200E+03</pdfrwt>
<totfact> 0.49280928E-01</totfact>
</mgrwt>
</event>
<event>
 4    2  0.3388003E-007  0.8406066E+03  0.7818608E-02  0.9629037E-01
         -2   -1    0    0    0  501 -0.00000000000E+00  0.00000000000E+00  0.68884962824E+03  0.68884962824E+03  0.25500000000E-02 0.  1.
          2   -1    0    0  501    0  0.00000000000E+00 -0.00000000000E+00 -0.11195770545E+04  0.11195770545E+04  0.25500000000E-02 0. -1.
    8880023    1    1    2    0    0  0.14036169958E+03 -0.50309828751E+03  0.30417015317E+03  0.89394573770E+03  0.65864270000E+03 0.  0.
    8880022    1    1    2    0    0 -0.14036169958E+03  0.50309828751E+03 -0.73489757944E+03  0.91448094507E+03  0.15294330000E+03 0.  0.
<mgrwt>
<rscale>  0 0.75403744E+03</rscale>
<asrwt>0</asrwt>
<pdfrwt beam="1">  1        2 0.17224262E+00 0.84060663E+03</pdfrwt>
<pdfrwt beam="2">  1       -2 0.10597687E+00 0.84060663E+03</pdfrwt>
<totfact> 0.15360625E+01</totfact>
</mgrwt>
</event>
<event>
 4    2  0.3388003E-007  0.7449316E+03  0.7818608E-02  0.9845808E-01
          2   -1    0    0  501    0  0.00000000000E+00  0.00000000000E+00  0.13318526481E+04  0.13318526481E+04  0.25500000000E-02 0. -1.
         -2   -1    0    0    0  501 -0.00000000000E+00 -0.00000000000E+00 -0.29059347318E+03  0.29059347319E+03  0.25500000000E-02 0.  1.
    8880023    1    1    2    0    0 -0.33176160067E+03 -0.10510549298E+03  0.32744553488E+03  0.81372213249E+03  0.65864270000E+03 0.  1.
    8880022    1    1    2    0    0  0.33176160067E+03  0.10510549298E+03  0.71381364001E+03  0.80872398877E+03  0.15294330000E+03 0. -1.
<mgrwt>
<rscale>  0 0.62961130E+03</rscale>
<asrwt>0</asrwt>
<pdfrwt beam="1">  1        2 0.20490041E+00 0.74493163E+03</pdfrwt>
<pdfrwt beam="2">  1       -2 0.44706688E-01 0.74493163E+03</pdfrwt>
<totfact> 0.76529604E+01</totfact>
</mgrwt>
</event>
<event>
 4    2  0.3388003E-007  0.1124001E+04  0.7818608E-02  0.9234793E-01
         -2   -1    0    0    0  501 -0.00000000000E+00  0.00000000000E+00  0.47687421149E+03  0.47687421150E+03  0.25500000000E-02 0.  1.
          2   -1    0    0  501    0  0.00000000000E+00 -0.00000000000E+00 -0.33571618031E+04  0.33571618031E+04  0.25500000000E-02 0. -1.
    8880023    1    1    2    0    0  0.58214620543E+03  0.70048169968E+03 -0.40948675641E+03  0.11962685426E+04  0.65864270000E+03 0.  1.
    8880022    1    1    2    0    0 -0.58214620543E+03 -0.70048169968E+03 -0.24708008352E+04  0.26377674720E+04  0.15294330000E+03 0. -1.
<mgrwt>
<rscale>  0 0.10701416E+04</rscale>
<asrwt>0</asrwt>
<pdfrwt beam="1">  1        2 0.51648642E+00 0.11240013E+04</pdfrwt>
<pdfrwt beam="2">  1       -2 0.73365266E-01 0.11240013E+04</pdfrwt>
<totfact> 0.17299940E+00</totfact>
</mgrwt>
</event>
<event>
 4    2  0.3388003E-007  0.1213113E+04  0.7818608E-02  0.9144480E-01
          2   -1    0    0  501    0  0.00000000000E+00  0.00000000000E+00  0.18789635474E+04  0.18789635474E+04  0.25500000000E-02 0. -1.
         -2   -1    0    0    0  501 -0.00000000000E+00 -0.00000000000E+00 -0.96114438341E+03  0.96114438341E+03  0.25500000000E-02 0.  1.
    8880023    1    1    2    0    0  0.16866712233E+03  0.10046816085E+04  0.12653316226E+04  0.17529141604E+04  0.65864270000E+03 0.  0.
    8880022    1    1    2    0    0 -0.16866712233E+03 -0.10046816085E+04 -0.34751245856E+03  0.10871937704E+04  0.15294330000E+03 0.  0.
<mgrwt>
<rscale>  0 0.11645335E+04</rscale>
<asrwt>0</asrwt>
<pdfrwt beam="1">  1        2 0.28907131E+00 0.12131133E+04</pdfrwt>
<pdfrwt beam="2">  1       -2 0.14786837E+00 0.12131133E+04</pdfrwt>
<totfact> 0.23583015E+00</totfact>
</mgrwt>
</event>
<event>
 4    2  0.3388003E-007  0.7679968E+03  0.7818608E-02  0.9784828E-01
          2   -1    0    0  501    0  0.00000000000E+00  0.00000000000E+00  0.36312602418E+04  0.36312602418E+04  0.25500000000E-02 0. -1.
         -2   -1    0    0    0  501 -0.00000000000E+00 -0.00000000000E+00 -0.10902299842E+03  0.10902299845E+03  0.25500000000E-02 0.  1.
    8880023    1    1    2    0    0 -0.39290998971E+03 -0.40381494285E+02  0.16391201016E+04  0.18101198410E+04  0.65864270000E+03 0.  1.
    8880022    1    1    2    0    0  0.39290998971E+03  0.40381494285E+02  0.18831171418E+04  0.19301633993E+04  0.15294330000E+03 0. -1.
<mgrwt>
<rscale>  0 0.66183168E+03</rscale>
<asrwt>0</asrwt>
<pdfrwt beam="1">  1        2 0.55865534E+00 0.76799683E+03</pdfrwt>
<pdfrwt beam="2">  1       -2 0.16772771E-01 0.76799683E+03</pdfrwt>
<totfact> 0.20480319E+01</totfact>
</mgrwt>
</event>
<event>
 4    2  0.3388003E-007  0.1116863E+04  0.7818608E-02  0.9242510E-01
          2   -1    0    0  501    0  0.00000000000E+00  0.00000000000E+00  0.10264706634E+04  0.10264706634E+04  0.25500000000E-02 0. -1.
         -2   -1    0    0    0  501 -0.00000000000E+00 -0.00000000000E+00 -0.23773080402E+04  0.23773080402E+04  0.25500000000E-02 0.  1.
    8880023    1    1    2    0    0  0.72608955875E+03 -0.53513168084E+03  0.58635486715E+03  0.12614254634E+04  0.65864270000E+03 0.  0.
    8880022    1    1    2    0    0 -0.72608955875E+03  0.53513168084E+03 -0.19371922439E+04  0.21423532402E+04  0.15294330000E+03 0.  0.
<mgrwt>
<rscale>  0 0.10625225E+04</rscale>
<asrwt>0</asrwt>
<pdfrwt beam="1">  1        2 0.15791856E+00 0.11168626E+04</pdfrwt>
<pdfrwt beam="2">  1       -2 0.36573970E+00 0.11168626E+04</pdfrwt>
<totfact> 0.29805797E-01</totfact>
</mgrwt>
</event>
<event>
 4    2  0.3388003E-007  0.6986817E+03  0.7818608E-02  0.1000271E+00
         -2   -1    0    0    0  501 -0.00000000000E+00  0.00000000000E+00  0.75821983114E+03  0.75821983114E+03  0.25500000000E-02 0.  1.
          2   -1    0    0  501    0  0.00000000000E+00 -0.00000000000E+00 -0.46060454727E+03  0.46060454728E+03  0.25500000000E-02 0. -1.
    8880023    1    1    2    0    0 -0.21125825145E+03 -0.98569356716E+02  0.51276382194E+03  0.86665039678E+03  0.65864270000E+03 0.  0.
    8880022    1    1    2    0    0  0.21125825145E+03  0.98569356716E+02 -0.21514853807E+03  0.35217398163E+03  0.15294330000E+03 0.  0.
<mgrwt>
<rscale>  0 0.55531378E+03</rscale>
<asrwt>0</asrwt>
<pdfrwt beam="1">  1        2 0.70862238E-01 0.69868174E+03</pdfrwt>
<pdfrwt beam="2">  1       -2 0.11664920E+00 0.69868174E+03</pdfrwt>
<totfact> 0.39159818E+01</totfact>
</mgrwt>
</event>
<event>
 4    2  0.3388003E-007  0.6912249E+03  0.7818608E-02  0.1003576E+00
          2   -1    0    0  501    0  0.00000000000E+00  0.00000000000E+00  0.95744254573E+03  0.95744254573E+03  0.25500000000E-02 0. -1.
         -2   -1    0    0    0  501 -0.00000000000E+00 -0.00000000000E+00 -0.35873441079E+03  0.35873441080E+03  0.25500000000E-02 0.  1.
    8880023    1    1    2    0    0  0.20437139087E+03 -0.47053692606E+02  0.74659008717E+03  0.10174422244E+04  0.65864270000E+03 0. -1.
    8880022    1    1    2    0    0 -0.20437139087E+03  0.47053692606E+02 -0.14788195223E+03  0.29873473217E+03  0.15294330000E+03 0.  0.
<mgrwt>
<rscale>  0 0.54109757E+03</rscale>
<asrwt>0</asrwt>
<pdfrwt beam="1">  1        2 0.14729885E+00 0.69122494E+03</pdfrwt>
<pdfrwt beam="2">  1       -2 0.55189910E-01 0.69122494E+03</pdfrwt>
<totfact> 0.84399051E+01</totfact>
</mgrwt>
</event>
<event>
 4    2  0.3388003E-007  0.6986763E+03  0.7818608E-02  0.1000274E+00
         -2   -1    0    0    0  501 -0.00000000000E+00  0.00000000000E+00  0.68160214328E+03  0.68160214329E+03  0.25500000000E-02 0.  1.
          2   -1    0    0  501    0  0.00000000000E+00 -0.00000000000E+00 -0.68495248185E+03  0.68495248185E+03  0.25500000000E-02 0. -1.
    8880023    1    1    2    0    0  0.89910936259E+02 -0.21506836309E+03  0.45235386540E+03  0.83232962405E+03  0.65864270000E+03 0.  1.
    8880022    1    1    2    0    0 -0.89910936259E+02  0.21506836309E+03 -0.45570420397E+03  0.53422500109E+03  0.15294330000E+03 0.  0.
<mgrwt>
<rscale>  0 0.55530376E+03</rscale>
<asrwt>0</asrwt>
<pdfrwt beam="1">  1        2 0.10537730E+00 0.69867631E+03</pdfrwt>
<pdfrwt beam="2">  1       -2 0.10486187E+00 0.69867631E+03</pdfrwt>
<totfact> 0.31607675E+01</totfact>
</mgrwt>
</event>
<event>
 4    2  0.3388003E-007  0.6603679E+03  0.7818608E-02  0.1023783E+00
          2   -1    0    0  501    0  0.00000000000E+00  0.00000000000E+00  0.47523644358E+04  0.47523644358E+04  0.25500000000E-02 0. -1.
         -2   -1    0    0    0  501 -0.00000000000E+00 -0.00000000000E+00 -0.11528318717E+03  0.11528318720E+03  0.25500000000E-02 0.  1.
    8880023    1    1    2    0    0 -0.77950729638E+01  0.47061634669E+02  0.84617839416E+03  0.10733609093E+04  0.65864270000E+03 0.  1.
    8880022    1    1    2    0    0  0.77950729638E+01 -0.47061634669E+02  0.37909028544E+04  0.37942867136E+04  0.15294330000E+03 0.  0.
<mgrwt>
<rscale>  0 0.46345952E+03</rscale>
<asrwt>0</asrwt>
<pdfrwt beam="1">  1        2 0.73113300E+00 0.66036790E+03</pdfrwt>
<pdfrwt beam="2">  1       -2 0.17735875E-01 0.66036790E+03</pdfrwt>
<totfact> 0.20878808E+00</totfact>
</mgrwt>
</event>
<event>
 4    2  0.3388003E-007  0.8051909E+03  0.7818608E-02  0.9699683E-01
         -2   -1    0    0    0  501 -0.00000000000E+00  0.00000000000E+00  0.28404085205E+03  0.28404085206E+03  0.25500000000E-02 0.  1.
          2   -1    0    0  501    0  0.00000000000E+00 -0.00000000000E+00 -0.35788787873E+04  0.35788787873E+04  0.25500000000E-02 0. -1.
    8880023    1    1    2    0    0 -0.46315885068E+03  0.24485168224E+01 -0.35001803265E+03  0.87797775919E+03  0.65864270000E+03 0.  1.
    8880022    1    1    2    0    0  0.46315885068E+03 -0.24485168224E+01 -0.29448199026E+04  0.29849418801E+04  0.15294330000E+03 0.  0.
<mgrwt>
<rscale>  0 0.71035685E+03</rscale>
<asrwt>0</asrwt>
<pdfrwt beam="1">  1        2 0.55059670E+00 0.80519086E+03</pdfrwt>
<pdfrwt beam="2">  1       -2 0.43698595E-01 0.80519086E+03</pdfrwt>
<totfact> 0.38199074E+00</totfact>
</mgrwt>
</event>
<event>
 4    2  0.3388003E-007  0.7676663E+03  0.7818608E-02  0.9785650E-01
          2   -1    0    0  501    0  0.00000000000E+00  0.00000000000E+00  0.10031339154E+04  0.10031339154E+04  0.25500000000E-02 0. -1.
         -2   -1    0    0    0  501 -0.00000000000E+00 -0.00000000000E+00 -0.57166423674E+03  0.57166423675E+03  0.25500000000E-02 0.  1.
    8880023    1    1    2    0    0  0.33740016913E+03 -0.20411367442E+03 -0.21955312210E+03  0.79844539319E+03  0.65864270000E+03 0.  0.
    8880022    1    1    2    0    0 -0.33740016913E+03  0.20411367442E+03  0.65102280073E+03  0.77635275893E+03  0.15294330000E+03 0.  0.
<mgrwt>
<rscale>  0 0.66138369E+03</rscale>
<asrwt>0</asrwt>
<pdfrwt beam="1">  1        2 0.15432829E+00 0.76766625E+03</pdfrwt>
<pdfrwt beam="2">  1       -2 0.87948346E-01 0.76766625E+03</pdfrwt>
<totfact> 0.28346746E+01</totfact>
</mgrwt>
</event>
<event>
 4    2  0.3388003E-007  0.7113617E+03  0.7818608E-02  0.9952979E-01
          2   -1    0    0  501    0  0.00000000000E+00  0.00000000000E+00  0.13892766563E+04  0.13892766563E+04  0.25500000000E-02 0. -1.
         -2   -1    0    0    0  501 -0.00000000000E+00 -0.00000000000E+00 -0.39652731902E+03  0.39652731903E+03  0.25500000000E-02 0.  1.
    8880023    1    1    2    0    0  0.26001298635E+03 -0.67959452182E+02 -0.35320220898E+02  0.71223799708E+03  0.65864270000E+03 0.  1.
    8880022    1    1    2    0    0 -0.26001298635E+03  0.67959452182E+02  0.10280695582E+04  0.10735659783E+04  0.15294330000E+03 0.  0.
<mgrwt>
<rscale>  0 0.57760997E+03</rscale>
<asrwt>0</asrwt>
<pdfrwt beam="1">  1        2 0.21373487E+00 0.71136168E+03</pdfrwt>
<pdfrwt beam="2">  1       -2 0.61004204E-01 0.71136168E+03</pdfrwt>
<totfact> 0.37626520E+01</totfact>
</mgrwt>
</event>
<event>
 4    2  0.3388003E-007  0.7478074E+03  0.7818608E-02  0.9837762E-01
         -2   -1    0    0    0  501 -0.00000000000E+00  0.00000000000E+00  0.13886098348E+04  0.13886098348E+04  0.25500000000E-02 0.  1.
          2   -1    0    0  501    0  0.00000000000E+00 -0.00000000000E+00 -0.58749288113E+03  0.58749288114E+03  0.25500000000E-02 0. -1.
    8880023    1    1    2    0    0 -0.29294114545E+03 -0.19897517811E+03  0.12046334645E+04  0.14178708073E+04  0.65864270000E+03 0.  1.
    8880022    1    1    2    0    0  0.29294114545E+03  0.19897517811E+03 -0.40351651087E+03  0.55823190858E+03  0.15294330000E+03 0. -1.
<mgrwt>
<rscale>  0 0.63374811E+03</rscale>
<asrwt>0</asrwt>
<pdfrwt beam="1">  1        2 0.90383521E-01 0.74780736E+03</pdfrwt>
<pdfrwt beam="2">  1       -2 0.21363228E+00 0.74780736E+03</pdfrwt>
<totfact> 0.56457532E+00</totfact>
</mgrwt>
</event>
<event>
 4    2  0.3388003E-007  0.7735398E+03  0.7818608E-02  0.9771237E-01
          2   -1    0    0  501    0  0.00000000000E+00  0.00000000000E+00  0.23248031788E+04  0.23248031788E+04  0.25500000000E-02 0. -1.
         -2   -1    0    0    0  501 -0.00000000000E+00 -0.00000000000E+00 -0.16105583536E+03  0.16105583538E+03  0.25500000000E-02 0.  1.
    8880023    1    1    2    0    0 -0.32860102375E+03  0.23785485936E+03  0.15751324890E+04  0.17548236752E+04  0.65864270000E+03 0. -1.
    8880022    1    1    2    0    0  0.32860102375E+03 -0.23785485936E+03  0.58861485443E+03  0.73103533895E+03  0.15294330000E+03 0.  1.
<mgrwt>
<rscale>  0 0.66929240E+03</rscale>
<asrwt>0</asrwt>
<pdfrwt beam="1">  1        2 0.35766202E+00 0.77353977E+03</pdfrwt>
<pdfrwt beam="2">  1       -2 0.24777822E-01 0.77353977E+03</pdfrwt>
<totfact> 0.65996914E+01</totfact>
</mgrwt>
</event>
<event>
 4    2  0.3388003E-007  0.1232824E+04  0.7818608E-02  0.9125857E-01
          2   -1    0    0  501    0  0.00000000000E+00  0.00000000000E+00  0.52497412758E+04  0.52497412758E+04  0.25500000000E-02 0. -1.
         -2   -1    0    0    0  501 -0.00000000000E+00 -0.00000000000E+00 -0.32878073152E+03  0.32878073153E+03  0.25500000000E-02 0.  1.
    8880023    1    1    2    0    0  0.64239109445E+03 -0.82059704485E+03  0.39785050165E+04  0.41651360363E+04  0.65864270000E+03 0.  0.
    8880022    1    1    2    0    0 -0.64239109445E+03  0.82059704485E+03  0.94245552777E+03  0.14133859710E+04  0.15294330000E+03 0.  0.
<mgrwt>
<rscale>  0 0.11852604E+04</rscale>
<asrwt>0</asrwt>
<pdfrwt beam="1">  1        2 0.80765243E+00 0.12328244E+04</pdfrwt>
<pdfrwt beam="2">  1       -2 0.50581656E-01 0.12328244E+04</pdfrwt>
<totfact> 0.61402026E-02</totfact>
</mgrwt>
</event>
<event>
 4    2  0.3388003E-007  0.8123016E+03  0.7818608E-02  0.9684803E-01
         -2   -1    0    0    0  501 -0.00000000000E+00  0.00000000000E+00  0.64029554346E+03  0.64029554347E+03  0.25500000000E-02 0.  1.
          2   -1    0    0  501    0  0.00000000000E+00 -0.00000000000E+00 -0.11427744918E+04  0.11427744918E+04  0.25500000000E-02 0. -1.
    8880023    1    1    2    0    0  0.78201940613E+02  0.46894361994E+03  0.27622111396E+03  0.85798133561E+03  0.65864270000E+03 0.  1.
    8880022    1    1    2    0    0 -0.78201940613E+02 -0.46894361994E+03 -0.77870006233E+03  0.92508869968E+03  0.15294330000E+03 0.  0.
<mgrwt>
<rscale>  0 0.71928891E+03</rscale>
<asrwt>0</asrwt>
<pdfrwt beam="1">  1        2 0.17581146E+00 0.81230159E+03</pdfrwt>
<pdfrwt beam="2">  1       -2 0.98507007E-01 0.81230159E+03</pdfrwt>
<totfact> 0.17757835E+01</totfact>
</mgrwt>
</event>
<event>
 4    2  0.3388003E-007  0.7368939E+03  0.7818608E-02  0.9869089E-01
          2   -1    0    0  501    0  0.00000000000E+00  0.00000000000E+00  0.14756799945E+04  0.14756799945E+04  0.25500000000E-02 0. -1.
         -2   -1    0    0    0  501 -0.00000000000E+00 -0.00000000000E+00 -0.34242847240E+03  0.34242847241E+03  0.25500000000E-02 0.  1.
    8880023    1    1    2    0    0  0.26491322342E+03  0.19754358628E+03  0.12668821480E+03  0.74770488460E+03  0.65864270000E+03 0.  1.
    8880022    1    1    2    0    0 -0.26491322342E+03 -0.19754358628E+03  0.10065633073E+04  0.10704035823E+04  0.15294330000E+03 0.  0.
<mgrwt>
<rscale>  0 0.61783041E+03</rscale>
<asrwt>0</asrwt>
<pdfrwt beam="1">  1        2 0.22702768E+00 0.73689395E+03</pdfrwt>
<pdfrwt beam="2">  1       -2 0.52681305E-01 0.73689395E+03</pdfrwt>
<totfact> 0.45570016E+01</totfact>
</mgrwt>
</event>
<event>
 4    2  0.3388003E-007  0.9674266E+03  0.7818608E-02  0.9425472E-01
          2   -1    0    0  501    0  0.00000000000E+00  0.00000000000E+00  0.25092817302E+04  0.25092817302E+04  0.25500000000E-02 0. -1.
         -2   -1    0    0    0  501 -0.00000000000E+00 -0.00000000000E+00 -0.99763720092E+03  0.99763720092E+03  0.25500000000E-02 0.  1.
    8880023    1    1    2    0    0 -0.29938374561E+03  0.64224085107E+03 -0.69047103846E+03  0.11885555936E+04  0.65864270000E+03 0.  0.
    8880022    1    1    2    0    0  0.29938374561E+03 -0.64224085107E+03  0.22021155677E+04  0.23183633375E+04  0.15294330000E+03 0.  0.
<mgrwt>
<rscale>  0 0.90008731E+03</rscale>
<asrwt>0</asrwt>
<pdfrwt beam="1">  1        2 0.38604334E+00 0.96742656E+03</pdfrwt>
<pdfrwt beam="2">  1       -2 0.15348265E+00 0.96742656E+03</pdfrwt>
<totfact> 0.97991653E-01</totfact>
</mgrwt>
</event>
<event>
 4    2  0.3388003E-007  0.8063303E+03  0.7818608E-02  0.9697272E-01
         -2   -1    0    0    0  501 -0.00000000000E+00  0.00000000000E+00  0.94066666644E+03  0.94066666645E+03  0.25500000000E-02 0.  1.
          2   -1    0    0  501    0  0.00000000000E+00 -0.00000000000E+00 -0.10779664192E+04  0.10779664192E+04  0.25500000000E-02 0. -1.
    8880023    1    1    2    0    0  0.39029651618E+03  0.25303541366E+03  0.68737359063E+03  0.10595522406E+04  0.65864270000E+03 0.  0.
    8880022    1    1    2    0    0 -0.39029651618E+03 -0.25303541366E+03 -0.82467334338E+03  0.95908084508E+03  0.15294330000E+03 0.  0.
<mgrwt>
<rscale>  0 0.71179435E+03</rscale>
<asrwt>0</asrwt>
<pdfrwt beam="1">  1        2 0.16584099E+00 0.80633027E+03</pdfrwt>
<pdfrwt beam="2">  1       -2 0.14471795E+00 0.80633027E+03</pdfrwt>
<totfact> 0.74942417E+00</totfact>
</mgrwt>
</event>
<event>
 4    2  0.3388003E-007  0.1141413E+04  0.7818608E-02  0.9216290E-01
         -2   -1    0    0    0  501 -0.00000000000E+00  0.00000000000E+00  0.23226259596E+04  0.23226259596E+04  0.25500000000E-02 0.  1.
          2   -1    0    0  501    0  0.00000000000E+00 -0.00000000000E+00 -0.48897207185E+03  0.48897207186E+03  0.25500000000E-02 0. -1.
    8880023    1    1    2    0    0  0.75953455214E+03  0.54048290428E+03  0.12867145349E+04  0.17200171529E+04  0.65864270000E+03 0.  0.
    8880022    1    1    2    0    0 -0.75953455214E+03 -0.54048290428E+03  0.54693935285E+03  0.10915808786E+04  0.15294330000E+03 0.  1.
<mgrwt>
<rscale>  0 0.10886858E+04</rscale>
<asrwt>0</asrwt>
<pdfrwt beam="1">  1        2 0.75226472E-01 0.11414135E+04</pdfrwt>
<pdfrwt beam="2">  1       -2 0.35732707E+00 0.11414135E+04</pdfrwt>
<totfact> 0.88213615E-01</totfact>
</mgrwt>
</event>
<event>
 4    2  0.3388003E-007  0.7688372E+03  0.7818608E-02  0.9782744E-01
         -2   -1    0    0    0  501 -0.00000000000E+00  0.00000000000E+00  0.42573993267E+03  0.42573993268E+03  0.25500000000E-02 0.  1.
          2   -1    0    0  501    0  0.00000000000E+00 -0.00000000000E+00 -0.15339384349E+04  0.15339384349E+04  0.25500000000E-02 0. -1.
    8880023    1    1    2    0    0 -0.38980397876E+03 -0.73166631051E+02  0.41788568623E+01  0.76884859814E+03  0.65864270000E+03 0.  1.
    8880022    1    1    2    0    0  0.38980397876E+03  0.73166631051E+02 -0.11123773591E+04  0.11908297695E+04  0.15294330000E+03 0.  0.
<mgrwt>
<rscale>  0 0.66296900E+03</rscale>
<asrwt>0</asrwt>
<pdfrwt beam="1">  1        2 0.23599053E+00 0.76883724E+03</pdfrwt>
<pdfrwt beam="2">  1       -2 0.65498452E-01 0.76883724E+03</pdfrwt>
<totfact> 0.26654549E+01</totfact>
</mgrwt>
</event>
<event>
 4    2  0.3388003E-007  0.8123334E+03  0.7818608E-02  0.9684737E-01
          2   -1    0    0  501    0  0.00000000000E+00  0.00000000000E+00  0.13602833060E+04  0.13602833060E+04  0.25500000000E-02 0. -1.
         -2   -1    0    0    0  501 -0.00000000000E+00 -0.00000000000E+00 -0.41085987815E+03  0.41085987815E+03  0.25500000000E-02 0.  1.
    8880023    1    1    2    0    0  0.47418439272E+03  0.34993216938E+02  0.14633838521E+03  0.82540928804E+03  0.65864270000E+03 0.  0.
    8880022    1    1    2    0    0 -0.47418439272E+03 -0.34993216938E+02  0.80308504268E+03  0.94573389615E+03  0.15294330000E+03 0.  0.
<mgrwt>
<rscale>  0 0.71932868E+03</rscale>
<asrwt>0</asrwt>
<pdfrwt beam="1">  1        2 0.20927435E+00 0.81233341E+03</pdfrwt>
<pdfrwt beam="2">  1       -2 0.63209212E-01 0.81233341E+03</pdfrwt>
<totfact> 0.35856571E+01</totfact>
</mgrwt>
</event>
<event>
 4    2  0.3388003E-007  0.7242902E+03  0.7818608E-02  0.9908328E-01
          2   -1    0    0  501    0  0.00000000000E+00  0.00000000000E+00  0.54776166120E+03  0.54776166121E+03  0.25500000000E-02 0. -1.
         -2   -1    0    0    0  501 -0.00000000000E+00 -0.00000000000E+00 -0.10949428513E+04  0.10949428513E+04  0.25500000000E-02 0.  1.
    8880023    1    1    2    0    0 -0.28071593538E+03  0.10947458438E+03 -0.89928700872E+03  0.11546919292E+04  0.65864270000E+03 0.  1.
    8880022    1    1    2    0    0  0.28071593538E+03 -0.10947458438E+03  0.35210581860E+03  0.48801258335E+03  0.15294330000E+03 0.  0.
<mgrwt>
<rscale>  0 0.59859373E+03</rscale>
<asrwt>0</asrwt>
<pdfrwt beam="1">  1        2 0.84271024E-01 0.72429022E+03</pdfrwt>
<pdfrwt beam="2">  1       -2 0.16845275E+00 0.72429022E+03</pdfrwt>
<totfact> 0.12315395E+01</totfact>
</mgrwt>
</event>
<event>
 4    2  0.3388003E-007  0.6640726E+03  0.7818608E-02  0.1020325E+00
         -2   -1    0    0    0  501 -0.00000000000E+00  0.00000000000E+00  0.11173577709E+03  0.11173577712E+03  0.25500000000E-02 0.  1.
          2   -1    0    0  501    0  0.00000000000E+00 -0.00000000000E+00 -0.36831408976E+04  0.36831408976E+04  0.25500000000E-02 0. -1.
    8880023    1    1    2    0    0  0.39272068052E+02  0.75098936124E+02 -0.90375086177E+03  0.11214980927E+04  0.65864270000E+03 0.  1.
    8880022    1    1    2    0    0 -0.39272068052E+02 -0.75098936124E+02 -0.26676542588E+04  0.26733785820E+04  0.15294330000E+03 0.  0.
<mgrwt>
<rscale>  0 0.47569690E+03</rscale>
<asrwt>0</asrwt>
<pdfrwt beam="1">  1        2 0.56663697E+00 0.66407255E+03</pdfrwt>
<pdfrwt beam="2">  1       -2 0.17190122E-01 0.66407255E+03</pdfrwt>
<totfact> 0.18397921E+01</totfact>
</mgrwt>
</event>
<event>
 4    2  0.3388003E-007  0.8462304E+03  0.7818608E-02  0.9618542E-01
          2   -1    0    0  501    0  0.00000000000E+00  0.00000000000E+00  0.54650654927E+03  0.54650654928E+03  0.25500000000E-02 0. -1.
         -2   -1    0    0    0  501 -0.00000000000E+00 -0.00000000000E+00 -0.10781881633E+04  0.10781881633E+04  0.25500000000E-02 0.  1.
    8880023    1    1    2    0    0 -0.52171636992E+03  0.10053691610E+03 -0.64037858007E+03  0.10612212654E+04  0.65864270000E+03 0. -1.
    8880022    1    1    2    0    0  0.52171636992E+03 -0.10053691610E+03  0.10869696608E+03  0.56347344711E+03  0.15294330000E+03 0.  1.
<mgrwt>
<rscale>  0 0.76080986E+03</rscale>
<asrwt>0</asrwt>
<pdfrwt beam="1">  1        2 0.84077931E-01 0.84623038E+03</pdfrwt>
<pdfrwt beam="2">  1       -2 0.16587510E+00 0.84623038E+03</pdfrwt>
<totfact> 0.12735407E+01</totfact>
</mgrwt>
</event>
<event>
 4    2  0.3388003E-007  0.8118332E+03  0.7818608E-02  0.9685771E-01
         -2   -1    0    0    0  501 -0.00000000000E+00  0.00000000000E+00  0.38966943288E+03  0.38966943289E+03  0.25500000000E-02 0.  1.
          2   -1    0    0  501    0  0.00000000000E+00 -0.00000000000E+00 -0.23634141625E+04  0.23634141625E+04  0.25500000000E-02 0. -1.
    8880023    1    1    2    0    0  0.44708580753E+03 -0.15930217916E+03 -0.10457321384E+03  0.81854057132E+03  0.65864270000E+03 0.  1.
    8880022    1    1    2    0    0 -0.44708580753E+03  0.15930217916E+03 -0.18691715157E+04  0.19345430240E+04  0.15294330000E+03 0.  0.
<mgrwt>
<rscale>  0 0.71870332E+03</rscale>
<asrwt>0</asrwt>
<pdfrwt beam="1">  1        2 0.36360217E+00 0.81183318E+03</pdfrwt>
<pdfrwt beam="2">  1       -2 0.59949145E-01 0.81183318E+03</pdfrwt>
<totfact> 0.11198986E+01</totfact>
</mgrwt>
</event>
<event>
 4    2  0.3388003E-007  0.8816268E+03  0.7818608E-02  0.9556194E-01
          2   -1    0    0  501    0  0.00000000000E+00  0.00000000000E+00  0.11019360531E+04  0.11019360531E+04  0.25500000000E-02 0. -1.
         -2   -1    0    0    0  501 -0.00000000000E+00 -0.00000000000E+00 -0.50192949954E+03  0.50192949954E+03  0.25500000000E-02 0.  1.
    8880023    1    1    2    0    0 -0.27436997952E+03  0.51785781364E+03  0.36479974422E+03  0.95411983548E+03  0.65864270000E+03 0.  1.
    8880022    1    1    2    0    0  0.27436997952E+03 -0.51785781364E+03  0.23520680936E+03  0.64974571718E+03  0.15294330000E+03 0. -1.
<mgrwt>
<rscale>  0 0.80264637E+03</rscale>
<asrwt>0</asrwt>
<pdfrwt beam="1">  1        2 0.16952862E+00 0.88162680E+03</pdfrwt>
<pdfrwt beam="2">  1       -2 0.77219925E-01 0.88162680E+03</pdfrwt>
<totfact> 0.32679026E+01</totfact>
</mgrwt>
</event>
<event>
 4    2  0.3388003E-007  0.6751823E+03  0.7818608E-02  0.1012192E+00
          2   -1    0    0  501    0  0.00000000000E+00  0.00000000000E+00  0.22498690268E+04  0.22498690268E+04  0.25500000000E-02 0. -1.
         -2   -1    0    0    0  501 -0.00000000000E+00 -0.00000000000E+00 -0.64912758522E+03  0.64912758522E+03  0.25500000000E-02 0.  1.
    8880023    1    1    2    0    0  0.80093405398E+02  0.12508381903E+03 -0.46657951446E+03  0.82071162106E+03  0.65864270000E+03 0.  1.
    8880022    1    1    2    0    0 -0.80093405398E+02 -0.12508381903E+03  0.20673209560E+04  0.20782849910E+04  0.15294330000E+03 0.  0.
<mgrwt>
<rscale>  0 0.50612826E+03</rscale>
<asrwt>0</asrwt>
<pdfrwt beam="1">  1        2 0.34613369E+00 0.67518229E+03</pdfrwt>
<pdfrwt beam="2">  1       -2 0.99865784E-01 0.67518229E+03</pdfrwt>
<totfact> 0.42408174E+00</totfact>
</mgrwt>
</event>
<event>
 4    2  0.3388003E-007  0.8486790E+03  0.7818608E-02  0.9614027E-01
          2   -1    0    0  501    0  0.00000000000E+00  0.00000000000E+00  0.37427236191E+04  0.37427236191E+04  0.25500000000E-02 0. -1.
         -2   -1    0    0    0  501 -0.00000000000E+00 -0.00000000000E+00 -0.19083723027E+03  0.19083723028E+03  0.25500000000E-02 0.  1.
    8880023    1    1    2    0    0 -0.35154057214E+03  0.40356550183E+03  0.95464746266E+03  0.12773440697E+04  0.65864270000E+03 0.  1.
    8880022    1    1    2    0    0  0.35154057214E+03 -0.40356550183E+03  0.25972389262E+04  0.26562167797E+04  0.15294330000E+03 0.  0.
<mgrwt>
<rscale>  0 0.76374672E+03</rscale>
<asrwt>0</asrwt>
<pdfrwt beam="1">  1        2 0.57580365E+00 0.84867903E+03</pdfrwt>
<pdfrwt beam="2">  1       -2 0.29359573E-01 0.84867903E+03</pdfrwt>
<totfact> 0.62014417E+00</totfact>
</mgrwt>
</event>
<event>
 4    2  0.3388003E-007  0.7026880E+03  0.7818608E-02  0.9986228E-01
         -2   -1    0    0    0  501 -0.00000000000E+00  0.00000000000E+00  0.10235377922E+03  0.10235377925E+03  0.25500000000E-02 0.  1.
          2   -1    0    0  501    0  0.00000000000E+00 -0.00000000000E+00 -0.36807278352E+04  0.36807278352E+04  0.25500000000E-02 0. -1.
    8880023    1    1    2    0    0 -0.10767573148E+03  0.21992296893E+03 -0.12263274616E+04  0.14133822642E+04  0.65864270000E+03 0.  1.
    8880022    1    1    2    0    0  0.10767573148E+03 -0.21992296893E+03 -0.23520465943E+04  0.23696993502E+04  0.15294330000E+03 0.  0.
<mgrwt>
<rscale>  0 0.56258258E+03</rscale>
<asrwt>0</asrwt>
<pdfrwt beam="1">  1        2 0.56626572E+00 0.70268797E+03</pdfrwt>
<pdfrwt beam="2">  1       -2 0.15746738E-01 0.70268797E+03</pdfrwt>
<totfact> 0.21286429E+01</totfact>
</mgrwt>
</event>
<event>
 4    2  0.3388003E-007  0.6914576E+03  0.7818608E-02  0.1003467E+00
         -2   -1    0    0    0  501 -0.00000000000E+00  0.00000000000E+00  0.13813046336E+03  0.13813046338E+03  0.25500000000E-02 0.  1.
          2   -1    0    0  501    0  0.00000000000E+00 -0.00000000000E+00 -0.38547238999E+04  0.38547238999E+04  0.25500000000E-02 0. -1.
    8880023    1    1    2    0    0 -0.37031533023E+02 -0.20720053012E+03 -0.77040333341E+03  0.10351979987E+04  0.65864270000E+03 0.  1.
    8880022    1    1    2    0    0  0.37031533023E+02  0.20720053012E+03 -0.29461901031E+04  0.29576563645E+04  0.15294330000E+03 0.  0.
<mgrwt>
<rscale>  0 0.54155650E+03</rscale>
<asrwt>0</asrwt>
<pdfrwt beam="1">  1        2 0.59303436E+00 0.69145759E+03</pdfrwt>
<pdfrwt beam="2">  1       -2 0.21250843E-01 0.69145759E+03</pdfrwt>
<totfact> 0.94756260E+00</totfact>
</mgrwt>
</event>
<event>
 4    2  0.3388003E-007  0.7022155E+03  0.7818608E-02  0.9988132E-01
         -2   -1    0    0    0  501 -0.00000000000E+00  0.00000000000E+00  0.47088809194E+03  0.47088809195E+03  0.25500000000E-02 0.  1.
          2   -1    0    0  501    0  0.00000000000E+00 -0.00000000000E+00 -0.57070986626E+03  0.57070986627E+03  0.25500000000E-02 0. -1.
    8880023    1    1    2    0    0  0.14753798095E+03 -0.19372397230E+03  0.73170262647E+02  0.70601737009E+03  0.65864270000E+03 0.  0.
    8880022    1    1    2    0    0 -0.14753798095E+03  0.19372397230E+03 -0.17299203696E+03  0.33558058813E+03  0.15294330000E+03 0.  0.
<mgrwt>
<rscale>  0 0.56173720E+03</rscale>
<asrwt>0</asrwt>
<pdfrwt beam="1">  1        2 0.87801517E-01 0.70221552E+03</pdfrwt>
<pdfrwt beam="2">  1       -2 0.72444322E-01 0.70221552E+03</pdfrwt>
<totfact> 0.92121457E+01</totfact>
</mgrwt>
</event>
<event>
 4    2  0.3388003E-007  0.7376081E+03  0.7818608E-02  0.9866970E-01
         -2   -1    0    0    0  501 -0.00000000000E+00  0.00000000000E+00  0.38125519137E+03  0.38125519138E+03  0.25500000000E-02 0.  1.
          2   -1    0    0  501    0  0.00000000000E+00 -0.00000000000E+00 -0.10069255296E+04  0.10069255296E+04  0.25500000000E-02 0. -1.
    8880023    1    1    2    0    0 -0.24125521634E+03  0.22814778558E+03 -0.94892546021E+02  0.74368695903E+03  0.65864270000E+03 0.  0.
    8880022    1    1    2    0    0  0.24125521634E+03 -0.22814778558E+03 -0.53077779224E+03  0.64449376198E+03  0.15294330000E+03 0.  0.
<mgrwt>
<rscale>  0 0.61889107E+03</rscale>
<asrwt>0</asrwt>
<pdfrwt beam="1">  1        2 0.15491162E+00 0.73760809E+03</pdfrwt>
<pdfrwt beam="2">  1       -2 0.58654645E-01 0.73760809E+03</pdfrwt>
<totfact> 0.68813963E+01</totfact>
</mgrwt>
</event>
<event>
 4    2  0.3388003E-007  0.7458243E+03  0.7818608E-02  0.9843295E-01
          2   -1    0    0  501    0  0.00000000000E+00  0.00000000000E+00  0.23217358440E+04  0.23217358440E+04  0.25500000000E-02 0. -1.
         -2   -1    0    0    0  501 -0.00000000000E+00 -0.00000000000E+00 -0.36829575902E+03  0.36829575903E+03  0.25500000000E-02 0.  1.
    8880023    1    1    2    0    0 -0.34502922488E+03  0.58297373017E+02  0.48728608037E+02  0.74741449894E+03  0.65864270000E+03 0.  0.
    8880022    1    1    2    0    0  0.34502922488E+03 -0.58297373017E+02  0.19047114769E+04  0.19426171041E+04  0.15294330000E+03 0.  0.
<mgrwt>
<rscale>  0 0.63089965E+03</rscale>
<asrwt>0</asrwt>
<pdfrwt beam="1">  1        2 0.35719013E+00 0.74582435E+03</pdfrwt>
<pdfrwt beam="2">  1       -2 0.56660886E-01 0.74582435E+03</pdfrwt>
<totfact> 0.13435329E+01</totfact>
</mgrwt>
</event>
<event>
 4    2  0.3388003E-007  0.1067326E+04  0.7818608E-02  0.9298337E-01
          2   -1    0    0  501    0  0.00000000000E+00  0.00000000000E+00  0.21731134911E+04  0.21731134911E+04  0.25500000000E-02 0. -1.
         -2   -1    0    0    0  501 -0.00000000000E+00 -0.00000000000E+00 -0.46480485315E+03  0.46480485316E+03  0.25500000000E-02 0.  1.
    8880023    1    1    2    0    0 -0.51821671144E+03 -0.66092822534E+03  0.55489575567E+03  0.12029522788E+04  0.65864270000E+03 0.  0.
    8880022    1    1    2    0    0  0.51821671144E+03  0.66092822534E+03  0.11534128822E+04  0.14349660655E+04  0.15294330000E+03 0.  0.
<mgrwt>
<rscale>  0 0.10093606E+04</rscale>
<asrwt>0</asrwt>
<pdfrwt beam="1">  1        2 0.33432516E+00 0.10673260E+04</pdfrwt>
<pdfrwt beam="2">  1       -2 0.71508437E-01 0.10673260E+04</pdfrwt>
<totfact> 0.94638794E+00</totfact>
</mgrwt>
</event>
<event>
 4    2  0.3388003E-007  0.7094419E+03  0.7818608E-02  0.9960079E-01
          2   -1    0    0  501    0  0.00000000000E+00  0.00000000000E+00  0.31104869024E+04  0.31104869024E+04  0.25500000000E-02 0. -1.
         -2   -1    0    0    0  501 -0.00000000000E+00 -0.00000000000E+00 -0.27409750330E+03  0.27409750332E+03  0.25500000000E-02 0.  1.
    8880023    1    1    2    0    0 -0.19335774499E+03 -0.17919361603E+03  0.20901394946E+03  0.73959083749E+03  0.65864270000E+03 0.  1.
    8880022    1    1    2    0    0  0.19335774499E+03  0.17919361603E+03  0.26273754497E+04  0.26449935683E+04  0.15294330000E+03 0.  0.
<mgrwt>
<rscale>  0 0.57435880E+03</rscale>
<asrwt>0</asrwt>
<pdfrwt beam="1">  1        2 0.47853647E+00 0.70944188E+03</pdfrwt>
<pdfrwt beam="2">  1       -2 0.42168844E-01 0.70944188E+03</pdfrwt>
<totfact> 0.84967848E+00</totfact>
</mgrwt>
</event>
<event>
 4    2  0.3388003E-007  0.8348039E+03  0.7818608E-02  0.9640057E-01
          2   -1    0    0  501    0  0.00000000000E+00  0.00000000000E+00  0.95534479853E+03  0.95534479853E+03  0.25500000000E-02 0. -1.
         -2   -1    0    0    0  501 -0.00000000000E+00 -0.00000000000E+00 -0.83980165285E+03  0.83980165285E+03  0.25500000000E-02 0.  1.
    8880023    1    1    2    0    0 -0.43359192122E+02  0.51108449975E+03 -0.50499841081E+03  0.97566438216E+03  0.65864270000E+03 0.  1.
    8880022    1    1    2    0    0  0.43359192122E+02 -0.51108449975E+03  0.62054155649E+03  0.81948206922E+03  0.15294330000E+03 0.  0.
<mgrwt>
<rscale>  0 0.74700751E+03</rscale>
<asrwt>0</asrwt>
<pdfrwt beam="1">  1        2 0.14697612E+00 0.83480392E+03</pdfrwt>
<pdfrwt beam="2">  1       -2 0.12920025E+00 0.83480392E+03</pdfrwt>
<totfact> 0.11969297E+01</totfact>
</mgrwt>
</event>
<event>
 4    2  0.3388003E-007  0.6844122E+03  0.7818608E-02  0.1006930E+00
         -2   -1    0    0    0  501 -0.00000000000E+00  0.00000000000E+00  0.41627367454E+03  0.41627367455E+03  0.25500000000E-02 0.  1.
          2   -1    0    0  501    0  0.00000000000E+00 -0.00000000000E+00 -0.56488317297E+03  0.56488317298E+03  0.25500000000E-02 0. -1.
    8880023    1    1    2    0    0 -0.18519617352E+03 -0.17669706420E+02  0.24033799419E+02  0.68483404631E+03  0.65864270000E+03 0.  0.
    8880022    1    1    2    0    0  0.18519617352E+03  0.17669706420E+02 -0.17264329785E+03  0.29632280121E+03  0.15294330000E+03 0.  1.
<mgrwt>
<rscale>  0 0.52713057E+03</rscale>
<asrwt>0</asrwt>
<pdfrwt beam="1">  1        2 0.86905104E-01 0.68441219E+03</pdfrwt>
<pdfrwt beam="2">  1       -2 0.64042104E-01 0.68441219E+03</pdfrwt>
<totfact> 0.12194726E+02</totfact>
</mgrwt>
</event>
<event>
 4    2  0.3388003E-007  0.7742108E+03  0.7818608E-02  0.9769616E-01
         -2   -1    0    0    0  501 -0.00000000000E+00  0.00000000000E+00  0.22274617413E+03  0.22274617414E+03  0.25500000000E-02 0.  1.
          2   -1    0    0  501    0  0.00000000000E+00 -0.00000000000E+00 -0.30626124714E+04  0.30626124715E+04  0.25500000000E-02 0. -1.
    8880023    1    1    2    0    0  0.36540750358E+03 -0.17907945887E+03 -0.53796256380E+03  0.94276509406E+03  0.65864270000E+03 0.  1.
    8880022    1    1    2    0    0 -0.36540750358E+03  0.17907945887E+03 -0.23019037335E+04  0.23425935515E+04  0.15294330000E+03 0.  0.
<mgrwt>
<rscale>  0 0.67018925E+03</rscale>
<asrwt>0</asrwt>
<pdfrwt beam="1">  1        2 0.47117112E+00 0.77421076E+03</pdfrwt>
<pdfrwt beam="2">  1       -2 0.34268644E-01 0.77421076E+03</pdfrwt>
<totfact> 0.13427919E+01</totfact>
</mgrwt>
</event>
<event>
 4    2  0.3388003E-007  0.6664338E+03  0.7818608E-02  0.1018360E+00
         -2   -1    0    0    0  501 -0.00000000000E+00  0.00000000000E+00  0.21465739704E+03  0.21465739706E+03  0.25500000000E-02 0.  1.
          2   -1    0    0  501    0  0.00000000000E+00 -0.00000000000E+00 -0.13056664219E+04  0.13056664219E+04  0.25500000000E-02 0. -1.
    8880023    1    1    2    0    0  0.87856481812E+02 -0.51040059664E+02 -0.34186086123E+03  0.74900127089E+03  0.65864270000E+03 0.  1.
    8880022    1    1    2    0    0 -0.87856481812E+02  0.51040059664E+02 -0.74914816365E+03  0.77132254810E+03  0.15294330000E+03 0.  0.
<mgrwt>
<rscale>  0 0.48283249E+03</rscale>
<asrwt>0</asrwt>
<pdfrwt beam="1">  1        2 0.20087175E+00 0.66643383E+03</pdfrwt>
<pdfrwt beam="2">  1       -2 0.33024216E-01 0.66643383E+03</pdfrwt>
<totfact> 0.14334884E+02</totfact>
</mgrwt>
</event>
<event>
 4    2  0.3388003E-007  0.9243838E+03  0.7818608E-02  0.9487970E-01
          2   -1    0    0  501    0  0.00000000000E+00  0.00000000000E+00  0.36648585858E+04  0.36648585858E+04  0.25500000000E-02 0. -1.
         -2   -1    0    0    0  501 -0.00000000000E+00 -0.00000000000E+00 -0.26009503367E+03  0.26009503368E+03  0.25500000000E-02 0.  1.
    8880023    1    1    2    0    0 -0.19162838391E+03 -0.61963997127E+03  0.75751816174E+03  0.11951230494E+04  0.65864270000E+03 0.  0.
    8880022    1    1    2    0    0  0.19162838391E+03  0.61963997127E+03  0.26472453904E+04  0.27298305701E+04  0.15294330000E+03 0.  0.
<mgrwt>
<rscale>  0 0.85176593E+03</rscale>
<asrwt>0</asrwt>
<pdfrwt beam="1">  1        2 0.56382438E+00 0.92438376E+03</pdfrwt>
<pdfrwt beam="2">  1       -2 0.40014622E-01 0.92438376E+03</pdfrwt>
<totfact> 0.38645658E+00</totfact>
</mgrwt>
</event>
<event>
 4    2  0.3388003E-007  0.6836006E+03  0.7818608E-02  0.1007356E+00
          2   -1    0    0  501    0  0.00000000000E+00  0.00000000000E+00  0.11965261169E+04  0.11965261169E+04  0.25500000000E-02 0. -1.
         -2   -1    0    0    0  501 -0.00000000000E+00 -0.00000000000E+00 -0.41806635077E+03  0.41806635078E+03  0.25500000000E-02 0.  1.
    8880023    1    1    2    0    0 -0.14567757292E+03  0.11080467133E+03 -0.11202332718E+03  0.69271860271E+03  0.65864270000E+03 0.  1.
    8880022    1    1    2    0    0  0.14567757292E+03 -0.11080467133E+03  0.89048309327E+03  0.92187386494E+03  0.15294330000E+03 0.  0.
<mgrwt>
<rscale>  0 0.52539092E+03</rscale>
<asrwt>0</asrwt>
<pdfrwt beam="1">  1        2 0.18408094E+00 0.68360064E+03</pdfrwt>
<pdfrwt beam="2">  1       -2 0.64317900E-01 0.68360064E+03</pdfrwt>
<totfact> 0.43560466E+01</totfact>
</mgrwt>
</event>
<event>
 4    2  0.3388003E-007  0.7629997E+03  0.7818608E-02  0.9797403E-01
          2   -1    0    0  501    0  0.00000000000E+00  0.00000000000E+00  0.31567677660E+04  0.31567677660E+04  0.25500000000E-02 0. -1.
         -2   -1    0    0    0  501 -0.00000000000E+00 -0.00000000000E+00 -0.11469636437E+03  0.11469636440E+03  0.25500000000E-02 0.  1.
    8880023    1    1    2    0    0 -0.34403200921E+03  0.17320593757E+03  0.22758607734E+04  0.24003563873E+04  0.65864270000E+03 0.  1.
    8880022    1    1    2    0    0  0.34403200921E+03 -0.17320593757E+03  0.76621062827E+03  0.87110774309E+03  0.15294330000E+03 0.  0.
<mgrwt>
<rscale>  0 0.65502120E+03</rscale>
<asrwt>0</asrwt>
<pdfrwt beam="1">  1        2 0.48565651E+00 0.76299969E+03</pdfrwt>
<pdfrwt beam="2">  1       -2 0.17645597E-01 0.76299969E+03</pdfrwt>
<totfact> 0.38907369E+01</totfact>
</mgrwt>
</event>
<event>
 4    2  0.3388003E-007  0.7149378E+03  0.7818608E-02  0.9940102E-01
         -2   -1    0    0    0  501 -0.00000000000E+00  0.00000000000E+00  0.22618697948E+03  0.22618697949E+03  0.25500000000E-02 0.  1.
          2   -1    0    0  501    0  0.00000000000E+00 -0.00000000000E+00 -0.22730535423E+04  0.22730535423E+04  0.25500000000E-02 0. -1.
    8880023    1    1    2    0    0  0.11970647299E+03 -0.25099043022E+03 -0.39426829916E+03  0.81644567101E+03  0.65864270000E+03 0.  1.
    8880022    1    1    2    0    0 -0.11970647299E+03  0.25099043022E+03 -0.16525982637E+04  0.16827948508E+04  0.15294330000E+03 0.  0.
<mgrwt>
<rscale>  0 0.58356509E+03</rscale>
<asrwt>0</asrwt>
<pdfrwt beam="1">  1        2 0.34970053E+00 0.71493779E+03</pdfrwt>
<pdfrwt beam="2">  1       -2 0.34797998E-01 0.71493779E+03</pdfrwt>
<totfact> 0.37898400E+01</totfact>
</mgrwt>
</event>
<event>
 4    2  0.3388003E-007  0.1201731E+04  0.7818608E-02  0.9155441E-01
         -2   -1    0    0    0  501 -0.00000000000E+00  0.00000000000E+00  0.95256542727E+03  0.95256542728E+03  0.25500000000E-02 0.  1.
          2   -1    0    0  501    0  0.00000000000E+00 -0.00000000000E+00 -0.19883521595E+04  0.19883521595E+04  0.25500000000E-02 0. -1.
    8880023    1    1    2    0    0 -0.96131865625E+03  0.29362296503E+03  0.32249712772E+03  0.12442518266E+04  0.65864270000E+03 0.  1.
    8880022    1    1    2    0    0  0.96131865625E+03 -0.29362296503E+03 -0.13582838600E+04  0.16966657602E+04  0.15294330000E+03 0. -1.
<mgrwt>
<rscale>  0 0.11525425E+04</rscale>
<asrwt>0</asrwt>
<pdfrwt beam="1">  1        2 0.30590033E+00 0.12017313E+04</pdfrwt>
<pdfrwt beam="2">  1       -2 0.14654853E+00 0.12017313E+04</pdfrwt>
<totfact> 0.21033955E+00</totfact>
</mgrwt>
</event>
<event>
 4    2  0.3388003E-007  0.9596740E+03  0.7818608E-02  0.9436330E-01
          2   -1    0    0  501    0  0.00000000000E+00  0.00000000000E+00  0.15937511539E+04  0.15937511539E+04  0.25500000000E-02 0. -1.
         -2   -1    0    0    0  501 -0.00000000000E+00 -0.00000000000E+00 -0.66812659549E+03  0.66812659549E+03  0.25500000000E-02 0.  1.
    8880023    1    1    2    0    0  0.67188899269E+03  0.18902162992E+03 -0.14921507919E+03  0.97120509739E+03  0.65864270000E+03 0.  1.
    8880022    1    1    2    0    0 -0.67188899269E+03 -0.18902162992E+03  0.10748396376E+04  0.12906726520E+04  0.15294330000E+03 0.  0.
<mgrwt>
<rscale>  0 0.89145245E+03</rscale>
<asrwt>0</asrwt>
<pdfrwt beam="1">  1        2 0.24519248E+00 0.95967401E+03</pdfrwt>
<pdfrwt beam="2">  1       -2 0.10278871E+00 0.95967401E+03</pdfrwt>
<totfact> 0.86989031E+00</totfact>
</mgrwt>
</event>
<event>
 4    2  0.3388003E-007  0.8970406E+03  0.7818608E-02  0.9530799E-01
          2   -1    0    0  501    0  0.00000000000E+00  0.00000000000E+00  0.24433402276E+04  0.24433402276E+04  0.25500000000E-02 0. -1.
         -2   -1    0    0    0  501 -0.00000000000E+00 -0.00000000000E+00 -0.47117237569E+03  0.47117237570E+03  0.25500000000E-02 0.  1.
    8880023    1    1    2    0    0 -0.54888751262E+03  0.26380712767E+03  0.56785924233E+02  0.89883621955E+03  0.65864270000E+03 0.  0.
    8880022    1    1    2    0    0  0.54888751262E+03 -0.26380712767E+03  0.19153819277E+04  0.20156763838E+04  0.15294330000E+03 0.  0.
<mgrwt>
<rscale>  0 0.82050719E+03</rscale>
<asrwt>0</asrwt>
<pdfrwt beam="1">  1        2 0.37589851E+00 0.89704064E+03</pdfrwt>
<pdfrwt beam="2">  1       -2 0.72488055E-01 0.89704064E+03</pdfrwt>
<totfact> 0.66176345E+00</totfact>
</mgrwt>
</event>
<event>
 4    2  0.3388003E-007  0.1195831E+04  0.7818608E-02  0.9161186E-01
         -2   -1    0    0    0  501 -0.00000000000E+00  0.00000000000E+00  0.11745702890E+04  0.11745702890E+04  0.25500000000E-02 0.  1.
          2   -1    0    0  501    0  0.00000000000E+00 -0.00000000000E+00 -0.13030978760E+04  0.13030978760E+04  0.25500000000E-02 0. -1.
    8880023    1    1    2    0    0 -0.98646726741E+03  0.15193051843E+03  0.49133928381E+03  0.12928360492E+04  0.65864270000E+03 0.  0.
    8880022    1    1    2    0    0  0.98646726741E+03 -0.15193051843E+03 -0.61986687073E+03  0.11848321158E+04  0.15294330000E+03 0.  0.
<mgrwt>
<rscale>  0 0.11463192E+04</rscale>
<asrwt>0</asrwt>
<pdfrwt beam="1">  1        2 0.20047660E+00 0.11958306E+04</pdfrwt>
<pdfrwt beam="2">  1       -2 0.18070312E+00 0.11958306E+04</pdfrwt>
<totfact> 0.28671367E+00</totfact>
</mgrwt>
</event>
<event>
 4    2  0.3388003E-007  0.7430151E+03  0.7818608E-02  0.9851250E-01
         -2   -1    0    0    0  501 -0.00000000000E+00  0.00000000000E+00  0.26997360330E+03  0.26997360332E+03  0.25500000000E-02 0.  1.
          2   -1    0    0  501    0  0.00000000000E+00 -0.00000000000E+00 -0.22737425901E+04  0.22737425901E+04  0.25500000000E-02 0. -1.
    8880023    1    1    2    0    0  0.17643392764E+03 -0.29518185001E+03 -0.30403724441E+03  0.80281386862E+03  0.65864270000E+03 0.  0.
    8880022    1    1    2    0    0 -0.17643392764E+03  0.29518185001E+03 -0.16997317424E+04  0.17409023248E+04  0.15294330000E+03 0.  0.
<mgrwt>
<rscale>  0 0.62683238E+03</rscale>
<asrwt>0</asrwt>
<pdfrwt beam="1">  1        2 0.34980654E+00 0.74301512E+03</pdfrwt>
<pdfrwt beam="2">  1       -2 0.41534402E-01 0.74301512E+03</pdfrwt>
<totfact> 0.26795954E+01</totfact>
</mgrwt>
</event>
<event>
 4    2  0.3388003E-007  0.8015888E+03  0.7818608E-02  0.9707371E-01
         -2   -1    0    0    0  501 -0.00000000000E+00  0.00000000000E+00  0.35652900695E+03  0.35652900696E+03  0.25500000000E-02 0.  1.
          2   -1    0    0  501    0  0.00000000000E+00 -0.00000000000E+00 -0.16109252223E+04  0.16109252223E+04  0.25500000000E-02 0. -1.
    8880023    1    1    2    0    0 -0.41252255004E+03 -0.19636584205E+03 -0.12508400736E+04  0.14856464903E+04  0.65864270000E+03 0.  0.
    8880022    1    1    2    0    0  0.41252255004E+03  0.19636584205E+03 -0.35561418264E+01  0.48180773902E+03  0.15294330000E+03 0.  0.
<mgrwt>
<rscale>  0 0.70579604E+03</rscale>
<asrwt>0</asrwt>
<pdfrwt beam="1">  1        2 0.24783465E+00 0.80158880E+03</pdfrwt>
<pdfrwt beam="2">  1       -2 0.54850617E-01 0.80158880E+03</pdfrwt>
<totfact> 0.35028304E+01</totfact>
</mgrwt>
</event>
<event>
 4    2  0.3465274E-007  0.8892799E+03  0.7818608E-02  0.9543465E-01
          2   -1    0    0  501    0  0.00000000000E+00  0.00000000000E+00  0.12338685424E+04  0.12338685424E+04  0.25500000000E-02 0. -1.
         -2   -1    0    0    0  501 -0.00000000000E+00 -0.00000000000E+00 -0.14041198839E+04  0.14041198839E+04  0.25500000000E-02 0.  1.
    8880023    1    1    2    0    0  0.54559447250E+03 -0.24358820652E+03 -0.11661731043E+04  0.14665532579E+04  0.65864270000E+03 0.  1.
    8880022    1    1    2    0    0 -0.54559447250E+03  0.24358820652E+03  0.99592176288E+03  0.11714351683E+04  0.15294330000E+03 0.  0.
<mgrwt>
<rscale>  0 0.81153817E+03</rscale>
<asrwt>0</asrwt>
<pdfrwt beam="1">  1        2 0.18982593E+00 0.88927990E+03</pdfrwt>
<pdfrwt beam="2">  1       -2 0.21601844E+00 0.88927990E+03</pdfrwt>
<totfact> 0.19100133E+00</totfact>
</mgrwt>
</event>
<event>
 4    2  0.3388003E-007  0.7372535E+03  0.7818608E-02  0.9868021E-01
          2   -1    0    0  501    0  0.00000000000E+00  0.00000000000E+00  0.65309758753E+03  0.65309758753E+03  0.25500000000E-02 0. -1.
         -2   -1    0    0    0  501 -0.00000000000E+00 -0.00000000000E+00 -0.89701263993E+03  0.89701263993E+03  0.25500000000E-02 0.  1.
    8880023    1    1    2    0    0  0.33070497036E+03 -0.19151889709E+02 -0.66505844680E+03  0.99289753561E+03  0.65864270000E+03 0.  1.
    8880022    1    1    2    0    0 -0.33070497036E+03  0.19151889709E+02  0.42114339439E+03  0.55721269185E+03  0.15294330000E+03 0.  0.
<mgrwt>
<rscale>  0 0.61836484E+03</rscale>
<asrwt>0</asrwt>
<pdfrwt beam="1">  1        2 0.10047655E+00 0.73725354E+03</pdfrwt>
<pdfrwt beam="2">  1       -2 0.13800194E+00 0.73725354E+03</pdfrwt>
<totfact> 0.16919768E+01</totfact>
</mgrwt>
</event>
<event>
 4    2  0.3388003E-007  0.9270737E+03  0.7818608E-02  0.9483897E-01
         -2   -1    0    0    0  501 -0.00000000000E+00  0.00000000000E+00  0.39309343173E+03  0.39309343174E+03  0.25500000000E-02 0.  1.
          2   -1    0    0  501    0  0.00000000000E+00 -0.00000000000E+00 -0.20088383446E+04  0.20088383446E+04  0.25500000000E-02 0. -1.
    8880023    1    1    2    0    0  0.48773621227E+02 -0.65059709899E+03 -0.39162541776E+03  0.10063975981E+04  0.65864270000E+03 0.  0.
    8880022    1    1    2    0    0 -0.48773621227E+02  0.65059709899E+03 -0.12241194951E+04  0.13955341782E+04  0.15294330000E+03 0.  0.
<mgrwt>
<rscale>  0 0.85481510E+03</rscale>
<asrwt>0</asrwt>
<pdfrwt beam="1">  1        2 0.30905205E+00 0.92707371E+03</pdfrwt>
<pdfrwt beam="2">  1       -2 0.60475914E-01 0.92707371E+03</pdfrwt>
<totfact> 0.17022436E+01</totfact>
</mgrwt>
</event>
<event>
 4    2  0.3388003E-007  0.7013676E+03  0.7818608E-02  0.9991574E-01
          2   -1    0    0  501    0  0.00000000000E+00  0.00000000000E+00  0.30882948845E+04  0.30882948845E+04  0.25500000000E-02 0. -1.
         -2   -1    0    0    0  501 -0.00000000000E+00 -0.00000000000E+00 -0.12049242930E+03  0.12049242933E+03  0.25500000000E-02 0.  1.
    8880023    1    1    2    0    0 -0.24072163920E+03  0.12625806788E+02  0.10062065092E+04  0.12265268297E+04  0.65864270000E+03 0.  0.
    8880022    1    1    2    0    0  0.24072163920E+03 -0.12625806788E+02  0.19615959459E+04  0.19822604841E+04  0.15294330000E+03 0.  0.
<mgrwt>
<rscale>  0 0.56021229E+03</rscale>
<asrwt>0</asrwt>
<pdfrwt beam="1">  1        2 0.47512217E+00 0.70136761E+03</pdfrwt>
<pdfrwt beam="2">  1       -2 0.18537302E-01 0.70136761E+03</pdfrwt>
<totfact> 0.39820126E+01</totfact>
</mgrwt>
</event>
<event>
 4    2  0.3388003E-007  0.9168739E+03  0.7818608E-02  0.9499469E-01
          2   -1    0    0  501    0  0.00000000000E+00  0.00000000000E+00  0.50928480390E+04  0.50928480390E+04  0.25500000000E-02 0. -1.
         -2   -1    0    0    0  501 -0.00000000000E+00 -0.00000000000E+00 -0.23947229503E+03  0.23947229505E+03  0.25500000000E-02 0.  1.
    8880023    1    1    2    0    0  0.57687814904E+03  0.27213809744E+03  0.77207845753E+03  0.11986504469E+04  0.65864270000E+03 0.  1.
    8880022    1    1    2    0    0 -0.57687814904E+03 -0.27213809744E+03  0.40812972864E+04  0.41336698872E+04  0.15294330000E+03 0.  0.
<mgrwt>
<rscale>  0 0.84322982E+03</rscale>
<asrwt>0</asrwt>
<pdfrwt beam="1">  1        2 0.78351508E+00 0.91687390E+03</pdfrwt>
<pdfrwt beam="2">  1       -2 0.36841892E-01 0.91687390E+03</pdfrwt>
<totfact> 0.20451321E-01</totfact>
</mgrwt>
</event>
<event>
 4    2  0.5520730E-007  0.9549570E+03  0.7818608E-02  0.9443018E-01
         -2   -1    0    0    0  501 -0.00000000000E+00  0.00000000000E+00  0.89397845552E+03  0.89397845552E+03  0.25500000000E-02 0.  1.
          2   -1    0    0  501    0  0.00000000000E+00 -0.00000000000E+00 -0.32235190708E+04  0.32235190708E+04  0.25500000000E-02 0. -1.
    8880023    1    1    2    0    0 -0.56333815011E+03 -0.40097723361E+03  0.58383246308E+03  0.11192869000E+04  0.65864270000E+03 0.  0.
    8880022    1    1    2    0    0  0.56333815011E+03  0.40097723361E+03 -0.29133730783E+04  0.29982106263E+04  0.15294330000E+03 0.  0.
<mgrwt>
<rscale>  0 0.88618490E+03</rscale>
<asrwt>0</asrwt>
<pdfrwt beam="1">  1        2 0.49592601E+00 0.95495697E+03</pdfrwt>
<pdfrwt beam="2">  1       -2 0.13753515E+00 0.95495697E+03</pdfrwt>
<totfact> 0.48556034E-01</totfact>
</mgrwt>
</event>
<event>
 4    2  0.3388003E-007  0.9832316E+03  0.7818608E-02  0.9403832E-01
         -2   -1    0    0    0  501 -0.00000000000E+00  0.00000000000E+00  0.31937033790E+03  0.31937033791E+03  0.25500000000E-02 0.  1.
          2   -1    0    0  501    0  0.00000000000E+00 -0.00000000000E+00 -0.28355243984E+04  0.28355243984E+04  0.25500000000E-02 0. -1.
    8880023    1    1    2    0    0 -0.41320748834E+03 -0.60182542400E+03 -0.20546489831E+04  0.22777899200E+04  0.65864270000E+03 0.  0.
    8880022    1    1    2    0    0  0.41320748834E+03  0.60182542400E+03 -0.46150507736E+03  0.87710481633E+03  0.15294330000E+03 0.  0.
<mgrwt>
<rscale>  0 0.91760981E+03</rscale>
<asrwt>0</asrwt>
<pdfrwt beam="1">  1        2 0.43623451E+00 0.98323165E+03</pdfrwt>
<pdfrwt beam="2">  1       -2 0.49133900E-01 0.98323165E+03</pdfrwt>
<totfact> 0.88142942E+00</totfact>
</mgrwt>
</event>
<event>
 4    2  0.3388003E-007  0.1110962E+04  0.7818608E-02  0.9248948E-01
          2   -1    0    0  501    0  0.00000000000E+00  0.00000000000E+00  0.16094532432E+04  0.16094532432E+04  0.25500000000E-02 0. -1.
         -2   -1    0    0    0  501 -0.00000000000E+00 -0.00000000000E+00 -0.10187820950E+04  0.10187820950E+04  0.25500000000E-02 0.  1.
    8880023    1    1    2    0    0  0.87846940230E+03  0.16946490432E+03 -0.49234748977E+03  0.12151720461E+04  0.65864270000E+03 0.  0.
    8880022    1    1    2    0    0 -0.87846940230E+03 -0.16946490432E+03  0.10830186380E+04  0.14130632922E+04  0.15294330000E+03 0.  0.
<mgrwt>
<rscale>  0 0.10562176E+04</rscale>
<asrwt>0</asrwt>
<pdfrwt beam="1">  1        2 0.24760819E+00 0.11109622E+04</pdfrwt>
<pdfrwt beam="2">  1       -2 0.15673571E+00 0.11109622E+04</pdfrwt>
<totfact> 0.28782183E+00</totfact>
</mgrwt>
</event>
<event>
 4    2  0.3388003E-007  0.6664217E+03  0.7818608E-02  0.1018369E+00
         -2   -1    0    0    0  501 -0.00000000000E+00  0.00000000000E+00  0.16197940121E+04  0.16197940121E+04  0.25500000000E-02 0.  1.
          2   -1    0    0  501    0  0.00000000000E+00 -0.00000000000E+00 -0.96852678769E+03  0.96852678769E+03  0.25500000000E-02 0. -1.
    8880023    1    1    2    0    0  0.55035170852E+02 -0.85315666564E+02  0.15414847205E+04  0.16793727945E+04  0.65864270000E+03 0.  1.
    8880022    1    1    2    0    0 -0.55035170852E+02  0.85315666564E+02 -0.89021749610E+03  0.90894800532E+03  0.15294330000E+03 0.  0.
<mgrwt>
<rscale>  0 0.48279684E+03</rscale>
<asrwt>0</asrwt>
<pdfrwt beam="1">  1        2 0.14900412E+00 0.66642167E+03</pdfrwt>
<pdfrwt beam="2">  1       -2 0.24919908E+00 0.66642167E+03</pdfrwt>
<totfact> 0.18001002E+00</totfact>
</mgrwt>
</event>
<event>
 4    2  0.3388003E-007  0.8915095E+03  0.7818608E-02  0.9539801E-01
          2   -1    0    0  501    0  0.00000000000E+00  0.00000000000E+00  0.23041441174E+04  0.23041441174E+04  0.25500000000E-02 0. -1.
         -2   -1    0    0    0  501 -0.00000000000E+00 -0.00000000000E+00 -0.27037206151E+03  0.27037206152E+03  0.25500000000E-02 0.  1.
    8880023    1    1    2    0    0  0.31429168575E+03 -0.51205448105E+03  0.15501256029E+04  0.17882054262E+04  0.65864270000E+03 0.  1.
    8880022    1    1    2    0    0 -0.31429168575E+03  0.51205448105E+03  0.48364645295E+03  0.78631075267E+03  0.15294330000E+03 0.  0.
<mgrwt>
<rscale>  0 0.81411973E+03</rscale>
<asrwt>0</asrwt>
<pdfrwt beam="1">  1        2 0.35448373E+00 0.89150954E+03</pdfrwt>
<pdfrwt beam="2">  1       -2 0.41595700E-01 0.89150954E+03</pdfrwt>
<totfact> 0.25207773E+01</totfact>
</mgrwt>
</event>
<event>
 4    2  0.3388003E-007  0.7304667E+03  0.7818608E-02  0.9888641E-01
          2   -1    0    0  501    0  0.00000000000E+00  0.00000000000E+00  0.26602074344E+04  0.26602074344E+04  0.25500000000E-02 0. -1.
         -2   -1    0    0    0  501 -0.00000000000E+00 -0.00000000000E+00 -0.32444069910E+03  0.32444069911E+03  0.25500000000E-02 0.  1.
    8880023    1    1    2    0    0 -0.74816792170E+02 -0.30687763562E+03  0.11878592834E+03  0.74006198299E+03  0.65864270000E+03 0.  1.
    8880022    1    1    2    0    0  0.74816792170E+02  0.30687763562E+03  0.22169808069E+04  0.22445861505E+04  0.15294330000E+03 0.  0.
<mgrwt>
<rscale>  0 0.60814957E+03</rscale>
<asrwt>0</asrwt>
<pdfrwt beam="1">  1        2 0.40926267E+00 0.73046673E+03</pdfrwt>
<pdfrwt beam="2">  1       -2 0.49913956E-01 0.73046673E+03</pdfrwt>
<totfact> 0.11247070E+01</totfact>
</mgrwt>
</event>
<event>
 4    2  0.3388003E-007  0.6768274E+03  0.7818608E-02  0.1011178E+00
         -2   -1    0    0    0  501 -0.00000000000E+00  0.00000000000E+00  0.64790663218E+03  0.64790663219E+03  0.25500000000E-02 0.  1.
          2   -1    0    0  501    0  0.00000000000E+00 -0.00000000000E+00 -0.32790518699E+03  0.32790518700E+03  0.25500000000E-02 0. -1.
    8880023    1    1    2    0    0 -0.15571795872E+03  0.60851955053E+01  0.33835865059E+03  0.75669141330E+03  0.65864270000E+03 0.  1.
    8880022    1    1    2    0    0  0.15571795872E+03 -0.60851955053E+01 -0.18357205398E+02  0.21912040589E+03  0.15294330000E+03 0.  1.
<mgrwt>
<rscale>  0 0.51008998E+03</rscale>
<asrwt>0</asrwt>
<pdfrwt beam="1">  1        2 0.50446952E-01 0.67682739E+03</pdfrwt>
<pdfrwt beam="2">  1       -2 0.99677943E-01 0.67682739E+03</pdfrwt>
<totfact> 0.83896104E+01</totfact>
</mgrwt>
</event>
<event>
 4    2  0.3388003E-007  0.6655949E+03  0.7818608E-02  0.1019039E+00
          2   -1    0    0  501    0  0.00000000000E+00  0.00000000000E+00  0.44640117431E+03  0.44640117432E+03  0.25500000000E-02 0. -1.
         -2   -1    0    0    0  501 -0.00000000000E+00 -0.00000000000E+00 -0.16404523078E+04  0.16404523078E+04  0.25500000000E-02 0.  1.
    8880023    1    1    2    0    0  0.95613214431E+02 -0.80318832207E+01 -0.15504784949E+04  0.16873055939E+04  0.65864270000E+03 0.  1.
    8880022    1    1    2    0    0 -0.95613214431E+02  0.80318832207E+01  0.35642736145E+03  0.39954788815E+03  0.15294330000E+03 0.  0.
<mgrwt>
<rscale>  0 0.48034852E+03</rscale>
<asrwt>0</asrwt>
<pdfrwt beam="1">  1        2 0.68677105E-01 0.66559492E+03</pdfrwt>
<pdfrwt beam="2">  1       -2 0.25237727E+00 0.66559492E+03</pdfrwt>
<totfact> 0.45417510E+00</totfact>
</mgrwt>
</event>
<event>
 4    2  0.3388003E-007  0.8679556E+03  0.7818608E-02  0.9579566E-01
          2   -1    0    0  501    0  0.00000000000E+00  0.00000000000E+00  0.89776406757E+03  0.89776406758E+03  0.25500000000E-02 0. -1.
         -2   -1    0    0    0  501 -0.00000000000E+00 -0.00000000000E+00 -0.58852177633E+03  0.58852177634E+03  0.25500000000E-02 0.  1.
    8880023    1    1    2    0    0 -0.83962035326E+02  0.55900543723E+03  0.19681271457E+03  0.88998997360E+03  0.65864270000E+03 0.  0.
    8880022    1    1    2    0    0  0.83962035326E+02 -0.55900543723E+03  0.11242957667E+03  0.59629587031E+03  0.15294330000E+03 0.  1.
<mgrwt>
<rscale>  0 0.78663552E+03</rscale>
<asrwt>0</asrwt>
<pdfrwt beam="1">  1        2 0.13811755E+00 0.86795559E+03</pdfrwt>
<pdfrwt beam="2">  1       -2 0.90541812E-01 0.86795559E+03</pdfrwt>
<totfact> 0.30815399E+01</totfact>
</mgrwt>
</event>
<event>
 4    2  0.3388003E-007  0.1320147E+04  0.7818608E-02  0.9048354E-01
         -2   -1    0    0    0  501 -0.00000000000E+00  0.00000000000E+00  0.10676698535E+04  0.10676698535E+04  0.25500000000E-02 0.  1.
          2   -1    0    0  501    0  0.00000000000E+00 -0.00000000000E+00 -0.32599338504E+04  0.32599338504E+04  0.25500000000E-02 0. -1.
    8880023    1    1    2    0    0 -0.43095006645E+02  0.11432934063E+04 -0.27463906043E+04  0.30472033982E+04  0.65864270000E+03 0. -1.
    8880022    1    1    2    0    0  0.43095006645E+02 -0.11432934063E+04  0.55412660738E+03  0.12804003056E+04  0.15294330000E+03 0.  0.
<mgrwt>
<rscale>  0 0.12765702E+04</rscale>
<asrwt>0</asrwt>
<pdfrwt beam="1">  1        2 0.50152828E+00 0.13201467E+04</pdfrwt>
<pdfrwt beam="2">  1       -2 0.16425690E+00 0.13201467E+04</pdfrwt>
<totfact> 0.26961946E-01</totfact>
</mgrwt>
</event>
<event>
 4    2  0.3388003E-007  0.7215140E+03  0.7818608E-02  0.9917496E-01
          2   -1    0    0  501    0  0.00000000000E+00  0.00000000000E+00  0.13878164258E+04  0.13878164258E+04  0.25500000000E-02 0. -1.
         -2   -1    0    0    0  501 -0.00000000000E+00 -0.00000000000E+00 -0.77511310344E+03  0.77511310344E+03  0.25500000000E-02 0.  1.
    8880023    1    1    2    0    0  0.20487848297E+03  0.21165319148E+03 -0.57947875664E+03  0.92540699257E+03  0.65864270000E+03 0.  0.
    8880022    1    1    2    0    0 -0.20487848297E+03 -0.21165319148E+03  0.11921820790E+04  0.12375225367E+04  0.15294330000E+03 0. -1.
<mgrwt>
<rscale>  0 0.59420801E+03</rscale>
<asrwt>0</asrwt>
<pdfrwt beam="1">  1        2 0.21351022E+00 0.72151401E+03</pdfrwt>
<pdfrwt beam="2">  1       -2 0.11924817E+00 0.72151401E+03</pdfrwt>
<totfact> 0.81455225E+00</totfact>
</mgrwt>
</event>
<event>
 4    2  0.3388003E-007  0.7364768E+03  0.7818608E-02  0.9870331E-01
         -2   -1    0    0    0  501 -0.00000000000E+00  0.00000000000E+00  0.17843725581E+03  0.17843725583E+03  0.25500000000E-02 0.  1.
          2   -1    0    0  501    0  0.00000000000E+00 -0.00000000000E+00 -0.17451321580E+04  0.17451321580E+04  0.25500000000E-02 0. -1.
    8880023    1    1    2    0    0 -0.32548491699E+03 -0.51453284218E+02 -0.88714856090E+03  0.11530093872E+04  0.65864270000E+03 0. -1.
    8880022    1    1    2    0    0  0.32548491699E+03  0.51453284218E+02 -0.67954634131E+03  0.77056002664E+03  0.15294330000E+03 0.  0.
<mgrwt>
<rscale>  0 0.61720953E+03</rscale>
<asrwt>0</asrwt>
<pdfrwt beam="1">  1        2 0.26848186E+00 0.73647680E+03</pdfrwt>
<pdfrwt beam="2">  1       -2 0.27451887E-01 0.73647680E+03</pdfrwt>
<totfact> 0.11434705E+02</totfact>
</mgrwt>
</event>
<event>
 4    2  0.3388003E-007  0.6616852E+03  0.7818608E-02  0.1022493E+00
          2   -1    0    0  501    0  0.00000000000E+00  0.00000000000E+00  0.15455427393E+04  0.15455427393E+04  0.25500000000E-02 0. -1.
         -2   -1    0    0    0  501 -0.00000000000E+00 -0.00000000000E+00 -0.17094253350E+03  0.17094253352E+03  0.25500000000E-02 0.  1.
    8880023    1    1    2    0    0  0.17946166709E+02 -0.60786735178E+02  0.50796828967E+03  0.83418168383E+03  0.65864270000E+03 0.  1.
    8880022    1    1    2    0    0 -0.17946166709E+02  0.60786735178E+02  0.86663191617E+03  0.88230358903E+03  0.15294330000E+03 0.  0.
<mgrwt>
<rscale>  0 0.46797721E+03</rscale>
<asrwt>0</asrwt>
<pdfrwt beam="1">  1        2 0.23777580E+00 0.66168520E+03</pdfrwt>
<pdfrwt beam="2">  1       -2 0.26298852E-01 0.66168520E+03</pdfrwt>
<totfact> 0.16020072E+02</totfact>
</mgrwt>
</event>
<event>
 4    2  0.3388003E-007  0.6988424E+03  0.7818608E-02  0.1000204E+00
          2   -1    0    0  501    0  0.00000000000E+00  0.00000000000E+00  0.57920963304E+03  0.57920963305E+03  0.25500000000E-02 0. -1.
         -2   -1    0    0    0  501 -0.00000000000E+00 -0.00000000000E+00 -0.53745047913E+03  0.53745047913E+03  0.25500000000E-02 0.  1.
    8880023    1    1    2    0    0  0.23095273446E+03 -0.35091258381E+02 -0.22129800687E+03  0.73304404784E+03  0.65864270000E+03 0.  1.
    8880022    1    1    2    0    0 -0.23095273446E+03  0.35091258381E+02  0.26305716078E+03  0.38361606434E+03  0.15294330000E+03 0.  0.
<mgrwt>
<rscale>  0 0.55560990E+03</rscale>
<asrwt>0</asrwt>
<pdfrwt beam="1">  1        2 0.89109175E-01 0.69884245E+03</pdfrwt>
<pdfrwt beam="2">  1       -2 0.82684689E-01 0.69884245E+03</pdfrwt>
<totfact> 0.67413889E+01</totfact>
</mgrwt>
</event>
<event>
 4    2  0.3388003E-007  0.8961222E+03  0.7818608E-02  0.9532286E-01
          2   -1    0    0  501    0  0.00000000000E+00  0.00000000000E+00  0.30875078447E+03  0.30875078448E+03  0.25500000000E-02 0. -1.
         -2   -1    0    0    0  501 -0.00000000000E+00 -0.00000000000E+00 -0.24680271996E+04  0.24680271996E+04  0.25500000000E-02 0.  1.
    8880023    1    1    2    0    0  0.13894264093E+02 -0.60747983316E+03 -0.18960340483E+04  0.20971361703E+04  0.65864270000E+03 0.  1.
    8880022    1    1    2    0    0 -0.13894264093E+02  0.60747983316E+03 -0.26324236680E+03  0.67964181373E+03  0.15294330000E+03 0.  0.
<mgrwt>
<rscale>  0 0.81944817E+03</rscale>
<asrwt>0</asrwt>
<pdfrwt beam="1">  1        2 0.47500122E-01 0.89612220E+03</pdfrwt>
<pdfrwt beam="2">  1       -2 0.37969648E+00 0.89612220E+03</pdfrwt>
<totfact> 0.11066568E+00</totfact>
</mgrwt>
</event>
<event>
 4    2  0.3388003E-007  0.6699805E+03  0.7818608E-02  0.1015677E+00
          2   -1    0    0  501    0  0.00000000000E+00  0.00000000000E+00  0.55052352568E+03  0.55052352569E+03  0.25500000000E-02 0. -1.
         -2   -1    0    0    0  501 -0.00000000000E+00 -0.00000000000E+00 -0.15608587235E+04  0.15608587235E+04  0.25500000000E-02 0.  1.
    8880023    1    1    2    0    0  0.12187208821E+03 -0.14520689936E+02 -0.14678985570E+04  0.16135674874E+04  0.65864270000E+03 0.  1.
    8880022    1    1    2    0    0 -0.12187208821E+03  0.14520689936E+02  0.45756335924E+03  0.49781476179E+03  0.15294330000E+03 0.  0.
<mgrwt>
<rscale>  0 0.49279485E+03</rscale>
<asrwt>0</asrwt>
<pdfrwt beam="1">  1        2 0.84695927E-01 0.66998049E+03</pdfrwt>
<pdfrwt beam="2">  1       -2 0.24013211E+00 0.66998049E+03</pdfrwt>
<totfact> 0.42245378E+00</totfact>
</mgrwt>
</event>
<event>
 4    2  0.3388003E-007  0.8210649E+03  0.7818608E-02  0.9666974E-01
          2   -1    0    0  501    0  0.00000000000E+00  0.00000000000E+00  0.12097288723E+04  0.12097288723E+04  0.25500000000E-02 0. -1.
         -2   -1    0    0    0  501 -0.00000000000E+00 -0.00000000000E+00 -0.57838508607E+03  0.57838508608E+03  0.25500000000E-02 0.  1.
    8880023    1    1    2    0    0 -0.41434011556E+02 -0.48848804721E+03 -0.16794565896E+03  0.83806521239E+03  0.65864270000E+03 0.  0.
    8880022    1    1    2    0    0  0.41434011556E+02  0.48848804721E+03  0.79928944523E+03  0.95004874604E+03  0.15294330000E+03 0.  0.
<mgrwt>
<rscale>  0 0.73017649E+03</rscale>
<asrwt>0</asrwt>
<pdfrwt beam="1">  1        2 0.18611213E+00 0.82106489E+03</pdfrwt>
<pdfrwt beam="2">  1       -2 0.88982321E-01 0.82106489E+03</pdfrwt>
<totfact> 0.20509510E+01</totfact>
</mgrwt>
</event>
<event>
 4    2  0.3388003E-007  0.8075669E+03  0.7818608E-02  0.9694667E-01
          2   -1    0    0  501    0  0.00000000000E+00  0.00000000000E+00  0.36145167320E+04  0.36145167320E+04  0.25500000000E-02 0. -1.
         -2   -1    0    0    0  501 -0.00000000000E+00 -0.00000000000E+00 -0.28027573627E+03  0.28027573629E+03  0.25500000000E-02 0.  1.
    8880023    1    1    2    0    0  0.46008074269E+03  0.81730430322E+02  0.36692322913E+03  0.88701579207E+03  0.65864270000E+03 0.  0.
    8880022    1    1    2    0    0 -0.46008074269E+03 -0.81730430322E+02  0.29673177666E+04  0.30077766762E+04  0.15294330000E+03 0.  0.
<mgrwt>
<rscale>  0 0.71335181E+03</rscale>
<asrwt>0</asrwt>
<pdfrwt beam="1">  1        2 0.55607944E+00 0.80756694E+03</pdfrwt>
<pdfrwt beam="2">  1       -2 0.43119348E-01 0.80756694E+03</pdfrwt>
<totfact> 0.37013321E+00</totfact>
</mgrwt>
</event>
<event>
 4    2  0.3388003E-007  0.6912064E+03  0.7818608E-02  0.1003584E+00
          2   -1    0    0  501    0  0.00000000000E+00  0.00000000000E+00  0.32878107626E+04  0.32878107626E+04  0.25500000000E-02 0. -1.
         -2   -1    0    0    0  501 -0.00000000000E+00 -0.00000000000E+00 -0.98082782324E+02  0.98082782357E+02  0.25500000000E-02 0.  1.
    8880023    1    1    2    0    0  0.15138165234E+03 -0.14505037630E+03  0.12456744798E+04  0.14245950766E+04  0.65864270000E+03 0.  1.
    8880022    1    1    2    0    0 -0.15138165234E+03  0.14505037630E+03  0.19440535005E+04  0.19612984684E+04  0.15294330000E+03 0.  0.
<mgrwt>
<rscale>  0 0.54106085E+03</rscale>
<asrwt>0</asrwt>
<pdfrwt beam="1">  1        2 0.50581694E+00 0.69120635E+03</pdfrwt>
<pdfrwt beam="2">  1       -2 0.15089662E-01 0.69120635E+03</pdfrwt>
<totfact> 0.42385017E+01</totfact>
</mgrwt>
</event>
<event>
 4    2  0.3388003E-007  0.6722667E+03  0.7818608E-02  0.1014087E+00
          2   -1    0    0  501    0  0.00000000000E+00  0.00000000000E+00  0.24671293653E+04  0.24671293653E+04  0.25500000000E-02 0. -1.
         -2   -1    0    0    0  501 -0.00000000000E+00 -0.00000000000E+00 -0.13111274697E+03  0.13111274700E+03  0.25500000000E-02 0.  1.
    8880023    1    1    2    0    0  0.26864751554E+01 -0.13462970723E+03  0.78338657759E+03  0.10322970074E+04  0.65864270000E+03 0.  1.
    8880022    1    1    2    0    0 -0.26864751554E+01  0.13462970723E+03  0.15526300407E+04  0.15659451049E+04  0.15294330000E+03 0.  0.
<mgrwt>
<rscale>  0 0.49881977E+03</rscale>
<asrwt>0</asrwt>
<pdfrwt beam="1">  1        2 0.37955835E+00 0.67226675E+03</pdfrwt>
<pdfrwt beam="2">  1       -2 0.20171193E-01 0.67226675E+03</pdfrwt>
<totfact> 0.80170316E+01</totfact>
</mgrwt>
</event>
<event>
 4    2  0.3388003E-007  0.7306848E+03  0.7818608E-02  0.9887963E-01
          2   -1    0    0  501    0  0.00000000000E+00  0.00000000000E+00  0.33162529333E+04  0.33162529333E+04  0.25500000000E-02 0. -1.
         -2   -1    0    0    0  501 -0.00000000000E+00 -0.00000000000E+00 -0.97021339497E+02  0.97021339530E+02  0.25500000000E-02 0.  1.
    8880023    1    1    2    0    0 -0.30960457240E+03  0.65077213555E+02  0.16398628093E+04  0.17952855691E+04  0.65864270000E+03 0.  1.
    8880022    1    1    2    0    0  0.30960457240E+03 -0.65077213555E+02  0.15793687845E+04  0.16179887038E+04  0.15294330000E+03 0.  0.
<mgrwt>
<rscale>  0 0.60848218E+03</rscale>
<asrwt>0</asrwt>
<pdfrwt beam="1">  1        2 0.51019268E+00 0.73068478E+03</pdfrwt>
<pdfrwt beam="2">  1       -2 0.14926362E-01 0.73068478E+03</pdfrwt>
<totfact> 0.41103763E+01</totfact>
</mgrwt>
</event>
<event>
 4    2  0.3388003E-007  0.7249029E+03  0.7818608E-02  0.9906332E-01
         -2   -1    0    0    0  501 -0.00000000000E+00  0.00000000000E+00  0.36937609211E+03  0.36937609212E+03  0.25500000000E-02 0.  1.
          2   -1    0    0  501    0  0.00000000000E+00 -0.00000000000E+00 -0.25114418876E+04  0.25114418876E+04  0.25500000000E-02 0. -1.
    8880023    1    1    2    0    0 -0.16499006188E+02 -0.30232729192E+03 -0.13124286452E+02  0.72502169747E+03  0.65864270000E+03 0.  1.
    8880022    1    1    2    0    0  0.16499006188E+02  0.30232729192E+03 -0.21289415090E+04  0.21557962822E+04  0.15294330000E+03 0.  0.
<mgrwt>
<rscale>  0 0.59955371E+03</rscale>
<asrwt>0</asrwt>
<pdfrwt beam="1">  1        2 0.38637566E+00 0.72490290E+03</pdfrwt>
<pdfrwt beam="2">  1       -2 0.56827093E-01 0.72490290E+03</pdfrwt>
<totfact> 0.10484324E+01</totfact>
</mgrwt>
</event>
<event>
 4    2  0.3388003E-007  0.7337100E+03  0.7818608E-02  0.9878663E-01
         -2   -1    0    0    0  501 -0.00000000000E+00  0.00000000000E+00  0.24929339181E+03  0.24929339183E+03  0.25500000000E-02 0.  1.
          2   -1    0    0  501    0  0.00000000000E+00 -0.00000000000E+00 -0.16694860248E+04  0.16694860248E+04  0.25500000000E-02 0. -1.
    8880023    1    1    2    0    0 -0.21167775894E+03 -0.24436191630E+03 -0.39561033708E+03  0.83356941213E+03  0.65864270000E+03 0.  1.
    8880022    1    1    2    0    0  0.21167775894E+03  0.24436191630E+03 -0.10245822959E+04  0.10852100045E+04  0.15294330000E+03 0.  0.
<mgrwt>
<rscale>  0 0.61306596E+03</rscale>
<asrwt>0</asrwt>
<pdfrwt beam="1">  1        2 0.25684400E+00 0.73371004E+03</pdfrwt>
<pdfrwt beam="2">  1       -2 0.38352831E-01 0.73371004E+03</pdfrwt>
<totfact> 0.67084259E+01</totfact>
</mgrwt>
</event>
<event>
 4    2  0.3388003E-007  0.1286911E+04  0.7818608E-02  0.9076946E-01
         -2   -1    0    0    0  501 -0.00000000000E+00  0.00000000000E+00  0.26505597709E+04  0.26505597709E+04  0.25500000000E-02 0.  1.
          2   -1    0    0  501    0  0.00000000000E+00 -0.00000000000E+00 -0.84788196207E+03  0.84788196207E+03  0.25500000000E-02 0. -1.
    8880023    1    1    2    0    0 -0.92200578544E+03 -0.61011118328E+03  0.19868629652E+04  0.23672272754E+04  0.65864270000E+03 0.  0.
    8880022    1    1    2    0    0  0.92200578544E+03  0.61011118328E+03 -0.18418515637E+03  0.11312144576E+04  0.15294330000E+03 0.  0.
<mgrwt>
<rscale>  0 0.12419070E+04</rscale>
<asrwt>0</asrwt>
<pdfrwt beam="1">  1        2 0.13044338E+00 0.12869112E+04</pdfrwt>
<pdfrwt beam="2">  1       -2 0.40777842E+00 0.12869112E+04</pdfrwt>
<totfact> 0.20530012E-01</totfact>
</mgrwt>
</event>
<event>
 4    2  0.3388003E-007  0.6745612E+03  0.7818608E-02  0.1012584E+00
         -2   -1    0    0    0  501 -0.00000000000E+00  0.00000000000E+00  0.42131433873E+03  0.42131433874E+03  0.25500000000E-02 0.  1.
          2   -1    0    0  501    0  0.00000000000E+00 -0.00000000000E+00 -0.11522342627E+04  0.11522342627E+04  0.25500000000E-02 0. -1.
    8880023    1    1    2    0    0  0.92369534471E+00  0.14567681512E+03  0.13010584611E+03  0.68699368638E+03  0.65864270000E+03 0.  1.
    8880022    1    1    2    0    0 -0.92369534471E+00 -0.14567681512E+03 -0.86102577009E+03  0.88655491508E+03  0.15294330000E+03 0.  0.
<mgrwt>
<rscale>  0 0.50460343E+03</rscale>
<asrwt>0</asrwt>
<pdfrwt beam="1">  1        2 0.17726681E+00 0.67456119E+03</pdfrwt>
<pdfrwt beam="2">  1       -2 0.64817591E-01 0.67456119E+03</pdfrwt>
<totfact> 0.45566028E+01</totfact>
</mgrwt>
</event>
<event>
 4    2  0.3388003E-007  0.8795227E+03  0.7818608E-02  0.9559738E-01
         -2   -1    0    0    0  501 -0.00000000000E+00  0.00000000000E+00  0.26594456962E+03  0.26594456963E+03  0.25500000000E-02 0.  1.
          2   -1    0    0  501    0  0.00000000000E+00 -0.00000000000E+00 -0.31033873585E+04  0.31033873585E+04  0.25500000000E-02 0. -1.
    8880023    1    1    2    0    0  0.22886999056E+03  0.53606759412E+03 -0.63200381875E+03  0.10830461538E+04  0.65864270000E+03 0.  0.
    8880022    1    1    2    0    0 -0.22886999056E+03 -0.53606759412E+03 -0.22054389701E+04  0.22862857744E+04  0.15294330000E+03 0.  0.
<mgrwt>
<rscale>  0 0.80019306E+03</rscale>
<asrwt>0</asrwt>
<pdfrwt beam="1">  1        2 0.47744418E+00 0.87952268E+03</pdfrwt>
<pdfrwt beam="2">  1       -2 0.40914551E-01 0.87952268E+03</pdfrwt>
<totfact> 0.88419610E+00</totfact>
</mgrwt>
</event>
<event>
 4    2  0.3388003E-007  0.7120812E+03  0.7818608E-02  0.9950352E-01
          2   -1    0    0  501    0  0.00000000000E+00  0.00000000000E+00  0.37516398915E+04  0.37516398915E+04  0.25500000000E-02 0. -1.
         -2   -1    0    0    0  501 -0.00000000000E+00 -0.00000000000E+00 -0.14996914806E+03  0.14996914809E+03  0.25500000000E-02 0.  1.
    8880023    1    1    2    0    0 -0.27009257476E+03 -0.17304981765E+02  0.75429790235E+03  0.10373162455E+04  0.65864270000E+03 0.  1.
    8880022    1    1    2    0    0  0.27009257476E+03  0.17304981765E+02  0.28473728410E+04  0.28642927941E+04  0.15294330000E+03 0.  0.
<mgrwt>
<rscale>  0 0.57881848E+03</rscale>
<asrwt>0</asrwt>
<pdfrwt beam="1">  1        2 0.57717532E+00 0.71208122E+03</pdfrwt>
<pdfrwt beam="2">  1       -2 0.23072178E-01 0.71208122E+03</pdfrwt>
<totfact> 0.97200190E+00</totfact>
</mgrwt>
</event>
<event>
 4    2  0.3388003E-007  0.9535657E+03  0.7818608E-02  0.9445002E-01
         -2   -1    0    0    0  501 -0.00000000000E+00  0.00000000000E+00  0.17643690486E+04  0.17643690486E+04  0.25500000000E-02 0.  1.
          2   -1    0    0  501    0  0.00000000000E+00 -0.00000000000E+00 -0.11737703312E+04  0.11737703312E+04  0.25500000000E-02 0. -1.
    8880023    1    1    2    0    0 -0.30977613617E+03 -0.61604870961E+03  0.15056465543E+04  0.17822062226E+04  0.65864270000E+03 0.  1.
    8880022    1    1    2    0    0  0.30977613617E+03  0.61604870961E+03 -0.91504783686E+03  0.11559331572E+04  0.15294330000E+03 0.  0.
<mgrwt>
<rscale>  0 0.88462918E+03</rscale>
<asrwt>0</asrwt>
<pdfrwt beam="1">  1        2 0.18058005E+00 0.95356566E+03</pdfrwt>
<pdfrwt beam="2">  1       -2 0.27144139E+00 0.95356566E+03</pdfrwt>
<totfact> 0.93887931E-01</totfact>
</mgrwt>
</event>
<event>
 4    2  0.3650301E-007  0.1158008E+04  0.7818608E-02  0.9199063E-01
          2   -1    0    0  501    0  0.00000000000E+00  0.00000000000E+00  0.19721362587E+04  0.19721362587E+04  0.25500000000E-02 0. -1.
         -2   -1    0    0    0  501 -0.00000000000E+00 -0.00000000000E+00 -0.15193269714E+04  0.15193269714E+04  0.25500000000E-02 0.  1.
    8880023    1    1    2    0    0  0.48146489034E+03  0.82180538057E+03 -0.11427770993E+04  0.16269364552E+04  0.65864270000E+03 0.  0.
    8880022    1    1    2    0    0 -0.48146489034E+03 -0.82180538057E+03  0.15955863866E+04  0.18645267749E+04  0.15294330000E+03 0.  0.
<mgrwt>
<rscale>  0 0.11063104E+04</rscale>
<asrwt>0</asrwt>
<pdfrwt beam="1">  1        2 0.30340558E+00 0.11580081E+04</pdfrwt>
<pdfrwt beam="2">  1       -2 0.23374261E+00 0.11580081E+04</pdfrwt>
<totfact> 0.54838137E-01</totfact>
</mgrwt>
</event>
<event>
 4    2  0.3388003E-007  0.8129502E+03  0.7818608E-02  0.9683464E-01
          2   -1    0    0  501    0  0.00000000000E+00  0.00000000000E+00  0.15267326957E+04  0.15267326957E+04  0.25500000000E-02 0. -1.
         -2   -1    0    0    0  501 -0.00000000000E+00 -0.00000000000E+00 -0.45779587883E+03  0.45779587884E+03  0.25500000000E-02 0.  1.
    8880023    1    1    2    0    0  0.18355473327E+03  0.43975611607E+03  0.96960359955E+01  0.81300799572E+03  0.65864270000E+03 0.  0.
    8880022    1    1    2    0    0 -0.18355473327E+03 -0.43975611607E+03  0.10592407809E+04  0.11715205788E+04  0.15294330000E+03 0.  0.
<mgrwt>
<rscale>  0 0.72009913E+03</rscale>
<asrwt>0</asrwt>
<pdfrwt beam="1">  1        2 0.23488196E+00 0.81295018E+03</pdfrwt>
<pdfrwt beam="2">  1       -2 0.70430134E-01 0.81295018E+03</pdfrwt>
<totfact> 0.22865932E+01</totfact>
</mgrwt>
</event>
<event>
 4    2  0.3388003E-007  0.7886969E+03  0.7818608E-02  0.9735791E-01
         -2   -1    0    0    0  501 -0.00000000000E+00  0.00000000000E+00  0.91294208998E+03  0.91294208998E+03  0.25500000000E-02 0.  1.
          2   -1    0    0  501    0  0.00000000000E+00 -0.00000000000E+00 -0.62675730357E+03  0.62675730358E+03  0.25500000000E-02 0. -1.
    8880023    1    1    2    0    0  0.23725003533E+03  0.36324239417E+03  0.59298754175E+03  0.98675075228E+03  0.65864270000E+03 0.  1.
    8880022    1    1    2    0    0 -0.23725003533E+03 -0.36324239417E+03 -0.30680275535E+03  0.55294864128E+03  0.15294330000E+03 0.  0.
<mgrwt>
<rscale>  0 0.68925240E+03</rscale>
<asrwt>0</asrwt>
<pdfrwt beam="1">  1        2 0.96424201E-01 0.78869691E+03</pdfrwt>
<pdfrwt beam="2">  1       -2 0.14045263E+00 0.78869691E+03</pdfrwt>
<totfact> 0.16923185E+01</totfact>
</mgrwt>
</event>
<event>
 4    2  0.3388003E-007  0.1094176E+04  0.7818608E-02  0.9267569E-01
         -2   -1    0    0    0  501 -0.00000000000E+00  0.00000000000E+00  0.53376894795E+03  0.53376894795E+03  0.25500000000E-02 0.  1.
          2   -1    0    0  501    0  0.00000000000E+00 -0.00000000000E+00 -0.26572854908E+04  0.26572854908E+04  0.25500000000E-02 0. -1.
    8880023    1    1    2    0    0 -0.66031638478E+03 -0.57218199005E+03 -0.25620249964E+03  0.11237703879E+04  0.65864270000E+03 0.  0.
    8880022    1    1    2    0    0  0.66031638478E+03  0.57218199005E+03 -0.18673140433E+04  0.20672840509E+04  0.15294330000E+03 0.  1.
<mgrwt>
<rscale>  0 0.10382416E+04</rscale>
<asrwt>0</asrwt>
<pdfrwt beam="1">  1        2 0.40881315E+00 0.10941756E+04</pdfrwt>
<pdfrwt beam="2">  1       -2 0.82118301E-01 0.10941756E+04</pdfrwt>
<totfact> 0.36710281E+00</totfact>
</mgrwt>
</event>
<event>
 4    2  0.3527959E-007  0.6847070E+03  0.7818608E-02  0.1006777E+00
         -2   -1    0    0    0  501 -0.00000000000E+00  0.00000000000E+00  0.10105409696E+04  0.10105409696E+04  0.25500000000E-02 0.  1.
          2   -1    0    0  501    0  0.00000000000E+00 -0.00000000000E+00 -0.23404243703E+04  0.23404243703E+04  0.25500000000E-02 0. -1.
    8880023    1    1    2    0    0 -0.45299747297E+02  0.18155279697E+03  0.88723279824E+03  0.11207166144E+04  0.65864270000E+03 0.  1.
    8880022    1    1    2    0    0  0.45299747297E+02 -0.18155279697E+03 -0.22171161990E+04  0.22302487256E+04  0.15294330000E+03 0.  0.
<mgrwt>
<rscale>  0 0.52775817E+03</rscale>
<asrwt>0</asrwt>
<pdfrwt beam="1">  1        2 0.36006529E+00 0.68470701E+03</pdfrwt>
<pdfrwt beam="2">  1       -2 0.15546784E+00 0.68470701E+03</pdfrwt>
<totfact> 0.12443464E+00</totfact>
</mgrwt>
</event>
<event>
 4    2  0.3991972E-007  0.1086505E+04  0.7818608E-02  0.9276232E-01
          2   -1    0    0  501    0  0.00000000000E+00  0.00000000000E+00  0.24322434077E+04  0.24322434077E+04  0.25500000000E-02 0. -1.
         -2   -1    0    0    0  501 -0.00000000000E+00 -0.00000000000E+00 -0.11753566427E+04  0.11753566427E+04  0.25500000000E-02 0.  1.
    8880023    1    1    2    0    0  0.36322035505E+03  0.78406210741E+03 -0.81456077258E+03  0.13579403054E+04  0.65864270000E+03 0.  0.
    8880022    1    1    2    0    0 -0.36322035505E+03 -0.78406210741E+03  0.20714475376E+04  0.22496597450E+04  0.15294330000E+03 0.  0.
<mgrwt>
<rscale>  0 0.10300073E+04</rscale>
<asrwt>0</asrwt>
<pdfrwt beam="1">  1        2 0.37419129E+00 0.10865048E+04</pdfrwt>
<pdfrwt beam="2">  1       -2 0.18082410E+00 0.10865048E+04</pdfrwt>
<totfact> 0.67572380E-01</totfact>
</mgrwt>
</event>
<event>
 4    2  0.3388003E-007  0.6640657E+03  0.7818608E-02  0.1020330E+00
          2   -1    0    0  501    0  0.00000000000E+00  0.00000000000E+00  0.29587644027E+04  0.29587644027E+04  0.25500000000E-02 0. -1.
         -2   -1    0    0    0  501 -0.00000000000E+00 -0.00000000000E+00 -0.26173310222E+03  0.26173310224E+03  0.25500000000E-02 0.  1.
    8880023    1    1    2    0    0 -0.51095473113E+02  0.67545091888E+02  0.16741076449E+03  0.68484279739E+03  0.65864270000E+03 0.  1.
    8880022    1    1    2    0    0  0.51095473113E+02 -0.67545091888E+02  0.25296205360E+04  0.25356547076E+04  0.15294330000E+03 0.  0.
<mgrwt>
<rscale>  0 0.47567562E+03</rscale>
<asrwt>0</asrwt>
<pdfrwt beam="1">  1        2 0.45519450E+00 0.66406573E+03</pdfrwt>
<pdfrwt beam="2">  1       -2 0.40266633E-01 0.66406573E+03</pdfrwt>
<totfact> 0.11632375E+01</totfact>
</mgrwt>
</event>
<event>
 4    2  0.3388003E-007  0.6945920E+03  0.7818608E-02  0.1002042E+00
         -2   -1    0    0    0  501 -0.00000000000E+00  0.00000000000E+00  0.17335461792E+04  0.17335461792E+04  0.25500000000E-02 0.  1.
          2   -1    0    0  501    0  0.00000000000E+00 -0.00000000000E+00 -0.22675340093E+03  0.22675340094E+03  0.25500000000E-02 0. -1.
    8880023    1    1    2    0    0  0.26127377665E+02  0.21900945690E+03  0.15404402825E+04  0.16897971039E+04  0.65864270000E+03 0.  1.
    8880022    1    1    2    0    0 -0.26127377665E+02 -0.21900945690E+03 -0.33647504284E+02  0.27050247621E+03  0.15294330000E+03 0. -1.
<mgrwt>
<rscale>  0 0.54763803E+03</rscale>
<asrwt>0</asrwt>
<pdfrwt beam="1">  1        2 0.34885138E-01 0.69459196E+03</pdfrwt>
<pdfrwt beam="2">  1       -2 0.26669942E+00 0.69459196E+03</pdfrwt>
<totfact> 0.79040726E+00</totfact>
</mgrwt>
</event>
<event>
 4    2  0.3388003E-007  0.1099968E+04  0.7818608E-02  0.9261092E-01
         -2   -1    0    0    0  501 -0.00000000000E+00  0.00000000000E+00  0.74615139355E+03  0.74615139356E+03  0.25500000000E-02 0.  1.
          2   -1    0    0  501    0  0.00000000000E+00 -0.00000000000E+00 -0.25437883441E+04  0.25437883441E+04  0.25500000000E-02 0. -1.
    8880023    1    1    2    0    0 -0.17220672849E+03  0.86398143051E+03  0.18461385267E+03  0.11153526574E+04  0.65864270000E+03 0.  1.
    8880022    1    1    2    0    0  0.17220672849E+03 -0.86398143051E+03 -0.19822508032E+04  0.21745870802E+04  0.15294330000E+03 0.  0.
<mgrwt>
<rscale>  0 0.10444509E+04</rscale>
<asrwt>0</asrwt>
<pdfrwt beam="1">  1        2 0.39135205E+00 0.10999679E+04</pdfrwt>
<pdfrwt beam="2">  1       -2 0.11479252E+00 0.10999679E+04</pdfrwt>
<totfact> 0.19333924E+00</totfact>
</mgrwt>
</event>
<event>
 4    2  0.3388003E-007  0.7212004E+03  0.7818608E-02  0.9918545E-01
         -2   -1    0    0    0  501 -0.00000000000E+00  0.00000000000E+00  0.12423250837E+03  0.12423250839E+03  0.25500000000E-02 0.  1.
          2   -1    0    0  501    0  0.00000000000E+00 -0.00000000000E+00 -0.25582800751E+04  0.25582800751E+04  0.25500000000E-02 0. -1.
    8880023    1    1    2    0    0 -0.27742033892E+03 -0.96735713030E+02 -0.11583551365E+04  0.13645206745E+04  0.65864270000E+03 0.  1.
    8880022    1    1    2    0    0  0.27742033892E+03  0.96735713030E+02 -0.12756924302E+04  0.13179919090E+04  0.15294330000E+03 0.  0.
<mgrwt>
<rscale>  0 0.59370881E+03</rscale>
<asrwt>0</asrwt>
<pdfrwt beam="1">  1        2 0.39358151E+00 0.72120042E+03</pdfrwt>
<pdfrwt beam="2">  1       -2 0.19112696E-01 0.72120042E+03</pdfrwt>
<totfact> 0.77686370E+01</totfact>
</mgrwt>
</event>
<event>
 4    2  0.3388003E-007  0.6944952E+03  0.7818608E-02  0.1002085E+00
         -2   -1    0    0    0  501 -0.00000000000E+00  0.00000000000E+00  0.12190387772E+04  0.12190387772E+04  0.25500000000E-02 0.  1.
          2   -1    0    0  501    0  0.00000000000E+00 -0.00000000000E+00 -0.56272828460E+03  0.56272828460E+03  0.25500000000E-02 0. -1.
    8880023    1    1    2    0    0  0.21730789665E+03  0.35925928709E+02  0.10778192112E+04  0.12821925958E+04  0.65864270000E+03 0.  1.
    8880022    1    1    2    0    0 -0.21730789665E+03 -0.35925928709E+02 -0.42150871858E+03  0.49957446608E+03  0.15294330000E+03 0.  0.
<mgrwt>
<rscale>  0 0.54745303E+03</rscale>
<asrwt>0</asrwt>
<pdfrwt beam="1">  1        2 0.86573582E-01 0.69449521E+03</pdfrwt>
<pdfrwt beam="2">  1       -2 0.18754443E+00 0.69449521E+03</pdfrwt>
<totfact> 0.88379154E+00</totfact>
</mgrwt>
</event>
<event>
 4    2  0.3388003E-007  0.7800287E+03  0.7818608E-02  0.9755770E-01
         -2   -1    0    0    0  501 -0.00000000000E+00  0.00000000000E+00  0.27050789126E+03  0.27050789127E+03  0.25500000000E-02 0.  1.
          2   -1    0    0  501    0  0.00000000000E+00 -0.00000000000E+00 -0.16297957920E+04  0.16297957920E+04  0.25500000000E-02 0. -1.
    8880023    1    1    2    0    0 -0.31662759682E+03 -0.27272983774E+03 -0.48289699487E+03  0.91740629678E+03  0.65864270000E+03 0.  0.
    8880022    1    1    2    0    0  0.31662759682E+03  0.27272983774E+03 -0.87639090588E+03  0.98289738650E+03  0.15294330000E+03 0.  0.
<mgrwt>
<rscale>  0 0.67791195E+03</rscale>
<asrwt>0</asrwt>
<pdfrwt beam="1">  1        2 0.25073781E+00 0.78002872E+03</pdfrwt>
<pdfrwt beam="2">  1       -2 0.41616600E-01 0.78002872E+03</pdfrwt>
<totfact> 0.59864926E+01</totfact>
</mgrwt>
</event>
<event>
 4    2  0.3454588E-007  0.8780033E+03  0.7818608E-02  0.9562308E-01
          2   -1    0    0  501    0  0.00000000000E+00  0.00000000000E+00  0.21789691597E+04  0.21789691597E+04  0.25500000000E-02 0. -1.
         -2   -1    0    0    0  501 -0.00000000000E+00 -0.00000000000E+00 -0.97525112380E+03  0.97525112381E+03  0.25500000000E-02 0.  1.
    8880023    1    1    2    0    0 -0.52828990724E+03  0.24080974137E+03 -0.72221400276E+03  0.11368741486E+04  0.65864270000E+03 0.  0.
    8880022    1    1    2    0    0  0.52828990724E+03 -0.24080974137E+03  0.19259320387E+04  0.20173461350E+04  0.15294330000E+03 0. -1.
<mgrwt>
<rscale>  0 0.79841912E+03</rscale>
<asrwt>0</asrwt>
<pdfrwt beam="1">  1        2 0.33522602E+00 0.87800328E+03</pdfrwt>
<pdfrwt beam="2">  1       -2 0.15003864E+00 0.87800328E+03</pdfrwt>
<totfact> 0.16192410E+00</totfact>
</mgrwt>
</event>
<event>
 4    2  0.3388003E-007  0.1312817E+04  0.7818608E-02  0.9054570E-01
         -2   -1    0    0    0  501 -0.00000000000E+00  0.00000000000E+00  0.20766323989E+04  0.20766323989E+04  0.25500000000E-02 0.  1.
          2   -1    0    0  501    0  0.00000000000E+00 -0.00000000000E+00 -0.10237658837E+04  0.10237658837E+04  0.25500000000E-02 0. -1.
    8880023    1    1    2    0    0 -0.30054222692E+03 -0.10951500239E+04  0.13840178499E+04  0.19076149559E+04  0.65864270000E+03 0.  0.
    8880022    1    1    2    0    0  0.30054222692E+03  0.10951500239E+04 -0.33115133469E+03  0.11927833267E+04  0.15294330000E+03 0.  0.
<mgrwt>
<rscale>  0 0.12689346E+04</rscale>
<asrwt>0</asrwt>
<pdfrwt beam="1">  1        2 0.15750244E+00 0.13128174E+04</pdfrwt>
<pdfrwt beam="2">  1       -2 0.31948191E+00 0.13128174E+04</pdfrwt>
<totfact> 0.56718071E-01</totfact>
</mgrwt>
</event>
<event>
 4    2  0.3388003E-007  0.9138316E+03  0.7818608E-02  0.9504182E-01
         -2   -1    0    0    0  501 -0.00000000000E+00  0.00000000000E+00  0.12784806534E+04  0.12784806534E+04  0.25500000000E-02 0.  1.
          2   -1    0    0  501    0  0.00000000000E+00 -0.00000000000E+00 -0.86797737264E+03  0.86797737265E+03  0.25500000000E-02 0. -1.
    8880023    1    1    2    0    0  0.53615360051E+02  0.63119205958E+03  0.93688395061E+03  0.13087550443E+04  0.65864270000E+03 0.  1.
    8880022    1    1    2    0    0 -0.53615360051E+02 -0.63119205958E+03 -0.52638066987E+03  0.83770298169E+03  0.15294330000E+03 0.  0.
<mgrwt>
<rscale>  0 0.83976166E+03</rscale>
<asrwt>0</asrwt>
<pdfrwt beam="1">  1        2 0.13353498E+00 0.91383162E+03</pdfrwt>
<pdfrwt beam="2">  1       -2 0.19668933E+00 0.91383162E+03</pdfrwt>
<totfact> 0.43198135E+00</totfact>
</mgrwt>
</event>
<event>
 4    2  0.3388003E-007  0.6601232E+03  0.7818608E-02  0.1024031E+00
          2   -1    0    0  501    0  0.00000000000E+00  0.00000000000E+00  0.25710907604E+04  0.25710907604E+04  0.25500000000E-02 0. -1.
         -2   -1    0    0    0  501 -0.00000000000E+00 -0.00000000000E+00 -0.40193068447E+03  0.40193068448E+03  0.25500000000E-02 0.  1.
    8880023    1    1    2    0    0 -0.77663658652E+01 -0.43497826013E+02 -0.12625832954E+03  0.67208909331E+03  0.65864270000E+03 0.  1.
    8880022    1    1    2    0    0  0.77663658652E+01  0.43497826013E+02  0.22954184055E+04  0.23009323516E+04  0.15294330000E+03 0.  0.
<mgrwt>
<rscale>  0 0.46259740E+03</rscale>
<asrwt>0</asrwt>
<pdfrwt beam="1">  1        2 0.39555243E+00 0.66012316E+03</pdfrwt>
<pdfrwt beam="2">  1       -2 0.61835489E-01 0.66012316E+03</pdfrwt>
<totfact> 0.82160578E+00</totfact>
</mgrwt>
</event>
<event>
 4    2  0.3388003E-007  0.1173898E+04  0.7818608E-02  0.9182923E-01
         -2   -1    0    0    0  501 -0.00000000000E+00  0.00000000000E+00  0.17285565529E+04  0.17285565529E+04  0.25500000000E-02 0.  1.
          2   -1    0    0  501    0  0.00000000000E+00 -0.00000000000E+00 -0.13927322436E+04  0.13927322436E+04  0.25500000000E-02 0. -1.
    8880023    1    1    2    0    0  0.79966237614E+03 -0.55205623179E+03 -0.94451733142E+03  0.15067014284E+04  0.65864270000E+03 0. -1.
    8880022    1    1    2    0    0 -0.79966237614E+03  0.55205623179E+03  0.12803416407E+04  0.16145873680E+04  0.15294330000E+03 0.  0.
<mgrwt>
<rscale>  0 0.11231447E+04</rscale>
<asrwt>0</asrwt>
<pdfrwt beam="1">  1        2 0.21426650E+00 0.11738979E+04</pdfrwt>
<pdfrwt beam="2">  1       -2 0.26593178E+00 0.11738979E+04</pdfrwt>
<totfact> 0.73193746E-01</totfact>
</mgrwt>
</event>
<event>
 4    2  0.3388003E-007  0.6811890E+03  0.7818608E-02  0.1008659E+00
          2   -1    0    0  501    0  0.00000000000E+00  0.00000000000E+00  0.19374268895E+03  0.19374268897E+03  0.25500000000E-02 0. -1.
         -2   -1    0    0    0  501 -0.00000000000E+00 -0.00000000000E+00 -0.12516888240E+04  0.12516888240E+04  0.25500000000E-02 0.  1.
    8880023    1    1    2    0    0  0.10682931755E+02  0.17347660214E+03 -0.99441805053E+03  0.12053570931E+04  0.65864270000E+03 0.  0.
    8880022    1    1    2    0    0 -0.10682931755E+02 -0.17347660214E+03 -0.63528084533E+02  0.24007441984E+03  0.15294330000E+03 0.  0.
<mgrwt>
<rscale>  0 0.52011123E+03</rscale>
<asrwt>0</asrwt>
<pdfrwt beam="1">  1        2 0.29806568E-01 0.68118901E+03</pdfrwt>
<pdfrwt beam="2">  1       -2 0.19256751E+00 0.68118901E+03</pdfrwt>
<totfact> 0.27259653E+01</totfact>
</mgrwt>
</event>
<event>
 4    2  0.3388003E-007  0.6730589E+03  0.7818608E-02  0.1013559E+00
         -2   -1    0    0    0  501 -0.00000000000E+00  0.00000000000E+00  0.21345631105E+03  0.21345631107E+03  0.25500000000E-02 0.  1.
          2   -1    0    0  501    0  0.00000000000E+00 -0.00000000000E+00 -0.20943952713E+04  0.20943952713E+04  0.25500000000E-02 0. -1.
    8880023    1    1    2    0    0 -0.13704157499E+03 -0.20436159249E+02 -0.34168071692E+03  0.75482047432E+03  0.65864270000E+03 0.  1.
    8880022    1    1    2    0    0  0.13704157499E+03  0.20436159249E+02 -0.15392582433E+04  0.15530311080E+04  0.15294330000E+03 0.  0.
<mgrwt>
<rscale>  0 0.50084442E+03</rscale>
<asrwt>0</asrwt>
<pdfrwt beam="1">  1        2 0.32221464E+00 0.67305887E+03</pdfrwt>
<pdfrwt beam="2">  1       -2 0.32839434E-01 0.67305887E+03</pdfrwt>
<totfact> 0.53317639E+01</totfact>
</mgrwt>
</event>
<event>
 4    2  0.3388003E-007  0.9252451E+03  0.7818608E-02  0.9486663E-01
         -2   -1    0    0    0  501 -0.00000000000E+00  0.00000000000E+00  0.46634384460E+03  0.46634384461E+03  0.25500000000E-02 0.  1.
          2   -1    0    0  501    0  0.00000000000E+00 -0.00000000000E+00 -0.21159337352E+04  0.21159337352E+04  0.25500000000E-02 0. -1.
    8880023    1    1    2    0    0 -0.44034088393E+02  0.64832802994E+03 -0.14539699361E+03  0.93659955550E+03  0.65864270000E+03 0.  0.
    8880022    1    1    2    0    0  0.44034088393E+02 -0.64832802994E+03 -0.15041928970E+04  0.16456780243E+04  0.15294330000E+03 0. -1.
<mgrwt>
<rscale>  0 0.85274274E+03</rscale>
<asrwt>0</asrwt>
<pdfrwt beam="1">  1        2 0.32552826E+00 0.92524507E+03</pdfrwt>
<pdfrwt beam="2">  1       -2 0.71745208E-01 0.92524507E+03</pdfrwt>
<totfact> 0.10274391E+01</totfact>
</mgrwt>
</event>
<event>
 4    2  0.3388003E-007  0.1080430E+04  0.7818608E-02  0.9283164E-01
          2   -1    0    0  501    0  0.00000000000E+00  0.00000000000E+00  0.36483183050E+04  0.36483183050E+04  0.25500000000E-02 0. -1.
         -2   -1    0    0    0  501 -0.00000000000E+00 -0.00000000000E+00 -0.50620734237E+03  0.50620734238E+03  0.25500000000E-02 0.  1.
    8880023    1    1    2    0    0 -0.83776082432E+03 -0.17797873913E+03  0.21599256298E+03  0.11018087964E+04  0.65864270000E+03 0.  0.
    8880022    1    1    2    0    0  0.83776082432E+03  0.17797873913E+03  0.29261183997E+04  0.30527168510E+04  0.15294330000E+03 0.  0.
<mgrwt>
<rscale>  0 0.10234773E+04</rscale>
<asrwt>0</asrwt>
<pdfrwt beam="1">  1        2 0.56127975E+00 0.10804304E+04</pdfrwt>
<pdfrwt beam="2">  1       -2 0.77878052E-01 0.10804304E+04</pdfrwt>
<totfact> 0.95960645E-01</totfact>
</mgrwt>
</event>
<event>
 4    2  0.3388003E-007  0.1484920E+04  0.7818608E-02  0.8920359E-01
          2   -1    0    0  501    0  0.00000000000E+00  0.00000000000E+00  0.35905522486E+04  0.35905522486E+04  0.25500000000E-02 0. -1.
         -2   -1    0    0    0  501 -0.00000000000E+00 -0.00000000000E+00 -0.58850219571E+03  0.58850219571E+03  0.25500000000E-02 0.  1.
    8880023    1    1    2    0    0 -0.24722145032E+02 -0.13306257937E+04  0.10796012040E+04  0.18358990041E+04  0.65864270000E+03 0.  1.
    8880022    1    1    2    0    0  0.24722145032E+02  0.13306257937E+04  0.19224488489E+04  0.23431554402E+04  0.15294330000E+03 0. -1.
<mgrwt>
<rscale>  0 0.14471788E+04</rscale>
<asrwt>0</asrwt>
<pdfrwt beam="1">  1        2 0.55239266E+00 0.14849197E+04</pdfrwt>
<pdfrwt beam="2">  1       -2 0.90538798E-01 0.14849197E+04</pdfrwt>
<totfact> 0.70681930E-01</totfact>
</mgrwt>
</event>
<event>
 4    2  0.3388003E-007  0.9456942E+03  0.7818608E-02  0.9456336E-01
         -2   -1    0    0    0  501 -0.00000000000E+00  0.00000000000E+00  0.10305672805E+04  0.10305672805E+04  0.25500000000E-02 0.  1.
          2   -1    0    0  501    0  0.00000000000E+00 -0.00000000000E+00 -0.72107097144E+03  0.72107097145E+03  0.25500000000E-02 0. -1.
    8880023    1    1    2    0    0  0.67512767625E+03  0.68773902933E+02 -0.89115643097E+02  0.94988369450E+03  0.65864270000E+03 0.  1.
    8880022    1    1    2    0    0 -0.67512767625E+03 -0.68773902933E+02  0.39861195214E+03  0.80175455744E+03  0.15294330000E+03 0.  0.
<mgrwt>
<rscale>  0 0.87580940E+03</rscale>
<asrwt>0</asrwt>
<pdfrwt beam="1">  1        2 0.11093400E+00 0.94569416E+03</pdfrwt>
<pdfrwt beam="2">  1       -2 0.15854881E+00 0.94569416E+03</pdfrwt>
<totfact> 0.10155660E+01</totfact>
</mgrwt>
</event>
<event>
 4    2  0.3388003E-007  0.6909754E+03  0.7818608E-02  0.1003692E+00
          2   -1    0    0  501    0  0.00000000000E+00  0.00000000000E+00  0.22340978909E+04  0.22340978909E+04  0.25500000000E-02 0. -1.
         -2   -1    0    0    0  501 -0.00000000000E+00 -0.00000000000E+00 -0.12733989168E+03  0.12733989170E+03  0.25500000000E-02 0.  1.
    8880023    1    1    2    0    0  0.15740724307E+02 -0.20830025229E+03  0.94198890260E+03  0.11682422970E+04  0.65864270000E+03 0.  1.
    8880022    1    1    2    0    0 -0.15740724307E+02  0.20830025229E+03  0.11647690966E+04  0.11931954856E+04  0.15294330000E+03 0.  0.
<mgrwt>
<rscale>  0 0.54060406E+03</rscale>
<asrwt>0</asrwt>
<pdfrwt beam="1">  1        2 0.34370738E+00 0.69097538E+03</pdfrwt>
<pdfrwt beam="2">  1       -2 0.19590752E-01 0.69097538E+03</pdfrwt>
<totfact> 0.11345422E+02</totfact>
</mgrwt>
</event>
<event>
 4    2  0.3388003E-007  0.7309863E+03  0.7818608E-02  0.9887027E-01
         -2   -1    0    0    0  501 -0.00000000000E+00  0.00000000000E+00  0.72360849257E+03  0.72360849257E+03  0.25500000000E-02 0.  1.
          2   -1    0    0  501    0  0.00000000000E+00 -0.00000000000E+00 -0.44133432575E+03  0.44133432575E+03  0.25500000000E-02 0. -1.
    8880023    1    1    2    0    0  0.28301068949E+03  0.14295351931E+03  0.34343383565E+03  0.80764334008E+03  0.65864270000E+03 0.  1.
    8880022    1    1    2    0    0 -0.28301068949E+03 -0.14295351931E+03 -0.61159668823E+02  0.35729947824E+03  0.15294330000E+03 0.  0.
<mgrwt>
<rscale>  0 0.60894162E+03</rscale>
<asrwt>0</asrwt>
<pdfrwt beam="1">  1        2 0.67897590E-01 0.73098630E+03</pdfrwt>
<pdfrwt beam="2">  1       -2 0.11132438E+00 0.73098630E+03</pdfrwt>
<totfact> 0.45966214E+01</totfact>
</mgrwt>
</event>
<event>
 4    2  0.3388003E-007  0.8611718E+03  0.7818608E-02  0.9591482E-01
          2   -1    0    0  501    0  0.00000000000E+00  0.00000000000E+00  0.18559741052E+04  0.18559741052E+04  0.25500000000E-02 0. -1.
         -2   -1    0    0    0  501 -0.00000000000E+00 -0.00000000000E+00 -0.40190855911E+03  0.40190855912E+03  0.25500000000E-02 0.  1.
    8880023    1    1    2    0    0  0.47729262288E+02  0.55274637297E+03  0.20888703085E+03  0.88614368656E+03  0.65864270000E+03 0.  0.
    8880022    1    1    2    0    0 -0.47729262288E+02 -0.55274637297E+03  0.12451785153E+04  0.13717389778E+04  0.15294330000E+03 0. -1.
<mgrwt>
<rscale>  0 0.77862502E+03</rscale>
<asrwt>0</asrwt>
<pdfrwt beam="1">  1        2 0.28553448E+00 0.86117178E+03</pdfrwt>
<pdfrwt beam="2">  1       -2 0.61832085E-01 0.86117178E+03</pdfrwt>
<totfact> 0.19844087E+01</totfact>
</mgrwt>
</event>
<event>
 4    2  0.3388003E-007  0.7987218E+03  0.7818608E-02  0.9713567E-01
         -2   -1    0    0    0  501 -0.00000000000E+00  0.00000000000E+00  0.11157094773E+04  0.11157094773E+04  0.25500000000E-02 0.  1.
          2   -1    0    0  501    0  0.00000000000E+00 -0.00000000000E+00 -0.37590060625E+03  0.37590060626E+03  0.25500000000E-02 0. -1.
    8880023    1    1    2    0    0 -0.33825949200E+03  0.29954443061E+03  0.33556366974E+03  0.86634838983E+03  0.65864270000E+03 0.  0.
    8880022    1    1    2    0    0  0.33825949200E+03 -0.29954443061E+03  0.40424520129E+03  0.62526169371E+03  0.15294330000E+03 0.  0.
<mgrwt>
<rscale>  0 0.70214759E+03</rscale>
<asrwt>0</asrwt>
<pdfrwt beam="1">  1        2 0.57830862E-01 0.79872183E+03</pdfrwt>
<pdfrwt beam="2">  1       -2 0.17164761E+00 0.79872183E+03</pdfrwt>
<totfact> 0.17879912E+01</totfact>
</mgrwt>
</event>
<event>
 4    2  0.3388003E-007  0.1278653E+04  0.7818608E-02  0.9084217E-01
         -2   -1    0    0    0  501 -0.00000000000E+00  0.00000000000E+00  0.91880964477E+03  0.91880964477E+03  0.25500000000E-02 0.  1.
          2   -1    0    0  501    0  0.00000000000E+00 -0.00000000000E+00 -0.16773452472E+04  0.16773452472E+04  0.25500000000E-02 0. -1.
    8880023    1    1    2    0    0  0.93543811281E+03 -0.57105074013E+03 -0.44956736329E+02  0.12794431309E+04  0.65864270000E+03 0.  1.
    8880022    1    1    2    0    0 -0.93543811281E+03  0.57105074013E+03 -0.71357886610E+03  0.13167117611E+04  0.15294330000E+03 0.  0.
<mgrwt>
<rscale>  0 0.12332779E+04</rscale>
<asrwt>0</asrwt>
<pdfrwt beam="1">  1        2 0.25805311E+00 0.12786530E+04</pdfrwt>
<pdfrwt beam="2">  1       -2 0.14135533E+00 0.12786530E+04</pdfrwt>
<totfact> 0.34140981E+00</totfact>
</mgrwt>
</event>
<event>
 4    2  0.3388003E-007  0.1977567E+04  0.7818608E-02  0.8630192E-01
         -2   -1    0    0    0  501 -0.00000000000E+00  0.00000000000E+00  0.27842284438E+04  0.27842284438E+04  0.25500000000E-02 0.  1.
          2   -1    0    0  501    0  0.00000000000E+00 -0.00000000000E+00 -0.26402644929E+04  0.26402644929E+04  0.25500000000E-02 0. -1.
    8880023    1    1    2    0    0  0.15283434279E+04 -0.10682364514E+04  0.19833632150E+04  0.28008039201E+04  0.65864270000E+03 0.  0.
    8880022    1    1    2    0    0 -0.15283434279E+04  0.10682364514E+04 -0.18393992642E+04  0.26236890166E+04  0.15294330000E+03 0.  0.
<mgrwt>
<rscale>  0 0.19503497E+04</rscale>
<asrwt>0</asrwt>
<pdfrwt beam="1">  1        2 0.40619454E+00 0.19775674E+04</pdfrwt>
<pdfrwt beam="2">  1       -2 0.42834284E+00 0.19775674E+04</pdfrwt>
<totfact> 0.12265122E-02</totfact>
</mgrwt>
</event>
<event>
 4    2  0.3388003E-007  0.7312053E+03  0.7818608E-02  0.9886348E-01
          2   -1    0    0  501    0  0.00000000000E+00  0.00000000000E+00  0.47535278822E+03  0.47535278823E+03  0.25500000000E-02 0. -1.
         -2   -1    0    0    0  501 -0.00000000000E+00 -0.00000000000E+00 -0.78204712093E+03  0.78204712094E+03  0.25500000000E-02 0.  1.
    8880023    1    1    2    0    0 -0.31120195310E+03 -0.63279706933E+02 -0.46968411859E+03  0.86905946543E+03  0.65864270000E+03 0.  1.
    8880022    1    1    2    0    0  0.31120195310E+03  0.63279706933E+02  0.16298978588E+03  0.38834044374E+03  0.15294330000E+03 0. -1.
<mgrwt>
<rscale>  0 0.60927495E+03</rscale>
<asrwt>0</asrwt>
<pdfrwt beam="1">  1        2 0.73131198E-01 0.73120529E+03</pdfrwt>
<pdfrwt beam="2">  1       -2 0.12031494E+00 0.73120529E+03</pdfrwt>
<totfact> 0.34909904E+01</totfact>
</mgrwt>
</event>
<event>
 4    2  0.3388003E-007  0.8792094E+03  0.7818608E-02  0.9560267E-01
         -2   -1    0    0    0  501 -0.00000000000E+00  0.00000000000E+00  0.32333705816E+03  0.32333705817E+03  0.25500000000E-02 0.  1.
          2   -1    0    0  501    0  0.00000000000E+00 -0.00000000000E+00 -0.33659669659E+04  0.33659669659E+04  0.25500000000E-02 0. -1.
    8880023    1    1    2    0    0 -0.47991723320E+03  0.32996736276E+03 -0.37720723251E+03  0.95671025589E+03  0.65864270000E+03 0.  1.
    8880022    1    1    2    0    0  0.47991723320E+03 -0.32996736276E+03 -0.26654226752E+04  0.27325937681E+04  0.15294330000E+03 0.  0.
<mgrwt>
<rscale>  0 0.79982750E+03</rscale>
<asrwt>0</asrwt>
<pdfrwt beam="1">  1        2 0.51784105E+00 0.87920943E+03</pdfrwt>
<pdfrwt beam="2">  1       -2 0.49744165E-01 0.87920943E+03</pdfrwt>
<totfact> 0.40515360E+00</totfact>
</mgrwt>
</event>
<event>
 4    2  0.3388003E-007  0.1050800E+04  0.7818608E-02  0.9317921E-01
         -2   -1    0    0    0  501 -0.00000000000E+00  0.00000000000E+00  0.72775093994E+03  0.72775093995E+03  0.25500000000E-02 0.  1.
          2   -1    0    0  501    0  0.00000000000E+00 -0.00000000000E+00 -0.20918421051E+04  0.20918421051E+04  0.25500000000E-02 0. -1.
    8880023    1    1    2    0    0  0.77103941461E+03 -0.27544116457E+03 -0.16351440328E+04  0.19436758548E+04  0.65864270000E+03 0. -1.
    8880022    1    1    2    0    0 -0.77103941461E+03  0.27544116457E+03  0.27105286773E+03  0.87591719023E+03  0.15294330000E+03 0.  0.
<mgrwt>
<rscale>  0 0.99149650E+03</rscale>
<asrwt>0</asrwt>
<pdfrwt beam="1">  1        2 0.32182186E+00 0.10507996E+04</pdfrwt>
<pdfrwt beam="2">  1       -2 0.11196168E+00 0.10507996E+04</pdfrwt>
<totfact> 0.37168974E+00</totfact>
</mgrwt>
</event>
<event>
 4    2  0.3388003E-007  0.8952806E+03  0.7818608E-02  0.9533651E-01
          2   -1    0    0  501    0  0.00000000000E+00  0.00000000000E+00  0.14246548417E+04  0.14246548417E+04  0.25500000000E-02 0. -1.
         -2   -1    0    0    0  501 -0.00000000000E+00 -0.00000000000E+00 -0.12928294119E+04  0.12928294119E+04  0.25500000000E-02 0.  1.
    8880023    1    1    2    0    0  0.44946120677E+03  0.40706484925E+03 -0.10503193781E+04  0.13801080285E+04  0.65864270000E+03 0.  0.
    8880022    1    1    2    0    0 -0.44946120677E+03 -0.40706484925E+03  0.11821448079E+04  0.13373762252E+04  0.15294330000E+03 0.  0.
<mgrwt>
<rscale>  0 0.81847720E+03</rscale>
<asrwt>0</asrwt>
<pdfrwt beam="1">  1        2 0.21917767E+00 0.89528061E+03</pdfrwt>
<pdfrwt beam="2">  1       -2 0.19889683E+00 0.89528061E+03</pdfrwt>
<totfact> 0.19083919E+00</totfact>
</mgrwt>
</event>
<event>
 4    2  0.3388003E-007  0.7519605E+03  0.7818608E-02  0.9826384E-01
         -2   -1    0    0    0  501 -0.00000000000E+00  0.00000000000E+00  0.71501853667E+03  0.71501853668E+03  0.25500000000E-02 0.  1.
          2   -1    0    0  501    0  0.00000000000E+00 -0.00000000000E+00 -0.67141600755E+03  0.67141600755E+03  0.25500000000E-02 0. -1.
    8880023    1    1    2    0    0 -0.20629039335E+03 -0.29846036995E+03  0.40316929202E+03  0.85322330202E+03  0.65864270000E+03 0.  1.
    8880022    1    1    2    0    0  0.20629039335E+03  0.29846036995E+03 -0.35956676290E+03  0.53321124221E+03  0.15294330000E+03 0.  0.
<mgrwt>
<rscale>  0 0.63965649E+03</rscale>
<asrwt>0</asrwt>
<pdfrwt beam="1">  1        2 0.10329477E+00 0.75196045E+03</pdfrwt>
<pdfrwt beam="2">  1       -2 0.11000285E+00 0.75196045E+03</pdfrwt>
<totfact> 0.28742081E+01</totfact>
</mgrwt>
</event>
<event>
 4    2  0.3388003E-007  0.7147479E+03  0.7818608E-02  0.9940775E-01
         -2   -1    0    0    0  501 -0.00000000000E+00  0.00000000000E+00  0.87539963407E+03  0.87539963408E+03  0.25500000000E-02 0.  1.
          2   -1    0    0  501    0  0.00000000000E+00 -0.00000000000E+00 -0.45241248498E+03  0.45241248499E+03  0.25500000000E-02 0. -1.
    8880023    1    1    2    0    0  0.93404696376E+02  0.26139997668E+03  0.62709011008E+03  0.95084520167E+03  0.65864270000E+03 0.  1.
    8880022    1    1    2    0    0 -0.93404696376E+02 -0.26139997668E+03 -0.20410296099E+03  0.37696691740E+03  0.15294330000E+03 0.  0.
<mgrwt>
<rscale>  0 0.58325205E+03</rscale>
<asrwt>0</asrwt>
<pdfrwt beam="1">  1        2 0.69601922E-01 0.71474792E+03</pdfrwt>
<pdfrwt beam="2">  1       -2 0.13467687E+00 0.71474792E+03</pdfrwt>
<totfact> 0.27855128E+01</totfact>
</mgrwt>
</event>
<event>
 4    2  0.3388003E-007  0.1011344E+04  0.7818608E-02  0.9366864E-01
         -2   -1    0    0    0  501 -0.00000000000E+00  0.00000000000E+00  0.53263730856E+03  0.53263730856E+03  0.25500000000E-02 0.  1.
          2   -1    0    0  501    0  0.00000000000E+00 -0.00000000000E+00 -0.28919978007E+04  0.28919978007E+04  0.25500000000E-02 0. -1.
    8880023    1    1    2    0    0 -0.48506840759E+03 -0.59473986702E+03 -0.24367207002E+04  0.26382617092E+04  0.65864270000E+03 0. -1.
    8880022    1    1    2    0    0  0.48506840759E+03  0.59473986702E+03  0.77360208038E+02  0.78637340003E+03  0.15294330000E+03 0.  0.
<mgrwt>
<rscale>  0 0.94853532E+03</rscale>
<asrwt>0</asrwt>
<pdfrwt beam="1">  1        2 0.44492273E+00 0.10113442E+04</pdfrwt>
<pdfrwt beam="2">  1       -2 0.81944203E-01 0.10113442E+04</pdfrwt>
<totfact> 0.27051649E+00</totfact>
</mgrwt>
</event>
<event>
 4    2  0.3388003E-007  0.6714101E+03  0.7818608E-02  0.1014672E+00
         -2   -1    0    0    0  501 -0.00000000000E+00  0.00000000000E+00  0.11024371393E+04  0.11024371393E+04  0.25500000000E-02 0.  1.
          2   -1    0    0  501    0  0.00000000000E+00 -0.00000000000E+00 -0.27749263172E+03  0.27749263173E+03  0.25500000000E-02 0. -1.
    8880023    1    1    2    0    0  0.52039479904E+02 -0.11947039609E+03  0.93479864753E+03  0.11509300590E+04  0.65864270000E+03 0.  1.
    8880022    1    1    2    0    0 -0.52039479904E+02  0.11947039609E+03 -0.10985413999E+03  0.22899971200E+03  0.15294330000E+03 0.  0.
<mgrwt>
<rscale>  0 0.49659482E+03</rscale>
<asrwt>0</asrwt>
<pdfrwt beam="1">  1        2 0.42691173E-01 0.67141008E+03</pdfrwt>
<pdfrwt beam="2">  1       -2 0.16960572E+00 0.67141008E+03</pdfrwt>
<totfact> 0.26192548E+01</totfact>
</mgrwt>
</event>
<event>
 4    2  0.3388003E-007  0.8328699E+03  0.7818608E-02  0.9643774E-01
          2   -1    0    0  501    0  0.00000000000E+00  0.00000000000E+00  0.50316729685E+03  0.50316729685E+03  0.25500000000E-02 0. -1.
         -2   -1    0    0    0  501 -0.00000000000E+00 -0.00000000000E+00 -0.10652893120E+04  0.10652893120E+04  0.25500000000E-02 0.  1.
    8880023    1    1    2    0    0  0.41091342596E+03  0.30168221399E+03 -0.61252943034E+03  0.10338590383E+04  0.65864270000E+03 0.  1.
    8880022    1    1    2    0    0 -0.41091342596E+03 -0.30168221399E+03  0.50407415186E+02  0.53459757051E+03  0.15294330000E+03 0.  0.
<mgrwt>
<rscale>  0 0.74465447E+03</rscale>
<asrwt>0</asrwt>
<pdfrwt beam="1">  1        2 0.77410353E-01 0.83286986E+03</pdfrwt>
<pdfrwt beam="2">  1       -2 0.16389066E+00 0.83286986E+03</pdfrwt>
<totfact> 0.14523007E+01</totfact>
</mgrwt>
</event>
<event>
 4    2  0.3388003E-007  0.7786320E+03  0.7818608E-02  0.9759060E-01
         -2   -1    0    0    0  501 -0.00000000000E+00  0.00000000000E+00  0.68083565467E+03  0.68083565467E+03  0.25500000000E-02 0.  1.
          2   -1    0    0  501    0  0.00000000000E+00 -0.00000000000E+00 -0.94718887922E+03  0.94718887923E+03  0.25500000000E-02 0. -1.
    8880023    1    1    2    0    0 -0.34137038565E+03  0.23648236414E+03  0.36264592453E+03  0.85894116306E+03  0.65864270000E+03 0.  1.
    8880022    1    1    2    0    0  0.34137038565E+03 -0.23648236414E+03 -0.62899914908E+03  0.76908337085E+03  0.15294330000E+03 0.  0.
<mgrwt>
<rscale>  0 0.67606656E+03</rscale>
<asrwt>0</asrwt>
<pdfrwt beam="1">  1        2 0.14572137E+00 0.77863204E+03</pdfrwt>
<pdfrwt beam="2">  1       -2 0.10474395E+00 0.77863204E+03</pdfrwt>
<totfact> 0.20423218E+01</totfact>
</mgrwt>
</event>
<event>
 4    2  0.3388003E-007  0.1133281E+04  0.7818608E-02  0.9224877E-01
         -2   -1    0    0    0  501 -0.00000000000E+00  0.00000000000E+00  0.33118617722E+03  0.33118617723E+03  0.25500000000E-02 0.  1.
          2   -1    0    0  501    0  0.00000000000E+00 -0.00000000000E+00 -0.43048434039E+04  0.43048434039E+04  0.25500000000E-02 0. -1.
    8880023    1    1    2    0    0  0.91609112847E+03  0.10626342649E+03 -0.32848280972E+04  0.34748267159E+04  0.65864270000E+03 0.  0.
    8880022    1    1    2    0    0 -0.91609112847E+03 -0.10626342649E+03 -0.68882912951E+03  0.11612028652E+04  0.15294330000E+03 0.  0.
<mgrwt>
<rscale>  0 0.10800310E+04</rscale>
<asrwt>0</asrwt>
<pdfrwt beam="1">  1        2 0.66228356E+00 0.11332807E+04</pdfrwt>
<pdfrwt beam="2">  1       -2 0.50951723E-01 0.11332807E+04</pdfrwt>
<totfact> 0.71237023E-01</totfact>
</mgrwt>
</event>
<event>
 4    2  0.3388003E-007  0.7454494E+03  0.7818608E-02  0.9844348E-01
          2   -1    0    0  501    0  0.00000000000E+00  0.00000000000E+00  0.62133508157E+03  0.62133508157E+03  0.25500000000E-02 0. -1.
         -2   -1    0    0    0  501 -0.00000000000E+00 -0.00000000000E+00 -0.51793005165E+03  0.51793005166E+03  0.25500000000E-02 0.  1.
    8880023    1    1    2    0    0  0.33654061050E+03 -0.92871017144E+02  0.43878817350E+01  0.74546231837E+03  0.65864270000E+03 0.  0.
    8880022    1    1    2    0    0 -0.33654061050E+03  0.92871017144E+02  0.99017148181E+02  0.39380281486E+03  0.15294330000E+03 0.  0.
<mgrwt>
<rscale>  0 0.63035900E+03</rscale>
<asrwt>0</asrwt>
<pdfrwt beam="1">  1        2 0.95590013E-01 0.74544940E+03</pdfrwt>
<pdfrwt beam="2">  1       -2 0.79681546E-01 0.74544940E+03</pdfrwt>
<totfact> 0.67116450E+01</totfact>
</mgrwt>
</event>
<event>
 4    2  0.3388003E-007  0.1158095E+04  0.7818608E-02  0.9198974E-01
          2   -1    0    0  501    0  0.00000000000E+00  0.00000000000E+00  0.30918961862E+04  0.30918961862E+04  0.25500000000E-02 0. -1.
         -2   -1    0    0    0  501 -0.00000000000E+00 -0.00000000000E+00 -0.42654217913E+03  0.42654217914E+03  0.25500000000E-02 0.  1.
    8880023    1    1    2    0    0  0.94694346361E+03 -0.10330208465E+03  0.21055545813E+04  0.24030279951E+04  0.65864270000E+03 0.  0.
    8880022    1    1    2    0    0 -0.94694346361E+03  0.10330208465E+03  0.55979942571E+03  0.11154103702E+04  0.15294330000E+03 0.  0.
<mgrwt>
<rscale>  0 0.11064023E+04</rscale>
<asrwt>0</asrwt>
<pdfrwt beam="1">  1        2 0.47567633E+00 0.11580948E+04</pdfrwt>
<pdfrwt beam="2">  1       -2 0.65621875E-01 0.11580948E+04</pdfrwt>
<totfact> 0.32657236E+00</totfact>
</mgrwt>
</event>
<event>
 4    2  0.3388003E-007  0.7946345E+03  0.7818608E-02  0.9722520E-01
          2   -1    0    0  501    0  0.00000000000E+00  0.00000000000E+00  0.39495383751E+04  0.39495383751E+04  0.25500000000E-02 0. -1.
         -2   -1    0    0    0  501 -0.00000000000E+00 -0.00000000000E+00 -0.50694268288E+03  0.50694268289E+03  0.25500000000E-02 0.  1.
    8880023    1    1    2    0    0 -0.43972921794E+03 -0.65360269833E+02 -0.17067210436E+03  0.81275637398E+03  0.65864270000E+03 0.  0.
    8880022    1    1    2    0    0  0.43972921794E+03  0.65360269833E+02  0.36132677966E+04  0.36437246840E+04  0.15294330000E+03 0.  0.
<mgrwt>
<rscale>  0 0.69691663E+03</rscale>
<asrwt>0</asrwt>
<pdfrwt beam="1">  1        2 0.60762131E+00 0.79463448E+03</pdfrwt>
<pdfrwt beam="2">  1       -2 0.77991179E-01 0.79463448E+03</pdfrwt>
<totfact> 0.60388331E-01</totfact>
</mgrwt>
</event>
<event>
 4    2  0.3388003E-007  0.6678613E+03  0.7818608E-02  0.1017245E+00
          2   -1    0    0  501    0  0.00000000000E+00  0.00000000000E+00  0.12783472793E+03  0.12783472795E+03  0.25500000000E-02 0. -1.
         -2   -1    0    0    0  501 -0.00000000000E+00 -0.00000000000E+00 -0.29921167435E+04  0.29921167435E+04  0.25500000000E-02 0.  1.
    8880023    1    1    2    0    0  0.54936157818E+02  0.95971763583E+02 -0.28538227422E+04  0.29309286943E+04  0.65864270000E+03 0.  1.
    8880022    1    1    2    0    0 -0.54936157818E+02 -0.95971763583E+02 -0.10459273280E+02  0.18902277708E+03  0.15294330000E+03 0.  0.
<mgrwt>
<rscale>  0 0.48694150E+03</rscale>
<asrwt>0</asrwt>
<pdfrwt beam="1">  1        2 0.19666884E-01 0.66786134E+03</pdfrwt>
<pdfrwt beam="2">  1       -2 0.46032560E+00 0.66786134E+03</pdfrwt>
<totfact> 0.92712467E-01</totfact>
</mgrwt>
</event>
<event>
 4    2  0.3388003E-007  0.8178098E+03  0.7818608E-02  0.9673533E-01
          2   -1    0    0  501    0  0.00000000000E+00  0.00000000000E+00  0.36891154874E+03  0.36891154875E+03  0.25500000000E-02 0. -1.
         -2   -1    0    0    0  501 -0.00000000000E+00 -0.00000000000E+00 -0.13766904795E+04  0.13766904795E+04  0.25500000000E-02 0.  1.
    8880023    1    1    2    0    0 -0.46360741433E+03 -0.14167169009E+03 -0.91793685470E+03  0.12293986245E+04  0.65864270000E+03 0.  0.
    8880022    1    1    2    0    0  0.46360741433E+03  0.14167169009E+03 -0.89842076034E+02  0.51620340374E+03  0.15294330000E+03 0.  0.
<mgrwt>
<rscale>  0 0.72614712E+03</rscale>
<asrwt>0</asrwt>
<pdfrwt beam="1">  1        2 0.56755624E-01 0.81780982E+03</pdfrwt>
<pdfrwt beam="2">  1       -2 0.21179853E+00 0.81780982E+03</pdfrwt>
<totfact> 0.98426184E+00</totfact>
</mgrwt>
</event>
<event>
 4    2  0.3388003E-007  0.6733597E+03  0.7818608E-02  0.1013361E+00
          2   -1    0    0  501    0  0.00000000000E+00  0.00000000000E+00  0.59841333837E+03  0.59841333837E+03  0.25500000000E-02 0. -1.
         -2   -1    0    0    0  501 -0.00000000000E+00 -0.00000000000E+00 -0.34612677812E+03  0.34612677813E+03  0.25500000000E-02 0.  1.
    8880023    1    1    2    0    0 -0.82444876781E+02 -0.11316344596E+03  0.86165276070E+02  0.67885034011E+03  0.65864270000E+03 0. -1.
    8880022    1    1    2    0    0  0.82444876781E+02  0.11316344596E+03  0.16612128417E+03  0.26568977639E+03  0.15294330000E+03 0.  0.
<mgrwt>
<rscale>  0 0.50160553E+03</rscale>
<asrwt>0</asrwt>
<pdfrwt beam="1">  1        2 0.92063591E-01 0.67335973E+03</pdfrwt>
<pdfrwt beam="2">  1       -2 0.53250273E-01 0.67335973E+03</pdfrwt>
<totfact> 0.16773649E+02</totfact>
</mgrwt>
</event>
<event>
 4    2  0.3388003E-007  0.9744876E+03  0.7818608E-02  0.9415724E-01
         -2   -1    0    0    0  501 -0.00000000000E+00  0.00000000000E+00  0.40031046063E+03  0.40031046064E+03  0.25500000000E-02 0.  1.
          2   -1    0    0  501    0  0.00000000000E+00 -0.00000000000E+00 -0.19170987056E+04  0.19170987056E+04  0.25500000000E-02 0. -1.
    8880023    1    1    2    0    0 -0.69473071843E+03  0.18211307890E+03 -0.60627891444E+03  0.11476934578E+04  0.65864270000E+03 0.  0.
    8880022    1    1    2    0    0  0.69473071843E+03 -0.18211307890E+03 -0.91050933050E+03  0.11697157084E+04  0.15294330000E+03 0.  0.
<mgrwt>
<rscale>  0 0.90792871E+03</rscale>
<asrwt>0</asrwt>
<pdfrwt beam="1">  1        2 0.29493826E+00 0.97448764E+03</pdfrwt>
<pdfrwt beam="2">  1       -2 0.61586226E-01 0.97448764E+03</pdfrwt>
<totfact> 0.18297852E+01</totfact>
</mgrwt>
</event>
<event>
 4    2  0.3388003E-007  0.9054739E+03  0.7818608E-02  0.9517301E-01
          2   -1    0    0  501    0  0.00000000000E+00  0.00000000000E+00  0.14824693049E+04  0.14824693049E+04  0.25500000000E-02 0. -1.
         -2   -1    0    0    0  501 -0.00000000000E+00 -0.00000000000E+00 -0.59888297805E+03  0.59888297805E+03  0.25500000000E-02 0.  1.
    8880023    1    1    2    0    0  0.43784396969E+03  0.44086886189E+03 -0.96782379939E+02  0.91063150094E+03  0.65864270000E+03 0.  0.
    8880022    1    1    2    0    0 -0.43784396969E+03 -0.44086886189E+03  0.98036870677E+03  0.11707207820E+04  0.15294330000E+03 0.  0.
<mgrwt>
<rscale>  0 0.83020233E+03</rscale>
<asrwt>0</asrwt>
<pdfrwt beam="1">  1        2 0.22807220E+00 0.90547385E+03</pdfrwt>
<pdfrwt beam="2">  1       -2 0.92135843E-01 0.90547385E+03</pdfrwt>
<totfact> 0.13071683E+01</totfact>
</mgrwt>
</event>
<event>
 4    2  0.3388003E-007  0.6640615E+03  0.7818608E-02  0.1020334E+00
         -2   -1    0    0    0  501 -0.00000000000E+00  0.00000000000E+00  0.34905532322E+03  0.34905532323E+03  0.25500000000E-02 0.  1.
          2   -1    0    0  501    0  0.00000000000E+00 -0.00000000000E+00 -0.15411853008E+04  0.15411853008E+04  0.25500000000E-02 0. -1.
    8880023    1    1    2    0    0  0.45894930208E+01  0.84536069035E+02  0.21182872060E+02  0.66439922543E+03  0.65864270000E+03 0.  1.
    8880022    1    1    2    0    0 -0.45894930208E+01 -0.84536069035E+02 -0.12133128496E+04  0.12258413986E+04  0.15294330000E+03 0.  0.
<mgrwt>
<rscale>  0 0.47566228E+03</rscale>
<asrwt>0</asrwt>
<pdfrwt beam="1">  1        2 0.23710543E+00 0.66406146E+03</pdfrwt>
<pdfrwt beam="2">  1       -2 0.53700820E-01 0.66406146E+03</pdfrwt>
<totfact> 0.40630087E+01</totfact>
</mgrwt>
</event>
<event>
 4    2  0.4401616E-007  0.7809884E+03  0.7818608E-02  0.9753520E-01
         -2   -1    0    0    0  501 -0.00000000000E+00  0.00000000000E+00  0.15055959161E+04  0.15055959161E+04  0.25500000000E-02 0.  1.
          2   -1    0    0  501    0  0.00000000000E+00 -0.00000000000E+00 -0.11572188423E+04  0.11572188423E+04  0.25500000000E-02 0. -1.
    8880023    1    1    2    0    0 -0.99894676429E+02 -0.40761961566E+03  0.13536391267E+04  0.15627801474E+04  0.65864270000E+03 0.  0.
    8880022    1    1    2    0    0  0.99894676429E+02  0.40761961566E+03 -0.10052620529E+04  0.11000346110E+04  0.15294330000E+03 0.  0.
<mgrwt>
<rscale>  0 0.67917694E+03</rscale>
<asrwt>0</asrwt>
<pdfrwt beam="1">  1        2 0.17803367E+00 0.78098841E+03</pdfrwt>
<pdfrwt beam="2">  1       -2 0.23163014E+00 0.78098841E+03</pdfrwt>
<totfact> 0.17236044E+00</totfact>
</mgrwt>
</event>
<event>
 4    2  0.3388003E-007  0.8555925E+03  0.7818608E-02  0.9601452E-01
          2   -1    0    0  501    0  0.00000000000E+00  0.00000000000E+00  0.95890465859E+03  0.95890465859E+03  0.25500000000E-02 0. -1.
         -2   -1    0    0    0  501 -0.00000000000E+00 -0.00000000000E+00 -0.11127436279E+04  0.11127436279E+04  0.25500000000E-02 0.  1.
    8880023    1    1    2    0    0  0.47683010270E+03  0.26619796161E+03 -0.82802462069E+03  0.11906566593E+04  0.65864270000E+03 0.  1.
    8880022    1    1    2    0    0 -0.47683010270E+03 -0.26619796161E+03  0.67418565139E+03  0.88099162718E+03  0.15294330000E+03 0.  0.
<mgrwt>
<rscale>  0 0.77200141E+03</rscale>
<asrwt>0</asrwt>
<pdfrwt beam="1">  1        2 0.14752379E+00 0.85559249E+03</pdfrwt>
<pdfrwt beam="2">  1       -2 0.17119133E+00 0.85559249E+03</pdfrwt>
<totfact> 0.56357707E+00</totfact>
</mgrwt>
</event>
<event>
 4    2  0.3388003E-007  0.7581408E+03  0.7818608E-02  0.9809945E-01
          2   -1    0    0  501    0  0.00000000000E+00  0.00000000000E+00  0.80260681072E+03  0.80260681072E+03  0.25500000000E-02 0. -1.
         -2   -1    0    0    0  501 -0.00000000000E+00 -0.00000000000E+00 -0.80097038172E+03  0.80097038172E+03  0.25500000000E-02 0.  1.
    8880023    1    1    2    0    0  0.34491801956E+03  0.14832006638E+03 -0.53726363529E+03  0.92920918117E+03  0.65864270000E+03 0.  1.
    8880022    1    1    2    0    0 -0.34491801956E+03 -0.14832006638E+03  0.53890006430E+03  0.67436801127E+03  0.15294330000E+03 0.  0.
<mgrwt>
<rscale>  0 0.64831575E+03</rscale>
<asrwt>0</asrwt>
<pdfrwt beam="1">  1        2 0.12347797E+00 0.75814081E+03</pdfrwt>
<pdfrwt beam="2">  1       -2 0.12322621E+00 0.75814081E+03</pdfrwt>
<totfact> 0.17283311E+01</totfact>
</mgrwt>
</event>
<event>
 4    2  0.3388003E-007  0.1342402E+04  0.7818608E-02  0.9029781E-01
         -2   -1    0    0    0  501 -0.00000000000E+00  0.00000000000E+00  0.51435868111E+03  0.51435868112E+03  0.25500000000E-02 0.  1.
          2   -1    0    0  501    0  0.00000000000E+00 -0.00000000000E+00 -0.35637425330E+04  0.35637425330E+04  0.25500000000E-02 0. -1.
    8880023    1    1    2    0    0  0.23752360015E+01 -0.11697125506E+04 -0.23508446938E+04  0.27071228405E+04  0.65864270000E+03 0. -1.
    8880022    1    1    2    0    0 -0.23752360015E+01  0.11697125506E+04 -0.69853915813E+03  0.13709783737E+04  0.15294330000E+03 0.  0.
<mgrwt>
<rscale>  0 0.12997273E+04</rscale>
<asrwt>0</asrwt>
<pdfrwt beam="1">  1        2 0.54826807E+00 0.13424021E+04</pdfrwt>
<pdfrwt beam="2">  1       -2 0.79132107E-01 0.13424021E+04</pdfrwt>
<totfact> 0.10236789E+00</totfact>
</mgrwt>
</event>
<event>
 4    2  0.3388003E-007  0.7579266E+03  0.7818608E-02  0.9810505E-01
          2   -1    0    0  501    0  0.00000000000E+00  0.00000000000E+00  0.14249549153E+04  0.14249549153E+04  0.25500000000E-02 0. -1.
         -2   -1    0    0    0  501 -0.00000000000E+00 -0.00000000000E+00 -0.90919041452E+03  0.90919041452E+03  0.25500000000E-02 0.  1.
    8880023    1    1    2    0    0  0.22372496411E+03  0.30098121990E+03 -0.71285725384E+03  0.10404894161E+04  0.65864270000E+03 0.  1.
    8880022    1    1    2    0    0 -0.22372496411E+03 -0.30098121990E+03  0.12286217546E+04  0.12936559138E+04  0.15294330000E+03 0.  0.
<mgrwt>
<rscale>  0 0.64801816E+03</rscale>
<asrwt>0</asrwt>
<pdfrwt beam="1">  1        2 0.21922383E+00 0.75792662E+03</pdfrwt>
<pdfrwt beam="2">  1       -2 0.13987545E+00 0.75792662E+03</pdfrwt>
<totfact> 0.51584544E+00</totfact>
</mgrwt>
</event>
<event>
 4    2  0.3388003E-007  0.7451249E+03  0.7818608E-02  0.9845262E-01
         -2   -1    0    0    0  501 -0.00000000000E+00  0.00000000000E+00  0.11342879772E+04  0.11342879772E+04  0.25500000000E-02 0.  1.
          2   -1    0    0  501    0  0.00000000000E+00 -0.00000000000E+00 -0.61380319249E+03  0.61380319249E+03  0.25500000000E-02 0. -1.
    8880023    1    1    2    0    0 -0.31846221782E+03 -0.14136022366E+03  0.92827660688E+03  0.11903396835E+04  0.65864270000E+03 0.  1.
    8880022    1    1    2    0    0  0.31846221782E+03  0.14136022366E+03 -0.40779182221E+03  0.55775148614E+03  0.15294330000E+03 0.  0.
<mgrwt>
<rscale>  0 0.62989053E+03</rscale>
<asrwt>0</asrwt>
<pdfrwt beam="1">  1        2 0.94431261E-01 0.74512489E+03</pdfrwt>
<pdfrwt beam="2">  1       -2 0.17450584E+00 0.74512489E+03</pdfrwt>
<totfact> 0.97206251E+00</totfact>
</mgrwt>
</event>
<event>
 4    2  0.3388003E-007  0.6729155E+03  0.7818608E-02  0.1013654E+00
          2   -1    0    0  501    0  0.00000000000E+00  0.00000000000E+00  0.17462046220E+03  0.17462046222E+03  0.25500000000E-02 0. -1.
         -2   -1    0    0    0  501 -0.00000000000E+00 -0.00000000000E+00 -0.13535380882E+04  0.13535380882E+04  0.25500000000E-02 0.  1.
    8880023    1    1    2    0    0  0.13470375174E+03 -0.29324729711E+02 -0.11321114789E+04  0.13170010051E+04  0.65864270000E+03 0. -1.
    8880022    1    1    2    0    0 -0.13470375174E+03  0.29324729711E+02 -0.46806147037E+02  0.21115754526E+03  0.15294330000E+03 0. -1.
<mgrwt>
<rscale>  0 0.50048019E+03</rscale>
<asrwt>0</asrwt>
<pdfrwt beam="1">  1        2 0.26864687E-01 0.67291548E+03</pdfrwt>
<pdfrwt beam="2">  1       -2 0.20823662E+00 0.67291548E+03</pdfrwt>
<totfact> 0.24289478E+01</totfact>
</mgrwt>
</event>
<event>
 4    2  0.3388003E-007  0.6679281E+03  0.7818608E-02  0.1017194E+00
         -2   -1    0    0    0  501 -0.00000000000E+00  0.00000000000E+00  0.40646439875E+03  0.40646439876E+03  0.25500000000E-02 0.  1.
          2   -1    0    0  501    0  0.00000000000E+00 -0.00000000000E+00 -0.23389269246E+04  0.23389269246E+04  0.25500000000E-02 0. -1.
    8880023    1    1    2    0    0 -0.10961673733E+03  0.17375863571E+02  0.12478377193E+03  0.67948432339E+03  0.65864270000E+03 0.  1.
    8880022    1    1    2    0    0  0.10961673733E+03 -0.17375863571E+02 -0.20572462978E+04  0.20659070000E+04  0.15294330000E+03 0.  0.
<mgrwt>
<rscale>  0 0.48713027E+03</rscale>
<asrwt>0</asrwt>
<pdfrwt beam="1">  1        2 0.35983490E+00 0.66792811E+03</pdfrwt>
<pdfrwt beam="2">  1       -2 0.62532986E-01 0.66792811E+03</pdfrwt>
<totfact> 0.10818855E+01</totfact>
</mgrwt>
</event>
<event>
 4    2  0.3388003E-007  0.6851164E+03  0.7818608E-02  0.1006566E+00
         -2   -1    0    0    0  501 -0.00000000000E+00  0.00000000000E+00  0.10906627714E+03  0.10906627717E+03  0.25500000000E-02 0.  1.
          2   -1    0    0  501    0  0.00000000000E+00 -0.00000000000E+00 -0.22684212169E+04  0.22684212169E+04  0.25500000000E-02 0. -1.
    8880023    1    1    2    0    0 -0.15473079334E+03 -0.10785500481E+03 -0.11436747157E+04  0.13331828015E+04  0.65864270000E+03 0.  1.
    8880022    1    1    2    0    0  0.15473079334E+03  0.10785500481E+03 -0.10156802241E+04  0.10443046927E+04  0.15294330000E+03 0.  0.
<mgrwt>
<rscale>  0 0.52862594E+03</rscale>
<asrwt>0</asrwt>
<pdfrwt beam="1">  1        2 0.34898784E+00 0.68511643E+03</pdfrwt>
<pdfrwt beam="2">  1       -2 0.16779429E-01 0.68511643E+03</pdfrwt>
<totfact> 0.14200303E+02</totfact>
</mgrwt>
</event>
<event>
 4    2  0.3388003E-007  0.8704064E+03  0.7818608E-02  0.9575314E-01
          2   -1    0    0  501    0  0.00000000000E+00  0.00000000000E+00  0.40920499519E+04  0.40920499519E+04  0.25500000000E-02 0. -1.
         -2   -1    0    0    0  501 -0.00000000000E+00 -0.00000000000E+00 -0.13952018883E+03  0.13952018885E+03  0.25500000000E-02 0.  1.
    8880023    1    1    2    0    0 -0.33431864981E+03  0.46046513102E+03  0.17930642691E+04  0.19931599976E+04  0.65864270000E+03 0.  0.
    8880022    1    1    2    0    0  0.33431864981E+03 -0.46046513102E+03  0.21594654940E+04  0.22384101432E+04  0.15294330000E+03 0.  0.
<mgrwt>
<rscale>  0 0.78951841E+03</rscale>
<asrwt>0</asrwt>
<pdfrwt beam="1">  1        2 0.62954619E+00 0.87040640E+03</pdfrwt>
<pdfrwt beam="2">  1       -2 0.21464643E-01 0.87040640E+03</pdfrwt>
<totfact> 0.58549952E+00</totfact>
</mgrwt>
</event>
<event>
 4    2  0.3388003E-007  0.7962736E+03  0.7818608E-02  0.9718912E-01
         -2   -1    0    0    0  501 -0.00000000000E+00  0.00000000000E+00  0.12087648081E+03  0.12087648084E+03  0.25500000000E-02 0.  1.
          2   -1    0    0  501    0  0.00000000000E+00 -0.00000000000E+00 -0.37447708316E+04  0.37447708316E+04  0.25500000000E-02 0. -1.
    8880023    1    1    2    0    0 -0.42293170571E+03 -0.14618569534E+03 -0.15993901504E+04  0.17866450528E+04  0.65864270000E+03 0.  0.
    8880022    1    1    2    0    0  0.42293170571E+03  0.14618569534E+03 -0.20245042004E+04  0.20790022597E+04  0.15294330000E+03 0.  0.
<mgrwt>
<rscale>  0 0.69901866E+03</rscale>
<asrwt>0</asrwt>
<pdfrwt beam="1">  1        2 0.57611850E+00 0.79627363E+03</pdfrwt>
<pdfrwt beam="2">  1       -2 0.18596385E-01 0.79627363E+03</pdfrwt>
<totfact> 0.14138603E+01</totfact>
</mgrwt>
</event>
<event>
 4    2  0.3388003E-007  0.7145108E+03  0.7818608E-02  0.9941617E-01
         -2   -1    0    0    0  501 -0.00000000000E+00  0.00000000000E+00  0.96544029348E+03  0.96544029348E+03  0.25500000000E-02 0.  1.
          2   -1    0    0  501    0  0.00000000000E+00 -0.00000000000E+00 -0.11189643746E+04  0.11189643746E+04  0.25500000000E-02 0. -1.
    8880023    1    1    2    0    0  0.24034942990E+03  0.13765019467E+03  0.80420529006E+03  0.10757656712E+04  0.65864270000E+03 0.  1.
    8880022    1    1    2    0    0 -0.24034942990E+03 -0.13765019467E+03 -0.95772937114E+03  0.10086389968E+04  0.15294330000E+03 0.  0.
<mgrwt>
<rscale>  0 0.58286057E+03</rscale>
<asrwt>0</asrwt>
<pdfrwt beam="1">  1        2 0.17214837E+00 0.71451076E+03</pdfrwt>
<pdfrwt beam="2">  1       -2 0.14852928E+00 0.71451076E+03</pdfrwt>
<totfact> 0.66848237E+00</totfact>
</mgrwt>
</event>
<event>
 4    2  0.3388003E-007  0.7033568E+03  0.7818608E-02  0.9983551E-01
         -2   -1    0    0    0  501 -0.00000000000E+00  0.00000000000E+00  0.21197005761E+03  0.21197005762E+03  0.25500000000E-02 0.  1.
          2   -1    0    0  501    0  0.00000000000E+00 -0.00000000000E+00 -0.20294955421E+04  0.20294955421E+04  0.25500000000E-02 0. -1.
    8880023    1    1    2    0    0  0.18419422278E+03 -0.16423493987E+03 -0.43108309003E+03  0.82495058273E+03  0.65864270000E+03 0.  1.
    8880022    1    1    2    0    0 -0.18419422278E+03  0.16423493987E+03 -0.13864423945E+04  0.14165150170E+04  0.15294330000E+03 0.  0.
<mgrwt>
<rscale>  0 0.56377428E+03</rscale>
<asrwt>0</asrwt>
<pdfrwt beam="1">  1        2 0.31223007E+00 0.70335683E+03</pdfrwt>
<pdfrwt beam="2">  1       -2 0.32610779E-01 0.70335683E+03</pdfrwt>
<totfact> 0.58378523E+01</totfact>
</mgrwt>
</event>
<event>
 4    2  0.3388003E-007  0.9089111E+03  0.7818608E-02  0.9511875E-01
          2   -1    0    0  501    0  0.00000000000E+00  0.00000000000E+00  0.11045861933E+04  0.11045861933E+04  0.25500000000E-02 0. -1.
         -2   -1    0    0    0  501 -0.00000000000E+00 -0.00000000000E+00 -0.68596690690E+03  0.68596690690E+03  0.25500000000E-02 0.  1.
    8880023    1    1    2    0    0 -0.50474830123E+03 -0.37086154554E+03 -0.16160453786E+03  0.92316594742E+03  0.65864270000E+03 0.  0.
    8880022    1    1    2    0    0  0.50474830123E+03  0.37086154554E+03  0.58022382422E+03  0.86738715275E+03  0.15294330000E+03 0.  0.
<mgrwt>
<rscale>  0 0.83413943E+03</rscale>
<asrwt>0</asrwt>
<pdfrwt beam="1">  1        2 0.16993634E+00 0.90891107E+03</pdfrwt>
<pdfrwt beam="2">  1       -2 0.10553337E+00 0.90891107E+03</pdfrwt>
<totfact> 0.15743442E+01</totfact>
</mgrwt>
</event>
<event>
 4    2  0.3388003E-007  0.7793432E+03  0.7818608E-02  0.9757382E-01
         -2   -1    0    0    0  501 -0.00000000000E+00  0.00000000000E+00  0.33885622429E+03  0.33885622430E+03  0.25500000000E-02 0.  1.
          2   -1    0    0  501    0  0.00000000000E+00 -0.00000000000E+00 -0.13486483552E+04  0.13486483552E+04  0.25500000000E-02 0. -1.
    8880023    1    1    2    0    0  0.40555450138E+03 -0.95347889176E+02 -0.26996774312E+03  0.82477782593E+03  0.65864270000E+03 0.  1.
    8880022    1    1    2    0    0 -0.40555450138E+03  0.95347889176E+02 -0.73982438782E+03  0.86272675360E+03  0.15294330000E+03 0.  0.
<mgrwt>
<rscale>  0 0.67700690E+03</rscale>
<asrwt>0</asrwt>
<pdfrwt beam="1">  1        2 0.20748436E+00 0.77934324E+03</pdfrwt>
<pdfrwt beam="2">  1       -2 0.52131727E-01 0.77934324E+03</pdfrwt>
<totfact> 0.54689933E+01</totfact>
</mgrwt>
</event>
<event>
 4    2  0.3388003E-007  0.7705989E+03  0.7818608E-02  0.9778402E-01
         -2   -1    0    0    0  501 -0.00000000000E+00  0.00000000000E+00  0.10938982374E+04  0.10938982374E+04  0.25500000000E-02 0.  1.
          2   -1    0    0  501    0  0.00000000000E+00 -0.00000000000E+00 -0.89346751348E+03  0.89346751348E+03  0.25500000000E-02 0. -1.
    8880023    1    1    2    0    0 -0.39698931093E+03  0.49112187536E+02  0.88899128541E+03  0.11764897925E+04  0.65864270000E+03 0.  1.
    8880022    1    1    2    0    0  0.39698931093E+03 -0.49112187536E+02 -0.68856056154E+03  0.81087595838E+03  0.15294330000E+03 0.  0.
<mgrwt>
<rscale>  0 0.66534586E+03</rscale>
<asrwt>0</asrwt>
<pdfrwt beam="1">  1        2 0.13745654E+00 0.77059894E+03</pdfrwt>
<pdfrwt beam="2">  1       -2 0.16829204E+00 0.77059894E+03</pdfrwt>
<totfact> 0.65983267E+00</totfact>
</mgrwt>
</event>
<event>
 4    2  0.3388003E-007  0.6597599E+03  0.7818608E-02  0.1024404E+00
         -2   -1    0    0    0  501 -0.00000000000E+00  0.00000000000E+00  0.11075053397E+03  0.11075053400E+03  0.25500000000E-02 0.  1.
          2   -1    0    0  501    0  0.00000000000E+00 -0.00000000000E+00 -0.19583286999E+04  0.19583286999E+04  0.25500000000E-02 0. -1.
    8880023    1    1    2    0    0  0.24876155726E+02 -0.29225258410E+02 -0.94313895907E+03  0.11509970640E+04  0.65864270000E+03 0.  1.
    8880022    1    1    2    0    0 -0.24876155726E+02  0.29225258410E+02 -0.90443920687E+03  0.91808216996E+03  0.15294330000E+03 0.  0.
<mgrwt>
<rscale>  0 0.46130388E+03</rscale>
<asrwt>0</asrwt>
<pdfrwt beam="1">  1        2 0.30128131E+00 0.65975991E+03</pdfrwt>
<pdfrwt beam="2">  1       -2 0.17038545E-01 0.65975991E+03</pdfrwt>
<totfact> 0.20495627E+02</totfact>
</mgrwt>
</event>
<event>
 4    2  0.3388003E-007  0.6685516E+03  0.7818608E-02  0.1016723E+00
         -2   -1    0    0    0  501 -0.00000000000E+00  0.00000000000E+00  0.22163852020E+03  0.22163852021E+03  0.25500000000E-02 0.  1.
          2   -1    0    0  501    0  0.00000000000E+00 -0.00000000000E+00 -0.17494074913E+04  0.17494074913E+04  0.25500000000E-02 0. -1.
    8880023    1    1    2    0    0  0.67806635994E+02 -0.92483884266E+02 -0.30747212484E+03  0.73586705494E+03  0.65864270000E+03 0.  1.
    8880022    1    1    2    0    0 -0.67806635994E+02  0.92483884266E+02 -0.12202968462E+04  0.12351789565E+04  0.15294330000E+03 0.  0.
<mgrwt>
<rscale>  0 0.48887881E+03</rscale>
<asrwt>0</asrwt>
<pdfrwt beam="1">  1        2 0.26913960E+00 0.66855158E+03</pdfrwt>
<pdfrwt beam="2">  1       -2 0.34098235E-01 0.66855158E+03</pdfrwt>
<totfact> 0.76533751E+01</totfact>
</mgrwt>
</event>
<event>
 4    2  0.3388003E-007  0.8514161E+03  0.7818608E-02  0.9609019E-01
          2   -1    0    0  501    0  0.00000000000E+00  0.00000000000E+00  0.84780318158E+03  0.84780318158E+03  0.25500000000E-02 0. -1.
         -2   -1    0    0    0  501 -0.00000000000E+00 -0.00000000000E+00 -0.12825044670E+04  0.12825044670E+04  0.25500000000E-02 0.  1.
    8880023    1    1    2    0    0 -0.43289714459E+03  0.32202353344E+03 -0.10139897797E+04  0.13240410014E+04  0.65864270000E+03 0. -1.
    8880022    1    1    2    0    0  0.43289714459E+03 -0.32202353344E+03  0.57928849421E+03  0.80626664722E+03  0.15294330000E+03 0.  0.
<mgrwt>
<rscale>  0 0.76702119E+03</rscale>
<asrwt>0</asrwt>
<pdfrwt beam="1">  1        2 0.13043126E+00 0.85141606E+03</pdfrwt>
<pdfrwt beam="2">  1       -2 0.19730838E+00 0.85141606E+03</pdfrwt>
<totfact> 0.44517929E+00</totfact>
</mgrwt>
</event>
<event>
 4    2  0.3388003E-007  0.1203914E+04  0.7818608E-02  0.9153327E-01
         -2   -1    0    0    0  501 -0.00000000000E+00  0.00000000000E+00  0.52548133717E+03  0.52548133717E+03  0.25500000000E-02 0.  1.
          2   -1    0    0  501    0  0.00000000000E+00 -0.00000000000E+00 -0.30804546556E+04  0.30804546556E+04  0.25500000000E-02 0. -1.
    8880023    1    1    2    0    0  0.99815607547E+03  0.13886608160E+03 -0.22332009933E+04  0.25370447813E+04  0.65864270000E+03 0.  0.
    8880022    1    1    2    0    0 -0.99815607547E+03 -0.13886608160E+03 -0.32177232506E+03  0.10688912114E+04  0.15294330000E+03 0.  0.
<mgrwt>
<rscale>  0 0.11548435E+04</rscale>
<asrwt>0</asrwt>
<pdfrwt beam="1">  1        2 0.47391609E+00 0.12039143E+04</pdfrwt>
<pdfrwt beam="2">  1       -2 0.80843284E-01 0.12039143E+04</pdfrwt>
<totfact> 0.20788472E+00</totfact>
</mgrwt>
</event>
<event>
 4    2  0.3388003E-007  0.7285808E+03  0.7818608E-02  0.9894553E-01
          2   -1    0    0  501    0  0.00000000000E+00  0.00000000000E+00  0.98532832537E+03  0.98532832537E+03  0.25500000000E-02 0. -1.
         -2   -1    0    0    0  501 -0.00000000000E+00 -0.00000000000E+00 -0.49801984203E+03  0.49801984204E+03  0.25500000000E-02 0.  1.
    8880023    1    1    2    0    0 -0.28757479066E+03 -0.11966853635E+03 -0.16269023109E+03  0.74652403603E+03  0.65864270000E+03 0.  0.
    8880022    1    1    2    0    0  0.28757479066E+03  0.11966853635E+03  0.64999871442E+03  0.73682413138E+03  0.15294330000E+03 0.  0.
<mgrwt>
<rscale>  0 0.60525974E+03</rscale>
<asrwt>0</asrwt>
<pdfrwt beam="1">  1        2 0.15158897E+00 0.72858083E+03</pdfrwt>
<pdfrwt beam="2">  1       -2 0.76618437E-01 0.72858083E+03</pdfrwt>
<totfact> 0.39893750E+01</totfact>
</mgrwt>
</event>
<event>
 4    2  0.3388003E-007  0.7810005E+03  0.7818608E-02  0.9753492E-01
          2   -1    0    0  501    0  0.00000000000E+00  0.00000000000E+00  0.13067092316E+04  0.13067092316E+04  0.25500000000E-02 0. -1.
         -2   -1    0    0    0  501 -0.00000000000E+00 -0.00000000000E+00 -0.31683585257E+03  0.31683585258E+03  0.25500000000E-02 0.  1.
    8880023    1    1    2    0    0  0.11739866419E+03  0.40295044544E+03  0.38262280097E+03  0.86969070474E+03  0.65864270000E+03 0.  0.
    8880022    1    1    2    0    0 -0.11739866419E+03 -0.40295044544E+03  0.60725057809E+03  0.75385437947E+03  0.15294330000E+03 0.  0.
<mgrwt>
<rscale>  0 0.67919280E+03</rscale>
<asrwt>0</asrwt>
<pdfrwt beam="1">  1        2 0.20103219E+00 0.78100046E+03</pdfrwt>
<pdfrwt beam="2">  1       -2 0.48743978E-01 0.78100046E+03</pdfrwt>
<totfact> 0.66289928E+01</totfact>
</mgrwt>
</event>
<event>
 4    2  0.3388003E-007  0.7433497E+03  0.7818608E-02  0.9850295E-01
         -2   -1    0    0    0  501 -0.00000000000E+00  0.00000000000E+00  0.38516548822E+03  0.38516548823E+03  0.25500000000E-02 0.  1.
          2   -1    0    0  501    0  0.00000000000E+00 -0.00000000000E+00 -0.21540813639E+04  0.21540813639E+04  0.25500000000E-02 0. -1.
    8880023    1    1    2    0    0 -0.24724313568E+03  0.24006138785E+03 -0.13160269931E+02  0.74346623128E+03  0.65864270000E+03 0.  1.
    8880022    1    1    2    0    0  0.24724313568E+03 -0.24006138785E+03 -0.17557556058E+04  0.17957806209E+04  0.15294330000E+03 0.  0.
<mgrwt>
<rscale>  0 0.62731889E+03</rscale>
<asrwt>0</asrwt>
<pdfrwt beam="1">  1        2 0.33139712E+00 0.74334975E+03</pdfrwt>
<pdfrwt beam="2">  1       -2 0.59256231E-01 0.74334975E+03</pdfrwt>
<totfact> 0.15146050E+01</totfact>
</mgrwt>
</event>
<event>
 4    2  0.3388003E-007  0.8206052E+03  0.7818608E-02  0.9667896E-01
          2   -1    0    0  501    0  0.00000000000E+00  0.00000000000E+00  0.17943658918E+04  0.17943658919E+04  0.25500000000E-02 0. -1.
         -2   -1    0    0    0  501 -0.00000000000E+00 -0.00000000000E+00 -0.32704638311E+03  0.32704638312E+03  0.25500000000E-02 0.  1.
    8880023    1    1    2    0    0 -0.47768910482E+03 -0.10675103167E+03  0.35018749362E+03  0.89220185529E+03  0.65864270000E+03 0.  0.
    8880022    1    1    2    0    0  0.47768910482E+03  0.10675103167E+03  0.11171320151E+04  0.12292104197E+04  0.15294330000E+03 0.  0.
<mgrwt>
<rscale>  0 0.72960846E+03</rscale>
<asrwt>0</asrwt>
<pdfrwt beam="1">  1        2 0.27605629E+00 0.82060519E+03</pdfrwt>
<pdfrwt beam="2">  1       -2 0.50314828E-01 0.82060519E+03</pdfrwt>
<totfact> 0.33110660E+01</totfact>
</mgrwt>
</event>
<event>
 4    2  0.3388003E-007  0.8666008E+03  0.7818608E-02  0.9581928E-01
         -2   -1    0    0    0  501 -0.00000000000E+00  0.00000000000E+00  0.59397101709E+03  0.59397101709E+03  0.25500000000E-02 0.  1.
          2   -1    0    0  501    0  0.00000000000E+00 -0.00000000000E+00 -0.11336302624E+04  0.11336302624E+04  0.25500000000E-02 0. -1.
    8880023    1    1    2    0    0  0.44584847234E+03 -0.34410148516E+03  0.87392540444E+02  0.87099618528E+03  0.65864270000E+03 0.  0.
    8880022    1    1    2    0    0 -0.44584847234E+03  0.34410148516E+03 -0.62705178571E+03  0.85660509417E+03  0.15294330000E+03 0.  0.
<mgrwt>
<rscale>  0 0.78503936E+03</rscale>
<asrwt>0</asrwt>
<pdfrwt beam="1">  1        2 0.17440465E+00 0.86660077E+03</pdfrwt>
<pdfrwt beam="2">  1       -2 0.91380157E-01 0.86660077E+03</pdfrwt>
<totfact> 0.21327468E+01</totfact>
</mgrwt>
</event>
<event>
 4    2  0.3388003E-007  0.7486229E+03  0.7818608E-02  0.9835506E-01
          2   -1    0    0  501    0  0.00000000000E+00  0.00000000000E+00  0.11890815232E+04  0.11890815232E+04  0.25500000000E-02 0. -1.
         -2   -1    0    0    0  501 -0.00000000000E+00 -0.00000000000E+00 -0.95628751887E+03  0.95628751887E+03  0.25500000000E-02 0.  1.
    8880023    1    1    2    0    0  0.25395482923E+03  0.24926484979E+03 -0.76784106374E+03  0.10723880483E+04  0.65864270000E+03 0.  1.
    8880022    1    1    2    0    0 -0.25395482923E+03 -0.24926484979E+03  0.10006350681E+04  0.10729809938E+04  0.15294330000E+03 0.  0.
<mgrwt>
<rscale>  0 0.63491433E+03</rscale>
<asrwt>0</asrwt>
<pdfrwt beam="1">  1        2 0.18293562E+00 0.74862289E+03</pdfrwt>
<pdfrwt beam="2">  1       -2 0.14712116E+00 0.74862289E+03</pdfrwt>
<totfact> 0.61924745E+00</totfact>
</mgrwt>
</event>
<event>
 4    2  0.3388003E-007  0.7964781E+03  0.7818608E-02  0.9718464E-01
         -2   -1    0    0    0  501 -0.00000000000E+00  0.00000000000E+00  0.38100470296E+03  0.38100470296E+03  0.25500000000E-02 0.  1.
          2   -1    0    0  501    0  0.00000000000E+00 -0.00000000000E+00 -0.12027004171E+04  0.12027004171E+04  0.25500000000E-02 0. -1.
    8880023    1    1    2    0    0 -0.18676720735E+03 -0.40704433669E+03 -0.23598827479E+03  0.83070316833E+03  0.65864270000E+03 0.  1.
    8880022    1    1    2    0    0  0.18676720735E+03  0.40704433669E+03 -0.58570743931E+03  0.75300195170E+03  0.15294330000E+03 0. -1.
<mgrwt>
<rscale>  0 0.69928041E+03</rscale>
<asrwt>0</asrwt>
<pdfrwt beam="1">  1        2 0.18503083E+00 0.79647805E+03</pdfrwt>
<pdfrwt beam="2">  1       -2 0.58616109E-01 0.79647805E+03</pdfrwt>
<totfact> 0.52028185E+01</totfact>
</mgrwt>
</event>
<event>
 4    2  0.3388003E-007  0.7648912E+03  0.7818608E-02  0.9792605E-01
          2   -1    0    0  501    0  0.00000000000E+00  0.00000000000E+00  0.22462158198E+04  0.22462158198E+04  0.25500000000E-02 0. -1.
         -2   -1    0    0    0  501 -0.00000000000E+00 -0.00000000000E+00 -0.47135547787E+03  0.47135547787E+03  0.25500000000E-02 0.  1.
    8880023    1    1    2    0    0 -0.19926715727E+03 -0.33397750190E+03 -0.12258425157E+03  0.77465184227E+03  0.65864270000E+03 0.  1.
    8880022    1    1    2    0    0  0.19926715727E+03  0.33397750190E+03  0.18974445935E+04  0.19429194554E+04  0.15294330000E+03 0.  0.
<mgrwt>
<rscale>  0 0.65760897E+03</rscale>
<asrwt>0</asrwt>
<pdfrwt beam="1">  1        2 0.34557166E+00 0.76489122E+03</pdfrwt>
<pdfrwt beam="2">  1       -2 0.72516228E-01 0.76489122E+03</pdfrwt>
<totfact> 0.86952414E+00</totfact>
</mgrwt>
</event>
<event>
 4    2  0.3388003E-007  0.7041501E+03  0.7818608E-02  0.9980402E-01
         -2   -1    0    0    0  501 -0.00000000000E+00  0.00000000000E+00  0.59174968618E+03  0.59174968618E+03  0.25500000000E-02 0.  1.
          2   -1    0    0  501    0  0.00000000000E+00 -0.00000000000E+00 -0.66790817906E+03  0.66790817907E+03  0.25500000000E-02 0. -1.
    8880023    1    1    2    0    0 -0.12247633244E+03 -0.21683343305E+03  0.31498768524E+03  0.77139136488E+03  0.65864270000E+03 0.  1.
    8880022    1    1    2    0    0  0.12247633244E+03  0.21683343305E+03 -0.39114617813E+03  0.48826650037E+03  0.15294330000E+03 0.  0.
<mgrwt>
<rscale>  0 0.56518002E+03</rscale>
<asrwt>0</asrwt>
<pdfrwt beam="1">  1        2 0.10275511E+00 0.70415012E+03</pdfrwt>
<pdfrwt beam="2">  1       -2 0.91038413E-01 0.70415012E+03</pdfrwt>
<totfact> 0.45468830E+01</totfact>
</mgrwt>
</event>
<event>
 4    2  0.3388003E-007  0.9911601E+03  0.7818608E-02  0.9393215E-01
         -2   -1    0    0    0  501 -0.00000000000E+00  0.00000000000E+00  0.58332369368E+03  0.58332369369E+03  0.25500000000E-02 0.  1.
          2   -1    0    0  501    0  0.00000000000E+00 -0.00000000000E+00 -0.33543183648E+04  0.33543183648E+04  0.25500000000E-02 0. -1.
    8880023    1    1    2    0    0  0.47785962212E+03 -0.56589594706E+03  0.73923831407E+02  0.99391296423E+03  0.65864270000E+03 0.  0.
    8880022    1    1    2    0    0 -0.47785962212E+03  0.56589594706E+03 -0.28449185026E+04  0.29437290943E+04  0.15294330000E+03 0.  0.
<mgrwt>
<rscale>  0 0.92636133E+03</rscale>
<asrwt>0</asrwt>
<pdfrwt beam="1">  1        2 0.51604897E+00 0.99116005E+03</pdfrwt>
<pdfrwt beam="2">  1       -2 0.89742108E-01 0.99116005E+03</pdfrwt>
<totfact> 0.11238009E+00</totfact>
</mgrwt>
</event>
<event>
 4    2  0.3388003E-007  0.1293849E+04  0.7818608E-02  0.9070890E-01
         -2   -1    0    0    0  501 -0.00000000000E+00  0.00000000000E+00  0.96474078241E+03  0.96474078241E+03  0.25500000000E-02 0.  1.
          2   -1    0    0  501    0  0.00000000000E+00 -0.00000000000E+00 -0.29673357594E+04  0.29673357594E+04  0.25500000000E-02 0. -1.
    8880023    1    1    2    0    0 -0.97024163288E+03 -0.54668586891E+03  0.33649972705E+03  0.13368906231E+04  0.65864270000E+03 0.  0.
    8880022    1    1    2    0    0  0.97024163288E+03  0.54668586891E+03 -0.23390947040E+04  0.25951859188E+04  0.15294330000E+03 0.  0.
<mgrwt>
<rscale>  0 0.12491510E+04</rscale>
<asrwt>0</asrwt>
<pdfrwt beam="1">  1        2 0.45651319E+00 0.12938487E+04</pdfrwt>
<pdfrwt beam="2">  1       -2 0.14842166E+00 0.12938487E+04</pdfrwt>
<totfact> 0.54651117E-01</totfact>
</mgrwt>
</event>
<event>
 4    2  0.3388003E-007  0.9463112E+03  0.7818608E-02  0.9455441E-01
         -2   -1    0    0    0  501 -0.00000000000E+00  0.00000000000E+00  0.38097619902E+03  0.38097619903E+03  0.25500000000E-02 0.  1.
          2   -1    0    0  501    0  0.00000000000E+00 -0.00000000000E+00 -0.23041937474E+04  0.23041937474E+04  0.25500000000E-02 0. -1.
    8880023    1    1    2    0    0 -0.50028814405E+03  0.45978953984E+03 -0.17141051145E+04  0.19579737480E+04  0.65864270000E+03 0.  0.
    8880022    1    1    2    0    0  0.50028814405E+03 -0.45978953984E+03 -0.20911243391E+03  0.72719619846E+03  0.15294330000E+03 0.  0.
<mgrwt>
<rscale>  0 0.87650189E+03</rscale>
<asrwt>0</asrwt>
<pdfrwt beam="1">  1        2 0.35449134E+00 0.94631118E+03</pdfrwt>
<pdfrwt beam="2">  1       -2 0.58611724E-01 0.94631118E+03</pdfrwt>
<totfact> 0.12450672E+01</totfact>
</mgrwt>
</event>
<event>
 4    2  0.3388003E-007  0.6952951E+03  0.7818608E-02  0.1001731E+00
         -2   -1    0    0    0  501 -0.00000000000E+00  0.00000000000E+00  0.26553740951E+03  0.26553740953E+03  0.25500000000E-02 0.  1.
          2   -1    0    0  501    0  0.00000000000E+00 -0.00000000000E+00 -0.19976385565E+04  0.19976385565E+04  0.25500000000E-02 0. -1.
    8880023    1    1    2    0    0 -0.13766327601E+03  0.17513976202E+03 -0.22315832193E+03  0.73022938637E+03  0.65864270000E+03 0.  1.
    8880022    1    1    2    0    0  0.13766327601E+03 -0.17513976202E+03 -0.15089428250E+04  0.15329465796E+04  0.15294330000E+03 0.  0.
<mgrwt>
<rscale>  0 0.54897772E+03</rscale>
<asrwt>0</asrwt>
<pdfrwt beam="1">  1        2 0.30732900E+00 0.69529513E+03</pdfrwt>
<pdfrwt beam="2">  1       -2 0.40851910E-01 0.69529513E+03</pdfrwt>
<totfact> 0.39492537E+01</totfact>
</mgrwt>
</event>
<event>
 4    2  0.3388003E-007  0.6988988E+03  0.7818608E-02  0.1000180E+00
          2   -1    0    0  501    0  0.00000000000E+00  0.00000000000E+00  0.92181044340E+03  0.92181044340E+03  0.25500000000E-02 0. -1.
         -2   -1    0    0    0  501 -0.00000000000E+00 -0.00000000000E+00 -0.27213967363E+03  0.27213967364E+03  0.25500000000E-02 0.  1.
    8880023    1    1    2    0    0 -0.20393439003E+03 -0.11428086470E+03  0.34105319731E+03  0.77767399412E+03  0.65864270000E+03 0.  1.
    8880022    1    1    2    0    0  0.20393439003E+03  0.11428086470E+03  0.30861757245E+03  0.41627612292E+03  0.15294330000E+03 0.  0.
<mgrwt>
<rscale>  0 0.55571368E+03</rscale>
<asrwt>0</asrwt>
<pdfrwt beam="1">  1        2 0.14181699E+00 0.69889882E+03</pdfrwt>
<pdfrwt beam="2">  1       -2 0.41867641E-01 0.69889882E+03</pdfrwt>
<totfact> 0.15545700E+02</totfact>
</mgrwt>
</event>
<event>
 4    2  0.3388003E-007  0.6754779E+03  0.7818608E-02  0.1012007E+00
          2   -1    0    0  501    0  0.00000000000E+00  0.00000000000E+00  0.14372574091E+04  0.14372574091E+04  0.25500000000E-02 0. -1.
         -2   -1    0    0    0  501 -0.00000000000E+00 -0.00000000000E+00 -0.16572615575E+03  0.16572615577E+03  0.25500000000E-02 0.  1.
    8880023    1    1    2    0    0 -0.11813084036E+03  0.92223786074E+02  0.61895706695E+03  0.91617584510E+03  0.65864270000E+03 0.  1.
    8880022    1    1    2    0    0  0.11813084036E+03 -0.92223786074E+02  0.65257418637E+03  0.68680771974E+03  0.15294330000E+03 0.  0.
<mgrwt>
<rscale>  0 0.50684814E+03</rscale>
<asrwt>0</asrwt>
<pdfrwt beam="1">  1        2 0.22111651E+00 0.67547785E+03</pdfrwt>
<pdfrwt beam="2">  1       -2 0.25496333E-01 0.67547785E+03</pdfrwt>
<totfact> 0.19438197E+02</totfact>
</mgrwt>
</event>
<event>
 4    2  0.3388003E-007  0.8713278E+03  0.7818608E-02  0.9573723E-01
          2   -1    0    0  501    0  0.00000000000E+00  0.00000000000E+00  0.15879965622E+04  0.15879965622E+04  0.25500000000E-02 0. -1.
         -2   -1    0    0    0  501 -0.00000000000E+00 -0.00000000000E+00 -0.10569129979E+04  0.10569129979E+04  0.25500000000E-02 0.  1.
    8880023    1    1    2    0    0 -0.56248428758E+03 -0.94938515461E+02 -0.80364861736E+03  0.11853536189E+04  0.65864270000E+03 0.  1.
    8880022    1    1    2    0    0  0.56248428758E+03  0.94938515461E+02  0.13347321817E+04  0.14595559412E+04  0.15294330000E+03 0.  0.
<mgrwt>
<rscale>  0 0.79060076E+03</rscale>
<asrwt>0</asrwt>
<pdfrwt beam="1">  1        2 0.24430716E+00 0.87132778E+03</pdfrwt>
<pdfrwt beam="2">  1       -2 0.16260200E+00 0.87132778E+03</pdfrwt>
<totfact> 0.27579063E+00</totfact>
</mgrwt>
</event>
<event>
 4    2  0.3478933E-007  0.7167833E+03  0.7818608E-02  0.9933624E-01
          2   -1    0    0  501    0  0.00000000000E+00  0.00000000000E+00  0.84699972853E+03  0.84699972853E+03  0.25500000000E-02 0. -1.
         -2   -1    0    0    0  501 -0.00000000000E+00 -0.00000000000E+00 -0.23459445191E+04  0.23459445191E+04  0.25500000000E-02 0.  1.
    8880023    1    1    2    0    0 -0.24786624021E+03 -0.13612631502E+03 -0.22577722554E+04  0.23688211858E+04  0.65864270000E+03 0.  1.
    8880022    1    1    2    0    0  0.24786624021E+03  0.13612631502E+03  0.75882746483E+03  0.82412306185E+03  0.15294330000E+03 0.  0.
<mgrwt>
<rscale>  0 0.58659019E+03</rscale>
<asrwt>0</asrwt>
<pdfrwt beam="1">  1        2 0.13030765E+00 0.71678327E+03</pdfrwt>
<pdfrwt beam="2">  1       -2 0.36091454E+00 0.71678327E+03</pdfrwt>
<totfact> 0.45159263E-01</totfact>
</mgrwt>
</event>
<event>
 4    2  0.3388003E-007  0.6836159E+03  0.7818608E-02  0.1007348E+00
          2   -1    0    0  501    0  0.00000000000E+00  0.00000000000E+00  0.20071767849E+04  0.20071767849E+04  0.25500000000E-02 0. -1.
         -2   -1    0    0    0  501 -0.00000000000E+00 -0.00000000000E+00 -0.49716312895E+03  0.49716312896E+03  0.25500000000E-02 0.  1.
    8880023    1    1    2    0    0  0.81271997253E+02 -0.16405916418E+03 -0.25025251446E+03  0.72798150673E+03  0.65864270000E+03 0.  1.
    8880022    1    1    2    0    0 -0.81271997253E+02  0.16405916418E+03  0.17602661704E+04  0.17763584071E+04  0.15294330000E+03 0.  0.
<mgrwt>
<rscale>  0 0.52542388E+03</rscale>
<asrwt>0</asrwt>
<pdfrwt beam="1">  1        2 0.30879642E+00 0.68361594E+03</pdfrwt>
<pdfrwt beam="2">  1       -2 0.76486637E-01 0.68361594E+03</pdfrwt>
<totfact> 0.10589604E+01</totfact>
</mgrwt>
</event>
<event>
 4    2  0.3388003E-007  0.8366688E+03  0.7818608E-02  0.9636494E-01
          2   -1    0    0  501    0  0.00000000000E+00  0.00000000000E+00  0.72800940179E+03  0.72800940180E+03  0.25500000000E-02 0. -1.
         -2   -1    0    0    0  501 -0.00000000000E+00 -0.00000000000E+00 -0.69976977116E+03  0.69976977116E+03  0.25500000000E-02 0.  1.
    8880023    1    1    2    0    0 -0.42925303061E+03 -0.28626280568E+03 -0.17095283466E+03  0.85395528931E+03  0.65864270000E+03 0. -1.
    8880022    1    1    2    0    0  0.42925303061E+03  0.28626280568E+03  0.19919246530E+03  0.57382388365E+03  0.15294330000E+03 0.  1.
<mgrwt>
<rscale>  0 0.74927167E+03</rscale>
<asrwt>0</asrwt>
<pdfrwt beam="1">  1        2 0.11200145E+00 0.83666885E+03</pdfrwt>
<pdfrwt beam="2">  1       -2 0.10765689E+00 0.83666885E+03</pdfrwt>
<totfact> 0.27146046E+01</totfact>
</mgrwt>
</event>
<event>
 4    2  0.3388003E-007  0.7101696E+03  0.7818608E-02  0.9957372E-01
          2   -1    0    0  501    0  0.00000000000E+00  0.00000000000E+00  0.75996732935E+03  0.75996732935E+03  0.25500000000E-02 0. -1.
         -2   -1    0    0    0  501 -0.00000000000E+00 -0.00000000000E+00 -0.57399200071E+03  0.57399200071E+03  0.25500000000E-02 0.  1.
    8880023    1    1    2    0    0  0.96780827330E+02 -0.24731387214E+03 -0.29061946855E+03  0.76733340971E+03  0.65864270000E+03 0.  1.
    8880022    1    1    2    0    0 -0.96780827330E+02  0.24731387214E+03  0.47659479720E+03  0.56662592036E+03  0.15294330000E+03 0.  0.
<mgrwt>
<rscale>  0 0.57559588E+03</rscale>
<asrwt>0</asrwt>
<pdfrwt beam="1">  1        2 0.11691805E+00 0.71016962E+03</pdfrwt>
<pdfrwt beam="2">  1       -2 0.88306462E-01 0.71016962E+03</pdfrwt>
<totfact> 0.41386324E+01</totfact>
</mgrwt>
</event>
<event>
 4    2  0.3388003E-007  0.9511790E+03  0.7818608E-02  0.9448420E-01
          2   -1    0    0  501    0  0.00000000000E+00  0.00000000000E+00  0.67775314921E+03  0.67775314922E+03  0.25500000000E-02 0. -1.
         -2   -1    0    0    0  501 -0.00000000000E+00 -0.00000000000E+00 -0.11455846563E+04  0.11455846563E+04  0.25500000000E-02 0.  1.
    8880023    1    1    2    0    0  0.23043347746E+03  0.64639898098E+03  0.46339326620E+02  0.95230707737E+03  0.65864270000E+03 0.  0.
    8880022    1    1    2    0    0 -0.23043347746E+03 -0.64639898098E+03 -0.51417083372E+03  0.87103072817E+03  0.15294330000E+03 0.  0.
<mgrwt>
<rscale>  0 0.88195824E+03</rscale>
<asrwt>0</asrwt>
<pdfrwt beam="1">  1        2 0.10426971E+00 0.95117897E+03</pdfrwt>
<pdfrwt beam="2">  1       -2 0.17624379E+00 0.95117897E+03</pdfrwt>
<totfact> 0.81939688E+00</totfact>
</mgrwt>
</event>
<event>
 4    2  0.3388003E-007  0.1551646E+04  0.7818608E-02  0.8874002E-01
         -2   -1    0    0    0  501 -0.00000000000E+00  0.00000000000E+00  0.24611975780E+04  0.24611975780E+04  0.25500000000E-02 0.  1.
          2   -1    0    0  501    0  0.00000000000E+00 -0.00000000000E+00 -0.92103729682E+03  0.92103729683E+03  0.25500000000E-02 0. -1.
    8880023    1    1    2    0    0  0.13584983254E+04 -0.35815812132E+03  0.50967217417E+03  0.16332087654E+04  0.65864270000E+03 0.  1.
    8880022    1    1    2    0    0 -0.13584983254E+04  0.35815812132E+03  0.10304881070E+04  0.17490261095E+04  0.15294330000E+03 0.  0.
<mgrwt>
<rscale>  0 0.15158171E+04</rscale>
<asrwt>0</asrwt>
<pdfrwt beam="1">  1        2 0.14169804E+00 0.15516459E+04</pdfrwt>
<pdfrwt beam="2">  1       -2 0.37864578E+00 0.15516459E+04</pdfrwt>
<totfact> 0.27436023E-01</totfact>
</mgrwt>
</event>
<event>
 4    2  0.3388003E-007  0.7926172E+03  0.7818608E-02  0.9726993E-01
          2   -1    0    0  501    0  0.00000000000E+00  0.00000000000E+00  0.29228140549E+04  0.29228140549E+04  0.25500000000E-02 0. -1.
         -2   -1    0    0    0  501 -0.00000000000E+00 -0.00000000000E+00 -0.18195145991E+03  0.18195145992E+03  0.25500000000E-02 0.  1.
    8880023    1    1    2    0    0  0.43292815321E+03 -0.83696022193E+02  0.87153328299E+03  0.11780544468E+04  0.65864270000E+03 0.  1.
    8880022    1    1    2    0    0 -0.43292815321E+03  0.83696022193E+02  0.18693293120E+04  0.19267110680E+04  0.15294330000E+03 0.  0.
<mgrwt>
<rscale>  0 0.69432164E+03</rscale>
<asrwt>0</asrwt>
<pdfrwt beam="1">  1        2 0.44966367E+00 0.79261719E+03</pdfrwt>
<pdfrwt beam="2">  1       -2 0.27992534E-01 0.79261719E+03</pdfrwt>
<totfact> 0.23786381E+01</totfact>
</mgrwt>
</event>
<event>
 4    2  0.3388003E-007  0.8040901E+03  0.7818608E-02  0.9702021E-01
         -2   -1    0    0    0  501 -0.00000000000E+00  0.00000000000E+00  0.34989270879E+03  0.34989270880E+03  0.25500000000E-02 0.  1.
          2   -1    0    0  501    0  0.00000000000E+00 -0.00000000000E+00 -0.16922058138E+04  0.16922058138E+04  0.25500000000E-02 0. -1.
    8880023    1    1    2    0    0 -0.31059405675E+03 -0.34100157655E+03 -0.24273737096E+03  0.83992998566E+03  0.65864270000E+03 0.  1.
    8880022    1    1    2    0    0  0.31059405675E+03  0.34100157655E+03 -0.10995757341E+04  0.12021685370E+04  0.15294330000E+03 0.  0.
<mgrwt>
<rscale>  0 0.70896582E+03</rscale>
<asrwt>0</asrwt>
<pdfrwt beam="1">  1        2 0.26033935E+00 0.80409014E+03</pdfrwt>
<pdfrwt beam="2">  1       -2 0.53829648E-01 0.80409014E+03</pdfrwt>
<totfact> 0.32846151E+01</totfact>
</mgrwt>
</event>
<event>
 4    2  0.3388003E-007  0.1102851E+04  0.7818608E-02  0.9257889E-01
          2   -1    0    0  501    0  0.00000000000E+00  0.00000000000E+00  0.15998721315E+04  0.15998721315E+04  0.25500000000E-02 0. -1.
         -2   -1    0    0    0  501 -0.00000000000E+00 -0.00000000000E+00 -0.10359153798E+04  0.10359153798E+04  0.25500000000E-02 0.  1.
    8880023    1    1    2    0    0 -0.85273677763E+03 -0.23518121346E+03 -0.52756075043E+03  0.12225386565E+04  0.65864270000E+03 0. -1.
    8880022    1    1    2    0    0  0.85273677763E+03  0.23518121346E+03  0.10915175022E+04  0.14132488548E+04  0.15294330000E+03 0.  0.
<mgrwt>
<rscale>  0 0.10475390E+04</rscale>
<asrwt>0</asrwt>
<pdfrwt beam="1">  1        2 0.24613417E+00 0.11028510E+04</pdfrwt>
<pdfrwt beam="2">  1       -2 0.15937160E+00 0.11028510E+04</pdfrwt>
<totfact> 0.27871189E+00</totfact>
</mgrwt>
</event>
<event>
 4    2  0.3388003E-007  0.6655067E+03  0.7818608E-02  0.1019112E+00
          2   -1    0    0  501    0  0.00000000000E+00  0.00000000000E+00  0.10847070475E+04  0.10847070475E+04  0.25500000000E-02 0. -1.
         -2   -1    0    0    0  501 -0.00000000000E+00 -0.00000000000E+00 -0.20222799735E+03  0.20222799737E+03  0.25500000000E-02 0.  1.
    8880023    1    1    2    0    0  0.85554340148E+02  0.42064386238E+02  0.41101182787E+03  0.78219555523E+03  0.65864270000E+03 0.  0.
    8880022    1    1    2    0    0 -0.85554340148E+02 -0.42064386238E+02  0.47146722230E+03  0.50473948967E+03  0.15294330000E+03 0.  0.
<mgrwt>
<rscale>  0 0.48008413E+03</rscale>
<asrwt>0</asrwt>
<pdfrwt beam="1">  1        2 0.16687801E+00 0.66550670E+03</pdfrwt>
<pdfrwt beam="2">  1       -2 0.31112000E-01 0.66550670E+03</pdfrwt>
<totfact> 0.21656579E+02</totfact>
</mgrwt>
</event>
<event>
 4    2  0.3388003E-007  0.9402665E+03  0.7818608E-02  0.9464259E-01
         -2   -1    0    0    0  501 -0.00000000000E+00  0.00000000000E+00  0.74829359281E+03  0.74829359282E+03  0.25500000000E-02 0.  1.
          2   -1    0    0  501    0  0.00000000000E+00 -0.00000000000E+00 -0.15870098608E+04  0.15870098608E+04  0.25500000000E-02 0. -1.
    8880023    1    1    2    0    0  0.18612722587E+03 -0.64470732152E+03  0.31522772902E+03  0.99170035900E+03  0.65864270000E+03 0.  0.
    8880022    1    1    2    0    0 -0.18612722587E+03  0.64470732152E+03 -0.11539439970E+04  0.13436030946E+04  0.15294330000E+03 0.  0.
<mgrwt>
<rscale>  0 0.86970935E+03</rscale>
<asrwt>0</asrwt>
<pdfrwt beam="1">  1        2 0.24415536E+00 0.94026649E+03</pdfrwt>
<pdfrwt beam="2">  1       -2 0.11512209E+00 0.94026649E+03</pdfrwt>
<totfact> 0.66806746E+00</totfact>
</mgrwt>
</event>
<event>
 4    2  0.3388003E-007  0.7248162E+03  0.7818608E-02  0.9906614E-01
          2   -1    0    0  501    0  0.00000000000E+00  0.00000000000E+00  0.96396906497E+03  0.96396906497E+03  0.25500000000E-02 0. -1.
         -2   -1    0    0    0  501 -0.00000000000E+00 -0.00000000000E+00 -0.89857443930E+03  0.89857443931E+03  0.25500000000E-02 0.  1.
    8880023    1    1    2    0    0  0.84692695966E+02  0.29047445989E+03 -0.71102013409E+03  0.10153364477E+04  0.65864270000E+03 0.  0.
    8880022    1    1    2    0    0 -0.84692695966E+02 -0.29047445989E+03  0.77641475976E+03  0.84720705662E+03  0.15294330000E+03 0.  0.
<mgrwt>
<rscale>  0 0.59941798E+03</rscale>
<asrwt>0</asrwt>
<pdfrwt beam="1">  1        2 0.14830293E+00 0.72481616E+03</pdfrwt>
<pdfrwt beam="2">  1       -2 0.13824222E+00 0.72481616E+03</pdfrwt>
<totfact> 0.10066091E+01</totfact>
</mgrwt>
</event>
<event>
 4    2  0.3388003E-007  0.6819901E+03  0.7818608E-02  0.1008220E+00
         -2   -1    0    0    0  501 -0.00000000000E+00  0.00000000000E+00  0.53975498298E+03  0.53975498299E+03  0.25500000000E-02 0.  1.
          2   -1    0    0  501    0  0.00000000000E+00 -0.00000000000E+00 -0.11503459180E+04  0.11503459180E+04  0.25500000000E-02 0. -1.
    8880023    1    1    2    0    0  0.90101755087E+00  0.17691648361E+03  0.30356876830E+03  0.74650147847E+03  0.65864270000E+03 0.  1.
    8880022    1    1    2    0    0 -0.90101755087E+00 -0.17691648361E+03 -0.91415970335E+03  0.94359942256E+03  0.15294330000E+03 0.  0.
<mgrwt>
<rscale>  0 0.52188393E+03</rscale>
<asrwt>0</asrwt>
<pdfrwt beam="1">  1        2 0.17697629E+00 0.68199007E+03</pdfrwt>
<pdfrwt beam="2">  1       -2 0.83039228E-01 0.68199007E+03</pdfrwt>
<totfact> 0.26448015E+01</totfact>
</mgrwt>
</event>
<event>
 4    2  0.3388003E-007  0.7776599E+03  0.7818608E-02  0.9761363E-01
         -2   -1    0    0    0  501 -0.00000000000E+00  0.00000000000E+00  0.15252316017E+04  0.15252316017E+04  0.25500000000E-02 0.  1.
          2   -1    0    0  501    0  0.00000000000E+00 -0.00000000000E+00 -0.52520611672E+03  0.52520611672E+03  0.25500000000E-02 0. -1.
    8880023    1    1    2    0    0  0.17728300630E+03  0.37351756701E+03  0.13016704400E+04  0.15162785951E+04  0.65864270000E+03 0.  1.
    8880022    1    1    2    0    0 -0.17728300630E+03 -0.37351756701E+03 -0.30164495501E+03  0.53415912338E+03  0.15294330000E+03 0.  0.
<mgrwt>
<rscale>  0 0.67477890E+03</rscale>
<asrwt>0</asrwt>
<pdfrwt beam="1">  1        2 0.80800942E-01 0.77765985E+03</pdfrwt>
<pdfrwt beam="2">  1       -2 0.23465101E+00 0.77765985E+03</pdfrwt>
<totfact> 0.47530943E+00</totfact>
</mgrwt>
</event>
<event>
 4    2  0.3388003E-007  0.7082587E+03  0.7818608E-02  0.9964525E-01
         -2   -1    0    0    0  501 -0.00000000000E+00  0.00000000000E+00  0.34525888634E+03  0.34525888635E+03  0.25500000000E-02 0.  1.
          2   -1    0    0  501    0  0.00000000000E+00 -0.00000000000E+00 -0.31089321378E+04  0.31089321378E+04  0.25500000000E-02 0. -1.
    8880023    1    1    2    0    0 -0.25245118513E+03 -0.63941528545E+02 -0.35283632117E+02  0.70913698317E+03  0.65864270000E+03 0.  1.
    8880022    1    1    2    0    0  0.25245118513E+03  0.63941528545E+02 -0.27283896194E+04  0.27450540410E+04  0.15294330000E+03 0.  0.
<mgrwt>
<rscale>  0 0.57233497E+03</rscale>
<asrwt>0</asrwt>
<pdfrwt beam="1">  1        2 0.47829723E+00 0.70825866E+03</pdfrwt>
<pdfrwt beam="2">  1       -2 0.53116754E-01 0.70825866E+03</pdfrwt>
<totfact> 0.53532175E+00</totfact>
</mgrwt>
</event>
<event>
 4    2  0.3388003E-007  0.8380800E+03  0.7818608E-02  0.9633811E-01
          2   -1    0    0  501    0  0.00000000000E+00  0.00000000000E+00  0.18779903903E+04  0.18779903903E+04  0.25500000000E-02 0. -1.
         -2   -1    0    0    0  501 -0.00000000000E+00 -0.00000000000E+00 -0.27129368081E+03  0.27129368082E+03  0.25500000000E-02 0.  1.
    8880023    1    1    2    0    0  0.43797636059E+03 -0.27702821533E+03  0.12385543246E+04  0.14954581057E+04  0.65864270000E+03 0.  0.
    8880022    1    1    2    0    0 -0.43797636059E+03  0.27702821533E+03  0.36814238483E+03  0.65382596541E+03  0.15294330000E+03 0.  0.
<mgrwt>
<rscale>  0 0.75098188E+03</rscale>
<asrwt>0</asrwt>
<pdfrwt beam="1">  1        2 0.28892159E+00 0.83808003E+03</pdfrwt>
<pdfrwt beam="2">  1       -2 0.41737490E-01 0.83808003E+03</pdfrwt>
<totfact> 0.43260653E+01</totfact>
</mgrwt>
</event>
<event>
 4    2  0.3388003E-007  0.7196908E+03  0.7818608E-02  0.9923633E-01
          2   -1    0    0  501    0  0.00000000000E+00  0.00000000000E+00  0.63971589083E+03  0.63971589083E+03  0.25500000000E-02 0. -1.
         -2   -1    0    0    0  501 -0.00000000000E+00 -0.00000000000E+00 -0.10724892617E+04  0.10724892617E+04  0.25500000000E-02 0.  1.
    8880023    1    1    2    0    0 -0.27294816286E+03  0.98203855101E+02 -0.89311830296E+03  0.11470027054E+04  0.65864270000E+03 0.  0.
    8880022    1    1    2    0    0  0.27294816286E+03 -0.98203855101E+02  0.46034493209E+03  0.56520244717E+03  0.15294330000E+03 0.  0.
<mgrwt>
<rscale>  0 0.59129457E+03</rscale>
<asrwt>0</asrwt>
<pdfrwt beam="1">  1        2 0.98417829E-01 0.71969084E+03</pdfrwt>
<pdfrwt beam="2">  1       -2 0.16499835E+00 0.71969084E+03</pdfrwt>
<totfact> 0.10822780E+01</totfact>
</mgrwt>
</event>
<event>
 4    2  0.3388003E-007  0.6971054E+03  0.7818608E-02  0.1000943E+00
          2   -1    0    0  501    0  0.00000000000E+00  0.00000000000E+00  0.12287813902E+04  0.12287813903E+04  0.25500000000E-02 0. -1.
         -2   -1    0    0    0  501 -0.00000000000E+00 -0.00000000000E+00 -0.51383816021E+03  0.51383816022E+03  0.25500000000E-02 0.  1.
    8880023    1    1    2    0    0 -0.35572059594E+01 -0.22832663253E+03 -0.24901483917E+03  0.74024610855E+03  0.65864270000E+03 0.  0.
    8880022    1    1    2    0    0  0.35572059594E+01  0.22832663253E+03  0.96395806921E+03  0.10023734419E+04  0.15294330000E+03 0. -1.
<mgrwt>
<rscale>  0 0.55238776E+03</rscale>
<asrwt>0</asrwt>
<pdfrwt beam="1">  1        2 0.18904329E+00 0.69710538E+03</pdfrwt>
<pdfrwt beam="2">  1       -2 0.79052025E-01 0.69710538E+03</pdfrwt>
<totfact> 0.26504419E+01</totfact>
</mgrwt>
</event>
<event>
 4    2  0.3388003E-007  0.6676522E+03  0.7818608E-02  0.1017405E+00
          2   -1    0    0  501    0  0.00000000000E+00  0.00000000000E+00  0.18973349428E+03  0.18973349430E+03  0.25500000000E-02 0. -1.
         -2   -1    0    0    0  501 -0.00000000000E+00 -0.00000000000E+00 -0.17867205922E+04  0.17867205922E+04  0.25500000000E-02 0.  1.
    8880023    1    1    2    0    0  0.69723591199E+02 -0.84189199762E+02 -0.16509745649E+04  0.17808639535E+04  0.65864270000E+03 0.  1.
    8880022    1    1    2    0    0 -0.69723591199E+02  0.84189199762E+02  0.53987467002E+02  0.19559013302E+03  0.15294330000E+03 0.  0.
<mgrwt>
<rscale>  0 0.48634821E+03</rscale>
<asrwt>0</asrwt>
<pdfrwt beam="1">  1        2 0.29189769E-01 0.66765216E+03</pdfrwt>
<pdfrwt beam="2">  1       -2 0.27488008E+00 0.66765216E+03</pdfrwt>
<totfact> 0.86570109E+00</totfact>
</mgrwt>
</event>
<event>
 4    2  0.3388003E-007  0.6892844E+03  0.7818608E-02  0.1004495E+00
          2   -1    0    0  501    0  0.00000000000E+00  0.00000000000E+00  0.77418223084E+03  0.77418223084E+03  0.25500000000E-02 0. -1.
         -2   -1    0    0    0  501 -0.00000000000E+00 -0.00000000000E+00 -0.41317213648E+03  0.41317213649E+03  0.25500000000E-02 0.  1.
    8880023    1    1    2    0    0 -0.11953990450E+02 -0.20287889687E+03 -0.63788730602E+02  0.69222969678E+03  0.65864270000E+03 0.  0.
    8880022    1    1    2    0    0  0.11953990450E+02  0.20287889687E+03  0.42479882496E+03  0.49512467055E+03  0.15294330000E+03 0.  0.
<mgrwt>
<rscale>  0 0.53722617E+03</rscale>
<asrwt>0</asrwt>
<pdfrwt beam="1">  1        2 0.11910496E+00 0.68928438E+03</pdfrwt>
<pdfrwt beam="2">  1       -2 0.63564945E-01 0.68928438E+03</pdfrwt>
<totfact> 0.83800372E+01</totfact>
</mgrwt>
</event>
<event>
 4    2  0.3388003E-007  0.1134389E+04  0.7818608E-02  0.9223701E-01
          2   -1    0    0  501    0  0.00000000000E+00  0.00000000000E+00  0.16436429244E+04  0.16436429244E+04  0.25500000000E-02 0. -1.
         -2   -1    0    0    0  501 -0.00000000000E+00 -0.00000000000E+00 -0.14737071043E+04  0.14737071043E+04  0.25500000000E-02 0.  1.
    8880023    1    1    2    0    0  0.56145500591E+03 -0.73334613361E+03 -0.10728863097E+04  0.15613851271E+04  0.65864270000E+03 0.  0.
    8880022    1    1    2    0    0 -0.56145500591E+03  0.73334613361E+03  0.12428221299E+04  0.15559649016E+04  0.15294330000E+03 0.  0.
<mgrwt>
<rscale>  0 0.10812112E+04</rscale>
<asrwt>0</asrwt>
<pdfrwt beam="1">  1        2 0.25286814E+00 0.11343890E+04</pdfrwt>
<pdfrwt beam="2">  1       -2 0.22672417E+00 0.11343890E+04</pdfrwt>
<totfact> 0.92478474E-01</totfact>
</mgrwt>
</event>
<event>
 4    2  0.5018688E-007  0.8380853E+03  0.7818608E-02  0.9633801E-01
          2   -1    0    0  501    0  0.00000000000E+00  0.00000000000E+00  0.25619827813E+04  0.25619827813E+04  0.25500000000E-02 0. -1.
         -2   -1    0    0    0  501 -0.00000000000E+00 -0.00000000000E+00 -0.99080511411E+03  0.99080511411E+03  0.25500000000E-02 0.  1.
    8880023    1    1    2    0    0 -0.10200957289E+03 -0.50810506381E+03 -0.77723493486E+03  0.11430140240E+04  0.65864270000E+03 0.  1.
    8880022    1    1    2    0    0  0.10200957289E+03  0.50810506381E+03  0.23484126021E+04  0.24097738714E+04  0.15294330000E+03 0.  0.
<mgrwt>
<rscale>  0 0.75098823E+03</rscale>
<asrwt>0</asrwt>
<pdfrwt beam="1">  1        2 0.39415119E+00 0.83808527E+03</pdfrwt>
<pdfrwt beam="2">  1       -2 0.15243156E+00 0.83808527E+03</pdfrwt>
<totfact> 0.95256191E-01</totfact>
</mgrwt>
</event>
<event>
 4    2  0.3388003E-007  0.7122978E+03  0.7818608E-02  0.9949565E-01
          2   -1    0    0  501    0  0.00000000000E+00  0.00000000000E+00  0.22410963824E+04  0.22410963824E+04  0.25500000000E-02 0. -1.
         -2   -1    0    0    0  501 -0.00000000000E+00 -0.00000000000E+00 -0.45222463192E+03  0.45222463193E+03  0.25500000000E-02 0.  1.
    8880023    1    1    2    0    0  0.85675873336E+02 -0.25732782326E+03 -0.15141199227E+03  0.72821271725E+03  0.65864270000E+03 0.  1.
    8880022    1    1    2    0    0 -0.85675873336E+02  0.25732782326E+03  0.19402837427E+04  0.19651082971E+04  0.15294330000E+03 0.  0.
<mgrwt>
<rscale>  0 0.57918122E+03</rscale>
<asrwt>0</asrwt>
<pdfrwt beam="1">  1        2 0.34478406E+00 0.71229781E+03</pdfrwt>
<pdfrwt beam="2">  1       -2 0.69573021E-01 0.71229781E+03</pdfrwt>
<totfact> 0.96654531E+00</totfact>
</mgrwt>
</event>
<event>
 4    2  0.3388003E-007  0.8927537E+03  0.7818608E-02  0.9537766E-01
         -2   -1    0    0    0  501 -0.00000000000E+00  0.00000000000E+00  0.33532023341E+03  0.33532023342E+03  0.25500000000E-02 0.  1.
          2   -1    0    0  501    0  0.00000000000E+00 -0.00000000000E+00 -0.17351545875E+04  0.17351545875E+04  0.25500000000E-02 0. -1.
    8880023    1    1    2    0    0  0.10478324323E+03 -0.59348080537E+03 -0.94569318319E+03  0.13005171269E+04  0.65864270000E+03 0.  0.
    8880022    1    1    2    0    0 -0.10478324323E+03  0.59348080537E+03 -0.45414117086E+03  0.76995769396E+03  0.15294330000E+03 0. -1.
<mgrwt>
<rscale>  0 0.81555859E+03</rscale>
<asrwt>0</asrwt>
<pdfrwt beam="1">  1        2 0.26694685E+00 0.89275372E+03</pdfrwt>
<pdfrwt beam="2">  1       -2 0.51587729E-01 0.89275372E+03</pdfrwt>
<totfact> 0.33644386E+01</totfact>
</mgrwt>
</event>
<event>
 4    2  0.3388003E-007  0.8470736E+03  0.7818608E-02  0.9616984E-01
         -2   -1    0    0    0  501 -0.00000000000E+00  0.00000000000E+00  0.78083884576E+03  0.78083884576E+03  0.25500000000E-02 0.  1.
          2   -1    0    0  501    0  0.00000000000E+00 -0.00000000000E+00 -0.72226341505E+03  0.72226341506E+03  0.25500000000E-02 0. -1.
    8880023    1    1    2    0    0  0.16258651785E+03 -0.50723670453E+03  0.29998565226E+03  0.89862397477E+03  0.65864270000E+03 0.  1.
    8880022    1    1    2    0    0 -0.16258651785E+03  0.50723670453E+03 -0.24141022156E+03  0.60447828604E+03  0.15294330000E+03 0.  0.
<mgrwt>
<rscale>  0 0.76182198E+03</rscale>
<asrwt>0</asrwt>
<pdfrwt beam="1">  1        2 0.11111745E+00 0.84707358E+03</pdfrwt>
<pdfrwt beam="2">  1       -2 0.12012905E+00 0.84707358E+03</pdfrwt>
<totfact> 0.20960664E+01</totfact>
</mgrwt>
</event>
<event>
 4    2  0.3388003E-007  0.6720983E+03  0.7818608E-02  0.1014201E+00
          2   -1    0    0  501    0  0.00000000000E+00  0.00000000000E+00  0.74972195945E+03  0.74972195945E+03  0.25500000000E-02 0. -1.
         -2   -1    0    0    0  501 -0.00000000000E+00 -0.00000000000E+00 -0.28385786152E+03  0.28385786153E+03  0.25500000000E-02 0.  1.
    8880023    1    1    2    0    0 -0.56365947394E+01  0.13369447555E+03  0.20452790845E+03  0.70252961190E+03  0.65864270000E+03 0.  1.
    8880022    1    1    2    0    0  0.56365947394E+01 -0.13369447555E+03  0.26133618948E+03  0.33105020909E+03  0.15294330000E+03 0.  0.
<mgrwt>
<rscale>  0 0.49838535E+03</rscale>
<asrwt>0</asrwt>
<pdfrwt beam="1">  1        2 0.11534184E+00 0.67209835E+03</pdfrwt>
<pdfrwt beam="2">  1       -2 0.43670440E-01 0.67209835E+03</pdfrwt>
<totfact> 0.18916376E+02</totfact>
</mgrwt>
</event>
<event>
 4    2  0.3388003E-007  0.1130898E+04  0.7818608E-02  0.9227411E-01
         -2   -1    0    0    0  501 -0.00000000000E+00  0.00000000000E+00  0.11071500970E+04  0.11071500970E+04  0.25500000000E-02 0.  1.
          2   -1    0    0  501    0  0.00000000000E+00 -0.00000000000E+00 -0.11790703565E+04  0.11790703565E+04  0.25500000000E-02 0. -1.
    8880023    1    1    2    0    0 -0.97343032628E+02  0.91413564286E+03  0.45110062632E+03  0.12175473793E+04  0.65864270000E+03 0.  0.
    8880022    1    1    2    0    0  0.97343032628E+02 -0.91413564286E+03 -0.52302088576E+03  0.10686730742E+04  0.15294330000E+03 0.  0.
<mgrwt>
<rscale>  0 0.10774930E+04</rscale>
<asrwt>0</asrwt>
<pdfrwt beam="1">  1        2 0.18139544E+00 0.11308978E+04</pdfrwt>
<pdfrwt beam="2">  1       -2 0.17033079E+00 0.11308978E+04</pdfrwt>
<totfact> 0.40426201E+00</totfact>
</mgrwt>
</event>
<event>
 4    2  0.3388003E-007  0.6660759E+03  0.7818608E-02  0.1018647E+00
         -2   -1    0    0    0  501 -0.00000000000E+00  0.00000000000E+00  0.17659528056E+03  0.17659528058E+03  0.25500000000E-02 0.  1.
          2   -1    0    0  501    0  0.00000000000E+00 -0.00000000000E+00 -0.23938972691E+04  0.23938972691E+04  0.25500000000E-02 0. -1.
    8880023    1    1    2    0    0 -0.98450578970E+02 -0.12425400565E+02 -0.47359792212E+03  0.81728336896E+03  0.65864270000E+03 0.  1.
    8880022    1    1    2    0    0  0.98450578970E+02  0.12425400565E+02 -0.17437040665E+04  0.17532091808E+04  0.15294330000E+03 0.  0.
<mgrwt>
<rscale>  0 0.48177922E+03</rscale>
<asrwt>0</asrwt>
<pdfrwt beam="1">  1        2 0.36829186E+00 0.66607591E+03</pdfrwt>
<pdfrwt beam="2">  1       -2 0.27168506E-01 0.66607591E+03</pdfrwt>
<totfact> 0.51835110E+01</totfact>
</mgrwt>
</event>
<event>
 4    2  0.3388003E-007  0.7804764E+03  0.7818608E-02  0.9754719E-01
         -2   -1    0    0    0  501 -0.00000000000E+00  0.00000000000E+00  0.30243969963E+03  0.30243969964E+03  0.25500000000E-02 0.  1.
          2   -1    0    0  501    0  0.00000000000E+00 -0.00000000000E+00 -0.25085008479E+04  0.25085008479E+04  0.25500000000E-02 0. -1.
    8880023    1    1    2    0    0 -0.22016514266E+03  0.35617493175E+03 -0.27253653689E+03  0.82669198753E+03  0.65864270000E+03 0.  1.
    8880022    1    1    2    0    0  0.22016514266E+03 -0.35617493175E+03 -0.19335246113E+04  0.19842485600E+04  0.15294330000E+03 0.  0.
<mgrwt>
<rscale>  0 0.67850241E+03</rscale>
<asrwt>0</asrwt>
<pdfrwt beam="1">  1        2 0.38592319E+00 0.78047644E+03</pdfrwt>
<pdfrwt beam="2">  1       -2 0.46529186E-01 0.78047644E+03</pdfrwt>
<totfact> 0.15708285E+01</totfact>
</mgrwt>
</event>
<event>
 4    2  0.3388003E-007  0.6940991E+03  0.7818608E-02  0.1002262E+00
          2   -1    0    0  501    0  0.00000000000E+00  0.00000000000E+00  0.32446948242E+04  0.32446948242E+04  0.25500000000E-02 0. -1.
         -2   -1    0    0    0  501 -0.00000000000E+00 -0.00000000000E+00 -0.22310724696E+03  0.22310724697E+03  0.25500000000E-02 0.  1.
    8880023    1    1    2    0    0  0.21655048063E+03  0.32699698445E+02  0.33992211328E+03  0.77286520836E+03  0.65864270000E+03 0.  1.
    8880022    1    1    2    0    0 -0.21655048063E+03 -0.32699698445E+02  0.26816654639E+04  0.26949368628E+04  0.15294330000E+03 0.  0.
<mgrwt>
<rscale>  0 0.54669386E+03</rscale>
<asrwt>0</asrwt>
<pdfrwt beam="1">  1        2 0.49918385E+00 0.69409912E+03</pdfrwt>
<pdfrwt beam="2">  1       -2 0.34324190E-01 0.69409912E+03</pdfrwt>
<totfact> 0.10431078E+01</totfact>
</mgrwt>
</event>
<event>
 4    2  0.3388003E-007  0.7891870E+03  0.7818608E-02  0.9734683E-01
         -2   -1    0    0    0  501 -0.00000000000E+00  0.00000000000E+00  0.33831556155E+03  0.33831556156E+03  0.25500000000E-02 0.  1.
          2   -1    0    0  501    0  0.00000000000E+00 -0.00000000000E+00 -0.14821831554E+04  0.14821831554E+04  0.25500000000E-02 0. -1.
    8880023    1    1    2    0    0  0.38842198126E+03  0.19527985215E+03 -0.27276486170E+03  0.83499504922E+03  0.65864270000E+03 0.  1.
    8880022    1    1    2    0    0 -0.38842198126E+03 -0.19527985215E+03 -0.87110273218E+03  0.98550366778E+03  0.15294330000E+03 0.  0.
<mgrwt>
<rscale>  0 0.68988802E+03</rscale>
<asrwt>0</asrwt>
<pdfrwt beam="1">  1        2 0.22802817E+00 0.78918696E+03</pdfrwt>
<pdfrwt beam="2">  1       -2 0.52048549E-01 0.78918696E+03</pdfrwt>
<totfact> 0.46076588E+01</totfact>
</mgrwt>
</event>
<event>
 4    2  0.3388003E-007  0.7611190E+03  0.7818608E-02  0.9802219E-01
          2   -1    0    0  501    0  0.00000000000E+00  0.00000000000E+00  0.70226478715E+03  0.70226478715E+03  0.25500000000E-02 0. -1.
         -2   -1    0    0    0  501 -0.00000000000E+00 -0.00000000000E+00 -0.85613338139E+03  0.85613338139E+03  0.25500000000E-02 0.  1.
    8880023    1    1    2    0    0  0.38118049504E+03  0.13907613520E+02 -0.58711308804E+03  0.96125125535E+03  0.65864270000E+03 0.  0.
    8880022    1    1    2    0    0 -0.38118049504E+03 -0.13907613520E+02  0.43324449379E+03  0.59714691319E+03  0.15294330000E+03 0. -1.
<mgrwt>
<rscale>  0 0.65243596E+03</rscale>
<asrwt>0</asrwt>
<pdfrwt beam="1">  1        2 0.10804074E+00 0.76111904E+03</pdfrwt>
<pdfrwt beam="2">  1       -2 0.13171283E+00 0.76111904E+03</pdfrwt>
<totfact> 0.17367849E+01</totfact>
</mgrwt>
</event>
<event>
 4    2  0.3388003E-007  0.7106838E+03  0.7818608E-02  0.9955470E-01
         -2   -1    0    0    0  501 -0.00000000000E+00  0.00000000000E+00  0.24270620136E+03  0.24270620137E+03  0.25500000000E-02 0.  1.
          2   -1    0    0  501    0  0.00000000000E+00 -0.00000000000E+00 -0.11262186111E+04  0.11262186111E+04  0.25500000000E-02 0. -1.
    8880023    1    1    2    0    0  0.13458742079E+03  0.23053749644E+03 -0.46420829505E+03  0.84885856216E+03  0.65864270000E+03 0.  1.
    8880022    1    1    2    0    0 -0.13458742079E+03 -0.23053749644E+03 -0.41930411469E+03  0.52006625031E+03  0.15294330000E+03 0.  0.
<mgrwt>
<rscale>  0 0.57646654E+03</rscale>
<asrwt>0</asrwt>
<pdfrwt beam="1">  1        2 0.17326440E+00 0.71068384E+03</pdfrwt>
<pdfrwt beam="2">  1       -2 0.37339416E-01 0.71068384E+03</pdfrwt>
<totfact> 0.14417276E+02</totfact>
</mgrwt>
</event>
<event>
 4    2  0.3388003E-007  0.8780323E+03  0.7818608E-02  0.9562259E-01
          2   -1    0    0  501    0  0.00000000000E+00  0.00000000000E+00  0.13188265805E+04  0.13188265805E+04  0.25500000000E-02 0. -1.
         -2   -1    0    0    0  501 -0.00000000000E+00 -0.00000000000E+00 -0.96184118467E+03  0.96184118467E+03  0.25500000000E-02 0.  1.
    8880023    1    1    2    0    0  0.55705717116E+03  0.16376140693E+03 -0.66084294429E+03  0.10989331616E+04  0.65864270000E+03 0.  0.
    8880022    1    1    2    0    0 -0.55705717116E+03 -0.16376140693E+03  0.10178283401E+04  0.11817346036E+04  0.15294330000E+03 0.  0.
<mgrwt>
<rscale>  0 0.79845300E+03</rscale>
<asrwt>0</asrwt>
<pdfrwt beam="1">  1        2 0.20289640E+00 0.87803229E+03</pdfrwt>
<pdfrwt beam="2">  1       -2 0.14797557E+00 0.87803229E+03</pdfrwt>
<totfact> 0.50354045E+00</totfact>
</mgrwt>
</event>
<event>
 4    2  0.3388003E-007  0.1274433E+04  0.7818608E-02  0.9087959E-01
         -2   -1    0    0    0  501 -0.00000000000E+00  0.00000000000E+00  0.13132239233E+04  0.13132239233E+04  0.25500000000E-02 0.  1.
          2   -1    0    0  501    0  0.00000000000E+00 -0.00000000000E+00 -0.15441167134E+04  0.15441167134E+04  0.25500000000E-02 0. -1.
    8880023    1    1    2    0    0  0.79973787868E+03 -0.74215115336E+03  0.66485987826E+03  0.14374344761E+04  0.65864270000E+03 0.  0.
    8880022    1    1    2    0    0 -0.79973787868E+03  0.74215115336E+03 -0.89575266841E+03  0.14199061606E+04  0.15294330000E+03 0.  0.
<mgrwt>
<rscale>  0 0.12288655E+04</rscale>
<asrwt>0</asrwt>
<pdfrwt beam="1">  1        2 0.23755642E+00 0.12744329E+04</pdfrwt>
<pdfrwt beam="2">  1       -2 0.20203445E+00 0.12744329E+04</pdfrwt>
<totfact> 0.14877378E+00</totfact>
</mgrwt>
</event>
<event>
 4    2  0.3388003E-007  0.7019686E+03  0.7818608E-02  0.9989131E-01
         -2   -1    0    0    0  501 -0.00000000000E+00  0.00000000000E+00  0.49228585498E+03  0.49228585499E+03  0.25500000000E-02 0.  1.
          2   -1    0    0  501    0  0.00000000000E+00 -0.00000000000E+00 -0.87627998555E+03  0.87627998555E+03  0.25500000000E-02 0. -1.
    8880023    1    1    2    0    0 -0.23428452564E+03  0.63721680252E+02  0.18966557446E+03  0.72714023949E+03  0.65864270000E+03 0.  0.
    8880022    1    1    2    0    0  0.23428452564E+03 -0.63721680252E+02 -0.57365970502E+03  0.64142560104E+03  0.15294330000E+03 0.  0.
<mgrwt>
<rscale>  0 0.56129413E+03</rscale>
<asrwt>0</asrwt>
<pdfrwt beam="1">  1        2 0.13481231E+00 0.70196859E+03</pdfrwt>
<pdfrwt beam="2">  1       -2 0.75736286E-01 0.70196859E+03</pdfrwt>
<totfact> 0.48436364E+01</totfact>
</mgrwt>
</event>
<event>
 4    2  0.3388003E-007  0.1397980E+04  0.7818608E-02  0.8985254E-01
         -2   -1    0    0    0  501 -0.00000000000E+00  0.00000000000E+00  0.70380231680E+03  0.70380231680E+03  0.25500000000E-02 0.  1.
          2   -1    0    0  501    0  0.00000000000E+00 -0.00000000000E+00 -0.40215819935E+04  0.40215819935E+04  0.25500000000E-02 0. -1.
    8880023    1    1    2    0    0  0.12071913981E+04  0.25144927509E+03 -0.31818569681E+04  0.34754225328E+04  0.65864270000E+03 0. -1.
    8880022    1    1    2    0    0 -0.12071913981E+04 -0.25144927509E+03 -0.13592270861E+03  0.12499617775E+04  0.15294330000E+03 0.  0.
<mgrwt>
<rscale>  0 0.13573884E+04</rscale>
<asrwt>0</asrwt>
<pdfrwt beam="1">  1        2 0.61870491E+00 0.13979800E+04</pdfrwt>
<pdfrwt beam="2">  1       -2 0.10827728E+00 0.13979800E+04</pdfrwt>
<totfact> 0.22036618E-01</totfact>
</mgrwt>
</event>
<event>
 4    2  0.3388003E-007  0.7353053E+03  0.7818608E-02  0.9873840E-01
         -2   -1    0    0    0  501 -0.00000000000E+00  0.00000000000E+00  0.93501572502E+03  0.93501572502E+03  0.25500000000E-02 0.  1.
          2   -1    0    0  501    0  0.00000000000E+00 -0.00000000000E+00 -0.83124795287E+03  0.83124795287E+03  0.25500000000E-02 0. -1.
    8880023    1    1    2    0    0  0.26712487630E+03 -0.18843550286E+03  0.73466776884E+03  0.10394280038E+04  0.65864270000E+03 0.  0.
    8880022    1    1    2    0    0 -0.26712487630E+03  0.18843550286E+03 -0.63089999669E+03  0.72683567408E+03  0.15294330000E+03 0.  0.
<mgrwt>
<rscale>  0 0.61546050E+03</rscale>
<asrwt>0</asrwt>
<pdfrwt beam="1">  1        2 0.12788430E+00 0.73530527E+03</pdfrwt>
<pdfrwt beam="2">  1       -2 0.14384857E+00 0.73530527E+03</pdfrwt>
<totfact> 0.11141873E+01</totfact>
</mgrwt>
</event>
<event>
 4    2  0.3388003E-007  0.7632631E+03  0.7818608E-02  0.9796732E-01
         -2   -1    0    0    0  501 -0.00000000000E+00  0.00000000000E+00  0.48334606636E+03  0.48334606637E+03  0.25500000000E-02 0.  1.
          2   -1    0    0  501    0  0.00000000000E+00 -0.00000000000E+00 -0.16518535603E+04  0.16518535603E+04  0.25500000000E-02 0. -1.
    8880023    1    1    2    0    0 -0.15561813764E+03  0.35290703500E+03  0.12799811075E+03  0.77392125099E+03  0.65864270000E+03 0.  1.
    8880022    1    1    2    0    0  0.15561813764E+03 -0.35290703500E+03 -0.12965056047E+04  0.13612783757E+04  0.15294330000E+03 0.  0.
<mgrwt>
<rscale>  0 0.65538233E+03</rscale>
<asrwt>0</asrwt>
<pdfrwt beam="1">  1        2 0.25413132E+00 0.76326312E+03</pdfrwt>
<pdfrwt beam="2">  1       -2 0.74360934E-01 0.76326312E+03</pdfrwt>
<totfact> 0.17405937E+01</totfact>
</mgrwt>
</event>
<event>
 4    2  0.3388003E-007  0.7844339E+03  0.7818608E-02  0.9745523E-01
          2   -1    0    0  501    0  0.00000000000E+00  0.00000000000E+00  0.46876607168E+04  0.46876607168E+04  0.25500000000E-02 0. -1.
         -2   -1    0    0    0  501 -0.00000000000E+00 -0.00000000000E+00 -0.11804641246E+03  0.11804641249E+03  0.25500000000E-02 0.  1.
    8880023    1    1    2    0    0 -0.48229735179E+02  0.42332044694E+03  0.14073067118E+04  0.16111637706E+04  0.65864270000E+03 0.  1.
    8880022    1    1    2    0    0  0.48229735179E+02 -0.42332044694E+03  0.31623075925E+04  0.31945433588E+04  0.15294330000E+03 0.  0.
<mgrwt>
<rscale>  0 0.68369871E+03</rscale>
<asrwt>0</asrwt>
<pdfrwt beam="1">  1        2 0.72117867E+00 0.78443388E+03</pdfrwt>
<pdfrwt beam="2">  1       -2 0.18160984E-01 0.78443388E+03</pdfrwt>
<totfact> 0.22702121E+00</totfact>
</mgrwt>
</event>
<event>
 4    2  0.3388003E-007  0.7189844E+03  0.7818608E-02  0.9926038E-01
         -2   -1    0    0    0  501 -0.00000000000E+00  0.00000000000E+00  0.23726495198E+04  0.23726495198E+04  0.25500000000E-02 0.  1.
          2   -1    0    0  501    0  0.00000000000E+00 -0.00000000000E+00 -0.20972406195E+03  0.20972406197E+03  0.25500000000E-02 0. -1.
    8880023    1    1    2    0    0 -0.44781209782E+02  0.28482094483E+03  0.21373033801E+04  0.22549954040E+04  0.65864270000E+03 0.  1.
    8880022    1    1    2    0    0  0.44781209782E+02 -0.28482094483E+03  0.25622077725E+02  0.32737817772E+03  0.15294330000E+03 0.  0.
<mgrwt>
<rscale>  0 0.59015824E+03</rscale>
<asrwt>0</asrwt>
<pdfrwt beam="1">  1        2 0.32265239E-01 0.71898438E+03</pdfrwt>
<pdfrwt beam="2">  1       -2 0.36502302E+00 0.71898438E+03</pdfrwt>
<totfact> 0.21695197E+00</totfact>
</mgrwt>
</event>
<event>
 4    2  0.3388003E-007  0.7643616E+03  0.7818608E-02  0.9793944E-01
          2   -1    0    0  501    0  0.00000000000E+00  0.00000000000E+00  0.20121639811E+04  0.20121639811E+04  0.25500000000E-02 0. -1.
         -2   -1    0    0    0  501 -0.00000000000E+00 -0.00000000000E+00 -0.57662308910E+03  0.57662308911E+03  0.25500000000E-02 0.  1.
    8880023    1    1    2    0    0  0.25253968732E+03 -0.29438440242E+03 -0.28703041299E+03  0.81647727115E+03  0.65864270000E+03 0.  1.
    8880022    1    1    2    0    0 -0.25253968732E+03  0.29438440242E+03  0.17225713050E+04  0.17723097991E+04  0.15294330000E+03 0.  0.
<mgrwt>
<rscale>  0 0.65688566E+03</rscale>
<asrwt>0</asrwt>
<pdfrwt beam="1">  1        2 0.30956369E+00 0.76436161E+03</pdfrwt>
<pdfrwt beam="2">  1       -2 0.88711243E-01 0.76436161E+03</pdfrwt>
<totfact> 0.74288218E+00</totfact>
</mgrwt>
</event>
<event>
 4    2  0.3388003E-007  0.7229001E+03  0.7818608E-02  0.9912893E-01
         -2   -1    0    0    0  501 -0.00000000000E+00  0.00000000000E+00  0.59609529798E+03  0.59609529798E+03  0.25500000000E-02 0.  1.
          2   -1    0    0  501    0  0.00000000000E+00 -0.00000000000E+00 -0.53427789050E+03  0.53427789051E+03  0.25500000000E-02 0. -1.
    8880023    1    1    2    0    0 -0.13814922423E+03 -0.26398695941E+03  0.22597142667E+03  0.75739528308E+03  0.65864270000E+03 0.  1.
    8880022    1    1    2    0    0  0.13814922423E+03  0.26398695941E+03 -0.16415401919E+03  0.37297790541E+03  0.15294330000E+03 0.  0.
<mgrwt>
<rscale>  0 0.59640510E+03</rscale>
<asrwt>0</asrwt>
<pdfrwt beam="1">  1        2 0.82196599E-01 0.72290008E+03</pdfrwt>
<pdfrwt beam="2">  1       -2 0.91706969E-01 0.72290008E+03</pdfrwt>
<totfact> 0.58431626E+01</totfact>
</mgrwt>
</event>
<event>
 4    2  0.3388003E-007  0.8657211E+03  0.7818608E-02  0.9583467E-01
         -2   -1    0    0    0  501 -0.00000000000E+00  0.00000000000E+00  0.49309546535E+03  0.49309546536E+03  0.25500000000E-02 0.  1.
          2   -1    0    0  501    0  0.00000000000E+00 -0.00000000000E+00 -0.15888665274E+04  0.15888665274E+04  0.25500000000E-02 0. -1.
    8880023    1    1    2    0    0  0.31456334352E+03 -0.46552420952E+03 -0.28510143394E+02  0.86619046478E+03  0.65864270000E+03 0.  1.
    8880022    1    1    2    0    0 -0.31456334352E+03  0.46552420952E+03 -0.10672609187E+04  0.12157715280E+04  0.15294330000E+03 0.  0.
<mgrwt>
<rscale>  0 0.78400208E+03</rscale>
<asrwt>0</asrwt>
<pdfrwt beam="1">  1        2 0.24444100E+00 0.86572114E+03</pdfrwt>
<pdfrwt beam="2">  1       -2 0.75860842E-01 0.86572114E+03</pdfrwt>
<totfact> 0.17820580E+01</totfact>
</mgrwt>
</event>
<event>
 4    2  0.3388003E-007  0.7696220E+03  0.7818608E-02  0.9780805E-01
         -2   -1    0    0    0  501 -0.00000000000E+00  0.00000000000E+00  0.70990060239E+03  0.70990060240E+03  0.25500000000E-02 0.  1.
          2   -1    0    0  501    0  0.00000000000E+00 -0.00000000000E+00 -0.14255622623E+04  0.14255622623E+04  0.25500000000E-02 0. -1.
    8880023    1    1    2    0    0 -0.23834287055E+03 -0.31890508800E+03  0.45186976952E+03  0.89247088130E+03  0.65864270000E+03 0.  1.
    8880022    1    1    2    0    0  0.23834287055E+03  0.31890508800E+03 -0.11675314294E+04  0.12429919834E+04  0.15294330000E+03 0.  0.
<mgrwt>
<rscale>  0 0.66402895E+03</rscale>
<asrwt>0</asrwt>
<pdfrwt beam="1">  1        2 0.21931727E+00 0.76962198E+03</pdfrwt>
<pdfrwt beam="2">  1       -2 0.10921548E+00 0.76962198E+03</pdfrwt>
<totfact> 0.95476782E+00</totfact>
</mgrwt>
</event>
<event>
 4    2  0.3388003E-007  0.7542944E+03  0.7818608E-02  0.9820109E-01
         -2   -1    0    0    0  501 -0.00000000000E+00  0.00000000000E+00  0.97882411217E+03  0.97882411217E+03  0.25500000000E-02 0.  1.
          2   -1    0    0  501    0  0.00000000000E+00 -0.00000000000E+00 -0.55136459344E+03  0.55136459344E+03  0.25500000000E-02 0. -1.
    8880023    1    1    2    0    0  0.33818753544E+03  0.14414926592E+03  0.71478531110E+03  0.10391718179E+04  0.65864270000E+03 0.  1.
    8880022    1    1    2    0    0 -0.33818753544E+03 -0.14414926592E+03 -0.28732579237E+03  0.49101688766E+03  0.15294330000E+03 0.  0.
<mgrwt>
<rscale>  0 0.64294455E+03</rscale>
<asrwt>0</asrwt>
<pdfrwt beam="1">  1        2 0.84825323E-01 0.75429439E+03</pdfrwt>
<pdfrwt beam="2">  1       -2 0.15058832E+00 0.75429439E+03</pdfrwt>
<totfact> 0.16498763E+01</totfact>
</mgrwt>
</event>
<event>
 4    2  0.3388003E-007  0.7057557E+03  0.7818608E-02  0.9974113E-01
         -2   -1    0    0    0  501 -0.00000000000E+00  0.00000000000E+00  0.21534576247E+04  0.21534576247E+04  0.25500000000E-02 0.  1.
          2   -1    0    0  501    0  0.00000000000E+00 -0.00000000000E+00 -0.42598479175E+03  0.42598479176E+03  0.25500000000E-02 0. -1.
    8880023    1    1    2    0    0  0.20948520042E+03 -0.14281771059E+03  0.20341787913E+04  0.21531313264E+04  0.65864270000E+03 0.  0.
    8880022    1    1    2    0    0 -0.20948520042E+03  0.14281771059E+03 -0.30670595829E+03  0.42631109008E+03  0.15294330000E+03 0.  0.
<mgrwt>
<rscale>  0 0.56800060E+03</rscale>
<asrwt>0</asrwt>
<pdfrwt beam="1">  1        2 0.65536122E-01 0.70575573E+03</pdfrwt>
<pdfrwt beam="2">  1       -2 0.33130117E+00 0.70575573E+03</pdfrwt>
<totfact> 0.15942560E+00</totfact>
</mgrwt>
</event>
<event>
 4    2  0.3388003E-007  0.1262011E+04  0.7818608E-02  0.9099080E-01
         -2   -1    0    0    0  501 -0.00000000000E+00  0.00000000000E+00  0.11750676013E+04  0.11750676013E+04  0.25500000000E-02 0.  1.
          2   -1    0    0  501    0  0.00000000000E+00 -0.00000000000E+00 -0.35606691116E+04  0.35606691116E+04  0.25500000000E-02 0. -1.
    8880023    1    1    2    0    0 -0.68622533584E+03  0.82943149571E+03  0.71467345079E+03  0.14503207111E+04  0.65864270000E+03 0.  0.
    8880022    1    1    2    0    0  0.68622533584E+03 -0.82943149571E+03 -0.31002749611E+04  0.32854160018E+04  0.15294330000E+03 0.  0.
<mgrwt>
<rscale>  0 0.12158674E+04</rscale>
<asrwt>0</asrwt>
<pdfrwt beam="1">  1        2 0.54779524E+00 0.12620111E+04</pdfrwt>
<pdfrwt beam="2">  1       -2 0.18077963E+00 0.12620111E+04</pdfrwt>
<totfact> 0.12983147E-01</totfact>
</mgrwt>
</event>
<event>
 4    2  0.3388003E-007  0.9331297E+03  0.7818608E-02  0.9474814E-01
         -2   -1    0    0    0  501 -0.00000000000E+00  0.00000000000E+00  0.14978809456E+04  0.14978809456E+04  0.25500000000E-02 0.  1.
          2   -1    0    0  501    0  0.00000000000E+00 -0.00000000000E+00 -0.98025181854E+03  0.98025181854E+03  0.25500000000E-02 0. -1.
    8880023    1    1    2    0    0 -0.83449944756E+01  0.66094721604E+03  0.11971717542E+04  0.15178772271E+04  0.65864270000E+03 0.  0.
    8880022    1    1    2    0    0  0.83449944756E+01 -0.66094721604E+03 -0.67954262712E+03  0.96025553703E+03  0.15294330000E+03 0.  0.
<mgrwt>
<rscale>  0 0.86166433E+03</rscale>
<asrwt>0</asrwt>
<pdfrwt beam="1">  1        2 0.15080797E+00 0.93312972E+03</pdfrwt>
<pdfrwt beam="2">  1       -2 0.23044322E+00 0.93312972E+03</pdfrwt>
<totfact> 0.22101238E+00</totfact>
</mgrwt>
</event>
<event>
 4    2  0.3388003E-007  0.7799913E+03  0.7818608E-02  0.9755857E-01
         -2   -1    0    0    0  501 -0.00000000000E+00  0.00000000000E+00  0.27263168958E+03  0.27263168959E+03  0.25500000000E-02 0.  1.
          2   -1    0    0  501    0  0.00000000000E+00 -0.00000000000E+00 -0.16080443540E+04  0.16080443540E+04  0.25500000000E-02 0. -1.
    8880023    1    1    2    0    0 -0.29345204761E+03 -0.29742577759E+03 -0.47831176619E+03  0.91496915214E+03  0.65864270000E+03 0.  1.
    8880022    1    1    2    0    0  0.29345204761E+03  0.29742577759E+03 -0.85710089821E+03  0.96570689143E+03  0.15294330000E+03 0.  0.
<mgrwt>
<rscale>  0 0.67786256E+03</rscale>
<asrwt>0</asrwt>
<pdfrwt beam="1">  1        2 0.24739143E+00 0.77999128E+03</pdfrwt>
<pdfrwt beam="2">  1       -2 0.41943338E-01 0.77999128E+03</pdfrwt>
<totfact> 0.60600585E+01</totfact>
</mgrwt>
</event>
<event>
 4    2  0.3388003E-007  0.1227079E+04  0.7818608E-02  0.9131238E-01
          2   -1    0    0  501    0  0.00000000000E+00  0.00000000000E+00  0.14555586503E+04  0.14555586503E+04  0.25500000000E-02 0. -1.
         -2   -1    0    0    0  501 -0.00000000000E+00 -0.00000000000E+00 -0.13118829994E+04  0.13118829994E+04  0.25500000000E-02 0.  1.
    8880023    1    1    2    0    0 -0.36296215251E+03  0.96962465976E+03 -0.70927489683E+03  0.14173195090E+04  0.65864270000E+03 0.  0.
    8880022    1    1    2    0    0  0.36296215251E+03 -0.96962465976E+03  0.85295054771E+03  0.13501221407E+04  0.15294330000E+03 0.  0.
<mgrwt>
<rscale>  0 0.11792242E+04</rscale>
<asrwt>0</asrwt>
<pdfrwt beam="1">  1        2 0.22393210E+00 0.12270793E+04</pdfrwt>
<pdfrwt beam="2">  1       -2 0.20182815E+00 0.12270793E+04</pdfrwt>
<totfact> 0.16835100E+00</totfact>
</mgrwt>
</event>
<event>
 4    2  0.3388003E-007  0.8354169E+03  0.7818608E-02  0.9638883E-01
         -2   -1    0    0    0  501 -0.00000000000E+00  0.00000000000E+00  0.44688827740E+03  0.44688827741E+03  0.25500000000E-02 0.  1.
          2   -1    0    0  501    0  0.00000000000E+00 -0.00000000000E+00 -0.24679978538E+04  0.24679978538E+04  0.25500000000E-02 0. -1.
    8880023    1    1    2    0    0  0.45219007275E+03 -0.24420332251E+03 -0.12048007770E+02  0.83550373152E+03  0.65864270000E+03 0.  1.
    8880022    1    1    2    0    0 -0.45219007275E+03  0.24420332251E+03 -0.20090615686E+04  0.20793823997E+04  0.15294330000E+03 0.  0.
<mgrwt>
<rscale>  0 0.74775217E+03</rscale>
<asrwt>0</asrwt>
<pdfrwt beam="1">  1        2 0.37969197E+00 0.83541686E+03</pdfrwt>
<pdfrwt beam="2">  1       -2 0.68752044E-01 0.83541686E+03</pdfrwt>
<totfact> 0.72619381E+00</totfact>
</mgrwt>
</event>
<event>
 4    2  0.3388003E-007  0.6968899E+03  0.7818608E-02  0.1001036E+00
         -2   -1    0    0    0  501 -0.00000000000E+00  0.00000000000E+00  0.27049541220E+03  0.27049541221E+03  0.25500000000E-02 0.  1.
          2   -1    0    0  501    0  0.00000000000E+00 -0.00000000000E+00 -0.17722882177E+04  0.17722882177E+04  0.25500000000E-02 0. -1.
    8880023    1    1    2    0    0 -0.19717221551E+02  0.22684025679E+03 -0.21825938241E+03  0.73026887870E+03  0.65864270000E+03 0.  1.
    8880022    1    1    2    0    0  0.19717221551E+02 -0.22684025679E+03 -0.12835334231E+04  0.13125147512E+04  0.15294330000E+03 0.  0.
<mgrwt>
<rscale>  0 0.55198463E+03</rscale>
<asrwt>0</asrwt>
<pdfrwt beam="1">  1        2 0.27265972E+00 0.69688986E+03</pdfrwt>
<pdfrwt beam="2">  1       -2 0.41614680E-01 0.69688986E+03</pdfrwt>
<totfact> 0.50494346E+01</totfact>
</mgrwt>
</event>
<event>
 4    2  0.3388003E-007  0.7250392E+03  0.7818608E-02  0.9905890E-01
         -2   -1    0    0    0  501 -0.00000000000E+00  0.00000000000E+00  0.62047467241E+03  0.62047467242E+03  0.25500000000E-02 0.  1.
          2   -1    0    0  501    0  0.00000000000E+00 -0.00000000000E+00 -0.82902117351E+03  0.82902117351E+03  0.25500000000E-02 0. -1.
    8880023    1    1    2    0    0  0.12493794353E+02 -0.30284568777E+03  0.34280785061E+03  0.80199690411E+03  0.65864270000E+03 0.  1.
    8880022    1    1    2    0    0 -0.12493794353E+02  0.30284568777E+03 -0.55135435171E+03  0.64749894182E+03  0.15294330000E+03 0.  0.
<mgrwt>
<rscale>  0 0.59976686E+03</rscale>
<asrwt>0</asrwt>
<pdfrwt beam="1">  1        2 0.12754172E+00 0.72503918E+03</pdfrwt>
<pdfrwt beam="2">  1       -2 0.95457641E-01 0.72503918E+03</pdfrwt>
<totfact> 0.30766877E+01</totfact>
</mgrwt>
</event>
<event>
 4    2  0.3388003E-007  0.7383257E+03  0.7818608E-02  0.9864851E-01
         -2   -1    0    0    0  501 -0.00000000000E+00  0.00000000000E+00  0.29278987671E+03  0.29278987673E+03  0.25500000000E-02 0.  1.
          2   -1    0    0  501    0  0.00000000000E+00 -0.00000000000E+00 -0.13438207308E+04  0.13438207308E+04  0.25500000000E-02 0. -1.
    8880023    1    1    2    0    0 -0.20597577091E+03  0.26246645638E+03 -0.29288268082E+03  0.79429536692E+03  0.65864270000E+03 0.  1.
    8880022    1    1    2    0    0  0.20597577091E+03 -0.26246645638E+03 -0.75814817330E+03  0.84231524064E+03  0.15294330000E+03 0.  0.
<mgrwt>
<rscale>  0 0.61995403E+03</rscale>
<asrwt>0</asrwt>
<pdfrwt beam="1">  1        2 0.20674165E+00 0.73832572E+03</pdfrwt>
<pdfrwt beam="2">  1       -2 0.45044597E-01 0.73832572E+03</pdfrwt>
<totfact> 0.74256216E+01</totfact>
</mgrwt>
</event>
<event>
 4    2  0.3388003E-007  0.6702400E+03  0.7818608E-02  0.1015491E+00
          2   -1    0    0  501    0  0.00000000000E+00  0.00000000000E+00  0.11846790915E+04  0.11846790915E+04  0.25500000000E-02 0. -1.
         -2   -1    0    0    0  501 -0.00000000000E+00 -0.00000000000E+00 -0.17757058643E+03  0.17757058645E+03  0.25500000000E-02 0.  1.
    8880023    1    1    2    0    0 -0.12039627877E+03  0.30268894714E+02  0.55900034534E+03  0.87275601532E+03  0.65864270000E+03 0.  0.
    8880022    1    1    2    0    0  0.12039627877E+03 -0.30268894714E+02  0.44810815974E+03  0.48949366265E+03  0.15294330000E+03 0.  1.
<mgrwt>
<rscale>  0 0.49349312E+03</rscale>
<asrwt>0</asrwt>
<pdfrwt beam="1">  1        2 0.18225832E+00 0.67024001E+03</pdfrwt>
<pdfrwt beam="2">  1       -2 0.27318552E-01 0.67024001E+03</pdfrwt>
<totfact> 0.23955518E+02</totfact>
</mgrwt>
</event>
<event>
 4    2  0.3388003E-007  0.7605814E+03  0.7818608E-02  0.9803605E-01
          2   -1    0    0  501    0  0.00000000000E+00  0.00000000000E+00  0.56433640785E+03  0.56433640785E+03  0.25500000000E-02 0. -1.
         -2   -1    0    0    0  501 -0.00000000000E+00 -0.00000000000E+00 -0.83941125815E+03  0.83941125815E+03  0.25500000000E-02 0.  1.
    8880023    1    1    2    0    0 -0.20186122096E+03 -0.32237531512E+03 -0.52447991815E+03  0.92388483435E+03  0.65864270000E+03 0.  1.
    8880022    1    1    2    0    0  0.20186122096E+03  0.32237531512E+03  0.24940506785E+03  0.47986283166E+03  0.15294330000E+03 0.  0.
<mgrwt>
<rscale>  0 0.65169451E+03</rscale>
<asrwt>0</asrwt>
<pdfrwt beam="1">  1        2 0.86820985E-01 0.76058136E+03</pdfrwt>
<pdfrwt beam="2">  1       -2 0.12914019E+00 0.76058136E+03</pdfrwt>
<totfact> 0.23865665E+01</totfact>
</mgrwt>
</event>
<event>
 4    2  0.3388003E-007  0.7002889E+03  0.7818608E-02  0.9996005E-01
          2   -1    0    0  501    0  0.00000000000E+00  0.00000000000E+00  0.82390486979E+03  0.82390486979E+03  0.25500000000E-02 0. -1.
         -2   -1    0    0    0  501 -0.00000000000E+00 -0.00000000000E+00 -0.48768643870E+03  0.48768643871E+03  0.25500000000E-02 0.  1.
    8880023    1    1    2    0    0 -0.23011234682E+03  0.60354497797E+02 -0.17993265024E+03  0.72303549183E+03  0.65864270000E+03 0.  1.
    8880022    1    1    2    0    0  0.23011234682E+03 -0.60354497797E+02  0.51615108133E+03  0.58855581667E+03  0.15294330000E+03 0.  0.
<mgrwt>
<rscale>  0 0.55825766E+03</rscale>
<asrwt>0</asrwt>
<pdfrwt beam="1">  1        2 0.12675459E+00 0.70028891E+03</pdfrwt>
<pdfrwt beam="2">  1       -2 0.75028684E-01 0.70028891E+03</pdfrwt>
<totfact> 0.53773412E+01</totfact>
</mgrwt>
</event>
<event>
 4    2  0.3388003E-007  0.8578974E+03  0.7818608E-02  0.9597315E-01
         -2   -1    0    0    0  501 -0.00000000000E+00  0.00000000000E+00  0.27072106519E+03  0.27072106520E+03  0.25500000000E-02 0.  1.
          2   -1    0    0  501    0  0.00000000000E+00 -0.00000000000E+00 -0.51646353109E+04  0.51646353109E+04  0.25500000000E-02 0. -1.
    8880023    1    1    2    0    0  0.11038092542E+03 -0.53851075301E+03 -0.47763504585E+04  0.48527839112E+04  0.65864270000E+03 0. -1.
    8880022    1    1    2    0    0 -0.11038092542E+03  0.53851075301E+03 -0.11756378720E+03  0.58257246492E+03  0.15294330000E+03 0.  0.
<mgrwt>
<rscale>  0 0.77474178E+03</rscale>
<asrwt>0</asrwt>
<pdfrwt beam="1">  1        2 0.79455920E+00 0.85789742E+03</pdfrwt>
<pdfrwt beam="2">  1       -2 0.41649399E-01 0.85789742E+03</pdfrwt>
<totfact> 0.13106384E-01</totfact>
</mgrwt>
</event>
<event>
 4    2  0.3388003E-007  0.7473314E+03  0.7818608E-02  0.9839084E-01
         -2   -1    0    0    0  501 -0.00000000000E+00  0.00000000000E+00  0.36690258006E+03  0.36690258007E+03  0.25500000000E-02 0.  1.
          2   -1    0    0  501    0  0.00000000000E+00 -0.00000000000E+00 -0.31119699705E+04  0.31119699705E+04  0.25500000000E-02 0. -1.
    8880023    1    1    2    0    0  0.20932825578E+03  0.28438644813E+03 -0.41957405844E+02  0.74850825027E+03  0.65864270000E+03 0.  0.
    8880022    1    1    2    0    0 -0.20932825578E+03 -0.28438644813E+03 -0.27031099846E+04  0.27303643003E+04  0.15294330000E+03 0.  0.
<mgrwt>
<rscale>  0 0.63306605E+03</rscale>
<asrwt>0</asrwt>
<pdfrwt beam="1">  1        2 0.47876459E+00 0.74733137E+03</pdfrwt>
<pdfrwt beam="2">  1       -2 0.56446553E-01 0.74733137E+03</pdfrwt>
<totfact> 0.46619341E+00</totfact>
</mgrwt>
</event>
<event>
 4    2  0.3388003E-007  0.7523958E+03  0.7818608E-02  0.9825207E-01
          2   -1    0    0  501    0  0.00000000000E+00  0.00000000000E+00  0.18134458843E+04  0.18134458843E+04  0.25500000000E-02 0. -1.
         -2   -1    0    0    0  501 -0.00000000000E+00 -0.00000000000E+00 -0.49544928453E+03  0.49544928453E+03  0.25500000000E-02 0.  1.
    8880023    1    1    2    0    0  0.35686196187E+03  0.70276476523E+02 -0.16840874578E+03  0.77101294081E+03  0.65864270000E+03 0.  1.
    8880022    1    1    2    0    0 -0.35686196187E+03 -0.70276476523E+02  0.14864053455E+04  0.15378822280E+04  0.15294330000E+03 0.  0.
<mgrwt>
<rscale>  0 0.64027153E+03</rscale>
<asrwt>0</asrwt>
<pdfrwt beam="1">  1        2 0.27899168E+00 0.75239581E+03</pdfrwt>
<pdfrwt beam="2">  1       -2 0.76222966E-01 0.75239581E+03</pdfrwt>
<totfact> 0.13462245E+01</totfact>
</mgrwt>
</event>
<event>
 4    2  0.3388003E-007  0.8082121E+03  0.7818608E-02  0.9693313E-01
          2   -1    0    0  501    0  0.00000000000E+00  0.00000000000E+00  0.24456987377E+04  0.24456987377E+04  0.25500000000E-02 0. -1.
         -2   -1    0    0    0  501 -0.00000000000E+00 -0.00000000000E+00 -0.30569949199E+03  0.30569949200E+03  0.25500000000E-02 0.  1.
    8880023    1    1    2    0    0  0.49094041806E+00 -0.46839759936E+03  0.32568524844E+03  0.87136538801E+03  0.65864270000E+03 0.  0.
    8880022    1    1    2    0    0 -0.49094041806E+00  0.46839759936E+03  0.18143139973E+04  0.18800328417E+04  0.15294330000E+03 0.  0.
<mgrwt>
<rscale>  0 0.71416317E+03</rscale>
<asrwt>0</asrwt>
<pdfrwt beam="1">  1        2 0.37626133E+00 0.80821208E+03</pdfrwt>
<pdfrwt beam="2">  1       -2 0.47030692E-01 0.80821208E+03</pdfrwt>
<totfact> 0.16617677E+01</totfact>
</mgrwt>
</event>
<event>
 4    2  0.3388003E-007  0.9746912E+03  0.7818608E-02  0.9415445E-01
         -2   -1    0    0    0  501 -0.00000000000E+00  0.00000000000E+00  0.15322104554E+04  0.15322104554E+04  0.25500000000E-02 0.  1.
          2   -1    0    0  501    0  0.00000000000E+00 -0.00000000000E+00 -0.20877922621E+04  0.20877922621E+04  0.25500000000E-02 0. -1.
    8880023    1    1    2    0    0 -0.66352535360E+03  0.27558464232E+03 -0.18731102435E+04  0.21115314302E+04  0.65864270000E+03 0. -1.
    8880022    1    1    2    0    0  0.66352535360E+03 -0.27558464232E+03  0.13175284368E+04  0.15084712874E+04  0.15294330000E+03 0.  0.
<mgrwt>
<rscale>  0 0.90815449E+03</rscale>
<asrwt>0</asrwt>
<pdfrwt beam="1">  1        2 0.32119881E+00 0.97469123E+03</pdfrwt>
<pdfrwt beam="2">  1       -2 0.23572469E+00 0.97469123E+03</pdfrwt>
<totfact> 0.47340757E-01</totfact>
</mgrwt>
</event>
<event>
 4    2  0.3388003E-007  0.6681934E+03  0.7818608E-02  0.1016992E+00
         -2   -1    0    0    0  501 -0.00000000000E+00  0.00000000000E+00  0.23262306915E+03  0.23262306917E+03  0.25500000000E-02 0.  1.
          2   -1    0    0  501    0  0.00000000000E+00 -0.00000000000E+00 -0.11422911632E+04  0.11422911632E+04  0.25500000000E-02 0. -1.
    8880023    1    1    2    0    0 -0.11273505771E+02  0.11200528256E+03 -0.29289731604E+03  0.72956926968E+03  0.65864270000E+03 0.  1.
    8880022    1    1    2    0    0  0.11273505771E+02 -0.11200528256E+03 -0.61677077804E+03  0.64534496272E+03  0.15294330000E+03 0.  0.
<mgrwt>
<rscale>  0 0.48787750E+03</rscale>
<asrwt>0</asrwt>
<pdfrwt beam="1">  1        2 0.17573710E+00 0.66819345E+03</pdfrwt>
<pdfrwt beam="2">  1       -2 0.35788165E-01 0.66819345E+03</pdfrwt>
<totfact> 0.15343206E+02</totfact>
</mgrwt>
</event>
<event>
 4    2  0.3388003E-007  0.6807107E+03  0.7818608E-02  0.1008924E+00
          2   -1    0    0  501    0  0.00000000000E+00  0.00000000000E+00  0.69365339473E+03  0.69365339473E+03  0.25500000000E-02 0. -1.
         -2   -1    0    0    0  501 -0.00000000000E+00 -0.00000000000E+00 -0.32883608888E+03  0.32883608889E+03  0.25500000000E-02 0.  1.
    8880023    1    1    2    0    0 -0.16625501272E+03 -0.43773932218E+02  0.12865776364E+03  0.69276252266E+03  0.65864270000E+03 0.  1.
    8880022    1    1    2    0    0  0.16625501272E+03  0.43773932218E+02  0.23615954220E+03  0.32972696096E+03  0.15294330000E+03 0. -1.
<mgrwt>
<rscale>  0 0.51904342E+03</rscale>
<asrwt>0</asrwt>
<pdfrwt beam="1">  1        2 0.10671591E+00 0.68071073E+03</pdfrwt>
<pdfrwt beam="2">  1       -2 0.50590168E-01 0.68071073E+03</pdfrwt>
<totfact> 0.15533756E+02</totfact>
</mgrwt>
</event>
<event>
 4    2  0.3388003E-007  0.6873776E+03  0.7818608E-02  0.1005425E+00
          2   -1    0    0  501    0  0.00000000000E+00  0.00000000000E+00  0.45486916164E+04  0.45486916164E+04  0.25500000000E-02 0. -1.
         -2   -1    0    0    0  501 -0.00000000000E+00 -0.00000000000E+00 -0.62411432978E+02  0.62411433030E+02  0.25500000000E-02 0.  1.
    8880023    1    1    2    0    0  0.68025758146E+02  0.18452714712E+03  0.20511705482E+04  0.21632819039E+04  0.65864270000E+03 0.  1.
    8880022    1    1    2    0    0 -0.68025758146E+02 -0.18452714712E+03  0.24351096352E+04  0.24478211455E+04  0.15294330000E+03 0.  0.
<mgrwt>
<rscale>  0 0.53334257E+03</rscale>
<asrwt>0</asrwt>
<pdfrwt beam="1">  1        2 0.69979900E+00 0.68737761E+03</pdfrwt>
<pdfrwt beam="2">  1       -2 0.96017549E-02 0.68737761E+03</pdfrwt>
<totfact> 0.92973095E+00</totfact>
</mgrwt>
</event>
<event>
 4    2  0.3388003E-007  0.6736916E+03  0.7818608E-02  0.1013144E+00
         -2   -1    0    0    0  501 -0.00000000000E+00  0.00000000000E+00  0.10533929361E+03  0.10533929364E+03  0.25500000000E-02 0.  1.
          2   -1    0    0  501    0  0.00000000000E+00 -0.00000000000E+00 -0.33432987943E+04  0.33432987943E+04  0.25500000000E-02 0. -1.
    8880023    1    1    2    0    0 -0.59713054287E+02  0.12839183086E+03 -0.10293268709E+04  0.12301927184E+04  0.65864270000E+03 0.  1.
    8880022    1    1    2    0    0  0.59713054287E+02 -0.12839183086E+03 -0.22086326298E+04  0.22184453695E+04  0.15294330000E+03 0.  0.
<mgrwt>
<rscale>  0 0.50244006E+03</rscale>
<asrwt>0</asrwt>
<pdfrwt beam="1">  1        2 0.51435358E+00 0.67369156E+03</pdfrwt>
<pdfrwt beam="2">  1       -2 0.16206048E-01 0.67369156E+03</pdfrwt>
<totfact> 0.34660084E+01</totfact>
</mgrwt>
</event>
<event>
 4    2  0.3388003E-007  0.8750039E+03  0.7818608E-02  0.9567412E-01
          2   -1    0    0  501    0  0.00000000000E+00  0.00000000000E+00  0.11156003747E+04  0.11156003747E+04  0.25500000000E-02 0. -1.
         -2   -1    0    0    0  501 -0.00000000000E+00 -0.00000000000E+00 -0.56903821520E+03  0.56903821520E+03  0.25500000000E-02 0.  1.
    8880023    1    1    2    0    0  0.21854437525E+03  0.53297281249E+03 -0.14278841526E+01  0.87500509023E+03  0.65864270000E+03 0.  1.
    8880022    1    1    2    0    0 -0.21854437525E+03 -0.53297281249E+03  0.54799004361E+03  0.80963349963E+03  0.15294330000E+03 0.  0.
<mgrwt>
<rscale>  0 0.79491127E+03</rscale>
<asrwt>0</asrwt>
<pdfrwt beam="1">  1        2 0.17163083E+00 0.87500393E+03</pdfrwt>
<pdfrwt beam="2">  1       -2 0.87544341E-01 0.87500393E+03</pdfrwt>
<totfact> 0.24132484E+01</totfact>
</mgrwt>
</event>
<event>
 4    2  0.3388003E-007  0.1160680E+04  0.7818608E-02  0.9196326E-01
         -2   -1    0    0    0  501 -0.00000000000E+00  0.00000000000E+00  0.11366334351E+04  0.11366334351E+04  0.25500000000E-02 0.  1.
          2   -1    0    0  501    0  0.00000000000E+00 -0.00000000000E+00 -0.11927659728E+04  0.11927659728E+04  0.25500000000E-02 0. -1.
    8880023    1    1    2    0    0  0.84875955758E+03  0.43928813164E+03 -0.50100235854E+03  0.12641916068E+04  0.65864270000E+03 0.  0.
    8880022    1    1    2    0    0 -0.84875955758E+03 -0.43928813164E+03  0.44486982085E+03  0.10652078012E+04  0.15294330000E+03 0.  0.
<mgrwt>
<rscale>  0 0.11091434E+04</rscale>
<asrwt>0</asrwt>
<pdfrwt beam="1">  1        2 0.18350246E+00 0.11606796E+04</pdfrwt>
<pdfrwt beam="2">  1       -2 0.17486668E+00 0.11606796E+04</pdfrwt>
<totfact> 0.36734675E+00</totfact>
</mgrwt>
</event>
<event>
 4    2  0.3388003E-007  0.8024304E+03  0.7818608E-02  0.9705565E-01
          2   -1    0    0  501    0  0.00000000000E+00  0.00000000000E+00  0.31596004158E+04  0.31596004158E+04  0.25500000000E-02 0. -1.
         -2   -1    0    0    0  501 -0.00000000000E+00 -0.00000000000E+00 -0.30593109807E+03  0.30593109808E+03  0.25500000000E-02 0.  1.
    8880023    1    1    2    0    0  0.45800381397E+03  0.17800899361E+02  0.28719979945E+04  0.29819904514E+04  0.65864270000E+03 0. -1.
    8880022    1    1    2    0    0 -0.45800381397E+03 -0.17800899361E+02 -0.18328676831E+02  0.48354106242E+03  0.15294330000E+03 0.  0.
<mgrwt>
<rscale>  0 0.70686393E+03</rscale>
<asrwt>0</asrwt>
<pdfrwt beam="1">  1        2 0.48609238E+00 0.80243042E+03</pdfrwt>
<pdfrwt beam="2">  1       -2 0.47066322E-01 0.80243042E+03</pdfrwt>
<totfact> 0.62496999E+00</totfact>
</mgrwt>
</event>
<event>
 4    2  0.3388003E-007  0.9498888E+03  0.7818608E-02  0.9450274E-01
         -2   -1    0    0    0  501 -0.00000000000E+00  0.00000000000E+00  0.63200034554E+03  0.63200034555E+03  0.25500000000E-02 0.  1.
          2   -1    0    0  501    0  0.00000000000E+00 -0.00000000000E+00 -0.23738210909E+04  0.23738210909E+04  0.25500000000E-02 0. -1.
    8880023    1    1    2    0    0  0.66965429082E+03  0.14156849270E+03  0.17397395641E+03  0.96568921042E+03  0.65864270000E+03 0.  1.
    8880022    1    1    2    0    0 -0.66965429082E+03 -0.14156849270E+03 -0.19157947017E+04  0.20401322260E+04  0.15294330000E+03 0.  0.
<mgrwt>
<rscale>  0 0.88051322E+03</rscale>
<asrwt>0</asrwt>
<pdfrwt beam="1">  1        2 0.36520324E+00 0.94988879E+03</pdfrwt>
<pdfrwt beam="2">  1       -2 0.97230824E-01 0.94988879E+03</pdfrwt>
<totfact> 0.36811117E+00</totfact>
</mgrwt>
</event>
<event>
 4    2  0.3388003E-007  0.7683136E+03  0.7818608E-02  0.9784041E-01
         -2   -1    0    0    0  501 -0.00000000000E+00  0.00000000000E+00  0.33144292325E+03  0.33144292326E+03  0.25500000000E-02 0.  1.
          2   -1    0    0  501    0  0.00000000000E+00 -0.00000000000E+00 -0.22421313137E+04  0.22421313137E+04  0.25500000000E-02 0. -1.
    8880023    1    1    2    0    0  0.14740780945E+03  0.36710550238E+03 -0.17656949542E+03  0.78834161703E+03  0.65864270000E+03 0.  1.
    8880022    1    1    2    0    0 -0.14740780945E+03 -0.36710550238E+03 -0.17341188950E+04  0.17852326199E+04  0.15294330000E+03 0.  0.
<mgrwt>
<rscale>  0 0.66226056E+03</rscale>
<asrwt>0</asrwt>
<pdfrwt beam="1">  1        2 0.34494327E+00 0.76831355E+03</pdfrwt>
<pdfrwt beam="2">  1       -2 0.50991220E-01 0.76831355E+03</pdfrwt>
<totfact> 0.18431250E+01</totfact>
</mgrwt>
</event>
<event>
 4    2  0.3388003E-007  0.9203398E+03  0.7818608E-02  0.9494138E-01
         -2   -1    0    0    0  501 -0.00000000000E+00  0.00000000000E+00  0.13633094377E+04  0.13633094377E+04  0.25500000000E-02 0.  1.
          2   -1    0    0  501    0  0.00000000000E+00 -0.00000000000E+00 -0.14084669735E+04  0.14084669735E+04  0.25500000000E-02 0. -1.
    8880023    1    1    2    0    0 -0.57491627233E+03  0.28755255913E+03  0.11094330416E+04  0.14414808617E+04  0.65864270000E+03 0.  0.
    8880022    1    1    2    0    0  0.57491627233E+03 -0.28755255913E+03 -0.11545905775E+04  0.13302955495E+04  0.15294330000E+03 0.  0.
<mgrwt>
<rscale>  0 0.84717373E+03</rscale>
<asrwt>0</asrwt>
<pdfrwt beam="1">  1        2 0.21668723E+00 0.92033983E+03</pdfrwt>
<pdfrwt beam="2">  1       -2 0.20973991E+00 0.92033983E+03</pdfrwt>
<totfact> 0.16525548E+00</totfact>
</mgrwt>
</event>
<event>
 4    2  0.6864398E-007  0.8493500E+03  0.7818608E-02  0.9612796E-01
         -2   -1    0    0    0  501 -0.00000000000E+00  0.00000000000E+00  0.12361287546E+04  0.12361287546E+04  0.25500000000E-02 0.  1.
          2   -1    0    0  501    0  0.00000000000E+00 -0.00000000000E+00 -0.32302042161E+04  0.32302042161E+04  0.25500000000E-02 0. -1.
    8880023    1    1    2    0    0  0.15194865318E+03 -0.51429259045E+03  0.10619593147E+04  0.13598356717E+04  0.65864270000E+03 0.  1.
    8880022    1    1    2    0    0 -0.15194865318E+03  0.51429259045E+03 -0.30560347762E+04  0.31064972989E+04  0.15294330000E+03 0.  0.
<mgrwt>
<rscale>  0 0.76455027E+03</rscale>
<asrwt>0</asrwt>
<pdfrwt beam="1">  1        2 0.49695449E+00 0.84935003E+03</pdfrwt>
<pdfrwt beam="2">  1       -2 0.19017366E+00 0.84935003E+03</pdfrwt>
<totfact> 0.20241256E-01</totfact>
</mgrwt>
</event>
<event>
 4    2  0.3388003E-007  0.1696745E+04  0.7818608E-02  0.8781912E-01
         -2   -1    0    0    0  501 -0.00000000000E+00  0.00000000000E+00  0.15732574417E+04  0.15732574417E+04  0.25500000000E-02 0.  1.
          2   -1    0    0  501    0  0.00000000000E+00 -0.00000000000E+00 -0.20910657446E+04  0.20910657446E+04  0.25500000000E-02 0. -1.
    8880023    1    1    2    0    0  0.15406404197E+04 -0.26750598326E+03  0.52792293495E+03  0.17769764167E+04  0.65864270000E+03 0.  1.
    8880022    1    1    2    0    0 -0.15406404197E+04  0.26750598326E+03 -0.10457312379E+04  0.18873467696E+04  0.15294330000E+03 0.  0.
<mgrwt>
<rscale>  0 0.16644358E+04</rscale>
<asrwt>0</asrwt>
<pdfrwt beam="1">  1        2 0.32170242E+00 0.16967447E+04</pdfrwt>
<pdfrwt beam="2">  1       -2 0.24203961E+00 0.16967447E+04</pdfrwt>
<totfact> 0.39289714E-01</totfact>
</mgrwt>
</event>
<event>
 4    2  0.3388003E-007  0.7020576E+03  0.7818608E-02  0.9988770E-01
          2   -1    0    0  501    0  0.00000000000E+00  0.00000000000E+00  0.19180456020E+04  0.19180456020E+04  0.25500000000E-02 0. -1.
         -2   -1    0    0    0  501 -0.00000000000E+00 -0.00000000000E+00 -0.24370594001E+03  0.24370594002E+03  0.25500000000E-02 0.  1.
    8880023    1    1    2    0    0 -0.98400747950E+02 -0.22224312264E+03  0.30988900685E+03  0.76740870179E+03  0.65864270000E+03 0.  1.
    8880022    1    1    2    0    0  0.98400747950E+02  0.22224312264E+03  0.13644506552E+04  0.13943428403E+04  0.15294330000E+03 0.  0.
<mgrwt>
<rscale>  0 0.56145400E+03</rscale>
<asrwt>0</asrwt>
<pdfrwt beam="1">  1        2 0.29508393E+00 0.70205763E+03</pdfrwt>
<pdfrwt beam="2">  1       -2 0.37493223E-01 0.70205763E+03</pdfrwt>
<totfact> 0.51491129E+01</totfact>
</mgrwt>
</event>
<event>
 4    2  0.3388003E-007  0.1125786E+04  0.7818608E-02  0.9232876E-01
          2   -1    0    0  501    0  0.00000000000E+00  0.00000000000E+00  0.22799149039E+04  0.22799149039E+04  0.25500000000E-02 0. -1.
         -2   -1    0    0    0  501 -0.00000000000E+00 -0.00000000000E+00 -0.67667725319E+03  0.67667725319E+03  0.25500000000E-02 0.  1.
    8880023    1    1    2    0    0  0.21341634747E+03  0.88771428173E+03  0.24016417228E+02  0.11260418189E+04  0.65864270000E+03 0.  0.
    8880022    1    1    2    0    0 -0.21341634747E+03 -0.88771428173E+03  0.15792212335E+04  0.18305503382E+04  0.15294330000E+03 0.  0.
<mgrwt>
<rscale>  0 0.10720445E+04</rscale>
<asrwt>0</asrwt>
<pdfrwt beam="1">  1        2 0.35075614E+00 0.11257857E+04</pdfrwt>
<pdfrwt beam="2">  1       -2 0.10410419E+00 0.11257857E+04</pdfrwt>
<totfact> 0.34530430E+00</totfact>
</mgrwt>
</event>
<event>
 4    2  0.3388003E-007  0.7153434E+03  0.7818608E-02  0.9938669E-01
         -2   -1    0    0    0  501 -0.00000000000E+00  0.00000000000E+00  0.28712427098E+03  0.28712427099E+03  0.25500000000E-02 0.  1.
          2   -1    0    0  501    0  0.00000000000E+00 -0.00000000000E+00 -0.19628059117E+04  0.19628059117E+04  0.25500000000E-02 0. -1.
    8880023    1    1    2    0    0  0.14712132956E+03  0.23719475644E+03 -0.20348382202E+03  0.74372166177E+03  0.65864270000E+03 0.  1.
    8880022    1    1    2    0    0 -0.14712132956E+03 -0.23719475644E+03 -0.14721978187E+04  0.15062085209E+04  0.15294330000E+03 0.  0.
<mgrwt>
<rscale>  0 0.58423275E+03</rscale>
<asrwt>0</asrwt>
<pdfrwt beam="1">  1        2 0.30197013E+00 0.71534345E+03</pdfrwt>
<pdfrwt beam="2">  1       -2 0.44172966E-01 0.71534345E+03</pdfrwt>
<totfact> 0.35271230E+01</totfact>
</mgrwt>
</event>
<event>
 4    2  0.3388003E-007  0.8609161E+03  0.7818608E-02  0.9591936E-01
         -2   -1    0    0    0  501 -0.00000000000E+00  0.00000000000E+00  0.19315940129E+03  0.19315940131E+03  0.25500000000E-02 0.  1.
          2   -1    0    0  501    0  0.00000000000E+00 -0.00000000000E+00 -0.32022405640E+04  0.32022405640E+04  0.25500000000E-02 0. -1.
    8880023    1    1    2    0    0  0.26489903987E+03  0.48702643926E+03 -0.10728809833E+04  0.13755908056E+04  0.65864270000E+03 0.  0.
    8880022    1    1    2    0    0 -0.26489903987E+03 -0.48702643926E+03 -0.19362001795E+04  0.20198091598E+04  0.15294330000E+03 0.  0.
<mgrwt>
<rscale>  0 0.77832214E+03</rscale>
<asrwt>0</asrwt>
<pdfrwt beam="1">  1        2 0.49265236E+00 0.86091606E+03</pdfrwt>
<pdfrwt beam="2">  1       -2 0.29716833E-01 0.86091606E+03</pdfrwt>
<totfact> 0.14134030E+01</totfact>
</mgrwt>
</event>
