<event>
 4    3  0.4041078E+000  0.1814632E+03  0.7546771E-02  0.1166394E+00
         21   -1    0    0  503  502  0.00000000000E+00  0.00000000000E+00  0.23531365075E+03  0.23531365075E+03  0.00000000000E+00 0. -1.
         21   -1    0    0  501  503 -0.00000000000E+00 -0.00000000000E+00 -0.22141138616E+03  0.22141138616E+03  0.00000000000E+00 0. -1.
          6    1    1    2  501    0  0.21776102217E+02  0.50256426524E+02 -0.13157682426E+03  0.22414586259E+03  0.17300000000E+03 0. -1.
         -6    1    1    2    0  502 -0.21776102217E+02 -0.50256426524E+02  0.14547908885E+03  0.23257917432E+03  0.17300000000E+03 0. -1.
<mgrwt>
<rscale>  2 0.18146324E+03</rscale>
<asrwt>0</asrwt>
<pdfrwt beam="1">  1       21 0.36202100E-01 0.18146324E+03</pdfrwt>
<pdfrwt beam="2">  1       21 0.34063290E-01 0.18146324E+03</pdfrwt>
<totfact> 0.61404200E+04</totfact>
</mgrwt>
</event>
<event>
 4    3  0.4041078E+000  0.1859908E+03  0.7546771E-02  0.1162128E+00
         21   -1    0    0  501  502  0.00000000000E+00  0.00000000000E+00  0.85990034497E+03  0.85990034497E+03  0.00000000000E+00 0. -1.
         21   -1    0    0  502  503 -0.00000000000E+00 -0.00000000000E+00 -0.43540735410E+02  0.43540735410E+02  0.00000000000E+00 0. -1.
          6    1    1    2  501    0 -0.29151920826E+02  0.61755642073E+02  0.53276759484E+03  0.56429948071E+03  0.17300000000E+03 0. -1.
         -6    1    1    2    0  503  0.29151920826E+02 -0.61755642073E+02  0.28359201472E+03  0.33914159967E+03  0.17300000000E+03 0. -1.
<mgrwt>
<rscale>  2 0.18599084E+03</rscale>
<asrwt>0</asrwt>
<pdfrwt beam="1">  1       21 0.13229235E+00 0.18599084E+03</pdfrwt>
<pdfrwt beam="2">  1       21 0.66985753E-02 0.18599084E+03</pdfrwt>
<totfact> 0.67716213E+04</totfact>
</mgrwt>
</event>
<event>
 4    3  0.4041078E+000  0.2304989E+03  0.7546771E-02  0.1126289E+00
         21   -1    0    0  501  502  0.00000000000E+00  0.00000000000E+00  0.45394335471E+03  0.45394335471E+03  0.00000000000E+00 0. -1.
         21   -1    0    0  502  503 -0.00000000000E+00 -0.00000000000E+00 -0.19659822083E+03  0.19659822083E+03  0.00000000000E+00 0. -1.
          6    1    1    2  501    0  0.59813897217E+02  0.14008233560E+03  0.33558967562E+03  0.40712429728E+03  0.17300000000E+03 0. -1.
         -6    1    1    2    0  503 -0.59813897217E+02 -0.14008233560E+03 -0.78244541743E+02  0.24341727827E+03  0.17300000000E+03 0. -1.
<mgrwt>
<rscale>  2 0.23049894E+03</rscale>
<asrwt>0</asrwt>
<pdfrwt beam="1">  1       21 0.69837439E-01 0.23049894E+03</pdfrwt>
<pdfrwt beam="2">  1       21 0.30245880E-01 0.23049894E+03</pdfrwt>
<totfact> 0.19109750E+04</totfact>
</mgrwt>
</event>
<event>
 4    3  0.4041078E+000  0.1896813E+03  0.7546771E-02  0.1158749E+00
         21   -1    0    0  503  502  0.00000000000E+00  0.00000000000E+00  0.10679640460E+03  0.10679640460E+03  0.00000000000E+00 0. -1.
         21   -1    0    0  501  503 -0.00000000000E+00 -0.00000000000E+00 -0.33780564031E+03  0.33780564031E+03  0.00000000000E+00 0. -1.
          6    1    1    2  501    0  0.75690053756E+02 -0.17916571753E+02 -0.12705771606E+03  0.22830385672E+03  0.17300000000E+03 0. -1.
         -6    1    1    2    0  502 -0.75690053756E+02  0.17916571753E+02 -0.10395151965E+03  0.21629818820E+03  0.17300000000E+03 0. -1.
<mgrwt>
<rscale>  2 0.18968128E+03</rscale>
<asrwt>0</asrwt>
<pdfrwt beam="1">  1       21 0.16430216E-01 0.18968128E+03</pdfrwt>
<pdfrwt beam="2">  1       21 0.51970098E-01 0.18968128E+03</pdfrwt>
<totfact> 0.11685883E+05</totfact>
</mgrwt>
</event>
<event>
 4    3  0.4041078E+000  0.1730441E+03  0.7546771E-02  0.1174710E+00
         21   -1    0    0  501  502  0.00000000000E+00  0.00000000000E+00  0.89524200387E+02  0.89524200387E+02  0.00000000000E+00 0.  1.
         21   -1    0    0  502  503 -0.00000000000E+00 -0.00000000000E+00 -0.89065292027E+03  0.89065292027E+03  0.00000000000E+00 0.  1.
          6    1    1    2  501    0  0.22364676991E+01  0.32024739661E+01 -0.13285000530E+02  0.17355330267E+03  0.17300000000E+03 0.  1.
         -6    1    1    2    0  503 -0.22364676991E+01 -0.32024739661E+01 -0.78784371936E+03  0.80662381800E+03  0.17300000000E+03 0.  1.
<mgrwt>
<rscale>  2 0.17304409E+03</rscale>
<asrwt>0</asrwt>
<pdfrwt beam="1">  1       21 0.13772954E-01 0.17304409E+03</pdfrwt>
<pdfrwt beam="2">  1       21 0.13702353E+00 0.17304409E+03</pdfrwt>
<totfact> 0.17556371E+04</totfact>
</mgrwt>
</event>
<event>
 4    3  0.4041078E+000  0.2012902E+03  0.7546771E-02  0.1148655E+00
         21   -1    0    0  501  502  0.00000000000E+00  0.00000000000E+00  0.21757137747E+03  0.21757137747E+03  0.00000000000E+00 0.  1.
         21   -1    0    0  502  503 -0.00000000000E+00 -0.00000000000E+00 -0.44678604142E+03  0.44678604142E+03  0.00000000000E+00 0.  1.
          6    1    1    2  501    0  0.10289696292E+03  0.97108440205E+00  0.13906600834E+03  0.24465707155E+03  0.17300000000E+03 0.  1.
         -6    1    1    2    0  503 -0.10289696292E+03 -0.97108440205E+00 -0.36828067228E+03  0.41970034734E+03  0.17300000000E+03 0.  1.
<mgrwt>
<rscale>  2 0.20129016E+03</rscale>
<asrwt>0</asrwt>
<pdfrwt beam="1">  1       21 0.33472520E-01 0.20129016E+03</pdfrwt>
<pdfrwt beam="2">  1       21 0.68736313E-01 0.20129016E+03</pdfrwt>
<totfact> 0.16489648E+04</totfact>
</mgrwt>
</event>
<event>
 4    3  0.4041078E+000  0.2182353E+03  0.7546771E-02  0.1135206E+00
         21   -1    0    0  503  502  0.00000000000E+00  0.00000000000E+00  0.23807945124E+04  0.23807945124E+04  0.00000000000E+00 0.  1.
         21   -1    0    0  501  503 -0.00000000000E+00 -0.00000000000E+00 -0.20494616603E+03  0.20494616603E+03  0.00000000000E+00 0.  1.
          6    1    1    2  501    0 -0.24469789445E+02  0.13076261508E+03 -0.14022873736E+03  0.25940456989E+03  0.17300000000E+03 0.  1.
         -6    1    1    2    0  502  0.24469789445E+02 -0.13076261508E+03  0.23160770837E+04  0.23263361085E+04  0.17300000000E+03 0.  1.
<mgrwt>
<rscale>  2 0.21823527E+03</rscale>
<asrwt>0</asrwt>
<pdfrwt beam="1">  1       21 0.36627606E+00 0.21823527E+03</pdfrwt>
<pdfrwt beam="2">  1       21 0.31530181E-01 0.21823527E+03</pdfrwt>
<totfact> 0.12974093E+02</totfact>
</mgrwt>
</event>
<event>
 4    3  0.4041078E+000  0.1897730E+03  0.7546771E-02  0.1158666E+00
         21   -1    0    0  503  502  0.00000000000E+00  0.00000000000E+00  0.83735063558E+02  0.83735063558E+02  0.00000000000E+00 0.  1.
         21   -1    0    0  501  503 -0.00000000000E+00 -0.00000000000E+00 -0.67918471855E+03  0.67918471855E+03  0.00000000000E+00 0.  1.
          6    1    1    2  501    0 -0.10207039669E+02 -0.77334357199E+02 -0.52873727768E+03  0.56176231208E+03  0.17300000000E+03 0.  1.
         -6    1    1    2    0  502  0.10207039669E+02  0.77334357199E+02 -0.66712377311E+02  0.20115747003E+03  0.17300000000E+03 0.  1.
<mgrwt>
<rscale>  2 0.18977299E+03</rscale>
<asrwt>0</asrwt>
<pdfrwt beam="1">  1       21 0.12882318E-01 0.18977299E+03</pdfrwt>
<pdfrwt beam="2">  1       21 0.10448996E+00 0.18977299E+03</pdfrwt>
<totfact> 0.38253794E+04</totfact>
</mgrwt>
</event>
<event>
 4    3  0.4041078E+000  0.2352842E+03  0.7546771E-02  0.1122975E+00
         21   -1    0    0  501  502  0.00000000000E+00  0.00000000000E+00  0.22893193019E+04  0.22893193019E+04  0.00000000000E+00 0. -1.
         21   -1    0    0  502  503 -0.00000000000E+00 -0.00000000000E+00 -0.24521090677E+02  0.24521090677E+02  0.00000000000E+00 0. -1.
          6    1    1    2  501    0  0.45613401302E+02  0.15280397547E+03  0.99620401852E+03  0.10236117837E+04  0.17300000000E+03 0. -1.
         -6    1    1    2    0  503 -0.45613401302E+02 -0.15280397547E+03  0.12685941927E+04  0.12902286088E+04  0.17300000000E+03 0. -1.
<mgrwt>
<rscale>  2 0.23528416E+03</rscale>
<asrwt>0</asrwt>
<pdfrwt beam="1">  1       21 0.35220280E+00 0.23528416E+03</pdfrwt>
<pdfrwt beam="2">  1       21 0.37724773E-02 0.23528416E+03</pdfrwt>
<totfact> 0.69890240E+03</totfact>
</mgrwt>
</event>
<event>
 4    3  0.4041078E+000  0.2434535E+03  0.7546771E-02  0.1117513E+00
         21   -1    0    0  503  502  0.00000000000E+00  0.00000000000E+00  0.34580714702E+03  0.34580714702E+03  0.00000000000E+00 0.  1.
         21   -1    0    0  501  503 -0.00000000000E+00 -0.00000000000E+00 -0.17304177470E+03  0.17304177470E+03  0.00000000000E+00 0. -1.
          6    1    1    2  501    0  0.14451165026E+03  0.91961786835E+02  0.61074357537E+02  0.25099733952E+03  0.17300000000E+03 0.  1.
         -6    1    1    2    0  502 -0.14451165026E+03 -0.91961786835E+02  0.11169101478E+03  0.26785158219E+03  0.17300000000E+03 0. -1.
<mgrwt>
<rscale>  2 0.24345346E+03</rscale>
<asrwt>0</asrwt>
<pdfrwt beam="1">  1       21 0.53201099E-01 0.24345346E+03</pdfrwt>
<pdfrwt beam="2">  1       21 0.26621812E-01 0.24345346E+03</pdfrwt>
<totfact> 0.43879828E+04</totfact>
</mgrwt>
</event>
<event>
 4    3  0.4041078E+000  0.1768513E+03  0.7546771E-02  0.1170886E+00
         21   -1    0    0  503  502  0.00000000000E+00  0.00000000000E+00  0.11774368389E+04  0.11774368389E+04  0.00000000000E+00 0.  1.
         21   -1    0    0  501  503 -0.00000000000E+00 -0.00000000000E+00 -0.35060613673E+02  0.35060613673E+02  0.00000000000E+00 0.  1.
          6    1    1    2  501    0 -0.31771553065E+02 -0.18383285528E+02  0.27272756896E+03  0.32504877117E+03  0.17300000000E+03 0.  1.
         -6    1    1    2    0  502  0.31771553065E+02  0.18383285528E+02  0.86964865631E+03  0.88744868144E+03  0.17300000000E+03 0.  1.
<mgrwt>
<rscale>  2 0.17685128E+03</rscale>
<asrwt>0</asrwt>
<pdfrwt beam="1">  1       21 0.18114410E+00 0.17685128E+03</pdfrwt>
<pdfrwt beam="2">  1       21 0.53939415E-02 0.17685128E+03</pdfrwt>
<totfact> 0.42697686E+04</totfact>
</mgrwt>
</event>
<event>
 4    3  0.4041078E+000  0.1979576E+03  0.7546771E-02  0.1151474E+00
         21   -1    0    0  503  502  0.00000000000E+00  0.00000000000E+00  0.62469388768E+03  0.62469388768E+03  0.00000000000E+00 0. -1.
         21   -1    0    0  501  503 -0.00000000000E+00 -0.00000000000E+00 -0.30096060025E+03  0.30096060025E+03  0.00000000000E+00 0. -1.
          6    1    1    2  501    0  0.56567976738E+01  0.96053249585E+02 -0.24991084932E+03  0.31881445814E+03  0.17300000000E+03 0. -1.
         -6    1    1    2    0  502 -0.56567976738E+01 -0.96053249585E+02  0.57364413676E+03  0.60684002979E+03  0.17300000000E+03 0. -1.
<mgrwt>
<rscale>  2 0.19795764E+03</rscale>
<asrwt>0</asrwt>
<pdfrwt beam="1">  1       21 0.96106752E-01 0.19795764E+03</pdfrwt>
<pdfrwt beam="2">  1       21 0.46301631E-01 0.19795764E+03</pdfrwt>
<totfact> 0.40111612E+03</totfact>
</mgrwt>
</event>
<event>
 4    3  0.4041078E+000  0.2039494E+03  0.7546771E-02  0.1146449E+00
         21   -1    0    0  503  502  0.00000000000E+00  0.00000000000E+00  0.37244650515E+03  0.37244650515E+03  0.00000000000E+00 0. -1.
         21   -1    0    0  501  503 -0.00000000000E+00 -0.00000000000E+00 -0.20510149963E+03  0.20510149963E+03  0.00000000000E+00 0. -1.
          6    1    1    2  501    0  0.98454390714E+02 -0.44419661088E+02 -0.11121934525E+03  0.23230393045E+03  0.17300000000E+03 0. -1.
         -6    1    1    2    0  502 -0.98454390714E+02  0.44419661088E+02  0.27856435077E+03  0.34524407433E+03  0.17300000000E+03 0. -1.
<mgrwt>
<rscale>  2 0.20394944E+03</rscale>
<asrwt>0</asrwt>
<pdfrwt beam="1">  1       21 0.57299462E-01 0.20394944E+03</pdfrwt>
<pdfrwt beam="2">  1       21 0.31554077E-01 0.20394944E+03</pdfrwt>
<totfact> 0.27431734E+04</totfact>
</mgrwt>
</event>
<event>
 4    3  0.4041078E+000  0.3077901E+03  0.7546771E-02  0.1081410E+00
         21   -1    0    0  503  502  0.00000000000E+00  0.00000000000E+00  0.52972644614E+02  0.52972644614E+02  0.00000000000E+00 0. -1.
         21   -1    0    0  501  503 -0.00000000000E+00 -0.00000000000E+00 -0.23070380283E+04  0.23070380283E+04  0.00000000000E+00 0. -1.
          6    1    1    2  501    0 -0.24148760430E+03  0.80557301809E+02 -0.56753163494E+03  0.64562132753E+03  0.17300000000E+03 0. -1.
         -6    1    1    2    0  502  0.24148760430E+03 -0.80557301809E+02 -0.16865337487E+04  0.17143893454E+04  0.17300000000E+03 0. -1.
<mgrwt>
<rscale>  2 0.30779009E+03</rscale>
<asrwt>0</asrwt>
<pdfrwt beam="1">  1       21 0.81496372E-02 0.30779009E+03</pdfrwt>
<pdfrwt beam="2">  1       21 0.35492894E+00 0.30779009E+03</pdfrwt>
<totfact> 0.16756361E+03</totfact>
</mgrwt>
</event>
<event>
 4    3  0.4041078E+000  0.1769616E+03  0.7546771E-02  0.1170776E+00
         21   -1    0    0  501  502  0.00000000000E+00  0.00000000000E+00  0.74638388540E+02  0.74638388540E+02  0.00000000000E+00 0.  1.
         21   -1    0    0  502  503 -0.00000000000E+00 -0.00000000000E+00 -0.58445225514E+03  0.58445225514E+03  0.00000000000E+00 0.  1.
          6    1    1    2  501    0 -0.58983041438E+01  0.36764136902E+02 -0.79866318893E+02  0.19414948016E+03  0.17300000000E+03 0.  1.
         -6    1    1    2    0  503  0.58983041438E+01 -0.36764136902E+02 -0.42994754770E+03  0.46494116352E+03  0.17300000000E+03 0.  1.
<mgrwt>
<rscale>  2 0.17696155E+03</rscale>
<asrwt>0</asrwt>
<pdfrwt beam="1">  1       21 0.11482829E-01 0.17696155E+03</pdfrwt>
<pdfrwt beam="2">  1       21 0.89915735E-01 0.17696155E+03</pdfrwt>
<totfact> 0.67321557E+04</totfact>
</mgrwt>
</event>
<event>
 4    3  0.4041078E+000  0.2438954E+03  0.7546771E-02  0.1117225E+00
         21   -1    0    0  503  502  0.00000000000E+00  0.00000000000E+00  0.72109030698E+02  0.72109030698E+02  0.00000000000E+00 0. -1.
         21   -1    0    0  501  503 -0.00000000000E+00 -0.00000000000E+00 -0.12707579630E+04  0.12707579630E+04  0.00000000000E+00 0. -1.
          6    1    1    2  501    0 -0.79064480130E+02 -0.15265899964E+03 -0.99702377328E+03  0.10264216320E+04  0.17300000000E+03 0. -1.
         -6    1    1    2    0  502  0.79064480130E+02  0.15265899964E+03 -0.20162515907E+03  0.31644536173E+03  0.17300000000E+03 0. -1.
<mgrwt>
<rscale>  2 0.24389539E+03</rscale>
<asrwt>0</asrwt>
<pdfrwt beam="1">  1       21 0.11093698E-01 0.24389539E+03</pdfrwt>
<pdfrwt beam="2">  1       21 0.19550121E+00 0.24389539E+03</pdfrwt>
<totfact> 0.93177347E+03</totfact>
</mgrwt>
</event>
<event>
 4    3  0.4041078E+000  0.2092705E+03  0.7546771E-02  0.1142145E+00
         21   -1    0    0  501  502  0.00000000000E+00  0.00000000000E+00  0.46310273903E+02  0.46310273903E+02  0.00000000000E+00 0. -1.
         21   -1    0    0  502  503 -0.00000000000E+00 -0.00000000000E+00 -0.14013799303E+04  0.14013799303E+04  0.00000000000E+00 0. -1.
          6    1    1    2  501    0  0.10776980527E+03  0.47442513037E+02 -0.26476009066E+03  0.33747893057E+03  0.17300000000E+03 0. -1.
         -6    1    1    2    0  503 -0.10776980527E+03 -0.47442513037E+02 -0.10903095657E+04  0.11102112736E+04  0.17300000000E+03 0. -1.
<mgrwt>
<rscale>  2 0.20927045E+03</rscale>
<asrwt>0</asrwt>
<pdfrwt beam="1">  1       21 0.71246589E-02 0.20927045E+03</pdfrwt>
<pdfrwt beam="2">  1       21 0.21559687E+00 0.20927045E+03</pdfrwt>
<totfact> 0.15502486E+04</totfact>
</mgrwt>
</event>
<event>
 4    3  0.4041078E+000  0.2796127E+03  0.7546771E-02  0.1095901E+00
         21   -1    0    0  501  502  0.00000000000E+00  0.00000000000E+00  0.20316315224E+03  0.20316315224E+03  0.00000000000E+00 0.  1.
         21   -1    0    0  502  503 -0.00000000000E+00 -0.00000000000E+00 -0.71365084185E+03  0.71365084185E+03  0.00000000000E+00 0.  1.
          6    1    1    2  501    0  0.21956133155E+03  0.68598424329E+01  0.55919295400E+02  0.28514944038E+03  0.17300000000E+03 0.  1.
         -6    1    1    2    0  503 -0.21956133155E+03 -0.68598424329E+01 -0.56640698501E+03  0.63166455372E+03  0.17300000000E+03 0.  1.
<mgrwt>
<rscale>  2 0.27961265E+03</rscale>
<asrwt>0</asrwt>
<pdfrwt beam="1">  1       21 0.31255870E-01 0.27961265E+03</pdfrwt>
<pdfrwt beam="2">  1       21 0.10979244E+00 0.27961265E+03</pdfrwt>
<totfact> 0.60951116E+03</totfact>
</mgrwt>
</event>
<event>
 4    3  0.4041078E+000  0.3013288E+03  0.7546771E-02  0.1084578E+00
         21   -1    0    0  503  502  0.00000000000E+00  0.00000000000E+00  0.81127037746E+02  0.81127037746E+02  0.00000000000E+00 0. -1.
         21   -1    0    0  501  503 -0.00000000000E+00 -0.00000000000E+00 -0.18829554914E+04  0.18829554914E+04  0.00000000000E+00 0. -1.
          6    1    1    2  501    0  0.17165770203E+03  0.17721080934E+03 -0.15263476346E+04  0.15558072307E+04  0.17300000000E+03 0. -1.
         -6    1    1    2    0  502 -0.17165770203E+03 -0.17721080934E+03 -0.27548081907E+03  0.40827529841E+03  0.17300000000E+03 0. -1.
<mgrwt>
<rscale>  2 0.30132879E+03</rscale>
<asrwt>0</asrwt>
<pdfrwt beam="1">  1       21 0.12481084E-01 0.30132879E+03</pdfrwt>
<pdfrwt beam="2">  1       21 0.28968544E+00 0.30132879E+03</pdfrwt>
<totfact> 0.19229205E+03</totfact>
</mgrwt>
</event>
<event>
 4    3  0.4041078E+000  0.2583406E+03  0.7546771E-02  0.1108144E+00
         21   -1    0    0  501  502  0.00000000000E+00  0.00000000000E+00  0.58689488654E+03  0.58689488654E+03  0.00000000000E+00 0. -1.
         21   -1    0    0  502  503 -0.00000000000E+00 -0.00000000000E+00 -0.11381832274E+03  0.11381832274E+03  0.00000000000E+00 0.  1.
          6    1    1    2  501    0  0.11944200331E+03  0.15014818946E+03  0.24699650521E+03  0.35741732547E+03  0.17300000000E+03 0.  1.
         -6    1    1    2    0  503 -0.11944200331E+03 -0.15014818946E+03  0.22608005859E+03  0.34329588382E+03  0.17300000000E+03 0.  1.
<mgrwt>
<rscale>  2 0.25834061E+03</rscale>
<asrwt>0</asrwt>
<pdfrwt beam="1">  1       21 0.90291520E-01 0.25834061E+03</pdfrwt>
<pdfrwt beam="2">  1       21 0.17510511E-01 0.25834061E+03</pdfrwt>
<totfact> 0.29796980E+04</totfact>
</mgrwt>
</event>
<event>
 4    3  0.4041078E+000  0.1754071E+03  0.7546771E-02  0.1172324E+00
         21   -1    0    0  501  502  0.00000000000E+00  0.00000000000E+00  0.42686685930E+03  0.42686685930E+03  0.00000000000E+00 0.  1.
         21   -1    0    0  502  503 -0.00000000000E+00 -0.00000000000E+00 -0.21994266502E+03  0.21994266502E+03  0.00000000000E+00 0.  1.
          6    1    1    2  501    0 -0.26908823355E+02 -0.10703157183E+02  0.36863192211E+03  0.40823661809E+03  0.17300000000E+03 0.  1.
         -6    1    1    2    0  503  0.26908823355E+02  0.10703157183E+02 -0.16170772783E+03  0.23857290623E+03  0.17300000000E+03 0.  1.
<mgrwt>
<rscale>  2 0.17540708E+03</rscale>
<asrwt>0</asrwt>
<pdfrwt beam="1">  1       21 0.65671824E-01 0.17540708E+03</pdfrwt>
<pdfrwt beam="2">  1       21 0.33837333E-01 0.17540708E+03</pdfrwt>
<totfact> 0.18124599E+04</totfact>
</mgrwt>
</event>
<event>
 4    3  0.4041078E+000  0.3101255E+03  0.7546771E-02  0.1080286E+00
         21   -1    0    0  501  502  0.00000000000E+00  0.00000000000E+00  0.61016524574E+03  0.61016524574E+03  0.00000000000E+00 0. -1.
         21   -1    0    0  502  503 -0.00000000000E+00 -0.00000000000E+00 -0.20211451595E+03  0.20211451595E+03  0.00000000000E+00 0. -1.
          6    1    1    2  501    0 -0.12776678989E+03 -0.22343780770E+03  0.39457215959E+03  0.50186153033E+03  0.17300000000E+03 0. -1.
         -6    1    1    2    0  503  0.12776678989E+03  0.22343780770E+03  0.13478570208E+02  0.31041823136E+03  0.17300000000E+03 0. -1.
<mgrwt>
<rscale>  2 0.31012547E+03</rscale>
<asrwt>0</asrwt>
<pdfrwt beam="1">  1       21 0.93871575E-01 0.31012547E+03</pdfrwt>
<pdfrwt beam="2">  1       21 0.31094541E-01 0.31012547E+03</pdfrwt>
<totfact> 0.88483149E+03</totfact>
</mgrwt>
</event>
<event>
 4    3  0.4041078E+000  0.1881453E+03  0.7546771E-02  0.1160145E+00
         21   -1    0    0  503  502  0.00000000000E+00  0.00000000000E+00  0.13289731790E+04  0.13289731790E+04  0.00000000000E+00 0.  1.
         21   -1    0    0  501  503 -0.00000000000E+00 -0.00000000000E+00 -0.10408182584E+03  0.10408182584E+03  0.00000000000E+00 0.  1.
          6    1    1    2  501    0 -0.66927388912E+02 -0.31470460194E+02 -0.56335322133E+01  0.18822965212E+03  0.17300000000E+03 0.  1.
         -6    1    1    2    0  502  0.66927388912E+02  0.31470460194E+02  0.12305248854E+04  0.12448253528E+04  0.17300000000E+03 0.  1.
<mgrwt>
<rscale>  2 0.18814533E+03</rscale>
<asrwt>0</asrwt>
<pdfrwt beam="1">  1       21 0.20445740E+00 0.18814533E+03</pdfrwt>
<pdfrwt beam="2">  1       21 0.16012590E-01 0.18814533E+03</pdfrwt>
<totfact> 0.43976352E+03</totfact>
</mgrwt>
</event>
<event>
 4    3  0.4041078E+000  0.2369022E+03  0.7546771E-02  0.1121874E+00
         21   -1    0    0  503  502  0.00000000000E+00  0.00000000000E+00  0.85735414304E+02  0.85735414304E+02  0.00000000000E+00 0.  1.
         21   -1    0    0  501  503 -0.00000000000E+00 -0.00000000000E+00 -0.78640476421E+03  0.78640476421E+03  0.00000000000E+00 0.  1.
          6    1    1    2  501    0 -0.14976200492E+03 -0.61359523103E+02 -0.52885761845E+03  0.57949377027E+03  0.17300000000E+03 0.  1.
         -6    1    1    2    0  502  0.14976200492E+03  0.61359523103E+02 -0.17181173146E+03  0.29264640825E+03  0.17300000000E+03 0.  1.
<mgrwt>
<rscale>  2 0.23690219E+03</rscale>
<asrwt>0</asrwt>
<pdfrwt beam="1">  1       21 0.13190063E-01 0.23690219E+03</pdfrwt>
<pdfrwt beam="2">  1       21 0.12098535E+00 0.23690219E+03</pdfrwt>
<totfact> 0.24983113E+04</totfact>
</mgrwt>
</event>
<event>
 4    3  0.4041078E+000  0.2010823E+03  0.7546771E-02  0.1148829E+00
         21   -1    0    0  503  502  0.00000000000E+00  0.00000000000E+00  0.25099510495E+03  0.25099510495E+03  0.00000000000E+00 0. -1.
         21   -1    0    0  501  503 -0.00000000000E+00 -0.00000000000E+00 -0.39980618249E+03  0.39980618249E+03  0.00000000000E+00 0.  1.
          6    1    1    2  501    0  0.69152770881E+02  0.75650319926E+02 -0.32584298891E+03  0.38289388875E+03  0.17300000000E+03 0.  1.
         -6    1    1    2    0  502 -0.69152770881E+02 -0.75650319926E+02  0.17703191137E+03  0.26790739868E+03  0.17300000000E+03 0. -1.
<mgrwt>
<rscale>  2 0.20108226E+03</rscale>
<asrwt>0</asrwt>
<pdfrwt beam="1">  1       21 0.38614632E-01 0.20108226E+03</pdfrwt>
<pdfrwt beam="2">  1       21 0.61508643E-01 0.20108226E+03</pdfrwt>
<totfact> 0.15800623E+04</totfact>
</mgrwt>
</event>
<event>
 4    3  0.4041078E+000  0.1977156E+03  0.7546771E-02  0.1151681E+00
         21   -1    0    0  501  502  0.00000000000E+00  0.00000000000E+00  0.11574613332E+03  0.11574613332E+03  0.00000000000E+00 0.  1.
         21   -1    0    0  502  503 -0.00000000000E+00 -0.00000000000E+00 -0.35314883661E+03  0.35314883661E+03  0.00000000000E+00 0. -1.
          6    1    1    2  501    0  0.89977380651E+02  0.32657785508E+02 -0.16768255035E+03  0.25924678913E+03  0.17300000000E+03 0. -1.
         -6    1    1    2    0  503 -0.89977380651E+02 -0.32657785508E+02 -0.69720152936E+02  0.20964818079E+03  0.17300000000E+03 0.  1.
<mgrwt>
<rscale>  2 0.19771560E+03</rscale>
<asrwt>0</asrwt>
<pdfrwt beam="1">  1       21 0.17807097E-01 0.19771560E+03</pdfrwt>
<pdfrwt beam="2">  1       21 0.54330590E-01 0.19771560E+03</pdfrwt>
<totfact> 0.91484776E+04</totfact>
</mgrwt>
</event>
<event>
 4    3  0.4041078E+000  0.2538413E+03  0.7546771E-02  0.1110901E+00
         21   -1    0    0  503  502  0.00000000000E+00  0.00000000000E+00  0.10390324928E+04  0.10390324928E+04  0.00000000000E+00 0. -1.
         21   -1    0    0  501  503 -0.00000000000E+00 -0.00000000000E+00 -0.90672215165E+02  0.90672215165E+02  0.00000000000E+00 0.  1.
          6    1    1    2  501    0  0.58064974203E+02 -0.17645072642E+03  0.15662709455E+03  0.29827411357E+03  0.17300000000E+03 0.  1.
         -6    1    1    2    0  502 -0.58064974203E+02  0.17645072642E+03  0.79173318304E+03  0.83143059434E+03  0.17300000000E+03 0. -1.
<mgrwt>
<rscale>  2 0.25384129E+03</rscale>
<asrwt>0</asrwt>
<pdfrwt beam="1">  1       21 0.15985114E+00 0.25384129E+03</pdfrwt>
<pdfrwt beam="2">  1       21 0.13949572E-01 0.25384129E+03</pdfrwt>
<totfact> 0.10831684E+04</totfact>
</mgrwt>
</event>
<event>
 4    3  0.4041078E+000  0.1949142E+03  0.7546771E-02  0.1154102E+00
         21   -1    0    0  501  502  0.00000000000E+00  0.00000000000E+00  0.11799134385E+04  0.11799134385E+04  0.00000000000E+00 0. -1.
         21   -1    0    0  502  503 -0.00000000000E+00 -0.00000000000E+00 -0.47704660796E+02  0.47704660796E+02  0.00000000000E+00 0. -1.
          6    1    1    2  501    0 -0.67091357183E+02  0.59676500583E+02  0.91605272239E+03  0.93655972855E+03  0.17300000000E+03 0.  1.
         -6    1    1    2    0  503  0.67091357183E+02 -0.59676500583E+02  0.21615605527E+03  0.29105837071E+03  0.17300000000E+03 0.  1.
<mgrwt>
<rscale>  2 0.19491417E+03</rscale>
<asrwt>0</asrwt>
<pdfrwt beam="1">  1       21 0.18152512E+00 0.19491417E+03</pdfrwt>
<pdfrwt beam="2">  1       21 0.73391795E-02 0.19491417E+03</pdfrwt>
<totfact> 0.24725398E+04</totfact>
</mgrwt>
</event>
<event>
 4    3  0.4041078E+000  0.2219676E+03  0.7546771E-02  0.1132425E+00
         21   -1    0    0  501  502  0.00000000000E+00  0.00000000000E+00  0.16226271674E+03  0.16226271674E+03  0.00000000000E+00 0.  1.
         21   -1    0    0  502  503 -0.00000000000E+00 -0.00000000000E+00 -0.48816879626E+03  0.48816879626E+03  0.00000000000E+00 0.  1.
          6    1    1    2  501    0 -0.85305851421E+01 -0.13880866854E+03  0.36995133628E+02  0.22502945865E+03  0.17300000000E+03 0.  1.
         -6    1    1    2    0  503  0.85305851421E+01  0.13880866854E+03 -0.36290121314E+03  0.42540205435E+03  0.17300000000E+03 0.  1.
<mgrwt>
<rscale>  2 0.22196760E+03</rscale>
<asrwt>0</asrwt>
<pdfrwt beam="1">  1       21 0.24963495E-01 0.22196760E+03</pdfrwt>
<pdfrwt beam="2">  1       21 0.75102891E-01 0.22196760E+03</pdfrwt>
<totfact> 0.23679148E+04</totfact>
</mgrwt>
</event>
<event>
 4    3  0.4041078E+000  0.1954534E+03  0.7546771E-02  0.1153633E+00
         21   -1    0    0  501  502  0.00000000000E+00  0.00000000000E+00  0.13480018829E+04  0.13480018829E+04  0.00000000000E+00 0.  1.
         21   -1    0    0  502  503 -0.00000000000E+00 -0.00000000000E+00 -0.29250368173E+02  0.29250368173E+02  0.00000000000E+00 0.  1.
          6    1    1    2  501    0 -0.88043682866E+02  0.22832935968E+02  0.53787287868E+03  0.57228425339E+03  0.17300000000E+03 0.  1.
         -6    1    1    2    0  503  0.88043682866E+02 -0.22832935968E+02  0.78087863601E+03  0.80496799765E+03  0.17300000000E+03 0.  1.
<mgrwt>
<rscale>  2 0.19545340E+03</rscale>
<asrwt>0</asrwt>
<pdfrwt beam="1">  1       21 0.20738486E+00 0.19545340E+03</pdfrwt>
<pdfrwt beam="2">  1       21 0.45000577E-02 0.19545340E+03</pdfrwt>
<totfact> 0.38661607E+04</totfact>
</mgrwt>
</event>
<event>
 4    3  0.4041078E+000  0.2022857E+03  0.7546771E-02  0.1147825E+00
         21   -1    0    0  501  502  0.00000000000E+00  0.00000000000E+00  0.40065039140E+02  0.40065039140E+02  0.00000000000E+00 0. -1.
         21   -1    0    0  502  503 -0.00000000000E+00 -0.00000000000E+00 -0.10973455283E+04  0.10973455283E+04  0.00000000000E+00 0. -1.
          6    1    1    2  501    0 -0.67329915686E+02 -0.80356542157E+02 -0.37895591064E+03  0.42956614580E+03  0.17300000000E+03 0. -1.
         -6    1    1    2    0  503  0.67329915686E+02  0.80356542157E+02 -0.67832457853E+03  0.70784442164E+03  0.17300000000E+03 0. -1.
<mgrwt>
<rscale>  2 0.20228567E+03</rscale>
<asrwt>0</asrwt>
<pdfrwt beam="1">  1       21 0.61638512E-02 0.20228567E+03</pdfrwt>
<pdfrwt beam="2">  1       21 0.16882241E+00 0.20228567E+03</pdfrwt>
<totfact> 0.40706976E+04</totfact>
</mgrwt>
</event>
<event>
 4    3  0.4041078E+000  0.2568698E+03  0.7546771E-02  0.1109039E+00
         21   -1    0    0  501  502  0.00000000000E+00  0.00000000000E+00  0.11443918770E+04  0.11443918770E+04  0.00000000000E+00 0. -1.
         21   -1    0    0  502  503 -0.00000000000E+00 -0.00000000000E+00 -0.66886356196E+02  0.66886356196E+02  0.00000000000E+00 0.  1.
          6    1    1    2  501    0 -0.15717818540E+03  0.10652748978E+03  0.31377830746E+03  0.40551068331E+03  0.17300000000E+03 0.  1.
         -6    1    1    2    0  503  0.15717818540E+03 -0.10652748978E+03  0.76372721334E+03  0.80576754988E+03  0.17300000000E+03 0. -1.
<mgrwt>
<rscale>  2 0.25686979E+03</rscale>
<asrwt>0</asrwt>
<pdfrwt beam="1">  1       21 0.17606027E+00 0.25686979E+03</pdfrwt>
<pdfrwt beam="2">  1       21 0.10290209E-01 0.25686979E+03</pdfrwt>
<totfact> 0.14306642E+04</totfact>
</mgrwt>
</event>
<event>
 4    3  0.4041078E+000  0.1973153E+03  0.7546771E-02  0.1152024E+00
         21   -1    0    0  503  502  0.00000000000E+00  0.00000000000E+00  0.24492885909E+02  0.24492885909E+02  0.00000000000E+00 0.  1.
         21   -1    0    0  501  503 -0.00000000000E+00 -0.00000000000E+00 -0.15955535567E+04  0.15955535567E+04  0.00000000000E+00 0.  1.
          6    1    1    2  501    0  0.73133949122E+02 -0.60462799088E+02 -0.83510645295E+03  0.85810029271E+03  0.17300000000E+03 0.  1.
         -6    1    1    2    0  502 -0.73133949122E+02  0.60462799088E+02 -0.73595421780E+03  0.76194614986E+03  0.17300000000E+03 0.  1.
<mgrwt>
<rscale>  2 0.19731529E+03</rscale>
<asrwt>0</asrwt>
<pdfrwt beam="1">  1       21 0.37681354E-02 0.19731529E+03</pdfrwt>
<pdfrwt beam="2">  1       21 0.24546983E+00 0.19731529E+03</pdfrwt>
<totfact> 0.30505117E+04</totfact>
</mgrwt>
</event>
<event>
 4    3  0.4041078E+000  0.2248584E+03  0.7546771E-02  0.1130312E+00
         21   -1    0    0  503  502  0.00000000000E+00  0.00000000000E+00  0.75891456625E+02  0.75891456625E+02  0.00000000000E+00 0.  1.
         21   -1    0    0  501  503 -0.00000000000E+00 -0.00000000000E+00 -0.70387197034E+03  0.70387197034E+03  0.00000000000E+00 0.  1.
          6    1    1    2  501    0 -0.14181237970E+03  0.22837711505E+02 -0.22383085251E+03  0.31727206407E+03  0.17300000000E+03 0.  1.
         -6    1    1    2    0  502  0.14181237970E+03 -0.22837711505E+02 -0.40414966120E+03  0.46249136289E+03  0.17300000000E+03 0.  1.
<mgrwt>
<rscale>  2 0.22485843E+03</rscale>
<asrwt>0</asrwt>
<pdfrwt beam="1">  1       21 0.11675608E-01 0.22485843E+03</pdfrwt>
<pdfrwt beam="2">  1       21 0.10828800E+00 0.22485843E+03</pdfrwt>
<totfact> 0.41107340E+04</totfact>
</mgrwt>
</event>
<event>
 4    3  0.4041078E+000  0.2423692E+03  0.7546771E-02  0.1118225E+00
         21   -1    0    0  501  502  0.00000000000E+00  0.00000000000E+00  0.37515486975E+03  0.37515486975E+03  0.00000000000E+00 0. -1.
         21   -1    0    0  502  503 -0.00000000000E+00 -0.00000000000E+00 -0.26597311996E+03  0.26597311996E+03  0.00000000000E+00 0. -1.
          6    1    1    2  501    0  0.10599653360E+02  0.16941514909E+03  0.26017286864E+03  0.35557385586E+03  0.17300000000E+03 0. -1.
         -6    1    1    2    0  503 -0.10599653360E+02 -0.16941514909E+03 -0.15099111884E+03  0.28555413385E+03  0.17300000000E+03 0. -1.
<mgrwt>
<rscale>  2 0.24236923E+03</rscale>
<asrwt>0</asrwt>
<pdfrwt beam="1">  1       21 0.57716133E-01 0.24236923E+03</pdfrwt>
<pdfrwt beam="2">  1       21 0.40918942E-01 0.24236923E+03</pdfrwt>
<totfact> 0.15736127E+04</totfact>
</mgrwt>
</event>
<event>
 4    3  0.4041078E+000  0.2809288E+03  0.7546771E-02  0.1095183E+00
         21   -1    0    0  503  502  0.00000000000E+00  0.00000000000E+00  0.20812392467E+03  0.20812392467E+03  0.00000000000E+00 0.  1.
         21   -1    0    0  501  503 -0.00000000000E+00 -0.00000000000E+00 -0.54958946620E+03  0.54958946620E+03  0.00000000000E+00 0. -1.
          6    1    1    2  501    0 -0.12794194669E+03 -0.18061802266E+03 -0.38168036099E+03  0.47392078431E+03  0.17300000000E+03 0. -1.
         -6    1    1    2    0  502  0.12794194669E+03  0.18061802266E+03  0.40214819466E+02  0.28379260656E+03  0.17300000000E+03 0. -1.
<mgrwt>
<rscale>  2 0.28092884E+03</rscale>
<asrwt>0</asrwt>
<pdfrwt beam="1">  1       21 0.32019066E-01 0.28092884E+03</pdfrwt>
<pdfrwt beam="2">  1       21 0.84552224E-01 0.28092884E+03</pdfrwt>
<totfact> 0.10807203E+04</totfact>
</mgrwt>
</event>
<event>
 4    3  0.4041078E+000  0.1785607E+03  0.7546771E-02  0.1169203E+00
         21   -1    0    0  501  502  0.00000000000E+00  0.00000000000E+00  0.46385401763E+03  0.46385401763E+03  0.00000000000E+00 0.  1.
         21   -1    0    0  502  503 -0.00000000000E+00 -0.00000000000E+00 -0.13057478191E+03  0.13057478191E+03  0.00000000000E+00 0.  1.
          6    1    1    2  501    0  0.31634734032E+02 -0.30889834568E+02  0.37117436985E+03  0.41189118843E+03  0.17300000000E+03 0.  1.
         -6    1    1    2    0  503 -0.31634734032E+02  0.30889834568E+02 -0.37895134134E+02  0.18253761111E+03  0.17300000000E+03 0.  1.
<mgrwt>
<rscale>  2 0.17856074E+03</rscale>
<asrwt>0</asrwt>
<pdfrwt beam="1">  1       21 0.71362156E-01 0.17856074E+03</pdfrwt>
<pdfrwt beam="2">  1       21 0.20088428E-01 0.17856074E+03</pdfrwt>
<totfact> 0.40943574E+04</totfact>
</mgrwt>
</event>
<event>
 4    3  0.4041078E+000  0.1765181E+03  0.7546771E-02  0.1171216E+00
         21   -1    0    0  503  502  0.00000000000E+00  0.00000000000E+00  0.86110736648E+03  0.86110736648E+03  0.00000000000E+00 0.  1.
         21   -1    0    0  501  503 -0.00000000000E+00 -0.00000000000E+00 -0.87669916047E+02  0.87669916047E+02  0.00000000000E+00 0.  1.
          6    1    1    2  501    0 -0.31004329139E+02 -0.16382554806E+02  0.23179308469E+02  0.17803352737E+03  0.17300000000E+03 0.  1.
         -6    1    1    2    0  502  0.31004329139E+02  0.16382554806E+02  0.75025814196E+03  0.77074375515E+03  0.17300000000E+03 0.  1.
<mgrwt>
<rscale>  2 0.17651815E+03</rscale>
<asrwt>0</asrwt>
<pdfrwt beam="1">  1       21 0.13247805E+00 0.17651815E+03</pdfrwt>
<pdfrwt beam="2">  1       21 0.13487680E-01 0.17651815E+03</pdfrwt>
<totfact> 0.19811213E+04</totfact>
</mgrwt>
</event>
<event>
 4    3  0.4041078E+000  0.1791617E+03  0.7546771E-02  0.1168617E+00
         21   -1    0    0  503  502  0.00000000000E+00  0.00000000000E+00  0.21406077535E+03  0.21406077535E+03  0.00000000000E+00 0. -1.
         21   -1    0    0  501  503 -0.00000000000E+00 -0.00000000000E+00 -0.15706938854E+03  0.15706938854E+03  0.00000000000E+00 0. -1.
          6    1    1    2  501    0 -0.35787948723E+02 -0.29818623511E+02  0.67995824133E+02  0.19163079001E+03  0.17300000000E+03 0. -1.
         -6    1    1    2    0  502  0.35787948723E+02  0.29818623511E+02 -0.11004437324E+02  0.17949937388E+03  0.17300000000E+03 0. -1.
<mgrwt>
<rscale>  2 0.17916174E+03</rscale>
<asrwt>0</asrwt>
<pdfrwt beam="1">  1       21 0.32932427E-01 0.17916174E+03</pdfrwt>
<pdfrwt beam="2">  1       21 0.24164521E-01 0.17916174E+03</pdfrwt>
<totfact> 0.14407955E+05</totfact>
</mgrwt>
</event>
<event>
 4    3  0.4041078E+000  0.1820782E+03  0.7546771E-02  0.1165807E+00
         21   -1    0    0  501  502  0.00000000000E+00  0.00000000000E+00  0.10635440106E+03  0.10635440106E+03  0.00000000000E+00 0.  1.
         21   -1    0    0  502  503 -0.00000000000E+00 -0.00000000000E+00 -0.38910276422E+03  0.38910276422E+03  0.00000000000E+00 0.  1.
          6    1    1    2  501    0  0.12045089382E+02 -0.55483281678E+02 -0.30896539862E+02  0.18468100850E+03  0.17300000000E+03 0.  1.
         -6    1    1    2    0  503 -0.12045089382E+02  0.55483281678E+02 -0.25185182330E+03  0.31077615678E+03  0.17300000000E+03 0.  1.
<mgrwt>
<rscale>  2 0.18207822E+03</rscale>
<asrwt>0</asrwt>
<pdfrwt beam="1">  1       21 0.16362216E-01 0.18207822E+03</pdfrwt>
<pdfrwt beam="2">  1       21 0.59861964E-01 0.18207822E+03</pdfrwt>
<totfact> 0.87517975E+04</totfact>
</mgrwt>
</event>
<event>
 4    3  0.4041078E+000  0.1932727E+03  0.7546771E-02  0.1155542E+00
         21   -1    0    0  501  502  0.00000000000E+00  0.00000000000E+00  0.43503773718E+03  0.43503773718E+03  0.00000000000E+00 0. -1.
         21   -1    0    0  502  503 -0.00000000000E+00 -0.00000000000E+00 -0.19005935838E+03  0.19005935838E+03  0.00000000000E+00 0. -1.
          6    1    1    2  501    0 -0.80824516732E+02 -0.29878657640E+02  0.35390648496E+03  0.40324203252E+03  0.17300000000E+03 0. -1.
         -6    1    1    2    0  503  0.80824516732E+02  0.29878657640E+02 -0.10892810616E+03  0.22185506305E+03  0.17300000000E+03 0. -1.
<mgrwt>
<rscale>  2 0.19327270E+03</rscale>
<asrwt>0</asrwt>
<pdfrwt beam="1">  1       21 0.66928882E-01 0.19327270E+03</pdfrwt>
<pdfrwt beam="2">  1       21 0.29239901E-01 0.19327270E+03</pdfrwt>
<totfact> 0.22898689E+04</totfact>
</mgrwt>
</event>
<event>
 4    3  0.4041078E+000  0.1825742E+03  0.7546771E-02  0.1165335E+00
         21   -1    0    0  503  502  0.00000000000E+00  0.00000000000E+00  0.94790808991E+03  0.94790808991E+03  0.00000000000E+00 0. -1.
         21   -1    0    0  501  503 -0.00000000000E+00 -0.00000000000E+00 -0.52127551961E+02  0.52127551961E+02  0.00000000000E+00 0. -1.
          6    1    1    2  501    0  0.52390425840E+02  0.25682495702E+02  0.16266022950E+03  0.24452340903E+03  0.17300000000E+03 0. -1.
         -6    1    1    2    0  502 -0.52390425840E+02 -0.25682495702E+02  0.73312030845E+03  0.75551223284E+03  0.17300000000E+03 0. -1.
<mgrwt>
<rscale>  2 0.18257422E+03</rscale>
<asrwt>0</asrwt>
<pdfrwt beam="1">  1       21 0.14583200E+00 0.18257422E+03</pdfrwt>
<pdfrwt beam="2">  1       21 0.80196240E-02 0.18257422E+03</pdfrwt>
<totfact> 0.38682679E+04</totfact>
</mgrwt>
</event>
<event>
 4    3  0.4041078E+000  0.2085434E+03  0.7546771E-02  0.1142725E+00
         21   -1    0    0  501  502  0.00000000000E+00  0.00000000000E+00  0.21553601148E+03  0.21553601148E+03  0.00000000000E+00 0. -1.
         21   -1    0    0  502  503 -0.00000000000E+00 -0.00000000000E+00 -0.20335292303E+03  0.20335292303E+03  0.00000000000E+00 0. -1.
          6    1    1    2  501    0  0.10688334051E+03 -0.46230969728E+02  0.24525598592E+02  0.20998060869E+03  0.17300000000E+03 0. -1.
         -6    1    1    2    0  503 -0.10688334051E+03  0.46230969728E+02 -0.12342510150E+02  0.20890832582E+03  0.17300000000E+03 0. -1.
<mgrwt>
<rscale>  2 0.20854340E+03</rscale>
<asrwt>0</asrwt>
<pdfrwt beam="1">  1       21 0.33159387E-01 0.20854340E+03</pdfrwt>
<pdfrwt beam="2">  1       21 0.31285065E-01 0.20854340E+03</pdfrwt>
<totfact> 0.85404135E+04</totfact>
</mgrwt>
</event>
<event>
 4    3  0.4041078E+000  0.2813547E+03  0.7546771E-02  0.1094951E+00
         21   -1    0    0  501  502  0.00000000000E+00  0.00000000000E+00  0.53078045755E+03  0.53078045755E+03  0.00000000000E+00 0. -1.
         21   -1    0    0  502  503 -0.00000000000E+00 -0.00000000000E+00 -0.24674786319E+03  0.24674786319E+03  0.00000000000E+00 0.  1.
          6    1    1    2  501    0  0.16225367153E+02  0.22128759737E+03  0.38652959652E+03  0.47808533995E+03  0.17300000000E+03 0. -1.
         -6    1    1    2    0  503 -0.16225367153E+02 -0.22128759737E+03 -0.10249700216E+03  0.29944298078E+03  0.17300000000E+03 0.  1.
<mgrwt>
<rscale>  2 0.28135469E+03</rscale>
<asrwt>0</asrwt>
<pdfrwt beam="1">  1       21 0.81658532E-01 0.28135469E+03</pdfrwt>
<pdfrwt beam="2">  1       21 0.37961210E-01 0.28135469E+03</pdfrwt>
<totfact> 0.83253080E+03</totfact>
</mgrwt>
</event>
<event>
 4    3  0.4041078E+000  0.2699373E+03  0.7546771E-02  0.1101316E+00
         21   -1    0    0  501  502  0.00000000000E+00  0.00000000000E+00  0.13455589728E+03  0.13455589728E+03  0.00000000000E+00 0.  1.
         21   -1    0    0  502  503 -0.00000000000E+00 -0.00000000000E+00 -0.78566556726E+03  0.78566556726E+03  0.00000000000E+00 0.  1.
          6    1    1    2  501    0  0.56973181773E+02  0.19922649386E+03 -0.69071900457E+02  0.27863428851E+03  0.17300000000E+03 0.  1.
         -6    1    1    2    0  503 -0.56973181773E+02 -0.19922649386E+03 -0.58203776952E+03  0.64158717603E+03  0.17300000000E+03 0.  1.
<mgrwt>
<rscale>  2 0.26993729E+03</rscale>
<asrwt>0</asrwt>
<pdfrwt beam="1">  1       21 0.20700908E-01 0.26993729E+03</pdfrwt>
<pdfrwt beam="2">  1       21 0.12087162E+00 0.26993729E+03</pdfrwt>
<totfact> 0.10701062E+04</totfact>
</mgrwt>
</event>
<event>
 4    3  0.4041078E+000  0.1814674E+03  0.7546771E-02  0.1166390E+00
         21   -1    0    0  503  502  0.00000000000E+00  0.00000000000E+00  0.12071292147E+03  0.12071292147E+03  0.00000000000E+00 0.  1.
         21   -1    0    0  501  503 -0.00000000000E+00 -0.00000000000E+00 -0.27283410328E+03  0.27283410328E+03  0.00000000000E+00 0.  1.
          6    1    1    2  501    0 -0.33492012709E+01  0.54682657424E+02 -0.78280451540E+02  0.19763157457E+03  0.17300000000E+03 0. -1.
         -6    1    1    2    0  502  0.33492012709E+01 -0.54682657424E+02 -0.73840730272E+02  0.19591545018E+03  0.17300000000E+03 0. -1.
<mgrwt>
<rscale>  2 0.18146738E+03</rscale>
<asrwt>0</asrwt>
<pdfrwt beam="1">  1       21 0.18571219E-01 0.18146738E+03</pdfrwt>
<pdfrwt beam="2">  1       21 0.41974477E-01 0.18146738E+03</pdfrwt>
<totfact> 0.14528652E+05</totfact>
</mgrwt>
</event>
<event>
 4    3  0.4041078E+000  0.4215729E+03  0.7546771E-02  0.1036556E+00
         21   -1    0    0  503  502  0.00000000000E+00  0.00000000000E+00  0.20868066927E+03  0.20868066927E+03  0.00000000000E+00 0.  1.
         21   -1    0    0  501  503 -0.00000000000E+00 -0.00000000000E+00 -0.86815621469E+03  0.86815621469E+03  0.00000000000E+00 0. -1.
          6    1    1    2  501    0  0.11737484215E+03 -0.36608453874E+03 -0.25550578805E+03  0.49295735191E+03  0.17300000000E+03 0.  1.
         -6    1    1    2    0  502 -0.11737484215E+03  0.36608453874E+03 -0.40396975737E+03  0.58387953205E+03  0.17300000000E+03 0. -1.
<mgrwt>
<rscale>  2 0.42157294E+03</rscale>
<asrwt>0</asrwt>
<pdfrwt beam="1">  1       21 0.32104719E-01 0.42157294E+03</pdfrwt>
<pdfrwt beam="2">  1       21 0.13356249E+00 0.42157294E+03</pdfrwt>
<totfact> 0.33010837E+03</totfact>
</mgrwt>
</event>
<event>
 4    3  0.4041078E+000  0.2425287E+03  0.7546771E-02  0.1118120E+00
         21   -1    0    0  501  502  0.00000000000E+00  0.00000000000E+00  0.10199743209E+03  0.10199743209E+03  0.00000000000E+00 0.  1.
         21   -1    0    0  502  503 -0.00000000000E+00 -0.00000000000E+00 -0.60480841912E+03  0.60480841912E+03  0.00000000000E+00 0.  1.
          6    1    1    2  501    0  0.16490694547E+03 -0.41193354988E+02 -0.17519581668E+03  0.29918851472E+03  0.17300000000E+03 0.  1.
         -6    1    1    2    0  503 -0.16490694547E+03  0.41193354988E+02 -0.32761517035E+03  0.40761733648E+03  0.17300000000E+03 0.  1.
<mgrwt>
<rscale>  2 0.24252875E+03</rscale>
<asrwt>0</asrwt>
<pdfrwt beam="1">  1       21 0.15691913E-01 0.24252875E+03</pdfrwt>
<pdfrwt beam="2">  1       21 0.93047448E-01 0.24252875E+03</pdfrwt>
<totfact> 0.34249239E+04</totfact>
</mgrwt>
</event>
<event>
 4    3  0.4041078E+000  0.1798401E+03  0.7546771E-02  0.1167958E+00
         21   -1    0    0  501  502  0.00000000000E+00  0.00000000000E+00  0.82754874379E+03  0.82754874379E+03  0.00000000000E+00 0.  1.
         21   -1    0    0  502  503 -0.00000000000E+00 -0.00000000000E+00 -0.48410429213E+02  0.48410429213E+02  0.00000000000E+00 0.  1.
          6    1    1    2  501    0  0.46595485975E+02 -0.15566956429E+02  0.58182642740E+03  0.60898642108E+03  0.17300000000E+03 0.  1.
         -6    1    1    2    0  503 -0.46595485975E+02  0.15566956429E+02  0.19731188718E+03  0.26697275192E+03  0.17300000000E+03 0.  1.
<mgrwt>
<rscale>  2 0.17984012E+03</rscale>
<asrwt>0</asrwt>
<pdfrwt beam="1">  1       21 0.12731518E+00 0.17984012E+03</pdfrwt>
<pdfrwt beam="2">  1       21 0.74477590E-02 0.17984012E+03</pdfrwt>
<totfact> 0.62301225E+04</totfact>
</mgrwt>
</event>
<event>
 4    3  0.4041078E+000  0.1985049E+03  0.7546771E-02  0.1151007E+00
         21   -1    0    0  501  502  0.00000000000E+00  0.00000000000E+00  0.20787044307E+03  0.20787044307E+03  0.00000000000E+00 0.  1.
         21   -1    0    0  502  503 -0.00000000000E+00 -0.00000000000E+00 -0.20413524814E+03  0.20413524814E+03  0.00000000000E+00 0.  1.
          6    1    1    2  501    0  0.67084710274E+02 -0.70532387320E+02  0.56910830289E+02  0.20650186105E+03  0.17300000000E+03 0.  1.
         -6    1    1    2    0  503 -0.67084710274E+02  0.70532387320E+02 -0.53175635353E+02  0.20550383016E+03  0.17300000000E+03 0.  1.
<mgrwt>
<rscale>  2 0.19850485E+03</rscale>
<asrwt>0</asrwt>
<pdfrwt beam="1">  1       21 0.31980068E-01 0.19850485E+03</pdfrwt>
<pdfrwt beam="2">  1       21 0.31405423E-01 0.19850485E+03</pdfrwt>
<totfact> 0.91412224E+04</totfact>
</mgrwt>
</event>
<event>
 4    3  0.4041078E+000  0.1908718E+03  0.7546771E-02  0.1157677E+00
         21   -1    0    0  501  502  0.00000000000E+00  0.00000000000E+00  0.32186820511E+02  0.32186820511E+02  0.00000000000E+00 0. -1.
         21   -1    0    0  502  503 -0.00000000000E+00 -0.00000000000E+00 -0.11505259393E+04  0.11505259393E+04  0.00000000000E+00 0. -1.
          6    1    1    2  501    0 -0.19890200230E+02 -0.78149908955E+02 -0.63442620201E+03  0.66251689347E+03  0.17300000000E+03 0. -1.
         -6    1    1    2    0  503  0.19890200230E+02  0.78149908955E+02 -0.48391291681E+03  0.52019586637E+03  0.17300000000E+03 0. -1.
<mgrwt>
<rscale>  2 0.19087176E+03</rscale>
<asrwt>0</asrwt>
<pdfrwt beam="1">  1       21 0.49518183E-02 0.19087176E+03</pdfrwt>
<pdfrwt beam="2">  1       21 0.17700400E+00 0.19087176E+03</pdfrwt>
<totfact> 0.52216115E+04</totfact>
</mgrwt>
</event>
<event>
 4    3  0.4041078E+000  0.2724305E+03  0.7546771E-02  0.1099897E+00
         21   -1    0    0  503  502  0.00000000000E+00  0.00000000000E+00  0.14072726448E+03  0.14072726448E+03  0.00000000000E+00 0. -1.
         21   -1    0    0  501  503 -0.00000000000E+00 -0.00000000000E+00 -0.12394726399E+04  0.12394726399E+04  0.00000000000E+00 0. -1.
          6    1    1    2  501    0  0.13468710139E+03 -0.16170576281E+03 -0.10724408107E+04  0.11065024453E+04  0.17300000000E+03 0. -1.
         -6    1    1    2    0  502 -0.13468710139E+03  0.16170576281E+03 -0.26304564771E+02  0.27369745913E+03  0.17300000000E+03 0. -1.
<mgrwt>
<rscale>  2 0.27243048E+03</rscale>
<asrwt>0</asrwt>
<pdfrwt beam="1">  1       21 0.21650348E-01 0.27243048E+03</pdfrwt>
<pdfrwt beam="2">  1       21 0.19068810E+00 0.27243048E+03</pdfrwt>
<totfact> 0.28736697E+03</totfact>
</mgrwt>
</event>
<event>
 4    3  0.4041078E+000  0.2545320E+03  0.7546771E-02  0.1110474E+00
         21   -1    0    0  501  502  0.00000000000E+00  0.00000000000E+00  0.36212371576E+03  0.36212371576E+03  0.00000000000E+00 0.  1.
         21   -1    0    0  502  503 -0.00000000000E+00 -0.00000000000E+00 -0.20058560004E+03  0.20058560004E+03  0.00000000000E+00 0. -1.
          6    1    1    2  501    0  0.15540959476E+03 -0.10346688077E+03  0.17326398513E+03  0.30790736611E+03  0.17300000000E+03 0.  1.
         -6    1    1    2    0  503 -0.15540959476E+03  0.10346688077E+03 -0.11725869407E+02  0.25480194970E+03  0.17300000000E+03 0.  1.
<mgrwt>
<rscale>  2 0.25453200E+03</rscale>
<asrwt>0</asrwt>
<pdfrwt beam="1">  1       21 0.55711341E-01 0.25453200E+03</pdfrwt>
<pdfrwt beam="2">  1       21 0.30859323E-01 0.25453200E+03</pdfrwt>
<totfact> 0.29683060E+04</totfact>
</mgrwt>
</event>
<event>
 4    3  0.4041078E+000  0.1813925E+03  0.7546771E-02  0.1166462E+00
         21   -1    0    0  503  502  0.00000000000E+00  0.00000000000E+00  0.70993234041E+03  0.70993234041E+03  0.00000000000E+00 0. -1.
         21   -1    0    0  501  503 -0.00000000000E+00 -0.00000000000E+00 -0.13290236935E+03  0.13290236935E+03  0.00000000000E+00 0. -1.
          6    1    1    2  501    0  0.29537549255E+02 -0.45844915834E+02 -0.51574418532E+02  0.18858192854E+03  0.17300000000E+03 0. -1.
         -6    1    1    2    0  502 -0.29537549255E+02  0.45844915834E+02  0.62860438960E+03  0.65425278123E+03  0.17300000000E+03 0. -1.
<mgrwt>
<rscale>  2 0.18139246E+03</rscale>
<asrwt>0</asrwt>
<pdfrwt beam="1">  1       21 0.10922036E+00 0.18139246E+03</pdfrwt>
<pdfrwt beam="2">  1       21 0.20446519E-01 0.18139246E+03</pdfrwt>
<totfact> 0.14827599E+04</totfact>
</mgrwt>
</event>
<event>
 4    3  0.4041078E+000  0.1961739E+03  0.7546771E-02  0.1153008E+00
         21   -1    0    0  503  502  0.00000000000E+00  0.00000000000E+00  0.13234315277E+04  0.13234315277E+04  0.00000000000E+00 0. -1.
         21   -1    0    0  501  503 -0.00000000000E+00 -0.00000000000E+00 -0.37725556874E+02  0.37725556874E+02  0.00000000000E+00 0. -1.
          6    1    1    2  501    0 -0.40148833011E+02  0.83326272951E+02  0.31703163833E+03  0.37281799347E+03  0.17300000000E+03 0. -1.
         -6    1    1    2    0  502  0.40148833011E+02 -0.83326272951E+02  0.96867433247E+03  0.98833909107E+03  0.17300000000E+03 0. -1.
<mgrwt>
<rscale>  2 0.19617389E+03</rscale>
<asrwt>0</asrwt>
<pdfrwt beam="1">  1       21 0.20360481E+00 0.19617389E+03</pdfrwt>
<pdfrwt beam="2">  1       21 0.58039329E-02 0.19617389E+03</pdfrwt>
<totfact> 0.26506754E+04</totfact>
</mgrwt>
</event>
<event>
 4    3  0.4041078E+000  0.1908162E+03  0.7546771E-02  0.1157727E+00
         21   -1    0    0  501  502  0.00000000000E+00  0.00000000000E+00  0.32178574022E+02  0.32178574022E+02  0.00000000000E+00 0. -1.
         21   -1    0    0  502  503 -0.00000000000E+00 -0.00000000000E+00 -0.25512555505E+04  0.25512555505E+04  0.00000000000E+00 0. -1.
          6    1    1    2  501    0  0.15508685082E+02 -0.79001858320E+02 -0.29594555316E+03  0.35212864605E+03  0.17300000000E+03 0. -1.
         -6    1    1    2    0  503 -0.15508685082E+02  0.79001858320E+02 -0.22231314234E+04  0.22313054785E+04  0.17300000000E+03 0. -1.
<mgrwt>
<rscale>  2 0.19081618E+03</rscale>
<asrwt>0</asrwt>
<pdfrwt beam="1">  1       21 0.49505483E-02 0.19081618E+03</pdfrwt>
<pdfrwt beam="2">  1       21 0.39250098E+00 0.19081618E+03</pdfrwt>
<totfact> 0.26592292E+03</totfact>
</mgrwt>
</event>
<event>
 4    3  0.4041078E+000  0.1866661E+03  0.7546771E-02  0.1161503E+00
         21   -1    0    0  501  502  0.00000000000E+00  0.00000000000E+00  0.34687335952E+03  0.34687335952E+03  0.00000000000E+00 0. -1.
         21   -1    0    0  502  503 -0.00000000000E+00 -0.00000000000E+00 -0.15579187021E+03  0.15579187021E+03  0.00000000000E+00 0. -1.
          6    1    1    2  501    0 -0.66142193578E+02  0.23247522966E+02  0.24533467925E+03  0.30827478317E+03  0.17300000000E+03 0. -1.
         -6    1    1    2    0  503  0.66142193578E+02 -0.23247522966E+02 -0.54253189937E+02  0.19439044656E+03  0.17300000000E+03 0. -1.
<mgrwt>
<rscale>  2 0.18666611E+03</rscale>
<asrwt>0</asrwt>
<pdfrwt beam="1">  1       21 0.53365132E-01 0.18666611E+03</pdfrwt>
<pdfrwt beam="2">  1       21 0.23967980E-01 0.18666611E+03</pdfrwt>
<totfact> 0.54712714E+04</totfact>
</mgrwt>
</event>
<event>
 4    3  0.4041078E+000  0.2377084E+03  0.7546771E-02  0.1121329E+00
         21   -1    0    0  503  502  0.00000000000E+00  0.00000000000E+00  0.98089706925E+03  0.98089706925E+03  0.00000000000E+00 0. -1.
         21   -1    0    0  501  503 -0.00000000000E+00 -0.00000000000E+00 -0.75753524142E+02  0.75753524142E+02  0.00000000000E+00 0. -1.
          6    1    1    2  501    0 -0.17380949303E+01  0.16301301470E+03  0.19398146303E+03  0.30681276364E+03  0.17300000000E+03 0. -1.
         -6    1    1    2    0  502  0.17380949303E+01 -0.16301301470E+03  0.71116208208E+03  0.74983782975E+03  0.17300000000E+03 0. -1.
<mgrwt>
<rscale>  2 0.23770836E+03</rscale>
<asrwt>0</asrwt>
<pdfrwt beam="1">  1       21 0.15090723E+00 0.23770836E+03</pdfrwt>
<pdfrwt beam="2">  1       21 0.11654389E-01 0.23770836E+03</pdfrwt>
<totfact> 0.17669657E+04</totfact>
</mgrwt>
</event>
<event>
 4    3  0.4041078E+000  0.2093843E+03  0.7546771E-02  0.1142054E+00
         21   -1    0    0  503  502  0.00000000000E+00  0.00000000000E+00  0.24975831051E+03  0.24975831051E+03  0.00000000000E+00 0. -1.
         21   -1    0    0  501  503 -0.00000000000E+00 -0.00000000000E+00 -0.17614480616E+03  0.17614480616E+03  0.00000000000E+00 0.  1.
          6    1    1    2  501    0  0.55411939600E+02  0.10412645973E+03  0.49316822573E+02  0.21511381093E+03  0.17300000000E+03 0. -1.
         -6    1    1    2    0  502 -0.55411939600E+02 -0.10412645973E+03  0.24296681774E+02  0.21078930573E+03  0.17300000000E+03 0.  1.
<mgrwt>
<rscale>  2 0.20938434E+03</rscale>
<asrwt>0</asrwt>
<pdfrwt beam="1">  1       21 0.38424355E-01 0.20938434E+03</pdfrwt>
<pdfrwt beam="2">  1       21 0.27099201E-01 0.20938434E+03</pdfrwt>
<totfact> 0.84165930E+04</totfact>
</mgrwt>
</event>
<event>
 4    3  0.4041078E+000  0.1787143E+03  0.7546771E-02  0.1169053E+00
         21   -1    0    0  503  502  0.00000000000E+00  0.00000000000E+00  0.12523892849E+04  0.12523892849E+04  0.00000000000E+00 0. -1.
         21   -1    0    0  501  503 -0.00000000000E+00 -0.00000000000E+00 -0.35875331979E+02  0.35875331979E+02  0.00000000000E+00 0. -1.
          6    1    1    2  501    0 -0.13250610351E+02 -0.42827856553E+02  0.95461881167E+03  0.97120331525E+03  0.17300000000E+03 0. -1.
         -6    1    1    2    0  502  0.13250610351E+02  0.42827856553E+02  0.26189514122E+03  0.31706130159E+03  0.17300000000E+03 0. -1.
<mgrwt>
<rscale>  2 0.17871431E+03</rscale>
<asrwt>0</asrwt>
<pdfrwt beam="1">  1       21 0.19267524E+00 0.17871431E+03</pdfrwt>
<pdfrwt beam="2">  1       21 0.55192828E-02 0.17871431E+03</pdfrwt>
<totfact> 0.34391844E+04</totfact>
</mgrwt>
</event>
<event>
 4    3  0.4041078E+000  0.1779159E+03  0.7546771E-02  0.1169835E+00
         21   -1    0    0  501  502  0.00000000000E+00  0.00000000000E+00  0.59855990190E+02  0.59855990190E+02  0.00000000000E+00 0.  1.
         21   -1    0    0  502  503 -0.00000000000E+00 -0.00000000000E+00 -0.52955009215E+03  0.52955009215E+03  0.00000000000E+00 0.  1.
          6    1    1    2  501    0 -0.38999077048E+02  0.14287809928E+02 -0.24566057098E+03  0.30332026912E+03  0.17300000000E+03 0.  1.
         -6    1    1    2    0  503  0.38999077048E+02 -0.14287809928E+02 -0.22403353098E+03  0.28608581322E+03  0.17300000000E+03 0.  1.
<mgrwt>
<rscale>  2 0.17791591E+03</rscale>
<asrwt>0</asrwt>
<pdfrwt beam="1">  1       21 0.92086135E-02 0.17791591E+03</pdfrwt>
<pdfrwt beam="2">  1       21 0.81469248E-01 0.17791591E+03</pdfrwt>
<totfact> 0.12451534E+05</totfact>
</mgrwt>
</event>
<event>
 4    3  0.4041078E+000  0.2922242E+03  0.7546771E-02  0.1089194E+00
         21   -1    0    0  503  502  0.00000000000E+00  0.00000000000E+00  0.36139265965E+03  0.36139265965E+03  0.00000000000E+00 0. -1.
         21   -1    0    0  501  503 -0.00000000000E+00 -0.00000000000E+00 -0.27123180550E+03  0.27123180550E+03  0.00000000000E+00 0.  1.
          6    1    1    2  501    0  0.18503778273E+03  0.14569488183E+03 -0.68444809675E+02  0.30013275663E+03  0.17300000000E+03 0.  1.
         -6    1    1    2    0  502 -0.18503778273E+03 -0.14569488183E+03  0.15860566383E+03  0.33249170851E+03  0.17300000000E+03 0. -1.
<mgrwt>
<rscale>  2 0.29222419E+03</rscale>
<asrwt>0</asrwt>
<pdfrwt beam="1">  1       21 0.55598870E-01 0.29222419E+03</pdfrwt>
<pdfrwt beam="2">  1       21 0.41727970E-01 0.29222419E+03</pdfrwt>
<totfact> 0.15999324E+04</totfact>
</mgrwt>
</event>
<event>
 4    3  0.4041078E+000  0.3092040E+03  0.7546771E-02  0.1080728E+00
         21   -1    0    0  503  502  0.00000000000E+00  0.00000000000E+00  0.32747516546E+03  0.32747516546E+03  0.00000000000E+00 0. -1.
         21   -1    0    0  501  503 -0.00000000000E+00 -0.00000000000E+00 -0.94584551368E+03  0.94584551368E+03  0.00000000000E+00 0. -1.
          6    1    1    2  501    0  0.21224359257E+01 -0.25626863415E+03 -0.83854516945E+03  0.89373660481E+03  0.17300000000E+03 0. -1.
         -6    1    1    2    0  502 -0.21224359257E+01  0.25626863415E+03  0.22017482122E+03  0.37958407432E+03  0.17300000000E+03 0. -1.
<mgrwt>
<rscale>  2 0.30920401E+03</rscale>
<asrwt>0</asrwt>
<pdfrwt beam="1">  1       21 0.50380795E-01 0.30920401E+03</pdfrwt>
<pdfrwt beam="2">  1       21 0.14551469E+00 0.30920401E+03</pdfrwt>
<totfact> 0.11044665E+03</totfact>
</mgrwt>
</event>
<event>
 4    3  0.4041078E+000  0.1783938E+03  0.7546771E-02  0.1169367E+00
         21   -1    0    0  501  502  0.00000000000E+00  0.00000000000E+00  0.30236630899E+03  0.30236630899E+03  0.00000000000E+00 0. -1.
         21   -1    0    0  502  503 -0.00000000000E+00 -0.00000000000E+00 -0.10566390084E+03  0.10566390084E+03  0.00000000000E+00 0. -1.
          6    1    1    2  501    0 -0.41401884573E+02 -0.13462706499E+02  0.11110427309E+03  0.21016307956E+03  0.17300000000E+03 0. -1.
         -6    1    1    2    0  503  0.41401884573E+02  0.13462706499E+02  0.85598135069E+02  0.19786713027E+03  0.17300000000E+03 0. -1.
<mgrwt>
<rscale>  2 0.17839384E+03</rscale>
<asrwt>0</asrwt>
<pdfrwt beam="1">  1       21 0.46517894E-01 0.17839384E+03</pdfrwt>
<pdfrwt beam="2">  1       21 0.16255985E-01 0.17839384E+03</pdfrwt>
<totfact> 0.15059505E+05</totfact>
</mgrwt>
</event>
<event>
 4    3  0.4041078E+000  0.2359446E+03  0.7546771E-02  0.1122524E+00
         21   -1    0    0  501  502  0.00000000000E+00  0.00000000000E+00  0.64951515042E+03  0.64951515042E+03  0.00000000000E+00 0. -1.
         21   -1    0    0  502  503 -0.00000000000E+00 -0.00000000000E+00 -0.11949328316E+03  0.11949328316E+03  0.00000000000E+00 0. -1.
          6    1    1    2  501    0  0.12586367438E+03 -0.99494700425E+02  0.46945810869E+03  0.52541486062E+03  0.17300000000E+03 0. -1.
         -6    1    1    2    0  503 -0.12586367438E+03  0.99494700425E+02  0.60563758569E+02  0.24359357297E+03  0.17300000000E+03 0. -1.
<mgrwt>
<rscale>  2 0.23594461E+03</rscale>
<asrwt>0</asrwt>
<pdfrwt beam="1">  1       21 0.99925406E-01 0.23594461E+03</pdfrwt>
<pdfrwt beam="2">  1       21 0.18383582E-01 0.23594461E+03</pdfrwt>
<totfact> 0.21662039E+04</totfact>
</mgrwt>
</event>
<event>
 4    3  0.4041078E+000  0.2495827E+03  0.7546771E-02  0.1113569E+00
         21   -1    0    0  503  502  0.00000000000E+00  0.00000000000E+00  0.73847448136E+03  0.73847448136E+03  0.00000000000E+00 0. -1.
         21   -1    0    0  501  503 -0.00000000000E+00 -0.00000000000E+00 -0.85110595491E+02  0.85110595491E+02  0.00000000000E+00 0.  1.
          6    1    1    2  501    0 -0.16989961033E+03  0.59132481121E+02  0.36556827811E+03  0.44264172179E+03  0.17300000000E+03 0. -1.
         -6    1    1    2    0  502  0.16989961033E+03 -0.59132481121E+02  0.28779560776E+03  0.38094335506E+03  0.17300000000E+03 0.  1.
<mgrwt>
<rscale>  2 0.24958271E+03</rscale>
<asrwt>0</asrwt>
<pdfrwt beam="1">  1       21 0.11361145E+00 0.24958271E+03</pdfrwt>
<pdfrwt beam="2">  1       21 0.13093938E-01 0.24958271E+03</pdfrwt>
<totfact> 0.29392244E+04</totfact>
</mgrwt>
</event>
<event>
 4    3  0.4041078E+000  0.2007879E+03  0.7546771E-02  0.1149076E+00
         21   -1    0    0  501  502  0.00000000000E+00  0.00000000000E+00  0.13508809027E+04  0.13508809027E+04  0.00000000000E+00 0. -1.
         21   -1    0    0  502  503 -0.00000000000E+00 -0.00000000000E+00 -0.38222335223E+02  0.38222335223E+02  0.00000000000E+00 0. -1.
          6    1    1    2  501    0 -0.98653162803E+02  0.25579750158E+02  0.98150884561E+03  0.10018360066E+04  0.17300000000E+03 0. -1.
         -6    1    1    2    0  503  0.98653162803E+02 -0.25579750158E+02  0.33114972187E+03  0.38726723130E+03  0.17300000000E+03 0. -1.
<mgrwt>
<rscale>  2 0.20078787E+03</rscale>
<asrwt>0</asrwt>
<pdfrwt beam="1">  1       21 0.20782779E+00 0.20078787E+03</pdfrwt>
<pdfrwt beam="2">  1       21 0.58803603E-02 0.20078787E+03</pdfrwt>
<totfact> 0.24288816E+04</totfact>
</mgrwt>
</event>
<event>
 4    3  0.4041078E+000  0.1886155E+03  0.7546771E-02  0.1159716E+00
         21   -1    0    0  503  502  0.00000000000E+00  0.00000000000E+00  0.38138926520E+03  0.38138926520E+03  0.00000000000E+00 0.  1.
         21   -1    0    0  501  503 -0.00000000000E+00 -0.00000000000E+00 -0.10186589680E+03  0.10186589680E+03  0.00000000000E+00 0. -1.
          6    1    1    2  501    0  0.75103160813E+02 -0.25118410533E+01  0.69610022142E+02  0.20105061376E+03  0.17300000000E+03 0. -1.
         -6    1    1    2    0  502 -0.75103160813E+02  0.25118410533E+01  0.20991334626E+03  0.28220454824E+03  0.17300000000E+03 0.  1.
<mgrwt>
<rscale>  2 0.18861547E+03</rscale>
<asrwt>0</asrwt>
<pdfrwt beam="1">  1       21 0.58675271E-01 0.18861547E+03</pdfrwt>
<pdfrwt beam="2">  1       21 0.15671677E-01 0.18861547E+03</pdfrwt>
<totfact> 0.98595473E+04</totfact>
</mgrwt>
</event>
<event>
 4    3  0.4041078E+000  0.4356537E+03  0.7546771E-02  0.1032089E+00
         21   -1    0    0  501  502  0.00000000000E+00  0.00000000000E+00  0.23354759709E+04  0.23354759709E+04  0.00000000000E+00 0.  1.
         21   -1    0    0  502  503 -0.00000000000E+00 -0.00000000000E+00 -0.40452046171E+03  0.40452046171E+03  0.00000000000E+00 0. -1.
          6    1    1    2  501    0  0.37989501583E+03  0.12467920311E+03  0.21901565811E+04  0.22330651528E+04  0.17300000000E+03 0.  1.
         -6    1    1    2    0  503 -0.37989501583E+03 -0.12467920311E+03 -0.25920107195E+03  0.50693127980E+03  0.17300000000E+03 0. -1.
<mgrwt>
<rscale>  2 0.43565368E+03</rscale>
<asrwt>0</asrwt>
<pdfrwt beam="1">  1       21 0.35930399E+00 0.43565368E+03</pdfrwt>
<pdfrwt beam="2">  1       21 0.62233919E-01 0.43565368E+03</pdfrwt>
<totfact> 0.27613723E+01</totfact>
</mgrwt>
</event>
<event>
 4    3  0.4041078E+000  0.2302520E+03  0.7546771E-02  0.1126462E+00
         21   -1    0    0  501  502  0.00000000000E+00  0.00000000000E+00  0.32093111004E+02  0.32093111004E+02  0.00000000000E+00 0.  1.
         21   -1    0    0  502  503 -0.00000000000E+00 -0.00000000000E+00 -0.21053345943E+04  0.21053345943E+04  0.00000000000E+00 0. -1.
          6    1    1    2  501    0 -0.40730747342E+02 -0.14638309984E+03 -0.54067133582E+03  0.58765763764E+03  0.17300000000E+03 0.  1.
         -6    1    1    2    0  503  0.40730747342E+02  0.14638309984E+03 -0.15325701475E+04  0.15497700677E+04  0.17300000000E+03 0. -1.
<mgrwt>
<rscale>  2 0.23025205E+03</rscale>
<asrwt>0</asrwt>
<pdfrwt beam="1">  1       21 0.49374023E-02 0.23025205E+03</pdfrwt>
<pdfrwt beam="2">  1       21 0.32389759E+00 0.23025205E+03</pdfrwt>
<totfact> 0.65517408E+03</totfact>
</mgrwt>
</event>
<event>
 4    3  0.4041078E+000  0.1934028E+03  0.7546771E-02  0.1155428E+00
         21   -1    0    0  501  502  0.00000000000E+00  0.00000000000E+00  0.60383670649E+03  0.60383670649E+03  0.00000000000E+00 0. -1.
         21   -1    0    0  502  503 -0.00000000000E+00 -0.00000000000E+00 -0.64280891852E+02  0.64280891852E+02  0.00000000000E+00 0. -1.
          6    1    1    2  501    0  0.77282666862E+02 -0.38768913104E+02  0.33345925858E+03  0.38548633744E+03  0.17300000000E+03 0. -1.
         -6    1    1    2    0  503 -0.77282666862E+02  0.38768913104E+02  0.20609655606E+03  0.28263126090E+03  0.17300000000E+03 0. -1.
<mgrwt>
<rscale>  2 0.19340279E+03</rscale>
<asrwt>0</asrwt>
<pdfrwt beam="1">  1       21 0.92897951E-01 0.19340279E+03</pdfrwt>
<pdfrwt beam="2">  1       21 0.98893684E-02 0.19340279E+03</pdfrwt>
<totfact> 0.80750400E+04</totfact>
</mgrwt>
</event>
<event>
 4    3  0.4041078E+000  0.2569667E+03  0.7546771E-02  0.1108979E+00
         21   -1    0    0  503  502  0.00000000000E+00  0.00000000000E+00  0.16092876744E+04  0.16092876744E+04  0.00000000000E+00 0. -1.
         21   -1    0    0  501  503 -0.00000000000E+00 -0.00000000000E+00 -0.10470389745E+03  0.10470389745E+03  0.00000000000E+00 0.  1.
          6    1    1    2  501    0 -0.18917741761E+03 -0.17742720834E+02  0.83991074565E+02  0.27034496497E+03  0.17300000000E+03 0.  1.
         -6    1    1    2    0  502  0.18917741761E+03  0.17742720834E+02  0.14205927024E+04  0.14436466069E+04  0.17300000000E+03 0. -1.
<mgrwt>
<rscale>  2 0.25696673E+03</rscale>
<asrwt>0</asrwt>
<pdfrwt beam="1">  1       21 0.24758270E+00 0.25696673E+03</pdfrwt>
<pdfrwt beam="2">  1       21 0.16108293E-01 0.25696673E+03</pdfrwt>
<totfact> 0.22210684E+03</totfact>
</mgrwt>
</event>
<event>
 4    3  0.4041078E+000  0.2335695E+03  0.7546771E-02  0.1124152E+00
         21   -1    0    0  503  502  0.00000000000E+00  0.00000000000E+00  0.33429341181E+03  0.33429341181E+03  0.00000000000E+00 0.  1.
         21   -1    0    0  501  503 -0.00000000000E+00 -0.00000000000E+00 -0.33840398353E+03  0.33840398353E+03  0.00000000000E+00 0. -1.
          6    1    1    2  501    0  0.16569368657E+02 -0.15604865081E+03 -0.24407529314E+03  0.33782758046E+03  0.17300000000E+03 0. -1.
         -6    1    1    2    0  502 -0.16569368657E+02  0.15604865081E+03  0.23996472141E+03  0.33486981489E+03  0.17300000000E+03 0.  1.
<mgrwt>
<rscale>  2 0.23356953E+03</rscale>
<asrwt>0</asrwt>
<pdfrwt beam="1">  1       21 0.51429756E-01 0.23356953E+03</pdfrwt>
<pdfrwt beam="2">  1       21 0.52062151E-01 0.23356953E+03</pdfrwt>
<totfact> 0.12262554E+04</totfact>
</mgrwt>
</event>
<event>
 4    3  0.4041078E+000  0.1818409E+03  0.7546771E-02  0.1166033E+00
         21   -1    0    0  501  502  0.00000000000E+00  0.00000000000E+00  0.41047294610E+03  0.41047294610E+03  0.00000000000E+00 0. -1.
         21   -1    0    0  502  503 -0.00000000000E+00 -0.00000000000E+00 -0.91391293645E+02  0.91391293645E+02  0.00000000000E+00 0. -1.
          6    1    1    2  501    0  0.40867168380E+02  0.38301280030E+02  0.24594237105E+03  0.30586559692E+03  0.17300000000E+03 0.  1.
         -6    1    1    2    0  503 -0.40867168380E+02 -0.38301280030E+02  0.73139281404E+02  0.19599864282E+03  0.17300000000E+03 0.  1.
<mgrwt>
<rscale>  2 0.18184090E+03</rscale>
<asrwt>0</asrwt>
<pdfrwt beam="1">  1       21 0.63149683E-01 0.18184090E+03</pdfrwt>
<pdfrwt beam="2">  1       21 0.14060199E-01 0.18184090E+03</pdfrwt>
<totfact> 0.10280226E+05</totfact>
</mgrwt>
</event>
<event>
 4    3  0.4041078E+000  0.2208410E+03  0.7546771E-02  0.1133258E+00
         21   -1    0    0  503  502  0.00000000000E+00  0.00000000000E+00  0.49634462613E+02  0.49634462613E+02  0.00000000000E+00 0. -1.
         21   -1    0    0  501  503 -0.00000000000E+00 -0.00000000000E+00 -0.10542937971E+04  0.10542937971E+04  0.00000000000E+00 0. -1.
          6    1    1    2  501    0 -0.66589094909E+02 -0.12003186995E+03 -0.35839187938E+03  0.42096970980E+03  0.17300000000E+03 0. -1.
         -6    1    1    2    0  502  0.66589094909E+02  0.12003186995E+03 -0.64626745508E+03  0.68295854989E+03  0.17300000000E+03 0. -1.
<mgrwt>
<rscale>  2 0.22084102E+03</rscale>
<asrwt>0</asrwt>
<pdfrwt beam="1">  1       21 0.76360727E-02 0.22084102E+03</pdfrwt>
<pdfrwt beam="2">  1       21 0.16219901E+00 0.22084102E+03</pdfrwt>
<totfact> 0.31016090E+04</totfact>
</mgrwt>
</event>
<event>
 4    3  0.4041078E+000  0.1848939E+03  0.7546771E-02  0.1163149E+00
         21   -1    0    0  503  502  0.00000000000E+00  0.00000000000E+00  0.31369196520E+03  0.31369196520E+03  0.00000000000E+00 0.  1.
         21   -1    0    0  501  503 -0.00000000000E+00 -0.00000000000E+00 -0.16799154162E+03  0.16799154162E+03  0.00000000000E+00 0.  1.
          6    1    1    2  501    0  0.64915724570E+02  0.65347026558E+01 -0.69894887337E+02  0.19766397980E+03  0.17300000000E+03 0.  1.
         -6    1    1    2    0  502 -0.64915724570E+02 -0.65347026558E+01  0.21559531092E+03  0.28401952701E+03  0.17300000000E+03 0.  1.
<mgrwt>
<rscale>  2 0.18489390E+03</rscale>
<asrwt>0</asrwt>
<pdfrwt beam="1">  1       21 0.48260302E-01 0.18489390E+03</pdfrwt>
<pdfrwt beam="2">  1       21 0.25844853E-01 0.18489390E+03</pdfrwt>
<totfact> 0.58503413E+04</totfact>
</mgrwt>
</event>
<event>
 4    3  0.4041078E+000  0.2131335E+03  0.7546771E-02  0.1139108E+00
         21   -1    0    0  503  502  0.00000000000E+00  0.00000000000E+00  0.12643594372E+03  0.12643594372E+03  0.00000000000E+00 0.  1.
         21   -1    0    0  501  503 -0.00000000000E+00 -0.00000000000E+00 -0.10611984807E+04  0.10611984807E+04  0.00000000000E+00 0. -1.
          6    1    1    2  501    0 -0.45506339043E+02 -0.11587096747E+03 -0.95032641432E+03  0.97393336617E+03  0.17300000000E+03 0. -1.
         -6    1    1    2    0  502  0.45506339043E+02  0.11587096747E+03  0.15563877380E+02  0.21370105820E+03  0.17300000000E+03 0.  1.
<mgrwt>
<rscale>  2 0.21313354E+03</rscale>
<asrwt>0</asrwt>
<pdfrwt beam="1">  1       21 0.19451684E-01 0.21313354E+03</pdfrwt>
<pdfrwt beam="2">  1       21 0.16326130E+00 0.21313354E+03</pdfrwt>
<totfact> 0.56969217E+03</totfact>
</mgrwt>
</event>
<event>
 4    3  0.4041078E+000  0.2306457E+03  0.7546771E-02  0.1126186E+00
         21   -1    0    0  501  502  0.00000000000E+00  0.00000000000E+00  0.80981054320E+03  0.80981054320E+03  0.00000000000E+00 0. -1.
         21   -1    0    0  502  503 -0.00000000000E+00 -0.00000000000E+00 -0.15989485166E+03  0.15989485166E+03  0.00000000000E+00 0. -1.
          6    1    1    2  501    0  0.43801241972E+02  0.14611597109E+03  0.69711506362E+03  0.73427980888E+03  0.17300000000E+03 0. -1.
         -6    1    1    2    0  503 -0.43801241972E+02 -0.14611597109E+03 -0.47199372082E+02  0.23542558597E+03  0.17300000000E+03 0. -1.
<mgrwt>
<rscale>  2 0.23064567E+03</rscale>
<asrwt>0</asrwt>
<pdfrwt beam="1">  1       21 0.12458624E+00 0.23064567E+03</pdfrwt>
<pdfrwt beam="2">  1       21 0.24599208E-01 0.23064567E+03</pdfrwt>
<totfact> 0.73102505E+03</totfact>
</mgrwt>
</event>
<event>
 4    3  0.4041078E+000  0.1794337E+03  0.7546771E-02  0.1168352E+00
         21   -1    0    0  503  502  0.00000000000E+00  0.00000000000E+00  0.68102396737E+03  0.68102396737E+03  0.00000000000E+00 0.  1.
         21   -1    0    0  501  503 -0.00000000000E+00 -0.00000000000E+00 -0.52543650910E+02  0.52543650910E+02  0.00000000000E+00 0. -1.
          6    1    1    2  501    0  0.27668746549E+02 -0.38754214087E+02  0.43036810864E+03  0.46627583851E+03  0.17300000000E+03 0.  1.
         -6    1    1    2    0  502 -0.27668746549E+02  0.38754214087E+02  0.19811220782E+03  0.26729177977E+03  0.17300000000E+03 0. -1.
<mgrwt>
<rscale>  2 0.17943369E+03</rscale>
<asrwt>0</asrwt>
<pdfrwt beam="1">  1       21 0.10477291E+00 0.17943369E+03</pdfrwt>
<pdfrwt beam="2">  1       21 0.80836391E-02 0.17943369E+03</pdfrwt>
<totfact> 0.87048180E+04</totfact>
</mgrwt>
</event>
<event>
 4    3  0.4041078E+000  0.2143033E+03  0.7546771E-02  0.1138203E+00
         21   -1    0    0  501  502  0.00000000000E+00  0.00000000000E+00  0.69329084482E+03  0.69329084482E+03  0.00000000000E+00 0. -1.
         21   -1    0    0  502  503 -0.00000000000E+00 -0.00000000000E+00 -0.12206021305E+03  0.12206021305E+03  0.00000000000E+00 0.  1.
          6    1    1    2  501    0 -0.12215855751E+03  0.32774741770E+02  0.56129855131E+03  0.60081774323E+03  0.17300000000E+03 0. -1.
         -6    1    1    2    0  503  0.12215855751E+03 -0.32774741770E+02  0.99320804556E+01  0.21453331465E+03  0.17300000000E+03 0.  1.
<mgrwt>
<rscale>  2 0.21430328E+03</rscale>
<asrwt>0</asrwt>
<pdfrwt beam="1">  1       21 0.10666013E+00 0.21430328E+03</pdfrwt>
<pdfrwt beam="2">  1       21 0.18778495E-01 0.21430328E+03</pdfrwt>
<totfact> 0.18017024E+04</totfact>
</mgrwt>
</event>
<event>
 4    3  0.4041078E+000  0.1755131E+03  0.7546771E-02  0.1172217E+00
         21   -1    0    0  501  502  0.00000000000E+00  0.00000000000E+00  0.11925093979E+03  0.11925093979E+03  0.00000000000E+00 0. -1.
         21   -1    0    0  502  503 -0.00000000000E+00 -0.00000000000E+00 -0.63847378145E+03  0.63847378145E+03  0.00000000000E+00 0. -1.
          6    1    1    2  501    0 -0.18375143693E+02 -0.23199421292E+02  0.32729623312E+02  0.17853875573E+03  0.17300000000E+03 0. -1.
         -6    1    1    2    0  503  0.18375143693E+02  0.23199421292E+02 -0.55195246498E+03  0.57918596551E+03  0.17300000000E+03 0. -1.
<mgrwt>
<rscale>  2 0.17551313E+03</rscale>
<asrwt>0</asrwt>
<pdfrwt beam="1">  1       21 0.18346299E-01 0.17551313E+03</pdfrwt>
<pdfrwt beam="2">  1       21 0.98226734E-01 0.17551313E+03</pdfrwt>
<totfact> 0.23452627E+04</totfact>
</mgrwt>
</event>
<event>
 4    3  0.4041078E+000  0.2007720E+03  0.7546771E-02  0.1149089E+00
         21   -1    0    0  503  502  0.00000000000E+00  0.00000000000E+00  0.27560998803E+03  0.27560998803E+03  0.00000000000E+00 0. -1.
         21   -1    0    0  501  503 -0.00000000000E+00 -0.00000000000E+00 -0.17274858478E+03  0.17274858478E+03  0.00000000000E+00 0. -1.
          6    1    1    2  501    0  0.81132029664E+02  0.61627734533E+02  0.13922316900E+03  0.24432043445E+03  0.17300000000E+03 0. -1.
         -6    1    1    2    0  502 -0.81132029664E+02 -0.61627734533E+02 -0.36361765747E+02  0.20403813837E+03  0.17300000000E+03 0. -1.
<mgrwt>
<rscale>  2 0.20077197E+03</rscale>
<asrwt>0</asrwt>
<pdfrwt beam="1">  1       21 0.42401537E-01 0.20077197E+03</pdfrwt>
<pdfrwt beam="2">  1       21 0.26576705E-01 0.20077197E+03</pdfrwt>
<totfact> 0.71840017E+04</totfact>
</mgrwt>
</event>
<event>
 4    3  0.4041078E+000  0.1808685E+03  0.7546771E-02  0.1166965E+00
         21   -1    0    0  503  502  0.00000000000E+00  0.00000000000E+00  0.51826010460E+03  0.51826010460E+03  0.00000000000E+00 0.  1.
         21   -1    0    0  501  503 -0.00000000000E+00 -0.00000000000E+00 -0.12463831175E+03  0.12463831175E+03  0.00000000000E+00 0.  1.
          6    1    1    2  501    0 -0.40791637956E+02  0.33473224046E+02 -0.29019859019E+02  0.18318178586E+03  0.17300000000E+03 0.  1.
         -6    1    1    2    0  502  0.40791637956E+02 -0.33473224046E+02  0.42264165187E+03  0.45971663049E+03  0.17300000000E+03 0.  1.
<mgrwt>
<rscale>  2 0.18086850E+03</rscale>
<asrwt>0</asrwt>
<pdfrwt beam="1">  1       21 0.79732322E-01 0.18086850E+03</pdfrwt>
<pdfrwt beam="2">  1       21 0.19175125E-01 0.18086850E+03</pdfrwt>
<totfact> 0.34818759E+04</totfact>
</mgrwt>
</event>
<event>
 4    3  0.4041078E+000  0.1951695E+03  0.7546771E-02  0.1153880E+00
         21   -1    0    0  503  502  0.00000000000E+00  0.00000000000E+00  0.59485037974E+03  0.59485037974E+03  0.00000000000E+00 0. -1.
         21   -1    0    0  501  503 -0.00000000000E+00 -0.00000000000E+00 -0.99118108188E+02  0.99118108188E+02  0.00000000000E+00 0. -1.
          6    1    1    2  501    0  0.48072842565E+02  0.76492794502E+02  0.41431147841E+02  0.19951863526E+03  0.17300000000E+03 0. -1.
         -6    1    1    2    0  502 -0.48072842565E+02 -0.76492794502E+02  0.45430112371E+03  0.49444985267E+03  0.17300000000E+03 0. -1.
<mgrwt>
<rscale>  2 0.19516953E+03</rscale>
<asrwt>0</asrwt>
<pdfrwt beam="1">  1       21 0.91515441E-01 0.19516953E+03</pdfrwt>
<pdfrwt beam="2">  1       21 0.15248940E-01 0.19516953E+03</pdfrwt>
<totfact> 0.38425460E+04</totfact>
</mgrwt>
</event>
<event>
 4    3  0.4041078E+000  0.2678082E+03  0.7546771E-02  0.1102541E+00
         21   -1    0    0  503  502  0.00000000000E+00  0.00000000000E+00  0.13342589319E+03  0.13342589319E+03  0.00000000000E+00 0. -1.
         21   -1    0    0  501  503 -0.00000000000E+00 -0.00000000000E+00 -0.18240615399E+04  0.18240615399E+04  0.00000000000E+00 0.  1.
          6    1    1    2  501    0  0.19658739281E+03  0.56086126292E+02 -0.16672924370E+04  0.16886637697E+04  0.17300000000E+03 0.  1.
         -6    1    1    2    0  502 -0.19658739281E+03 -0.56086126292E+02 -0.23343209725E+02  0.26882366342E+03  0.17300000000E+03 0. -1.
<mgrwt>
<rscale>  2 0.26780825E+03</rscale>
<asrwt>0</asrwt>
<pdfrwt beam="1">  1       21 0.20527061E-01 0.26780825E+03</pdfrwt>
<pdfrwt beam="2">  1       21 0.28062485E+00 0.26780825E+03</pdfrwt>
<totfact> 0.89218377E+02</totfact>
</mgrwt>
</event>
<event>
 4    3  0.4041078E+000  0.1919797E+03  0.7546771E-02  0.1156688E+00
         21   -1    0    0  503  502  0.00000000000E+00  0.00000000000E+00  0.16572508857E+03  0.16572508857E+03  0.00000000000E+00 0. -1.
         21   -1    0    0  501  503 -0.00000000000E+00 -0.00000000000E+00 -0.27071925233E+03  0.27071925233E+03  0.00000000000E+00 0. -1.
          6    1    1    2  501    0 -0.10796243977E+02 -0.82526607699E+02 -0.14469649164E+03  0.24040231811E+03  0.17300000000E+03 0. -1.
         -6    1    1    2    0  502  0.10796243977E+02  0.82526607699E+02  0.39702327879E+02  0.19604202279E+03  0.17300000000E+03 0. -1.
<mgrwt>
<rscale>  2 0.19197969E+03</rscale>
<asrwt>0</asrwt>
<pdfrwt beam="1">  1       21 0.25496167E-01 0.19197969E+03</pdfrwt>
<pdfrwt beam="2">  1       21 0.41649116E-01 0.19197969E+03</pdfrwt>
<totfact> 0.80993441E+04</totfact>
</mgrwt>
</event>
<event>
 4    3  0.4041078E+000  0.1899835E+03  0.7546771E-02  0.1158476E+00
         21   -1    0    0  503  502  0.00000000000E+00  0.00000000000E+00  0.10599046763E+04  0.10599046763E+04  0.00000000000E+00 0. -1.
         21   -1    0    0  501  503 -0.00000000000E+00 -0.00000000000E+00 -0.23248929352E+03  0.23248929352E+03  0.00000000000E+00 0. -1.
          6    1    1    2  501    0  0.77016923542E+02 -0.15268954987E+02 -0.18329070109E+03  0.26398717508E+03  0.17300000000E+03 0. -1.
         -6    1    1    2    0  502 -0.77016923542E+02  0.15268954987E+02  0.10107060839E+04  0.10284067948E+04  0.17300000000E+03 0. -1.
<mgrwt>
<rscale>  2 0.18998355E+03</rscale>
<asrwt>0</asrwt>
<pdfrwt beam="1">  1       21 0.16306225E+00 0.18998355E+03</pdfrwt>
<pdfrwt beam="2">  1       21 0.35767584E-01 0.18998355E+03</pdfrwt>
<totfact> 0.18070956E+03</totfact>
</mgrwt>
</event>
<event>
 4    3  0.4041078E+000  0.2559419E+03  0.7546771E-02  0.1109606E+00
         21   -1    0    0  501  502  0.00000000000E+00  0.00000000000E+00  0.12373897705E+04  0.12373897705E+04  0.00000000000E+00 0. -1.
         21   -1    0    0  502  503 -0.00000000000E+00 -0.00000000000E+00 -0.12366684232E+03  0.12366684232E+03  0.00000000000E+00 0.  1.
          6    1    1    2  501    0 -0.15968583082E+03  0.10038769743E+03  0.10715145383E+04  0.11016576873E+04  0.17300000000E+03 0. -1.
         -6    1    1    2    0  503  0.15968583082E+03 -0.10038769743E+03  0.42208389918E+02  0.25939892548E+03  0.17300000000E+03 0.  1.
<mgrwt>
<rscale>  2 0.25594190E+03</rscale>
<asrwt>0</asrwt>
<pdfrwt beam="1">  1       21 0.19036765E+00 0.25594190E+03</pdfrwt>
<pdfrwt beam="2">  1       21 0.19025669E-01 0.25594190E+03</pdfrwt>
<totfact> 0.37277673E+03</totfact>
</mgrwt>
</event>
<event>
 4    3  0.4041078E+000  0.2178112E+03  0.7546771E-02  0.1135525E+00
         21   -1    0    0  501  502  0.00000000000E+00  0.00000000000E+00  0.40507113704E+03  0.40507113704E+03  0.00000000000E+00 0.  1.
         21   -1    0    0  502  503 -0.00000000000E+00 -0.00000000000E+00 -0.24847614364E+03  0.24847614364E+03  0.00000000000E+00 0.  1.
          6    1    1    2  501    0  0.25068840324E+02  0.12993945724E+03  0.31588892550E+03  0.38370238800E+03  0.17300000000E+03 0.  1.
         -6    1    1    2    0  503 -0.25068840324E+02 -0.12993945724E+03 -0.15929393210E+03  0.26984489269E+03  0.17300000000E+03 0.  1.
<mgrwt>
<rscale>  2 0.21781118E+03</rscale>
<asrwt>0</asrwt>
<pdfrwt beam="1">  1       21 0.62318637E-01 0.21781118E+03</pdfrwt>
<pdfrwt beam="2">  1       21 0.38227099E-01 0.21781118E+03</pdfrwt>
<totfact> 0.15516114E+04</totfact>
</mgrwt>
</event>
<event>
 4    3  0.4041078E+000  0.2140167E+03  0.7546771E-02  0.1138424E+00
         21   -1    0    0  501  502  0.00000000000E+00  0.00000000000E+00  0.85130649416E+03  0.85130649416E+03  0.00000000000E+00 0. -1.
         21   -1    0    0  502  503 -0.00000000000E+00 -0.00000000000E+00 -0.54236983012E+02  0.54236983012E+02  0.00000000000E+00 0. -1.
          6    1    1    2  501    0 -0.32780907732E+02  0.12165352082E+03  0.43901820911E+03  0.48840572782E+03  0.17300000000E+03 0. -1.
         -6    1    1    2    0  503  0.32780907732E+02 -0.12165352082E+03  0.35805130204E+03  0.41713774935E+03  0.17300000000E+03 0. -1.
<mgrwt>
<rscale>  2 0.21401674E+03</rscale>
<asrwt>0</asrwt>
<pdfrwt beam="1">  1       21 0.13097022E+00 0.21401674E+03</pdfrwt>
<pdfrwt beam="2">  1       21 0.83441519E-02 0.21401674E+03</pdfrwt>
<totfact> 0.46758974E+04</totfact>
</mgrwt>
</event>
<event>
 4    3  0.4041078E+000  0.1861807E+03  0.7546771E-02  0.1161952E+00
         21   -1    0    0  501  502  0.00000000000E+00  0.00000000000E+00  0.20468497159E+03  0.20468497159E+03  0.00000000000E+00 0. -1.
         21   -1    0    0  502  503 -0.00000000000E+00 -0.00000000000E+00 -0.17033617412E+03  0.17033617412E+03  0.00000000000E+00 0. -1.
          6    1    1    2  501    0  0.60342937999E+02 -0.33060320478E+02  0.29017352591E+01  0.18620331636E+03  0.17300000000E+03 0. -1.
         -6    1    1    2    0  503 -0.60342937999E+02  0.33060320478E+02  0.31447062207E+02  0.18881782934E+03  0.17300000000E+03 0. -1.
<mgrwt>
<rscale>  2 0.18618071E+03</rscale>
<asrwt>0</asrwt>
<pdfrwt beam="1">  1       21 0.31489996E-01 0.18618071E+03</pdfrwt>
<pdfrwt beam="2">  1       21 0.26205565E-01 0.18618071E+03</pdfrwt>
<totfact> 0.13445434E+05</totfact>
</mgrwt>
</event>
<event>
 4    3  0.4041078E+000  0.1878570E+03  0.7546771E-02  0.1160409E+00
         21   -1    0    0  501  502  0.00000000000E+00  0.00000000000E+00  0.18696565170E+03  0.18696565170E+03  0.00000000000E+00 0. -1.
         21   -1    0    0  502  503 -0.00000000000E+00 -0.00000000000E+00 -0.19224083101E+03  0.19224083101E+03  0.00000000000E+00 0. -1.
          6    1    1    2  501    0 -0.62180626703E+02  0.38662814085E+02 -0.28178046908E+02  0.18995853721E+03  0.17300000000E+03 0. -1.
         -6    1    1    2    0  503  0.62180626703E+02 -0.38662814085E+02  0.22902867600E+02  0.18924794550E+03  0.17300000000E+03 0. -1.
<mgrwt>
<rscale>  2 0.18785698E+03</rscale>
<asrwt>0</asrwt>
<pdfrwt beam="1">  1       21 0.28763946E-01 0.18785698E+03</pdfrwt>
<pdfrwt beam="2">  1       21 0.29575512E-01 0.18785698E+03</pdfrwt>
<totfact> 0.12691189E+05</totfact>
</mgrwt>
</event>
<event>
 4    3  0.4041078E+000  0.1741807E+03  0.7546771E-02  0.1173557E+00
         21   -1    0    0  503  502  0.00000000000E+00  0.00000000000E+00  0.31164152244E+03  0.31164152244E+03  0.00000000000E+00 0. -1.
         21   -1    0    0  501  503 -0.00000000000E+00 -0.00000000000E+00 -0.17221052984E+03  0.17221052984E+03  0.00000000000E+00 0. -1.
          6    1    1    2  501    0 -0.16058420387E+02  0.12330078273E+02 -0.89789242439E+02  0.19596176095E+03  0.17300000000E+03 0. -1.
         -6    1    1    2    0  502  0.16058420387E+02 -0.12330078273E+02  0.22922023504E+03  0.28789029134E+03  0.17300000000E+03 0. -1.
<mgrwt>
<rscale>  2 0.17418066E+03</rscale>
<asrwt>0</asrwt>
<pdfrwt beam="1">  1       21 0.47944850E-01 0.17418066E+03</pdfrwt>
<pdfrwt beam="2">  1       21 0.26493928E-01 0.17418066E+03</pdfrwt>
<totfact> 0.56832954E+04</totfact>
</mgrwt>
</event>
<event>
 4    3  0.4041078E+000  0.1774591E+03  0.7546771E-02  0.1170285E+00
         21   -1    0    0  503  502  0.00000000000E+00  0.00000000000E+00  0.41624869139E+03  0.41624869139E+03  0.00000000000E+00 0. -1.
         21   -1    0    0  501  503 -0.00000000000E+00 -0.00000000000E+00 -0.11424976639E+03  0.11424976639E+03  0.00000000000E+00 0. -1.
          6    1    1    2  501    0 -0.30848764805E+02 -0.24720238361E+02 -0.31651540767E+01  0.17748733666E+03  0.17300000000E+03 0. -1.
         -6    1    1    2    0  502  0.30848764805E+02  0.24720238361E+02  0.30516407908E+03  0.35301112112E+03  0.17300000000E+03 0. -1.
<mgrwt>
<rscale>  2 0.17745911E+03</rscale>
<asrwt>0</asrwt>
<pdfrwt beam="1">  1       21 0.64038259E-01 0.17745911E+03</pdfrwt>
<pdfrwt beam="2">  1       21 0.17576887E-01 0.17745911E+03</pdfrwt>
<totfact> 0.66488080E+04</totfact>
</mgrwt>
</event>
<event>
 4    3  0.4041078E+000  0.2203741E+03  0.7546771E-02  0.1133604E+00
         21   -1    0    0  503  502  0.00000000000E+00  0.00000000000E+00  0.45217512435E+03  0.45217512435E+03  0.00000000000E+00 0.  1.
         21   -1    0    0  501  503 -0.00000000000E+00 -0.00000000000E+00 -0.23122248848E+03  0.23122248848E+03  0.00000000000E+00 0. -1.
          6    1    1    2  501    0 -0.58505968075E+02 -0.12334015710E+03 -0.13957191569E+03  0.26085448492E+03  0.17300000000E+03 0. -1.
         -6    1    1    2    0  502  0.58505968075E+02  0.12334015710E+03  0.36052455156E+03  0.42254312790E+03  0.17300000000E+03 0.  1.
<mgrwt>
<rscale>  2 0.22037410E+03</rscale>
<asrwt>0</asrwt>
<pdfrwt beam="1">  1       21 0.69565404E-01 0.22037410E+03</pdfrwt>
<pdfrwt beam="2">  1       21 0.35572691E-01 0.22037410E+03</pdfrwt>
<totfact> 0.14066935E+04</totfact>
</mgrwt>
</event>
<event>
 4    3  0.4041078E+000  0.4338091E+03  0.7546771E-02  0.1032663E+00
         21   -1    0    0  503  502  0.00000000000E+00  0.00000000000E+00  0.64212511781E+03  0.64212511781E+03  0.00000000000E+00 0.  1.
         21   -1    0    0  501  503 -0.00000000000E+00 -0.00000000000E+00 -0.29628285764E+03  0.29628285764E+03  0.00000000000E+00 0. -1.
          6    1    1    2  501    0 -0.33442513653E+03  0.21545569773E+03  0.12409328603E+03  0.45120890202E+03  0.17300000000E+03 0.  1.
         -6    1    1    2    0  502  0.33442513653E+03 -0.21545569773E+03  0.22174897414E+03  0.48719907343E+03  0.17300000000E+03 0. -1.
<mgrwt>
<rscale>  2 0.43380909E+03</rscale>
<asrwt>0</asrwt>
<pdfrwt beam="1">  1       21 0.98788479E-01 0.43380909E+03</pdfrwt>
<pdfrwt beam="2">  1       21 0.45581978E-01 0.43380909E+03</pdfrwt>
<totfact> 0.34191790E+03</totfact>
</mgrwt>
</event>
<event>
 4    3  0.4041078E+000  0.1799809E+03  0.7546771E-02  0.1167822E+00
         21   -1    0    0  503  502  0.00000000000E+00  0.00000000000E+00  0.33612158750E+02  0.33612158750E+02  0.00000000000E+00 0. -1.
         21   -1    0    0  501  503 -0.00000000000E+00 -0.00000000000E+00 -0.96545013828E+03  0.96545013828E+03  0.00000000000E+00 0. -1.
          6    1    1    2  501    0 -0.33950838506E+01  0.49523720886E+02 -0.44484826295E+03  0.47987821640E+03  0.17300000000E+03 0. -1.
         -6    1    1    2    0  502  0.33950838506E+01 -0.49523720886E+02 -0.48698971658E+03  0.51918408063E+03  0.17300000000E+03 0. -1.
<mgrwt>
<rscale>  2 0.17998090E+03</rscale>
<asrwt>0</asrwt>
<pdfrwt beam="1">  1       21 0.51711011E-02 0.17998090E+03</pdfrwt>
<pdfrwt beam="2">  1       21 0.14853080E+00 0.17998090E+03</pdfrwt>
<totfact> 0.78429486E+04</totfact>
</mgrwt>
</event>
<event>
 4    3  0.4041078E+000  0.3908423E+03  0.7546771E-02  0.1046998E+00
         21   -1    0    0  503  502  0.00000000000E+00  0.00000000000E+00  0.28292467699E+03  0.28292467699E+03  0.00000000000E+00 0.  1.
         21   -1    0    0  501  503 -0.00000000000E+00 -0.00000000000E+00 -0.89027406465E+03  0.89027406465E+03  0.00000000000E+00 0. -1.
          6    1    1    2  501    0  0.30610224590E+03 -0.17067549919E+03 -0.67166050973E+03  0.77710073433E+03  0.17300000000E+03 0. -1.
         -6    1    1    2    0  502 -0.30610224590E+03  0.17067549919E+03  0.64311122082E+02  0.39609800730E+03  0.17300000000E+03 0.  1.
<mgrwt>
<rscale>  2 0.39084231E+03</rscale>
<asrwt>0</asrwt>
<pdfrwt beam="1">  1       21 0.43526874E-01 0.39084231E+03</pdfrwt>
<pdfrwt beam="2">  1       21 0.13696524E+00 0.39084231E+03</pdfrwt>
<totfact> 0.16846024E+03</totfact>
</mgrwt>
</event>
<event>
 4    3  0.4041078E+000  0.1974852E+03  0.7546771E-02  0.1151878E+00
         21   -1    0    0  501  502  0.00000000000E+00  0.00000000000E+00  0.25911414222E+02  0.25911414222E+02  0.00000000000E+00 0. -1.
         21   -1    0    0  502  503 -0.00000000000E+00 -0.00000000000E+00 -0.15217028560E+04  0.15217028560E+04  0.00000000000E+00 0. -1.
          6    1    1    2  501    0  0.14581231247E+02 -0.94121107972E+02 -0.66717403142E+03  0.69578846173E+03  0.17300000000E+03 0. -1.
         -6    1    1    2    0  503 -0.14581231247E+02  0.94121107972E+02 -0.82861741034E+03  0.85182580848E+03  0.17300000000E+03 0. -1.
<mgrwt>
<rscale>  2 0.19748518E+03</rscale>
<asrwt>0</asrwt>
<pdfrwt beam="1">  1       21 0.39863723E-02 0.19748518E+03</pdfrwt>
<pdfrwt beam="2">  1       21 0.23410808E+00 0.19748518E+03</pdfrwt>
<totfact> 0.32436546E+04</totfact>
</mgrwt>
</event>
<event>
 4    3  0.4041078E+000  0.2212665E+03  0.7546771E-02  0.1132942E+00
         21   -1    0    0  501  502  0.00000000000E+00  0.00000000000E+00  0.48701572648E+03  0.48701572648E+03  0.00000000000E+00 0.  1.
         21   -1    0    0  502  503 -0.00000000000E+00 -0.00000000000E+00 -0.17405230623E+03  0.17405230623E+03  0.00000000000E+00 0. -1.
          6    1    1    2  501    0  0.11064013691E+03 -0.82392989295E+02  0.37130974876E+03  0.43223809886E+03  0.17300000000E+03 0.  1.
         -6    1    1    2    0  503 -0.11064013691E+03  0.82392989295E+02 -0.58346328501E+02  0.22882993386E+03  0.17300000000E+03 0. -1.
<mgrwt>
<rscale>  2 0.22126646E+03</rscale>
<asrwt>0</asrwt>
<pdfrwt beam="1">  1       21 0.74925496E-01 0.22126646E+03</pdfrwt>
<pdfrwt beam="2">  1       21 0.26777278E-01 0.22126646E+03</pdfrwt>
<totfact> 0.20810287E+04</totfact>
</mgrwt>
</event>
<event>
 4    3  0.4041078E+000  0.1895899E+03  0.7546771E-02  0.1158832E+00
         21   -1    0    0  503  502  0.00000000000E+00  0.00000000000E+00  0.64549930870E+02  0.64549930870E+02  0.00000000000E+00 0. -1.
         21   -1    0    0  501  503 -0.00000000000E+00 -0.00000000000E+00 -0.77208143137E+03  0.77208143137E+03  0.00000000000E+00 0. -1.
          6    1    1    2  501    0  0.28806290268E+02 -0.72010656674E+02 -0.57463232774E+03  0.60510052810E+03  0.17300000000E+03 0. -1.
         -6    1    1    2    0  502 -0.28806290268E+02  0.72010656674E+02 -0.13289917276E+03  0.23153083413E+03  0.17300000000E+03 0. -1.
<mgrwt>
<rscale>  2 0.18958992E+03</rscale>
<asrwt>0</asrwt>
<pdfrwt beam="1">  1       21 0.99307585E-02 0.18958992E+03</pdfrwt>
<pdfrwt beam="2">  1       21 0.11878176E+00 0.18958992E+03</pdfrwt>
<totfact> 0.44565289E+04</totfact>
</mgrwt>
</event>
<event>
 4    3  0.4041078E+000  0.1793971E+03  0.7546771E-02  0.1168388E+00
         21   -1    0    0  503  502  0.00000000000E+00  0.00000000000E+00  0.24945614996E+04  0.24945614996E+04  0.00000000000E+00 0. -1.
         21   -1    0    0  501  503 -0.00000000000E+00 -0.00000000000E+00 -0.15506562796E+02  0.15506562796E+02  0.00000000000E+00 0. -1.
          6    1    1    2  501    0 -0.34595655875E+02 -0.32518504540E+02  0.72510972544E+03  0.74697217248E+03  0.17300000000E+03 0. -1.
         -6    1    1    2    0  502  0.34595655875E+02  0.32518504540E+02  0.17539452114E+04  0.17630958899E+04  0.17300000000E+03 0. -1.
<mgrwt>
<rscale>  2 0.17939708E+03</rscale>
<asrwt>0</asrwt>
<pdfrwt beam="1">  1       21 0.38377838E+00 0.17939708E+03</pdfrwt>
<pdfrwt beam="2">  1       21 0.23856270E-02 0.17939708E+03</pdfrwt>
<totfact> 0.10298189E+04</totfact>
</mgrwt>
</event>
<event>
 4    3  0.4041078E+000  0.1753884E+03  0.7546771E-02  0.1172342E+00
         21   -1    0    0  501  502  0.00000000000E+00  0.00000000000E+00  0.93801916648E+02  0.93801916648E+02  0.00000000000E+00 0.  1.
         21   -1    0    0  502  503 -0.00000000000E+00 -0.00000000000E+00 -0.52878457988E+03  0.52878457988E+03  0.00000000000E+00 0.  1.
          6    1    1    2  501    0 -0.28467504674E+02 -0.46558848891E+01 -0.40934234962E+03  0.44533384699E+03  0.17300000000E+03 0.  1.
         -6    1    1    2    0  503  0.28467504674E+02  0.46558848891E+01 -0.25640313618E+02  0.17725264954E+03  0.17300000000E+03 0.  1.
<mgrwt>
<rscale>  2 0.17538836E+03</rscale>
<asrwt>0</asrwt>
<pdfrwt beam="1">  1       21 0.14431064E-01 0.17538836E+03</pdfrwt>
<pdfrwt beam="2">  1       21 0.81351475E-01 0.17538836E+03</pdfrwt>
<totfact> 0.56186193E+04</totfact>
</mgrwt>
</event>
<event>
 4    3  0.4041078E+000  0.1775240E+03  0.7546771E-02  0.1170221E+00
         21   -1    0    0  503  502  0.00000000000E+00  0.00000000000E+00  0.43887108699E+02  0.43887108699E+02  0.00000000000E+00 0. -1.
         21   -1    0    0  501  503 -0.00000000000E+00 -0.00000000000E+00 -0.84632003448E+03  0.84632003448E+03  0.00000000000E+00 0. -1.
          6    1    1    2  501    0 -0.80735127866E+01  0.38994647069E+02 -0.57447460589E+03  0.60127850196E+03  0.17300000000E+03 0. -1.
         -6    1    1    2    0  502  0.80735127866E+01 -0.38994647069E+02 -0.22795831989E+03  0.28892864122E+03  0.17300000000E+03 0. -1.
<mgrwt>
<rscale>  2 0.17752398E+03</rscale>
<asrwt>0</asrwt>
<pdfrwt beam="1">  1       21 0.67518623E-02 0.17752398E+03</pdfrwt>
<pdfrwt beam="2">  1       21 0.13020309E+00 0.17752398E+03</pdfrwt>
<totfact> 0.69831812E+04</totfact>
</mgrwt>
</event>
<event>
 4    3  0.4041078E+000  0.1873832E+03  0.7546771E-02  0.1160843E+00
         21   -1    0    0  501  502  0.00000000000E+00  0.00000000000E+00  0.80155632316E+03  0.80155632316E+03  0.00000000000E+00 0.  1.
         21   -1    0    0  502  503 -0.00000000000E+00 -0.00000000000E+00 -0.53658391065E+02  0.53658391065E+02  0.00000000000E+00 0. -1.
          6    1    1    2  501    0 -0.64559202533E+02  0.31867787884E+02  0.55718535835E+03  0.58785029565E+03  0.17300000000E+03 0.  1.
         -6    1    1    2    0  503  0.64559202533E+02 -0.31867787884E+02  0.19071257375E+03  0.26736441858E+03  0.17300000000E+03 0. -1.
<mgrwt>
<rscale>  2 0.18738315E+03</rscale>
<asrwt>0</asrwt>
<pdfrwt beam="1">  1       21 0.12331635E+00 0.18738315E+03</pdfrwt>
<pdfrwt beam="2">  1       21 0.82551377E-02 0.18738315E+03</pdfrwt>
<totfact> 0.56214576E+04</totfact>
</mgrwt>
</event>
<event>
 4    3  0.4041078E+000  0.1958402E+03  0.7546771E-02  0.1153297E+00
         21   -1    0    0  503  502  0.00000000000E+00  0.00000000000E+00  0.45164645640E+02  0.45164645640E+02  0.00000000000E+00 0.  1.
         21   -1    0    0  501  503 -0.00000000000E+00 -0.00000000000E+00 -0.94382651362E+03  0.94382651362E+03  0.00000000000E+00 0. -1.
          6    1    1    2  501    0 -0.91760180414E+02 -0.21073170283E+01 -0.60591421372E+03  0.63677735974E+03  0.17300000000E+03 0. -1.
         -6    1    1    2    0  502  0.91760180414E+02  0.21073170283E+01 -0.29274765427E+03  0.35221379952E+03  0.17300000000E+03 0.  1.
<mgrwt>
<rscale>  2 0.19584017E+03</rscale>
<asrwt>0</asrwt>
<pdfrwt beam="1">  1       21 0.69484069E-02 0.19584017E+03</pdfrwt>
<pdfrwt beam="2">  1       21 0.14520408E+00 0.19584017E+03</pdfrwt>
<totfact> 0.49777080E+04</totfact>
</mgrwt>
</event>
<event>
 4    3  0.4041078E+000  0.4885027E+03  0.7546771E-02  0.1016824E+00
         21   -1    0    0  501  502  0.00000000000E+00  0.00000000000E+00  0.11088953642E+04  0.11088953642E+04  0.00000000000E+00 0.  1.
         21   -1    0    0  502  503 -0.00000000000E+00 -0.00000000000E+00 -0.21521878523E+03  0.21521878523E+03  0.00000000000E+00 0. -1.
          6    1    1    2  501    0 -0.60671407952E+02  0.45279675010E+03  0.45292873525E+03  0.66616766348E+03  0.17300000000E+03 0.  1.
         -6    1    1    2    0  503  0.60671407952E+02 -0.45279675010E+03  0.44074784374E+03  0.65794648598E+03  0.17300000000E+03 0. -1.
<mgrwt>
<rscale>  2 0.48850273E+03</rscale>
<asrwt>0</asrwt>
<pdfrwt beam="1">  1       21 0.17059928E+00 0.48850273E+03</pdfrwt>
<pdfrwt beam="2">  1       21 0.33110583E-01 0.48850273E+03</pdfrwt>
<totfact> 0.15500976E+03</totfact>
</mgrwt>
</event>
<event>
 4    3  0.4041078E+000  0.2437810E+03  0.7546771E-02  0.1117299E+00
         21   -1    0    0  503  502  0.00000000000E+00  0.00000000000E+00  0.16340600426E+04  0.16340600426E+04  0.00000000000E+00 0. -1.
         21   -1    0    0  501  503 -0.00000000000E+00 -0.00000000000E+00 -0.36513979671E+02  0.36513979671E+02  0.00000000000E+00 0.  1.
          6    1    1    2  501    0 -0.16237970360E+03  0.55973359567E+02  0.74614599904E+03  0.78496053214E+03  0.17300000000E+03 0. -1.
         -6    1    1    2    0  502  0.16237970360E+03 -0.55973359567E+02  0.85140006387E+03  0.88561349011E+03  0.17300000000E+03 0.  1.
<mgrwt>
<rscale>  2 0.24378102E+03</rscale>
<asrwt>0</asrwt>
<pdfrwt beam="1">  1       21 0.25139380E+00 0.24378102E+03</pdfrwt>
<pdfrwt beam="2">  1       21 0.56175366E-02 0.24378102E+03</pdfrwt>
<totfact> 0.13797504E+04</totfact>
</mgrwt>
</event>
<event>
 4    3  0.4041078E+000  0.1810393E+03  0.7546771E-02  0.1166801E+00
         21   -1    0    0  501  502  0.00000000000E+00  0.00000000000E+00  0.20815708085E+04  0.20815708085E+04  0.00000000000E+00 0. -1.
         21   -1    0    0  502  503 -0.00000000000E+00 -0.00000000000E+00 -0.34460860748E+02  0.34460860748E+02  0.00000000000E+00 0. -1.
          6    1    1    2  501    0 -0.47933628688E+02 -0.23422346758E+02  0.18032575262E+04  0.18123225278E+04  0.17300000000E+03 0. -1.
         -6    1    1    2    0  503  0.47933628688E+02  0.23422346758E+02  0.24385242158E+03  0.30370914145E+03  0.17300000000E+03 0. -1.
<mgrwt>
<rscale>  2 0.18103933E+03</rscale>
<asrwt>0</asrwt>
<pdfrwt beam="1">  1       21 0.32024156E+00 0.18103933E+03</pdfrwt>
<pdfrwt beam="2">  1       21 0.53016725E-02 0.18103933E+03</pdfrwt>
<totfact> 0.64435663E+03</totfact>
</mgrwt>
</event>
<event>
 4    3  0.4041078E+000  0.1857922E+03  0.7546771E-02  0.1162312E+00
         21   -1    0    0  501  502  0.00000000000E+00  0.00000000000E+00  0.11692516147E+04  0.11692516147E+04  0.00000000000E+00 0.  1.
         21   -1    0    0  502  503 -0.00000000000E+00 -0.00000000000E+00 -0.55251358641E+02  0.55251358641E+02  0.00000000000E+00 0. -1.
          6    1    1    2  501    0 -0.17978412039E+00 -0.67747427606E+02  0.97480367752E+03  0.99235122612E+03  0.17300000000E+03 0.  1.
         -6    1    1    2    0  503  0.17978412039E+00  0.67747427606E+02  0.13919657858E+03  0.23215174726E+03  0.17300000000E+03 0. -1.
<mgrwt>
<rscale>  2 0.18579221E+03</rscale>
<asrwt>0</asrwt>
<pdfrwt beam="1">  1       21 0.17988485E+00 0.18579221E+03</pdfrwt>
<pdfrwt beam="2">  1       21 0.85002099E-02 0.18579221E+03</pdfrwt>
<totfact> 0.19777555E+04</totfact>
</mgrwt>
</event>
<event>
 4    3  0.4041078E+000  0.2005136E+03  0.7546771E-02  0.1149306E+00
         21   -1    0    0  501  502  0.00000000000E+00  0.00000000000E+00  0.32201621603E+02  0.32201621603E+02  0.00000000000E+00 0. -1.
         21   -1    0    0  502  503 -0.00000000000E+00 -0.00000000000E+00 -0.14800017771E+04  0.14800017771E+04  0.00000000000E+00 0. -1.
          6    1    1    2  501    0 -0.90324973503E+02 -0.46022667089E+02 -0.42490151711E+03  0.46983719091E+03  0.17300000000E+03 0. -1.
         -6    1    1    2    0  503  0.90324973503E+02  0.46022667089E+02 -0.10228986384E+04  0.10423662078E+04  0.17300000000E+03 0. -1.
<mgrwt>
<rscale>  2 0.20051356E+03</rscale>
<asrwt>0</asrwt>
<pdfrwt beam="1">  1       21 0.49540945E-02 0.20051356E+03</pdfrwt>
<pdfrwt beam="2">  1       21 0.22769263E+00 0.20051356E+03</pdfrwt>
<totfact> 0.24521223E+04</totfact>
</mgrwt>
</event>
<event>
 4    3  0.4041078E+000  0.1775362E+03  0.7546771E-02  0.1170209E+00
         21   -1    0    0  503  502  0.00000000000E+00  0.00000000000E+00  0.49030037591E+02  0.49030037591E+02  0.00000000000E+00 0. -1.
         21   -1    0    0  501  503 -0.00000000000E+00 -0.00000000000E+00 -0.68405100602E+03  0.68405100602E+03  0.00000000000E+00 0. -1.
          6    1    1    2  501    0 -0.32399817908E+02  0.23245658359E+02 -0.40746347879E+03  0.44446101672E+03  0.17300000000E+03 0. -1.
         -6    1    1    2    0  502  0.32399817908E+02 -0.23245658359E+02 -0.22755748964E+03  0.28862002689E+03  0.17300000000E+03 0. -1.
<mgrwt>
<rscale>  2 0.17753622E+03</rscale>
<asrwt>0</asrwt>
<pdfrwt beam="1">  1       21 0.75430830E-02 0.17753622E+03</pdfrwt>
<pdfrwt beam="2">  1       21 0.10523861E+00 0.17753622E+03</pdfrwt>
<totfact> 0.97199214E+04</totfact>
</mgrwt>
</event>
<event>
 4    3  0.4041078E+000  0.2182091E+03  0.7546771E-02  0.1135225E+00
         21   -1    0    0  503  502  0.00000000000E+00  0.00000000000E+00  0.56392418239E+03  0.56392418239E+03  0.00000000000E+00 0.  1.
         21   -1    0    0  501  503 -0.00000000000E+00 -0.00000000000E+00 -0.28472260138E+03  0.28472260138E+03  0.00000000000E+00 0.  1.
          6    1    1    2  501    0  0.72460971946E+02  0.11151510342E+03 -0.21628652692E+03  0.30723781094E+03  0.17300000000E+03 0.  1.
         -6    1    1    2    0  502 -0.72460971946E+02 -0.11151510342E+03  0.49548810794E+03  0.54140897282E+03  0.17300000000E+03 0.  1.
<mgrwt>
<rscale>  2 0.21820910E+03</rscale>
<asrwt>0</asrwt>
<pdfrwt beam="1">  1       21 0.86757566E-01 0.21820910E+03</pdfrwt>
<pdfrwt beam="2">  1       21 0.43803477E-01 0.21820910E+03</pdfrwt>
<totfact> 0.56174712E+03</totfact>
</mgrwt>
</event>
<event>
 4    3  0.4041078E+000  0.2381898E+03  0.7546771E-02  0.1121005E+00
         21   -1    0    0  501  502  0.00000000000E+00  0.00000000000E+00  0.56427515977E+02  0.56427515977E+02  0.00000000000E+00 0.  1.
         21   -1    0    0  502  503 -0.00000000000E+00 -0.00000000000E+00 -0.10149674991E+04  0.10149674991E+04  0.00000000000E+00 0.  1.
          6    1    1    2  501    0 -0.10460620254E+03  0.12594816365E+03 -0.42736405975E+03  0.48925906951E+03  0.17300000000E+03 0.  1.
         -6    1    1    2    0  503  0.10460620254E+03 -0.12594816365E+03 -0.53117592334E+03  0.58213594552E+03  0.17300000000E+03 0.  1.
<mgrwt>
<rscale>  2 0.23818984E+03</rscale>
<asrwt>0</asrwt>
<pdfrwt beam="1">  1       21 0.86811557E-02 0.23818984E+03</pdfrwt>
<pdfrwt beam="2">  1       21 0.15614886E+00 0.23818984E+03</pdfrwt>
<totfact> 0.27203265E+04</totfact>
</mgrwt>
</event>
<event>
 4    3  0.4041078E+000  0.1943455E+03  0.7546771E-02  0.1154599E+00
         21   -1    0    0  501  502  0.00000000000E+00  0.00000000000E+00  0.67681305846E+02  0.67681305846E+02  0.00000000000E+00 0.  1.
         21   -1    0    0  502  503 -0.00000000000E+00 -0.00000000000E+00 -0.63460529014E+03  0.63460529014E+03  0.00000000000E+00 0.  1.
          6    1    1    2  501    0  0.86607392389E+02  0.18448547349E+02 -0.16150871858E+03  0.25269597443E+03  0.17300000000E+03 0.  1.
         -6    1    1    2    0  503 -0.86607392389E+02 -0.18448547349E+02 -0.40541526572E+03  0.44959062156E+03  0.17300000000E+03 0.  1.
<mgrwt>
<rscale>  2 0.19434554E+03</rscale>
<asrwt>0</asrwt>
<pdfrwt beam="1">  1       21 0.10412509E-01 0.19434554E+03</pdfrwt>
<pdfrwt beam="2">  1       21 0.97631579E-01 0.19434554E+03</pdfrwt>
<totfact> 0.65581992E+04</totfact>
</mgrwt>
</event>
<event>
 4    3  0.4041078E+000  0.2483255E+03  0.7546771E-02  0.1114368E+00
         21   -1    0    0  501  502  0.00000000000E+00  0.00000000000E+00  0.22421700051E+03  0.22421700051E+03  0.00000000000E+00 0.  1.
         21   -1    0    0  502  503 -0.00000000000E+00 -0.00000000000E+00 -0.15241722323E+04  0.15241722323E+04  0.00000000000E+00 0. -1.
          6    1    1    2  501    0  0.31114883939E+02  0.17540934060E+03  0.14142538635E+03  0.28577388382E+03  0.17300000000E+03 0.  1.
         -6    1    1    2    0  503 -0.31114883939E+02 -0.17540934060E+03 -0.14413806181E+04  0.14626153490E+04  0.17300000000E+03 0. -1.
<mgrwt>
<rscale>  2 0.24832554E+03</rscale>
<asrwt>0</asrwt>
<pdfrwt beam="1">  1       21 0.34494923E-01 0.24832554E+03</pdfrwt>
<pdfrwt beam="2">  1       21 0.23448804E+00 0.24832554E+03</pdfrwt>
<totfact> 0.62554040E+02</totfact>
</mgrwt>
</event>
<event>
 4    3  0.4041078E+000  0.3989575E+03  0.7546771E-02  0.1044141E+00
         21   -1    0    0  501  502  0.00000000000E+00  0.00000000000E+00  0.13577968747E+04  0.13577968747E+04  0.00000000000E+00 0. -1.
         21   -1    0    0  502  503 -0.00000000000E+00 -0.00000000000E+00 -0.12764485274E+03  0.12764485274E+03  0.00000000000E+00 0.  1.
          6    1    1    2  501    0  0.74372755305E+02  0.35171977275E+03  0.82728534479E+03  0.91845965996E+03  0.17300000000E+03 0.  1.
         -6    1    1    2    0  503 -0.74372755305E+02 -0.35171977275E+03  0.40286667721E+03  0.56698206751E+03  0.17300000000E+03 0. -1.
<mgrwt>
<rscale>  2 0.39895752E+03</rscale>
<asrwt>0</asrwt>
<pdfrwt beam="1">  1       21 0.20889182E+00 0.39895752E+03</pdfrwt>
<pdfrwt beam="2">  1       21 0.19637671E-01 0.39895752E+03</pdfrwt>
<totfact> 0.24384491E+03</totfact>
</mgrwt>
</event>
<event>
 4    3  0.4041078E+000  0.1731879E+03  0.7546771E-02  0.1174564E+00
         21   -1    0    0  501  502  0.00000000000E+00  0.00000000000E+00  0.33193287164E+03  0.33193287164E+03  0.00000000000E+00 0.  1.
         21   -1    0    0  502  503 -0.00000000000E+00 -0.00000000000E+00 -0.12746328743E+03  0.12746328743E+03  0.00000000000E+00 0.  1.
          6    1    1    2  501    0 -0.12067604073E+01 -0.79745163017E+01  0.22616024439E+03  0.28485523573E+03  0.17300000000E+03 0.  1.
         -6    1    1    2    0  503  0.12067604073E+01  0.79745163017E+01 -0.21690660185E+02  0.17454092334E+03  0.17300000000E+03 0.  1.
<mgrwt>
<rscale>  2 0.17318790E+03</rscale>
<asrwt>0</asrwt>
<pdfrwt beam="1">  1       21 0.51066595E-01 0.17318790E+03</pdfrwt>
<pdfrwt beam="2">  1       21 0.19609737E-01 0.17318790E+03</pdfrwt>
<totfact> 0.88001700E+04</totfact>
</mgrwt>
</event>
<event>
 4    3  0.4041078E+000  0.2007447E+03  0.7546771E-02  0.1149112E+00
         21   -1    0    0  501  502  0.00000000000E+00  0.00000000000E+00  0.13479102328E+03  0.13479102328E+03  0.00000000000E+00 0.  1.
         21   -1    0    0  502  503 -0.00000000000E+00 -0.00000000000E+00 -0.30001065035E+03  0.30001065035E+03  0.00000000000E+00 0.  1.
          6    1    1    2  501    0  0.55296618605E+02 -0.85508628415E+02 -0.95415202103E+02  0.22226673695E+03  0.17300000000E+03 0.  1.
         -6    1    1    2    0  503 -0.55296618605E+02  0.85508628415E+02 -0.69804424964E+02  0.21253493667E+03  0.17300000000E+03 0.  1.
<mgrwt>
<rscale>  2 0.20074472E+03</rscale>
<asrwt>0</asrwt>
<pdfrwt beam="1">  1       21 0.20737081E-01 0.20074472E+03</pdfrwt>
<pdfrwt beam="2">  1       21 0.46155485E-01 0.20074472E+03</pdfrwt>
<totfact> 0.96705583E+04</totfact>
</mgrwt>
</event>
<event>
 4    3  0.4041078E+000  0.1786221E+03  0.7546771E-02  0.1169143E+00
         21   -1    0    0  501  502  0.00000000000E+00  0.00000000000E+00  0.18905572014E+03  0.18905572014E+03  0.00000000000E+00 0. -1.
         21   -1    0    0  502  503 -0.00000000000E+00 -0.00000000000E+00 -0.16892529386E+03  0.16892529386E+03  0.00000000000E+00 0. -1.
          6    1    1    2  501    0 -0.36565644320E+02  0.25294635694E+02  0.15590126307E+02  0.17930119068E+03  0.17300000000E+03 0. -1.
         -6    1    1    2    0  503  0.36565644320E+02 -0.25294635694E+02  0.45402999681E+01  0.17867982332E+03  0.17300000000E+03 0. -1.
<mgrwt>
<rscale>  2 0.17862213E+03</rscale>
<asrwt>0</asrwt>
<pdfrwt beam="1">  1       21 0.29085496E-01 0.17862213E+03</pdfrwt>
<pdfrwt beam="2">  1       21 0.25988507E-01 0.17862213E+03</pdfrwt>
<totfact> 0.15987001E+05</totfact>
</mgrwt>
</event>
<event>
 4    3  0.4041078E+000  0.2116810E+03  0.7546771E-02  0.1140242E+00
         21   -1    0    0  503  502  0.00000000000E+00  0.00000000000E+00  0.13934503059E+03  0.13934503059E+03  0.00000000000E+00 0. -1.
         21   -1    0    0  501  503 -0.00000000000E+00 -0.00000000000E+00 -0.53074352715E+03  0.53074352715E+03  0.00000000000E+00 0.  1.
          6    1    1    2  501    0  0.12198295389E+03 -0.10385320751E+00 -0.40603624524E+03  0.45790204659E+03  0.17300000000E+03 0.  1.
         -6    1    1    2    0  502 -0.12198295389E+03  0.10385320751E+00  0.14637748677E+02  0.21218651114E+03  0.17300000000E+03 0. -1.
<mgrwt>
<rscale>  2 0.21168101E+03</rscale>
<asrwt>0</asrwt>
<pdfrwt beam="1">  1       21 0.21437698E-01 0.21168101E+03</pdfrwt>
<pdfrwt beam="2">  1       21 0.81652848E-01 0.21168101E+03</pdfrwt>
<totfact> 0.26326673E+04</totfact>
</mgrwt>
</event>
<event>
 4    3  0.4041078E+000  0.1839835E+03  0.7546771E-02  0.1164002E+00
         21   -1    0    0  503  502  0.00000000000E+00  0.00000000000E+00  0.34282432757E+02  0.34282432757E+02  0.00000000000E+00 0. -1.
         21   -1    0    0  501  503 -0.00000000000E+00 -0.00000000000E+00 -0.10350713538E+04  0.10350713538E+04  0.00000000000E+00 0. -1.
          6    1    1    2  501    0  0.24132842134E+02 -0.57780205858E+02 -0.61515831801E+03  0.64208231753E+03  0.17300000000E+03 0. -1.
         -6    1    1    2    0  502 -0.24132842134E+02  0.57780205858E+02 -0.38563060307E+03  0.42727146907E+03  0.17300000000E+03 0. -1.
<mgrwt>
<rscale>  2 0.18398355E+03</rscale>
<asrwt>0</asrwt>
<pdfrwt beam="1">  1       21 0.52742203E-02 0.18398355E+03</pdfrwt>
<pdfrwt beam="2">  1       21 0.15924175E+00 0.18398355E+03</pdfrwt>
<totfact> 0.62930338E+04</totfact>
</mgrwt>
</event>
<event>
 4    3  0.4041078E+000  0.2082412E+03  0.7546771E-02  0.1142966E+00
         21   -1    0    0  503  502  0.00000000000E+00  0.00000000000E+00  0.76743818403E+03  0.76743818403E+03  0.00000000000E+00 0.  1.
         21   -1    0    0  501  503 -0.00000000000E+00 -0.00000000000E+00 -0.12615305990E+03  0.12615305990E+03  0.00000000000E+00 0. -1.
          6    1    1    2  501    0 -0.50994537392E+02 -0.10409101050E+03 -0.11338539199E+02  0.20854961947E+03  0.17300000000E+03 0. -1.
         -6    1    1    2    0  502  0.50994537392E+02  0.10409101050E+03  0.65262366332E+03  0.68504162446E+03  0.17300000000E+03 0.  1.
<mgrwt>
<rscale>  2 0.20824116E+03</rscale>
<asrwt>0</asrwt>
<pdfrwt beam="1">  1       21 0.11806741E+00 0.20824116E+03</pdfrwt>
<pdfrwt beam="2">  1       21 0.19408164E-01 0.20824116E+03</pdfrwt>
<totfact> 0.13279434E+04</totfact>
</mgrwt>
</event>
<event>
 4    3  0.4041078E+000  0.2226303E+03  0.7546771E-02  0.1131937E+00
         21   -1    0    0  503  502  0.00000000000E+00  0.00000000000E+00  0.96270445959E+03  0.96270445959E+03  0.00000000000E+00 0.  1.
         21   -1    0    0  501  503 -0.00000000000E+00 -0.00000000000E+00 -0.29932053177E+03  0.29932053177E+03  0.00000000000E+00 0. -1.
          6    1    1    2  501    0  0.18321468869E+02  0.13892285216E+03 -0.24249329741E+03  0.32919178963E+03  0.17300000000E+03 0. -1.
         -6    1    1    2    0  502 -0.18321468869E+02 -0.13892285216E+03  0.90587722522E+03  0.93283320173E+03  0.17300000000E+03 0.  1.
<mgrwt>
<rscale>  2 0.22263027E+03</rscale>
<asrwt>0</asrwt>
<pdfrwt beam="1">  1       21 0.14810838E+00 0.22263027E+03</pdfrwt>
<pdfrwt beam="2">  1       21 0.46049313E-01 0.22263027E+03</pdfrwt>
<totfact> 0.13571317E+03</totfact>
</mgrwt>
</event>
<event>
 4    3  0.4041078E+000  0.2597393E+03  0.7546771E-02  0.1107300E+00
         21   -1    0    0  503  502  0.00000000000E+00  0.00000000000E+00  0.10083392513E+03  0.10083392513E+03  0.00000000000E+00 0. -1.
         21   -1    0    0  501  503 -0.00000000000E+00 -0.00000000000E+00 -0.71804880918E+03  0.71804880918E+03  0.00000000000E+00 0.  1.
          6    1    1    2  501    0  0.28411129253E+02 -0.19164629340E+03 -0.20166771238E+03  0.32883789358E+03  0.17300000000E+03 0. -1.
         -6    1    1    2    0  502 -0.28411129253E+02  0.19164629340E+03 -0.41554717167E+03  0.49004484073E+03  0.17300000000E+03 0.  1.
<mgrwt>
<rscale>  2 0.25973928E+03</rscale>
<asrwt>0</asrwt>
<pdfrwt beam="1">  1       21 0.15512911E-01 0.25973928E+03</pdfrwt>
<pdfrwt beam="2">  1       21 0.11046905E+00 0.25973928E+03</pdfrwt>
<totfact> 0.22992784E+04</totfact>
</mgrwt>
</event>
<event>
 4    3  0.4041078E+000  0.2260314E+03  0.7546771E-02  0.1129465E+00
         21   -1    0    0  503  502  0.00000000000E+00  0.00000000000E+00  0.64441500403E+02  0.64441500403E+02  0.00000000000E+00 0.  1.
         21   -1    0    0  501  503 -0.00000000000E+00 -0.00000000000E+00 -0.86839973655E+03  0.86839973655E+03  0.00000000000E+00 0.  1.
          6    1    1    2  501    0 -0.13051245289E+03 -0.64247272161E+02 -0.26437422664E+03  0.34782746305E+03  0.17300000000E+03 0.  1.
         -6    1    1    2    0  502  0.13051245289E+03  0.64247272161E+02 -0.53958400951E+03  0.58501377391E+03  0.17300000000E+03 0.  1.
<mgrwt>
<rscale>  2 0.22603144E+03</rscale>
<asrwt>0</asrwt>
<pdfrwt beam="1">  1       21 0.99140772E-02 0.22603144E+03</pdfrwt>
<pdfrwt beam="2">  1       21 0.13359996E+00 0.22603144E+03</pdfrwt>
<totfact> 0.32607382E+04</totfact>
</mgrwt>
</event>
<event>
 4    3  0.4041078E+000  0.1795524E+03  0.7546771E-02  0.1168237E+00
         21   -1    0    0  501  502  0.00000000000E+00  0.00000000000E+00  0.14006523416E+03  0.14006523416E+03  0.00000000000E+00 0.  1.
         21   -1    0    0  502  503 -0.00000000000E+00 -0.00000000000E+00 -0.32101928175E+03  0.32101928175E+03  0.00000000000E+00 0.  1.
          6    1    1    2  501    0  0.25239929197E+02 -0.40902510643E+02  0.32165587749E+02  0.18241078487E+03  0.17300000000E+03 0.  1.
         -6    1    1    2    0  503 -0.25239929197E+02  0.40902510643E+02 -0.21311963534E+03  0.27867373104E+03  0.17300000000E+03 0.  1.
<mgrwt>
<rscale>  2 0.17955241E+03</rscale>
<asrwt>0</asrwt>
<pdfrwt beam="1">  1       21 0.21548498E-01 0.17955241E+03</pdfrwt>
<pdfrwt beam="2">  1       21 0.49387581E-01 0.17955241E+03</pdfrwt>
<totfact> 0.78894002E+04</totfact>
</mgrwt>
</event>
<event>
 4    3  0.4041078E+000  0.2355536E+03  0.7546771E-02  0.1122791E+00
         21   -1    0    0  501  502  0.00000000000E+00  0.00000000000E+00  0.26526955084E+03  0.26526955084E+03  0.00000000000E+00 0. -1.
         21   -1    0    0  502  503 -0.00000000000E+00 -0.00000000000E+00 -0.33482251138E+03  0.33482251138E+03  0.00000000000E+00 0. -1.
          6    1    1    2  501    0  0.14104619391E+03 -0.75249467455E+02  0.14903479442E+03  0.27874160277E+03  0.17300000000E+03 0. -1.
         -6    1    1    2    0  503 -0.14104619391E+03  0.75249467455E+02 -0.21858775496E+03  0.32135045945E+03  0.17300000000E+03 0. -1.
<mgrwt>
<rscale>  2 0.23555363E+03</rscale>
<asrwt>0</asrwt>
<pdfrwt beam="1">  1       21 0.40810700E-01 0.23555363E+03</pdfrwt>
<pdfrwt beam="2">  1       21 0.51511156E-01 0.23555363E+03</pdfrwt>
<totfact> 0.20216173E+04</totfact>
</mgrwt>
</event>
<event>
 4    3  0.4041078E+000  0.1842779E+03  0.7546771E-02  0.1163726E+00
         21   -1    0    0  503  502  0.00000000000E+00  0.00000000000E+00  0.40373996360E+03  0.40373996360E+03  0.00000000000E+00 0. -1.
         21   -1    0    0  501  503 -0.00000000000E+00 -0.00000000000E+00 -0.12407052629E+03  0.12407052629E+03  0.00000000000E+00 0.  1.
          6    1    1    2  501    0  0.52433653584E+02 -0.35777969982E+02  0.28960727141E+03  0.34326479986E+03  0.17300000000E+03 0. -1.
         -6    1    1    2    0  502 -0.52433653584E+02  0.35777969982E+02 -0.99378340985E+01  0.18454569004E+03  0.17300000000E+03 0.  1.
<mgrwt>
<rscale>  2 0.18427792E+03</rscale>
<asrwt>0</asrwt>
<pdfrwt beam="1">  1       21 0.62113840E-01 0.18427792E+03</pdfrwt>
<pdfrwt beam="2">  1       21 0.19087773E-01 0.18427792E+03</pdfrwt>
<totfact> 0.60789263E+04</totfact>
</mgrwt>
</event>
<event>
 4    3  0.4041078E+000  0.1934501E+03  0.7546771E-02  0.1155386E+00
         21   -1    0    0  501  502  0.00000000000E+00  0.00000000000E+00  0.14707496051E+03  0.14707496051E+03  0.00000000000E+00 0.  1.
         21   -1    0    0  502  503 -0.00000000000E+00 -0.00000000000E+00 -0.29409217830E+03  0.29409217830E+03  0.00000000000E+00 0.  1.
          6    1    1    2  501    0  0.86563392956E+02  0.84390129394E+00 -0.15449666938E+03  0.24757252275E+03  0.17300000000E+03 0.  1.
         -6    1    1    2    0  503 -0.86563392956E+02 -0.84390129394E+00  0.74794515953E+01  0.19359461606E+03  0.17300000000E+03 0.  1.
<mgrwt>
<rscale>  2 0.19345008E+03</rscale>
<asrwt>0</asrwt>
<pdfrwt beam="1">  1       21 0.22626917E-01 0.19345008E+03</pdfrwt>
<pdfrwt beam="2">  1       21 0.45244950E-01 0.19345008E+03</pdfrwt>
<totfact> 0.85761638E+04</totfact>
</mgrwt>
</event>
<event>
 4    3  0.4041078E+000  0.1961346E+03  0.7546771E-02  0.1153042E+00
         21   -1    0    0  501  502  0.00000000000E+00  0.00000000000E+00  0.57945124615E+03  0.57945124615E+03  0.00000000000E+00 0. -1.
         21   -1    0    0  502  503 -0.00000000000E+00 -0.00000000000E+00 -0.66392627826E+02  0.66392627826E+02  0.00000000000E+00 0. -1.
          6    1    1    2  501    0  0.71609643011E+02 -0.58410804806E+02  0.25391170606E+03  0.32084251209E+03  0.17300000000E+03 0.  1.
         -6    1    1    2    0  503 -0.71609643011E+02  0.58410804806E+02  0.25914691226E+03  0.32500136188E+03  0.17300000000E+03 0.  1.
<mgrwt>
<rscale>  2 0.19613455E+03</rscale>
<asrwt>0</asrwt>
<pdfrwt beam="1">  1       21 0.89146342E-01 0.19613455E+03</pdfrwt>
<pdfrwt beam="2">  1       21 0.10214251E-01 0.19613455E+03</pdfrwt>
<totfact> 0.83815813E+04</totfact>
</mgrwt>
</event>
<event>
 4    3  0.4041078E+000  0.2282592E+03  0.7546771E-02  0.1127871E+00
         21   -1    0    0  503  502  0.00000000000E+00  0.00000000000E+00  0.92731376518E+03  0.92731376518E+03  0.00000000000E+00 0. -1.
         21   -1    0    0  501  503 -0.00000000000E+00 -0.00000000000E+00 -0.65804119761E+02  0.65804119761E+02  0.00000000000E+00 0. -1.
          6    1    1    2  501    0 -0.12604485495E+03  0.79284007705E+02  0.24091632502E+03  0.33187789170E+03  0.17300000000E+03 0. -1.
         -6    1    1    2    0  502  0.12604485495E+03 -0.79284007705E+02  0.62059332040E+03  0.66123999324E+03  0.17300000000E+03 0. -1.
<mgrwt>
<rscale>  2 0.22825919E+03</rscale>
<asrwt>0</asrwt>
<pdfrwt beam="1">  1       21 0.14266365E+00 0.22825919E+03</pdfrwt>
<pdfrwt beam="2">  1       21 0.10123711E-01 0.22825919E+03</pdfrwt>
<totfact> 0.26483716E+04</totfact>
</mgrwt>
</event>
<event>
 4    3  0.4041078E+000  0.1804915E+03  0.7546771E-02  0.1167328E+00
         21   -1    0    0  501  502  0.00000000000E+00  0.00000000000E+00  0.58538364816E+02  0.58538364816E+02  0.00000000000E+00 0.  1.
         21   -1    0    0  502  503 -0.00000000000E+00 -0.00000000000E+00 -0.55678811777E+03  0.55678811777E+03  0.00000000000E+00 0. -1.
          6    1    1    2  501    0  0.34443564859E+02 -0.38233775039E+02 -0.25600201140E+03  0.31323187985E+03  0.17300000000E+03 0. -1.
         -6    1    1    2    0  503 -0.34443564859E+02  0.38233775039E+02 -0.24224774156E+03  0.30209460274E+03  0.17300000000E+03 0. -1.
<mgrwt>
<rscale>  2 0.18049150E+03</rscale>
<asrwt>0</asrwt>
<pdfrwt beam="1">  1       21 0.90059027E-02 0.18049150E+03</pdfrwt>
<pdfrwt beam="2">  1       21 0.85659706E-01 0.18049150E+03</pdfrwt>
<totfact> 0.11539471E+05</totfact>
</mgrwt>
</event>
<event>
 4    3  0.4041078E+000  0.2600750E+03  0.7546771E-02  0.1107098E+00
         21   -1    0    0  501  502  0.00000000000E+00  0.00000000000E+00  0.14202282413E+03  0.14202282413E+03  0.00000000000E+00 0.  1.
         21   -1    0    0  502  503 -0.00000000000E+00 -0.00000000000E+00 -0.49834903756E+03  0.49834903756E+03  0.00000000000E+00 0.  1.
          6    1    1    2  501    0 -0.33794671165E+02  0.19122748415E+03 -0.11074502208E+03  0.28267205453E+03  0.17300000000E+03 0.  1.
         -6    1    1    2    0  503  0.33794671165E+02 -0.19122748415E+03 -0.24558119135E+03  0.35769980715E+03  0.17300000000E+03 0.  1.
<mgrwt>
<rscale>  2 0.26007505E+03</rscale>
<asrwt>0</asrwt>
<pdfrwt beam="1">  1       21 0.21849666E-01 0.26007505E+03</pdfrwt>
<pdfrwt beam="2">  1       21 0.76669082E-01 0.26007505E+03</pdfrwt>
<totfact> 0.28610536E+04</totfact>
</mgrwt>
</event>
<event>
 4    3  0.4041078E+000  0.1768982E+03  0.7546771E-02  0.1170839E+00
         21   -1    0    0  501  502  0.00000000000E+00  0.00000000000E+00  0.17839855835E+03  0.17839855835E+03  0.00000000000E+00 0.  1.
         21   -1    0    0  502  503 -0.00000000000E+00 -0.00000000000E+00 -0.36397915765E+03  0.36397915765E+03  0.00000000000E+00 0.  1.
          6    1    1    2  501    0 -0.21712325282E+02  0.29875302235E+02  0.10240460577E+03  0.20440073883E+03  0.17300000000E+03 0.  1.
         -6    1    1    2    0  503  0.21712325282E+02 -0.29875302235E+02 -0.28798520507E+03  0.33797697716E+03  0.17300000000E+03 0.  1.
<mgrwt>
<rscale>  2 0.17689816E+03</rscale>
<asrwt>0</asrwt>
<pdfrwt beam="1">  1       21 0.27445932E-01 0.17689816E+03</pdfrwt>
<pdfrwt beam="2">  1       21 0.55996793E-01 0.17689816E+03</pdfrwt>
<totfact> 0.38331583E+04</totfact>
</mgrwt>
</event>
<event>
 4    3  0.4041078E+000  0.1861715E+03  0.7546771E-02  0.1161960E+00
         21   -1    0    0  501  502  0.00000000000E+00  0.00000000000E+00  0.15496022776E+03  0.15496022776E+03  0.00000000000E+00 0.  1.
         21   -1    0    0  502  503 -0.00000000000E+00 -0.00000000000E+00 -0.23602836022E+03  0.23602836022E+03  0.00000000000E+00 0.  1.
          6    1    1    2  501    0 -0.68753033032E+02 -0.19621692292E+01 -0.85268972424E+02  0.20476969336E+03  0.17300000000E+03 0.  1.
         -6    1    1    2    0  503  0.68753033032E+02  0.19621692292E+01  0.42008399569E+01  0.18621889463E+03  0.17300000000E+03 0.  1.
<mgrwt>
<rscale>  2 0.18617151E+03</rscale>
<asrwt>0</asrwt>
<pdfrwt beam="1">  1       21 0.23840035E-01 0.18617151E+03</pdfrwt>
<pdfrwt beam="2">  1       21 0.36312055E-01 0.18617151E+03</pdfrwt>
<totfact> 0.12154610E+05</totfact>
</mgrwt>
</event>
<event>
 4    3  0.4041078E+000  0.2286551E+03  0.7546771E-02  0.1127590E+00
         21   -1    0    0  503  502  0.00000000000E+00  0.00000000000E+00  0.20486720569E+03  0.20486720569E+03  0.00000000000E+00 0.  1.
         21   -1    0    0  501  503 -0.00000000000E+00 -0.00000000000E+00 -0.29585587061E+03  0.29585587061E+03  0.00000000000E+00 0. -1.
          6    1    1    2  501    0 -0.25768912471E+02 -0.14727569784E+03 -0.13829724063E+03  0.26722517619E+03  0.17300000000E+03 0.  1.
         -6    1    1    2    0  502  0.25768912471E+02  0.14727569784E+03  0.47308575705E+02  0.23349790012E+03  0.17300000000E+03 0.  1.
<mgrwt>
<rscale>  2 0.22865513E+03</rscale>
<asrwt>0</asrwt>
<pdfrwt beam="1">  1       21 0.31518032E-01 0.22865513E+03</pdfrwt>
<pdfrwt beam="2">  1       21 0.45516288E-01 0.22865513E+03</pdfrwt>
<totfact> 0.44022183E+04</totfact>
</mgrwt>
</event>
<event>
 4    3  0.4041078E+000  0.1930419E+03  0.7546771E-02  0.1155746E+00
         21   -1    0    0  503  502  0.00000000000E+00  0.00000000000E+00  0.22467720357E+02  0.22467720357E+02  0.00000000000E+00 0. -1.
         21   -1    0    0  501  503 -0.00000000000E+00 -0.00000000000E+00 -0.17899907011E+04  0.17899907011E+04  0.00000000000E+00 0. -1.
          6    1    1    2  501    0 -0.81992782626E+02  0.24765736925E+02 -0.11292778761E+04  0.11456586227E+04  0.17300000000E+03 0. -1.
         -6    1    1    2    0  502  0.81992782626E+02 -0.24765736925E+02 -0.63824510458E+03  0.66679979878E+03  0.17300000000E+03 0. -1.
<mgrwt>
<rscale>  2 0.19304186E+03</rscale>
<asrwt>0</asrwt>
<pdfrwt beam="1">  1       21 0.34565712E-02 0.19304186E+03</pdfrwt>
<pdfrwt beam="2">  1       21 0.27538327E+00 0.19304186E+03</pdfrwt>
<totfact> 0.23655607E+04</totfact>
</mgrwt>
</event>
<event>
 4    3  0.4041078E+000  0.2012916E+03  0.7546771E-02  0.1148654E+00
         21   -1    0    0  503  502  0.00000000000E+00  0.00000000000E+00  0.30734713922E+03  0.30734713922E+03  0.00000000000E+00 0. -1.
         21   -1    0    0  501  503 -0.00000000000E+00 -0.00000000000E+00 -0.18434070649E+03  0.18434070649E+03  0.00000000000E+00 0. -1.
          6    1    1    2  501    0 -0.10178149409E+03  0.15160225875E+02 -0.69705576523E+02  0.21301918314E+03  0.17300000000E+03 0. -1.
         -6    1    1    2    0  502  0.10178149409E+03 -0.15160225875E+02  0.19271200925E+03  0.27866866257E+03  0.17300000000E+03 0. -1.
<mgrwt>
<rscale>  2 0.20129159E+03</rscale>
<asrwt>0</asrwt>
<pdfrwt beam="1">  1       21 0.47284175E-01 0.20129159E+03</pdfrwt>
<pdfrwt beam="2">  1       21 0.28360109E-01 0.20129159E+03</pdfrwt>
<totfact> 0.50645863E+04</totfact>
</mgrwt>
</event>
<event>
 4    3  0.4041078E+000  0.2183313E+03  0.7546771E-02  0.1135133E+00
         21   -1    0    0  501  502  0.00000000000E+00  0.00000000000E+00  0.21482402008E+04  0.21482402008E+04  0.00000000000E+00 0.  1.
         21   -1    0    0  502  503 -0.00000000000E+00 -0.00000000000E+00 -0.22203244008E+02  0.22203244008E+02  0.00000000000E+00 0.  1.
          6    1    1    2  501    0 -0.13270153435E+03  0.11396508253E+02  0.10361106547E+04  0.10588644230E+04  0.17300000000E+03 0.  1.
         -6    1    1    2    0  503  0.13270153435E+03 -0.11396508253E+02  0.10899263021E+04  0.11115790218E+04  0.17300000000E+03 0.  1.
<mgrwt>
<rscale>  2 0.21833135E+03</rscale>
<asrwt>0</asrwt>
<pdfrwt beam="1">  1       21 0.33049833E+00 0.21833135E+03</pdfrwt>
<pdfrwt beam="2">  1       21 0.34158854E-02 0.21833135E+03</pdfrwt>
<totfact> 0.11286855E+04</totfact>
</mgrwt>
</event>
<event>
 4    3  0.4041078E+000  0.1730956E+03  0.7546771E-02  0.1174658E+00
         21   -1    0    0  503  502  0.00000000000E+00  0.00000000000E+00  0.48208912986E+03  0.48208912986E+03  0.00000000000E+00 0. -1.
         21   -1    0    0  501  503 -0.00000000000E+00 -0.00000000000E+00 -0.65337736391E+02  0.65337736391E+02  0.00000000000E+00 0. -1.
          6    1    1    2  501    0 -0.57104941567E+01 -0.69874794127E+00  0.26882881821E+03  0.31973587771E+03  0.17300000000E+03 0. -1.
         -6    1    1    2    0  502  0.57104941567E+01  0.69874794127E+00  0.14792257525E+03  0.22769098854E+03  0.17300000000E+03 0. -1.
<mgrwt>
<rscale>  2 0.17309563E+03</rscale>
<asrwt>0</asrwt>
<pdfrwt beam="1">  1       21 0.74167556E-01 0.17309563E+03</pdfrwt>
<pdfrwt beam="2">  1       21 0.10051960E-01 0.17309563E+03</pdfrwt>
<totfact> 0.13198571E+05</totfact>
</mgrwt>
</event>
<event>
 4    3  0.4041078E+000  0.1743370E+03  0.7546771E-02  0.1173399E+00
         21   -1    0    0  501  502  0.00000000000E+00  0.00000000000E+00  0.94168397050E+03  0.94168397050E+03  0.00000000000E+00 0.  1.
         21   -1    0    0  502  503 -0.00000000000E+00 -0.00000000000E+00 -0.37163371888E+02  0.37163371888E+02  0.00000000000E+00 0.  1.
          6    1    1    2  501    0  0.11948894334E+02  0.17933570595E+02  0.62975447718E+03  0.65344019662E+03  0.17300000000E+03 0.  1.
         -6    1    1    2    0  503 -0.11948894334E+02 -0.17933570595E+02  0.27476612142E+03  0.32540714576E+03  0.17300000000E+03 0.  1.
<mgrwt>
<rscale>  2 0.17433700E+03</rscale>
<asrwt>0</asrwt>
<pdfrwt beam="1">  1       21 0.14487444E+00 0.17433700E+03</pdfrwt>
<pdfrwt beam="2">  1       21 0.57174425E-02 0.17433700E+03</pdfrwt>
<totfact> 0.70772766E+04</totfact>
</mgrwt>
</event>
<event>
 4    3  0.4041078E+000  0.2201841E+03  0.7546771E-02  0.1133746E+00
         21   -1    0    0  501  502  0.00000000000E+00  0.00000000000E+00  0.27674886496E+03  0.27674886496E+03  0.00000000000E+00 0.  1.
         21   -1    0    0  502  503 -0.00000000000E+00 -0.00000000000E+00 -0.19134482393E+03  0.19134482393E+03  0.00000000000E+00 0. -1.
          6    1    1    2  501    0  0.10494412104E+03  0.86825979121E+02  0.11072763791E+03  0.24645816884E+03  0.17300000000E+03 0.  1.
         -6    1    1    2    0  503 -0.10494412104E+03 -0.86825979121E+02 -0.25323596885E+02  0.22163552005E+03  0.17300000000E+03 0. -1.
<mgrwt>
<rscale>  2 0.22018406E+03</rscale>
<asrwt>0</asrwt>
<pdfrwt beam="1">  1       21 0.42576749E-01 0.22018406E+03</pdfrwt>
<pdfrwt beam="2">  1       21 0.29437665E-01 0.22018406E+03</pdfrwt>
<totfact> 0.57940828E+04</totfact>
</mgrwt>
</event>
<event>
 4    3  0.4041078E+000  0.1871035E+03  0.7546771E-02  0.1161100E+00
         21   -1    0    0  503  502  0.00000000000E+00  0.00000000000E+00  0.96791080130E+03  0.96791080130E+03  0.00000000000E+00 0.  1.
         21   -1    0    0  501  503 -0.00000000000E+00 -0.00000000000E+00 -0.82875539169E+02  0.82875539169E+02  0.00000000000E+00 0.  1.
          6    1    1    2  501    0 -0.63694782354E+02 -0.31963951748E+02  0.48093762950E+02  0.19318573846E+03  0.17300000000E+03 0.  1.
         -6    1    1    2    0  502  0.63694782354E+02  0.31963951748E+02  0.83694149918E+03  0.85760060201E+03  0.17300000000E+03 0.  1.
<mgrwt>
<rscale>  2 0.18710350E+03</rscale>
<asrwt>0</asrwt>
<pdfrwt beam="1">  1       21 0.14890935E+00 0.18710350E+03</pdfrwt>
<pdfrwt beam="2">  1       21 0.12750084E-01 0.18710350E+03</pdfrwt>
<totfact> 0.16100278E+04</totfact>
</mgrwt>
</event>
<event>
 4    3  0.4041078E+000  0.1827415E+03  0.7546771E-02  0.1165176E+00
         21   -1    0    0  503  502  0.00000000000E+00  0.00000000000E+00  0.25581070401E+04  0.25581070401E+04  0.00000000000E+00 0. -1.
         21   -1    0    0  501  503 -0.00000000000E+00 -0.00000000000E+00 -0.15736015292E+02  0.15736015292E+02  0.00000000000E+00 0. -1.
          6    1    1    2  501    0 -0.49131322962E+02 -0.32428128420E+02  0.73992746942E+03  0.76215951769E+03  0.17300000000E+03 0. -1.
         -6    1    1    2    0  502  0.49131322962E+02  0.32428128420E+02  0.18024435554E+04  0.18116835377E+04  0.17300000000E+03 0. -1.
<mgrwt>
<rscale>  2 0.18274154E+03</rscale>
<asrwt>0</asrwt>
<pdfrwt beam="1">  1       21 0.39355460E+00 0.18274154E+03</pdfrwt>
<pdfrwt beam="2">  1       21 0.24209275E-02 0.18274154E+03</pdfrwt>
<totfact> 0.87197289E+03</totfact>
</mgrwt>
</event>
<event>
 4    3  0.4041078E+000  0.2155080E+03  0.7546771E-02  0.1137277E+00
         21   -1    0    0  503  502  0.00000000000E+00  0.00000000000E+00  0.10394823492E+03  0.10394823492E+03  0.00000000000E+00 0.  1.
         21   -1    0    0  501  503 -0.00000000000E+00 -0.00000000000E+00 -0.16500116904E+04  0.16500116904E+04  0.00000000000E+00 0.  1.
          6    1    1    2  501    0 -0.61220429439E+02  0.11299002909E+03 -0.15219214109E+04  0.15371039225E+04  0.17300000000E+03 0.  1.
         -6    1    1    2    0  502  0.61220429439E+02 -0.11299002909E+03 -0.24142044619E+02  0.21685600285E+03  0.17300000000E+03 0.  1.
<mgrwt>
<rscale>  2 0.21550798E+03</rscale>
<asrwt>0</asrwt>
<pdfrwt beam="1">  1       21 0.15992037E-01 0.21550798E+03</pdfrwt>
<pdfrwt beam="2">  1       21 0.25384795E+00 0.21550798E+03</pdfrwt>
<totfact> 0.21482853E+03</totfact>
</mgrwt>
</event>
<event>
 4    3  0.4041078E+000  0.1747946E+03  0.7546771E-02  0.1172938E+00
         21   -1    0    0  501  502  0.00000000000E+00  0.00000000000E+00  0.11324600673E+04  0.11324600673E+04  0.00000000000E+00 0.  1.
         21   -1    0    0  502  503 -0.00000000000E+00 -0.00000000000E+00 -0.28245001193E+02  0.28245001193E+02  0.00000000000E+00 0.  1.
          6    1    1    2  501    0  0.13918851516E+02  0.20746608281E+02  0.67495323674E+03  0.69721949769E+03  0.17300000000E+03 0.  1.
         -6    1    1    2    0  503 -0.13918851516E+02 -0.20746608281E+02  0.42926182935E+03  0.46348557077E+03  0.17300000000E+03 0.  1.
<mgrwt>
<rscale>  2 0.17479461E+03</rscale>
<asrwt>0</asrwt>
<pdfrwt beam="1">  1       21 0.17422459E+00 0.17479461E+03</pdfrwt>
<pdfrwt beam="2">  1       21 0.43453857E-02 0.17479461E+03</pdfrwt>
<totfact> 0.68677542E+04</totfact>
</mgrwt>
</event>
<event>
 4    3  0.4041078E+000  0.2731914E+03  0.7546771E-02  0.1099467E+00
         21   -1    0    0  501  502  0.00000000000E+00  0.00000000000E+00  0.63589274369E+03  0.63589274369E+03  0.00000000000E+00 0. -1.
         21   -1    0    0  502  503 -0.00000000000E+00 -0.00000000000E+00 -0.19345354561E+03  0.19345354561E+03  0.00000000000E+00 0. -1.
          6    1    1    2  501    0 -0.20117617552E+03 -0.65059223265E+02  0.48127639614E+03  0.55340810042E+03  0.17300000000E+03 0. -1.
         -6    1    1    2    0  503  0.20117617552E+03  0.65059223265E+02 -0.38837198062E+02  0.27593818888E+03  0.17300000000E+03 0. -1.
<mgrwt>
<rscale>  2 0.27319143E+03</rscale>
<asrwt>0</asrwt>
<pdfrwt beam="1">  1       21 0.97829652E-01 0.27319143E+03</pdfrwt>
<pdfrwt beam="2">  1       21 0.29762084E-01 0.27319143E+03</pdfrwt>
<totfact> 0.89032187E+03</totfact>
</mgrwt>
</event>
<event>
 4    3  0.4041078E+000  0.1751921E+03  0.7546771E-02  0.1172539E+00
         21   -1    0    0  501  502  0.00000000000E+00  0.00000000000E+00  0.89345170358E+02  0.89345170358E+02  0.00000000000E+00 0. -1.
         21   -1    0    0  502  503 -0.00000000000E+00 -0.00000000000E+00 -0.72629715978E+03  0.72629715978E+03  0.00000000000E+00 0. -1.
          6    1    1    2  501    0 -0.27627335043E+02  0.88742652621E-01 -0.22413837023E+02  0.17662009401E+03  0.17300000000E+03 0. -1.
         -6    1    1    2    0  503  0.27627335043E+02 -0.88742652621E-01 -0.61453815240E+03  0.63902223613E+03  0.17300000000E+03 0. -1.
<mgrwt>
<rscale>  2 0.17519212E+03</rscale>
<asrwt>0</asrwt>
<pdfrwt beam="1">  1       21 0.13745411E-01 0.17519212E+03</pdfrwt>
<pdfrwt beam="2">  1       21 0.11173802E+00 0.17519212E+03</pdfrwt>
<totfact> 0.29198809E+04</totfact>
</mgrwt>
</event>
<event>
 4    3  0.4041078E+000  0.2559768E+03  0.7546771E-02  0.1109585E+00
         21   -1    0    0  501  502  0.00000000000E+00  0.00000000000E+00  0.46123010659E+02  0.46123010659E+02  0.00000000000E+00 0.  1.
         21   -1    0    0  502  503 -0.00000000000E+00 -0.00000000000E+00 -0.17508811114E+04  0.17508811114E+04  0.00000000000E+00 0. -1.
          6    1    1    2  501    0  0.91233429096E+02  0.16514113850E+03 -0.46216116789E+03  0.52831532186E+03  0.17300000000E+03 0. -1.
         -6    1    1    2    0  503 -0.91233429096E+02 -0.16514113850E+03 -0.12425969328E+04  0.12686888002E+04  0.17300000000E+03 0.  1.
<mgrwt>
<rscale>  2 0.25597682E+03</rscale>
<asrwt>0</asrwt>
<pdfrwt beam="1">  1       21 0.70958475E-02 0.25597682E+03</pdfrwt>
<pdfrwt beam="2">  1       21 0.26936634E+00 0.25597682E+03</pdfrwt>
<totfact> 0.71497915E+03</totfact>
</mgrwt>
</event>
<event>
 4    3  0.4041078E+000  0.2446782E+03  0.7546771E-02  0.1116715E+00
         21   -1    0    0  503  502  0.00000000000E+00  0.00000000000E+00  0.59791273358E+03  0.59791273358E+03  0.00000000000E+00 0.  1.
         21   -1    0    0  501  503 -0.00000000000E+00 -0.00000000000E+00 -0.10788295339E+03  0.10788295339E+03  0.00000000000E+00 0.  1.
          6    1    1    2  501    0 -0.16661188972E+03 -0.46678637236E+02  0.15039544128E+03  0.28720411858E+03  0.17300000000E+03 0.  1.
         -6    1    1    2    0  502  0.16661188972E+03  0.46678637236E+02  0.33963433891E+03  0.41859156840E+03  0.17300000000E+03 0.  1.
<mgrwt>
<rscale>  2 0.24467819E+03</rscale>
<asrwt>0</asrwt>
<pdfrwt beam="1">  1       21 0.91986573E-01 0.24467819E+03</pdfrwt>
<pdfrwt beam="2">  1       21 0.16597378E-01 0.24467819E+03</pdfrwt>
<totfact> 0.31697295E+04</totfact>
</mgrwt>
</event>
<event>
 4    3  0.4041078E+000  0.2031298E+03  0.7546771E-02  0.1147125E+00
         21   -1    0    0  501  502  0.00000000000E+00  0.00000000000E+00  0.70506051350E+03  0.70506051350E+03  0.00000000000E+00 0.  1.
         21   -1    0    0  502  503 -0.00000000000E+00 -0.00000000000E+00 -0.88063471805E+02  0.88063471805E+02  0.00000000000E+00 0.  1.
          6    1    1    2  501    0 -0.10544022070E+03 -0.14665842915E+02  0.53818076300E+03  0.57523930738E+03  0.17300000000E+03 0.  1.
         -6    1    1    2    0  503  0.10544022070E+03  0.14665842915E+02  0.78816278702E+02  0.21788467793E+03  0.17300000000E+03 0.  1.
<mgrwt>
<rscale>  2 0.20312983E+03</rscale>
<asrwt>0</asrwt>
<pdfrwt beam="1">  1       21 0.10847084E+00 0.20312983E+03</pdfrwt>
<pdfrwt beam="2">  1       21 0.13548227E-01 0.20312983E+03</pdfrwt>
<totfact> 0.31684226E+04</totfact>
</mgrwt>
</event>
<event>
 4    3  0.4041078E+000  0.1743410E+03  0.7546771E-02  0.1173395E+00
         21   -1    0    0  501  502  0.00000000000E+00  0.00000000000E+00  0.14117919397E+03  0.14117919397E+03  0.00000000000E+00 0.  1.
         21   -1    0    0  502  503 -0.00000000000E+00 -0.00000000000E+00 -0.23285298618E+03  0.23285298618E+03  0.00000000000E+00 0.  1.
          6    1    1    2  501    0  0.21085563051E+02 -0.46034042703E+01  0.55211984811E+01  0.17442842639E+03  0.17300000000E+03 0.  1.
         -6    1    1    2    0  503 -0.21085563051E+02  0.46034042703E+01 -0.97194990689E+02  0.19960375376E+03  0.17300000000E+03 0.  1.
<mgrwt>
<rscale>  2 0.17434102E+03</rscale>
<asrwt>0</asrwt>
<pdfrwt beam="1">  1       21 0.21719876E-01 0.17434102E+03</pdfrwt>
<pdfrwt beam="2">  1       21 0.35823536E-01 0.17434102E+03</pdfrwt>
<totfact> 0.14947289E+05</totfact>
</mgrwt>
</event>
<event>
 4    3  0.4041078E+000  0.1828353E+03  0.7546771E-02  0.1165087E+00
         21   -1    0    0  503  502  0.00000000000E+00  0.00000000000E+00  0.53185251518E+03  0.53185251518E+03  0.00000000000E+00 0.  1.
         21   -1    0    0  501  503 -0.00000000000E+00 -0.00000000000E+00 -0.94954345485E+02  0.94954345485E+02  0.00000000000E+00 0.  1.
          6    1    1    2  501    0 -0.54789463271E+02 -0.22312980962E+02  0.36225310431E+02  0.18638945121E+03  0.17300000000E+03 0.  1.
         -6    1    1    2    0  502  0.54789463271E+02  0.22312980962E+02  0.40067285927E+03  0.44041740946E+03  0.17300000000E+03 0.  1.
<mgrwt>
<rscale>  2 0.18283532E+03</rscale>
<asrwt>0</asrwt>
<pdfrwt beam="1">  1       21 0.81823462E-01 0.18283532E+03</pdfrwt>
<pdfrwt beam="2">  1       21 0.14608361E-01 0.18283532E+03</pdfrwt>
<totfact> 0.54045488E+04</totfact>
</mgrwt>
</event>
<event>
 4    3  0.4041078E+000  0.2006784E+03  0.7546771E-02  0.1149168E+00
         21   -1    0    0  503  502  0.00000000000E+00  0.00000000000E+00  0.51163811135E+03  0.51163811135E+03  0.00000000000E+00 0. -1.
         21   -1    0    0  501  503 -0.00000000000E+00 -0.00000000000E+00 -0.79414093124E+02  0.79414093124E+02  0.00000000000E+00 0. -1.
          6    1    1    2  501    0  0.14577124680E+02 -0.10064961434E+03  0.18831626372E+03  0.27519965955E+03  0.17300000000E+03 0. -1.
         -6    1    1    2    0  502 -0.14577124680E+02  0.10064961434E+03  0.24390775451E+03  0.31585254493E+03  0.17300000000E+03 0. -1.
<mgrwt>
<rscale>  2 0.20067844E+03</rscale>
<asrwt>0</asrwt>
<pdfrwt beam="1">  1       21 0.78713553E-01 0.20067844E+03</pdfrwt>
<pdfrwt beam="2">  1       21 0.12217553E-01 0.20067844E+03</pdfrwt>
<totfact> 0.80778269E+04</totfact>
</mgrwt>
</event>
<event>
 4    3  0.4041078E+000  0.1800831E+03  0.7546771E-02  0.1167723E+00
         21   -1    0    0  501  502  0.00000000000E+00  0.00000000000E+00  0.11289564004E+03  0.11289564004E+03  0.00000000000E+00 0. -1.
         21   -1    0    0  502  503 -0.00000000000E+00 -0.00000000000E+00 -0.38625870390E+03  0.38625870390E+03  0.00000000000E+00 0. -1.
          6    1    1    2  501    0 -0.41749611380E+02 -0.27530067515E+02 -0.26303569203E+03  0.31877532832E+03  0.17300000000E+03 0. -1.
         -6    1    1    2    0  503  0.41749611380E+02  0.27530067515E+02 -0.10327371835E+02  0.18037901562E+03  0.17300000000E+03 0. -1.
<mgrwt>
<rscale>  2 0.18008313E+03</rscale>
<asrwt>0</asrwt>
<pdfrwt beam="1">  1       21 0.17368560E-01 0.18008313E+03</pdfrwt>
<pdfrwt beam="2">  1       21 0.59424417E-01 0.18008313E+03</pdfrwt>
<totfact> 0.79743040E+04</totfact>
</mgrwt>
</event>
<event>
 4    3  0.4041078E+000  0.1805623E+03  0.7546771E-02  0.1167260E+00
         21   -1    0    0  503  502  0.00000000000E+00  0.00000000000E+00  0.11588008942E+03  0.11588008942E+03  0.00000000000E+00 0. -1.
         21   -1    0    0  501  503 -0.00000000000E+00 -0.00000000000E+00 -0.47376739624E+03  0.47376739624E+03  0.00000000000E+00 0. -1.
          6    1    1    2  501    0 -0.26598055401E+02 -0.44342738967E+02 -0.36683348824E+03  0.40886372197E+03  0.17300000000E+03 0. -1.
         -6    1    1    2    0  502  0.26598055401E+02  0.44342738967E+02  0.89461814159E+01  0.18078376369E+03  0.17300000000E+03 0. -1.
<mgrwt>
<rscale>  2 0.18056227E+03</rscale>
<asrwt>0</asrwt>
<pdfrwt beam="1">  1       21 0.17827706E-01 0.18056227E+03</pdfrwt>
<pdfrwt beam="2">  1       21 0.72887292E-01 0.18056227E+03</pdfrwt>
<totfact> 0.48707530E+04</totfact>
</mgrwt>
</event>
<event>
 4    3  0.4041078E+000  0.1917307E+03  0.7546771E-02  0.1156910E+00
         21   -1    0    0  501  502  0.00000000000E+00  0.00000000000E+00  0.67187900295E+03  0.67187900295E+03  0.00000000000E+00 0.  1.
         21   -1    0    0  502  503 -0.00000000000E+00 -0.00000000000E+00 -0.64685725033E+02  0.64685725033E+02  0.00000000000E+00 0. -1.
          6    1    1    2  501    0  0.60129043876E+02  0.56711231727E+02  0.44820012526E+03  0.48748745421E+03  0.17300000000E+03 0.  1.
         -6    1    1    2    0  503 -0.60129043876E+02 -0.56711231727E+02  0.15899315265E+03  0.24907727378E+03  0.17300000000E+03 0. -1.
<mgrwt>
<rscale>  2 0.19173071E+03</rscale>
<asrwt>0</asrwt>
<pdfrwt beam="1">  1       21 0.10336600E+00 0.19173071E+03</pdfrwt>
<pdfrwt beam="2">  1       21 0.99516505E-02 0.19173071E+03</pdfrwt>
<totfact> 0.62116246E+04</totfact>
</mgrwt>
</event>
<event>
 4    3  0.4041078E+000  0.2045209E+03  0.7546771E-02  0.1145980E+00
         21   -1    0    0  503  502  0.00000000000E+00  0.00000000000E+00  0.14734792023E+04  0.14734792023E+04  0.00000000000E+00 0.  1.
         21   -1    0    0  501  503 -0.00000000000E+00 -0.00000000000E+00 -0.63597336582E+02  0.63597336582E+02  0.00000000000E+00 0. -1.
          6    1    1    2  501    0 -0.10898258786E+03 -0.47515041261E+01  0.13309846537E+03  0.24401635751E+03  0.17300000000E+03 0. -1.
         -6    1    1    2    0  502  0.10898258786E+03  0.47515041261E+01  0.12767834003E+04  0.12930601813E+04  0.17300000000E+03 0.  1.
<mgrwt>
<rscale>  2 0.20452086E+03</rscale>
<asrwt>0</asrwt>
<pdfrwt beam="1">  1       21 0.22668908E+00 0.20452086E+03</pdfrwt>
<pdfrwt beam="2">  1       21 0.97842067E-02 0.20452086E+03</pdfrwt>
<totfact> 0.76393434E+03</totfact>
</mgrwt>
</event>
<event>
 4    3  0.4041078E+000  0.1802994E+03  0.7546771E-02  0.1167514E+00
         21   -1    0    0  503  502  0.00000000000E+00  0.00000000000E+00  0.97189216871E+02  0.97189216871E+02  0.00000000000E+00 0. -1.
         21   -1    0    0  501  503 -0.00000000000E+00 -0.00000000000E+00 -0.34622593718E+03  0.34622593718E+03  0.00000000000E+00 0. -1.
          6    1    1    2  501    0  0.49698000213E+02 -0.10440072548E+02 -0.83682893842E+02  0.19877301895E+03  0.17300000000E+03 0. -1.
         -6    1    1    2    0  502 -0.49698000213E+02  0.10440072548E+02 -0.16535382647E+03  0.24464213510E+03  0.17300000000E+03 0. -1.
<mgrwt>
<rscale>  2 0.18029944E+03</rscale>
<asrwt>0</asrwt>
<pdfrwt beam="1">  1       21 0.14952187E-01 0.18029944E+03</pdfrwt>
<pdfrwt beam="2">  1       21 0.53265529E-01 0.18029944E+03</pdfrwt>
<totfact> 0.13224351E+05</totfact>
</mgrwt>
</event>
<event>
 4    3  0.4041078E+000  0.1815799E+03  0.7546771E-02  0.1166283E+00
         21   -1    0    0  501  502  0.00000000000E+00  0.00000000000E+00  0.82703471169E+02  0.82703471169E+02  0.00000000000E+00 0. -1.
         21   -1    0    0  502  503 -0.00000000000E+00 -0.00000000000E+00 -0.41733493085E+03  0.41733493085E+03  0.00000000000E+00 0. -1.
          6    1    1    2  501    0  0.25041086290E+02  0.49144655981E+02 -0.11443909243E+03  0.21463354605E+03  0.17300000000E+03 0. -1.
         -6    1    1    2    0  503 -0.25041086290E+02 -0.49144655981E+02 -0.22019236725E+03  0.28540485597E+03  0.17300000000E+03 0. -1.
<mgrwt>
<rscale>  2 0.18157988E+03</rscale>
<asrwt>0</asrwt>
<pdfrwt beam="1">  1       21 0.12723611E-01 0.18157988E+03</pdfrwt>
<pdfrwt beam="2">  1       21 0.64205375E-01 0.18157988E+03</pdfrwt>
<totfact> 0.11874698E+05</totfact>
</mgrwt>
</event>
<event>
 4    3  0.4041078E+000  0.1942931E+03  0.7546771E-02  0.1154645E+00
         21   -1    0    0  503  502  0.00000000000E+00  0.00000000000E+00  0.12833177765E+04  0.12833177765E+04  0.00000000000E+00 0. -1.
         21   -1    0    0  501  503 -0.00000000000E+00 -0.00000000000E+00 -0.29468364900E+02  0.29468364900E+02  0.00000000000E+00 0. -1.
          6    1    1    2  501    0 -0.84924835682E+02 -0.24669506947E+02  0.59920072093E+03  0.62991373715E+03  0.17300000000E+03 0. -1.
         -6    1    1    2    0  502  0.84924835682E+02  0.24669506947E+02  0.65464869067E+03  0.68287240425E+03  0.17300000000E+03 0. -1.
<mgrwt>
<rscale>  2 0.19429311E+03</rscale>
<asrwt>0</asrwt>
<pdfrwt beam="1">  1       21 0.19743346E+00 0.19429311E+03</pdfrwt>
<pdfrwt beam="2">  1       21 0.45335956E-02 0.19429311E+03</pdfrwt>
<totfact> 0.44228631E+04</totfact>
</mgrwt>
</event>
<event>
 4    3  0.4041078E+000  0.1730704E+03  0.7546771E-02  0.1174683E+00
         21   -1    0    0  503  502  0.00000000000E+00  0.00000000000E+00  0.21469880490E+02  0.21469880490E+02  0.00000000000E+00 0.  1.
         21   -1    0    0  501  503 -0.00000000000E+00 -0.00000000000E+00 -0.16891763097E+04  0.16891763097E+04  0.00000000000E+00 0.  1.
          6    1    1    2  501    0  0.31342748500E+01  0.38113293016E+01 -0.11907133010E+04  0.12032254631E+04  0.17300000000E+03 0.  1.
         -6    1    1    2    0  502 -0.31342748500E+01 -0.38113293016E+01 -0.47699312830E+03  0.50742072716E+03  0.17300000000E+03 0.  1.
<mgrwt>
<rscale>  2 0.17307036E+03</rscale>
<asrwt>0</asrwt>
<pdfrwt beam="1">  1       21 0.33030585E-02 0.17307036E+03</pdfrwt>
<pdfrwt beam="2">  1       21 0.25987328E+00 0.17307036E+03</pdfrwt>
<totfact> 0.31940864E+04</totfact>
</mgrwt>
</event>
<event>
 4    3  0.4041078E+000  0.2034842E+03  0.7546771E-02  0.1146832E+00
         21   -1    0    0  503  502  0.00000000000E+00  0.00000000000E+00  0.44438795260E+02  0.44438795260E+02  0.00000000000E+00 0.  1.
         21   -1    0    0  501  503 -0.00000000000E+00 -0.00000000000E+00 -0.98206061201E+03  0.98206061201E+03  0.00000000000E+00 0. -1.
          6    1    1    2  501    0 -0.10706451486E+03 -0.37454749035E+01 -0.58497989269E+03  0.61936040702E+03  0.17300000000E+03 0. -1.
         -6    1    1    2    0  502  0.10706451486E+03  0.37454749035E+01 -0.35264192406E+03  0.40713900026E+03  0.17300000000E+03 0.  1.
<mgrwt>
<rscale>  2 0.20348425E+03</rscale>
<asrwt>0</asrwt>
<pdfrwt beam="1">  1       21 0.68367384E-02 0.20348425E+03</pdfrwt>
<pdfrwt beam="2">  1       21 0.15108623E+00 0.20348425E+03</pdfrwt>
<totfact> 0.45917444E+04</totfact>
</mgrwt>
</event>
<event>
 4    3  0.4041078E+000  0.2258820E+03  0.7546771E-02  0.1129572E+00
         21   -1    0    0  501  502  0.00000000000E+00  0.00000000000E+00  0.42678137981E+03  0.42678137981E+03  0.00000000000E+00 0.  1.
         21   -1    0    0  502  503 -0.00000000000E+00 -0.00000000000E+00 -0.12798559747E+03  0.12798559747E+03  0.00000000000E+00 0.  1.
          6    1    1    2  501    0  0.91155394257E+02  0.11306796704E+03  0.22060121094E+03  0.31573337698E+03  0.17300000000E+03 0.  1.
         -6    1    1    2    0  503 -0.91155394257E+02 -0.11306796704E+03  0.78194571408E+02  0.23903360030E+03  0.17300000000E+03 0.  1.
<mgrwt>
<rscale>  2 0.22588198E+03</rscale>
<asrwt>0</asrwt>
<pdfrwt beam="1">  1       21 0.65658673E-01 0.22588198E+03</pdfrwt>
<pdfrwt beam="2">  1       21 0.19690092E-01 0.22588198E+03</pdfrwt>
<totfact> 0.49881385E+04</totfact>
</mgrwt>
</event>
<event>
 4    3  0.4041078E+000  0.2269213E+03  0.7546771E-02  0.1128826E+00
         21   -1    0    0  501  502  0.00000000000E+00  0.00000000000E+00  0.18589485230E+03  0.18589485230E+03  0.00000000000E+00 0. -1.
         21   -1    0    0  502  503 -0.00000000000E+00 -0.00000000000E+00 -0.40696798282E+03  0.40696798282E+03  0.00000000000E+00 0. -1.
          6    1    1    2  501    0  0.46178311559E+01  0.14677513836E+03  0.56980393327E+02  0.23396587535E+03  0.17300000000E+03 0. -1.
         -6    1    1    2    0  503 -0.46178311559E+01 -0.14677513836E+03 -0.27805352385E+03  0.35889695977E+03  0.17300000000E+03 0. -1.
<mgrwt>
<rscale>  2 0.22692128E+03</rscale>
<asrwt>0</asrwt>
<pdfrwt beam="1">  1       21 0.28599208E-01 0.22692128E+03</pdfrwt>
<pdfrwt beam="2">  1       21 0.62610458E-01 0.22692128E+03</pdfrwt>
<totfact> 0.27137262E+04</totfact>
</mgrwt>
</event>
<event>
 4    3  0.4041078E+000  0.2359203E+03  0.7546771E-02  0.1122541E+00
         21   -1    0    0  503  502  0.00000000000E+00  0.00000000000E+00  0.10338597681E+03  0.10338597681E+03  0.00000000000E+00 0.  1.
         21   -1    0    0  501  503 -0.00000000000E+00 -0.00000000000E+00 -0.56187939440E+03  0.56187939440E+03  0.00000000000E+00 0. -1.
          6    1    1    2  501    0  0.42778613324E+02  0.15459428085E+03 -0.29730776388E+03  0.37953959990E+03  0.17300000000E+03 0. -1.
         -6    1    1    2    0  502 -0.42778613324E+02 -0.15459428085E+03 -0.16118565371E+03  0.28572577131E+03  0.17300000000E+03 0. -1.
<mgrwt>
<rscale>  2 0.23592033E+03</rscale>
<asrwt>0</asrwt>
<pdfrwt beam="1">  1       21 0.15905535E-01 0.23592033E+03</pdfrwt>
<pdfrwt beam="2">  1       21 0.86442983E-01 0.23592033E+03</pdfrwt>
<totfact> 0.39771513E+04</totfact>
</mgrwt>
</event>
<event>
 4    3  0.4041078E+000  0.1971723E+03  0.7546771E-02  0.1152147E+00
         21   -1    0    0  501  502  0.00000000000E+00  0.00000000000E+00  0.48755411162E+02  0.48755411162E+02  0.00000000000E+00 0.  1.
         21   -1    0    0  502  503 -0.00000000000E+00 -0.00000000000E+00 -0.80535386702E+03  0.80535386702E+03  0.00000000000E+00 0.  1.
          6    1    1    2  501    0  0.63620411401E+02  0.70002615665E+02 -0.42077471606E+03  0.46468084167E+03  0.17300000000E+03 0.  1.
         -6    1    1    2    0  503 -0.63620411401E+02 -0.70002615665E+02 -0.33582373980E+03  0.38942843651E+03  0.17300000000E+03 0.  1.
<mgrwt>
<rscale>  2 0.19717232E+03</rscale>
<asrwt>0</asrwt>
<pdfrwt beam="1">  1       21 0.75008333E-02 0.19717232E+03</pdfrwt>
<pdfrwt beam="2">  1       21 0.12390058E+00 0.19717232E+03</pdfrwt>
<totfact> 0.65305475E+04</totfact>
</mgrwt>
</event>
<event>
 4    3  0.4041078E+000  0.1757692E+03  0.7546771E-02  0.1171962E+00
         21   -1    0    0  501  502  0.00000000000E+00  0.00000000000E+00  0.18411121941E+03  0.18411121941E+03  0.00000000000E+00 0.  1.
         21   -1    0    0  502  503 -0.00000000000E+00 -0.00000000000E+00 -0.23485974622E+03  0.23485974622E+03  0.00000000000E+00 0.  1.
          6    1    1    2  501    0  0.15444075095E+01 -0.31039050137E+02  0.86560237298E+02  0.19592723779E+03  0.17300000000E+03 0.  1.
         -6    1    1    2    0  503 -0.15444075095E+01  0.31039050137E+02 -0.13730876411E+03  0.22304372784E+03  0.17300000000E+03 0.  1.
<mgrwt>
<rscale>  2 0.17576919E+03</rscale>
<asrwt>0</asrwt>
<pdfrwt beam="1">  1       21 0.28324803E-01 0.17576919E+03</pdfrwt>
<pdfrwt beam="2">  1       21 0.36132268E-01 0.17576919E+03</pdfrwt>
<totfact> 0.88597041E+04</totfact>
</mgrwt>
</event>
<event>
 4    3  0.4041078E+000  0.2501678E+03  0.7546771E-02  0.1113199E+00
         21   -1    0    0  501  502  0.00000000000E+00  0.00000000000E+00  0.34425459250E+03  0.34425459250E+03  0.00000000000E+00 0.  1.
         21   -1    0    0  502  503 -0.00000000000E+00 -0.00000000000E+00 -0.18932845121E+03  0.18932845121E+03  0.00000000000E+00 0.  1.
          6    1    1    2  501    0 -0.22087936686E+02 -0.17935169852E+03  0.13067989153E+03  0.28224305618E+03  0.17300000000E+03 0.  1.
         -6    1    1    2    0  503  0.22087936686E+02  0.17935169852E+03  0.24246249762E+02  0.25133998754E+03  0.17300000000E+03 0.  1.
<mgrwt>
<rscale>  2 0.25016776E+03</rscale>
<asrwt>0</asrwt>
<pdfrwt beam="1">  1       21 0.52962245E-01 0.25016776E+03</pdfrwt>
<pdfrwt beam="2">  1       21 0.29127454E-01 0.25016776E+03</pdfrwt>
<totfact> 0.37088695E+04</totfact>
</mgrwt>
</event>
<event>
 4    3  0.4041078E+000  0.2280547E+03  0.7546771E-02  0.1128017E+00
         21   -1    0    0  501  502  0.00000000000E+00  0.00000000000E+00  0.31621978510E+03  0.31621978510E+03  0.00000000000E+00 0.  1.
         21   -1    0    0  502  503 -0.00000000000E+00 -0.00000000000E+00 -0.16453882972E+03  0.16453882972E+03  0.00000000000E+00 0. -1.
          6    1    1    2  501    0  0.61587519617E+02  0.13522910205E+03  0.70954007494E+02  0.23883760967E+03  0.17300000000E+03 0. -1.
         -6    1    1    2    0  503 -0.61587519617E+02 -0.13522910205E+03  0.80726947882E+02  0.24192100514E+03  0.17300000000E+03 0. -1.
<mgrwt>
<rscale>  2 0.22805467E+03</rscale>
<asrwt>0</asrwt>
<pdfrwt beam="1">  1       21 0.48649198E-01 0.22805467E+03</pdfrwt>
<pdfrwt beam="2">  1       21 0.25313666E-01 0.22805467E+03</pdfrwt>
<totfact> 0.58723562E+04</totfact>
</mgrwt>
</event>
<event>
 4    3  0.4041078E+000  0.1931635E+03  0.7546771E-02  0.1155639E+00
         21   -1    0    0  503  502  0.00000000000E+00  0.00000000000E+00  0.54062273225E+03  0.54062273225E+03  0.00000000000E+00 0.  1.
         21   -1    0    0  501  503 -0.00000000000E+00 -0.00000000000E+00 -0.70289083580E+02  0.70289083580E+02  0.00000000000E+00 0.  1.
          6    1    1    2  501    0  0.83848940857E+02  0.18774561305E+02  0.27626020855E+03  0.33709320946E+03  0.17300000000E+03 0.  1.
         -6    1    1    2    0  502 -0.83848940857E+02 -0.18774561305E+02  0.19407344012E+03  0.27381860637E+03  0.17300000000E+03 0.  1.
<mgrwt>
<rscale>  2 0.19316348E+03</rscale>
<asrwt>0</asrwt>
<pdfrwt beam="1">  1       21 0.83172725E-01 0.19316348E+03</pdfrwt>
<pdfrwt beam="2">  1       21 0.10813705E-01 0.19316348E+03</pdfrwt>
<totfact> 0.88943152E+04</totfact>
</mgrwt>
</event>
<event>
 4    3  0.4041078E+000  0.1991743E+03  0.7546771E-02  0.1150438E+00
         21   -1    0    0  503  502  0.00000000000E+00  0.00000000000E+00  0.53402746668E+02  0.53402746668E+02  0.00000000000E+00 0.  1.
         21   -1    0    0  501  503 -0.00000000000E+00 -0.00000000000E+00 -0.82533351936E+03  0.82533351936E+03  0.00000000000E+00 0.  1.
          6    1    1    2  501    0  0.79446605016E+02  0.58563007990E+02 -0.24706943518E+03  0.31735421024E+03  0.17300000000E+03 0.  1.
         -6    1    1    2    0  502 -0.79446605016E+02 -0.58563007990E+02 -0.52486133751E+03  0.56138205580E+03  0.17300000000E+03 0.  1.
<mgrwt>
<rscale>  2 0.19917427E+03</rscale>
<asrwt>0</asrwt>
<pdfrwt beam="1">  1       21 0.82158069E-02 0.19917427E+03</pdfrwt>
<pdfrwt beam="2">  1       21 0.12697439E+00 0.19917427E+03</pdfrwt>
<totfact> 0.52361858E+04</totfact>
</mgrwt>
</event>
<event>
 4    3  0.4041078E+000  0.1763760E+03  0.7546771E-02  0.1171357E+00
         21   -1    0    0  501  502  0.00000000000E+00  0.00000000000E+00  0.17948476407E+04  0.17948476407E+04  0.00000000000E+00 0.  1.
         21   -1    0    0  502  503 -0.00000000000E+00 -0.00000000000E+00 -0.20887959809E+02  0.20887959809E+02  0.00000000000E+00 0.  1.
          6    1    1    2  501    0 -0.67553737641E+01  0.33672649083E+02  0.12615617463E+04  0.12738314340E+04  0.17300000000E+03 0.  1.
         -6    1    1    2    0  503  0.67553737641E+01 -0.33672649083E+02  0.51239793462E+03  0.54190416660E+03  0.17300000000E+03 0.  1.
<mgrwt>
<rscale>  2 0.17637597E+03</rscale>
<asrwt>0</asrwt>
<pdfrwt beam="1">  1       21 0.27613029E+00 0.17637597E+03</pdfrwt>
<pdfrwt beam="2">  1       21 0.32135337E-02 0.17637597E+03</pdfrwt>
<totfact> 0.26856601E+04</totfact>
</mgrwt>
</event>
<event>
 4    3  0.4041078E+000  0.2311266E+03  0.7546771E-02  0.1125849E+00
         21   -1    0    0  503  502  0.00000000000E+00  0.00000000000E+00  0.41248427311E+03  0.41248427311E+03  0.00000000000E+00 0.  1.
         21   -1    0    0  501  503 -0.00000000000E+00 -0.00000000000E+00 -0.14180216414E+03  0.14180216414E+03  0.00000000000E+00 0. -1.
          6    1    1    2  501    0  0.57515424471E+01 -0.15315814281E+03  0.53732734592E+02  0.23729033633E+03  0.17300000000E+03 0. -1.
         -6    1    1    2    0  502 -0.57515424471E+01  0.15315814281E+03  0.21694937438E+03  0.31699610092E+03  0.17300000000E+03 0.  1.
<mgrwt>
<rscale>  2 0.23112658E+03</rscale>
<asrwt>0</asrwt>
<pdfrwt beam="1">  1       21 0.63459118E-01 0.23112658E+03</pdfrwt>
<pdfrwt beam="2">  1       21 0.21815718E-01 0.23112658E+03</pdfrwt>
<totfact> 0.44203656E+04</totfact>
</mgrwt>
</event>
<event>
 4    3  0.4041078E+000  0.2267987E+03  0.7546771E-02  0.1128914E+00
         21   -1    0    0  501  502  0.00000000000E+00  0.00000000000E+00  0.12902977223E+03  0.12902977223E+03  0.00000000000E+00 0.  1.
         21   -1    0    0  502  503 -0.00000000000E+00 -0.00000000000E+00 -0.39892193227E+03  0.39892193227E+03  0.00000000000E+00 0.  1.
          6    1    1    2  501    0 -0.13061363514E+03 -0.66698642515E+02 -0.14184681232E+03  0.26750354907E+03  0.17300000000E+03 0.  1.
         -6    1    1    2    0  503  0.13061363514E+03  0.66698642515E+02 -0.12804534772E+03  0.26044815544E+03  0.17300000000E+03 0.  1.
<mgrwt>
<rscale>  2 0.22679866E+03</rscale>
<asrwt>0</asrwt>
<pdfrwt beam="1">  1       21 0.19850735E-01 0.22679866E+03</pdfrwt>
<pdfrwt beam="2">  1       21 0.61372603E-01 0.22679866E+03</pdfrwt>
<totfact> 0.56881744E+04</totfact>
</mgrwt>
</event>
<event>
 4    3  0.4041078E+000  0.2213683E+03  0.7546771E-02  0.1132867E+00
         21   -1    0    0  503  502  0.00000000000E+00  0.00000000000E+00  0.12380356576E+03  0.12380356576E+03  0.00000000000E+00 0.  1.
         21   -1    0    0  501  503 -0.00000000000E+00 -0.00000000000E+00 -0.43104000413E+03  0.43104000413E+03  0.00000000000E+00 0.  1.
          6    1    1    2  501    0 -0.68485456059E+02 -0.11993610484E+03 -0.23291882350E+03  0.32133332426E+03  0.17300000000E+03 0.  1.
         -6    1    1    2    0  502  0.68485456059E+02  0.11993610484E+03 -0.74317614870E+02  0.23351024563E+03  0.17300000000E+03 0.  1.
<mgrwt>
<rscale>  2 0.22136831E+03</rscale>
<asrwt>0</asrwt>
<pdfrwt beam="1">  1       21 0.19046703E-01 0.22136831E+03</pdfrwt>
<pdfrwt beam="2">  1       21 0.66313846E-01 0.22136831E+03</pdfrwt>
<totfact> 0.52038990E+04</totfact>
</mgrwt>
</event>
<event>
 4    3  0.4041078E+000  0.2186876E+03  0.7546771E-02  0.1134865E+00
         21   -1    0    0  503  502  0.00000000000E+00  0.00000000000E+00  0.10861730253E+04  0.10861730253E+04  0.00000000000E+00 0.  1.
         21   -1    0    0  501  503 -0.00000000000E+00 -0.00000000000E+00 -0.44593787013E+02  0.44593787013E+02  0.00000000000E+00 0.  1.
          6    1    1    2  501    0  0.44563320646E+01  0.13369890402E+03  0.45722096553E+03  0.50682863687E+03  0.17300000000E+03 0.  1.
         -6    1    1    2    0  502 -0.44563320646E+01 -0.13369890402E+03  0.58435827271E+03  0.62393817540E+03  0.17300000000E+03 0.  1.
<mgrwt>
<rscale>  2 0.21868758E+03</rscale>
<asrwt>0</asrwt>
<pdfrwt beam="1">  1       21 0.16710352E+00 0.21868758E+03</pdfrwt>
<pdfrwt beam="2">  1       21 0.68605834E-02 0.21868758E+03</pdfrwt>
<totfact> 0.34470671E+04</totfact>
</mgrwt>
</event>
<event>
 4    3  0.4041078E+000  0.2636265E+03  0.7546771E-02  0.1104984E+00
         21   -1    0    0  503  502  0.00000000000E+00  0.00000000000E+00  0.11994548087E+03  0.11994548087E+03  0.00000000000E+00 0. -1.
         21   -1    0    0  501  503 -0.00000000000E+00 -0.00000000000E+00 -0.71147205704E+03  0.71147205704E+03  0.00000000000E+00 0. -1.
          6    1    1    2  501    0  0.11851255917E+03 -0.15976453931E+03 -0.47485733272E+03  0.54312836525E+03  0.17300000000E+03 0. -1.
         -6    1    1    2    0  502 -0.11851255917E+03  0.15976453931E+03 -0.11666924345E+03  0.28828917266E+03  0.17300000000E+03 0. -1.
<mgrwt>
<rscale>  2 0.26362651E+03</rscale>
<asrwt>0</asrwt>
<pdfrwt beam="1">  1       21 0.18453151E-01 0.26362651E+03</pdfrwt>
<pdfrwt beam="2">  1       21 0.10945724E+00 0.26362651E+03</pdfrwt>
<totfact> 0.17018526E+04</totfact>
</mgrwt>
</event>
<event>
 4    3  0.4041078E+000  0.2071237E+03  0.7546771E-02  0.1143864E+00
         21   -1    0    0  501  502  0.00000000000E+00  0.00000000000E+00  0.17933197046E+03  0.17933197046E+03  0.00000000000E+00 0.  1.
         21   -1    0    0  502  503 -0.00000000000E+00 -0.00000000000E+00 -0.31857104103E+03  0.31857104103E+03  0.00000000000E+00 0. -1.
          6    1    1    2  501    0  0.49816891955E+02  0.10241838069E+03  0.54626061023E+02  0.21420610162E+03  0.17300000000E+03 0.  1.
         -6    1    1    2    0  503 -0.49816891955E+02 -0.10241838069E+03 -0.19386513159E+03  0.28369690987E+03  0.17300000000E+03 0. -1.
<mgrwt>
<rscale>  2 0.20712375E+03</rscale>
<asrwt>0</asrwt>
<pdfrwt beam="1">  1       21 0.27589534E-01 0.20712375E+03</pdfrwt>
<pdfrwt beam="2">  1       21 0.49010929E-01 0.20712375E+03</pdfrwt>
<totfact> 0.49447210E+04</totfact>
</mgrwt>
</event>
<event>
 4    3  0.4041078E+000  0.1992274E+03  0.7546771E-02  0.1150392E+00
         21   -1    0    0  503  502  0.00000000000E+00  0.00000000000E+00  0.63953335678E+02  0.63953335678E+02  0.00000000000E+00 0.  1.
         21   -1    0    0  501  503 -0.00000000000E+00 -0.00000000000E+00 -0.14977374241E+04  0.14977374241E+04  0.00000000000E+00 0. -1.
          6    1    1    2  501    0  0.75045404124E+01  0.98520241239E+02 -0.13144400946E+04  0.13294526386E+04  0.17300000000E+03 0. -1.
         -6    1    1    2    0  502 -0.75045404124E+01 -0.98520241239E+02 -0.11934399385E+03  0.23223812118E+03  0.17300000000E+03 0.  1.
<mgrwt>
<rscale>  2 0.19922740E+03</rscale>
<asrwt>0</asrwt>
<pdfrwt beam="1">  1       21 0.98389760E-02 0.19922740E+03</pdfrwt>
<pdfrwt beam="2">  1       21 0.23042111E+00 0.19922740E+03</pdfrwt>
<totfact> 0.72154215E+03</totfact>
</mgrwt>
</event>
<event>
 4    3  0.4041078E+000  0.1756205E+03  0.7546771E-02  0.1172110E+00
         21   -1    0    0  503  502  0.00000000000E+00  0.00000000000E+00  0.24320434783E+03  0.24320434783E+03  0.00000000000E+00 0.  1.
         21   -1    0    0  501  503 -0.00000000000E+00 -0.00000000000E+00 -0.14692987710E+03  0.14692987710E+03  0.00000000000E+00 0.  1.
          6    1    1    2  501    0 -0.28720296670E+02  0.94177628793E+01 -0.24033558795E+02  0.17725733172E+03  0.17300000000E+03 0.  1.
         -6    1    1    2    0  502  0.28720296670E+02 -0.94177628793E+01  0.12030802952E+03  0.21287689321E+03  0.17300000000E+03 0.  1.
<mgrwt>
<rscale>  2 0.17562047E+03</rscale>
<asrwt>0</asrwt>
<pdfrwt beam="1">  1       21 0.37416054E-01 0.17562047E+03</pdfrwt>
<pdfrwt beam="2">  1       21 0.22604596E-01 0.17562047E+03</pdfrwt>
<totfact> 0.12709520E+05</totfact>
</mgrwt>
</event>
<event>
 4    3  0.4041078E+000  0.2176327E+03  0.7546771E-02  0.1135660E+00
         21   -1    0    0  501  502  0.00000000000E+00  0.00000000000E+00  0.35183458829E+02  0.35183458829E+02  0.00000000000E+00 0. -1.
         21   -1    0    0  502  503 -0.00000000000E+00 -0.00000000000E+00 -0.16201338731E+04  0.16201338731E+04  0.00000000000E+00 0. -1.
          6    1    1    2  501    0  0.11735340031E+03  0.60524154084E+02 -0.45214680101E+03  0.50179749247E+03  0.17300000000E+03 0. -1.
         -6    1    1    2    0  503 -0.11735340031E+03 -0.60524154084E+02 -0.11328036133E+04  0.11535198395E+04  0.17300000000E+03 0. -1.
<mgrwt>
<rscale>  2 0.21763270E+03</rscale>
<asrwt>0</asrwt>
<pdfrwt beam="1">  1       21 0.54128402E-02 0.21763270E+03</pdfrwt>
<pdfrwt beam="2">  1       21 0.24925135E+00 0.21763270E+03</pdfrwt>
<totfact> 0.15452200E+04</totfact>
</mgrwt>
</event>
<event>
 4    3  0.4041078E+000  0.2600021E+03  0.7546771E-02  0.1107142E+00
         21   -1    0    0  501  502  0.00000000000E+00  0.00000000000E+00  0.48753242605E+03  0.48753242605E+03  0.00000000000E+00 0.  1.
         21   -1    0    0  502  503 -0.00000000000E+00 -0.00000000000E+00 -0.16700286936E+03  0.16700286936E+03  0.00000000000E+00 0. -1.
          6    1    1    2  501    0 -0.52813618823E+02 -0.18676934741E+03  0.25441207732E+02  0.26124379900E+03  0.17300000000E+03 0. -1.
         -6    1    1    2    0  503  0.52813618823E+02  0.18676934741E+03  0.29508834895E+03  0.39329149641E+03  0.17300000000E+03 0.  1.
<mgrwt>
<rscale>  2 0.26000205E+03</rscale>
<asrwt>0</asrwt>
<pdfrwt beam="1">  1       21 0.75004988E-01 0.26000205E+03</pdfrwt>
<pdfrwt beam="2">  1       21 0.25692749E-01 0.26000205E+03</pdfrwt>
<totfact> 0.22053208E+04</totfact>
</mgrwt>
</event>
<event>
 4    3  0.4041078E+000  0.2499336E+03  0.7546771E-02  0.1113347E+00
         21   -1    0    0  501  502  0.00000000000E+00  0.00000000000E+00  0.23005114143E+03  0.23005114143E+03  0.00000000000E+00 0. -1.
         21   -1    0    0  502  503 -0.00000000000E+00 -0.00000000000E+00 -0.27223877060E+03  0.27223877060E+03  0.00000000000E+00 0.  1.
          6    1    1    2  501    0  0.17520005162E+03  0.42927293992E+02 -0.33868023177E+02  0.25221786941E+03  0.17300000000E+03 0. -1.
         -6    1    1    2    0  503 -0.17520005162E+03 -0.42927293992E+02 -0.83196059950E+01  0.25007204262E+03  0.17300000000E+03 0.  1.
<mgrwt>
<rscale>  2 0.24993361E+03</rscale>
<asrwt>0</asrwt>
<pdfrwt beam="1">  1       21 0.35392483E-01 0.24993361E+03</pdfrwt>
<pdfrwt beam="2">  1       21 0.41882888E-01 0.24993361E+03</pdfrwt>
<totfact> 0.41125348E+04</totfact>
</mgrwt>
</event>
<event>
 4    3  0.4041078E+000  0.1978989E+03  0.7546771E-02  0.1151524E+00
         21   -1    0    0  501  502  0.00000000000E+00  0.00000000000E+00  0.26115533066E+03  0.26115533066E+03  0.00000000000E+00 0. -1.
         21   -1    0    0  502  503 -0.00000000000E+00 -0.00000000000E+00 -0.15001596729E+03  0.15001596729E+03  0.00000000000E+00 0. -1.
          6    1    1    2  501    0  0.93627516168E+02  0.21653209431E+02  0.51753916633E+02  0.20455424989E+03  0.17300000000E+03 0. -1.
         -6    1    1    2    0  503 -0.93627516168E+02 -0.21653209431E+02  0.59385446740E+02  0.20661704805E+03  0.17300000000E+03 0. -1.
<mgrwt>
<rscale>  2 0.19789890E+03</rscale>
<asrwt>0</asrwt>
<pdfrwt beam="1">  1       21 0.40177743E-01 0.19789890E+03</pdfrwt>
<pdfrwt beam="2">  1       21 0.23079380E-01 0.19789890E+03</pdfrwt>
<totfact> 0.10504816E+05</totfact>
</mgrwt>
</event>
<event>
 4    3  0.4041078E+000  0.1827088E+03  0.7546771E-02  0.1165207E+00
         21   -1    0    0  501  502  0.00000000000E+00  0.00000000000E+00  0.38451774773E+02  0.38451774773E+02  0.00000000000E+00 0.  1.
         21   -1    0    0  502  503 -0.00000000000E+00 -0.00000000000E+00 -0.13038151698E+04  0.13038151698E+04  0.00000000000E+00 0.  1.
          6    1    1    2  501    0  0.24439120326E+02  0.53443754322E+02 -0.24473722928E+03  0.30541580980E+03  0.17300000000E+03 0.  1.
         -6    1    1    2    0  503 -0.24439120326E+02 -0.53443754322E+02 -0.10206261657E+04  0.10368511347E+04  0.17300000000E+03 0.  1.
<mgrwt>
<rscale>  2 0.18270880E+03</rscale>
<asrwt>0</asrwt>
<pdfrwt beam="1">  1       21 0.59156567E-02 0.18270880E+03</pdfrwt>
<pdfrwt beam="2">  1       21 0.20058698E+00 0.18270880E+03</pdfrwt>
<totfact> 0.27086431E+04</totfact>
</mgrwt>
</event>
<event>
 4    3  0.4041078E+000  0.1826877E+03  0.7546771E-02  0.1165227E+00
         21   -1    0    0  503  502  0.00000000000E+00  0.00000000000E+00  0.42559296018E+02  0.42559296018E+02  0.00000000000E+00 0.  1.
         21   -1    0    0  501  503 -0.00000000000E+00 -0.00000000000E+00 -0.78476034070E+03  0.78476034070E+03  0.00000000000E+00 0. -1.
          6    1    1    2  501    0  0.31537615837E+02 -0.49509312343E+02 -0.38220185339E+03  0.42361899150E+03  0.17300000000E+03 0. -1.
         -6    1    1    2    0  502 -0.31537615837E+02  0.49509312343E+02 -0.35999919128E+03  0.40370064521E+03  0.17300000000E+03 0.  1.
<mgrwt>
<rscale>  2 0.18268769E+03</rscale>
<asrwt>0</asrwt>
<pdfrwt beam="1">  1       21 0.65475841E-02 0.18268769E+03</pdfrwt>
<pdfrwt beam="2">  1       21 0.12073236E+00 0.18268769E+03</pdfrwt>
<totfact> 0.88685951E+04</totfact>
</mgrwt>
</event>
<event>
 4    3  0.4041078E+000  0.1748828E+03  0.7546771E-02  0.1172849E+00
         21   -1    0    0  503  502  0.00000000000E+00  0.00000000000E+00  0.67778624844E+03  0.67778624844E+03  0.00000000000E+00 0. -1.
         21   -1    0    0  501  503 -0.00000000000E+00 -0.00000000000E+00 -0.48275661892E+02  0.48275661892E+02  0.00000000000E+00 0. -1.
          6    1    1    2  501    0  0.15327915018E+02  0.20495425386E+02  0.22198862428E+03  0.28260034811E+03  0.17300000000E+03 0.  1.
         -6    1    1    2    0  502 -0.15327915018E+02 -0.20495425386E+02  0.40752196227E+03  0.44346156223E+03  0.17300000000E+03 0.  1.
<mgrwt>
<rscale>  2 0.17488284E+03</rscale>
<asrwt>0</asrwt>
<pdfrwt beam="1">  1       21 0.10427480E+00 0.17488284E+03</pdfrwt>
<pdfrwt beam="2">  1       21 0.74270254E-02 0.17488284E+03</pdfrwt>
<totfact> 0.10218222E+05</totfact>
</mgrwt>
</event>
<event>
 4    3  0.4041078E+000  0.2040036E+03  0.7546771E-02  0.1146404E+00
         21   -1    0    0  503  502  0.00000000000E+00  0.00000000000E+00  0.21400655086E+03  0.21400655086E+03  0.00000000000E+00 0. -1.
         21   -1    0    0  501  503 -0.00000000000E+00 -0.00000000000E+00 -0.32709416813E+03  0.32709416813E+03  0.00000000000E+00 0.  1.
          6    1    1    2  501    0 -0.10793797187E+03 -0.61540278317E+01 -0.22882026454E+03  0.30655536416E+03  0.17300000000E+03 0.  1.
         -6    1    1    2    0  502  0.10793797187E+03  0.61540278317E+01  0.11573264727E+03  0.23454535483E+03  0.17300000000E+03 0. -1.
<mgrwt>
<rscale>  2 0.20400362E+03</rscale>
<asrwt>0</asrwt>
<pdfrwt beam="1">  1       21 0.32924085E-01 0.20400362E+03</pdfrwt>
<pdfrwt beam="2">  1       21 0.50322180E-01 0.20400362E+03</pdfrwt>
<totfact> 0.33185871E+04</totfact>
</mgrwt>
</event>
<event>
 4    3  0.4041078E+000  0.1821746E+03  0.7546771E-02  0.1165715E+00
         21   -1    0    0  503  502  0.00000000000E+00  0.00000000000E+00  0.35203056731E+03  0.35203056731E+03  0.00000000000E+00 0. -1.
         21   -1    0    0  501  503 -0.00000000000E+00 -0.00000000000E+00 -0.19536257795E+03  0.19536257795E+03  0.00000000000E+00 0. -1.
          6    1    1    2  501    0 -0.17218769885E+02 -0.54425132175E+02 -0.11854445468E+03  0.21734849616E+03  0.17300000000E+03 0. -1.
         -6    1    1    2    0  502  0.17218769885E+02  0.54425132175E+02  0.27521244404E+03  0.33004464911E+03  0.17300000000E+03 0. -1.
<mgrwt>
<rscale>  2 0.18217459E+03</rscale>
<asrwt>0</asrwt>
<pdfrwt beam="1">  1       21 0.54158549E-01 0.18217459E+03</pdfrwt>
<pdfrwt beam="2">  1       21 0.30055781E-01 0.18217459E+03</pdfrwt>
<totfact> 0.34402367E+04</totfact>
</mgrwt>
</event>
<event>
 4    3  0.4041078E+000  0.1785904E+03  0.7546771E-02  0.1169174E+00
         21   -1    0    0  501  502  0.00000000000E+00  0.00000000000E+00  0.12480178104E+03  0.12480178104E+03  0.00000000000E+00 0.  1.
         21   -1    0    0  502  503 -0.00000000000E+00 -0.00000000000E+00 -0.31262494276E+03  0.31262494276E+03  0.00000000000E+00 0. -1.
          6    1    1    2  501    0 -0.93660654685E+01 -0.43333768902E+02 -0.46955742803E+00  0.17859103895E+03  0.17300000000E+03 0.  1.
         -6    1    1    2    0  503  0.93660654685E+01  0.43333768902E+02 -0.18735360429E+03  0.25883568485E+03  0.17300000000E+03 0. -1.
<mgrwt>
<rscale>  2 0.17859042E+03</rscale>
<asrwt>0</asrwt>
<pdfrwt beam="1">  1       21 0.19200274E-01 0.17859042E+03</pdfrwt>
<pdfrwt beam="2">  1       21 0.48096145E-01 0.17859042E+03</pdfrwt>
<totfact> 0.10343110E+05</totfact>
</mgrwt>
</event>
<event>
 4    3  0.4041078E+000  0.2281103E+03  0.7546771E-02  0.1127977E+00
         21   -1    0    0  501  502  0.00000000000E+00  0.00000000000E+00  0.14723105844E+03  0.14723105844E+03  0.00000000000E+00 0. -1.
         21   -1    0    0  502  503 -0.00000000000E+00 -0.00000000000E+00 -0.35351661944E+03  0.35351661944E+03  0.00000000000E+00 0.  1.
          6    1    1    2  501    0  0.14573680397E+03 -0.29429259750E+02 -0.98988578299E+02  0.24866249415E+03  0.17300000000E+03 0. -1.
         -6    1    1    2    0  503 -0.14573680397E+03  0.29429259750E+02 -0.10729698270E+03  0.25208518373E+03  0.17300000000E+03 0. -1.
<mgrwt>
<rscale>  2 0.22811027E+03</rscale>
<asrwt>0</asrwt>
<pdfrwt beam="1">  1       21 0.22650932E-01 0.22811027E+03</pdfrwt>
<pdfrwt beam="2">  1       21 0.54387172E-01 0.22811027E+03</pdfrwt>
<totfact> 0.57424144E+04</totfact>
</mgrwt>
</event>
<event>
 4    3  0.4041078E+000  0.2923812E+03  0.7546771E-02  0.1089112E+00
         21   -1    0    0  503  502  0.00000000000E+00  0.00000000000E+00  0.99441290985E+03  0.99441290985E+03  0.00000000000E+00 0.  1.
         21   -1    0    0  501  503 -0.00000000000E+00 -0.00000000000E+00 -0.13348569596E+03  0.13348569596E+03  0.00000000000E+00 0.  1.
          6    1    1    2  501    0  0.88684655120E+02 -0.21838677466E+03  0.76694007384E+03  0.82078244881E+03  0.17300000000E+03 0.  1.
         -6    1    1    2    0  502 -0.88684655120E+02  0.21838677466E+03  0.93987140043E+02  0.30711615701E+03  0.17300000000E+03 0.  1.
<mgrwt>
<rscale>  2 0.29238117E+03</rscale>
<asrwt>0</asrwt>
<pdfrwt beam="1">  1       21 0.15298660E+00 0.29238117E+03</pdfrwt>
<pdfrwt beam="2">  1       21 0.20536262E-01 0.29238117E+03</pdfrwt>
<totfact> 0.58237916E+03</totfact>
</mgrwt>
</event>
<event>
 4    3  0.4041078E+000  0.2019523E+03  0.7546771E-02  0.1148102E+00
         21   -1    0    0  501  502  0.00000000000E+00  0.00000000000E+00  0.21057845408E+04  0.21057845408E+04  0.00000000000E+00 0.  1.
         21   -1    0    0  502  503 -0.00000000000E+00 -0.00000000000E+00 -0.19386677195E+02  0.19386677195E+02  0.00000000000E+00 0.  1.
          6    1    1    2  501    0 -0.99090648327E+02  0.32198975003E+02  0.10101738608E+04  0.10301630743E+04  0.17300000000E+03 0. -1.
         -6    1    1    2    0  503  0.99090648327E+02 -0.32198975003E+02  0.10762240027E+04  0.10950081436E+04  0.17300000000E+03 0. -1.
<mgrwt>
<rscale>  2 0.20195230E+03</rscale>
<asrwt>0</asrwt>
<pdfrwt beam="1">  1       21 0.32396667E+00 0.20195230E+03</pdfrwt>
<pdfrwt beam="2">  1       21 0.29825674E-02 0.20195230E+03</pdfrwt>
<totfact> 0.15703780E+04</totfact>
</mgrwt>
</event>
<event>
 4    3  0.4041078E+000  0.1775596E+03  0.7546771E-02  0.1170186E+00
         21   -1    0    0  501  502  0.00000000000E+00  0.00000000000E+00  0.52459553436E+02  0.52459553436E+02  0.00000000000E+00 0.  1.
         21   -1    0    0  502  503 -0.00000000000E+00 -0.00000000000E+00 -0.81704724585E+03  0.81704724585E+03  0.00000000000E+00 0.  1.
          6    1    1    2  501    0  0.35363468468E+02  0.18649987182E+02 -0.15872617966E+03  0.23816254331E+03  0.17300000000E+03 0.  1.
         -6    1    1    2    0  503 -0.35363468468E+02 -0.18649987182E+02 -0.60586151276E+03  0.63134425598E+03  0.17300000000E+03 0.  1.
<mgrwt>
<rscale>  2 0.17755956E+03</rscale>
<asrwt>0</asrwt>
<pdfrwt beam="1">  1       21 0.80707007E-02 0.17755956E+03</pdfrwt>
<pdfrwt beam="2">  1       21 0.12569957E+00 0.17755956E+03</pdfrwt>
<totfact> 0.56025158E+04</totfact>
</mgrwt>
</event>
<event>
 4    3  0.4041078E+000  0.1823351E+03  0.7546771E-02  0.1165562E+00
         21   -1    0    0  503  502  0.00000000000E+00  0.00000000000E+00  0.73916313891E+02  0.73916313891E+02  0.00000000000E+00 0.  1.
         21   -1    0    0  501  503 -0.00000000000E+00 -0.00000000000E+00 -0.45347219420E+03  0.45347219420E+03  0.00000000000E+00 0.  1.
          6    1    1    2  501    0  0.30831183835E+02  0.48647129204E+02 -0.16598504008E+03  0.24657075781E+03  0.17300000000E+03 0.  1.
         -6    1    1    2    0  502 -0.30831183835E+02 -0.48647129204E+02 -0.21357084023E+03  0.28081775028E+03  0.17300000000E+03 0.  1.
<mgrwt>
<rscale>  2 0.18233514E+03</rscale>
<asrwt>0</asrwt>
<pdfrwt beam="1">  1       21 0.11371741E-01 0.18233514E+03</pdfrwt>
<pdfrwt beam="2">  1       21 0.69764952E-01 0.18233514E+03</pdfrwt>
<totfact> 0.12103281E+05</totfact>
</mgrwt>
</event>
<event>
 4    3  0.4041078E+000  0.2363267E+03  0.7546771E-02  0.1122264E+00
         21   -1    0    0  501  502  0.00000000000E+00  0.00000000000E+00  0.13067786353E+03  0.13067786353E+03  0.00000000000E+00 0. -1.
         21   -1    0    0  502  503 -0.00000000000E+00 -0.00000000000E+00 -0.45826942270E+03  0.45826942270E+03  0.00000000000E+00 0.  1.
          6    1    1    2  501    0  0.13601666908E+02 -0.16042544721E+03 -0.24023654413E+03  0.33699247261E+03  0.17300000000E+03 0. -1.
         -6    1    1    2    0  503 -0.13601666908E+02  0.16042544721E+03 -0.87355015033E+02  0.25195481362E+03  0.17300000000E+03 0. -1.
<mgrwt>
<rscale>  2 0.23632674E+03</rscale>
<asrwt>0</asrwt>
<pdfrwt beam="1">  1       21 0.20104287E-01 0.23632674E+03</pdfrwt>
<pdfrwt beam="2">  1       21 0.70502987E-01 0.23632674E+03</pdfrwt>
<totfact> 0.40816092E+04</totfact>
</mgrwt>
</event>
<event>
 4    3  0.4041078E+000  0.2095648E+03  0.7546771E-02  0.1141911E+00
         21   -1    0    0  503  502  0.00000000000E+00  0.00000000000E+00  0.14148714203E+03  0.14148714203E+03  0.00000000000E+00 0. -1.
         21   -1    0    0  501  503 -0.00000000000E+00 -0.00000000000E+00 -0.40417610560E+03  0.40417610560E+03  0.00000000000E+00 0.  1.
          6    1    1    2  501    0 -0.11748493601E+03  0.13627502419E+02  0.74650186761E-01  0.20956484577E+03  0.17300000000E+03 0. -1.
         -6    1    1    2    0  502  0.11748493601E+03 -0.13627502419E+02 -0.26276361377E+03  0.33609840186E+03  0.17300000000E+03 0.  1.
<mgrwt>
<rscale>  2 0.20956483E+03</rscale>
<asrwt>0</asrwt>
<pdfrwt beam="1">  1       21 0.21767253E-01 0.20956483E+03</pdfrwt>
<pdfrwt beam="2">  1       21 0.62180939E-01 0.20956483E+03</pdfrwt>
<totfact> 0.46859644E+04</totfact>
</mgrwt>
</event>
<event>
 4    3  0.4041078E+000  0.4370411E+03  0.7546771E-02  0.1031659E+00
         21   -1    0    0  503  502  0.00000000000E+00  0.00000000000E+00  0.27254007199E+03  0.27254007199E+03  0.00000000000E+00 0. -1.
         21   -1    0    0  501  503 -0.00000000000E+00 -0.00000000000E+00 -0.91060584325E+03  0.91060584325E+03  0.00000000000E+00 0.  1.
          6    1    1    2  501    0  0.33464605137E+03 -0.22155805281E+03 -0.60296741262E+03  0.74469769111E+03  0.17300000000E+03 0.  1.
         -6    1    1    2    0  502 -0.33464605137E+03  0.22155805281E+03 -0.35098358634E+02  0.43844822413E+03  0.17300000000E+03 0. -1.
<mgrwt>
<rscale>  2 0.43704113E+03</rscale>
<asrwt>0</asrwt>
<pdfrwt beam="1">  1       21 0.41929241E-01 0.43704113E+03</pdfrwt>
<pdfrwt beam="2">  1       21 0.14009321E+00 0.43704113E+03</pdfrwt>
<totfact> 0.16806540E+03</totfact>
</mgrwt>
</event>
<event>
 4    3  0.4041078E+000  0.2444472E+03  0.7546771E-02  0.1116865E+00
         21   -1    0    0  503  502  0.00000000000E+00  0.00000000000E+00  0.62876058996E+03  0.62876058996E+03  0.00000000000E+00 0.  1.
         21   -1    0    0  501  503 -0.00000000000E+00 -0.00000000000E+00 -0.31478871217E+03  0.31478871217E+03  0.00000000000E+00 0. -1.
          6    1    1    2  501    0  0.76720223476E+02  0.15472369831E+03 -0.23719252843E+03  0.34060932320E+03  0.17300000000E+03 0. -1.
         -6    1    1    2    0  502 -0.76720223476E+02 -0.15472369831E+03  0.55116440622E+03  0.60293997893E+03  0.17300000000E+03 0.  1.
<mgrwt>
<rscale>  2 0.24444716E+03</rscale>
<asrwt>0</asrwt>
<pdfrwt beam="1">  1       21 0.96732398E-01 0.24444716E+03</pdfrwt>
<pdfrwt beam="2">  1       21 0.48429033E-01 0.24444716E+03</pdfrwt>
<totfact> 0.34757115E+03</totfact>
</mgrwt>
</event>
<event>
 4    3  0.4041078E+000  0.1761780E+03  0.7546771E-02  0.1171554E+00
         21   -1    0    0  501  502  0.00000000000E+00  0.00000000000E+00  0.14011258231E+04  0.14011258231E+04  0.00000000000E+00 0. -1.
         21   -1    0    0  502  503 -0.00000000000E+00 -0.00000000000E+00 -0.33928318916E+02  0.33928318916E+02  0.00000000000E+00 0. -1.
          6    1    1    2  501    0 -0.33311685538E+02 -0.13353677020E+00  0.11063154818E+04  0.11202556099E+04  0.17300000000E+03 0. -1.
         -6    1    1    2    0  503  0.33311685538E+02  0.13353677020E+00  0.26088202240E+03  0.31479853214E+03  0.17300000000E+03 0. -1.
<mgrwt>
<rscale>  2 0.17617800E+03</rscale>
<asrwt>0</asrwt>
<pdfrwt beam="1">  1       21 0.21555777E+00 0.17617800E+03</pdfrwt>
<pdfrwt beam="2">  1       21 0.52197424E-02 0.17617800E+03</pdfrwt>
<totfact> 0.27137116E+04</totfact>
</mgrwt>
</event>
<event>
 4    3  0.4041078E+000  0.1858257E+03  0.7546771E-02  0.1162281E+00
         21   -1    0    0  501  502  0.00000000000E+00  0.00000000000E+00  0.53410109070E+03  0.53410109070E+03  0.00000000000E+00 0. -1.
         21   -1    0    0  502  503 -0.00000000000E+00 -0.00000000000E+00 -0.88823906024E+02  0.88823906024E+02  0.00000000000E+00 0. -1.
          6    1    1    2  501    0 -0.92948367510E+01 -0.67199616788E+02  0.38511422055E+03  0.42760278923E+03  0.17300000000E+03 0. -1.
         -6    1    1    2    0  503  0.92948367510E+01  0.67199616788E+02  0.60162964120E+02  0.19532220749E+03  0.17300000000E+03 0. -1.
<mgrwt>
<rscale>  2 0.18582568E+03</rscale>
<asrwt>0</asrwt>
<pdfrwt beam="1">  1       21 0.82169397E-01 0.18582568E+03</pdfrwt>
<pdfrwt beam="2">  1       21 0.13665217E-01 0.18582568E+03</pdfrwt>
<totfact> 0.60321094E+04</totfact>
</mgrwt>
</event>
<event>
 4    3  0.4041078E+000  0.2715055E+03  0.7546771E-02  0.1100421E+00
         21   -1    0    0  503  502  0.00000000000E+00  0.00000000000E+00  0.43145489379E+03  0.43145489379E+03  0.00000000000E+00 0. -1.
         21   -1    0    0  501  503 -0.00000000000E+00 -0.00000000000E+00 -0.60539945190E+03  0.60539945190E+03  0.00000000000E+00 0.  1.
          6    1    1    2  501    0 -0.49284993607E+02 -0.20336477129E+03 -0.52619519463E+03  0.59211200262E+03  0.17300000000E+03 0.  1.
         -6    1    1    2    0  502  0.49284993607E+02  0.20336477129E+03  0.35225063652E+03  0.44474234307E+03  0.17300000000E+03 0. -1.
<mgrwt>
<rscale>  2 0.27150551E+03</rscale>
<asrwt>0</asrwt>
<pdfrwt beam="1">  1       21 0.66377676E-01 0.27150551E+03</pdfrwt>
<pdfrwt beam="2">  1       21 0.93138377E-01 0.27150551E+03</pdfrwt>
<totfact> 0.18991537E+03</totfact>
</mgrwt>
</event>
<event>
 4    3  0.4041078E+000  0.2097950E+03  0.7546771E-02  0.1141728E+00
         21   -1    0    0  503  502  0.00000000000E+00  0.00000000000E+00  0.76171353067E+02  0.76171353067E+02  0.00000000000E+00 0.  1.
         21   -1    0    0  501  503 -0.00000000000E+00 -0.00000000000E+00 -0.60575038072E+03  0.60575038072E+03  0.00000000000E+00 0. -1.
          6    1    1    2  501    0  0.22229300211E+01 -0.11865923660E+03 -0.33799309948E+03  0.39781062221E+03  0.17300000000E+03 0. -1.
         -6    1    1    2    0  502 -0.22229300211E+01  0.11865923660E+03 -0.19158592817E+03  0.28411111158E+03  0.17300000000E+03 0.  1.
<mgrwt>
<rscale>  2 0.20979503E+03</rscale>
<asrwt>0</asrwt>
<pdfrwt beam="1">  1       21 0.11718670E-01 0.20979503E+03</pdfrwt>
<pdfrwt beam="2">  1       21 0.93192366E-01 0.20979503E+03</pdfrwt>
<totfact> 0.58827446E+04</totfact>
</mgrwt>
</event>
<event>
 4    3  0.4041078E+000  0.1753162E+03  0.7546771E-02  0.1172415E+00
         21   -1    0    0  503  502  0.00000000000E+00  0.00000000000E+00  0.12692468392E+04  0.12692468392E+04  0.00000000000E+00 0. -1.
         21   -1    0    0  501  503 -0.00000000000E+00 -0.00000000000E+00 -0.24369708871E+02  0.24369708871E+02  0.00000000000E+00 0. -1.
          6    1    1    2  501    0  0.81125545434E+01 -0.27220813945E+02  0.57103086351E+03  0.59733745348E+03  0.17300000000E+03 0.  1.
         -6    1    1    2    0  502 -0.81125545434E+01  0.27220813945E+02  0.67384626679E+03  0.69627909456E+03  0.17300000000E+03 0.  1.
<mgrwt>
<rscale>  2 0.17531625E+03</rscale>
<asrwt>0</asrwt>
<pdfrwt beam="1">  1       21 0.19526869E+00 0.17531625E+03</pdfrwt>
<pdfrwt beam="2">  1       21 0.37491870E-02 0.17531625E+03</pdfrwt>
<totfact> 0.63599884E+04</totfact>
</mgrwt>
</event>
<event>
 4    3  0.4041078E+000  0.1955913E+03  0.7546771E-02  0.1153513E+00
         21   -1    0    0  503  502  0.00000000000E+00  0.00000000000E+00  0.15083933097E+04  0.15083933097E+04  0.00000000000E+00 0.  1.
         21   -1    0    0  501  503 -0.00000000000E+00 -0.00000000000E+00 -0.36776102003E+02  0.36776102003E+02  0.00000000000E+00 0.  1.
          6    1    1    2  501    0  0.68718441892E+02  0.60039366071E+02  0.30539782187E+03  0.36266207320E+03  0.17300000000E+03 0.  1.
         -6    1    1    2    0  502 -0.68718441892E+02 -0.60039366071E+02  0.11662193858E+04  0.11825073385E+04  0.17300000000E+03 0.  1.
<mgrwt>
<rscale>  2 0.19559128E+03</rscale>
<asrwt>0</asrwt>
<pdfrwt beam="1">  1       21 0.23206046E+00 0.19559128E+03</pdfrwt>
<pdfrwt beam="2">  1       21 0.56578630E-02 0.19559128E+03</pdfrwt>
<totfact> 0.18481089E+04</totfact>
</mgrwt>
</event>
<event>
 4    3  0.4041078E+000  0.2000060E+03  0.7546771E-02  0.1149734E+00
         21   -1    0    0  501  502  0.00000000000E+00  0.00000000000E+00  0.15503920034E+04  0.15503920034E+04  0.00000000000E+00 0. -1.
         21   -1    0    0  502  503 -0.00000000000E+00 -0.00000000000E+00 -0.31607363021E+02  0.31607363021E+02  0.00000000000E+00 0.  1.
          6    1    1    2  501    0 -0.12240376267E+02 -0.99617073433E+02  0.10984056726E+04  0.11164664839E+04  0.17300000000E+03 0. -1.
         -6    1    1    2    0  503  0.12240376267E+02  0.99617073433E+02  0.42037896774E+03  0.46553288246E+03  0.17300000000E+03 0. -1.
<mgrwt>
<rscale>  2 0.20000597E+03</rscale>
<asrwt>0</asrwt>
<pdfrwt beam="1">  1       21 0.23852179E+00 0.20000597E+03</pdfrwt>
<pdfrwt beam="2">  1       21 0.48626724E-02 0.20000597E+03</pdfrwt>
<totfact> 0.21789782E+04</totfact>
</mgrwt>
</event>
<event>
 4    3  0.4041078E+000  0.4038574E+03  0.7546771E-02  0.1042452E+00
         21   -1    0    0  501  502  0.00000000000E+00  0.00000000000E+00  0.25814814072E+03  0.25814814072E+03  0.00000000000E+00 0.  1.
         21   -1    0    0  502  503 -0.00000000000E+00 -0.00000000000E+00 -0.81336130731E+03  0.81336130731E+03  0.00000000000E+00 0. -1.
          6    1    1    2  501    0 -0.36135799213E+03  0.50913728503E+02 -0.24488669686E+02  0.40459918582E+03  0.17300000000E+03 0. -1.
         -6    1    1    2    0  503  0.36135799213E+03 -0.50913728503E+02 -0.53072449691E+03  0.66691026221E+03  0.17300000000E+03 0.  1.
<mgrwt>
<rscale>  2 0.40385741E+03</rscale>
<asrwt>0</asrwt>
<pdfrwt beam="1">  1       21 0.39715099E-01 0.40385741E+03</pdfrwt>
<pdfrwt beam="2">  1       21 0.12513251E+00 0.40385741E+03</pdfrwt>
<totfact> 0.25575246E+03</totfact>
</mgrwt>
</event>
<event>
 4    3  0.4041078E+000  0.2059924E+03  0.7546771E-02  0.1144779E+00
         21   -1    0    0  501  502  0.00000000000E+00  0.00000000000E+00  0.94521714183E+03  0.94521714183E+03  0.00000000000E+00 0.  1.
         21   -1    0    0  502  503 -0.00000000000E+00 -0.00000000000E+00 -0.50372210512E+02  0.50372210512E+02  0.00000000000E+00 0. -1.
          6    1    1    2  501    0 -0.10955211936E+03 -0.22410090822E+02  0.61161195514E+03  0.64536971008E+03  0.17300000000E+03 0.  1.
         -6    1    1    2    0  503  0.10955211936E+03  0.22410090822E+02  0.28323297618E+03  0.35021964226E+03  0.17300000000E+03 0. -1.
<mgrwt>
<rscale>  2 0.20599242E+03</rscale>
<asrwt>0</asrwt>
<pdfrwt beam="1">  1       21 0.14541801E+00 0.20599242E+03</pdfrwt>
<pdfrwt beam="2">  1       21 0.77495715E-02 0.20599242E+03</pdfrwt>
<totfact> 0.40801587E+04</totfact>
</mgrwt>
</event>
<event>
 4    3  0.4041078E+000  0.1908201E+03  0.7546771E-02  0.1157724E+00
         21   -1    0    0  503  502  0.00000000000E+00  0.00000000000E+00  0.13741137772E+04  0.13741137772E+04  0.00000000000E+00 0. -1.
         21   -1    0    0  501  503 -0.00000000000E+00 -0.00000000000E+00 -0.27150028513E+02  0.27150028513E+02  0.00000000000E+00 0. -1.
          6    1    1    2  501    0  0.77535087117E+02  0.21717053745E+02  0.78199508918E+03  0.80494014663E+03  0.17300000000E+03 0. -1.
         -6    1    1    2    0  502 -0.77535087117E+02 -0.21717053745E+02  0.56496865954E+03  0.59632365911E+03  0.17300000000E+03 0. -1.
<mgrwt>
<rscale>  2 0.19082013E+03</rscale>
<asrwt>0</asrwt>
<pdfrwt beam="1">  1       21 0.21140207E+00 0.19082013E+03</pdfrwt>
<pdfrwt beam="2">  1       21 0.41769285E-02 0.19082013E+03</pdfrwt>
<totfact> 0.41492855E+04</totfact>
</mgrwt>
</event>
<event>
 4    3  0.4041078E+000  0.2659071E+03  0.7546771E-02  0.1103645E+00
         21   -1    0    0  501  502  0.00000000000E+00  0.00000000000E+00  0.45619496539E+03  0.45619496539E+03  0.00000000000E+00 0. -1.
         21   -1    0    0  502  503 -0.00000000000E+00 -0.00000000000E+00 -0.61332306726E+03  0.61332306726E+03  0.00000000000E+00 0. -1.
          6    1    1    2  501    0 -0.20170557631E+03  0.96139397064E+01  0.38371383361E+03  0.46684352138E+03  0.17300000000E+03 0. -1.
         -6    1    1    2    0  503  0.20170557631E+03 -0.96139397064E+01 -0.54084193548E+03  0.60267451126E+03  0.17300000000E+03 0. -1.
<mgrwt>
<rscale>  2 0.26590707E+03</rscale>
<asrwt>0</asrwt>
<pdfrwt beam="1">  1       21 0.70183841E-01 0.26590707E+03</pdfrwt>
<pdfrwt beam="2">  1       21 0.94357395E-01 0.26590707E+03</pdfrwt>
<totfact> 0.16341165E+03</totfact>
</mgrwt>
</event>
<event>
 4    3  0.4041078E+000  0.2793281E+03  0.7546771E-02  0.1096056E+00
         21   -1    0    0  501  502  0.00000000000E+00  0.00000000000E+00  0.32625117358E+03  0.32625117358E+03  0.00000000000E+00 0.  1.
         21   -1    0    0  502  503 -0.00000000000E+00 -0.00000000000E+00 -0.23997874789E+03  0.23997874789E+03  0.00000000000E+00 0. -1.
          6    1    1    2  501    0 -0.14205849581E+03 -0.16707654024E+03  0.26536256674E+02  0.28058574349E+03  0.17300000000E+03 0. -1.
         -6    1    1    2    0  503  0.14205849581E+03  0.16707654024E+03  0.59736169015E+02  0.28564417799E+03  0.17300000000E+03 0.  1.
<mgrwt>
<rscale>  2 0.27932810E+03</rscale>
<asrwt>0</asrwt>
<pdfrwt beam="1">  1       21 0.50192488E-01 0.27932810E+03</pdfrwt>
<pdfrwt beam="2">  1       21 0.36919807E-01 0.27932810E+03</pdfrwt>
<totfact> 0.25638727E+04</totfact>
</mgrwt>
</event>
<event>
 4    3  0.4041078E+000  0.1985740E+03  0.7546771E-02  0.1150948E+00
         21   -1    0    0  501  502  0.00000000000E+00  0.00000000000E+00  0.58972992175E+02  0.58972992175E+02  0.00000000000E+00 0.  1.
         21   -1    0    0  502  503 -0.00000000000E+00 -0.00000000000E+00 -0.70093259837E+03  0.70093259837E+03  0.00000000000E+00 0.  1.
          6    1    1    2  501    0 -0.85790464044E+02 -0.46288716392E+02 -0.23942510267E+03  0.31105631126E+03  0.17300000000E+03 0.  1.
         -6    1    1    2    0  503  0.85790464044E+02  0.46288716392E+02 -0.40253450353E+03  0.44884927929E+03  0.17300000000E+03 0.  1.
<mgrwt>
<rscale>  2 0.19857404E+03</rscale>
<asrwt>0</asrwt>
<pdfrwt beam="1">  1       21 0.90727676E-02 0.19857404E+03</pdfrwt>
<pdfrwt beam="2">  1       21 0.10783579E+00 0.19857404E+03</pdfrwt>
<totfact> 0.65804893E+04</totfact>
</mgrwt>
</event>
<event>
 4    3  0.4041078E+000  0.2346246E+03  0.7546771E-02  0.1123426E+00
         21   -1    0    0  503  502  0.00000000000E+00  0.00000000000E+00  0.29506318726E+03  0.29506318726E+03  0.00000000000E+00 0. -1.
         21   -1    0    0  501  503 -0.00000000000E+00 -0.00000000000E+00 -0.18823667096E+03  0.18823667096E+03  0.00000000000E+00 0. -1.
          6    1    1    2  501    0 -0.79917535831E+01  0.15829036890E+03  0.76180051044E+02  0.24668220282E+03  0.17300000000E+03 0. -1.
         -6    1    1    2    0  502  0.79917535831E+01 -0.15829036890E+03  0.30646465260E+02  0.23661765539E+03  0.17300000000E+03 0. -1.
<mgrwt>
<rscale>  2 0.23462461E+03</rscale>
<asrwt>0</asrwt>
<pdfrwt beam="1">  1       21 0.45394337E-01 0.23462461E+03</pdfrwt>
<pdfrwt beam="2">  1       21 0.28959488E-01 0.23462461E+03</pdfrwt>
<totfact> 0.52119959E+04</totfact>
</mgrwt>
</event>
<event>
 4    3  0.4041078E+000  0.2973481E+03  0.7546771E-02  0.1086574E+00
         21   -1    0    0  501  502  0.00000000000E+00  0.00000000000E+00  0.99325275659E+03  0.99325275659E+03  0.00000000000E+00 0. -1.
         21   -1    0    0  502  503 -0.00000000000E+00 -0.00000000000E+00 -0.14369301495E+03  0.14369301495E+03  0.00000000000E+00 0. -1.
          6    1    1    2  501    0  0.61123579186E+02  0.23398885000E+03  0.74114904133E+02  0.30644557897E+03  0.17300000000E+03 0. -1.
         -6    1    1    2    0  503 -0.61123579186E+02 -0.23398885000E+03  0.77544483750E+03  0.83050019257E+03  0.17300000000E+03 0. -1.
<mgrwt>
<rscale>  2 0.29734807E+03</rscale>
<asrwt>0</asrwt>
<pdfrwt beam="1">  1       21 0.15280811E+00 0.29734807E+03</pdfrwt>
<pdfrwt beam="2">  1       21 0.22106618E-01 0.29734807E+03</pdfrwt>
<totfact> 0.50658712E+03</totfact>
</mgrwt>
</event>
<event>
 4    3  0.4041078E+000  0.3501634E+03  0.7546771E-02  0.1062548E+00
         21   -1    0    0  501  502  0.00000000000E+00  0.00000000000E+00  0.16938668616E+03  0.16938668616E+03  0.00000000000E+00 0. -1.
         21   -1    0    0  502  503 -0.00000000000E+00 -0.00000000000E+00 -0.79118710487E+03  0.79118710487E+03  0.00000000000E+00 0.  1.
          6    1    1    2  501    0 -0.12329694052E+02 -0.30419297269E+03 -0.45099286509E+03  0.57097193482E+03  0.17300000000E+03 0. -1.
         -6    1    1    2    0  503  0.12329694052E+02  0.30419297269E+03 -0.17080755361E+03  0.38960185621E+03  0.17300000000E+03 0. -1.
<mgrwt>
<rscale>  2 0.35016337E+03</rscale>
<asrwt>0</asrwt>
<pdfrwt beam="1">  1       21 0.26059490E-01 0.35016337E+03</pdfrwt>
<pdfrwt beam="2">  1       21 0.12172109E+00 0.35016337E+03</pdfrwt>
<totfact> 0.65117373E+03</totfact>
</mgrwt>
</event>
<event>
 4    3  0.4041078E+000  0.2448241E+03  0.7546771E-02  0.1116620E+00
         21   -1    0    0  503  502  0.00000000000E+00  0.00000000000E+00  0.62610393517E+03  0.62610393517E+03  0.00000000000E+00 0.  1.
         21   -1    0    0  501  503 -0.00000000000E+00 -0.00000000000E+00 -0.11320518201E+03  0.11320518201E+03  0.00000000000E+00 0.  1.
          6    1    1    2  501    0  0.53131384589E+02 -0.16488454421E+03  0.40167241335E+03  0.47040364007E+03  0.17300000000E+03 0.  1.
         -6    1    1    2    0  502 -0.53131384589E+02  0.16488454421E+03  0.11122633981E+03  0.26890547710E+03  0.17300000000E+03 0.  1.
<mgrwt>
<rscale>  2 0.24482413E+03</rscale>
<asrwt>0</asrwt>
<pdfrwt beam="1">  1       21 0.96323680E-01 0.24482413E+03</pdfrwt>
<pdfrwt beam="2">  1       21 0.17416182E-01 0.24482413E+03</pdfrwt>
<totfact> 0.26015037E+04</totfact>
</mgrwt>
</event>
<event>
 4    3  0.4041078E+000  0.2279936E+03  0.7546771E-02  0.1128060E+00
         21   -1    0    0  503  502  0.00000000000E+00  0.00000000000E+00  0.75106500798E+02  0.75106500798E+02  0.00000000000E+00 0.  1.
         21   -1    0    0  501  503 -0.00000000000E+00 -0.00000000000E+00 -0.72121161994E+03  0.72121161994E+03  0.00000000000E+00 0. -1.
          6    1    1    2  501    0  0.12845336148E+03  0.74510398846E+02 -0.40304937371E+03  0.46306572240E+03  0.17300000000E+03 0. -1.
         -6    1    1    2    0  502 -0.12845336148E+03 -0.74510398846E+02 -0.24305574543E+03  0.33325239833E+03  0.17300000000E+03 0.  1.
<mgrwt>
<rscale>  2 0.22799356E+03</rscale>
<asrwt>0</asrwt>
<pdfrwt beam="1">  1       21 0.11554846E-01 0.22799356E+03</pdfrwt>
<pdfrwt beam="2">  1       21 0.11095563E+00 0.22799356E+03</pdfrwt>
<totfact> 0.39413844E+04</totfact>
</mgrwt>
</event>
<event>
 4    3  0.4041078E+000  0.2085330E+03  0.7546771E-02  0.1142733E+00
         21   -1    0    0  503  502  0.00000000000E+00  0.00000000000E+00  0.75065916376E+02  0.75065916376E+02  0.00000000000E+00 0. -1.
         21   -1    0    0  501  503 -0.00000000000E+00 -0.00000000000E+00 -0.77379946051E+03  0.77379946051E+03  0.00000000000E+00 0. -1.
          6    1    1    2  501    0 -0.82885369203E+02  0.81774365821E+02 -0.56215552434E+03  0.59958724543E+03  0.17300000000E+03 0. -1.
         -6    1    1    2    0  502  0.82885369203E+02 -0.81774365821E+02 -0.13657801980E+03  0.24927813146E+03  0.17300000000E+03 0. -1.
<mgrwt>
<rscale>  2 0.20853305E+03</rscale>
<asrwt>0</asrwt>
<pdfrwt beam="1">  1       21 0.11548603E-01 0.20853305E+03</pdfrwt>
<pdfrwt beam="2">  1       21 0.11904607E+00 0.20853305E+03</pdfrwt>
<totfact> 0.33544107E+04</totfact>
</mgrwt>
</event>
<event>
 4    3  0.4041078E+000  0.2725022E+03  0.7546771E-02  0.1099856E+00
         21   -1    0    0  501  502  0.00000000000E+00  0.00000000000E+00  0.31431115250E+03  0.31431115250E+03  0.00000000000E+00 0.  1.
         21   -1    0    0  502  503 -0.00000000000E+00 -0.00000000000E+00 -0.78933385539E+03  0.78933385539E+03  0.00000000000E+00 0. -1.
          6    1    1    2  501    0 -0.20724397062E+03  0.37126451541E+02  0.22440437710E+03  0.35300816028E+03  0.17300000000E+03 0.  1.
         -6    1    1    2    0  503  0.20724397062E+03 -0.37126451541E+02 -0.69942708000E+03  0.75063684761E+03  0.17300000000E+03 0. -1.
<mgrwt>
<rscale>  2 0.27250218E+03</rscale>
<asrwt>0</asrwt>
<pdfrwt beam="1">  1       21 0.48355562E-01 0.27250218E+03</pdfrwt>
<pdfrwt beam="2">  1       21 0.12143598E+00 0.27250218E+03</pdfrwt>
<totfact> 0.19661143E+03</totfact>
</mgrwt>
</event>
<event>
 4    3  0.4041078E+000  0.2104740E+03  0.7546771E-02  0.1141191E+00
         21   -1    0    0  501  502  0.00000000000E+00  0.00000000000E+00  0.15786165291E+02  0.15786165291E+02  0.00000000000E+00 0.  1.
         21   -1    0    0  502  503 -0.00000000000E+00 -0.00000000000E+00 -0.28652486193E+04  0.28652486193E+04  0.00000000000E+00 0. -1.
          6    1    1    2  501    0  0.76497503687E+01 -0.11963195775E+03 -0.12179559235E+04  0.12360080726E+04  0.17300000000E+03 0.  1.
         -6    1    1    2    0  503 -0.76497503687E+01  0.11963195775E+03 -0.16315065305E+04  0.16450267120E+04  0.17300000000E+03 0. -1.
<mgrwt>
<rscale>  2 0.21047405E+03</rscale>
<asrwt>0</asrwt>
<pdfrwt beam="1">  1       21 0.24286441E-02 0.21047405E+03</pdfrwt>
<pdfrwt beam="2">  1       21 0.44080688E+00 0.21047405E+03</pdfrwt>
<totfact> 0.41840777E+03</totfact>
</mgrwt>
</event>
<event>
 4    3  0.4041078E+000  0.1745374E+03  0.7546771E-02  0.1173197E+00
         21   -1    0    0  503  502  0.00000000000E+00  0.00000000000E+00  0.12779973040E+03  0.12779973040E+03  0.00000000000E+00 0.  1.
         21   -1    0    0  501  503 -0.00000000000E+00 -0.00000000000E+00 -0.27511549007E+03  0.27511549007E+03  0.00000000000E+00 0.  1.
          6    1    1    2  501    0 -0.16454864738E+01 -0.23056217590E+02 -0.14728591361E+03  0.22837783855E+03  0.17300000000E+03 0. -1.
         -6    1    1    2    0  502  0.16454864738E+01  0.23056217590E+02 -0.29846069558E-01  0.17453738192E+03  0.17300000000E+03 0. -1.
<mgrwt>
<rscale>  2 0.17453738E+03</rscale>
<asrwt>0</asrwt>
<pdfrwt beam="1">  1       21 0.19661497E-01 0.17453738E+03</pdfrwt>
<pdfrwt beam="2">  1       21 0.42325460E-01 0.17453738E+03</pdfrwt>
<totfact> 0.12880359E+05</totfact>
</mgrwt>
</event>
<event>
 4    3  0.4041078E+000  0.2983403E+03  0.7546771E-02  0.1086073E+00
         21   -1    0    0  501  502  0.00000000000E+00  0.00000000000E+00  0.44226821159E+03  0.44226821159E+03  0.00000000000E+00 0. -1.
         21   -1    0    0  502  503 -0.00000000000E+00 -0.00000000000E+00 -0.29969258725E+03  0.29969258725E+03  0.00000000000E+00 0. -1.
          6    1    1    2  501    0  0.19219508464E+03 -0.14879181560E+03  0.28390682267E+03  0.41183739377E+03  0.17300000000E+03 0. -1.
         -6    1    1    2    0  503 -0.19219508464E+03  0.14879181560E+03 -0.14133119833E+03  0.33012340507E+03  0.17300000000E+03 0. -1.
<mgrwt>
<rscale>  2 0.29834033E+03</rscale>
<asrwt>0</asrwt>
<pdfrwt beam="1">  1       21 0.68041264E-01 0.29834033E+03</pdfrwt>
<pdfrwt beam="2">  1       21 0.46106552E-01 0.29834033E+03</pdfrwt>
<totfact> 0.83589413E+03</totfact>
</mgrwt>
</event>
<event>
 4    3  0.4041078E+000  0.1737076E+03  0.7546771E-02  0.1174036E+00
         21   -1    0    0  503  502  0.00000000000E+00  0.00000000000E+00  0.67425455828E+02  0.67425455828E+02  0.00000000000E+00 0.  1.
         21   -1    0    0  501  503 -0.00000000000E+00 -0.00000000000E+00 -0.53400173673E+03  0.53400173673E+03  0.00000000000E+00 0.  1.
          6    1    1    2  501    0 -0.10882526750E+01  0.15625071651E+02 -0.35430355280E+03  0.39459515289E+03  0.17300000000E+03 0.  1.
         -6    1    1    2    0  502  0.10882526750E+01 -0.15625071651E+02 -0.11227272811E+03  0.20683203967E+03  0.17300000000E+03 0.  1.
<mgrwt>
<rscale>  2 0.17370759E+03</rscale>
<asrwt>0</asrwt>
<pdfrwt beam="1">  1       21 0.10373147E-01 0.17370759E+03</pdfrwt>
<pdfrwt beam="2">  1       21 0.82154115E-01 0.17370759E+03</pdfrwt>
<totfact> 0.99241086E+04</totfact>
</mgrwt>
</event>
<event>
 4    3  0.4041078E+000  0.2121288E+03  0.7546771E-02  0.1139891E+00
         21   -1    0    0  501  502  0.00000000000E+00  0.00000000000E+00  0.47580959481E+03  0.47580959481E+03  0.00000000000E+00 0. -1.
         21   -1    0    0  502  503 -0.00000000000E+00 -0.00000000000E+00 -0.74391854404E+03  0.74391854404E+03  0.00000000000E+00 0.  1.
          6    1    1    2  501    0  0.74827281232E+02  0.97316585340E+02  0.43572704388E+03  0.48462015699E+03  0.17300000000E+03 0. -1.
         -6    1    1    2    0  503 -0.74827281232E+02 -0.97316585340E+02 -0.70383599310E+03  0.73510798185E+03  0.17300000000E+03 0.  1.
<mgrwt>
<rscale>  2 0.21212883E+03</rscale>
<asrwt>0</asrwt>
<pdfrwt beam="1">  1       21 0.73201477E-01 0.21212883E+03</pdfrwt>
<pdfrwt beam="2">  1       21 0.11444901E+00 0.21212883E+03</pdfrwt>
<totfact> 0.97648601E+02</totfact>
</mgrwt>
</event>
<event>
 4    3  0.4041078E+000  0.2651611E+03  0.7546771E-02  0.1104081E+00
         21   -1    0    0  503  502  0.00000000000E+00  0.00000000000E+00  0.21611557841E+04  0.21611557841E+04  0.00000000000E+00 0. -1.
         21   -1    0    0  501  503 -0.00000000000E+00 -0.00000000000E+00 -0.33466451417E+02  0.33466451417E+02  0.00000000000E+00 0. -1.
          6    1    1    2  501    0 -0.28399228045E+01 -0.20093122644E+03  0.12470359403E+04  0.12749153146E+04  0.17300000000E+03 0. -1.
         -6    1    1    2    0  502  0.28399228045E+01  0.20093122644E+03  0.88065339232E+03  0.91970692088E+03  0.17300000000E+03 0. -1.
<mgrwt>
<rscale>  2 0.26516113E+03</rscale>
<asrwt>0</asrwt>
<pdfrwt beam="1">  1       21 0.33248540E+00 0.26516113E+03</pdfrwt>
<pdfrwt beam="2">  1       21 0.51486865E-02 0.26516113E+03</pdfrwt>
<totfact> 0.52555400E+03</totfact>
</mgrwt>
</event>
<event>
 4    3  0.4041078E+000  0.1830084E+03  0.7546771E-02  0.1164923E+00
         21   -1    0    0  501  502  0.00000000000E+00  0.00000000000E+00  0.95433492488E+03  0.95433492488E+03  0.00000000000E+00 0.  1.
         21   -1    0    0  502  503 -0.00000000000E+00 -0.00000000000E+00 -0.44955085607E+02  0.44955085607E+02  0.00000000000E+00 0.  1.
          6    1    1    2  501    0 -0.44425677447E+02  0.39867608623E+02  0.68869204249E+03  0.71259300897E+03  0.17300000000E+03 0.  1.
         -6    1    1    2    0  503  0.44425677447E+02 -0.39867608623E+02  0.22068779678E+03  0.28669700153E+03  0.17300000000E+03 0.  1.
<mgrwt>
<rscale>  2 0.18300838E+03</rscale>
<asrwt>0</asrwt>
<pdfrwt beam="1">  1       21 0.14682074E+00 0.18300838E+03</pdfrwt>
<pdfrwt beam="2">  1       21 0.69161677E-02 0.18300838E+03</pdfrwt>
<totfact> 0.49096767E+04</totfact>
</mgrwt>
</event>
<event>
 4    3  0.4041078E+000  0.1913438E+03  0.7546771E-02  0.1157255E+00
         21   -1    0    0  503  502  0.00000000000E+00  0.00000000000E+00  0.14002825362E+03  0.14002825362E+03  0.00000000000E+00 0.  1.
         21   -1    0    0  501  503 -0.00000000000E+00 -0.00000000000E+00 -0.28863473856E+03  0.28863473856E+03  0.00000000000E+00 0.  1.
          6    1    1    2  501    0 -0.88615901702E+01 -0.81270743541E+02 -0.14006234811E+03  0.23712849448E+03  0.17300000000E+03 0.  1.
         -6    1    1    2    0  502  0.88615901702E+01  0.81270743541E+02 -0.85441368270E+01  0.19153449770E+03  0.17300000000E+03 0.  1.
<mgrwt>
<rscale>  2 0.19134383E+03</rscale>
<asrwt>0</asrwt>
<pdfrwt beam="1">  1       21 0.21542809E-01 0.19134383E+03</pdfrwt>
<pdfrwt beam="2">  1       21 0.44405344E-01 0.19134383E+03</pdfrwt>
<totfact> 0.97846150E+04</totfact>
</mgrwt>
</event>
<event>
 4    3  0.4041078E+000  0.1766587E+03  0.7546771E-02  0.1171077E+00
         21   -1    0    0  503  502  0.00000000000E+00  0.00000000000E+00  0.15137877171E+03  0.15137877171E+03  0.00000000000E+00 0.  1.
         21   -1    0    0  501  503 -0.00000000000E+00 -0.00000000000E+00 -0.44264437262E+03  0.44264437262E+03  0.00000000000E+00 0.  1.
          6    1    1    2  501    0  0.35756496325E+02 -0.87747077121E+00 -0.36272630060E+03  0.40345838215E+03  0.17300000000E+03 0.  1.
         -6    1    1    2    0  502 -0.35756496325E+02  0.87747077121E+00  0.71460699691E+02  0.19056476218E+03  0.17300000000E+03 0.  1.
<mgrwt>
<rscale>  2 0.17665870E+03</rscale>
<asrwt>0</asrwt>
<pdfrwt beam="1">  1       21 0.23289042E-01 0.17665870E+03</pdfrwt>
<pdfrwt beam="2">  1       21 0.68099133E-01 0.17665870E+03</pdfrwt>
<totfact> 0.34413415E+04</totfact>
</mgrwt>
</event>
<event>
 4    3  0.4041078E+000  0.2289528E+03  0.7546771E-02  0.1127379E+00
         21   -1    0    0  503  502  0.00000000000E+00  0.00000000000E+00  0.29116805258E+03  0.29116805258E+03  0.00000000000E+00 0. -1.
         21   -1    0    0  501  503 -0.00000000000E+00 -0.00000000000E+00 -0.24464631586E+03  0.24464631586E+03  0.00000000000E+00 0.  1.
          6    1    1    2  501    0 -0.13728448576E+03  0.60360353995E+02 -0.11442244012E+03  0.25595291983E+03  0.17300000000E+03 0.  1.
         -6    1    1    2    0  502  0.13728448576E+03 -0.60360353995E+02  0.16094417684E+03  0.27986144862E+03  0.17300000000E+03 0. -1.
<mgrwt>
<rscale>  2 0.22895284E+03</rscale>
<asrwt>0</asrwt>
<pdfrwt beam="1">  1       21 0.44795085E-01 0.22895284E+03</pdfrwt>
<pdfrwt beam="2">  1       21 0.37637895E-01 0.22895284E+03</pdfrwt>
<totfact> 0.31959748E+04</totfact>
</mgrwt>
</event>
<event>
 4    3  0.4041078E+000  0.2549507E+03  0.7546771E-02  0.1110215E+00
         21   -1    0    0  503  502  0.00000000000E+00  0.00000000000E+00  0.95017842856E+02  0.95017842856E+02  0.00000000000E+00 0. -1.
         21   -1    0    0  501  503 -0.00000000000E+00 -0.00000000000E+00 -0.68419909017E+03  0.68419909017E+03  0.00000000000E+00 0. -1.
          6    1    1    2  501    0  0.18719210779E+03 -0.54731948029E+01 -0.29972277832E+03  0.39348898959E+03  0.17300000000E+03 0. -1.
         -6    1    1    2    0  502 -0.18719210779E+03  0.54731948029E+01 -0.28945846899E+03  0.38572794344E+03  0.17300000000E+03 0. -1.
<mgrwt>
<rscale>  2 0.25495066E+03</rscale>
<asrwt>0</asrwt>
<pdfrwt beam="1">  1       21 0.14618131E-01 0.25495066E+03</pdfrwt>
<pdfrwt beam="2">  1       21 0.10526139E+00 0.25495066E+03</pdfrwt>
<totfact> 0.28900588E+04</totfact>
</mgrwt>
</event>
<event>
 4    3  0.4041078E+000  0.1748415E+03  0.7546771E-02  0.1172891E+00
         21   -1    0    0  503  502  0.00000000000E+00  0.00000000000E+00  0.23916570883E+03  0.23916570883E+03  0.00000000000E+00 0.  1.
         21   -1    0    0  501  503 -0.00000000000E+00 -0.00000000000E+00 -0.75690311862E+03  0.75690311862E+03  0.00000000000E+00 0.  1.
          6    1    1    2  501    0  0.20107962985E+02  0.15369858306E+02 -0.71290867323E+03  0.73403565246E+03  0.17300000000E+03 0.  1.
         -6    1    1    2    0  502 -0.20107962985E+02 -0.15369858306E+02  0.19517126344E+03  0.26203317498E+03  0.17300000000E+03 0.  1.
<mgrwt>
<rscale>  2 0.17484154E+03</rscale>
<asrwt>0</asrwt>
<pdfrwt beam="1">  1       21 0.36794725E-01 0.17484154E+03</pdfrwt>
<pdfrwt beam="2">  1       21 0.11644663E+00 0.17484154E+03</pdfrwt>
<totfact> 0.41130513E+03</totfact>
</mgrwt>
</event>
<event>
 4    3  0.4041078E+000  0.2575031E+03  0.7546771E-02  0.1108653E+00
         21   -1    0    0  503  502  0.00000000000E+00  0.00000000000E+00  0.15105813724E+03  0.15105813724E+03  0.00000000000E+00 0. -1.
         21   -1    0    0  501  503 -0.00000000000E+00 -0.00000000000E+00 -0.56060222166E+03  0.56060222166E+03  0.00000000000E+00 0.  1.
          6    1    1    2  501    0 -0.15737642478E+03 -0.10775678878E+03 -0.37052634672E+03  0.45121794979E+03  0.17300000000E+03 0.  1.
         -6    1    1    2    0  502  0.15737642478E+03  0.10775678878E+03 -0.39017737703E+02  0.26044240910E+03  0.17300000000E+03 0. -1.
<mgrwt>
<rscale>  2 0.25750314E+03</rscale>
<asrwt>0</asrwt>
<pdfrwt beam="1">  1       21 0.23239713E-01 0.25750314E+03</pdfrwt>
<pdfrwt beam="2">  1       21 0.86246496E-01 0.25750314E+03</pdfrwt>
<totfact> 0.19463331E+04</totfact>
</mgrwt>
</event>
<event>
 4    3  0.4041078E+000  0.1818973E+03  0.7546771E-02  0.1165979E+00
         21   -1    0    0  503  502  0.00000000000E+00  0.00000000000E+00  0.84418315057E+03  0.84418315057E+03  0.00000000000E+00 0.  1.
         21   -1    0    0  501  503 -0.00000000000E+00 -0.00000000000E+00 -0.88350169003E+02  0.88350169003E+02  0.00000000000E+00 0.  1.
          6    1    1    2  501    0  0.52374692292E+02 -0.20359597483E+02  0.30123186475E+02  0.18437469448E+03  0.17300000000E+03 0.  1.
         -6    1    1    2    0  502 -0.52374692292E+02  0.20359597483E+02  0.72570979509E+03  0.74815862508E+03  0.17300000000E+03 0.  1.
<mgrwt>
<rscale>  2 0.18189728E+03</rscale>
<asrwt>0</asrwt>
<pdfrwt beam="1">  1       21 0.12987433E+00 0.18189728E+03</pdfrwt>
<pdfrwt beam="2">  1       21 0.13592334E-01 0.18189728E+03</pdfrwt>
<totfact> 0.20465971E+04</totfact>
</mgrwt>
</event>
<event>
 4    3  0.4041078E+000  0.2600349E+03  0.7546771E-02  0.1107122E+00
         21   -1    0    0  501  502  0.00000000000E+00  0.00000000000E+00  0.47517454031E+03  0.47517454031E+03  0.00000000000E+00 0. -1.
         21   -1    0    0  502  503 -0.00000000000E+00 -0.00000000000E+00 -0.18600986108E+03  0.18600986108E+03  0.00000000000E+00 0. -1.
          6    1    1    2  501    0 -0.16798402917E+03 -0.97316613710E+02  0.30483518754E+03  0.40067773700E+03  0.17300000000E+03 0. -1.
         -6    1    1    2    0  503  0.16798402917E+03  0.97316613710E+02 -0.15670508313E+02  0.26050666439E+03  0.17300000000E+03 0. -1.
<mgrwt>
<rscale>  2 0.26003492E+03</rscale>
<asrwt>0</asrwt>
<pdfrwt beam="1">  1       21 0.73103775E-01 0.26003492E+03</pdfrwt>
<pdfrwt beam="2">  1       21 0.28616902E-01 0.26003492E+03</pdfrwt>
<totfact> 0.18952994E+04</totfact>
</mgrwt>
</event>
<event>
 4    3  0.4041078E+000  0.2211243E+03  0.7546771E-02  0.1133048E+00
         21   -1    0    0  501  502  0.00000000000E+00  0.00000000000E+00  0.30178202149E+03  0.30178202149E+03  0.00000000000E+00 0. -1.
         21   -1    0    0  502  503 -0.00000000000E+00 -0.00000000000E+00 -0.58133339616E+03  0.58133339616E+03  0.00000000000E+00 0. -1.
          6    1    1    2  501    0 -0.54632900852E+01  0.13761210053E+03  0.23523368265E+03  0.32284798777E+03  0.17300000000E+03 0. -1.
         -6    1    1    2    0  503  0.54632900852E+01 -0.13761210053E+03 -0.51478505732E+03  0.56026742989E+03  0.17300000000E+03 0. -1.
<mgrwt>
<rscale>  2 0.22112426E+03</rscale>
<asrwt>0</asrwt>
<pdfrwt beam="1">  1       21 0.46428004E-01 0.22112426E+03</pdfrwt>
<pdfrwt beam="2">  1       21 0.89435907E-01 0.22112426E+03</pdfrwt>
<totfact> 0.46345955E+03</totfact>
</mgrwt>
</event>
<event>
 4    3  0.4041078E+000  0.1920100E+03  0.7546771E-02  0.1156661E+00
         21   -1    0    0  503  502  0.00000000000E+00  0.00000000000E+00  0.11928566983E+04  0.11928566983E+04  0.00000000000E+00 0. -1.
         21   -1    0    0  501  503 -0.00000000000E+00 -0.00000000000E+00 -0.56317055222E+02  0.56317055222E+02  0.00000000000E+00 0. -1.
          6    1    1    2  501    0 -0.82537716754E+02  0.11241156765E+02  0.14872908064E+03  0.24287481904E+03  0.17300000000E+03 0. -1.
         -6    1    1    2    0  502  0.82537716754E+02 -0.11241156765E+02  0.98781056241E+03  0.10062989345E+04  0.17300000000E+03 0. -1.
<mgrwt>
<rscale>  2 0.19201000E+03</rscale>
<asrwt>0</asrwt>
<pdfrwt beam="1">  1       21 0.18351640E+00 0.19201000E+03</pdfrwt>
<pdfrwt beam="2">  1       21 0.86641632E-02 0.19201000E+03</pdfrwt>
<totfact> 0.17995106E+04</totfact>
</mgrwt>
</event>
<event>
 4    3  0.4041078E+000  0.2353150E+03  0.7546771E-02  0.1122954E+00
         21   -1    0    0  503  502  0.00000000000E+00  0.00000000000E+00  0.31001799366E+03  0.31001799366E+03  0.00000000000E+00 0.  1.
         21   -1    0    0  501  503 -0.00000000000E+00 -0.00000000000E+00 -0.20750162153E+03  0.20750162153E+03  0.00000000000E+00 0.  1.
          6    1    1    2  501    0 -0.31067818859E+02  0.15645746409E+03  0.14780808435E+03  0.27788554701E+03  0.17300000000E+03 0.  1.
         -6    1    1    2    0  502  0.31067818859E+02 -0.15645746409E+03 -0.45291712221E+02  0.23963406818E+03  0.17300000000E+03 0.  1.
<mgrwt>
<rscale>  2 0.23531500E+03</rscale>
<asrwt>0</asrwt>
<pdfrwt beam="1">  1       21 0.47695076E-01 0.23531500E+03</pdfrwt>
<pdfrwt beam="2">  1       21 0.31923326E-01 0.23531500E+03</pdfrwt>
<totfact> 0.38846203E+04</totfact>
</mgrwt>
</event>
<event>
 4    3  0.4041078E+000  0.1929384E+03  0.7546771E-02  0.1155837E+00
         21   -1    0    0  501  502  0.00000000000E+00  0.00000000000E+00  0.15745122906E+03  0.15745122906E+03  0.00000000000E+00 0. -1.
         21   -1    0    0  502  503 -0.00000000000E+00 -0.00000000000E+00 -0.27466557497E+03  0.27466557497E+03  0.00000000000E+00 0. -1.
          6    1    1    2  501    0 -0.24142295125E+02  0.81935176685E+02  0.22011911059E+02  0.19418997868E+03  0.17300000000E+03 0. -1.
         -6    1    1    2    0  503  0.24142295125E+02 -0.81935176685E+02 -0.13922625696E+03  0.23792682535E+03  0.17300000000E+03 0. -1.
<mgrwt>
<rscale>  2 0.19293839E+03</rscale>
<asrwt>0</asrwt>
<pdfrwt beam="1">  1       21 0.24223266E-01 0.19293839E+03</pdfrwt>
<pdfrwt beam="2">  1       21 0.42256242E-01 0.19293839E+03</pdfrwt>
<totfact> 0.86685213E+04</totfact>
</mgrwt>
</event>
<event>
 4    3  0.4041078E+000  0.1870650E+03  0.7546771E-02  0.1161135E+00
         21   -1    0    0  503  502  0.00000000000E+00  0.00000000000E+00  0.20336107915E+03  0.20336107915E+03  0.00000000000E+00 0.  1.
         21   -1    0    0  501  503 -0.00000000000E+00 -0.00000000000E+00 -0.37568510244E+03  0.37568510244E+03  0.00000000000E+00 0.  1.
          6    1    1    2  501    0  0.12589976817E+01  0.71152934517E+02 -0.29930500043E+03  0.35295439996E+03  0.17300000000E+03 0.  1.
         -6    1    1    2    0  502 -0.12589976817E+01 -0.71152934517E+02  0.12698097715E+03  0.22609178163E+03  0.17300000000E+03 0.  1.
<mgrwt>
<rscale>  2 0.18706503E+03</rscale>
<asrwt>0</asrwt>
<pdfrwt beam="1">  1       21 0.31286320E-01 0.18706503E+03</pdfrwt>
<pdfrwt beam="2">  1       21 0.57797708E-01 0.18706503E+03</pdfrwt>
<totfact> 0.27642680E+04</totfact>
</mgrwt>
</event>
<event>
 4    3  0.4041078E+000  0.1899679E+03  0.7546771E-02  0.1158490E+00
         21   -1    0    0  503  502  0.00000000000E+00  0.00000000000E+00  0.14385154560E+03  0.14385154560E+03  0.00000000000E+00 0. -1.
         21   -1    0    0  501  503 -0.00000000000E+00 -0.00000000000E+00 -0.45881335236E+03  0.45881335236E+03  0.00000000000E+00 0. -1.
          6    1    1    2  501    0 -0.68292203139E+02 -0.38664731038E+02 -0.36034361128E+03  0.40735157374E+03  0.17300000000E+03 0. -1.
         -6    1    1    2    0  502  0.68292203139E+02  0.38664731038E+02  0.45381804525E+02  0.19531332422E+03  0.17300000000E+03 0. -1.
<mgrwt>
<rscale>  2 0.18996786E+03</rscale>
<asrwt>0</asrwt>
<pdfrwt beam="1">  1       21 0.22131007E-01 0.18996786E+03</pdfrwt>
<pdfrwt beam="2">  1       21 0.70586670E-01 0.18996786E+03</pdfrwt>
<totfact> 0.34773074E+04</totfact>
</mgrwt>
</event>
<event>
 4    3  0.4041078E+000  0.1956737E+03  0.7546771E-02  0.1153441E+00
         21   -1    0    0  503  502  0.00000000000E+00  0.00000000000E+00  0.48005879336E+03  0.48005879336E+03  0.00000000000E+00 0.  1.
         21   -1    0    0  501  503 -0.00000000000E+00 -0.00000000000E+00 -0.87617368282E+02  0.87617368282E+02  0.00000000000E+00 0.  1.
          6    1    1    2  501    0  0.27565392705E+02 -0.87174220933E+02  0.11120707937E+03  0.22506712370E+03  0.17300000000E+03 0.  1.
         -6    1    1    2    0  502 -0.27565392705E+02  0.87174220933E+02  0.28123434571E+03  0.34260903794E+03  0.17300000000E+03 0.  1.
<mgrwt>
<rscale>  2 0.19567370E+03</rscale>
<asrwt>0</asrwt>
<pdfrwt beam="1">  1       21 0.73855197E-01 0.19567370E+03</pdfrwt>
<pdfrwt beam="2">  1       21 0.13479595E-01 0.19567370E+03</pdfrwt>
<totfact> 0.78245882E+04</totfact>
</mgrwt>
</event>
<event>
 4    3  0.4041078E+000  0.4324888E+03  0.7546771E-02  0.1033077E+00
         21   -1    0    0  501  502  0.00000000000E+00  0.00000000000E+00  0.10773426183E+03  0.10773426183E+03  0.00000000000E+00 0.  1.
         21   -1    0    0  502  503 -0.00000000000E+00 -0.00000000000E+00 -0.19934751085E+04  0.19934751085E+04  0.00000000000E+00 0. -1.
          6    1    1    2  501    0 -0.35388794768E+03  0.17855208206E+03 -0.56543198512E+03  0.71187067317E+03  0.17300000000E+03 0. -1.
         -6    1    1    2    0  503  0.35388794768E+03 -0.17855208206E+03 -0.13203088615E+04  0.13893386971E+04  0.17300000000E+03 0.  1.
<mgrwt>
<rscale>  2 0.43248876E+03</rscale>
<asrwt>0</asrwt>
<pdfrwt beam="1">  1       21 0.16574501E-01 0.43248876E+03</pdfrwt>
<pdfrwt beam="2">  1       21 0.30668849E+00 0.43248876E+03</pdfrwt>
<totfact> 0.82777573E+02</totfact>
</mgrwt>
</event>
<event>
 4    3  0.4041078E+000  0.1774632E+03  0.7546771E-02  0.1170281E+00
         21   -1    0    0  501  502  0.00000000000E+00  0.00000000000E+00  0.58083536647E+03  0.58083536647E+03  0.00000000000E+00 0.  1.
         21   -1    0    0  502  503 -0.00000000000E+00 -0.00000000000E+00 -0.55614875859E+02  0.55614875859E+02  0.00000000000E+00 0.  1.
          6    1    1    2  501    0  0.39541300468E+02  0.82551934149E+00  0.31299808064E+03  0.35980688489E+03  0.17300000000E+03 0.  1.
         -6    1    1    2    0  503 -0.39541300468E+02 -0.82551934149E+00  0.21222240997E+03  0.27664335745E+03  0.17300000000E+03 0.  1.
<mgrwt>
<rscale>  2 0.17746322E+03</rscale>
<asrwt>0</asrwt>
<pdfrwt beam="1">  1       21 0.89359283E-01 0.17746322E+03</pdfrwt>
<pdfrwt beam="2">  1       21 0.85561352E-02 0.17746322E+03</pdfrwt>
<totfact> 0.11466434E+05</totfact>
</mgrwt>
</event>
<event>
 4    3  0.4041078E+000  0.2315502E+03  0.7546771E-02  0.1125553E+00
         21   -1    0    0  503  502  0.00000000000E+00  0.00000000000E+00  0.29700642788E+03  0.29700642788E+03  0.00000000000E+00 0. -1.
         21   -1    0    0  501  503 -0.00000000000E+00 -0.00000000000E+00 -0.28425450238E+03  0.28425450238E+03  0.00000000000E+00 0. -1.
          6    1    1    2  501    0  0.61979356134E+02  0.14087248016E+03 -0.16919383487E+03  0.28677874748E+03  0.17300000000E+03 0. -1.
         -6    1    1    2    0  502 -0.61979356134E+02 -0.14087248016E+03  0.18194576037E+03  0.29448218277E+03  0.17300000000E+03 0. -1.
<mgrwt>
<rscale>  2 0.23155020E+03</rscale>
<asrwt>0</asrwt>
<pdfrwt beam="1">  1       21 0.45693297E-01 0.23155020E+03</pdfrwt>
<pdfrwt beam="2">  1       21 0.43731462E-01 0.23155020E+03</pdfrwt>
<totfact> 0.22581510E+04</totfact>
</mgrwt>
</event>
<event>
 4    3  0.4041078E+000  0.1788462E+03  0.7546771E-02  0.1168924E+00
         21   -1    0    0  501  502  0.00000000000E+00  0.00000000000E+00  0.22978411330E+04  0.22978411330E+04  0.00000000000E+00 0. -1.
         21   -1    0    0  502  503 -0.00000000000E+00 -0.00000000000E+00 -0.33031279663E+02  0.33031279663E+02  0.00000000000E+00 0. -1.
          6    1    1    2  501    0 -0.30662636507E+01  0.45249978056E+02  0.20188883555E+04  0.20267945516E+04  0.17300000000E+03 0. -1.
         -6    1    1    2    0  503  0.30662636507E+01 -0.45249978056E+02  0.24592149789E+03  0.30407786110E+03  0.17300000000E+03 0. -1.
<mgrwt>
<rscale>  2 0.17884620E+03</rscale>
<asrwt>0</asrwt>
<pdfrwt beam="1">  1       21 0.35351390E+00 0.17884620E+03</pdfrwt>
<pdfrwt beam="2">  1       21 0.50817371E-02 0.17884620E+03</pdfrwt>
<totfact> 0.44444897E+03</totfact>
</mgrwt>
</event>
<event>
 4    3  0.4041078E+000  0.2104191E+03  0.7546771E-02  0.1141235E+00
         21   -1    0    0  501  502  0.00000000000E+00  0.00000000000E+00  0.33369082593E+03  0.33369082593E+03  0.00000000000E+00 0. -1.
         21   -1    0    0  502  503 -0.00000000000E+00 -0.00000000000E+00 -0.13910946059E+03  0.13910946059E+03  0.00000000000E+00 0.  1.
          6    1    1    2  501    0 -0.11692802345E+03 -0.25981601959E+02  0.46493075152E+02  0.21549434411E+03  0.17300000000E+03 0. -1.
         -6    1    1    2    0  503  0.11692802345E+03  0.25981601959E+02  0.14808829018E+03  0.25730594240E+03  0.17300000000E+03 0. -1.
<mgrwt>
<rscale>  2 0.21041912E+03</rscale>
<asrwt>0</asrwt>
<pdfrwt beam="1">  1       21 0.51337050E-01 0.21041912E+03</pdfrwt>
<pdfrwt beam="2">  1       21 0.21401456E-01 0.21041912E+03</pdfrwt>
<totfact> 0.72746939E+04</totfact>
</mgrwt>
</event>
<event>
 4    3  0.4041078E+000  0.2017253E+03  0.7546771E-02  0.1148291E+00
         21   -1    0    0  503  502  0.00000000000E+00  0.00000000000E+00  0.10173415687E+04  0.10173415687E+04  0.00000000000E+00 0. -1.
         21   -1    0    0  501  503 -0.00000000000E+00 -0.00000000000E+00 -0.12418269287E+03  0.12418269287E+03  0.00000000000E+00 0. -1.
          6    1    1    2  501    0  0.11003911037E+02 -0.10316505682E+03 -0.23355148784E+02  0.20307283911E+03  0.17300000000E+03 0. -1.
         -6    1    1    2    0  502 -0.11003911037E+02  0.10316505682E+03  0.91651402464E+03  0.93845142249E+03  0.17300000000E+03 0. -1.
<mgrwt>
<rscale>  2 0.20172535E+03</rscale>
<asrwt>0</asrwt>
<pdfrwt beam="1">  1       21 0.15651408E+00 0.20172535E+03</pdfrwt>
<pdfrwt beam="2">  1       21 0.19105030E-01 0.20172535E+03</pdfrwt>
<totfact> 0.66639711E+03</totfact>
</mgrwt>
</event>
<event>
 4    3  0.4041078E+000  0.1813221E+03  0.7546771E-02  0.1166530E+00
         21   -1    0    0  503  502  0.00000000000E+00  0.00000000000E+00  0.48953979907E+03  0.48953979907E+03  0.00000000000E+00 0. -1.
         21   -1    0    0  501  503 -0.00000000000E+00 -0.00000000000E+00 -0.24947938234E+03  0.24947938234E+03  0.00000000000E+00 0. -1.
          6    1    1    2  501    0  0.47877201234E+02 -0.25621987007E+02 -0.19585134929E+03  0.26689972580E+03  0.17300000000E+03 0. -1.
         -6    1    1    2    0  502 -0.47877201234E+02  0.25621987007E+02  0.43591176601E+03  0.47211945561E+03  0.17300000000E+03 0. -1.
<mgrwt>
<rscale>  2 0.18132212E+03</rscale>
<asrwt>0</asrwt>
<pdfrwt beam="1">  1       21 0.75313815E-01 0.18132212E+03</pdfrwt>
<pdfrwt beam="2">  1       21 0.38381444E-01 0.18132212E+03</pdfrwt>
<totfact> 0.10392096E+04</totfact>
</mgrwt>
</event>
<event>
 4    3  0.4041078E+000  0.3935100E+03  0.7546771E-02  0.1046050E+00
         21   -1    0    0  501  502  0.00000000000E+00  0.00000000000E+00  0.18654962032E+04  0.18654962032E+04  0.00000000000E+00 0. -1.
         21   -1    0    0  502  503 -0.00000000000E+00 -0.00000000000E+00 -0.95602803266E+02  0.95602803266E+02  0.00000000000E+00 0.  1.
          6    1    1    2  501    0  0.31014483892E+03 -0.16950312215E+03  0.12408556876E+04  0.13017576452E+04  0.17300000000E+03 0. -1.
         -6    1    1    2    0  503 -0.31014483892E+03  0.16950312215E+03  0.52903771231E+03  0.65934136119E+03  0.17300000000E+03 0.  1.
<mgrwt>
<rscale>  2 0.39351001E+03</rscale>
<asrwt>0</asrwt>
<pdfrwt beam="1">  1       21 0.28699939E+00 0.39351001E+03</pdfrwt>
<pdfrwt beam="2">  1       21 0.14708125E-01 0.39351001E+03</pdfrwt>
<totfact> 0.13872604E+03</totfact>
</mgrwt>
</event>
<event>
 4    3  0.4041078E+000  0.2163187E+03  0.7546771E-02  0.1136658E+00
         21   -1    0    0  503  502  0.00000000000E+00  0.00000000000E+00  0.77253067275E+02  0.77253067275E+02  0.00000000000E+00 0.  1.
         21   -1    0    0  501  503 -0.00000000000E+00 -0.00000000000E+00 -0.60650302086E+03  0.60650302086E+03  0.00000000000E+00 0.  1.
          6    1    1    2  501    0 -0.80707140264E+02 -0.10174060115E+03 -0.25234748296E+03  0.33237485550E+03  0.17300000000E+03 0.  1.
         -6    1    1    2    0  502  0.80707140264E+02  0.10174060115E+03 -0.27690247062E+03  0.35138123264E+03  0.17300000000E+03 0.  1.
<mgrwt>
<rscale>  2 0.21631873E+03</rscale>
<asrwt>0</asrwt>
<pdfrwt beam="1">  1       21 0.11885087E-01 0.21631873E+03</pdfrwt>
<pdfrwt beam="2">  1       21 0.93308156E-01 0.21631873E+03</pdfrwt>
<totfact> 0.57020291E+04</totfact>
</mgrwt>
</event>
<event>
 4    3  0.4041078E+000  0.1759342E+03  0.7546771E-02  0.1171797E+00
         21   -1    0    0  503  502  0.00000000000E+00  0.00000000000E+00  0.40603411478E+03  0.40603411478E+03  0.00000000000E+00 0.  1.
         21   -1    0    0  501  503 -0.00000000000E+00 -0.00000000000E+00 -0.11728823233E+03  0.11728823233E+03  0.00000000000E+00 0.  1.
          6    1    1    2  501    0 -0.25335181963E+02 -0.19543973179E+02 -0.10437773356E+02  0.17624354015E+03  0.17300000000E+03 0.  1.
         -6    1    1    2    0  502  0.25335181963E+02  0.19543973179E+02  0.29918365581E+03  0.34707880695E+03  0.17300000000E+03 0.  1.
<mgrwt>
<rscale>  2 0.17593419E+03</rscale>
<asrwt>0</asrwt>
<pdfrwt beam="1">  1       21 0.62466786E-01 0.17593419E+03</pdfrwt>
<pdfrwt beam="2">  1       21 0.18044344E-01 0.17593419E+03</pdfrwt>
<totfact> 0.66888891E+04</totfact>
</mgrwt>
</event>
<event>
 4    3  0.4041078E+000  0.1821376E+03  0.7546771E-02  0.1165750E+00
         21   -1    0    0  501  502  0.00000000000E+00  0.00000000000E+00  0.45045072234E+03  0.45045072234E+03  0.00000000000E+00 0. -1.
         21   -1    0    0  502  503 -0.00000000000E+00 -0.00000000000E+00 -0.96177136545E+02  0.96177136545E+02  0.00000000000E+00 0. -1.
          6    1    1    2  501    0  0.15823343528E+02 -0.54724025523E+02  0.44851048580E+02  0.18757855349E+03  0.17300000000E+03 0. -1.
         -6    1    1    2    0  503 -0.15823343528E+02  0.54724025523E+02  0.30942253721E+03  0.35904930539E+03  0.17300000000E+03 0. -1.
<mgrwt>
<rscale>  2 0.18213758E+03</rscale>
<asrwt>0</asrwt>
<pdfrwt beam="1">  1       21 0.69300110E-01 0.18213758E+03</pdfrwt>
<pdfrwt beam="2">  1       21 0.14796483E-01 0.18213758E+03</pdfrwt>
<totfact> 0.76522126E+04</totfact>
</mgrwt>
</event>
<event>
 4    3  0.4041078E+000  0.2138783E+03  0.7546771E-02  0.1138531E+00
         21   -1    0    0  501  502  0.00000000000E+00  0.00000000000E+00  0.60427749829E+03  0.60427749829E+03  0.00000000000E+00 0.  1.
         21   -1    0    0  502  503 -0.00000000000E+00 -0.00000000000E+00 -0.34039337372E+03  0.34039337372E+03  0.00000000000E+00 0.  1.
          6    1    1    2  501    0  0.85605825801E+02 -0.92122533402E+02  0.54845774956E+03  0.58868482368E+03  0.17300000000E+03 0.  1.
         -6    1    1    2    0  503 -0.85605825801E+02  0.92122533402E+02 -0.28457362499E+03  0.35598604834E+03  0.17300000000E+03 0.  1.
<mgrwt>
<rscale>  2 0.21387828E+03</rscale>
<asrwt>0</asrwt>
<pdfrwt beam="1">  1       21 0.92965769E-01 0.21387828E+03</pdfrwt>
<pdfrwt beam="2">  1       21 0.52368211E-01 0.21387828E+03</pdfrwt>
<totfact> 0.33120162E+03</totfact>
</mgrwt>
</event>
<event>
 4    3  0.4041078E+000  0.2442707E+03  0.7546771E-02  0.1116980E+00
         21   -1    0    0  503  502  0.00000000000E+00  0.00000000000E+00  0.76190226337E+02  0.76190226337E+02  0.00000000000E+00 0.  1.
         21   -1    0    0  501  503 -0.00000000000E+00 -0.00000000000E+00 -0.12776890769E+04  0.12776890769E+04  0.00000000000E+00 0. -1.
          6    1    1    2  501    0 -0.12077189974E+03  0.12309873771E+03 -0.17959733085E+03  0.30318864134E+03  0.17300000000E+03 0.  1.
         -6    1    1    2    0  502  0.12077189974E+03 -0.12309873771E+03 -0.10219015197E+04  0.10506906619E+04  0.17300000000E+03 0.  1.
<mgrwt>
<rscale>  2 0.24427065E+03</rscale>
<asrwt>0</asrwt>
<pdfrwt beam="1">  1       21 0.11721573E-01 0.24427065E+03</pdfrwt>
<pdfrwt beam="2">  1       21 0.19656755E+00 0.24427065E+03</pdfrwt>
<totfact> 0.83051862E+03</totfact>
</mgrwt>
</event>
<event>
 4    3  0.4041078E+000  0.2479228E+03  0.7546771E-02  0.1114625E+00
         21   -1    0    0  503  502  0.00000000000E+00  0.00000000000E+00  0.43327729412E+03  0.43327729412E+03  0.00000000000E+00 0. -1.
         21   -1    0    0  501  503 -0.00000000000E+00 -0.00000000000E+00 -0.32554497142E+03  0.32554497142E+03  0.00000000000E+00 0.  1.
          6    1    1    2  501    0 -0.99573261959E+02 -0.14704376810E+03 -0.23112979164E+03  0.33894938386E+03  0.17300000000E+03 0.  1.
         -6    1    1    2    0  502  0.99573261959E+02  0.14704376810E+03  0.33886211434E+03  0.41987288168E+03  0.17300000000E+03 0. -1.
<mgrwt>
<rscale>  2 0.24792278E+03</rscale>
<asrwt>0</asrwt>
<pdfrwt beam="1">  1       21 0.66658045E-01 0.24792278E+03</pdfrwt>
<pdfrwt beam="2">  1       21 0.50083842E-01 0.24792278E+03</pdfrwt>
<totfact> 0.75535451E+03</totfact>
</mgrwt>
</event>
<event>
 4    3  0.4041078E+000  0.2603003E+03  0.7546771E-02  0.1106963E+00
         21   -1    0    0  503  502  0.00000000000E+00  0.00000000000E+00  0.16795154379E+03  0.16795154379E+03  0.00000000000E+00 0. -1.
         21   -1    0    0  501  503 -0.00000000000E+00 -0.00000000000E+00 -0.46698425040E+03  0.46698425040E+03  0.00000000000E+00 0.  1.
          6    1    1    2  501    0  0.12168549218E+03 -0.15172306144E+03 -0.26663607993E+03  0.37262722056E+03  0.17300000000E+03 0. -1.
         -6    1    1    2    0  502 -0.12168549218E+03  0.15172306144E+03 -0.32396626678E+02  0.26230857363E+03  0.17300000000E+03 0.  1.
<mgrwt>
<rscale>  2 0.26030030E+03</rscale>
<asrwt>0</asrwt>
<pdfrwt beam="1">  1       21 0.25838700E-01 0.26030030E+03</pdfrwt>
<pdfrwt beam="2">  1       21 0.71843729E-01 0.26030030E+03</pdfrwt>
<totfact> 0.24020826E+04</totfact>
</mgrwt>
</event>
<event>
 4    3  0.4041078E+000  0.2946074E+03  0.7546771E-02  0.1087968E+00
         21   -1    0    0  501  502  0.00000000000E+00  0.00000000000E+00  0.18356117251E+03  0.18356117251E+03  0.00000000000E+00 0. -1.
         21   -1    0    0  502  503 -0.00000000000E+00 -0.00000000000E+00 -0.50818505038E+03  0.50818505038E+03  0.00000000000E+00 0.  1.
          6    1    1    2  501    0 -0.23193162386E+03 -0.55427577933E+02 -0.71085082474E+02  0.30306201262E+03  0.17300000000E+03 0. -1.
         -6    1    1    2    0  503  0.23193162386E+03  0.55427577933E+02 -0.25353879540E+03  0.38868421027E+03  0.17300000000E+03 0.  1.
<mgrwt>
<rscale>  2 0.29460736E+03</rscale>
<asrwt>0</asrwt>
<pdfrwt beam="1">  1       21 0.28240181E-01 0.29460736E+03</pdfrwt>
<pdfrwt beam="2">  1       21 0.78182314E-01 0.29460736E+03</pdfrwt>
<totfact> 0.16457220E+04</totfact>
</mgrwt>
</event>
<event>
 4    3  0.4041078E+000  0.2437392E+03  0.7546771E-02  0.1117327E+00
         21   -1    0    0  503  502  0.00000000000E+00  0.00000000000E+00  0.17579779997E+03  0.17579779997E+03  0.00000000000E+00 0.  1.
         21   -1    0    0  501  503 -0.00000000000E+00 -0.00000000000E+00 -0.37703295698E+03  0.37703295698E+03  0.00000000000E+00 0.  1.
          6    1    1    2  501    0  0.76738988944E+02  0.15359336806E+03 -0.18962612457E+03  0.30881525586E+03  0.17300000000E+03 0.  1.
         -6    1    1    2    0  502 -0.76738988944E+02 -0.15359336806E+03 -0.11609032434E+02  0.24401550108E+03  0.17300000000E+03 0.  1.
<mgrwt>
<rscale>  2 0.24373919E+03</rscale>
<asrwt>0</asrwt>
<pdfrwt beam="1">  1       21 0.27045816E-01 0.24373919E+03</pdfrwt>
<pdfrwt beam="2">  1       21 0.58005070E-01 0.24373919E+03</pdfrwt>
<totfact> 0.35391578E+04</totfact>
</mgrwt>
</event>
<event>
 4    3  0.4041078E+000  0.2001086E+03  0.7546771E-02  0.1149647E+00
         21   -1    0    0  501  502  0.00000000000E+00  0.00000000000E+00  0.54165554522E+03  0.54165554522E+03  0.00000000000E+00 0.  1.
         21   -1    0    0  502  503 -0.00000000000E+00 -0.00000000000E+00 -0.80030674534E+02  0.80030674534E+02  0.00000000000E+00 0.  1.
          6    1    1    2  501    0  0.81507732737E+02 -0.58914568512E+02  0.31665011904E+03  0.37458074533E+03  0.17300000000E+03 0.  1.
         -6    1    1    2    0  503 -0.81507732737E+02  0.58914568512E+02  0.14497475165E+03  0.24710547443E+03  0.17300000000E+03 0.  1.
<mgrwt>
<rscale>  2 0.20010856E+03</rscale>
<asrwt>0</asrwt>
<pdfrwt beam="1">  1       21 0.83331620E-01 0.20010856E+03</pdfrwt>
<pdfrwt beam="2">  1       21 0.12312412E-01 0.20010856E+03</pdfrwt>
<totfact> 0.70020488E+04</totfact>
</mgrwt>
</event>
<event>
 4    3  0.4041078E+000  0.2036855E+03  0.7546771E-02  0.1146666E+00
         21   -1    0    0  503  502  0.00000000000E+00  0.00000000000E+00  0.85680681727E+03  0.85680681727E+03  0.00000000000E+00 0. -1.
         21   -1    0    0  501  503 -0.00000000000E+00 -0.00000000000E+00 -0.50804257629E+02  0.50804257629E+02  0.00000000000E+00 0. -1.
          6    1    1    2  501    0 -0.27156476336E+02  0.10402550487E+03  0.50128224102E+03  0.54108378744E+03  0.17300000000E+03 0. -1.
         -6    1    1    2    0  502  0.27156476336E+02 -0.10402550487E+03  0.30472031862E+03  0.36652728745E+03  0.17300000000E+03 0. -1.
<mgrwt>
<rscale>  2 0.20368549E+03</rscale>
<asrwt>0</asrwt>
<pdfrwt beam="1">  1       21 0.13181642E+00 0.20368549E+03</pdfrwt>
<pdfrwt beam="2">  1       21 0.78160403E-02 0.20368549E+03</pdfrwt>
<totfact> 0.51842541E+04</totfact>
</mgrwt>
</event>
<event>
 4    3  0.4041078E+000  0.2409608E+03  0.7546771E-02  0.1119154E+00
         21   -1    0    0  501  502  0.00000000000E+00  0.00000000000E+00  0.60369763289E+03  0.60369763289E+03  0.00000000000E+00 0.  1.
         21   -1    0    0  502  503 -0.00000000000E+00 -0.00000000000E+00 -0.26528919908E+03  0.26528919908E+03  0.00000000000E+00 0. -1.
          6    1    1    2  501    0 -0.13283689549E+03  0.10240828261E+03  0.51610901762E+03  0.56958811014E+03  0.17300000000E+03 0.  1.
         -6    1    1    2    0  503  0.13283689549E+03 -0.10240828261E+03 -0.17770058380E+03  0.29939872183E+03  0.17300000000E+03 0. -1.
<mgrwt>
<rscale>  2 0.24096078E+03</rscale>
<asrwt>0</asrwt>
<pdfrwt beam="1">  1       21 0.92876558E-01 0.24096078E+03</pdfrwt>
<pdfrwt beam="2">  1       21 0.40813723E-01 0.24096078E+03</pdfrwt>
<totfact> 0.54558120E+03</totfact>
</mgrwt>
</event>
<event>
 4    3  0.4041078E+000  0.1857302E+03  0.7546771E-02  0.1162370E+00
         21   -1    0    0  503  502  0.00000000000E+00  0.00000000000E+00  0.14415396789E+02  0.14415396789E+02  0.00000000000E+00 0. -1.
         21   -1    0    0  501  503 -0.00000000000E+00 -0.00000000000E+00 -0.26223066588E+04  0.26223066588E+04  0.00000000000E+00 0. -1.
          6    1    1    2  501    0  0.66949004445E+02  0.91951054095E+01 -0.91407338247E+03  0.93275177175E+03  0.17300000000E+03 0. -1.
         -6    1    1    2    0  502 -0.66949004445E+02 -0.91951054095E+01 -0.16938178796E+04  0.17039702839E+04  0.17300000000E+03 0. -1.
<mgrwt>
<rscale>  2 0.18573023E+03</rscale>
<asrwt>0</asrwt>
<pdfrwt beam="1">  1       21 0.22177515E-02 0.18573023E+03</pdfrwt>
<pdfrwt beam="2">  1       21 0.40343214E+00 0.18573023E+03</pdfrwt>
<totfact> 0.87051102E+03</totfact>
</mgrwt>
</event>
<event>
 4    3  0.4041078E+000  0.2039838E+03  0.7546771E-02  0.1146421E+00
         21   -1    0    0  501  502  0.00000000000E+00  0.00000000000E+00  0.82722777292E+03  0.82722777292E+03  0.00000000000E+00 0.  1.
         21   -1    0    0  502  503 -0.00000000000E+00 -0.00000000000E+00 -0.79578387238E+02  0.79578387238E+02  0.00000000000E+00 0. -1.
          6    1    1    2  501    0  0.80032547990E+01 -0.10777909310E+03  0.64884326094E+03  0.68015216111E+03  0.17300000000E+03 0.  1.
         -6    1    1    2    0  503 -0.80032547990E+01  0.10777909310E+03  0.98806124738E+02  0.22665399904E+03  0.17300000000E+03 0. -1.
<mgrwt>
<rscale>  2 0.20398379E+03</rscale>
<asrwt>0</asrwt>
<pdfrwt beam="1">  1       21 0.12726581E+00 0.20398379E+03</pdfrwt>
<pdfrwt beam="2">  1       21 0.12242829E-01 0.20398379E+03</pdfrwt>
<totfact> 0.25637511E+04</totfact>
</mgrwt>
</event>
<event>
 4    3  0.4041078E+000  0.2740784E+03  0.7546771E-02  0.1098968E+00
         21   -1    0    0  501  502  0.00000000000E+00  0.00000000000E+00  0.25142712528E+03  0.25142712528E+03  0.00000000000E+00 0. -1.
         21   -1    0    0  502  503 -0.00000000000E+00 -0.00000000000E+00 -0.43843345230E+03  0.43843345230E+03  0.00000000000E+00 0.  1.
          6    1    1    2  501    0  0.14653829656E+03  0.15400167984E+03  0.10117633191E+03  0.29215687548E+03  0.17300000000E+03 0. -1.
         -6    1    1    2    0  503 -0.14653829656E+03 -0.15400167984E+03 -0.28818265893E+03  0.39770370210E+03  0.17300000000E+03 0.  1.
<mgrwt>
<rscale>  2 0.27407844E+03</rscale>
<asrwt>0</asrwt>
<pdfrwt beam="1">  1       21 0.38681096E-01 0.27407844E+03</pdfrwt>
<pdfrwt beam="2">  1       21 0.67451300E-01 0.27407844E+03</pdfrwt>
<totfact> 0.12366675E+04</totfact>
</mgrwt>
</event>
<event>
 4    3  0.4041078E+000  0.3248568E+03  0.7546771E-02  0.1073436E+00
         21   -1    0    0  501  502  0.00000000000E+00  0.00000000000E+00  0.47882999742E+03  0.47882999742E+03  0.00000000000E+00 0. -1.
         21   -1    0    0  502  503 -0.00000000000E+00 -0.00000000000E+00 -0.23459022643E+03  0.23459022643E+03  0.00000000000E+00 0.  1.
          6    1    1    2  501    0  0.17465359768E+03 -0.21236533538E+03  0.20986560766E+03  0.38674990386E+03  0.17300000000E+03 0. -1.
         -6    1    1    2    0  503 -0.17465359768E+03  0.21236533538E+03  0.34374163331E+02  0.32667031999E+03  0.17300000000E+03 0.  1.
<mgrwt>
<rscale>  2 0.32485676E+03</rscale>
<asrwt>0</asrwt>
<pdfrwt beam="1">  1       21 0.73666153E-01 0.32485676E+03</pdfrwt>
<pdfrwt beam="2">  1       21 0.36090804E-01 0.32485676E+03</pdfrwt>
<totfact> 0.11426701E+04</totfact>
</mgrwt>
</event>
<event>
 4    3  0.4041078E+000  0.2120750E+03  0.7546771E-02  0.1139933E+00
         21   -1    0    0  503  502  0.00000000000E+00  0.00000000000E+00  0.22431402696E+03  0.22431402696E+03  0.00000000000E+00 0. -1.
         21   -1    0    0  501  503 -0.00000000000E+00 -0.00000000000E+00 -0.55330643874E+03  0.55330643874E+03  0.00000000000E+00 0. -1.
          6    1    1    2  501    0 -0.84928148854E+02 -0.88509952596E+02 -0.47496701344E+03  0.52016292259E+03  0.17300000000E+03 0. -1.
         -6    1    1    2    0  502  0.84928148854E+02  0.88509952596E+02  0.14597460166E+03  0.25745754311E+03  0.17300000000E+03 0. -1.
<mgrwt>
<rscale>  2 0.21207499E+03</rscale>
<asrwt>0</asrwt>
<pdfrwt beam="1">  1       21 0.34509851E-01 0.21207499E+03</pdfrwt>
<pdfrwt beam="2">  1       21 0.85124065E-01 0.21207499E+03</pdfrwt>
<totfact> 0.95359039E+03</totfact>
</mgrwt>
</event>
<event>
 4    3  0.4041078E+000  0.3357664E+03  0.7546771E-02  0.1068614E+00
         21   -1    0    0  503  502  0.00000000000E+00  0.00000000000E+00  0.11112549914E+04  0.11112549914E+04  0.00000000000E+00 0.  1.
         21   -1    0    0  501  503 -0.00000000000E+00 -0.00000000000E+00 -0.12038264599E+03  0.12038264599E+03  0.00000000000E+00 0. -1.
          6    1    1    2  501    0  0.28354806085E+03 -0.49097741261E+02  0.25123192223E+03  0.41935256021E+03  0.17300000000E+03 0.  1.
         -6    1    1    2    0  502 -0.28354806085E+03  0.49097741261E+02  0.73964042321E+03  0.81228507721E+03  0.17300000000E+03 0.  1.
<mgrwt>
<rscale>  2 0.33576642E+03</rscale>
<asrwt>0</asrwt>
<pdfrwt beam="1">  1       21 0.17096230E+00 0.33576642E+03</pdfrwt>
<pdfrwt beam="2">  1       21 0.18520408E-01 0.33576642E+03</pdfrwt>
<totfact> 0.50901828E+03</totfact>
</mgrwt>
</event>
<event>
 4    3  0.4041078E+000  0.1917040E+03  0.7546771E-02  0.1156933E+00
         21   -1    0    0  501  502  0.00000000000E+00  0.00000000000E+00  0.35280926843E+02  0.35280926843E+02  0.00000000000E+00 0. -1.
         21   -1    0    0  502  503 -0.00000000000E+00 -0.00000000000E+00 -0.11905880050E+04  0.11905880050E+04  0.00000000000E+00 0. -1.
          6    1    1    2  501    0 -0.65052555771E+01  0.82335302147E+02 -0.36086601498E+03  0.40862537990E+03  0.17300000000E+03 0. -1.
         -6    1    1    2    0  503  0.65052555771E+01 -0.82335302147E+02 -0.79444106314E+03  0.81724355191E+03  0.17300000000E+03 0. -1.
<mgrwt>
<rscale>  2 0.19170399E+03</rscale>
<asrwt>0</asrwt>
<pdfrwt beam="1">  1       21 0.54278358E-02 0.19170399E+03</pdfrwt>
<pdfrwt beam="2">  1       21 0.18316736E+00 0.19170399E+03</pdfrwt>
<totfact> 0.40547846E+04</totfact>
</mgrwt>
</event>
<event>
 4    3  0.4041078E+000  0.1751606E+03  0.7546771E-02  0.1172571E+00
         21   -1    0    0  501  502  0.00000000000E+00  0.00000000000E+00  0.19407867137E+03  0.19407867137E+03  0.00000000000E+00 0. -1.
         21   -1    0    0  502  503 -0.00000000000E+00 -0.00000000000E+00 -0.23296622264E+03  0.23296622264E+03  0.00000000000E+00 0. -1.
          6    1    1    2  501    0 -0.25933990531E+02  0.89251109187E+01 -0.14049773517E+03  0.22454585959E+03  0.17300000000E+03 0. -1.
         -6    1    1    2    0  503  0.25933990531E+02 -0.89251109187E+01  0.10161018390E+03  0.20249903442E+03  0.17300000000E+03 0. -1.
<mgrwt>
<rscale>  2 0.17516058E+03</rscale>
<asrwt>0</asrwt>
<pdfrwt beam="1">  1       21 0.29858257E-01 0.17516058E+03</pdfrwt>
<pdfrwt beam="2">  1       21 0.35840957E-01 0.17516058E+03</pdfrwt>
<totfact> 0.81310990E+04</totfact>
</mgrwt>
</event>
<event>
 4    3  0.4041078E+000  0.1744047E+03  0.7546771E-02  0.1173331E+00
         21   -1    0    0  503  502  0.00000000000E+00  0.00000000000E+00  0.13784883624E+04  0.13784883624E+04  0.00000000000E+00 0.  1.
         21   -1    0    0  501  503 -0.00000000000E+00 -0.00000000000E+00 -0.23761317864E+02  0.23761317864E+02  0.00000000000E+00 0.  1.
          6    1    1    2  501    0 -0.21443593925E+02 -0.53070830213E+01  0.49005669545E+03  0.52016589431E+03  0.17300000000E+03 0.  1.
         -6    1    1    2    0  502  0.21443593925E+02  0.53070830213E+01  0.86467034908E+03  0.88208378594E+03  0.17300000000E+03 0.  1.
<mgrwt>
<rscale>  2 0.17440468E+03</rscale>
<asrwt>0</asrwt>
<pdfrwt beam="1">  1       21 0.21207507E+00 0.17440468E+03</pdfrwt>
<pdfrwt beam="2">  1       21 0.36555884E-02 0.17440468E+03</pdfrwt>
<totfact> 0.51957466E+04</totfact>
</mgrwt>
</event>
<event>
 4    3  0.4041078E+000  0.1753780E+03  0.7546771E-02  0.1172353E+00
         21   -1    0    0  503  502  0.00000000000E+00  0.00000000000E+00  0.13218353229E+04  0.13218353229E+04  0.00000000000E+00 0. -1.
         21   -1    0    0  501  503 -0.00000000000E+00 -0.00000000000E+00 -0.24379471930E+02  0.24379471930E+02  0.00000000000E+00 0. -1.
          6    1    1    2  501    0  0.26637920222E+02 -0.10902886786E+02  0.50505482245E+03  0.53463803215E+03  0.17300000000E+03 0. -1.
         -6    1    1    2    0  502 -0.26637920222E+02  0.10902886786E+02  0.79240102852E+03  0.81157676269E+03  0.17300000000E+03 0. -1.
<mgrwt>
<rscale>  2 0.17537803E+03</rscale>
<asrwt>0</asrwt>
<pdfrwt beam="1">  1       21 0.20335922E+00 0.17537803E+03</pdfrwt>
<pdfrwt beam="2">  1       21 0.37506890E-02 0.17537803E+03</pdfrwt>
<totfact> 0.56410560E+04</totfact>
</mgrwt>
</event>
<event>
 4    3  0.4041078E+000  0.1821184E+03  0.7546771E-02  0.1165768E+00
         21   -1    0    0  503  502  0.00000000000E+00  0.00000000000E+00  0.70820047599E+02  0.70820047599E+02  0.00000000000E+00 0.  1.
         21   -1    0    0  501  503 -0.00000000000E+00 -0.00000000000E+00 -0.47923406246E+03  0.47923406246E+03  0.00000000000E+00 0. -1.
          6    1    1    2  501    0 -0.56390642117E+02  0.76299125168E+01 -0.24569333288E+03  0.30583056405E+03  0.17300000000E+03 0. -1.
         -6    1    1    2    0  502  0.56390642117E+02 -0.76299125168E+01 -0.16272068198E+03  0.24422354602E+03  0.17300000000E+03 0.  1.
<mgrwt>
<rscale>  2 0.18211842E+03</rscale>
<asrwt>0</asrwt>
<pdfrwt beam="1">  1       21 0.10895392E-01 0.18211842E+03</pdfrwt>
<pdfrwt beam="2">  1       21 0.73728320E-01 0.18211842E+03</pdfrwt>
<totfact> 0.11558588E+05</totfact>
</mgrwt>
</event>
<event>
 4    3  0.4041078E+000  0.2246710E+03  0.7546771E-02  0.1130448E+00
         21   -1    0    0  503  502  0.00000000000E+00  0.00000000000E+00  0.83418299381E+02  0.83418299381E+02  0.00000000000E+00 0. -1.
         21   -1    0    0  501  503 -0.00000000000E+00 -0.00000000000E+00 -0.78895709677E+03  0.78895709677E+03  0.00000000000E+00 0.  1.
          6    1    1    2  501    0 -0.11736743627E+03  0.82297842609E+02 -0.56333038137E+03  0.60648014689E+03  0.17300000000E+03 0. -1.
         -6    1    1    2    0  502  0.11736743627E+03 -0.82297842609E+02 -0.14220841602E+03  0.26589524927E+03  0.17300000000E+03 0. -1.
<mgrwt>
<rscale>  2 0.22467098E+03</rscale>
<asrwt>0</asrwt>
<pdfrwt beam="1">  1       21 0.12833585E-01 0.22467098E+03</pdfrwt>
<pdfrwt beam="2">  1       21 0.12137801E+00 0.22467098E+03</pdfrwt>
<totfact> 0.26210542E+04</totfact>
</mgrwt>
</event>
<event>
 4    3  0.4041078E+000  0.1902155E+03  0.7546771E-02  0.1158267E+00
         21   -1    0    0  501  502  0.00000000000E+00  0.00000000000E+00  0.26947457856E+03  0.26947457856E+03  0.00000000000E+00 0. -1.
         21   -1    0    0  502  503 -0.00000000000E+00 -0.00000000000E+00 -0.17538185949E+03  0.17538185949E+03  0.00000000000E+00 0. -1.
          6    1    1    2  501    0  0.51699510917E+02  0.59833984448E+02  0.15473975691E+03  0.24520672399E+03  0.17300000000E+03 0. -1.
         -6    1    1    2    0  503 -0.51699510917E+02 -0.59833984448E+02 -0.60647037833E+02  0.19964971405E+03  0.17300000000E+03 0. -1.
<mgrwt>
<rscale>  2 0.19021552E+03</rscale>
<asrwt>0</asrwt>
<pdfrwt beam="1">  1       21 0.41457627E-01 0.19021552E+03</pdfrwt>
<pdfrwt beam="2">  1       21 0.26981825E-01 0.19021552E+03</pdfrwt>
<totfact> 0.73389188E+04</totfact>
</mgrwt>
</event>
<event>
 4    3  0.4041078E+000  0.2232642E+03  0.7546771E-02  0.1131473E+00
         21   -1    0    0  503  502  0.00000000000E+00  0.00000000000E+00  0.54450347884E+03  0.54450347884E+03  0.00000000000E+00 0. -1.
         21   -1    0    0  501  503 -0.00000000000E+00 -0.00000000000E+00 -0.11844423849E+03  0.11844423849E+03  0.00000000000E+00 0.  1.
          6    1    1    2  501    0 -0.11879658747E+03  0.76192438815E+02  0.37099327646E+03  0.43299298852E+03  0.17300000000E+03 0. -1.
         -6    1    1    2    0  502  0.11879658747E+03 -0.76192438815E+02  0.55065963895E+02  0.22995472882E+03  0.17300000000E+03 0. -1.
<mgrwt>
<rscale>  2 0.22326423E+03</rscale>
<asrwt>0</asrwt>
<pdfrwt beam="1">  1       21 0.83769764E-01 0.22326423E+03</pdfrwt>
<pdfrwt beam="2">  1       21 0.18222191E-01 0.22326423E+03</pdfrwt>
<totfact> 0.33453983E+04</totfact>
</mgrwt>
</event>
<event>
 4    3  0.4041078E+000  0.2411348E+03  0.7546771E-02  0.1119039E+00
         21   -1    0    0  503  502  0.00000000000E+00  0.00000000000E+00  0.44973545123E+02  0.44973545123E+02  0.00000000000E+00 0. -1.
         21   -1    0    0  501  503 -0.00000000000E+00 -0.00000000000E+00 -0.13853455549E+04  0.13853455549E+04  0.00000000000E+00 0.  1.
          6    1    1    2  501    0 -0.91512670175E+02 -0.14086319189E+03 -0.85493495863E+03  0.88829037545E+03  0.17300000000E+03 0.  1.
         -6    1    1    2    0  502  0.91512670175E+02  0.14086319189E+03 -0.48543705113E+03  0.54202872456E+03  0.17300000000E+03 0.  1.
<mgrwt>
<rscale>  2 0.24113483E+03</rscale>
<asrwt>0</asrwt>
<pdfrwt beam="1">  1       21 0.69190073E-02 0.24113483E+03</pdfrwt>
<pdfrwt beam="2">  1       21 0.21313007E+00 0.24113483E+03</pdfrwt>
<totfact> 0.16513949E+04</totfact>
</mgrwt>
</event>
<event>
 4    3  0.4041078E+000  0.1750682E+03  0.7546771E-02  0.1172663E+00
         21   -1    0    0  501  502  0.00000000000E+00  0.00000000000E+00  0.90005610138E+02  0.90005610138E+02  0.00000000000E+00 0. -1.
         21   -1    0    0  502  503 -0.00000000000E+00 -0.00000000000E+00 -0.86617915310E+03  0.86617915310E+03  0.00000000000E+00 0. -1.
          6    1    1    2  501    0 -0.94567772157E+01  0.25108532008E+02 -0.15644173767E+02  0.17576577934E+03  0.17300000000E+03 0. -1.
         -6    1    1    2    0  503  0.94567772157E+01 -0.25108532008E+02 -0.76052936919E+03  0.78041898389E+03  0.17300000000E+03 0. -1.
<mgrwt>
<rscale>  2 0.17506818E+03</rscale>
<asrwt>0</asrwt>
<pdfrwt beam="1">  1       21 0.13847016E-01 0.17506818E+03</pdfrwt>
<pdfrwt beam="2">  1       21 0.13325834E+00 0.17506818E+03</pdfrwt>
<totfact> 0.18633994E+04</totfact>
</mgrwt>
</event>
<event>
 4    3  0.4041078E+000  0.3127989E+03  0.7546771E-02  0.1079012E+00
         21   -1    0    0  501  502  0.00000000000E+00  0.00000000000E+00  0.34794091655E+03  0.34794091655E+03  0.00000000000E+00 0.  1.
         21   -1    0    0  502  503 -0.00000000000E+00 -0.00000000000E+00 -0.31719312618E+03  0.31719312618E+03  0.00000000000E+00 0. -1.
          6    1    1    2  501    0 -0.21346088951E+03  0.14949443364E+03 -0.96644610865E+02  0.32738863427E+03  0.17300000000E+03 0.  1.
         -6    1    1    2    0  503  0.21346088951E+03 -0.14949443364E+03  0.12739240124E+03  0.33774540846E+03  0.17300000000E+03 0.  1.
<mgrwt>
<rscale>  2 0.31279888E+03</rscale>
<asrwt>0</asrwt>
<pdfrwt beam="1">  1       21 0.53529372E-01 0.31279888E+03</pdfrwt>
<pdfrwt beam="2">  1       21 0.48798942E-01 0.31279888E+03</pdfrwt>
<totfact> 0.12426008E+04</totfact>
</mgrwt>
</event>
<event>
 4    3  0.4041078E+000  0.3553687E+03  0.7546771E-02  0.1060433E+00
         21   -1    0    0  501  502  0.00000000000E+00  0.00000000000E+00  0.37238548102E+03  0.37238548102E+03  0.00000000000E+00 0.  1.
         21   -1    0    0  502  503 -0.00000000000E+00 -0.00000000000E+00 -0.33923605466E+03  0.33923605466E+03  0.00000000000E+00 0.  1.
          6    1    1    2  501    0 -0.31012182972E+03 -0.13504792960E+02  0.10270831493E+02  0.35551711447E+03  0.17300000000E+03 0.  1.
         -6    1    1    2    0  503  0.31012182972E+03  0.13504792960E+02  0.22878594872E+02  0.35610442121E+03  0.17300000000E+03 0.  1.
<mgrwt>
<rscale>  2 0.35536872E+03</rscale>
<asrwt>0</asrwt>
<pdfrwt beam="1">  1       21 0.57290074E-01 0.35536872E+03</pdfrwt>
<pdfrwt beam="2">  1       21 0.52190163E-01 0.35536872E+03</pdfrwt>
<totfact> 0.91605387E+03</totfact>
</mgrwt>
</event>
<event>
 4    3  0.4041078E+000  0.2900772E+03  0.7546771E-02  0.1090309E+00
         21   -1    0    0  501  502  0.00000000000E+00  0.00000000000E+00  0.15757460713E+03  0.15757460713E+03  0.00000000000E+00 0.  1.
         21   -1    0    0  502  503 -0.00000000000E+00 -0.00000000000E+00 -0.65677112917E+03  0.65677112917E+03  0.00000000000E+00 0. -1.
          6    1    1    2  501    0 -0.88568871897E+01 -0.23267428297E+03 -0.73554451505E+02  0.29925745394E+03  0.17300000000E+03 0.  1.
         -6    1    1    2    0  503  0.88568871897E+01  0.23267428297E+03 -0.42564207054E+03  0.51508828236E+03  0.17300000000E+03 0. -1.
<mgrwt>
<rscale>  2 0.29007717E+03</rscale>
<asrwt>0</asrwt>
<pdfrwt beam="1">  1       21 0.24242247E-01 0.29007717E+03</pdfrwt>
<pdfrwt beam="2">  1       21 0.10104171E+00 0.29007717E+03</pdfrwt>
<totfact> 0.12171520E+04</totfact>
</mgrwt>
</event>
<event>
 4    3  0.4041078E+000  0.1903356E+03  0.7546771E-02  0.1158159E+00
         21   -1    0    0  503  502  0.00000000000E+00  0.00000000000E+00  0.16894367927E+04  0.16894367927E+04  0.00000000000E+00 0.  1.
         21   -1    0    0  501  503 -0.00000000000E+00 -0.00000000000E+00 -0.34700475848E+02  0.34700475848E+02  0.00000000000E+00 0.  1.
          6    1    1    2  501    0 -0.57631715789E+02 -0.54564108739E+02  0.29453132307E+03  0.35067984957E+03  0.17300000000E+03 0.  1.
         -6    1    1    2    0  502  0.57631715789E+02  0.54564108739E+02  0.13602049938E+04  0.13734574189E+04  0.17300000000E+03 0.  1.
<mgrwt>
<rscale>  2 0.19033564E+03</rscale>
<asrwt>0</asrwt>
<pdfrwt beam="1">  1       21 0.25991329E+00 0.19033564E+03</pdfrwt>
<pdfrwt beam="2">  1       21 0.53385361E-02 0.19033564E+03</pdfrwt>
<totfact> 0.14031798E+04</totfact>
</mgrwt>
</event>
<event>
 4    3  0.4041078E+000  0.3726276E+03  0.7546771E-02  0.1053693E+00
         21   -1    0    0  503  502  0.00000000000E+00  0.00000000000E+00  0.10651863322E+04  0.10651863322E+04  0.00000000000E+00 0.  1.
         21   -1    0    0  501  503 -0.00000000000E+00 -0.00000000000E+00 -0.71047486793E+03  0.71047486793E+03  0.00000000000E+00 0. -1.
          6    1    1    2  501    0 -0.41592954859E+02 -0.32740237802E+03 -0.62490400388E+03  0.72756876314E+03  0.17300000000E+03 0. -1.
         -6    1    1    2    0  502  0.41592954859E+02  0.32740237802E+03  0.97961546820E+03  0.10480924370E+04  0.17300000000E+03 0.  1.
<mgrwt>
<rscale>  2 0.37262755E+03</rscale>
<asrwt>0</asrwt>
<pdfrwt beam="1">  1       21 0.16387482E+00 0.37262755E+03</pdfrwt>
<pdfrwt beam="2">  1       21 0.10930383E+00 0.37262755E+03</pdfrwt>
<totfact> 0.13208978E+02</totfact>
</mgrwt>
</event>
<event>
 4    3  0.4041078E+000  0.2001324E+03  0.7546771E-02  0.1149627E+00
         21   -1    0    0  501  502  0.00000000000E+00  0.00000000000E+00  0.76341671868E+03  0.76341671868E+03  0.00000000000E+00 0.  1.
         21   -1    0    0  502  503 -0.00000000000E+00 -0.00000000000E+00 -0.72353091213E+02  0.72353091213E+02  0.00000000000E+00 0. -1.
          6    1    1    2  501    0 -0.45135110282E+02  0.89926719232E+02  0.56462047444E+03  0.59904029344E+03  0.17300000000E+03 0.  1.
         -6    1    1    2    0  503  0.45135110282E+02 -0.89926719232E+02  0.12644315303E+03  0.23672951645E+03  0.17300000000E+03 0. -1.
<mgrwt>
<rscale>  2 0.20013244E+03</rscale>
<asrwt>0</asrwt>
<pdfrwt beam="1">  1       21 0.11744872E+00 0.20013244E+03</pdfrwt>
<pdfrwt beam="2">  1       21 0.11131245E-01 0.20013244E+03</pdfrwt>
<totfact> 0.37208657E+04</totfact>
</mgrwt>
</event>
<event>
 4    3  0.4041078E+000  0.2167671E+03  0.7546771E-02  0.1136316E+00
         21   -1    0    0  503  502  0.00000000000E+00  0.00000000000E+00  0.70098916940E+03  0.70098916940E+03  0.00000000000E+00 0. -1.
         21   -1    0    0  501  503 -0.00000000000E+00 -0.00000000000E+00 -0.69744765800E+02  0.69744765800E+02  0.00000000000E+00 0.  1.
          6    1    1    2  501    0 -0.50347292910E+02  0.12051611418E+03  0.39163860089E+03  0.44762571127E+03  0.17300000000E+03 0.  1.
         -6    1    1    2    0  502  0.50347292910E+02 -0.12051611418E+03  0.23960580271E+03  0.32310822394E+03  0.17300000000E+03 0. -1.
<mgrwt>
<rscale>  2 0.21676712E+03</rscale>
<asrwt>0</asrwt>
<pdfrwt beam="1">  1       21 0.10784448E+00 0.21676712E+03</pdfrwt>
<pdfrwt beam="2">  1       21 0.10729964E-01 0.21676712E+03</pdfrwt>
<totfact> 0.48469308E+04</totfact>
</mgrwt>
</event>
<event>
 4    3  0.4041078E+000  0.1898230E+03  0.7546771E-02  0.1158621E+00
         21   -1    0    0  503  502  0.00000000000E+00  0.00000000000E+00  0.65429849666E+03  0.65429849666E+03  0.00000000000E+00 0. -1.
         21   -1    0    0  501  503 -0.00000000000E+00 -0.00000000000E+00 -0.86263240010E+02  0.86263240010E+02  0.00000000000E+00 0. -1.
          6    1    1    2  501    0  0.66685425918E+02  0.40703994481E+02  0.61357294024E+02  0.19949305433E+03  0.17300000000E+03 0. -1.
         -6    1    1    2    0  502 -0.66685425918E+02 -0.40703994481E+02  0.50667796262E+03  0.54106868234E+03  0.17300000000E+03 0. -1.
<mgrwt>
<rscale>  2 0.18982297E+03</rscale>
<asrwt>0</asrwt>
<pdfrwt beam="1">  1       21 0.10066130E+00 0.18982297E+03</pdfrwt>
<pdfrwt beam="2">  1       21 0.13271268E-01 0.18982297E+03</pdfrwt>
<totfact> 0.39640242E+04</totfact>
</mgrwt>
</event>
<event>
 4    3  0.4041078E+000  0.1783377E+03  0.7546771E-02  0.1169422E+00
         21   -1    0    0  501  502  0.00000000000E+00  0.00000000000E+00  0.18854151250E+04  0.18854151250E+04  0.00000000000E+00 0.  1.
         21   -1    0    0  502  503 -0.00000000000E+00 -0.00000000000E+00 -0.16921286872E+02  0.16921286872E+02  0.00000000000E+00 0. -1.
          6    1    1    2  501    0  0.24432416440E+02 -0.35754630119E+02  0.88117783180E+03  0.89904321798E+03  0.17300000000E+03 0. -1.
         -6    1    1    2    0  503 -0.24432416440E+02  0.35754630119E+02  0.98731600632E+03  0.10032931939E+04  0.17300000000E+03 0.  1.
<mgrwt>
<rscale>  2 0.17833770E+03</rscale>
<asrwt>0</asrwt>
<pdfrwt beam="1">  1       21 0.29006370E+00 0.17833770E+03</pdfrwt>
<pdfrwt beam="2">  1       21 0.26032764E-02 0.17833770E+03</pdfrwt>
<totfact> 0.31562591E+04</totfact>
</mgrwt>
</event>
<event>
 4    3  0.4041078E+000  0.2165997E+03  0.7546771E-02  0.1136444E+00
         21   -1    0    0  503  502  0.00000000000E+00  0.00000000000E+00  0.12898456874E+03  0.12898456874E+03  0.00000000000E+00 0.  1.
         21   -1    0    0  501  503 -0.00000000000E+00 -0.00000000000E+00 -0.44486594470E+03  0.44486594470E+03  0.00000000000E+00 0.  1.
          6    1    1    2  501    0  0.12325165832E+03  0.42372705627E+02 -0.28047670121E+03  0.35437634992E+03  0.17300000000E+03 0.  1.
         -6    1    1    2    0  502 -0.12325165832E+03 -0.42372705627E+02 -0.35404674755E+02  0.21947416352E+03  0.17300000000E+03 0.  1.
<mgrwt>
<rscale>  2 0.21659967E+03</rscale>
<asrwt>0</asrwt>
<pdfrwt beam="1">  1       21 0.19843780E-01 0.21659967E+03</pdfrwt>
<pdfrwt beam="2">  1       21 0.68440915E-01 0.21659967E+03</pdfrwt>
<totfact> 0.45069341E+04</totfact>
</mgrwt>
</event>
<event>
 4    3  0.4041078E+000  0.1890838E+03  0.7546771E-02  0.1159290E+00
         21   -1    0    0  501  502  0.00000000000E+00  0.00000000000E+00  0.38300751941E+03  0.38300751941E+03  0.00000000000E+00 0.  1.
         21   -1    0    0  502  503 -0.00000000000E+00 -0.00000000000E+00 -0.96281726379E+02  0.96281726379E+02  0.00000000000E+00 0. -1.
          6    1    1    2  501    0 -0.58591538071E+02  0.48895047434E+02  0.18520003431E+03  0.26467290512E+03  0.17300000000E+03 0. -1.
         -6    1    1    2    0  503  0.58591538071E+02 -0.48895047434E+02  0.10152575872E+03  0.21461634067E+03  0.17300000000E+03 0. -1.
<mgrwt>
<rscale>  2 0.18908383E+03</rscale>
<asrwt>0</asrwt>
<pdfrwt beam="1">  1       21 0.58924233E-01 0.18908383E+03</pdfrwt>
<pdfrwt beam="2">  1       21 0.14812573E-01 0.18908383E+03</pdfrwt>
<totfact> 0.10825992E+05</totfact>
</mgrwt>
</event>
<event>
 4    3  0.4041078E+000  0.4764113E+03  0.7546771E-02  0.1020126E+00
         21   -1    0    0  501  502  0.00000000000E+00  0.00000000000E+00  0.29899280506E+03  0.29899280506E+03  0.00000000000E+00 0.  1.
         21   -1    0    0  502  503 -0.00000000000E+00 -0.00000000000E+00 -0.76130462969E+03  0.76130462969E+03  0.00000000000E+00 0. -1.
          6    1    1    2  501    0 -0.37465931463E+03 -0.23805281605E+03 -0.25963492987E+03  0.54256616378E+03  0.17300000000E+03 0. -1.
         -6    1    1    2    0  503  0.37465931463E+03  0.23805281605E+03 -0.20267689476E+03  0.51773127097E+03  0.17300000000E+03 0.  1.
<mgrwt>
<rscale>  2 0.47641132E+03</rscale>
<asrwt>0</asrwt>
<pdfrwt beam="1">  1       21 0.45998893E-01 0.47641132E+03</pdfrwt>
<pdfrwt beam="2">  1       21 0.11712379E+00 0.47641132E+03</pdfrwt>
<totfact> 0.21688473E+03</totfact>
</mgrwt>
</event>
<event>
 4    3  0.4041078E+000  0.2068461E+03  0.7546771E-02  0.1144088E+00
         21   -1    0    0  503  502  0.00000000000E+00  0.00000000000E+00  0.73662006405E+03  0.73662006405E+03  0.00000000000E+00 0. -1.
         21   -1    0    0  501  503 -0.00000000000E+00 -0.00000000000E+00 -0.63746442816E+02  0.63746442816E+02  0.00000000000E+00 0. -1.
          6    1    1    2  501    0 -0.10449807444E+03 -0.44005350809E+02  0.21715890988E+03  0.29990550278E+03  0.17300000000E+03 0. -1.
         -6    1    1    2    0  502  0.10449807444E+03  0.44005350809E+02  0.45571471136E+03  0.50046100408E+03  0.17300000000E+03 0. -1.
<mgrwt>
<rscale>  2 0.20684612E+03</rscale>
<asrwt>0</asrwt>
<pdfrwt beam="1">  1       21 0.11332616E+00 0.20684612E+03</pdfrwt>
<pdfrwt beam="2">  1       21 0.98071456E-02 0.20684612E+03</pdfrwt>
<totfact> 0.50649839E+04</totfact>
</mgrwt>
</event>
<event>
 4    3  0.4041078E+000  0.1754592E+03  0.7546771E-02  0.1172271E+00
         21   -1    0    0  501  502  0.00000000000E+00  0.00000000000E+00  0.50806801286E+02  0.50806801286E+02  0.00000000000E+00 0.  1.
         21   -1    0    0  502  503 -0.00000000000E+00 -0.00000000000E+00 -0.64413766066E+03  0.64413766066E+03  0.00000000000E+00 0.  1.
          6    1    1    2  501    0 -0.67833108843E+01 -0.28476912164E+02 -0.21205171032E+03  0.27523058639E+03  0.17300000000E+03 0.  1.
         -6    1    1    2    0  503  0.67833108843E+01  0.28476912164E+02 -0.38127914906E+03  0.41971387556E+03  0.17300000000E+03 0.  1.
<mgrwt>
<rscale>  2 0.17545925E+03</rscale>
<asrwt>0</asrwt>
<pdfrwt beam="1">  1       21 0.78164313E-02 0.17545925E+03</pdfrwt>
<pdfrwt beam="2">  1       21 0.99098097E-01 0.17545925E+03</pdfrwt>
<totfact> 0.10553604E+05</totfact>
</mgrwt>
</event>
<event>
 4    3  0.4041078E+000  0.2511205E+03  0.7546771E-02  0.1112599E+00
         21   -1    0    0  501  502  0.00000000000E+00  0.00000000000E+00  0.49184245037E+03  0.49184245037E+03  0.00000000000E+00 0.  1.
         21   -1    0    0  502  503 -0.00000000000E+00 -0.00000000000E+00 -0.20380449915E+03  0.20380449915E+03  0.00000000000E+00 0.  1.
          6    1    1    2  501    0 -0.10833388095E+03  0.14627469594E+03 -0.67808899437E+02  0.26011451955E+03  0.17300000000E+03 0.  1.
         -6    1    1    2    0  503  0.10833388095E+03 -0.14627469594E+03  0.35584685066E+03  0.43553242998E+03  0.17300000000E+03 0.  1.
<mgrwt>
<rscale>  2 0.25112052E+03</rscale>
<asrwt>0</asrwt>
<pdfrwt beam="1">  1       21 0.75668069E-01 0.25112052E+03</pdfrwt>
<pdfrwt beam="2">  1       21 0.31354538E-01 0.25112052E+03</pdfrwt>
<totfact> 0.14726721E+04</totfact>
</mgrwt>
</event>
<event>
 4    3  0.4041078E+000  0.2510808E+03  0.7546771E-02  0.1112624E+00
         21   -1    0    0  503  502  0.00000000000E+00  0.00000000000E+00  0.41043882203E+03  0.41043882203E+03  0.00000000000E+00 0. -1.
         21   -1    0    0  501  503 -0.00000000000E+00 -0.00000000000E+00 -0.15916920645E+03  0.15916920645E+03  0.00000000000E+00 0. -1.
          6    1    1    2  501    0 -0.12118782870E+03 -0.13574260454E+03  0.72339407826E+02  0.26129396173E+03  0.17300000000E+03 0. -1.
         -6    1    1    2    0  502  0.12118782870E+03  0.13574260454E+03  0.17893020775E+03  0.30831406676E+03  0.17300000000E+03 0. -1.
<mgrwt>
<rscale>  2 0.25108075E+03</rscale>
<asrwt>0</asrwt>
<pdfrwt beam="1">  1       21 0.63144434E-01 0.25108075E+03</pdfrwt>
<pdfrwt beam="2">  1       21 0.24487570E-01 0.25108075E+03</pdfrwt>
<totfact> 0.35551849E+04</totfact>
</mgrwt>
</event>
<event>
 4    3  0.4041078E+000  0.2016001E+03  0.7546771E-02  0.1148396E+00
         21   -1    0    0  503  502  0.00000000000E+00  0.00000000000E+00  0.66381529729E+03  0.66381529729E+03  0.00000000000E+00 0. -1.
         21   -1    0    0  501  503 -0.00000000000E+00 -0.00000000000E+00 -0.65969203057E+02  0.65969203057E+02  0.00000000000E+00 0. -1.
          6    1    1    2  501    0 -0.31880926993E+01  0.10345741506E+03  0.39676847799E+03  0.44504811627E+03  0.17300000000E+03 0. -1.
         -6    1    1    2    0  502  0.31880926993E+01 -0.10345741506E+03  0.20107761624E+03  0.28473638408E+03  0.17300000000E+03 0. -1.
<mgrwt>
<rscale>  2 0.20160010E+03</rscale>
<asrwt>0</asrwt>
<pdfrwt beam="1">  1       21 0.10212543E+00 0.20160010E+03</pdfrwt>
<pdfrwt beam="2">  1       21 0.10149109E-01 0.20160010E+03</pdfrwt>
<totfact> 0.61453738E+04</totfact>
</mgrwt>
</event>
<event>
 4    3  0.4041078E+000  0.2339289E+03  0.7546771E-02  0.1123905E+00
         21   -1    0    0  501  502  0.00000000000E+00  0.00000000000E+00  0.91880613550E+03  0.91880613550E+03  0.00000000000E+00 0. -1.
         21   -1    0    0  502  503 -0.00000000000E+00 -0.00000000000E+00 -0.78118427109E+02  0.78118427109E+02  0.00000000000E+00 0. -1.
          6    1    1    2  501    0  0.15130466840E+03  0.43595950552E+02  0.17737882950E+03  0.29357445179E+03  0.17300000000E+03 0. -1.
         -6    1    1    2    0  503 -0.15130466840E+03 -0.43595950552E+02  0.66330887889E+03  0.70335011082E+03  0.17300000000E+03 0. -1.
<mgrwt>
<rscale>  2 0.23392886E+03</rscale>
<asrwt>0</asrwt>
<pdfrwt beam="1">  1       21 0.14135478E+00 0.23392886E+03</pdfrwt>
<pdfrwt beam="2">  1       21 0.12018220E-01 0.23392886E+03</pdfrwt>
<totfact> 0.19905977E+04</totfact>
</mgrwt>
</event>
<event>
 4    3  0.4041078E+000  0.2523540E+03  0.7546771E-02  0.1111826E+00
         21   -1    0    0  503  502  0.00000000000E+00  0.00000000000E+00  0.37903445816E+02  0.37903445816E+02  0.00000000000E+00 0. -1.
         21   -1    0    0  501  503 -0.00000000000E+00 -0.00000000000E+00 -0.18160555421E+04  0.18160555421E+04  0.00000000000E+00 0.  1.
          6    1    1    2  501    0  0.17959471539E+03  0.38720758747E+02 -0.11426839245E+04  0.11702175482E+04  0.17300000000E+03 0.  1.
         -6    1    1    2    0  502 -0.17959471539E+03 -0.38720758747E+02 -0.63546817187E+03  0.68374143974E+03  0.17300000000E+03 0. -1.
<mgrwt>
<rscale>  2 0.25235403E+03</rscale>
<asrwt>0</asrwt>
<pdfrwt beam="1">  1       21 0.58312982E-02 0.25235403E+03</pdfrwt>
<pdfrwt beam="2">  1       21 0.27939321E+00 0.25235403E+03</pdfrwt>
<totfact> 0.87920905E+03</totfact>
</mgrwt>
</event>
<event>
 4    3  0.4041078E+000  0.2134306E+03  0.7546771E-02  0.1138878E+00
         21   -1    0    0  501  502  0.00000000000E+00  0.00000000000E+00  0.11714819983E+03  0.11714819983E+03  0.00000000000E+00 0.  1.
         21   -1    0    0  502  503 -0.00000000000E+00 -0.00000000000E+00 -0.39629176608E+03  0.39629176608E+03  0.00000000000E+00 0.  1.
          6    1    1    2  501    0 -0.17030886110E+02  0.12382883663E+03 -0.10438325263E+03  0.23758892081E+03  0.17300000000E+03 0.  1.
         -6    1    1    2    0  503  0.17030886110E+02 -0.12382883663E+03 -0.17476031362E+03  0.27585104510E+03  0.17300000000E+03 0.  1.
<mgrwt>
<rscale>  2 0.21343063E+03</rscale>
<asrwt>0</asrwt>
<pdfrwt beam="1">  1       21 0.18022800E-01 0.21343063E+03</pdfrwt>
<pdfrwt beam="2">  1       21 0.60967964E-01 0.21343063E+03</pdfrwt>
<totfact> 0.69478909E+04</totfact>
</mgrwt>
</event>
<event>
 4    3  0.4041078E+000  0.1839499E+03  0.7546771E-02  0.1164034E+00
         21   -1    0    0  501  502  0.00000000000E+00  0.00000000000E+00  0.42623850256E+03  0.42623850256E+03  0.00000000000E+00 0.  1.
         21   -1    0    0  502  503 -0.00000000000E+00 -0.00000000000E+00 -0.99823021404E+02  0.99823021404E+02  0.00000000000E+00 0.  1.
          6    1    1    2  501    0  0.62452672562E+02  0.28679721644E+01  0.28222096074E+03  0.33687717681E+03  0.17300000000E+03 0.  1.
         -6    1    1    2    0  503 -0.62452672562E+02 -0.28679721644E+01  0.44194520422E+02  0.18918434716E+03  0.17300000000E+03 0.  1.
<mgrwt>
<rscale>  2 0.18394989E+03</rscale>
<asrwt>0</asrwt>
<pdfrwt beam="1">  1       21 0.65575153E-01 0.18394989E+03</pdfrwt>
<pdfrwt beam="2">  1       21 0.15357388E-01 0.18394989E+03</pdfrwt>
<totfact> 0.80637894E+04</totfact>
</mgrwt>
</event>
<event>
 4    3  0.4041078E+000  0.2040567E+03  0.7546771E-02  0.1146361E+00
         21   -1    0    0  503  502  0.00000000000E+00  0.00000000000E+00  0.46390440027E+02  0.46390440027E+02  0.00000000000E+00 0.  1.
         21   -1    0    0  501  503 -0.00000000000E+00 -0.00000000000E+00 -0.89936035096E+03  0.89936035096E+03  0.00000000000E+00 0.  1.
          6    1    1    2  501    0 -0.99236509434E+02  0.43154031907E+02 -0.44752125030E+03  0.49184796913E+03  0.17300000000E+03 0. -1.
         -6    1    1    2    0  502  0.99236509434E+02 -0.43154031907E+02 -0.40544866063E+03  0.45390282185E+03  0.17300000000E+03 0. -1.
<mgrwt>
<rscale>  2 0.20405675E+03</rscale>
<asrwt>0</asrwt>
<pdfrwt beam="1">  1       21 0.71369911E-02 0.20405675E+03</pdfrwt>
<pdfrwt beam="2">  1       21 0.13836312E+00 0.20405675E+03</pdfrwt>
<totfact> 0.53623854E+04</totfact>
</mgrwt>
</event>
<event>
 4    3  0.4041078E+000  0.3486675E+03  0.7546771E-02  0.1063163E+00
         21   -1    0    0  503  502  0.00000000000E+00  0.00000000000E+00  0.49172343980E+03  0.49172343980E+03  0.00000000000E+00 0. -1.
         21   -1    0    0  501  503 -0.00000000000E+00 -0.00000000000E+00 -0.28692102377E+03  0.28692102377E+03  0.00000000000E+00 0. -1.
          6    1    1    2  501    0  0.62893321469E+02 -0.29611557880E+03 -0.42399845828E+02  0.35123603577E+03  0.17300000000E+03 0. -1.
         -6    1    1    2    0  502 -0.62893321469E+02  0.29611557880E+03  0.24720226186E+03  0.42740842781E+03  0.17300000000E+03 0. -1.
<mgrwt>
<rscale>  2 0.34866747E+03</rscale>
<asrwt>0</asrwt>
<pdfrwt beam="1">  1       21 0.75649760E-01 0.34866747E+03</pdfrwt>
<pdfrwt beam="2">  1       21 0.44141696E-01 0.34866747E+03</pdfrwt>
<totfact> 0.70564531E+03</totfact>
</mgrwt>
</event>
<event>
 4    3  0.4041078E+000  0.1958465E+03  0.7546771E-02  0.1153291E+00
         21   -1    0    0  501  502  0.00000000000E+00  0.00000000000E+00  0.23124521243E+04  0.23124521243E+04  0.00000000000E+00 0.  1.
         21   -1    0    0  502  503 -0.00000000000E+00 -0.00000000000E+00 -0.16711269335E+02  0.16711269335E+02  0.00000000000E+00 0.  1.
          6    1    1    2  501    0  0.52308745686E+02  0.75436329235E+02  0.10473047100E+04  0.10654590561E+04  0.17300000000E+03 0. -1.
         -6    1    1    2    0  503 -0.52308745686E+02 -0.75436329235E+02  0.12484361450E+04  0.12637043376E+04  0.17300000000E+03 0. -1.
<mgrwt>
<rscale>  2 0.19584648E+03</rscale>
<asrwt>0</asrwt>
<pdfrwt beam="1">  1       21 0.35576161E+00 0.19584648E+03</pdfrwt>
<pdfrwt beam="2">  1       21 0.25709663E-02 0.19584648E+03</pdfrwt>
<totfact> 0.13145319E+04</totfact>
</mgrwt>
</event>
<event>
 4    3  0.4041078E+000  0.2016886E+03  0.7546771E-02  0.1148322E+00
         21   -1    0    0  501  502  0.00000000000E+00  0.00000000000E+00  0.62785810424E+03  0.62785810424E+03  0.00000000000E+00 0.  1.
         21   -1    0    0  502  503 -0.00000000000E+00 -0.00000000000E+00 -0.12283539137E+03  0.12283539137E+03  0.00000000000E+00 0. -1.
          6    1    1    2  501    0 -0.10359472753E+03  0.41756111712E+01  0.51053439532E+03  0.54892956935E+03  0.17300000000E+03 0.  1.
         -6    1    1    2    0  503  0.10359472753E+03 -0.41756111712E+01 -0.55116824466E+01  0.20176392627E+03  0.17300000000E+03 0. -1.
<mgrwt>
<rscale>  2 0.20168863E+03</rscale>
<asrwt>0</asrwt>
<pdfrwt beam="1">  1       21 0.96593553E-01 0.20168863E+03</pdfrwt>
<pdfrwt beam="2">  1       21 0.18897753E-01 0.20168863E+03</pdfrwt>
<totfact> 0.22730955E+04</totfact>
</mgrwt>
</event>
<event>
 4    3  0.4041078E+000  0.2495651E+03  0.7546771E-02  0.1113580E+00
         21   -1    0    0  503  502  0.00000000000E+00  0.00000000000E+00  0.28837800500E+03  0.28837800500E+03  0.00000000000E+00 0.  1.
         21   -1    0    0  501  503 -0.00000000000E+00 -0.00000000000E+00 -0.21778678006E+03  0.21778678006E+03  0.00000000000E+00 0.  1.
          6    1    1    2  501    0  0.15467885540E+03 -0.91805202465E+02  0.58372252781E+02  0.25630072845E+03  0.17300000000E+03 0.  1.
         -6    1    1    2    0  502 -0.15467885540E+03  0.91805202465E+02  0.12218972157E+02  0.24986405662E+03  0.17300000000E+03 0.  1.
<mgrwt>
<rscale>  2 0.24956511E+03</rscale>
<asrwt>0</asrwt>
<pdfrwt beam="1">  1       21 0.44365847E-01 0.24956511E+03</pdfrwt>
<pdfrwt beam="2">  1       21 0.33505658E-01 0.24956511E+03</pdfrwt>
<totfact> 0.40758504E+04</totfact>
</mgrwt>
</event>
<event>
 4    3  0.4041078E+000  0.1831413E+03  0.7546771E-02  0.1164797E+00
         21   -1    0    0  501  502  0.00000000000E+00  0.00000000000E+00  0.79845140710E+02  0.79845140710E+02  0.00000000000E+00 0. -1.
         21   -1    0    0  502  503 -0.00000000000E+00 -0.00000000000E+00 -0.48073921350E+03  0.48073921350E+03  0.00000000000E+00 0. -1.
          6    1    1    2  501    0  0.16090992124E+02 -0.57903373946E+02 -0.10087608588E+03  0.20908540227E+03  0.17300000000E+03 0. -1.
         -6    1    1    2    0  503 -0.16090992124E+02  0.57903373946E+02 -0.30001798691E+03  0.35149895193E+03  0.17300000000E+03 0. -1.
<mgrwt>
<rscale>  2 0.18314126E+03</rscale>
<asrwt>0</asrwt>
<pdfrwt beam="1">  1       21 0.12283868E-01 0.18314126E+03</pdfrwt>
<pdfrwt beam="2">  1       21 0.73959879E-01 0.18314126E+03</pdfrwt>
<totfact> 0.92655177E+04</totfact>
</mgrwt>
</event>
<event>
 4    3  0.4041078E+000  0.2211469E+03  0.7546771E-02  0.1133031E+00
         21   -1    0    0  503  502  0.00000000000E+00  0.00000000000E+00  0.67629654385E+02  0.67629654385E+02  0.00000000000E+00 0. -1.
         21   -1    0    0  501  503 -0.00000000000E+00 -0.00000000000E+00 -0.13215462153E+04  0.13215462153E+04  0.00000000000E+00 0.  1.
          6    1    1    2  501    0  0.13756578716E+03 -0.72539362879E+01 -0.10943518422E+04  0.11164729822E+04  0.17300000000E+03 0.  1.
         -6    1    1    2    0  502 -0.13756578716E+03  0.72539362879E+01 -0.15956471866E+03  0.27270288746E+03  0.17300000000E+03 0. -1.
<mgrwt>
<rscale>  2 0.22114693E+03</rscale>
<asrwt>0</asrwt>
<pdfrwt beam="1">  1       21 0.10404563E-01 0.22114693E+03</pdfrwt>
<pdfrwt beam="2">  1       21 0.20331480E+00 0.22114693E+03</pdfrwt>
<totfact> 0.94501225E+03</totfact>
</mgrwt>
</event>
<event>
 4    3  0.4041078E+000  0.1849720E+03  0.7546771E-02  0.1163076E+00
         21   -1    0    0  501  502  0.00000000000E+00  0.00000000000E+00  0.65643972987E+02  0.65643972987E+02  0.00000000000E+00 0. -1.
         21   -1    0    0  502  503 -0.00000000000E+00 -0.00000000000E+00 -0.65791018982E+03  0.65791018982E+03  0.00000000000E+00 0.  1.
          6    1    1    2  501    0 -0.29934578628E+02  0.58219931951E+02 -0.13122805250E+03  0.22679382980E+03  0.17300000000E+03 0. -1.
         -6    1    1    2    0  503  0.29934578628E+02 -0.58219931951E+02 -0.46103816433E+03  0.49676033300E+03  0.17300000000E+03 0.  1.
<mgrwt>
<rscale>  2 0.18497200E+03</rscale>
<asrwt>0</asrwt>
<pdfrwt beam="1">  1       21 0.10099073E-01 0.18497200E+03</pdfrwt>
<pdfrwt beam="2">  1       21 0.10121695E+00 0.18497200E+03</pdfrwt>
<totfact> 0.63836712E+04</totfact>
</mgrwt>
</event>
<event>
 4    3  0.4041078E+000  0.1996375E+03  0.7546771E-02  0.1150045E+00
         21   -1    0    0  503  502  0.00000000000E+00  0.00000000000E+00  0.70727039834E+02  0.70727039834E+02  0.00000000000E+00 0. -1.
         21   -1    0    0  501  503 -0.00000000000E+00 -0.00000000000E+00 -0.76722804202E+03  0.76722804202E+03  0.00000000000E+00 0. -1.
          6    1    1    2  501    0 -0.86924697554E+02  0.48684997199E+02 -0.13235320258E+03  0.23952557740E+03  0.17300000000E+03 0. -1.
         -6    1    1    2    0  502  0.86924697554E+02 -0.48684997199E+02 -0.56414779960E+03  0.59842950445E+03  0.17300000000E+03 0. -1.
<mgrwt>
<rscale>  2 0.19963750E+03</rscale>
<asrwt>0</asrwt>
<pdfrwt beam="1">  1       21 0.10881084E-01 0.19963750E+03</pdfrwt>
<pdfrwt beam="2">  1       21 0.11803508E+00 0.19963750E+03</pdfrwt>
<totfact> 0.38285183E+04</totfact>
</mgrwt>
</event>
<event>
 4    3  0.4041078E+000  0.2671036E+03  0.7546771E-02  0.1102949E+00
         21   -1    0    0  501  502  0.00000000000E+00  0.00000000000E+00  0.34122061252E+03  0.34122061252E+03  0.00000000000E+00 0.  1.
         21   -1    0    0  502  503 -0.00000000000E+00 -0.00000000000E+00 -0.24340251629E+03  0.24340251629E+03  0.00000000000E+00 0. -1.
          6    1    1    2  501    0  0.96752197057E+01  0.20327742093E+03  0.15866738886E+03  0.31067613366E+03  0.17300000000E+03 0.  1.
         -6    1    1    2    0  503 -0.96752197057E+01 -0.20327742093E+03 -0.60849292633E+02  0.27394699515E+03  0.17300000000E+03 0. -1.
<mgrwt>
<rscale>  2 0.26710357E+03</rscale>
<asrwt>0</asrwt>
<pdfrwt beam="1">  1       21 0.52495479E-01 0.26710357E+03</pdfrwt>
<pdfrwt beam="2">  1       21 0.37446541E-01 0.26710357E+03</pdfrwt>
<totfact> 0.22782543E+04</totfact>
</mgrwt>
</event>
<event>
 4    3  0.4041078E+000  0.1776255E+03  0.7546771E-02  0.1170121E+00
         21   -1    0    0  503  502  0.00000000000E+00  0.00000000000E+00  0.11028415499E+04  0.11028415499E+04  0.00000000000E+00 0.  1.
         21   -1    0    0  501  503 -0.00000000000E+00 -0.00000000000E+00 -0.40666091638E+02  0.40666091638E+02  0.00000000000E+00 0.  1.
          6    1    1    2  501    0 -0.33334282120E+02 -0.22597190152E+02  0.21975810234E+03  0.28256756875E+03  0.17300000000E+03 0.  1.
         -6    1    1    2    0  502  0.33334282120E+02  0.22597190152E+02  0.84241735595E+03  0.86094007281E+03  0.17300000000E+03 0.  1.
<mgrwt>
<rscale>  2 0.17762547E+03</rscale>
<asrwt>0</asrwt>
<pdfrwt beam="1">  1       21 0.16966791E+00 0.17762547E+03</pdfrwt>
<pdfrwt beam="2">  1       21 0.62563226E-02 0.17762547E+03</pdfrwt>
<totfact> 0.39747732E+04</totfact>
</mgrwt>
</event>
<event>
 4    3  0.4041078E+000  0.1731890E+03  0.7546771E-02  0.1174562E+00
         21   -1    0    0  501  502  0.00000000000E+00  0.00000000000E+00  0.31485558061E+03  0.31485558061E+03  0.00000000000E+00 0.  1.
         21   -1    0    0  502  503 -0.00000000000E+00 -0.00000000000E+00 -0.33446796610E+03  0.33446796610E+03  0.00000000000E+00 0.  1.
          6    1    1    2  501    0 -0.47218591677E+01 -0.65665719941E+01  0.26475429660E+03  0.31636885654E+03  0.17300000000E+03 0.  1.
         -6    1    1    2    0  503  0.47218591677E+01  0.65665719941E+01 -0.28436668208E+03  0.33295469016E+03  0.17300000000E+03 0.  1.
<mgrwt>
<rscale>  2 0.17318896E+03</rscale>
<asrwt>0</asrwt>
<pdfrwt beam="1">  1       21 0.48439320E-01 0.17318896E+03</pdfrwt>
<pdfrwt beam="2">  1       21 0.51456610E-01 0.17318896E+03</pdfrwt>
<totfact> 0.14791695E+04</totfact>
</mgrwt>
</event>
<event>
 4    3  0.4041078E+000  0.1804413E+03  0.7546771E-02  0.1167377E+00
         21   -1    0    0  503  502  0.00000000000E+00  0.00000000000E+00  0.19857178008E+03  0.19857178008E+03  0.00000000000E+00 0.  1.
         21   -1    0    0  501  503 -0.00000000000E+00 -0.00000000000E+00 -0.31031965361E+03  0.31031965361E+03  0.00000000000E+00 0.  1.
          6    1    1    2  501    0  0.33555946128E+02 -0.38782288316E+02 -0.23061377832E+03  0.29281697724E+03  0.17300000000E+03 0.  1.
         -6    1    1    2    0  502 -0.33555946128E+02  0.38782288316E+02  0.11886590479E+03  0.21607445645E+03  0.17300000000E+03 0.  1.
<mgrwt>
<rscale>  2 0.18044131E+03</rscale>
<asrwt>0</asrwt>
<pdfrwt beam="1">  1       21 0.30549505E-01 0.18044131E+03</pdfrwt>
<pdfrwt beam="2">  1       21 0.47741485E-01 0.18044131E+03</pdfrwt>
<totfact> 0.43401762E+04</totfact>
</mgrwt>
</event>
<event>
 4    3  0.4041078E+000  0.1999895E+03  0.7546771E-02  0.1149748E+00
         21   -1    0    0  501  502  0.00000000000E+00  0.00000000000E+00  0.50395848083E+03  0.50395848083E+03  0.00000000000E+00 0.  1.
         21   -1    0    0  502  503 -0.00000000000E+00 -0.00000000000E+00 -0.19292928977E+03  0.19292928977E+03  0.00000000000E+00 0.  1.
          6    1    1    2  501    0 -0.15020152984E+02  0.99202803296E+02  0.42285089756E+03  0.46775921449E+03  0.17300000000E+03 0.  1.
         -6    1    1    2    0  503  0.15020152984E+02 -0.99202803296E+02 -0.11182170649E+03  0.22912855610E+03  0.17300000000E+03 0.  1.
<mgrwt>
<rscale>  2 0.19998950E+03</rscale>
<asrwt>0</asrwt>
<pdfrwt beam="1">  1       21 0.77532073E-01 0.19998950E+03</pdfrwt>
<pdfrwt beam="2">  1       21 0.29681429E-01 0.19998950E+03</pdfrwt>
<totfact> 0.15983944E+04</totfact>
</mgrwt>
</event>
<event>
 4    3  0.4041078E+000  0.1829887E+03  0.7546771E-02  0.1164942E+00
         21   -1    0    0  501  502  0.00000000000E+00  0.00000000000E+00  0.14112414965E+03  0.14112414965E+03  0.00000000000E+00 0. -1.
         21   -1    0    0  502  503 -0.00000000000E+00 -0.00000000000E+00 -0.30254586102E+03  0.30254586102E+03  0.00000000000E+00 0. -1.
          6    1    1    2  501    0  0.54313364179E+02 -0.24615602714E+02  0.22328397618E+02  0.18434594318E+03  0.17300000000E+03 0. -1.
         -6    1    1    2    0  503 -0.54313364179E+02  0.24615602714E+02 -0.18375010899E+03  0.25932406749E+03  0.17300000000E+03 0. -1.
<mgrwt>
<rscale>  2 0.18298871E+03</rscale>
<asrwt>0</asrwt>
<pdfrwt beam="1">  1       21 0.21711408E-01 0.18298871E+03</pdfrwt>
<pdfrwt beam="2">  1       21 0.46545517E-01 0.18298871E+03</pdfrwt>
<totfact> 0.87810620E+04</totfact>
</mgrwt>
</event>
<event>
 4    3  0.4041078E+000  0.2313222E+03  0.7546771E-02  0.1125713E+00
         21   -1    0    0  503  502  0.00000000000E+00  0.00000000000E+00  0.20841243937E+03  0.20841243937E+03  0.00000000000E+00 0.  1.
         21   -1    0    0  501  503 -0.00000000000E+00 -0.00000000000E+00 -0.26625954463E+03  0.26625954463E+03  0.00000000000E+00 0.  1.
          6    1    1    2  501    0  0.11966287971E+03  0.96237992843E+02 -0.73775783896E+02  0.24280202292E+03  0.17300000000E+03 0.  1.
         -6    1    1    2    0  502 -0.11966287971E+03 -0.96237992843E+02  0.15928678644E+02  0.23186996108E+03  0.17300000000E+03 0.  1.
<mgrwt>
<rscale>  2 0.23132219E+03</rscale>
<asrwt>0</asrwt>
<pdfrwt beam="1">  1       21 0.32063452E-01 0.23132219E+03</pdfrwt>
<pdfrwt beam="2">  1       21 0.40963007E-01 0.23132219E+03</pdfrwt>
<totfact> 0.52767474E+04</totfact>
</mgrwt>
</event>
<event>
 4    3  0.4041078E+000  0.1941883E+03  0.7546771E-02  0.1154737E+00
         21   -1    0    0  503  502  0.00000000000E+00  0.00000000000E+00  0.24377691390E+02  0.24377691390E+02  0.00000000000E+00 0.  1.
         21   -1    0    0  501  503 -0.00000000000E+00 -0.00000000000E+00 -0.15941167449E+04  0.15941167449E+04  0.00000000000E+00 0.  1.
          6    1    1    2  501    0 -0.39593697443E+01 -0.88115840490E+02 -0.92418999604E+03  0.94437080997E+03  0.17300000000E+03 0. -1.
         -6    1    1    2    0  502  0.39593697443E+01  0.88115840490E+02 -0.64554905745E+03  0.67412362630E+03  0.17300000000E+03 0. -1.
<mgrwt>
<rscale>  2 0.19418825E+03</rscale>
<asrwt>0</asrwt>
<pdfrwt beam="1">  1       21 0.37504136E-02 0.19418825E+03</pdfrwt>
<pdfrwt beam="2">  1       21 0.24524876E+00 0.19418825E+03</pdfrwt>
<totfact> 0.30917665E+04</totfact>
</mgrwt>
</event>
<event>
 4    3  0.4041078E+000  0.2052967E+03  0.7546771E-02  0.1145346E+00
         21   -1    0    0  503  502  0.00000000000E+00  0.00000000000E+00  0.31465983811E+02  0.31465983811E+02  0.00000000000E+00 0. -1.
         21   -1    0    0  501  503 -0.00000000000E+00 -0.00000000000E+00 -0.13609620700E+04  0.13609620700E+04  0.00000000000E+00 0.  1.
          6    1    1    2  501    0 -0.95391327037E+02  0.55841073841E+02 -0.75230347946E+03  0.77981232102E+03  0.17300000000E+03 0. -1.
         -6    1    1    2    0  502  0.95391327037E+02 -0.55841073841E+02 -0.57719260668E+03  0.61261573275E+03  0.17300000000E+03 0.  1.
<mgrwt>
<rscale>  2 0.20529669E+03</rscale>
<asrwt>0</asrwt>
<pdfrwt beam="1">  1       21 0.48409221E-02 0.20529669E+03</pdfrwt>
<pdfrwt beam="2">  1       21 0.20937872E+00 0.20529669E+03</pdfrwt>
<totfact> 0.32968081E+04</totfact>
</mgrwt>
</event>
<event>
 4    3  0.4041078E+000  0.1807848E+03  0.7546771E-02  0.1167046E+00
         21   -1    0    0  503  502  0.00000000000E+00  0.00000000000E+00  0.16661610301E+03  0.16661610301E+03  0.00000000000E+00 0. -1.
         21   -1    0    0  501  503 -0.00000000000E+00 -0.00000000000E+00 -0.20054950458E+03  0.20054950458E+03  0.00000000000E+00 0. -1.
          6    1    1    2  501    0 -0.49035754952E+02 -0.18698441226E+02 -0.44131807781E+02  0.18609339974E+03  0.17300000000E+03 0. -1.
         -6    1    1    2    0  502  0.49035754952E+02  0.18698441226E+02  0.10198406204E+02  0.18107220785E+03  0.17300000000E+03 0. -1.
<mgrwt>
<rscale>  2 0.18078478E+03</rscale>
<asrwt>0</asrwt>
<pdfrwt beam="1">  1       21 0.25633247E-01 0.18078478E+03</pdfrwt>
<pdfrwt beam="2">  1       21 0.30853770E-01 0.18078478E+03</pdfrwt>
<totfact> 0.14622870E+05</totfact>
</mgrwt>
</event>
<event>
 4    3  0.4041078E+000  0.1855023E+03  0.7546771E-02  0.1162582E+00
         21   -1    0    0  503  502  0.00000000000E+00  0.00000000000E+00  0.16553406517E+03  0.16553406517E+03  0.00000000000E+00 0.  1.
         21   -1    0    0  501  503 -0.00000000000E+00 -0.00000000000E+00 -0.26913768568E+03  0.26913768568E+03  0.00000000000E+00 0.  1.
          6    1    1    2  501    0 -0.56667535552E+02 -0.35649454914E+02 -0.15548950114E+03  0.24204974320E+03  0.17300000000E+03 0.  1.
         -6    1    1    2    0  502  0.56667535552E+02  0.35649454914E+02  0.51885880624E+02  0.19262200765E+03  0.17300000000E+03 0.  1.
<mgrwt>
<rscale>  2 0.18550227E+03</rscale>
<asrwt>0</asrwt>
<pdfrwt beam="1">  1       21 0.25466779E-01 0.18550227E+03</pdfrwt>
<pdfrwt beam="2">  1       21 0.41405797E-01 0.18550227E+03</pdfrwt>
<totfact> 0.82352751E+04</totfact>
</mgrwt>
</event>
<event>
 4    3  0.4041078E+000  0.2169167E+03  0.7546771E-02  0.1136203E+00
         21   -1    0    0  503  502  0.00000000000E+00  0.00000000000E+00  0.12162249537E+03  0.12162249537E+03  0.00000000000E+00 0. -1.
         21   -1    0    0  501  503 -0.00000000000E+00 -0.00000000000E+00 -0.38807218612E+03  0.38807218612E+03  0.00000000000E+00 0. -1.
          6    1    1    2  501    0  0.28531454031E+02 -0.12770983227E+03 -0.14737276107E+03  0.26224335231E+03  0.17300000000E+03 0. -1.
         -6    1    1    2    0  502 -0.28531454031E+02  0.12770983227E+03 -0.11907692968E+03  0.24745132917E+03  0.17300000000E+03 0. -1.
<mgrwt>
<rscale>  2 0.21691668E+03</rscale>
<asrwt>0</asrwt>
<pdfrwt beam="1">  1       21 0.18711153E-01 0.21691668E+03</pdfrwt>
<pdfrwt beam="2">  1       21 0.59703414E-01 0.21691668E+03</pdfrwt>
<totfact> 0.67701379E+04</totfact>
</mgrwt>
</event>
<event>
 4    3  0.4041078E+000  0.1779301E+03  0.7546771E-02  0.1169821E+00
         21   -1    0    0  501  502  0.00000000000E+00  0.00000000000E+00  0.88029303537E+02  0.88029303537E+02  0.00000000000E+00 0. -1.
         21   -1    0    0  502  503 -0.00000000000E+00 -0.00000000000E+00 -0.71486024720E+03  0.71486024720E+03  0.00000000000E+00 0. -1.
          6    1    1    2  501    0  0.33106377510E+02 -0.25181087149E+02 -0.30431210183E+02  0.18051365027E+03  0.17300000000E+03 0. -1.
         -6    1    1    2    0  503 -0.33106377510E+02  0.25181087149E+02 -0.59639973348E+03  0.62237590046E+03  0.17300000000E+03 0. -1.
<mgrwt>
<rscale>  2 0.17793010E+03</rscale>
<asrwt>0</asrwt>
<pdfrwt beam="1">  1       21 0.13542970E-01 0.17793010E+03</pdfrwt>
<pdfrwt beam="2">  1       21 0.10997850E+00 0.17793010E+03</pdfrwt>
<totfact> 0.31112194E+04</totfact>
</mgrwt>
</event>
<event>
 4    3  0.4041078E+000  0.2521572E+03  0.7546771E-02  0.1111949E+00
         21   -1    0    0  503  502  0.00000000000E+00  0.00000000000E+00  0.40960765629E+03  0.40960765629E+03  0.00000000000E+00 0.  1.
         21   -1    0    0  501  503 -0.00000000000E+00 -0.00000000000E+00 -0.30435630549E+03  0.30435630549E+03  0.00000000000E+00 0.  1.
          6    1    1    2  501    0  0.16242681271E+03 -0.85274858686E+02  0.30250637815E+03  0.39381896835E+03  0.17300000000E+03 0.  1.
         -6    1    1    2    0  502 -0.16242681271E+03  0.85274858686E+02 -0.19725502734E+03  0.32014499343E+03  0.17300000000E+03 0.  1.
<mgrwt>
<rscale>  2 0.25215723E+03</rscale>
<asrwt>0</asrwt>
<pdfrwt beam="1">  1       21 0.63016563E-01 0.25215723E+03</pdfrwt>
<pdfrwt beam="2">  1       21 0.46824047E-01 0.25215723E+03</pdfrwt>
<totfact> 0.98084909E+03</totfact>
</mgrwt>
</event>
<event>
 4    3  0.4041078E+000  0.1844782E+03  0.7546771E-02  0.1163538E+00
         21   -1    0    0  501  502  0.00000000000E+00  0.00000000000E+00  0.21259673122E+03  0.21259673122E+03  0.00000000000E+00 0.  1.
         21   -1    0    0  502  503 -0.00000000000E+00 -0.00000000000E+00 -0.10164022676E+04  0.10164022676E+04  0.00000000000E+00 0. -1.
          6    1    1    2  501    0  0.12281927318E+02  0.62867912697E+02  0.16213431111E+03  0.24560080420E+03  0.17300000000E+03 0.  1.
         -6    1    1    2    0  503 -0.12281927318E+02 -0.62867912697E+02 -0.96593984749E+03  0.98339819461E+03  0.17300000000E+03 0. -1.
<mgrwt>
<rscale>  2 0.18447824E+03</rscale>
<asrwt>0</asrwt>
<pdfrwt beam="1">  1       21 0.32707190E-01 0.18447824E+03</pdfrwt>
<pdfrwt beam="2">  1       21 0.15636958E+00 0.18447824E+03</pdfrwt>
<totfact> 0.24275504E+03</totfact>
</mgrwt>
</event>
<event>
 4    3  0.4041078E+000  0.1792581E+03  0.7546771E-02  0.1168523E+00
         21   -1    0    0  503  502  0.00000000000E+00  0.00000000000E+00  0.37524690443E+03  0.37524690443E+03  0.00000000000E+00 0.  1.
         21   -1    0    0  501  503 -0.00000000000E+00 -0.00000000000E+00 -0.85715484467E+02  0.85715484467E+02  0.00000000000E+00 0.  1.
          6    1    1    2  501    0  0.40413153868E+02  0.23900621741E+02  0.15192187837E+03  0.23497599846E+03  0.17300000000E+03 0. -1.
         -6    1    1    2    0  502 -0.40413153868E+02 -0.23900621741E+02  0.13760954160E+03  0.22598639044E+03  0.17300000000E+03 0. -1.
<mgrwt>
<rscale>  2 0.17925809E+03</rscale>
<asrwt>0</asrwt>
<pdfrwt beam="1">  1       21 0.57730292E-01 0.17925809E+03</pdfrwt>
<pdfrwt beam="2">  1       21 0.13186998E-01 0.17925809E+03</pdfrwt>
<totfact> 0.14004554E+05</totfact>
</mgrwt>
</event>
<event>
 4    3  0.4041078E+000  0.1790616E+03  0.7546771E-02  0.1168714E+00
         21   -1    0    0  503  502  0.00000000000E+00  0.00000000000E+00  0.12175969357E+03  0.12175969357E+03  0.00000000000E+00 0. -1.
         21   -1    0    0  501  503 -0.00000000000E+00 -0.00000000000E+00 -0.29120521434E+03  0.29120521434E+03  0.00000000000E+00 0. -1.
          6    1    1    2  501    0 -0.46153661600E+02 -0.19774702370E+01 -0.14860599243E+03  0.23269467518E+03  0.17300000000E+03 0. -1.
         -6    1    1    2    0  502  0.46153661600E+02  0.19774702370E+01 -0.20839528334E+02  0.18027023273E+03  0.17300000000E+03 0. -1.
<mgrwt>
<rscale>  2 0.17906164E+03</rscale>
<asrwt>0</asrwt>
<pdfrwt beam="1">  1       21 0.18732261E-01 0.17906164E+03</pdfrwt>
<pdfrwt beam="2">  1       21 0.44800802E-01 0.17906164E+03</pdfrwt>
<totfact> 0.12529089E+05</totfact>
</mgrwt>
</event>
<event>
 4    3  0.4041078E+000  0.1912544E+03  0.7546771E-02  0.1157335E+00
         21   -1    0    0  501  502  0.00000000000E+00  0.00000000000E+00  0.13075178441E+04  0.13075178441E+04  0.00000000000E+00 0.  1.
         21   -1    0    0  502  503 -0.00000000000E+00 -0.00000000000E+00 -0.36099449796E+02  0.36099449796E+02  0.00000000000E+00 0.  1.
          6    1    1    2  501    0 -0.63108880296E+02  0.51638167077E+02  0.95441040156E+03  0.97338453125E+03  0.17300000000E+03 0.  1.
         -6    1    1    2    0  503  0.63108880296E+02 -0.51638167077E+02  0.31700799273E+03  0.37023276263E+03  0.17300000000E+03 0.  1.
<mgrwt>
<rscale>  2 0.19125436E+03</rscale>
<asrwt>0</asrwt>
<pdfrwt beam="1">  1       21 0.20115656E+00 0.19125436E+03</pdfrwt>
<pdfrwt beam="2">  1       21 0.55537625E-02 0.19125436E+03</pdfrwt>
<totfact> 0.29729794E+04</totfact>
</mgrwt>
</event>
<event>
 4    3  0.4041078E+000  0.1884724E+03  0.7546771E-02  0.1159846E+00
         21   -1    0    0  503  502  0.00000000000E+00  0.00000000000E+00  0.80041490234E+02  0.80041490234E+02  0.00000000000E+00 0. -1.
         21   -1    0    0  501  503 -0.00000000000E+00 -0.00000000000E+00 -0.64694488914E+03  0.64694488914E+03  0.00000000000E+00 0. -1.
          6    1    1    2  501    0 -0.30893928129E+02  0.68105940720E+02 -0.48714326971E+03  0.52233171374E+03  0.17300000000E+03 0. -1.
         -6    1    1    2    0  502  0.30893928129E+02 -0.68105940720E+02 -0.79760129199E+02  0.20465466564E+03  0.17300000000E+03 0. -1.
<mgrwt>
<rscale>  2 0.18847242E+03</rscale>
<asrwt>0</asrwt>
<pdfrwt beam="1">  1       21 0.12314076E-01 0.18847242E+03</pdfrwt>
<pdfrwt beam="2">  1       21 0.99529981E-01 0.18847242E+03</pdfrwt>
<totfact> 0.46612463E+04</totfact>
</mgrwt>
</event>
<event>
 4    3  0.4041078E+000  0.3180641E+03  0.7546771E-02  0.1076544E+00
         21   -1    0    0  501  502  0.00000000000E+00  0.00000000000E+00  0.19168490197E+03  0.19168490197E+03  0.00000000000E+00 0. -1.
         21   -1    0    0  502  503 -0.00000000000E+00 -0.00000000000E+00 -0.58200993282E+03  0.58200993282E+03  0.00000000000E+00 0. -1.
          6    1    1    2  501    0 -0.14837300205E+03  0.22185857040E+03 -0.77062458016E+02  0.32726655104E+03  0.17300000000E+03 0. -1.
         -6    1    1    2    0  503  0.14837300205E+03 -0.22185857040E+03 -0.31326257283E+03  0.44642828375E+03  0.17300000000E+03 0. -1.
<mgrwt>
<rscale>  2 0.31806410E+03</rscale>
<asrwt>0</asrwt>
<pdfrwt beam="1">  1       21 0.29489985E-01 0.31806410E+03</pdfrwt>
<pdfrwt beam="2">  1       21 0.89539990E-01 0.31806410E+03</pdfrwt>
<totfact> 0.10941790E+04</totfact>
</mgrwt>
</event>
<event>
 4    3  0.4041078E+000  0.1730645E+03  0.7546771E-02  0.1174689E+00
         21   -1    0    0  501  502  0.00000000000E+00  0.00000000000E+00  0.14064922406E+03  0.14064922406E+03  0.00000000000E+00 0.  1.
         21   -1    0    0  502  503 -0.00000000000E+00 -0.00000000000E+00 -0.41583695035E+03  0.41583695035E+03  0.00000000000E+00 0.  1.
          6    1    1    2  501    0  0.46952415306E+01 -0.53228839802E+00  0.56758274086E+02  0.18213409978E+03  0.17300000000E+03 0.  1.
         -6    1    1    2    0  503 -0.46952415306E+01  0.53228839802E+00 -0.33194600037E+03  0.37435207464E+03  0.17300000000E+03 0.  1.
<mgrwt>
<rscale>  2 0.17306452E+03</rscale>
<asrwt>0</asrwt>
<pdfrwt beam="1">  1       21 0.21638343E-01 0.17306452E+03</pdfrwt>
<pdfrwt beam="2">  1       21 0.63974914E-01 0.17306452E+03</pdfrwt>
<totfact> 0.45369947E+04</totfact>
</mgrwt>
</event>
<event>
 4    3  0.4041078E+000  0.2028391E+03  0.7546771E-02  0.1147366E+00
         21   -1    0    0  501  502  0.00000000000E+00  0.00000000000E+00  0.35439032220E+02  0.35439032220E+02  0.00000000000E+00 0. -1.
         21   -1    0    0  502  503 -0.00000000000E+00 -0.00000000000E+00 -0.17872520012E+04  0.17872520012E+04  0.00000000000E+00 0. -1.
          6    1    1    2  501    0  0.10482705989E+03  0.15033311421E+02 -0.14153854880E+04  0.14298460731E+04  0.17300000000E+03 0. -1.
         -6    1    1    2    0  503 -0.10482705989E+03 -0.15033311421E+02 -0.33642748095E+03  0.39284496035E+03  0.17300000000E+03 0. -1.
<mgrwt>
<rscale>  2 0.20283913E+03</rscale>
<asrwt>0</asrwt>
<pdfrwt beam="1">  1       21 0.54521584E-02 0.20283913E+03</pdfrwt>
<pdfrwt beam="2">  1       21 0.27496186E+00 0.20283913E+03</pdfrwt>
<totfact> 0.10937772E+04</totfact>
</mgrwt>
</event>
<event>
 4    3  0.4041078E+000  0.1833406E+03  0.7546771E-02  0.1164609E+00
         21   -1    0    0  503  502  0.00000000000E+00  0.00000000000E+00  0.33239870553E+03  0.33239870553E+03  0.00000000000E+00 0. -1.
         21   -1    0    0  501  503 -0.00000000000E+00 -0.00000000000E+00 -0.14453993504E+03  0.14453993504E+03  0.00000000000E+00 0. -1.
          6    1    1    2  501    0  0.54557471576E+02 -0.26613385185E+02 -0.36765503137E+02  0.18699062061E+03  0.17300000000E+03 0. -1.
         -6    1    1    2    0  502 -0.54557471576E+02  0.26613385185E+02  0.22462427363E+03  0.28994801996E+03  0.17300000000E+03 0. -1.
<mgrwt>
<rscale>  2 0.18334064E+03</rscale>
<asrwt>0</asrwt>
<pdfrwt beam="1">  1       21 0.51138262E-01 0.18334064E+03</pdfrwt>
<pdfrwt beam="2">  1       21 0.22236913E-01 0.18334064E+03</pdfrwt>
<totfact> 0.69045340E+04</totfact>
</mgrwt>
</event>
<event>
 4    3  0.4041078E+000  0.2968546E+03  0.7546771E-02  0.1086824E+00
         21   -1    0    0  503  502  0.00000000000E+00  0.00000000000E+00  0.14373253985E+03  0.14373253985E+03  0.00000000000E+00 0.  1.
         21   -1    0    0  501  503 -0.00000000000E+00 -0.00000000000E+00 -0.74658540252E+03  0.74658540252E+03  0.00000000000E+00 0.  1.
          6    1    1    2  501    0 -0.23077667115E+03 -0.70255135126E+02 -0.48965676069E+03  0.57261365618E+03  0.17300000000E+03 0.  1.
         -6    1    1    2    0  502  0.23077667115E+03  0.70255135126E+02 -0.11319610198E+03  0.31770428618E+03  0.17300000000E+03 0.  1.
<mgrwt>
<rscale>  2 0.29685460E+03</rscale>
<asrwt>0</asrwt>
<pdfrwt beam="1">  1       21 0.22112699E-01 0.29685460E+03</pdfrwt>
<pdfrwt beam="2">  1       21 0.11485929E+00 0.29685460E+03</pdfrwt>
<totfact> 0.10578268E+04</totfact>
</mgrwt>
</event>
<event>
 4    3  0.4041078E+000  0.1957424E+03  0.7546771E-02  0.1153382E+00
         21   -1    0    0  503  502  0.00000000000E+00  0.00000000000E+00  0.23384620877E+03  0.23384620877E+03  0.00000000000E+00 0.  1.
         21   -1    0    0  501  503 -0.00000000000E+00 -0.00000000000E+00 -0.18520169372E+03  0.18520169372E+03  0.00000000000E+00 0.  1.
          6    1    1    2  501    0  0.89317318491E+02  0.20211430589E+02 -0.46824342749E+02  0.20126501033E+03  0.17300000000E+03 0.  1.
         -6    1    1    2    0  502 -0.89317318491E+02 -0.20211430589E+02  0.95468857798E+02  0.21778289216E+03  0.17300000000E+03 0.  1.
<mgrwt>
<rscale>  2 0.19574240E+03</rscale>
<asrwt>0</asrwt>
<pdfrwt beam="1">  1       21 0.35976340E-01 0.19574240E+03</pdfrwt>
<pdfrwt beam="2">  1       21 0.28492568E-01 0.19574240E+03</pdfrwt>
<totfact> 0.87649839E+04</totfact>
</mgrwt>
</event>
<event>
 4    3  0.4041078E+000  0.1778298E+03  0.7546771E-02  0.1169920E+00
         21   -1    0    0  501  502  0.00000000000E+00  0.00000000000E+00  0.58322114457E+02  0.58322114457E+02  0.00000000000E+00 0. -1.
         21   -1    0    0  502  503 -0.00000000000E+00 -0.00000000000E+00 -0.10796263477E+04  0.10796263477E+04  0.00000000000E+00 0. -1.
          6    1    1    2  501    0 -0.28884034108E+02 -0.29328485166E+02 -0.10922468720E+03  0.20869470468E+03  0.17300000000E+03 0. -1.
         -6    1    1    2    0  503  0.28884034108E+02  0.29328485166E+02 -0.91207954609E+03  0.92925375752E+03  0.17300000000E+03 0. -1.
<mgrwt>
<rscale>  2 0.17782983E+03</rscale>
<asrwt>0</asrwt>
<pdfrwt beam="1">  1       21 0.89726331E-02 0.17782983E+03</pdfrwt>
<pdfrwt beam="2">  1       21 0.16609636E+00 0.17782983E+03</pdfrwt>
<totfact> 0.22563254E+04</totfact>
</mgrwt>
</event>
<event>
 4    3  0.4041078E+000  0.1973618E+03  0.7546771E-02  0.1151984E+00
         21   -1    0    0  503  502  0.00000000000E+00  0.00000000000E+00  0.95871795431E+02  0.95871795431E+02  0.00000000000E+00 0.  1.
         21   -1    0    0  501  503 -0.00000000000E+00 -0.00000000000E+00 -0.50895930809E+03  0.50895930809E+03  0.00000000000E+00 0.  1.
          6    1    1    2  501    0 -0.80099665448E+02 -0.51056180034E+02 -0.70717330642E+02  0.20964882727E+03  0.17300000000E+03 0.  1.
         -6    1    1    2    0  502  0.80099665448E+02  0.51056180034E+02 -0.34237018202E+03  0.39518227624E+03  0.17300000000E+03 0.  1.
<mgrwt>
<rscale>  2 0.19736182E+03</rscale>
<asrwt>0</asrwt>
<pdfrwt beam="1">  1       21 0.14749507E-01 0.19736182E+03</pdfrwt>
<pdfrwt beam="2">  1       21 0.78301431E-01 0.19736182E+03</pdfrwt>
<totfact> 0.58259585E+04</totfact>
</mgrwt>
</event>
<event>
 4    3  0.4041078E+000  0.1993290E+03  0.7546771E-02  0.1150306E+00
         21   -1    0    0  503  502  0.00000000000E+00  0.00000000000E+00  0.43647139303E+02  0.43647139303E+02  0.00000000000E+00 0. -1.
         21   -1    0    0  501  503 -0.00000000000E+00 -0.00000000000E+00 -0.91119770606E+03  0.91119770606E+03  0.00000000000E+00 0. -1.
          6    1    1    2  501    0  0.67648519568E+02 -0.72296158964E+02 -0.44874791358E+03  0.49102621798E+03  0.17300000000E+03 0. -1.
         -6    1    1    2    0  502 -0.67648519568E+02  0.72296158964E+02 -0.41880265318E+03  0.46381862738E+03  0.17300000000E+03 0. -1.
<mgrwt>
<rscale>  2 0.19932902E+03</rscale>
<asrwt>0</asrwt>
<pdfrwt beam="1">  1       21 0.67149444E-02 0.19932902E+03</pdfrwt>
<pdfrwt beam="2">  1       21 0.14018426E+00 0.19932902E+03</pdfrwt>
<totfact> 0.57746372E+04</totfact>
</mgrwt>
</event>
<event>
 4    3  0.4041078E+000  0.1827635E+03  0.7546771E-02  0.1165155E+00
         21   -1    0    0  501  502  0.00000000000E+00  0.00000000000E+00  0.10560301581E+03  0.10560301581E+03  0.00000000000E+00 0. -1.
         21   -1    0    0  502  503 -0.00000000000E+00 -0.00000000000E+00 -0.32442858309E+03  0.32442858309E+03  0.00000000000E+00 0. -1.
          6    1    1    2  501    0  0.55766258584E+02  0.19069042204E+02 -0.14344184064E+03  0.23233180070E+03  0.17300000000E+03 0. -1.
         -6    1    1    2    0  503 -0.55766258584E+02 -0.19069042204E+02 -0.75383726636E+02  0.19769979820E+03  0.17300000000E+03 0. -1.
<mgrwt>
<rscale>  2 0.18276352E+03</rscale>
<asrwt>0</asrwt>
<pdfrwt beam="1">  1       21 0.16246618E-01 0.18276352E+03</pdfrwt>
<pdfrwt beam="2">  1       21 0.49912089E-01 0.18276352E+03</pdfrwt>
<totfact> 0.13010728E+05</totfact>
</mgrwt>
</event>
<event>
 4    3  0.4041078E+000  0.1854798E+03  0.7546771E-02  0.1162603E+00
         21   -1    0    0  503  502  0.00000000000E+00  0.00000000000E+00  0.19512845504E+03  0.19512845504E+03  0.00000000000E+00 0.  1.
         21   -1    0    0  501  503 -0.00000000000E+00 -0.00000000000E+00 -0.17652003742E+03  0.17652003742E+03  0.00000000000E+00 0. -1.
          6    1    1    2  501    0  0.14873377916E+02 -0.65211457963E+02  0.15741167858E+02  0.18614654438E+03  0.17300000000E+03 0.  1.
         -6    1    1    2    0  502 -0.14873377916E+02  0.65211457963E+02  0.28672497552E+01  0.18550194808E+03  0.17300000000E+03 0. -1.
<mgrwt>
<rscale>  2 0.18547979E+03</rscale>
<asrwt>0</asrwt>
<pdfrwt beam="1">  1       21 0.30019762E-01 0.18547979E+03</pdfrwt>
<pdfrwt beam="2">  1       21 0.27156929E-01 0.18547979E+03</pdfrwt>
<totfact> 0.13787356E+05</totfact>
</mgrwt>
</event>
<event>
 4    3  0.4041078E+000  0.1887187E+03  0.7546771E-02  0.1159622E+00
         21   -1    0    0  503  502  0.00000000000E+00  0.00000000000E+00  0.57613058795E+02  0.57613058795E+02  0.00000000000E+00 0. -1.
         21   -1    0    0  501  503 -0.00000000000E+00 -0.00000000000E+00 -0.67358443641E+03  0.67358443641E+03  0.00000000000E+00 0.  1.
          6    1    1    2  501    0 -0.71748894512E+02  0.23191779209E+02 -0.20312481397E+03  0.27726242539E+03  0.17300000000E+03 0. -1.
         -6    1    1    2    0  502  0.71748894512E+02 -0.23191779209E+02 -0.41284656365E+03  0.45393506981E+03  0.17300000000E+03 0.  1.
<mgrwt>
<rscale>  2 0.18871874E+03</rscale>
<asrwt>0</asrwt>
<pdfrwt beam="1">  1       21 0.88635480E-02 0.18871874E+03</pdfrwt>
<pdfrwt beam="2">  1       21 0.10362837E+00 0.18871874E+03</pdfrwt>
<totfact> 0.75788068E+04</totfact>
</mgrwt>
</event>
<event>
 4    3  0.4041078E+000  0.2024124E+03  0.7546771E-02  0.1147720E+00
         21   -1    0    0  501  502  0.00000000000E+00  0.00000000000E+00  0.42656632020E+03  0.42656632020E+03  0.00000000000E+00 0. -1.
         21   -1    0    0  502  503 -0.00000000000E+00 -0.00000000000E+00 -0.13259711963E+03  0.13259711963E+03  0.00000000000E+00 0.  1.
          6    1    1    2  501    0 -0.95267717348E+02  0.44337682938E+02  0.29376944429E+03  0.35675096986E+03  0.17300000000E+03 0. -1.
         -6    1    1    2    0  503  0.95267717348E+02 -0.44337682938E+02  0.19975628471E+00  0.20241246997E+03  0.17300000000E+03 0.  1.
<mgrwt>
<rscale>  2 0.20241237E+03</rscale>
<asrwt>0</asrwt>
<pdfrwt beam="1">  1       21 0.65625587E-01 0.20241237E+03</pdfrwt>
<pdfrwt beam="2">  1       21 0.20399557E-01 0.20241237E+03</pdfrwt>
<totfact> 0.47250455E+04</totfact>
</mgrwt>
</event>
<event>
 4    3  0.4041078E+000  0.1851543E+03  0.7546771E-02  0.1162906E+00
         21   -1    0    0  501  502  0.00000000000E+00  0.00000000000E+00  0.90100550241E+02  0.90100550241E+02  0.00000000000E+00 0.  1.
         21   -1    0    0  502  503 -0.00000000000E+00 -0.00000000000E+00 -0.78877173789E+03  0.78877173789E+03  0.00000000000E+00 0.  1.
          6    1    1    2  501    0 -0.62728690324E+02 -0.20450410854E+02 -0.33179497592E+02  0.18810366013E+03  0.17300000000E+03 0. -1.
         -6    1    1    2    0  503  0.62728690324E+02  0.20450410854E+02 -0.66549169005E+03  0.69076862800E+03  0.17300000000E+03 0. -1.
<mgrwt>
<rscale>  2 0.18515428E+03</rscale>
<asrwt>0</asrwt>
<pdfrwt beam="1">  1       21 0.13861623E-01 0.18515428E+03</pdfrwt>
<pdfrwt beam="2">  1       21 0.12134950E+00 0.18515428E+03</pdfrwt>
<totfact> 0.23360027E+04</totfact>
</mgrwt>
</event>
<event>
 4    3  0.4041078E+000  0.2074439E+03  0.7546771E-02  0.1143606E+00
         21   -1    0    0  503  502  0.00000000000E+00  0.00000000000E+00  0.27024608312E+03  0.27024608312E+03  0.00000000000E+00 0.  1.
         21   -1    0    0  501  503 -0.00000000000E+00 -0.00000000000E+00 -0.19010499537E+03  0.19010499537E+03  0.00000000000E+00 0. -1.
          6    1    1    2  501    0  0.32203328098E+02  0.10984959721E+03 -0.52681073331E+02  0.21402869862E+03  0.17300000000E+03 0. -1.
         -6    1    1    2    0  502 -0.32203328098E+02 -0.10984959721E+03  0.13282216109E+03  0.24632237987E+03  0.17300000000E+03 0.  1.
<mgrwt>
<rscale>  2 0.20744394E+03</rscale>
<asrwt>0</asrwt>
<pdfrwt beam="1">  1       21 0.41576321E-01 0.20744394E+03</pdfrwt>
<pdfrwt beam="2">  1       21 0.29246922E-01 0.20744394E+03</pdfrwt>
<totfact> 0.61941981E+04</totfact>
</mgrwt>
</event>
<event>
 4    3  0.4041078E+000  0.3342180E+03  0.7546771E-02  0.1069286E+00
         21   -1    0    0  503  502  0.00000000000E+00  0.00000000000E+00  0.31430346035E+03  0.31430346035E+03  0.00000000000E+00 0.  1.
         21   -1    0    0  501  503 -0.00000000000E+00 -0.00000000000E+00 -0.35539923998E+03  0.35539923998E+03  0.00000000000E+00 0. -1.
          6    1    1    2  501    0 -0.20266026817E+03  0.20174615406E+03 -0.21781456191E+02  0.33492704699E+03  0.17300000000E+03 0. -1.
         -6    1    1    2    0  502  0.20266026817E+03 -0.20174615406E+03 -0.19314323440E+02  0.33477565333E+03  0.17300000000E+03 0.  1.
<mgrwt>
<rscale>  2 0.33421804E+03</rscale>
<asrwt>0</asrwt>
<pdfrwt beam="1">  1       21 0.48354378E-01 0.33421804E+03</pdfrwt>
<pdfrwt beam="2">  1       21 0.54676807E-01 0.33421804E+03</pdfrwt>
<totfact> 0.12001715E+04</totfact>
</mgrwt>
</event>
<event>
 4    3  0.4041078E+000  0.1870034E+03  0.7546771E-02  0.1161192E+00
         21   -1    0    0  501  502  0.00000000000E+00  0.00000000000E+00  0.43027832863E+02  0.43027832863E+02  0.00000000000E+00 0.  1.
         21   -1    0    0  502  503 -0.00000000000E+00 -0.00000000000E+00 -0.91586745379E+03  0.91586745379E+03  0.00000000000E+00 0.  1.
          6    1    1    2  501    0 -0.30464565799E+02  0.64134076700E+02 -0.59730660766E+03  0.62589572065E+03  0.17300000000E+03 0. -1.
         -6    1    1    2    0  503  0.30464565799E+02 -0.64134076700E+02 -0.27553301326E+03  0.33299956600E+03  0.17300000000E+03 0. -1.
<mgrwt>
<rscale>  2 0.18700339E+03</rscale>
<asrwt>0</asrwt>
<pdfrwt beam="1">  1       21 0.66196664E-02 0.18700339E+03</pdfrwt>
<pdfrwt beam="2">  1       21 0.14090269E+00 0.18700339E+03</pdfrwt>
<totfact> 0.58792244E+04</totfact>
</mgrwt>
</event>
<event>
 4    3  0.4041078E+000  0.1754795E+03  0.7546771E-02  0.1172251E+00
         21   -1    0    0  501  502  0.00000000000E+00  0.00000000000E+00  0.28059180017E+03  0.28059180017E+03  0.00000000000E+00 0.  1.
         21   -1    0    0  502  503 -0.00000000000E+00 -0.00000000000E+00 -0.15577410289E+03  0.15577410289E+03  0.00000000000E+00 0.  1.
          6    1    1    2  501    0 -0.47953465463E+01  0.29000804349E+02  0.18101246479E+03  0.25210821964E+03  0.17300000000E+03 0.  1.
         -6    1    1    2    0  503  0.47953465463E+01 -0.29000804349E+02 -0.56194767515E+02  0.18425768341E+03  0.17300000000E+03 0.  1.
<mgrwt>
<rscale>  2 0.17547946E+03</rscale>
<asrwt>0</asrwt>
<pdfrwt beam="1">  1       21 0.43167969E-01 0.17547946E+03</pdfrwt>
<pdfrwt beam="2">  1       21 0.23965247E-01 0.17547946E+03</pdfrwt>
<totfact> 0.85291383E+04</totfact>
</mgrwt>
</event>
<event>
 4    3  0.4041078E+000  0.2669960E+03  0.7546771E-02  0.1103011E+00
         21   -1    0    0  501  502  0.00000000000E+00  0.00000000000E+00  0.39783292999E+03  0.39783292999E+03  0.00000000000E+00 0. -1.
         21   -1    0    0  502  503 -0.00000000000E+00 -0.00000000000E+00 -0.18133884616E+03  0.18133884616E+03  0.00000000000E+00 0. -1.
          6    1    1    2  501    0  0.19987748936E+03 -0.37507727750E+02  0.13978608314E+03  0.30137516393E+03  0.17300000000E+03 0. -1.
         -6    1    1    2    0  503 -0.19987748936E+03  0.37507727750E+02  0.76708000683E+02  0.27779661222E+03  0.17300000000E+03 0. -1.
<mgrwt>
<rscale>  2 0.26699596E+03</rscale>
<asrwt>0</asrwt>
<pdfrwt beam="1">  1       21 0.61205066E-01 0.26699596E+03</pdfrwt>
<pdfrwt beam="2">  1       21 0.27898284E-01 0.26699596E+03</pdfrwt>
<totfact> 0.29378061E+04</totfact>
</mgrwt>
</event>
<event>
 4    3  0.4041078E+000  0.4952593E+03  0.7546771E-02  0.1015024E+00
         21   -1    0    0  501  502  0.00000000000E+00  0.00000000000E+00  0.19928105138E+04  0.19928105138E+04  0.00000000000E+00 0.  1.
         21   -1    0    0  502  503 -0.00000000000E+00 -0.00000000000E+00 -0.27624204955E+03  0.27624204955E+03  0.00000000000E+00 0. -1.
          6    1    1    2  501    0  0.25432836762E+03 -0.38816217128E+03  0.17030581665E+04  0.17736090066E+04  0.17300000000E+03 0.  1.
         -6    1    1    2    0  503 -0.25432836762E+03  0.38816217128E+03  0.13510297760E+02  0.49544355676E+03  0.17300000000E+03 0. -1.
<mgrwt>
<rscale>  2 0.49525932E+03</rscale>
<asrwt>0</asrwt>
<pdfrwt beam="1">  1       21 0.30658622E+00 0.49525932E+03</pdfrwt>
<pdfrwt beam="2">  1       21 0.42498778E-01 0.49525932E+03</pdfrwt>
<totfact> 0.12562367E+02</totfact>
</mgrwt>
</event>
<event>
 4    3  0.4041078E+000  0.2159656E+03  0.7546771E-02  0.1136927E+00
         21   -1    0    0  501  502  0.00000000000E+00  0.00000000000E+00  0.81908741837E+03  0.81908741837E+03  0.00000000000E+00 0. -1.
         21   -1    0    0  502  503 -0.00000000000E+00 -0.00000000000E+00 -0.70650919769E+02  0.70650919769E+02  0.00000000000E+00 0. -1.
          6    1    1    2  501    0  0.96351533022E+02 -0.86188847041E+02  0.57017591715E+03  0.60970625039E+03  0.17300000000E+03 0. -1.
         -6    1    1    2    0  503 -0.96351533022E+02  0.86188847041E+02  0.17826058146E+03  0.28003208775E+03  0.17300000000E+03 0. -1.
<mgrwt>
<rscale>  2 0.21596559E+03</rscale>
<asrwt>0</asrwt>
<pdfrwt beam="1">  1       21 0.12601344E+00 0.21596559E+03</pdfrwt>
<pdfrwt beam="2">  1       21 0.10869373E-01 0.21596559E+03</pdfrwt>
<totfact> 0.32288907E+04</totfact>
</mgrwt>
</event>
<event>
 4    3  0.4041078E+000  0.1865570E+03  0.7546771E-02  0.1161604E+00
         21   -1    0    0  503  502  0.00000000000E+00  0.00000000000E+00  0.23315720449E+03  0.23315720449E+03  0.00000000000E+00 0. -1.
         21   -1    0    0  501  503 -0.00000000000E+00 -0.00000000000E+00 -0.50841022934E+03  0.50841022934E+03  0.00000000000E+00 0. -1.
          6    1    1    2  501    0 -0.32415992016E+02 -0.61836154728E+02 -0.44926077688E+03  0.48645529313E+03  0.17300000000E+03 0. -1.
         -6    1    1    2    0  502  0.32415992016E+02  0.61836154728E+02  0.17400775203E+03  0.25511214070E+03  0.17300000000E+03 0. -1.
<mgrwt>
<rscale>  2 0.18655698E+03</rscale>
<asrwt>0</asrwt>
<pdfrwt beam="1">  1       21 0.35870339E-01 0.18655698E+03</pdfrwt>
<pdfrwt beam="2">  1       21 0.78216958E-01 0.18655698E+03</pdfrwt>
<totfact> 0.10890028E+04</totfact>
</mgrwt>
</event>
<event>
 4    3  0.4041078E+000  0.2526314E+03  0.7546771E-02  0.1111653E+00
         21   -1    0    0  501  502  0.00000000000E+00  0.00000000000E+00  0.15551564329E+03  0.15551564329E+03  0.00000000000E+00 0. -1.
         21   -1    0    0  502  503 -0.00000000000E+00 -0.00000000000E+00 -0.50623415494E+03  0.50623415494E+03  0.00000000000E+00 0.  1.
          6    1    1    2  501    0 -0.59569291203E+02 -0.17419846844E+03 -0.31392234168E+02  0.25457430983E+03  0.17300000000E+03 0. -1.
         -6    1    1    2    0  503  0.59569291203E+02  0.17419846844E+03 -0.31932627748E+03  0.40717548840E+03  0.17300000000E+03 0.  1.
<mgrwt>
<rscale>  2 0.25263137E+03</rscale>
<asrwt>0</asrwt>
<pdfrwt beam="1">  1       21 0.23925484E-01 0.25263137E+03</pdfrwt>
<pdfrwt beam="2">  1       21 0.77882177E-01 0.25263137E+03</pdfrwt>
<totfact> 0.23306663E+04</totfact>
</mgrwt>
</event>
<event>
 4    3  0.4041078E+000  0.1922041E+03  0.7546771E-02  0.1156488E+00
         21   -1    0    0  503  502  0.00000000000E+00  0.00000000000E+00  0.22361286538E+04  0.22361286538E+04  0.00000000000E+00 0.  1.
         21   -1    0    0  501  503 -0.00000000000E+00 -0.00000000000E+00 -0.25159785131E+02  0.25159785131E+02  0.00000000000E+00 0.  1.
          6    1    1    2  501    0 -0.42369463227E+02  0.72237323461E+02  0.17680158454E+04  0.17784325772E+04  0.17300000000E+03 0.  1.
         -6    1    1    2    0  502  0.42369463227E+02 -0.72237323461E+02  0.44295302327E+03  0.48285586166E+03  0.17300000000E+03 0.  1.
<mgrwt>
<rscale>  2 0.19220406E+03</rscale>
<asrwt>0</asrwt>
<pdfrwt beam="1">  1       21 0.34401964E+00 0.19220406E+03</pdfrwt>
<pdfrwt beam="2">  1       21 0.38707379E-02 0.19220406E+03</pdfrwt>
<totfact> 0.78551467E+03</totfact>
</mgrwt>
</event>
<event>
 4    3  0.4041078E+000  0.1783211E+03  0.7546771E-02  0.1169438E+00
         21   -1    0    0  503  502  0.00000000000E+00  0.00000000000E+00  0.30133951721E+03  0.30133951721E+03  0.00000000000E+00 0. -1.
         21   -1    0    0  501  503 -0.00000000000E+00 -0.00000000000E+00 -0.24966169071E+03  0.24966169071E+03  0.00000000000E+00 0. -1.
          6    1    1    2  501    0  0.20164937364E+02 -0.38246576682E+02 -0.18349327381E+03  0.25586755726E+03  0.17300000000E+03 0. -1.
         -6    1    1    2    0  502 -0.20164937364E+02  0.38246576682E+02  0.23517110031E+03  0.29513365065E+03  0.17300000000E+03 0. -1.
<mgrwt>
<rscale>  2 0.17832113E+03</rscale>
<asrwt>0</asrwt>
<pdfrwt beam="1">  1       21 0.46359926E-01 0.17832113E+03</pdfrwt>
<pdfrwt beam="2">  1       21 0.38409491E-01 0.17832113E+03</pdfrwt>
<totfact> 0.29361588E+04</totfact>
</mgrwt>
</event>
<event>
 4    3  0.4041078E+000  0.1904446E+03  0.7546771E-02  0.1158061E+00
         21   -1    0    0  501  502  0.00000000000E+00  0.00000000000E+00  0.29321069015E+03  0.29321069015E+03  0.00000000000E+00 0.  1.
         21   -1    0    0  502  503 -0.00000000000E+00 -0.00000000000E+00 -0.17235696648E+03  0.17235696648E+03  0.00000000000E+00 0. -1.
          6    1    1    2  501    0 -0.57289005133E+02 -0.55300208072E+02  0.18411453311E+03  0.26489111806E+03  0.17300000000E+03 0.  1.
         -6    1    1    2    0  503  0.57289005133E+02  0.55300208072E+02 -0.63260809437E+02  0.20067653857E+03  0.17300000000E+03 0. -1.
<mgrwt>
<rscale>  2 0.19044459E+03</rscale>
<asrwt>0</asrwt>
<pdfrwt beam="1">  1       21 0.45109337E-01 0.19044459E+03</pdfrwt>
<pdfrwt beam="2">  1       21 0.26516456E-01 0.19044459E+03</pdfrwt>
<totfact> 0.63865090E+04</totfact>
</mgrwt>
</event>
<event>
 4    3  0.4041078E+000  0.2990703E+03  0.7546771E-02  0.1085706E+00
         21   -1    0    0  503  502  0.00000000000E+00  0.00000000000E+00  0.23928535946E+03  0.23928535946E+03  0.00000000000E+00 0.  1.
         21   -1    0    0  501  503 -0.00000000000E+00 -0.00000000000E+00 -0.75308861492E+03  0.75308861492E+03  0.00000000000E+00 0. -1.
          6    1    1    2  501    0 -0.18988721116E+03 -0.15315645003E+03 -0.60903856142E+03  0.67850646308E+03  0.17300000000E+03 0. -1.
         -6    1    1    2    0  502  0.18988721116E+03  0.15315645003E+03  0.95235305966E+02  0.31386751130E+03  0.17300000000E+03 0.  1.
<mgrwt>
<rscale>  2 0.29907031E+03</rscale>
<asrwt>0</asrwt>
<pdfrwt beam="1">  1       21 0.36813133E-01 0.29907031E+03</pdfrwt>
<pdfrwt beam="2">  1       21 0.11585978E+00 0.29907031E+03</pdfrwt>
<totfact> 0.38108050E+03</totfact>
</mgrwt>
</event>
<event>
 4    3  0.4041078E+000  0.1767192E+03  0.7546771E-02  0.1171017E+00
         21   -1    0    0  503  502  0.00000000000E+00  0.00000000000E+00  0.15822670580E+02  0.15822670580E+02  0.00000000000E+00 0. -1.
         21   -1    0    0  501  503 -0.00000000000E+00 -0.00000000000E+00 -0.19869794984E+04  0.19869794984E+04  0.00000000000E+00 0. -1.
          6    1    1    2  501    0 -0.34548809532E+02 -0.10346684484E+02 -0.90380412730E+03  0.92091887517E+03  0.17300000000E+03 0. -1.
         -6    1    1    2    0  502  0.34548809532E+02  0.10346684484E+02 -0.10673527005E+04  0.10818832938E+04  0.17300000000E+03 0. -1.
<mgrwt>
<rscale>  2 0.17671920E+03</rscale>
<asrwt>0</asrwt>
<pdfrwt beam="1">  1       21 0.24342565E-02 0.17671920E+03</pdfrwt>
<pdfrwt beam="2">  1       21 0.30568922E+00 0.17671920E+03</pdfrwt>
<totfact> 0.28719941E+04</totfact>
</mgrwt>
</event>
<event>
 4    3  0.4041078E+000  0.2190356E+03  0.7546771E-02  0.1134604E+00
         21   -1    0    0  503  502  0.00000000000E+00  0.00000000000E+00  0.16444542228E+03  0.16444542228E+03  0.00000000000E+00 0.  1.
         21   -1    0    0  501  503 -0.00000000000E+00 -0.00000000000E+00 -0.30185416285E+03  0.30185416285E+03  0.00000000000E+00 0.  1.
          6    1    1    2  501    0 -0.52947258498E+02  0.12346733887E+03 -0.26043163487E+02  0.22057842668E+03  0.17300000000E+03 0.  1.
         -6    1    1    2    0  502  0.52947258498E+02 -0.12346733887E+03 -0.11136557708E+03  0.24572115845E+03  0.17300000000E+03 0.  1.
<mgrwt>
<rscale>  2 0.21903560E+03</rscale>
<asrwt>0</asrwt>
<pdfrwt beam="1">  1       21 0.25299296E-01 0.21903560E+03</pdfrwt>
<pdfrwt beam="2">  1       21 0.46439101E-01 0.21903560E+03</pdfrwt>
<totfact> 0.64993995E+04</totfact>
</mgrwt>
</event>
<event>
 4    3  0.4041078E+000  0.2365502E+03  0.7546771E-02  0.1122113E+00
         21   -1    0    0  503  502  0.00000000000E+00  0.00000000000E+00  0.20974480783E+03  0.20974480783E+03  0.00000000000E+00 0.  1.
         21   -1    0    0  501  503 -0.00000000000E+00 -0.00000000000E+00 -0.26681890114E+03  0.26681890114E+03  0.00000000000E+00 0. -1.
          6    1    1    2  501    0 -0.15147808859E+03 -0.55510166539E+02 -0.31366186645E+02  0.23862067718E+03  0.17300000000E+03 0.  1.
         -6    1    1    2    0  502  0.15147808859E+03  0.55510166539E+02 -0.25707906657E+02  0.23794303179E+03  0.17300000000E+03 0.  1.
<mgrwt>
<rscale>  2 0.23655018E+03</rscale>
<asrwt>0</asrwt>
<pdfrwt beam="1">  1       21 0.32268432E-01 0.23655018E+03</pdfrwt>
<pdfrwt beam="2">  1       21 0.41049062E-01 0.23655018E+03</pdfrwt>
<totfact> 0.51772975E+04</totfact>
</mgrwt>
</event>
<event>
 4    3  0.4041078E+000  0.2064984E+03  0.7546771E-02  0.1144369E+00
         21   -1    0    0  503  502  0.00000000000E+00  0.00000000000E+00  0.10343039570E+03  0.10343039570E+03  0.00000000000E+00 0. -1.
         21   -1    0    0  501  503 -0.00000000000E+00 -0.00000000000E+00 -0.45283193185E+03  0.45283193185E+03  0.00000000000E+00 0. -1.
          6    1    1    2  501    0  0.93488144493E+02  0.63028183761E+02 -0.25793904113E+03  0.33041509355E+03  0.17300000000E+03 0. -1.
         -6    1    1    2    0  502 -0.93488144493E+02 -0.63028183761E+02 -0.91462495014E+02  0.22584723400E+03  0.17300000000E+03 0. -1.
<mgrwt>
<rscale>  2 0.20649839E+03</rscale>
<asrwt>0</asrwt>
<pdfrwt beam="1">  1       21 0.15912368E-01 0.20649839E+03</pdfrwt>
<pdfrwt beam="2">  1       21 0.69666452E-01 0.20649839E+03</pdfrwt>
<totfact> 0.65531150E+04</totfact>
</mgrwt>
</event>
<event>
 4    3  0.4041078E+000  0.2533363E+03  0.7546771E-02  0.1111214E+00
         21   -1    0    0  503  502  0.00000000000E+00  0.00000000000E+00  0.12843948150E+03  0.12843948150E+03  0.00000000000E+00 0. -1.
         21   -1    0    0  501  503 -0.00000000000E+00 -0.00000000000E+00 -0.50574382033E+03  0.50574382033E+03  0.00000000000E+00 0.  1.
          6    1    1    2  501    0  0.18208484180E+03  0.33096744524E+02 -0.22335884773E+03  0.33774022409E+03  0.17300000000E+03 0. -1.
         -6    1    1    2    0  502 -0.18208484180E+03 -0.33096744524E+02 -0.15394549110E+03  0.29644307774E+03  0.17300000000E+03 0. -1.
<mgrwt>
<rscale>  2 0.25333631E+03</rscale>
<asrwt>0</asrwt>
<pdfrwt beam="1">  1       21 0.19759920E-01 0.25333631E+03</pdfrwt>
<pdfrwt beam="2">  1       21 0.77806741E-01 0.25333631E+03</pdfrwt>
<totfact> 0.33552480E+04</totfact>
</mgrwt>
</event>
<event>
 4    3  0.4041078E+000  0.2016933E+03  0.7546771E-02  0.1148318E+00
         21   -1    0    0  503  502  0.00000000000E+00  0.00000000000E+00  0.45874465160E+02  0.45874465160E+02  0.00000000000E+00 0.  1.
         21   -1    0    0  501  503 -0.00000000000E+00 -0.00000000000E+00 -0.18823059217E+04  0.18823059217E+04  0.00000000000E+00 0. -1.
          6    1    1    2  501    0 -0.46931050449E+02 -0.92458947682E+02 -0.16193491076E+04  0.16318614257E+04  0.17300000000E+03 0. -1.
         -6    1    1    2    0  502  0.46931050449E+02  0.92458947682E+02 -0.21708234894E+03  0.29631896112E+03  0.17300000000E+03 0.  1.
<mgrwt>
<rscale>  2 0.20169328E+03</rscale>
<asrwt>0</asrwt>
<pdfrwt beam="1">  1       21 0.70576101E-02 0.20169328E+03</pdfrwt>
<pdfrwt beam="2">  1       21 0.28958552E+00 0.20169328E+03</pdfrwt>
<totfact> 0.57867477E+03</totfact>
</mgrwt>
</event>
<event>
 4    3  0.4041078E+000  0.2586938E+03  0.7546771E-02  0.1107931E+00
         21   -1    0    0  503  502  0.00000000000E+00  0.00000000000E+00  0.65516826064E+03  0.65516826064E+03  0.00000000000E+00 0. -1.
         21   -1    0    0  501  503 -0.00000000000E+00 -0.00000000000E+00 -0.24638758965E+03  0.24638758965E+03  0.00000000000E+00 0.  1.
          6    1    1    2  501    0 -0.11522383694E+03  0.15400309402E+03 -0.14051446389E+03  0.29439225555E+03  0.17300000000E+03 0.  1.
         -6    1    1    2    0  502  0.11522383694E+03 -0.15400309402E+03  0.54929513488E+03  0.60716359474E+03  0.17300000000E+03 0. -1.
<mgrwt>
<rscale>  2 0.25869381E+03</rscale>
<asrwt>0</asrwt>
<pdfrwt beam="1">  1       21 0.10079512E+00 0.25869381E+03</pdfrwt>
<pdfrwt beam="2">  1       21 0.37905783E-01 0.25869381E+03</pdfrwt>
<totfact> 0.51642143E+03</totfact>
</mgrwt>
</event>
<event>
 4    3  0.4041078E+000  0.3894282E+03  0.7546771E-02  0.1047503E+00
         21   -1    0    0  501  502  0.00000000000E+00  0.00000000000E+00  0.11412210658E+03  0.11412210658E+03  0.00000000000E+00 0. -1.
         21   -1    0    0  502  503 -0.00000000000E+00 -0.00000000000E+00 -0.21190093892E+04  0.21190093892E+04  0.00000000000E+00 0.  1.
          6    1    1    2  501    0  0.12586714180E+02  0.34866445990E+03 -0.32062702621E+03  0.50443633980E+03  0.17300000000E+03 0. -1.
         -6    1    1    2    0  503 -0.12586714180E+02 -0.34866445990E+03 -0.16842602564E+04  0.17286951560E+04  0.17300000000E+03 0. -1.
<mgrwt>
<rscale>  2 0.38942821E+03</rscale>
<asrwt>0</asrwt>
<pdfrwt beam="1">  1       21 0.17557248E-01 0.38942821E+03</pdfrwt>
<pdfrwt beam="2">  1       21 0.32600142E+00 0.38942821E+03</pdfrwt>
<totfact> 0.58460934E+02</totfact>
</mgrwt>
</event>
<event>
 4    3  0.4041078E+000  0.2020162E+03  0.7546771E-02  0.1148049E+00
         21   -1    0    0  501  502  0.00000000000E+00  0.00000000000E+00  0.10646723936E+03  0.10646723936E+03  0.00000000000E+00 0.  1.
         21   -1    0    0  502  503 -0.00000000000E+00 -0.00000000000E+00 -0.10228269501E+04  0.10228269501E+04  0.00000000000E+00 0.  1.
          6    1    1    2  501    0 -0.10261173471E+03 -0.18771484108E+02 -0.11701716369E+02  0.20235480445E+03  0.17300000000E+03 0.  1.
         -6    1    1    2    0  503  0.10261173471E+03  0.18771484108E+02 -0.90465799434E+03  0.92693938499E+03  0.17300000000E+03 0.  1.
<mgrwt>
<rscale>  2 0.20201618E+03</rscale>
<asrwt>0</asrwt>
<pdfrwt beam="1">  1       21 0.16379576E-01 0.20201618E+03</pdfrwt>
<pdfrwt beam="2">  1       21 0.15735799E+00 0.20201618E+03</pdfrwt>
<totfact> 0.87280307E+03</totfact>
</mgrwt>
</event>
<event>
 4    3  0.4041078E+000  0.1782590E+03  0.7546771E-02  0.1169499E+00
         21   -1    0    0  501  502  0.00000000000E+00  0.00000000000E+00  0.19949965448E+03  0.19949965448E+03  0.00000000000E+00 0. -1.
         21   -1    0    0  502  503 -0.00000000000E+00 -0.00000000000E+00 -0.17893225975E+03  0.17893225975E+03  0.00000000000E+00 0. -1.
          6    1    1    2  501    0 -0.47313771857E+01 -0.42718649708E+02  0.72991513654E+02  0.19262406399E+03  0.17300000000E+03 0. -1.
         -6    1    1    2    0  503  0.47313771857E+01  0.42718649708E+02 -0.52424118927E+02  0.18580785023E+03  0.17300000000E+03 0. -1.
<mgrwt>
<rscale>  2 0.17825899E+03</rscale>
<asrwt>0</asrwt>
<pdfrwt beam="1">  1       21 0.30692255E-01 0.17825899E+03</pdfrwt>
<pdfrwt beam="2">  1       21 0.27528040E-01 0.17825899E+03</pdfrwt>
<totfact> 0.12895588E+05</totfact>
</mgrwt>
</event>
<event>
 4    3  0.4041078E+000  0.1983434E+03  0.7546771E-02  0.1151144E+00
         21   -1    0    0  501  502  0.00000000000E+00  0.00000000000E+00  0.14010447518E+04  0.14010447518E+04  0.00000000000E+00 0. -1.
         21   -1    0    0  502  503 -0.00000000000E+00 -0.00000000000E+00 -0.11071347333E+03  0.11071347333E+03  0.00000000000E+00 0. -1.
          6    1    1    2  501    0 -0.75022064215E+02  0.61504322913E+02  0.12981946050E+04  0.13132590469E+04  0.17300000000E+03 0. -1.
         -6    1    1    2    0  503  0.75022064215E+02 -0.61504322913E+02 -0.78633265142E+01  0.19849917823E+03  0.17300000000E+03 0. -1.
<mgrwt>
<rscale>  2 0.19834337E+03</rscale>
<asrwt>0</asrwt>
<pdfrwt beam="1">  1       21 0.21554533E+00 0.19834337E+03</pdfrwt>
<pdfrwt beam="2">  1       21 0.17032843E-01 0.19834337E+03</pdfrwt>
<totfact> 0.33124004E+03</totfact>
</mgrwt>
</event>
<event>
 4    3  0.4041078E+000  0.2626693E+03  0.7546771E-02  0.1105550E+00
         21   -1    0    0  503  502  0.00000000000E+00  0.00000000000E+00  0.12554169261E+04  0.12554169261E+04  0.00000000000E+00 0.  1.
         21   -1    0    0  501  503 -0.00000000000E+00 -0.00000000000E+00 -0.13480660403E+03  0.13480660403E+03  0.00000000000E+00 0. -1.
          6    1    1    2  501    0  0.19505316971E+03 -0.31943751241E+02  0.25330944398E+02  0.26388785307E+03  0.17300000000E+03 0. -1.
         -6    1    1    2    0  502 -0.19505316971E+03  0.31943751241E+02  0.10952793777E+04  0.11263356771E+04  0.17300000000E+03 0.  1.
<mgrwt>
<rscale>  2 0.26266926E+03</rscale>
<asrwt>0</asrwt>
<pdfrwt beam="1">  1       21 0.19314106E+00 0.26266926E+03</pdfrwt>
<pdfrwt beam="2">  1       21 0.20739478E-01 0.26266926E+03</pdfrwt>
<totfact> 0.30232312E+03</totfact>
</mgrwt>
</event>
<event>
 4    3  0.4041078E+000  0.2003068E+03  0.7546771E-02  0.1149480E+00
         21   -1    0    0  501  502  0.00000000000E+00  0.00000000000E+00  0.11276729002E+03  0.11276729002E+03  0.00000000000E+00 0.  1.
         21   -1    0    0  502  503 -0.00000000000E+00 -0.00000000000E+00 -0.52856967649E+03  0.52856967649E+03  0.00000000000E+00 0.  1.
          6    1    1    2  501    0 -0.81240620561E+02 -0.59948017469E+02 -0.39123251528E+03  0.43952893447E+03  0.17300000000E+03 0.  1.
         -6    1    1    2    0  503  0.81240620561E+02  0.59948017469E+02 -0.24569871190E+02  0.20180803205E+03  0.17300000000E+03 0.  1.
<mgrwt>
<rscale>  2 0.20030677E+03</rscale>
<asrwt>0</asrwt>
<pdfrwt beam="1">  1       21 0.17348814E-01 0.20030677E+03</pdfrwt>
<pdfrwt beam="2">  1       21 0.81318412E-01 0.20030677E+03</pdfrwt>
<totfact> 0.39669608E+04</totfact>
</mgrwt>
</event>
<event>
 4    3  0.4041078E+000  0.2804917E+03  0.7546771E-02  0.1095421E+00
         21   -1    0    0  501  502  0.00000000000E+00  0.00000000000E+00  0.22187828668E+03  0.22187828668E+03  0.00000000000E+00 0. -1.
         21   -1    0    0  502  503 -0.00000000000E+00 -0.00000000000E+00 -0.53947840533E+03  0.53947840533E+03  0.00000000000E+00 0.  1.
          6    1    1    2  501    0 -0.21929065320E+03 -0.25654978914E+02  0.64057474109E+02  0.28771327483E+03  0.17300000000E+03 0. -1.
         -6    1    1    2    0  503  0.21929065320E+03  0.25654978914E+02 -0.38165759276E+03  0.47364341718E+03  0.17300000000E+03 0.  1.
<mgrwt>
<rscale>  2 0.28049165E+03</rscale>
<asrwt>0</asrwt>
<pdfrwt beam="1">  1       21 0.34135121E-01 0.28049165E+03</pdfrwt>
<pdfrwt beam="2">  1       21 0.82996678E-01 0.28049165E+03</pdfrwt>
<totfact> 0.99337515E+03</totfact>
</mgrwt>
</event>
<event>
 4    3  0.4041078E+000  0.1846299E+03  0.7546771E-02  0.1163396E+00
         21   -1    0    0  501  502  0.00000000000E+00  0.00000000000E+00  0.12213874659E+04  0.12213874659E+04  0.00000000000E+00 0. -1.
         21   -1    0    0  502  503 -0.00000000000E+00 -0.00000000000E+00 -0.38195863717E+03  0.38195863717E+03  0.00000000000E+00 0. -1.
          6    1    1    2  501    0 -0.59153944490E+02  0.25690395039E+02  0.11915431645E+04  0.12057625382E+04  0.17300000000E+03 0. -1.
         -6    1    1    2    0  503  0.59153944490E+02 -0.25690395039E+02 -0.35211433583E+03  0.39758356485E+03  0.17300000000E+03 0. -1.
<mgrwt>
<rscale>  2 0.18462986E+03</rscale>
<asrwt>0</asrwt>
<pdfrwt beam="1">  1       21 0.18790576E+00 0.18462986E+03</pdfrwt>
<pdfrwt beam="2">  1       21 0.58762868E-01 0.18462986E+03</pdfrwt>
<totfact> 0.44066678E+02</totfact>
</mgrwt>
</event>
<event>
 4    3  0.4041078E+000  0.1989374E+03  0.7546771E-02  0.1150639E+00
         21   -1    0    0  501  502  0.00000000000E+00  0.00000000000E+00  0.49899443302E+03  0.49899443302E+03  0.00000000000E+00 0. -1.
         21   -1    0    0  502  503 -0.00000000000E+00 -0.00000000000E+00 -0.15035043853E+03  0.15035043853E+03  0.00000000000E+00 0. -1.
          6    1    1    2  501    0 -0.33062064528E+02 -0.92487809200E+02  0.39749450891E+03  0.44449744608E+03  0.17300000000E+03 0. -1.
         -6    1    1    2    0  503  0.33062064528E+02  0.92487809200E+02 -0.48850514421E+02  0.20484742547E+03  0.17300000000E+03 0. -1.
<mgrwt>
<rscale>  2 0.19893741E+03</rscale>
<asrwt>0</asrwt>
<pdfrwt beam="1">  1       21 0.76768374E-01 0.19893741E+03</pdfrwt>
<pdfrwt beam="2">  1       21 0.23130837E-01 0.19893741E+03</pdfrwt>
<totfact> 0.26403155E+04</totfact>
</mgrwt>
</event>
<event>
 4    3  0.4041078E+000  0.2554323E+03  0.7546771E-02  0.1109919E+00
         21   -1    0    0  501  502  0.00000000000E+00  0.00000000000E+00  0.22730767842E+03  0.22730767842E+03  0.00000000000E+00 0. -1.
         21   -1    0    0  502  503 -0.00000000000E+00 -0.00000000000E+00 -0.31846879973E+03  0.31846879973E+03  0.00000000000E+00 0.  1.
          6    1    1    2  501    0  0.18682129259E+03  0.20358873780E+02 -0.13131139708E+03  0.28720787265E+03  0.17300000000E+03 0.  1.
         -6    1    1    2    0  503 -0.18682129259E+03 -0.20358873780E+02  0.40150275770E+02  0.25856860550E+03  0.17300000000E+03 0. -1.
<mgrwt>
<rscale>  2 0.25543234E+03</rscale>
<asrwt>0</asrwt>
<pdfrwt beam="1">  1       21 0.34970412E-01 0.25543234E+03</pdfrwt>
<pdfrwt beam="2">  1       21 0.48995200E-01 0.25543234E+03</pdfrwt>
<totfact> 0.30377587E+04</totfact>
</mgrwt>
</event>
<event>
 4    3  0.4041078E+000  0.1811307E+03  0.7546771E-02  0.1166713E+00
         21   -1    0    0  501  502  0.00000000000E+00  0.00000000000E+00  0.49213711594E+02  0.49213711594E+02  0.00000000000E+00 0.  1.
         21   -1    0    0  502  503 -0.00000000000E+00 -0.00000000000E+00 -0.78988531492E+03  0.78988531492E+03  0.00000000000E+00 0.  1.
          6    1    1    2  501    0 -0.52838731325E+02 -0.93479155021E+01 -0.20461806303E+03  0.27327068407E+03  0.17300000000E+03 0.  1.
         -6    1    1    2    0  503  0.52838731325E+02  0.93479155021E+01 -0.53605354030E+03  0.56582834245E+03  0.17300000000E+03 0.  1.
<mgrwt>
<rscale>  2 0.18113066E+03</rscale>
<asrwt>0</asrwt>
<pdfrwt beam="1">  1       21 0.75713410E-02 0.18113066E+03</pdfrwt>
<pdfrwt beam="2">  1       21 0.12152081E+00 0.18113066E+03</pdfrwt>
<totfact> 0.67966898E+04</totfact>
</mgrwt>
</event>
<event>
 4    3  0.4041078E+000  0.1793082E+03  0.7546771E-02  0.1168474E+00
         21   -1    0    0  503  502  0.00000000000E+00  0.00000000000E+00  0.54044759063E+02  0.54044759063E+02  0.00000000000E+00 0. -1.
         21   -1    0    0  501  503 -0.00000000000E+00 -0.00000000000E+00 -0.70677798778E+03  0.70677798778E+03  0.00000000000E+00 0. -1.
          6    1    1    2  501    0  0.22077147292E+02 -0.41653848630E+02 -0.47771456261E+03  0.51025743196E+03  0.17300000000E+03 0. -1.
         -6    1    1    2    0  502 -0.22077147292E+02  0.41653848630E+02 -0.17501866611E+03  0.25056531489E+03  0.17300000000E+03 0. -1.
<mgrwt>
<rscale>  2 0.17930824E+03</rscale>
<asrwt>0</asrwt>
<pdfrwt beam="1">  1       21 0.83145792E-02 0.17930824E+03</pdfrwt>
<pdfrwt beam="2">  1       21 0.10873506E+00 0.17930824E+03</pdfrwt>
<totfact> 0.75816731E+04</totfact>
</mgrwt>
</event>
<event>
 4    3  0.4041078E+000  0.2134180E+03  0.7546771E-02  0.1138888E+00
         21   -1    0    0  503  502  0.00000000000E+00  0.00000000000E+00  0.36434981436E+03  0.36434981436E+03  0.00000000000E+00 0.  1.
         21   -1    0    0  501  503 -0.00000000000E+00 -0.00000000000E+00 -0.14869002679E+03  0.14869002679E+03  0.00000000000E+00 0.  1.
          6    1    1    2  501    0  0.12375575083E+03  0.17400404946E+02  0.54595766751E+01  0.21348786133E+03  0.17300000000E+03 0.  1.
         -6    1    1    2    0  502 -0.12375575083E+03 -0.17400404946E+02  0.21020021090E+03  0.29955197983E+03  0.17300000000E+03 0.  1.
<mgrwt>
<rscale>  2 0.21341804E+03</rscale>
<asrwt>0</asrwt>
<pdfrwt beam="1">  1       21 0.56053817E-01 0.21341804E+03</pdfrwt>
<pdfrwt beam="2">  1       21 0.22875389E-01 0.21341804E+03</pdfrwt>
<totfact> 0.53200957E+04</totfact>
</mgrwt>
</event>
<event>
 4    3  0.4041078E+000  0.1927324E+03  0.7546771E-02  0.1156020E+00
         21   -1    0    0  503  502  0.00000000000E+00  0.00000000000E+00  0.79173284991E+02  0.79173284991E+02  0.00000000000E+00 0.  1.
         21   -1    0    0  501  503 -0.00000000000E+00 -0.00000000000E+00 -0.13710762233E+04  0.13710762233E+04  0.00000000000E+00 0.  1.
          6    1    1    2  501    0 -0.28037162707E+02 -0.80191644522E+02 -0.12340667510E+04  0.12490262320E+04  0.17300000000E+03 0.  1.
         -6    1    1    2    0  502  0.28037162707E+02  0.80191644522E+02 -0.57836187282E+02  0.20122327625E+03  0.17300000000E+03 0.  1.
<mgrwt>
<rscale>  2 0.19273241E+03</rscale>
<asrwt>0</asrwt>
<pdfrwt beam="1">  1       21 0.12180506E-01 0.19273241E+03</pdfrwt>
<pdfrwt beam="2">  1       21 0.21093479E+00 0.19273241E+03</pdfrwt>
<totfact> 0.65408855E+03</totfact>
</mgrwt>
</event>
<event>
 4    3  0.4041078E+000  0.1747710E+03  0.7546771E-02  0.1172962E+00
         21   -1    0    0  501  502  0.00000000000E+00  0.00000000000E+00  0.33186642004E+03  0.33186642004E+03  0.00000000000E+00 0.  1.
         21   -1    0    0  502  503 -0.00000000000E+00 -0.00000000000E+00 -0.18329301363E+03  0.18329301363E+03  0.00000000000E+00 0.  1.
          6    1    1    2  501    0 -0.18509405608E+02 -0.16531633505E+02  0.25603191393E+03  0.30999553860E+03  0.17300000000E+03 0.  1.
         -6    1    1    2    0  503  0.18509405608E+02  0.16531633505E+02 -0.10745850752E+03  0.20516389507E+03  0.17300000000E+03 0.  1.
<mgrwt>
<rscale>  2 0.17477097E+03</rscale>
<asrwt>0</asrwt>
<pdfrwt beam="1">  1       21 0.51056372E-01 0.17477097E+03</pdfrwt>
<pdfrwt beam="2">  1       21 0.28198925E-01 0.17477097E+03</pdfrwt>
<totfact> 0.44225125E+04</totfact>
</mgrwt>
</event>
<event>
 4    3  0.4041078E+000  0.1863444E+03  0.7546771E-02  0.1161800E+00
         21   -1    0    0  503  502  0.00000000000E+00  0.00000000000E+00  0.67674024589E+02  0.67674024589E+02  0.00000000000E+00 0. -1.
         21   -1    0    0  501  503 -0.00000000000E+00 -0.00000000000E+00 -0.54159046040E+03  0.54159046040E+03  0.00000000000E+00 0. -1.
          6    1    1    2  501    0 -0.31139397668E+02  0.61851341053E+02 -0.16710115960E+03  0.25029392325E+03  0.17300000000E+03 0. -1.
         -6    1    1    2    0  502  0.31139397668E+02 -0.61851341053E+02 -0.30681527622E+03  0.35897056174E+03  0.17300000000E+03 0. -1.
<mgrwt>
<rscale>  2 0.18634444E+03</rscale>
<asrwt>0</asrwt>
<pdfrwt beam="1">  1       21 0.10411388E-01 0.18634444E+03</pdfrwt>
<pdfrwt beam="2">  1       21 0.83321610E-01 0.18634444E+03</pdfrwt>
<totfact> 0.94997600E+04</totfact>
</mgrwt>
</event>
<event>
 4    3  0.4041078E+000  0.1746567E+03  0.7546771E-02  0.1173077E+00
         21   -1    0    0  503  502  0.00000000000E+00  0.00000000000E+00  0.59182946596E+02  0.59182946596E+02  0.00000000000E+00 0. -1.
         21   -1    0    0  501  503 -0.00000000000E+00 -0.00000000000E+00 -0.53492234843E+03  0.53492234843E+03  0.00000000000E+00 0. -1.
          6    1    1    2  501    0 -0.20617796182E+02  0.12283099397E+02 -0.18117227960E+03  0.25165127249E+03  0.17300000000E+03 0. -1.
         -6    1    1    2    0  502  0.20617796182E+02 -0.12283099397E+02 -0.29456712223E+03  0.34245402254E+03  0.17300000000E+03 0. -1.
<mgrwt>
<rscale>  2 0.17465671E+03</rscale>
<asrwt>0</asrwt>
<pdfrwt beam="1">  1       21 0.91050690E-02 0.17465671E+03</pdfrwt>
<pdfrwt beam="2">  1       21 0.82295744E-01 0.17465671E+03</pdfrwt>
<totfact> 0.12429188E+05</totfact>
</mgrwt>
</event>
<event>
 4    3  0.4041078E+000  0.2186451E+03  0.7546771E-02  0.1134897E+00
         21   -1    0    0  501  502  0.00000000000E+00  0.00000000000E+00  0.26492621162E+03  0.26492621162E+03  0.00000000000E+00 0. -1.
         21   -1    0    0  502  503 -0.00000000000E+00 -0.00000000000E+00 -0.18045696476E+03  0.18045696476E+03  0.00000000000E+00 0.  1.
          6    1    1    2  501    0  0.12753121821E+03 -0.40155806358E+02  0.40765872945E+02  0.22241303199E+03  0.17300000000E+03 0. -1.
         -6    1    1    2    0  503 -0.12753121821E+03  0.40155806358E+02  0.43703373914E+02  0.22297014440E+03  0.17300000000E+03 0.  1.
<mgrwt>
<rscale>  2 0.21864515E+03</rscale>
<asrwt>0</asrwt>
<pdfrwt beam="1">  1       21 0.40757879E-01 0.21864515E+03</pdfrwt>
<pdfrwt beam="2">  1       21 0.27762610E-01 0.21864515E+03</pdfrwt>
<totfact> 0.71021315E+04</totfact>
</mgrwt>
</event>
<event>
 4    3  0.4041078E+000  0.2047325E+03  0.7546771E-02  0.1145807E+00
         21   -1    0    0  503  502  0.00000000000E+00  0.00000000000E+00  0.61090519624E+03  0.61090519624E+03  0.00000000000E+00 0. -1.
         21   -1    0    0  501  503 -0.00000000000E+00 -0.00000000000E+00 -0.84759762532E+02  0.84759762532E+02  0.00000000000E+00 0.  1.
          6    1    1    2  501    0  0.72844808592E+02  0.81731426799E+02  0.11125158824E+03  0.23300709893E+03  0.17300000000E+03 0.  1.
         -6    1    1    2    0  502 -0.72844808592E+02 -0.81731426799E+02  0.41489384547E+03  0.46265785985E+03  0.17300000000E+03 0. -1.
<mgrwt>
<rscale>  2 0.20473249E+03</rscale>
<asrwt>0</asrwt>
<pdfrwt beam="1">  1       21 0.93985412E-01 0.20473249E+03</pdfrwt>
<pdfrwt beam="2">  1       21 0.13039964E-01 0.20473249E+03</pdfrwt>
<totfact> 0.47721417E+04</totfact>
</mgrwt>
</event>
<event>
 4    3  0.4041078E+000  0.2039038E+03  0.7546771E-02  0.1146487E+00
         21   -1    0    0  501  502  0.00000000000E+00  0.00000000000E+00  0.17561574181E+03  0.17561574181E+03  0.00000000000E+00 0. -1.
         21   -1    0    0  502  503 -0.00000000000E+00 -0.00000000000E+00 -0.26240776099E+03  0.26240776099E+03  0.00000000000E+00 0. -1.
          6    1    1    2  501    0  0.96382693050E+02 -0.48560441175E+02  0.25090066514E+02  0.20544160096E+03  0.17300000000E+03 0. -1.
         -6    1    1    2    0  503 -0.96382693050E+02  0.48560441175E+02 -0.11188208569E+03  0.23258190185E+03  0.17300000000E+03 0. -1.
<mgrwt>
<rscale>  2 0.20390375E+03</rscale>
<asrwt>0</asrwt>
<pdfrwt beam="1">  1       21 0.27017806E-01 0.20390375E+03</pdfrwt>
<pdfrwt beam="2">  1       21 0.40370425E-01 0.20390375E+03</pdfrwt>
<totfact> 0.76794807E+04</totfact>
</mgrwt>
</event>
<event>
 4    3  0.4041078E+000  0.2683295E+03  0.7546771E-02  0.1102240E+00
         21   -1    0    0  503  502  0.00000000000E+00  0.00000000000E+00  0.21637321745E+03  0.21637321745E+03  0.00000000000E+00 0.  1.
         21   -1    0    0  501  503 -0.00000000000E+00 -0.00000000000E+00 -0.90747517327E+03  0.90747517327E+03  0.00000000000E+00 0.  1.
          6    1    1    2  501    0  0.20442986282E+03 -0.16737273164E+02 -0.79273478694E+03  0.83691645195E+03  0.17300000000E+03 0.  1.
         -6    1    1    2    0  502 -0.20442986282E+03  0.16737273164E+02  0.10163283111E+03  0.28693193877E+03  0.17300000000E+03 0.  1.
<mgrwt>
<rscale>  2 0.26832947E+03</rscale>
<asrwt>0</asrwt>
<pdfrwt beam="1">  1       21 0.33288187E-01 0.26832947E+03</pdfrwt>
<pdfrwt beam="2">  1       21 0.13961157E+00 0.26832947E+03</pdfrwt>
<totfact> 0.29545035E+03</totfact>
</mgrwt>
</event>
<event>
 4    3  0.4041078E+000  0.2041285E+03  0.7546771E-02  0.1146302E+00
         21   -1    0    0  503  502  0.00000000000E+00  0.00000000000E+00  0.64428877820E+03  0.64428877820E+03  0.00000000000E+00 0.  1.
         21   -1    0    0  501  503 -0.00000000000E+00 -0.00000000000E+00 -0.68619095000E+02  0.68619095000E+02  0.00000000000E+00 0. -1.
          6    1    1    2  501    0  0.26906207989E+02 -0.10495484892E+03  0.20236113096E+03  0.28743432582E+03  0.17300000000E+03 0. -1.
         -6    1    1    2    0  502 -0.26906207989E+02  0.10495484892E+03  0.37330855225E+03  0.42547354738E+03  0.17300000000E+03 0. -1.
<mgrwt>
<rscale>  2 0.20412855E+03</rscale>
<asrwt>0</asrwt>
<pdfrwt beam="1">  1       21 0.99121347E-01 0.20412855E+03</pdfrwt>
<pdfrwt beam="2">  1       21 0.10556784E-01 0.20412855E+03</pdfrwt>
<totfact> 0.61457726E+04</totfact>
</mgrwt>
</event>
<event>
 4    3  0.4041078E+000  0.2806114E+03  0.7546771E-02  0.1095355E+00
         21   -1    0    0  501  502  0.00000000000E+00  0.00000000000E+00  0.26088577997E+03  0.26088577997E+03  0.00000000000E+00 0. -1.
         21   -1    0    0  502  503 -0.00000000000E+00 -0.00000000000E+00 -0.36217442142E+03  0.36217442142E+03  0.00000000000E+00 0.  1.
          6    1    1    2  501    0  0.22050672152E+03 -0.13803084950E+02  0.76520043384E+02  0.29085745036E+03  0.17300000000E+03 0.  1.
         -6    1    1    2    0  503 -0.22050672152E+03  0.13803084950E+02 -0.17780868484E+03  0.33220275103E+03  0.17300000000E+03 0. -1.
<mgrwt>
<rscale>  2 0.28061137E+03</rscale>
<asrwt>0</asrwt>
<pdfrwt beam="1">  1       21 0.40136274E-01 0.28061137E+03</pdfrwt>
<pdfrwt beam="2">  1       21 0.55719142E-01 0.28061137E+03</pdfrwt>
<totfact> 0.17331059E+04</totfact>
</mgrwt>
</event>
<event>
 4    3  0.4041078E+000  0.3332045E+03  0.7546771E-02  0.1069728E+00
         21   -1    0    0  503  502  0.00000000000E+00  0.00000000000E+00  0.66716110274E+03  0.66716110274E+03  0.00000000000E+00 0. -1.
         21   -1    0    0  501  503 -0.00000000000E+00 -0.00000000000E+00 -0.16749429034E+03  0.16749429034E+03  0.00000000000E+00 0.  1.
          6    1    1    2  501    0  0.22970814031E+03 -0.16831637105E+03  0.21632434590E+03  0.39726748309E+03  0.17300000000E+03 0.  1.
         -6    1    1    2    0  502 -0.22970814031E+03  0.16831637105E+03  0.28334246650E+03  0.43738791000E+03  0.17300000000E+03 0. -1.
<mgrwt>
<rscale>  2 0.33320449E+03</rscale>
<asrwt>0</asrwt>
<pdfrwt beam="1">  1       21 0.10264017E+00 0.33320449E+03</pdfrwt>
<pdfrwt beam="2">  1       21 0.25768353E-01 0.33320449E+03</pdfrwt>
<totfact> 0.10219696E+04</totfact>
</mgrwt>
</event>
<event>
 4    3  0.4041078E+000  0.2007271E+03  0.7546771E-02  0.1149127E+00
         21   -1    0    0  501  502  0.00000000000E+00  0.00000000000E+00  0.66572940980E+02  0.66572940980E+02  0.00000000000E+00 0.  1.
         21   -1    0    0  502  503 -0.00000000000E+00 -0.00000000000E+00 -0.95108231775E+03  0.95108231775E+03  0.00000000000E+00 0. -1.
          6    1    1    2  501    0 -0.70771881111E+02  0.73168919018E+02 -0.13541427960E+03  0.24213297377E+03  0.17300000000E+03 0. -1.
         -6    1    1    2    0  503  0.70771881111E+02 -0.73168919018E+02 -0.74909509718E+03  0.77552228497E+03  0.17300000000E+03 0. -1.
<mgrwt>
<rscale>  2 0.20072705E+03</rscale>
<asrwt>0</asrwt>
<pdfrwt beam="1">  1       21 0.10241992E-01 0.20072705E+03</pdfrwt>
<pdfrwt beam="2">  1       21 0.14632034E+00 0.20072705E+03</pdfrwt>
<totfact> 0.24686619E+04</totfact>
</mgrwt>
</event>
<event>
 4    3  0.4041078E+000  0.2580411E+03  0.7546771E-02  0.1108326E+00
         21   -1    0    0  503  502  0.00000000000E+00  0.00000000000E+00  0.52097685844E+03  0.52097685844E+03  0.00000000000E+00 0.  1.
         21   -1    0    0  501  503 -0.00000000000E+00 -0.00000000000E+00 -0.18980432191E+03  0.18980432191E+03  0.00000000000E+00 0.  1.
          6    1    1    2  501    0 -0.12834413627E+03 -0.14207030717E+03 -0.37525287983E+02  0.26075531966E+03  0.17300000000E+03 0.  1.
         -6    1    1    2    0  502  0.12834413627E+03  0.14207030717E+03  0.36869782450E+03  0.45002586069E+03  0.17300000000E+03 0.  1.
<mgrwt>
<rscale>  2 0.25804106E+03</rscale>
<asrwt>0</asrwt>
<pdfrwt beam="1">  1       21 0.80150285E-01 0.25804106E+03</pdfrwt>
<pdfrwt beam="2">  1       21 0.29200665E-01 0.25804106E+03</pdfrwt>
<totfact> 0.14813984E+04</totfact>
</mgrwt>
</event>
<event>
 4    3  0.4041078E+000  0.1732615E+03  0.7546771E-02  0.1174489E+00
         21   -1    0    0  503  502  0.00000000000E+00  0.00000000000E+00  0.39865708551E+03  0.39865708551E+03  0.00000000000E+00 0.  1.
         21   -1    0    0  501  503 -0.00000000000E+00 -0.00000000000E+00 -0.10385252269E+03  0.10385252269E+03  0.00000000000E+00 0.  1.
          6    1    1    2  501    0 -0.86211324079E+01  0.40272330458E+01  0.15662959251E+02  0.17396801667E+03  0.17300000000E+03 0.  1.
         -6    1    1    2    0  502  0.86211324079E+01 -0.40272330458E+01  0.27914160356E+03  0.32854159154E+03  0.17300000000E+03 0.  1.
<mgrwt>
<rscale>  2 0.17326149E+03</rscale>
<asrwt>0</asrwt>
<pdfrwt beam="1">  1       21 0.61331859E-01 0.17326149E+03</pdfrwt>
<pdfrwt beam="2">  1       21 0.15977311E-01 0.17326149E+03</pdfrwt>
<totfact> 0.87091579E+04</totfact>
</mgrwt>
</event>
<event>
 4    3  0.4041078E+000  0.1775132E+03  0.7546771E-02  0.1170232E+00
         21   -1    0    0  501  502  0.00000000000E+00  0.00000000000E+00  0.47063848359E+03  0.47063848359E+03  0.00000000000E+00 0. -1.
         21   -1    0    0  502  503 -0.00000000000E+00 -0.00000000000E+00 -0.24688235427E+03  0.24688235427E+03  0.00000000000E+00 0. -1.
          6    1    1    2  501    0 -0.39682708127E+02  0.26896188103E+01  0.41815180107E+03  0.45427071237E+03  0.17300000000E+03 0. -1.
         -6    1    1    2    0  503  0.39682708127E+02 -0.26896188103E+01 -0.19439567175E+03  0.26325012549E+03  0.17300000000E+03 0. -1.
<mgrwt>
<rscale>  2 0.17751324E+03</rscale>
<asrwt>0</asrwt>
<pdfrwt beam="1">  1       21 0.72405921E-01 0.17751324E+03</pdfrwt>
<pdfrwt beam="2">  1       21 0.37981901E-01 0.17751324E+03</pdfrwt>
<totfact> 0.11613578E+04</totfact>
</mgrwt>
</event>
<event>
 4    3  0.4041078E+000  0.2715587E+03  0.7546771E-02  0.1100391E+00
         21   -1    0    0  501  502  0.00000000000E+00  0.00000000000E+00  0.23175940170E+03  0.23175940170E+03  0.00000000000E+00 0.  1.
         21   -1    0    0  502  503 -0.00000000000E+00 -0.00000000000E+00 -0.70957153251E+03  0.70957153251E+03  0.00000000000E+00 0.  1.
          6    1    1    2  501    0  0.12189494578E+03  0.17016689296E+03  0.11064683599E+03  0.29323518135E+03  0.17300000000E+03 0.  1.
         -6    1    1    2    0  503 -0.12189494578E+03 -0.17016689296E+03 -0.58845896680E+03  0.64809575286E+03  0.17300000000E+03 0.  1.
<mgrwt>
<rscale>  2 0.27155874E+03</rscale>
<asrwt>0</asrwt>
<pdfrwt beam="1">  1       21 0.35655293E-01 0.27155874E+03</pdfrwt>
<pdfrwt beam="2">  1       21 0.10916485E+00 0.27155874E+03</pdfrwt>
<totfact> 0.47776456E+03</totfact>
</mgrwt>
</event>
<event>
 4    3  0.4041078E+000  0.1893548E+03  0.7546771E-02  0.1159045E+00
         21   -1    0    0  501  502  0.00000000000E+00  0.00000000000E+00  0.22134907732E+04  0.22134907732E+04  0.00000000000E+00 0. -1.
         21   -1    0    0  502  503 -0.00000000000E+00 -0.00000000000E+00 -0.16376626968E+02  0.16376626968E+02  0.00000000000E+00 0. -1.
          6    1    1    2  501    0  0.57226502515E+02 -0.51491378023E+02  0.12148355347E+04  0.12295042134E+04  0.17300000000E+03 0.  1.
         -6    1    1    2    0  503 -0.57226502515E+02  0.51491378023E+02  0.98227861153E+03  0.10003631867E+04  0.17300000000E+03 0.  1.
<mgrwt>
<rscale>  2 0.18935478E+03</rscale>
<asrwt>0</asrwt>
<pdfrwt beam="1">  1       21 0.34053681E+00 0.18935478E+03</pdfrwt>
<pdfrwt beam="2">  1       21 0.25194828E-02 0.18935478E+03</pdfrwt>
<totfact> 0.16833647E+04</totfact>
</mgrwt>
</event>
<event>
 4    3  0.4041078E+000  0.1921494E+03  0.7546771E-02  0.1156537E+00
         21   -1    0    0  501  502  0.00000000000E+00  0.00000000000E+00  0.58073912511E+02  0.58073912511E+02  0.00000000000E+00 0.  1.
         21   -1    0    0  502  503 -0.00000000000E+00 -0.00000000000E+00 -0.14101763126E+04  0.14101763126E+04  0.00000000000E+00 0. -1.
          6    1    1    2  501    0  0.79530079216E+02 -0.25833197515E+02 -0.13202591077E+03  0.23313564444E+03  0.17300000000E+03 0.  1.
         -6    1    1    2    0  503 -0.79530079216E+02  0.25833197515E+02 -0.12200764893E+04  0.12351145807E+04  0.17300000000E+03 0. -1.
<mgrwt>
<rscale>  2 0.19214939E+03</rscale>
<asrwt>0</asrwt>
<pdfrwt beam="1">  1       21 0.89344483E-02 0.19214939E+03</pdfrwt>
<pdfrwt beam="2">  1       21 0.21695020E+00 0.19214939E+03</pdfrwt>
<totfact> 0.10397950E+04</totfact>
</mgrwt>
</event>
<event>
 4    3  0.4041078E+000  0.1895974E+03  0.7546771E-02  0.1158825E+00
         21   -1    0    0  501  502  0.00000000000E+00  0.00000000000E+00  0.24120121657E+03  0.24120121657E+03  0.00000000000E+00 0. -1.
         21   -1    0    0  502  503 -0.00000000000E+00 -0.00000000000E+00 -0.31695231910E+03  0.31695231910E+03  0.00000000000E+00 0.  1.
          6    1    1    2  501    0  0.18171717995E+02 -0.75418664057E+02  0.16525522803E+03  0.25150840267E+03  0.17300000000E+03 0. -1.
         -6    1    1    2    0  503 -0.18171717995E+02  0.75418664057E+02 -0.24100633056E+03  0.30664513300E+03  0.17300000000E+03 0.  1.
<mgrwt>
<rscale>  2 0.18959743E+03</rscale>
<asrwt>0</asrwt>
<pdfrwt beam="1">  1       21 0.37107880E-01 0.18959743E+03</pdfrwt>
<pdfrwt beam="2">  1       21 0.48761895E-01 0.18959743E+03</pdfrwt>
<totfact> 0.28165296E+04</totfact>
</mgrwt>
</event>
<event>
 4    3  0.4041078E+000  0.2128853E+03  0.7546771E-02  0.1139301E+00
         21   -1    0    0  503  502  0.00000000000E+00  0.00000000000E+00  0.45230862291E+03  0.45230862291E+03  0.00000000000E+00 0.  1.
         21   -1    0    0  501  503 -0.00000000000E+00 -0.00000000000E+00 -0.16260963342E+03  0.16260963342E+03  0.00000000000E+00 0. -1.
          6    1    1    2  501    0  0.12405182305E+03  0.15118975134E+01 -0.45630414178E+02  0.21772063599E+03  0.17300000000E+03 0. -1.
         -6    1    1    2    0  502 -0.12405182305E+03 -0.15118975134E+01  0.33532940367E+03  0.39719762034E+03  0.17300000000E+03 0.  1.
<mgrwt>
<rscale>  2 0.21288528E+03</rscale>
<asrwt>0</asrwt>
<pdfrwt beam="1">  1       21 0.69585941E-01 0.21288528E+03</pdfrwt>
<pdfrwt beam="2">  1       21 0.25016867E-01 0.21288528E+03</pdfrwt>
<totfact> 0.28081283E+04</totfact>
</mgrwt>
</event>
<event>
 4    3  0.4041078E+000  0.5461023E+03  0.7546771E-02  0.1002400E+00
         21   -1    0    0  501  502  0.00000000000E+00  0.00000000000E+00  0.52052031591E+03  0.52052031591E+03  0.00000000000E+00 0.  1.
         21   -1    0    0  502  503 -0.00000000000E+00 -0.00000000000E+00 -0.62919226759E+03  0.62919226759E+03  0.00000000000E+00 0. -1.
          6    1    1    2  501    0 -0.51466229508E+03  0.58493427872E+02  0.11754638856E+03  0.55860980348E+03  0.17300000000E+03 0.  1.
         -6    1    1    2    0  503  0.51466229508E+03 -0.58493427872E+02 -0.22621834024E+03  0.59110278002E+03  0.17300000000E+03 0. -1.
<mgrwt>
<rscale>  2 0.54610233E+03</rscale>
<asrwt>0</asrwt>
<pdfrwt beam="1">  1       21 0.80080049E-01 0.54610233E+03</pdfrwt>
<pdfrwt beam="2">  1       21 0.96798810E-01 0.54610233E+03</pdfrwt>
<totfact> 0.99893821E+02</totfact>
</mgrwt>
</event>
<event>
 4    3  0.4041078E+000  0.2108628E+03  0.7546771E-02  0.1140885E+00
         21   -1    0    0  501  502  0.00000000000E+00  0.00000000000E+00  0.18917466414E+03  0.18917466414E+03  0.00000000000E+00 0. -1.
         21   -1    0    0  502  503 -0.00000000000E+00 -0.00000000000E+00 -0.23870056577E+03  0.23870056577E+03  0.00000000000E+00 0. -1.
          6    1    1    2  501    0 -0.11813327329E+03  0.24055066108E+02 -0.51265655518E+02  0.21700526238E+03  0.17300000000E+03 0.  1.
         -6    1    1    2    0  503  0.11813327329E+03 -0.24055066108E+02  0.17397538850E+01  0.21086996753E+03  0.17300000000E+03 0.  1.
<mgrwt>
<rscale>  2 0.21086279E+03</rscale>
<asrwt>0</asrwt>
<pdfrwt beam="1">  1       21 0.29103794E-01 0.21086279E+03</pdfrwt>
<pdfrwt beam="2">  1       21 0.36723164E-01 0.21086279E+03</pdfrwt>
<totfact> 0.80215367E+04</totfact>
</mgrwt>
</event>
<event>
 4    3  0.4041078E+000  0.1936214E+03  0.7546771E-02  0.1155235E+00
         21   -1    0    0  503  502  0.00000000000E+00  0.00000000000E+00  0.69990847329E+02  0.69990847329E+02  0.00000000000E+00 0. -1.
         21   -1    0    0  501  503 -0.00000000000E+00 -0.00000000000E+00 -0.55095845026E+03  0.55095845026E+03  0.00000000000E+00 0. -1.
          6    1    1    2  501    0  0.84953187171E+02 -0.18525300582E+02 -0.29226941445E+03  0.35058613977E+03  0.17300000000E+03 0. -1.
         -6    1    1    2    0  502 -0.84953187171E+02  0.18525300582E+02 -0.18869818848E+03  0.27036315782E+03  0.17300000000E+03 0. -1.
<mgrwt>
<rscale>  2 0.19362136E+03</rscale>
<asrwt>0</asrwt>
<pdfrwt beam="1">  1       21 0.10767823E-01 0.19362136E+03</pdfrwt>
<pdfrwt beam="2">  1       21 0.84762838E-01 0.19362136E+03</pdfrwt>
<totfact> 0.85808512E+04</totfact>
</mgrwt>
</event>
<event>
 4    3  0.4041078E+000  0.1871074E+03  0.7546771E-02  0.1161096E+00
         21   -1    0    0  503  502  0.00000000000E+00  0.00000000000E+00  0.39905111970E+03  0.39905111970E+03  0.00000000000E+00 0. -1.
         21   -1    0    0  501  503 -0.00000000000E+00 -0.00000000000E+00 -0.87860712794E+02  0.87860712794E+02  0.00000000000E+00 0.  1.
          6    1    1    2  501    0 -0.24570929402E+02 -0.66906340639E+02  0.16494638806E+03  0.24943235541E+03  0.17300000000E+03 0.  1.
         -6    1    1    2    0  502  0.24570929402E+02  0.66906340639E+02  0.14624401885E+03  0.23747947709E+03  0.17300000000E+03 0. -1.
<mgrwt>
<rscale>  2 0.18710743E+03</rscale>
<asrwt>0</asrwt>
<pdfrwt beam="1">  1       21 0.61392479E-01 0.18710743E+03</pdfrwt>
<pdfrwt beam="2">  1       21 0.13517033E-01 0.18710743E+03</pdfrwt>
<totfact> 0.11709046E+05</totfact>
</mgrwt>
</event>
<event>
 4    3  0.4041078E+000  0.1776196E+03  0.7546771E-02  0.1170127E+00
         21   -1    0    0  501  502  0.00000000000E+00  0.00000000000E+00  0.60320431569E+02  0.60320431569E+02  0.00000000000E+00 0.  1.
         21   -1    0    0  502  503 -0.00000000000E+00 -0.00000000000E+00 -0.52399240913E+03  0.52399240913E+03  0.00000000000E+00 0. -1.
          6    1    1    2  501    0  0.25353554261E+02 -0.31255948720E+02 -0.21924437935E+03  0.28216455291E+03  0.17300000000E+03 0. -1.
         -6    1    1    2    0  503 -0.25353554261E+02  0.31255948720E+02 -0.24442759821E+03  0.30214828778E+03  0.17300000000E+03 0. -1.
<mgrwt>
<rscale>  2 0.17761964E+03</rscale>
<asrwt>0</asrwt>
<pdfrwt beam="1">  1       21 0.92800668E-02 0.17761964E+03</pdfrwt>
<pdfrwt beam="2">  1       21 0.80614213E-01 0.17761964E+03</pdfrwt>
<totfact> 0.12581762E+05</totfact>
</mgrwt>
</event>
<event>
 4    3  0.4041078E+000  0.2027916E+03  0.7546771E-02  0.1147405E+00
         21   -1    0    0  503  502  0.00000000000E+00  0.00000000000E+00  0.91086626561E+02  0.91086626561E+02  0.00000000000E+00 0.  1.
         21   -1    0    0  501  503 -0.00000000000E+00 -0.00000000000E+00 -0.72422834222E+03  0.72422834222E+03  0.00000000000E+00 0.  1.
          6    1    1    2  501    0  0.80730451446E+02 -0.68396222041E+02 -0.56673955286E+03  0.60192870820E+03  0.17300000000E+03 0. -1.
         -6    1    1    2    0  502 -0.80730451446E+02  0.68396222041E+02 -0.66402162800E+02  0.21338626058E+03  0.17300000000E+03 0. -1.
<mgrwt>
<rscale>  2 0.20279164E+03</rscale>
<asrwt>0</asrwt>
<pdfrwt beam="1">  1       21 0.14013328E-01 0.20279164E+03</pdfrwt>
<pdfrwt beam="2">  1       21 0.11141974E+00 0.20279164E+03</pdfrwt>
<totfact> 0.27934890E+04</totfact>
</mgrwt>
</event>
<event>
 4    3  0.4041078E+000  0.1759381E+03  0.7546771E-02  0.1171793E+00
         21   -1    0    0  501  502  0.00000000000E+00  0.00000000000E+00  0.63254556219E+03  0.63254556219E+03  0.00000000000E+00 0.  1.
         21   -1    0    0  502  503 -0.00000000000E+00 -0.00000000000E+00 -0.54467408022E+02  0.54467408022E+02  0.00000000000E+00 0.  1.
          6    1    1    2  501    0 -0.15727262608E+01 -0.31980289599E+02  0.39850696657E+03  0.43561682106E+03  0.17300000000E+03 0. -1.
         -6    1    1    2    0  503  0.15727262608E+01  0.31980289599E+02  0.17957118760E+03  0.25139614915E+03  0.17300000000E+03 0. -1.
<mgrwt>
<rscale>  2 0.17593809E+03</rscale>
<asrwt>0</asrwt>
<pdfrwt beam="1">  1       21 0.97314697E-01 0.17593809E+03</pdfrwt>
<pdfrwt beam="2">  1       21 0.83796017E-02 0.17593809E+03</pdfrwt>
<totfact> 0.97574754E+04</totfact>
</mgrwt>
</event>
<event>
 4    3  0.4041078E+000  0.1851463E+03  0.7546771E-02  0.1162913E+00
         21   -1    0    0  501  502  0.00000000000E+00  0.00000000000E+00  0.13164865960E+03  0.13164865960E+03  0.00000000000E+00 0.  1.
         21   -1    0    0  502  503 -0.00000000000E+00 -0.00000000000E+00 -0.40599494930E+03  0.40599494930E+03  0.00000000000E+00 0.  1.
          6    1    1    2  501    0 -0.63461243148E+02 -0.17967746902E+02  0.23817853168E+02  0.18667206390E+03  0.17300000000E+03 0.  1.
         -6    1    1    2    0  503  0.63461243148E+02  0.17967746902E+02 -0.29816414287E+03  0.35097154501E+03  0.17300000000E+03 0.  1.
<mgrwt>
<rscale>  2 0.18514635E+03</rscale>
<asrwt>0</asrwt>
<pdfrwt beam="1">  1       21 0.20253640E-01 0.18514635E+03</pdfrwt>
<pdfrwt beam="2">  1       21 0.62460761E-01 0.18514635E+03</pdfrwt>
<totfact> 0.53760830E+04</totfact>
</mgrwt>
</event>
<event>
 4    3  0.4041078E+000  0.2154029E+03  0.7546771E-02  0.1137358E+00
         21   -1    0    0  503  502  0.00000000000E+00  0.00000000000E+00  0.59628457310E+02  0.59628457310E+02  0.00000000000E+00 0. -1.
         21   -1    0    0  501  503 -0.00000000000E+00 -0.00000000000E+00 -0.91142793517E+03  0.91142793517E+03  0.00000000000E+00 0. -1.
          6    1    1    2  501    0  0.36110668838E+02  0.12314801027E+03 -0.24021653906E+03  0.32264903297E+03  0.17300000000E+03 0. -1.
         -6    1    1    2    0  502 -0.36110668838E+02 -0.12314801027E+03 -0.61158293880E+03  0.64840735951E+03  0.17300000000E+03 0. -1.
<mgrwt>
<rscale>  2 0.21540291E+03</rscale>
<asrwt>0</asrwt>
<pdfrwt beam="1">  1       21 0.91736085E-02 0.21540291E+03</pdfrwt>
<pdfrwt beam="2">  1       21 0.14021969E+00 0.21540291E+03</pdfrwt>
<totfact> 0.33215825E+04</totfact>
</mgrwt>
</event>
<event>
 4    3  0.4041078E+000  0.2249336E+03  0.7546771E-02  0.1130257E+00
         21   -1    0    0  501  502  0.00000000000E+00  0.00000000000E+00  0.11355512828E+04  0.11355512828E+04  0.00000000000E+00 0.  1.
         21   -1    0    0  502  503 -0.00000000000E+00 -0.00000000000E+00 -0.55992981102E+02  0.55992981102E+02  0.00000000000E+00 0. -1.
          6    1    1    2  501    0  0.14067496155E+03 -0.29608539003E+02  0.80904275912E+03  0.83972929952E+03  0.17300000000E+03 0.  1.
         -6    1    1    2    0  503 -0.14067496155E+03  0.29608539003E+02  0.27051554260E+03  0.35181496440E+03  0.17300000000E+03 0. -1.
<mgrwt>
<rscale>  2 0.22493357E+03</rscale>
<asrwt>0</asrwt>
<pdfrwt beam="1">  1       21 0.17470018E+00 0.22493357E+03</pdfrwt>
<pdfrwt beam="2">  1       21 0.86143056E-02 0.22493357E+03</pdfrwt>
<totfact> 0.20415774E+04</totfact>
</mgrwt>
</event>
<event>
 4    3  0.4041078E+000  0.2133944E+03  0.7546771E-02  0.1138906E+00
         21   -1    0    0  503  502  0.00000000000E+00  0.00000000000E+00  0.26015639894E+03  0.26015639894E+03  0.00000000000E+00 0.  1.
         21   -1    0    0  501  503 -0.00000000000E+00 -0.00000000000E+00 -0.27463772658E+03  0.27463772658E+03  0.00000000000E+00 0. -1.
          6    1    1    2  501    0  0.51331619128E+02  0.11390012815E+03 -0.16827047747E+03  0.27175747994E+03  0.17300000000E+03 0. -1.
         -6    1    1    2    0  502 -0.51331619128E+02 -0.11390012815E+03  0.15378914983E+03  0.26303664559E+03  0.17300000000E+03 0.  1.
<mgrwt>
<rscale>  2 0.21339441E+03</rscale>
<asrwt>0</asrwt>
<pdfrwt beam="1">  1       21 0.40024062E-01 0.21339441E+03</pdfrwt>
<pdfrwt beam="2">  1       21 0.42251958E-01 0.21339441E+03</pdfrwt>
<totfact> 0.32072344E+04</totfact>
</mgrwt>
</event>
<event>
 4    3  0.4041078E+000  0.2456978E+03  0.7546771E-02  0.1116054E+00
         21   -1    0    0  503  502  0.00000000000E+00  0.00000000000E+00  0.55180187720E+03  0.55180187720E+03  0.00000000000E+00 0.  1.
         21   -1    0    0  501  503 -0.00000000000E+00 -0.00000000000E+00 -0.11945894825E+03  0.11945894825E+03  0.00000000000E+00 0.  1.
          6    1    1    2  501    0  0.21741655049E+02  0.17310599742E+03  0.11878063662E+03  0.27290332637E+03  0.17300000000E+03 0.  1.
         -6    1    1    2    0  502 -0.21741655049E+02 -0.17310599742E+03  0.31356229233E+03  0.39835749909E+03  0.17300000000E+03 0.  1.
<mgrwt>
<rscale>  2 0.24569775E+03</rscale>
<asrwt>0</asrwt>
<pdfrwt beam="1">  1       21 0.84892595E-01 0.24569775E+03</pdfrwt>
<pdfrwt beam="2">  1       21 0.18378300E-01 0.24569775E+03</pdfrwt>
<totfact> 0.31597341E+04</totfact>
</mgrwt>
</event>
<event>
 4    3  0.4041078E+000  0.2028109E+03  0.7546771E-02  0.1147389E+00
         21   -1    0    0  501  502  0.00000000000E+00  0.00000000000E+00  0.32729260170E+03  0.32729260170E+03  0.00000000000E+00 0. -1.
         21   -1    0    0  502  503 -0.00000000000E+00 -0.00000000000E+00 -0.20914071867E+03  0.20914071867E+03  0.00000000000E+00 0. -1.
          6    1    1    2  501    0  0.74334787561E+02  0.75349940725E+02  0.22851842089E+03  0.30553713832E+03  0.17300000000E+03 0. -1.
         -6    1    1    2    0  503 -0.74334787561E+02 -0.75349940725E+02 -0.11036653786E+03  0.23089618206E+03  0.17300000000E+03 0. -1.
<mgrwt>
<rscale>  2 0.20281093E+03</rscale>
<asrwt>0</asrwt>
<pdfrwt beam="1">  1       21 0.50352708E-01 0.20281093E+03</pdfrwt>
<pdfrwt beam="2">  1       21 0.32175495E-01 0.20281093E+03</pdfrwt>
<totfact> 0.34702139E+04</totfact>
</mgrwt>
</event>
<event>
 4    3  0.4041078E+000  0.1980977E+03  0.7546771E-02  0.1151354E+00
         21   -1    0    0  501  502  0.00000000000E+00  0.00000000000E+00  0.35785629356E+03  0.35785629356E+03  0.00000000000E+00 0.  1.
         21   -1    0    0  502  503 -0.00000000000E+00 -0.00000000000E+00 -0.13451352374E+03  0.13451352374E+03  0.00000000000E+00 0. -1.
          6    1    1    2  501    0 -0.83498877829E+02  0.48390571511E+02  0.21749140188E+03  0.29418568949E+03  0.17300000000E+03 0.  1.
         -6    1    1    2    0  503  0.83498877829E+02 -0.48390571511E+02  0.58513679417E+01  0.19818412781E+03  0.17300000000E+03 0. -1.
<mgrwt>
<rscale>  2 0.19809773E+03</rscale>
<asrwt>0</asrwt>
<pdfrwt beam="1">  1       21 0.55054814E-01 0.19809773E+03</pdfrwt>
<pdfrwt beam="2">  1       21 0.20694388E-01 0.19809773E+03</pdfrwt>
<totfact> 0.67238484E+04</totfact>
</mgrwt>
</event>
<event>
 4    3  0.4041078E+000  0.2070261E+03  0.7546771E-02  0.1143943E+00
         21   -1    0    0  501  502  0.00000000000E+00  0.00000000000E+00  0.25653066633E+03  0.25653066633E+03  0.00000000000E+00 0. -1.
         21   -1    0    0  502  503 -0.00000000000E+00 -0.00000000000E+00 -0.20018611769E+03  0.20018611769E+03  0.00000000000E+00 0. -1.
          6    1    1    2  501    0 -0.14074685997E+02 -0.11283932432E+03  0.12104500745E+03  0.23981597888E+03  0.17300000000E+03 0. -1.
         -6    1    1    2    0  503  0.14074685997E+02  0.11283932432E+03 -0.64700458806E+02  0.21690080514E+03  0.17300000000E+03 0. -1.
<mgrwt>
<rscale>  2 0.20702611E+03</rscale>
<asrwt>0</asrwt>
<pdfrwt beam="1">  1       21 0.39466257E-01 0.20702611E+03</pdfrwt>
<pdfrwt beam="2">  1       21 0.30797864E-01 0.20702611E+03</pdfrwt>
<totfact> 0.62247075E+04</totfact>
</mgrwt>
</event>
<event>
 4    3  0.4041078E+000  0.1796226E+03  0.7546771E-02  0.1168169E+00
         21   -1    0    0  501  502  0.00000000000E+00  0.00000000000E+00  0.21222488963E+03  0.21222488963E+03  0.00000000000E+00 0.  1.
         21   -1    0    0  502  503 -0.00000000000E+00 -0.00000000000E+00 -0.21363149837E+03  0.21363149837E+03  0.00000000000E+00 0.  1.
          6    1    1    2  501    0  0.19212059205E+01 -0.48286634700E+02  0.11363729941E+03  0.21255052562E+03  0.17300000000E+03 0.  1.
         -6    1    1    2    0  503 -0.19212059205E+01  0.48286634700E+02 -0.11504390816E+03  0.21330586238E+03  0.17300000000E+03 0.  1.
<mgrwt>
<rscale>  2 0.17962263E+03</rscale>
<asrwt>0</asrwt>
<pdfrwt beam="1">  1       21 0.32649983E-01 0.17962263E+03</pdfrwt>
<pdfrwt beam="2">  1       21 0.32866385E-01 0.17962263E+03</pdfrwt>
<totfact> 0.80880502E+04</totfact>
</mgrwt>
</event>
<event>
 4    3  0.4041078E+000  0.2553423E+03  0.7546771E-02  0.1109974E+00
         21   -1    0    0  503  502  0.00000000000E+00  0.00000000000E+00  0.19435590241E+03  0.19435590241E+03  0.00000000000E+00 0. -1.
         21   -1    0    0  501  503 -0.00000000000E+00 -0.00000000000E+00 -0.33547493163E+03  0.33547493163E+03  0.00000000000E+00 0. -1.
          6    1    1    2  501    0  0.16164353498E+03  0.95614144042E+02 -0.69153692051E+02  0.26454097993E+03  0.17300000000E+03 0. -1.
         -6    1    1    2    0  502 -0.16164353498E+03 -0.95614144042E+02 -0.71965337167E+02  0.26528985411E+03  0.17300000000E+03 0. -1.
<mgrwt>
<rscale>  2 0.25534231E+03</rscale>
<asrwt>0</asrwt>
<pdfrwt beam="1">  1       21 0.29900908E-01 0.25534231E+03</pdfrwt>
<pdfrwt beam="2">  1       21 0.51611528E-01 0.25534231E+03</pdfrwt>
<totfact> 0.37130310E+04</totfact>
</mgrwt>
</event>
<event>
 4    3  0.4041078E+000  0.1760699E+03  0.7546771E-02  0.1171662E+00
         21   -1    0    0  503  502  0.00000000000E+00  0.00000000000E+00  0.13958969468E+03  0.13958969468E+03  0.00000000000E+00 0.  1.
         21   -1    0    0  501  503 -0.00000000000E+00 -0.00000000000E+00 -0.23491162345E+03  0.23491162345E+03  0.00000000000E+00 0.  1.
          6    1    1    2  501    0  0.19780072181E+02 -0.26083467932E+02 -0.91418107254E+02  0.19838817729E+03  0.17300000000E+03 0. -1.
         -6    1    1    2    0  502 -0.19780072181E+02  0.26083467932E+02 -0.39038215158E+01  0.17611314084E+03  0.17300000000E+03 0. -1.
<mgrwt>
<rscale>  2 0.17606987E+03</rscale>
<asrwt>0</asrwt>
<pdfrwt beam="1">  1       21 0.21475338E-01 0.17606987E+03</pdfrwt>
<pdfrwt beam="2">  1       21 0.36140250E-01 0.17606987E+03</pdfrwt>
<totfact> 0.14994958E+05</totfact>
</mgrwt>
</event>
<event>
 4    3  0.4041078E+000  0.1771409E+03  0.7546771E-02  0.1170599E+00
         21   -1    0    0  503  502  0.00000000000E+00  0.00000000000E+00  0.32813075140E+03  0.32813075140E+03  0.00000000000E+00 0.  1.
         21   -1    0    0  501  503 -0.00000000000E+00 -0.00000000000E+00 -0.21776559885E+03  0.21776559885E+03  0.00000000000E+00 0.  1.
          6    1    1    2  501    0 -0.17212213047E+02  0.33965013483E+02 -0.14923023316E+03  0.23162155536E+03  0.17300000000E+03 0.  1.
         -6    1    1    2    0  502  0.17212213047E+02 -0.33965013483E+02  0.25959538571E+03  0.31427479488E+03  0.17300000000E+03 0.  1.
<mgrwt>
<rscale>  2 0.17714085E+03</rscale>
<asrwt>0</asrwt>
<pdfrwt beam="1">  1       21 0.50481654E-01 0.17714085E+03</pdfrwt>
<pdfrwt beam="2">  1       21 0.33502400E-01 0.17714085E+03</pdfrwt>
<totfact> 0.32316074E+04</totfact>
</mgrwt>
</event>
<event>
 4    3  0.4041078E+000  0.1851852E+03  0.7546771E-02  0.1162877E+00
         21   -1    0    0  501  502  0.00000000000E+00  0.00000000000E+00  0.69744990266E+02  0.69744990266E+02  0.00000000000E+00 0. -1.
         21   -1    0    0  502  503 -0.00000000000E+00 -0.00000000000E+00 -0.62887943410E+03  0.62887943410E+03  0.00000000000E+00 0. -1.
          6    1    1    2  501    0 -0.10546370154E+02 -0.65217464423E+02 -0.11642133752E+03  0.21874064876E+03  0.17300000000E+03 0. -1.
         -6    1    1    2    0  503  0.10546370154E+02  0.65217464423E+02 -0.44271310631E+03  0.47988377561E+03  0.17300000000E+03 0. -1.
<mgrwt>
<rscale>  2 0.18518516E+03</rscale>
<asrwt>0</asrwt>
<pdfrwt beam="1">  1       21 0.10729999E-01 0.18518516E+03</pdfrwt>
<pdfrwt beam="2">  1       21 0.96750680E-01 0.18518516E+03</pdfrwt>
<totfact> 0.63789112E+04</totfact>
</mgrwt>
</event>
<event>
 4    3  0.4041078E+000  0.1787775E+03  0.7546771E-02  0.1168991E+00
         21   -1    0    0  503  502  0.00000000000E+00  0.00000000000E+00  0.20676138626E+03  0.20676138626E+03  0.00000000000E+00 0. -1.
         21   -1    0    0  501  503 -0.00000000000E+00 -0.00000000000E+00 -0.29481666245E+03  0.29481666245E+03  0.00000000000E+00 0. -1.
          6    1    1    2  501    0  0.43347967711E+02 -0.12383181312E+02 -0.21699401613E+03  0.28115439268E+03  0.17300000000E+03 0. -1.
         -6    1    1    2    0  502 -0.43347967711E+02  0.12383181312E+02  0.12893873994E+03  0.22042365604E+03  0.17300000000E+03 0. -1.
<mgrwt>
<rscale>  2 0.17877749E+03</rscale>
<asrwt>0</asrwt>
<pdfrwt beam="1">  1       21 0.31809444E-01 0.17877749E+03</pdfrwt>
<pdfrwt beam="2">  1       21 0.45356409E-01 0.17877749E+03</pdfrwt>
<totfact> 0.44607954E+04</totfact>
</mgrwt>
</event>
<event>
 4    3  0.4041078E+000  0.1764111E+03  0.7546771E-02  0.1171322E+00
         21   -1    0    0  501  502  0.00000000000E+00  0.00000000000E+00  0.64689450559E+03  0.64689450559E+03  0.00000000000E+00 0. -1.
         21   -1    0    0  502  503 -0.00000000000E+00 -0.00000000000E+00 -0.49270376491E+02  0.49270376491E+02  0.00000000000E+00 0. -1.
          6    1    1    2  501    0 -0.34514091326E+02  0.80534156899E+00  0.24535042042E+03  0.30218818619E+03  0.17300000000E+03 0.  1.
         -6    1    1    2    0  503  0.34514091326E+02 -0.80534156899E+00  0.35227370868E+03  0.39397669589E+03  0.17300000000E+03 0.  1.
<mgrwt>
<rscale>  2 0.17641109E+03</rscale>
<asrwt>0</asrwt>
<pdfrwt beam="1">  1       21 0.99522225E-01 0.17641109E+03</pdfrwt>
<pdfrwt beam="2">  1       21 0.75800584E-02 0.17641109E+03</pdfrwt>
<totfact> 0.11014591E+05</totfact>
</mgrwt>
</event>
<event>
 4    3  0.4041078E+000  0.2965709E+03  0.7546771E-02  0.1086967E+00
         21   -1    0    0  501  502  0.00000000000E+00  0.00000000000E+00  0.52425759532E+03  0.52425759532E+03  0.00000000000E+00 0. -1.
         21   -1    0    0  502  503 -0.00000000000E+00 -0.00000000000E+00 -0.16864460303E+03  0.16864460303E+03  0.00000000000E+00 0. -1.
          6    1    1    2  501    0 -0.79866680718E+02  0.22725897316E+03  0.20276600208E+03  0.35926087899E+03  0.17300000000E+03 0. -1.
         -6    1    1    2    0  503  0.79866680718E+02 -0.22725897316E+03  0.15284699021E+03  0.33364131936E+03  0.17300000000E+03 0. -1.
<mgrwt>
<rscale>  2 0.29657095E+03</rscale>
<asrwt>0</asrwt>
<pdfrwt beam="1">  1       21 0.80655014E-01 0.29657095E+03</pdfrwt>
<pdfrwt beam="2">  1       21 0.25945324E-01 0.29657095E+03</pdfrwt>
<totfact> 0.18060735E+04</totfact>
</mgrwt>
</event>
<event>
 4    3  0.4041078E+000  0.1901125E+03  0.7546771E-02  0.1158360E+00
         21   -1    0    0  503  502  0.00000000000E+00  0.00000000000E+00  0.79974691909E+03  0.79974691909E+03  0.00000000000E+00 0. -1.
         21   -1    0    0  501  503 -0.00000000000E+00 -0.00000000000E+00 -0.63725290105E+02  0.63725290105E+02  0.00000000000E+00 0. -1.
          6    1    1    2  501    0 -0.78524661433E+02 -0.69014841140E+01  0.13518556679E+03  0.23327642488E+03  0.17300000000E+03 0. -1.
         -6    1    1    2    0  502  0.78524661433E+02  0.69014841140E+01  0.60083606219E+03  0.63019578431E+03  0.17300000000E+03 0. -1.
<mgrwt>
<rscale>  2 0.19011247E+03</rscale>
<asrwt>0</asrwt>
<pdfrwt beam="1">  1       21 0.12303798E+00 0.19011247E+03</pdfrwt>
<pdfrwt beam="2">  1       21 0.98038914E-02 0.19011247E+03</pdfrwt>
<totfact> 0.41760055E+04</totfact>
</mgrwt>
</event>
<event>
 4    3  0.4041078E+000  0.2082567E+03  0.7546771E-02  0.1142954E+00
         21   -1    0    0  503  502  0.00000000000E+00  0.00000000000E+00  0.38525938126E+03  0.38525938126E+03  0.00000000000E+00 0. -1.
         21   -1    0    0  501  503 -0.00000000000E+00 -0.00000000000E+00 -0.47501834487E+03  0.47501834487E+03  0.00000000000E+00 0. -1.
          6    1    1    2  501    0 -0.77094564611E+02  0.86592608727E+02 -0.42060710568E+03  0.46934122888E+03  0.17300000000E+03 0. -1.
         -6    1    1    2    0  502  0.77094564611E+02 -0.86592608727E+02  0.33084814207E+03  0.39093649726E+03  0.17300000000E+03 0. -1.
<mgrwt>
<rscale>  2 0.20825670E+03</rscale>
<asrwt>0</asrwt>
<pdfrwt beam="1">  1       21 0.59270675E-01 0.20825670E+03</pdfrwt>
<pdfrwt beam="2">  1       21 0.73079744E-01 0.20825670E+03</pdfrwt>
<totfact> 0.44261842E+03</totfact>
</mgrwt>
</event>
<event>
 4    3  0.4041078E+000  0.1792293E+03  0.7546771E-02  0.1168551E+00
         21   -1    0    0  503  502  0.00000000000E+00  0.00000000000E+00  0.52470601618E+02  0.52470601618E+02  0.00000000000E+00 0.  1.
         21   -1    0    0  501  503 -0.00000000000E+00 -0.00000000000E+00 -0.81702667176E+03  0.81702667176E+03  0.00000000000E+00 0.  1.
          6    1    1    2  501    0  0.64104147695E+01 -0.46400957417E+02 -0.59994896631E+03  0.62614846837E+03  0.17300000000E+03 0.  1.
         -6    1    1    2    0  502 -0.64104147695E+01  0.46400957417E+02 -0.16460710383E+03  0.24334880501E+03  0.17300000000E+03 0.  1.
<mgrwt>
<rscale>  2 0.17922930E+03</rscale>
<asrwt>0</asrwt>
<pdfrwt beam="1">  1       21 0.80724003E-02 0.17922930E+03</pdfrwt>
<pdfrwt beam="2">  1       21 0.12569641E+00 0.17922930E+03</pdfrwt>
<totfact> 0.55958847E+04</totfact>
</mgrwt>
</event>
<event>
 4    3  0.4041078E+000  0.2076495E+03  0.7546771E-02  0.1143441E+00
         21   -1    0    0  503  502  0.00000000000E+00  0.00000000000E+00  0.85902647479E+02  0.85902647479E+02  0.00000000000E+00 0.  1.
         21   -1    0    0  501  503 -0.00000000000E+00 -0.00000000000E+00 -0.72934062182E+03  0.72934062182E+03  0.00000000000E+00 0. -1.
          6    1    1    2  501    0 -0.22048243895E+02  0.11270841005E+03 -0.54932520128E+03  0.58726185600E+03  0.17300000000E+03 0. -1.
         -6    1    1    2    0  502  0.22048243895E+02 -0.11270841005E+03 -0.94112773062E+02  0.22798141330E+03  0.17300000000E+03 0.  1.
<mgrwt>
<rscale>  2 0.20764949E+03</rscale>
<asrwt>0</asrwt>
<pdfrwt beam="1">  1       21 0.13215792E-01 0.20764949E+03</pdfrwt>
<pdfrwt beam="2">  1       21 0.11220625E+00 0.20764949E+03</pdfrwt>
<totfact> 0.30448037E+04</totfact>
</mgrwt>
</event>
<event>
 4    3  0.4041078E+000  0.2037632E+03  0.7546771E-02  0.1146602E+00
         21   -1    0    0  503  502  0.00000000000E+00  0.00000000000E+00  0.48535541334E+03  0.48535541334E+03  0.00000000000E+00 0.  1.
         21   -1    0    0  501  503 -0.00000000000E+00 -0.00000000000E+00 -0.11513025568E+03  0.11513025568E+03  0.00000000000E+00 0.  1.
          6    1    1    2  501    0  0.23066688619E+02 -0.10515878745E+03  0.33731442042E+03  0.39408179471E+03  0.17300000000E+03 0. -1.
         -6    1    1    2    0  502 -0.23066688619E+02  0.10515878745E+03  0.32910737247E+02  0.20640387431E+03  0.17300000000E+03 0. -1.
<mgrwt>
<rscale>  2 0.20376320E+03</rscale>
<asrwt>0</asrwt>
<pdfrwt beam="1">  1       21 0.74670063E-01 0.20376320E+03</pdfrwt>
<pdfrwt beam="2">  1       21 0.17712347E-01 0.20376320E+03</pdfrwt>
<totfact> 0.46181045E+04</totfact>
</mgrwt>
</event>
<event>
 4    3  0.4041078E+000  0.2014421E+03  0.7546771E-02  0.1148528E+00
         21   -1    0    0  501  502  0.00000000000E+00  0.00000000000E+00  0.15500283929E+03  0.15500283929E+03  0.00000000000E+00 0.  1.
         21   -1    0    0  502  503 -0.00000000000E+00 -0.00000000000E+00 -0.28817743970E+03  0.28817743970E+03  0.00000000000E+00 0. -1.
          6    1    1    2  501    0  0.34260184873E+02 -0.97345517735E+02  0.45995608309E+00  0.20144260138E+03  0.17300000000E+03 0. -1.
         -6    1    1    2    0  503 -0.34260184873E+02  0.97345517735E+02 -0.13363455649E+03  0.24173767761E+03  0.17300000000E+03 0.  1.
<mgrwt>
<rscale>  2 0.20144208E+03</rscale>
<asrwt>0</asrwt>
<pdfrwt beam="1">  1       21 0.23846591E-01 0.20144208E+03</pdfrwt>
<pdfrwt beam="2">  1       21 0.44334990E-01 0.20144208E+03</pdfrwt>
<totfact> 0.80661407E+04</totfact>
</mgrwt>
</event>
<event>
 4    3  0.4041078E+000  0.2152120E+03  0.7546771E-02  0.1137504E+00
         21   -1    0    0  503  502  0.00000000000E+00  0.00000000000E+00  0.10047533624E+03  0.10047533624E+03  0.00000000000E+00 0.  1.
         21   -1    0    0  501  503 -0.00000000000E+00 -0.00000000000E+00 -0.58954158138E+03  0.58954158138E+03  0.00000000000E+00 0.  1.
          6    1    1    2  501    0  0.92488290603E+02  0.88504940057E+02 -0.40565089873E+03  0.45920459488E+03  0.17300000000E+03 0.  1.
         -6    1    1    2    0  502 -0.92488290603E+02 -0.88504940057E+02 -0.83415346408E+02  0.23081232274E+03  0.17300000000E+03 0.  1.
<mgrwt>
<rscale>  2 0.21521201E+03</rscale>
<asrwt>0</asrwt>
<pdfrwt beam="1">  1       21 0.15457744E-01 0.21521201E+03</pdfrwt>
<pdfrwt beam="2">  1       21 0.90698707E-01 0.21521201E+03</pdfrwt>
<totfact> 0.37868205E+04</totfact>
</mgrwt>
</event>
<event>
 4    3  0.4041078E+000  0.1981644E+03  0.7546771E-02  0.1151297E+00
         21   -1    0    0  501  502  0.00000000000E+00  0.00000000000E+00  0.72177772740E+03  0.72177772740E+03  0.00000000000E+00 0. -1.
         21   -1    0    0  502  503 -0.00000000000E+00 -0.00000000000E+00 -0.54450982189E+02  0.54450982189E+02  0.00000000000E+00 0.  1.
          6    1    1    2  501    0  0.46120528223E+02 -0.84929603793E+02  0.32252566097E+03  0.37853922215E+03  0.17300000000E+03 0.  1.
         -6    1    1    2    0  503 -0.46120528223E+02  0.84929603793E+02  0.34480108425E+03  0.39768948744E+03  0.17300000000E+03 0. -1.
<mgrwt>
<rscale>  2 0.19816443E+03</rscale>
<asrwt>0</asrwt>
<pdfrwt beam="1">  1       21 0.11104272E+00 0.19816443E+03</pdfrwt>
<pdfrwt beam="2">  1       21 0.83770747E-02 0.19816443E+03</pdfrwt>
<totfact> 0.70505799E+04</totfact>
</mgrwt>
</event>
<event>
 4    3  0.4041078E+000  0.2089998E+03  0.7546771E-02  0.1142360E+00
         21   -1    0    0  501  502  0.00000000000E+00  0.00000000000E+00  0.20758059331E+03  0.20758059331E+03  0.00000000000E+00 0. -1.
         21   -1    0    0  502  503 -0.00000000000E+00 -0.00000000000E+00 -0.30308497914E+03  0.30308497914E+03  0.00000000000E+00 0. -1.
          6    1    1    2  501    0 -0.70366681718E+02 -0.93810768874E+02 -0.18892843800E+03  0.28173548754E+03  0.17300000000E+03 0. -1.
         -6    1    1    2    0  503  0.70366681718E+02  0.93810768874E+02  0.93424052178E+02  0.22893008491E+03  0.17300000000E+03 0. -1.
<mgrwt>
<rscale>  2 0.20899983E+03</rscale>
<asrwt>0</asrwt>
<pdfrwt beam="1">  1       21 0.31935476E-01 0.20899983E+03</pdfrwt>
<pdfrwt beam="2">  1       21 0.46628459E-01 0.20899983E+03</pdfrwt>
<totfact> 0.41186865E+04</totfact>
</mgrwt>
</event>
<event>
 4    3  0.4041078E+000  0.1942436E+03  0.7546771E-02  0.1154689E+00
         21   -1    0    0  503  502  0.00000000000E+00  0.00000000000E+00  0.85195108043E+03  0.85195108043E+03  0.00000000000E+00 0. -1.
         21   -1    0    0  501  503 -0.00000000000E+00 -0.00000000000E+00 -0.73179973055E+02  0.73179973055E+02  0.00000000000E+00 0. -1.
          6    1    1    2  501    0 -0.15992974950E+02 -0.86866514122E+02  0.98734827052E+02  0.21789706881E+03  0.17300000000E+03 0. -1.
         -6    1    1    2    0  502  0.15992974950E+02  0.86866514122E+02  0.68003628032E+03  0.70723398467E+03  0.17300000000E+03 0. -1.
<mgrwt>
<rscale>  2 0.19424358E+03</rscale>
<asrwt>0</asrwt>
<pdfrwt beam="1">  1       21 0.13106939E+00 0.19424358E+03</pdfrwt>
<pdfrwt beam="2">  1       21 0.11258458E-01 0.19424358E+03</pdfrwt>
<totfact> 0.27816327E+04</totfact>
</mgrwt>
</event>
<event>
 4    3  0.4041078E+000  0.3094293E+03  0.7546771E-02  0.1080620E+00
         21   -1    0    0  501  502  0.00000000000E+00  0.00000000000E+00  0.37447779741E+03  0.37447779741E+03  0.00000000000E+00 0.  1.
         21   -1    0    0  502  503 -0.00000000000E+00 -0.00000000000E+00 -0.45737421847E+03  0.45737421847E+03  0.00000000000E+00 0. -1.
          6    1    1    2  501    0 -0.23710215613E+03 -0.97979888127E+02  0.23475386653E+03  0.38840168482E+03  0.17300000000E+03 0.  1.
         -6    1    1    2    0  503  0.23710215613E+03  0.97979888127E+02 -0.31765028759E+03  0.44345033107E+03  0.17300000000E+03 0.  1.
<mgrwt>
<rscale>  2 0.30942930E+03</rscale>
<asrwt>0</asrwt>
<pdfrwt beam="1">  1       21 0.57611969E-01 0.30942930E+03</pdfrwt>
<pdfrwt beam="2">  1       21 0.70365264E-01 0.30942930E+03</pdfrwt>
<totfact> 0.48127457E+03</totfact>
</mgrwt>
</event>
<event>
 4    3  0.4041078E+000  0.3039356E+03  0.7546771E-02  0.1083290E+00
         21   -1    0    0  501  502  0.00000000000E+00  0.00000000000E+00  0.60451867252E+03  0.60451867252E+03  0.00000000000E+00 0.  1.
         21   -1    0    0  502  503 -0.00000000000E+00 -0.00000000000E+00 -0.12199049608E+04  0.12199049608E+04  0.00000000000E+00 0.  1.
          6    1    1    2  501    0  0.19706682291E+03  0.15366369227E+03  0.54547396969E+03  0.62443471607E+03  0.17300000000E+03 0.  1.
         -6    1    1    2    0  503 -0.19706682291E+03 -0.15366369227E+03 -0.11608602580E+04  0.11999889173E+04  0.17300000000E+03 0.  1.
<mgrwt>
<rscale>  2 0.30393562E+03</rscale>
<asrwt>0</asrwt>
<pdfrwt beam="1">  1       21 0.93002875E-01 0.30393562E+03</pdfrwt>
<pdfrwt beam="2">  1       21 0.18767768E+00 0.30393562E+03</pdfrwt>
<totfact> 0.13948820E+02</totfact>
</mgrwt>
</event>
<event>
 4    3  0.4041078E+000  0.1932120E+03  0.7546771E-02  0.1155596E+00
         21   -1    0    0  501  502  0.00000000000E+00  0.00000000000E+00  0.66906358901E+03  0.66906358901E+03  0.00000000000E+00 0. -1.
         21   -1    0    0  502  503 -0.00000000000E+00 -0.00000000000E+00 -0.74325761788E+02  0.74325761788E+02  0.00000000000E+00 0. -1.
          6    1    1    2  501    0  0.33095329863E+02  0.79413981302E+02  0.48295905984E+03  0.52017336991E+03  0.17300000000E+03 0. -1.
         -6    1    1    2    0  503 -0.33095329863E+02 -0.79413981302E+02  0.11177876738E+03  0.22321598088E+03  0.17300000000E+03 0. -1.
<mgrwt>
<rscale>  2 0.19321201E+03</rscale>
<asrwt>0</asrwt>
<pdfrwt beam="1">  1       21 0.10293286E+00 0.19321201E+03</pdfrwt>
<pdfrwt beam="2">  1       21 0.11434733E-01 0.19321201E+03</pdfrwt>
<totfact> 0.49002255E+04</totfact>
</mgrwt>
</event>
<event>
 4    3  0.4041078E+000  0.1806711E+03  0.7546771E-02  0.1167155E+00
         21   -1    0    0  501  502  0.00000000000E+00  0.00000000000E+00  0.61512329828E+03  0.61512329828E+03  0.00000000000E+00 0.  1.
         21   -1    0    0  502  503 -0.00000000000E+00 -0.00000000000E+00 -0.66187401648E+02  0.66187401648E+02  0.00000000000E+00 0.  1.
          6    1    1    2  501    0  0.32998814168E+02 -0.40300435948E+02  0.42614503493E+03  0.46286243926E+03  0.17300000000E+03 0.  1.
         -6    1    1    2    0  503 -0.32998814168E+02  0.40300435948E+02  0.12279086170E+03  0.21844826067E+03  0.17300000000E+03 0.  1.
<mgrwt>
<rscale>  2 0.18067110E+03</rscale>
<asrwt>0</asrwt>
<pdfrwt beam="1">  1       21 0.94634350E-01 0.18067110E+03</pdfrwt>
<pdfrwt beam="2">  1       21 0.10182678E-01 0.18067110E+03</pdfrwt>
<totfact> 0.73853147E+04</totfact>
</mgrwt>
</event>
<event>
 4    3  0.4041078E+000  0.3195125E+03  0.7546771E-02  0.1075874E+00
         21   -1    0    0  503  502  0.00000000000E+00  0.00000000000E+00  0.69127580477E+03  0.69127580477E+03  0.00000000000E+00 0. -1.
         21   -1    0    0  501  503 -0.00000000000E+00 -0.00000000000E+00 -0.24455624255E+03  0.24455624255E+03  0.00000000000E+00 0.  1.
          6    1    1    2  501    0 -0.99571734485E+02  0.24948891870E+03 -0.71140089862E+02  0.32733646794E+03  0.17300000000E+03 0. -1.
         -6    1    1    2    0  502  0.99571734485E+02 -0.24948891870E+03  0.51785965209E+03  0.60849557938E+03  0.17300000000E+03 0.  1.
<mgrwt>
<rscale>  2 0.31951252E+03</rscale>
<asrwt>0</asrwt>
<pdfrwt beam="1">  1       21 0.10635012E+00 0.31951252E+03</pdfrwt>
<pdfrwt beam="2">  1       21 0.37624037E-01 0.31951252E+03</pdfrwt>
<totfact> 0.44538293E+03</totfact>
</mgrwt>
</event>
<event>
 4    3  0.4041078E+000  0.4321726E+03  0.7546771E-02  0.1033176E+00
         21   -1    0    0  503  502  0.00000000000E+00  0.00000000000E+00  0.22003889448E+03  0.22003889448E+03  0.00000000000E+00 0. -1.
         21   -1    0    0  501  503 -0.00000000000E+00 -0.00000000000E+00 -0.85559213475E+03  0.85559213475E+03  0.00000000000E+00 0.  1.
          6    1    1    2  501    0  0.28329651484E+02 -0.39502095171E+03 -0.36562920681E+03  0.56608995603E+03  0.17300000000E+03 0. -1.
         -6    1    1    2    0  502 -0.28329651484E+02  0.39502095171E+03 -0.26992403347E+03  0.50954107321E+03  0.17300000000E+03 0.  1.
<mgrwt>
<rscale>  2 0.43217256E+03</rscale>
<asrwt>0</asrwt>
<pdfrwt beam="1">  1       21 0.33852139E-01 0.43217256E+03</pdfrwt>
<pdfrwt beam="2">  1       21 0.13162956E+00 0.43217256E+03</pdfrwt>
<totfact> 0.30702028E+03</totfact>
</mgrwt>
</event>
<event>
 4    3  0.4041078E+000  0.2441896E+03  0.7546771E-02  0.1117033E+00
         21   -1    0    0  503  502  0.00000000000E+00  0.00000000000E+00  0.25237335945E+03  0.25237335945E+03  0.00000000000E+00 0.  1.
         21   -1    0    0  501  503 -0.00000000000E+00 -0.00000000000E+00 -0.25498168842E+03  0.25498168842E+03  0.00000000000E+00 0. -1.
          6    1    1    2  501    0  0.10925305273E+03  0.13327919307E+03 -0.70021973496E+02  0.25403080445E+03  0.17300000000E+03 0. -1.
         -6    1    1    2    0  502 -0.10925305273E+03 -0.13327919307E+03  0.67413644519E+02  0.25332424342E+03  0.17300000000E+03 0.  1.
<mgrwt>
<rscale>  2 0.24418962E+03</rscale>
<asrwt>0</asrwt>
<pdfrwt beam="1">  1       21 0.38826671E-01 0.24418962E+03</pdfrwt>
<pdfrwt beam="2">  1       21 0.39227952E-01 0.24418962E+03</pdfrwt>
<totfact> 0.39100456E+04</totfact>
</mgrwt>
</event>
<event>
 4    3  0.4041078E+000  0.2044019E+03  0.7546771E-02  0.1146077E+00
         21   -1    0    0  501  502  0.00000000000E+00  0.00000000000E+00  0.17471318333E+03  0.17471318333E+03  0.00000000000E+00 0. -1.
         21   -1    0    0  502  503 -0.00000000000E+00 -0.00000000000E+00 -0.24138034422E+03  0.24138034422E+03  0.00000000000E+00 0. -1.
          6    1    1    2  501    0  0.48531576178E+02  0.97446509343E+02 -0.13270542933E+02  0.20483223228E+03  0.17300000000E+03 0. -1.
         -6    1    1    2    0  503 -0.48531576178E+02 -0.97446509343E+02 -0.53396617959E+02  0.21126129527E+03  0.17300000000E+03 0. -1.
<mgrwt>
<rscale>  2 0.20440190E+03</rscale>
<asrwt>0</asrwt>
<pdfrwt beam="1">  1       21 0.26878951E-01 0.20440190E+03</pdfrwt>
<pdfrwt beam="2">  1       21 0.37135437E-01 0.20440190E+03</pdfrwt>
<totfact> 0.91748920E+04</totfact>
</mgrwt>
</event>
<event>
 4    3  0.4041078E+000  0.2004055E+03  0.7546771E-02  0.1149397E+00
         21   -1    0    0  501  502  0.00000000000E+00  0.00000000000E+00  0.24376738486E+03  0.24376738486E+03  0.00000000000E+00 0.  1.
         21   -1    0    0  502  503 -0.00000000000E+00 -0.00000000000E+00 -0.25668470653E+03  0.25668470653E+03  0.00000000000E+00 0.  1.
          6    1    1    2  501    0  0.12563056538E+01 -0.10115223553E+03  0.14328761106E+03  0.24636089897E+03  0.17300000000E+03 0.  1.
         -6    1    1    2    0  503 -0.12563056538E+01  0.10115223553E+03 -0.15620493274E+03  0.25409119243E+03  0.17300000000E+03 0.  1.
<mgrwt>
<rscale>  2 0.20040547E+03</rscale>
<asrwt>0</asrwt>
<pdfrwt beam="1">  1       21 0.37502674E-01 0.20040547E+03</pdfrwt>
<pdfrwt beam="2">  1       21 0.39489955E-01 0.20040547E+03</pdfrwt>
<totfact> 0.42222167E+04</totfact>
</mgrwt>
</event>
<event>
 4    3  0.4041078E+000  0.1912642E+03  0.7546771E-02  0.1157326E+00
         21   -1    0    0  501  502  0.00000000000E+00  0.00000000000E+00  0.21743091787E+02  0.21743091787E+02  0.00000000000E+00 0.  1.
         21   -1    0    0  502  503 -0.00000000000E+00 -0.00000000000E+00 -0.18919446719E+04  0.18919446719E+04  0.00000000000E+00 0.  1.
          6    1    1    2  501    0 -0.44734712936E+02  0.68204179110E+02 -0.12534891335E+04  0.12679972446E+04  0.17300000000E+03 0.  1.
         -6    1    1    2    0  503  0.44734712936E+02 -0.68204179110E+02 -0.61671244660E+03  0.64569051904E+03  0.17300000000E+03 0.  1.
<mgrwt>
<rscale>  2 0.19126423E+03</rscale>
<asrwt>0</asrwt>
<pdfrwt beam="1">  1       21 0.33450896E-02 0.19126423E+03</pdfrwt>
<pdfrwt beam="2">  1       21 0.29106853E+00 0.19126423E+03</pdfrwt>
<totfact> 0.20322008E+04</totfact>
</mgrwt>
</event>
<event>
 4    3  0.4041078E+000  0.1740030E+03  0.7546771E-02  0.1173736E+00
         21   -1    0    0  503  502  0.00000000000E+00  0.00000000000E+00  0.34846198136E+03  0.34846198136E+03  0.00000000000E+00 0.  1.
         21   -1    0    0  501  503 -0.00000000000E+00 -0.00000000000E+00 -0.87520682401E+02  0.87520682401E+02  0.00000000000E+00 0.  1.
          6    1    1    2  501    0  0.17722695153E+02  0.58271482737E+01  0.14900980932E+03  0.22908726035E+03  0.17300000000E+03 0.  1.
         -6    1    1    2    0  502 -0.17722695153E+02 -0.58271482737E+01  0.11193148964E+03  0.20689540341E+03  0.17300000000E+03 0.  1.
<mgrwt>
<rscale>  2 0.17400302E+03</rscale>
<asrwt>0</asrwt>
<pdfrwt beam="1">  1       21 0.53609535E-01 0.17400302E+03</pdfrwt>
<pdfrwt beam="2">  1       21 0.13464721E-01 0.17400302E+03</pdfrwt>
<totfact> 0.15804059E+05</totfact>
</mgrwt>
</event>
<event>
 4    3  0.4041078E+000  0.1869026E+03  0.7546771E-02  0.1161285E+00
         21   -1    0    0  503  502  0.00000000000E+00  0.00000000000E+00  0.50523621265E+02  0.50523621265E+02  0.00000000000E+00 0. -1.
         21   -1    0    0  501  503 -0.00000000000E+00 -0.00000000000E+00 -0.74001720221E+03  0.74001720221E+03  0.00000000000E+00 0. -1.
          6    1    1    2  501    0  0.40939353891E+02  0.57684966929E+02 -0.44604910463E+03  0.48362422380E+03  0.17300000000E+03 0. -1.
         -6    1    1    2    0  502 -0.40939353891E+02 -0.57684966929E+02 -0.24344447631E+03  0.30691659967E+03  0.17300000000E+03 0. -1.
<mgrwt>
<rscale>  2 0.18690261E+03</rscale>
<asrwt>0</asrwt>
<pdfrwt beam="1">  1       21 0.77728651E-02 0.18690261E+03</pdfrwt>
<pdfrwt beam="2">  1       21 0.11384880E+00 0.18690261E+03</pdfrwt>
<totfact> 0.76001589E+04</totfact>
</mgrwt>
</event>
<event>
 4    3  0.4041078E+000  0.1787779E+03  0.7546771E-02  0.1168991E+00
         21   -1    0    0  503  502  0.00000000000E+00  0.00000000000E+00  0.34685718326E+03  0.34685718326E+03  0.00000000000E+00 0. -1.
         21   -1    0    0  501  503 -0.00000000000E+00 -0.00000000000E+00 -0.28404241650E+03  0.28404241650E+03  0.00000000000E+00 0. -1.
          6    1    1    2  501    0  0.90379835186E+01 -0.44168655158E+02 -0.22787434649E+03  0.28963472345E+03  0.17300000000E+03 0. -1.
         -6    1    1    2    0  502 -0.90379835186E+01  0.44168655158E+02  0.29068911324E+03  0.34126487631E+03  0.17300000000E+03 0. -1.
<mgrwt>
<rscale>  2 0.17877795E+03</rscale>
<asrwt>0</asrwt>
<pdfrwt beam="1">  1       21 0.53362644E-01 0.17877795E+03</pdfrwt>
<pdfrwt beam="2">  1       21 0.43698833E-01 0.17877795E+03</pdfrwt>
<totfact> 0.16875580E+04</totfact>
</mgrwt>
</event>
<event>
 4    3  0.4041078E+000  0.1876137E+03  0.7546771E-02  0.1160631E+00
         21   -1    0    0  501  502  0.00000000000E+00  0.00000000000E+00  0.39213642483E+03  0.39213642483E+03  0.00000000000E+00 0. -1.
         21   -1    0    0  502  503 -0.00000000000E+00 -0.00000000000E+00 -0.20948049904E+03  0.20948049904E+03  0.00000000000E+00 0. -1.
          6    1    1    2  501    0  0.15924000120E+02 -0.70826155547E+02  0.31873244867E+03  0.36985036423E+03  0.17300000000E+03 0. -1.
         -6    1    1    2    0  503 -0.15924000120E+02  0.70826155547E+02 -0.13607652288E+03  0.23176655964E+03  0.17300000000E+03 0. -1.
<mgrwt>
<rscale>  2 0.18761375E+03</rscale>
<asrwt>0</asrwt>
<pdfrwt beam="1">  1       21 0.60328681E-01 0.18761375E+03</pdfrwt>
<pdfrwt beam="2">  1       21 0.32227769E-01 0.18761375E+03</pdfrwt>
<totfact> 0.23788823E+04</totfact>
</mgrwt>
</event>
<event>
 4    3  0.4041078E+000  0.1964928E+03  0.7546771E-02  0.1152732E+00
         21   -1    0    0  501  502  0.00000000000E+00  0.00000000000E+00  0.25176399625E+03  0.25176399625E+03  0.00000000000E+00 0. -1.
         21   -1    0    0  502  503 -0.00000000000E+00 -0.00000000000E+00 -0.15354042691E+03  0.15354042691E+03  0.00000000000E+00 0. -1.
          6    1    1    2  501    0 -0.55584825766E+02 -0.74771257482E+02  0.56143243692E+02  0.20435625171E+03  0.17300000000E+03 0. -1.
         -6    1    1    2    0  503  0.55584825766E+02  0.74771257482E+02  0.42080325649E+02  0.20094817145E+03  0.17300000000E+03 0. -1.
<mgrwt>
<rscale>  2 0.19649278E+03</rscale>
<asrwt>0</asrwt>
<pdfrwt beam="1">  1       21 0.38732923E-01 0.19649278E+03</pdfrwt>
<pdfrwt beam="2">  1       21 0.23621604E-01 0.19649278E+03</pdfrwt>
<totfact> 0.10829043E+05</totfact>
</mgrwt>
</event>
<event>
 4    3  0.4041078E+000  0.1837533E+03  0.7546771E-02  0.1164219E+00
         21   -1    0    0  503  502  0.00000000000E+00  0.00000000000E+00  0.32644650592E+03  0.32644650592E+03  0.00000000000E+00 0.  1.
         21   -1    0    0  501  503 -0.00000000000E+00 -0.00000000000E+00 -0.12777316730E+03  0.12777316730E+03  0.00000000000E+00 0.  1.
          6    1    1    2  501    0  0.51719789895E+02  0.34078302159E+02  0.21241819037E+00  0.18375340124E+03  0.17300000000E+03 0.  1.
         -6    1    1    2    0  502 -0.51719789895E+02 -0.34078302159E+02  0.19846092043E+03  0.27046627199E+03  0.17300000000E+03 0.  1.
<mgrwt>
<rscale>  2 0.18375328E+03</rscale>
<asrwt>0</asrwt>
<pdfrwt beam="1">  1       21 0.50222539E-01 0.18375328E+03</pdfrwt>
<pdfrwt beam="2">  1       21 0.19657410E-01 0.18375328E+03</pdfrwt>
<totfact> 0.90314747E+04</totfact>
</mgrwt>
</event>
<event>
 4    3  0.4041078E+000  0.2440111E+03  0.7546771E-02  0.1117149E+00
         21   -1    0    0  501  502  0.00000000000E+00  0.00000000000E+00  0.55680567311E+03  0.55680567311E+03  0.00000000000E+00 0. -1.
         21   -1    0    0  502  503 -0.00000000000E+00 -0.00000000000E+00 -0.14586932953E+03  0.14586932953E+03  0.00000000000E+00 0.  1.
          6    1    1    2  501    0 -0.71503729709E+02 -0.15652358861E+03  0.38698414558E+03  0.45749114318E+03  0.17300000000E+03 0. -1.
         -6    1    1    2    0  503  0.71503729709E+02  0.15652358861E+03  0.23952197996E+02  0.24518385946E+03  0.17300000000E+03 0.  1.
<mgrwt>
<rscale>  2 0.24401110E+03</rscale>
<asrwt>0</asrwt>
<pdfrwt beam="1">  1       21 0.85662410E-01 0.24401110E+03</pdfrwt>
<pdfrwt beam="2">  1       21 0.22441436E-01 0.24401110E+03</pdfrwt>
<totfact> 0.21270517E+04</totfact>
</mgrwt>
</event>
<event>
 4    3  0.4041078E+000  0.2026895E+03  0.7546771E-02  0.1147490E+00
         21   -1    0    0  501  502  0.00000000000E+00  0.00000000000E+00  0.33283386243E+03  0.33283386243E+03  0.00000000000E+00 0.  1.
         21   -1    0    0  502  503 -0.00000000000E+00 -0.00000000000E+00 -0.13655295836E+03  0.13655295836E+03  0.00000000000E+00 0.  1.
          6    1    1    2  501    0 -0.93895714118E+02  0.48348878404E+02  0.17088489242E+03  0.26511255276E+03  0.17300000000E+03 0.  1.
         -6    1    1    2    0  503  0.93895714118E+02 -0.48348878404E+02  0.25396011655E+02  0.20427426803E+03  0.17300000000E+03 0.  1.
<mgrwt>
<rscale>  2 0.20268946E+03</rscale>
<asrwt>0</asrwt>
<pdfrwt beam="1">  1       21 0.51205209E-01 0.20268946E+03</pdfrwt>
<pdfrwt beam="2">  1       21 0.21008148E-01 0.20268946E+03</pdfrwt>
<totfact> 0.75990766E+04</totfact>
</mgrwt>
</event>
<event>
 4    3  0.4041078E+000  0.2583889E+03  0.7546771E-02  0.1108115E+00
         21   -1    0    0  501  502  0.00000000000E+00  0.00000000000E+00  0.53796993016E+03  0.53796993016E+03  0.00000000000E+00 0. -1.
         21   -1    0    0  502  503 -0.00000000000E+00 -0.00000000000E+00 -0.12976659010E+03  0.12976659010E+03  0.00000000000E+00 0.  1.
          6    1    1    2  501    0 -0.91718314550E+02  0.16859297843E+03  0.27383765697E+03  0.37649954048E+03  0.17300000000E+03 0. -1.
         -6    1    1    2    0  503  0.91718314550E+02 -0.16859297843E+03  0.13436568308E+03  0.29123697978E+03  0.17300000000E+03 0.  1.
<mgrwt>
<rscale>  2 0.25838893E+03</rscale>
<asrwt>0</asrwt>
<pdfrwt beam="1">  1       21 0.82764603E-01 0.25838893E+03</pdfrwt>
<pdfrwt beam="2">  1       21 0.19964091E-01 0.25838893E+03</pdfrwt>
<totfact> 0.28525865E+04</totfact>
</mgrwt>
</event>
<event>
 4    3  0.4041078E+000  0.1761263E+03  0.7546771E-02  0.1171606E+00
         21   -1    0    0  501  502  0.00000000000E+00  0.00000000000E+00  0.14404850137E+03  0.14404850137E+03  0.00000000000E+00 0. -1.
         21   -1    0    0  502  503 -0.00000000000E+00 -0.00000000000E+00 -0.50828973410E+03  0.50828973410E+03  0.00000000000E+00 0. -1.
          6    1    1    2  501    0 -0.87531204585E+01  0.31856799069E+02 -0.42973634373E+03  0.46442846369E+03  0.17300000000E+03 0. -1.
         -6    1    1    2    0  503  0.87531204585E+01 -0.31856799069E+02  0.65495111002E+02  0.18790977178E+03  0.17300000000E+03 0. -1.
<mgrwt>
<rscale>  2 0.17612630E+03</rscale>
<asrwt>0</asrwt>
<pdfrwt beam="1">  1       21 0.22161308E-01 0.17612630E+03</pdfrwt>
<pdfrwt beam="2">  1       21 0.78198421E-01 0.17612630E+03</pdfrwt>
<totfact> 0.27824351E+04</totfact>
</mgrwt>
</event>
<event>
 4    3  0.4041078E+000  0.2338440E+03  0.7546771E-02  0.1123963E+00
         21   -1    0    0  501  502  0.00000000000E+00  0.00000000000E+00  0.11858944485E+03  0.11858944485E+03  0.00000000000E+00 0. -1.
         21   -1    0    0  502  503 -0.00000000000E+00 -0.00000000000E+00 -0.46311459516E+03  0.46311459516E+03  0.00000000000E+00 0.  1.
          6    1    1    2  501    0 -0.15690473166E+03  0.11615474968E+02 -0.19138866876E+03  0.30217980840E+03  0.17300000000E+03 0.  1.
         -6    1    1    2    0  503  0.15690473166E+03 -0.11615474968E+02 -0.15313648155E+03  0.27952423161E+03  0.17300000000E+03 0. -1.
<mgrwt>
<rscale>  2 0.23384400E+03</rscale>
<asrwt>0</asrwt>
<pdfrwt beam="1">  1       21 0.18244530E-01 0.23384400E+03</pdfrwt>
<pdfrwt beam="2">  1       21 0.71248398E-01 0.23384400E+03</pdfrwt>
<totfact> 0.47856362E+04</totfact>
</mgrwt>
</event>
<event>
 4    3  0.4041078E+000  0.1744826E+03  0.7546771E-02  0.1173252E+00
         21   -1    0    0  501  502  0.00000000000E+00  0.00000000000E+00  0.19912812874E+04  0.19912812874E+04  0.00000000000E+00 0. -1.
         21   -1    0    0  502  503 -0.00000000000E+00 -0.00000000000E+00 -0.35714275046E+02  0.35714275046E+02  0.00000000000E+00 0.  1.
          6    1    1    2  501    0 -0.18147840544E+02 -0.13632057505E+02  0.17442419782E+04  0.17529473055E+04  0.17300000000E+03 0. -1.
         -6    1    1    2    0  503  0.18147840544E+02  0.13632057505E+02  0.21132503412E+03  0.27404825698E+03  0.17300000000E+03 0.  1.
<mgrwt>
<rscale>  2 0.17448260E+03</rscale>
<asrwt>0</asrwt>
<pdfrwt beam="1">  1       21 0.30635088E+00 0.17448260E+03</pdfrwt>
<pdfrwt beam="2">  1       21 0.54945054E-02 0.17448260E+03</pdfrwt>
<totfact> 0.73465832E+03</totfact>
</mgrwt>
</event>
<event>
 4    3  0.4041078E+000  0.1819984E+03  0.7546771E-02  0.1165883E+00
         21   -1    0    0  503  502  0.00000000000E+00  0.00000000000E+00  0.11304769739E+03  0.11304769739E+03  0.00000000000E+00 0.  1.
         21   -1    0    0  501  503 -0.00000000000E+00 -0.00000000000E+00 -0.30341328971E+03  0.30341328971E+03  0.00000000000E+00 0. -1.
          6    1    1    2  501    0  0.21412785759E+02 -0.52305882696E+02 -0.56613625388E+02  0.19060040750E+03  0.17300000000E+03 0. -1.
         -6    1    1    2    0  502 -0.21412785759E+02  0.52305882696E+02 -0.13375196693E+03  0.22586057960E+03  0.17300000000E+03 0. -1.
<mgrwt>
<rscale>  2 0.18199839E+03</rscale>
<asrwt>0</asrwt>
<pdfrwt beam="1">  1       21 0.17391953E-01 0.18199839E+03</pdfrwt>
<pdfrwt beam="2">  1       21 0.46678968E-01 0.18199839E+03</pdfrwt>
<totfact> 0.13193388E+05</totfact>
</mgrwt>
</event>
<event>
 4    3  0.4041078E+000  0.2036923E+03  0.7546771E-02  0.1146661E+00
         21   -1    0    0  501  502  0.00000000000E+00  0.00000000000E+00  0.72008034010E+03  0.72008034010E+03  0.00000000000E+00 0. -1.
         21   -1    0    0  502  503 -0.00000000000E+00 -0.00000000000E+00 -0.95398348181E+02  0.95398348181E+02  0.00000000000E+00 0.  1.
          6    1    1    2  501    0 -0.37862960956E+02  0.10063762546E+03  0.56892974890E+03  0.60429429474E+03  0.17300000000E+03 0. -1.
         -6    1    1    2    0  503  0.37862960956E+02 -0.10063762546E+03  0.55752243010E+02  0.21118439353E+03  0.17300000000E+03 0.  1.
<mgrwt>
<rscale>  2 0.20369226E+03</rscale>
<asrwt>0</asrwt>
<pdfrwt beam="1">  1       21 0.11078159E+00 0.20369226E+03</pdfrwt>
<pdfrwt beam="2">  1       21 0.14676669E-01 0.20369226E+03</pdfrwt>
<totfact> 0.26030582E+04</totfact>
</mgrwt>
</event>
<event>
 4    3  0.4041078E+000  0.1981645E+03  0.7546771E-02  0.1151297E+00
         21   -1    0    0  501  502  0.00000000000E+00  0.00000000000E+00  0.43628992583E+03  0.43628992583E+03  0.00000000000E+00 0.  1.
         21   -1    0    0  502  503 -0.00000000000E+00 -0.00000000000E+00 -0.14870545904E+03  0.14870545904E+03  0.00000000000E+00 0.  1.
          6    1    1    2  501    0 -0.27195737547E+02  0.92739254344E+02  0.32756116196E+03  0.38283872879E+03  0.17300000000E+03 0.  1.
         -6    1    1    2    0  503  0.27195737547E+02 -0.92739254344E+02 -0.39976695175E+02  0.20215665607E+03  0.17300000000E+03 0.  1.
<mgrwt>
<rscale>  2 0.19816452E+03</rscale>
<asrwt>0</asrwt>
<pdfrwt beam="1">  1       21 0.67121526E-01 0.19816452E+03</pdfrwt>
<pdfrwt beam="2">  1       21 0.22877763E-01 0.19816452E+03</pdfrwt>
<totfact> 0.36323037E+04</totfact>
</mgrwt>
</event>
<event>
 4    3  0.4041078E+000  0.2807481E+03  0.7546771E-02  0.1095281E+00
         21   -1    0    0  501  502  0.00000000000E+00  0.00000000000E+00  0.31850091420E+03  0.31850091420E+03  0.00000000000E+00 0.  1.
         21   -1    0    0  502  503 -0.00000000000E+00 -0.00000000000E+00 -0.80477594717E+03  0.80477594717E+03  0.00000000000E+00 0. -1.
          6    1    1    2  501    0 -0.19056182793E+03  0.11214578686E+03  0.22423813187E+03  0.35930798427E+03  0.17300000000E+03 0.  1.
         -6    1    1    2    0  503  0.19056182793E+03 -0.11214578686E+03 -0.71051316484E+03  0.76396887710E+03  0.17300000000E+03 0. -1.
<mgrwt>
<rscale>  2 0.28074809E+03</rscale>
<asrwt>0</asrwt>
<pdfrwt beam="1">  1       21 0.49000141E-01 0.28074809E+03</pdfrwt>
<pdfrwt beam="2">  1       21 0.12381168E+00 0.28074809E+03</pdfrwt>
<totfact> 0.18111350E+03</totfact>
</mgrwt>
</event>
<event>
 4    3  0.4041078E+000  0.1780428E+03  0.7546771E-02  0.1169711E+00
         21   -1    0    0  503  502  0.00000000000E+00  0.00000000000E+00  0.55509870619E+03  0.55509870619E+03  0.00000000000E+00 0.  1.
         21   -1    0    0  501  503 -0.00000000000E+00 -0.00000000000E+00 -0.89727547343E+02  0.89727547343E+02  0.00000000000E+00 0.  1.
          6    1    1    2  501    0 -0.29763346493E+02  0.29738292816E+02  0.38281658508E+02  0.18211180146E+03  0.17300000000E+03 0.  1.
         -6    1    1    2    0  502  0.29763346493E+02 -0.29738292816E+02  0.42708950034E+03  0.46271445207E+03  0.17300000000E+03 0.  1.
<mgrwt>
<rscale>  2 0.17804276E+03</rscale>
<asrwt>0</asrwt>
<pdfrwt beam="1">  1       21 0.85399798E-01 0.17804276E+03</pdfrwt>
<pdfrwt beam="2">  1       21 0.13804238E-01 0.17804276E+03</pdfrwt>
<totfact> 0.54450092E+04</totfact>
</mgrwt>
</event>
<event>
 4    3  0.4041078E+000  0.1955654E+03  0.7546771E-02  0.1153535E+00
         21   -1    0    0  501  502  0.00000000000E+00  0.00000000000E+00  0.39625541545E+03  0.39625541545E+03  0.00000000000E+00 0.  1.
         21   -1    0    0  502  503 -0.00000000000E+00 -0.00000000000E+00 -0.10922246511E+03  0.10922246511E+03  0.00000000000E+00 0.  1.
          6    1    1    2  501    0  0.11847257838E+02  0.90423832549E+02  0.22971351386E+03  0.30168547439E+03  0.17300000000E+03 0.  1.
         -6    1    1    2    0  503 -0.11847257838E+02 -0.90423832549E+02  0.57319436482E+02  0.20379240616E+03  0.17300000000E+03 0.  1.
<mgrwt>
<rscale>  2 0.19556540E+03</rscale>
<asrwt>0</asrwt>
<pdfrwt beam="1">  1       21 0.60962371E-01 0.19556540E+03</pdfrwt>
<pdfrwt beam="2">  1       21 0.16803456E-01 0.19556540E+03</pdfrwt>
<totfact> 0.79709094E+04</totfact>
</mgrwt>
</event>
<event>
 4    3  0.4041078E+000  0.3262118E+03  0.7546771E-02  0.1072825E+00
         21   -1    0    0  501  502  0.00000000000E+00  0.00000000000E+00  0.81144003974E+03  0.81144003974E+03  0.00000000000E+00 0.  1.
         21   -1    0    0  502  503 -0.00000000000E+00 -0.00000000000E+00 -0.15718735673E+03  0.15718735673E+03  0.00000000000E+00 0. -1.
          6    1    1    2  501    0  0.27654587133E+03 -0.27362907892E+01  0.12998365437E+03  0.35115503220E+03  0.17300000000E+03 0. -1.
         -6    1    1    2    0  503 -0.27654587133E+03  0.27362907892E+01  0.52426902864E+03  0.61747236426E+03  0.17300000000E+03 0.  1.
<mgrwt>
<rscale>  2 0.32621175E+03</rscale>
<asrwt>0</asrwt>
<pdfrwt beam="1">  1       21 0.12483693E+00 0.32621175E+03</pdfrwt>
<pdfrwt beam="2">  1       21 0.24182671E-01 0.32621175E+03</pdfrwt>
<totfact> 0.71323140E+03</totfact>
</mgrwt>
</event>
<event>
 4    3  0.4041078E+000  0.1760177E+03  0.7546771E-02  0.1171714E+00
         21   -1    0    0  501  502  0.00000000000E+00  0.00000000000E+00  0.44364542966E+02  0.44364542966E+02  0.00000000000E+00 0. -1.
         21   -1    0    0  502  503 -0.00000000000E+00 -0.00000000000E+00 -0.71604545143E+03  0.71604545143E+03  0.00000000000E+00 0. -1.
          6    1    1    2  501    0  0.13331534117E+02 -0.29589074800E+02 -0.27608120181E+03  0.32741880389E+03  0.17300000000E+03 0. -1.
         -6    1    1    2    0  503 -0.13331534117E+02  0.29589074800E+02 -0.39559970666E+03  0.43299119051E+03  0.17300000000E+03 0. -1.
<mgrwt>
<rscale>  2 0.17601774E+03</rscale>
<asrwt>0</asrwt>
<pdfrwt beam="1">  1       21 0.68253148E-02 0.17601774E+03</pdfrwt>
<pdfrwt beam="2">  1       21 0.11016083E+00 0.17601774E+03</pdfrwt>
<totfact> 0.10355466E+05</totfact>
</mgrwt>
</event>
<event>
 4    3  0.4041078E+000  0.1923807E+03  0.7546771E-02  0.1156331E+00
         21   -1    0    0  501  502  0.00000000000E+00  0.00000000000E+00  0.29768618898E+03  0.29768618898E+03  0.00000000000E+00 0.  1.
         21   -1    0    0  502  503 -0.00000000000E+00 -0.00000000000E+00 -0.14583094364E+03  0.14583094364E+03  0.00000000000E+00 0.  1.
          6    1    1    2  501    0  0.49094841667E+02 -0.68344916215E+02  0.16108416182E+03  0.25091520129E+03  0.17300000000E+03 0.  1.
         -6    1    1    2    0  503 -0.49094841667E+02  0.68344916215E+02 -0.92289164852E+01  0.19260193133E+03  0.17300000000E+03 0.  1.
<mgrwt>
<rscale>  2 0.19238069E+03</rscale>
<asrwt>0</asrwt>
<pdfrwt beam="1">  1       21 0.45797875E-01 0.19238069E+03</pdfrwt>
<pdfrwt beam="2">  1       21 0.22435530E-01 0.19238069E+03</pdfrwt>
<totfact> 0.85035138E+04</totfact>
</mgrwt>
</event>
<event>
 4    3  0.4041078E+000  0.1771025E+03  0.7546771E-02  0.1170637E+00
         21   -1    0    0  503  502  0.00000000000E+00  0.00000000000E+00  0.15993929306E+03  0.15993929306E+03  0.00000000000E+00 0. -1.
         21   -1    0    0  501  503 -0.00000000000E+00 -0.00000000000E+00 -0.20346108851E+03  0.20346108851E+03  0.00000000000E+00 0.  1.
          6    1    1    2  501    0  0.62930003538E+01  0.37372358399E+02 -0.56304238959E+02  0.18583719313E+03  0.17300000000E+03 0. -1.
         -6    1    1    2    0  502 -0.62930003538E+01 -0.37372358399E+02  0.12782443510E+02  0.17756318844E+03  0.17300000000E+03 0. -1.
<mgrwt>
<rscale>  2 0.17710250E+03</rscale>
<asrwt>0</asrwt>
<pdfrwt beam="1">  1       21 0.24606045E-01 0.17710250E+03</pdfrwt>
<pdfrwt beam="2">  1       21 0.31301706E-01 0.17710250E+03</pdfrwt>
<totfact> 0.15388403E+05</totfact>
</mgrwt>
</event>
<event>
 4    3  0.4041078E+000  0.2060002E+03  0.7546771E-02  0.1144773E+00
         21   -1    0    0  501  502  0.00000000000E+00  0.00000000000E+00  0.11305410430E+04  0.11305410430E+04  0.00000000000E+00 0. -1.
         21   -1    0    0  502  503 -0.00000000000E+00 -0.00000000000E+00 -0.78662059936E+02  0.78662059936E+02  0.00000000000E+00 0.  1.
          6    1    1    2  501    0 -0.65239952649E+02 -0.90834098978E+02  0.96310380423E+03  0.98488833005E+03  0.17300000000E+03 0. -1.
         -6    1    1    2    0  503  0.65239952649E+02  0.90834098978E+02  0.88775178847E+02  0.22431477289E+03  0.17300000000E+03 0.  1.
<mgrwt>
<rscale>  2 0.20600021E+03</rscale>
<asrwt>0</asrwt>
<pdfrwt beam="1">  1       21 0.17392938E+00 0.20600021E+03</pdfrwt>
<pdfrwt beam="2">  1       21 0.12101856E-01 0.20600021E+03</pdfrwt>
<totfact> 0.11460265E+04</totfact>
</mgrwt>
</event>
<event>
 4    3  0.4041078E+000  0.1863177E+03  0.7546771E-02  0.1161825E+00
         21   -1    0    0  503  502  0.00000000000E+00  0.00000000000E+00  0.37133682021E+03  0.37133682021E+03  0.00000000000E+00 0.  1.
         21   -1    0    0  501  503 -0.00000000000E+00 -0.00000000000E+00 -0.96498712200E+02  0.96498712200E+02  0.00000000000E+00 0.  1.
          6    1    1    2  501    0  0.33433081903E+02  0.60559865492E+02  0.96077834133E+02  0.20963114865E+03  0.17300000000E+03 0.  1.
         -6    1    1    2    0  502 -0.33433081903E+02 -0.60559865492E+02  0.17876027388E+03  0.25820438375E+03  0.17300000000E+03 0.  1.
<mgrwt>
<rscale>  2 0.18631765E+03</rscale>
<asrwt>0</asrwt>
<pdfrwt beam="1">  1       21 0.57128741E-01 0.18631765E+03</pdfrwt>
<pdfrwt beam="2">  1       21 0.14845956E-01 0.18631765E+03</pdfrwt>
<totfact> 0.11529222E+05</totfact>
</mgrwt>
</event>
<event>
 4    3  0.4041078E+000  0.2435845E+03  0.7546771E-02  0.1117428E+00
         21   -1    0    0  503  502  0.00000000000E+00  0.00000000000E+00  0.51331966362E+03  0.51331966362E+03  0.00000000000E+00 0.  1.
         21   -1    0    0  501  503 -0.00000000000E+00 -0.00000000000E+00 -0.16428684653E+03  0.16428684653E+03  0.00000000000E+00 0.  1.
          6    1    1    2  501    0 -0.34648559099E+02 -0.16794006745E+03 -0.99457516060E+01  0.24378742149E+03  0.17300000000E+03 0.  1.
         -6    1    1    2    0  502  0.34648559099E+02  0.16794006745E+03  0.35897856870E+03  0.43381908866E+03  0.17300000000E+03 0.  1.
<mgrwt>
<rscale>  2 0.24358446E+03</rscale>
<asrwt>0</asrwt>
<pdfrwt beam="1">  1       21 0.78972255E-01 0.24358446E+03</pdfrwt>
<pdfrwt beam="2">  1       21 0.25274900E-01 0.24358446E+03</pdfrwt>
<totfact> 0.20417363E+04</totfact>
</mgrwt>
</event>
<event>
 4    3  0.4041078E+000  0.2008303E+03  0.7546771E-02  0.1149040E+00
         21   -1    0    0  503  502  0.00000000000E+00  0.00000000000E+00  0.98778339715E+02  0.98778339715E+02  0.00000000000E+00 0.  1.
         21   -1    0    0  501  503 -0.00000000000E+00 -0.00000000000E+00 -0.42427590353E+03  0.42427590353E+03  0.00000000000E+00 0. -1.
          6    1    1    2  501    0 -0.75883732092E+02  0.68157783951E+02 -0.21347133486E+03  0.29309185440E+03  0.17300000000E+03 0.  1.
         -6    1    1    2    0  502  0.75883732092E+02 -0.68157783951E+02 -0.11202622896E+03  0.22996238885E+03  0.17300000000E+03 0.  1.
<mgrwt>
<rscale>  2 0.20083034E+03</rscale>
<asrwt>0</asrwt>
<pdfrwt beam="1">  1       21 0.15196668E-01 0.20083034E+03</pdfrwt>
<pdfrwt beam="2">  1       21 0.65273216E-01 0.20083034E+03</pdfrwt>
<totfact> 0.82440665E+04</totfact>
</mgrwt>
</event>
<event>
 4    3  0.4041078E+000  0.2237376E+03  0.7546771E-02  0.1131127E+00
         21   -1    0    0  501  502  0.00000000000E+00  0.00000000000E+00  0.20364359099E+03  0.20364359099E+03  0.00000000000E+00 0. -1.
         21   -1    0    0  502  503 -0.00000000000E+00 -0.00000000000E+00 -0.27193596037E+03  0.27193596037E+03  0.00000000000E+00 0. -1.
          6    1    1    2  501    0 -0.80659125574E+02  0.11672030237E+03 -0.10784483961E+03  0.24837277016E+03  0.17300000000E+03 0. -1.
         -6    1    1    2    0  503  0.80659125574E+02 -0.11672030237E+03  0.39552470239E+02  0.22720678120E+03  0.17300000000E+03 0. -1.
<mgrwt>
<rscale>  2 0.22373762E+03</rscale>
<asrwt>0</asrwt>
<pdfrwt beam="1">  1       21 0.31329783E-01 0.22373762E+03</pdfrwt>
<pdfrwt beam="2">  1       21 0.41836302E-01 0.22373762E+03</pdfrwt>
<totfact> 0.53075753E+04</totfact>
</mgrwt>
</event>
<event>
 4    3  0.4041078E+000  0.4143323E+03  0.7546771E-02  0.1038927E+00
         21   -1    0    0  503  502  0.00000000000E+00  0.00000000000E+00  0.28938747568E+03  0.28938747568E+03  0.00000000000E+00 0. -1.
         21   -1    0    0  501  503 -0.00000000000E+00 -0.00000000000E+00 -0.59322350460E+03  0.59322350460E+03  0.00000000000E+00 0.  1.
          6    1    1    2  501    0 -0.14064513389E+03  0.34922948988E+03 -0.15148902319E+03  0.44115781126E+03  0.17300000000E+03 0. -1.
         -6    1    1    2    0  502  0.14064513389E+03 -0.34922948988E+03 -0.15234700573E+03  0.44145316902E+03  0.17300000000E+03 0.  1.
<mgrwt>
<rscale>  2 0.41433234E+03</rscale>
<asrwt>0</asrwt>
<pdfrwt beam="1">  1       21 0.44521151E-01 0.41433234E+03</pdfrwt>
<pdfrwt beam="2">  1       21 0.91265153E-01 0.41433234E+03</pdfrwt>
<totfact> 0.43724718E+03</totfact>
</mgrwt>
</event>
<event>
 4    3  0.4041078E+000  0.1783687E+03  0.7546771E-02  0.1169391E+00
         21   -1    0    0  501  502  0.00000000000E+00  0.00000000000E+00  0.52968284366E+02  0.52968284366E+02  0.00000000000E+00 0.  1.
         21   -1    0    0  502  503 -0.00000000000E+00 -0.00000000000E+00 -0.62702864369E+03  0.62702864369E+03  0.00000000000E+00 0.  1.
          6    1    1    2  501    0 -0.24684795594E+02 -0.35735833335E+02 -0.21729350754E+03  0.28112605240E+03  0.17300000000E+03 0.  1.
         -6    1    1    2    0  503  0.24684795594E+02  0.35735833335E+02 -0.35676685178E+03  0.39887087566E+03  0.17300000000E+03 0.  1.
<mgrwt>
<rscale>  2 0.17836869E+03</rscale>
<asrwt>0</asrwt>
<pdfrwt beam="1">  1       21 0.81489668E-02 0.17836869E+03</pdfrwt>
<pdfrwt beam="2">  1       21 0.96465945E-01 0.17836869E+03</pdfrwt>
<totfact> 0.10445158E+05</totfact>
</mgrwt>
</event>
<event>
 4    3  0.4041078E+000  0.1929256E+03  0.7546771E-02  0.1155849E+00
         21   -1    0    0  501  502  0.00000000000E+00  0.00000000000E+00  0.72563283179E+02  0.72563283179E+02  0.00000000000E+00 0.  1.
         21   -1    0    0  502  503 -0.00000000000E+00 -0.00000000000E+00 -0.57357656200E+03  0.57357656200E+03  0.00000000000E+00 0.  1.
          6    1    1    2  501    0 -0.32063994956E+02 -0.79140338537E+02 -0.14545960808E+03  0.24161703280E+03  0.17300000000E+03 0.  1.
         -6    1    1    2    0  503  0.32063994956E+02  0.79140338537E+02 -0.35555367075E+03  0.40452281238E+03  0.17300000000E+03 0.  1.
<mgrwt>
<rscale>  2 0.19292562E+03</rscale>
<asrwt>0</asrwt>
<pdfrwt beam="1">  1       21 0.11163582E-01 0.19292562E+03</pdfrwt>
<pdfrwt beam="2">  1       21 0.88242547E-01 0.19292562E+03</pdfrwt>
<totfact> 0.73398025E+04</totfact>
</mgrwt>
</event>
<event>
 4    3  0.4041078E+000  0.1851252E+03  0.7546771E-02  0.1162933E+00
         21   -1    0    0  501  502  0.00000000000E+00  0.00000000000E+00  0.16888022149E+03  0.16888022149E+03  0.00000000000E+00 0.  1.
         21   -1    0    0  502  503 -0.00000000000E+00 -0.00000000000E+00 -0.21854950554E+03  0.21854950554E+03  0.00000000000E+00 0.  1.
          6    1    1    2  501    0  0.58196357265E+02  0.30911392264E+02  0.26947884828E+02  0.18707623758E+03  0.17300000000E+03 0.  1.
         -6    1    1    2    0  503 -0.58196357265E+02 -0.30911392264E+02 -0.76617168876E+02  0.20035348946E+03  0.17300000000E+03 0.  1.
<mgrwt>
<rscale>  2 0.18512517E+03</rscale>
<asrwt>0</asrwt>
<pdfrwt beam="1">  1       21 0.25981572E-01 0.18512517E+03</pdfrwt>
<pdfrwt beam="2">  1       21 0.33623001E-01 0.18512517E+03</pdfrwt>
<totfact> 0.12020488E+05</totfact>
</mgrwt>
</event>
<event>
 4    3  0.4041078E+000  0.2036916E+03  0.7546771E-02  0.1146661E+00
         21   -1    0    0  503  502  0.00000000000E+00  0.00000000000E+00  0.45271722362E+03  0.45271722362E+03  0.00000000000E+00 0.  1.
         21   -1    0    0  501  503 -0.00000000000E+00 -0.00000000000E+00 -0.11288033851E+03  0.11288033851E+03  0.00000000000E+00 0.  1.
          6    1    1    2  501    0 -0.30967098841E+02 -0.10296749734E+03  0.47266209273E+02  0.20910370934E+03  0.17300000000E+03 0.  1.
         -6    1    1    2    0  502  0.30967098841E+02  0.10296749734E+03  0.29257067584E+03  0.35649385280E+03  0.17300000000E+03 0.  1.
<mgrwt>
<rscale>  2 0.20369160E+03</rscale>
<asrwt>0</asrwt>
<pdfrwt beam="1">  1       21 0.69648803E-01 0.20369160E+03</pdfrwt>
<pdfrwt beam="2">  1       21 0.17366206E-01 0.20369160E+03</pdfrwt>
<totfact> 0.55902213E+04</totfact>
</mgrwt>
</event>
<event>
 4    3  0.4041078E+000  0.1984028E+03  0.7546771E-02  0.1151094E+00
         21   -1    0    0  501  502  0.00000000000E+00  0.00000000000E+00  0.14891990418E+03  0.14891990418E+03  0.00000000000E+00 0. -1.
         21   -1    0    0  502  503 -0.00000000000E+00 -0.00000000000E+00 -0.29605527825E+03  0.29605527825E+03  0.00000000000E+00 0. -1.
          6    1    1    2  501    0  0.78769725923E+02  0.56833247185E+02 -0.73331444997E+00  0.19840419718E+03  0.17300000000E+03 0. -1.
         -6    1    1    2    0  503 -0.78769725923E+02 -0.56833247185E+02 -0.14640205962E+03  0.24657098525E+03  0.17300000000E+03 0. -1.
<mgrwt>
<rscale>  2 0.19840284E+03</rscale>
<asrwt>0</asrwt>
<pdfrwt beam="1">  1       21 0.22910755E-01 0.19840284E+03</pdfrwt>
<pdfrwt beam="2">  1       21 0.45546966E-01 0.19840284E+03</pdfrwt>
<totfact> 0.82444898E+04</totfact>
</mgrwt>
</event>
<event>
 4    3  0.4041078E+000  0.2100799E+03  0.7546771E-02  0.1141503E+00
         21   -1    0    0  503  502  0.00000000000E+00  0.00000000000E+00  0.10176128454E+03  0.10176128454E+03  0.00000000000E+00 0. -1.
         21   -1    0    0  501  503 -0.00000000000E+00 -0.00000000000E+00 -0.52186855152E+03  0.52186855152E+03  0.00000000000E+00 0. -1.
          6    1    1    2  501    0  0.10891386050E+03 -0.48397717762E+02 -0.33822188626E+03  0.39815526173E+03  0.17300000000E+03 0. -1.
         -6    1    1    2    0  502 -0.10891386050E+03  0.48397717762E+02 -0.81885380722E+02  0.22547457433E+03  0.17300000000E+03 0. -1.
<mgrwt>
<rscale>  2 0.21007991E+03</rscale>
<asrwt>0</asrwt>
<pdfrwt beam="1">  1       21 0.15655582E-01 0.21007991E+03</pdfrwt>
<pdfrwt beam="2">  1       21 0.80287471E-01 0.21007991E+03</pdfrwt>
<totfact> 0.49073082E+04</totfact>
</mgrwt>
</event>
<event>
 4    3  0.4041078E+000  0.1925070E+03  0.7546771E-02  0.1156219E+00
         21   -1    0    0  501  502  0.00000000000E+00  0.00000000000E+00  0.17139655815E+03  0.17139655815E+03  0.00000000000E+00 0. -1.
         21   -1    0    0  502  503 -0.00000000000E+00 -0.00000000000E+00 -0.23391681383E+03  0.23391681383E+03  0.00000000000E+00 0. -1.
          6    1    1    2  501    0 -0.78693825974E+02  0.30613875290E+02  0.24485265347E+02  0.19405786721E+03  0.17300000000E+03 0. -1.
         -6    1    1    2    0  503  0.78693825974E+02 -0.30613875290E+02 -0.87005521034E+02  0.21125550477E+03  0.17300000000E+03 0. -1.
<mgrwt>
<rscale>  2 0.19250695E+03</rscale>
<asrwt>0</asrwt>
<pdfrwt beam="1">  1       21 0.26368701E-01 0.19250695E+03</pdfrwt>
<pdfrwt beam="2">  1       21 0.35987202E-01 0.19250695E+03</pdfrwt>
<totfact> 0.10185348E+05</totfact>
</mgrwt>
</event>
<event>
 4    3  0.4041078E+000  0.1751920E+03  0.7546771E-02  0.1172539E+00
         21   -1    0    0  503  502  0.00000000000E+00  0.00000000000E+00  0.43679710168E+03  0.43679710168E+03  0.00000000000E+00 0.  1.
         21   -1    0    0  501  503 -0.00000000000E+00 -0.00000000000E+00 -0.70269780151E+02  0.70269780151E+02  0.00000000000E+00 0.  1.
          6    1    1    2  501    0 -0.15367277902E+02 -0.22957967033E+02  0.18154233733E+03  0.25228920255E+03  0.17300000000E+03 0.  1.
         -6    1    1    2    0  502  0.15367277902E+02  0.22957967033E+02  0.18498498420E+03  0.25477767928E+03  0.17300000000E+03 0.  1.
<mgrwt>
<rscale>  2 0.17519196E+03</rscale>
<asrwt>0</asrwt>
<pdfrwt beam="1">  1       21 0.67199553E-01 0.17519196E+03</pdfrwt>
<pdfrwt beam="2">  1       21 0.10810736E-01 0.17519196E+03</pdfrwt>
<totfact> 0.14411201E+05</totfact>
</mgrwt>
</event>
<event>
 4    3  0.4041078E+000  0.1780749E+03  0.7546771E-02  0.1169679E+00
         21   -1    0    0  503  502  0.00000000000E+00  0.00000000000E+00  0.17902638604E+03  0.17902638604E+03  0.00000000000E+00 0. -1.
         21   -1    0    0  501  503 -0.00000000000E+00 -0.00000000000E+00 -0.39450174353E+03  0.39450174353E+03  0.00000000000E+00 0. -1.
          6    1    1    2  501    0 -0.97001645717E+01 -0.41080117224E+02 -0.32060222855E+03  0.36673758762E+03  0.17300000000E+03 0. -1.
         -6    1    1    2    0  502  0.97001645717E+01  0.41080117224E+02  0.10512687106E+03  0.20679054196E+03  0.17300000000E+03 0. -1.
<mgrwt>
<rscale>  2 0.17807490E+03</rscale>
<asrwt>0</asrwt>
<pdfrwt beam="1">  1       21 0.27542521E-01 0.17807490E+03</pdfrwt>
<pdfrwt beam="2">  1       21 0.60692576E-01 0.17807490E+03</pdfrwt>
<totfact> 0.32046359E+04</totfact>
</mgrwt>
</event>
<event>
 4    3  0.4041078E+000  0.2143152E+03  0.7546771E-02  0.1138194E+00
         21   -1    0    0  501  502  0.00000000000E+00  0.00000000000E+00  0.10248866336E+03  0.10248866336E+03  0.00000000000E+00 0. -1.
         21   -1    0    0  502  503 -0.00000000000E+00 -0.00000000000E+00 -0.45643010993E+03  0.45643010993E+03  0.00000000000E+00 0. -1.
          6    1    1    2  501    0 -0.85595064817E+02  0.93142209701E+02 -0.13934607049E+03  0.25563316238E+03  0.17300000000E+03 0. -1.
         -6    1    1    2    0  503  0.85595064817E+02 -0.93142209701E+02 -0.21459537609E+03  0.30328561091E+03  0.17300000000E+03 0. -1.
<mgrwt>
<rscale>  2 0.21431516E+03</rscale>
<asrwt>0</asrwt>
<pdfrwt beam="1">  1       21 0.15767487E-01 0.21431516E+03</pdfrwt>
<pdfrwt beam="2">  1       21 0.70220016E-01 0.21431516E+03</pdfrwt>
<totfact> 0.65256279E+04</totfact>
</mgrwt>
</event>
<event>
 4    3  0.4041078E+000  0.3328337E+03  0.7546771E-02  0.1069890E+00
         21   -1    0    0  503  502  0.00000000000E+00  0.00000000000E+00  0.15014576200E+04  0.15014576200E+04  0.00000000000E+00 0.  1.
         21   -1    0    0  501  503 -0.00000000000E+00 -0.00000000000E+00 -0.11694146525E+03  0.11694146525E+03  0.00000000000E+00 0.  1.
          6    1    1    2  501    0  0.11124494328E+02 -0.28412234236E+03  0.20065221662E+03  0.38863809880E+03  0.17300000000E+03 0.  1.
         -6    1    1    2    0  502 -0.11124494328E+02  0.28412234236E+03  0.11838639382E+04  0.12297609865E+04  0.17300000000E+03 0.  1.
<mgrwt>
<rscale>  2 0.33283368E+03</rscale>
<asrwt>0</asrwt>
<pdfrwt beam="1">  1       21 0.23099347E+00 0.33283368E+03</pdfrwt>
<pdfrwt beam="2">  1       21 0.17990996E-01 0.33283368E+03</pdfrwt>
<totfact> 0.21596360E+03</totfact>
</mgrwt>
</event>
<event>
 4    3  0.4041078E+000  0.1786492E+03  0.7546771E-02  0.1169117E+00
         21   -1    0    0  501  502  0.00000000000E+00  0.00000000000E+00  0.28789119309E+03  0.28789119309E+03  0.00000000000E+00 0. -1.
         21   -1    0    0  502  503 -0.00000000000E+00 -0.00000000000E+00 -0.25707354513E+03  0.25707354513E+03  0.00000000000E+00 0. -1.
          6    1    1    2  501    0 -0.44427296073E+02  0.35716139812E+01  0.22090507920E+03  0.28410314162E+03  0.17300000000E+03 0. -1.
         -6    1    1    2    0  503  0.44427296073E+02 -0.35716139812E+01 -0.19008743124E+03  0.26086159660E+03  0.17300000000E+03 0. -1.
<mgrwt>
<rscale>  2 0.17864921E+03</rscale>
<asrwt>0</asrwt>
<pdfrwt beam="1">  1       21 0.44290953E-01 0.17864921E+03</pdfrwt>
<pdfrwt beam="2">  1       21 0.39549776E-01 0.17864921E+03</pdfrwt>
<totfact> 0.30399147E+04</totfact>
</mgrwt>
</event>
<event>
 4    3  0.4041078E+000  0.2344794E+03  0.7546771E-02  0.1123526E+00
         21   -1    0    0  503  502  0.00000000000E+00  0.00000000000E+00  0.43180979458E+03  0.43180979458E+03  0.00000000000E+00 0.  1.
         21   -1    0    0  501  503 -0.00000000000E+00 -0.00000000000E+00 -0.14148552479E+03  0.14148552479E+03  0.00000000000E+00 0.  1.
          6    1    1    2  501    0  0.12126532690E+03  0.10171675463E+03  0.54480775698E+02  0.24072542990E+03  0.17300000000E+03 0.  1.
         -6    1    1    2    0  502 -0.12126532690E+03 -0.10171675463E+03  0.23584349409E+03  0.33256988948E+03  0.17300000000E+03 0.  1.
<mgrwt>
<rscale>  2 0.23447938E+03</rscale>
<asrwt>0</asrwt>
<pdfrwt beam="1">  1       21 0.66432275E-01 0.23447938E+03</pdfrwt>
<pdfrwt beam="2">  1       21 0.21767004E-01 0.23447938E+03</pdfrwt>
<totfact> 0.40101700E+04</totfact>
</mgrwt>
</event>
<event>
 4    3  0.4041078E+000  0.1996204E+03  0.7546771E-02  0.1150060E+00
         21   -1    0    0  503  502  0.00000000000E+00  0.00000000000E+00  0.19800737169E+03  0.19800737169E+03  0.00000000000E+00 0.  1.
         21   -1    0    0  501  503 -0.00000000000E+00 -0.00000000000E+00 -0.22439520337E+03  0.22439520337E+03  0.00000000000E+00 0. -1.
          6    1    1    2  501    0  0.17598601226E+02 -0.98028450504E+02 -0.81028823386E+02  0.21543898926E+03  0.17300000000E+03 0. -1.
         -6    1    1    2    0  502 -0.17598601226E+02  0.98028450504E+02  0.54640991707E+02  0.20696358580E+03  0.17300000000E+03 0.  1.
<mgrwt>
<rscale>  2 0.19962036E+03</rscale>
<asrwt>0</asrwt>
<pdfrwt beam="1">  1       21 0.30462672E-01 0.19962036E+03</pdfrwt>
<pdfrwt beam="2">  1       21 0.34522339E-01 0.19962036E+03</pdfrwt>
<totfact> 0.83393008E+04</totfact>
</mgrwt>
</event>
<event>
 4    3  0.4041078E+000  0.2178102E+03  0.7546771E-02  0.1135526E+00
         21   -1    0    0  501  502  0.00000000000E+00  0.00000000000E+00  0.82878078700E+03  0.82878078700E+03  0.00000000000E+00 0. -1.
         21   -1    0    0  502  503 -0.00000000000E+00 -0.00000000000E+00 -0.11957426942E+03  0.11957426942E+03  0.00000000000E+00 0. -1.
          6    1    1    2  501    0 -0.12561248286E+03 -0.41638664560E+02  0.69695907522E+03  0.73020081263E+03  0.17300000000E+03 0. -1.
         -6    1    1    2    0  503  0.12561248286E+03  0.41638664560E+02  0.12247442368E+02  0.21815424379E+03  0.17300000000E+03 0. -1.
<mgrwt>
<rscale>  2 0.21781018E+03</rscale>
<asrwt>0</asrwt>
<pdfrwt beam="1">  1       21 0.12750473E+00 0.21781018E+03</pdfrwt>
<pdfrwt beam="2">  1       21 0.18396042E-01 0.21781018E+03</pdfrwt>
<totfact> 0.12029991E+04</totfact>
</mgrwt>
</event>
<event>
 4    3  0.4041078E+000  0.2082050E+03  0.7546771E-02  0.1142995E+00
         21   -1    0    0  503  502  0.00000000000E+00  0.00000000000E+00  0.14223103315E+03  0.14223103315E+03  0.00000000000E+00 0.  1.
         21   -1    0    0  501  503 -0.00000000000E+00 -0.00000000000E+00 -0.75851843760E+03  0.75851843760E+03  0.00000000000E+00 0.  1.
          6    1    1    2  501    0 -0.55327263070E+02  0.10178019250E+03 -0.65647561599E+03  0.68870134892E+03  0.17300000000E+03 0.  1.
         -6    1    1    2    0  502  0.55327263070E+02 -0.10178019250E+03  0.40188211539E+02  0.21204812183E+03  0.17300000000E+03 0.  1.
<mgrwt>
<rscale>  2 0.20820498E+03</rscale>
<asrwt>0</asrwt>
<pdfrwt beam="1">  1       21 0.21881697E-01 0.20820498E+03</pdfrwt>
<pdfrwt beam="2">  1       21 0.11669514E+00 0.20820498E+03</pdfrwt>
<totfact> 0.10911365E+04</totfact>
</mgrwt>
</event>
<event>
 4    3  0.4041078E+000  0.2133861E+03  0.7546771E-02  0.1138912E+00
         21   -1    0    0  501  502  0.00000000000E+00  0.00000000000E+00  0.90537419038E+02  0.90537419038E+02  0.00000000000E+00 0. -1.
         21   -1    0    0  502  503 -0.00000000000E+00 -0.00000000000E+00 -0.51227517102E+03  0.51227517102E+03  0.00000000000E+00 0. -1.
          6    1    1    2  501    0 -0.84882116938E+02 -0.91649627912E+02 -0.25158680314E+03  0.32989323665E+03  0.17300000000E+03 0. -1.
         -6    1    1    2    0  503  0.84882116938E+02  0.91649627912E+02 -0.17015094884E+03  0.27291935340E+03  0.17300000000E+03 0. -1.
<mgrwt>
<rscale>  2 0.21338610E+03</rscale>
<asrwt>0</asrwt>
<pdfrwt beam="1">  1       21 0.13928834E-01 0.21338610E+03</pdfrwt>
<pdfrwt beam="2">  1       21 0.78811565E-01 0.21338610E+03</pdfrwt>
<totfact> 0.63229991E+04</totfact>
</mgrwt>
</event>
<event>
 4    3  0.4041078E+000  0.2787513E+03  0.7546771E-02  0.1096373E+00
         21   -1    0    0  503  502  0.00000000000E+00  0.00000000000E+00  0.36709802733E+03  0.36709802733E+03  0.00000000000E+00 0. -1.
         21   -1    0    0  501  503 -0.00000000000E+00 -0.00000000000E+00 -0.25841318605E+03  0.25841318605E+03  0.00000000000E+00 0.  1.
          6    1    1    2  501    0  0.37738540880E+02 -0.21528834380E+03  0.18736466563E+03  0.33586870407E+03  0.17300000000E+03 0. -1.
         -6    1    1    2    0  502 -0.37738540880E+02  0.21528834380E+03 -0.78679824351E+02  0.28964250932E+03  0.17300000000E+03 0.  1.
<mgrwt>
<rscale>  2 0.27875127E+03</rscale>
<asrwt>0</asrwt>
<pdfrwt beam="1">  1       21 0.56476620E-01 0.27875127E+03</pdfrwt>
<pdfrwt beam="2">  1       21 0.39755875E-01 0.27875127E+03</pdfrwt>
<totfact> 0.17181213E+04</totfact>
</mgrwt>
</event>
<event>
 4    3  0.4041078E+000  0.2228120E+03  0.7546771E-02  0.1131804E+00
         21   -1    0    0  501  502  0.00000000000E+00  0.00000000000E+00  0.24695467558E+03  0.24695467558E+03  0.00000000000E+00 0.  1.
         21   -1    0    0  502  503 -0.00000000000E+00 -0.00000000000E+00 -0.24370629355E+03  0.24370629355E+03  0.00000000000E+00 0. -1.
          6    1    1    2  501    0  0.14028760191E+03  0.59630250499E+01  0.10428724033E+03  0.24601015714E+03  0.17300000000E+03 0.  1.
         -6    1    1    2    0  503 -0.14028760191E+03 -0.59630250499E+01 -0.10103885831E+03  0.24465081199E+03  0.17300000000E+03 0. -1.
<mgrwt>
<rscale>  2 0.22281196E+03</rscale>
<asrwt>0</asrwt>
<pdfrwt beam="1">  1       21 0.37993027E-01 0.22281196E+03</pdfrwt>
<pdfrwt beam="2">  1       21 0.37493276E-01 0.22281196E+03</pdfrwt>
<totfact> 0.45175068E+04</totfact>
</mgrwt>
</event>
<event>
 4    3  0.4041078E+000  0.1831209E+03  0.7546771E-02  0.1164816E+00
         21   -1    0    0  503  502  0.00000000000E+00  0.00000000000E+00  0.11800440166E+03  0.11800440166E+03  0.00000000000E+00 0.  1.
         21   -1    0    0  501  503 -0.00000000000E+00 -0.00000000000E+00 -0.58340717847E+03  0.58340717847E+03  0.00000000000E+00 0.  1.
          6    1    1    2  501    0  0.46211242393E+02 -0.38324556079E+02 -0.48386990354E+03  0.51736189855E+03  0.17300000000E+03 0. -1.
         -6    1    1    2    0  502 -0.46211242393E+02  0.38324556079E+02  0.18467126730E+02  0.18404968159E+03  0.17300000000E+03 0. -1.
<mgrwt>
<rscale>  2 0.18312086E+03</rscale>
<asrwt>0</asrwt>
<pdfrwt beam="1">  1       21 0.18154523E-01 0.18312086E+03</pdfrwt>
<pdfrwt beam="2">  1       21 0.89754951E-01 0.18312086E+03</pdfrwt>
<totfact> 0.29372646E+04</totfact>
</mgrwt>
</event>
<event>
 4    3  0.4041078E+000  0.2229452E+03  0.7546771E-02  0.1131706E+00
         21   -1    0    0  503  502  0.00000000000E+00  0.00000000000E+00  0.66082210214E+02  0.66082210214E+02  0.00000000000E+00 0.  1.
         21   -1    0    0  501  503 -0.00000000000E+00 -0.00000000000E+00 -0.13049976184E+04  0.13049976184E+04  0.00000000000E+00 0.  1.
          6    1    1    2  501    0 -0.10657695360E+03 -0.91743776161E+02 -0.10656536870E+04  0.10887251022E+04  0.17300000000E+03 0.  1.
         -6    1    1    2    0  502  0.10657695360E+03  0.91743776161E+02 -0.17326172114E+03  0.28235472639E+03  0.17300000000E+03 0.  1.
<mgrwt>
<rscale>  2 0.22294521E+03</rscale>
<asrwt>0</asrwt>
<pdfrwt beam="1">  1       21 0.10166496E-01 0.22294521E+03</pdfrwt>
<pdfrwt beam="2">  1       21 0.20076882E+00 0.22294521E+03</pdfrwt>
<totfact> 0.10210680E+04</totfact>
</mgrwt>
</event>
<event>
 4    3  0.4041078E+000  0.1842575E+03  0.7546771E-02  0.1163745E+00
         21   -1    0    0  501  502  0.00000000000E+00  0.00000000000E+00  0.31317792519E+02  0.31317792519E+02  0.00000000000E+00 0. -1.
         21   -1    0    0  502  503 -0.00000000000E+00 -0.00000000000E+00 -0.14330849595E+04  0.14330849595E+04  0.00000000000E+00 0. -1.
          6    1    1    2  501    0 -0.63085120874E+02 -0.64889333062E+01 -0.33954575845E+03  0.38631872956E+03  0.17300000000E+03 0. -1.
         -6    1    1    2    0  503  0.63085120874E+02  0.64889333062E+01 -0.10622214086E+04  0.10780840225E+04  0.17300000000E+03 0. -1.
<mgrwt>
<rscale>  2 0.18425753E+03</rscale>
<asrwt>0</asrwt>
<pdfrwt beam="1">  1       21 0.48181217E-02 0.18425753E+03</pdfrwt>
<pdfrwt beam="2">  1       21 0.22047462E+00 0.18425753E+03</pdfrwt>
<totfact> 0.28805262E+04</totfact>
</mgrwt>
</event>
<event>
 4    3  0.4041078E+000  0.2880373E+03  0.7546771E-02  0.1091378E+00
         21   -1    0    0  501  502  0.00000000000E+00  0.00000000000E+00  0.94357227117E+03  0.94357227117E+03  0.00000000000E+00 0.  1.
         21   -1    0    0  502  503 -0.00000000000E+00 -0.00000000000E+00 -0.37209729611E+03  0.37209729611E+03  0.00000000000E+00 0.  1.
          6    1    1    2  501    0 -0.15437638600E+03  0.17089307795E+03  0.86061839992E+03  0.90754038088E+03  0.17300000000E+03 0.  1.
         -6    1    1    2    0  503  0.15437638600E+03 -0.17089307795E+03 -0.28914342486E+03  0.40812918639E+03  0.17300000000E+03 0.  1.
<mgrwt>
<rscale>  2 0.28803735E+03</rscale>
<asrwt>0</asrwt>
<pdfrwt beam="1">  1       21 0.14516496E+00 0.28803735E+03</pdfrwt>
<pdfrwt beam="2">  1       21 0.57245738E-01 0.28803735E+03</pdfrwt>
<totfact> 0.85872329E+02</totfact>
</mgrwt>
</event>
<event>
 4    3  0.4041078E+000  0.1752611E+03  0.7546771E-02  0.1172470E+00
         21   -1    0    0  501  502  0.00000000000E+00  0.00000000000E+00  0.17604370008E+03  0.17604370008E+03  0.00000000000E+00 0. -1.
         21   -1    0    0  502  503 -0.00000000000E+00 -0.00000000000E+00 -0.17451375030E+03  0.17451375030E+03  0.00000000000E+00 0.  1.
          6    1    1    2  501    0  0.27159215958E+02  0.70602187499E+01 -0.15965336296E+01  0.17526841878E+03  0.17300000000E+03 0. -1.
         -6    1    1    2    0  503 -0.27159215958E+02 -0.70602187499E+01  0.31264834129E+01  0.17528903160E+03  0.17300000000E+03 0.  1.
<mgrwt>
<rscale>  2 0.17526115E+03</rscale>
<asrwt>0</asrwt>
<pdfrwt beam="1">  1       21 0.27083646E-01 0.17526115E+03</pdfrwt>
<pdfrwt beam="2">  1       21 0.26848269E-01 0.17526115E+03</pdfrwt>
<totfact> 0.17255317E+05</totfact>
</mgrwt>
</event>
<event>
 4    3  0.4041078E+000  0.2994962E+03  0.7546771E-02  0.1085493E+00
         21   -1    0    0  501  502  0.00000000000E+00  0.00000000000E+00  0.12672326316E+04  0.12672326316E+04  0.00000000000E+00 0. -1.
         21   -1    0    0  502  503 -0.00000000000E+00 -0.00000000000E+00 -0.16850094764E+03  0.16850094764E+03  0.00000000000E+00 0. -1.
          6    1    1    2  501    0 -0.35489343939E+02 -0.24188738236E+03  0.10960428174E+04  0.11362252667E+04  0.17300000000E+03 0. -1.
         -6    1    1    2    0  503  0.35489343939E+02  0.24188738236E+03  0.26888666385E+01  0.29950831254E+03  0.17300000000E+03 0. -1.
<mgrwt>
<rscale>  2 0.29949624E+03</rscale>
<asrwt>0</asrwt>
<pdfrwt beam="1">  1       21 0.19495886E+00 0.29949624E+03</pdfrwt>
<pdfrwt beam="2">  1       21 0.25923223E-01 0.29949624E+03</pdfrwt>
<totfact> 0.18710337E+03</totfact>
</mgrwt>
</event>
<event>
 4    3  0.4041078E+000  0.2224519E+03  0.7546771E-02  0.1132068E+00
         21   -1    0    0  503  502  0.00000000000E+00  0.00000000000E+00  0.19392801872E+03  0.19392801872E+03  0.00000000000E+00 0.  1.
         21   -1    0    0  501  503 -0.00000000000E+00 -0.00000000000E+00 -0.49313159835E+03  0.49313159835E+03  0.00000000000E+00 0.  1.
          6    1    1    2  501    0  0.43700870101E+02 -0.13283860179E+03 -0.38823741843E+03  0.44745184461E+03  0.17300000000E+03 0.  1.
         -6    1    1    2    0  502 -0.43700870101E+02  0.13283860179E+03  0.89033838799E+02  0.23960777246E+03  0.17300000000E+03 0.  1.
<mgrwt>
<rscale>  2 0.22245193E+03</rscale>
<asrwt>0</asrwt>
<pdfrwt beam="1">  1       21 0.29835080E-01 0.22245193E+03</pdfrwt>
<pdfrwt beam="2">  1       21 0.75866400E-01 0.22245193E+03</pdfrwt>
<totfact> 0.16391379E+04</totfact>
</mgrwt>
</event>
<event>
 4    3  0.4041078E+000  0.1910310E+03  0.7546771E-02  0.1157535E+00
         21   -1    0    0  503  502  0.00000000000E+00  0.00000000000E+00  0.27129701141E+03  0.27129701141E+03  0.00000000000E+00 0. -1.
         21   -1    0    0  501  503 -0.00000000000E+00 -0.00000000000E+00 -0.13519368583E+03  0.13519368583E+03  0.00000000000E+00 0. -1.
          6    1    1    2  501    0 -0.62209508517E+01  0.80778459991E+02  0.53625493313E+02  0.19841510366E+03  0.17300000000E+03 0.  1.
         -6    1    1    2    0  502  0.62209508517E+01 -0.80778459991E+02  0.82477832263E+02  0.20807559358E+03  0.17300000000E+03 0.  1.
<mgrwt>
<rscale>  2 0.19103104E+03</rscale>
<asrwt>0</asrwt>
<pdfrwt beam="1">  1       21 0.41738002E-01 0.19103104E+03</pdfrwt>
<pdfrwt beam="2">  1       21 0.20799029E-01 0.19103104E+03</pdfrwt>
<totfact> 0.11861545E+05</totfact>
</mgrwt>
</event>
<event>
 4    3  0.4041078E+000  0.1949579E+03  0.7546771E-02  0.1154064E+00
         21   -1    0    0  503  502  0.00000000000E+00  0.00000000000E+00  0.32849540651E+03  0.32849540651E+03  0.00000000000E+00 0. -1.
         21   -1    0    0  501  503 -0.00000000000E+00 -0.00000000000E+00 -0.15103773309E+03  0.15103773309E+03  0.00000000000E+00 0.  1.
          6    1    1    2  501    0 -0.84961368921E+02 -0.29345267252E+02 -0.27238099116E+02  0.19685144897E+03  0.17300000000E+03 0.  1.
         -6    1    1    2    0  502  0.84961368921E+02  0.29345267252E+02  0.20469577254E+03  0.28268169062E+03  0.17300000000E+03 0. -1.
<mgrwt>
<rscale>  2 0.19495789E+03</rscale>
<asrwt>0</asrwt>
<pdfrwt beam="1">  1       21 0.50537754E-01 0.19495789E+03</pdfrwt>
<pdfrwt beam="2">  1       21 0.23236575E-01 0.19495789E+03</pdfrwt>
<totfact> 0.64801290E+04</totfact>
</mgrwt>
</event>
<event>
 4    3  0.4041078E+000  0.1930706E+03  0.7546771E-02  0.1155721E+00
         21   -1    0    0  503  502  0.00000000000E+00  0.00000000000E+00  0.13694405379E+03  0.13694405379E+03  0.00000000000E+00 0.  1.
         21   -1    0    0  501  503 -0.00000000000E+00 -0.00000000000E+00 -0.27226467105E+03  0.27226467105E+03  0.00000000000E+00 0.  1.
          6    1    1    2  501    0  0.66110631355E+02 -0.54558539269E+02 -0.64520922469E+02  0.20356620353E+03  0.17300000000E+03 0.  1.
         -6    1    1    2    0  502 -0.66110631355E+02  0.54558539269E+02 -0.70799694789E+02  0.20564252130E+03  0.17300000000E+03 0.  1.
<mgrwt>
<rscale>  2 0.19307058E+03</rscale>
<asrwt>0</asrwt>
<pdfrwt beam="1">  1       21 0.21068316E-01 0.19307058E+03</pdfrwt>
<pdfrwt beam="2">  1       21 0.41886872E-01 0.19307058E+03</pdfrwt>
<totfact> 0.11487284E+05</totfact>
</mgrwt>
</event>
<event>
 4    3  0.4041078E+000  0.1852459E+03  0.7546771E-02  0.1162820E+00
         21   -1    0    0  501  502  0.00000000000E+00  0.00000000000E+00  0.17206715627E+04  0.17206715627E+04  0.00000000000E+00 0. -1.
         21   -1    0    0  502  503 -0.00000000000E+00 -0.00000000000E+00 -0.30173242173E+02  0.30173242173E+02  0.00000000000E+00 0.  1.
          6    1    1    2  501    0  0.21408553992E+02 -0.62679480211E+02  0.13549802309E+04  0.13675845384E+04  0.17300000000E+03 0. -1.
         -6    1    1    2    0  503 -0.21408553992E+02  0.62679480211E+02  0.33551808962E+03  0.38326026651E+03  0.17300000000E+03 0.  1.
<mgrwt>
<rscale>  2 0.18524590E+03</rscale>
<asrwt>0</asrwt>
<pdfrwt beam="1">  1       21 0.26471863E+00 0.18524590E+03</pdfrwt>
<pdfrwt beam="2">  1       21 0.46420386E-02 0.18524590E+03</pdfrwt>
<totfact> 0.16755948E+04</totfact>
</mgrwt>
</event>
<event>
 4    3  0.4041078E+000  0.3040995E+03  0.7546771E-02  0.1083209E+00
         21   -1    0    0  503  502  0.00000000000E+00  0.00000000000E+00  0.33142405328E+03  0.33142405328E+03  0.00000000000E+00 0.  1.
         21   -1    0    0  501  503 -0.00000000000E+00 -0.00000000000E+00 -0.31210804521E+03  0.31210804521E+03  0.00000000000E+00 0.  1.
          6    1    1    2  501    0  0.17912947720E+03 -0.17452824281E+03 -0.95096579230E+02  0.31862177660E+03  0.17300000000E+03 0.  1.
         -6    1    1    2    0  502 -0.17912947720E+03  0.17452824281E+03  0.11441258731E+03  0.32491032190E+03  0.17300000000E+03 0.  1.
<mgrwt>
<rscale>  2 0.30409945E+03</rscale>
<asrwt>0</asrwt>
<pdfrwt beam="1">  1       21 0.50988316E-01 0.30409945E+03</pdfrwt>
<pdfrwt beam="2">  1       21 0.48016622E-01 0.30409945E+03</pdfrwt>
<totfact> 0.14304823E+04</totfact>
</mgrwt>
</event>
<event>
 4    3  0.4041078E+000  0.2756197E+03  0.7546771E-02  0.1098106E+00
         21   -1    0    0  501  502  0.00000000000E+00  0.00000000000E+00  0.15892738791E+04  0.15892738791E+04  0.00000000000E+00 0.  1.
         21   -1    0    0  502  503 -0.00000000000E+00 -0.00000000000E+00 -0.48649447106E+02  0.48649447106E+02  0.00000000000E+00 0. -1.
          6    1    1    2  501    0 -0.19562700459E+03 -0.88132238078E+02  0.87857162439E+03  0.92079004963E+03  0.17300000000E+03 0.  1.
         -6    1    1    2    0  503  0.19562700459E+03  0.88132238078E+02  0.66205280758E+03  0.71713327655E+03  0.17300000000E+03 0. -1.
<mgrwt>
<rscale>  2 0.27561970E+03</rscale>
<asrwt>0</asrwt>
<pdfrwt beam="1">  1       21 0.24450363E+00 0.27561970E+03</pdfrwt>
<pdfrwt beam="2">  1       21 0.74845315E-02 0.27561970E+03</pdfrwt>
<totfact> 0.90276593E+03</totfact>
</mgrwt>
</event>
<event>
 4    3  0.4041078E+000  0.3591595E+03  0.7546771E-02  0.1058917E+00
         21   -1    0    0  503  502  0.00000000000E+00  0.00000000000E+00  0.52347010257E+03  0.52347010257E+03  0.00000000000E+00 0. -1.
         21   -1    0    0  501  503 -0.00000000000E+00 -0.00000000000E+00 -0.28986357694E+03  0.28986357694E+03  0.00000000000E+00 0.  1.
          6    1    1    2  501    0 -0.29875972470E+03  0.99041130038E+02 -0.40626005036E+02  0.36144984552E+03  0.17300000000E+03 0. -1.
         -6    1    1    2    0  502  0.29875972470E+03 -0.99041130038E+02  0.27423253067E+03  0.45188383399E+03  0.17300000000E+03 0.  1.
<mgrwt>
<rscale>  2 0.35915946E+03</rscale>
<asrwt>0</asrwt>
<pdfrwt beam="1">  1       21 0.80533862E-01 0.35915946E+03</pdfrwt>
<pdfrwt beam="2">  1       21 0.44594396E-01 0.35915946E+03</pdfrwt>
<totfact> 0.59623646E+03</totfact>
</mgrwt>
</event>
<event>
 4    3  0.4041078E+000  0.1767281E+03  0.7546771E-02  0.1171008E+00
         21   -1    0    0  501  502  0.00000000000E+00  0.00000000000E+00  0.54184181818E+03  0.54184181818E+03  0.00000000000E+00 0.  1.
         21   -1    0    0  502  503 -0.00000000000E+00 -0.00000000000E+00 -0.79393115640E+02  0.79393115640E+02  0.00000000000E+00 0.  1.
          6    1    1    2  501    0 -0.29001273649E+02 -0.21511250739E+02  0.39380764793E+03  0.43164484399E+03  0.17300000000E+03 0.  1.
         -6    1    1    2    0  503  0.29001273649E+02  0.21511250739E+02  0.68641054612E+02  0.18959008983E+03  0.17300000000E+03 0.  1.
<mgrwt>
<rscale>  2 0.17672806E+03</rscale>
<asrwt>0</asrwt>
<pdfrwt beam="1">  1       21 0.83360277E-01 0.17672806E+03</pdfrwt>
<pdfrwt beam="2">  1       21 0.12214326E-01 0.17672806E+03</pdfrwt>
<totfact> 0.71723839E+04</totfact>
</mgrwt>
</event>
<event>
 4    3  0.4041078E+000  0.1957652E+03  0.7546771E-02  0.1153362E+00
         21   -1    0    0  503  502  0.00000000000E+00  0.00000000000E+00  0.98991499159E+03  0.98991499159E+03  0.00000000000E+00 0. -1.
         21   -1    0    0  501  503 -0.00000000000E+00 -0.00000000000E+00 -0.47640259082E+02  0.47640259082E+02  0.00000000000E+00 0.  1.
          6    1    1    2  501    0  0.20354569728E+02  0.89334755744E+02  0.24658473058E+03  0.31484605198E+03  0.17300000000E+03 0.  1.
         -6    1    1    2    0  502 -0.20354569728E+02 -0.89334755744E+02  0.69569000193E+03  0.72270919869E+03  0.17300000000E+03 0. -1.
<mgrwt>
<rscale>  2 0.19576518E+03</rscale>
<asrwt>0</asrwt>
<pdfrwt beam="1">  1       21 0.15229460E+00 0.19576518E+03</pdfrwt>
<pdfrwt beam="2">  1       21 0.73292714E-02 0.19576518E+03</pdfrwt>
<totfact> 0.40045410E+04</totfact>
</mgrwt>
</event>
<event>
 4    3  0.4041078E+000  0.2582031E+03  0.7546771E-02  0.1108228E+00
         21   -1    0    0  501  502  0.00000000000E+00  0.00000000000E+00  0.18470726266E+03  0.18470726266E+03  0.00000000000E+00 0. -1.
         21   -1    0    0  502  503 -0.00000000000E+00 -0.00000000000E+00 -0.36310616017E+03  0.36310616017E+03  0.00000000000E+00 0. -1.
          6    1    1    2  501    0 -0.26428405166E+02 -0.18984573333E+03 -0.11033883623E+03  0.28079088633E+03  0.17300000000E+03 0. -1.
         -6    1    1    2    0  503  0.26428405166E+02  0.18984573333E+03 -0.68060061280E+02  0.26702253651E+03  0.17300000000E+03 0. -1.
<mgrwt>
<rscale>  2 0.25820314E+03</rscale>
<asrwt>0</asrwt>
<pdfrwt beam="1">  1       21 0.28416502E-01 0.25820314E+03</pdfrwt>
<pdfrwt beam="2">  1       21 0.55862485E-01 0.25820314E+03</pdfrwt>
<totfact> 0.34633559E+04</totfact>
</mgrwt>
</event>
<event>
 4    3  0.4041078E+000  0.2499046E+03  0.7546771E-02  0.1113365E+00
         21   -1    0    0  503  502  0.00000000000E+00  0.00000000000E+00  0.28975322798E+03  0.28975322798E+03  0.00000000000E+00 0. -1.
         21   -1    0    0  501  503 -0.00000000000E+00 -0.00000000000E+00 -0.23908666597E+03  0.23908666597E+03  0.00000000000E+00 0.  1.
          6    1    1    2  501    0  0.14971138487E+03  0.10054759908E+03 -0.57654854951E+02  0.25646910290E+03  0.17300000000E+03 0. -1.
         -6    1    1    2    0  502 -0.14971138487E+03 -0.10054759908E+03  0.10832141696E+03  0.27237079104E+03  0.17300000000E+03 0. -1.
<mgrwt>
<rscale>  2 0.24990462E+03</rscale>
<asrwt>0</asrwt>
<pdfrwt beam="1">  1       21 0.44577420E-01 0.24990462E+03</pdfrwt>
<pdfrwt beam="2">  1       21 0.36782564E-01 0.24990462E+03</pdfrwt>
<totfact> 0.33490513E+04</totfact>
</mgrwt>
</event>
<event>
 4    3  0.4041078E+000  0.1737704E+03  0.7546771E-02  0.1173972E+00
         21   -1    0    0  501  502  0.00000000000E+00  0.00000000000E+00  0.13093005509E+03  0.13093005509E+03  0.00000000000E+00 0.  1.
         21   -1    0    0  502  503 -0.00000000000E+00 -0.00000000000E+00 -0.49683126814E+03  0.49683126814E+03  0.00000000000E+00 0.  1.
          6    1    1    2  501    0  0.12555953036E+02  0.10463975032E+02  0.46805322994E+02  0.17996356573E+03  0.17300000000E+03 0.  1.
         -6    1    1    2    0  503 -0.12555953036E+02 -0.10463975032E+02 -0.41270653604E+03  0.44779775750E+03  0.17300000000E+03 0.  1.
<mgrwt>
<rscale>  2 0.17377039E+03</rscale>
<asrwt>0</asrwt>
<pdfrwt beam="1">  1       21 0.20143086E-01 0.17377039E+03</pdfrwt>
<pdfrwt beam="2">  1       21 0.76435579E-01 0.17377039E+03</pdfrwt>
<totfact> 0.35064182E+04</totfact>
</mgrwt>
</event>
<event>
 4    3  0.4041078E+000  0.2371561E+03  0.7546771E-02  0.1121702E+00
         21   -1    0    0  501  502  0.00000000000E+00  0.00000000000E+00  0.80431233867E+03  0.80431233867E+03  0.00000000000E+00 0.  1.
         21   -1    0    0  502  503 -0.00000000000E+00 -0.00000000000E+00 -0.72913180178E+02  0.72913180178E+02  0.00000000000E+00 0.  1.
          6    1    1    2  501    0 -0.12264814367E+03  0.10616702076E+03  0.27693301800E+03  0.36460238604E+03  0.17300000000E+03 0.  1.
         -6    1    1    2    0  503  0.12264814367E+03 -0.10616702076E+03  0.45446614049E+03  0.51262313282E+03  0.17300000000E+03 0.  1.
<mgrwt>
<rscale>  2 0.23715607E+03</rscale>
<asrwt>0</asrwt>
<pdfrwt beam="1">  1       21 0.12374035E+00 0.23715607E+03</pdfrwt>
<pdfrwt beam="2">  1       21 0.11217413E-01 0.23715607E+03</pdfrwt>
<totfact> 0.31598706E+04</totfact>
</mgrwt>
</event>
<event>
 4    3  0.4041078E+000  0.3152577E+03  0.7546771E-02  0.1077853E+00
         21   -1    0    0  501  502  0.00000000000E+00  0.00000000000E+00  0.64224560762E+03  0.64224560762E+03  0.00000000000E+00 0.  1.
         21   -1    0    0  502  503 -0.00000000000E+00 -0.00000000000E+00 -0.15571020492E+03  0.15571020492E+03  0.00000000000E+00 0. -1.
          6    1    1    2  501    0 -0.17117675249E+03 -0.20039191452E+03  0.27460129606E+03  0.41808285279E+03  0.17300000000E+03 0. -1.
         -6    1    1    2    0  503  0.17117675249E+03  0.20039191452E+03  0.21193410664E+03  0.37987295976E+03  0.17300000000E+03 0.  1.
<mgrwt>
<rscale>  2 0.31525767E+03</rscale>
<asrwt>0</asrwt>
<pdfrwt beam="1">  1       21 0.98807015E-01 0.31525767E+03</pdfrwt>
<pdfrwt beam="2">  1       21 0.23955417E-01 0.31525767E+03</pdfrwt>
<totfact> 0.12995882E+04</totfact>
</mgrwt>
</event>
<event>
 4    3  0.4041078E+000  0.2226924E+03  0.7546771E-02  0.1131892E+00
         21   -1    0    0  503  502  0.00000000000E+00  0.00000000000E+00  0.46792309325E+03  0.46792309325E+03  0.00000000000E+00 0.  1.
         21   -1    0    0  501  503 -0.00000000000E+00 -0.00000000000E+00 -0.14764976153E+03  0.14764976153E+03  0.00000000000E+00 0.  1.
          6    1    1    2  501    0 -0.78672733592E+02 -0.11607537783E+03 -0.33671800799E+01  0.22271782652E+03  0.17300000000E+03 0.  1.
         -6    1    1    2    0  502  0.78672733592E+02  0.11607537783E+03  0.32364051180E+03  0.39285502826E+03  0.17300000000E+03 0.  1.
<mgrwt>
<rscale>  2 0.22269237E+03</rscale>
<asrwt>0</asrwt>
<pdfrwt beam="1">  1       21 0.71988168E-01 0.22269237E+03</pdfrwt>
<pdfrwt beam="2">  1       21 0.22715348E-01 0.22269237E+03</pdfrwt>
<totfact> 0.31146590E+04</totfact>
</mgrwt>
</event>
<event>
 4    3  0.4041078E+000  0.1911823E+03  0.7546771E-02  0.1157399E+00
         21   -1    0    0  501  502  0.00000000000E+00  0.00000000000E+00  0.89471721297E+03  0.89471721297E+03  0.00000000000E+00 0. -1.
         21   -1    0    0  502  503 -0.00000000000E+00 -0.00000000000E+00 -0.43965441182E+02  0.43965441182E+02  0.00000000000E+00 0. -1.
          6    1    1    2  501    0 -0.21757920774E+02  0.78410926193E+02  0.55028017485E+03  0.58254523541E+03  0.17300000000E+03 0. -1.
         -6    1    1    2    0  503  0.21757920774E+02 -0.78410926193E+02  0.30047159694E+03  0.35613741874E+03  0.17300000000E+03 0. -1.
<mgrwt>
<rscale>  2 0.19118232E+03</rscale>
<asrwt>0</asrwt>
<pdfrwt beam="1">  1       21 0.13764879E+00 0.19118232E+03</pdfrwt>
<pdfrwt beam="2">  1       21 0.67639147E-02 0.19118232E+03</pdfrwt>
<totfact> 0.60039423E+04</totfact>
</mgrwt>
</event>
<event>
 4    3  0.4041078E+000  0.1742799E+03  0.7546771E-02  0.1173457E+00
         21   -1    0    0  501  502  0.00000000000E+00  0.00000000000E+00  0.38068096186E+02  0.38068096186E+02  0.00000000000E+00 0. -1.
         21   -1    0    0  502  503 -0.00000000000E+00 -0.00000000000E+00 -0.86014416513E+03  0.86014416513E+03  0.00000000000E+00 0. -1.
          6    1    1    2  501    0  0.17544644122E+02 -0.11689846081E+02 -0.53187795597E+03  0.55970315979E+03  0.17300000000E+03 0. -1.
         -6    1    1    2    0  503 -0.17544644122E+02  0.11689846081E+02 -0.29019811298E+03  0.33850910152E+03  0.17300000000E+03 0. -1.
<mgrwt>
<rscale>  2 0.17427985E+03</rscale>
<asrwt>0</asrwt>
<pdfrwt beam="1">  1       21 0.58566308E-02 0.17427985E+03</pdfrwt>
<pdfrwt beam="2">  1       21 0.13232986E+00 0.17427985E+03</pdfrwt>
<totfact> 0.85672380E+04</totfact>
</mgrwt>
</event>
<event>
 4    3  0.4041078E+000  0.2181691E+03  0.7546771E-02  0.1135255E+00
         21   -1    0    0  503  502  0.00000000000E+00  0.00000000000E+00  0.25226565487E+03  0.25226565487E+03  0.00000000000E+00 0.  1.
         21   -1    0    0  501  503 -0.00000000000E+00 -0.00000000000E+00 -0.99378724283E+03  0.99378724283E+03  0.00000000000E+00 0. -1.
          6    1    1    2  501    0  0.16895203790E+02 -0.13184576096E+03 -0.93153283763E+03  0.95673987070E+03  0.17300000000E+03 0. -1.
         -6    1    1    2    0  502 -0.16895203790E+02  0.13184576096E+03  0.19001124967E+03  0.28931302701E+03  0.17300000000E+03 0.  1.
<mgrwt>
<rscale>  2 0.21816909E+03</rscale>
<asrwt>0</asrwt>
<pdfrwt beam="1">  1       21 0.38810101E-01 0.21816909E+03</pdfrwt>
<pdfrwt beam="2">  1       21 0.15289034E+00 0.21816909E+03</pdfrwt>
<totfact> 0.17763892E+03</totfact>
</mgrwt>
</event>
<event>
 4    3  0.4041078E+000  0.2217718E+03  0.7546771E-02  0.1132569E+00
         21   -1    0    0  503  502  0.00000000000E+00  0.00000000000E+00  0.68727684390E+02  0.68727684390E+02  0.00000000000E+00 0.  1.
         21   -1    0    0  501  503 -0.00000000000E+00 -0.00000000000E+00 -0.77842850429E+03  0.77842850429E+03  0.00000000000E+00 0.  1.
          6    1    1    2  501    0  0.96883070298E+02 -0.99334801989E+02 -0.23452923327E+03  0.32277963606E+03  0.17300000000E+03 0.  1.
         -6    1    1    2    0  502 -0.96883070298E+02  0.99334801989E+02 -0.47517158663E+03  0.52437655262E+03  0.17300000000E+03 0.  1.
<mgrwt>
<rscale>  2 0.22177180E+03</rscale>
<asrwt>0</asrwt>
<pdfrwt beam="1">  1       21 0.10573489E-01 0.22177180E+03</pdfrwt>
<pdfrwt beam="2">  1       21 0.11975824E+00 0.22177180E+03</pdfrwt>
<totfact> 0.38407461E+04</totfact>
</mgrwt>
</event>
<event>
 4    3  0.4041078E+000  0.2430004E+03  0.7546771E-02  0.1117810E+00
         21   -1    0    0  503  502  0.00000000000E+00  0.00000000000E+00  0.53243243828E+03  0.53243243828E+03  0.00000000000E+00 0.  1.
         21   -1    0    0  501  503 -0.00000000000E+00 -0.00000000000E+00 -0.11568261440E+03  0.11568261440E+03  0.00000000000E+00 0. -1.
          6    1    1    2  501    0 -0.14541781075E+03  0.89296546416E+02  0.14251649986E+03  0.28170936374E+03  0.17300000000E+03 0. -1.
         -6    1    1    2    0  502  0.14541781075E+03 -0.89296546416E+02  0.27423332402E+03  0.36640568895E+03  0.17300000000E+03 0. -1.
<mgrwt>
<rscale>  2 0.24300044E+03</rscale>
<asrwt>0</asrwt>
<pdfrwt beam="1">  1       21 0.81912681E-01 0.24300044E+03</pdfrwt>
<pdfrwt beam="2">  1       21 0.17797326E-01 0.24300044E+03</pdfrwt>
<totfact> 0.36452014E+04</totfact>
</mgrwt>
</event>
<event>
 4    3  0.4041078E+000  0.1739681E+03  0.7546771E-02  0.1173772E+00
         21   -1    0    0  503  502  0.00000000000E+00  0.00000000000E+00  0.16487801921E+04  0.16487801921E+04  0.00000000000E+00 0. -1.
         21   -1    0    0  501  503 -0.00000000000E+00 -0.00000000000E+00 -0.20295338030E+02  0.20295338030E+02  0.00000000000E+00 0. -1.
          6    1    1    2  501    0  0.13278919986E+02 -0.12632449687E+02  0.55626515517E+03  0.58283430866E+03  0.17300000000E+03 0. -1.
         -6    1    1    2    0  502 -0.13278919986E+02  0.12632449687E+02  0.10722196989E+04  0.10862412215E+04  0.17300000000E+03 0. -1.
<mgrwt>
<rscale>  2 0.17396812E+03</rscale>
<asrwt>0</asrwt>
<pdfrwt beam="1">  1       21 0.25365839E+00 0.17396812E+03</pdfrwt>
<pdfrwt beam="2">  1       21 0.31223610E-02 0.17396812E+03</pdfrwt>
<totfact> 0.38068078E+04</totfact>
</mgrwt>
</event>
<event>
 4    3  0.4041078E+000  0.3187175E+03  0.7546771E-02  0.1076241E+00
         21   -1    0    0  501  502  0.00000000000E+00  0.00000000000E+00  0.16224593073E+04  0.16224593073E+04  0.00000000000E+00 0.  1.
         21   -1    0    0  502  503 -0.00000000000E+00 -0.00000000000E+00 -0.45430928602E+03  0.45430928602E+03  0.00000000000E+00 0.  1.
          6    1    1    2  501    0 -0.91774562957E+02 -0.25145429963E+03  0.15482573077E+04  0.15807218371E+04  0.17300000000E+03 0.  1.
         -6    1    1    2    0  503  0.91774562957E+02  0.25145429963E+03 -0.38010728644E+03  0.49604675628E+03  0.17300000000E+03 0.  1.
<mgrwt>
<rscale>  2 0.31871748E+03</rscale>
<asrwt>0</asrwt>
<pdfrwt beam="1">  1       21 0.24960912E+00 0.31871748E+03</pdfrwt>
<pdfrwt beam="2">  1       21 0.69893737E-01 0.31871748E+03</pdfrwt>
<totfact> 0.10739537E+02</totfact>
</mgrwt>
</event>
<event>
 4    3  0.4041078E+000  0.3298563E+03  0.7546771E-02  0.1071200E+00
         21   -1    0    0  503  502  0.00000000000E+00  0.00000000000E+00  0.57154045340E+03  0.57154045340E+03  0.00000000000E+00 0. -1.
         21   -1    0    0  501  503 -0.00000000000E+00 -0.00000000000E+00 -0.19940802371E+03  0.19940802371E+03  0.00000000000E+00 0.  1.
          6    1    1    2  501    0  0.24086578618E+03  0.14442933862E+03  0.26812376447E+03  0.42508294941E+03  0.17300000000E+03 0. -1.
         -6    1    1    2    0  502 -0.24086578618E+03 -0.14442933862E+03  0.10400866521E+03  0.34586552769E+03  0.17300000000E+03 0. -1.
<mgrwt>
<rscale>  2 0.32985627E+03</rscale>
<asrwt>0</asrwt>
<pdfrwt beam="1">  1       21 0.87929300E-01 0.32985627E+03</pdfrwt>
<pdfrwt beam="2">  1       21 0.30678158E-01 0.32985627E+03</pdfrwt>
<totfact> 0.10508500E+04</totfact>
</mgrwt>
</event>
<event>
 4    3  0.4041078E+000  0.1968153E+03  0.7546771E-02  0.1152454E+00
         21   -1    0    0  501  502  0.00000000000E+00  0.00000000000E+00  0.38566857224E+03  0.38566857224E+03  0.00000000000E+00 0. -1.
         21   -1    0    0  502  503 -0.00000000000E+00 -0.00000000000E+00 -0.10044686202E+03  0.10044686202E+03  0.00000000000E+00 0. -1.
          6    1    1    2  501    0  0.50035707118E+02 -0.79395904986E+02  0.14471967060E+03  0.24429503633E+03  0.17300000000E+03 0. -1.
         -6    1    1    2    0  503 -0.50035707118E+02  0.79395904986E+02  0.14050203962E+03  0.24182039793E+03  0.17300000000E+03 0. -1.
<mgrwt>
<rscale>  2 0.19681535E+03</rscale>
<asrwt>0</asrwt>
<pdfrwt beam="1">  1       21 0.59333626E-01 0.19681535E+03</pdfrwt>
<pdfrwt beam="2">  1       21 0.15453364E-01 0.19681535E+03</pdfrwt>
<totfact> 0.98446361E+04</totfact>
</mgrwt>
</event>
<event>
 4    3  0.4041078E+000  0.1769640E+03  0.7546771E-02  0.1170774E+00
         21   -1    0    0  503  502  0.00000000000E+00  0.00000000000E+00  0.11300847509E+03  0.11300847509E+03  0.00000000000E+00 0.  1.
         21   -1    0    0  501  503 -0.00000000000E+00 -0.00000000000E+00 -0.31206748577E+03  0.31206748577E+03  0.00000000000E+00 0.  1.
          6    1    1    2  501    0  0.25961507579E+02 -0.26707171237E+02 -0.17065989851E+03  0.24584766387E+03  0.17300000000E+03 0.  1.
         -6    1    1    2    0  502 -0.25961507579E+02  0.26707171237E+02 -0.28399112175E+02  0.17922829699E+03  0.17300000000E+03 0.  1.
<mgrwt>
<rscale>  2 0.17696404E+03</rscale>
<asrwt>0</asrwt>
<pdfrwt beam="1">  1       21 0.17385920E-01 0.17696404E+03</pdfrwt>
<pdfrwt beam="2">  1       21 0.48010381E-01 0.17696404E+03</pdfrwt>
<totfact> 0.12479170E+05</totfact>
</mgrwt>
</event>
<event>
 4    3  0.4041078E+000  0.1853179E+03  0.7546771E-02  0.1162753E+00
         21   -1    0    0  501  502  0.00000000000E+00  0.00000000000E+00  0.20040169280E+03  0.20040169280E+03  0.00000000000E+00 0. -1.
         21   -1    0    0  502  503 -0.00000000000E+00 -0.00000000000E+00 -0.23531457910E+03  0.23531457910E+03  0.00000000000E+00 0. -1.
          6    1    1    2  501    0 -0.56156114839E+02 -0.35499355534E+02  0.96110868169E+02  0.20875826321E+03  0.17300000000E+03 0. -1.
         -6    1    1    2    0  503  0.56156114839E+02  0.35499355534E+02 -0.13102375446E+03  0.22695800869E+03  0.17300000000E+03 0. -1.
<mgrwt>
<rscale>  2 0.18531787E+03</rscale>
<asrwt>0</asrwt>
<pdfrwt beam="1">  1       21 0.30831030E-01 0.18531787E+03</pdfrwt>
<pdfrwt beam="2">  1       21 0.36202243E-01 0.18531787E+03</pdfrwt>
<totfact> 0.74562539E+04</totfact>
</mgrwt>
</event>
<event>
 4    3  0.4041078E+000  0.2750570E+03  0.7546771E-02  0.1098420E+00
         21   -1    0    0  501  502  0.00000000000E+00  0.00000000000E+00  0.16273572263E+03  0.16273572263E+03  0.00000000000E+00 0.  1.
         21   -1    0    0  502  503 -0.00000000000E+00 -0.00000000000E+00 -0.83560160142E+03  0.83560160142E+03  0.00000000000E+00 0. -1.
          6    1    1    2  501    0  0.12710934946E+03  0.17196091444E+03 -0.39586300139E+01  0.27508546593E+03  0.17300000000E+03 0.  1.
         -6    1    1    2    0  503 -0.12710934946E+03 -0.17196091444E+03 -0.66890724877E+03  0.72325185812E+03  0.17300000000E+03 0. -1.
<mgrwt>
<rscale>  2 0.27505698E+03</rscale>
<asrwt>0</asrwt>
<pdfrwt beam="1">  1       21 0.25036265E-01 0.27505698E+03</pdfrwt>
<pdfrwt beam="2">  1       21 0.12855409E+00 0.27505698E+03</pdfrwt>
<totfact> 0.63537592E+03</totfact>
</mgrwt>
</event>
<event>
 4    3  0.4041078E+000  0.3932762E+03  0.7546771E-02  0.1046133E+00
         21   -1    0    0  503  502  0.00000000000E+00  0.00000000000E+00  0.80097882778E+02  0.80097882778E+02  0.00000000000E+00 0.  1.
         21   -1    0    0  501  503 -0.00000000000E+00 -0.00000000000E+00 -0.24556433781E+04  0.24556433781E+04  0.00000000000E+00 0.  1.
          6    1    1    2  501    0 -0.19404022693E+03  0.29510265287E+03 -0.60171691153E+03  0.71883894372E+03  0.17300000000E+03 0.  1.
         -6    1    1    2    0  502  0.19404022693E+03 -0.29510265287E+03 -0.17738285838E+04  0.18169023172E+04  0.17300000000E+03 0.  1.
<mgrwt>
<rscale>  2 0.39327622E+03</rscale>
<asrwt>0</asrwt>
<pdfrwt beam="1">  1       21 0.12322753E-01 0.39327622E+03</pdfrwt>
<pdfrwt beam="2">  1       21 0.37779124E+00 0.39327622E+03</pdfrwt>
<totfact> 0.54061613E+02</totfact>
</mgrwt>
</event>
<event>
 4    3  0.4041078E+000  0.2880747E+03  0.7546771E-02  0.1091359E+00
         21   -1    0    0  501  502  0.00000000000E+00  0.00000000000E+00  0.23771853452E+03  0.23771853452E+03  0.00000000000E+00 0.  1.
         21   -1    0    0  502  503 -0.00000000000E+00 -0.00000000000E+00 -0.91981782014E+03  0.91981782014E+03  0.00000000000E+00 0.  1.
          6    1    1    2  501    0  0.18446763859E+02  0.22960341273E+03  0.11484585114E+03  0.31012349114E+03  0.17300000000E+03 0.  1.
         -6    1    1    2    0  503 -0.18446763859E+02 -0.22960341273E+03 -0.79694513676E+03  0.84741286351E+03  0.17300000000E+03 0.  1.
<mgrwt>
<rscale>  2 0.28807466E+03</rscale>
<asrwt>0</asrwt>
<pdfrwt beam="1">  1       21 0.36572082E-01 0.28807466E+03</pdfrwt>
<pdfrwt beam="2">  1       21 0.14151044E+00 0.28807466E+03</pdfrwt>
<totfact> 0.23325176E+03</totfact>
</mgrwt>
</event>
<event>
 4    3  0.4041078E+000  0.3105231E+03  0.7546771E-02  0.1080095E+00
         21   -1    0    0  501  502  0.00000000000E+00  0.00000000000E+00  0.64087531743E+02  0.64087531743E+02  0.00000000000E+00 0.  1.
         21   -1    0    0  502  503 -0.00000000000E+00 -0.00000000000E+00 -0.15067902958E+04  0.15067902958E+04  0.00000000000E+00 0.  1.
          6    1    1    2  501    0 -0.17403405463E+03 -0.19028329106E+03 -0.75145868768E+03  0.81308962749E+03  0.17300000000E+03 0.  1.
         -6    1    1    2    0  503  0.17403405463E+03  0.19028329106E+03 -0.69124407638E+03  0.75778820006E+03  0.17300000000E+03 0.  1.
<mgrwt>
<rscale>  2 0.31052308E+03</rscale>
<asrwt>0</asrwt>
<pdfrwt beam="1">  1       21 0.98596200E-02 0.31052308E+03</pdfrwt>
<pdfrwt beam="2">  1       21 0.23181390E+00 0.31052308E+03</pdfrwt>
<totfact> 0.64880148E+03</totfact>
</mgrwt>
</event>
<event>
 4    3  0.4041078E+000  0.2238963E+03  0.7546771E-02  0.1131011E+00
         21   -1    0    0  501  502  0.00000000000E+00  0.00000000000E+00  0.20325875473E+04  0.20325875473E+04  0.00000000000E+00 0.  1.
         21   -1    0    0  502  503 -0.00000000000E+00 -0.00000000000E+00 -0.46054159489E+02  0.46054159489E+02  0.00000000000E+00 0.  1.
          6    1    1    2  501    0  0.10434636563E+03 -0.96500790049E+02  0.17015925153E+04  0.17162594952E+04  0.17300000000E+03 0.  1.
         -6    1    1    2    0  503 -0.10434636563E+03  0.96500790049E+02  0.28494087251E+03  0.36238221166E+03  0.17300000000E+03 0.  1.
<mgrwt>
<rscale>  2 0.22389633E+03</rscale>
<asrwt>0</asrwt>
<pdfrwt beam="1">  1       21 0.31270571E+00 0.22389633E+03</pdfrwt>
<pdfrwt beam="2">  1       21 0.70852569E-02 0.22389633E+03</pdfrwt>
<totfact> 0.41232192E+03</totfact>
</mgrwt>
</event>
<event>
 4    3  0.4041078E+000  0.1937412E+03  0.7546771E-02  0.1155130E+00
         21   -1    0    0  501  502  0.00000000000E+00  0.00000000000E+00  0.49827640895E+02  0.49827640895E+02  0.00000000000E+00 0. -1.
         21   -1    0    0  502  503 -0.00000000000E+00 -0.00000000000E+00 -0.81417328570E+03  0.81417328570E+03  0.00000000000E+00 0.  1.
          6    1    1    2  501    0  0.78525275447E+02  0.37952891849E+02 -0.50028777113E+03  0.53649184041E+03  0.17300000000E+03 0.  1.
         -6    1    1    2    0  503 -0.78525275447E+02 -0.37952891849E+02 -0.26405787368E+03  0.32750908619E+03  0.17300000000E+03 0. -1.
<mgrwt>
<rscale>  2 0.19374117E+03</rscale>
<asrwt>0</asrwt>
<pdfrwt beam="1">  1       21 0.76657903E-02 0.19374117E+03</pdfrwt>
<pdfrwt beam="2">  1       21 0.12525744E+00 0.19374117E+03</pdfrwt>
<totfact> 0.61304641E+04</totfact>
</mgrwt>
</event>
<event>
 4    3  0.4041078E+000  0.1758002E+03  0.7546771E-02  0.1171931E+00
         21   -1    0    0  501  502  0.00000000000E+00  0.00000000000E+00  0.25052354833E+03  0.25052354833E+03  0.00000000000E+00 0.  1.
         21   -1    0    0  502  503 -0.00000000000E+00 -0.00000000000E+00 -0.18175539571E+03  0.18175539571E+03  0.00000000000E+00 0.  1.
          6    1    1    2  501    0  0.10529503831E+02  0.29425415107E+02  0.15689161157E+03  0.23562831597E+03  0.17300000000E+03 0.  1.
         -6    1    1    2    0  503 -0.10529503831E+02 -0.29425415107E+02 -0.88123458945E+02  0.19665062807E+03  0.17300000000E+03 0.  1.
<mgrwt>
<rscale>  2 0.17580024E+03</rscale>
<asrwt>0</asrwt>
<pdfrwt beam="1">  1       21 0.38542084E-01 0.17580024E+03</pdfrwt>
<pdfrwt beam="2">  1       21 0.27962368E-01 0.17580024E+03</pdfrwt>
<totfact> 0.79842950E+04</totfact>
</mgrwt>
</event>
<event>
 4    3  0.4041078E+000  0.2455427E+03  0.7546771E-02  0.1116155E+00
         21   -1    0    0  503  502  0.00000000000E+00  0.00000000000E+00  0.23996669445E+03  0.23996669445E+03  0.00000000000E+00 0.  1.
         21   -1    0    0  501  503 -0.00000000000E+00 -0.00000000000E+00 -0.25304620820E+03  0.25304620820E+03  0.00000000000E+00 0. -1.
          6    1    1    2  501    0 -0.17308980205E+03  0.20053093902E+02  0.14239075192E+02  0.24595519391E+03  0.17300000000E+03 0. -1.
         -6    1    1    2    0  502  0.17308980205E+03 -0.20053093902E+02 -0.27318588947E+02  0.24705770874E+03  0.17300000000E+03 0.  1.
<mgrwt>
<rscale>  2 0.24554268E+03</rscale>
<asrwt>0</asrwt>
<pdfrwt beam="1">  1       21 0.36917953E-01 0.24554268E+03</pdfrwt>
<pdfrwt beam="2">  1       21 0.38930186E-01 0.24554268E+03</pdfrwt>
<totfact> 0.43931468E+04</totfact>
</mgrwt>
</event>
<event>
 4    3  0.4041078E+000  0.2349771E+03  0.7546771E-02  0.1123185E+00
         21   -1    0    0  503  502  0.00000000000E+00  0.00000000000E+00  0.22480315713E+03  0.22480315713E+03  0.00000000000E+00 0.  1.
         21   -1    0    0  501  503 -0.00000000000E+00 -0.00000000000E+00 -0.54969602907E+03  0.54969602907E+03  0.00000000000E+00 0. -1.
          6    1    1    2  501    0  0.47315072912E+02  0.15181082840E+03 -0.45046920603E+03  0.50807159862E+03  0.17300000000E+03 0. -1.
         -6    1    1    2    0  502 -0.47315072912E+02 -0.15181082840E+03  0.12557633409E+03  0.26642758759E+03  0.17300000000E+03 0.  1.
<mgrwt>
<rscale>  2 0.23497711E+03</rscale>
<asrwt>0</asrwt>
<pdfrwt beam="1">  1       21 0.34585102E-01 0.23497711E+03</pdfrwt>
<pdfrwt beam="2">  1       21 0.84568619E-01 0.23497711E+03</pdfrwt>
<totfact> 0.94999175E+03</totfact>
</mgrwt>
</event>
<event>
 4    3  0.4041078E+000  0.1834402E+03  0.7546771E-02  0.1164515E+00
         21   -1    0    0  503  502  0.00000000000E+00  0.00000000000E+00  0.14758511133E+03  0.14758511133E+03  0.00000000000E+00 0.  1.
         21   -1    0    0  501  503 -0.00000000000E+00 -0.00000000000E+00 -0.28436886586E+03  0.28436886586E+03  0.00000000000E+00 0.  1.
          6    1    1    2  501    0  0.15248423529E+02 -0.59065939711E+02 -0.16454486057E+03  0.24642506122E+03  0.17300000000E+03 0.  1.
         -6    1    1    2    0  502 -0.15248423529E+02  0.59065939711E+02  0.27761106049E+02  0.18552891598E+03  0.17300000000E+03 0.  1.
<mgrwt>
<rscale>  2 0.18344018E+03</rscale>
<asrwt>0</asrwt>
<pdfrwt beam="1">  1       21 0.22705402E-01 0.18344018E+03</pdfrwt>
<pdfrwt beam="2">  1       21 0.43749056E-01 0.18344018E+03</pdfrwt>
<totfact> 0.91632680E+04</totfact>
</mgrwt>
</event>
<event>
 4    3  0.4041078E+000  0.3263660E+03  0.7546771E-02  0.1072756E+00
         21   -1    0    0  503  502  0.00000000000E+00  0.00000000000E+00  0.53598151122E+03  0.53598151122E+03  0.00000000000E+00 0.  1.
         21   -1    0    0  501  503 -0.00000000000E+00 -0.00000000000E+00 -0.22164487273E+03  0.22164487273E+03  0.00000000000E+00 0. -1.
          6    1    1    2  501    0  0.27671913279E+03 -0.35068531736E+01  0.35362051644E+02  0.32827618124E+03  0.17300000000E+03 0. -1.
         -6    1    1    2    0  502 -0.27671913279E+03  0.35068531736E+01  0.27897458684E+03  0.42935020272E+03  0.17300000000E+03 0.  1.
<mgrwt>
<rscale>  2 0.32636602E+03</rscale>
<asrwt>0</asrwt>
<pdfrwt beam="1">  1       21 0.82458694E-01 0.32636602E+03</pdfrwt>
<pdfrwt beam="2">  1       21 0.34099211E-01 0.32636602E+03</pdfrwt>
<totfact> 0.98978267E+03</totfact>
</mgrwt>
</event>
<event>
 4    3  0.4041078E+000  0.1768869E+03  0.7546771E-02  0.1170850E+00
         21   -1    0    0  501  502  0.00000000000E+00  0.00000000000E+00  0.23627455063E+03  0.23627455063E+03  0.00000000000E+00 0. -1.
         21   -1    0    0  502  503 -0.00000000000E+00 -0.00000000000E+00 -0.17639506008E+03  0.17639506008E+03  0.00000000000E+00 0. -1.
          6    1    1    2  501    0 -0.18853946679E+02  0.31693782825E+02  0.13295495173E+03  0.22128259390E+03  0.17300000000E+03 0. -1.
         -6    1    1    2    0  503  0.18853946679E+02 -0.31693782825E+02 -0.73075461183E+02  0.19138701681E+03  0.17300000000E+03 0. -1.
<mgrwt>
<rscale>  2 0.17688688E+03</rscale>
<asrwt>0</asrwt>
<pdfrwt beam="1">  1       21 0.36349931E-01 0.17688688E+03</pdfrwt>
<pdfrwt beam="2">  1       21 0.27137702E-01 0.17688688E+03</pdfrwt>
<totfact> 0.95032880E+04</totfact>
</mgrwt>
</event>
<event>
 4    3  0.4041078E+000  0.1794599E+03  0.7546771E-02  0.1168327E+00
         21   -1    0    0  501  502  0.00000000000E+00  0.00000000000E+00  0.41407926478E+02  0.41407926478E+02  0.00000000000E+00 0. -1.
         21   -1    0    0  502  503 -0.00000000000E+00 -0.00000000000E+00 -0.84309853921E+03  0.84309853921E+03  0.00000000000E+00 0. -1.
          6    1    1    2  501    0  0.41619426692E+02  0.23338472890E+02 -0.27773855384E+03  0.33067289772E+03  0.17300000000E+03 0. -1.
         -6    1    1    2    0  503 -0.41619426692E+02 -0.23338472890E+02 -0.52395205889E+03  0.55383356797E+03  0.17300000000E+03 0. -1.
<mgrwt>
<rscale>  2 0.17945991E+03</rscale>
<asrwt>0</asrwt>
<pdfrwt beam="1">  1       21 0.63704504E-02 0.17945991E+03</pdfrwt>
<pdfrwt beam="2">  1       21 0.12970746E+00 0.17945991E+03</pdfrwt>
<totfact> 0.77836208E+04</totfact>
</mgrwt>
</event>
<event>
 4    3  0.4041078E+000  0.2001672E+03  0.7546771E-02  0.1149598E+00
         21   -1    0    0  503  502  0.00000000000E+00  0.00000000000E+00  0.82355292022E+03  0.82355292022E+03  0.00000000000E+00 0. -1.
         21   -1    0    0  501  503 -0.00000000000E+00 -0.00000000000E+00 -0.78854430053E+02  0.78854430053E+02  0.00000000000E+00 0.  1.
          6    1    1    2  501    0  0.80468412241E+02  0.60520732677E+02  0.65159431797E+03  0.68164659440E+03  0.17300000000E+03 0. -1.
         -6    1    1    2    0  502 -0.80468412241E+02 -0.60520732677E+02  0.93104172203E+02  0.22076075587E+03  0.17300000000E+03 0.  1.
<mgrwt>
<rscale>  2 0.20016724E+03</rscale>
<asrwt>0</asrwt>
<pdfrwt beam="1">  1       21 0.12670044E+00 0.20016724E+03</pdfrwt>
<pdfrwt beam="2">  1       21 0.12131451E-01 0.20016724E+03</pdfrwt>
<totfact> 0.26415977E+04</totfact>
</mgrwt>
</event>
<event>
 4    3  0.4041078E+000  0.2615469E+03  0.7546771E-02  0.1106217E+00
         21   -1    0    0  501  502  0.00000000000E+00  0.00000000000E+00  0.27787002647E+03  0.27787002647E+03  0.00000000000E+00 0.  1.
         21   -1    0    0  502  503 -0.00000000000E+00 -0.00000000000E+00 -0.35149600381E+03  0.35149600381E+03  0.00000000000E+00 0. -1.
          6    1    1    2  501    0 -0.19572528980E+03 -0.13014742254E+02  0.13543528568E+03  0.29453266235E+03  0.17300000000E+03 0.  1.
         -6    1    1    2    0  503  0.19572528980E+03  0.13014742254E+02 -0.20906126302E+03  0.33483336793E+03  0.17300000000E+03 0. -1.
<mgrwt>
<rscale>  2 0.26154688E+03</rscale>
<asrwt>0</asrwt>
<pdfrwt beam="1">  1       21 0.42749234E-01 0.26154688E+03</pdfrwt>
<pdfrwt beam="2">  1       21 0.54076309E-01 0.26154688E+03</pdfrwt>
<totfact> 0.16378591E+04</totfact>
</mgrwt>
</event>
<event>
 4    3  0.4041078E+000  0.2115356E+03  0.7546771E-02  0.1140356E+00
         21   -1    0    0  503  502  0.00000000000E+00  0.00000000000E+00  0.38423154968E+03  0.38423154968E+03  0.00000000000E+00 0. -1.
         21   -1    0    0  501  503 -0.00000000000E+00 -0.00000000000E+00 -0.22468315463E+03  0.22468315463E+03  0.00000000000E+00 0. -1.
          6    1    1    2  501    0 -0.74131472953E+02 -0.96554888757E+02 -0.13152740441E+03  0.24909191062E+03  0.17300000000E+03 0. -1.
         -6    1    1    2    0  502  0.74131472953E+02  0.96554888757E+02  0.29107579946E+03  0.35982279369E+03  0.17300000000E+03 0. -1.
<mgrwt>
<rscale>  2 0.21153563E+03</rscale>
<asrwt>0</asrwt>
<pdfrwt beam="1">  1       21 0.59112546E-01 0.21153563E+03</pdfrwt>
<pdfrwt beam="2">  1       21 0.34566639E-01 0.21153563E+03</pdfrwt>
<totfact> 0.21342599E+04</totfact>
</mgrwt>
</event>
<event>
 4    3  0.4041078E+000  0.1814990E+03  0.7546771E-02  0.1166360E+00
         21   -1    0    0  503  502  0.00000000000E+00  0.00000000000E+00  0.46325451538E+03  0.46325451538E+03  0.00000000000E+00 0.  1.
         21   -1    0    0  501  503 -0.00000000000E+00 -0.00000000000E+00 -0.37223515374E+03  0.37223515374E+03  0.00000000000E+00 0.  1.
          6    1    1    2  501    0 -0.37484199047E+02  0.40097772666E+02 -0.33022053222E+03  0.37681228278E+03  0.17300000000E+03 0.  1.
         -6    1    1    2    0  502  0.37484199047E+02 -0.40097772666E+02  0.42123989387E+03  0.45867738634E+03  0.17300000000E+03 0.  1.
<mgrwt>
<rscale>  2 0.18149903E+03</rscale>
<asrwt>0</asrwt>
<pdfrwt beam="1">  1       21 0.71269925E-01 0.18149903E+03</pdfrwt>
<pdfrwt beam="2">  1       21 0.57266947E-01 0.18149903E+03</pdfrwt>
<totfact> 0.51431833E+03</totfact>
</mgrwt>
</event>
<event>
 4    3  0.4041078E+000  0.2363301E+03  0.7546771E-02  0.1122262E+00
         21   -1    0    0  501  502  0.00000000000E+00  0.00000000000E+00  0.62206789463E+03  0.62206789463E+03  0.00000000000E+00 0. -1.
         21   -1    0    0  502  503 -0.00000000000E+00 -0.00000000000E+00 -0.93161186884E+02  0.93161186884E+02  0.00000000000E+00 0.  1.
          6    1    1    2  501    0 -0.14767467523E+03 -0.64149263537E+02  0.33253893844E+03  0.40796333572E+03  0.17300000000E+03 0. -1.
         -6    1    1    2    0  503  0.14767467523E+03  0.64149263537E+02  0.19636776931E+03  0.30726574580E+03  0.17300000000E+03 0. -1.
<mgrwt>
<rscale>  2 0.23633015E+03</rscale>
<asrwt>0</asrwt>
<pdfrwt beam="1">  1       21 0.95702750E-01 0.23633015E+03</pdfrwt>
<pdfrwt beam="2">  1       21 0.14332491E-01 0.23633015E+03</pdfrwt>
<totfact> 0.37945224E+04</totfact>
</mgrwt>
</event>
<event>
 4    3  0.4041078E+000  0.3391179E+03  0.7546771E-02  0.1067172E+00
         21   -1    0    0  503  502  0.00000000000E+00  0.00000000000E+00  0.80559888457E+03  0.80559888457E+03  0.00000000000E+00 0.  1.
         21   -1    0    0  501  503 -0.00000000000E+00 -0.00000000000E+00 -0.22370829278E+03  0.22370829278E+03  0.00000000000E+00 0. -1.
          6    1    1    2  501    0 -0.24222533701E+03  0.16247717559E+03 -0.18653280628E+02  0.33963052182E+03  0.17300000000E+03 0. -1.
         -6    1    1    2    0  502  0.24222533701E+03 -0.16247717559E+03  0.60054387242E+03  0.68967665553E+03  0.17300000000E+03 0.  1.
<mgrwt>
<rscale>  2 0.33911789E+03</rscale>
<asrwt>0</asrwt>
<pdfrwt beam="1">  1       21 0.12393829E+00 0.33911789E+03</pdfrwt>
<pdfrwt beam="2">  1       21 0.34416661E-01 0.33911789E+03</pdfrwt>
<totfact> 0.36084042E+03</totfact>
</mgrwt>
</event>
<event>
 4    3  0.4041078E+000  0.2795631E+03  0.7546771E-02  0.1095928E+00
         21   -1    0    0  501  502  0.00000000000E+00  0.00000000000E+00  0.80311262759E+02  0.80311262759E+02  0.00000000000E+00 0.  1.
         21   -1    0    0  502  503 -0.00000000000E+00 -0.00000000000E+00 -0.14689976525E+04  0.14689976525E+04  0.00000000000E+00 0.  1.
          6    1    1    2  501    0 -0.19630671244E+03 -0.98438857918E+02 -0.24428551640E+03  0.37125590584E+03  0.17300000000E+03 0.  1.
         -6    1    1    2    0  503  0.19630671244E+03  0.98438857918E+02 -0.11444008733E+04  0.11780530094E+04  0.17300000000E+03 0.  1.
<mgrwt>
<rscale>  2 0.27956311E+03</rscale>
<asrwt>0</asrwt>
<pdfrwt beam="1">  1       21 0.12355580E-01 0.27956311E+03</pdfrwt>
<pdfrwt beam="2">  1       21 0.22599962E+00 0.27956311E+03</pdfrwt>
<totfact> 0.47923916E+03</totfact>
</mgrwt>
</event>
<event>
 4    3  0.4041078E+000  0.2079393E+03  0.7546771E-02  0.1143208E+00
         21   -1    0    0  501  502  0.00000000000E+00  0.00000000000E+00  0.31574928971E+02  0.31574928971E+02  0.00000000000E+00 0.  1.
         21   -1    0    0  502  503 -0.00000000000E+00 -0.00000000000E+00 -0.13823583309E+04  0.13823583309E+04  0.00000000000E+00 0.  1.
          6    1    1    2  501    0  0.55309844870E+02 -0.10124518336E+03 -0.60694820960E+03  0.64157999909E+03  0.17300000000E+03 0.  1.
         -6    1    1    2    0  503 -0.55309844870E+02  0.10124518336E+03 -0.74383519231E+03  0.77235326077E+03  0.17300000000E+03 0.  1.
<mgrwt>
<rscale>  2 0.20793933E+03</rscale>
<asrwt>0</asrwt>
<pdfrwt beam="1">  1       21 0.48576827E-02 0.20793933E+03</pdfrwt>
<pdfrwt beam="2">  1       21 0.21267046E+00 0.20793933E+03</pdfrwt>
<totfact> 0.31194828E+04</totfact>
</mgrwt>
</event>
<event>
 4    3  0.4041078E+000  0.2633297E+03  0.7546771E-02  0.1105159E+00
         21   -1    0    0  501  502  0.00000000000E+00  0.00000000000E+00  0.76345825016E+03  0.76345825016E+03  0.00000000000E+00 0. -1.
         21   -1    0    0  502  503 -0.00000000000E+00 -0.00000000000E+00 -0.11703552646E+03  0.11703552646E+03  0.00000000000E+00 0.  1.
          6    1    1    2  501    0 -0.14465223570E+03 -0.13597516446E+03  0.11487747769E+03  0.28729662288E+03  0.17300000000E+03 0.  1.
         -6    1    1    2    0  503  0.14465223570E+03  0.13597516446E+03  0.53154524601E+03  0.59319715373E+03  0.17300000000E+03 0.  1.
<mgrwt>
<rscale>  2 0.26332967E+03</rscale>
<asrwt>0</asrwt>
<pdfrwt beam="1">  1       21 0.11745511E+00 0.26332967E+03</pdfrwt>
<pdfrwt beam="2">  1       21 0.18005466E-01 0.26332967E+03</pdfrwt>
<totfact> 0.14984623E+04</totfact>
</mgrwt>
</event>
<event>
 4    3  0.4041078E+000  0.2934287E+03  0.7546771E-02  0.1088572E+00
         21   -1    0    0  501  502  0.00000000000E+00  0.00000000000E+00  0.49940274800E+03  0.49940274800E+03  0.00000000000E+00 0. -1.
         21   -1    0    0  502  503 -0.00000000000E+00 -0.00000000000E+00 -0.18158675945E+03  0.18158675945E+03  0.00000000000E+00 0.  1.
          6    1    1    2  501    0 -0.18806895062E+03 -0.14422723844E+03  0.23546569266E+03  0.37622402757E+03  0.17300000000E+03 0. -1.
         -6    1    1    2    0  503  0.18806895062E+03  0.14422723844E+03  0.82350295884E+02  0.30476547989E+03  0.17300000000E+03 0.  1.
<mgrwt>
<rscale>  2 0.29342874E+03</rscale>
<asrwt>0</asrwt>
<pdfrwt beam="1">  1       21 0.76831192E-01 0.29342874E+03</pdfrwt>
<pdfrwt beam="2">  1       21 0.27936425E-01 0.29342874E+03</pdfrwt>
<totfact> 0.17496393E+04</totfact>
</mgrwt>
</event>
<event>
 4    3  0.4041078E+000  0.1746039E+03  0.7546771E-02  0.1173130E+00
         21   -1    0    0  501  502  0.00000000000E+00  0.00000000000E+00  0.16607457974E+03  0.16607457974E+03  0.00000000000E+00 0. -1.
         21   -1    0    0  502  503 -0.00000000000E+00 -0.00000000000E+00 -0.58958432191E+03  0.58958432191E+03  0.00000000000E+00 0. -1.
          6    1    1    2  501    0  0.97298545268E+01 -0.21514193183E+02  0.10178502648E+03  0.20210572034E+03  0.17300000000E+03 0. -1.
         -6    1    1    2    0  503 -0.97298545268E+01  0.21514193183E+02 -0.52529476865E+03  0.55355318132E+03  0.17300000000E+03 0. -1.
<mgrwt>
<rscale>  2 0.17460392E+03</rscale>
<asrwt>0</asrwt>
<pdfrwt beam="1">  1       21 0.25549935E-01 0.17460392E+03</pdfrwt>
<pdfrwt beam="2">  1       21 0.90705280E-01 0.17460392E+03</pdfrwt>
<totfact> 0.15170068E+04</totfact>
</mgrwt>
</event>
<event>
 4    3  0.4041078E+000  0.1968240E+03  0.7546771E-02  0.1152447E+00
         21   -1    0    0  503  502  0.00000000000E+00  0.00000000000E+00  0.20808258325E+02  0.20808258325E+02  0.00000000000E+00 0. -1.
         21   -1    0    0  501  503 -0.00000000000E+00 -0.00000000000E+00 -0.22531708953E+04  0.22531708953E+04  0.00000000000E+00 0. -1.
          6    1    1    2  501    0 -0.26430729013E+02  0.90067312632E+02 -0.64228503277E+03  0.67176615542E+03  0.17300000000E+03 0. -1.
         -6    1    1    2    0  502  0.26430729013E+02 -0.90067312632E+02 -0.15900776042E+04  0.16022129982E+04  0.17300000000E+03 0. -1.
<mgrwt>
<rscale>  2 0.19682404E+03</rscale>
<asrwt>0</asrwt>
<pdfrwt beam="1">  1       21 0.32012720E-02 0.19682404E+03</pdfrwt>
<pdfrwt beam="2">  1       21 0.34664152E+00 0.19682404E+03</pdfrwt>
<totfact> 0.10348020E+04</totfact>
</mgrwt>
</event>
<event>
 4    3  0.4041078E+000  0.1895148E+03  0.7546771E-02  0.1158900E+00
         21   -1    0    0  503  502  0.00000000000E+00  0.00000000000E+00  0.89223112452E+03  0.89223112452E+03  0.00000000000E+00 0. -1.
         21   -1    0    0  501  503 -0.00000000000E+00 -0.00000000000E+00 -0.83122460975E+02  0.83122460975E+02  0.00000000000E+00 0. -1.
          6    1    1    2  501    0 -0.34193785454E+02 -0.69409266413E+02  0.54333562017E+02  0.19714968219E+03  0.17300000000E+03 0. -1.
         -6    1    1    2    0  502  0.34193785454E+02  0.69409266413E+02  0.75477510153E+03  0.77820390331E+03  0.17300000000E+03 0. -1.
<mgrwt>
<rscale>  2 0.18951480E+03</rscale>
<asrwt>0</asrwt>
<pdfrwt beam="1">  1       21 0.13726632E+00 0.18951480E+03</pdfrwt>
<pdfrwt beam="2">  1       21 0.12788072E-01 0.18951480E+03</pdfrwt>
<totfact> 0.19752308E+04</totfact>
</mgrwt>
</event>
<event>
 4    3  0.4041078E+000  0.1955878E+03  0.7546771E-02  0.1153516E+00
         21   -1    0    0  503  502  0.00000000000E+00  0.00000000000E+00  0.32268078835E+03  0.32268078835E+03  0.00000000000E+00 0. -1.
         21   -1    0    0  501  503 -0.00000000000E+00 -0.00000000000E+00 -0.15705544625E+03  0.15705544625E+03  0.00000000000E+00 0.  1.
          6    1    1    2  501    0 -0.67540017308E+02 -0.61350984654E+02 -0.35953649735E+02  0.19886493453E+03  0.17300000000E+03 0.  1.
         -6    1    1    2    0  502  0.67540017308E+02  0.61350984654E+02  0.20157899183E+03  0.28087130007E+03  0.17300000000E+03 0. -1.
<mgrwt>
<rscale>  2 0.19558782E+03</rscale>
<asrwt>0</asrwt>
<pdfrwt beam="1">  1       21 0.49643198E-01 0.19558782E+03</pdfrwt>
<pdfrwt beam="2">  1       21 0.24162376E-01 0.19558782E+03</pdfrwt>
<totfact> 0.62432241E+04</totfact>
</mgrwt>
</event>
<event>
 4    3  0.4041078E+000  0.1876193E+03  0.7546771E-02  0.1160626E+00
         21   -1    0    0  503  502  0.00000000000E+00  0.00000000000E+00  0.42035103648E+02  0.42035103648E+02  0.00000000000E+00 0.  1.
         21   -1    0    0  501  503 -0.00000000000E+00 -0.00000000000E+00 -0.89199017381E+03  0.89199017381E+03  0.00000000000E+00 0.  1.
          6    1    1    2  501    0 -0.36027505086E+02  0.63039766583E+02 -0.54049040052E+03  0.57212836527E+03  0.17300000000E+03 0.  1.
         -6    1    1    2    0  502  0.36027505086E+02 -0.63039766583E+02 -0.30946466964E+03  0.36189691219E+03  0.17300000000E+03 0.  1.
<mgrwt>
<rscale>  2 0.18761928E+03</rscale>
<asrwt>0</asrwt>
<pdfrwt beam="1">  1       21 0.64669390E-02 0.18761928E+03</pdfrwt>
<pdfrwt beam="2">  1       21 0.13722926E+00 0.18761928E+03</pdfrwt>
<totfact> 0.65490617E+04</totfact>
</mgrwt>
</event>
<event>
 4    3  0.4041078E+000  0.1843436E+03  0.7546771E-02  0.1163664E+00
         21   -1    0    0  501  502  0.00000000000E+00  0.00000000000E+00  0.12383284130E+03  0.12383284130E+03  0.00000000000E+00 0.  1.
         21   -1    0    0  502  503 -0.00000000000E+00 -0.00000000000E+00 -0.32875543213E+03  0.32875543213E+03  0.00000000000E+00 0.  1.
          6    1    1    2  501    0 -0.26791000616E+02  0.57756423862E+02 -0.10465712892E+02  0.18464044345E+03  0.17300000000E+03 0.  1.
         -6    1    1    2    0  503  0.26791000616E+02 -0.57756423862E+02 -0.19445687794E+03  0.26794782998E+03  0.17300000000E+03 0.  1.
<mgrwt>
<rscale>  2 0.18434360E+03</rscale>
<asrwt>0</asrwt>
<pdfrwt beam="1">  1       21 0.19051206E-01 0.18434360E+03</pdfrwt>
<pdfrwt beam="2">  1       21 0.50577758E-01 0.18434360E+03</pdfrwt>
<totfact> 0.94315098E+04</totfact>
</mgrwt>
</event>
<event>
 4    3  0.4041078E+000  0.1892947E+03  0.7546771E-02  0.1159099E+00
         21   -1    0    0  503  502  0.00000000000E+00  0.00000000000E+00  0.75981290206E+03  0.75981290206E+03  0.00000000000E+00 0.  1.
         21   -1    0    0  501  503 -0.00000000000E+00 -0.00000000000E+00 -0.10420026624E+03  0.10420026624E+03  0.00000000000E+00 0.  1.
          6    1    1    2  501    0 -0.75680890639E+02  0.13261531108E+02  0.81757680026E+01  0.18947112867E+03  0.17300000000E+03 0.  1.
         -6    1    1    2    0  502  0.75680890639E+02 -0.13261531108E+02  0.64743686782E+03  0.67454203963E+03  0.17300000000E+03 0.  1.
<mgrwt>
<rscale>  2 0.18929465E+03</rscale>
<asrwt>0</asrwt>
<pdfrwt beam="1">  1       21 0.11689429E+00 0.18929465E+03</pdfrwt>
<pdfrwt beam="2">  1       21 0.16030811E-01 0.18929465E+03</pdfrwt>
<totfact> 0.19615115E+04</totfact>
</mgrwt>
</event>
<event>
 4    3  0.4041078E+000  0.1787558E+03  0.7546771E-02  0.1169013E+00
         21   -1    0    0  503  502  0.00000000000E+00  0.00000000000E+00  0.10087926941E+03  0.10087926941E+03  0.00000000000E+00 0. -1.
         21   -1    0    0  501  503 -0.00000000000E+00 -0.00000000000E+00 -0.31677435993E+03  0.31677435993E+03  0.00000000000E+00 0. -1.
          6    1    1    2  501    0  0.30045274210E+02 -0.33495115408E+02 -0.10616640776E+03  0.20790610235E+03  0.17300000000E+03 0. -1.
         -6    1    1    2    0  502 -0.30045274210E+02  0.33495115408E+02 -0.10972868276E+03  0.20974752699E+03  0.17300000000E+03 0. -1.
<mgrwt>
<rscale>  2 0.17875581E+03</rscale>
<asrwt>0</asrwt>
<pdfrwt beam="1">  1       21 0.15519888E-01 0.17875581E+03</pdfrwt>
<pdfrwt beam="2">  1       21 0.48734517E-01 0.17875581E+03</pdfrwt>
<totfact> 0.14884512E+05</totfact>
</mgrwt>
</event>
<event>
 4    3  0.4041078E+000  0.2422036E+03  0.7546771E-02  0.1118334E+00
         21   -1    0    0  501  502  0.00000000000E+00  0.00000000000E+00  0.11402917579E+03  0.11402917579E+03  0.00000000000E+00 0.  1.
         21   -1    0    0  502  503 -0.00000000000E+00 -0.00000000000E+00 -0.51634530192E+03  0.51634530192E+03  0.00000000000E+00 0.  1.
          6    1    1    2  501    0  0.52851319210E+02  0.16105992684E+03 -0.18207342737E+03  0.30300708726E+03  0.17300000000E+03 0.  1.
         -6    1    1    2    0  503 -0.52851319210E+02 -0.16105992684E+03 -0.22024269875E+03  0.32736739045E+03  0.17300000000E+03 0.  1.
<mgrwt>
<rscale>  2 0.24220355E+03</rscale>
<asrwt>0</asrwt>
<pdfrwt beam="1">  1       21 0.17542950E-01 0.24220355E+03</pdfrwt>
<pdfrwt beam="2">  1       21 0.79437737E-01 0.24220355E+03</pdfrwt>
<totfact> 0.40163330E+04</totfact>
</mgrwt>
</event>
<event>
 4    3  0.4041078E+000  0.2275577E+03  0.7546771E-02  0.1128371E+00
         21   -1    0    0  503  502  0.00000000000E+00  0.00000000000E+00  0.43569049819E+02  0.43569049819E+02  0.00000000000E+00 0. -1.
         21   -1    0    0  501  503 -0.00000000000E+00 -0.00000000000E+00 -0.14234072539E+04  0.14234072539E+04  0.00000000000E+00 0.  1.
          6    1    1    2  501    0  0.14160473704E+03  0.42445292461E+02 -0.98788195035E+03  0.10137520664E+04  0.17300000000E+03 0.  1.
         -6    1    1    2    0  502 -0.14160473704E+03 -0.42445292461E+02 -0.39195625370E+03  0.45322423724E+03  0.17300000000E+03 0. -1.
<mgrwt>
<rscale>  2 0.22755769E+03</rscale>
<asrwt>0</asrwt>
<pdfrwt beam="1">  1       21 0.67029300E-02 0.22755769E+03</pdfrwt>
<pdfrwt beam="2">  1       21 0.21898576E+00 0.22755769E+03</pdfrwt>
<totfact> 0.16187952E+04</totfact>
</mgrwt>
</event>
<event>
 4    3  0.4041078E+000  0.1930093E+03  0.7546771E-02  0.1155775E+00
         21   -1    0    0  501  502  0.00000000000E+00  0.00000000000E+00  0.34791590296E+03  0.34791590296E+03  0.00000000000E+00 0.  1.
         21   -1    0    0  502  503 -0.00000000000E+00 -0.00000000000E+00 -0.14854877549E+03  0.14854877549E+03  0.00000000000E+00 0.  1.
          6    1    1    2  501    0 -0.35147651017E+02  0.78027056759E+02  0.23084868902E+03  0.30090479587E+03  0.17300000000E+03 0.  1.
         -6    1    1    2    0  503  0.35147651017E+02 -0.78027056759E+02 -0.31481561545E+02  0.19555988258E+03  0.17300000000E+03 0.  1.
<mgrwt>
<rscale>  2 0.19300927E+03</rscale>
<asrwt>0</asrwt>
<pdfrwt beam="1">  1       21 0.53525524E-01 0.19300927E+03</pdfrwt>
<pdfrwt beam="2">  1       21 0.22853658E-01 0.19300927E+03</pdfrwt>
<totfact> 0.59336778E+04</totfact>
</mgrwt>
</event>
<event>
 4    3  0.4041078E+000  0.1780755E+03  0.7546771E-02  0.1169679E+00
         21   -1    0    0  501  502  0.00000000000E+00  0.00000000000E+00  0.31223434587E+03  0.31223434587E+03  0.00000000000E+00 0. -1.
         21   -1    0    0  502  503 -0.00000000000E+00 -0.00000000000E+00 -0.14612681176E+03  0.14612681176E+03  0.00000000000E+00 0. -1.
          6    1    1    2  501    0 -0.39997017064E+02  0.13495460676E+02 -0.43511018515E+02  0.18331420448E+03  0.17300000000E+03 0. -1.
         -6    1    1    2    0  503  0.39997017064E+02 -0.13495460676E+02  0.20961855262E+03  0.27504695315E+03  0.17300000000E+03 0. -1.
<mgrwt>
<rscale>  2 0.17807551E+03</rscale>
<asrwt>0</asrwt>
<pdfrwt beam="1">  1       21 0.48036053E-01 0.17807551E+03</pdfrwt>
<pdfrwt beam="2">  1       21 0.22481048E-01 0.17807551E+03</pdfrwt>
<totfact> 0.77210773E+04</totfact>
</mgrwt>
</event>
<event>
 4    3  0.4041078E+000  0.2757247E+03  0.7546771E-02  0.1098047E+00
         21   -1    0    0  503  502  0.00000000000E+00  0.00000000000E+00  0.41771223549E+03  0.41771223549E+03  0.00000000000E+00 0. -1.
         21   -1    0    0  501  503 -0.00000000000E+00 -0.00000000000E+00 -0.18279356929E+03  0.18279356929E+03  0.00000000000E+00 0.  1.
          6    1    1    2  501    0 -0.20316618423E+03  0.69416232209E+02  0.13722817998E+03  0.30798650147E+03  0.17300000000E+03 0. -1.
         -6    1    1    2    0  502  0.20316618423E+03 -0.69416232209E+02  0.97690486220E+02  0.29251930331E+03  0.17300000000E+03 0. -1.
<mgrwt>
<rscale>  2 0.27572470E+03</rscale>
<asrwt>0</asrwt>
<pdfrwt beam="1">  1       21 0.64263421E-01 0.27572470E+03</pdfrwt>
<pdfrwt beam="2">  1       21 0.28122088E-01 0.27572470E+03</pdfrwt>
<totfact> 0.25909850E+04</totfact>
</mgrwt>
</event>
<event>
 4    3  0.4041078E+000  0.2120022E+03  0.7546771E-02  0.1139990E+00
         21   -1    0    0  503  502  0.00000000000E+00  0.00000000000E+00  0.10320790149E+04  0.10320790149E+04  0.00000000000E+00 0. -1.
         21   -1    0    0  501  503 -0.00000000000E+00 -0.00000000000E+00 -0.45539580547E+02  0.45539580547E+02  0.00000000000E+00 0. -1.
          6    1    1    2  501    0  0.25420406990E+02  0.11987388717E+03  0.38059076926E+03  0.43565385292E+03  0.17300000000E+03 0. -1.
         -6    1    1    2    0  502 -0.25420406990E+02 -0.11987388717E+03  0.60594866508E+03  0.64196474251E+03  0.17300000000E+03 0. -1.
<mgrwt>
<rscale>  2 0.21200223E+03</rscale>
<asrwt>0</asrwt>
<pdfrwt beam="1">  1       21 0.15878137E+00 0.21200223E+03</pdfrwt>
<pdfrwt beam="2">  1       21 0.70060901E-02 0.21200223E+03</pdfrwt>
<totfact> 0.38357065E+04</totfact>
</mgrwt>
</event>
<event>
 4    3  0.4041078E+000  0.2541450E+03  0.7546771E-02  0.1110713E+00
         21   -1    0    0  503  502  0.00000000000E+00  0.00000000000E+00  0.15661263320E+04  0.15661263320E+04  0.00000000000E+00 0.  1.
         21   -1    0    0  501  503 -0.00000000000E+00 -0.00000000000E+00 -0.44714490895E+02  0.44714490895E+02  0.00000000000E+00 0. -1.
          6    1    1    2  501    0  0.66854620333E+01  0.18605370129E+03  0.53624575029E+03  0.59342158696E+03  0.17300000000E+03 0. -1.
         -6    1    1    2    0  502 -0.66854620333E+01 -0.18605370129E+03  0.98516609084E+03  0.10174192360E+04  0.17300000000E+03 0. -1.
<mgrwt>
<rscale>  2 0.25414499E+03</rscale>
<asrwt>0</asrwt>
<pdfrwt beam="1">  1       21 0.24094247E+00 0.25414499E+03</pdfrwt>
<pdfrwt beam="2">  1       21 0.68791537E-02 0.25414499E+03</pdfrwt>
<totfact> 0.11151652E+04</totfact>
</mgrwt>
</event>
<event>
 4    3  0.4041078E+000  0.1911479E+03  0.7546771E-02  0.1157430E+00
         21   -1    0    0  503  502  0.00000000000E+00  0.00000000000E+00  0.10284932056E+03  0.10284932056E+03  0.00000000000E+00 0. -1.
         21   -1    0    0  501  503 -0.00000000000E+00 -0.00000000000E+00 -0.35678558386E+03  0.35678558386E+03  0.00000000000E+00 0. -1.
          6    1    1    2  501    0  0.78885465224E+02  0.19636502558E+02 -0.14203143285E+03  0.23813953215E+03  0.17300000000E+03 0. -1.
         -6    1    1    2    0  502 -0.78885465224E+02 -0.19636502558E+02 -0.11190483045E+03  0.22149537227E+03  0.17300000000E+03 0. -1.
<mgrwt>
<rscale>  2 0.19114787E+03</rscale>
<asrwt>0</asrwt>
<pdfrwt beam="1">  1       21 0.15822972E-01 0.19114787E+03</pdfrwt>
<pdfrwt beam="2">  1       21 0.54890090E-01 0.19114787E+03</pdfrwt>
<totfact> 0.11153316E+05</totfact>
</mgrwt>
</event>
<event>
 4    3  0.4041078E+000  0.2889067E+03  0.7546771E-02  0.1090921E+00
         21   -1    0    0  501  502  0.00000000000E+00  0.00000000000E+00  0.76894388714E+03  0.76894388714E+03  0.00000000000E+00 0.  1.
         21   -1    0    0  502  503 -0.00000000000E+00 -0.00000000000E+00 -0.14423191007E+03  0.14423191007E+03  0.00000000000E+00 0.  1.
          6    1    1    2  501    0 -0.18772146453E+02 -0.23062018649E+03  0.53946374787E+03  0.61195440939E+03  0.17300000000E+03 0.  1.
         -6    1    1    2    0  503  0.18772146453E+02  0.23062018649E+03  0.85248229193E+02  0.30122138782E+03  0.17300000000E+03 0.  1.
<mgrwt>
<rscale>  2 0.28890667E+03</rscale>
<asrwt>0</asrwt>
<pdfrwt beam="1">  1       21 0.11829906E+00 0.28890667E+03</pdfrwt>
<pdfrwt beam="2">  1       21 0.22189525E-01 0.28890667E+03</pdfrwt>
<totfact> 0.98053978E+03</totfact>
</mgrwt>
</event>
<event>
 4    3  0.4041078E+000  0.2230391E+03  0.7546771E-02  0.1131637E+00
         21   -1    0    0  501  502  0.00000000000E+00  0.00000000000E+00  0.28107243676E+03  0.28107243676E+03  0.00000000000E+00 0.  1.
         21   -1    0    0  502  503 -0.00000000000E+00 -0.00000000000E+00 -0.19714736168E+03  0.19714736168E+03  0.00000000000E+00 0. -1.
          6    1    1    2  501    0 -0.80084273501E+02 -0.11577551131E+03  0.11842354594E+03  0.25252840655E+03  0.17300000000E+03 0. -1.
         -6    1    1    2    0  503  0.80084273501E+02  0.11577551131E+03 -0.34498470867E+02  0.22569139189E+03  0.17300000000E+03 0. -1.
<mgrwt>
<rscale>  2 0.22303914E+03</rscale>
<asrwt>0</asrwt>
<pdfrwt beam="1">  1       21 0.43241913E-01 0.22303914E+03</pdfrwt>
<pdfrwt beam="2">  1       21 0.30330363E-01 0.22303914E+03</pdfrwt>
<totfact> 0.52881548E+04</totfact>
</mgrwt>
</event>
<event>
 4    3  0.4041078E+000  0.1993305E+03  0.7546771E-02  0.1150305E+00
         21   -1    0    0  501  502  0.00000000000E+00  0.00000000000E+00  0.15695314849E+03  0.15695314849E+03  0.00000000000E+00 0.  1.
         21   -1    0    0  502  503 -0.00000000000E+00 -0.00000000000E+00 -0.26484229727E+03  0.26484229727E+03  0.00000000000E+00 0.  1.
          6    1    1    2  501    0  0.87757745870E+02  0.45850143011E+02 -0.96314957006E+01  0.19956308096E+03  0.17300000000E+03 0. -1.
         -6    1    1    2    0  503 -0.87757745870E+02 -0.45850143011E+02 -0.98257653075E+02  0.22223236479E+03  0.17300000000E+03 0. -1.
<mgrwt>
<rscale>  2 0.19933052E+03</rscale>
<asrwt>0</asrwt>
<pdfrwt beam="1">  1       21 0.24146638E-01 0.19933052E+03</pdfrwt>
<pdfrwt beam="2">  1       21 0.40744968E-01 0.19933052E+03</pdfrwt>
<totfact> 0.93650761E+04</totfact>
</mgrwt>
</event>
<event>
 4    3  0.4041078E+000  0.1772184E+03  0.7546771E-02  0.1170523E+00
         21   -1    0    0  501  502  0.00000000000E+00  0.00000000000E+00  0.12198501560E+04  0.12198501560E+04  0.00000000000E+00 0. -1.
         21   -1    0    0  502  503 -0.00000000000E+00 -0.00000000000E+00 -0.34562583736E+02  0.34562583736E+02  0.00000000000E+00 0. -1.
          6    1    1    2  501    0  0.26227272666E+02 -0.28098183789E+02  0.90942191796E+03  0.92652825248E+03  0.17300000000E+03 0. -1.
         -6    1    1    2    0  503 -0.26227272666E+02  0.28098183789E+02  0.27586565431E+03  0.32788448727E+03  0.17300000000E+03 0. -1.
<mgrwt>
<rscale>  2 0.17721845E+03</rscale>
<asrwt>0</asrwt>
<pdfrwt beam="1">  1       21 0.18766922E+00 0.17721845E+03</pdfrwt>
<pdfrwt beam="2">  1       21 0.53173215E-02 0.17721845E+03</pdfrwt>
<totfact> 0.39560968E+04</totfact>
</mgrwt>
</event>
<event>
 4    3  0.4041078E+000  0.2129451E+03  0.7546771E-02  0.1139255E+00
         21   -1    0    0  503  502  0.00000000000E+00  0.00000000000E+00  0.19269265714E+03  0.19269265714E+03  0.00000000000E+00 0.  1.
         21   -1    0    0  501  503 -0.00000000000E+00 -0.00000000000E+00 -0.41985601838E+03  0.41985601838E+03  0.00000000000E+00 0.  1.
          6    1    1    2  501    0  0.69333620145E+02 -0.10300216960E+03 -0.31662742725E+03  0.38157374846E+03  0.17300000000E+03 0.  1.
         -6    1    1    2    0  502 -0.69333620145E+02  0.10300216960E+03  0.89464066016E+02  0.23097492706E+03  0.17300000000E+03 0.  1.
<mgrwt>
<rscale>  2 0.21294506E+03</rscale>
<asrwt>0</asrwt>
<pdfrwt beam="1">  1       21 0.29645024E-01 0.21294506E+03</pdfrwt>
<pdfrwt beam="2">  1       21 0.64593233E-01 0.21294506E+03</pdfrwt>
<totfact> 0.23818250E+04</totfact>
</mgrwt>
</event>
<event>
 4    3  0.4041078E+000  0.1938537E+03  0.7546771E-02  0.1155031E+00
         21   -1    0    0  503  502  0.00000000000E+00  0.00000000000E+00  0.64360346078E+02  0.64360346078E+02  0.00000000000E+00 0. -1.
         21   -1    0    0  501  503 -0.00000000000E+00 -0.00000000000E+00 -0.58408626161E+03  0.58408626161E+03  0.00000000000E+00 0. -1.
          6    1    1    2  501    0 -0.58686981081E+02  0.64854316550E+02 -0.26583397683E+03  0.32900903842E+03  0.17300000000E+03 0. -1.
         -6    1    1    2    0  502  0.58686981081E+02 -0.64854316550E+02 -0.25389193870E+03  0.31943756927E+03  0.17300000000E+03 0. -1.
<mgrwt>
<rscale>  2 0.19385367E+03</rscale>
<asrwt>0</asrwt>
<pdfrwt beam="1">  1       21 0.99015919E-02 0.19385367E+03</pdfrwt>
<pdfrwt beam="2">  1       21 0.89859423E-01 0.19385367E+03</pdfrwt>
<totfact> 0.87025077E+04</totfact>
</mgrwt>
</event>
<event>
 4    3  0.4041078E+000  0.2181377E+03  0.7546771E-02  0.1135279E+00
         21   -1    0    0  501  502  0.00000000000E+00  0.00000000000E+00  0.16735607576E+03  0.16735607576E+03  0.00000000000E+00 0.  1.
         21   -1    0    0  502  503 -0.00000000000E+00 -0.00000000000E+00 -0.32512870991E+03  0.32512870991E+03  0.00000000000E+00 0.  1.
          6    1    1    2  501    0  0.12762003159E+03  0.36988757138E+02  0.83441730473E+01  0.21829719614E+03  0.17300000000E+03 0.  1.
         -6    1    1    2    0  503 -0.12762003159E+03 -0.36988757138E+02 -0.16611680720E+03  0.27418758953E+03  0.17300000000E+03 0.  1.
<mgrwt>
<rscale>  2 0.21813766E+03</rscale>
<asrwt>0</asrwt>
<pdfrwt beam="1">  1       21 0.25747089E-01 0.21813766E+03</pdfrwt>
<pdfrwt beam="2">  1       21 0.50019801E-01 0.21813766E+03</pdfrwt>
<totfact> 0.53865086E+04</totfact>
</mgrwt>
</event>
<event>
 4    3  0.4041078E+000  0.2261113E+03  0.7546771E-02  0.1129407E+00
         21   -1    0    0  501  502  0.00000000000E+00  0.00000000000E+00  0.46189189214E+03  0.46189189214E+03  0.00000000000E+00 0.  1.
         21   -1    0    0  502  503 -0.00000000000E+00 -0.00000000000E+00 -0.11674660420E+03  0.11674660420E+03  0.00000000000E+00 0.  1.
          6    1    1    2  501    0 -0.10547590885E+03  0.10036020733E+03  0.23847586804E+03  0.32862908910E+03  0.17300000000E+03 0.  1.
         -6    1    1    2    0  503  0.10547590885E+03 -0.10036020733E+03  0.10666941990E+03  0.25000940723E+03  0.17300000000E+03 0.  1.
<mgrwt>
<rscale>  2 0.22611134E+03</rscale>
<asrwt>0</asrwt>
<pdfrwt beam="1">  1       21 0.71060291E-01 0.22611134E+03</pdfrwt>
<pdfrwt beam="2">  1       21 0.17961016E-01 0.22611134E+03</pdfrwt>
<totfact> 0.49727776E+04</totfact>
</mgrwt>
</event>
<event>
 4    3  0.4041078E+000  0.2126092E+03  0.7546771E-02  0.1139516E+00
         21   -1    0    0  501  502  0.00000000000E+00  0.00000000000E+00  0.21608476546E+03  0.21608476546E+03  0.00000000000E+00 0.  1.
         21   -1    0    0  502  503 -0.00000000000E+00 -0.00000000000E+00 -0.21114507800E+03  0.21114507800E+03  0.00000000000E+00 0. -1.
          6    1    1    2  501    0 -0.10513267107E+03  0.64967744858E+02  0.23027196550E+02  0.21385260854E+03  0.17300000000E+03 0.  1.
         -6    1    1    2    0  503  0.10513267107E+03 -0.64967744858E+02 -0.18087509086E+02  0.21337723492E+03  0.17300000000E+03 0. -1.
<mgrwt>
<rscale>  2 0.21260923E+03</rscale>
<asrwt>0</asrwt>
<pdfrwt beam="1">  1       21 0.33243810E-01 0.21260923E+03</pdfrwt>
<pdfrwt beam="2">  1       21 0.32483858E-01 0.21260923E+03</pdfrwt>
<totfact> 0.78786301E+04</totfact>
</mgrwt>
</event>
<event>
 4    3  0.4041078E+000  0.3165743E+03  0.7546771E-02  0.1077237E+00
         21   -1    0    0  503  502  0.00000000000E+00  0.00000000000E+00  0.16369450462E+03  0.16369450462E+03  0.00000000000E+00 0. -1.
         21   -1    0    0  501  503 -0.00000000000E+00 -0.00000000000E+00 -0.69464251117E+03  0.69464251117E+03  0.00000000000E+00 0. -1.
          6    1    1    2  501    0 -0.18721949330E+03 -0.18772097373E+03 -0.11765379016E+03  0.33773024293E+03  0.17300000000E+03 0. -1.
         -6    1    1    2    0  502  0.18721949330E+03  0.18772097373E+03 -0.41329421638E+03  0.52060677286E+03  0.17300000000E+03 0. -1.
<mgrwt>
<rscale>  2 0.31657432E+03</rscale>
<asrwt>0</asrwt>
<pdfrwt beam="1">  1       21 0.25183770E-01 0.31657432E+03</pdfrwt>
<pdfrwt beam="2">  1       21 0.10686808E+00 0.31657432E+03</pdfrwt>
<totfact> 0.97523912E+03</totfact>
</mgrwt>
</event>
<event>
 4    3  0.4041078E+000  0.1742950E+03  0.7546771E-02  0.1173441E+00
         21   -1    0    0  501  502  0.00000000000E+00  0.00000000000E+00  0.38324032579E+03  0.38324032579E+03  0.00000000000E+00 0. -1.
         21   -1    0    0  502  503 -0.00000000000E+00 -0.00000000000E+00 -0.95547517014E+02  0.95547517014E+02  0.00000000000E+00 0. -1.
          6    1    1    2  501    0  0.16290432892E+02 -0.13577696273E+02  0.24266139985E+03  0.29876962198E+03  0.17300000000E+03 0. -1.
         -6    1    1    2    0  503 -0.16290432892E+02  0.13577696273E+02  0.45031408928E+02  0.18001822083E+03  0.17300000000E+03 0. -1.
<mgrwt>
<rscale>  2 0.17429496E+03</rscale>
<asrwt>0</asrwt>
<pdfrwt beam="1">  1       21 0.58960049E-01 0.17429496E+03</pdfrwt>
<pdfrwt beam="2">  1       21 0.14699618E-01 0.17429496E+03</pdfrwt>
<totfact> 0.11024172E+05</totfact>
</mgrwt>
</event>
<event>
 4    3  0.4041078E+000  0.2035187E+03  0.7546771E-02  0.1146804E+00
         21   -1    0    0  501  502  0.00000000000E+00  0.00000000000E+00  0.11312471910E+03  0.11312471910E+03  0.00000000000E+00 0.  1.
         21   -1    0    0  502  503 -0.00000000000E+00 -0.00000000000E+00 -0.37079007483E+03  0.37079007483E+03  0.00000000000E+00 0.  1.
          6    1    1    2  501    0 -0.10688373512E+03 -0.81698610883E+01 -0.10174687048E+03  0.22753528323E+03  0.17300000000E+03 0.  1.
         -6    1    1    2    0  503  0.10688373512E+03  0.81698610883E+01 -0.15591848524E+03  0.25637951069E+03  0.17300000000E+03 0.  1.
<mgrwt>
<rscale>  2 0.20351874E+03</rscale>
<asrwt>0</asrwt>
<pdfrwt beam="1">  1       21 0.17403802E-01 0.20351874E+03</pdfrwt>
<pdfrwt beam="2">  1       21 0.57044628E-01 0.20351874E+03</pdfrwt>
<totfact> 0.85849020E+04</totfact>
</mgrwt>
</event>
<event>
 4    3  0.4041078E+000  0.3678589E+03  0.7546771E-02  0.1055515E+00
         21   -1    0    0  503  502  0.00000000000E+00  0.00000000000E+00  0.64797838058E+03  0.64797838058E+03  0.00000000000E+00 0.  1.
         21   -1    0    0  501  503 -0.00000000000E+00 -0.00000000000E+00 -0.20895887381E+03  0.20895887381E+03  0.00000000000E+00 0. -1.
          6    1    1    2  501    0  0.88568210662E+02 -0.31232485595E+03  0.22996936903E+03  0.43382721708E+03  0.17300000000E+03 0.  1.
         -6    1    1    2    0  502 -0.88568210662E+02  0.31232485595E+03  0.20905013774E+03  0.42311003731E+03  0.17300000000E+03 0.  1.
<mgrwt>
<rscale>  2 0.36785886E+03</rscale>
<asrwt>0</asrwt>
<pdfrwt beam="1">  1       21 0.99688981E-01 0.36785886E+03</pdfrwt>
<pdfrwt beam="2">  1       21 0.32147519E-01 0.36785886E+03</pdfrwt>
<totfact> 0.70011883E+03</totfact>
</mgrwt>
</event>
<event>
 4    3  0.4041078E+000  0.1886736E+03  0.7546771E-02  0.1159663E+00
         21   -1    0    0  503  502  0.00000000000E+00  0.00000000000E+00  0.18869207221E+03  0.18869207221E+03  0.00000000000E+00 0. -1.
         21   -1    0    0  501  503 -0.00000000000E+00 -0.00000000000E+00 -0.18889254677E+03  0.18889254677E+03  0.00000000000E+00 0. -1.
          6    1    1    2  501    0  0.51451926296E+02  0.54967358325E+02  0.65941549226E+01  0.18878875517E+03  0.17300000000E+03 0. -1.
         -6    1    1    2    0  502 -0.51451926296E+02 -0.54967358325E+02 -0.67946294903E+01  0.18879586381E+03  0.17300000000E+03 0. -1.
<mgrwt>
<rscale>  2 0.18867356E+03</rscale>
<asrwt>0</asrwt>
<pdfrwt beam="1">  1       21 0.29029549E-01 0.18867356E+03</pdfrwt>
<pdfrwt beam="2">  1       21 0.29060392E-01 0.18867356E+03</pdfrwt>
<totfact> 0.12896342E+05</totfact>
</mgrwt>
</event>
<event>
 4    3  0.4041078E+000  0.2493733E+03  0.7546771E-02  0.1113701E+00
         21   -1    0    0  503  502  0.00000000000E+00  0.00000000000E+00  0.38321818070E+03  0.38321818070E+03  0.00000000000E+00 0.  1.
         21   -1    0    0  501  503 -0.00000000000E+00 -0.00000000000E+00 -0.17362045417E+03  0.17362045417E+03  0.00000000000E+00 0. -1.
          6    1    1    2  501    0  0.17329304217E+03  0.47197278806E+02  0.33629461492E+02  0.25163068627E+03  0.17300000000E+03 0.  1.
         -6    1    1    2    0  502 -0.17329304217E+03 -0.47197278806E+02  0.17596826504E+03  0.30520794860E+03  0.17300000000E+03 0. -1.
<mgrwt>
<rscale>  2 0.24937334E+03</rscale>
<asrwt>0</asrwt>
<pdfrwt beam="1">  1       21 0.58956643E-01 0.24937334E+03</pdfrwt>
<pdfrwt beam="2">  1       21 0.26710839E-01 0.24937334E+03</pdfrwt>
<totfact> 0.34922652E+04</totfact>
</mgrwt>
</event>
<event>
 4    3  0.4041078E+000  0.1789895E+03  0.7546771E-02  0.1168785E+00
         21   -1    0    0  501  502  0.00000000000E+00  0.00000000000E+00  0.19557572881E+03  0.19557572881E+03  0.00000000000E+00 0.  1.
         21   -1    0    0  502  503 -0.00000000000E+00 -0.00000000000E+00 -0.22231874353E+03  0.22231874353E+03  0.00000000000E+00 0.  1.
          6    1    1    2  501    0  0.45067315602E+02 -0.87857215476E+01  0.93819693084E+02  0.20208757173E+03  0.17300000000E+03 0.  1.
         -6    1    1    2    0  503 -0.45067315602E+02  0.87857215476E+01 -0.12056270780E+03  0.21580690061E+03  0.17300000000E+03 0.  1.
<mgrwt>
<rscale>  2 0.17898953E+03</rscale>
<asrwt>0</asrwt>
<pdfrwt beam="1">  1       21 0.30088574E-01 0.17898953E+03</pdfrwt>
<pdfrwt beam="2">  1       21 0.34202883E-01 0.17898953E+03</pdfrwt>
<totfact> 0.87743600E+04</totfact>
</mgrwt>
</event>
<event>
 4    3  0.4041078E+000  0.1825828E+03  0.7546771E-02  0.1165327E+00
         21   -1    0    0  501  502  0.00000000000E+00  0.00000000000E+00  0.61460632486E+03  0.61460632486E+03  0.00000000000E+00 0.  1.
         21   -1    0    0  502  503 -0.00000000000E+00 -0.00000000000E+00 -0.11047780995E+03  0.11047780995E+03  0.00000000000E+00 0.  1.
          6    1    1    2  501    0  0.58289294576E+02 -0.31377843388E+01  0.51072681523E+03  0.54238212299E+03  0.17300000000E+03 0.  1.
         -6    1    1    2    0  503 -0.58289294576E+02  0.31377843388E+01 -0.65983003113E+01  0.18270201181E+03  0.17300000000E+03 0.  1.
<mgrwt>
<rscale>  2 0.18258282E+03</rscale>
<asrwt>0</asrwt>
<pdfrwt beam="1">  1       21 0.94554817E-01 0.18258282E+03</pdfrwt>
<pdfrwt beam="2">  1       21 0.16996587E-01 0.18258282E+03</pdfrwt>
<totfact> 0.29395197E+04</totfact>
</mgrwt>
</event>
<event>
 4    3  0.4041078E+000  0.1937985E+03  0.7546771E-02  0.1155079E+00
         21   -1    0    0  503  502  0.00000000000E+00  0.00000000000E+00  0.59567032131E+03  0.59567032131E+03  0.00000000000E+00 0. -1.
         21   -1    0    0  501  503 -0.00000000000E+00 -0.00000000000E+00 -0.12478139970E+03  0.12478139970E+03  0.00000000000E+00 0. -1.
          6    1    1    2  501    0 -0.30024190105E+02 -0.82020812824E+02 -0.17921339032E+02  0.19462538406E+03  0.17300000000E+03 0. -1.
         -6    1    1    2    0  502  0.30024190105E+02  0.82020812824E+02  0.48881026064E+03  0.52582633695E+03  0.17300000000E+03 0. -1.
<mgrwt>
<rscale>  2 0.19379852E+03</rscale>
<asrwt>0</asrwt>
<pdfrwt beam="1">  1       21 0.91641587E-01 0.19379852E+03</pdfrwt>
<pdfrwt beam="2">  1       21 0.19197139E-01 0.19379852E+03</pdfrwt>
<totfact> 0.25085728E+04</totfact>
</mgrwt>
</event>
<event>
 4    3  0.4041078E+000  0.4050540E+03  0.7546771E-02  0.1042044E+00
         21   -1    0    0  503  502  0.00000000000E+00  0.00000000000E+00  0.18669550696E+03  0.18669550696E+03  0.00000000000E+00 0. -1.
         21   -1    0    0  501  503 -0.00000000000E+00 -0.00000000000E+00 -0.10439105122E+04  0.10439105122E+04  0.00000000000E+00 0.  1.
          6    1    1    2  501    0  0.36615961647E+03 -0.81756544991E+01 -0.67331082921E+03  0.78575834631E+03  0.17300000000E+03 0.  1.
         -6    1    1    2    0  502 -0.36615961647E+03  0.81756544991E+01 -0.18390417600E+03  0.44484767282E+03  0.17300000000E+03 0. -1.
<mgrwt>
<rscale>  2 0.40505395E+03</rscale>
<asrwt>0</asrwt>
<pdfrwt beam="1">  1       21 0.28722385E-01 0.40505395E+03</pdfrwt>
<pdfrwt beam="2">  1       21 0.16060162E+00 0.40505395E+03</pdfrwt>
<totfact> 0.25247034E+03</totfact>
</mgrwt>
</event>
<event>
 4    3  0.4041078E+000  0.2117583E+03  0.7546771E-02  0.1140181E+00
         21   -1    0    0  503  502  0.00000000000E+00  0.00000000000E+00  0.12564554803E+03  0.12564554803E+03  0.00000000000E+00 0.  1.
         21   -1    0    0  501  503 -0.00000000000E+00 -0.00000000000E+00 -0.70161743229E+03  0.70161743229E+03  0.00000000000E+00 0. -1.
          6    1    1    2  501    0 -0.12204994105E+03  0.40464152427E+01 -0.57792166152E+03  0.61549574201E+03  0.17300000000E+03 0. -1.
         -6    1    1    2    0  502  0.12204994105E+03 -0.40464152427E+01  0.19497772592E+01  0.21176723830E+03  0.17300000000E+03 0.  1.
<mgrwt>
<rscale>  2 0.21175826E+03</rscale>
<asrwt>0</asrwt>
<pdfrwt beam="1">  1       21 0.19330084E-01 0.21175826E+03</pdfrwt>
<pdfrwt beam="2">  1       21 0.10794114E+00 0.21175826E+03</pdfrwt>
<totfact> 0.16610619E+04</totfact>
</mgrwt>
</event>
<event>
 4    3  0.4041078E+000  0.2162451E+03  0.7546771E-02  0.1136714E+00
         21   -1    0    0  503  502  0.00000000000E+00  0.00000000000E+00  0.98785562770E+03  0.98785562770E+03  0.00000000000E+00 0. -1.
         21   -1    0    0  501  503 -0.00000000000E+00 -0.00000000000E+00 -0.13194468850E+03  0.13194468850E+03  0.00000000000E+00 0. -1.
          6    1    1    2  501    0 -0.11805969580E+03 -0.53803982586E+02 -0.20397415591E+02  0.21720500657E+03  0.17300000000E+03 0. -1.
         -6    1    1    2    0  502  0.11805969580E+03  0.53803982586E+02  0.87630835479E+03  0.90259530964E+03  0.17300000000E+03 0. -1.
<mgrwt>
<rscale>  2 0.21624514E+03</rscale>
<asrwt>0</asrwt>
<pdfrwt beam="1">  1       21 0.15197778E+00 0.21624514E+03</pdfrwt>
<pdfrwt beam="2">  1       21 0.20299183E-01 0.21624514E+03</pdfrwt>
<totfact> 0.63629717E+03</totfact>
</mgrwt>
</event>
<event>
 4    3  0.4041078E+000  0.1840898E+03  0.7546771E-02  0.1163903E+00
         21   -1    0    0  501  502  0.00000000000E+00  0.00000000000E+00  0.20971501611E+03  0.20971501611E+03  0.00000000000E+00 0.  1.
         21   -1    0    0  502  503 -0.00000000000E+00 -0.00000000000E+00 -0.16397412462E+03  0.16397412462E+03  0.00000000000E+00 0.  1.
          6    1    1    2  501    0 -0.90048983357E+01 -0.62281291792E+02  0.45373235068E+02  0.18959899251E+03  0.17300000000E+03 0.  1.
         -6    1    1    2    0  503  0.90048983357E+01  0.62281291792E+02  0.36765641792E+00  0.18409014822E+03  0.17300000000E+03 0.  1.
<mgrwt>
<rscale>  2 0.18408978E+03</rscale>
<asrwt>0</asrwt>
<pdfrwt beam="1">  1       21 0.32263849E-01 0.18408978E+03</pdfrwt>
<pdfrwt beam="2">  1       21 0.25226788E-01 0.18408978E+03</pdfrwt>
<totfact> 0.13798230E+05</totfact>
</mgrwt>
</event>
<event>
 4    3  0.4041078E+000  0.1966167E+03  0.7546771E-02  0.1152625E+00
         21   -1    0    0  501  502  0.00000000000E+00  0.00000000000E+00  0.62069957716E+03  0.62069957716E+03  0.00000000000E+00 0.  1.
         21   -1    0    0  502  503 -0.00000000000E+00 -0.00000000000E+00 -0.10635290506E+03  0.10635290506E+03  0.00000000000E+00 0.  1.
          6    1    1    2  501    0 -0.16193911045E+02  0.92015605477E+02  0.49118603573E+03  0.52907639912E+03  0.17300000000E+03 0.  1.
         -6    1    1    2    0  503  0.16193911045E+02 -0.92015605477E+02  0.23160636373E+02  0.19797608311E+03  0.17300000000E+03 0.  1.
<mgrwt>
<rscale>  2 0.19661667E+03</rscale>
<asrwt>0</asrwt>
<pdfrwt beam="1">  1       21 0.95492240E-01 0.19661667E+03</pdfrwt>
<pdfrwt beam="2">  1       21 0.16361986E-01 0.19661667E+03</pdfrwt>
<totfact> 0.30561361E+04</totfact>
</mgrwt>
</event>
<event>
 4    3  0.4041078E+000  0.2022402E+03  0.7546771E-02  0.1147863E+00
         21   -1    0    0  503  502  0.00000000000E+00  0.00000000000E+00  0.12505260435E+03  0.12505260435E+03  0.00000000000E+00 0. -1.
         21   -1    0    0  501  503 -0.00000000000E+00 -0.00000000000E+00 -0.47100186505E+03  0.47100186505E+03  0.00000000000E+00 0. -1.
          6    1    1    2  501    0  0.21222329690E+02  0.10257543358E+03 -0.33772306159E+03  0.39364701597E+03  0.17300000000E+03 0. -1.
         -6    1    1    2    0  502 -0.21222329690E+02 -0.10257543358E+03 -0.82261991105E+01  0.20240745343E+03  0.17300000000E+03 0. -1.
<mgrwt>
<rscale>  2 0.20224022E+03</rscale>
<asrwt>0</asrwt>
<pdfrwt beam="1">  1       21 0.19238862E-01 0.20224022E+03</pdfrwt>
<pdfrwt beam="2">  1       21 0.72461825E-01 0.20224022E+03</pdfrwt>
<totfact> 0.42385484E+04</totfact>
</mgrwt>
</event>
<event>
 4    3  0.4041078E+000  0.2020753E+03  0.7546771E-02  0.1148000E+00
         21   -1    0    0  503  502  0.00000000000E+00  0.00000000000E+00  0.90743770085E+03  0.90743770085E+03  0.00000000000E+00 0. -1.
         21   -1    0    0  501  503 -0.00000000000E+00 -0.00000000000E+00 -0.86541138902E+02  0.86541138902E+02  0.00000000000E+00 0. -1.
          6    1    1    2  501    0  0.10351540023E+03  0.13783569402E+02  0.66116899730E+02  0.21261671924E+03  0.17300000000E+03 0. -1.
         -6    1    1    2    0  502 -0.10351540023E+03 -0.13783569402E+02  0.75477966222E+03  0.78136212051E+03  0.17300000000E+03 0. -1.
<mgrwt>
<rscale>  2 0.20207530E+03</rscale>
<asrwt>0</asrwt>
<pdfrwt beam="1">  1       21 0.13960579E+00 0.20207530E+03</pdfrwt>
<pdfrwt beam="2">  1       21 0.13314022E-01 0.20207530E+03</pdfrwt>
<totfact> 0.17438787E+04</totfact>
</mgrwt>
</event>
<event>
 4    3  0.4041078E+000  0.3441486E+03  0.7546771E-02  0.1065043E+00
         21   -1    0    0  501  502  0.00000000000E+00  0.00000000000E+00  0.51408327326E+03  0.51408327326E+03  0.00000000000E+00 0. -1.
         21   -1    0    0  502  503 -0.00000000000E+00 -0.00000000000E+00 -0.28733348531E+03  0.28733348531E+03  0.00000000000E+00 0.  1.
          6    1    1    2  501    0 -0.28293761210E+03  0.91954304957E+02  0.29176362057E+03  0.45118100229E+03  0.17300000000E+03 0. -1.
         -6    1    1    2    0  503  0.28293761210E+03 -0.91954304957E+02 -0.65013832624E+02  0.35023575628E+03  0.17300000000E+03 0.  1.
<mgrwt>
<rscale>  2 0.34414864E+03</rscale>
<asrwt>0</asrwt>
<pdfrwt beam="1">  1       21 0.79089734E-01 0.34414864E+03</pdfrwt>
<pdfrwt beam="2">  1       21 0.44205152E-01 0.34414864E+03</pdfrwt>
<totfact> 0.63688468E+03</totfact>
</mgrwt>
</event>
<event>
 4    3  0.4041078E+000  0.2212600E+03  0.7546771E-02  0.1132947E+00
         21   -1    0    0  501  502  0.00000000000E+00  0.00000000000E+00  0.49998853522E+03  0.49998853522E+03  0.00000000000E+00 0.  1.
         21   -1    0    0  502  503 -0.00000000000E+00 -0.00000000000E+00 -0.10651153926E+03  0.10651153926E+03  0.00000000000E+00 0.  1.
          6    1    1    2  501    0  0.11367353263E+03  0.78136499336E+02  0.11058276025E+03  0.24735507154E+03  0.17300000000E+03 0.  1.
         -6    1    1    2    0  503 -0.11367353263E+03 -0.78136499336E+02  0.28289423570E+03  0.35914500295E+03  0.17300000000E+03 0.  1.
<mgrwt>
<rscale>  2 0.22125999E+03</rscale>
<asrwt>0</asrwt>
<pdfrwt beam="1">  1       21 0.76921312E-01 0.22125999E+03</pdfrwt>
<pdfrwt beam="2">  1       21 0.16386391E-01 0.22125999E+03</pdfrwt>
<totfact> 0.49456236E+04</totfact>
</mgrwt>
</event>
<event>
 4    3  0.4041078E+000  0.2598952E+03  0.7546771E-02  0.1107206E+00
         21   -1    0    0  501  502  0.00000000000E+00  0.00000000000E+00  0.27001902225E+03  0.27001902225E+03  0.00000000000E+00 0. -1.
         21   -1    0    0  502  503 -0.00000000000E+00 -0.00000000000E+00 -0.25057885756E+03  0.25057885756E+03  0.00000000000E+00 0.  1.
          6    1    1    2  501    0 -0.17631027968E+03 -0.80815750676E+02 -0.10372035152E+01  0.25989724137E+03  0.17300000000E+03 0. -1.
         -6    1    1    2    0  503  0.17631027968E+03  0.80815750676E+02  0.20477368210E+02  0.26070063845E+03  0.17300000000E+03 0.  1.
<mgrwt>
<rscale>  2 0.25989517E+03</rscale>
<asrwt>0</asrwt>
<pdfrwt beam="1">  1       21 0.41541388E-01 0.25989517E+03</pdfrwt>
<pdfrwt beam="2">  1       21 0.38550594E-01 0.25989517E+03</pdfrwt>
<totfact> 0.35069466E+04</totfact>
</mgrwt>
</event>
<event>
 4    3  0.4041078E+000  0.2292609E+03  0.7546771E-02  0.1127161E+00
         21   -1    0    0  501  502  0.00000000000E+00  0.00000000000E+00  0.30155241248E+03  0.30155241248E+03  0.00000000000E+00 0. -1.
         21   -1    0    0  502  503 -0.00000000000E+00 -0.00000000000E+00 -0.23038726420E+03  0.23038726420E+03  0.00000000000E+00 0.  1.
          6    1    1    2  501    0 -0.14792024044E+03  0.27407496342E+02  0.16681329169E+03  0.28352644087E+03  0.17300000000E+03 0. -1.
         -6    1    1    2    0  503  0.14792024044E+03 -0.27407496342E+02 -0.95648143412E+02  0.24841323581E+03  0.17300000000E+03 0.  1.
<mgrwt>
<rscale>  2 0.22926092E+03</rscale>
<asrwt>0</asrwt>
<pdfrwt beam="1">  1       21 0.46392679E-01 0.22926092E+03</pdfrwt>
<pdfrwt beam="2">  1       21 0.35444195E-01 0.22926092E+03</pdfrwt>
<totfact> 0.33523890E+04</totfact>
</mgrwt>
</event>
<event>
 4    3  0.4041078E+000  0.1973203E+03  0.7546771E-02  0.1152020E+00
         21   -1    0    0  501  502  0.00000000000E+00  0.00000000000E+00  0.43640354830E+02  0.43640354830E+02  0.00000000000E+00 0. -1.
         21   -1    0    0  502  503 -0.00000000000E+00 -0.00000000000E+00 -0.11120980475E+04  0.11120980475E+04  0.00000000000E+00 0. -1.
          6    1    1    2  501    0 -0.62366404110E+02 -0.71531412973E+02 -0.27725876006E+03  0.34030535029E+03  0.17300000000E+03 0. -1.
         -6    1    1    2    0  503  0.62366404110E+02  0.71531412973E+02 -0.79119893263E+03  0.81543305206E+03  0.17300000000E+03 0. -1.
<mgrwt>
<rscale>  2 0.19732033E+03</rscale>
<asrwt>0</asrwt>
<pdfrwt beam="1">  1       21 0.67139009E-02 0.19732033E+03</pdfrwt>
<pdfrwt beam="2">  1       21 0.17109200E+00 0.19732033E+03</pdfrwt>
<totfact> 0.33977337E+04</totfact>
</mgrwt>
</event>
<event>
 4    3  0.4041078E+000  0.2780885E+03  0.7546771E-02  0.1096738E+00
         21   -1    0    0  501  502  0.00000000000E+00  0.00000000000E+00  0.15147926004E+04  0.15147926004E+04  0.00000000000E+00 0.  1.
         21   -1    0    0  502  503 -0.00000000000E+00 -0.00000000000E+00 -0.75063142724E+02  0.75063142724E+02  0.00000000000E+00 0. -1.
          6    1    1    2  501    0  0.21143251475E+03 -0.51966378488E+02  0.11694588691E+04  0.12020679096E+04  0.17300000000E+03 0.  1.
         -6    1    1    2    0  503 -0.21143251475E+03  0.51966378488E+02  0.27027058863E+03  0.38778783357E+03  0.17300000000E+03 0. -1.
<mgrwt>
<rscale>  2 0.27808850E+03</rscale>
<asrwt>0</asrwt>
<pdfrwt beam="1">  1       21 0.23304499E+00 0.27808850E+03</pdfrwt>
<pdfrwt beam="2">  1       21 0.11548177E-01 0.27808850E+03</pdfrwt>
<totfact> 0.49041609E+03</totfact>
</mgrwt>
</event>
<event>
 4    3  0.4041078E+000  0.2959903E+03  0.7546771E-02  0.1087262E+00
         21   -1    0    0  503  502  0.00000000000E+00  0.00000000000E+00  0.14793042829E+03  0.14793042829E+03  0.00000000000E+00 0.  1.
         21   -1    0    0  501  503 -0.00000000000E+00 -0.00000000000E+00 -0.60482456563E+03  0.60482456563E+03  0.00000000000E+00 0.  1.
          6    1    1    2  501    0  0.12775199396E+03 -0.20337323243E+03 -0.17415497441E+03  0.34342422562E+03  0.17300000000E+03 0.  1.
         -6    1    1    2    0  502 -0.12775199396E+03  0.20337323243E+03 -0.28273916293E+03  0.40933076831E+03  0.17300000000E+03 0.  1.
<mgrwt>
<rscale>  2 0.29599028E+03</rscale>
<asrwt>0</asrwt>
<pdfrwt beam="1">  1       21 0.22758528E-01 0.29599028E+03</pdfrwt>
<pdfrwt beam="2">  1       21 0.93049933E-01 0.29599028E+03</pdfrwt>
<totfact> 0.16671791E+04</totfact>
</mgrwt>
</event>
<event>
 4    3  0.4041078E+000  0.2213475E+03  0.7546771E-02  0.1132882E+00
         21   -1    0    0  501  502  0.00000000000E+00  0.00000000000E+00  0.38473856835E+03  0.38473856835E+03  0.00000000000E+00 0. -1.
         21   -1    0    0  502  503 -0.00000000000E+00 -0.00000000000E+00 -0.14692370441E+03  0.14692370441E+03  0.00000000000E+00 0.  1.
          6    1    1    2  501    0 -0.17932349311E+02 -0.13690934131E+03  0.21594636433E+03  0.30923707597E+03  0.17300000000E+03 0. -1.
         -6    1    1    2    0  503  0.17932349311E+02  0.13690934131E+03  0.21868499614E+02  0.22242519678E+03  0.17300000000E+03 0. -1.
<mgrwt>
<rscale>  2 0.22134755E+03</rscale>
<asrwt>0</asrwt>
<pdfrwt beam="1">  1       21 0.59190548E-01 0.22134755E+03</pdfrwt>
<pdfrwt beam="2">  1       21 0.22603647E-01 0.22134755E+03</pdfrwt>
<totfact> 0.48263420E+04</totfact>
</mgrwt>
</event>
<event>
 4    3  0.4041078E+000  0.1760678E+03  0.7546771E-02  0.1171664E+00
         21   -1    0    0  503  502  0.00000000000E+00  0.00000000000E+00  0.73797274701E+02  0.73797274701E+02  0.00000000000E+00 0.  1.
         21   -1    0    0  501  503 -0.00000000000E+00 -0.00000000000E+00 -0.89326359587E+03  0.89326359587E+03  0.00000000000E+00 0.  1.
          6    1    1    2  501    0 -0.67625480723E+00 -0.32717238519E+02 -0.76166157756E+03  0.78174691157E+03  0.17300000000E+03 0.  1.
         -6    1    1    2    0  502  0.67625480723E+00  0.32717238519E+02 -0.57804743607E+02  0.18531395900E+03  0.17300000000E+03 0.  1.
<mgrwt>
<rscale>  2 0.17606781E+03</rscale>
<asrwt>0</asrwt>
<pdfrwt beam="1">  1       21 0.11353426E-01 0.17606781E+03</pdfrwt>
<pdfrwt beam="2">  1       21 0.13742517E+00 0.17606781E+03</pdfrwt>
<totfact> 0.24575995E+04</totfact>
</mgrwt>
</event>
<event>
 4    3  0.4041078E+000  0.2130992E+03  0.7546771E-02  0.1139135E+00
         21   -1    0    0  501  502  0.00000000000E+00  0.00000000000E+00  0.53121462773E+03  0.53121462773E+03  0.00000000000E+00 0. -1.
         21   -1    0    0  502  503 -0.00000000000E+00 -0.00000000000E+00 -0.86671669943E+02  0.86671669943E+02  0.00000000000E+00 0.  1.
          6    1    1    2  501    0  0.83018979701E+02 -0.92682847973E+02  0.18613262162E+03  0.28294277536E+03  0.17300000000E+03 0. -1.
         -6    1    1    2    0  503 -0.83018979701E+02  0.92682847973E+02  0.25841033617E+03  0.33494352231E+03  0.17300000000E+03 0.  1.
<mgrwt>
<rscale>  2 0.21309918E+03</rscale>
<asrwt>0</asrwt>
<pdfrwt beam="1">  1       21 0.81725325E-01 0.21309918E+03</pdfrwt>
<pdfrwt beam="2">  1       21 0.13334103E-01 0.21309918E+03</pdfrwt>
<totfact> 0.63030692E+04</totfact>
</mgrwt>
</event>
<event>
 4    3  0.4041078E+000  0.2153173E+03  0.7546771E-02  0.1137423E+00
         21   -1    0    0  501  502  0.00000000000E+00  0.00000000000E+00  0.91215609438E+02  0.91215609438E+02  0.00000000000E+00 0. -1.
         21   -1    0    0  502  503 -0.00000000000E+00 -0.00000000000E+00 -0.84945642211E+03  0.84945642211E+03  0.00000000000E+00 0. -1.
          6    1    1    2  501    0  0.10456129914E+03 -0.74158428617E+02 -0.81036945676E+02  0.23006200116E+03  0.17300000000E+03 0. -1.
         -6    1    1    2    0  503 -0.10456129914E+03  0.74158428617E+02 -0.67720386699E+03  0.71061003038E+03  0.17300000000E+03 0. -1.
<mgrwt>
<rscale>  2 0.21531730E+03</rscale>
<asrwt>0</asrwt>
<pdfrwt beam="1">  1       21 0.14033171E-01 0.21531730E+03</pdfrwt>
<pdfrwt beam="2">  1       21 0.13068560E+00 0.21531730E+03</pdfrwt>
<totfact> 0.18611566E+04</totfact>
</mgrwt>
</event>
<event>
 4    3  0.4041078E+000  0.5230896E+03  0.7546771E-02  0.1007922E+00
         21   -1    0    0  503  502  0.00000000000E+00  0.00000000000E+00  0.84854333537E+03  0.84854333537E+03  0.00000000000E+00 0.  1.
         21   -1    0    0  501  503 -0.00000000000E+00 -0.00000000000E+00 -0.10777204952E+04  0.10777204952E+04  0.00000000000E+00 0. -1.
          6    1    1    2  501    0 -0.46226280463E+03 -0.17322478741E+03 -0.92085876181E+03  0.10590578769E+04  0.17300000000E+03 0. -1.
         -6    1    1    2    0  502  0.46226280463E+03  0.17322478741E+03  0.69168160198E+03  0.86720595364E+03  0.17300000000E+03 0.  1.
<mgrwt>
<rscale>  2 0.52308960E+03</rscale>
<asrwt>0</asrwt>
<pdfrwt beam="1">  1       21 0.13054513E+00 0.52308960E+03</pdfrwt>
<pdfrwt beam="2">  1       21 0.16580315E+00 0.52308960E+03</pdfrwt>
<totfact> 0.74774032E+01</totfact>
</mgrwt>
</event>
<event>
 4    3  0.4041078E+000  0.2323181E+03  0.7546771E-02  0.1125019E+00
         21   -1    0    0  501  502  0.00000000000E+00  0.00000000000E+00  0.10941886568E+03  0.10941886568E+03  0.00000000000E+00 0. -1.
         21   -1    0    0  502  503 -0.00000000000E+00 -0.00000000000E+00 -0.90099333370E+03  0.90099333370E+03  0.00000000000E+00 0. -1.
          6    1    1    2  501    0 -0.15208996117E+03 -0.30188100316E+02 -0.55929443606E+02  0.23895560330E+03  0.17300000000E+03 0. -1.
         -6    1    1    2    0  503  0.15208996117E+03  0.30188100316E+02 -0.73564502441E+03  0.77145659608E+03  0.17300000000E+03 0. -1.
<mgrwt>
<rscale>  2 0.23231805E+03</rscale>
<asrwt>0</asrwt>
<pdfrwt beam="1">  1       21 0.16833672E-01 0.23231805E+03</pdfrwt>
<pdfrwt beam="2">  1       21 0.13861436E+00 0.23231805E+03</pdfrwt>
<totfact> 0.11349776E+04</totfact>
</mgrwt>
</event>
<event>
 4    3  0.4041078E+000  0.2205928E+03  0.7546771E-02  0.1133442E+00
         21   -1    0    0  503  502  0.00000000000E+00  0.00000000000E+00  0.47303209694E+03  0.47303209694E+03  0.00000000000E+00 0. -1.
         21   -1    0    0  501  503 -0.00000000000E+00 -0.00000000000E+00 -0.38964212087E+03  0.38964212087E+03  0.00000000000E+00 0. -1.
          6    1    1    2  501    0  0.68030124658E+02  0.11876055446E+03 -0.32834765059E+03  0.39556712048E+03  0.17300000000E+03 0. -1.
         -6    1    1    2    0  502 -0.68030124658E+02 -0.11876055446E+03  0.41173762667E+03  0.46710709732E+03  0.17300000000E+03 0. -1.
<mgrwt>
<rscale>  2 0.22059276E+03</rscale>
<asrwt>0</asrwt>
<pdfrwt beam="1">  1       21 0.72774168E-01 0.22059276E+03</pdfrwt>
<pdfrwt beam="2">  1       21 0.59944942E-01 0.22059276E+03</pdfrwt>
<totfact> 0.43204168E+03</totfact>
</mgrwt>
</event>
<event>
 4    3  0.4041078E+000  0.2864950E+03  0.7546771E-02  0.1092193E+00
         21   -1    0    0  501  502  0.00000000000E+00  0.00000000000E+00  0.11517010933E+04  0.11517010933E+04  0.00000000000E+00 0. -1.
         21   -1    0    0  502  503 -0.00000000000E+00 -0.00000000000E+00 -0.26073626140E+03  0.26073626140E+03  0.00000000000E+00 0.  1.
          6    1    1    2  501    0  0.17243872416E+03 -0.14971730883E+03  0.10474966560E+04  0.10859689823E+04  0.17300000000E+03 0. -1.
         -6    1    1    2    0  503 -0.17243872416E+03  0.14971730883E+03 -0.15653182418E+03  0.32646837233E+03  0.17300000000E+03 0.  1.
<mgrwt>
<rscale>  2 0.28649500E+03</rscale>
<asrwt>0</asrwt>
<pdfrwt beam="1">  1       21 0.17718478E+00 0.28649500E+03</pdfrwt>
<pdfrwt beam="2">  1       21 0.40113272E-01 0.28649500E+03</pdfrwt>
<totfact> 0.10479118E+03</totfact>
</mgrwt>
</event>
<event>
 4    3  0.4041078E+000  0.2236230E+03  0.7546771E-02  0.1131210E+00
         21   -1    0    0  501  502  0.00000000000E+00  0.00000000000E+00  0.15178864831E+03  0.15178864831E+03  0.00000000000E+00 0. -1.
         21   -1    0    0  502  503 -0.00000000000E+00 -0.00000000000E+00 -0.34094708864E+03  0.34094708864E+03  0.00000000000E+00 0. -1.
          6    1    1    2  501    0 -0.14164531087E+03 -0.38517975905E+01 -0.49343945066E+02  0.22900230425E+03  0.17300000000E+03 0. -1.
         -6    1    1    2    0  503  0.14164531087E+03  0.38517975905E+01 -0.13981449527E+03  0.26373343270E+03  0.17300000000E+03 0. -1.
<mgrwt>
<rscale>  2 0.22362296E+03</rscale>
<asrwt>0</asrwt>
<pdfrwt beam="1">  1       21 0.23352100E-01 0.22362296E+03</pdfrwt>
<pdfrwt beam="2">  1       21 0.52453398E-01 0.22362296E+03</pdfrwt>
<totfact> 0.58614364E+04</totfact>
</mgrwt>
</event>
<event>
 4    3  0.4041078E+000  0.2274978E+03  0.7546771E-02  0.1128413E+00
         21   -1    0    0  501  502  0.00000000000E+00  0.00000000000E+00  0.10338408030E+03  0.10338408030E+03  0.00000000000E+00 0.  1.
         21   -1    0    0  502  503 -0.00000000000E+00 -0.00000000000E+00 -0.14097297035E+04  0.14097297035E+04  0.00000000000E+00 0.  1.
          6    1    1    2  501    0 -0.54927478610E+02 -0.13714670902E+03 -0.45620229760E+02  0.23202683695E+03  0.17300000000E+03 0.  1.
         -6    1    1    2    0  503  0.54927478610E+02  0.13714670902E+03 -0.12607253935E+04  0.12810869469E+04  0.17300000000E+03 0.  1.
<mgrwt>
<rscale>  2 0.22749780E+03</rscale>
<asrwt>0</asrwt>
<pdfrwt beam="1">  1       21 0.15905242E-01 0.22749780E+03</pdfrwt>
<pdfrwt beam="2">  1       21 0.21688150E+00 0.22749780E+03</pdfrwt>
<totfact> 0.35865236E+03</totfact>
</mgrwt>
</event>
<event>
 4    3  0.4041078E+000  0.2393966E+03  0.7546771E-02  0.1120195E+00
         21   -1    0    0  503  502  0.00000000000E+00  0.00000000000E+00  0.54276333140E+03  0.54276333140E+03  0.00000000000E+00 0. -1.
         21   -1    0    0  501  503 -0.00000000000E+00 -0.00000000000E+00 -0.11977481218E+03  0.11977481218E+03  0.00000000000E+00 0. -1.
          6    1    1    2  501    0  0.74727351307E+02  0.14763990641E+03  0.32549308577E+03  0.40405008091E+03  0.17300000000E+03 0. -1.
         -6    1    1    2    0  502 -0.74727351307E+02 -0.14763990641E+03  0.97495433453E+02  0.25848806267E+03  0.17300000000E+03 0. -1.
<mgrwt>
<rscale>  2 0.23939657E+03</rscale>
<asrwt>0</asrwt>
<pdfrwt beam="1">  1       21 0.83502050E-01 0.23939657E+03</pdfrwt>
<pdfrwt beam="2">  1       21 0.18426894E-01 0.23939657E+03</pdfrwt>
<totfact> 0.32752876E+04</totfact>
</mgrwt>
</event>
<event>
 4    3  0.4041078E+000  0.2808974E+03  0.7546771E-02  0.1095200E+00
         21   -1    0    0  503  502  0.00000000000E+00  0.00000000000E+00  0.26979154011E+03  0.26979154011E+03  0.00000000000E+00 0.  1.
         21   -1    0    0  501  503 -0.00000000000E+00 -0.00000000000E+00 -0.35078956282E+03  0.35078956282E+03  0.00000000000E+00 0. -1.
          6    1    1    2  501    0  0.12821744198E+03 -0.18037368034E+03 -0.16702729150E+03  0.32680497716E+03  0.17300000000E+03 0. -1.
         -6    1    1    2    0  502 -0.12821744198E+03  0.18037368034E+03  0.86029268793E+02  0.29377612578E+03  0.17300000000E+03 0.  1.
<mgrwt>
<rscale>  2 0.28089745E+03</rscale>
<asrwt>0</asrwt>
<pdfrwt beam="1">  1       21 0.41506391E-01 0.28089745E+03</pdfrwt>
<pdfrwt beam="2">  1       21 0.53967625E-01 0.28089745E+03</pdfrwt>
<totfact> 0.17320844E+04</totfact>
</mgrwt>
</event>
<event>
 4    3  0.4041078E+000  0.2084286E+03  0.7546771E-02  0.1142816E+00
         21   -1    0    0  503  502  0.00000000000E+00  0.00000000000E+00  0.19075093563E+02  0.19075093563E+02  0.00000000000E+00 0. -1.
         21   -1    0    0  501  503 -0.00000000000E+00 -0.00000000000E+00 -0.22822969261E+04  0.22822969261E+04  0.00000000000E+00 0.  1.
          6    1    1    2  501    0 -0.67006356858E+02  0.94992730804E+02 -0.11846677354E+04  0.12028632981E+04  0.17300000000E+03 0.  1.
         -6    1    1    2    0  502  0.67006356858E+02 -0.94992730804E+02 -0.10785540971E+04  0.10985087215E+04  0.17300000000E+03 0.  1.
<mgrwt>
<rscale>  2 0.20842857E+03</rscale>
<asrwt>0</asrwt>
<pdfrwt beam="1">  1       21 0.29346338E-02 0.20842857E+03</pdfrwt>
<pdfrwt beam="2">  1       21 0.35112212E+00 0.20842857E+03</pdfrwt>
<totfact> 0.11100225E+04</totfact>
</mgrwt>
</event>
<event>
 4    3  0.4041078E+000  0.1782910E+03  0.7546771E-02  0.1169467E+00
         21   -1    0    0  501  502  0.00000000000E+00  0.00000000000E+00  0.11658565770E+03  0.11658565770E+03  0.00000000000E+00 0. -1.
         21   -1    0    0  502  503 -0.00000000000E+00 -0.00000000000E+00 -0.29374939339E+04  0.29374939339E+04  0.00000000000E+00 0. -1.
          6    1    1    2  501    0 -0.41955537691E+02  0.99200174686E+01  0.43990987489E+02  0.18363790695E+03  0.17300000000E+03 0. -1.
         -6    1    1    2    0  503  0.41955537691E+02 -0.99200174686E+01 -0.28648992636E+04  0.28704416846E+04  0.17300000000E+03 0. -1.
<mgrwt>
<rscale>  2 0.17829098E+03</rscale>
<asrwt>0</asrwt>
<pdfrwt beam="1">  1       21 0.17936255E-01 0.17829098E+03</pdfrwt>
<pdfrwt beam="2">  1       21 0.45192215E+00 0.17829098E+03</pdfrwt>
<totfact> 0.11743979E+02</totfact>
</mgrwt>
</event>
<event>
 4    3  0.4041078E+000  0.2167437E+03  0.7546771E-02  0.1136334E+00
         21   -1    0    0  503  502  0.00000000000E+00  0.00000000000E+00  0.43907184377E+03  0.43907184377E+03  0.00000000000E+00 0.  1.
         21   -1    0    0  501  503 -0.00000000000E+00 -0.00000000000E+00 -0.10923643682E+03  0.10923643682E+03  0.00000000000E+00 0. -1.
          6    1    1    2  501    0 -0.46183297985E+02 -0.12213083805E+03  0.12563345967E+03  0.25052266325E+03  0.17300000000E+03 0. -1.
         -6    1    1    2    0  502  0.46183297985E+02  0.12213083805E+03  0.20420194728E+03  0.29778561733E+03  0.17300000000E+03 0. -1.
<mgrwt>
<rscale>  2 0.21674372E+03</rscale>
<asrwt>0</asrwt>
<pdfrwt beam="1">  1       21 0.67549513E-01 0.21674372E+03</pdfrwt>
<pdfrwt beam="2">  1       21 0.16805606E-01 0.21674372E+03</pdfrwt>
<totfact> 0.63153253E+04</totfact>
</mgrwt>
</event>
<event>
 4    3  0.4041078E+000  0.2192683E+03  0.7546771E-02  0.1134430E+00
         21   -1    0    0  501  502  0.00000000000E+00  0.00000000000E+00  0.85793045213E+03  0.85793045213E+03  0.00000000000E+00 0.  1.
         21   -1    0    0  502  503 -0.00000000000E+00 -0.00000000000E+00 -0.14548584338E+03  0.14548584338E+03  0.00000000000E+00 0.  1.
          6    1    1    2  501    0 -0.11482545046E+03 -0.70460750325E+02  0.74960962828E+03  0.78102061190E+03  0.17300000000E+03 0.  1.
         -6    1    1    2    0  503  0.11482545046E+03  0.70460750325E+02 -0.37165019525E+02  0.22239568360E+03  0.17300000000E+03 0.  1.
<mgrwt>
<rscale>  2 0.21926833E+03</rscale>
<asrwt>0</asrwt>
<pdfrwt beam="1">  1       21 0.13198930E+00 0.21926833E+03</pdfrwt>
<pdfrwt beam="2">  1       21 0.22382438E-01 0.21926833E+03</pdfrwt>
<totfact> 0.76207780E+03</totfact>
</mgrwt>
</event>
<event>
 4    3  0.4041078E+000  0.1818884E+03  0.7546771E-02  0.1165988E+00
         21   -1    0    0  501  502  0.00000000000E+00  0.00000000000E+00  0.28883988755E+03  0.28883988755E+03  0.00000000000E+00 0. -1.
         21   -1    0    0  502  503 -0.00000000000E+00 -0.00000000000E+00 -0.31641796358E+03  0.31641796358E+03  0.00000000000E+00 0. -1.
          6    1    1    2  501    0 -0.40307240851E+02  0.39111483028E+02  0.22793820023E+03  0.29161482283E+03  0.17300000000E+03 0. -1.
         -6    1    1    2    0  503  0.40307240851E+02 -0.39111483028E+02 -0.25551627626E+03  0.31364302830E+03  0.17300000000E+03 0. -1.
<mgrwt>
<rscale>  2 0.18188838E+03</rscale>
<asrwt>0</asrwt>
<pdfrwt beam="1">  1       21 0.44436906E-01 0.18188838E+03</pdfrwt>
<pdfrwt beam="2">  1       21 0.48679687E-01 0.18188838E+03</pdfrwt>
<totfact> 0.19716099E+04</totfact>
</mgrwt>
</event>
<event>
 4    3  0.4041078E+000  0.2545959E+03  0.7546771E-02  0.1110434E+00
         21   -1    0    0  503  502  0.00000000000E+00  0.00000000000E+00  0.19531585829E+04  0.19531585829E+04  0.00000000000E+00 0. -1.
         21   -1    0    0  501  503 -0.00000000000E+00 -0.00000000000E+00 -0.33187239543E+02  0.33187239543E+02  0.00000000000E+00 0.  1.
          6    1    1    2  501    0  0.12643049209E+03 -0.13749690847E+03  0.95634169900E+03  0.98965070323E+03  0.17300000000E+03 0.  1.
         -6    1    1    2    0  502 -0.12643049209E+03  0.13749690847E+03  0.96362964441E+03  0.99669511926E+03  0.17300000000E+03 0. -1.
<mgrwt>
<rscale>  2 0.25459589E+03</rscale>
<asrwt>0</asrwt>
<pdfrwt beam="1">  1       21 0.30048585E+00 0.25459589E+03</pdfrwt>
<pdfrwt beam="2">  1       21 0.51057307E-02 0.25459589E+03</pdfrwt>
<totfact> 0.82955826E+03</totfact>
</mgrwt>
</event>
<event>
 4    3  0.4041078E+000  0.1788405E+03  0.7546771E-02  0.1168930E+00
         21   -1    0    0  501  502  0.00000000000E+00  0.00000000000E+00  0.32517368189E+03  0.32517368189E+03  0.00000000000E+00 0. -1.
         21   -1    0    0  502  503 -0.00000000000E+00 -0.00000000000E+00 -0.18875995288E+03  0.18875995288E+03  0.00000000000E+00 0. -1.
          6    1    1    2  501    0 -0.11258034655E+02  0.43910876723E+02  0.24603788048E+03  0.30416861618E+03  0.17300000000E+03 0. -1.
         -6    1    1    2    0  503  0.11258034655E+02 -0.43910876723E+02 -0.10962415147E+03  0.20976501859E+03  0.17300000000E+03 0. -1.
<mgrwt>
<rscale>  2 0.17884046E+03</rscale>
<asrwt>0</asrwt>
<pdfrwt beam="1">  1       21 0.50026720E-01 0.17884046E+03</pdfrwt>
<pdfrwt beam="2">  1       21 0.29039993E-01 0.17884046E+03</pdfrwt>
<totfact> 0.43502719E+04</totfact>
</mgrwt>
</event>
<event>
 4    3  0.4041078E+000  0.1988843E+03  0.7546771E-02  0.1150684E+00
         21   -1    0    0  501  502  0.00000000000E+00  0.00000000000E+00  0.91081056914E+02  0.91081056914E+02  0.00000000000E+00 0. -1.
         21   -1    0    0  502  503 -0.00000000000E+00 -0.00000000000E+00 -0.55749893911E+03  0.55749893911E+03  0.00000000000E+00 0. -1.
          6    1    1    2  501    0 -0.94903786195E+02 -0.24884583264E+02 -0.80752892895E+02  0.21465321062E+03  0.17300000000E+03 0. -1.
         -6    1    1    2    0  503  0.94903786195E+02  0.24884583264E+02 -0.38566498930E+03  0.43392678540E+03  0.17300000000E+03 0. -1.
<mgrwt>
<rscale>  2 0.19888432E+03</rscale>
<asrwt>0</asrwt>
<pdfrwt beam="1">  1       21 0.14012470E-01 0.19888432E+03</pdfrwt>
<pdfrwt beam="2">  1       21 0.85769068E-01 0.19888432E+03</pdfrwt>
<totfact> 0.51946067E+04</totfact>
</mgrwt>
</event>
<event>
 4    3  0.4041078E+000  0.1950178E+03  0.7546771E-02  0.1154012E+00
         21   -1    0    0  501  502  0.00000000000E+00  0.00000000000E+00  0.59559501647E+02  0.59559501647E+02  0.00000000000E+00 0. -1.
         21   -1    0    0  502  503 -0.00000000000E+00 -0.00000000000E+00 -0.13555489759E+04  0.13555489759E+04  0.00000000000E+00 0.  1.
          6    1    1    2  501    0  0.69180701280E+02  0.57593290747E+02 -0.13340609772E+03  0.23628191526E+03  0.17300000000E+03 0. -1.
         -6    1    1    2    0  503 -0.69180701280E+02 -0.57593290747E+02 -0.11625833765E+04  0.11788265623E+04  0.17300000000E+03 0.  1.
<mgrwt>
<rscale>  2 0.19501784E+03</rscale>
<asrwt>0</asrwt>
<pdfrwt beam="1">  1       21 0.91630009E-02 0.19501784E+03</pdfrwt>
<pdfrwt beam="2">  1       21 0.20854598E+00 0.19501784E+03</pdfrwt>
<totfact> 0.11194239E+04</totfact>
</mgrwt>
</event>
<event>
 4    3  0.4041078E+000  0.2209635E+03  0.7546771E-02  0.1133167E+00
         21   -1    0    0  503  502  0.00000000000E+00  0.00000000000E+00  0.17840939402E+03  0.17840939402E+03  0.00000000000E+00 0.  1.
         21   -1    0    0  501  503 -0.00000000000E+00 -0.00000000000E+00 -0.28220996243E+03  0.28220996243E+03  0.00000000000E+00 0.  1.
          6    1    1    2  501    0  0.13065674482E+03 -0.42716433384E+02 -0.91969780146E+02  0.23933933882E+03  0.17300000000E+03 0.  1.
         -6    1    1    2    0  502 -0.13065674482E+03  0.42716433384E+02 -0.11830788257E+02  0.22128001762E+03  0.17300000000E+03 0.  1.
<mgrwt>
<rscale>  2 0.22096352E+03</rscale>
<asrwt>0</asrwt>
<pdfrwt beam="1">  1       21 0.27447599E-01 0.22096352E+03</pdfrwt>
<pdfrwt beam="2">  1       21 0.43416917E-01 0.22096352E+03</pdfrwt>
<totfact> 0.63759589E+04</totfact>
</mgrwt>
</event>
<event>
 4    3  0.4041078E+000  0.1760972E+03  0.7546771E-02  0.1171635E+00
         21   -1    0    0  503  502  0.00000000000E+00  0.00000000000E+00  0.23070988723E+03  0.23070988723E+03  0.00000000000E+00 0.  1.
         21   -1    0    0  501  503 -0.00000000000E+00 -0.00000000000E+00 -0.39268378232E+03  0.39268378232E+03  0.00000000000E+00 0.  1.
          6    1    1    2  501    0  0.27943917931E+02  0.17330468729E+02 -0.33377077112E+03  0.37737664919E+03  0.17300000000E+03 0.  1.
         -6    1    1    2    0  502 -0.27943917931E+02 -0.17330468729E+02  0.17179687602E+03  0.24601702036E+03  0.17300000000E+03 0.  1.
<mgrwt>
<rscale>  2 0.17609715E+03</rscale>
<asrwt>0</asrwt>
<pdfrwt beam="1">  1       21 0.35493829E-01 0.17609715E+03</pdfrwt>
<pdfrwt beam="2">  1       21 0.60412889E-01 0.17609715E+03</pdfrwt>
<totfact> 0.19738068E+04</totfact>
</mgrwt>
</event>
<event>
 4    3  0.4041078E+000  0.2146633E+03  0.7546771E-02  0.1137926E+00
         21   -1    0    0  503  502  0.00000000000E+00  0.00000000000E+00  0.90061914536E+02  0.90061914536E+02  0.00000000000E+00 0.  1.
         21   -1    0    0  501  503 -0.00000000000E+00 -0.00000000000E+00 -0.58522008179E+03  0.58522008179E+03  0.00000000000E+00 0.  1.
          6    1    1    2  501    0  0.84647955633E+02 -0.94794704635E+02 -0.36729221697E+03  0.42542200821E+03  0.17300000000E+03 0.  1.
         -6    1    1    2    0  502 -0.84647955633E+02  0.94794704635E+02 -0.12786595028E+03  0.24985998811E+03  0.17300000000E+03 0.  1.
<mgrwt>
<rscale>  2 0.21466325E+03</rscale>
<asrwt>0</asrwt>
<pdfrwt beam="1">  1       21 0.13855680E-01 0.21466325E+03</pdfrwt>
<pdfrwt beam="2">  1       21 0.90033856E-01 0.21466325E+03</pdfrwt>
<totfact> 0.47032216E+04</totfact>
</mgrwt>
</event>
<event>
 4    3  0.4041078E+000  0.2272399E+03  0.7546771E-02  0.1128598E+00
         21   -1    0    0  503  502  0.00000000000E+00  0.00000000000E+00  0.94091431285E+03  0.94091431285E+03  0.00000000000E+00 0. -1.
         21   -1    0    0  501  503 -0.00000000000E+00 -0.00000000000E+00 -0.85910803780E+02  0.85910803780E+02  0.00000000000E+00 0. -1.
          6    1    1    2  501    0 -0.11462277305E+02 -0.14689316689E+03  0.11894533871E+03  0.25648777725E+03  0.17300000000E+03 0. -1.
         -6    1    1    2    0  502  0.11462277305E+02  0.14689316689E+03  0.73605817036E+03  0.77033733937E+03  0.17300000000E+03 0. -1.
<mgrwt>
<rscale>  2 0.22723993E+03</rscale>
<asrwt>0</asrwt>
<pdfrwt beam="1">  1       21 0.14475604E+00 0.22723993E+03</pdfrwt>
<pdfrwt beam="2">  1       21 0.13217047E-01 0.22723993E+03</pdfrwt>
<totfact> 0.15820826E+04</totfact>
</mgrwt>
</event>
<event>
 4    3  0.4041078E+000  0.1786287E+03  0.7546771E-02  0.1169137E+00
         21   -1    0    0  503  502  0.00000000000E+00  0.00000000000E+00  0.10591201303E+03  0.10591201303E+03  0.00000000000E+00 0. -1.
         21   -1    0    0  501  503 -0.00000000000E+00 -0.00000000000E+00 -0.72213123975E+03  0.72213123975E+03  0.00000000000E+00 0. -1.
          6    1    1    2  501    0 -0.34771795285E+02 -0.27751084903E+02 -0.62418013661E+03  0.64923727820E+03  0.17300000000E+03 0. -1.
         -6    1    1    2    0  502  0.34771795285E+02  0.27751084903E+02  0.79609098964E+01  0.17880597458E+03  0.17300000000E+03 0. -1.
<mgrwt>
<rscale>  2 0.17862867E+03</rscale>
<asrwt>0</asrwt>
<pdfrwt beam="1">  1       21 0.16294156E-01 0.17862867E+03</pdfrwt>
<pdfrwt beam="2">  1       21 0.11109711E+00 0.17862867E+03</pdfrwt>
<totfact> 0.21689905E+04</totfact>
</mgrwt>
</event>
<event>
 4    3  0.4041078E+000  0.1781690E+03  0.7546771E-02  0.1169587E+00
         21   -1    0    0  503  502  0.00000000000E+00  0.00000000000E+00  0.41080059261E+02  0.41080059261E+02  0.00000000000E+00 0. -1.
         21   -1    0    0  501  503 -0.00000000000E+00 -0.00000000000E+00 -0.83169887255E+03  0.83169887255E+03  0.00000000000E+00 0. -1.
          6    1    1    2  501    0 -0.55630678871E+01  0.42240343802E+02 -0.27911994492E+03  0.33113764211E+03  0.17300000000E+03 0. -1.
         -6    1    1    2    0  502  0.55630678871E+01 -0.42240343802E+02 -0.51149886837E+03  0.54164128970E+03  0.17300000000E+03 0. -1.
<mgrwt>
<rscale>  2 0.17816901E+03</rscale>
<asrwt>0</asrwt>
<pdfrwt beam="1">  1       21 0.63200091E-02 0.17816901E+03</pdfrwt>
<pdfrwt beam="2">  1       21 0.12795367E+00 0.17816901E+03</pdfrwt>
<totfact> 0.81700148E+04</totfact>
</mgrwt>
</event>
<event>
 4    3  0.4041078E+000  0.2813112E+03  0.7546771E-02  0.1094975E+00
         21   -1    0    0  503  502  0.00000000000E+00  0.00000000000E+00  0.62831106271E+03  0.62831106271E+03  0.00000000000E+00 0.  1.
         21   -1    0    0  501  503 -0.00000000000E+00 -0.00000000000E+00 -0.32073133543E+03  0.32073133543E+03  0.00000000000E+00 0. -1.
          6    1    1    2  501    0 -0.65898177266E+02 -0.21181226539E+03 -0.21600271350E+03  0.35467333953E+03  0.17300000000E+03 0. -1.
         -6    1    1    2    0  502  0.65898177266E+02  0.21181226539E+03  0.52358244078E+03  0.59436905861E+03  0.17300000000E+03 0.  1.
<mgrwt>
<rscale>  2 0.28131123E+03</rscale>
<asrwt>0</asrwt>
<pdfrwt beam="1">  1       21 0.96663240E-01 0.28131123E+03</pdfrwt>
<pdfrwt beam="2">  1       21 0.49343282E-01 0.28131123E+03</pdfrwt>
<totfact> 0.32708846E+03</totfact>
</mgrwt>
</event>
<event>
 4    3  0.4041078E+000  0.3548246E+03  0.7546771E-02  0.1060652E+00
         21   -1    0    0  503  502  0.00000000000E+00  0.00000000000E+00  0.34304311913E+03  0.34304311913E+03  0.00000000000E+00 0. -1.
         21   -1    0    0  501  503 -0.00000000000E+00 -0.00000000000E+00 -0.46452614743E+03  0.46452614743E+03  0.00000000000E+00 0.  1.
          6    1    1    2  501    0  0.22044215977E+03 -0.21766203299E+03 -0.24574560912E+03  0.43161488715E+03  0.17300000000E+03 0.  1.
         -6    1    1    2    0  502 -0.22044215977E+03  0.21766203299E+03  0.12426258082E+03  0.37595437941E+03  0.17300000000E+03 0. -1.
<mgrwt>
<rscale>  2 0.35482461E+03</rscale>
<asrwt>0</asrwt>
<pdfrwt beam="1">  1       21 0.52775864E-01 0.35482461E+03</pdfrwt>
<pdfrwt beam="2">  1       21 0.71465561E-01 0.35482461E+03</pdfrwt>
<totfact> 0.54955595E+03</totfact>
</mgrwt>
</event>
<event>
 4    3  0.4041078E+000  0.2001262E+03  0.7546771E-02  0.1149633E+00
         21   -1    0    0  503  502  0.00000000000E+00  0.00000000000E+00  0.65777326821E+02  0.65777326821E+02  0.00000000000E+00 0.  1.
         21   -1    0    0  501  503 -0.00000000000E+00 -0.00000000000E+00 -0.81567568425E+03  0.81567568425E+03  0.00000000000E+00 0. -1.
          6    1    1    2  501    0  0.37772702876E+02  0.93245559364E+02 -0.59686125930E+03  0.62951876404E+03  0.17300000000E+03 0. -1.
         -6    1    1    2    0  502 -0.37772702876E+02 -0.93245559364E+02 -0.15303709813E+03  0.25193424703E+03  0.17300000000E+03 0. -1.
<mgrwt>
<rscale>  2 0.20012624E+03</rscale>
<asrwt>0</asrwt>
<pdfrwt beam="1">  1       21 0.10119589E-01 0.20012624E+03</pdfrwt>
<pdfrwt beam="2">  1       21 0.12548856E+00 0.20012624E+03</pdfrwt>
<totfact> 0.37374886E+04</totfact>
</mgrwt>
</event>
<event>
 4    3  0.4041078E+000  0.1927400E+03  0.7546771E-02  0.1156013E+00
         21   -1    0    0  501  502  0.00000000000E+00  0.00000000000E+00  0.18110439886E+03  0.18110439886E+03  0.00000000000E+00 0. -1.
         21   -1    0    0  502  503 -0.00000000000E+00 -0.00000000000E+00 -0.21647956029E+03  0.21647956029E+03  0.00000000000E+00 0. -1.
          6    1    1    2  501    0  0.13337892200E+02  0.83915595883E+02 -0.63218733120E+02  0.20284312859E+03  0.17300000000E+03 0. -1.
         -6    1    1    2    0  503 -0.13337892200E+02 -0.83915595883E+02  0.27843571693E+02  0.19474083056E+03  0.17300000000E+03 0. -1.
<mgrwt>
<rscale>  2 0.19274005E+03</rscale>
<asrwt>0</asrwt>
<pdfrwt beam="1">  1       21 0.27862215E-01 0.19274005E+03</pdfrwt>
<pdfrwt beam="2">  1       21 0.33304547E-01 0.19274005E+03</pdfrwt>
<totfact> 0.10679337E+05</totfact>
</mgrwt>
</event>
<event>
 4    3  0.4041078E+000  0.2835207E+03  0.7546771E-02  0.1093781E+00
         21   -1    0    0  503  502  0.00000000000E+00  0.00000000000E+00  0.19849722340E+03  0.19849722340E+03  0.00000000000E+00 0.  1.
         21   -1    0    0  501  503 -0.00000000000E+00 -0.00000000000E+00 -0.63281190457E+03  0.63281190457E+03  0.00000000000E+00 0. -1.
          6    1    1    2  501    0 -0.21269964263E+03 -0.72206967353E+02 -0.46657025158E+03  0.54595950745E+03  0.17300000000E+03 0. -1.
         -6    1    1    2    0  502  0.21269964263E+03  0.72206967353E+02  0.32255570411E+02  0.28534962052E+03  0.17300000000E+03 0.  1.
<mgrwt>
<rscale>  2 0.28352069E+03</rscale>
<asrwt>0</asrwt>
<pdfrwt beam="1">  1       21 0.30538035E-01 0.28352069E+03</pdfrwt>
<pdfrwt beam="2">  1       21 0.97355674E-01 0.28352069E+03</pdfrwt>
<totfact> 0.85167201E+03</totfact>
</mgrwt>
</event>
<event>
 4    3  0.4041078E+000  0.2845040E+03  0.7546771E-02  0.1093254E+00
         21   -1    0    0  501  502  0.00000000000E+00  0.00000000000E+00  0.67485040504E+02  0.67485040504E+02  0.00000000000E+00 0.  1.
         21   -1    0    0  502  503 -0.00000000000E+00 -0.00000000000E+00 -0.13385909871E+04  0.13385909871E+04  0.00000000000E+00 0.  1.
          6    1    1    2  501    0 -0.22415203194E+03 -0.27738132487E+02 -0.40886015324E+03  0.49810557347E+03  0.17300000000E+03 0.  1.
         -6    1    1    2    0  503  0.22415203194E+03  0.27738132487E+02 -0.86224579332E+03  0.90797045410E+03  0.17300000000E+03 0.  1.
<mgrwt>
<rscale>  2 0.28450402E+03</rscale>
<asrwt>0</asrwt>
<pdfrwt beam="1">  1       21 0.10382314E-01 0.28450402E+03</pdfrwt>
<pdfrwt beam="2">  1       21 0.20593707E+00 0.28450402E+03</pdfrwt>
<totfact> 0.87415835E+03</totfact>
</mgrwt>
</event>
<event>
 4    3  0.4041078E+000  0.1735689E+03  0.7546771E-02  0.1174176E+00
         21   -1    0    0  503  502  0.00000000000E+00  0.00000000000E+00  0.10151993814E+04  0.10151993814E+04  0.00000000000E+00 0. -1.
         21   -1    0    0  501  503 -0.00000000000E+00 -0.00000000000E+00 -0.20770326211E+03  0.20770326211E+03  0.00000000000E+00 0. -1.
          6    1    1    2  501    0  0.39671704240E+01  0.13469446981E+02 -0.16234073453E+03  0.23765663999E+03  0.17300000000E+03 0. -1.
         -6    1    1    2    0  502 -0.39671704240E+01 -0.13469446981E+02  0.96983685381E+03  0.98524600352E+03  0.17300000000E+03 0. -1.
<mgrwt>
<rscale>  2 0.17356890E+03</rscale>
<asrwt>0</asrwt>
<pdfrwt beam="1">  1       21 0.15618452E+00 0.17356890E+03</pdfrwt>
<pdfrwt beam="2">  1       21 0.31954349E-01 0.17356890E+03</pdfrwt>
<totfact> 0.25768637E+03</totfact>
</mgrwt>
</event>
<event>
 4    3  0.4041078E+000  0.2002089E+03  0.7546771E-02  0.1149563E+00
         21   -1    0    0  501  502  0.00000000000E+00  0.00000000000E+00  0.99973000662E+02  0.99973000662E+02  0.00000000000E+00 0. -1.
         21   -1    0    0  502  503 -0.00000000000E+00 -0.00000000000E+00 -0.41134671834E+03  0.41134671834E+03  0.00000000000E+00 0. -1.
          6    1    1    2  501    0 -0.99741476586E+02 -0.14360621156E+02 -0.19634325262E+03  0.28041801376E+03  0.17300000000E+03 0. -1.
         -6    1    1    2    0  503  0.99741476586E+02  0.14360621156E+02 -0.11503046505E+03  0.23090170524E+03  0.17300000000E+03 0. -1.
<mgrwt>
<rscale>  2 0.20020886E+03</rscale>
<asrwt>0</asrwt>
<pdfrwt beam="1">  1       21 0.15380462E-01 0.20020886E+03</pdfrwt>
<pdfrwt beam="2">  1       21 0.63284109E-01 0.20020886E+03</pdfrwt>
<totfact> 0.86288690E+04</totfact>
</mgrwt>
</event>
<event>
 4    3  0.4041078E+000  0.2058891E+03  0.7546771E-02  0.1144863E+00
         21   -1    0    0  501  502  0.00000000000E+00  0.00000000000E+00  0.60173094798E+03  0.60173094798E+03  0.00000000000E+00 0. -1.
         21   -1    0    0  502  503 -0.00000000000E+00 -0.00000000000E+00 -0.20427153242E+03  0.20427153242E+03  0.00000000000E+00 0. -1.
          6    1    1    2  501    0 -0.79972406242E+02  0.77882799542E+02  0.52491911352E+03  0.56385316525E+03  0.17300000000E+03 0. -1.
         -6    1    1    2    0  503  0.79972406242E+02 -0.77882799542E+02 -0.12745969796E+03  0.24214931515E+03  0.17300000000E+03 0. -1.
<mgrwt>
<rscale>  2 0.20588909E+03</rscale>
<asrwt>0</asrwt>
<pdfrwt beam="1">  1       21 0.92573992E-01 0.20588909E+03</pdfrwt>
<pdfrwt beam="2">  1       21 0.31426390E-01 0.20588909E+03</pdfrwt>
<totfact> 0.94872060E+03</totfact>
</mgrwt>
</event>
<event>
 4    3  0.4041078E+000  0.2145635E+03  0.7546771E-02  0.1138002E+00
         21   -1    0    0  501  502  0.00000000000E+00  0.00000000000E+00  0.51564838405E+02  0.51564838405E+02  0.00000000000E+00 0. -1.
         21   -1    0    0  502  503 -0.00000000000E+00 -0.00000000000E+00 -0.96413391674E+03  0.96413391674E+03  0.00000000000E+00 0.  1.
          6    1    1    2  501    0  0.51853077992E+02  0.11584370263E+03 -0.59441505591E+03  0.63195471660E+03  0.17300000000E+03 0.  1.
         -6    1    1    2    0  503 -0.51853077992E+02 -0.11584370263E+03 -0.31815402243E+03  0.38374403855E+03  0.17300000000E+03 0. -1.
<mgrwt>
<rscale>  2 0.21456352E+03</rscale>
<asrwt>0</asrwt>
<pdfrwt beam="1">  1       21 0.79330517E-02 0.21456352E+03</pdfrwt>
<pdfrwt beam="2">  1       21 0.14832830E+00 0.21456352E+03</pdfrwt>
<totfact> 0.37004774E+04</totfact>
</mgrwt>
</event>
<event>
 4    3  0.4041078E+000  0.2401405E+03  0.7546771E-02  0.1119699E+00
         21   -1    0    0  501  502  0.00000000000E+00  0.00000000000E+00  0.39851500603E+03  0.39851500603E+03  0.00000000000E+00 0.  1.
         21   -1    0    0  502  503 -0.00000000000E+00 -0.00000000000E+00 -0.13930196533E+04  0.13930196533E+04  0.00000000000E+00 0. -1.
          6    1    1    2  501    0  0.85235150386E+02  0.14308537382E+03  0.35071376073E+03  0.42505011119E+03  0.17300000000E+03 0.  1.
         -6    1    1    2    0  503 -0.85235150386E+02 -0.14308537382E+03 -0.13452184080E+04  0.13664845481E+04  0.17300000000E+03 0. -1.
<mgrwt>
<rscale>  2 0.24014049E+03</rscale>
<asrwt>0</asrwt>
<pdfrwt beam="1">  1       21 0.61310002E-01 0.24014049E+03</pdfrwt>
<pdfrwt beam="2">  1       21 0.21431071E+00 0.24014049E+03</pdfrwt>
<totfact> 0.25477637E+02</totfact>
</mgrwt>
</event>
<event>
 4    3  0.4041078E+000  0.1795034E+03  0.7546771E-02  0.1168285E+00
         21   -1    0    0  503  502  0.00000000000E+00  0.00000000000E+00  0.63580425760E+02  0.63580425760E+02  0.00000000000E+00 0. -1.
         21   -1    0    0  501  503 -0.00000000000E+00 -0.00000000000E+00 -0.59238303539E+03  0.59238303539E+03  0.00000000000E+00 0. -1.
          6    1    1    2  501    0  0.97450110227E+01  0.46877477975E+02 -0.38907819074E+03  0.42848955844E+03  0.17300000000E+03 0. -1.
         -6    1    1    2    0  502 -0.97450110227E+01 -0.46877477975E+02 -0.13972441889E+03  0.22747390271E+03  0.17300000000E+03 0. -1.
<mgrwt>
<rscale>  2 0.17950338E+03</rscale>
<asrwt>0</asrwt>
<pdfrwt beam="1">  1       21 0.97816041E-02 0.17950338E+03</pdfrwt>
<pdfrwt beam="2">  1       21 0.91135850E-01 0.17950338E+03</pdfrwt>
<totfact> 0.86577955E+04</totfact>
</mgrwt>
</event>
<event>
 4    3  0.4041078E+000  0.1761955E+03  0.7546771E-02  0.1171537E+00
         21   -1    0    0  503  502  0.00000000000E+00  0.00000000000E+00  0.57683796182E+03  0.57683796182E+03  0.00000000000E+00 0.  1.
         21   -1    0    0  501  503 -0.00000000000E+00 -0.00000000000E+00 -0.82138958556E+02  0.82138958556E+02  0.00000000000E+00 0.  1.
          6    1    1    2  501    0 -0.33084245408E+02 -0.46132752929E+01  0.53880307849E+02  0.18424965991E+03  0.17300000000E+03 0.  1.
         -6    1    1    2    0  502  0.33084245408E+02  0.46132752929E+01  0.44081869542E+03  0.47472726047E+03  0.17300000000E+03 0.  1.
<mgrwt>
<rscale>  2 0.17619549E+03</rscale>
<asrwt>0</asrwt>
<pdfrwt beam="1">  1       21 0.88744299E-01 0.17619549E+03</pdfrwt>
<pdfrwt beam="2">  1       21 0.12636763E-01 0.17619549E+03</pdfrwt>
<totfact> 0.58502319E+04</totfact>
</mgrwt>
</event>
<event>
 4    3  0.4041078E+000  0.1773782E+03  0.7546771E-02  0.1170365E+00
         21   -1    0    0  501  502  0.00000000000E+00  0.00000000000E+00  0.23632589306E+02  0.23632589306E+02  0.00000000000E+00 0.  1.
         21   -1    0    0  502  503 -0.00000000000E+00 -0.00000000000E+00 -0.19304994447E+04  0.19304994447E+04  0.00000000000E+00 0.  1.
          6    1    1    2  501    0 -0.29099459240E+02 -0.26215335472E+02 -0.40910614102E+03  0.44590453794E+03  0.17300000000E+03 0.  1.
         -6    1    1    2    0  503  0.29099459240E+02  0.26215335472E+02 -0.14977607143E+04  0.15082274960E+04  0.17300000000E+03 0.  1.
<mgrwt>
<rscale>  2 0.17737819E+03</rscale>
<asrwt>0</asrwt>
<pdfrwt beam="1">  1       21 0.36357816E-02 0.17737819E+03</pdfrwt>
<pdfrwt beam="2">  1       21 0.29700003E+00 0.17737819E+03</pdfrwt>
<totfact> 0.16592608E+04</totfact>
</mgrwt>
</event>
<event>
 4    3  0.4041078E+000  0.1769632E+03  0.7546771E-02  0.1170775E+00
         21   -1    0    0  503  502  0.00000000000E+00  0.00000000000E+00  0.87630958868E+02  0.87630958868E+02  0.00000000000E+00 0. -1.
         21   -1    0    0  501  503 -0.00000000000E+00 -0.00000000000E+00 -0.40080139563E+03  0.40080139563E+03  0.00000000000E+00 0. -1.
          6    1    1    2  501    0 -0.33151047427E+02 -0.16970044111E+02 -0.23698441798E+03  0.29576610473E+03  0.17300000000E+03 0. -1.
         -6    1    1    2    0  502  0.33151047427E+02  0.16970044111E+02 -0.76186018789E+02  0.19266624977E+03  0.17300000000E+03 0. -1.
<mgrwt>
<rscale>  2 0.17696320E+03</rscale>
<asrwt>0</asrwt>
<pdfrwt beam="1">  1       21 0.13481686E-01 0.17696320E+03</pdfrwt>
<pdfrwt beam="2">  1       21 0.61661753E-01 0.17696320E+03</pdfrwt>
<totfact> 0.11697469E+05</totfact>
</mgrwt>
</event>
<event>
 4    3  0.4041078E+000  0.1833854E+03  0.7546771E-02  0.1164566E+00
         21   -1    0    0  503  502  0.00000000000E+00  0.00000000000E+00  0.22575291617E+03  0.22575291617E+03  0.00000000000E+00 0.  1.
         21   -1    0    0  501  503 -0.00000000000E+00 -0.00000000000E+00 -0.14915541649E+03  0.14915541649E+03  0.00000000000E+00 0.  1.
          6    1    1    2  501    0 -0.57994266523E+02  0.18381138835E+02  0.44924576990E+02  0.18880788869E+03  0.17300000000E+03 0.  1.
         -6    1    1    2    0  502  0.57994266523E+02 -0.18381138835E+02  0.31672922692E+02  0.18610044397E+03  0.17300000000E+03 0.  1.
<mgrwt>
<rscale>  2 0.18338539E+03</rscale>
<asrwt>0</asrwt>
<pdfrwt beam="1">  1       21 0.34731218E-01 0.18338539E+03</pdfrwt>
<pdfrwt beam="2">  1       21 0.22946987E-01 0.18338539E+03</pdfrwt>
<totfact> 0.14287454E+05</totfact>
</mgrwt>
</event>
<event>
 4    3  0.4041078E+000  0.1993285E+03  0.7546771E-02  0.1150307E+00
         21   -1    0    0  503  502  0.00000000000E+00  0.00000000000E+00  0.42070911605E+02  0.42070911605E+02  0.00000000000E+00 0.  1.
         21   -1    0    0  501  503 -0.00000000000E+00 -0.00000000000E+00 -0.10707667686E+04  0.10707667686E+04  0.00000000000E+00 0.  1.
          6    1    1    2  501    0  0.88359790898E+02 -0.44669836380E+02 -0.70549499533E+03  0.73311324866E+03  0.17300000000E+03 0.  1.
         -6    1    1    2    0  502 -0.88359790898E+02  0.44669836380E+02 -0.32320086168E+03  0.37972443155E+03  0.17300000000E+03 0.  1.
<mgrwt>
<rscale>  2 0.19932849E+03</rscale>
<asrwt>0</asrwt>
<pdfrwt beam="1">  1       21 0.64724474E-02 0.19932849E+03</pdfrwt>
<pdfrwt beam="2">  1       21 0.16473336E+00 0.19932849E+03</pdfrwt>
<totfact> 0.40101053E+04</totfact>
</mgrwt>
</event>
<event>
 4    3  0.4041078E+000  0.2187285E+03  0.7546771E-02  0.1134835E+00
         21   -1    0    0  503  502  0.00000000000E+00  0.00000000000E+00  0.50051567203E+03  0.50051567203E+03  0.00000000000E+00 0.  1.
         21   -1    0    0  501  503 -0.00000000000E+00 -0.00000000000E+00 -0.10658396792E+03  0.10658396792E+03  0.00000000000E+00 0. -1.
          6    1    1    2  501    0  0.13122300095E+03  0.26337617028E+02  0.99456565073E+02  0.24027849339E+03  0.17300000000E+03 0. -1.
         -6    1    1    2    0  502 -0.13122300095E+03 -0.26337617028E+02  0.29447513904E+03  0.36682114656E+03  0.17300000000E+03 0.  1.
<mgrwt>
<rscale>  2 0.21872848E+03</rscale>
<asrwt>0</asrwt>
<pdfrwt beam="1">  1       21 0.77002409E-01 0.21872848E+03</pdfrwt>
<pdfrwt beam="2">  1       21 0.16397534E-01 0.21872848E+03</pdfrwt>
<totfact> 0.49334747E+04</totfact>
</mgrwt>
</event>
<event>
 4    3  0.4041078E+000  0.1846863E+03  0.7546771E-02  0.1163343E+00
         21   -1    0    0  503  502  0.00000000000E+00  0.00000000000E+00  0.71674712003E+02  0.71674712003E+02  0.00000000000E+00 0. -1.
         21   -1    0    0  501  503 -0.00000000000E+00 -0.00000000000E+00 -0.50341857882E+03  0.50341857882E+03  0.00000000000E+00 0. -1.
          6    1    1    2  501    0  0.60592412749E+02  0.22551850863E+02 -0.28311745074E+03  0.33803034978E+03  0.17300000000E+03 0. -1.
         -6    1    1    2    0  502 -0.60592412749E+02 -0.22551850863E+02 -0.14862641608E+03  0.23706294105E+03  0.17300000000E+03 0. -1.
<mgrwt>
<rscale>  2 0.18468629E+03</rscale>
<asrwt>0</asrwt>
<pdfrwt beam="1">  1       21 0.11026878E-01 0.18468629E+03</pdfrwt>
<pdfrwt beam="2">  1       21 0.77449015E-01 0.18468629E+03</pdfrwt>
<totfact> 0.10127174E+05</totfact>
</mgrwt>
</event>
<event>
 4    3  0.4041078E+000  0.1996611E+03  0.7546771E-02  0.1150025E+00
         21   -1    0    0  503  502  0.00000000000E+00  0.00000000000E+00  0.50069165262E+02  0.50069165262E+02  0.00000000000E+00 0. -1.
         21   -1    0    0  501  503 -0.00000000000E+00 -0.00000000000E+00 -0.18487222028E+04  0.18487222028E+04  0.00000000000E+00 0. -1.
          6    1    1    2  501    0  0.86149945299E+02  0.50137420017E+02 -0.16156828423E+04  0.16279728563E+04  0.17300000000E+03 0. -1.
         -6    1    1    2    0  502 -0.86149945299E+02 -0.50137420017E+02 -0.18297019521E+03  0.27081851173E+03  0.17300000000E+03 0. -1.
<mgrwt>
<rscale>  2 0.19966115E+03</rscale>
<asrwt>0</asrwt>
<pdfrwt beam="1">  1       21 0.77029490E-02 0.19966115E+03</pdfrwt>
<pdfrwt beam="2">  1       21 0.28441878E+00 0.19966115E+03</pdfrwt>
<totfact> 0.53373891E+03</totfact>
</mgrwt>
</event>
<event>
 4    3  0.4041078E+000  0.2162426E+03  0.7546771E-02  0.1136716E+00
         21   -1    0    0  501  502  0.00000000000E+00  0.00000000000E+00  0.66133141255E+03  0.66133141255E+03  0.00000000000E+00 0.  1.
         21   -1    0    0  502  503 -0.00000000000E+00 -0.00000000000E+00 -0.38884104051E+03  0.38884104051E+03  0.00000000000E+00 0.  1.
          6    1    1    2  501    0  0.24703205601E+02  0.12736406738E+03  0.61119700144E+03  0.64832293542E+03  0.17300000000E+03 0.  1.
         -6    1    1    2    0  503 -0.24703205601E+02 -0.12736406738E+03 -0.33870662940E+03  0.40184951763E+03  0.17300000000E+03 0.  1.
<mgrwt>
<rscale>  2 0.21624258E+03</rscale>
<asrwt>0</asrwt>
<pdfrwt beam="1">  1       21 0.10174329E+00 0.21624258E+03</pdfrwt>
<pdfrwt beam="2">  1       21 0.59821699E-01 0.21624258E+03</pdfrwt>
<totfact> 0.20122665E+03</totfact>
</mgrwt>
</event>
<event>
 4    3  0.4041078E+000  0.2099911E+03  0.7546771E-02  0.1141573E+00
         21   -1    0    0  503  502  0.00000000000E+00  0.00000000000E+00  0.34511114727E+03  0.34511114727E+03  0.00000000000E+00 0. -1.
         21   -1    0    0  501  503 -0.00000000000E+00 -0.00000000000E+00 -0.16386939185E+03  0.16386939185E+03  0.00000000000E+00 0. -1.
          6    1    1    2  501    0 -0.11422855319E+03 -0.33452782467E+02  0.21006033049E+03  0.29702120036E+03  0.17300000000E+03 0. -1.
         -6    1    1    2    0  502  0.11422855319E+03  0.33452782467E+02 -0.28818575064E+02  0.21195933876E+03  0.17300000000E+03 0. -1.
<mgrwt>
<rscale>  2 0.20999107E+03</rscale>
<asrwt>0</asrwt>
<pdfrwt beam="1">  1       21 0.53094023E-01 0.20999107E+03</pdfrwt>
<pdfrwt beam="2">  1       21 0.25210676E-01 0.20999107E+03</pdfrwt>
<totfact> 0.49666144E+04</totfact>
</mgrwt>
</event>
<event>
 4    3  0.4041078E+000  0.1922363E+03  0.7546771E-02  0.1156460E+00
         21   -1    0    0  501  502  0.00000000000E+00  0.00000000000E+00  0.14051575230E+03  0.14051575230E+03  0.00000000000E+00 0.  1.
         21   -1    0    0  502  503 -0.00000000000E+00 -0.00000000000E+00 -0.26925815257E+03  0.26925815257E+03  0.00000000000E+00 0.  1.
          6    1    1    2  501    0  0.59049480660E+02  0.59489188670E+02 -0.95621904345E+02  0.21470527084E+03  0.17300000000E+03 0.  1.
         -6    1    1    2    0  503 -0.59049480660E+02 -0.59489188670E+02 -0.33120495921E+02  0.19506863404E+03  0.17300000000E+03 0.  1.
<mgrwt>
<rscale>  2 0.19223633E+03</rscale>
<asrwt>0</asrwt>
<pdfrwt beam="1">  1       21 0.21617808E-01 0.19223633E+03</pdfrwt>
<pdfrwt beam="2">  1       21 0.41424330E-01 0.19223633E+03</pdfrwt>
<totfact> 0.11197595E+05</totfact>
</mgrwt>
</event>
<event>
 4    3  0.4041078E+000  0.1747286E+03  0.7546771E-02  0.1173004E+00
         21   -1    0    0  503  502  0.00000000000E+00  0.00000000000E+00  0.15016315772E+04  0.15016315772E+04  0.00000000000E+00 0. -1.
         21   -1    0    0  501  503 -0.00000000000E+00 -0.00000000000E+00 -0.26057390746E+02  0.26057390746E+02  0.00000000000E+00 0.  1.
          6    1    1    2  501    0  0.18875414464E+01  0.24444548594E+02  0.37971606281E+03  0.41798850118E+03  0.17300000000E+03 0.  1.
         -6    1    1    2    0  502 -0.18875414464E+01 -0.24444548594E+02  0.10958581236E+04  0.11097004667E+04  0.17300000000E+03 0. -1.
<mgrwt>
<rscale>  2 0.17472864E+03</rscale>
<asrwt>0</asrwt>
<pdfrwt beam="1">  1       21 0.23102017E+00 0.17472864E+03</pdfrwt>
<pdfrwt beam="2">  1       21 0.40088305E-02 0.17472864E+03</pdfrwt>
<totfact> 0.34142088E+04</totfact>
</mgrwt>
</event>
<event>
 4    3  0.4041078E+000  0.1909351E+03  0.7546771E-02  0.1157621E+00
         21   -1    0    0  503  502  0.00000000000E+00  0.00000000000E+00  0.54985496496E+03  0.54985496496E+03  0.00000000000E+00 0. -1.
         21   -1    0    0  501  503 -0.00000000000E+00 -0.00000000000E+00 -0.26374973097E+03  0.26374973097E+03  0.00000000000E+00 0. -1.
          6    1    1    2  501    0 -0.14486806337E+02 -0.79481616652E+02 -0.20892422451E+03  0.28302919731E+03  0.17300000000E+03 0. -1.
         -6    1    1    2    0  502  0.14486806337E+02  0.79481616652E+02  0.49502945851E+03  0.53057549862E+03  0.17300000000E+03 0. -1.
<mgrwt>
<rscale>  2 0.19093505E+03</rscale>
<asrwt>0</asrwt>
<pdfrwt beam="1">  1       21 0.84593071E-01 0.19093505E+03</pdfrwt>
<pdfrwt beam="2">  1       21 0.40576882E-01 0.19093505E+03</pdfrwt>
<totfact> 0.70982911E+03</totfact>
</mgrwt>
</event>
<event>
 4    3  0.4041078E+000  0.1850315E+03  0.7546771E-02  0.1163020E+00
         21   -1    0    0  501  502  0.00000000000E+00  0.00000000000E+00  0.34916717112E+03  0.34916717112E+03  0.00000000000E+00 0. -1.
         21   -1    0    0  502  503 -0.00000000000E+00 -0.00000000000E+00 -0.10766641908E+03  0.10766641908E+03  0.00000000000E+00 0. -1.
          6    1    1    2  501    0 -0.65521753861E+02 -0.38157629972E+01  0.52494254246E+02  0.19233384259E+03  0.17300000000E+03 0. -1.
         -6    1    1    2    0  503  0.65521753861E+02  0.38157629972E+01  0.18900649780E+03  0.26449974761E+03  0.17300000000E+03 0. -1.
<mgrwt>
<rscale>  2 0.18503151E+03</rscale>
<asrwt>0</asrwt>
<pdfrwt beam="1">  1       21 0.53718026E-01 0.18503151E+03</pdfrwt>
<pdfrwt beam="2">  1       21 0.16564065E-01 0.18503151E+03</pdfrwt>
<totfact> 0.10758155E+05</totfact>
</mgrwt>
</event>
<event>
 4    3  0.4041078E+000  0.1837530E+03  0.7546771E-02  0.1164220E+00
         21   -1    0    0  503  502  0.00000000000E+00  0.00000000000E+00  0.12095929346E+03  0.12095929346E+03  0.00000000000E+00 0.  1.
         21   -1    0    0  501  503 -0.00000000000E+00 -0.00000000000E+00 -0.48205391590E+03  0.48205391590E+03  0.00000000000E+00 0.  1.
          6    1    1    2  501    0  0.35399855499E+02 -0.50823350827E+02 -0.37616123192E+03  0.41864356576E+03  0.17300000000E+03 0.  1.
         -6    1    1    2    0  502 -0.35399855499E+02  0.50823350827E+02  0.15066609478E+02  0.18436964360E+03  0.17300000000E+03 0.  1.
<mgrwt>
<rscale>  2 0.18375299E+03</rscale>
<asrwt>0</asrwt>
<pdfrwt beam="1">  1       21 0.18609122E-01 0.18375299E+03</pdfrwt>
<pdfrwt beam="2">  1       21 0.74162141E-01 0.18375299E+03</pdfrwt>
<totfact> 0.43226271E+04</totfact>
</mgrwt>
</event>
<event>
 4    3  0.4041078E+000  0.1867651E+03  0.7546771E-02  0.1161412E+00
         21   -1    0    0  501  502  0.00000000000E+00  0.00000000000E+00  0.42520129376E+02  0.42520129376E+02  0.00000000000E+00 0. -1.
         21   -1    0    0  502  503 -0.00000000000E+00 -0.00000000000E+00 -0.93593090178E+03  0.93593090178E+03  0.00000000000E+00 0. -1.
          6    1    1    2  501    0 -0.66146030224E+01 -0.70060412784E+02 -0.27478082631E+03  0.33224346031E+03  0.17300000000E+03 0. -1.
         -6    1    1    2    0  503  0.66146030224E+01  0.70060412784E+02 -0.61862994609E+03  0.64620757084E+03  0.17300000000E+03 0. -1.
<mgrwt>
<rscale>  2 0.18676513E+03</rscale>
<asrwt>0</asrwt>
<pdfrwt beam="1">  1       21 0.65415586E-02 0.18676513E+03</pdfrwt>
<pdfrwt beam="2">  1       21 0.14398936E+00 0.18676513E+03</pdfrwt>
<totfact> 0.56732884E+04</totfact>
</mgrwt>
</event>
<event>
 4    3  0.4041078E+000  0.2247616E+03  0.7546771E-02  0.1130382E+00
         21   -1    0    0  503  502  0.00000000000E+00  0.00000000000E+00  0.22821061473E+03  0.22821061473E+03  0.00000000000E+00 0. -1.
         21   -1    0    0  501  503 -0.00000000000E+00 -0.00000000000E+00 -0.24626875640E+03  0.24626875640E+03  0.00000000000E+00 0.  1.
          6    1    1    2  501    0 -0.76498428417E+02  0.12139510120E+03 -0.84471819336E+02  0.24011095020E+03  0.17300000000E+03 0.  1.
         -6    1    1    2    0  502  0.76498428417E+02 -0.12139510120E+03  0.66413677674E+02  0.23436842093E+03  0.17300000000E+03 0. -1.
<mgrwt>
<rscale>  2 0.22476161E+03</rscale>
<asrwt>0</asrwt>
<pdfrwt beam="1">  1       21 0.35109326E-01 0.22476161E+03</pdfrwt>
<pdfrwt beam="2">  1       21 0.37887501E-01 0.22476161E+03</pdfrwt>
<totfact> 0.51766159E+04</totfact>
</mgrwt>
</event>
<event>
 4    3  0.4041078E+000  0.2216601E+03  0.7546771E-02  0.1132651E+00
         21   -1    0    0  503  502  0.00000000000E+00  0.00000000000E+00  0.12325921745E+03  0.12325921745E+03  0.00000000000E+00 0. -1.
         21   -1    0    0  501  503 -0.00000000000E+00 -0.00000000000E+00 -0.65644120265E+03  0.65644120265E+03  0.00000000000E+00 0. -1.
          6    1    1    2  501    0  0.33443701204E+02  0.13448307824E+03 -0.51091265308E+03  0.55692451783E+03  0.17300000000E+03 0. -1.
         -6    1    1    2    0  502 -0.33443701204E+02 -0.13448307824E+03 -0.22269332122E+02  0.22277590228E+03  0.17300000000E+03 0. -1.
<mgrwt>
<rscale>  2 0.22166005E+03</rscale>
<asrwt>0</asrwt>
<pdfrwt beam="1">  1       21 0.18962956E-01 0.22166005E+03</pdfrwt>
<pdfrwt beam="2">  1       21 0.10099095E+00 0.22166005E+03</pdfrwt>
<totfact> 0.20088571E+04</totfact>
</mgrwt>
</event>
<event>
 4    3  0.4041078E+000  0.2621247E+03  0.7546771E-02  0.1105873E+00
         21   -1    0    0  501  502  0.00000000000E+00  0.00000000000E+00  0.82325483720E+02  0.82325483720E+02  0.00000000000E+00 0.  1.
         21   -1    0    0  502  503 -0.00000000000E+00 -0.00000000000E+00 -0.88182391983E+03  0.88182391983E+03  0.00000000000E+00 0. -1.
          6    1    1    2  501    0  0.19394457100E+03  0.34144882186E+02 -0.28819774121E+03  0.38957323783E+03  0.17300000000E+03 0.  1.
         -6    1    1    2    0  503 -0.19394457100E+03 -0.34144882186E+02 -0.51130069490E+03  0.57457616572E+03  0.17300000000E+03 0.  1.
<mgrwt>
<rscale>  2 0.26212472E+03</rscale>
<asrwt>0</asrwt>
<pdfrwt beam="1">  1       21 0.12665458E-01 0.26212472E+03</pdfrwt>
<pdfrwt beam="2">  1       21 0.13566523E+00 0.26212472E+03</pdfrwt>
<totfact> 0.19850029E+04</totfact>
</mgrwt>
</event>
<event>
 4    3  0.4041078E+000  0.2517852E+03  0.7546771E-02  0.1112182E+00
         21   -1    0    0  501  502  0.00000000000E+00  0.00000000000E+00  0.15717759187E+04  0.15717759187E+04  0.00000000000E+00 0. -1.
         21   -1    0    0  502  503 -0.00000000000E+00 -0.00000000000E+00 -0.82112847246E+02  0.82112847246E+02  0.00000000000E+00 0. -1.
          6    1    1    2  501    0  0.18253402178E+03 -0.12170826777E+02  0.13346925219E+04  0.13582341205E+04  0.17300000000E+03 0. -1.
         -6    1    1    2    0  503 -0.18253402178E+03  0.12170826777E+02  0.15497054954E+03  0.29565464542E+03  0.17300000000E+03 0. -1.
<mgrwt>
<rscale>  2 0.25178522E+03</rscale>
<asrwt>0</asrwt>
<pdfrwt beam="1">  1       21 0.24181166E+00 0.25178522E+03</pdfrwt>
<pdfrwt beam="2">  1       21 0.12632747E-01 0.25178522E+03</pdfrwt>
<totfact> 0.37646937E+03</totfact>
</mgrwt>
</event>
<event>
 4    3  0.4041078E+000  0.2166509E+03  0.7546771E-02  0.1136405E+00
         21   -1    0    0  501  502  0.00000000000E+00  0.00000000000E+00  0.19458402059E+03  0.19458402059E+03  0.00000000000E+00 0. -1.
         21   -1    0    0  502  503 -0.00000000000E+00 -0.00000000000E+00 -0.37516570210E+03  0.37516570210E+03  0.00000000000E+00 0.  1.
          6    1    1    2  501    0  0.73008651440E+02 -0.10806648329E+03 -0.26050918688E+03  0.33882541883E+03  0.17300000000E+03 0.  1.
         -6    1    1    2    0  503 -0.73008651440E+02  0.10806648329E+03  0.79927505369E+02  0.23092430385E+03  0.17300000000E+03 0. -1.
<mgrwt>
<rscale>  2 0.21665094E+03</rscale>
<asrwt>0</asrwt>
<pdfrwt beam="1">  1       21 0.29936004E-01 0.21665094E+03</pdfrwt>
<pdfrwt beam="2">  1       21 0.57717799E-01 0.21665094E+03</pdfrwt>
<totfact> 0.29739019E+04</totfact>
</mgrwt>
</event>
<event>
 4    3  0.4041078E+000  0.1785867E+03  0.7546771E-02  0.1169178E+00
         21   -1    0    0  501  502  0.00000000000E+00  0.00000000000E+00  0.11926164035E+04  0.11926164035E+04  0.00000000000E+00 0.  1.
         21   -1    0    0  502  503 -0.00000000000E+00 -0.00000000000E+00 -0.61712135146E+02  0.61712135146E+02  0.00000000000E+00 0.  1.
          6    1    1    2  501    0  0.37040904453E+02 -0.24334546398E+02  0.10375623201E+04  0.10528194370E+04  0.17300000000E+03 0.  1.
         -6    1    1    2    0  503 -0.37040904453E+02  0.24334546398E+02  0.93341948219E+02  0.20150910165E+03  0.17300000000E+03 0.  1.
<mgrwt>
<rscale>  2 0.17858667E+03</rscale>
<asrwt>0</asrwt>
<pdfrwt beam="1">  1       21 0.18347943E+00 0.17858667E+03</pdfrwt>
<pdfrwt beam="2">  1       21 0.94941755E-02 0.17858667E+03</pdfrwt>
<totfact> 0.15494334E+04</totfact>
</mgrwt>
</event>
<event>
 4    3  0.4041078E+000  0.2064670E+03  0.7546771E-02  0.1144395E+00
         21   -1    0    0  503  502  0.00000000000E+00  0.00000000000E+00  0.27083288533E+03  0.27083288533E+03  0.00000000000E+00 0. -1.
         21   -1    0    0  501  503 -0.00000000000E+00 -0.00000000000E+00 -0.55069457095E+03  0.55069457095E+03  0.00000000000E+00 0. -1.
          6    1    1    2  501    0  0.44230532105E+02  0.10364984650E+03 -0.48706441233E+03  0.52901831009E+03  0.17300000000E+03 0. -1.
         -6    1    1    2    0  502 -0.44230532105E+02 -0.10364984650E+03  0.20720272670E+03  0.29250914619E+03  0.17300000000E+03 0. -1.
<mgrwt>
<rscale>  2 0.20646702E+03</rscale>
<asrwt>0</asrwt>
<pdfrwt beam="1">  1       21 0.41666598E-01 0.20646702E+03</pdfrwt>
<pdfrwt beam="2">  1       21 0.84722240E-01 0.20646702E+03</pdfrwt>
<totfact> 0.66263649E+03</totfact>
</mgrwt>
</event>
<event>
 4    3  0.4041078E+000  0.2354576E+03  0.7546771E-02  0.1122856E+00
         21   -1    0    0  501  502  0.00000000000E+00  0.00000000000E+00  0.21150675782E+04  0.21150675782E+04  0.00000000000E+00 0. -1.
         21   -1    0    0  502  503 -0.00000000000E+00 -0.00000000000E+00 -0.33191224152E+02  0.33191224152E+02  0.00000000000E+00 0.  1.
          6    1    1    2  501    0  0.14636552296E+03  0.63940608918E+02  0.15334842150E+04  0.15514554797E+04  0.17300000000E+03 0. -1.
         -6    1    1    2    0  503 -0.14636552296E+03 -0.63940608918E+02  0.54839213906E+03  0.59680332268E+03  0.17300000000E+03 0.  1.
<mgrwt>
<rscale>  2 0.23545757E+03</rscale>
<asrwt>0</asrwt>
<pdfrwt beam="1">  1       21 0.32539491E+00 0.23545757E+03</pdfrwt>
<pdfrwt beam="2">  1       21 0.51063438E-02 0.23545757E+03</pdfrwt>
<totfact> 0.60318560E+03</totfact>
</mgrwt>
</event>
<event>
 4    3  0.4041078E+000  0.1730389E+03  0.7546771E-02  0.1174715E+00
         21   -1    0    0  501  502  0.00000000000E+00  0.00000000000E+00  0.33318879217E+03  0.33318879217E+03  0.00000000000E+00 0.  1.
         21   -1    0    0  502  503 -0.00000000000E+00 -0.00000000000E+00 -0.89873366356E+02  0.89873366356E+02  0.00000000000E+00 0.  1.
          6    1    1    2  501    0 -0.98972503429E-01  0.36685448855E+01  0.12352377320E+03  0.21260430513E+03  0.17300000000E+03 0.  1.
         -6    1    1    2    0  503  0.98972503429E-01 -0.36685448855E+01  0.11979165262E+03  0.21045785339E+03  0.17300000000E+03 0.  1.
<mgrwt>
<rscale>  2 0.17303892E+03</rscale>
<asrwt>0</asrwt>
<pdfrwt beam="1">  1       21 0.51259814E-01 0.17303892E+03</pdfrwt>
<pdfrwt beam="2">  1       21 0.13826672E-01 0.17303892E+03</pdfrwt>
<totfact> 0.16554078E+05</totfact>
</mgrwt>
</event>
<event>
 4    3  0.4041078E+000  0.1977889E+03  0.7546771E-02  0.1151618E+00
         21   -1    0    0  503  502  0.00000000000E+00  0.00000000000E+00  0.22754692310E+03  0.22754692310E+03  0.00000000000E+00 0.  1.
         21   -1    0    0  501  503 -0.00000000000E+00 -0.00000000000E+00 -0.18910942860E+03  0.18910942860E+03  0.00000000000E+00 0.  1.
          6    1    1    2  501    0 -0.13668048052E+02  0.94892844347E+02 -0.43585469534E+02  0.20253434425E+03  0.17300000000E+03 0.  1.
         -6    1    1    2    0  502  0.13668048052E+02 -0.94892844347E+02  0.82022964037E+02  0.21412200745E+03  0.17300000000E+03 0.  1.
<mgrwt>
<rscale>  2 0.19778895E+03</rscale>
<asrwt>0</asrwt>
<pdfrwt beam="1">  1       21 0.35007219E-01 0.19778895E+03</pdfrwt>
<pdfrwt beam="2">  1       21 0.29093758E-01 0.19778895E+03</pdfrwt>
<totfact> 0.88789319E+04</totfact>
</mgrwt>
</event>
<event>
 4    3  0.4041078E+000  0.2055279E+03  0.7546771E-02  0.1145157E+00
         21   -1    0    0  501  502  0.00000000000E+00  0.00000000000E+00  0.11070002583E+03  0.11070002583E+03  0.00000000000E+00 0.  1.
         21   -1    0    0  502  503 -0.00000000000E+00 -0.00000000000E+00 -0.45690300972E+03  0.45690300972E+03  0.00000000000E+00 0. -1.
          6    1    1    2  501    0 -0.74610093123E+02 -0.82134464447E+02 -0.28832608181E+03  0.35408143936E+03  0.17300000000E+03 0. -1.
         -6    1    1    2    0  503  0.74610093123E+02  0.82134464447E+02 -0.57876902077E+02  0.21352159619E+03  0.17300000000E+03 0.  1.
<mgrwt>
<rscale>  2 0.20552795E+03</rscale>
<asrwt>0</asrwt>
<pdfrwt beam="1">  1       21 0.17030773E-01 0.20552795E+03</pdfrwt>
<pdfrwt beam="2">  1       21 0.70292771E-01 0.20552795E+03</pdfrwt>
<totfact> 0.56734381E+04</totfact>
</mgrwt>
</event>
<event>
 4    3  0.4041078E+000  0.1794395E+03  0.7546771E-02  0.1168347E+00
         21   -1    0    0  503  502  0.00000000000E+00  0.00000000000E+00  0.15294152087E+04  0.15294152087E+04  0.00000000000E+00 0.  1.
         21   -1    0    0  501  503 -0.00000000000E+00 -0.00000000000E+00 -0.21359343529E+02  0.21359343529E+02  0.00000000000E+00 0.  1.
          6    1    1    2  501    0  0.45951538567E+02  0.12569141098E+02  0.84691290586E+03  0.86571357695E+03  0.17300000000E+03 0. -1.
         -6    1    1    2    0  502 -0.45951538567E+02 -0.12569141098E+02  0.66114295936E+03  0.68506097532E+03  0.17300000000E+03 0. -1.
<mgrwt>
<rscale>  2 0.17943948E+03</rscale>
<asrwt>0</asrwt>
<pdfrwt beam="1">  1       21 0.23529456E+00 0.17943948E+03</pdfrwt>
<pdfrwt beam="2">  1       21 0.32860540E-02 0.17943948E+03</pdfrwt>
<totfact> 0.44663375E+04</totfact>
</mgrwt>
</event>
<event>
 4    3  0.4041078E+000  0.1836550E+03  0.7546771E-02  0.1164312E+00
         21   -1    0    0  503  502  0.00000000000E+00  0.00000000000E+00  0.84313126854E+02  0.84313126854E+02  0.00000000000E+00 0. -1.
         21   -1    0    0  501  503 -0.00000000000E+00 -0.00000000000E+00 -0.55390914069E+03  0.55390914069E+03  0.00000000000E+00 0. -1.
          6    1    1    2  501    0 -0.76427499370E+01 -0.61169920984E+02 -0.40298379295E+03  0.44286014524E+03  0.17300000000E+03 0.  1.
         -6    1    1    2    0  502  0.76427499370E+01  0.61169920984E+02 -0.66612220884E+02  0.19536212230E+03  0.17300000000E+03 0.  1.
<mgrwt>
<rscale>  2 0.18365503E+03</rscale>
<asrwt>0</asrwt>
<pdfrwt beam="1">  1       21 0.12971250E-01 0.18365503E+03</pdfrwt>
<pdfrwt beam="2">  1       21 0.85216790E-01 0.18365503E+03</pdfrwt>
<totfact> 0.61047966E+04</totfact>
</mgrwt>
</event>
<event>
 4    3  0.4041078E+000  0.1730229E+03  0.7546771E-02  0.1174732E+00
         21   -1    0    0  501  502  0.00000000000E+00  0.00000000000E+00  0.14023644167E+03  0.14023644167E+03  0.00000000000E+00 0.  1.
         21   -1    0    0  502  503 -0.00000000000E+00 -0.00000000000E+00 -0.43017463761E+03  0.43017463761E+03  0.00000000000E+00 0.  1.
          6    1    1    2  501    0  0.81402750567E+00  0.26953934852E+01  0.57456290517E+02  0.18231333771E+03  0.17300000000E+03 0.  1.
         -6    1    1    2    0  503 -0.81402750567E+00 -0.26953934852E+01 -0.34739448646E+03  0.38809774157E+03  0.17300000000E+03 0.  1.
<mgrwt>
<rscale>  2 0.17302291E+03</rscale>
<asrwt>0</asrwt>
<pdfrwt beam="1">  1       21 0.21574838E-01 0.17302291E+03</pdfrwt>
<pdfrwt beam="2">  1       21 0.66180712E-01 0.17302291E+03</pdfrwt>
<totfact> 0.42385696E+04</totfact>
</mgrwt>
</event>
<event>
 4    3  0.4041078E+000  0.1750361E+03  0.7546771E-02  0.1172695E+00
         21   -1    0    0  503  502  0.00000000000E+00  0.00000000000E+00  0.24328173444E+03  0.24328173444E+03  0.00000000000E+00 0.  1.
         21   -1    0    0  501  503 -0.00000000000E+00 -0.00000000000E+00 -0.12945995500E+03  0.12945995500E+03  0.00000000000E+00 0.  1.
          6    1    1    2  501    0 -0.17738669375E+02 -0.19848655401E+02  0.26156922726E+02  0.17697969974E+03  0.17300000000E+03 0.  1.
         -6    1    1    2    0  502  0.17738669375E+02  0.19848655401E+02  0.87664856709E+02  0.19576198971E+03  0.17300000000E+03 0.  1.
<mgrwt>
<rscale>  2 0.17503608E+03</rscale>
<asrwt>0</asrwt>
<pdfrwt beam="1">  1       21 0.37427959E-01 0.17503608E+03</pdfrwt>
<pdfrwt beam="2">  1       21 0.19916916E-01 0.17503608E+03</pdfrwt>
<totfact> 0.16105117E+05</totfact>
</mgrwt>
</event>
<event>
 4    3  0.4041078E+000  0.1963324E+03  0.7546771E-02  0.1152871E+00
         21   -1    0    0  501  502  0.00000000000E+00  0.00000000000E+00  0.11975081877E+03  0.11975081877E+03  0.00000000000E+00 0.  1.
         21   -1    0    0  502  503 -0.00000000000E+00 -0.00000000000E+00 -0.34919733463E+03  0.34919733463E+03  0.00000000000E+00 0.  1.
          6    1    1    2  501    0 -0.83419622327E+02 -0.40725652633E+02 -0.49152393534E+02  0.20239162523E+03  0.17300000000E+03 0.  1.
         -6    1    1    2    0  503  0.83419622327E+02  0.40725652633E+02 -0.18029412232E+03  0.26655652818E+03  0.17300000000E+03 0.  1.
<mgrwt>
<rscale>  2 0.19633240E+03</rscale>
<asrwt>0</asrwt>
<pdfrwt beam="1">  1       21 0.18423203E-01 0.19633240E+03</pdfrwt>
<pdfrwt beam="2">  1       21 0.53722667E-01 0.19633240E+03</pdfrwt>
<totfact> 0.88020087E+04</totfact>
</mgrwt>
</event>
<event>
 4    3  0.4041078E+000  0.1774738E+03  0.7546771E-02  0.1170271E+00
         21   -1    0    0  503  502  0.00000000000E+00  0.00000000000E+00  0.24442920158E+03  0.24442920158E+03  0.00000000000E+00 0. -1.
         21   -1    0    0  501  503 -0.00000000000E+00 -0.00000000000E+00 -0.13036424842E+03  0.13036424842E+03  0.00000000000E+00 0. -1.
          6    1    1    2  501    0  0.19733834036E-01  0.39597502183E+02  0.36897488779E+02  0.18126882591E+03  0.17300000000E+03 0. -1.
         -6    1    1    2    0  502 -0.19733834036E-01 -0.39597502183E+02  0.77167464388E+02  0.19352462409E+03  0.17300000000E+03 0. -1.
<mgrwt>
<rscale>  2 0.17747384E+03</rscale>
<asrwt>0</asrwt>
<pdfrwt beam="1">  1       21 0.37604492E-01 0.17747384E+03</pdfrwt>
<pdfrwt beam="2">  1       21 0.20056038E-01 0.17747384E+03</pdfrwt>
<totfact> 0.15736301E+05</totfact>
</mgrwt>
</event>
<event>
 4    3  0.4041078E+000  0.1972310E+03  0.7546771E-02  0.1152096E+00
         21   -1    0    0  501  502  0.00000000000E+00  0.00000000000E+00  0.34430397647E+03  0.34430397647E+03  0.00000000000E+00 0.  1.
         21   -1    0    0  502  503 -0.00000000000E+00 -0.00000000000E+00 -0.38418237078E+03  0.38418237078E+03  0.00000000000E+00 0.  1.
          6    1    1    2  501    0  0.28009195625E+02 -0.90479633055E+02  0.28609362977E+03  0.34749049488E+03  0.17300000000E+03 0.  1.
         -6    1    1    2    0  503 -0.28009195625E+02  0.90479633055E+02 -0.32597202408E+03  0.38099585237E+03  0.17300000000E+03 0.  1.
<mgrwt>
<rscale>  2 0.19723103E+03</rscale>
<asrwt>0</asrwt>
<pdfrwt beam="1">  1       21 0.52969843E-01 0.19723103E+03</pdfrwt>
<pdfrwt beam="2">  1       21 0.59104980E-01 0.19723103E+03</pdfrwt>
<totfact> 0.90074193E+03</totfact>
</mgrwt>
</event>
<event>
 4    3  0.4041078E+000  0.1816264E+03  0.7546771E-02  0.1166238E+00
         21   -1    0    0  503  502  0.00000000000E+00  0.00000000000E+00  0.83952466293E+03  0.83952466293E+03  0.00000000000E+00 0. -1.
         21   -1    0    0  501  503 -0.00000000000E+00 -0.00000000000E+00 -0.60291975742E+02  0.60291975742E+02  0.00000000000E+00 0. -1.
          6    1    1    2  501    0  0.55011927775E+02 -0.57311851916E+01  0.12410413142E+03  0.21997725818E+03  0.17300000000E+03 0. -1.
         -6    1    1    2    0  502 -0.55011927775E+02  0.57311851916E+01  0.65512855577E+03  0.67983938049E+03  0.17300000000E+03 0. -1.
<mgrwt>
<rscale>  2 0.18162643E+03</rscale>
<asrwt>0</asrwt>
<pdfrwt beam="1">  1       21 0.12915763E+00 0.18162643E+03</pdfrwt>
<pdfrwt beam="2">  1       21 0.92756892E-02 0.18162643E+03</pdfrwt>
<totfact> 0.40956171E+04</totfact>
</mgrwt>
</event>
<event>
 4    3  0.4041078E+000  0.2793350E+03  0.7546771E-02  0.1096053E+00
         21   -1    0    0  501  502  0.00000000000E+00  0.00000000000E+00  0.71260009122E+03  0.71260009122E+03  0.00000000000E+00 0.  1.
         21   -1    0    0  502  503 -0.00000000000E+00 -0.00000000000E+00 -0.13342557124E+03  0.13342557124E+03  0.00000000000E+00 0. -1.
          6    1    1    2  501    0  0.16168989057E+03  0.14817365124E+03  0.46872466712E+03  0.54564719847E+03  0.17300000000E+03 0.  1.
         -6    1    1    2    0  503 -0.16168989057E+03 -0.14817365124E+03  0.11044985287E+03  0.30037846400E+03  0.17300000000E+03 0. -1.
<mgrwt>
<rscale>  2 0.27933502E+03</rscale>
<asrwt>0</asrwt>
<pdfrwt beam="1">  1       21 0.10963078E+00 0.27933502E+03</pdfrwt>
<pdfrwt beam="2">  1       21 0.20527011E-01 0.27933502E+03</pdfrwt>
<totfact> 0.13773499E+04</totfact>
</mgrwt>
</event>
<event>
 4    3  0.4041078E+000  0.2966448E+03  0.7546771E-02  0.1086930E+00
         21   -1    0    0  501  502  0.00000000000E+00  0.00000000000E+00  0.28403265005E+03  0.28403265005E+03  0.00000000000E+00 0.  1.
         21   -1    0    0  502  503 -0.00000000000E+00 -0.00000000000E+00 -0.33588597430E+03  0.33588597430E+03  0.00000000000E+00 0. -1.
          6    1    1    2  501    0 -0.37754115630E+02 -0.23799944276E+03  0.60425212100E+02  0.30273637749E+03  0.17300000000E+03 0. -1.
         -6    1    1    2    0  503  0.37754115630E+02  0.23799944276E+03 -0.11227853635E+03  0.31718224686E+03  0.17300000000E+03 0.  1.
<mgrwt>
<rscale>  2 0.29664475E+03</rscale>
<asrwt>0</asrwt>
<pdfrwt beam="1">  1       21 0.43697331E-01 0.29664475E+03</pdfrwt>
<pdfrwt beam="2">  1       21 0.51674765E-01 0.29664475E+03</pdfrwt>
<totfact> 0.16971929E+04</totfact>
</mgrwt>
</event>
<event>
 4    3  0.4041078E+000  0.2552411E+03  0.7546771E-02  0.1110037E+00
         21   -1    0    0  503  502  0.00000000000E+00  0.00000000000E+00  0.22067768878E+03  0.22067768878E+03  0.00000000000E+00 0.  1.
         21   -1    0    0  501  503 -0.00000000000E+00 -0.00000000000E+00 -0.29864530286E+03  0.29864530286E+03  0.00000000000E+00 0.  1.
          6    1    1    2  501    0 -0.12015195807E+03  0.14416146141E+03 -0.66800638418E+02  0.26383772527E+03  0.17300000000E+03 0. -1.
         -6    1    1    2    0  502  0.12015195807E+03 -0.14416146141E+03 -0.11166975656E+02  0.25548526637E+03  0.17300000000E+03 0. -1.
<mgrwt>
<rscale>  2 0.25524110E+03</rscale>
<asrwt>0</asrwt>
<pdfrwt beam="1">  1       21 0.33950414E-01 0.25524110E+03</pdfrwt>
<pdfrwt beam="2">  1       21 0.45945431E-01 0.25524110E+03</pdfrwt>
<totfact> 0.36845613E+04</totfact>
</mgrwt>
</event>
<event>
 4    3  0.4041078E+000  0.2175944E+03  0.7546771E-02  0.1135689E+00
         21   -1    0    0  501  502  0.00000000000E+00  0.00000000000E+00  0.14914443241E+03  0.14914443241E+03  0.00000000000E+00 0.  1.
         21   -1    0    0  502  503 -0.00000000000E+00 -0.00000000000E+00 -0.45513198779E+03  0.45513198779E+03  0.00000000000E+00 0. -1.
          6    1    1    2  501    0  0.12440905938E+03  0.44053526423E+02  0.13179215747E+02  0.21799316268E+03  0.17300000000E+03 0.  1.
         -6    1    1    2    0  503 -0.12440905938E+03 -0.44053526423E+02 -0.31916677113E+03  0.38628325752E+03  0.17300000000E+03 0. -1.
<mgrwt>
<rscale>  2 0.21759441E+03</rscale>
<asrwt>0</asrwt>
<pdfrwt beam="1">  1       21 0.22945298E-01 0.21759441E+03</pdfrwt>
<pdfrwt beam="2">  1       21 0.70020305E-01 0.21759441E+03</pdfrwt>
<totfact> 0.32578154E+04</totfact>
</mgrwt>
</event>
<event>
 4    3  0.4041078E+000  0.1767046E+03  0.7546771E-02  0.1171031E+00
         21   -1    0    0  503  502  0.00000000000E+00  0.00000000000E+00  0.52969990631E+03  0.52969990631E+03  0.00000000000E+00 0. -1.
         21   -1    0    0  501  503 -0.00000000000E+00 -0.00000000000E+00 -0.67549939191E+02  0.67549939191E+02  0.00000000000E+00 0.  1.
          6    1    1    2  501    0  0.61285583915E+01  0.35467462787E+02  0.12450775682E+03  0.21616355302E+03  0.17300000000E+03 0.  1.
         -6    1    1    2    0  502 -0.61285583915E+01 -0.35467462787E+02  0.33764221030E+03  0.38108629249E+03  0.17300000000E+03 0. -1.
<mgrwt>
<rscale>  2 0.17670456E+03</rscale>
<asrwt>0</asrwt>
<pdfrwt beam="1">  1       21 0.81492291E-01 0.17670456E+03</pdfrwt>
<pdfrwt beam="2">  1       21 0.10392299E-01 0.17670456E+03</pdfrwt>
<totfact> 0.10062151E+05</totfact>
</mgrwt>
</event>
<event>
 4    3  0.4041078E+000  0.1797739E+03  0.7546771E-02  0.1168022E+00
         21   -1    0    0  501  502  0.00000000000E+00  0.00000000000E+00  0.13313254359E+03  0.13313254359E+03  0.00000000000E+00 0.  1.
         21   -1    0    0  502  503 -0.00000000000E+00 -0.00000000000E+00 -0.70876803026E+03  0.70876803026E+03  0.00000000000E+00 0.  1.
          6    1    1    2  501    0  0.38769103448E+02  0.29776323004E+02  0.53514639366E+02  0.18756995874E+03  0.17300000000E+03 0.  1.
         -6    1    1    2    0  503 -0.38769103448E+02 -0.29776323004E+02 -0.62915012604E+03  0.65433061512E+03  0.17300000000E+03 0.  1.
<mgrwt>
<rscale>  2 0.17977395E+03</rscale>
<asrwt>0</asrwt>
<pdfrwt beam="1">  1       21 0.20481930E-01 0.17977395E+03</pdfrwt>
<pdfrwt beam="2">  1       21 0.10904123E+00 0.17977395E+03</pdfrwt>
<totfact> 0.14854714E+04</totfact>
</mgrwt>
</event>
<event>
 4    3  0.4041078E+000  0.3363934E+03  0.7546771E-02  0.1068343E+00
         21   -1    0    0  501  502  0.00000000000E+00  0.00000000000E+00  0.54485509609E+03  0.54485509609E+03  0.00000000000E+00 0. -1.
         21   -1    0    0  502  503 -0.00000000000E+00 -0.00000000000E+00 -0.21452324876E+03  0.21452324876E+03  0.00000000000E+00 0.  1.
          6    1    1    2  501    0  0.28810767144E+03 -0.15015551011E+02  0.97396882035E+02  0.35020943698E+03  0.17300000000E+03 0.  1.
         -6    1    1    2    0  503 -0.28810767144E+03  0.15015551011E+02  0.23293496530E+03  0.40916890788E+03  0.17300000000E+03 0. -1.
<mgrwt>
<rscale>  2 0.33639337E+03</rscale>
<asrwt>0</asrwt>
<pdfrwt beam="1">  1       21 0.83823860E-01 0.33639337E+03</pdfrwt>
<pdfrwt beam="2">  1       21 0.33003577E-01 0.33639337E+03</pdfrwt>
<totfact> 0.10130331E+04</totfact>
</mgrwt>
</event>
<event>
 4    3  0.4041078E+000  0.2735405E+03  0.7546771E-02  0.1099270E+00
         21   -1    0    0  503  502  0.00000000000E+00  0.00000000000E+00  0.73571768297E+03  0.73571768297E+03  0.00000000000E+00 0.  1.
         21   -1    0    0  501  503 -0.00000000000E+00 -0.00000000000E+00 -0.10588448477E+03  0.10588448477E+03  0.00000000000E+00 0.  1.
          6    1    1    2  501    0 -0.19765735043E+03 -0.76334783812E+02  0.23128991638E+03  0.35821704708E+03  0.17300000000E+03 0.  1.
         -6    1    1    2    0  502  0.19765735043E+03  0.76334783812E+02  0.39854328182E+03  0.48338512067E+03  0.17300000000E+03 0.  1.
<mgrwt>
<rscale>  2 0.27354054E+03</rscale>
<asrwt>0</asrwt>
<pdfrwt beam="1">  1       21 0.11318733E+00 0.27354054E+03</pdfrwt>
<pdfrwt beam="2">  1       21 0.16289921E-01 0.27354054E+03</pdfrwt>
<totfact> 0.19668695E+04</totfact>
</mgrwt>
</event>
<event>
 4    3  0.4041078E+000  0.2023345E+03  0.7546771E-02  0.1147784E+00
         21   -1    0    0  501  502  0.00000000000E+00  0.00000000000E+00  0.12880860061E+03  0.12880860061E+03  0.00000000000E+00 0.  1.
         21   -1    0    0  502  503 -0.00000000000E+00 -0.00000000000E+00 -0.31948404443E+03  0.31948404443E+03  0.00000000000E+00 0.  1.
          6    1    1    2  501    0 -0.78478719708E+02  0.69651660937E+02 -0.79210694113E+02  0.21728690108E+03  0.17300000000E+03 0.  1.
         -6    1    1    2    0  503  0.78478719708E+02 -0.69651660937E+02 -0.11146474971E+03  0.23100574397E+03  0.17300000000E+03 0.  1.
<mgrwt>
<rscale>  2 0.20233453E+03</rscale>
<asrwt>0</asrwt>
<pdfrwt beam="1">  1       21 0.19816708E-01 0.20233453E+03</pdfrwt>
<pdfrwt beam="2">  1       21 0.49151391E-01 0.20233453E+03</pdfrwt>
<totfact> 0.92356927E+04</totfact>
</mgrwt>
</event>
<event>
 4    3  0.4041078E+000  0.2064448E+03  0.7546771E-02  0.1144413E+00
         21   -1    0    0  503  502  0.00000000000E+00  0.00000000000E+00  0.91397820001E+02  0.91397820001E+02  0.00000000000E+00 0. -1.
         21   -1    0    0  501  503 -0.00000000000E+00 -0.00000000000E+00 -0.56510617057E+03  0.56510617057E+03  0.00000000000E+00 0. -1.
          6    1    1    2  501    0 -0.63457151971E+02  0.93078788977E+02 -0.99602286506E+02  0.22921624413E+03  0.17300000000E+03 0. -1.
         -6    1    1    2    0  502  0.63457151971E+02 -0.93078788977E+02 -0.37410606407E+03  0.42728774645E+03  0.17300000000E+03 0. -1.
<mgrwt>
<rscale>  2 0.20644484E+03</rscale>
<asrwt>0</asrwt>
<pdfrwt beam="1">  1       21 0.14061203E-01 0.20644484E+03</pdfrwt>
<pdfrwt beam="2">  1       21 0.86939410E-01 0.20644484E+03</pdfrwt>
<totfact> 0.49848781E+04</totfact>
</mgrwt>
</event>
<event>
 4    3  0.4041078E+000  0.1786962E+03  0.7546771E-02  0.1169071E+00
         21   -1    0    0  501  502  0.00000000000E+00  0.00000000000E+00  0.99792703773E+02  0.99792703773E+02  0.00000000000E+00 0.  1.
         21   -1    0    0  502  503 -0.00000000000E+00 -0.00000000000E+00 -0.99950405556E+03  0.99950405556E+03  0.00000000000E+00 0.  1.
          6    1    1    2  501    0 -0.43437735230E+02  0.10793235774E+02  0.33475280630E+01  0.17872754887E+03  0.17300000000E+03 0.  1.
         -6    1    1    2    0  503  0.43437735230E+02 -0.10793235774E+02 -0.90305887985E+03  0.92056921047E+03  0.17300000000E+03 0.  1.
<mgrwt>
<rscale>  2 0.17869620E+03</rscale>
<asrwt>0</asrwt>
<pdfrwt beam="1">  1       21 0.15352723E-01 0.17869620E+03</pdfrwt>
<pdfrwt beam="2">  1       21 0.15376986E+00 0.17869620E+03</pdfrwt>
<totfact> 0.10639271E+04</totfact>
</mgrwt>
</event>
<event>
 4    3  0.4041078E+000  0.2033336E+03  0.7546771E-02  0.1146957E+00
         21   -1    0    0  501  502  0.00000000000E+00  0.00000000000E+00  0.12138480284E+03  0.12138480284E+03  0.00000000000E+00 0. -1.
         21   -1    0    0  502  503 -0.00000000000E+00 -0.00000000000E+00 -0.80566879426E+03  0.80566879426E+03  0.00000000000E+00 0. -1.
          6    1    1    2  501    0 -0.68231937555E+02  0.82219018608E+02  0.10027481385E+02  0.20358073265E+03  0.17300000000E+03 0. -1.
         -6    1    1    2    0  503  0.68231937555E+02 -0.82219018608E+02 -0.69431147280E+03  0.72347286444E+03  0.17300000000E+03 0. -1.
<mgrwt>
<rscale>  2 0.20333363E+03</rscale>
<asrwt>0</asrwt>
<pdfrwt beam="1">  1       21 0.18674585E-01 0.20333363E+03</pdfrwt>
<pdfrwt beam="2">  1       21 0.12394904E+00 0.20333363E+03</pdfrwt>
<totfact> 0.12682977E+04</totfact>
</mgrwt>
</event>
<event>
 4    3  0.4041078E+000  0.1796202E+03  0.7546771E-02  0.1168171E+00
         21   -1    0    0  501  502  0.00000000000E+00  0.00000000000E+00  0.56882647426E+02  0.56882647426E+02  0.00000000000E+00 0. -1.
         21   -1    0    0  502  503 -0.00000000000E+00 -0.00000000000E+00 -0.10339836970E+04  0.10339836970E+04  0.00000000000E+00 0. -1.
          6    1    1    2  501    0 -0.41714943237E+02  0.24377897821E+02 -0.12207416076E+03  0.21717623976E+03  0.17300000000E+03 0. -1.
         -6    1    1    2    0  503  0.41714943237E+02 -0.24377897821E+02 -0.85502688877E+03  0.87369010462E+03  0.17300000000E+03 0. -1.
<mgrwt>
<rscale>  2 0.17962021E+03</rscale>
<asrwt>0</asrwt>
<pdfrwt beam="1">  1       21 0.87511769E-02 0.17962021E+03</pdfrwt>
<pdfrwt beam="2">  1       21 0.15907441E+00 0.17962021E+03</pdfrwt>
<totfact> 0.26456973E+04</totfact>
</mgrwt>
</event>
<event>
 4    3  0.4041078E+000  0.2615354E+03  0.7546771E-02  0.1106224E+00
         21   -1    0    0  503  502  0.00000000000E+00  0.00000000000E+00  0.60615322654E+02  0.60615322654E+02  0.00000000000E+00 0.  1.
         21   -1    0    0  501  503 -0.00000000000E+00 -0.00000000000E+00 -0.11284402133E+04  0.11284402133E+04  0.00000000000E+00 0.  1.
          6    1    1    2  501    0 -0.11331236476E+03  0.16010017871E+03 -0.53370416911E+03  0.59434072665E+03  0.17300000000E+03 0.  1.
         -6    1    1    2    0  502  0.11331236476E+03 -0.16010017871E+03 -0.53412072155E+03  0.59471480932E+03  0.17300000000E+03 0.  1.
<mgrwt>
<rscale>  2 0.26153539E+03</rscale>
<asrwt>0</asrwt>
<pdfrwt beam="1">  1       21 0.93254355E-02 0.26153539E+03</pdfrwt>
<pdfrwt beam="2">  1       21 0.17360616E+00 0.26153539E+03</pdfrwt>
<totfact> 0.17682513E+04</totfact>
</mgrwt>
</event>
<event>
 4    3  0.4041078E+000  0.2335944E+03  0.7546771E-02  0.1124135E+00
         21   -1    0    0  503  502  0.00000000000E+00  0.00000000000E+00  0.91544412479E+03  0.91544412479E+03  0.00000000000E+00 0. -1.
         21   -1    0    0  501  503 -0.00000000000E+00 -0.00000000000E+00 -0.60302538892E+02  0.60302538892E+02  0.00000000000E+00 0.  1.
          6    1    1    2  501    0  0.13817635316E+03 -0.74462186059E+02  0.37515168819E+03  0.44193337832E+03  0.17300000000E+03 0.  1.
         -6    1    1    2    0  502 -0.13817635316E+03  0.74462186059E+02  0.47998989771E+03  0.53381328536E+03  0.17300000000E+03 0.  1.
<mgrwt>
<rscale>  2 0.23359435E+03</rscale>
<asrwt>0</asrwt>
<pdfrwt beam="1">  1       21 0.14083755E+00 0.23359435E+03</pdfrwt>
<pdfrwt beam="2">  1       21 0.92773143E-02 0.23359435E+03</pdfrwt>
<totfact> 0.31874714E+04</totfact>
</mgrwt>
</event>
<event>
 4    3  0.4041078E+000  0.1751447E+03  0.7546771E-02  0.1172586E+00
         21   -1    0    0  501  502  0.00000000000E+00  0.00000000000E+00  0.44115609034E+03  0.44115609034E+03  0.00000000000E+00 0.  1.
         21   -1    0    0  502  503 -0.00000000000E+00 -0.00000000000E+00 -0.86746372644E+02  0.86746372644E+02  0.00000000000E+00 0.  1.
          6    1    1    2  501    0 -0.44364021658E+01  0.26962914350E+02  0.29477820614E+03  0.34288463254E+03  0.17300000000E+03 0.  1.
         -6    1    1    2    0  503  0.44364021658E+01 -0.26962914350E+02  0.59631511563E+02  0.18501783045E+03  0.17300000000E+03 0.  1.
<mgrwt>
<rscale>  2 0.17514474E+03</rscale>
<asrwt>0</asrwt>
<pdfrwt beam="1">  1       21 0.67870167E-01 0.17514474E+03</pdfrwt>
<pdfrwt beam="2">  1       21 0.13345596E-01 0.17514474E+03</pdfrwt>
<totfact> 0.96816995E+04</totfact>
</mgrwt>
</event>
<event>
 4    3  0.4041078E+000  0.3681531E+03  0.7546771E-02  0.1055401E+00
         21   -1    0    0  501  502  0.00000000000E+00  0.00000000000E+00  0.28309216379E+03  0.28309216379E+03  0.00000000000E+00 0. -1.
         21   -1    0    0  502  503 -0.00000000000E+00 -0.00000000000E+00 -0.56299993430E+03  0.56299993430E+03  0.00000000000E+00 0.  1.
          6    1    1    2  501    0 -0.99503642409E+02  0.30936503009E+03  0.23675266359E+02  0.36891356025E+03  0.17300000000E+03 0.  1.
         -6    1    1    2    0  503  0.99503642409E+02 -0.30936503009E+03 -0.30358303687E+03  0.47717853784E+03  0.17300000000E+03 0. -1.
<mgrwt>
<rscale>  2 0.36815309E+03</rscale>
<asrwt>0</asrwt>
<pdfrwt beam="1">  1       21 0.43552641E-01 0.36815309E+03</pdfrwt>
<pdfrwt beam="2">  1       21 0.86615374E-01 0.36815309E+03</pdfrwt>
<totfact> 0.52706310E+03</totfact>
</mgrwt>
</event>
<event>
 4    3  0.4041078E+000  0.2360906E+03  0.7546771E-02  0.1122425E+00
         21   -1    0    0  501  502  0.00000000000E+00  0.00000000000E+00  0.12765154000E+04  0.12765154000E+04  0.00000000000E+00 0.  1.
         21   -1    0    0  502  503 -0.00000000000E+00 -0.00000000000E+00 -0.48876642132E+02  0.48876642132E+02  0.00000000000E+00 0.  1.
          6    1    1    2  501    0  0.28489138218E+02 -0.15810806127E+03  0.83022039481E+03  0.86313654424E+03  0.17300000000E+03 0.  1.
         -6    1    1    2    0  503 -0.28489138218E+02  0.15810806127E+03  0.39741836303E+03  0.46225549787E+03  0.17300000000E+03 0.  1.
<mgrwt>
<rscale>  2 0.23609064E+03</rscale>
<asrwt>0</asrwt>
<pdfrwt beam="1">  1       21 0.19638696E+00 0.23609064E+03</pdfrwt>
<pdfrwt beam="2">  1       21 0.75194844E-02 0.23609064E+03</pdfrwt>
<totfact> 0.18356149E+04</totfact>
</mgrwt>
</event>
<event>
 4    3  0.4041078E+000  0.1969321E+03  0.7546771E-02  0.1152354E+00
         21   -1    0    0  501  502  0.00000000000E+00  0.00000000000E+00  0.15871468000E+04  0.15871468000E+04  0.00000000000E+00 0.  1.
         21   -1    0    0  502  503 -0.00000000000E+00 -0.00000000000E+00 -0.74765117456E+02  0.74765117456E+02  0.00000000000E+00 0. -1.
          6    1    1    2  501    0  0.53668983820E+02  0.77284507216E+02  0.14379666558E+04  0.14513891132E+04  0.17300000000E+03 0.  1.
         -6    1    1    2    0  503 -0.53668983820E+02 -0.77284507216E+02  0.74415026731E+02  0.21052280419E+03  0.17300000000E+03 0. -1.
<mgrwt>
<rscale>  2 0.19693211E+03</rscale>
<asrwt>0</asrwt>
<pdfrwt beam="1">  1       21 0.24417641E+00 0.19693211E+03</pdfrwt>
<pdfrwt beam="2">  1       21 0.11502327E-01 0.19693211E+03</pdfrwt>
<totfact> 0.45349640E+03</totfact>
</mgrwt>
</event>
<event>
 4    3  0.4041078E+000  0.2148472E+03  0.7546771E-02  0.1137784E+00
         21   -1    0    0  501  502  0.00000000000E+00  0.00000000000E+00  0.11525534636E+04  0.11525534636E+04  0.00000000000E+00 0.  1.
         21   -1    0    0  502  503 -0.00000000000E+00 -0.00000000000E+00 -0.47262611247E+02  0.47262611247E+02  0.00000000000E+00 0.  1.
          6    1    1    2  501    0 -0.11794482008E+03 -0.48159670667E+02  0.31828549355E+03  0.38401170537E+03  0.17300000000E+03 0.  1.
         -6    1    1    2    0  503  0.11794482008E+03  0.48159670667E+02  0.78700535882E+03  0.81580436949E+03  0.17300000000E+03 0.  1.
<mgrwt>
<rscale>  2 0.21484724E+03</rscale>
<asrwt>0</asrwt>
<pdfrwt beam="1">  1       21 0.17731590E+00 0.21484724E+03</pdfrwt>
<pdfrwt beam="2">  1       21 0.72711719E-02 0.21484724E+03</pdfrwt>
<totfact> 0.26489629E+04</totfact>
</mgrwt>
</event>
<event>
 4    3  0.4041078E+000  0.2563329E+03  0.7546771E-02  0.1109367E+00
         21   -1    0    0  501  502  0.00000000000E+00  0.00000000000E+00  0.52767438145E+03  0.52767438145E+03  0.00000000000E+00 0.  1.
         21   -1    0    0  502  503 -0.00000000000E+00 -0.00000000000E+00 -0.15777426076E+03  0.15777426076E+03  0.00000000000E+00 0.  1.
          6    1    1    2  501    0  0.14424874079E+02  0.18859874524E+03  0.27608412598E+02  0.25781541487E+03  0.17300000000E+03 0.  1.
         -6    1    1    2    0  503 -0.14424874079E+02 -0.18859874524E+03  0.34229170809E+03  0.42763322734E+03  0.17300000000E+03 0.  1.
<mgrwt>
<rscale>  2 0.25633292E+03</rscale>
<asrwt>0</asrwt>
<pdfrwt beam="1">  1       21 0.81180673E-01 0.25633292E+03</pdfrwt>
<pdfrwt beam="2">  1       21 0.24272963E-01 0.25633292E+03</pdfrwt>
<totfact> 0.20595005E+04</totfact>
</mgrwt>
</event>
<event>
 4    3  0.4041078E+000  0.3729135E+03  0.7546771E-02  0.1053584E+00
         21   -1    0    0  501  502  0.00000000000E+00  0.00000000000E+00  0.28201211706E+03  0.28201211706E+03  0.00000000000E+00 0. -1.
         21   -1    0    0  502  503 -0.00000000000E+00 -0.00000000000E+00 -0.50346838178E+03  0.50346838178E+03  0.00000000000E+00 0. -1.
          6    1    1    2  501    0  0.32777752083E+03 -0.41199172503E+02 -0.16704717044E+03  0.40861868794E+03  0.17300000000E+03 0. -1.
         -6    1    1    2    0  503 -0.32777752083E+03  0.41199172503E+02 -0.54409094277E+02  0.37686181090E+03  0.17300000000E+03 0. -1.
<mgrwt>
<rscale>  2 0.37291350E+03</rscale>
<asrwt>0</asrwt>
<pdfrwt beam="1">  1       21 0.43386479E-01 0.37291350E+03</pdfrwt>
<pdfrwt beam="2">  1       21 0.77456675E-01 0.37291350E+03</pdfrwt>
<totfact> 0.68650176E+03</totfact>
</mgrwt>
</event>
<event>
 4    3  0.4041078E+000  0.2869995E+03  0.7546771E-02  0.1091926E+00
         21   -1    0    0  501  502  0.00000000000E+00  0.00000000000E+00  0.70036612935E+02  0.70036612935E+02  0.00000000000E+00 0. -1.
         21   -1    0    0  502  503 -0.00000000000E+00 -0.00000000000E+00 -0.18782543426E+04  0.18782543426E+04  0.00000000000E+00 0.  1.
          6    1    1    2  501    0  0.22747755573E+03 -0.26338202944E+02 -0.30848958817E+03  0.42134850813E+03  0.17300000000E+03 0. -1.
         -6    1    1    2    0  503 -0.22747755573E+03  0.26338202944E+02 -0.14997281415E+04  0.15269424474E+04  0.17300000000E+03 0.  1.
<mgrwt>
<rscale>  2 0.28699955E+03</rscale>
<asrwt>0</asrwt>
<pdfrwt beam="1">  1       21 0.10774862E-01 0.28699955E+03</pdfrwt>
<pdfrwt beam="2">  1       21 0.28896224E+00 0.28699955E+03</pdfrwt>
<totfact> 0.25591905E+03</totfact>
</mgrwt>
</event>
<event>
 4    3  0.4041078E+000  0.8131902E+03  0.7546771E-02  0.9541119E-01
         21   -1    0    0  503  502  0.00000000000E+00  0.00000000000E+00  0.69533320768E+03  0.69533320768E+03  0.00000000000E+00 0. -1.
         21   -1    0    0  501  503 -0.00000000000E+00 -0.00000000000E+00 -0.20967561963E+04  0.20967561963E+04  0.00000000000E+00 0.  1.
          6    1    1    2  501    0 -0.20541447184E+03  0.76756384315E+03 -0.17326812589E+04  0.19140174251E+04  0.17300000000E+03 0.  1.
         -6    1    1    2    0  502  0.20541447184E+03 -0.76756384315E+03  0.33125827027E+03  0.87807197892E+03  0.17300000000E+03 0. -1.
<mgrwt>
<rscale>  2 0.81319024E+03</rscale>
<asrwt>0</asrwt>
<pdfrwt beam="1">  1       21 0.10697434E+00 0.81319024E+03</pdfrwt>
<pdfrwt beam="2">  1       21 0.32257787E+00 0.81319024E+03</pdfrwt>
<totfact> 0.10646555E+01</totfact>
</mgrwt>
</event>
<event>
 4    3  0.4041078E+000  0.2003146E+03  0.7546771E-02  0.1149474E+00
         21   -1    0    0  501  502  0.00000000000E+00  0.00000000000E+00  0.64819130050E+02  0.64819130050E+02  0.00000000000E+00 0.  1.
         21   -1    0    0  502  503 -0.00000000000E+00 -0.00000000000E+00 -0.83773000540E+03  0.83773000540E+03  0.00000000000E+00 0.  1.
          6    1    1    2  501    0 -0.97574436396E+02  0.26003516363E+02 -0.15588777307E+03  0.25382464674E+03  0.17300000000E+03 0.  1.
         -6    1    1    2    0  503  0.97574436396E+02 -0.26003516363E+02 -0.61702310228E+03  0.64872448871E+03  0.17300000000E+03 0.  1.
<mgrwt>
<rscale>  2 0.20031464E+03</rscale>
<asrwt>0</asrwt>
<pdfrwt beam="1">  1       21 0.99721740E-02 0.20031464E+03</pdfrwt>
<pdfrwt beam="2">  1       21 0.12888154E+00 0.20031464E+03</pdfrwt>
<totfact> 0.35864501E+04</totfact>
</mgrwt>
</event>
<event>
 4    3  0.4041078E+000  0.2014462E+03  0.7546771E-02  0.1148525E+00
         21   -1    0    0  501  502  0.00000000000E+00  0.00000000000E+00  0.54289705060E+03  0.54289705060E+03  0.00000000000E+00 0. -1.
         21   -1    0    0  502  503 -0.00000000000E+00 -0.00000000000E+00 -0.82534747590E+02  0.82534747590E+02  0.00000000000E+00 0.  1.
          6    1    1    2  501    0  0.61768168779E+02 -0.82681811126E+02  0.32623249455E+03  0.38341652164E+03  0.17300000000E+03 0. -1.
         -6    1    1    2    0  503 -0.61768168779E+02  0.82681811126E+02  0.13412980845E+03  0.24201527655E+03  0.17300000000E+03 0.  1.
<mgrwt>
<rscale>  2 0.20144624E+03</rscale>
<asrwt>0</asrwt>
<pdfrwt beam="1">  1       21 0.83522621E-01 0.20144624E+03</pdfrwt>
<pdfrwt beam="2">  1       21 0.12697654E-01 0.20144624E+03</pdfrwt>
<totfact> 0.65864574E+04</totfact>
</mgrwt>
</event>
<event>
 4    3  0.4041078E+000  0.2019782E+03  0.7546771E-02  0.1148081E+00
         21   -1    0    0  503  502  0.00000000000E+00  0.00000000000E+00  0.69126192411E+02  0.69126192411E+02  0.00000000000E+00 0.  1.
         21   -1    0    0  501  503 -0.00000000000E+00 -0.00000000000E+00 -0.60064025598E+03  0.60064025598E+03  0.00000000000E+00 0. -1.
          6    1    1    2  501    0 -0.84123629508E+02  0.61558282952E+02 -0.31000200748E+03  0.36999520522E+03  0.17300000000E+03 0. -1.
         -6    1    1    2    0  502  0.84123629508E+02 -0.61558282952E+02 -0.22151205609E+03  0.29977124317E+03  0.17300000000E+03 0.  1.
<mgrwt>
<rscale>  2 0.20197823E+03</rscale>
<asrwt>0</asrwt>
<pdfrwt beam="1">  1       21 0.10634798E-01 0.20197823E+03</pdfrwt>
<pdfrwt beam="2">  1       21 0.92406197E-01 0.20197823E+03</pdfrwt>
<totfact> 0.71596689E+04</totfact>
</mgrwt>
</event>
<event>
 4    3  0.4041078E+000  0.1791838E+03  0.7546771E-02  0.1168595E+00
         21   -1    0    0  503  502  0.00000000000E+00  0.00000000000E+00  0.89971050578E+03  0.89971050578E+03  0.00000000000E+00 0. -1.
         21   -1    0    0  501  503 -0.00000000000E+00 -0.00000000000E+00 -0.42598504208E+02  0.42598504208E+02  0.00000000000E+00 0. -1.
          6    1    1    2  501    0 -0.35856317392E+02 -0.29868901405E+02  0.23875769179E+03  0.29851643532E+03  0.17300000000E+03 0. -1.
         -6    1    1    2    0  502  0.35856317392E+02  0.29868901405E+02  0.61835430979E+03  0.64379257467E+03  0.17300000000E+03 0. -1.
<mgrwt>
<rscale>  2 0.17918378E+03</rscale>
<asrwt>0</asrwt>
<pdfrwt beam="1">  1       21 0.13841699E+00 0.17918378E+03</pdfrwt>
<pdfrwt beam="2">  1       21 0.65536167E-02 0.17918378E+03</pdfrwt>
<totfact> 0.62880515E+04</totfact>
</mgrwt>
</event>
<event>
 4    3  0.4041078E+000  0.1905856E+03  0.7546771E-02  0.1157934E+00
         21   -1    0    0  503  502  0.00000000000E+00  0.00000000000E+00  0.70295875921E+02  0.70295875921E+02  0.00000000000E+00 0. -1.
         21   -1    0    0  501  503 -0.00000000000E+00 -0.00000000000E+00 -0.58821049819E+03  0.58821049819E+03  0.00000000000E+00 0. -1.
          6    1    1    2  501    0 -0.40659197378E+02 -0.68852853798E+02 -0.37374756383E+03  0.41953560906E+03  0.17300000000E+03 0. -1.
         -6    1    1    2    0  502  0.40659197378E+02  0.68852853798E+02 -0.14416705845E+03  0.23897076505E+03  0.17300000000E+03 0. -1.
<mgrwt>
<rscale>  2 0.19058564E+03</rscale>
<asrwt>0</asrwt>
<pdfrwt beam="1">  1       21 0.10814750E-01 0.19058564E+03</pdfrwt>
<pdfrwt beam="2">  1       21 0.90493925E-01 0.19058564E+03</pdfrwt>
<totfact> 0.73340346E+04</totfact>
</mgrwt>
</event>
<event>
 4    3  0.4041078E+000  0.2495502E+03  0.7546771E-02  0.1113589E+00
         21   -1    0    0  503  502  0.00000000000E+00  0.00000000000E+00  0.14317374184E+04  0.14317374184E+04  0.00000000000E+00 0.  1.
         21   -1    0    0  501  503 -0.00000000000E+00 -0.00000000000E+00 -0.44547846605E+02  0.44547846605E+02  0.00000000000E+00 0.  1.
          6    1    1    2  501    0 -0.94118574024E+02 -0.15325798888E+03  0.80700074545E+03  0.84470439817E+03  0.17300000000E+03 0.  1.
         -6    1    1    2    0  502  0.94118574024E+02  0.15325798888E+03  0.58018882632E+03  0.63158086681E+03  0.17300000000E+03 0.  1.
<mgrwt>
<rscale>  2 0.24955023E+03</rscale>
<asrwt>0</asrwt>
<pdfrwt beam="1">  1       21 0.22026726E+00 0.24955023E+03</pdfrwt>
<pdfrwt beam="2">  1       21 0.68535159E-02 0.24955023E+03</pdfrwt>
<totfact> 0.15064622E+04</totfact>
</mgrwt>
</event>
<event>
 4    3  0.4041078E+000  0.2580780E+03  0.7546771E-02  0.1108304E+00
         21   -1    0    0  501  502  0.00000000000E+00  0.00000000000E+00  0.11918391365E+03  0.11918391365E+03  0.00000000000E+00 0. -1.
         21   -1    0    0  502  503 -0.00000000000E+00 -0.00000000000E+00 -0.60905755367E+03  0.60905755367E+03  0.00000000000E+00 0.  1.
          6    1    1    2  501    0 -0.14410096364E+03  0.12613556192E+03 -0.34949574071E+03  0.43445545281E+03  0.17300000000E+03 0. -1.
         -6    1    1    2    0  503  0.14410096364E+03 -0.12613556192E+03 -0.14037789931E+03  0.29378601450E+03  0.17300000000E+03 0. -1.
<mgrwt>
<rscale>  2 0.25807803E+03</rscale>
<asrwt>0</asrwt>
<pdfrwt beam="1">  1       21 0.18335987E-01 0.25807803E+03</pdfrwt>
<pdfrwt beam="2">  1       21 0.93701162E-01 0.25807803E+03</pdfrwt>
<totfact> 0.25075780E+04</totfact>
</mgrwt>
</event>
<event>
 4    3  0.4041078E+000  0.1784912E+03  0.7546771E-02  0.1169271E+00
         21   -1    0    0  501  502  0.00000000000E+00  0.00000000000E+00  0.10021036022E+03  0.10021036022E+03  0.00000000000E+00 0.  1.
         21   -1    0    0  502  503 -0.00000000000E+00 -0.00000000000E+00 -0.48764530041E+03  0.48764530041E+03  0.00000000000E+00 0.  1.
          6    1    1    2  501    0  0.45087560613E+01 -0.43700931773E+02 -0.20313459327E+02  0.17964336044E+03  0.17300000000E+03 0.  1.
         -6    1    1    2    0  503 -0.45087560613E+01  0.43700931773E+02 -0.36712148086E+03  0.40821230019E+03  0.17300000000E+03 0.  1.
<mgrwt>
<rscale>  2 0.17849118E+03</rscale>
<asrwt>0</asrwt>
<pdfrwt beam="1">  1       21 0.15416978E-01 0.17849118E+03</pdfrwt>
<pdfrwt beam="2">  1       21 0.75022355E-01 0.17849118E+03</pdfrwt>
<totfact> 0.59676642E+04</totfact>
</mgrwt>
</event>
<event>
 4    3  0.4041078E+000  0.1799444E+03  0.7546771E-02  0.1167857E+00
         21   -1    0    0  501  502  0.00000000000E+00  0.00000000000E+00  0.23303445109E+03  0.23303445109E+03  0.00000000000E+00 0.  1.
         21   -1    0    0  502  503 -0.00000000000E+00 -0.00000000000E+00 -0.17126754895E+03  0.17126754895E+03  0.00000000000E+00 0.  1.
          6    1    1    2  501    0  0.19429580583E+02  0.45535280751E+02  0.11869716871E+03  0.21556666777E+03  0.17300000000E+03 0.  1.
         -6    1    1    2    0  503 -0.19429580583E+02 -0.45535280751E+02 -0.56930266575E+02  0.18873533227E+03  0.17300000000E+03 0.  1.
<mgrwt>
<rscale>  2 0.17994435E+03</rscale>
<asrwt>0</asrwt>
<pdfrwt beam="1">  1       21 0.35851454E-01 0.17994435E+03</pdfrwt>
<pdfrwt beam="2">  1       21 0.26348854E-01 0.17994435E+03</pdfrwt>
<totfact> 0.10324527E+05</totfact>
</mgrwt>
</event>
<event>
 4    3  0.4041078E+000  0.1923836E+03  0.7546771E-02  0.1156329E+00
         21   -1    0    0  501  502  0.00000000000E+00  0.00000000000E+00  0.67698146926E+03  0.67698146926E+03  0.00000000000E+00 0.  1.
         21   -1    0    0  502  503 -0.00000000000E+00 -0.00000000000E+00 -0.80302597587E+02  0.80302597587E+02  0.00000000000E+00 0.  1.
          6    1    1    2  501    0  0.82758814806E+02  0.15278060195E+02  0.51225851929E+03  0.54719304741E+03  0.17300000000E+03 0.  1.
         -6    1    1    2    0  503 -0.82758814806E+02 -0.15278060195E+02  0.84420352386E+02  0.21009101944E+03  0.17300000000E+03 0.  1.
<mgrwt>
<rscale>  2 0.19238358E+03</rscale>
<asrwt>0</asrwt>
<pdfrwt beam="1">  1       21 0.10415099E+00 0.19238358E+03</pdfrwt>
<pdfrwt beam="2">  1       21 0.12354246E-01 0.19238358E+03</pdfrwt>
<totfact> 0.41505585E+04</totfact>
</mgrwt>
</event>
<event>
 4    3  0.4041078E+000  0.2117692E+03  0.7546771E-02  0.1140173E+00
         21   -1    0    0  503  502  0.00000000000E+00  0.00000000000E+00  0.10444429158E+04  0.10444429158E+04  0.00000000000E+00 0. -1.
         21   -1    0    0  501  503 -0.00000000000E+00 -0.00000000000E+00 -0.82053513377E+02  0.82053513377E+02  0.00000000000E+00 0. -1.
          6    1    1    2  501    0 -0.12192937890E+03 -0.71019586430E+01  0.92305245040E+02  0.23101183848E+03  0.17300000000E+03 0. -1.
         -6    1    1    2    0  502  0.12192937890E+03  0.71019586430E+01  0.87008415741E+03  0.89548459073E+03  0.17300000000E+03 0. -1.
<mgrwt>
<rscale>  2 0.21176924E+03</rscale>
<asrwt>0</asrwt>
<pdfrwt beam="1">  1       21 0.16068352E+00 0.21176924E+03</pdfrwt>
<pdfrwt beam="2">  1       21 0.12623618E-01 0.21176924E+03</pdfrwt>
<totfact> 0.13149676E+04</totfact>
</mgrwt>
</event>
<event>
 4    3  0.4041078E+000  0.1734720E+03  0.7546771E-02  0.1174275E+00
         21   -1    0    0  501  502  0.00000000000E+00  0.00000000000E+00  0.97459348123E+03  0.97459348123E+03  0.00000000000E+00 0.  1.
         21   -1    0    0  502  503 -0.00000000000E+00 -0.00000000000E+00 -0.32409518901E+02  0.32409518901E+02  0.00000000000E+00 0.  1.
          6    1    1    2  501    0  0.88434259713E+01  0.92366182203E+01  0.36160370149E+03  0.40106079119E+03  0.17300000000E+03 0.  1.
         -6    1    1    2    0  503 -0.88434259713E+01 -0.92366182203E+01  0.58058026084E+03  0.60594220894E+03  0.17300000000E+03 0.  1.
<mgrwt>
<rscale>  2 0.17347196E+03</rscale>
<asrwt>0</asrwt>
<pdfrwt beam="1">  1       21 0.14993744E+00 0.17347196E+03</pdfrwt>
<pdfrwt beam="2">  1       21 0.49860806E-02 0.17347196E+03</pdfrwt>
<totfact> 0.81662921E+04</totfact>
</mgrwt>
</event>
<event>
 4    3  0.4041078E+000  0.1907353E+03  0.7546771E-02  0.1157800E+00
         21   -1    0    0  503  502  0.00000000000E+00  0.00000000000E+00  0.66472283482E+03  0.66472283482E+03  0.00000000000E+00 0. -1.
         21   -1    0    0  501  503 -0.00000000000E+00 -0.00000000000E+00 -0.57124326108E+02  0.57124326108E+02  0.00000000000E+00 0. -1.
          6    1    1    2  501    0  0.12512999062E+02 -0.79337200587E+02  0.22990014100E+03  0.29872067450E+03  0.17300000000E+03 0. -1.
         -6    1    1    2    0  502 -0.12512999062E+02  0.79337200587E+02  0.37769836771E+03  0.42312648642E+03  0.17300000000E+03 0. -1.
<mgrwt>
<rscale>  2 0.19073533E+03</rscale>
<asrwt>0</asrwt>
<pdfrwt beam="1">  1       21 0.10226505E+00 0.19073533E+03</pdfrwt>
<pdfrwt beam="2">  1       21 0.87883583E-02 0.19073533E+03</pdfrwt>
<totfact> 0.79332286E+04</totfact>
</mgrwt>
</event>
<event>
 4    3  0.4041078E+000  0.2832093E+03  0.7546771E-02  0.1093949E+00
         21   -1    0    0  501  502  0.00000000000E+00  0.00000000000E+00  0.62799597585E+02  0.62799597585E+02  0.00000000000E+00 0.  1.
         21   -1    0    0  502  503 -0.00000000000E+00 -0.00000000000E+00 -0.13239133414E+04  0.13239133414E+04  0.00000000000E+00 0. -1.
          6    1    1    2  501    0  0.27361644379E+02 -0.22255296681E+03 -0.76080136074E+03  0.81180428252E+03  0.17300000000E+03 0. -1.
         -6    1    1    2    0  503 -0.27361644379E+02  0.22255296681E+03 -0.50031238311E+03  0.57490865649E+03  0.17300000000E+03 0.  1.
<mgrwt>
<rscale>  2 0.28320926E+03</rscale>
<asrwt>0</asrwt>
<pdfrwt beam="1">  1       21 0.96614766E-02 0.28320926E+03</pdfrwt>
<pdfrwt beam="2">  1       21 0.20367897E+00 0.28320926E+03</pdfrwt>
<totfact> 0.10284814E+04</totfact>
</mgrwt>
</event>
<event>
 4    3  0.4041078E+000  0.2908751E+03  0.7546771E-02  0.1089893E+00
         21   -1    0    0  503  502  0.00000000000E+00  0.00000000000E+00  0.34142265501E+03  0.34142265501E+03  0.00000000000E+00 0.  1.
         21   -1    0    0  501  503 -0.00000000000E+00 -0.00000000000E+00 -0.24982027243E+03  0.24982027243E+03  0.00000000000E+00 0. -1.
          6    1    1    2  501    0 -0.14727098836E+03 -0.18163305257E+03  0.19289640630E+02  0.29151397914E+03  0.17300000000E+03 0. -1.
         -6    1    1    2    0  502  0.14727098836E+03  0.18163305257E+03  0.72312741944E+02  0.29972894830E+03  0.17300000000E+03 0.  1.
<mgrwt>
<rscale>  2 0.29087508E+03</rscale>
<asrwt>0</asrwt>
<pdfrwt beam="1">  1       21 0.52526562E-01 0.29087508E+03</pdfrwt>
<pdfrwt beam="2">  1       21 0.38433888E-01 0.29087508E+03</pdfrwt>
<totfact> 0.21372049E+04</totfact>
</mgrwt>
</event>
<event>
 4    3  0.4041078E+000  0.1922046E+03  0.7546771E-02  0.1156488E+00
         21   -1    0    0  503  502  0.00000000000E+00  0.00000000000E+00  0.21007320842E+04  0.21007320842E+04  0.00000000000E+00 0.  1.
         21   -1    0    0  501  503 -0.00000000000E+00 -0.00000000000E+00 -0.20415868091E+02  0.20415868091E+02  0.00000000000E+00 0.  1.
          6    1    1    2  501    0 -0.54077866075E+02 -0.63946818867E+02  0.14350440424E+04  0.14478584236E+04  0.17300000000E+03 0.  1.
         -6    1    1    2    0  502  0.54077866075E+02  0.63946818867E+02  0.64527217369E+03  0.67328952865E+03  0.17300000000E+03 0.  1.
<mgrwt>
<rscale>  2 0.19220461E+03</rscale>
<asrwt>0</asrwt>
<pdfrwt beam="1">  1       21 0.32318938E+00 0.19220461E+03</pdfrwt>
<pdfrwt beam="2">  1       21 0.31409044E-02 0.19220461E+03</pdfrwt>
<totfact> 0.14715546E+04</totfact>
</mgrwt>
</event>
<event>
 4    3  0.4041078E+000  0.3375254E+03  0.7546771E-02  0.1067855E+00
         21   -1    0    0  503  502  0.00000000000E+00  0.00000000000E+00  0.45107878577E+03  0.45107878577E+03  0.00000000000E+00 0.  1.
         21   -1    0    0  501  503 -0.00000000000E+00 -0.00000000000E+00 -0.49064658444E+03  0.49064658444E+03  0.00000000000E+00 0.  1.
          6    1    1    2  501    0  0.12642280390E+03  0.26079051145E+03 -0.34778813650E+03  0.48464420361E+03  0.17300000000E+03 0.  1.
         -6    1    1    2    0  502 -0.12642280390E+03 -0.26079051145E+03  0.30822033782E+03  0.45708116659E+03  0.17300000000E+03 0.  1.
<mgrwt>
<rscale>  2 0.33752543E+03</rscale>
<asrwt>0</asrwt>
<pdfrwt beam="1">  1       21 0.69396736E-01 0.33752543E+03</pdfrwt>
<pdfrwt beam="2">  1       21 0.75484090E-01 0.33752543E+03</pdfrwt>
<totfact> 0.26933607E+03</totfact>
</mgrwt>
</event>
<event>
 4    3  0.4041078E+000  0.1882392E+03  0.7546771E-02  0.1160059E+00
         21   -1    0    0  503  502  0.00000000000E+00  0.00000000000E+00  0.11708909441E+03  0.11708909441E+03  0.00000000000E+00 0. -1.
         21   -1    0    0  501  503 -0.00000000000E+00 -0.00000000000E+00 -0.38000718827E+03  0.38000718827E+03  0.00000000000E+00 0. -1.
          6    1    1    2  501    0 -0.73419560321E+02  0.10704144209E+02 -0.24361877673E+03  0.30787029560E+03  0.17300000000E+03 0. -1.
         -6    1    1    2    0  502  0.73419560321E+02 -0.10704144209E+02 -0.19299317134E+02  0.18922598707E+03  0.17300000000E+03 0. -1.
<mgrwt>
<rscale>  2 0.18823924E+03</rscale>
<asrwt>0</asrwt>
<pdfrwt beam="1">  1       21 0.18013707E-01 0.18823924E+03</pdfrwt>
<pdfrwt beam="2">  1       21 0.58462644E-01 0.18823924E+03</pdfrwt>
<totfact> 0.76943733E+04</totfact>
</mgrwt>
</event>
<event>
 4    3  0.4041078E+000  0.1749865E+03  0.7546771E-02  0.1172745E+00
         21   -1    0    0  503  502  0.00000000000E+00  0.00000000000E+00  0.18618660002E+03  0.18618660002E+03  0.00000000000E+00 0. -1.
         21   -1    0    0  501  503 -0.00000000000E+00 -0.00000000000E+00 -0.32946915566E+03  0.32946915566E+03  0.00000000000E+00 0. -1.
          6    1    1    2  501    0 -0.13785784660E+02  0.22388371416E+02 -0.25410487787E+03  0.30852807974E+03  0.17300000000E+03 0. -1.
         -6    1    1    2    0  502  0.13785784660E+02 -0.22388371416E+02  0.11082232222E+03  0.20712767593E+03  0.17300000000E+03 0. -1.
<mgrwt>
<rscale>  2 0.17498653E+03</rscale>
<asrwt>0</asrwt>
<pdfrwt beam="1">  1       21 0.28644093E-01 0.17498653E+03</pdfrwt>
<pdfrwt beam="2">  1       21 0.50687562E-01 0.17498653E+03</pdfrwt>
<totfact> 0.43555325E+04</totfact>
</mgrwt>
</event>
<event>
 4    3  0.4041078E+000  0.2125985E+03  0.7546771E-02  0.1139525E+00
         21   -1    0    0  503  502  0.00000000000E+00  0.00000000000E+00  0.24344665455E+03  0.24344665455E+03  0.00000000000E+00 0.  1.
         21   -1    0    0  501  503 -0.00000000000E+00 -0.00000000000E+00 -0.41005183885E+03  0.41005183885E+03  0.00000000000E+00 0. -1.
          6    1    1    2  501    0 -0.26410088004E+02 -0.12071306081E+03 -0.32501526343E+03  0.38837231784E+03  0.17300000000E+03 0. -1.
         -6    1    1    2    0  502  0.26410088004E+02  0.12071306081E+03  0.15841007913E+03  0.26512617556E+03  0.17300000000E+03 0.  1.
<mgrwt>
<rscale>  2 0.21259853E+03</rscale>
<asrwt>0</asrwt>
<pdfrwt beam="1">  1       21 0.37453332E-01 0.21259853E+03</pdfrwt>
<pdfrwt beam="2">  1       21 0.63084898E-01 0.21259853E+03</pdfrwt>
<totfact> 0.15792798E+04</totfact>
</mgrwt>
</event>
<event>
 4    3  0.4041078E+000  0.2402801E+03  0.7546771E-02  0.1119606E+00
         21   -1    0    0  503  502  0.00000000000E+00  0.00000000000E+00  0.17936855560E+03  0.17936855560E+03  0.00000000000E+00 0. -1.
         21   -1    0    0  501  503 -0.00000000000E+00 -0.00000000000E+00 -0.35614310049E+03  0.35614310049E+03  0.00000000000E+00 0.  1.
          6    1    1    2  501    0  0.33999306331E+02 -0.16324694737E+03 -0.53329336703E+01  0.24033925780E+03  0.17300000000E+03 0.  1.
         -6    1    1    2    0  502 -0.33999306331E+02  0.16324694737E+03 -0.17144161122E+03  0.29517239829E+03  0.17300000000E+03 0.  1.
<mgrwt>
<rscale>  2 0.24028008E+03</rscale>
<asrwt>0</asrwt>
<pdfrwt beam="1">  1       21 0.27595162E-01 0.24028008E+03</pdfrwt>
<pdfrwt beam="2">  1       21 0.54791246E-01 0.24028008E+03</pdfrwt>
<totfact> 0.38504710E+04</totfact>
</mgrwt>
</event>
<event>
 4    3  0.4041078E+000  0.1758364E+03  0.7546771E-02  0.1171894E+00
         21   -1    0    0  503  502  0.00000000000E+00  0.00000000000E+00  0.29697079283E+03  0.29697079283E+03  0.00000000000E+00 0. -1.
         21   -1    0    0  501  503 -0.00000000000E+00 -0.00000000000E+00 -0.10048836910E+04  0.10048836910E+04  0.00000000000E+00 0. -1.
          6    1    1    2  501    0  0.89050788917E+01 -0.30168727952E+02 -0.97024163284E+03  0.98604628627E+03  0.17300000000E+03 0. -1.
         -6    1    1    2    0  502 -0.89050788917E+01  0.30168727952E+02  0.26232873470E+03  0.31580819752E+03  0.17300000000E+03 0. -1.
<mgrwt>
<rscale>  2 0.17583644E+03</rscale>
<asrwt>0</asrwt>
<pdfrwt beam="1">  1       21 0.45687813E-01 0.17583644E+03</pdfrwt>
<pdfrwt beam="2">  1       21 0.15459749E+00 0.17583644E+03</pdfrwt>
<totfact> 0.12904271E+03</totfact>
</mgrwt>
</event>
<event>
 4    3  0.4041078E+000  0.1945473E+03  0.7546771E-02  0.1154423E+00
         21   -1    0    0  501  502  0.00000000000E+00  0.00000000000E+00  0.10620304264E+04  0.10620304264E+04  0.00000000000E+00 0. -1.
         21   -1    0    0  502  503 -0.00000000000E+00 -0.00000000000E+00 -0.43900252417E+02  0.43900252417E+02  0.00000000000E+00 0.  1.
          6    1    1    2  501    0 -0.23788878301E+02  0.85754021992E+02  0.74895559787E+03  0.77381079767E+03  0.17300000000E+03 0.  1.
         -6    1    1    2    0  503  0.23788878301E+02 -0.85754021992E+02  0.26917457607E+03  0.33211988110E+03  0.17300000000E+03 0.  1.
<mgrwt>
<rscale>  2 0.19454733E+03</rscale>
<asrwt>0</asrwt>
<pdfrwt beam="1">  1       21 0.16338928E+00 0.19454733E+03</pdfrwt>
<pdfrwt beam="2">  1       21 0.67538857E-02 0.19454733E+03</pdfrwt>
<totfact> 0.38220755E+04</totfact>
</mgrwt>
</event>
<event>
 4    3  0.4041078E+000  0.2021692E+03  0.7546771E-02  0.1147922E+00
         21   -1    0    0  503  502  0.00000000000E+00  0.00000000000E+00  0.25228994201E+03  0.25228994201E+03  0.00000000000E+00 0. -1.
         21   -1    0    0  501  503 -0.00000000000E+00 -0.00000000000E+00 -0.35054301459E+03  0.35054301459E+03  0.00000000000E+00 0. -1.
          6    1    1    2  501    0 -0.10291677007E+03  0.18748466059E+02 -0.27017891033E+03  0.33744482531E+03  0.17300000000E+03 0. -1.
         -6    1    1    2    0  502  0.10291677007E+03 -0.18748466059E+02  0.17192583775E+03  0.26538813128E+03  0.17300000000E+03 0. -1.
<mgrwt>
<rscale>  2 0.20216915E+03</rscale>
<asrwt>0</asrwt>
<pdfrwt beam="1">  1       21 0.38813837E-01 0.20216915E+03</pdfrwt>
<pdfrwt beam="2">  1       21 0.53929694E-01 0.20216915E+03</pdfrwt>
<totfact> 0.20691975E+04</totfact>
</mgrwt>
</event>
<event>
 4    3  0.4041078E+000  0.2382807E+03  0.7546771E-02  0.1120943E+00
         21   -1    0    0  501  502  0.00000000000E+00  0.00000000000E+00  0.32061271942E+03  0.32061271942E+03  0.00000000000E+00 0. -1.
         21   -1    0    0  502  503 -0.00000000000E+00 -0.00000000000E+00 -0.26139463937E+03  0.26139463937E+03  0.00000000000E+00 0.  1.
          6    1    1    2  501    0  0.10443291218E+03 -0.12626353772E+03  0.19487088785E+03  0.30781874056E+03  0.17300000000E+03 0. -1.
         -6    1    1    2    0  503 -0.10443291218E+03  0.12626353772E+03 -0.13565280780E+03  0.27418861824E+03  0.17300000000E+03 0.  1.
<mgrwt>
<rscale>  2 0.23828075E+03</rscale>
<asrwt>0</asrwt>
<pdfrwt beam="1">  1       21 0.49325034E-01 0.23828075E+03</pdfrwt>
<pdfrwt beam="2">  1       21 0.40214560E-01 0.23828075E+03</pdfrwt>
<totfact> 0.22784149E+04</totfact>
</mgrwt>
</event>
<event>
 4    3  0.4041078E+000  0.1895320E+03  0.7546771E-02  0.1158884E+00
         21   -1    0    0  501  502  0.00000000000E+00  0.00000000000E+00  0.28781027930E+03  0.28781027930E+03  0.00000000000E+00 0.  1.
         21   -1    0    0  502  503 -0.00000000000E+00 -0.00000000000E+00 -0.16178518941E+03  0.16178518941E+03  0.00000000000E+00 0. -1.
          6    1    1    2  501    0 -0.74493704891E+02  0.21073249419E+02  0.17047619114E+03  0.25492062619E+03  0.17300000000E+03 0.  1.
         -6    1    1    2    0  503  0.74493704891E+02 -0.21073249419E+02 -0.44451101248E+02  0.19467484252E+03  0.17300000000E+03 0. -1.
<mgrwt>
<rscale>  2 0.18953204E+03</rscale>
<asrwt>0</asrwt>
<pdfrwt beam="1">  1       21 0.44278504E-01 0.18953204E+03</pdfrwt>
<pdfrwt beam="2">  1       21 0.24890029E-01 0.18953204E+03</pdfrwt>
<totfact> 0.74920116E+04</totfact>
</mgrwt>
</event>
<event>
 4    3  0.4041078E+000  0.1747723E+03  0.7546771E-02  0.1172961E+00
         21   -1    0    0  503  502  0.00000000000E+00  0.00000000000E+00  0.28654683779E+03  0.28654683779E+03  0.00000000000E+00 0. -1.
         21   -1    0    0  501  503 -0.00000000000E+00 -0.00000000000E+00 -0.33940016081E+03  0.33940016081E+03  0.00000000000E+00 0. -1.
          6    1    1    2  501    0 -0.24258600532E+02 -0.52790342150E+01 -0.28563260522E+03  0.33486016942E+03  0.17300000000E+03 0. -1.
         -6    1    1    2    0  502  0.24258600532E+02  0.52790342150E+01  0.23277928219E+03  0.29108682918E+03  0.17300000000E+03 0. -1.
<mgrwt>
<rscale>  2 0.17477227E+03</rscale>
<asrwt>0</asrwt>
<pdfrwt beam="1">  1       21 0.44084129E-01 0.17477227E+03</pdfrwt>
<pdfrwt beam="2">  1       21 0.52215409E-01 0.17477227E+03</pdfrwt>
<totfact> 0.17393693E+04</totfact>
</mgrwt>
</event>
<event>
 4    3  0.4041078E+000  0.1741159E+03  0.7546771E-02  0.1173622E+00
         21   -1    0    0  501  502  0.00000000000E+00  0.00000000000E+00  0.22310801569E+03  0.22310801569E+03  0.00000000000E+00 0.  1.
         21   -1    0    0  502  503 -0.00000000000E+00 -0.00000000000E+00 -0.14388747607E+03  0.14388747607E+03  0.00000000000E+00 0.  1.
          6    1    1    2  501    0 -0.31961754410E+01 -0.19419651504E+02  0.82893120439E+02  0.19284088731E+03  0.17300000000E+03 0.  1.
         -6    1    1    2    0  503  0.31961754410E+01  0.19419651504E+02 -0.36725808135E+01  0.17415460445E+03  0.17300000000E+03 0.  1.
<mgrwt>
<rscale>  2 0.17411588E+03</rscale>
<asrwt>0</asrwt>
<pdfrwt beam="1">  1       21 0.34324310E-01 0.17411588E+03</pdfrwt>
<pdfrwt beam="2">  1       21 0.22136535E-01 0.17411588E+03</pdfrwt>
<totfact> 0.15698264E+05</totfact>
</mgrwt>
</event>
<event>
 4    3  0.4041078E+000  0.2507561E+03  0.7546771E-02  0.1112828E+00
         21   -1    0    0  501  502  0.00000000000E+00  0.00000000000E+00  0.32492896693E+03  0.32492896693E+03  0.00000000000E+00 0.  1.
         21   -1    0    0  502  503 -0.00000000000E+00 -0.00000000000E+00 -0.48767079886E+03  0.48767079886E+03  0.00000000000E+00 0. -1.
          6    1    1    2  501    0  0.17779393162E+03  0.36591280860E+02  0.23418191851E+03  0.34310315492E+03  0.17300000000E+03 0.  1.
         -6    1    1    2    0  503 -0.17779393162E+03 -0.36591280860E+02 -0.39692375044E+03  0.46949661087E+03  0.17300000000E+03 0. -1.
<mgrwt>
<rscale>  2 0.25075606E+03</rscale>
<asrwt>0</asrwt>
<pdfrwt beam="1">  1       21 0.49989072E-01 0.25075606E+03</pdfrwt>
<pdfrwt beam="2">  1       21 0.75026276E-01 0.25075606E+03</pdfrwt>
<totfact> 0.58200246E+03</totfact>
</mgrwt>
</event>
<event>
 4    3  0.4041078E+000  0.1821803E+03  0.7546771E-02  0.1165709E+00
         21   -1    0    0  501  502  0.00000000000E+00  0.00000000000E+00  0.44718758516E+03  0.44718758516E+03  0.00000000000E+00 0. -1.
         21   -1    0    0  502  503 -0.00000000000E+00 -0.00000000000E+00 -0.89409929857E+02  0.89409929857E+02  0.00000000000E+00 0. -1.
          6    1    1    2  501    0  0.31485439302E+01 -0.57015480626E+02  0.28948047915E+03  0.34203600127E+03  0.17300000000E+03 0. -1.
         -6    1    1    2    0  503 -0.31485439302E+01  0.57015480626E+02  0.68297176159E+02  0.19456151375E+03  0.17300000000E+03 0. -1.
<mgrwt>
<rscale>  2 0.18218035E+03</rscale>
<asrwt>0</asrwt>
<pdfrwt beam="1">  1       21 0.68798089E-01 0.18218035E+03</pdfrwt>
<pdfrwt beam="2">  1       21 0.13755374E-01 0.18218035E+03</pdfrwt>
<totfact> 0.88736728E+04</totfact>
</mgrwt>
</event>
<event>
 4    3  0.4041078E+000  0.2091118E+03  0.7546771E-02  0.1142271E+00
         21   -1    0    0  501  502  0.00000000000E+00  0.00000000000E+00  0.59701626190E+03  0.59701626190E+03  0.00000000000E+00 0. -1.
         21   -1    0    0  502  503 -0.00000000000E+00 -0.00000000000E+00 -0.77369587546E+02  0.77369587546E+02  0.00000000000E+00 0. -1.
          6    1    1    2  501    0  0.11594958847E+03 -0.18826131079E+02  0.33768928458E+03  0.39719237555E+03  0.17300000000E+03 0. -1.
         -6    1    1    2    0  503 -0.11594958847E+03  0.18826131079E+02  0.18195738978E+03  0.27719347390E+03  0.17300000000E+03 0. -1.
<mgrwt>
<rscale>  2 0.20911177E+03</rscale>
<asrwt>0</asrwt>
<pdfrwt beam="1">  1       21 0.91848653E-01 0.20911177E+03</pdfrwt>
<pdfrwt beam="2">  1       21 0.11903014E-01 0.20911177E+03</pdfrwt>
<totfact> 0.59197298E+04</totfact>
</mgrwt>
</event>
<event>
 4    3  0.4041078E+000  0.2571746E+03  0.7546771E-02  0.1108853E+00
         21   -1    0    0  501  502  0.00000000000E+00  0.00000000000E+00  0.37498729754E+03  0.37498729754E+03  0.00000000000E+00 0.  1.
         21   -1    0    0  502  503 -0.00000000000E+00 -0.00000000000E+00 -0.19033583989E+03  0.19033583989E+03  0.00000000000E+00 0.  1.
          6    1    1    2  501    0  0.43554896992E+02  0.18523695269E+03  0.16887600747E+03  0.30766518099E+03  0.17300000000E+03 0.  1.
         -6    1    1    2    0  503 -0.43554896992E+02 -0.18523695269E+03  0.15775450175E+02  0.25765795645E+03  0.17300000000E+03 0.  1.
<mgrwt>
<rscale>  2 0.25717457E+03</rscale>
<asrwt>0</asrwt>
<pdfrwt beam="1">  1       21 0.57690353E-01 0.25717457E+03</pdfrwt>
<pdfrwt beam="2">  1       21 0.29282437E-01 0.25717457E+03</pdfrwt>
<totfact> 0.30497198E+04</totfact>
</mgrwt>
</event>
<event>
 4    3  0.4041078E+000  0.1788521E+03  0.7546771E-02  0.1168919E+00
         21   -1    0    0  501  502  0.00000000000E+00  0.00000000000E+00  0.29440323592E+02  0.29440323592E+02  0.00000000000E+00 0. -1.
         21   -1    0    0  502  503 -0.00000000000E+00 -0.00000000000E+00 -0.10867981743E+04  0.10867981743E+04  0.00000000000E+00 0.  1.
          6    1    1    2  501    0  0.12352100488E+02 -0.43663369166E+02 -0.53729525317E+03  0.56628107268E+03  0.17300000000E+03 0. -1.
         -6    1    1    2    0  503 -0.12352100488E+02  0.43663369166E+02 -0.52006259757E+03  0.54995742524E+03  0.17300000000E+03 0.  1.
<mgrwt>
<rscale>  2 0.17885207E+03</rscale>
<asrwt>0</asrwt>
<pdfrwt beam="1">  1       21 0.45292812E-02 0.17885207E+03</pdfrwt>
<pdfrwt beam="2">  1       21 0.16719970E+00 0.17885207E+03</pdfrwt>
<totfact> 0.71548352E+04</totfact>
</mgrwt>
</event>
<event>
 4    3  0.4041078E+000  0.1782282E+03  0.7546771E-02  0.1169529E+00
         21   -1    0    0  501  502  0.00000000000E+00  0.00000000000E+00  0.33118805929E+02  0.33118805929E+02  0.00000000000E+00 0.  1.
         21   -1    0    0  502  503 -0.00000000000E+00 -0.00000000000E+00 -0.11744204036E+04  0.11744204036E+04  0.00000000000E+00 0.  1.
          6    1    1    2  501    0  0.32640710970E+02  0.27764550352E+02 -0.31214494099E+03  0.35944366799E+03  0.17300000000E+03 0.  1.
         -6    1    1    2    0  503 -0.32640710970E+02 -0.27764550352E+02 -0.82915665671E+03  0.84809554157E+03  0.17300000000E+03 0.  1.
<mgrwt>
<rscale>  2 0.17822819E+03</rscale>
<asrwt>0</asrwt>
<pdfrwt beam="1">  1       21 0.50952008E-02 0.17822819E+03</pdfrwt>
<pdfrwt beam="2">  1       21 0.18068006E+00 0.17822819E+03</pdfrwt>
<totfact> 0.47328768E+04</totfact>
</mgrwt>
</event>
<event>
 4    3  0.4041078E+000  0.2693718E+03  0.7546771E-02  0.1101640E+00
         21   -1    0    0  503  502  0.00000000000E+00  0.00000000000E+00  0.21833829655E+03  0.21833829655E+03  0.00000000000E+00 0.  1.
         21   -1    0    0  501  503 -0.00000000000E+00 -0.00000000000E+00 -0.41607189133E+03  0.41607189133E+03  0.00000000000E+00 0. -1.
          6    1    1    2  501    0  0.18552920789E+02 -0.20564030368E+03 -0.24117111989E+03  0.36155864591E+03  0.17300000000E+03 0. -1.
         -6    1    1    2    0  502 -0.18552920789E+02  0.20564030368E+03  0.43437525117E+02  0.27285154197E+03  0.17300000000E+03 0.  1.
<mgrwt>
<rscale>  2 0.26937176E+03</rscale>
<asrwt>0</asrwt>
<pdfrwt beam="1">  1       21 0.33590507E-01 0.26937176E+03</pdfrwt>
<pdfrwt beam="2">  1       21 0.64011060E-01 0.26937176E+03</pdfrwt>
<totfact> 0.18464036E+04</totfact>
</mgrwt>
</event>
<event>
 4    3  0.4041078E+000  0.2238009E+03  0.7546771E-02  0.1131081E+00
         21   -1    0    0  503  502  0.00000000000E+00  0.00000000000E+00  0.49160433525E+03  0.49160433525E+03  0.00000000000E+00 0. -1.
         21   -1    0    0  501  503 -0.00000000000E+00 -0.00000000000E+00 -0.10231400336E+03  0.10231400336E+03  0.00000000000E+00 0. -1.
          6    1    1    2  501    0  0.14182391165E+03 -0.66212329158E+01  0.17540487140E+03  0.28434790583E+03  0.17300000000E+03 0. -1.
         -6    1    1    2    0  502 -0.14182391165E+03  0.66212329158E+01  0.21388546049E+03  0.30957043278E+03  0.17300000000E+03 0. -1.
<mgrwt>
<rscale>  2 0.22380094E+03</rscale>
<asrwt>0</asrwt>
<pdfrwt beam="1">  1       21 0.75631435E-01 0.22380094E+03</pdfrwt>
<pdfrwt beam="2">  1       21 0.15740616E-01 0.22380094E+03</pdfrwt>
<totfact> 0.55248492E+04</totfact>
</mgrwt>
</event>
<event>
 4    3  0.4041078E+000  0.2264922E+03  0.7546771E-02  0.1129133E+00
         21   -1    0    0  503  502  0.00000000000E+00  0.00000000000E+00  0.51328472841E+02  0.51328472841E+02  0.00000000000E+00 0.  1.
         21   -1    0    0  501  503 -0.00000000000E+00 -0.00000000000E+00 -0.10741239319E+04  0.10741239319E+04  0.00000000000E+00 0.  1.
          6    1    1    2  501    0  0.42330625238E+02  0.13992082249E+03 -0.65980007375E+03  0.69759218439E+03  0.17300000000E+03 0.  1.
         -6    1    1    2    0  502 -0.42330625238E+02 -0.13992082249E+03 -0.36299538528E+03  0.42786022032E+03  0.17300000000E+03 0.  1.
<mgrwt>
<rscale>  2 0.22649220E+03</rscale>
<asrwt>0</asrwt>
<pdfrwt beam="1">  1       21 0.78966878E-02 0.22649220E+03</pdfrwt>
<pdfrwt beam="2">  1       21 0.16524984E+00 0.22649220E+03</pdfrwt>
<totfact> 0.27707545E+04</totfact>
</mgrwt>
</event>
<event>
 4    3  0.4041078E+000  0.1980595E+03  0.7546771E-02  0.1151387E+00
         21   -1    0    0  503  502  0.00000000000E+00  0.00000000000E+00  0.11015018703E+03  0.11015018703E+03  0.00000000000E+00 0.  1.
         21   -1    0    0  501  503 -0.00000000000E+00 -0.00000000000E+00 -0.62769581193E+03  0.62769581193E+03  0.00000000000E+00 0.  1.
          6    1    1    2  501    0  0.91335062485E+02  0.30926706774E+02 -0.50143401287E+03  0.53913228812E+03  0.17300000000E+03 0.  1.
         -6    1    1    2    0  502 -0.91335062485E+02 -0.30926706774E+02 -0.16111612032E+02  0.19871371083E+03  0.17300000000E+03 0.  1.
<mgrwt>
<rscale>  2 0.19805947E+03</rscale>
<asrwt>0</asrwt>
<pdfrwt beam="1">  1       21 0.16946182E-01 0.19805947E+03</pdfrwt>
<pdfrwt beam="2">  1       21 0.96568587E-01 0.19805947E+03</pdfrwt>
<totfact> 0.27885539E+04</totfact>
</mgrwt>
</event>
<event>
 4    3  0.4041078E+000  0.2077837E+03  0.7546771E-02  0.1143333E+00
         21   -1    0    0  503  502  0.00000000000E+00  0.00000000000E+00  0.12607614678E+03  0.12607614678E+03  0.00000000000E+00 0.  1.
         21   -1    0    0  501  503 -0.00000000000E+00 -0.00000000000E+00 -0.37655803877E+03  0.37655803877E+03  0.00000000000E+00 0.  1.
          6    1    1    2  501    0  0.16562542790E+01 -0.11507537664E+03 -0.20088404774E+03  0.28901295149E+03  0.17300000000E+03 0.  1.
         -6    1    1    2    0  502 -0.16562542790E+01  0.11507537664E+03 -0.49597844248E+02  0.21362123406E+03  0.17300000000E+03 0.  1.
<mgrwt>
<rscale>  2 0.20778375E+03</rscale>
<asrwt>0</asrwt>
<pdfrwt beam="1">  1       21 0.19396330E-01 0.20778375E+03</pdfrwt>
<pdfrwt beam="2">  1       21 0.57932007E-01 0.20778375E+03</pdfrwt>
<totfact> 0.67806092E+04</totfact>
</mgrwt>
</event>
<event>
 4    3  0.4041078E+000  0.2536396E+03  0.7546771E-02  0.1111026E+00
         21   -1    0    0  503  502  0.00000000000E+00  0.00000000000E+00  0.41245992491E+03  0.41245992491E+03  0.00000000000E+00 0. -1.
         21   -1    0    0  501  503 -0.00000000000E+00 -0.00000000000E+00 -0.27460510375E+03  0.27460510375E+03  0.00000000000E+00 0.  1.
          6    1    1    2  501    0 -0.18506496337E+03  0.12449738043E+02 -0.15686678662E+03  0.29822847850E+03  0.17300000000E+03 0.  1.
         -6    1    1    2    0  502  0.18506496337E+03 -0.12449738043E+02  0.29472160779E+03  0.38883655016E+03  0.17300000000E+03 0. -1.
<mgrwt>
<rscale>  2 0.25363958E+03</rscale>
<asrwt>0</asrwt>
<pdfrwt beam="1">  1       21 0.63455373E-01 0.25363958E+03</pdfrwt>
<pdfrwt beam="2">  1       21 0.42246939E-01 0.25363958E+03</pdfrwt>
<totfact> 0.11936973E+04</totfact>
</mgrwt>
</event>
<event>
 4    3  0.4041078E+000  0.1736737E+03  0.7546771E-02  0.1174070E+00
         21   -1    0    0  501  502  0.00000000000E+00  0.00000000000E+00  0.12318702016E+04  0.12318702016E+04  0.00000000000E+00 0.  1.
         21   -1    0    0  502  503 -0.00000000000E+00 -0.00000000000E+00 -0.13338807995E+03  0.13338807995E+03  0.00000000000E+00 0.  1.
          6    1    1    2  501    0 -0.50580435842E+01  0.14421693471E+02  0.11660434211E+04  0.11789062002E+04  0.17300000000E+03 0.  1.
         -6    1    1    2    0  503  0.50580435842E+01 -0.14421693471E+02 -0.67561299417E+02  0.18635208136E+03  0.17300000000E+03 0.  1.
<mgrwt>
<rscale>  2 0.17367374E+03</rscale>
<asrwt>0</asrwt>
<pdfrwt beam="1">  1       21 0.18951848E+00 0.17367374E+03</pdfrwt>
<pdfrwt beam="2">  1       21 0.20521244E-01 0.17367374E+03</pdfrwt>
<totfact> 0.35218004E+03</totfact>
</mgrwt>
</event>
<event>
 4    3  0.4041078E+000  0.1916769E+03  0.7546771E-02  0.1156957E+00
         21   -1    0    0  501  502  0.00000000000E+00  0.00000000000E+00  0.44322173136E+02  0.44322173136E+02  0.00000000000E+00 0. -1.
         21   -1    0    0  502  503 -0.00000000000E+00 -0.00000000000E+00 -0.11275006957E+04  0.11275006957E+04  0.00000000000E+00 0. -1.
          6    1    1    2  501    0 -0.28061594606E+02  0.77611801905E+02 -0.24008318227E+03  0.30721324727E+03  0.17300000000E+03 0. -1.
         -6    1    1    2    0  503  0.28061594606E+02 -0.77611801905E+02 -0.84309534025E+03  0.86460962153E+03  0.17300000000E+03 0. -1.
<mgrwt>
<rscale>  2 0.19167693E+03</rscale>
<asrwt>0</asrwt>
<pdfrwt beam="1">  1       21 0.68187959E-02 0.19167693E+03</pdfrwt>
<pdfrwt beam="2">  1       21 0.17346165E+00 0.19167693E+03</pdfrwt>
<totfact> 0.31964398E+04</totfact>
</mgrwt>
</event>
<event>
 4    3  0.4041078E+000  0.2007841E+03  0.7546771E-02  0.1149079E+00
         21   -1    0    0  501  502  0.00000000000E+00  0.00000000000E+00  0.22384900398E+02  0.22384900398E+02  0.00000000000E+00 0.  1.
         21   -1    0    0  502  503 -0.00000000000E+00 -0.00000000000E+00 -0.18093625679E+04  0.18093625679E+04  0.00000000000E+00 0.  1.
          6    1    1    2  501    0 -0.19017451357E+02  0.10011795912E+03 -0.95590918069E+03  0.97676846331E+03  0.17300000000E+03 0.  1.
         -6    1    1    2    0  503  0.19017451357E+02 -0.10011795912E+03 -0.83106848686E+03  0.85497900504E+03  0.17300000000E+03 0.  1.
<mgrwt>
<rscale>  2 0.20078414E+03</rscale>
<asrwt>0</asrwt>
<pdfrwt beam="1">  1       21 0.34438309E-02 0.20078414E+03</pdfrwt>
<pdfrwt beam="2">  1       21 0.27836347E+00 0.20078414E+03</pdfrwt>
<totfact> 0.22715221E+04</totfact>
</mgrwt>
</event>
<event>
 4    3  0.4041078E+000  0.2351239E+03  0.7546771E-02  0.1123084E+00
         21   -1    0    0  503  502  0.00000000000E+00  0.00000000000E+00  0.26850693207E+03  0.26850693207E+03  0.00000000000E+00 0.  1.
         21   -1    0    0  501  503 -0.00000000000E+00 -0.00000000000E+00 -0.82643403482E+03  0.82643403482E+03  0.00000000000E+00 0. -1.
          6    1    1    2  501    0  0.15644424868E+03  0.29655303261E+02 -0.75336112781E+03  0.78919973952E+03  0.17300000000E+03 0. -1.
         -6    1    1    2    0  502 -0.15644424868E+03 -0.29655303261E+02  0.19543402507E+03  0.30574122737E+03  0.17300000000E+03 0.  1.
<mgrwt>
<rscale>  2 0.23512388E+03</rscale>
<asrwt>0</asrwt>
<pdfrwt beam="1">  1       21 0.41308758E-01 0.23512388E+03</pdfrwt>
<pdfrwt beam="2">  1       21 0.12714370E+00 0.23512388E+03</pdfrwt>
<totfact> 0.24893213E+03</totfact>
</mgrwt>
</event>
<event>
 4    3  0.4041078E+000  0.3025008E+03  0.7546771E-02  0.1083997E+00
         21   -1    0    0  501  502  0.00000000000E+00  0.00000000000E+00  0.74651336559E+03  0.74651336559E+03  0.00000000000E+00 0.  1.
         21   -1    0    0  502  503 -0.00000000000E+00 -0.00000000000E+00 -0.12384836775E+03  0.12384836775E+03  0.00000000000E+00 0. -1.
          6    1    1    2  501    0 -0.12102408627E+03 -0.21663548161E+03  0.35539218582E+03  0.46670158248E+03  0.17300000000E+03 0. -1.
         -6    1    1    2    0  503  0.12102408627E+03  0.21663548161E+03  0.26727281202E+03  0.40366015086E+03  0.17300000000E+03 0. -1.
<mgrwt>
<rscale>  2 0.30250085E+03</rscale>
<asrwt>0</asrwt>
<pdfrwt beam="1">  1       21 0.11484821E+00 0.30250085E+03</pdfrwt>
<pdfrwt beam="2">  1       21 0.19053595E-01 0.30250085E+03</pdfrwt>
<totfact> 0.13987326E+04</totfact>
</mgrwt>
</event>
<event>
 4    3  0.4041078E+000  0.2100247E+03  0.7546771E-02  0.1141546E+00
         21   -1    0    0  503  502  0.00000000000E+00  0.00000000000E+00  0.10914099160E+04  0.10914099160E+04  0.00000000000E+00 0. -1.
         21   -1    0    0  501  503 -0.00000000000E+00 -0.00000000000E+00 -0.44781409459E+02  0.44781409459E+02  0.00000000000E+00 0. -1.
          6    1    1    2  501    0  0.13611933138E+02  0.11830510749E+03  0.70068700722E+03  0.73148661318E+03  0.17300000000E+03 0. -1.
         -6    1    1    2    0  502 -0.13611933138E+02 -0.11830510749E+03  0.34594149931E+03  0.40470471227E+03  0.17300000000E+03 0. -1.
<mgrwt>
<rscale>  2 0.21002472E+03</rscale>
<asrwt>0</asrwt>
<pdfrwt beam="1">  1       21 0.16790920E+00 0.21002472E+03</pdfrwt>
<pdfrwt beam="2">  1       21 0.68894485E-02 0.21002472E+03</pdfrwt>
<totfact> 0.33948179E+04</totfact>
</mgrwt>
</event>
<event>
 4    3  0.4041078E+000  0.1795935E+03  0.7546771E-02  0.1168197E+00
         21   -1    0    0  503  502  0.00000000000E+00  0.00000000000E+00  0.10331616702E+03  0.10331616702E+03  0.00000000000E+00 0. -1.
         21   -1    0    0  501  503 -0.00000000000E+00 -0.00000000000E+00 -0.32178706938E+03  0.32178706938E+03  0.00000000000E+00 0. -1.
          6    1    1    2  501    0 -0.36160263956E+02 -0.31894413253E+02 -0.14595093516E+03  0.23142059926E+03  0.17300000000E+03 0. -1.
         -6    1    1    2    0  502  0.36160263956E+02  0.31894413253E+02 -0.72519967203E+02  0.19368263714E+03  0.17300000000E+03 0. -1.
<mgrwt>
<rscale>  2 0.17959348E+03</rscale>
<asrwt>0</asrwt>
<pdfrwt beam="1">  1       21 0.15894795E-01 0.17959348E+03</pdfrwt>
<pdfrwt beam="2">  1       21 0.49505702E-01 0.17959348E+03</pdfrwt>
<totfact> 0.13789385E+05</totfact>
</mgrwt>
</event>
<event>
 4    3  0.4041078E+000  0.2259847E+03  0.7546771E-02  0.1129498E+00
         21   -1    0    0  501  502  0.00000000000E+00  0.00000000000E+00  0.39180209934E+03  0.39180209934E+03  0.00000000000E+00 0.  1.
         21   -1    0    0  502  503 -0.00000000000E+00 -0.00000000000E+00 -0.20611383636E+03  0.20611383636E+03  0.00000000000E+00 0. -1.
          6    1    1    2  501    0  0.24259435266E+02  0.14335820784E+03  0.27410515110E+03  0.35525023549E+03  0.17300000000E+03 0.  1.
         -6    1    1    2    0  503 -0.24259435266E+02 -0.14335820784E+03 -0.88416888119E+02  0.24266570021E+03  0.17300000000E+03 0. -1.
<mgrwt>
<rscale>  2 0.22598473E+03</rscale>
<asrwt>0</asrwt>
<pdfrwt beam="1">  1       21 0.60277246E-01 0.22598473E+03</pdfrwt>
<pdfrwt beam="2">  1       21 0.31709821E-01 0.22598473E+03</pdfrwt>
<totfact> 0.24082531E+04</totfact>
</mgrwt>
</event>
<event>
 4    3  0.4041078E+000  0.1957108E+03  0.7546771E-02  0.1153409E+00
         21   -1    0    0  501  502  0.00000000000E+00  0.00000000000E+00  0.83564995360E+02  0.83564995360E+02  0.00000000000E+00 0.  1.
         21   -1    0    0  502  503 -0.00000000000E+00 -0.00000000000E+00 -0.48698584811E+03  0.48698584811E+03  0.00000000000E+00 0.  1.
          6    1    1    2  501    0 -0.23147502110E+02  0.88532046727E+02 -0.13254383690E+03  0.23636962337E+03  0.17300000000E+03 0. -1.
         -6    1    1    2    0  503  0.23147502110E+02 -0.88532046727E+02 -0.27087701585E+03  0.33418122010E+03  0.17300000000E+03 0. -1.
<mgrwt>
<rscale>  2 0.19571083E+03</rscale>
<asrwt>0</asrwt>
<pdfrwt beam="1">  1       21 0.12856153E-01 0.19571083E+03</pdfrwt>
<pdfrwt beam="2">  1       21 0.74920898E-01 0.19571083E+03</pdfrwt>
<totfact> 0.82538505E+04</totfact>
</mgrwt>
</event>
<event>
 4    3  0.4041078E+000  0.1989000E+03  0.7546771E-02  0.1150670E+00
         21   -1    0    0  501  502  0.00000000000E+00  0.00000000000E+00  0.18089687476E+03  0.18089687476E+03  0.00000000000E+00 0. -1.
         21   -1    0    0  502  503 -0.00000000000E+00 -0.00000000000E+00 -0.22457692496E+03  0.22457692496E+03  0.00000000000E+00 0. -1.
          6    1    1    2  501    0 -0.24468739620E+02  0.95044680287E+02 -0.54650794572E+02  0.20627147117E+03  0.17300000000E+03 0.  1.
         -6    1    1    2    0  503  0.24468739620E+02 -0.95044680287E+02  0.10970744367E+02  0.19920232855E+03  0.17300000000E+03 0.  1.
<mgrwt>
<rscale>  2 0.19890000E+03</rscale>
<asrwt>0</asrwt>
<pdfrwt beam="1">  1       21 0.27830289E-01 0.19890000E+03</pdfrwt>
<pdfrwt beam="2">  1       21 0.34550296E-01 0.19890000E+03</pdfrwt>
<totfact> 0.99281052E+04</totfact>
</mgrwt>
</event>
<event>
 4    3  0.4041078E+000  0.2324813E+03  0.7546771E-02  0.1124905E+00
         21   -1    0    0  501  502  0.00000000000E+00  0.00000000000E+00  0.57959860419E+02  0.57959860419E+02  0.00000000000E+00 0. -1.
         21   -1    0    0  502  503 -0.00000000000E+00 -0.00000000000E+00 -0.10718363258E+04  0.10718363258E+04  0.00000000000E+00 0.  1.
          6    1    1    2  501    0 -0.46764794556E+01 -0.15523103753E+03 -0.30326276039E+03  0.38212019877E+03  0.17300000000E+03 0.  1.
         -6    1    1    2    0  503  0.46764794556E+01  0.15523103753E+03 -0.71061370496E+03  0.74767598741E+03  0.17300000000E+03 0. -1.
<mgrwt>
<rscale>  2 0.23248128E+03</rscale>
<asrwt>0</asrwt>
<pdfrwt beam="1">  1       21 0.89169010E-02 0.23248128E+03</pdfrwt>
<pdfrwt beam="2">  1       21 0.16489791E+00 0.23248128E+03</pdfrwt>
<totfact> 0.22443732E+04</totfact>
</mgrwt>
</event>
<event>
 4    3  0.4041078E+000  0.2172707E+03  0.7546771E-02  0.1135934E+00
         21   -1    0    0  503  502  0.00000000000E+00  0.00000000000E+00  0.25077491430E+03  0.25077491430E+03  0.00000000000E+00 0. -1.
         21   -1    0    0  501  503 -0.00000000000E+00 -0.00000000000E+00 -0.46183109674E+03  0.46183109674E+03  0.00000000000E+00 0. -1.
          6    1    1    2  501    0 -0.12570309026E+03 -0.38422740602E+02 -0.37976547155E+03  0.43752529902E+03  0.17300000000E+03 0. -1.
         -6    1    1    2    0  502  0.12570309026E+03  0.38422740602E+02  0.16870928912E+03  0.27508071203E+03  0.17300000000E+03 0. -1.
<mgrwt>
<rscale>  2 0.21727074E+03</rscale>
<asrwt>0</asrwt>
<pdfrwt beam="1">  1       21 0.38580756E-01 0.21727074E+03</pdfrwt>
<pdfrwt beam="2">  1       21 0.71050938E-01 0.21727074E+03</pdfrwt>
<totfact> 0.11429044E+04</totfact>
</mgrwt>
</event>
<event>
 4    3  0.4041078E+000  0.1742452E+03  0.7546771E-02  0.1173492E+00
         21   -1    0    0  501  502  0.00000000000E+00  0.00000000000E+00  0.18018311526E+02  0.18018311526E+02  0.00000000000E+00 0.  1.
         21   -1    0    0  502  503 -0.00000000000E+00 -0.00000000000E+00 -0.16853886375E+04  0.16853886375E+04  0.00000000000E+00 0.  1.
          6    1    1    2  501    0 -0.10686763285E+02 -0.17837963529E+02 -0.84610508818E+03  0.86386064854E+03  0.17300000000E+03 0. -1.
         -6    1    1    2    0  503  0.10686763285E+02  0.17837963529E+02 -0.82126523782E+03  0.83954630051E+03  0.17300000000E+03 0. -1.
<mgrwt>
<rscale>  2 0.17424523E+03</rscale>
<asrwt>0</asrwt>
<pdfrwt beam="1">  1       21 0.27720485E-02 0.17424523E+03</pdfrwt>
<pdfrwt beam="2">  1       21 0.25929051E+00 0.17424523E+03</pdfrwt>
<totfact> 0.42954052E+04</totfact>
</mgrwt>
</event>
<event>
 4    3  0.4041078E+000  0.1844640E+03  0.7546771E-02  0.1163551E+00
         21   -1    0    0  503  502  0.00000000000E+00  0.00000000000E+00  0.27322352361E+03  0.27322352361E+03  0.00000000000E+00 0. -1.
         21   -1    0    0  501  503 -0.00000000000E+00 -0.00000000000E+00 -0.15052251980E+03  0.15052251980E+03  0.00000000000E+00 0. -1.
          6    1    1    2  501    0 -0.41023495381E+02  0.49143067753E+02 -0.26678221653E+02  0.18638319611E+03  0.17300000000E+03 0. -1.
         -6    1    1    2    0  502  0.41023495381E+02 -0.49143067753E+02  0.14937922546E+03  0.23736284730E+03  0.17300000000E+03 0. -1.
<mgrwt>
<rscale>  2 0.18446400E+03</rscale>
<asrwt>0</asrwt>
<pdfrwt beam="1">  1       21 0.42034388E-01 0.18446400E+03</pdfrwt>
<pdfrwt beam="2">  1       21 0.23157311E-01 0.18446400E+03</pdfrwt>
<totfact> 0.95736609E+04</totfact>
</mgrwt>
</event>
<event>
 4    3  0.4041078E+000  0.1760950E+03  0.7546771E-02  0.1171637E+00
         21   -1    0    0  503  502  0.00000000000E+00  0.00000000000E+00  0.16625213368E+03  0.16625213368E+03  0.00000000000E+00 0. -1.
         21   -1    0    0  501  503 -0.00000000000E+00 -0.00000000000E+00 -0.21205983524E+03  0.21205983524E+03  0.00000000000E+00 0.  1.
          6    1    1    2  501    0 -0.32376244070E+02 -0.56761444806E+01 -0.88547879357E+02  0.19710445641E+03  0.17300000000E+03 0.  1.
         -6    1    1    2    0  502  0.32376244070E+02  0.56761444806E+01  0.42740177799E+02  0.18120751252E+03  0.17300000000E+03 0. -1.
<mgrwt>
<rscale>  2 0.17609497E+03</rscale>
<asrwt>0</asrwt>
<pdfrwt beam="1">  1       21 0.25577252E-01 0.17609497E+03</pdfrwt>
<pdfrwt beam="2">  1       21 0.32624590E-01 0.17609497E+03</pdfrwt>
<totfact> 0.13185198E+05</totfact>
</mgrwt>
</event>
<event>
 4    3  0.4041078E+000  0.1891922E+03  0.7546771E-02  0.1159192E+00
         21   -1    0    0  501  502  0.00000000000E+00  0.00000000000E+00  0.22591188780E+02  0.22591188780E+02  0.00000000000E+00 0.  1.
         21   -1    0    0  502  503 -0.00000000000E+00 -0.00000000000E+00 -0.15998729911E+04  0.15998729911E+04  0.00000000000E+00 0. -1.
          6    1    1    2  501    0  0.39912293043E+01  0.76477204604E+02 -0.86839573292E+03  0.88876590939E+03  0.17300000000E+03 0.  1.
         -6    1    1    2    0  503 -0.39912293043E+01 -0.76477204604E+02 -0.70888606942E+03  0.73369827051E+03  0.17300000000E+03 0.  1.
<mgrwt>
<rscale>  2 0.18919221E+03</rscale>
<asrwt>0</asrwt>
<pdfrwt beam="1">  1       21 0.34755675E-02 0.18919221E+03</pdfrwt>
<pdfrwt beam="2">  1       21 0.24613431E+00 0.18919221E+03</pdfrwt>
<totfact> 0.34824551E+04</totfact>
</mgrwt>
</event>
<event>
 4    3  0.4041078E+000  0.1856924E+03  0.7546771E-02  0.1162405E+00
         21   -1    0    0  503  502  0.00000000000E+00  0.00000000000E+00  0.82832084667E+02  0.82832084667E+02  0.00000000000E+00 0.  1.
         21   -1    0    0  501  503 -0.00000000000E+00 -0.00000000000E+00 -0.59665615805E+03  0.59665615805E+03  0.00000000000E+00 0. -1.
          6    1    1    2  501    0  0.26072654414E+02  0.62232444998E+02 -0.44371114464E+03  0.48100024989E+03  0.17300000000E+03 0. -1.
         -6    1    1    2    0  502 -0.26072654414E+02 -0.62232444998E+02 -0.70112928742E+02  0.19848799282E+03  0.17300000000E+03 0.  1.
<mgrwt>
<rscale>  2 0.18569238E+03</rscale>
<asrwt>0</asrwt>
<pdfrwt beam="1">  1       21 0.12743398E-01 0.18569238E+03</pdfrwt>
<pdfrwt beam="2">  1       21 0.91793255E-01 0.18569238E+03</pdfrwt>
<totfact> 0.53053693E+04</totfact>
</mgrwt>
</event>
<event>
 4    3  0.4041078E+000  0.2056778E+03  0.7546771E-02  0.1145035E+00
         21   -1    0    0  501  502  0.00000000000E+00  0.00000000000E+00  0.21144447263E+03  0.21144447263E+03  0.00000000000E+00 0. -1.
         21   -1    0    0  502  503 -0.00000000000E+00 -0.00000000000E+00 -0.23682232118E+03  0.23682232118E+03  0.00000000000E+00 0.  1.
          6    1    1    2  501    0  0.10787190169E+03 -0.27166121117E+02  0.75608377429E+02  0.21913459802E+03  0.17300000000E+03 0. -1.
         -6    1    1    2    0  503 -0.10787190169E+03  0.27166121117E+02 -0.10098622598E+03  0.22913219579E+03  0.17300000000E+03 0.  1.
<mgrwt>
<rscale>  2 0.20567777E+03</rscale>
<asrwt>0</asrwt>
<pdfrwt beam="1">  1       21 0.32529919E-01 0.20567777E+03</pdfrwt>
<pdfrwt beam="2">  1       21 0.36434203E-01 0.20567777E+03</pdfrwt>
<totfact> 0.65678989E+04</totfact>
</mgrwt>
</event>
<event>
 4    3  0.4041078E+000  0.1769871E+03  0.7546771E-02  0.1170751E+00
         21   -1    0    0  503  502  0.00000000000E+00  0.00000000000E+00  0.68571508231E+02  0.68571508231E+02  0.00000000000E+00 0.  1.
         21   -1    0    0  501  503 -0.00000000000E+00 -0.00000000000E+00 -0.45841778193E+03  0.45841778193E+03  0.00000000000E+00 0.  1.
          6    1    1    2  501    0  0.34188196157E+02  0.15053576097E+02 -0.17933916048E+03  0.25196622272E+03  0.17300000000E+03 0.  1.
         -6    1    1    2    0  502 -0.34188196157E+02 -0.15053576097E+02 -0.21050711322E+03  0.27502306745E+03  0.17300000000E+03 0.  1.
<mgrwt>
<rscale>  2 0.17698713E+03</rscale>
<asrwt>0</asrwt>
<pdfrwt beam="1">  1       21 0.10549462E-01 0.17698713E+03</pdfrwt>
<pdfrwt beam="2">  1       21 0.70525816E-01 0.17698713E+03</pdfrwt>
<totfact> 0.13527654E+05</totfact>
</mgrwt>
</event>
<event>
 4    3  0.4041078E+000  0.1732278E+03  0.7546771E-02  0.1174523E+00
         21   -1    0    0  501  502  0.00000000000E+00  0.00000000000E+00  0.51458946885E+03  0.51458946885E+03  0.00000000000E+00 0.  1.
         21   -1    0    0  502  503 -0.00000000000E+00 -0.00000000000E+00 -0.77893792629E+02  0.77893792629E+02  0.00000000000E+00 0.  1.
          6    1    1    2  501    0  0.88216037666E+01 -0.10178321708E+01  0.36687190987E+03  0.40571277392E+03  0.17300000000E+03 0.  1.
         -6    1    1    2    0  503 -0.88216037666E+01  0.10178321708E+01  0.69823766360E+02  0.18677048756E+03  0.17300000000E+03 0.  1.
<mgrwt>
<rscale>  2 0.17322776E+03</rscale>
<asrwt>0</asrwt>
<pdfrwt beam="1">  1       21 0.79167608E-01 0.17322776E+03</pdfrwt>
<pdfrwt beam="2">  1       21 0.11983661E-01 0.17322776E+03</pdfrwt>
<totfact> 0.83521830E+04</totfact>
</mgrwt>
</event>
<event>
 4    3  0.4041078E+000  0.2279192E+03  0.7546771E-02  0.1128113E+00
         21   -1    0    0  503  502  0.00000000000E+00  0.00000000000E+00  0.20498447622E+03  0.20498447622E+03  0.00000000000E+00 0. -1.
         21   -1    0    0  501  503 -0.00000000000E+00 -0.00000000000E+00 -0.34048530389E+03  0.34048530389E+03  0.00000000000E+00 0. -1.
          6    1    1    2  501    0  0.17779169856E+02 -0.14731622137E+03 -0.20566622222E+03  0.30699472784E+03  0.17300000000E+03 0. -1.
         -6    1    1    2    0  502 -0.17779169856E+02  0.14731622137E+03  0.70165394552E+02  0.23847505226E+03  0.17300000000E+03 0. -1.
<mgrwt>
<rscale>  2 0.22791921E+03</rscale>
<asrwt>0</asrwt>
<pdfrwt beam="1">  1       21 0.31536074E-01 0.22791921E+03</pdfrwt>
<pdfrwt beam="2">  1       21 0.52382354E-01 0.22791921E+03</pdfrwt>
<totfact> 0.32809119E+04</totfact>
</mgrwt>
</event>
<event>
 4    3  0.4041078E+000  0.1745783E+03  0.7546771E-02  0.1173156E+00
         21   -1    0    0  501  502  0.00000000000E+00  0.00000000000E+00  0.75729856299E+02  0.75729856299E+02  0.00000000000E+00 0. -1.
         21   -1    0    0  502  503 -0.00000000000E+00 -0.00000000000E+00 -0.54656321879E+03  0.54656321879E+03  0.00000000000E+00 0. -1.
          6    1    1    2  501    0  0.20869083471E+02  0.10633039615E+02 -0.75646877918E+02  0.19026305557E+03  0.17300000000E+03 0.  1.
         -6    1    1    2    0  503 -0.20869083471E+02 -0.10633039615E+02 -0.39518648457E+03  0.43203001952E+03  0.17300000000E+03 0.  1.
<mgrwt>
<rscale>  2 0.17457829E+03</rscale>
<asrwt>0</asrwt>
<pdfrwt beam="1">  1       21 0.11650748E-01 0.17457829E+03</pdfrwt>
<pdfrwt beam="2">  1       21 0.84086646E-01 0.17457829E+03</pdfrwt>
<totfact> 0.76581524E+04</totfact>
</mgrwt>
</event>
<event>
 4    3  0.4041078E+000  0.2080135E+03  0.7546771E-02  0.1143149E+00
         21   -1    0    0  501  502  0.00000000000E+00  0.00000000000E+00  0.62210287719E+03  0.62210287719E+03  0.00000000000E+00 0.  1.
         21   -1    0    0  502  503 -0.00000000000E+00 -0.00000000000E+00 -0.73159356367E+02  0.73159356367E+02  0.00000000000E+00 0. -1.
          6    1    1    2  501    0  0.49526718308E+02  0.10434418795E+03  0.35164579013E+03  0.40856378584E+03  0.17300000000E+03 0. -1.
         -6    1    1    2    0  503 -0.49526718308E+02 -0.10434418795E+03  0.19729773069E+03  0.28669844771E+03  0.17300000000E+03 0.  1.
<mgrwt>
<rscale>  2 0.20801347E+03</rscale>
<asrwt>0</asrwt>
<pdfrwt beam="1">  1       21 0.95708131E-01 0.20801347E+03</pdfrwt>
<pdfrwt beam="2">  1       21 0.11255286E-01 0.20801347E+03</pdfrwt>
<totfact> 0.59448514E+04</totfact>
</mgrwt>
</event>
<event>
 4    3  0.4041078E+000  0.1746224E+03  0.7546771E-02  0.1173111E+00
         21   -1    0    0  503  502  0.00000000000E+00  0.00000000000E+00  0.27575085294E+02  0.27575085294E+02  0.00000000000E+00 0. -1.
         21   -1    0    0  501  503 -0.00000000000E+00 -0.00000000000E+00 -0.11191411136E+04  0.11191411136E+04  0.00000000000E+00 0. -1.
          6    1    1    2  501    0 -0.50198662028E+01 -0.23211629663E+02 -0.60834551330E+03  0.63291171767E+03  0.17300000000E+03 0.  1.
         -6    1    1    2    0  502  0.50198662028E+01  0.23211629663E+02 -0.48322051506E+03  0.51380448128E+03  0.17300000000E+03 0.  1.
<mgrwt>
<rscale>  2 0.17462239E+03</rscale>
<asrwt>0</asrwt>
<pdfrwt beam="1">  1       21 0.42423208E-02 0.17462239E+03</pdfrwt>
<pdfrwt beam="2">  1       21 0.17217556E+00 0.17462239E+03</pdfrwt>
<totfact> 0.73883724E+04</totfact>
</mgrwt>
</event>
<event>
 4    3  0.4041078E+000  0.2191103E+03  0.7546771E-02  0.1134548E+00
         21   -1    0    0  503  502  0.00000000000E+00  0.00000000000E+00  0.11779735682E+03  0.11779735682E+03  0.00000000000E+00 0. -1.
         21   -1    0    0  501  503 -0.00000000000E+00 -0.00000000000E+00 -0.63628846670E+03  0.63628846670E+03  0.00000000000E+00 0. -1.
          6    1    1    2  501    0  0.65676051466E+02  0.11733281290E+03 -0.48530629129E+03  0.53247678737E+03  0.17300000000E+03 0. -1.
         -6    1    1    2    0  502 -0.65676051466E+02 -0.11733281290E+03 -0.33184818584E+02  0.22160903615E+03  0.17300000000E+03 0. -1.
<mgrwt>
<rscale>  2 0.21911032E+03</rscale>
<asrwt>0</asrwt>
<pdfrwt beam="1">  1       21 0.18122671E-01 0.21911032E+03</pdfrwt>
<pdfrwt beam="2">  1       21 0.97890532E-01 0.21911032E+03</pdfrwt>
<totfact> 0.23570848E+04</totfact>
</mgrwt>
</event>
<event>
 4    3  0.4041078E+000  0.1904655E+03  0.7546771E-02  0.1158042E+00
         21   -1    0    0  503  502  0.00000000000E+00  0.00000000000E+00  0.58362556195E+03  0.58362556195E+03  0.00000000000E+00 0.  1.
         21   -1    0    0  501  503 -0.00000000000E+00 -0.00000000000E+00 -0.10648978184E+03  0.10648978184E+03  0.00000000000E+00 0.  1.
          6    1    1    2  501    0 -0.44010960267E+02 -0.66416310465E+02  0.15932331082E+02  0.19113066236E+03  0.17300000000E+03 0.  1.
         -6    1    1    2    0  502  0.44010960267E+02  0.66416310465E+02  0.46120344903E+03  0.49898468144E+03  0.17300000000E+03 0.  1.
<mgrwt>
<rscale>  2 0.19046546E+03</rscale>
<asrwt>0</asrwt>
<pdfrwt beam="1">  1       21 0.89788546E-01 0.19046546E+03</pdfrwt>
<pdfrwt beam="2">  1       21 0.16383044E-01 0.19046546E+03</pdfrwt>
<totfact> 0.35311442E+04</totfact>
</mgrwt>
</event>
<event>
 4    3  0.4041078E+000  0.2040558E+03  0.7546771E-02  0.1146362E+00
         21   -1    0    0  503  502  0.00000000000E+00  0.00000000000E+00  0.12130329418E+04  0.12130329418E+04  0.00000000000E+00 0. -1.
         21   -1    0    0  501  503 -0.00000000000E+00 -0.00000000000E+00 -0.38385818440E+02  0.38385818440E+02  0.00000000000E+00 0. -1.
          6    1    1    2  501    0  0.31727369333E+02 -0.10345604987E+03  0.79080802024E+03  0.81671053936E+03  0.17300000000E+03 0. -1.
         -6    1    1    2    0  502 -0.31727369333E+02  0.10345604987E+03  0.38383910311E+03  0.43470822087E+03  0.17300000000E+03 0. -1.
<mgrwt>
<rscale>  2 0.20405583E+03</rscale>
<asrwt>0</asrwt>
<pdfrwt beam="1">  1       21 0.18662042E+00 0.20405583E+03</pdfrwt>
<pdfrwt beam="2">  1       21 0.59055115E-02 0.20405583E+03</pdfrwt>
<totfact> 0.33016951E+04</totfact>
</mgrwt>
</event>
<event>
 4    3  0.4041078E+000  0.1750196E+03  0.7546771E-02  0.1172712E+00
         21   -1    0    0  501  502  0.00000000000E+00  0.00000000000E+00  0.33038519962E+03  0.33038519962E+03  0.00000000000E+00 0. -1.
         21   -1    0    0  502  503 -0.00000000000E+00 -0.00000000000E+00 -0.94220190349E+02  0.94220190349E+02  0.00000000000E+00 0. -1.
          6    1    1    2  501    0 -0.23758992042E+02 -0.11762405381E+02  0.14491126301E+03  0.22722481826E+03  0.17300000000E+03 0. -1.
         -6    1    1    2    0  503  0.23758992042E+02  0.11762405381E+02  0.91253746256E+02  0.19738057171E+03  0.17300000000E+03 0. -1.
<mgrwt>
<rscale>  2 0.17501955E+03</rscale>
<asrwt>0</asrwt>
<pdfrwt beam="1">  1       21 0.50828492E-01 0.17501955E+03</pdfrwt>
<pdfrwt beam="2">  1       21 0.14495414E-01 0.17501955E+03</pdfrwt>
<totfact> 0.15459094E+05</totfact>
</mgrwt>
</event>
<event>
 4    3  0.4041078E+000  0.1948229E+03  0.7546771E-02  0.1154182E+00
         21   -1    0    0  501  502  0.00000000000E+00  0.00000000000E+00  0.64019818753E+03  0.64019818753E+03  0.00000000000E+00 0.  1.
         21   -1    0    0  502  503 -0.00000000000E+00 -0.00000000000E+00 -0.33659469341E+03  0.33659469341E+03  0.00000000000E+00 0.  1.
          6    1    1    2  501    0 -0.58363874122E+02  0.67975234030E+02  0.59510319634E+03  0.62618191329E+03  0.17300000000E+03 0.  1.
         -6    1    1    2    0  503  0.58363874122E+02 -0.67975234030E+02 -0.29149970221E+03  0.35061096765E+03  0.17300000000E+03 0.  1.
<mgrwt>
<rscale>  2 0.19482293E+03</rscale>
<asrwt>0</asrwt>
<pdfrwt beam="1">  1       21 0.98492028E-01 0.19482293E+03</pdfrwt>
<pdfrwt beam="2">  1       21 0.51783799E-01 0.19482293E+03</pdfrwt>
<totfact> 0.30080114E+03</totfact>
</mgrwt>
</event>
<event>
 4    3  0.4041078E+000  0.1891753E+03  0.7546771E-02  0.1159207E+00
         21   -1    0    0  503  502  0.00000000000E+00  0.00000000000E+00  0.18021515688E+02  0.18021515688E+02  0.00000000000E+00 0.  1.
         21   -1    0    0  501  503 -0.00000000000E+00 -0.00000000000E+00 -0.23114888261E+04  0.23114888261E+04  0.00000000000E+00 0.  1.
          6    1    1    2  501    0  0.39453655145E+02  0.65587297045E+02 -0.15839378400E+04  0.15951947735E+04  0.17300000000E+03 0.  1.
         -6    1    1    2    0  502 -0.39453655145E+02 -0.65587297045E+02 -0.70952947042E+03  0.73431556829E+03  0.17300000000E+03 0.  1.
<mgrwt>
<rscale>  2 0.18917527E+03</rscale>
<asrwt>0</asrwt>
<pdfrwt beam="1">  1       21 0.27725427E-02 0.18917527E+03</pdfrwt>
<pdfrwt beam="2">  1       21 0.35561343E+00 0.18917527E+03</pdfrwt>
<totfact> 0.11725067E+04</totfact>
</mgrwt>
</event>
<event>
 4    3  0.4041078E+000  0.1759036E+03  0.7546771E-02  0.1171828E+00
         21   -1    0    0  503  502  0.00000000000E+00  0.00000000000E+00  0.39112879475E+02  0.39112879475E+02  0.00000000000E+00 0. -1.
         21   -1    0    0  501  503 -0.00000000000E+00 -0.00000000000E+00 -0.19301847613E+04  0.19301847613E+04  0.00000000000E+00 0. -1.
          6    1    1    2  501    0  0.22740889699E+02 -0.22269297954E+02 -0.17019517110E+04  0.17110177370E+04  0.17300000000E+03 0. -1.
         -6    1    1    2    0  502 -0.22740889699E+02  0.22269297954E+02 -0.18912017087E+03  0.25827990384E+03  0.17300000000E+03 0. -1.
<mgrwt>
<rscale>  2 0.17590358E+03</rscale>
<asrwt>0</asrwt>
<pdfrwt beam="1">  1       21 0.60173666E-02 0.17590358E+03</pdfrwt>
<pdfrwt beam="2">  1       21 0.29695148E+00 0.17590358E+03</pdfrwt>
<totfact> 0.71101554E+03</totfact>
</mgrwt>
</event>
<event>
 4    3  0.4041078E+000  0.2745208E+03  0.7546771E-02  0.1098720E+00
         21   -1    0    0  503  502  0.00000000000E+00  0.00000000000E+00  0.20975785258E+04  0.20975785258E+04  0.00000000000E+00 0. -1.
         21   -1    0    0  501  503 -0.00000000000E+00 -0.00000000000E+00 -0.65083743026E+02  0.65083743026E+02  0.00000000000E+00 0. -1.
          6    1    1    2  501    0  0.88985550892E+02  0.19368593841E+03  0.29250340819E+03  0.40114824542E+03  0.17300000000E+03 0. -1.
         -6    1    1    2    0  502 -0.88985550892E+02 -0.19368593841E+03  0.17399913746E+04  0.17615140234E+04  0.17300000000E+03 0. -1.
<mgrwt>
<rscale>  2 0.27452080E+03</rscale>
<asrwt>0</asrwt>
<pdfrwt beam="1">  1       21 0.32270434E+00 0.27452080E+03</pdfrwt>
<pdfrwt beam="2">  1       21 0.10012885E-01 0.27452080E+03</pdfrwt>
<totfact> 0.18668448E+03</totfact>
</mgrwt>
</event>
<event>
 4    3  0.4041078E+000  0.1944956E+03  0.7546771E-02  0.1154468E+00
         21   -1    0    0  501  502  0.00000000000E+00  0.00000000000E+00  0.32150636008E+02  0.32150636008E+02  0.00000000000E+00 0.  1.
         21   -1    0    0  502  503 -0.00000000000E+00 -0.00000000000E+00 -0.19825379153E+04  0.19825379153E+04  0.00000000000E+00 0. -1.
          6    1    1    2  501    0 -0.14977997192E+02  0.87608172108E+02 -0.33292431694E+03  0.38557377119E+03  0.17300000000E+03 0.  1.
         -6    1    1    2    0  503  0.14977997192E+02 -0.87608172108E+02 -0.16174629624E+04  0.16291147801E+04  0.17300000000E+03 0. -1.
<mgrwt>
<rscale>  2 0.19449558E+03</rscale>
<asrwt>0</asrwt>
<pdfrwt beam="1">  1       21 0.49462496E-02 0.19449558E+03</pdfrwt>
<pdfrwt beam="2">  1       21 0.30500596E+00 0.19449558E+03</pdfrwt>
<totfact> 0.87334121E+03</totfact>
</mgrwt>
</event>
<event>
 4    3  0.4041078E+000  0.3421152E+03  0.7546771E-02  0.1065899E+00
         21   -1    0    0  501  502  0.00000000000E+00  0.00000000000E+00  0.21309269408E+03  0.21309269408E+03  0.00000000000E+00 0.  1.
         21   -1    0    0  502  503 -0.00000000000E+00 -0.00000000000E+00 -0.70492087527E+03  0.70492087527E+03  0.00000000000E+00 0. -1.
          6    1    1    2  501    0  0.29514444505E+03  0.18931908203E+01 -0.30218284580E+02  0.34344719002E+03  0.17300000000E+03 0.  1.
         -6    1    1    2    0  503 -0.29514444505E+03 -0.18931908203E+01 -0.46160989660E+03  0.57456637933E+03  0.17300000000E+03 0. -1.
<mgrwt>
<rscale>  2 0.34211523E+03</rscale>
<asrwt>0</asrwt>
<pdfrwt beam="1">  1       21 0.32783491E-01 0.34211523E+03</pdfrwt>
<pdfrwt beam="2">  1       21 0.10844937E+00 0.34211523E+03</pdfrwt>
<totfact> 0.55412157E+03</totfact>
</mgrwt>
</event>
<event>
 4    3  0.4041078E+000  0.1913557E+03  0.7546771E-02  0.1157244E+00
         21   -1    0    0  503  502  0.00000000000E+00  0.00000000000E+00  0.10816669006E+04  0.10816669006E+04  0.00000000000E+00 0.  1.
         21   -1    0    0  501  503 -0.00000000000E+00 -0.00000000000E+00 -0.68190246558E+02  0.68190246558E+02  0.00000000000E+00 0.  1.
          6    1    1    2  501    0  0.54920585932E+02 -0.60594688375E+02  0.98757750787E+02  0.21533713186E+03  0.17300000000E+03 0.  1.
         -6    1    1    2    0  502 -0.54920585932E+02  0.60594688375E+02  0.91471890330E+03  0.93452001534E+03  0.17300000000E+03 0.  1.
<mgrwt>
<rscale>  2 0.19135566E+03</rscale>
<asrwt>0</asrwt>
<pdfrwt beam="1">  1       21 0.16641028E+00 0.19135566E+03</pdfrwt>
<pdfrwt beam="2">  1       21 0.10490808E-01 0.19135566E+03</pdfrwt>
<totfact> 0.16881927E+04</totfact>
</mgrwt>
</event>
<event>
 4    3  0.4041078E+000  0.2590352E+03  0.7546771E-02  0.1107724E+00
         21   -1    0    0  501  502  0.00000000000E+00  0.00000000000E+00  0.86762470128E+03  0.86762470128E+03  0.00000000000E+00 0.  1.
         21   -1    0    0  502  503 -0.00000000000E+00 -0.00000000000E+00 -0.15140910533E+03  0.15140910533E+03  0.00000000000E+00 0. -1.
          6    1    1    2  501    0  0.61134097963E+02  0.18284653489E+03  0.71448574094E+03  0.75999283369E+03  0.17300000000E+03 0.  1.
         -6    1    1    2    0  503 -0.61134097963E+02 -0.18284653489E+03  0.17298550092E+01  0.25904097292E+03  0.17300000000E+03 0. -1.
<mgrwt>
<rscale>  2 0.25903520E+03</rscale>
<asrwt>0</asrwt>
<pdfrwt beam="1">  1       21 0.13348072E+00 0.25903520E+03</pdfrwt>
<pdfrwt beam="2">  1       21 0.23293709E-01 0.25903520E+03</pdfrwt>
<totfact> 0.66898411E+03</totfact>
</mgrwt>
</event>
<event>
 4    3  0.4041078E+000  0.1920877E+03  0.7546771E-02  0.1156592E+00
         21   -1    0    0  503  502  0.00000000000E+00  0.00000000000E+00  0.15298181954E+03  0.15298181954E+03  0.00000000000E+00 0.  1.
         21   -1    0    0  501  503 -0.00000000000E+00 -0.00000000000E+00 -0.26594728485E+03  0.26594728485E+03  0.00000000000E+00 0.  1.
          6    1    1    2  501    0 -0.82430519398E+02  0.13187336872E+02 -0.12039196700E+03  0.22669786523E+03  0.17300000000E+03 0. -1.
         -6    1    1    2    0  502  0.82430519398E+02 -0.13187336872E+02  0.74265016959E+01  0.19223123916E+03  0.17300000000E+03 0. -1.
<mgrwt>
<rscale>  2 0.19208773E+03</rscale>
<asrwt>0</asrwt>
<pdfrwt beam="1">  1       21 0.23535665E-01 0.19208773E+03</pdfrwt>
<pdfrwt beam="2">  1       21 0.40914966E-01 0.19208773E+03</pdfrwt>
<totfact> 0.97791353E+04</totfact>
</mgrwt>
</event>
<event>
 4    3  0.4041078E+000  0.2090305E+03  0.7546771E-02  0.1142336E+00
         21   -1    0    0  501  502  0.00000000000E+00  0.00000000000E+00  0.27703212168E+03  0.27703212168E+03  0.00000000000E+00 0.  1.
         21   -1    0    0  502  503 -0.00000000000E+00 -0.00000000000E+00 -0.80258959518E+03  0.80258959518E+03  0.00000000000E+00 0. -1.
          6    1    1    2  501    0 -0.20125519954E+01  0.11730609383E+03  0.22109325409E+03  0.30426303919E+03  0.17300000000E+03 0.  1.
         -6    1    1    2    0  503  0.20125519954E+01 -0.11730609383E+03 -0.74665072760E+03  0.77535867767E+03  0.17300000000E+03 0. -1.
<mgrwt>
<rscale>  2 0.20903055E+03</rscale>
<asrwt>0</asrwt>
<pdfrwt beam="1">  1       21 0.42620327E-01 0.20903055E+03</pdfrwt>
<pdfrwt beam="2">  1       21 0.12347532E+00 0.20903055E+03</pdfrwt>
<totfact> 0.25676183E+03</totfact>
</mgrwt>
</event>
<event>
 4    3  0.4041078E+000  0.2281090E+03  0.7546771E-02  0.1127978E+00
         21   -1    0    0  501  502  0.00000000000E+00  0.00000000000E+00  0.34650296366E+03  0.34650296366E+03  0.00000000000E+00 0. -1.
         21   -1    0    0  502  503 -0.00000000000E+00 -0.00000000000E+00 -0.26112592029E+03  0.26112592029E+03  0.00000000000E+00 0. -1.
          6    1    1    2  501    0  0.62942361086E+02 -0.13469582778E+03  0.24073279804E+03  0.33164135281E+03  0.17300000000E+03 0. -1.
         -6    1    1    2    0  503 -0.62942361086E+02  0.13469582778E+03 -0.15535575467E+03  0.27598753115E+03  0.17300000000E+03 0. -1.
<mgrwt>
<rscale>  2 0.22810898E+03</rscale>
<asrwt>0</asrwt>
<pdfrwt beam="1">  1       21 0.53308148E-01 0.22810898E+03</pdfrwt>
<pdfrwt beam="2">  1       21 0.40173218E-01 0.22810898E+03</pdfrwt>
<totfact> 0.19492641E+04</totfact>
</mgrwt>
</event>
<event>
 4    3  0.4041078E+000  0.1782539E+03  0.7546771E-02  0.1169504E+00
         21   -1    0    0  501  502  0.00000000000E+00  0.00000000000E+00  0.53605293403E+03  0.53605293403E+03  0.00000000000E+00 0.  1.
         21   -1    0    0  502  503 -0.00000000000E+00 -0.00000000000E+00 -0.23802745244E+03  0.23802745244E+03  0.00000000000E+00 0.  1.
          6    1    1    2  501    0 -0.13938698650E+02  0.40634644665E+02  0.48441711354E+03  0.51617284077E+03  0.17300000000E+03 0.  1.
         -6    1    1    2    0  503  0.13938698650E+02 -0.40634644665E+02 -0.18639163195E+03  0.25790754570E+03  0.17300000000E+03 0.  1.
<mgrwt>
<rscale>  2 0.17825392E+03</rscale>
<asrwt>0</asrwt>
<pdfrwt beam="1">  1       21 0.82469682E-01 0.17825392E+03</pdfrwt>
<pdfrwt beam="2">  1       21 0.36619608E-01 0.17825392E+03</pdfrwt>
<totfact> 0.93277563E+03</totfact>
</mgrwt>
</event>
<event>
 4    3  0.4041078E+000  0.2349988E+03  0.7546771E-02  0.1123170E+00
         21   -1    0    0  503  502  0.00000000000E+00  0.00000000000E+00  0.80055797228E+02  0.80055797228E+02  0.00000000000E+00 0. -1.
         21   -1    0    0  501  503 -0.00000000000E+00 -0.00000000000E+00 -0.78756782772E+03  0.78756782772E+03  0.00000000000E+00 0. -1.
          6    1    1    2  501    0 -0.83795735865E+02 -0.13518025889E+03 -0.50658353896E+03  0.55843648671E+03  0.17300000000E+03 0. -1.
         -6    1    1    2    0  502  0.83795735865E+02  0.13518025889E+03 -0.20092849153E+03  0.30918713823E+03  0.17300000000E+03 0. -1.
<mgrwt>
<rscale>  2 0.23499878E+03</rscale>
<asrwt>0</asrwt>
<pdfrwt beam="1">  1       21 0.12316276E-01 0.23499878E+03</pdfrwt>
<pdfrwt beam="2">  1       21 0.12116428E+00 0.23499878E+03</pdfrwt>
<totfact> 0.28197797E+04</totfact>
</mgrwt>
</event>
<event>
 4    3  0.4041078E+000  0.1811800E+03  0.7546771E-02  0.1166666E+00
         21   -1    0    0  501  502  0.00000000000E+00  0.00000000000E+00  0.52251895480E+03  0.52251895480E+03  0.00000000000E+00 0. -1.
         21   -1    0    0  502  503 -0.00000000000E+00 -0.00000000000E+00 -0.64835660107E+02  0.64835660107E+02  0.00000000000E+00 0. -1.
          6    1    1    2  501    0 -0.51792339604E+02 -0.14653736994E+02  0.28058502843E+03  0.33399721051E+03  0.17300000000E+03 0. -1.
         -6    1    1    2    0  503  0.51792339604E+02  0.14653736994E+02  0.17709826626E+03  0.25335740440E+03  0.17300000000E+03 0. -1.
<mgrwt>
<rscale>  2 0.18117996E+03</rscale>
<asrwt>0</asrwt>
<pdfrwt beam="1">  1       21 0.80387528E-01 0.18117996E+03</pdfrwt>
<pdfrwt beam="2">  1       21 0.99747173E-02 0.18117996E+03</pdfrwt>
<totfact> 0.11136963E+05</totfact>
</mgrwt>
</event>
<event>
 4    3  0.4041078E+000  0.2687850E+03  0.7546771E-02  0.1101977E+00
         21   -1    0    0  501  502  0.00000000000E+00  0.00000000000E+00  0.70125883936E+02  0.70125883936E+02  0.00000000000E+00 0. -1.
         21   -1    0    0  502  503 -0.00000000000E+00 -0.00000000000E+00 -0.12577931540E+04  0.12577931540E+04  0.00000000000E+00 0.  1.
          6    1    1    2  501    0 -0.71052038720E+02  0.19304920357E+03 -0.31141494560E+03  0.41136924478E+03  0.17300000000E+03 0.  1.
         -6    1    1    2    0  503  0.71052038720E+02 -0.19304920357E+03 -0.87625232446E+03  0.91654979315E+03  0.17300000000E+03 0.  1.
<mgrwt>
<rscale>  2 0.26878502E+03</rscale>
<asrwt>0</asrwt>
<pdfrwt beam="1">  1       21 0.10788598E-01 0.26878502E+03</pdfrwt>
<pdfrwt beam="2">  1       21 0.19350662E+00 0.26878502E+03</pdfrwt>
<totfact> 0.99355215E+03</totfact>
</mgrwt>
</event>
<event>
 4    3  0.4041078E+000  0.2400751E+03  0.7546771E-02  0.1119743E+00
         21   -1    0    0  501  502  0.00000000000E+00  0.00000000000E+00  0.25932119081E+03  0.25932119081E+03  0.00000000000E+00 0.  1.
         21   -1    0    0  502  503 -0.00000000000E+00 -0.00000000000E+00 -0.26304768084E+03  0.26304768084E+03  0.00000000000E+00 0.  1.
          6    1    1    2  501    0 -0.16557187585E+03  0.17118069287E+02  0.10098762670E+03  0.26045071533E+03  0.17300000000E+03 0.  1.
         -6    1    1    2    0  503  0.16557187585E+03 -0.17118069287E+02 -0.10471411673E+03  0.26191815632E+03  0.17300000000E+03 0.  1.
<mgrwt>
<rscale>  2 0.24007514E+03</rscale>
<asrwt>0</asrwt>
<pdfrwt beam="1">  1       21 0.39895568E-01 0.24007514E+03</pdfrwt>
<pdfrwt beam="2">  1       21 0.40468874E-01 0.24007514E+03</pdfrwt>
<totfact> 0.34800825E+04</totfact>
</mgrwt>
</event>
<event>
 4    3  0.4041078E+000  0.3365483E+03  0.7546771E-02  0.1068276E+00
         21   -1    0    0  503  502  0.00000000000E+00  0.00000000000E+00  0.94886477213E+03  0.94886477213E+03  0.00000000000E+00 0.  1.
         21   -1    0    0  501  503 -0.00000000000E+00 -0.00000000000E+00 -0.19216219920E+03  0.19216219920E+03  0.00000000000E+00 0.  1.
          6    1    1    2  501    0 -0.13883536792E+03  0.25310170582E+03  0.72948966564E+03  0.80338029920E+03  0.17300000000E+03 0.  1.
         -6    1    1    2    0  502  0.13883536792E+03 -0.25310170582E+03  0.27212907288E+02  0.33764667213E+03  0.17300000000E+03 0.  1.
<mgrwt>
<rscale>  2 0.33654826E+03</rscale>
<asrwt>0</asrwt>
<pdfrwt beam="1">  1       21 0.14597919E+00 0.33654826E+03</pdfrwt>
<pdfrwt beam="2">  1       21 0.29563416E-01 0.33654826E+03</pdfrwt>
<totfact> 0.31936512E+03</totfact>
</mgrwt>
</event>
<event>
 4    3  0.4041078E+000  0.1939305E+03  0.7546771E-02  0.1154963E+00
         21   -1    0    0  501  502  0.00000000000E+00  0.00000000000E+00  0.96344615751E+02  0.96344615751E+02  0.00000000000E+00 0. -1.
         21   -1    0    0  502  503 -0.00000000000E+00 -0.00000000000E+00 -0.39418827863E+03  0.39418827863E+03  0.00000000000E+00 0.  1.
          6    1    1    2  501    0  0.87258920279E+02  0.81202239938E+01 -0.17309335087E+03  0.25994300399E+03  0.17300000000E+03 0. -1.
         -6    1    1    2    0  503 -0.87258920279E+02 -0.81202239938E+01 -0.12475031201E+03  0.23058989039E+03  0.17300000000E+03 0. -1.
<mgrwt>
<rscale>  2 0.19393055E+03</rscale>
<asrwt>0</asrwt>
<pdfrwt beam="1">  1       21 0.14822248E-01 0.19393055E+03</pdfrwt>
<pdfrwt beam="2">  1       21 0.60644351E-01 0.19393055E+03</pdfrwt>
<totfact> 0.10147408E+05</totfact>
</mgrwt>
</event>
<event>
 4    3  0.4041078E+000  0.1933668E+03  0.7546771E-02  0.1155459E+00
         21   -1    0    0  501  502  0.00000000000E+00  0.00000000000E+00  0.25595195436E+03  0.25595195436E+03  0.00000000000E+00 0. -1.
         21   -1    0    0  502  503 -0.00000000000E+00 -0.00000000000E+00 -0.15376037343E+03  0.15376037343E+03  0.00000000000E+00 0.  1.
          6    1    1    2  501    0  0.57955695988E+02 -0.64053557766E+02  0.96865570314E+02  0.21627218886E+03  0.17300000000E+03 0.  1.
         -6    1    1    2    0  503 -0.57955695988E+02  0.64053557766E+02  0.53260106172E+01  0.19344013893E+03  0.17300000000E+03 0. -1.
<mgrwt>
<rscale>  2 0.19336680E+03</rscale>
<asrwt>0</asrwt>
<pdfrwt beam="1">  1       21 0.39377224E-01 0.19336680E+03</pdfrwt>
<pdfrwt beam="2">  1       21 0.23655442E-01 0.19336680E+03</pdfrwt>
<totfact> 0.10460263E+05</totfact>
</mgrwt>
</event>
<event>
 4    3  0.4041078E+000  0.2099692E+03  0.7546771E-02  0.1141590E+00
         21   -1    0    0  503  502  0.00000000000E+00  0.00000000000E+00  0.91225093159E+02  0.91225093159E+02  0.00000000000E+00 0.  1.
         21   -1    0    0  501  503 -0.00000000000E+00 -0.00000000000E+00 -0.51028571629E+03  0.51028571629E+03  0.00000000000E+00 0.  1.
          6    1    1    2  501    0  0.11881404020E+03  0.64252262420E+01 -0.27872177356E+03  0.34895972079E+03  0.17300000000E+03 0.  1.
         -6    1    1    2    0  502 -0.11881404020E+03 -0.64252262420E+01 -0.14033884958E+03  0.25255108866E+03  0.17300000000E+03 0.  1.
<mgrwt>
<rscale>  2 0.20996919E+03</rscale>
<asrwt>0</asrwt>
<pdfrwt beam="1">  1       21 0.14034630E-01 0.20996919E+03</pdfrwt>
<pdfrwt beam="2">  1       21 0.78505493E-01 0.20996919E+03</pdfrwt>
<totfact> 0.63015096E+04</totfact>
</mgrwt>
</event>
<event>
 4    3  0.4041078E+000  0.1907196E+03  0.7546771E-02  0.1157814E+00
         21   -1    0    0  501  502  0.00000000000E+00  0.00000000000E+00  0.20174155446E+03  0.20174155446E+03  0.00000000000E+00 0.  1.
         21   -1    0    0  502  503 -0.00000000000E+00 -0.00000000000E+00 -0.24157963671E+03  0.24157963671E+03  0.00000000000E+00 0.  1.
          6    1    1    2  501    0  0.60657374925E+02 -0.52589289256E+02  0.91720317968E+02  0.21162837051E+03  0.17300000000E+03 0.  1.
         -6    1    1    2    0  503 -0.60657374925E+02  0.52589289256E+02 -0.13155840022E+03  0.23169282066E+03  0.17300000000E+03 0.  1.
<mgrwt>
<rscale>  2 0.19071956E+03</rscale>
<asrwt>0</asrwt>
<pdfrwt beam="1">  1       21 0.31037163E-01 0.19071956E+03</pdfrwt>
<pdfrwt beam="2">  1       21 0.37166098E-01 0.19071956E+03</pdfrwt>
<totfact> 0.69683850E+04</totfact>
</mgrwt>
</event>
<event>
 4    3  0.4041078E+000  0.1892883E+03  0.7546771E-02  0.1159105E+00
         21   -1    0    0  501  502  0.00000000000E+00  0.00000000000E+00  0.25161618702E+03  0.25161618702E+03  0.00000000000E+00 0.  1.
         21   -1    0    0  502  503 -0.00000000000E+00 -0.00000000000E+00 -0.18405452994E+03  0.18405452994E+03  0.00000000000E+00 0.  1.
          6    1    1    2  501    0  0.62359289228E+02 -0.44859457851E+02  0.13741146551E+03  0.23390588442E+03  0.17300000000E+03 0.  1.
         -6    1    1    2    0  503 -0.62359289228E+02  0.44859457851E+02 -0.69849808428E+02  0.20176483254E+03  0.17300000000E+03 0.  1.
<mgrwt>
<rscale>  2 0.18928828E+03</rscale>
<asrwt>0</asrwt>
<pdfrwt beam="1">  1       21 0.38710183E-01 0.18928828E+03</pdfrwt>
<pdfrwt beam="2">  1       21 0.28316081E-01 0.18928828E+03</pdfrwt>
<totfact> 0.76821793E+04</totfact>
</mgrwt>
</event>
<event>
 4    3  0.4041078E+000  0.1899190E+03  0.7546771E-02  0.1158534E+00
         21   -1    0    0  503  502  0.00000000000E+00  0.00000000000E+00  0.30240278507E+02  0.30240278507E+02  0.00000000000E+00 0. -1.
         21   -1    0    0  501  503 -0.00000000000E+00 -0.00000000000E+00 -0.15480970926E+04  0.15480970926E+04  0.00000000000E+00 0. -1.
          6    1    1    2  501    0 -0.75009387200E+02  0.22667663396E+02 -0.11370176505E+04  0.11527698680E+04  0.17300000000E+03 0. -1.
         -6    1    1    2    0  502  0.75009387200E+02 -0.22667663396E+02 -0.38083916358E+03  0.42556750304E+03  0.17300000000E+03 0. -1.
<mgrwt>
<rscale>  2 0.18991901E+03</rscale>
<asrwt>0</asrwt>
<pdfrwt beam="1">  1       21 0.46523499E-02 0.18991901E+03</pdfrwt>
<pdfrwt beam="2">  1       21 0.23816882E+00 0.18991901E+03</pdfrwt>
<totfact> 0.23794295E+04</totfact>
</mgrwt>
</event>
<event>
 4    3  0.4041078E+000  0.1893581E+03  0.7546771E-02  0.1159042E+00
         21   -1    0    0  503  502  0.00000000000E+00  0.00000000000E+00  0.63478266536E+02  0.63478266536E+02  0.00000000000E+00 0. -1.
         21   -1    0    0  501  503 -0.00000000000E+00 -0.00000000000E+00 -0.66105285764E+03  0.66105285764E+03  0.00000000000E+00 0. -1.
          6    1    1    2  501    0  0.63592772320E+02 -0.43398690544E+02 -0.43697675421E+03  0.47624066474E+03  0.17300000000E+03 0. -1.
         -6    1    1    2    0  502 -0.63592772320E+02  0.43398690544E+02 -0.16059783690E+03  0.24829045944E+03  0.17300000000E+03 0. -1.
<mgrwt>
<rscale>  2 0.18935809E+03</rscale>
<asrwt>0</asrwt>
<pdfrwt beam="1">  1       21 0.97658877E-02 0.18935809E+03</pdfrwt>
<pdfrwt beam="2">  1       21 0.10170043E+00 0.18935809E+03</pdfrwt>
<totfact> 0.66830031E+04</totfact>
</mgrwt>
</event>
<event>
 4    3  0.4041078E+000  0.1841522E+03  0.7546771E-02  0.1163844E+00
         21   -1    0    0  503  502  0.00000000000E+00  0.00000000000E+00  0.67552749253E+02  0.67552749253E+02  0.00000000000E+00 0.  1.
         21   -1    0    0  501  503 -0.00000000000E+00 -0.00000000000E+00 -0.13469250360E+04  0.13469250360E+04  0.00000000000E+00 0.  1.
          6    1    1    2  501    0 -0.37782029019E+02  0.50552350675E+02 -0.11998324170E+04  0.12138821403E+04  0.17300000000E+03 0.  1.
         -6    1    1    2    0  502  0.37782029019E+02 -0.50552350675E+02 -0.79539869817E+02  0.20059564493E+03  0.17300000000E+03 0.  1.
<mgrwt>
<rscale>  2 0.18415217E+03</rscale>
<asrwt>0</asrwt>
<pdfrwt beam="1">  1       21 0.10392730E-01 0.18415217E+03</pdfrwt>
<pdfrwt beam="2">  1       21 0.20721924E+00 0.18415217E+03</pdfrwt>
<totfact> 0.92254064E+03</totfact>
</mgrwt>
</event>
<event>
 4    3  0.4041078E+000  0.4008648E+03  0.7546771E-02  0.1043481E+00
         21   -1    0    0  503  502  0.00000000000E+00  0.00000000000E+00  0.45711571384E+03  0.45711571384E+03  0.00000000000E+00 0.  1.
         21   -1    0    0  501  503 -0.00000000000E+00 -0.00000000000E+00 -0.13730391317E+04  0.13730391317E+04  0.00000000000E+00 0. -1.
          6    1    1    2  501    0  0.15960598895E+03 -0.32448345718E+03 -0.12472510802E+04  0.13100869600E+04  0.17300000000E+03 0. -1.
         -6    1    1    2    0  502 -0.15960598895E+03  0.32448345718E+03  0.33132766237E+03  0.52006788551E+03  0.17300000000E+03 0.  1.
<mgrwt>
<rscale>  2 0.40086480E+03</rscale>
<asrwt>0</asrwt>
<pdfrwt beam="1">  1       21 0.70325495E-01 0.40086480E+03</pdfrwt>
<pdfrwt beam="2">  1       21 0.21123679E+00 0.40086480E+03</pdfrwt>
<totfact> 0.17277135E+02</totfact>
</mgrwt>
</event>
<event>
 4    3  0.4041078E+000  0.1736800E+03  0.7546771E-02  0.1174064E+00
         21   -1    0    0  501  502  0.00000000000E+00  0.00000000000E+00  0.17254753117E+04  0.17254753117E+04  0.00000000000E+00 0.  1.
         21   -1    0    0  502  503 -0.00000000000E+00 -0.00000000000E+00 -0.92705766272E+02  0.92705766272E+02  0.00000000000E+00 0.  1.
          6    1    1    2  501    0 -0.14456347312E+02 -0.51737200836E+01  0.16352856022E+04  0.16444828226E+04  0.17300000000E+03 0.  1.
         -6    1    1    2    0  503  0.14456347312E+02  0.51737200836E+01 -0.25160567426E+01  0.17369825531E+03  0.17300000000E+03 0.  1.
<mgrwt>
<rscale>  2 0.17368003E+03</rscale>
<asrwt>0</asrwt>
<pdfrwt beam="1">  1       21 0.26545772E+00 0.17368003E+03</pdfrwt>
<pdfrwt beam="2">  1       21 0.14262427E-01 0.17368003E+03</pdfrwt>
<totfact> 0.23766389E+03</totfact>
</mgrwt>
</event>
<event>
 4    3  0.4041078E+000  0.1855918E+03  0.7546771E-02  0.1162498E+00
         21   -1    0    0  503  502  0.00000000000E+00  0.00000000000E+00  0.13155292436E+04  0.13155292436E+04  0.00000000000E+00 0.  1.
         21   -1    0    0  501  503 -0.00000000000E+00 -0.00000000000E+00 -0.29521339173E+02  0.29521339173E+02  0.00000000000E+00 0. -1.
          6    1    1    2  501    0 -0.49829881428E+02  0.45080909091E+02  0.41684407959E+03  0.45629298935E+03  0.17300000000E+03 0. -1.
         -6    1    1    2    0  502  0.49829881428E+02 -0.45080909091E+02  0.86916382482E+03  0.88875759339E+03  0.17300000000E+03 0.  1.
<mgrwt>
<rscale>  2 0.18559177E+03</rscale>
<asrwt>0</asrwt>
<pdfrwt beam="1">  1       21 0.20238907E+00 0.18559177E+03</pdfrwt>
<pdfrwt beam="2">  1       21 0.45417455E-02 0.18559177E+03</pdfrwt>
<totfact> 0.41221677E+04</totfact>
</mgrwt>
</event>
<event>
 4    3  0.4041078E+000  0.1961392E+03  0.7546771E-02  0.1153038E+00
         21   -1    0    0  503  502  0.00000000000E+00  0.00000000000E+00  0.13323362402E+04  0.13323362402E+04  0.00000000000E+00 0.  1.
         21   -1    0    0  501  503 -0.00000000000E+00 -0.00000000000E+00 -0.53206815644E+02  0.53206815644E+02  0.00000000000E+00 0.  1.
          6    1    1    2  501    0  0.76282160720E+02 -0.52178615189E+02  0.17107733364E+03  0.26026530697E+03  0.17300000000E+03 0.  1.
         -6    1    1    2    0  502 -0.76282160720E+02  0.52178615189E+02  0.11080520909E+04  0.11252777489E+04  0.17300000000E+03 0.  1.
<mgrwt>
<rscale>  2 0.19613917E+03</rscale>
<asrwt>0</asrwt>
<pdfrwt beam="1">  1       21 0.20497478E+00 0.19613917E+03</pdfrwt>
<pdfrwt beam="2">  1       21 0.81856649E-02 0.19613917E+03</pdfrwt>
<totfact> 0.14350252E+04</totfact>
</mgrwt>
</event>
<event>
 4    3  0.4041078E+000  0.2215786E+03  0.7546771E-02  0.1132712E+00
         21   -1    0    0  503  502  0.00000000000E+00  0.00000000000E+00  0.13711881890E+04  0.13711881890E+04  0.00000000000E+00 0.  1.
         21   -1    0    0  501  503 -0.00000000000E+00 -0.00000000000E+00 -0.62989390024E+02  0.62989390024E+02  0.00000000000E+00 0.  1.
          6    1    1    2  501    0 -0.10666407141E+03 -0.88265751846E+02  0.11251735525E+04  0.11467835848E+04  0.17300000000E+03 0.  1.
         -6    1    1    2    0  502  0.10666407141E+03  0.88265751846E+02  0.18302524647E+03  0.28739399424E+03  0.17300000000E+03 0.  1.
<mgrwt>
<rscale>  2 0.22157858E+03</rscale>
<asrwt>0</asrwt>
<pdfrwt beam="1">  1       21 0.21095201E+00 0.22157858E+03</pdfrwt>
<pdfrwt beam="2">  1       21 0.96906764E-02 0.22157858E+03</pdfrwt>
<totfact> 0.95838595E+03</totfact>
</mgrwt>
</event>
<event>
 4    3  0.4041078E+000  0.3291562E+03  0.7546771E-02  0.1071511E+00
         21   -1    0    0  501  502  0.00000000000E+00  0.00000000000E+00  0.27160811949E+04  0.27160811949E+04  0.00000000000E+00 0. -1.
         21   -1    0    0  502  503 -0.00000000000E+00 -0.00000000000E+00 -0.72306001852E+02  0.72306001852E+02  0.00000000000E+00 0. -1.
          6    1    1    2  501    0  0.17187387569E+03  0.22107504861E+03  0.38838121018E+03  0.50910094351E+03  0.17300000000E+03 0. -1.
         -6    1    1    2    0  503 -0.17187387569E+03 -0.22107504861E+03  0.22553939829E+04  0.22792862532E+04  0.17300000000E+03 0. -1.
<mgrwt>
<rscale>  2 0.32915620E+03</rscale>
<asrwt>0</asrwt>
<pdfrwt beam="1">  1       21 0.41785857E+00 0.32915620E+03</pdfrwt>
<pdfrwt beam="2">  1       21 0.11124002E-01 0.32915620E+03</pdfrwt>
<totfact> 0.38144956E+02</totfact>
</mgrwt>
</event>
<event>
 4    3  0.4041078E+000  0.2167401E+03  0.7546771E-02  0.1136337E+00
         21   -1    0    0  501  502  0.00000000000E+00  0.00000000000E+00  0.32873414884E+03  0.32873414884E+03  0.00000000000E+00 0. -1.
         21   -1    0    0  502  503 -0.00000000000E+00 -0.00000000000E+00 -0.22721499856E+03  0.22721499856E+03  0.00000000000E+00 0. -1.
          6    1    1    2  501    0  0.75517407282E+02 -0.10651006067E+03  0.22009106305E+03  0.30889536717E+03  0.17300000000E+03 0. -1.
         -6    1    1    2    0  503 -0.75517407282E+02  0.10651006067E+03 -0.11857191277E+03  0.24705378023E+03  0.17300000000E+03 0. -1.
<mgrwt>
<rscale>  2 0.21674010E+03</rscale>
<asrwt>0</asrwt>
<pdfrwt beam="1">  1       21 0.50574484E-01 0.21674010E+03</pdfrwt>
<pdfrwt beam="2">  1       21 0.34956154E-01 0.21674010E+03</pdfrwt>
<totfact> 0.28971387E+04</totfact>
</mgrwt>
</event>
<event>
 4    3  0.4041078E+000  0.1987940E+03  0.7546771E-02  0.1150761E+00
         21   -1    0    0  503  502  0.00000000000E+00  0.00000000000E+00  0.18883877186E+03  0.18883877186E+03  0.00000000000E+00 0.  1.
         21   -1    0    0  501  503 -0.00000000000E+00 -0.00000000000E+00 -0.24637753353E+03  0.24637753353E+03  0.00000000000E+00 0. -1.
          6    1    1    2  501    0 -0.97911046931E+02  0.18617656452E+01 -0.11321603124E+03  0.22877261421E+03  0.17300000000E+03 0. -1.
         -6    1    1    2    0  502  0.97911046931E+02 -0.18617656452E+01  0.55677269569E+02  0.20644369118E+03  0.17300000000E+03 0.  1.
<mgrwt>
<rscale>  2 0.19879396E+03</rscale>
<asrwt>0</asrwt>
<pdfrwt beam="1">  1       21 0.29052119E-01 0.19879396E+03</pdfrwt>
<pdfrwt beam="2">  1       21 0.37904236E-01 0.19879396E+03</pdfrwt>
<totfact> 0.75936584E+04</totfact>
</mgrwt>
</event>
<event>
 4    3  0.4041078E+000  0.1878987E+03  0.7546771E-02  0.1160370E+00
         21   -1    0    0  501  502  0.00000000000E+00  0.00000000000E+00  0.24562243621E+03  0.24562243621E+03  0.00000000000E+00 0. -1.
         21   -1    0    0  502  503 -0.00000000000E+00 -0.00000000000E+00 -0.14959590331E+03  0.14959590331E+03  0.00000000000E+00 0. -1.
          6    1    1    2  501    0  0.42375883906E+02 -0.59843303689E+02  0.87108057390E+02  0.20710806405E+03  0.17300000000E+03 0.  1.
         -6    1    1    2    0  503 -0.42375883906E+02  0.59843303689E+02  0.89184755106E+01  0.18811027547E+03  0.17300000000E+03 0.  1.
<mgrwt>
<rscale>  2 0.18789874E+03</rscale>
<asrwt>0</asrwt>
<pdfrwt beam="1">  1       21 0.37788067E-01 0.18789874E+03</pdfrwt>
<pdfrwt beam="2">  1       21 0.23014754E-01 0.18789874E+03</pdfrwt>
<totfact> 0.11992674E+05</totfact>
</mgrwt>
</event>
<event>
 4    3  0.4041078E+000  0.2745817E+03  0.7546771E-02  0.1098686E+00
         21   -1    0    0  501  502  0.00000000000E+00  0.00000000000E+00  0.93880434252E+02  0.93880434252E+02  0.00000000000E+00 0.  1.
         21   -1    0    0  502  503 -0.00000000000E+00 -0.00000000000E+00 -0.12587310680E+04  0.12587310680E+04  0.00000000000E+00 0. -1.
          6    1    1    2  501    0 -0.67564014044E+02  0.20224043214E+03 -0.17552808682E+03  0.32589138935E+03  0.17300000000E+03 0.  1.
         -6    1    1    2    0  503  0.67564014044E+02 -0.20224043214E+03 -0.98932254689E+03  0.10267201129E+04  0.17300000000E+03 0. -1.
<mgrwt>
<rscale>  2 0.27458166E+03</rscale>
<asrwt>0</asrwt>
<pdfrwt beam="1">  1       21 0.14443145E-01 0.27458166E+03</pdfrwt>
<pdfrwt beam="2">  1       21 0.19365092E+00 0.27458166E+03</pdfrwt>
<totfact> 0.58270968E+03</totfact>
</mgrwt>
</event>
<event>
 4    3  0.4041078E+000  0.1845008E+03  0.7546771E-02  0.1163517E+00
         21   -1    0    0  501  502  0.00000000000E+00  0.00000000000E+00  0.43051040348E+03  0.43051040348E+03  0.00000000000E+00 0. -1.
         21   -1    0    0  502  503 -0.00000000000E+00 -0.00000000000E+00 -0.81964118004E+02  0.81964118004E+02  0.00000000000E+00 0. -1.
          6    1    1    2  501    0 -0.41006138233E+01  0.63989974225E+02  0.22242084627E+03  0.28898367547E+03  0.17300000000E+03 0. -1.
         -6    1    1    2    0  503  0.41006138233E+01 -0.63989974225E+02  0.12612543920E+03  0.22349084601E+03  0.17300000000E+03 0. -1.
<mgrwt>
<rscale>  2 0.18450076E+03</rscale>
<asrwt>0</asrwt>
<pdfrwt beam="1">  1       21 0.66232369E-01 0.18450076E+03</pdfrwt>
<pdfrwt beam="2">  1       21 0.12609865E-01 0.18450076E+03</pdfrwt>
<totfact> 0.11266727E+05</totfact>
</mgrwt>
</event>
<event>
 4    3  0.4041078E+000  0.1897380E+03  0.7546771E-02  0.1158698E+00
         21   -1    0    0  501  502  0.00000000000E+00  0.00000000000E+00  0.65663956706E+03  0.65663956706E+03  0.00000000000E+00 0.  1.
         21   -1    0    0  502  503 -0.00000000000E+00 -0.00000000000E+00 -0.73094315900E+02  0.73094315900E+02  0.00000000000E+00 0.  1.
          6    1    1    2  501    0 -0.36272860804E+02  0.68962207351E+02  0.10936227768E+03  0.21899911930E+03  0.17300000000E+03 0.  1.
         -6    1    1    2    0  503  0.36272860804E+02 -0.68962207351E+02  0.47418297349E+03  0.51073476367E+03  0.17300000000E+03 0.  1.
<mgrwt>
<rscale>  2 0.18973799E+03</rscale>
<asrwt>0</asrwt>
<pdfrwt beam="1">  1       21 0.10102147E+00 0.18973799E+03</pdfrwt>
<pdfrwt beam="2">  1       21 0.11245280E-01 0.18973799E+03</pdfrwt>
<totfact> 0.52881942E+04</totfact>
</mgrwt>
</event>
<event>
 4    3  0.4041078E+000  0.1870368E+03  0.7546771E-02  0.1161161E+00
         21   -1    0    0  501  502  0.00000000000E+00  0.00000000000E+00  0.19010746526E+04  0.19010746526E+04  0.00000000000E+00 0. -1.
         21   -1    0    0  502  503 -0.00000000000E+00 -0.00000000000E+00 -0.22935828962E+02  0.22935828962E+02  0.00000000000E+00 0. -1.
          6    1    1    2  501    0 -0.69972140578E+02  0.12556604900E+02  0.13668027619E+04  0.13795407057E+04  0.17300000000E+03 0. -1.
         -6    1    1    2    0  503  0.69972140578E+02 -0.12556604900E+02  0.51133606182E+03  0.54446977593E+03  0.17300000000E+03 0. -1.
<mgrwt>
<rscale>  2 0.18703681E+03</rscale>
<asrwt>0</asrwt>
<pdfrwt beam="1">  1       21 0.29247290E+00 0.18703681E+03</pdfrwt>
<pdfrwt beam="2">  1       21 0.35285906E-02 0.18703681E+03</pdfrwt>
<totfact> 0.18328682E+04</totfact>
</mgrwt>
</event>
<event>
 4    3  0.4041078E+000  0.1919979E+03  0.7546771E-02  0.1156672E+00
         21   -1    0    0  501  502  0.00000000000E+00  0.00000000000E+00  0.15777252407E+03  0.15777252407E+03  0.00000000000E+00 0.  1.
         21   -1    0    0  502  503 -0.00000000000E+00 -0.00000000000E+00 -0.39324681959E+03  0.39324681959E+03  0.00000000000E+00 0. -1.
          6    1    1    2  501    0  0.61312559948E+02 -0.56346891066E+02  0.57779921400E+02  0.20050366944E+03  0.17300000000E+03 0.  1.
         -6    1    1    2    0  503 -0.61312559948E+02  0.56346891066E+02 -0.29325421692E+03  0.35051567423E+03  0.17300000000E+03 0. -1.
<mgrwt>
<rscale>  2 0.19199792E+03</rscale>
<asrwt>0</asrwt>
<pdfrwt beam="1">  1       21 0.24272697E-01 0.19199792E+03</pdfrwt>
<pdfrwt beam="2">  1       21 0.60499509E-01 0.19199792E+03</pdfrwt>
<totfact> 0.40802838E+04</totfact>
</mgrwt>
</event>
<event>
 4    3  0.4041078E+000  0.3688866E+03  0.7546771E-02  0.1055119E+00
         21   -1    0    0  501  502  0.00000000000E+00  0.00000000000E+00  0.12873282893E+03  0.12873282893E+03  0.00000000000E+00 0. -1.
         21   -1    0    0  502  503 -0.00000000000E+00 -0.00000000000E+00 -0.16018593893E+04  0.16018593893E+04  0.00000000000E+00 0.  1.
          6    1    1    2  501    0 -0.32580185121E+03 -0.12251626334E+01 -0.23193232698E+03  0.43574069304E+03  0.17300000000E+03 0. -1.
         -6    1    1    2    0  503  0.32580185121E+03  0.12251626334E+01 -0.12411942334E+04  0.12948515252E+04  0.17300000000E+03 0.  1.
<mgrwt>
<rscale>  2 0.36888663E+03</rscale>
<asrwt>0</asrwt>
<pdfrwt beam="1">  1       21 0.19805050E-01 0.36888663E+03</pdfrwt>
<pdfrwt beam="2">  1       21 0.24643991E+00 0.36888663E+03</pdfrwt>
<totfact> 0.14170917E+03</totfact>
</mgrwt>
</event>
<event>
 4    3  0.4041078E+000  0.2130101E+03  0.7546771E-02  0.1139204E+00
         21   -1    0    0  501  502  0.00000000000E+00  0.00000000000E+00  0.15866590879E+04  0.15866590879E+04  0.00000000000E+00 0. -1.
         21   -1    0    0  502  503 -0.00000000000E+00 -0.00000000000E+00 -0.35133126206E+02  0.35133126206E+02  0.00000000000E+00 0.  1.
          6    1    1    2  501    0  0.61870476799E+02  0.10777920555E+03  0.11255268332E+04  0.11455059866E+04  0.17300000000E+03 0.  1.
         -6    1    1    2    0  503 -0.61870476799E+02 -0.10777920555E+03  0.42599912849E+03  0.47628622752E+03  0.17300000000E+03 0.  1.
<mgrwt>
<rscale>  2 0.21301012E+03</rscale>
<asrwt>0</asrwt>
<pdfrwt beam="1">  1       21 0.24410134E+00 0.21301012E+03</pdfrwt>
<pdfrwt beam="2">  1       21 0.54050976E-02 0.21301012E+03</pdfrwt>
<totfact> 0.16683163E+04</totfact>
</mgrwt>
</event>
<event>
 4    3  0.4041078E+000  0.3062744E+03  0.7546771E-02  0.1082145E+00
         21   -1    0    0  501  502  0.00000000000E+00  0.00000000000E+00  0.17071480902E+03  0.17071480902E+03  0.00000000000E+00 0. -1.
         21   -1    0    0  502  503 -0.00000000000E+00 -0.00000000000E+00 -0.56148676938E+03  0.56148676938E+03  0.00000000000E+00 0.  1.
          6    1    1    2  501    0 -0.23849508371E+03 -0.83636889388E+02 -0.14184579107E+03  0.33752668437E+03  0.17300000000E+03 0.  1.
         -6    1    1    2    0  503  0.23849508371E+03  0.83636889388E+02 -0.24892616930E+03  0.39467489403E+03  0.17300000000E+03 0.  1.
<mgrwt>
<rscale>  2 0.30627444E+03</rscale>
<asrwt>0</asrwt>
<pdfrwt beam="1">  1       21 0.26263817E-01 0.30627444E+03</pdfrwt>
<pdfrwt beam="2">  1       21 0.86382579E-01 0.30627444E+03</pdfrwt>
<totfact> 0.14995883E+04</totfact>
</mgrwt>
</event>
<event>
 4    3  0.4041078E+000  0.2721453E+03  0.7546771E-02  0.1100058E+00
         21   -1    0    0  503  502  0.00000000000E+00  0.00000000000E+00  0.15883642596E+03  0.15883642596E+03  0.00000000000E+00 0. -1.
         21   -1    0    0  501  503 -0.00000000000E+00 -0.00000000000E+00 -0.61600680539E+03  0.61600680539E+03  0.00000000000E+00 0.  1.
          6    1    1    2  501    0 -0.11164883191E+03  0.17795669303E+03 -0.37585091904E+02  0.27472838476E+03  0.17300000000E+03 0. -1.
         -6    1    1    2    0  502  0.11164883191E+03 -0.17795669303E+03 -0.41958528753E+03  0.50011484658E+03  0.17300000000E+03 0.  1.
<mgrwt>
<rscale>  2 0.27214527E+03</rscale>
<asrwt>0</asrwt>
<pdfrwt beam="1">  1       21 0.24436373E-01 0.27214527E+03</pdfrwt>
<pdfrwt beam="2">  1       21 0.94770279E-01 0.27214527E+03</pdfrwt>
<totfact> 0.14084032E+04</totfact>
</mgrwt>
</event>
<event>
 4    3  0.4041078E+000  0.2091262E+03  0.7546771E-02  0.1142260E+00
         21   -1    0    0  503  502  0.00000000000E+00  0.00000000000E+00  0.44844498985E+03  0.44844498985E+03  0.00000000000E+00 0. -1.
         21   -1    0    0  501  503 -0.00000000000E+00 -0.00000000000E+00 -0.11522377509E+03  0.11522377509E+03  0.00000000000E+00 0. -1.
          6    1    1    2  501    0  0.87208346603E+02 -0.78736754759E+02  0.27707367745E+03  0.34713627728E+03  0.17300000000E+03 0. -1.
         -6    1    1    2    0  502 -0.87208346603E+02  0.78736754759E+02  0.56147537305E+02  0.21653248766E+03  0.17300000000E+03 0. -1.
<mgrwt>
<rscale>  2 0.20912621E+03</rscale>
<asrwt>0</asrwt>
<pdfrwt beam="1">  1       21 0.68991536E-01 0.20912621E+03</pdfrwt>
<pdfrwt beam="2">  1       21 0.17726735E-01 0.20912621E+03</pdfrwt>
<totfact> 0.54815852E+04</totfact>
</mgrwt>
</event>
<event>
 4    3  0.4041078E+000  0.2259002E+03  0.7546771E-02  0.1129559E+00
         21   -1    0    0  501  502  0.00000000000E+00  0.00000000000E+00  0.13988318741E+03  0.13988318741E+03  0.00000000000E+00 0.  1.
         21   -1    0    0  502  503 -0.00000000000E+00 -0.00000000000E+00 -0.42114440773E+03  0.42114440773E+03  0.00000000000E+00 0.  1.
          6    1    1    2  501    0  0.74149814941E+02  0.12491473963E+03 -0.24322480189E+03  0.33194757340E+03  0.17300000000E+03 0.  1.
         -6    1    1    2    0  503 -0.74149814941E+02 -0.12491473963E+03 -0.38036418434E+02  0.22908002174E+03  0.17300000000E+03 0.  1.
<mgrwt>
<rscale>  2 0.22590017E+03</rscale>
<asrwt>0</asrwt>
<pdfrwt beam="1">  1       21 0.21520491E-01 0.22590017E+03</pdfrwt>
<pdfrwt beam="2">  1       21 0.64791446E-01 0.22590017E+03</pdfrwt>
<totfact> 0.43449301E+04</totfact>
</mgrwt>
</event>
<event>
 4    3  0.4041078E+000  0.1740536E+03  0.7546771E-02  0.1173685E+00
         21   -1    0    0  501  502  0.00000000000E+00  0.00000000000E+00  0.40113839220E+03  0.40113839220E+03  0.00000000000E+00 0.  1.
         21   -1    0    0  502  503 -0.00000000000E+00 -0.00000000000E+00 -0.28563843304E+03  0.28563843304E+03  0.00000000000E+00 0.  1.
          6    1    1    2  501    0  0.12695299577E+02 -0.14299549452E+02  0.35226513590E+03  0.39291904219E+03  0.17300000000E+03 0.  1.
         -6    1    1    2    0  503 -0.12695299577E+02  0.14299549452E+02 -0.23676517674E+03  0.29385778305E+03  0.17300000000E+03 0.  1.
<mgrwt>
<rscale>  2 0.17405358E+03</rscale>
<asrwt>0</asrwt>
<pdfrwt beam="1">  1       21 0.61713599E-01 0.17405358E+03</pdfrwt>
<pdfrwt beam="2">  1       21 0.43944374E-01 0.17405358E+03</pdfrwt>
<totfact> 0.12286219E+04</totfact>
</mgrwt>
</event>
<event>
 4    3  0.4041078E+000  0.2285161E+03  0.7546771E-02  0.1127689E+00
         21   -1    0    0  501  502  0.00000000000E+00  0.00000000000E+00  0.14067005830E+03  0.14067005830E+03  0.00000000000E+00 0. -1.
         21   -1    0    0  502  503 -0.00000000000E+00 -0.00000000000E+00 -0.42216530021E+03  0.42216530021E+03  0.00000000000E+00 0.  1.
          6    1    1    2  501    0  0.27116498877E+02  0.14681720923E+03 -0.42987798554E+02  0.23252429607E+03  0.17300000000E+03 0. -1.
         -6    1    1    2    0  503 -0.27116498877E+02 -0.14681720923E+03 -0.23850744335E+03  0.33031106244E+03  0.17300000000E+03 0.  1.
<mgrwt>
<rscale>  2 0.22851608E+03</rscale>
<asrwt>0</asrwt>
<pdfrwt beam="1">  1       21 0.21641548E-01 0.22851608E+03</pdfrwt>
<pdfrwt beam="2">  1       21 0.64948507E-01 0.22851608E+03</pdfrwt>
<totfact> 0.42713669E+04</totfact>
</mgrwt>
</event>
<event>
 4    3  0.4041078E+000  0.2322118E+03  0.7546771E-02  0.1125093E+00
         21   -1    0    0  501  502  0.00000000000E+00  0.00000000000E+00  0.67331477334E+02  0.67331477334E+02  0.00000000000E+00 0. -1.
         21   -1    0    0  502  503 -0.00000000000E+00 -0.00000000000E+00 -0.99722489000E+03  0.99722489000E+03  0.00000000000E+00 0. -1.
          6    1    1    2  501    0 -0.10793327458E+03  0.11110230590E+03 -0.22874299202E+03  0.32595347909E+03  0.17300000000E+03 0. -1.
         -6    1    1    2    0  503  0.10793327458E+03 -0.11110230590E+03 -0.70115042065E+03  0.73860288824E+03  0.17300000000E+03 0. -1.
<mgrwt>
<rscale>  2 0.23221179E+03</rscale>
<asrwt>0</asrwt>
<pdfrwt beam="1">  1       21 0.10358689E-01 0.23221179E+03</pdfrwt>
<pdfrwt beam="2">  1       21 0.15341920E+00 0.23221179E+03</pdfrwt>
<totfact> 0.20937725E+04</totfact>
</mgrwt>
</event>
<event>
 4    3  0.4041078E+000  0.1843617E+03  0.7546771E-02  0.1163647E+00
         21   -1    0    0  501  502  0.00000000000E+00  0.00000000000E+00  0.37390536787E+03  0.37390536787E+03  0.00000000000E+00 0. -1.
         21   -1    0    0  502  503 -0.00000000000E+00 -0.00000000000E+00 -0.13897662215E+03  0.13897662215E+03  0.00000000000E+00 0. -1.
          6    1    1    2  501    0 -0.63086342125E+02 -0.89632881343E+01  0.26828776432E+03  0.32552657585E+03  0.17300000000E+03 0. -1.
         -6    1    1    2    0  503  0.63086342125E+02  0.89632881343E+01 -0.33359018602E+02  0.18735541417E+03  0.17300000000E+03 0. -1.
<mgrwt>
<rscale>  2 0.18436167E+03</rscale>
<asrwt>0</asrwt>
<pdfrwt beam="1">  1       21 0.57523902E-01 0.18436167E+03</pdfrwt>
<pdfrwt beam="2">  1       21 0.21381019E-01 0.18436167E+03</pdfrwt>
<totfact> 0.57975916E+04</totfact>
</mgrwt>
</event>
<event>
 4    3  0.4041078E+000  0.2714433E+03  0.7546771E-02  0.1100456E+00
         21   -1    0    0  503  502  0.00000000000E+00  0.00000000000E+00  0.22671476557E+03  0.22671476557E+03  0.00000000000E+00 0. -1.
         21   -1    0    0  501  503 -0.00000000000E+00 -0.00000000000E+00 -0.44567658080E+03  0.44567658080E+03  0.00000000000E+00 0.  1.
          6    1    1    2  501    0  0.21264506858E+02 -0.20808725729E+03 -0.28442535515E+03  0.39316570114E+03  0.17300000000E+03 0.  1.
         -6    1    1    2    0  502 -0.21264506858E+02  0.20808725729E+03  0.65463539923E+02  0.27922564524E+03  0.17300000000E+03 0.  1.
<mgrwt>
<rscale>  2 0.27144334E+03</rscale>
<asrwt>0</asrwt>
<pdfrwt beam="1">  1       21 0.34879195E-01 0.27144334E+03</pdfrwt>
<pdfrwt beam="2">  1       21 0.68565626E-01 0.27144334E+03</pdfrwt>
<totfact> 0.14707064E+04</totfact>
</mgrwt>
</event>
<event>
 4    3  0.4041078E+000  0.3358076E+03  0.7546771E-02  0.1068596E+00
         21   -1    0    0  501  502  0.00000000000E+00  0.00000000000E+00  0.20201924953E+03  0.20201924953E+03  0.00000000000E+00 0. -1.
         21   -1    0    0  502  503 -0.00000000000E+00 -0.00000000000E+00 -0.59727594637E+03  0.59727594637E+03  0.00000000000E+00 0.  1.
          6    1    1    2  501    0 -0.31245725942E+02 -0.28611436963E+03 -0.95403630099E+02  0.34909680682E+03  0.17300000000E+03 0.  1.
         -6    1    1    2    0  503  0.31245725942E+02  0.28611436963E+03 -0.29985306674E+03  0.45019838908E+03  0.17300000000E+03 0. -1.
<mgrwt>
<rscale>  2 0.33580758E+03</rscale>
<asrwt>0</asrwt>
<pdfrwt beam="1">  1       21 0.31079884E-01 0.33580758E+03</pdfrwt>
<pdfrwt beam="2">  1       21 0.91888609E-01 0.33580758E+03</pdfrwt>
<totfact> 0.92116139E+03</totfact>
</mgrwt>
</event>
<event>
 4    3  0.4041078E+000  0.2515896E+03  0.7546771E-02  0.1112304E+00
         21   -1    0    0  501  502  0.00000000000E+00  0.00000000000E+00  0.40629699784E+03  0.40629699784E+03  0.00000000000E+00 0. -1.
         21   -1    0    0  502  503 -0.00000000000E+00 -0.00000000000E+00 -0.23611961180E+03  0.23611961180E+03  0.00000000000E+00 0. -1.
          6    1    1    2  501    0  0.16819551894E+03 -0.71264128647E+02  0.27243993555E+03  0.37083800655E+03  0.17300000000E+03 0. -1.
         -6    1    1    2    0  503 -0.16819551894E+03  0.71264128647E+02 -0.10226254950E+03  0.27157860309E+03  0.17300000000E+03 0. -1.
<mgrwt>
<rscale>  2 0.25158956E+03</rscale>
<asrwt>0</asrwt>
<pdfrwt beam="1">  1       21 0.62507230E-01 0.25158956E+03</pdfrwt>
<pdfrwt beam="2">  1       21 0.36326094E-01 0.25158956E+03</pdfrwt>
<totfact> 0.16771345E+04</totfact>
</mgrwt>
</event>
<event>
 4    3  0.4041078E+000  0.1835800E+03  0.7546771E-02  0.1164383E+00
         21   -1    0    0  501  502  0.00000000000E+00  0.00000000000E+00  0.25407191608E+02  0.25407191608E+02  0.00000000000E+00 0. -1.
         21   -1    0    0  502  503 -0.00000000000E+00 -0.00000000000E+00 -0.14124171517E+04  0.14124171517E+04  0.00000000000E+00 0.  1.
          6    1    1    2  501    0  0.40973834649E+02 -0.45757621199E+02 -0.87085701825E+03  0.88999638272E+03  0.17300000000E+03 0. -1.
         -6    1    1    2    0  503 -0.40973834649E+02  0.45757621199E+02 -0.51615294179E+03  0.54782796054E+03  0.17300000000E+03 0.  1.
<mgrwt>
<rscale>  2 0.18358000E+03</rscale>
<asrwt>0</asrwt>
<pdfrwt beam="1">  1       21 0.39087967E-02 0.18358000E+03</pdfrwt>
<pdfrwt beam="2">  1       21 0.21729506E+00 0.18358000E+03</pdfrwt>
<totfact> 0.42850448E+04</totfact>
</mgrwt>
</event>
<event>
 4    3  0.4041078E+000  0.4160460E+03  0.7546771E-02  0.1038361E+00
         21   -1    0    0  501  502  0.00000000000E+00  0.00000000000E+00  0.82849761958E+03  0.82849761958E+03  0.00000000000E+00 0.  1.
         21   -1    0    0  502  503 -0.00000000000E+00 -0.00000000000E+00 -0.59236257868E+03  0.59236257868E+03  0.00000000000E+00 0. -1.
          6    1    1    2  501    0  0.29628426115E+03 -0.23533151193E+03  0.68964432498E+03  0.80542136729E+03  0.17300000000E+03 0.  1.
         -6    1    1    2    0  503 -0.29628426115E+03  0.23533151193E+03 -0.45350928408E+03  0.61543883096E+03  0.17300000000E+03 0. -1.
<mgrwt>
<rscale>  2 0.41604601E+03</rscale>
<asrwt>0</asrwt>
<pdfrwt beam="1">  1       21 0.12746117E+00 0.41604601E+03</pdfrwt>
<pdfrwt beam="2">  1       21 0.91132705E-01 0.41604601E+03</pdfrwt>
<totfact> 0.39157450E+02</totfact>
</mgrwt>
</event>
<event>
 4    3  0.4041078E+000  0.2079498E+03  0.7546771E-02  0.1143200E+00
         21   -1    0    0  503  502  0.00000000000E+00  0.00000000000E+00  0.25696045177E+03  0.25696045177E+03  0.00000000000E+00 0.  1.
         21   -1    0    0  501  503 -0.00000000000E+00 -0.00000000000E+00 -0.25046186063E+03  0.25046186063E+03  0.00000000000E+00 0. -1.
          6    1    1    2  501    0 -0.82883329127E+01 -0.11508872395E+03 -0.14207498319E+03  0.25184997854E+03  0.17300000000E+03 0. -1.
         -6    1    1    2    0  502  0.82883329127E+01  0.11508872395E+03  0.14857357434E+03  0.25557233386E+03  0.17300000000E+03 0.  1.
<mgrwt>
<rscale>  2 0.20794978E+03</rscale>
<asrwt>0</asrwt>
<pdfrwt beam="1">  1       21 0.39532377E-01 0.20794978E+03</pdfrwt>
<pdfrwt beam="2">  1       21 0.38532594E-01 0.20794978E+03</pdfrwt>
<totfact> 0.39747754E+04</totfact>
</mgrwt>
</event>
<event>
 4    3  0.4041078E+000  0.1794815E+03  0.7546771E-02  0.1168306E+00
         21   -1    0    0  503  502  0.00000000000E+00  0.00000000000E+00  0.12137143547E+04  0.12137143547E+04  0.00000000000E+00 0.  1.
         21   -1    0    0  501  503 -0.00000000000E+00 -0.00000000000E+00 -0.27042294449E+02  0.27042294449E+02  0.00000000000E+00 0.  1.
          6    1    1    2  501    0  0.34151652101E+02  0.33440642535E+02  0.50889925807E+03  0.53962215186E+03  0.17300000000E+03 0.  1.
         -6    1    1    2    0  502 -0.34151652101E+02 -0.33440642535E+02  0.67777280222E+03  0.70113449732E+03  0.17300000000E+03 0.  1.
<mgrwt>
<rscale>  2 0.17948151E+03</rscale>
<asrwt>0</asrwt>
<pdfrwt beam="1">  1       21 0.18672524E+00 0.17948151E+03</pdfrwt>
<pdfrwt beam="2">  1       21 0.41603539E-02 0.17948151E+03</pdfrwt>
<totfact> 0.60628913E+04</totfact>
</mgrwt>
</event>
<event>
 4    3  0.4041078E+000  0.2095520E+03  0.7546771E-02  0.1141921E+00
         21   -1    0    0  503  502  0.00000000000E+00  0.00000000000E+00  0.22676606957E+03  0.22676606957E+03  0.00000000000E+00 0. -1.
         21   -1    0    0  501  503 -0.00000000000E+00 -0.00000000000E+00 -0.19382657114E+03  0.19382657114E+03  0.00000000000E+00 0. -1.
          6    1    1    2  501    0 -0.37194090954E+02 -0.11224816286E+03  0.22911313628E+02  0.21080080351E+03  0.17300000000E+03 0. -1.
         -6    1    1    2    0  502  0.37194090954E+02  0.11224816286E+03  0.10028184801E+02  0.20979183721E+03  0.17300000000E+03 0. -1.
<mgrwt>
<rscale>  2 0.20955202E+03</rscale>
<asrwt>0</asrwt>
<pdfrwt beam="1">  1       21 0.34887088E-01 0.20955202E+03</pdfrwt>
<pdfrwt beam="2">  1       21 0.29819473E-01 0.20955202E+03</pdfrwt>
<totfact> 0.84792717E+04</totfact>
</mgrwt>
</event>
<event>
 4    3  0.4041078E+000  0.1944448E+03  0.7546771E-02  0.1154512E+00
         21   -1    0    0  503  502  0.00000000000E+00  0.00000000000E+00  0.61514223268E+02  0.61514223268E+02  0.00000000000E+00 0.  1.
         21   -1    0    0  501  503 -0.00000000000E+00 -0.00000000000E+00 -0.69598453985E+03  0.69598453985E+03  0.00000000000E+00 0.  1.
          6    1    1    2  501    0 -0.62894557716E+02  0.62642393291E+02 -0.44672320430E+03  0.48720674881E+03  0.17300000000E+03 0.  1.
         -6    1    1    2    0  502  0.62894557716E+02 -0.62642393291E+02 -0.18774711228E+03  0.27029201431E+03  0.17300000000E+03 0.  1.
<mgrwt>
<rscale>  2 0.19444484E+03</rscale>
<asrwt>0</asrwt>
<pdfrwt beam="1">  1       21 0.94637271E-02 0.19444484E+03</pdfrwt>
<pdfrwt beam="2">  1       21 0.10707454E+00 0.19444484E+03</pdfrwt>
<totfact> 0.62281463E+04</totfact>
</mgrwt>
</event>
<event>
 4    3  0.4041078E+000  0.2065935E+03  0.7546771E-02  0.1144292E+00
         21   -1    0    0  501  502  0.00000000000E+00  0.00000000000E+00  0.30652015292E+03  0.30652015292E+03  0.00000000000E+00 0. -1.
         21   -1    0    0  502  503 -0.00000000000E+00 -0.00000000000E+00 -0.20889818792E+03  0.20889818792E+03  0.00000000000E+00 0. -1.
          6    1    1    2  501    0  0.88884480400E+02  0.69652083889E+02  0.19762316202E+03  0.28589469707E+03  0.17300000000E+03 0. -1.
         -6    1    1    2    0  503 -0.88884480400E+02 -0.69652083889E+02 -0.10000119702E+03  0.22952364377E+03  0.17300000000E+03 0. -1.
<mgrwt>
<rscale>  2 0.20659347E+03</rscale>
<asrwt>0</asrwt>
<pdfrwt beam="1">  1       21 0.47156946E-01 0.20659347E+03</pdfrwt>
<pdfrwt beam="2">  1       21 0.32138183E-01 0.20659347E+03</pdfrwt>
<totfact> 0.39787214E+04</totfact>
</mgrwt>
</event>
<event>
 4    3  0.4041078E+000  0.2383977E+03  0.7546771E-02  0.1120865E+00
         21   -1    0    0  503  502  0.00000000000E+00  0.00000000000E+00  0.16997276387E+03  0.16997276387E+03  0.00000000000E+00 0. -1.
         21   -1    0    0  501  503 -0.00000000000E+00 -0.00000000000E+00 -0.46714623904E+03  0.46714623904E+03  0.00000000000E+00 0.  1.
          6    1    1    2  501    0  0.15873005954E+03  0.41343012224E+02 -0.31842180277E+03  0.39777621967E+03  0.17300000000E+03 0. -1.
         -6    1    1    2    0  502 -0.15873005954E+03 -0.41343012224E+02  0.21248327596E+02  0.23934278324E+03  0.17300000000E+03 0. -1.
<mgrwt>
<rscale>  2 0.23839773E+03</rscale>
<asrwt>0</asrwt>
<pdfrwt beam="1">  1       21 0.26149656E-01 0.23839773E+03</pdfrwt>
<pdfrwt beam="2">  1       21 0.71868652E-01 0.23839773E+03</pdfrwt>
<totfact> 0.23696905E+04</totfact>
</mgrwt>
</event>
<event>
 4    3  0.4041078E+000  0.2269292E+03  0.7546771E-02  0.1128820E+00
         21   -1    0    0  503  502  0.00000000000E+00  0.00000000000E+00  0.86788760244E+02  0.86788760244E+02  0.00000000000E+00 0. -1.
         21   -1    0    0  501  503 -0.00000000000E+00 -0.00000000000E+00 -0.71430817757E+03  0.71430817757E+03  0.00000000000E+00 0. -1.
          6    1    1    2  501    0  0.12166508953E+03 -0.82252519208E+02 -0.47858132186E+03  0.52965739167E+03  0.17300000000E+03 0. -1.
         -6    1    1    2    0  502 -0.12166508953E+03  0.82252519208E+02 -0.14893809547E+03  0.27143954614E+03  0.17300000000E+03 0. -1.
<mgrwt>
<rscale>  2 0.22692922E+03</rscale>
<asrwt>0</asrwt>
<pdfrwt beam="1">  1       21 0.13352117E-01 0.22692922E+03</pdfrwt>
<pdfrwt beam="2">  1       21 0.10989356E+00 0.22692922E+03</pdfrwt>
<totfact> 0.31116259E+04</totfact>
</mgrwt>
</event>
<event>
 4    3  0.4041078E+000  0.1772961E+03  0.7546771E-02  0.1170446E+00
         21   -1    0    0  501  502  0.00000000000E+00  0.00000000000E+00  0.50791517131E+03  0.50791517131E+03  0.00000000000E+00 0. -1.
         21   -1    0    0  502  503 -0.00000000000E+00 -0.00000000000E+00 -0.63797869002E+02  0.63797869002E+02  0.00000000000E+00 0. -1.
          6    1    1    2  501    0 -0.33533810733E+02  0.19503180610E+02  0.27151689134E+03  0.32427659921E+03  0.17300000000E+03 0. -1.
         -6    1    1    2    0  503  0.33533810733E+02 -0.19503180610E+02  0.17260041097E+03  0.24743644110E+03  0.17300000000E+03 0. -1.
<mgrwt>
<rscale>  2 0.17729605E+03</rscale>
<asrwt>0</asrwt>
<pdfrwt beam="1">  1       21 0.78140793E-01 0.17729605E+03</pdfrwt>
<pdfrwt beam="2">  1       21 0.98150571E-02 0.17729605E+03</pdfrwt>
<totfact> 0.12231493E+05</totfact>
</mgrwt>
</event>
<event>
 4    3  0.4041078E+000  0.2521895E+03  0.7546771E-02  0.1111929E+00
         21   -1    0    0  501  502  0.00000000000E+00  0.00000000000E+00  0.15514875797E+03  0.15514875797E+03  0.00000000000E+00 0. -1.
         21   -1    0    0  502  503 -0.00000000000E+00 -0.00000000000E+00 -0.70359501863E+03  0.70359501863E+03  0.00000000000E+00 0.  1.
          6    1    1    2  501    0  0.15664419389E+03 -0.95567491145E+02  0.31734537125E+01  0.25220947574E+03  0.17300000000E+03 0. -1.
         -6    1    1    2    0  503 -0.15664419389E+03  0.95567491145E+02 -0.55161971437E+03  0.60653430086E+03  0.17300000000E+03 0.  1.
<mgrwt>
<rscale>  2 0.25218951E+03</rscale>
<asrwt>0</asrwt>
<pdfrwt beam="1">  1       21 0.23869040E-01 0.25218951E+03</pdfrwt>
<pdfrwt beam="2">  1       21 0.10824539E+00 0.25218951E+03</pdfrwt>
<totfact> 0.10817541E+04</totfact>
</mgrwt>
</event>
<event>
 4    3  0.4041078E+000  0.2129114E+03  0.7546771E-02  0.1139281E+00
         21   -1    0    0  503  502  0.00000000000E+00  0.00000000000E+00  0.60831030517E+03  0.60831030517E+03  0.00000000000E+00 0.  1.
         21   -1    0    0  501  503 -0.00000000000E+00 -0.00000000000E+00 -0.74662407643E+02  0.74662407643E+02  0.00000000000E+00 0. -1.
          6    1    1    2  501    0  0.97926693009E+02  0.76240535997E+02  0.28174013184E+03  0.35314127261E+03  0.17300000000E+03 0. -1.
         -6    1    1    2    0  502 -0.97926693009E+02 -0.76240535997E+02  0.25190776569E+03  0.32983144021E+03  0.17300000000E+03 0.  1.
<mgrwt>
<rscale>  2 0.21291138E+03</rscale>
<asrwt>0</asrwt>
<pdfrwt beam="1">  1       21 0.93586197E-01 0.21291138E+03</pdfrwt>
<pdfrwt beam="2">  1       21 0.11486525E-01 0.21291138E+03</pdfrwt>
<totfact> 0.60284653E+04</totfact>
</mgrwt>
</event>
<event>
 4    3  0.4041078E+000  0.1768055E+03  0.7546771E-02  0.1170931E+00
         21   -1    0    0  503  502  0.00000000000E+00  0.00000000000E+00  0.61894393239E+03  0.61894393239E+03  0.00000000000E+00 0. -1.
         21   -1    0    0  501  503 -0.00000000000E+00 -0.00000000000E+00 -0.88773347847E+02  0.88773347847E+02  0.00000000000E+00 0. -1.
          6    1    1    2  501    0 -0.33593549795E+02  0.14235587220E+02  0.32755686928E+02  0.17981410834E+03  0.17300000000E+03 0. -1.
         -6    1    1    2    0  502  0.33593549795E+02 -0.14235587220E+02  0.49741489762E+03  0.52790317190E+03  0.17300000000E+03 0. -1.
<mgrwt>
<rscale>  2 0.17680548E+03</rscale>
<asrwt>0</asrwt>
<pdfrwt beam="1">  1       21 0.95222141E-01 0.17680548E+03</pdfrwt>
<pdfrwt beam="2">  1       21 0.13657439E-01 0.17680548E+03</pdfrwt>
<totfact> 0.43195256E+04</totfact>
</mgrwt>
</event>
<event>
 4    3  0.4041078E+000  0.2504548E+03  0.7546771E-02  0.1113018E+00
         21   -1    0    0  501  502  0.00000000000E+00  0.00000000000E+00  0.17390940301E+03  0.17390940301E+03  0.00000000000E+00 0.  1.
         21   -1    0    0  502  503 -0.00000000000E+00 -0.00000000000E+00 -0.45066303895E+03  0.45066303895E+03  0.00000000000E+00 0.  1.
          6    1    1    2  501    0 -0.45361378498E+02 -0.17533092299E+03  0.11572341707E+01  0.25045743432E+03  0.17300000000E+03 0.  1.
         -6    1    1    2    0  503  0.45361378498E+02  0.17533092299E+03 -0.27791087011E+03  0.37411500764E+03  0.17300000000E+03 0.  1.
<mgrwt>
<rscale>  2 0.25045476E+03</rscale>
<asrwt>0</asrwt>
<pdfrwt beam="1">  1       21 0.26755293E-01 0.25045476E+03</pdfrwt>
<pdfrwt beam="2">  1       21 0.69332775E-01 0.25045476E+03</pdfrwt>
<totfact> 0.24415012E+04</totfact>
</mgrwt>
</event>
<event>
 4    3  0.4041078E+000  0.2534999E+03  0.7546771E-02  0.1111113E+00
         21   -1    0    0  503  502  0.00000000000E+00  0.00000000000E+00  0.19774795575E+03  0.19774795575E+03  0.00000000000E+00 0.  1.
         21   -1    0    0  501  503 -0.00000000000E+00 -0.00000000000E+00 -0.71989890292E+03  0.71989890292E+03  0.00000000000E+00 0. -1.
          6    1    1    2  501    0  0.15238733630E+03  0.10541020015E+03 -0.60091127584E+03  0.65219366141E+03  0.17300000000E+03 0. -1.
         -6    1    1    2    0  502 -0.15238733630E+03 -0.10541020015E+03  0.78760328672E+02  0.26545319726E+03  0.17300000000E+03 0.  1.
<mgrwt>
<rscale>  2 0.25349992E+03</rscale>
<asrwt>0</asrwt>
<pdfrwt beam="1">  1       21 0.30422763E-01 0.25349992E+03</pdfrwt>
<pdfrwt beam="2">  1       21 0.11075368E+00 0.25349992E+03</pdfrwt>
<totfact> 0.63879500E+03</totfact>
</mgrwt>
</event>
<event>
 4    3  0.4041078E+000  0.1857554E+03  0.7546771E-02  0.1162346E+00
         21   -1    0    0  503  502  0.00000000000E+00  0.00000000000E+00  0.22804086110E+03  0.22804086110E+03  0.00000000000E+00 0. -1.
         21   -1    0    0  501  503 -0.00000000000E+00 -0.00000000000E+00 -0.17165081718E+03  0.17165081718E+03  0.00000000000E+00 0. -1.
          6    1    1    2  501    0  0.38245975874E+02  0.55797091891E+02 -0.40598359906E+02  0.19014020343E+03  0.17300000000E+03 0. -1.
         -6    1    1    2    0  502 -0.38245975874E+02 -0.55797091891E+02  0.96988403820E+02  0.20955147484E+03  0.17300000000E+03 0. -1.
<mgrwt>
<rscale>  2 0.18575540E+03</rscale>
<asrwt>0</asrwt>
<pdfrwt beam="1">  1       21 0.35083209E-01 0.18575540E+03</pdfrwt>
<pdfrwt beam="2">  1       21 0.26407818E-01 0.18575540E+03</pdfrwt>
<totfact> 0.10709106E+05</totfact>
</mgrwt>
</event>
<event>
 4    3  0.4041078E+000  0.3934925E+03  0.7546771E-02  0.1046057E+00
         21   -1    0    0  501  502  0.00000000000E+00  0.00000000000E+00  0.31766890375E+03  0.31766890375E+03  0.00000000000E+00 0.  1.
         21   -1    0    0  502  503 -0.00000000000E+00 -0.00000000000E+00 -0.58049662401E+03  0.58049662401E+03  0.00000000000E+00 0.  1.
          6    1    1    2  501    0 -0.29228713616E+03  0.19868463514E+03  0.48415349637E+02  0.39645983439E+03  0.17300000000E+03 0.  1.
         -6    1    1    2    0  503  0.29228713616E+03 -0.19868463514E+03 -0.31124306990E+03  0.50170569337E+03  0.17300000000E+03 0.  1.
<mgrwt>
<rscale>  2 0.39349251E+03</rscale>
<asrwt>0</asrwt>
<pdfrwt beam="1">  1       21 0.48872139E-01 0.39349251E+03</pdfrwt>
<pdfrwt beam="2">  1       21 0.89307173E-01 0.39349251E+03</pdfrwt>
<totfact> 0.38142109E+03</totfact>
</mgrwt>
</event>
<event>
 4    3  0.4041078E+000  0.1759570E+03  0.7546771E-02  0.1171774E+00
         21   -1    0    0  501  502  0.00000000000E+00  0.00000000000E+00  0.44819595563E+03  0.44819595563E+03  0.00000000000E+00 0. -1.
         21   -1    0    0  502  503 -0.00000000000E+00 -0.00000000000E+00 -0.69386141769E+02  0.69386141769E+02  0.00000000000E+00 0. -1.
          6    1    1    2  501    0  0.19330154579E+01 -0.32064318112E+02  0.20662735485E+03  0.27139587472E+03  0.17300000000E+03 0. -1.
         -6    1    1    2    0  503 -0.19330154579E+01  0.32064318112E+02  0.17218245902E+03  0.24618622268E+03  0.17300000000E+03 0. -1.
<mgrwt>
<rscale>  2 0.17595697E+03</rscale>
<asrwt>0</asrwt>
<pdfrwt beam="1">  1       21 0.68953222E-01 0.17595697E+03</pdfrwt>
<pdfrwt beam="2">  1       21 0.10674791E-01 0.17595697E+03</pdfrwt>
<totfact> 0.13926179E+05</totfact>
</mgrwt>
</event>
<event>
 4    3  0.4041078E+000  0.2008746E+03  0.7546771E-02  0.1149003E+00
         21   -1    0    0  503  502  0.00000000000E+00  0.00000000000E+00  0.15063767606E+03  0.15063767606E+03  0.00000000000E+00 0. -1.
         21   -1    0    0  501  503 -0.00000000000E+00 -0.00000000000E+00 -0.27020649918E+03  0.27020649918E+03  0.00000000000E+00 0. -1.
          6    1    1    2  501    0  0.36417586371E+01  0.10202126825E+03 -0.40197520419E+02  0.20485712638E+03  0.17300000000E+03 0.  1.
         -6    1    1    2    0  502 -0.36417586371E+01 -0.10202126825E+03 -0.79371302708E+02  0.21598704886E+03  0.17300000000E+03 0.  1.
<mgrwt>
<rscale>  2 0.20087459E+03</rscale>
<asrwt>0</asrwt>
<pdfrwt beam="1">  1       21 0.23175027E-01 0.20087459E+03</pdfrwt>
<pdfrwt beam="2">  1       21 0.41570231E-01 0.20087459E+03</pdfrwt>
<totfact> 0.97150410E+04</totfact>
</mgrwt>
</event>
<event>
 4    3  0.4041078E+000  0.2279847E+03  0.7546771E-02  0.1128066E+00
         21   -1    0    0  503  502  0.00000000000E+00  0.00000000000E+00  0.18333171737E+04  0.18333171737E+04  0.00000000000E+00 0.  1.
         21   -1    0    0  501  503 -0.00000000000E+00 -0.00000000000E+00 -0.29893001132E+02  0.29893001132E+02  0.00000000000E+00 0. -1.
          6    1    1    2  501    0 -0.61713479708E+01 -0.14835741336E+03  0.69014853255E+03  0.72683010712E+03  0.17300000000E+03 0.  1.
         -6    1    1    2    0  502  0.61713479708E+01  0.14835741336E+03  0.11132756400E+04  0.11363800677E+04  0.17300000000E+03 0.  1.
<mgrwt>
<rscale>  2 0.22798467E+03</rscale>
<asrwt>0</asrwt>
<pdfrwt beam="1">  1       21 0.28204871E+00 0.22798467E+03</pdfrwt>
<pdfrwt beam="2">  1       21 0.45989247E-02 0.22798467E+03</pdfrwt>
<totfact> 0.12980968E+04</totfact>
</mgrwt>
</event>
<event>
 4    3  0.4041078E+000  0.1902665E+03  0.7546771E-02  0.1158221E+00
         21   -1    0    0  503  502  0.00000000000E+00  0.00000000000E+00  0.20721203948E+03  0.20721203948E+03  0.00000000000E+00 0.  1.
         21   -1    0    0  501  503 -0.00000000000E+00 -0.00000000000E+00 -0.22628862268E+03  0.22628862268E+03  0.00000000000E+00 0.  1.
          6    1    1    2  501    0 -0.70888202576E+02  0.35316007643E+02 -0.11302311049E+03  0.22130427281E+03  0.17300000000E+03 0.  1.
         -6    1    1    2    0  502  0.70888202576E+02 -0.35316007643E+02  0.93946527290E+02  0.21219638934E+03  0.17300000000E+03 0.  1.
<mgrwt>
<rscale>  2 0.19026654E+03</rscale>
<asrwt>0</asrwt>
<pdfrwt beam="1">  1       21 0.31878775E-01 0.19026654E+03</pdfrwt>
<pdfrwt beam="2">  1       21 0.34813634E-01 0.19026654E+03</pdfrwt>
<totfact> 0.75333638E+04</totfact>
</mgrwt>
</event>
<event>
 4    3  0.4041078E+000  0.1739131E+03  0.7546771E-02  0.1173827E+00
         21   -1    0    0  501  502  0.00000000000E+00  0.00000000000E+00  0.83221276885E+03  0.83221276885E+03  0.00000000000E+00 0. -1.
         21   -1    0    0  502  503 -0.00000000000E+00 -0.00000000000E+00 -0.36762232328E+03  0.36762232328E+03  0.00000000000E+00 0. -1.
          6    1    1    2  501    0  0.13064863097E+02 -0.12086224351E+02  0.80178675736E+03  0.82043145462E+03  0.17300000000E+03 0. -1.
         -6    1    1    2    0  503 -0.13064863097E+02  0.12086224351E+02 -0.33719631179E+03  0.37940363751E+03  0.17300000000E+03 0. -1.
<mgrwt>
<rscale>  2 0.17391310E+03</rscale>
<asrwt>0</asrwt>
<pdfrwt beam="1">  1       21 0.12803273E+00 0.17391310E+03</pdfrwt>
<pdfrwt beam="2">  1       21 0.56557281E-01 0.17391310E+03</pdfrwt>
<totfact> 0.13462130E+03</totfact>
</mgrwt>
</event>
<event>
 4    3  0.4041078E+000  0.2613182E+03  0.7546771E-02  0.1106354E+00
         21   -1    0    0  503  502  0.00000000000E+00  0.00000000000E+00  0.21049473066E+03  0.21049473066E+03  0.00000000000E+00 0.  1.
         21   -1    0    0  501  503 -0.00000000000E+00 -0.00000000000E+00 -0.12362026627E+04  0.12362026627E+04  0.00000000000E+00 0.  1.
          6    1    1    2  501    0  0.19306373444E+03  0.32933464855E+02 -0.11340808009E+04  0.11637982994E+04  0.17300000000E+03 0.  1.
         -6    1    1    2    0  502 -0.19306373444E+03 -0.32933464855E+02  0.10837286887E+03  0.28289909397E+03  0.17300000000E+03 0.  1.
<mgrwt>
<rscale>  2 0.26131823E+03</rscale>
<asrwt>0</asrwt>
<pdfrwt beam="1">  1       21 0.32383804E-01 0.26131823E+03</pdfrwt>
<pdfrwt beam="2">  1       21 0.19018503E+00 0.26131823E+03</pdfrwt>
<totfact> 0.13387207E+03</totfact>
</mgrwt>
</event>
<event>
 4    3  0.4041078E+000  0.3335233E+03  0.7546771E-02  0.1069588E+00
         21   -1    0    0  501  502  0.00000000000E+00  0.00000000000E+00  0.14316618386E+03  0.14316618386E+03  0.00000000000E+00 0.  1.
         21   -1    0    0  502  503 -0.00000000000E+00 -0.00000000000E+00 -0.85054973782E+03  0.85054973782E+03  0.00000000000E+00 0.  1.
          6    1    1    2  501    0 -0.27730151004E+03 -0.66427790174E+02 -0.49981570406E+03  0.60087728931E+03  0.17300000000E+03 0.  1.
         -6    1    1    2    0  503  0.27730151004E+03  0.66427790174E+02 -0.20756784990E+03  0.39283863238E+03  0.17300000000E+03 0.  1.
<mgrwt>
<rscale>  2 0.33352328E+03</rscale>
<asrwt>0</asrwt>
<pdfrwt beam="1">  1       21 0.22025567E-01 0.33352328E+03</pdfrwt>
<pdfrwt beam="2">  1       21 0.13085380E+00 0.33352328E+03</pdfrwt>
<totfact> 0.75378675E+03</totfact>
</mgrwt>
</event>
<event>
 4    3  0.4041078E+000  0.1850219E+03  0.7546771E-02  0.1163029E+00
         21   -1    0    0  501  502  0.00000000000E+00  0.00000000000E+00  0.84914333889E+02  0.84914333889E+02  0.00000000000E+00 0. -1.
         21   -1    0    0  502  503 -0.00000000000E+00 -0.00000000000E+00 -0.77627042475E+03  0.77627042475E+03  0.00000000000E+00 0. -1.
          6    1    1    2  501    0 -0.60593961880E+02  0.25149172377E+02 -0.47150061624E+02  0.19093516543E+03  0.17300000000E+03 0. -1.
         -6    1    1    2    0  503  0.60593961880E+02 -0.25149172377E+02 -0.64420602924E+03  0.67024959321E+03  0.17300000000E+03 0. -1.
<mgrwt>
<rscale>  2 0.18502192E+03</rscale>
<asrwt>0</asrwt>
<pdfrwt beam="1">  1       21 0.13063744E-01 0.18502192E+03</pdfrwt>
<pdfrwt beam="2">  1       21 0.11942622E+00 0.18502192E+03</pdfrwt>
<totfact> 0.27048638E+04</totfact>
</mgrwt>
</event>
<event>
 4    3  0.4041078E+000  0.1783761E+03  0.7546771E-02  0.1169384E+00
         21   -1    0    0  503  502  0.00000000000E+00  0.00000000000E+00  0.18665458384E+04  0.18665458384E+04  0.00000000000E+00 0. -1.
         21   -1    0    0  501  503 -0.00000000000E+00 -0.00000000000E+00 -0.23904467715E+02  0.23904467715E+02  0.00000000000E+00 0. -1.
          6    1    1    2  501    0  0.10414566215E+02  0.42196775619E+02  0.41503672170E+03  0.45174496281E+03  0.17300000000E+03 0. -1.
         -6    1    1    2    0  502 -0.10414566215E+02 -0.42196775619E+02  0.14276046490E+04  0.14387053433E+04  0.17300000000E+03 0. -1.
<mgrwt>
<rscale>  2 0.17837609E+03</rscale>
<asrwt>0</asrwt>
<pdfrwt beam="1">  1       21 0.28716078E+00 0.17837609E+03</pdfrwt>
<pdfrwt beam="2">  1       21 0.36776119E-02 0.17837609E+03</pdfrwt>
<totfact> 0.18515843E+04</totfact>
</mgrwt>
</event>
<event>
 4    3  0.4041078E+000  0.2537782E+03  0.7546771E-02  0.1110940E+00
         21   -1    0    0  501  502  0.00000000000E+00  0.00000000000E+00  0.96861196220E+02  0.96861196220E+02  0.00000000000E+00 0. -1.
         21   -1    0    0  502  503 -0.00000000000E+00 -0.00000000000E+00 -0.66993137858E+03  0.66993137858E+03  0.00000000000E+00 0. -1.
          6    1    1    2  501    0  0.24755096856E+02  0.18401514819E+03 -0.31974798837E+03  0.40821828187E+03  0.17300000000E+03 0. -1.
         -6    1    1    2    0  503 -0.24755096856E+02 -0.18401514819E+03 -0.25332219399E+03  0.35857429293E+03  0.17300000000E+03 0. -1.
<mgrwt>
<rscale>  2 0.25377823E+03</rscale>
<asrwt>0</asrwt>
<pdfrwt beam="1">  1       21 0.14901722E-01 0.25377823E+03</pdfrwt>
<pdfrwt beam="2">  1       21 0.10306637E+00 0.25377823E+03</pdfrwt>
<totfact> 0.29376124E+04</totfact>
</mgrwt>
</event>
<event>
 4    3  0.4041078E+000  0.2548711E+03  0.7546771E-02  0.1110265E+00
         21   -1    0    0  501  502  0.00000000000E+00  0.00000000000E+00  0.20499176776E+03  0.20499176776E+03  0.00000000000E+00 0.  1.
         21   -1    0    0  502  503 -0.00000000000E+00 -0.00000000000E+00 -0.33064326441E+03  0.33064326441E+03  0.00000000000E+00 0. -1.
          6    1    1    2  501    0 -0.18358658957E+03  0.36417342315E+02 -0.81988047861E+01  0.25500290016E+03  0.17300000000E+03 0.  1.
         -6    1    1    2    0  503  0.18358658957E+03 -0.36417342315E+02 -0.11745269187E+03  0.28063213201E+03  0.17300000000E+03 0.  1.
<mgrwt>
<rscale>  2 0.25487106E+03</rscale>
<asrwt>0</asrwt>
<pdfrwt beam="1">  1       21 0.31537195E-01 0.25487106E+03</pdfrwt>
<pdfrwt beam="2">  1       21 0.50868194E-01 0.25487106E+03</pdfrwt>
<totfact> 0.34480055E+04</totfact>
</mgrwt>
</event>
<event>
 4    3  0.4041078E+000  0.1840513E+03  0.7546771E-02  0.1163939E+00
         21   -1    0    0  503  502  0.00000000000E+00  0.00000000000E+00  0.62514139546E+02  0.62514139546E+02  0.00000000000E+00 0. -1.
         21   -1    0    0  501  503 -0.00000000000E+00 -0.00000000000E+00 -0.91109209260E+03  0.91109209260E+03  0.00000000000E+00 0. -1.
          6    1    1    2  501    0 -0.48055598531E+02 -0.40454176329E+02 -0.73418272333E+03  0.75690101874E+03  0.17300000000E+03 0. -1.
         -6    1    1    2    0  502  0.48055598531E+02  0.40454176329E+02 -0.11439522972E+03  0.21670521340E+03  0.17300000000E+03 0. -1.
<mgrwt>
<rscale>  2 0.18405130E+03</rscale>
<asrwt>0</asrwt>
<pdfrwt beam="1">  1       21 0.96175611E-02 0.18405130E+03</pdfrwt>
<pdfrwt beam="2">  1       21 0.14016800E+00 0.18405130E+03</pdfrwt>
<totfact> 0.31168842E+04</totfact>
</mgrwt>
</event>
<event>
 4    3  0.4041078E+000  0.2823348E+03  0.7546771E-02  0.1094421E+00
         21   -1    0    0  501  502  0.00000000000E+00  0.00000000000E+00  0.77824264710E+02  0.77824264710E+02  0.00000000000E+00 0. -1.
         21   -1    0    0  502  503 -0.00000000000E+00 -0.00000000000E+00 -0.15274434280E+04  0.15274434280E+04  0.00000000000E+00 0.  1.
          6    1    1    2  501    0 -0.22312296459E+03 -0.27999876005E+00 -0.26413479998E+03  0.38662660059E+03  0.17300000000E+03 0.  1.
         -6    1    1    2    0  503  0.22312296459E+03  0.27999876005E+00 -0.11854843633E+04  0.12186410921E+04  0.17300000000E+03 0.  1.
<mgrwt>
<rscale>  2 0.28233479E+03</rscale>
<asrwt>0</asrwt>
<pdfrwt beam="1">  1       21 0.11972965E-01 0.28233479E+03</pdfrwt>
<pdfrwt beam="2">  1       21 0.23499128E+00 0.28233479E+03</pdfrwt>
<totfact> 0.44575408E+03</totfact>
</mgrwt>
</event>
<event>
 4    3  0.4041078E+000  0.3403785E+03  0.7546771E-02  0.1066635E+00
         21   -1    0    0  503  502  0.00000000000E+00  0.00000000000E+00  0.10849777690E+03  0.10849777690E+03  0.00000000000E+00 0. -1.
         21   -1    0    0  501  503 -0.00000000000E+00 -0.00000000000E+00 -0.11820321178E+04  0.11820321178E+04  0.00000000000E+00 0.  1.
          6    1    1    2  501    0 -0.21349542516E+03  0.20086866519E+03 -0.73733192832E+03  0.81210583654E+03  0.17300000000E+03 0.  1.
         -6    1    1    2    0  502  0.21349542516E+03 -0.20086866519E+03 -0.33620241261E+03  0.47842405820E+03  0.17300000000E+03 0. -1.
<mgrwt>
<rscale>  2 0.34037849E+03</rscale>
<asrwt>0</asrwt>
<pdfrwt beam="1">  1       21 0.16691965E-01 0.34037849E+03</pdfrwt>
<pdfrwt beam="2">  1       21 0.18185110E+00 0.34037849E+03</pdfrwt>
<totfact> 0.51676079E+03</totfact>
</mgrwt>
</event>
<event>
 4    3  0.4041078E+000  0.2649397E+03  0.7546771E-02  0.1104211E+00
         21   -1    0    0  503  502  0.00000000000E+00  0.00000000000E+00  0.55203606182E+03  0.55203606182E+03  0.00000000000E+00 0.  1.
         21   -1    0    0  501  503 -0.00000000000E+00 -0.00000000000E+00 -0.13050897401E+03  0.13050897401E+03  0.00000000000E+00 0.  1.
          6    1    1    2  501    0 -0.35235648421E+02  0.19754115496E+03  0.15603821541E+03  0.30747517541E+03  0.17300000000E+03 0.  1.
         -6    1    1    2    0  502  0.35235648421E+02 -0.19754115496E+03  0.26548887240E+03  0.37506986042E+03  0.17300000000E+03 0.  1.
<mgrwt>
<rscale>  2 0.26493973E+03</rscale>
<asrwt>0</asrwt>
<pdfrwt beam="1">  1       21 0.84928624E-01 0.26493973E+03</pdfrwt>
<pdfrwt beam="2">  1       21 0.20078304E-01 0.26493973E+03</pdfrwt>
<totfact> 0.26517790E+04</totfact>
</mgrwt>
</event>
<event>
 4    3  0.4041078E+000  0.2105997E+03  0.7546771E-02  0.1141092E+00
         21   -1    0    0  503  502  0.00000000000E+00  0.00000000000E+00  0.39345654111E+03  0.39345654111E+03  0.00000000000E+00 0. -1.
         21   -1    0    0  501  503 -0.00000000000E+00 -0.00000000000E+00 -0.11344932297E+03  0.11344932297E+03  0.00000000000E+00 0. -1.
          6    1    1    2  501    0  0.77888886945E+02 -0.91414133793E+02  0.11974596375E+03  0.24226291173E+03  0.17300000000E+03 0. -1.
         -6    1    1    2    0  502 -0.77888886945E+02  0.91414133793E+02  0.16026125439E+03  0.26464295234E+03  0.17300000000E+03 0. -1.
<mgrwt>
<rscale>  2 0.21059967E+03</rscale>
<asrwt>0</asrwt>
<pdfrwt beam="1">  1       21 0.60531775E-01 0.21059967E+03</pdfrwt>
<pdfrwt beam="2">  1       21 0.17453742E-01 0.21059967E+03</pdfrwt>
<totfact> 0.74970554E+04</totfact>
</mgrwt>
</event>
<event>
 4    3  0.4041078E+000  0.2404933E+03  0.7546771E-02  0.1119465E+00
         21   -1    0    0  503  502  0.00000000000E+00  0.00000000000E+00  0.27790018475E+03  0.27790018475E+03  0.00000000000E+00 0. -1.
         21   -1    0    0  501  503 -0.00000000000E+00 -0.00000000000E+00 -0.40723672627E+03  0.40723672627E+03  0.00000000000E+00 0.  1.
          6    1    1    2  501    0 -0.57560744312E+01  0.16695781559E+03 -0.30420712875E+03  0.38778734090E+03  0.17300000000E+03 0.  1.
         -6    1    1    2    0  502  0.57560744312E+01 -0.16695781559E+03  0.17487058722E+03  0.29734957013E+03  0.17300000000E+03 0. -1.
<mgrwt>
<rscale>  2 0.24049334E+03</rscale>
<asrwt>0</asrwt>
<pdfrwt beam="1">  1       21 0.42753875E-01 0.24049334E+03</pdfrwt>
<pdfrwt beam="2">  1       21 0.62651804E-01 0.24049334E+03</pdfrwt>
<totfact> 0.12061318E+04</totfact>
</mgrwt>
</event>
<event>
 4    3  0.4041078E+000  0.1855708E+03  0.7546771E-02  0.1162518E+00
         21   -1    0    0  501  502  0.00000000000E+00  0.00000000000E+00  0.19150482626E+04  0.19150482626E+04  0.00000000000E+00 0.  1.
         21   -1    0    0  502  503 -0.00000000000E+00 -0.00000000000E+00 -0.53011289591E+02  0.53011289591E+02  0.00000000000E+00 0.  1.
          6    1    1    2  501    0 -0.54009477362E+02  0.39880941058E+02  0.17309252100E+04  0.17408442193E+04  0.17300000000E+03 0.  1.
         -6    1    1    2    0  503  0.54009477362E+02 -0.39880941058E+02  0.13111176292E+03  0.22721533285E+03  0.17300000000E+03 0.  1.
<mgrwt>
<rscale>  2 0.18557078E+03</rscale>
<asrwt>0</asrwt>
<pdfrwt beam="1">  1       21 0.29462276E+00 0.18557078E+03</pdfrwt>
<pdfrwt beam="2">  1       21 0.81555845E-02 0.18557078E+03</pdfrwt>
<totfact> 0.42896930E+03</totfact>
</mgrwt>
</event>
<event>
 4    3  0.4041078E+000  0.2025587E+03  0.7546771E-02  0.1147598E+00
         21   -1    0    0  503  502  0.00000000000E+00  0.00000000000E+00  0.63853413559E+02  0.63853413559E+02  0.00000000000E+00 0.  1.
         21   -1    0    0  501  503 -0.00000000000E+00 -0.00000000000E+00 -0.99806315034E+03  0.99806315034E+03  0.00000000000E+00 0.  1.
          6    1    1    2  501    0  0.10015810628E+03 -0.32701197387E+02 -0.78398836573E+03  0.80973314873E+03  0.17300000000E+03 0.  1.
         -6    1    1    2    0  502 -0.10015810628E+03  0.32701197387E+02 -0.15022137106E+03  0.25218341517E+03  0.17300000000E+03 0.  1.
<mgrwt>
<rscale>  2 0.20255867E+03</rscale>
<asrwt>0</asrwt>
<pdfrwt beam="1">  1       21 0.98236025E-02 0.20255867E+03</pdfrwt>
<pdfrwt beam="2">  1       21 0.15354817E+00 0.20255867E+03</pdfrwt>
<totfact> 0.23376548E+04</totfact>
</mgrwt>
</event>
<event>
 4    3  0.4041078E+000  0.3876421E+03  0.7546771E-02  0.1048145E+00
         21   -1    0    0  501  502  0.00000000000E+00  0.00000000000E+00  0.21327145207E+03  0.21327145207E+03  0.00000000000E+00 0.  1.
         21   -1    0    0  502  503 -0.00000000000E+00 -0.00000000000E+00 -0.86458068840E+03  0.86458068840E+03  0.00000000000E+00 0.  1.
          6    1    1    2  501    0  0.24972372636E+03 -0.24078085755E+03 -0.93813669317E+02  0.39883250296E+03  0.17300000000E+03 0.  1.
         -6    1    1    2    0  503 -0.24972372636E+03  0.24078085755E+03 -0.55749556702E+03  0.67901963750E+03  0.17300000000E+03 0.  1.
<mgrwt>
<rscale>  2 0.38764205E+03</rscale>
<asrwt>0</asrwt>
<pdfrwt beam="1">  1       21 0.32810993E-01 0.38764205E+03</pdfrwt>
<pdfrwt beam="2">  1       21 0.13301241E+00 0.38764205E+03</pdfrwt>
<totfact> 0.32394436E+03</totfact>
</mgrwt>
</event>
<event>
 4    3  0.4041078E+000  0.2326330E+03  0.7546771E-02  0.1124800E+00
         21   -1    0    0  503  502  0.00000000000E+00  0.00000000000E+00  0.56099224826E+03  0.56099224826E+03  0.00000000000E+00 0. -1.
         21   -1    0    0  501  503 -0.00000000000E+00 -0.00000000000E+00 -0.10345652711E+03  0.10345652711E+03  0.00000000000E+00 0. -1.
          6    1    1    2  501    0  0.13976510333E+03 -0.68226314420E+02  0.31511103329E+03  0.39167981489E+03  0.17300000000E+03 0. -1.
         -6    1    1    2    0  502 -0.13976510333E+03  0.68226314420E+02  0.14242468787E+03  0.27276896048E+03  0.17300000000E+03 0. -1.
<mgrwt>
<rscale>  2 0.23263300E+03</rscale>
<asrwt>0</asrwt>
<pdfrwt beam="1">  1       21 0.86306498E-01 0.23263300E+03</pdfrwt>
<pdfrwt beam="2">  1       21 0.15916389E-01 0.23263300E+03</pdfrwt>
<totfact> 0.39926311E+04</totfact>
</mgrwt>
</event>
<event>
 4    3  0.4041078E+000  0.2158772E+03  0.7546771E-02  0.1136995E+00
         21   -1    0    0  503  502  0.00000000000E+00  0.00000000000E+00  0.10645891674E+03  0.10645891674E+03  0.00000000000E+00 0.  1.
         21   -1    0    0  501  503 -0.00000000000E+00 -0.00000000000E+00 -0.43872762625E+03  0.43872762625E+03  0.00000000000E+00 0.  1.
          6    1    1    2  501    0 -0.94105874553E+02 -0.88419625220E+02 -0.15330091373E+03  0.26477181855E+03  0.17300000000E+03 0.  1.
         -6    1    1    2    0  502  0.94105874553E+02  0.88419625220E+02 -0.17896779579E+03  0.28041472443E+03  0.17300000000E+03 0.  1.
<mgrwt>
<rscale>  2 0.21587715E+03</rscale>
<asrwt>0</asrwt>
<pdfrwt beam="1">  1       21 0.16378295E-01 0.21587715E+03</pdfrwt>
<pdfrwt beam="2">  1       21 0.67496559E-01 0.21587715E+03</pdfrwt>
<totfact> 0.66358981E+04</totfact>
</mgrwt>
</event>
<event>
 4    3  0.4041078E+000  0.1860554E+03  0.7546771E-02  0.1162068E+00
         21   -1    0    0  501  502  0.00000000000E+00  0.00000000000E+00  0.17489210728E+03  0.17489210728E+03  0.00000000000E+00 0.  1.
         21   -1    0    0  502  503 -0.00000000000E+00 -0.00000000000E+00 -0.21199788475E+03  0.21199788475E+03  0.00000000000E+00 0. -1.
          6    1    1    2  501    0 -0.66621081484E+02 -0.15787281630E+02  0.31276714441E+02  0.18866594718E+03  0.17300000000E+03 0.  1.
         -6    1    1    2    0  503  0.66621081484E+02  0.15787281630E+02 -0.68382491912E+02  0.19822404486E+03  0.17300000000E+03 0.  1.
<mgrwt>
<rscale>  2 0.18605539E+03</rscale>
<asrwt>0</asrwt>
<pdfrwt beam="1">  1       21 0.26906478E-01 0.18605539E+03</pdfrwt>
<pdfrwt beam="2">  1       21 0.32615059E-01 0.18605539E+03</pdfrwt>
<totfact> 0.11930878E+05</totfact>
</mgrwt>
</event>
<event>
 4    3  0.4041078E+000  0.2032733E+03  0.7546771E-02  0.1147006E+00
         21   -1    0    0  501  502  0.00000000000E+00  0.00000000000E+00  0.59883925058E+03  0.59883925058E+03  0.00000000000E+00 0. -1.
         21   -1    0    0  502  503 -0.00000000000E+00 -0.00000000000E+00 -0.71001659163E+02  0.71001659163E+02  0.00000000000E+00 0. -1.
          6    1    1    2  501    0 -0.86417488372E+02  0.62634182593E+02  0.20768703478E+03  0.29060957923E+03  0.17300000000E+03 0.  1.
         -6    1    1    2    0  503  0.86417488372E+02 -0.62634182593E+02  0.32015055664E+03  0.37923133051E+03  0.17300000000E+03 0.  1.
<mgrwt>
<rscale>  2 0.20327327E+03</rscale>
<asrwt>0</asrwt>
<pdfrwt beam="1">  1       21 0.92129112E-01 0.20327327E+03</pdfrwt>
<pdfrwt beam="2">  1       21 0.10923333E-01 0.20327327E+03</pdfrwt>
<totfact> 0.68707316E+04</totfact>
</mgrwt>
</event>
<event>
 4    3  0.4041078E+000  0.1787462E+03  0.7546771E-02  0.1169022E+00
         21   -1    0    0  503  502  0.00000000000E+00  0.00000000000E+00  0.14175017265E+03  0.14175017265E+03  0.00000000000E+00 0. -1.
         21   -1    0    0  501  503 -0.00000000000E+00 -0.00000000000E+00 -0.34453166822E+03  0.34453166822E+03  0.00000000000E+00 0. -1.
          6    1    1    2  501    0 -0.12382870807E+02 -0.43218954817E+02 -0.24436592237E+03  0.30276214684E+03  0.17300000000E+03 0. -1.
         -6    1    1    2    0  502  0.12382870807E+02  0.43218954817E+02  0.41584426792E+02  0.18351969403E+03  0.17300000000E+03 0. -1.
<mgrwt>
<rscale>  2 0.17874623E+03</rscale>
<asrwt>0</asrwt>
<pdfrwt beam="1">  1       21 0.21807719E-01 0.17874623E+03</pdfrwt>
<pdfrwt beam="2">  1       21 0.53004872E-01 0.17874623E+03</pdfrwt>
<totfact> 0.66577749E+04</totfact>
</mgrwt>
</event>
<event>
 4    3  0.4041078E+000  0.1945386E+03  0.7546771E-02  0.1154430E+00
         21   -1    0    0  503  502  0.00000000000E+00  0.00000000000E+00  0.30054438232E+03  0.30054438232E+03  0.00000000000E+00 0. -1.
         21   -1    0    0  501  503 -0.00000000000E+00 -0.00000000000E+00 -0.14973816216E+03  0.14973816216E+03  0.00000000000E+00 0. -1.
          6    1    1    2  501    0  0.12227684970E+02 -0.88129220540E+02  0.16519165447E+03  0.25521277103E+03  0.17300000000E+03 0. -1.
         -6    1    1    2    0  502 -0.12227684970E+02  0.88129220540E+02 -0.14385434303E+02  0.19506977345E+03  0.17300000000E+03 0. -1.
<mgrwt>
<rscale>  2 0.19453862E+03</rscale>
<asrwt>0</asrwt>
<pdfrwt beam="1">  1       21 0.46237597E-01 0.19453862E+03</pdfrwt>
<pdfrwt beam="2">  1       21 0.23036640E-01 0.19453862E+03</pdfrwt>
<totfact> 0.79237880E+04</totfact>
</mgrwt>
</event>
<event>
 4    3  0.4041078E+000  0.1868262E+03  0.7546771E-02  0.1161355E+00
         21   -1    0    0  501  502  0.00000000000E+00  0.00000000000E+00  0.28692642815E+03  0.28692642815E+03  0.00000000000E+00 0. -1.
         21   -1    0    0  502  503 -0.00000000000E+00 -0.00000000000E+00 -0.12172963445E+03  0.12172963445E+03  0.00000000000E+00 0. -1.
          6    1    1    2  501    0  0.69517436452E+02  0.11931992761E+02  0.77309338654E+02  0.20218996084E+03  0.17300000000E+03 0. -1.
         -6    1    1    2    0  503 -0.69517436452E+02 -0.11931992761E+02  0.87887455045E+02  0.20646610176E+03  0.17300000000E+03 0. -1.
<mgrwt>
<rscale>  2 0.18682625E+03</rscale>
<asrwt>0</asrwt>
<pdfrwt beam="1">  1       21 0.44142527E-01 0.18682625E+03</pdfrwt>
<pdfrwt beam="2">  1       21 0.18727636E-01 0.18682625E+03</pdfrwt>
<totfact> 0.12885851E+05</totfact>
</mgrwt>
</event>
<event>
 4    3  0.4041078E+000  0.2332975E+03  0.7546771E-02  0.1124340E+00
         21   -1    0    0  501  502  0.00000000000E+00  0.00000000000E+00  0.22590146786E+04  0.22590146786E+04  0.00000000000E+00 0.  1.
         21   -1    0    0  502  503 -0.00000000000E+00 -0.00000000000E+00 -0.56141249201E+02  0.56141249201E+02  0.00000000000E+00 0.  1.
          6    1    1    2  501    0  0.10183140100E+03  0.11886591627E+03  0.22684074599E+03  0.32539893104E+03  0.17300000000E+03 0.  1.
         -6    1    1    2    0  503 -0.10183140100E+03 -0.11886591627E+03  0.19760326834E+04  0.19897569968E+04  0.17300000000E+03 0.  1.
<mgrwt>
<rscale>  2 0.23329754E+03</rscale>
<asrwt>0</asrwt>
<pdfrwt beam="1">  1       21 0.34754065E+00 0.23329754E+03</pdfrwt>
<pdfrwt beam="2">  1       21 0.86371170E-02 0.23329754E+03</pdfrwt>
<totfact> 0.18024198E+03</totfact>
</mgrwt>
</event>
<event>
 4    3  0.4041078E+000  0.2063705E+03  0.7546771E-02  0.1144473E+00
         21   -1    0    0  501  502  0.00000000000E+00  0.00000000000E+00  0.20715243151E+04  0.20715243151E+04  0.00000000000E+00 0. -1.
         21   -1    0    0  502  503 -0.00000000000E+00 -0.00000000000E+00 -0.40911186087E+02  0.40911186087E+02  0.00000000000E+00 0. -1.
          6    1    1    2  501    0 -0.17163266909E+02 -0.11119899260E+03  0.17602722753E+04  0.17723282080E+04  0.17300000000E+03 0. -1.
         -6    1    1    2    0  503  0.17163266909E+02  0.11119899260E+03  0.27034085366E+03  0.34010729314E+03  0.17300000000E+03 0. -1.
<mgrwt>
<rscale>  2 0.20637053E+03</rscale>
<asrwt>0</asrwt>
<pdfrwt beam="1">  1       21 0.31869597E+00 0.20637053E+03</pdfrwt>
<pdfrwt beam="2">  1       21 0.62940302E-02 0.20637053E+03</pdfrwt>
<totfact> 0.47605910E+03</totfact>
</mgrwt>
</event>
<event>
 4    3  0.4041078E+000  0.2422860E+03  0.7546771E-02  0.1118279E+00
         21   -1    0    0  501  502  0.00000000000E+00  0.00000000000E+00  0.49894367491E+03  0.49894367491E+03  0.00000000000E+00 0. -1.
         21   -1    0    0  502  503 -0.00000000000E+00 -0.00000000000E+00 -0.12438982814E+03  0.12438982814E+03  0.00000000000E+00 0. -1.
          6    1    1    2  501    0 -0.71170365222E+02 -0.15397491069E+03  0.11474852549E+03  0.26808528141E+03  0.17300000000E+03 0. -1.
         -6    1    1    2    0  503  0.71170365222E+02  0.15397491069E+03  0.25980532128E+03  0.35524822164E+03  0.17300000000E+03 0. -1.
<mgrwt>
<rscale>  2 0.24228598E+03</rscale>
<asrwt>0</asrwt>
<pdfrwt beam="1">  1       21 0.76760565E-01 0.24228598E+03</pdfrwt>
<pdfrwt beam="2">  1       21 0.19136897E-01 0.24228598E+03</pdfrwt>
<totfact> 0.36913712E+04</totfact>
</mgrwt>
</event>
<event>
 4    3  0.4041078E+000  0.1914950E+03  0.7546771E-02  0.1157120E+00
         21   -1    0    0  501  502  0.00000000000E+00  0.00000000000E+00  0.32689460252E+02  0.32689460252E+02  0.00000000000E+00 0. -1.
         21   -1    0    0  502  503 -0.00000000000E+00 -0.00000000000E+00 -0.11837331583E+04  0.11837331583E+04  0.00000000000E+00 0. -1.
          6    1    1    2  501    0 -0.21529806745E+02  0.79232565526E+02 -0.43637776487E+03  0.47654578551E+03  0.17300000000E+03 0. -1.
         -6    1    1    2    0  503  0.21529806745E+02 -0.79232565526E+02 -0.71466593315E+03  0.73987683301E+03  0.17300000000E+03 0. -1.
<mgrwt>
<rscale>  2 0.19149499E+03</rscale>
<asrwt>0</asrwt>
<pdfrwt beam="1">  1       21 0.50291482E-02 0.19149499E+03</pdfrwt>
<pdfrwt beam="2">  1       21 0.18211278E+00 0.19149499E+03</pdfrwt>
<totfact> 0.46927394E+04</totfact>
</mgrwt>
</event>
<event>
 4    3  0.4041078E+000  0.1876120E+03  0.7546771E-02  0.1160633E+00
         21   -1    0    0  503  502  0.00000000000E+00  0.00000000000E+00  0.20390376244E+03  0.20390376244E+03  0.00000000000E+00 0.  1.
         21   -1    0    0  501  503 -0.00000000000E+00 -0.00000000000E+00 -0.66091573657E+03  0.66091573657E+03  0.00000000000E+00 0. -1.
          6    1    1    2  501    0  0.48872967636E+02 -0.53672108207E+02 -0.60018071863E+03  0.62882044908E+03  0.17300000000E+03 0. -1.
         -6    1    1    2    0  502 -0.48872967636E+02  0.53672108207E+02  0.14316874450E+03  0.23599904993E+03  0.17300000000E+03 0.  1.
<mgrwt>
<rscale>  2 0.18761200E+03</rscale>
<asrwt>0</asrwt>
<pdfrwt beam="1">  1       21 0.31369809E-01 0.18761200E+03</pdfrwt>
<pdfrwt beam="2">  1       21 0.10167934E+00 0.18761200E+03</pdfrwt>
<totfact> 0.77344927E+03</totfact>
</mgrwt>
</event>
<event>
 4    3  0.4041078E+000  0.2175672E+03  0.7546771E-02  0.1135710E+00
         21   -1    0    0  501  502  0.00000000000E+00  0.00000000000E+00  0.11431111294E+04  0.11431111294E+04  0.00000000000E+00 0. -1.
         21   -1    0    0  502  503 -0.00000000000E+00 -0.00000000000E+00 -0.46201364487E+02  0.46201364487E+02  0.00000000000E+00 0.  1.
          6    1    1    2  501    0  0.13156466882E+03 -0.98611576588E+01  0.73996733798E+03  0.77128928800E+03  0.17300000000E+03 0. -1.
         -6    1    1    2    0  503 -0.13156466882E+03  0.98611576588E+01  0.35694242693E+03  0.41802320588E+03  0.17300000000E+03 0.  1.
<mgrwt>
<rscale>  2 0.21756724E+03</rscale>
<asrwt>0</asrwt>
<pdfrwt beam="1">  1       21 0.17586323E+00 0.21756724E+03</pdfrwt>
<pdfrwt beam="2">  1       21 0.71079031E-02 0.21756724E+03</pdfrwt>
<totfact> 0.28150418E+04</totfact>
</mgrwt>
</event>
<event>
 4    3  0.4041078E+000  0.1958098E+03  0.7546771E-02  0.1153323E+00
         21   -1    0    0  501  502  0.00000000000E+00  0.00000000000E+00  0.21531678413E+04  0.21531678413E+04  0.00000000000E+00 0.  1.
         21   -1    0    0  502  503 -0.00000000000E+00 -0.00000000000E+00 -0.20062447536E+02  0.20062447536E+02  0.00000000000E+00 0.  1.
          6    1    1    2  501    0 -0.44163824439E+02  0.80386869799E+02  0.14308858641E+04  0.14442215372E+04  0.17300000000E+03 0.  1.
         -6    1    1    2    0  503  0.44163824439E+02 -0.80386869799E+02  0.70221952966E+03  0.72900875170E+03  0.17300000000E+03 0.  1.
<mgrwt>
<rscale>  2 0.19580984E+03</rscale>
<asrwt>0</asrwt>
<pdfrwt beam="1">  1       21 0.33125641E+00 0.19580984E+03</pdfrwt>
<pdfrwt beam="2">  1       21 0.30865321E-02 0.19580984E+03</pdfrwt>
<totfact> 0.13544643E+04</totfact>
</mgrwt>
</event>
<event>
 4    3  0.4041078E+000  0.1832094E+03  0.7546771E-02  0.1164733E+00
         21   -1    0    0  503  502  0.00000000000E+00  0.00000000000E+00  0.28790267940E+02  0.28790267940E+02  0.00000000000E+00 0.  1.
         21   -1    0    0  501  503 -0.00000000000E+00 -0.00000000000E+00 -0.12452431816E+04  0.12452431816E+04  0.00000000000E+00 0.  1.
          6    1    1    2  501    0  0.89842297468E+01  0.59631907210E+02 -0.76905509822E+03  0.79057664072E+03  0.17300000000E+03 0.  1.
         -6    1    1    2    0  502 -0.89842297468E+01 -0.59631907210E+02 -0.44739781544E+03  0.48345680883E+03  0.17300000000E+03 0.  1.
<mgrwt>
<rscale>  2 0.18320939E+03</rscale>
<asrwt>0</asrwt>
<pdfrwt beam="1">  1       21 0.44292719E-02 0.18320939E+03</pdfrwt>
<pdfrwt beam="2">  1       21 0.19157588E+00 0.18320939E+03</pdfrwt>
<totfact> 0.50582878E+04</totfact>
</mgrwt>
</event>
<event>
 4    3  0.4041078E+000  0.2224005E+03  0.7546771E-02  0.1132106E+00
         21   -1    0    0  503  502  0.00000000000E+00  0.00000000000E+00  0.68146566514E+02  0.68146566514E+02  0.00000000000E+00 0. -1.
         21   -1    0    0  501  503 -0.00000000000E+00 -0.00000000000E+00 -0.93749457839E+03  0.93749457839E+03  0.00000000000E+00 0.  1.
          6    1    1    2  501    0 -0.18279861165E+02  0.13855986030E+03 -0.19574696412E+03  0.29627497729E+03  0.17300000000E+03 0.  1.
         -6    1    1    2    0  502  0.18279861165E+02 -0.13855986030E+03 -0.67360104776E+03  0.70936616761E+03  0.17300000000E+03 0. -1.
<mgrwt>
<rscale>  2 0.22240051E+03</rscale>
<asrwt>0</asrwt>
<pdfrwt beam="1">  1       21 0.10484088E-01 0.22240051E+03</pdfrwt>
<pdfrwt beam="2">  1       21 0.14422993E+00 0.22240051E+03</pdfrwt>
<totfact> 0.24268681E+04</totfact>
</mgrwt>
</event>
<event>
 4    3  0.4041078E+000  0.2833708E+03  0.7546771E-02  0.1093862E+00
         21   -1    0    0  503  502  0.00000000000E+00  0.00000000000E+00  0.81370598406E+03  0.81370598406E+03  0.00000000000E+00 0.  1.
         21   -1    0    0  501  503 -0.00000000000E+00 -0.00000000000E+00 -0.10362905970E+03  0.10362905970E+03  0.00000000000E+00 0. -1.
          6    1    1    2  501    0  0.50866656384E+02  0.21859234887E+03  0.45524183733E+03  0.53623144460E+03  0.17300000000E+03 0.  1.
         -6    1    1    2    0  502 -0.50866656384E+02 -0.21859234887E+03  0.25483508702E+03  0.38110359916E+03  0.17300000000E+03 0. -1.
<mgrwt>
<rscale>  2 0.28337084E+03</rscale>
<asrwt>0</asrwt>
<pdfrwt beam="1">  1       21 0.12518553E+00 0.28337084E+03</pdfrwt>
<pdfrwt beam="2">  1       21 0.15942933E-01 0.28337084E+03</pdfrwt>
<totfact> 0.15841506E+04</totfact>
</mgrwt>
</event>
<event>
 4    3  0.4041078E+000  0.2381970E+03  0.7546771E-02  0.1121000E+00
         21   -1    0    0  501  502  0.00000000000E+00  0.00000000000E+00  0.16719406869E+03  0.16719406869E+03  0.00000000000E+00 0.  1.
         21   -1    0    0  502  503 -0.00000000000E+00 -0.00000000000E+00 -0.12687411898E+04  0.12687411898E+04  0.00000000000E+00 0.  1.
          6    1    1    2  501    0  0.72413676610E+02 -0.14685046500E+03  0.63719427505E+02  0.24657243372E+03  0.17300000000E+03 0.  1.
         -6    1    1    2    0  503 -0.72413676610E+02  0.14685046500E+03 -0.11652665486E+04  0.11893628248E+04  0.17300000000E+03 0.  1.
<mgrwt>
<rscale>  2 0.23819698E+03</rscale>
<asrwt>0</asrwt>
<pdfrwt beam="1">  1       21 0.25722165E-01 0.23819698E+03</pdfrwt>
<pdfrwt beam="2">  1       21 0.19519094E+00 0.23819698E+03</pdfrwt>
<totfact> 0.19815748E+03</totfact>
</mgrwt>
</event>
<event>
 4    3  0.4041078E+000  0.2142541E+03  0.7546771E-02  0.1138241E+00
         21   -1    0    0  503  502  0.00000000000E+00  0.00000000000E+00  0.57108897217E+03  0.57108897217E+03  0.00000000000E+00 0.  1.
         21   -1    0    0  501  503 -0.00000000000E+00 -0.00000000000E+00 -0.95445247278E+02  0.95445247278E+02  0.00000000000E+00 0. -1.
          6    1    1    2  501    0 -0.10268544143E+03  0.73698827493E+02  0.10542242733E+03  0.23878589833E+03  0.17300000000E+03 0. -1.
         -6    1    1    2    0  502  0.10268544143E+03 -0.73698827493E+02  0.37022129756E+03  0.42774832112E+03  0.17300000000E+03 0.  1.
<mgrwt>
<rscale>  2 0.21425409E+03</rscale>
<asrwt>0</asrwt>
<pdfrwt beam="1">  1       21 0.87859840E-01 0.21425409E+03</pdfrwt>
<pdfrwt beam="2">  1       21 0.14683885E-01 0.21425409E+03</pdfrwt>
<totfact> 0.44794422E+04</totfact>
</mgrwt>
</event>
<event>
 4    3  0.4041078E+000  0.1845349E+03  0.7546771E-02  0.1163485E+00
         21   -1    0    0  501  502  0.00000000000E+00  0.00000000000E+00  0.30139902418E+03  0.30139902418E+03  0.00000000000E+00 0.  1.
         21   -1    0    0  502  503 -0.00000000000E+00 -0.00000000000E+00 -0.11341790772E+03  0.11341790772E+03  0.00000000000E+00 0. -1.
          6    1    1    2  501    0 -0.34731447245E+02  0.54017115635E+02  0.81154691306E+02  0.20159168170E+03  0.17300000000E+03 0. -1.
         -6    1    1    2    0  503  0.34731447245E+02 -0.54017115635E+02  0.10682642516E+03  0.21322525020E+03  0.17300000000E+03 0. -1.
<mgrwt>
<rscale>  2 0.18453488E+03</rscale>
<asrwt>0</asrwt>
<pdfrwt beam="1">  1       21 0.46369080E-01 0.18453488E+03</pdfrwt>
<pdfrwt beam="2">  1       21 0.17448909E-01 0.18453488E+03</pdfrwt>
<totfact> 0.13283955E+05</totfact>
</mgrwt>
</event>
<event>
 4    3  0.4041078E+000  0.1872432E+03  0.7546771E-02  0.1160972E+00
         21   -1    0    0  503  502  0.00000000000E+00  0.00000000000E+00  0.12953752702E+03  0.12953752702E+03  0.00000000000E+00 0.  1.
         21   -1    0    0  501  503 -0.00000000000E+00 -0.00000000000E+00 -0.35798077061E+03  0.35798077061E+03  0.00000000000E+00 0.  1.
          6    1    1    2  501    0  0.57442905120E+02 -0.42794064484E+02 -0.23461470103E+03  0.30017341195E+03  0.17300000000E+03 0.  1.
         -6    1    1    2    0  502 -0.57442905120E+02  0.42794064484E+02  0.61714574367E+01  0.18734488568E+03  0.17300000000E+03 0.  1.
<mgrwt>
<rscale>  2 0.18724321E+03</rscale>
<asrwt>0</asrwt>
<pdfrwt beam="1">  1       21 0.19928850E-01 0.18724321E+03</pdfrwt>
<pdfrwt beam="2">  1       21 0.55073964E-01 0.18724321E+03</pdfrwt>
<totfact> 0.72440422E+04</totfact>
</mgrwt>
</event>
<event>
 4    3  0.4041078E+000  0.2986758E+03  0.7546771E-02  0.1085904E+00
         21   -1    0    0  503  502  0.00000000000E+00  0.00000000000E+00  0.18345220601E+03  0.18345220601E+03  0.00000000000E+00 0. -1.
         21   -1    0    0  501  503 -0.00000000000E+00 -0.00000000000E+00 -0.48888779637E+03  0.48888779637E+03  0.00000000000E+00 0. -1.
          6    1    1    2  501    0  0.61441874403E+02  0.23559103827E+03 -0.17731868192E+03  0.34734587402E+03  0.17300000000E+03 0. -1.
         -6    1    1    2    0  502 -0.61441874403E+02 -0.23559103827E+03 -0.12811690844E+03  0.32499412836E+03  0.17300000000E+03 0. -1.
<mgrwt>
<rscale>  2 0.29867581E+03</rscale>
<asrwt>0</asrwt>
<pdfrwt beam="1">  1       21 0.28223417E-01 0.29867581E+03</pdfrwt>
<pdfrwt beam="2">  1       21 0.75213506E-01 0.29867581E+03</pdfrwt>
<totfact> 0.17957657E+04</totfact>
</mgrwt>
</event>
<event>
 4    3  0.4041078E+000  0.2240484E+03  0.7546771E-02  0.1130900E+00
         21   -1    0    0  503  502  0.00000000000E+00  0.00000000000E+00  0.29651683748E+02  0.29651683748E+02  0.00000000000E+00 0.  1.
         21   -1    0    0  501  503 -0.00000000000E+00 -0.00000000000E+00 -0.18110483002E+04  0.18110483002E+04  0.00000000000E+00 0.  1.
          6    1    1    2  501    0 -0.12599038614E+03 -0.66295578804E+02 -0.11257591587E+04  0.11478376909E+04  0.17300000000E+03 0.  1.
         -6    1    1    2    0  502  0.12599038614E+03  0.66295578804E+02 -0.65563745770E+03  0.69286229304E+03  0.17300000000E+03 0.  1.
<mgrwt>
<rscale>  2 0.22404839E+03</rscale>
<asrwt>0</asrwt>
<pdfrwt beam="1">  1       21 0.45617971E-02 0.22404839E+03</pdfrwt>
<pdfrwt beam="2">  1       21 0.27862284E+00 0.22404839E+03</pdfrwt>
<totfact> 0.13826528E+04</totfact>
</mgrwt>
</event>
<event>
 4    3  0.4041078E+000  0.1982706E+03  0.7546771E-02  0.1151206E+00
         21   -1    0    0  503  502  0.00000000000E+00  0.00000000000E+00  0.59162086083E+03  0.59162086083E+03  0.00000000000E+00 0. -1.
         21   -1    0    0  501  503 -0.00000000000E+00 -0.00000000000E+00 -0.74733805397E+02  0.74733805397E+02  0.00000000000E+00 0.  1.
          6    1    1    2  501    0 -0.91383778824E+02  0.32112820209E+02  0.14749553121E+03  0.24711568138E+03  0.17300000000E+03 0.  1.
         -6    1    1    2    0  502  0.91383778824E+02 -0.32112820209E+02  0.36939152422E+03  0.41923898485E+03  0.17300000000E+03 0.  1.
<mgrwt>
<rscale>  2 0.19827059E+03</rscale>
<asrwt>0</asrwt>
<pdfrwt beam="1">  1       21 0.91018591E-01 0.19827059E+03</pdfrwt>
<pdfrwt beam="2">  1       21 0.11497509E-01 0.19827059E+03</pdfrwt>
<totfact> 0.64659884E+04</totfact>
</mgrwt>
</event>
<event>
 4    3  0.4041078E+000  0.1948141E+03  0.7546771E-02  0.1154190E+00
         21   -1    0    0  501  502  0.00000000000E+00  0.00000000000E+00  0.11376726846E+03  0.11376726846E+03  0.00000000000E+00 0.  1.
         21   -1    0    0  502  503 -0.00000000000E+00 -0.00000000000E+00 -0.53449542693E+03  0.53449542693E+03  0.00000000000E+00 0.  1.
          6    1    1    2  501    0  0.18136352789E+02 -0.87718872592E+02 -0.11646505562E+02  0.19516190456E+03  0.17300000000E+03 0.  1.
         -6    1    1    2    0  503 -0.18136352789E+02  0.87718872592E+02 -0.40908165291E+03  0.45310079083E+03  0.17300000000E+03 0.  1.
<mgrwt>
<rscale>  2 0.19481409E+03</rscale>
<asrwt>0</asrwt>
<pdfrwt beam="1">  1       21 0.17502657E-01 0.19481409E+03</pdfrwt>
<pdfrwt beam="2">  1       21 0.82230065E-01 0.19481409E+03</pdfrwt>
<totfact> 0.38165808E+04</totfact>
</mgrwt>
</event>
<event>
 4    3  0.4041078E+000  0.2200876E+03  0.7546771E-02  0.1133818E+00
         21   -1    0    0  501  502  0.00000000000E+00  0.00000000000E+00  0.74183297660E+02  0.74183297660E+02  0.00000000000E+00 0. -1.
         21   -1    0    0  502  503 -0.00000000000E+00 -0.00000000000E+00 -0.10813224695E+04  0.10813224695E+04  0.00000000000E+00 0.  1.
          6    1    1    2  501    0 -0.62291794394E+02  0.12095157605E+03 -0.13992978767E+03  0.26080432680E+03  0.17300000000E+03 0. -1.
         -6    1    1    2    0  503  0.62291794394E+02 -0.12095157605E+03 -0.86720938421E+03  0.89470144041E+03  0.17300000000E+03 0.  1.
<mgrwt>
<rscale>  2 0.22008760E+03</rscale>
<asrwt>0</asrwt>
<pdfrwt beam="1">  1       21 0.11412816E-01 0.22008760E+03</pdfrwt>
<pdfrwt beam="2">  1       21 0.16635729E+00 0.22008760E+03</pdfrwt>
<totfact> 0.14251226E+04</totfact>
</mgrwt>
</event>
<event>
 4    3  0.4041078E+000  0.2632134E+03  0.7546771E-02  0.1105228E+00
         21   -1    0    0  501  502  0.00000000000E+00  0.00000000000E+00  0.14294218204E+03  0.14294218204E+03  0.00000000000E+00 0. -1.
         21   -1    0    0  502  503 -0.00000000000E+00 -0.00000000000E+00 -0.50799271718E+03  0.50799271718E+03  0.00000000000E+00 0. -1.
          6    1    1    2  501    0 -0.12962421132E+03  0.15016606192E+03 -0.11280308146E+03  0.28636657888E+03  0.17300000000E+03 0. -1.
         -6    1    1    2    0  503  0.12962421132E+03 -0.15016606192E+03 -0.25224745368E+03  0.36456832034E+03  0.17300000000E+03 0. -1.
<mgrwt>
<rscale>  2 0.26321338E+03</rscale>
<asrwt>0</asrwt>
<pdfrwt beam="1">  1       21 0.21991105E-01 0.26321338E+03</pdfrwt>
<pdfrwt beam="2">  1       21 0.78152727E-01 0.26321338E+03</pdfrwt>
<totfact> 0.27024980E+04</totfact>
</mgrwt>
</event>
<event>
 4    3  0.4041078E+000  0.1851074E+03  0.7546771E-02  0.1162950E+00
         21   -1    0    0  503  502  0.00000000000E+00  0.00000000000E+00  0.97975483191E+02  0.97975483191E+02  0.00000000000E+00 0. -1.
         21   -1    0    0  501  503 -0.00000000000E+00 -0.00000000000E+00 -0.45013238256E+03  0.45013238256E+03  0.00000000000E+00 0. -1.
          6    1    1    2  501    0 -0.63221421117E+02  0.18406983011E+02 -0.30551065423E+03  0.35721355652E+03  0.17300000000E+03 0. -1.
         -6    1    1    2    0  502  0.63221421117E+02 -0.18406983011E+02 -0.46646245136E+02  0.19089430923E+03  0.17300000000E+03 0. -1.
<mgrwt>
<rscale>  2 0.18510744E+03</rscale>
<asrwt>0</asrwt>
<pdfrwt beam="1">  1       21 0.15073151E-01 0.18510744E+03</pdfrwt>
<pdfrwt beam="2">  1       21 0.69251137E-01 0.18510744E+03</pdfrwt>
<totfact> 0.74009219E+04</totfact>
</mgrwt>
</event>
<event>
 4    3  0.4041078E+000  0.1846869E+03  0.7546771E-02  0.1163343E+00
         21   -1    0    0  503  502  0.00000000000E+00  0.00000000000E+00  0.45253836995E+02  0.45253836995E+02  0.00000000000E+00 0.  1.
         21   -1    0    0  501  503 -0.00000000000E+00 -0.00000000000E+00 -0.88595647470E+03  0.88595647470E+03  0.00000000000E+00 0.  1.
          6    1    1    2  501    0 -0.64315583649E+02 -0.66157134571E+01 -0.24047763660E+03  0.30321404267E+03  0.17300000000E+03 0.  1.
         -6    1    1    2    0  502  0.64315583649E+02  0.66157134571E+01 -0.60022500110E+03  0.62799626903E+03  0.17300000000E+03 0.  1.
<mgrwt>
<rscale>  2 0.18468693E+03</rscale>
<asrwt>0</asrwt>
<pdfrwt beam="1">  1       21 0.69621291E-02 0.18468693E+03</pdfrwt>
<pdfrwt beam="2">  1       21 0.13630099E+00 0.18468693E+03</pdfrwt>
<totfact> 0.58776230E+04</totfact>
</mgrwt>
</event>
<event>
 4    3  0.4041078E+000  0.1781079E+03  0.7546771E-02  0.1169647E+00
         21   -1    0    0  501  502  0.00000000000E+00  0.00000000000E+00  0.10113905123E+04  0.10113905123E+04  0.00000000000E+00 0.  1.
         21   -1    0    0  502  503 -0.00000000000E+00 -0.00000000000E+00 -0.62396431019E+02  0.62396431019E+02  0.00000000000E+00 0.  1.
          6    1    1    2  501    0 -0.42310129991E+02 -0.18114231299E+01  0.85312092711E+03  0.87151462675E+03  0.17300000000E+03 0.  1.
         -6    1    1    2    0  503  0.42310129991E+02  0.18114231299E+01  0.95873154128E+02  0.20227231653E+03  0.17300000000E+03 0.  1.
<mgrwt>
<rscale>  2 0.17810791E+03</rscale>
<asrwt>0</asrwt>
<pdfrwt beam="1">  1       21 0.15559853E+00 0.17810791E+03</pdfrwt>
<pdfrwt beam="2">  1       21 0.95994516E-02 0.17810791E+03</pdfrwt>
<totfact> 0.23889055E+04</totfact>
</mgrwt>
</event>
<event>
 4    3  0.4041078E+000  0.1769298E+03  0.7546771E-02  0.1170808E+00
         21   -1    0    0  501  502  0.00000000000E+00  0.00000000000E+00  0.13506973195E+03  0.13506973195E+03  0.00000000000E+00 0. -1.
         21   -1    0    0  502  503 -0.00000000000E+00 -0.00000000000E+00 -0.28171516489E+03  0.28171516489E+03  0.00000000000E+00 0. -1.
          6    1    1    2  501    0  0.25917625542E+02  0.26522113307E+02  0.14428810180E+02  0.17751714388E+03  0.17300000000E+03 0. -1.
         -6    1    1    2    0  503 -0.25917625542E+02 -0.26522113307E+02 -0.16107424312E+03  0.23926775295E+03  0.17300000000E+03 0. -1.
<mgrwt>
<rscale>  2 0.17692978E+03</rscale>
<asrwt>0</asrwt>
<pdfrwt beam="1">  1       21 0.20779959E-01 0.17692978E+03</pdfrwt>
<pdfrwt beam="2">  1       21 0.43340794E-01 0.17692978E+03</pdfrwt>
<totfact> 0.11060454E+05</totfact>
</mgrwt>
</event>
<event>
 4    3  0.4041078E+000  0.1743715E+03  0.7546771E-02  0.1173364E+00
         21   -1    0    0  503  502  0.00000000000E+00  0.00000000000E+00  0.12291702453E+03  0.12291702453E+03  0.00000000000E+00 0. -1.
         21   -1    0    0  501  503 -0.00000000000E+00 -0.00000000000E+00 -0.30854208799E+03  0.30854208799E+03  0.00000000000E+00 0. -1.
          6    1    1    2  501    0  0.21714703909E+02 -0.22145058850E+01 -0.18887307422E+03  0.25705732934E+03  0.17300000000E+03 0. -1.
         -6    1    1    2    0  502 -0.21714703909E+02  0.22145058850E+01  0.32480107592E+01  0.17440178318E+03  0.17300000000E+03 0. -1.
<mgrwt>
<rscale>  2 0.17437154E+03</rscale>
<asrwt>0</asrwt>
<pdfrwt beam="1">  1       21 0.18910312E-01 0.17437154E+03</pdfrwt>
<pdfrwt beam="2">  1       21 0.47468013E-01 0.17437154E+03</pdfrwt>
<totfact> 0.10950063E+05</totfact>
</mgrwt>
</event>
<event>
 4    3  0.4041078E+000  0.1752198E+03  0.7546771E-02  0.1172511E+00
         21   -1    0    0  501  502  0.00000000000E+00  0.00000000000E+00  0.91333898713E+02  0.91333898713E+02  0.00000000000E+00 0.  1.
         21   -1    0    0  502  503 -0.00000000000E+00 -0.00000000000E+00 -0.57195895612E+03  0.57195895612E+03  0.00000000000E+00 0.  1.
          6    1    1    2  501    0  0.19551346946E+02  0.19767152491E+02 -0.27365308227E+02  0.17734389073E+03  0.17300000000E+03 0.  1.
         -6    1    1    2    0  503 -0.19551346946E+02 -0.19767152491E+02 -0.45325974918E+03  0.48594896410E+03  0.17300000000E+03 0.  1.
<mgrwt>
<rscale>  2 0.17521985E+03</rscale>
<asrwt>0</asrwt>
<pdfrwt beam="1">  1       21 0.14051369E-01 0.17521985E+03</pdfrwt>
<pdfrwt beam="2">  1       21 0.87993686E-01 0.17521985E+03</pdfrwt>
<totfact> 0.49308903E+04</totfact>
</mgrwt>
</event>
<event>
 4    3  0.4041078E+000  0.2052557E+03  0.7546771E-02  0.1145379E+00
         21   -1    0    0  503  502  0.00000000000E+00  0.00000000000E+00  0.46036896372E+03  0.46036896372E+03  0.00000000000E+00 0.  1.
         21   -1    0    0  501  503 -0.00000000000E+00 -0.00000000000E+00 -0.15177193450E+03  0.15177193450E+03  0.00000000000E+00 0.  1.
          6    1    1    2  501    0 -0.92844101163E+02 -0.59840349726E+02 -0.38558402020E+02  0.20884598378E+03  0.17300000000E+03 0.  1.
         -6    1    1    2    0  502  0.92844101163E+02  0.59840349726E+02  0.34715543123E+03  0.40329491444E+03  0.17300000000E+03 0.  1.
<mgrwt>
<rscale>  2 0.20525568E+03</rscale>
<asrwt>0</asrwt>
<pdfrwt beam="1">  1       21 0.70825994E-01 0.20525568E+03</pdfrwt>
<pdfrwt beam="2">  1       21 0.23349529E-01 0.20525568E+03</pdfrwt>
<totfact> 0.30927333E+04</totfact>
</mgrwt>
</event>
<event>
 4    3  0.4041078E+000  0.2109656E+03  0.7546771E-02  0.1140804E+00
         21   -1    0    0  501  502  0.00000000000E+00  0.00000000000E+00  0.55969885184E+02  0.55969885184E+02  0.00000000000E+00 0.  1.
         21   -1    0    0  502  503 -0.00000000000E+00 -0.00000000000E+00 -0.91840192981E+03  0.91840192981E+03  0.00000000000E+00 0.  1.
          6    1    1    2  501    0 -0.10778208281E+03 -0.54410730838E+02 -0.25276845870E+03  0.32923912088E+03  0.17300000000E+03 0.  1.
         -6    1    1    2    0  503  0.10778208281E+03  0.54410730838E+02 -0.60966358592E+03  0.64513269411E+03  0.17300000000E+03 0.  1.
<mgrwt>
<rscale>  2 0.21096565E+03</rscale>
<asrwt>0</asrwt>
<pdfrwt beam="1">  1       21 0.86107523E-02 0.21096565E+03</pdfrwt>
<pdfrwt beam="2">  1       21 0.14129259E+00 0.21096565E+03</pdfrwt>
<totfact> 0.36487200E+04</totfact>
</mgrwt>
</event>
<event>
 4    3  0.4041078E+000  0.1768653E+03  0.7546771E-02  0.1170872E+00
         21   -1    0    0  503  502  0.00000000000E+00  0.00000000000E+00  0.23698171106E+03  0.23698171106E+03  0.00000000000E+00 0. -1.
         21   -1    0    0  501  503 -0.00000000000E+00 -0.00000000000E+00 -0.16114992187E+03  0.16114992187E+03  0.00000000000E+00 0. -1.
          6    1    1    2  501    0  0.31461545990E+02  0.19039816334E+02 -0.46749893684E+02  0.18293959670E+03  0.17300000000E+03 0. -1.
         -6    1    1    2    0  502 -0.31461545990E+02 -0.19039816334E+02  0.12258168287E+03  0.21519203623E+03  0.17300000000E+03 0. -1.
<mgrwt>
<rscale>  2 0.17686533E+03</rscale>
<asrwt>0</asrwt>
<pdfrwt beam="1">  1       21 0.36458725E-01 0.17686533E+03</pdfrwt>
<pdfrwt beam="2">  1       21 0.24792296E-01 0.17686533E+03</pdfrwt>
<totfact> 0.11229758E+05</totfact>
</mgrwt>
</event>
<event>
 4    3  0.4041078E+000  0.1769722E+03  0.7546771E-02  0.1170766E+00
         21   -1    0    0  501  502  0.00000000000E+00  0.00000000000E+00  0.36210780285E+03  0.36210780285E+03  0.00000000000E+00 0.  1.
         21   -1    0    0  502  503 -0.00000000000E+00 -0.00000000000E+00 -0.27378616544E+03  0.27378616544E+03  0.00000000000E+00 0.  1.
          6    1    1    2  501    0 -0.18139995779E+02 -0.32574669568E+02  0.30713427567E+03  0.35447232873E+03  0.17300000000E+03 0.  1.
         -6    1    1    2    0  503  0.18139995779E+02  0.32574669568E+02 -0.21881263827E+03  0.28142163956E+03  0.17300000000E+03 0.  1.
<mgrwt>
<rscale>  2 0.17697223E+03</rscale>
<asrwt>0</asrwt>
<pdfrwt beam="1">  1       21 0.55708893E-01 0.17697223E+03</pdfrwt>
<pdfrwt beam="2">  1       21 0.42120948E-01 0.17697223E+03</pdfrwt>
<totfact> 0.16629530E+04</totfact>
</mgrwt>
</event>
<event>
 4    3  0.4041078E+000  0.3162405E+03  0.7546771E-02  0.1077393E+00
         21   -1    0    0  503  502  0.00000000000E+00  0.00000000000E+00  0.33489023837E+03  0.33489023837E+03  0.00000000000E+00 0. -1.
         21   -1    0    0  501  503 -0.00000000000E+00 -0.00000000000E+00 -0.31559572307E+03  0.31559572307E+03  0.00000000000E+00 0. -1.
          6    1    1    2  501    0  0.85395097699E+02  0.25057279608E+03 -0.65764157192E+02  0.32300615044E+03  0.17300000000E+03 0. -1.
         -6    1    1    2    0  502 -0.85395097699E+02 -0.25057279608E+03  0.85058672491E+02  0.32747981100E+03  0.17300000000E+03 0. -1.
<mgrwt>
<rscale>  2 0.31624049E+03</rscale>
<asrwt>0</asrwt>
<pdfrwt beam="1">  1       21 0.51521575E-01 0.31624049E+03</pdfrwt>
<pdfrwt beam="2">  1       21 0.48553188E-01 0.31624049E+03</pdfrwt>
<totfact> 0.13602596E+04</totfact>
</mgrwt>
</event>
<event>
 4    3  0.4041078E+000  0.1755613E+03  0.7546771E-02  0.1172169E+00
         21   -1    0    0  501  502  0.00000000000E+00  0.00000000000E+00  0.26173250686E+02  0.26173250686E+02  0.00000000000E+00 0. -1.
         21   -1    0    0  502  503 -0.00000000000E+00 -0.00000000000E+00 -0.13367037353E+04  0.13367037353E+04  0.00000000000E+00 0. -1.
          6    1    1    2  501    0  0.28888381251E+02  0.76311800626E+01 -0.89035909121E+03  0.90750266378E+03  0.17300000000E+03 0. -1.
         -6    1    1    2    0  503 -0.28888381251E+02 -0.76311800626E+01 -0.42017139337E+03  0.45537432217E+03  0.17300000000E+03 0. -1.
<mgrwt>
<rscale>  2 0.17556131E+03</rscale>
<asrwt>0</asrwt>
<pdfrwt beam="1">  1       21 0.40266526E-02 0.17556131E+03</pdfrwt>
<pdfrwt beam="2">  1       21 0.20564680E+00 0.17556131E+03</pdfrwt>
<totfact> 0.48456369E+04</totfact>
</mgrwt>
</event>
<event>
 4    3  0.4041078E+000  0.1816622E+03  0.7546771E-02  0.1166204E+00
         21   -1    0    0  503  502  0.00000000000E+00  0.00000000000E+00  0.93939508939E+03  0.93939508939E+03  0.00000000000E+00 0. -1.
         21   -1    0    0  501  503 -0.00000000000E+00 -0.00000000000E+00 -0.96490251021E+02  0.96490251021E+02  0.00000000000E+00 0. -1.
          6    1    1    2  501    0  0.39583145337E+02 -0.38798451560E+02  0.84212756865E+01  0.18185726030E+03  0.17300000000E+03 0. -1.
         -6    1    1    2    0  502 -0.39583145337E+02  0.38798451560E+02  0.83448356268E+03  0.85402808012E+03  0.17300000000E+03 0. -1.
<mgrwt>
<rscale>  2 0.18166217E+03</rscale>
<asrwt>0</asrwt>
<pdfrwt beam="1">  1       21 0.14452232E+00 0.18166217E+03</pdfrwt>
<pdfrwt beam="2">  1       21 0.14844655E-01 0.18166217E+03</pdfrwt>
<totfact> 0.13277298E+04</totfact>
</mgrwt>
</event>
<event>
 4    3  0.4041078E+000  0.2283575E+03  0.7546771E-02  0.1127801E+00
         21   -1    0    0  501  502  0.00000000000E+00  0.00000000000E+00  0.48602288510E+03  0.48602288510E+03  0.00000000000E+00 0. -1.
         21   -1    0    0  502  503 -0.00000000000E+00 -0.00000000000E+00 -0.10847310379E+03  0.10847310379E+03  0.00000000000E+00 0. -1.
          6    1    1    2  501    0 -0.14590792765E+03  0.30480187118E+02  0.21977048325E+03  0.31693253299E+03  0.17300000000E+03 0. -1.
         -6    1    1    2    0  503  0.14590792765E+03 -0.30480187118E+02  0.15777929806E+03  0.27756345590E+03  0.17300000000E+03 0. -1.
<mgrwt>
<rscale>  2 0.22835754E+03</rscale>
<asrwt>0</asrwt>
<pdfrwt beam="1">  1       21 0.74772750E-01 0.22835754E+03</pdfrwt>
<pdfrwt beam="2">  1       21 0.16688170E-01 0.22835754E+03</pdfrwt>
<totfact> 0.50801944E+04</totfact>
</mgrwt>
</event>
<event>
 4    3  0.4041078E+000  0.2247137E+03  0.7546771E-02  0.1130417E+00
         21   -1    0    0  501  502  0.00000000000E+00  0.00000000000E+00  0.74198933014E+02  0.74198933014E+02  0.00000000000E+00 0. -1.
         21   -1    0    0  502  503 -0.00000000000E+00 -0.00000000000E+00 -0.68229623154E+03  0.68229623154E+03  0.00000000000E+00 0. -1.
          6    1    1    2  501    0  0.90563332300E+02 -0.11120041993E+03 -0.32317187065E+03  0.39361949714E+03  0.17300000000E+03 0. -1.
         -6    1    1    2    0  503 -0.90563332300E+02  0.11120041993E+03 -0.28492542787E+03  0.36287566741E+03  0.17300000000E+03 0. -1.
<mgrwt>
<rscale>  2 0.22471371E+03</rscale>
<asrwt>0</asrwt>
<pdfrwt beam="1">  1       21 0.11415221E-01 0.22471371E+03</pdfrwt>
<pdfrwt beam="2">  1       21 0.10496865E+00 0.22471371E+03</pdfrwt>
<totfact> 0.46152285E+04</totfact>
</mgrwt>
</event>
<event>
 4    3  0.4041078E+000  0.1974746E+03  0.7546771E-02  0.1151887E+00
         21   -1    0    0  501  502  0.00000000000E+00  0.00000000000E+00  0.10276591181E+03  0.10276591181E+03  0.00000000000E+00 0.  1.
         21   -1    0    0  502  503 -0.00000000000E+00 -0.00000000000E+00 -0.69120300540E+03  0.69120300540E+03  0.00000000000E+00 0.  1.
          6    1    1    2  501    0  0.14902803449E+01 -0.95210194136E+02 -0.27615778059E+02  0.19939617148E+03  0.17300000000E+03 0.  1.
         -6    1    1    2    0  503 -0.14902803449E+01  0.95210194136E+02 -0.56082131554E+03  0.59457274573E+03  0.17300000000E+03 0.  1.
<mgrwt>
<rscale>  2 0.19747456E+03</rscale>
<asrwt>0</asrwt>
<pdfrwt beam="1">  1       21 0.15810140E-01 0.19747456E+03</pdfrwt>
<pdfrwt beam="2">  1       21 0.10633892E+00 0.19747456E+03</pdfrwt>
<totfact> 0.25183709E+04</totfact>
</mgrwt>
</event>
<event>
 4    3  0.4041078E+000  0.1925207E+03  0.7546771E-02  0.1156207E+00
         21   -1    0    0  503  502  0.00000000000E+00  0.00000000000E+00  0.49722453727E+02  0.49722453727E+02  0.00000000000E+00 0. -1.
         21   -1    0    0  501  503 -0.00000000000E+00 -0.00000000000E+00 -0.15778261212E+04  0.15778261212E+04  0.00000000000E+00 0. -1.
          6    1    1    2  501    0  0.33379291478E+02 -0.77595406862E+02 -0.13551252584E+04  0.13687325123E+04  0.17300000000E+03 0. -1.
         -6    1    1    2    0  502 -0.33379291478E+02  0.77595406862E+02 -0.17297840905E+03  0.25881606261E+03  0.17300000000E+03 0. -1.
<mgrwt>
<rscale>  2 0.19252071E+03</rscale>
<asrwt>0</asrwt>
<pdfrwt beam="1">  1       21 0.76496092E-02 0.19252071E+03</pdfrwt>
<pdfrwt beam="2">  1       21 0.24274245E+00 0.19252071E+03</pdfrwt>
<totfact> 0.95207479E+03</totfact>
</mgrwt>
</event>
<event>
 4    3  0.4041078E+000  0.2258904E+03  0.7546771E-02  0.1129566E+00
         21   -1    0    0  501  502  0.00000000000E+00  0.00000000000E+00  0.14184751883E+03  0.14184751883E+03  0.00000000000E+00 0. -1.
         21   -1    0    0  502  503 -0.00000000000E+00 -0.00000000000E+00 -0.49869243271E+03  0.49869243271E+03  0.00000000000E+00 0.  1.
          6    1    1    2  501    0  0.13670015242E+03  0.49097231685E+02 -0.93580183035E+01  0.22608414880E+03  0.17300000000E+03 0. -1.
         -6    1    1    2    0  503 -0.13670015242E+03 -0.49097231685E+02 -0.34748689557E+03  0.41445580274E+03  0.17300000000E+03 0.  1.
<mgrwt>
<rscale>  2 0.22589039E+03</rscale>
<asrwt>0</asrwt>
<pdfrwt beam="1">  1       21 0.21822695E-01 0.22589039E+03</pdfrwt>
<pdfrwt beam="2">  1       21 0.76721913E-01 0.22589039E+03</pdfrwt>
<totfact> 0.29092906E+04</totfact>
</mgrwt>
</event>
<event>
 4    3  0.4041078E+000  0.3129193E+03  0.7546771E-02  0.1078955E+00
         21   -1    0    0  501  502  0.00000000000E+00  0.00000000000E+00  0.15282049921E+03  0.15282049921E+03  0.00000000000E+00 0.  1.
         21   -1    0    0  502  503 -0.00000000000E+00 -0.00000000000E+00 -0.81865628120E+03  0.81865628120E+03  0.00000000000E+00 0.  1.
          6    1    1    2  501    0 -0.20423990305E+03 -0.16209729623E+03 -0.55936008887E+03  0.64093851535E+03  0.17300000000E+03 0.  1.
         -6    1    1    2    0  503  0.20423990305E+03  0.16209729623E+03 -0.10647569312E+03  0.33053826506E+03  0.17300000000E+03 0.  1.
<mgrwt>
<rscale>  2 0.31291927E+03</rscale>
<asrwt>0</asrwt>
<pdfrwt beam="1">  1       21 0.23510846E-01 0.31291927E+03</pdfrwt>
<pdfrwt beam="2">  1       21 0.12594712E+00 0.31291927E+03</pdfrwt>
<totfact> 0.74075770E+03</totfact>
</mgrwt>
</event>
<event>
 4    3  0.4041078E+000  0.1789054E+03  0.7546771E-02  0.1168867E+00
         21   -1    0    0  503  502  0.00000000000E+00  0.00000000000E+00  0.36751499870E+03  0.36751499870E+03  0.00000000000E+00 0.  1.
         21   -1    0    0  501  503 -0.00000000000E+00 -0.00000000000E+00 -0.13940333176E+03  0.13940333176E+03  0.00000000000E+00 0.  1.
          6    1    1    2  501    0 -0.36763303834E+02  0.26955666960E+02 -0.41209533872E+02  0.18359023441E+03  0.17300000000E+03 0.  1.
         -6    1    1    2    0  502  0.36763303834E+02 -0.26955666960E+02  0.26932120081E+03  0.32332809605E+03  0.17300000000E+03 0.  1.
<mgrwt>
<rscale>  2 0.17890542E+03</rscale>
<asrwt>0</asrwt>
<pdfrwt beam="1">  1       21 0.56540769E-01 0.17890542E+03</pdfrwt>
<pdfrwt beam="2">  1       21 0.21446667E-01 0.17890542E+03</pdfrwt>
<totfact> 0.59943196E+04</totfact>
</mgrwt>
</event>
<event>
 4    3  0.4041078E+000  0.1883492E+03  0.7546771E-02  0.1159959E+00
         21   -1    0    0  503  502  0.00000000000E+00  0.00000000000E+00  0.96065805333E+02  0.96065805333E+02  0.00000000000E+00 0.  1.
         21   -1    0    0  501  503 -0.00000000000E+00 -0.00000000000E+00 -0.37184722016E+03  0.37184722016E+03  0.00000000000E+00 0.  1.
          6    1    1    2  501    0 -0.35573135463E+02  0.65429096636E+02 -0.15732095088E+03  0.24540842740E+03  0.17300000000E+03 0.  1.
         -6    1    1    2    0  502  0.35573135463E+02 -0.65429096636E+02 -0.11846046394E+03  0.22250459809E+03  0.17300000000E+03 0.  1.
<mgrwt>
<rscale>  2 0.18834918E+03</rscale>
<asrwt>0</asrwt>
<pdfrwt beam="1">  1       21 0.14779354E-01 0.18834918E+03</pdfrwt>
<pdfrwt beam="2">  1       21 0.57207265E-01 0.18834918E+03</pdfrwt>
<totfact> 0.11581563E+05</totfact>
</mgrwt>
</event>
<event>
 4    3  0.4041078E+000  0.3094424E+03  0.7546771E-02  0.1080613E+00
         21   -1    0    0  501  502  0.00000000000E+00  0.00000000000E+00  0.44394071190E+03  0.44394071190E+03  0.00000000000E+00 0.  1.
         21   -1    0    0  502  503 -0.00000000000E+00 -0.00000000000E+00 -0.21599326309E+03  0.21599326309E+03  0.00000000000E+00 0. -1.
          6    1    1    2  501    0 -0.20084781716E+03 -0.15964260901E+03  0.12629008907E+03  0.33422117657E+03  0.17300000000E+03 0. -1.
         -6    1    1    2    0  503  0.20084781716E+03  0.15964260901E+03  0.10165735974E+03  0.32571279842E+03  0.17300000000E+03 0.  1.
<mgrwt>
<rscale>  2 0.30944242E+03</rscale>
<asrwt>0</asrwt>
<pdfrwt beam="1">  1       21 0.68298571E-01 0.30944242E+03</pdfrwt>
<pdfrwt beam="2">  1       21 0.33229733E-01 0.30944242E+03</pdfrwt>
<totfact> 0.16074680E+04</totfact>
</mgrwt>
</event>
<event>
 4    3  0.4041078E+000  0.2133988E+03  0.7546771E-02  0.1138902E+00
         21   -1    0    0  503  502  0.00000000000E+00  0.00000000000E+00  0.57235722782E+03  0.57235722782E+03  0.00000000000E+00 0. -1.
         21   -1    0    0  501  503 -0.00000000000E+00 -0.00000000000E+00 -0.10940355462E+03  0.10940355462E+03  0.00000000000E+00 0. -1.
          6    1    1    2  501    0 -0.67651233236E+02 -0.10503988260E+03  0.53451417818E+02  0.21999118246E+03  0.17300000000E+03 0. -1.
         -6    1    1    2    0  502  0.67651233236E+02  0.10503988260E+03  0.40950225539E+03  0.46176959998E+03  0.17300000000E+03 0. -1.
<mgrwt>
<rscale>  2 0.21339884E+03</rscale>
<asrwt>0</asrwt>
<pdfrwt beam="1">  1       21 0.88054957E-01 0.21339884E+03</pdfrwt>
<pdfrwt beam="2">  1       21 0.16831316E-01 0.21339884E+03</pdfrwt>
<totfact> 0.34719096E+04</totfact>
</mgrwt>
</event>
<event>
 4    3  0.4041078E+000  0.2901013E+03  0.7546771E-02  0.1090296E+00
         21   -1    0    0  501  502  0.00000000000E+00  0.00000000000E+00  0.53761919655E+03  0.53761919655E+03  0.00000000000E+00 0. -1.
         21   -1    0    0  502  503 -0.00000000000E+00 -0.00000000000E+00 -0.67452729028E+03  0.67452729028E+03  0.00000000000E+00 0. -1.
          6    1    1    2  501    0 -0.30145165040E+02 -0.23091349800E+03  0.46265659756E+03  0.54608598389E+03  0.17300000000E+03 0. -1.
         -6    1    1    2    0  503  0.30145165040E+02  0.23091349800E+03 -0.59956469129E+03  0.66606050294E+03  0.17300000000E+03 0. -1.
<mgrwt>
<rscale>  2 0.29010132E+03</rscale>
<asrwt>0</asrwt>
<pdfrwt beam="1">  1       21 0.82710646E-01 0.29010132E+03</pdfrwt>
<pdfrwt beam="2">  1       21 0.10377343E+00 0.29010132E+03</pdfrwt>
<totfact> 0.88304888E+02</totfact>
</mgrwt>
</event>
<event>
 4    3  0.4041078E+000  0.1742152E+03  0.7546771E-02  0.1173522E+00
         21   -1    0    0  501  502  0.00000000000E+00  0.00000000000E+00  0.81491416591E+02  0.81491416591E+02  0.00000000000E+00 0.  1.
         21   -1    0    0  502  503 -0.00000000000E+00 -0.00000000000E+00 -0.41278118295E+03  0.41278118295E+03  0.00000000000E+00 0.  1.
          6    1    1    2  501    0 -0.17320882123E+02 -0.11042134710E+02 -0.88388830914E+02  0.19535487485E+03  0.17300000000E+03 0.  1.
         -6    1    1    2    0  503  0.17320882123E+02  0.11042134710E+02 -0.24290093545E+03  0.29891772470E+03  0.17300000000E+03 0.  1.
<mgrwt>
<rscale>  2 0.17421522E+03</rscale>
<asrwt>0</asrwt>
<pdfrwt beam="1">  1       21 0.12537141E-01 0.17421522E+03</pdfrwt>
<pdfrwt beam="2">  1       21 0.63504796E-01 0.17421522E+03</pdfrwt>
<totfact> 0.12520254E+05</totfact>
</mgrwt>
</event>
<event>
 4    3  0.4041078E+000  0.2246653E+03  0.7546771E-02  0.1130452E+00
         21   -1    0    0  503  502  0.00000000000E+00  0.00000000000E+00  0.50559474288E+03  0.50559474288E+03  0.00000000000E+00 0.  1.
         21   -1    0    0  501  503 -0.00000000000E+00 -0.00000000000E+00 -0.30524827521E+03  0.30524827521E+03  0.00000000000E+00 0. -1.
          6    1    1    2  501    0 -0.14318803142E+02 -0.14261994898E+03 -0.23240798409E+03  0.32324595750E+03  0.17300000000E+03 0. -1.
         -6    1    1    2    0  502  0.14318803142E+02  0.14261994898E+03  0.43275445177E+03  0.48759706059E+03  0.17300000000E+03 0.  1.
<mgrwt>
<rscale>  2 0.22466526E+03</rscale>
<asrwt>0</asrwt>
<pdfrwt beam="1">  1       21 0.77783806E-01 0.22466526E+03</pdfrwt>
<pdfrwt beam="2">  1       21 0.46961273E-01 0.22466526E+03</pdfrwt>
<totfact> 0.62143019E+03</totfact>
</mgrwt>
</event>
<event>
 4    3  0.4041078E+000  0.2121190E+03  0.7546771E-02  0.1139899E+00
         21   -1    0    0  501  502  0.00000000000E+00  0.00000000000E+00  0.10489888477E+04  0.10489888477E+04  0.00000000000E+00 0.  1.
         21   -1    0    0  502  503 -0.00000000000E+00 -0.00000000000E+00 -0.69854692520E+02  0.69854692520E+02  0.00000000000E+00 0. -1.
          6    1    1    2  501    0  0.18683924366E+02 -0.12131115143E+03  0.83711409499E+03  0.86357078026E+03  0.17300000000E+03 0.  1.
         -6    1    1    2    0  503 -0.18683924366E+02  0.12131115143E+03  0.14202006023E+03  0.25527276000E+03  0.17300000000E+03 0. -1.
<mgrwt>
<rscale>  2 0.21211903E+03</rscale>
<asrwt>0</asrwt>
<pdfrwt beam="1">  1       21 0.16138289E+00 0.21211903E+03</pdfrwt>
<pdfrwt beam="2">  1       21 0.10746877E-01 0.21211903E+03</pdfrwt>
<totfact> 0.17328603E+04</totfact>
</mgrwt>
</event>
<event>
 4    3  0.4041078E+000  0.2099751E+03  0.7546771E-02  0.1141586E+00
         21   -1    0    0  503  502  0.00000000000E+00  0.00000000000E+00  0.29946121827E+03  0.29946121827E+03  0.00000000000E+00 0.  1.
         21   -1    0    0  501  503 -0.00000000000E+00 -0.00000000000E+00 -0.33963735645E+03  0.33963735645E+03  0.00000000000E+00 0.  1.
          6    1    1    2  501    0  0.14826038888E+02  0.11807092805E+03 -0.26060265261E+03  0.33466893795E+03  0.17300000000E+03 0.  1.
         -6    1    1    2    0  502 -0.14826038888E+02 -0.11807092805E+03  0.22042651443E+03  0.30442963677E+03  0.17300000000E+03 0.  1.
<mgrwt>
<rscale>  2 0.20997513E+03</rscale>
<asrwt>0</asrwt>
<pdfrwt beam="1">  1       21 0.46070957E-01 0.20997513E+03</pdfrwt>
<pdfrwt beam="2">  1       21 0.52251901E-01 0.20997513E+03</pdfrwt>
<totfact> 0.15519747E+04</totfact>
</mgrwt>
</event>
<event>
 4    3  0.4041078E+000  0.2590408E+03  0.7546771E-02  0.1107721E+00
         21   -1    0    0  501  502  0.00000000000E+00  0.00000000000E+00  0.64052363680E+03  0.64052363680E+03  0.00000000000E+00 0.  1.
         21   -1    0    0  502  503 -0.00000000000E+00 -0.00000000000E+00 -0.22017034935E+03  0.22017034935E+03  0.00000000000E+00 0.  1.
          6    1    1    2  501    0 -0.39175729956E+02  0.18878140681E+03  0.52174912123E+03  0.58251549583E+03  0.17300000000E+03 0.  1.
         -6    1    1    2    0  503  0.39175729956E+02 -0.18878140681E+03 -0.10139583378E+03  0.27817849033E+03  0.17300000000E+03 0.  1.
<mgrwt>
<rscale>  2 0.25904084E+03</rscale>
<asrwt>0</asrwt>
<pdfrwt beam="1">  1       21 0.98542097E-01 0.25904084E+03</pdfrwt>
<pdfrwt beam="2">  1       21 0.33872362E-01 0.25904084E+03</pdfrwt>
<totfact> 0.68287808E+03</totfact>
</mgrwt>
</event>
<event>
 4    3  0.4041078E+000  0.2081544E+03  0.7546771E-02  0.1143036E+00
         21   -1    0    0  503  502  0.00000000000E+00  0.00000000000E+00  0.76302139602E+03  0.76302139602E+03  0.00000000000E+00 0.  1.
         21   -1    0    0  501  503 -0.00000000000E+00 -0.00000000000E+00 -0.83173776293E+02  0.83173776293E+02  0.00000000000E+00 0.  1.
          6    1    1    2  501    0 -0.84540672606E+02  0.79070366307E+02  0.10160620788E+03  0.23162916404E+03  0.17300000000E+03 0.  1.
         -6    1    1    2    0  502  0.84540672606E+02 -0.79070366307E+02  0.57824141185E+03  0.61456600828E+03  0.17300000000E+03 0.  1.
<mgrwt>
<rscale>  2 0.20815439E+03</rscale>
<asrwt>0</asrwt>
<pdfrwt beam="1">  1       21 0.11738790E+00 0.20815439E+03</pdfrwt>
<pdfrwt beam="2">  1       21 0.12795966E-01 0.20815439E+03</pdfrwt>
<totfact> 0.28894718E+04</totfact>
</mgrwt>
</event>
<event>
 4    3  0.4041078E+000  0.2353053E+03  0.7546771E-02  0.1122960E+00
         21   -1    0    0  501  502  0.00000000000E+00  0.00000000000E+00  0.17183632298E+04  0.17183632298E+04  0.00000000000E+00 0.  1.
         21   -1    0    0  502  503 -0.00000000000E+00 -0.00000000000E+00 -0.38938180038E+02  0.38938180038E+02  0.00000000000E+00 0.  1.
          6    1    1    2  501    0  0.10451191365E+03  0.12048579951E+03  0.12046341599E+04  0.12274005162E+04  0.17300000000E+03 0.  1.
         -6    1    1    2    0  503 -0.10451191365E+03 -0.12048579951E+03  0.47479088987E+03  0.52990089364E+03  0.17300000000E+03 0.  1.
<mgrwt>
<rscale>  2 0.23530527E+03</rscale>
<asrwt>0</asrwt>
<pdfrwt beam="1">  1       21 0.26436352E+00 0.23530527E+03</pdfrwt>
<pdfrwt beam="2">  1       21 0.59904906E-02 0.23530527E+03</pdfrwt>
<totfact> 0.10424141E+04</totfact>
</mgrwt>
</event>
<event>
 4    3  0.4041078E+000  0.2839235E+03  0.7546771E-02  0.1093565E+00
         21   -1    0    0  501  502  0.00000000000E+00  0.00000000000E+00  0.31881148229E+03  0.31881148229E+03  0.00000000000E+00 0. -1.
         21   -1    0    0  502  503 -0.00000000000E+00 -0.00000000000E+00 -0.26774800064E+03  0.26774800064E+03  0.00000000000E+00 0.  1.
          6    1    1    2  501    0  0.61265340362E+02  0.21663353890E+03 -0.43641000218E+02  0.28725784412E+03  0.17300000000E+03 0. -1.
         -6    1    1    2    0  503 -0.61265340362E+02 -0.21663353890E+03  0.94704481870E+02  0.29930163881E+03  0.17300000000E+03 0.  1.
<mgrwt>
<rscale>  2 0.28392346E+03</rscale>
<asrwt>0</asrwt>
<pdfrwt beam="1">  1       21 0.49047921E-01 0.28392346E+03</pdfrwt>
<pdfrwt beam="2">  1       21 0.41192000E-01 0.28392346E+03</pdfrwt>
<totfact> 0.21504702E+04</totfact>
</mgrwt>
</event>
<event>
 4    3  0.4041078E+000  0.1819215E+03  0.7546771E-02  0.1165956E+00
         21   -1    0    0  501  502  0.00000000000E+00  0.00000000000E+00  0.52855483752E+03  0.52855483752E+03  0.00000000000E+00 0. -1.
         21   -1    0    0  502  503 -0.00000000000E+00 -0.00000000000E+00 -0.14560328867E+03  0.14560328867E+03  0.00000000000E+00 0. -1.
          6    1    1    2  501    0  0.19960233252E+02 -0.52612063314E+02  0.44595638295E+03  0.48163527239E+03  0.17300000000E+03 0. -1.
         -6    1    1    2    0  503 -0.19960233252E+02  0.52612063314E+02 -0.63004834102E+02  0.19252285381E+03  0.17300000000E+03 0. -1.
<mgrwt>
<rscale>  2 0.18192152E+03</rscale>
<asrwt>0</asrwt>
<pdfrwt beam="1">  1       21 0.81316128E-01 0.18192152E+03</pdfrwt>
<pdfrwt beam="2">  1       21 0.22400506E-01 0.18192152E+03</pdfrwt>
<totfact> 0.24882758E+04</totfact>
</mgrwt>
</event>
<event>
 4    3  0.4041078E+000  0.1844085E+03  0.7546771E-02  0.1163603E+00
         21   -1    0    0  503  502  0.00000000000E+00  0.00000000000E+00  0.57263690512E+03  0.57263690512E+03  0.00000000000E+00 0.  1.
         21   -1    0    0  501  503 -0.00000000000E+00 -0.00000000000E+00 -0.63312616812E+02  0.63312616812E+02  0.00000000000E+00 0.  1.
          6    1    1    2  501    0 -0.27624412270E+02  0.57570686410E+02  0.17547244883E+03  0.25455269079E+03  0.17300000000E+03 0.  1.
         -6    1    1    2    0  502  0.27624412270E+02 -0.57570686410E+02  0.33385183947E+03  0.38139683114E+03  0.17300000000E+03 0.  1.
<mgrwt>
<rscale>  2 0.18440849E+03</rscale>
<asrwt>0</asrwt>
<pdfrwt beam="1">  1       21 0.88097982E-01 0.18440849E+03</pdfrwt>
<pdfrwt beam="2">  1       21 0.97404030E-02 0.18440849E+03</pdfrwt>
<totfact> 0.94130896E+04</totfact>
</mgrwt>
</event>
<event>
 4    3  0.4041078E+000  0.1839691E+03  0.7546771E-02  0.1164016E+00
         21   -1    0    0  503  502  0.00000000000E+00  0.00000000000E+00  0.78887628810E+02  0.78887628810E+02  0.00000000000E+00 0. -1.
         21   -1    0    0  501  503 -0.00000000000E+00 -0.00000000000E+00 -0.85466613357E+03  0.85466613357E+03  0.00000000000E+00 0. -1.
          6    1    1    2  501    0 -0.61648454837E+02  0.10727888579E+02 -0.71729701250E+03  0.74051308139E+03  0.17300000000E+03 0. -1.
         -6    1    1    2    0  502  0.61648454837E+02 -0.10727888579E+02 -0.58481492257E+02  0.19304068098E+03  0.17300000000E+03 0. -1.
<mgrwt>
<rscale>  2 0.18396907E+03</rscale>
<asrwt>0</asrwt>
<pdfrwt beam="1">  1       21 0.12136558E-01 0.18396907E+03</pdfrwt>
<pdfrwt beam="2">  1       21 0.13148710E+00 0.18396907E+03</pdfrwt>
<totfact> 0.24283693E+04</totfact>
</mgrwt>
</event>
<event>
 4    3  0.4041078E+000  0.1750586E+03  0.7546771E-02  0.1172673E+00
         21   -1    0    0  503  502  0.00000000000E+00  0.00000000000E+00  0.60006747917E+02  0.60006747917E+02  0.00000000000E+00 0.  1.
         21   -1    0    0  501  503 -0.00000000000E+00 -0.00000000000E+00 -0.18397811021E+04  0.18397811021E+04  0.00000000000E+00 0.  1.
          6    1    1    2  501    0  0.83210567562E+01  0.25441264379E+02 -0.16972479301E+04  0.17062520430E+04  0.17300000000E+03 0.  1.
         -6    1    1    2    0  502 -0.83210567562E+01 -0.25441264379E+02 -0.82526424002E+02  0.19353580696E+03  0.17300000000E+03 0.  1.
<mgrwt>
<rscale>  2 0.17505856E+03</rscale>
<asrwt>0</asrwt>
<pdfrwt beam="1">  1       21 0.92318072E-02 0.17505856E+03</pdfrwt>
<pdfrwt beam="2">  1       21 0.28304325E+00 0.17505856E+03</pdfrwt>
<totfact> 0.40773346E+03</totfact>
</mgrwt>
</event>
<event>
 4    3  0.4041078E+000  0.1958461E+03  0.7546771E-02  0.1153292E+00
         21   -1    0    0  503  502  0.00000000000E+00  0.00000000000E+00  0.19103419633E+03  0.19103419633E+03  0.00000000000E+00 0.  1.
         21   -1    0    0  501  503 -0.00000000000E+00 -0.00000000000E+00 -0.41005250551E+03  0.41005250551E+03  0.00000000000E+00 0.  1.
          6    1    1    2  501    0 -0.66437507794E+02  0.63346431519E+02 -0.32421516362E+03  0.37877590360E+03  0.17300000000E+03 0.  1.
         -6    1    1    2    0  502  0.66437507794E+02 -0.63346431519E+02  0.10519685445E+03  0.22231079824E+03  0.17300000000E+03 0.  1.
<mgrwt>
<rscale>  2 0.19584615E+03</rscale>
<asrwt>0</asrwt>
<pdfrwt beam="1">  1       21 0.29389877E-01 0.19584615E+03</pdfrwt>
<pdfrwt beam="2">  1       21 0.63085000E-01 0.19584615E+03</pdfrwt>
<totfact> 0.25747837E+04</totfact>
</mgrwt>
</event>
<event>
 4    3  0.4041078E+000  0.2088599E+03  0.7546771E-02  0.1142472E+00
         21   -1    0    0  503  502  0.00000000000E+00  0.00000000000E+00  0.74228487119E+02  0.74228487119E+02  0.00000000000E+00 0. -1.
         21   -1    0    0  501  503 -0.00000000000E+00 -0.00000000000E+00 -0.59489246430E+03  0.59489246430E+03  0.00000000000E+00 0. -1.
          6    1    1    2  501    0 -0.10701572463E+03 -0.47340298961E+02 -0.29717449632E+03  0.36322878532E+03  0.17300000000E+03 0. -1.
         -6    1    1    2    0  502  0.10701572463E+03  0.47340298961E+02 -0.22348948086E+03  0.30589216609E+03  0.17300000000E+03 0. -1.
<mgrwt>
<rscale>  2 0.20885993E+03</rscale>
<asrwt>0</asrwt>
<pdfrwt beam="1">  1       21 0.11419767E-01 0.20885993E+03</pdfrwt>
<pdfrwt beam="2">  1       21 0.91521916E-01 0.20885993E+03</pdfrwt>
<totfact> 0.64291501E+04</totfact>
</mgrwt>
</event>
<event>
 4    3  0.4041078E+000  0.1901575E+03  0.7546771E-02  0.1158319E+00
         21   -1    0    0  503  502  0.00000000000E+00  0.00000000000E+00  0.10812284871E+03  0.10812284871E+03  0.00000000000E+00 0.  1.
         21   -1    0    0  501  503 -0.00000000000E+00 -0.00000000000E+00 -0.36353755712E+03  0.36353755712E+03  0.00000000000E+00 0.  1.
          6    1    1    2  501    0 -0.78935800444E+02  0.38937554887E-01 -0.19443477713E+03  0.27196460186E+03  0.17300000000E+03 0.  1.
         -6    1    1    2    0  502  0.78935800444E+02 -0.38937554887E-01 -0.60979931282E+02  0.19969580398E+03  0.17300000000E+03 0.  1.
<mgrwt>
<rscale>  2 0.19015747E+03</rscale>
<asrwt>0</asrwt>
<pdfrwt beam="1">  1       21 0.16634284E-01 0.19015747E+03</pdfrwt>
<pdfrwt beam="2">  1       21 0.55928855E-01 0.19015747E+03</pdfrwt>
<totfact> 0.97843730E+04</totfact>
</mgrwt>
</event>
<event>
 4    3  0.4041078E+000  0.1867117E+03  0.7546771E-02  0.1161461E+00
         21   -1    0    0  501  502  0.00000000000E+00  0.00000000000E+00  0.24081150958E+04  0.24081150958E+04  0.00000000000E+00 0.  1.
         21   -1    0    0  502  503 -0.00000000000E+00 -0.00000000000E+00 -0.14724485253E+02  0.14724485253E+02  0.00000000000E+00 0.  1.
          6    1    1    2  501    0 -0.72209556672E+01  0.69857953438E+02  0.10395086616E+04  0.10561437087E+04  0.17300000000E+03 0.  1.
         -6    1    1    2    0  503  0.72209556672E+01 -0.69857953438E+02  0.13538819489E+04  0.13666958723E+04  0.17300000000E+03 0.  1.
<mgrwt>
<rscale>  2 0.18671175E+03</rscale>
<asrwt>0</asrwt>
<pdfrwt beam="1">  1       21 0.37047893E+00 0.18671175E+03</pdfrwt>
<pdfrwt beam="2">  1       21 0.22653073E-02 0.18671175E+03</pdfrwt>
<totfact> 0.13359841E+04</totfact>
</mgrwt>
</event>
<event>
 4    3  0.4041078E+000  0.1845908E+03  0.7546771E-02  0.1163433E+00
         21   -1    0    0  503  502  0.00000000000E+00  0.00000000000E+00  0.25239600282E+03  0.25239600282E+03  0.00000000000E+00 0. -1.
         21   -1    0    0  501  503 -0.00000000000E+00 -0.00000000000E+00 -0.48317004616E+03  0.48317004616E+03  0.00000000000E+00 0. -1.
          6    1    1    2  501    0 -0.48234085816E+02 -0.42640623694E+02 -0.42758972980E+03  0.46573246274E+03  0.17300000000E+03 0. -1.
         -6    1    1    2    0  502  0.48234085816E+02  0.42640623694E+02  0.19681568646E+03  0.26983358623E+03  0.17300000000E+03 0. -1.
<mgrwt>
<rscale>  2 0.18459076E+03</rscale>
<asrwt>0</asrwt>
<pdfrwt beam="1">  1       21 0.38830155E-01 0.18459076E+03</pdfrwt>
<pdfrwt beam="2">  1       21 0.74333853E-01 0.18459076E+03</pdfrwt>
<totfact> 0.10429357E+04</totfact>
</mgrwt>
</event>
<event>
 4    3  0.4041078E+000  0.1762539E+03  0.7546771E-02  0.1171479E+00
         21   -1    0    0  501  502  0.00000000000E+00  0.00000000000E+00  0.88827565934E+02  0.88827565934E+02  0.00000000000E+00 0. -1.
         21   -1    0    0  502  503 -0.00000000000E+00 -0.00000000000E+00 -0.41325025377E+03  0.41325025377E+03  0.00000000000E+00 0. -1.
          6    1    1    2  501    0  0.68836526591E+01 -0.33001047606E+02 -0.63787867372E+02  0.18744157981E+03  0.17300000000E+03 0.  1.
         -6    1    1    2    0  503 -0.68836526591E+01  0.33001047606E+02 -0.26063482046E+03  0.31463623989E+03  0.17300000000E+03 0.  1.
<mgrwt>
<rscale>  2 0.17625395E+03</rscale>
<asrwt>0</asrwt>
<pdfrwt beam="1">  1       21 0.13665779E-01 0.17625395E+03</pdfrwt>
<pdfrwt beam="2">  1       21 0.63576963E-01 0.17625395E+03</pdfrwt>
<totfact> 0.10688832E+05</totfact>
</mgrwt>
</event>
<event>
 4    3  0.4041078E+000  0.2122511E+03  0.7546771E-02  0.1139796E+00
         21   -1    0    0  503  502  0.00000000000E+00  0.00000000000E+00  0.22630833013E+04  0.22630833013E+04  0.00000000000E+00 0. -1.
         21   -1    0    0  501  503 -0.00000000000E+00 -0.00000000000E+00 -0.35945811029E+02  0.35945811029E+02  0.00000000000E+00 0.  1.
          6    1    1    2  501    0  0.11073781443E+03 -0.53466575156E+02  0.34571170278E+03  0.40566873141E+03  0.17300000000E+03 0.  1.
         -6    1    1    2    0  502 -0.11073781443E+03  0.53466575156E+02  0.18814257875E+04  0.18933603809E+04  0.17300000000E+03 0. -1.
<mgrwt>
<rscale>  2 0.21225112E+03</rscale>
<asrwt>0</asrwt>
<pdfrwt beam="1">  1       21 0.34816655E+00 0.21225112E+03</pdfrwt>
<pdfrwt beam="2">  1       21 0.55301265E-02 0.21225112E+03</pdfrwt>
<totfact> 0.39658904E+03</totfact>
</mgrwt>
</event>
<event>
 4    3  0.4041078E+000  0.1922411E+03  0.7546771E-02  0.1156455E+00
         21   -1    0    0  501  502  0.00000000000E+00  0.00000000000E+00  0.37175214789E+03  0.37175214789E+03  0.00000000000E+00 0. -1.
         21   -1    0    0  502  503 -0.00000000000E+00 -0.00000000000E+00 -0.10371230770E+03  0.10371230770E+03  0.00000000000E+00 0.  1.
          6    1    1    2  501    0 -0.44946624479E+02  0.70763159078E+02  0.18242854929E+03  0.26502226195E+03  0.17300000000E+03 0. -1.
         -6    1    1    2    0  503  0.44946624479E+02 -0.70763159078E+02  0.85611290893E+02  0.21044219364E+03  0.17300000000E+03 0. -1.
<mgrwt>
<rscale>  2 0.19224106E+03</rscale>
<asrwt>0</asrwt>
<pdfrwt beam="1">  1       21 0.57192637E-01 0.19224106E+03</pdfrwt>
<pdfrwt beam="2">  1       21 0.15955740E-01 0.19224106E+03</pdfrwt>
<totfact> 0.10063170E+05</totfact>
</mgrwt>
</event>
<event>
 4    3  0.4041078E+000  0.3693878E+03  0.7546771E-02  0.1054927E+00
         21   -1    0    0  503  502  0.00000000000E+00  0.00000000000E+00  0.51348709891E+03  0.51348709891E+03  0.00000000000E+00 0.  1.
         21   -1    0    0  501  503 -0.00000000000E+00 -0.00000000000E+00 -0.70183184438E+03  0.70183184438E+03  0.00000000000E+00 0. -1.
          6    1    1    2  501    0 -0.27803484906E+03  0.17092391736E+03 -0.57317645552E+03  0.68189340221E+03  0.17300000000E+03 0. -1.
         -6    1    1    2    0  502  0.27803484906E+03 -0.17092391736E+03  0.38483171004E+03  0.53342554108E+03  0.17300000000E+03 0.  1.
<mgrwt>
<rscale>  2 0.36938782E+03</rscale>
<asrwt>0</asrwt>
<pdfrwt beam="1">  1       21 0.78998016E-01 0.36938782E+03</pdfrwt>
<pdfrwt beam="2">  1       21 0.10797413E+00 0.36938782E+03</pdfrwt>
<totfact> 0.84953109E+02</totfact>
</mgrwt>
</event>
<event>
 4    3  0.4041078E+000  0.5126493E+03  0.7546771E-02  0.1010529E+00
         21   -1    0    0  503  502  0.00000000000E+00  0.00000000000E+00  0.55995688517E+03  0.55995688517E+03  0.00000000000E+00 0. -1.
         21   -1    0    0  501  503 -0.00000000000E+00 -0.00000000000E+00 -0.58567482684E+03  0.58567482684E+03  0.00000000000E+00 0.  1.
          6    1    1    2  501    0  0.58500093611E+02  0.47901774479E+03 -0.26815534011E+03  0.57854692740E+03  0.17300000000E+03 0.  1.
         -6    1    1    2    0  502 -0.58500093611E+02 -0.47901774479E+03  0.24243739844E+03  0.56708478461E+03  0.17300000000E+03 0. -1.
<mgrwt>
<rscale>  2 0.51264926E+03</rscale>
<asrwt>0</asrwt>
<pdfrwt beam="1">  1       21 0.86147214E-01 0.51264926E+03</pdfrwt>
<pdfrwt beam="2">  1       21 0.90103819E-01 0.51264926E+03</pdfrwt>
<totfact> 0.10116474E+03</totfact>
</mgrwt>
</event>
<event>
 4    3  0.4041078E+000  0.2121044E+03  0.7546771E-02  0.1139910E+00
         21   -1    0    0  503  502  0.00000000000E+00  0.00000000000E+00  0.26035561418E+03  0.26035561418E+03  0.00000000000E+00 0. -1.
         21   -1    0    0  501  503 -0.00000000000E+00 -0.00000000000E+00 -0.18396223129E+03  0.18396223129E+03  0.00000000000E+00 0. -1.
          6    1    1    2  501    0 -0.93913482032E+02 -0.78990807755E+02  0.92931249564E+02  0.23156965899E+03  0.17300000000E+03 0. -1.
         -6    1    1    2    0  502  0.93913482032E+02  0.78990807755E+02 -0.16537866667E+02  0.21274818648E+03  0.17300000000E+03 0. -1.
<mgrwt>
<rscale>  2 0.21210443E+03</rscale>
<asrwt>0</asrwt>
<pdfrwt beam="1">  1       21 0.40054710E-01 0.21210443E+03</pdfrwt>
<pdfrwt beam="2">  1       21 0.28301882E-01 0.21210443E+03</pdfrwt>
<totfact> 0.71073260E+04</totfact>
</mgrwt>
</event>
<event>
 4    3  0.4041078E+000  0.2158313E+03  0.7546771E-02  0.1137030E+00
         21   -1    0    0  501  502  0.00000000000E+00  0.00000000000E+00  0.23275812913E+03  0.23275812913E+03  0.00000000000E+00 0.  1.
         21   -1    0    0  502  503 -0.00000000000E+00 -0.00000000000E+00 -0.21703804093E+03  0.21703804093E+03  0.00000000000E+00 0.  1.
          6    1    1    2  501    0 -0.12055256066E+03 -0.46056583434E+02  0.70621903392E+02  0.22709157184E+03  0.17300000000E+03 0.  1.
         -6    1    1    2    0  503  0.12055256066E+03  0.46056583434E+02 -0.54901815188E+02  0.22270459823E+03  0.17300000000E+03 0.  1.
<mgrwt>
<rscale>  2 0.21583125E+03</rscale>
<asrwt>0</asrwt>
<pdfrwt beam="1">  1       21 0.35808943E-01 0.21583125E+03</pdfrwt>
<pdfrwt beam="2">  1       21 0.33390468E-01 0.21583125E+03</pdfrwt>
<totfact> 0.64286795E+04</totfact>
</mgrwt>
</event>
<event>
 4    3  0.4041078E+000  0.2066997E+03  0.7546771E-02  0.1144206E+00
         21   -1    0    0  501  502  0.00000000000E+00  0.00000000000E+00  0.84887581089E+02  0.84887581089E+02  0.00000000000E+00 0.  1.
         21   -1    0    0  502  503 -0.00000000000E+00 -0.00000000000E+00 -0.72296611245E+03  0.72296611245E+03  0.00000000000E+00 0.  1.
          6    1    1    2  501    0  0.37427558371E+02 -0.10674707851E+03 -0.96392965289E+02  0.22807096407E+03  0.17300000000E+03 0.  1.
         -6    1    1    2    0  503 -0.37427558371E+02  0.10674707851E+03 -0.54168556608E+03  0.57978272947E+03  0.17300000000E+03 0.  1.
<mgrwt>
<rscale>  2 0.20669969E+03</rscale>
<asrwt>0</asrwt>
<pdfrwt beam="1">  1       21 0.13059628E-01 0.20669969E+03</pdfrwt>
<pdfrwt beam="2">  1       21 0.11122555E+00 0.20669969E+03</pdfrwt>
<totfact> 0.31796623E+04</totfact>
</mgrwt>
</event>
<event>
 4    3  0.4041078E+000  0.2099705E+03  0.7546771E-02  0.1141589E+00
         21   -1    0    0  501  502  0.00000000000E+00  0.00000000000E+00  0.18300596435E+04  0.18300596435E+04  0.00000000000E+00 0. -1.
         21   -1    0    0  502  503 -0.00000000000E+00 -0.00000000000E+00 -0.28047720786E+02  0.28047720786E+02  0.00000000000E+00 0. -1.
          6    1    1    2  501    0  0.66265892726E+02  0.98830429359E+02  0.12499614681E+04  0.12674743761E+04  0.17300000000E+03 0. -1.
         -6    1    1    2    0  503 -0.66265892726E+02 -0.98830429359E+02  0.55205045457E+03  0.59063298816E+03  0.17300000000E+03 0. -1.
<mgrwt>
<rscale>  2 0.20997053E+03</rscale>
<asrwt>0</asrwt>
<pdfrwt beam="1">  1       21 0.28154754E+00 0.20997053E+03</pdfrwt>
<pdfrwt beam="2">  1       21 0.43150354E-02 0.20997053E+03</pdfrwt>
<totfact> 0.14793936E+04</totfact>
</mgrwt>
</event>
<event>
 4    3  0.4041078E+000  0.1777982E+03  0.7546771E-02  0.1169951E+00
         21   -1    0    0  503  502  0.00000000000E+00  0.00000000000E+00  0.47745953400E+03  0.47745953400E+03  0.00000000000E+00 0.  1.
         21   -1    0    0  501  503 -0.00000000000E+00 -0.00000000000E+00 -0.15364698424E+03  0.15364698424E+03  0.00000000000E+00 0. -1.
          6    1    1    2  501    0 -0.10247647611E+00  0.41026791013E+02 -0.76139376001E+02  0.19341513038E+03  0.17300000000E+03 0. -1.
         -6    1    1    2    0  502  0.10247647611E+00 -0.41026791013E+02  0.39995192576E+03  0.43769138786E+03  0.17300000000E+03 0.  1.
<mgrwt>
<rscale>  2 0.17779822E+03</rscale>
<asrwt>0</asrwt>
<pdfrwt beam="1">  1       21 0.73455312E-01 0.17779822E+03</pdfrwt>
<pdfrwt beam="2">  1       21 0.23637998E-01 0.17779822E+03</pdfrwt>
<totfact> 0.28297871E+04</totfact>
</mgrwt>
</event>
<event>
 4    3  0.4041078E+000  0.2274547E+03  0.7546771E-02  0.1128444E+00
         21   -1    0    0  503  502  0.00000000000E+00  0.00000000000E+00  0.11035896311E+04  0.11035896311E+04  0.00000000000E+00 0.  1.
         21   -1    0    0  501  503 -0.00000000000E+00 -0.00000000000E+00 -0.47168936711E+02  0.47168936711E+02  0.00000000000E+00 0.  1.
          6    1    1    2  501    0  0.21256450503E+02 -0.14613277581E+03  0.57328937387E+03  0.61676278345E+03  0.17300000000E+03 0.  1.
         -6    1    1    2    0  502 -0.21256450503E+02  0.14613277581E+03  0.48313132052E+03  0.53399578437E+03  0.17300000000E+03 0.  1.
<mgrwt>
<rscale>  2 0.22745467E+03</rscale>
<asrwt>0</asrwt>
<pdfrwt beam="1">  1       21 0.16978300E+00 0.22745467E+03</pdfrwt>
<pdfrwt beam="2">  1       21 0.72567603E-02 0.22745467E+03</pdfrwt>
<totfact> 0.29775958E+04</totfact>
</mgrwt>
</event>
<event>
 4    3  0.4041078E+000  0.1993268E+03  0.7546771E-02  0.1150308E+00
         21   -1    0    0  501  502  0.00000000000E+00  0.00000000000E+00  0.18474138642E+03  0.18474138642E+03  0.00000000000E+00 0.  1.
         21   -1    0    0  502  503 -0.00000000000E+00 -0.00000000000E+00 -0.21913429679E+03  0.21913429679E+03  0.00000000000E+00 0.  1.
          6    1    1    2  501    0 -0.81449012407E+02  0.56287220173E+02  0.10325790931E+02  0.19959412500E+03  0.17300000000E+03 0.  1.
         -6    1    1    2    0  503  0.81449012407E+02 -0.56287220173E+02 -0.44718701298E+02  0.20428155820E+03  0.17300000000E+03 0.  1.
<mgrwt>
<rscale>  2 0.19932685E+03</rscale>
<asrwt>0</asrwt>
<pdfrwt beam="1">  1       21 0.28421752E-01 0.19932685E+03</pdfrwt>
<pdfrwt beam="2">  1       21 0.33712969E-01 0.19932685E+03</pdfrwt>
<totfact> 0.10004734E+05</totfact>
</mgrwt>
</event>
<event>
 4    3  0.4041078E+000  0.1889649E+03  0.7546771E-02  0.1159398E+00
         21   -1    0    0  503  502  0.00000000000E+00  0.00000000000E+00  0.11170390402E+04  0.11170390402E+04  0.00000000000E+00 0. -1.
         21   -1    0    0  501  503 -0.00000000000E+00 -0.00000000000E+00 -0.10496917573E+03  0.10496917573E+03  0.00000000000E+00 0. -1.
          6    1    1    2  501    0  0.75779648689E+02 -0.60148660184E+01 -0.35104593057E+01  0.18899750552E+03  0.17300000000E+03 0. -1.
         -6    1    1    2    0  502 -0.75779648689E+02  0.60148660184E+01  0.10155803238E+04  0.10330107104E+04  0.17300000000E+03 0. -1.
<mgrwt>
<rscale>  2 0.18896490E+03</rscale>
<asrwt>0</asrwt>
<pdfrwt beam="1">  1       21 0.17185215E+00 0.18896490E+03</pdfrwt>
<pdfrwt beam="2">  1       21 0.16149105E-01 0.18896490E+03</pdfrwt>
<totfact> 0.71215800E+03</totfact>
</mgrwt>
</event>
<event>
 4    3  0.4041078E+000  0.1949826E+03  0.7546771E-02  0.1154043E+00
         21   -1    0    0  501  502  0.00000000000E+00  0.00000000000E+00  0.78073269601E+02  0.78073269601E+02  0.00000000000E+00 0.  1.
         21   -1    0    0  502  503 -0.00000000000E+00 -0.00000000000E+00 -0.49894896753E+03  0.49894896753E+03  0.00000000000E+00 0. -1.
          6    1    1    2  501    0  0.13918876857E+01  0.89929194221E+02 -0.25516892607E+03  0.32113763117E+03  0.17300000000E+03 0. -1.
         -6    1    1    2    0  503 -0.13918876857E+01 -0.89929194221E+02 -0.16570677186E+03  0.25588460595E+03  0.17300000000E+03 0. -1.
<mgrwt>
<rscale>  2 0.19498256E+03</rscale>
<asrwt>0</asrwt>
<pdfrwt beam="1">  1       21 0.12011272E-01 0.19498256E+03</pdfrwt>
<pdfrwt beam="2">  1       21 0.76761380E-01 0.19498256E+03</pdfrwt>
<totfact> 0.88343932E+04</totfact>
</mgrwt>
</event>
<event>
 4    3  0.4041078E+000  0.2264483E+03  0.7546771E-02  0.1129165E+00
         21   -1    0    0  503  502  0.00000000000E+00  0.00000000000E+00  0.12421706793E+03  0.12421706793E+03  0.00000000000E+00 0. -1.
         21   -1    0    0  501  503 -0.00000000000E+00 -0.00000000000E+00 -0.59167731557E+03  0.59167731557E+03  0.00000000000E+00 0. -1.
          6    1    1    2  501    0 -0.81072125606E+01  0.14589072852E+03 -0.43053431118E+03  0.48645516203E+03  0.17300000000E+03 0. -1.
         -6    1    1    2    0  502  0.81072125606E+01 -0.14589072852E+03 -0.36925936469E+02  0.22943922147E+03  0.17300000000E+03 0. -1.
<mgrwt>
<rscale>  2 0.22644830E+03</rscale>
<asrwt>0</asrwt>
<pdfrwt beam="1">  1       21 0.19110318E-01 0.22644830E+03</pdfrwt>
<pdfrwt beam="2">  1       21 0.91027281E-01 0.22644830E+03</pdfrwt>
<totfact> 0.25228265E+04</totfact>
</mgrwt>
</event>
<event>
 4    3  0.4041078E+000  0.3012992E+03  0.7546771E-02  0.1084593E+00
         21   -1    0    0  503  502  0.00000000000E+00  0.00000000000E+00  0.22665829823E+03  0.22665829823E+03  0.00000000000E+00 0.  1.
         21   -1    0    0  501  503 -0.00000000000E+00 -0.00000000000E+00 -0.83683311522E+03  0.83683311522E+03  0.00000000000E+00 0.  1.
          6    1    1    2  501    0 -0.46216248816E+02 -0.24231440555E+03 -0.68904532698E+03  0.75204034162E+03  0.17300000000E+03 0.  1.
         -6    1    1    2    0  502  0.46216248816E+02  0.24231440555E+03  0.78870510001E+02  0.31145107182E+03  0.17300000000E+03 0.  1.
<mgrwt>
<rscale>  2 0.30129921E+03</rscale>
<asrwt>0</asrwt>
<pdfrwt beam="1">  1       21 0.34870508E-01 0.30129921E+03</pdfrwt>
<pdfrwt beam="2">  1       21 0.12874356E+00 0.30129921E+03</pdfrwt>
<totfact> 0.32535921E+03</totfact>
</mgrwt>
</event>
<event>
 4    3  0.4041078E+000  0.2095693E+03  0.7546771E-02  0.1141908E+00
         21   -1    0    0  501  502  0.00000000000E+00  0.00000000000E+00  0.34492451185E+03  0.34492451185E+03  0.00000000000E+00 0. -1.
         21   -1    0    0  502  503 -0.00000000000E+00 -0.00000000000E+00 -0.26747667428E+03  0.26747667428E+03  0.00000000000E+00 0.  1.
          6    1    1    2  501    0  0.39860172817E+02 -0.11136181026E+03 -0.18291919991E+03  0.27817030729E+03  0.17300000000E+03 0.  1.
         -6    1    1    2    0  503 -0.39860172817E+02  0.11136181026E+03  0.26036703748E+03  0.33423087883E+03  0.17300000000E+03 0. -1.
<mgrwt>
<rscale>  2 0.20956929E+03</rscale>
<asrwt>0</asrwt>
<pdfrwt beam="1">  1       21 0.53065309E-01 0.20956929E+03</pdfrwt>
<pdfrwt beam="2">  1       21 0.41150258E-01 0.20956929E+03</pdfrwt>
<totfact> 0.18938861E+04</totfact>
</mgrwt>
</event>
<event>
 4    3  0.4041078E+000  0.2185588E+03  0.7546771E-02  0.1134962E+00
         21   -1    0    0  503  502  0.00000000000E+00  0.00000000000E+00  0.15580176660E+03  0.15580176660E+03  0.00000000000E+00 0.  1.
         21   -1    0    0  501  503 -0.00000000000E+00 -0.00000000000E+00 -0.32842799987E+03  0.32842799987E+03  0.00000000000E+00 0. -1.
          6    1    1    2  501    0 -0.12871996600E+03  0.35639030646E+02 -0.14873871763E+03  0.26436939360E+03  0.17300000000E+03 0.  1.
         -6    1    1    2    0  502  0.12871996600E+03 -0.35639030646E+02 -0.23887515643E+02  0.21986037286E+03  0.17300000000E+03 0.  1.
<mgrwt>
<rscale>  2 0.21855885E+03</rscale>
<asrwt>0</asrwt>
<pdfrwt beam="1">  1       21 0.23969502E-01 0.21855885E+03</pdfrwt>
<pdfrwt beam="2">  1       21 0.50527385E-01 0.21855885E+03</pdfrwt>
<totfact> 0.60464792E+04</totfact>
</mgrwt>
</event>
<event>
 4    3  0.4041078E+000  0.2972542E+03  0.7546771E-02  0.1086621E+00
         21   -1    0    0  501  502  0.00000000000E+00  0.00000000000E+00  0.22641725444E+03  0.22641725444E+03  0.00000000000E+00 0. -1.
         21   -1    0    0  502  503 -0.00000000000E+00 -0.00000000000E+00 -0.54347612763E+03  0.54347612763E+03  0.00000000000E+00 0.  1.
          6    1    1    2  501    0 -0.10474766163E+03  0.21785081686E+03  0.45866509022E+02  0.30077198619E+03  0.17300000000E+03 0. -1.
         -6    1    1    2    0  503  0.10474766163E+03 -0.21785081686E+03 -0.36292538221E+03  0.46912139588E+03  0.17300000000E+03 0.  1.
<mgrwt>
<rscale>  2 0.29725419E+03</rscale>
<asrwt>0</asrwt>
<pdfrwt beam="1">  1       21 0.34833424E-01 0.29725419E+03</pdfrwt>
<pdfrwt beam="2">  1       21 0.83611711E-01 0.29725419E+03</pdfrwt>
<totfact> 0.93041164E+03</totfact>
</mgrwt>
</event>
<event>
 4    3  0.4041078E+000  0.2224315E+03  0.7546771E-02  0.1132083E+00
         21   -1    0    0  503  502  0.00000000000E+00  0.00000000000E+00  0.35576406289E+03  0.35576406289E+03  0.00000000000E+00 0. -1.
         21   -1    0    0  501  503 -0.00000000000E+00 -0.00000000000E+00 -0.34734114042E+03  0.34734114042E+03  0.00000000000E+00 0. -1.
          6    1    1    2  501    0  0.11200782423E+03 -0.83672127985E+02 -0.26801335892E+03  0.34829145590E+03  0.17300000000E+03 0. -1.
         -6    1    1    2    0  502 -0.11200782423E+03  0.83672127985E+02  0.27643628138E+03  0.35481374742E+03  0.17300000000E+03 0. -1.
<mgrwt>
<rscale>  2 0.22243151E+03</rscale>
<asrwt>0</asrwt>
<pdfrwt beam="1">  1       21 0.54732933E-01 0.22243151E+03</pdfrwt>
<pdfrwt beam="2">  1       21 0.53437098E-01 0.22243151E+03</pdfrwt>
<totfact> 0.10243452E+04</totfact>
</mgrwt>
</event>
<event>
 4    3  0.4041078E+000  0.2264361E+03  0.7546771E-02  0.1129174E+00
         21   -1    0    0  501  502  0.00000000000E+00  0.00000000000E+00  0.41695043653E+03  0.41695043653E+03  0.00000000000E+00 0.  1.
         21   -1    0    0  502  503 -0.00000000000E+00 -0.00000000000E+00 -0.19296091195E+03  0.19296091195E+03  0.00000000000E+00 0.  1.
          6    1    1    2  501    0 -0.36476036330E+02 -0.14147017379E+03  0.29565538662E+03  0.37240491261E+03  0.17300000000E+03 0.  1.
         -6    1    1    2    0  503  0.36476036330E+02  0.14147017379E+03 -0.71665862045E+02  0.23750643587E+03  0.17300000000E+03 0.  1.
<mgrwt>
<rscale>  2 0.22643611E+03</rscale>
<asrwt>0</asrwt>
<pdfrwt beam="1">  1       21 0.64146220E-01 0.22643611E+03</pdfrwt>
<pdfrwt beam="2">  1       21 0.29686294E-01 0.22643611E+03</pdfrwt>
<totfact> 0.23942763E+04</totfact>
</mgrwt>
</event>
<event>
 4    3  0.4041078E+000  0.2124563E+03  0.7546771E-02  0.1139636E+00
         21   -1    0    0  501  502  0.00000000000E+00  0.00000000000E+00  0.70660848838E+03  0.70660848838E+03  0.00000000000E+00 0. -1.
         21   -1    0    0  502  503 -0.00000000000E+00 -0.00000000000E+00 -0.19977900450E+03  0.19977900450E+03  0.00000000000E+00 0.  1.
          6    1    1    2  501    0 -0.10463945385E+03  0.65262984484E+02  0.62719658767E+03  0.66220331624E+03  0.17300000000E+03 0. -1.
         -6    1    1    2    0  503  0.10463945385E+03 -0.65262984484E+02 -0.12036710380E+03  0.24418417664E+03  0.17300000000E+03 0.  1.
<mgrwt>
<rscale>  2 0.21245628E+03</rscale>
<asrwt>0</asrwt>
<pdfrwt beam="1">  1       21 0.10870900E+00 0.21245628E+03</pdfrwt>
<pdfrwt beam="2">  1       21 0.30735232E-01 0.21245628E+03</pdfrwt>
<totfact> 0.67303623E+03</totfact>
</mgrwt>
</event>
<event>
 4    3  0.4041078E+000  0.1837013E+03  0.7546771E-02  0.1164268E+00
         21   -1    0    0  503  502  0.00000000000E+00  0.00000000000E+00  0.21991017994E+03  0.21991017994E+03  0.00000000000E+00 0. -1.
         21   -1    0    0  501  503 -0.00000000000E+00 -0.00000000000E+00 -0.38192971359E+03  0.38192971359E+03  0.00000000000E+00 0. -1.
          6    1    1    2  501    0 -0.55270031347E+02 -0.27611360723E+02 -0.31375402999E+03  0.36357633991E+03  0.17300000000E+03 0. -1.
         -6    1    1    2    0  502  0.55270031347E+02  0.27611360723E+02  0.15173449633E+03  0.23826355362E+03  0.17300000000E+03 0. -1.
<mgrwt>
<rscale>  2 0.18370129E+03</rscale>
<asrwt>0</asrwt>
<pdfrwt beam="1">  1       21 0.33832335E-01 0.18370129E+03</pdfrwt>
<pdfrwt beam="2">  1       21 0.58758418E-01 0.18370129E+03</pdfrwt>
<totfact> 0.22926262E+04</totfact>
</mgrwt>
</event>
<event>
 4    3  0.4041078E+000  0.2647827E+03  0.7546771E-02  0.1104303E+00
         21   -1    0    0  503  502  0.00000000000E+00  0.00000000000E+00  0.32212103263E+03  0.32212103263E+03  0.00000000000E+00 0. -1.
         21   -1    0    0  501  503 -0.00000000000E+00 -0.00000000000E+00 -0.24344120925E+03  0.24344120925E+03  0.00000000000E+00 0.  1.
          6    1    1    2  501    0  0.79470008601E+01 -0.20029403016E+03 -0.52701593375E+02  0.26997650135E+03  0.17300000000E+03 0.  1.
         -6    1    1    2    0  502 -0.79470008601E+01  0.20029403016E+03  0.13138141675E+03  0.29558574054E+03  0.17300000000E+03 0. -1.
<mgrwt>
<rscale>  2 0.26478265E+03</rscale>
<asrwt>0</asrwt>
<pdfrwt beam="1">  1       21 0.49557082E-01 0.26478265E+03</pdfrwt>
<pdfrwt beam="2">  1       21 0.37452494E-01 0.26478265E+03</pdfrwt>
<totfact> 0.25741689E+04</totfact>
</mgrwt>
</event>
<event>
 4    3  0.4041078E+000  0.1751591E+03  0.7546771E-02  0.1172572E+00
         21   -1    0    0  503  502  0.00000000000E+00  0.00000000000E+00  0.96126056347E+02  0.96126056347E+02  0.00000000000E+00 0. -1.
         21   -1    0    0  501  503 -0.00000000000E+00 -0.00000000000E+00 -0.32247849527E+03  0.32247849527E+03  0.00000000000E+00 0. -1.
          6    1    1    2  501    0 -0.26999818064E+02 -0.47659923948E+01 -0.13437131581E+03  0.22076312049E+03  0.17300000000E+03 0.  1.
         -6    1    1    2    0  502  0.26999818064E+02  0.47659923948E+01 -0.91981123118E+02  0.19784143112E+03  0.17300000000E+03 0.  1.
<mgrwt>
<rscale>  2 0.17515908E+03</rscale>
<asrwt>0</asrwt>
<pdfrwt beam="1">  1       21 0.14788624E-01 0.17515908E+03</pdfrwt>
<pdfrwt beam="2">  1       21 0.49612076E-01 0.17515908E+03</pdfrwt>
<totfact> 0.15677947E+05</totfact>
</mgrwt>
</event>
<event>
 4    3  0.4041078E+000  0.2015004E+03  0.7546771E-02  0.1148479E+00
         21   -1    0    0  501  502  0.00000000000E+00  0.00000000000E+00  0.65985472462E+03  0.65985472462E+03  0.00000000000E+00 0.  1.
         21   -1    0    0  502  503 -0.00000000000E+00 -0.00000000000E+00 -0.68301211497E+02  0.68301211497E+02  0.00000000000E+00 0.  1.
          6    1    1    2  501    0 -0.38316454915E+02  0.95944003355E+02  0.18116254679E+03  0.27096544218E+03  0.17300000000E+03 0.  1.
         -6    1    1    2    0  503  0.38316454915E+02 -0.95944003355E+02  0.41039096634E+03  0.45719049394E+03  0.17300000000E+03 0.  1.
<mgrwt>
<rscale>  2 0.20150038E+03</rscale>
<asrwt>0</asrwt>
<pdfrwt beam="1">  1       21 0.10151611E+00 0.20150038E+03</pdfrwt>
<pdfrwt beam="2">  1       21 0.10507879E-01 0.20150038E+03</pdfrwt>
<totfact> 0.58619706E+04</totfact>
</mgrwt>
</event>
<event>
 4    3  0.4041078E+000  0.1920704E+03  0.7546771E-02  0.1156607E+00
         21   -1    0    0  503  502  0.00000000000E+00  0.00000000000E+00  0.70617806152E+03  0.70617806152E+03  0.00000000000E+00 0. -1.
         21   -1    0    0  501  503 -0.00000000000E+00 -0.00000000000E+00 -0.53034591184E+02  0.53034591184E+02  0.00000000000E+00 0. -1.
          6    1    1    2  501    0 -0.22199839186E+02 -0.80431429662E+02  0.37302404626E+03  0.41956881059E+03  0.17300000000E+03 0. -1.
         -6    1    1    2    0  502  0.22199839186E+02  0.80431429662E+02  0.28011942408E+03  0.33964384211E+03  0.17300000000E+03 0. -1.
<mgrwt>
<rscale>  2 0.19207042E+03</rscale>
<asrwt>0</asrwt>
<pdfrwt beam="1">  1       21 0.10864277E+00 0.19207042E+03</pdfrwt>
<pdfrwt beam="2">  1       21 0.81591684E-02 0.19207042E+03</pdfrwt>
<totfact> 0.78061605E+04</totfact>
</mgrwt>
</event>
<event>
 4    3  0.4041078E+000  0.1805869E+03  0.7546771E-02  0.1167236E+00
         21   -1    0    0  501  502  0.00000000000E+00  0.00000000000E+00  0.75144737448E+03  0.75144737448E+03  0.00000000000E+00 0.  1.
         21   -1    0    0  502  503 -0.00000000000E+00 -0.00000000000E+00 -0.51143289551E+02  0.51143289551E+02  0.00000000000E+00 0.  1.
          6    1    1    2  501    0 -0.73043288803E+01 -0.51276450459E+02  0.50631458671E+03  0.53755566066E+03  0.17300000000E+03 0.  1.
         -6    1    1    2    0  503  0.73043288803E+01  0.51276450459E+02  0.19398949822E+03  0.26503500337E+03  0.17300000000E+03 0.  1.
<mgrwt>
<rscale>  2 0.18058690E+03</rscale>
<asrwt>0</asrwt>
<pdfrwt beam="1">  1       21 0.11560728E+00 0.18058690E+03</pdfrwt>
<pdfrwt beam="2">  1       21 0.78681989E-02 0.18058690E+03</pdfrwt>
<totfact> 0.71896695E+04</totfact>
</mgrwt>
</event>
<event>
 4    3  0.4041078E+000  0.2901900E+03  0.7546771E-02  0.1090250E+00
         21   -1    0    0  503  502  0.00000000000E+00  0.00000000000E+00  0.97579793308E+03  0.97579793308E+03  0.00000000000E+00 0. -1.
         21   -1    0    0  501  503 -0.00000000000E+00 -0.00000000000E+00 -0.88058747582E+02  0.88058747582E+02  0.00000000000E+00 0. -1.
          6    1    1    2  501    0 -0.11358965151E+03  0.20341743257E+03  0.36867131821E+03  0.46917885894E+03  0.17300000000E+03 0. -1.
         -6    1    1    2    0  502  0.11358965151E+03 -0.20341743257E+03  0.51906786728E+03  0.59467782172E+03  0.17300000000E+03 0. -1.
<mgrwt>
<rscale>  2 0.29019004E+03</rscale>
<asrwt>0</asrwt>
<pdfrwt beam="1">  1       21 0.15012275E+00 0.29019004E+03</pdfrwt>
<pdfrwt beam="2">  1       21 0.13547500E-01 0.29019004E+03</pdfrwt>
<totfact> 0.13270553E+04</totfact>
</mgrwt>
</event>
<event>
 4    3  0.4041078E+000  0.2100398E+03  0.7546771E-02  0.1141534E+00
         21   -1    0    0  501  502  0.00000000000E+00  0.00000000000E+00  0.85267966716E+02  0.85267966716E+02  0.00000000000E+00 0. -1.
         21   -1    0    0  502  503 -0.00000000000E+00 -0.00000000000E+00 -0.51739548937E+03  0.51739548937E+03  0.00000000000E+00 0. -1.
          6    1    1    2  501    0 -0.95506528105E+02  0.71177441953E+02 -0.21711429335E+03  0.30208499057E+03  0.17300000000E+03 0. -1.
         -6    1    1    2    0  503  0.95506528105E+02 -0.71177441953E+02 -0.21501322930E+03  0.30057846551E+03  0.17300000000E+03 0. -1.
<mgrwt>
<rscale>  2 0.21003982E+03</rscale>
<asrwt>0</asrwt>
<pdfrwt beam="1">  1       21 0.13118149E-01 0.21003982E+03</pdfrwt>
<pdfrwt beam="2">  1       21 0.79599305E-01 0.21003982E+03</pdfrwt>
<totfact> 0.69014353E+04</totfact>
</mgrwt>
</event>
<event>
 4    3  0.4041078E+000  0.1744119E+03  0.7546771E-02  0.1173324E+00
         21   -1    0    0  503  502  0.00000000000E+00  0.00000000000E+00  0.12658206718E+03  0.12658206718E+03  0.00000000000E+00 0. -1.
         21   -1    0    0  501  503 -0.00000000000E+00 -0.00000000000E+00 -0.24525192298E+03  0.24525192298E+03  0.00000000000E+00 0. -1.
          6    1    1    2  501    0  0.18929623545E+01  0.22066114848E+02 -0.85714414056E+02  0.19433593983E+03  0.17300000000E+03 0.  1.
         -6    1    1    2    0  502 -0.18929623545E+01 -0.22066114848E+02 -0.32955441745E+02  0.17749805033E+03  0.17300000000E+03 0.  1.
<mgrwt>
<rscale>  2 0.17441186E+03</rscale>
<asrwt>0</asrwt>
<pdfrwt beam="1">  1       21 0.19474164E-01 0.17441186E+03</pdfrwt>
<pdfrwt beam="2">  1       21 0.37731064E-01 0.17441186E+03</pdfrwt>
<totfact> 0.16528030E+05</totfact>
</mgrwt>
</event>
<event>
 4    3  0.4041078E+000  0.2633440E+03  0.7546771E-02  0.1105151E+00
         21   -1    0    0  503  502  0.00000000000E+00  0.00000000000E+00  0.18863624087E+04  0.18863624087E+04  0.00000000000E+00 0. -1.
         21   -1    0    0  501  503 -0.00000000000E+00 -0.00000000000E+00 -0.49038136096E+02  0.49038136096E+02  0.00000000000E+00 0.  1.
          6    1    1    2  501    0  0.14409372908E+03 -0.13659460328E+03  0.43452247879E+03  0.50809435441E+03  0.17300000000E+03 0. -1.
         -6    1    1    2    0  502 -0.14409372908E+03  0.13659460328E+03  0.14028017938E+04  0.14273061904E+04  0.17300000000E+03 0. -1.
<mgrwt>
<rscale>  2 0.26334405E+03</rscale>
<asrwt>0</asrwt>
<pdfrwt beam="1">  1       21 0.29020955E+00 0.26334405E+03</pdfrwt>
<pdfrwt beam="2">  1       21 0.75443301E-02 0.26334405E+03</pdfrwt>
<totfact> 0.48195615E+03</totfact>
</mgrwt>
</event>
<event>
 4    3  0.4041078E+000  0.2224003E+03  0.7546771E-02  0.1132106E+00
         21   -1    0    0  501  502  0.00000000000E+00  0.00000000000E+00  0.52979952806E+03  0.52979952806E+03  0.00000000000E+00 0.  1.
         21   -1    0    0  502  503 -0.00000000000E+00 -0.00000000000E+00 -0.10657817595E+03  0.10657817595E+03  0.00000000000E+00 0. -1.
          6    1    1    2  501    0  0.13619164081E+03 -0.31380561254E+02  0.32366850493E+03  0.39271262233E+03  0.17300000000E+03 0.  1.
         -6    1    1    2    0  503 -0.13619164081E+03  0.31380561254E+02  0.99552847171E+02  0.24366508168E+03  0.17300000000E+03 0. -1.
<mgrwt>
<rscale>  2 0.22240032E+03</rscale>
<asrwt>0</asrwt>
<pdfrwt beam="1">  1       21 0.81507618E-01 0.22240032E+03</pdfrwt>
<pdfrwt beam="2">  1       21 0.16396643E-01 0.22240032E+03</pdfrwt>
<totfact> 0.43305069E+04</totfact>
</mgrwt>
</event>
<event>
 4    3  0.4041078E+000  0.2006894E+03  0.7546771E-02  0.1149159E+00
         21   -1    0    0  503  502  0.00000000000E+00  0.00000000000E+00  0.22552004785E+04  0.22552004785E+04  0.00000000000E+00 0. -1.
         21   -1    0    0  501  503 -0.00000000000E+00 -0.00000000000E+00 -0.19656246280E+02  0.19656246280E+02  0.00000000000E+00 0.  1.
          6    1    1    2  501    0 -0.10071011814E+03 -0.14307011433E+02  0.77386134444E+03  0.79946081761E+03  0.17300000000E+03 0.  1.
         -6    1    1    2    0  502  0.10071011814E+03  0.14307011433E+02  0.14616828878E+04  0.14753959072E+04  0.17300000000E+03 0. -1.
<mgrwt>
<rscale>  2 0.20068936E+03</rscale>
<asrwt>0</asrwt>
<pdfrwt beam="1">  1       21 0.34695371E+00 0.20068936E+03</pdfrwt>
<pdfrwt beam="2">  1       21 0.30240397E-02 0.20068936E+03</pdfrwt>
<totfact> 0.11275667E+04</totfact>
</mgrwt>
</event>
<event>
 4    3  0.4041078E+000  0.2129609E+03  0.7546771E-02  0.1139242E+00
         21   -1    0    0  503  502  0.00000000000E+00  0.00000000000E+00  0.77764560767E+03  0.77764560767E+03  0.00000000000E+00 0. -1.
         21   -1    0    0  501  503 -0.00000000000E+00 -0.00000000000E+00 -0.18939386344E+03  0.18939386344E+03  0.00000000000E+00 0.  1.
          6    1    1    2  501    0  0.90460141346E+02  0.85090073357E+02 -0.10811774684E+03  0.23883426249E+03  0.17300000000E+03 0.  1.
         -6    1    1    2    0  502 -0.90460141346E+02 -0.85090073357E+02  0.69636949108E+03  0.72820520862E+03  0.17300000000E+03 0. -1.
<mgrwt>
<rscale>  2 0.21296093E+03</rscale>
<asrwt>0</asrwt>
<pdfrwt beam="1">  1       21 0.11963778E+00 0.21296093E+03</pdfrwt>
<pdfrwt beam="2">  1       21 0.29137518E-01 0.21296093E+03</pdfrwt>
<totfact> 0.59079291E+03</totfact>
</mgrwt>
</event>
<event>
 4    3  0.4041078E+000  0.1815653E+03  0.7546771E-02  0.1166297E+00
         21   -1    0    0  501  502  0.00000000000E+00  0.00000000000E+00  0.35262551747E+02  0.35262551747E+02  0.00000000000E+00 0.  1.
         21   -1    0    0  502  503 -0.00000000000E+00 -0.00000000000E+00 -0.10236101203E+04  0.10236101203E+04  0.00000000000E+00 0.  1.
          6    1    1    2  501    0 -0.16971624674E+02  0.52430122769E+02 -0.33828931371E+03  0.38393438709E+03  0.17300000000E+03 0.  1.
         -6    1    1    2    0  503  0.16971624674E+02 -0.52430122769E+02 -0.65005825486E+03  0.67493828498E+03  0.17300000000E+03 0.  1.
<mgrwt>
<rscale>  2 0.18156529E+03</rscale>
<asrwt>0</asrwt>
<pdfrwt beam="1">  1       21 0.54250083E-02 0.18156529E+03</pdfrwt>
<pdfrwt beam="2">  1       21 0.15747847E+00 0.18156529E+03</pdfrwt>
<totfact> 0.61888639E+04</totfact>
</mgrwt>
</event>
<event>
 4    3  0.4041078E+000  0.2497348E+03  0.7546771E-02  0.1113473E+00
         21   -1    0    0  501  502  0.00000000000E+00  0.00000000000E+00  0.34635818879E+03  0.34635818879E+03  0.00000000000E+00 0.  1.
         21   -1    0    0  502  503 -0.00000000000E+00 -0.00000000000E+00 -0.24179635123E+03  0.24179635123E+03  0.00000000000E+00 0.  1.
          6    1    1    2  501    0 -0.94803951962E+02 -0.15313615880E+03  0.20086919715E+03  0.32049322427E+03  0.17300000000E+03 0.  1.
         -6    1    1    2    0  503  0.94803951962E+02  0.15313615880E+03 -0.96307359582E+02  0.26766131575E+03  0.17300000000E+03 0.  1.
<mgrwt>
<rscale>  2 0.24973480E+03</rscale>
<asrwt>0</asrwt>
<pdfrwt beam="1">  1       21 0.53285875E-01 0.24973480E+03</pdfrwt>
<pdfrwt beam="2">  1       21 0.37199439E-01 0.24973480E+03</pdfrwt>
<totfact> 0.22546005E+04</totfact>
</mgrwt>
</event>
<event>
 4    3  0.4041078E+000  0.1944013E+03  0.7546771E-02  0.1154551E+00
         21   -1    0    0  501  502  0.00000000000E+00  0.00000000000E+00  0.18653269705E+04  0.18653269705E+04  0.00000000000E+00 0. -1.
         21   -1    0    0  502  503 -0.00000000000E+00 -0.00000000000E+00 -0.20465910873E+02  0.20465910873E+02  0.00000000000E+00 0.  1.
          6    1    1    2  501    0  0.12157491814E+02 -0.87835366338E+02  0.82789382689E+03  0.85041169135E+03  0.17300000000E+03 0.  1.
         -6    1    1    2    0  503 -0.12157491814E+02  0.87835366338E+02  0.10169672327E+04  0.10353811900E+04  0.17300000000E+03 0.  1.
<mgrwt>
<rscale>  2 0.19440128E+03</rscale>
<asrwt>0</asrwt>
<pdfrwt beam="1">  1       21 0.28697325E+00 0.19440128E+03</pdfrwt>
<pdfrwt beam="2">  1       21 0.31486031E-02 0.19440128E+03</pdfrwt>
<totfact> 0.23653879E+04</totfact>
</mgrwt>
</event>
<event>
 4    3  0.4041078E+000  0.2018510E+03  0.7546771E-02  0.1148187E+00
         21   -1    0    0  503  502  0.00000000000E+00  0.00000000000E+00  0.13001856696E+04  0.13001856696E+04  0.00000000000E+00 0. -1.
         21   -1    0    0  501  503 -0.00000000000E+00 -0.00000000000E+00 -0.67065060059E+02  0.67065060059E+02  0.00000000000E+00 0. -1.
          6    1    1    2  501    0 -0.10078364340E+03  0.25641278127E+02  0.11758942984E+03  0.23360456316E+03  0.17300000000E+03 0. -1.
         -6    1    1    2    0  502  0.10078364340E+03 -0.25641278127E+02  0.11155311797E+04  0.11336461665E+04  0.17300000000E+03 0. -1.
<mgrwt>
<rscale>  2 0.20185098E+03</rscale>
<asrwt>0</asrwt>
<pdfrwt beam="1">  1       21 0.20002855E+00 0.20185098E+03</pdfrwt>
<pdfrwt beam="2">  1       21 0.10317703E-01 0.20185098E+03</pdfrwt>
<totfact> 0.10225780E+04</totfact>
</mgrwt>
</event>
<event>
 4    3  0.4041078E+000  0.1852728E+03  0.7546771E-02  0.1162795E+00
         21   -1    0    0  501  502  0.00000000000E+00  0.00000000000E+00  0.47273459359E+03  0.47273459359E+03  0.00000000000E+00 0. -1.
         21   -1    0    0  502  503 -0.00000000000E+00 -0.00000000000E+00 -0.25284160724E+03  0.25284160724E+03  0.00000000000E+00 0. -1.
          6    1    1    2  501    0 -0.56362780290E+02  0.34932004192E+02  0.41624320256E+03  0.45561432330E+03  0.17300000000E+03 0. -1.
         -6    1    1    2    0  503  0.56362780290E+02 -0.34932004192E+02 -0.19635021620E+03  0.26996187753E+03  0.17300000000E+03 0. -1.
<mgrwt>
<rscale>  2 0.18527279E+03</rscale>
<asrwt>0</asrwt>
<pdfrwt beam="1">  1       21 0.72728399E-01 0.18527279E+03</pdfrwt>
<pdfrwt beam="2">  1       21 0.38898709E-01 0.18527279E+03</pdfrwt>
<totfact> 0.10903992E+04</totfact>
</mgrwt>
</event>
<event>
 4    3  0.4041078E+000  0.1756591E+03  0.7546771E-02  0.1172072E+00
         21   -1    0    0  503  502  0.00000000000E+00  0.00000000000E+00  0.16486052881E+03  0.16486052881E+03  0.00000000000E+00 0. -1.
         21   -1    0    0  501  503 -0.00000000000E+00 -0.00000000000E+00 -0.20257045067E+03  0.20257045067E+03  0.00000000000E+00 0. -1.
          6    1    1    2  501    0  0.27995780375E+02  0.11972433208E+02 -0.69518610417E+02  0.18891516633E+03  0.17300000000E+03 0. -1.
         -6    1    1    2    0  502 -0.27995780375E+02 -0.11972433208E+02  0.31808688563E+02  0.17851581315E+03  0.17300000000E+03 0. -1.
<mgrwt>
<rscale>  2 0.17565905E+03</rscale>
<asrwt>0</asrwt>
<pdfrwt beam="1">  1       21 0.25363158E-01 0.17565905E+03</pdfrwt>
<pdfrwt beam="2">  1       21 0.31164685E-01 0.17565905E+03</pdfrwt>
<totfact> 0.14657314E+05</totfact>
</mgrwt>
</event>
<event>
 4    3  0.4041078E+000  0.2423616E+03  0.7546771E-02  0.1118230E+00
         21   -1    0    0  503  502  0.00000000000E+00  0.00000000000E+00  0.46552336671E+03  0.46552336671E+03  0.00000000000E+00 0.  1.
         21   -1    0    0  501  503 -0.00000000000E+00 -0.00000000000E+00 -0.28383727899E+03  0.28383727899E+03  0.00000000000E+00 0. -1.
          6    1    1    2  501    0  0.15289041457E+03 -0.73720143100E+02 -0.18840166775E+03  0.30697610131E+03  0.17300000000E+03 0. -1.
         -6    1    1    2    0  502 -0.15289041457E+03  0.73720143100E+02  0.37008775547E+03  0.44238454439E+03  0.17300000000E+03 0.  1.
<mgrwt>
<rscale>  2 0.24236159E+03</rscale>
<asrwt>0</asrwt>
<pdfrwt beam="1">  1       21 0.71618980E-01 0.24236159E+03</pdfrwt>
<pdfrwt beam="2">  1       21 0.43667274E-01 0.24236159E+03</pdfrwt>
<totfact> 0.85946331E+03</totfact>
</mgrwt>
</event>
<event>
 4    3  0.4041078E+000  0.2877109E+03  0.7546771E-02  0.1091550E+00
         21   -1    0    0  501  502  0.00000000000E+00  0.00000000000E+00  0.93202774241E+02  0.93202774241E+02  0.00000000000E+00 0.  1.
         21   -1    0    0  502  503 -0.00000000000E+00 -0.00000000000E+00 -0.95435378122E+03  0.95435378122E+03  0.00000000000E+00 0.  1.
          6    1    1    2  501    0 -0.22109236045E+03 -0.62982098039E+02 -0.29261631527E+03  0.41036798667E+03  0.17300000000E+03 0.  1.
         -6    1    1    2    0  503  0.22109236045E+03  0.62982098039E+02 -0.56853469171E+03  0.63718856879E+03  0.17300000000E+03 0.  1.
<mgrwt>
<rscale>  2 0.28771093E+03</rscale>
<asrwt>0</asrwt>
<pdfrwt beam="1">  1       21 0.14338887E-01 0.28771093E+03</pdfrwt>
<pdfrwt beam="2">  1       21 0.14682367E+00 0.28771093E+03</pdfrwt>
<totfact> 0.12708239E+04</totfact>
</mgrwt>
</event>
<event>
 4    3  0.4041078E+000  0.1770677E+03  0.7546771E-02  0.1170672E+00
         21   -1    0    0  501  502  0.00000000000E+00  0.00000000000E+00  0.20376482400E+03  0.20376482400E+03  0.00000000000E+00 0. -1.
         21   -1    0    0  502  503 -0.00000000000E+00 -0.00000000000E+00 -0.26428500793E+03  0.26428500793E+03  0.00000000000E+00 0. -1.
          6    1    1    2  501    0 -0.21377799318E+02 -0.31095761943E+02  0.12100654039E+03  0.21446570712E+03  0.17300000000E+03 0. -1.
         -6    1    1    2    0  503  0.21377799318E+02  0.31095761943E+02 -0.18152672432E+03  0.25358412481E+03  0.17300000000E+03 0. -1.
<mgrwt>
<rscale>  2 0.17706766E+03</rscale>
<asrwt>0</asrwt>
<pdfrwt beam="1">  1       21 0.31348435E-01 0.17706766E+03</pdfrwt>
<pdfrwt beam="2">  1       21 0.40659232E-01 0.17706766E+03</pdfrwt>
<totfact> 0.57392301E+04</totfact>
</mgrwt>
</event>
<event>
 4    3  0.4041078E+000  0.1902107E+03  0.7546771E-02  0.1158271E+00
         21   -1    0    0  501  502  0.00000000000E+00  0.00000000000E+00  0.57328202325E+03  0.57328202325E+03  0.00000000000E+00 0. -1.
         21   -1    0    0  502  503 -0.00000000000E+00 -0.00000000000E+00 -0.10947939043E+03  0.10947939043E+03  0.00000000000E+00 0. -1.
          6    1    1    2  501    0 -0.55538247814E+02 -0.56272759444E+02  0.45407166505E+03  0.49230193725E+03  0.17300000000E+03 0. -1.
         -6    1    1    2    0  503  0.55538247814E+02  0.56272759444E+02  0.97309677755E+01  0.19045947642E+03  0.17300000000E+03 0. -1.
<mgrwt>
<rscale>  2 0.19021073E+03</rscale>
<asrwt>0</asrwt>
<pdfrwt beam="1">  1       21 0.88197233E-01 0.19021073E+03</pdfrwt>
<pdfrwt beam="2">  1       21 0.16842983E-01 0.19021073E+03</pdfrwt>
<totfact> 0.34980531E+04</totfact>
</mgrwt>
</event>
<event>
 4    3  0.4041078E+000  0.2157188E+03  0.7546771E-02  0.1137116E+00
         21   -1    0    0  501  502  0.00000000000E+00  0.00000000000E+00  0.96597400077E+03  0.96597400077E+03  0.00000000000E+00 0.  1.
         21   -1    0    0  502  503 -0.00000000000E+00 -0.00000000000E+00 -0.98918092799E+02  0.98918092799E+02  0.00000000000E+00 0.  1.
          6    1    1    2  501    0  0.65561074331E+02 -0.11093843844E+03  0.81488480156E+03  0.84295422854E+03  0.17300000000E+03 0.  1.
         -6    1    1    2    0  503 -0.65561074331E+02  0.11093843844E+03  0.52171106404E+02  0.22193786503E+03  0.17300000000E+03 0.  1.
<mgrwt>
<rscale>  2 0.21571878E+03</rscale>
<asrwt>0</asrwt>
<pdfrwt beam="1">  1       21 0.14861138E+00 0.21571878E+03</pdfrwt>
<pdfrwt beam="2">  1       21 0.15218169E-01 0.21571878E+03</pdfrwt>
<totfact> 0.11510997E+04</totfact>
</mgrwt>
</event>
<event>
 4    3  0.4041078E+000  0.1987661E+03  0.7546771E-02  0.1150784E+00
         21   -1    0    0  503  502  0.00000000000E+00  0.00000000000E+00  0.39505740613E+02  0.39505740613E+02  0.00000000000E+00 0.  1.
         21   -1    0    0  501  503 -0.00000000000E+00 -0.00000000000E+00 -0.10606949034E+04  0.10606949034E+04  0.00000000000E+00 0. -1.
          6    1    1    2  501    0  0.88989876925E+02 -0.40740406911E+02 -0.64212311229E+03  0.67218306308E+03  0.17300000000E+03 0. -1.
         -6    1    1    2    0  502 -0.88989876925E+02  0.40740406911E+02 -0.37906605050E+03  0.42801758094E+03  0.17300000000E+03 0.  1.
<mgrwt>
<rscale>  2 0.19876614E+03</rscale>
<asrwt>0</asrwt>
<pdfrwt beam="1">  1       21 0.60778063E-02 0.19876614E+03</pdfrwt>
<pdfrwt beam="2">  1       21 0.16318383E+00 0.19876614E+03</pdfrwt>
<totfact> 0.45857125E+04</totfact>
</mgrwt>
</event>
<event>
 4    3  0.4041078E+000  0.1962619E+03  0.7546771E-02  0.1152932E+00
         21   -1    0    0  503  502  0.00000000000E+00  0.00000000000E+00  0.12779501822E+03  0.12779501822E+03  0.00000000000E+00 0.  1.
         21   -1    0    0  501  503 -0.00000000000E+00 -0.00000000000E+00 -0.66064016385E+03  0.66064016385E+03  0.00000000000E+00 0.  1.
          6    1    1    2  501    0  0.77264546821E+02 -0.51185170756E+02 -0.55711903314E+03  0.59067787244E+03  0.17300000000E+03 0.  1.
         -6    1    1    2    0  502 -0.77264546821E+02  0.51185170756E+02  0.24273887511E+02  0.19775730964E+03  0.17300000000E+03 0.  1.
<mgrwt>
<rscale>  2 0.19626190E+03</rscale>
<asrwt>0</asrwt>
<pdfrwt beam="1">  1       21 0.19660772E-01 0.19626190E+03</pdfrwt>
<pdfrwt beam="2">  1       21 0.10163695E+00 0.19626190E+03</pdfrwt>
<totfact> 0.18780527E+04</totfact>
</mgrwt>
</event>
<event>
 4    3  0.4041078E+000  0.2498427E+03  0.7546771E-02  0.1113404E+00
         21   -1    0    0  501  502  0.00000000000E+00  0.00000000000E+00  0.88338101285E+02  0.88338101285E+02  0.00000000000E+00 0.  1.
         21   -1    0    0  502  503 -0.00000000000E+00 -0.00000000000E+00 -0.71282699526E+03  0.71282699526E+03  0.00000000000E+00 0.  1.
          6    1    1    2  501    0  0.97843496490E+01  0.17999072812E+03 -0.27486182684E+03  0.37144369636E+03  0.17300000000E+03 0.  1.
         -6    1    1    2    0  503 -0.97843496490E+01 -0.17999072812E+03 -0.34962706713E+03  0.42972140018E+03  0.17300000000E+03 0.  1.
<mgrwt>
<rscale>  2 0.24984274E+03</rscale>
<asrwt>0</asrwt>
<pdfrwt beam="1">  1       21 0.13590477E-01 0.24984274E+03</pdfrwt>
<pdfrwt beam="2">  1       21 0.10966569E+00 0.24984274E+03</pdfrwt>
<totfact> 0.29949010E+04</totfact>
</mgrwt>
</event>
<event>
 4    3  0.4041078E+000  0.2956800E+03  0.7546771E-02  0.1087420E+00
         21   -1    0    0  501  502  0.00000000000E+00  0.00000000000E+00  0.14815981288E+03  0.14815981288E+03  0.00000000000E+00 0. -1.
         21   -1    0    0  502  503 -0.00000000000E+00 -0.00000000000E+00 -0.89448773991E+03  0.89448773991E+03  0.00000000000E+00 0. -1.
          6    1    1    2  501    0 -0.20394534065E+03  0.12611079449E+03 -0.69043381821E+02  0.30363402812E+03  0.17300000000E+03 0. -1.
         -6    1    1    2    0  503  0.20394534065E+03 -0.12611079449E+03 -0.67728454521E+03  0.73901352467E+03  0.17300000000E+03 0. -1.
<mgrwt>
<rscale>  2 0.29567995E+03</rscale>
<asrwt>0</asrwt>
<pdfrwt beam="1">  1       21 0.22793817E-01 0.29567995E+03</pdfrwt>
<pdfrwt beam="2">  1       21 0.13761350E+00 0.29567995E+03</pdfrwt>
<totfact> 0.63132085E+03</totfact>
</mgrwt>
</event>
<event>
 4    3  0.4041078E+000  0.2165599E+03  0.7546771E-02  0.1136474E+00
         21   -1    0    0  501  502  0.00000000000E+00  0.00000000000E+00  0.78154570365E+02  0.78154570365E+02  0.00000000000E+00 0.  1.
         21   -1    0    0  502  503 -0.00000000000E+00 -0.00000000000E+00 -0.82961962088E+03  0.82961962088E+03  0.00000000000E+00 0. -1.
          6    1    1    2  501    0 -0.11814736272E+03  0.54867138313E+02 -0.13698067304E+03  0.25624579405E+03  0.17300000000E+03 0.  1.
         -6    1    1    2    0  503  0.11814736272E+03 -0.54867138313E+02 -0.61448437747E+03  0.65152839719E+03  0.17300000000E+03 0. -1.
<mgrwt>
<rscale>  2 0.21655993E+03</rscale>
<asrwt>0</asrwt>
<pdfrwt beam="1">  1       21 0.12023779E-01 0.21655993E+03</pdfrwt>
<pdfrwt beam="2">  1       21 0.12763380E+00 0.21655993E+03</pdfrwt>
<totfact> 0.26095159E+04</totfact>
</mgrwt>
</event>
<event>
 4    3  0.4041078E+000  0.2042915E+03  0.7546771E-02  0.1146168E+00
         21   -1    0    0  501  502  0.00000000000E+00  0.00000000000E+00  0.43159421538E+03  0.43159421538E+03  0.00000000000E+00 0.  1.
         21   -1    0    0  502  503 -0.00000000000E+00 -0.00000000000E+00 -0.10247740455E+03  0.10247740455E+03  0.00000000000E+00 0.  1.
          6    1    1    2  501    0 -0.10753627380E+03  0.15555568094E+02  0.22796487460E+03  0.30610947377E+03  0.17300000000E+03 0.  1.
         -6    1    1    2    0  503  0.10753627380E+03 -0.15555568094E+02  0.10115193622E+03  0.22796214616E+03  0.17300000000E+03 0.  1.
<mgrwt>
<rscale>  2 0.20429152E+03</rscale>
<asrwt>0</asrwt>
<pdfrwt beam="1">  1       21 0.66399109E-01 0.20429152E+03</pdfrwt>
<pdfrwt beam="2">  1       21 0.15765755E-01 0.20429152E+03</pdfrwt>
<totfact> 0.74144546E+04</totfact>
</mgrwt>
</event>
<event>
 4    3  0.4041078E+000  0.2530416E+03  0.7546771E-02  0.1111398E+00
         21   -1    0    0  501  502  0.00000000000E+00  0.00000000000E+00  0.27593564237E+03  0.27593564237E+03  0.00000000000E+00 0.  1.
         21   -1    0    0  502  503 -0.00000000000E+00 -0.00000000000E+00 -0.45827877383E+03  0.45827877383E+03  0.00000000000E+00 0. -1.
          6    1    1    2  501    0 -0.13753094612E+03  0.12323274702E+03  0.16676013751E+03  0.30304952490E+03  0.17300000000E+03 0.  1.
         -6    1    1    2    0  503  0.13753094612E+03 -0.12323274702E+03 -0.34910326898E+03  0.43116489130E+03  0.17300000000E+03 0. -1.
<mgrwt>
<rscale>  2 0.25304164E+03</rscale>
<asrwt>0</asrwt>
<pdfrwt beam="1">  1       21 0.42451638E-01 0.25304164E+03</pdfrwt>
<pdfrwt beam="2">  1       21 0.70504426E-01 0.25304164E+03</pdfrwt>
<totfact> 0.93745892E+03</totfact>
</mgrwt>
</event>
<event>
 4    3  0.4041078E+000  0.1887614E+03  0.7546771E-02  0.1159583E+00
         21   -1    0    0  501  502  0.00000000000E+00  0.00000000000E+00  0.58461673350E+03  0.58461673350E+03  0.00000000000E+00 0.  1.
         21   -1    0    0  502  503 -0.00000000000E+00 -0.00000000000E+00 -0.90739351450E+02  0.90739351450E+02  0.00000000000E+00 0.  1.
          6    1    1    2  501    0  0.18361904725E+02 -0.73244280233E+02  0.44042680194E+03  0.47917288320E+03  0.17300000000E+03 0.  1.
         -6    1    1    2    0  503 -0.18361904725E+02  0.73244280233E+02  0.53450580107E+02  0.19618320174E+03  0.17300000000E+03 0.  1.
<mgrwt>
<rscale>  2 0.18876145E+03</rscale>
<asrwt>0</asrwt>
<pdfrwt beam="1">  1       21 0.89941034E-01 0.18876145E+03</pdfrwt>
<pdfrwt beam="2">  1       21 0.13959901E-01 0.18876145E+03</pdfrwt>
<totfact> 0.47119108E+04</totfact>
</mgrwt>
</event>
<event>
 4    3  0.4041078E+000  0.2340647E+03  0.7546771E-02  0.1123811E+00
         21   -1    0    0  501  502  0.00000000000E+00  0.00000000000E+00  0.18990879778E+03  0.18990879778E+03  0.00000000000E+00 0. -1.
         21   -1    0    0  502  503 -0.00000000000E+00 -0.00000000000E+00 -0.29207135032E+03  0.29207135032E+03  0.00000000000E+00 0. -1.
          6    1    1    2  501    0 -0.15111170908E+03  0.44972797907E+02 -0.24386038360E+02  0.23533163842E+03  0.17300000000E+03 0. -1.
         -6    1    1    2    0  503  0.15111170908E+03 -0.44972797907E+02 -0.77776514177E+02  0.24664850969E+03  0.17300000000E+03 0. -1.
<mgrwt>
<rscale>  2 0.23406474E+03</rscale>
<asrwt>0</asrwt>
<pdfrwt beam="1">  1       21 0.29216738E-01 0.23406474E+03</pdfrwt>
<pdfrwt beam="2">  1       21 0.44934054E-01 0.23406474E+03</pdfrwt>
<totfact> 0.52329716E+04</totfact>
</mgrwt>
</event>
<event>
 4    3  0.4041078E+000  0.1776357E+03  0.7546771E-02  0.1170111E+00
         21   -1    0    0  501  502  0.00000000000E+00  0.00000000000E+00  0.44393318052E+03  0.44393318052E+03  0.00000000000E+00 0.  1.
         21   -1    0    0  502  503 -0.00000000000E+00 -0.00000000000E+00 -0.94077222314E+02  0.94077222314E+02  0.00000000000E+00 0.  1.
          6    1    1    2  501    0 -0.58566990014E+01 -0.39888891727E+02  0.30793160556E+03  0.35549444203E+03  0.17300000000E+03 0.  1.
         -6    1    1    2    0  503  0.58566990014E+01  0.39888891727E+02  0.41924352646E+02  0.18251596081E+03  0.17300000000E+03 0.  1.
<mgrwt>
<rscale>  2 0.17763565E+03</rscale>
<asrwt>0</asrwt>
<pdfrwt beam="1">  1       21 0.68297411E-01 0.17763565E+03</pdfrwt>
<pdfrwt beam="2">  1       21 0.14473419E-01 0.17763565E+03</pdfrwt>
<totfact> 0.82394999E+04</totfact>
</mgrwt>
</event>
<event>
 4    3  0.4041078E+000  0.2139620E+03  0.7546771E-02  0.1138466E+00
         21   -1    0    0  503  502  0.00000000000E+00  0.00000000000E+00  0.93790123443E+02  0.93790123443E+02  0.00000000000E+00 0. -1.
         21   -1    0    0  501  503 -0.00000000000E+00 -0.00000000000E+00 -0.70113423097E+03  0.70113423097E+03  0.00000000000E+00 0. -1.
          6    1    1    2  501    0 -0.28766134440E+02 -0.12256927495E+03 -0.52275656533E+03  0.56484877998E+03  0.17300000000E+03 0. -1.
         -6    1    1    2    0  502  0.28766134440E+02  0.12256927495E+03 -0.84587542196E+02  0.23007557443E+03  0.17300000000E+03 0. -1.
<mgrwt>
<rscale>  2 0.21396195E+03</rscale>
<asrwt>0</asrwt>
<pdfrwt beam="1">  1       21 0.14429249E-01 0.21396195E+03</pdfrwt>
<pdfrwt beam="2">  1       21 0.10786681E+00 0.21396195E+03</pdfrwt>
<totfact> 0.28473338E+04</totfact>
</mgrwt>
</event>
<event>
 4    3  0.4041078E+000  0.1758715E+03  0.7546771E-02  0.1171859E+00
         21   -1    0    0  501  502  0.00000000000E+00  0.00000000000E+00  0.14772681591E+03  0.14772681591E+03  0.00000000000E+00 0.  1.
         21   -1    0    0  502  503 -0.00000000000E+00 -0.00000000000E+00 -0.61723718686E+03  0.61723718686E+03  0.00000000000E+00 0.  1.
          6    1    1    2  501    0  0.20618203137E+02 -0.24014190016E+02  0.76158557433E+02  0.19165311762E+03  0.17300000000E+03 0.  1.
         -6    1    1    2    0  503 -0.20618203137E+02  0.24014190016E+02 -0.54566892839E+03  0.57331088515E+03  0.17300000000E+03 0.  1.
<mgrwt>
<rscale>  2 0.17587152E+03</rscale>
<asrwt>0</asrwt>
<pdfrwt beam="1">  1       21 0.22727202E-01 0.17587152E+03</pdfrwt>
<pdfrwt beam="2">  1       21 0.94959568E-01 0.17587152E+03</pdfrwt>
<totfact> 0.17015910E+04</totfact>
</mgrwt>
</event>
<event>
 4    3  0.4041078E+000  0.1760329E+03  0.7546771E-02  0.1171699E+00
         21   -1    0    0  503  502  0.00000000000E+00  0.00000000000E+00  0.57029280093E+02  0.57029280093E+02  0.00000000000E+00 0.  1.
         21   -1    0    0  501  503 -0.00000000000E+00 -0.00000000000E+00 -0.55057224859E+03  0.55057224859E+03  0.00000000000E+00 0.  1.
          6    1    1    2  501    0  0.23426469226E+02 -0.22578462857E+02 -0.28153584459E+03  0.33203918177E+03  0.17300000000E+03 0.  1.
         -6    1    1    2    0  502 -0.23426469226E+02  0.22578462857E+02 -0.21200712391E+03  0.27556234691E+03  0.17300000000E+03 0.  1.
<mgrwt>
<rscale>  2 0.17603291E+03</rscale>
<asrwt>0</asrwt>
<pdfrwt beam="1">  1       21 0.87737359E-02 0.17603291E+03</pdfrwt>
<pdfrwt beam="2">  1       21 0.84703418E-01 0.17603291E+03</pdfrwt>
<totfact> 0.12413882E+05</totfact>
</mgrwt>
</event>
<event>
 4    3  0.4041078E+000  0.1847976E+03  0.7546771E-02  0.1163239E+00
         21   -1    0    0  503  502  0.00000000000E+00  0.00000000000E+00  0.28726216650E+03  0.28726216650E+03  0.00000000000E+00 0. -1.
         21   -1    0    0  501  503 -0.00000000000E+00 -0.00000000000E+00 -0.39157037092E+03  0.39157037092E+03  0.00000000000E+00 0. -1.
          6    1    1    2  501    0 -0.43089883830E+02  0.48625197078E+02 -0.33539859626E+03  0.38293911560E+03  0.17300000000E+03 0. -1.
         -6    1    1    2    0  502  0.43089883830E+02 -0.48625197078E+02  0.23109039184E+03  0.29589342182E+03  0.17300000000E+03 0. -1.
<mgrwt>
<rscale>  2 0.18479759E+03</rscale>
<asrwt>0</asrwt>
<pdfrwt beam="1">  1       21 0.44194180E-01 0.18479759E+03</pdfrwt>
<pdfrwt beam="2">  1       21 0.60241595E-01 0.18479759E+03</pdfrwt>
<totfact> 0.12698059E+04</totfact>
</mgrwt>
</event>
<event>
 4    3  0.4041078E+000  0.1831563E+03  0.7546771E-02  0.1164783E+00
         21   -1    0    0  501  502  0.00000000000E+00  0.00000000000E+00  0.36081094304E+03  0.36081094304E+03  0.00000000000E+00 0. -1.
         21   -1    0    0  502  503 -0.00000000000E+00 -0.00000000000E+00 -0.97180366929E+02  0.97180366929E+02  0.00000000000E+00 0. -1.
          6    1    1    2  501    0  0.39274456283E+02 -0.45549583922E+02  0.17945414979E+03  0.25641770490E+03  0.17300000000E+03 0. -1.
         -6    1    1    2    0  503 -0.39274456283E+02  0.45549583922E+02  0.84176426328E+02  0.20157360507E+03  0.17300000000E+03 0. -1.
<mgrwt>
<rscale>  2 0.18315635E+03</rscale>
<asrwt>0</asrwt>
<pdfrwt beam="1">  1       21 0.55509375E-01 0.18315635E+03</pdfrwt>
<pdfrwt beam="2">  1       21 0.14950826E-01 0.18315635E+03</pdfrwt>
<totfact> 0.12112168E+05</totfact>
</mgrwt>
</event>
<event>
 4    3  0.4041078E+000  0.2199823E+03  0.7546771E-02  0.1133896E+00
         21   -1    0    0  503  502  0.00000000000E+00  0.00000000000E+00  0.11857160564E+04  0.11857160564E+04  0.00000000000E+00 0. -1.
         21   -1    0    0  501  503 -0.00000000000E+00 -0.00000000000E+00 -0.10671491683E+03  0.10671491683E+03  0.00000000000E+00 0.  1.
          6    1    1    2  501    0 -0.74997352903E+02  0.11330766039E+03  0.31674568981E+02  0.22225100037E+03  0.17300000000E+03 0.  1.
         -6    1    1    2    0  502  0.74997352903E+02 -0.11330766039E+03  0.10473265706E+04  0.10701799729E+04  0.17300000000E+03 0. -1.
<mgrwt>
<rscale>  2 0.21998234E+03</rscale>
<asrwt>0</asrwt>
<pdfrwt beam="1">  1       21 0.18241785E+00 0.21998234E+03</pdfrwt>
<pdfrwt beam="2">  1       21 0.16417680E-01 0.21998234E+03</pdfrwt>
<totfact> 0.56952150E+03</totfact>
</mgrwt>
</event>
<event>
 4    3  0.4041078E+000  0.1769803E+03  0.7546771E-02  0.1170758E+00
         21   -1    0    0  501  502  0.00000000000E+00  0.00000000000E+00  0.40686150420E+03  0.40686150420E+03  0.00000000000E+00 0. -1.
         21   -1    0    0  502  503 -0.00000000000E+00 -0.00000000000E+00 -0.28558502550E+03  0.28558502550E+03  0.00000000000E+00 0. -1.
          6    1    1    2  501    0  0.31944832190E+02  0.19301973958E+02  0.35653908582E+03  0.39804793457E+03  0.17300000000E+03 0. -1.
         -6    1    1    2    0  503 -0.31944832190E+02 -0.19301973958E+02 -0.23526260712E+03  0.29439859513E+03  0.17300000000E+03 0. -1.
<mgrwt>
<rscale>  2 0.17698033E+03</rscale>
<asrwt>0</asrwt>
<pdfrwt beam="1">  1       21 0.62594078E-01 0.17698033E+03</pdfrwt>
<pdfrwt beam="2">  1       21 0.43936158E-01 0.17698033E+03</pdfrwt>
<totfact> 0.11897015E+04</totfact>
</mgrwt>
</event>
<event>
 4    3  0.4041078E+000  0.3074712E+03  0.7546771E-02  0.1081564E+00
         21   -1    0    0  503  502  0.00000000000E+00  0.00000000000E+00  0.75047814133E+03  0.75047814133E+03  0.00000000000E+00 0.  1.
         21   -1    0    0  501  503 -0.00000000000E+00 -0.00000000000E+00 -0.13693899098E+03  0.13693899098E+03  0.00000000000E+00 0. -1.
          6    1    1    2  501    0 -0.38237030298E+02 -0.25129161881E+03  0.18119663976E+03  0.35689041796E+03  0.17300000000E+03 0. -1.
         -6    1    1    2    0  502  0.38237030298E+02  0.25129161881E+03  0.43234251059E+03  0.53052671434E+03  0.17300000000E+03 0.  1.
<mgrwt>
<rscale>  2 0.30747122E+03</rscale>
<asrwt>0</asrwt>
<pdfrwt beam="1">  1       21 0.11545817E+00 0.30747122E+03</pdfrwt>
<pdfrwt beam="2">  1       21 0.21067538E-01 0.30747122E+03</pdfrwt>
<totfact> 0.11394365E+04</totfact>
</mgrwt>
</event>
