<event>
 4    1  0.4941530E-001  0.1035258E+03  0.7546771E-02  0.1273052E+00
         -3   -1    0    0    0  501 -0.00000000000E+00  0.00000000000E+00  0.14489009456E+03  0.14489009456E+03  0.00000000000E+00 0.  1.
          3   -1    0    0  501    0  0.00000000000E+00 -0.00000000000E+00 -0.74206045323E+02  0.74206045323E+02  0.00000000000E+00 0. -1.
         24    1    1    2    0    0 -0.12435046053E+02  0.63997985792E+02  0.29169693198E+02  0.10755677343E+03  0.80419002446E+02 0.  0.
        -24    1    1    2    0    0  0.12435046053E+02 -0.63997985792E+02  0.41514356036E+02  0.11153936645E+03  0.80419002446E+02 0.  1.
<mgrwt>
<rscale>  0 0.10352580E+03</rscale>
<asrwt>0</asrwt>
<pdfrwt beam="1">  1        3 0.11416315E-01 0.10352581E+03</pdfrwt>
<pdfrwt beam="2">  1       -3 0.22290784E-01 0.10352581E+03</pdfrwt>
<totfact> 0.23765409E+03</totfact>
</mgrwt>
</event>
<event>
 4    1  0.4941530E-001  0.8318509E+02  0.7546771E-02  0.1320248E+00
          2   -1    0    0  501    0  0.00000000000E+00  0.00000000000E+00  0.57523765409E+03  0.57523765409E+03  0.00000000000E+00 0. -1.
         -2   -1    0    0    0  501 -0.00000000000E+00 -0.00000000000E+00 -0.51881881318E+02  0.51881881318E+02  0.00000000000E+00 0.  1.
         24    1    1    2    0    0 -0.17850222376E+02  0.11572040553E+02  0.53649274473E+03  0.54290351230E+03  0.80419002446E+02 0. -1.
        -24    1    1    2    0    0  0.17850222376E+02 -0.11572040553E+02 -0.13136971961E+02  0.84216023108E+02  0.80419002446E+02 0.  0.
<mgrwt>
<rscale>  0 0.83185086E+02</rscale>
<asrwt>0</asrwt>
<pdfrwt beam="1">  1        2 0.88498096E-01 0.83185086E+02</pdfrwt>
<pdfrwt beam="2">  1       -2 0.79818283E-02 0.83185086E+02</pdfrwt>
<totfact> 0.47358217E+03</totfact>
</mgrwt>
</event>
<event>
 4    1  0.4941530E-001  0.8443431E+02  0.7546771E-02  0.1316919E+00
          4   -1    0    0  501    0  0.00000000000E+00  0.00000000000E+00  0.45332561924E+03  0.45332561924E+03  0.00000000000E+00 0. -1.
         -4   -1    0    0    0  501 -0.00000000000E+00 -0.00000000000E+00 -0.16117289937E+02  0.16117289937E+02  0.00000000000E+00 0.  1.
         24    1    1    2    0    0  0.96424296776E+01 -0.23852874192E+02  0.25516097883E+03  0.26876807312E+03  0.80419002446E+02 0. -1.
        -24    1    1    2    0    0 -0.96424296776E+01  0.23852874192E+02  0.18204735047E+03  0.20067483605E+03  0.80419002446E+02 0.  1.
<mgrwt>
<rscale>  0 0.84434306E+02</rscale>
<asrwt>0</asrwt>
<pdfrwt beam="1">  1        4 0.69742393E-01 0.84434306E+02</pdfrwt>
<pdfrwt beam="2">  1       -4 0.24795834E-02 0.84434306E+02</pdfrwt>
<totfact> 0.20451910E+03</totfact>
</mgrwt>
</event>
<event>
 4    1  0.4941530E-001  0.8277718E+02  0.7546771E-02  0.1321350E+00
          1   -1    0    0  501    0  0.00000000000E+00  0.00000000000E+00  0.35623882065E+03  0.35623882065E+03  0.00000000000E+00 0. -1.
         -1   -1    0    0    0  501 -0.00000000000E+00 -0.00000000000E+00 -0.20032273019E+02  0.20032273019E+02  0.00000000000E+00 0.  1.
         24    1    1    2    0    0 -0.14956991349E+02 -0.12693881667E+02  0.13055796594E+03  0.15458798351E+03  0.80419002446E+02 0.  1.
        -24    1    1    2    0    0  0.14956991349E+02  0.12693881667E+02  0.20564858169E+03  0.22168311016E+03  0.80419002446E+02 0. -1.
<mgrwt>
<rscale>  0 0.82777184E+02</rscale>
<asrwt>0</asrwt>
<pdfrwt beam="1">  1        1 0.54805968E-01 0.82777184E+02</pdfrwt>
<pdfrwt beam="2">  1       -1 0.30818884E-02 0.82777184E+02</pdfrwt>
<totfact> 0.22612075E+04</totfact>
</mgrwt>
</event>
<event>
 4    1  0.4941530E-001  0.9782441E+02  0.7546771E-02  0.1284939E+00
         -2   -1    0    0    0  501 -0.00000000000E+00  0.00000000000E+00  0.29556244638E+03  0.29556244638E+03  0.00000000000E+00 0.  1.
          2   -1    0    0  501    0  0.00000000000E+00 -0.00000000000E+00 -0.32377643124E+02  0.32377643124E+02  0.00000000000E+00 0. -1.
         24    1    1    2    0    0 -0.51882444860E+02  0.20263546359E+02  0.13157945754E+03  0.16395965662E+03  0.80419002446E+02 0.  0.
        -24    1    1    2    0    0  0.51882444860E+02 -0.20263546359E+02  0.13160534571E+03  0.16398043289E+03  0.80419002446E+02 0.  0.
<mgrwt>
<rscale>  0 0.97824411E+02</rscale>
<asrwt>0</asrwt>
<pdfrwt beam="1">  1        2 0.49811761E-02 0.97824411E+02</pdfrwt>
<pdfrwt beam="2">  1       -2 0.45471144E-01 0.97824411E+02</pdfrwt>
<totfact> 0.67152504E+03</totfact>
</mgrwt>
</event>
<event>
 4    1  0.4941530E-001  0.9481388E+02  0.7546771E-02  0.1291596E+00
         -3   -1    0    0    0  501 -0.00000000000E+00  0.00000000000E+00  0.20643210179E+03  0.20643210179E+03  0.00000000000E+00 0.  1.
          3   -1    0    0  501    0  0.00000000000E+00 -0.00000000000E+00 -0.17923447166E+03  0.17923447166E+03  0.00000000000E+00 0. -1.
         24    1    1    2    0    0 -0.11738905962E+02  0.48832916022E+02  0.18137865235E+03  0.20466530503E+03  0.80419002446E+02 0.  1.
        -24    1    1    2    0    0  0.11738905962E+02 -0.48832916022E+02 -0.15418102223E+03  0.18100126842E+03  0.80419002446E+02 0. -1.
<mgrwt>
<rscale>  0 0.94813878E+02</rscale>
<asrwt>0</asrwt>
<pdfrwt beam="1">  1        3 0.27574534E-01 0.94813878E+02</pdfrwt>
<pdfrwt beam="2">  1       -3 0.31758785E-01 0.94813878E+02</pdfrwt>
<totfact> 0.26855279E+02</totfact>
</mgrwt>
</event>
<event>
 4    1  0.4941530E-001  0.9709508E+02  0.7546771E-02  0.1286526E+00
         -2   -1    0    0    0  501 -0.00000000000E+00  0.00000000000E+00  0.10073584032E+02  0.10073584032E+02  0.00000000000E+00 0.  1.
          2   -1    0    0  501    0  0.00000000000E+00 -0.00000000000E+00 -0.13228907123E+04  0.13228907123E+04  0.00000000000E+00 0. -1.
         24    1    1    2    0    0 -0.23573157262E+02 -0.49036163177E+02 -0.10169040022E+04  0.10215288565E+04  0.80419002446E+02 0. -1.
        -24    1    1    2    0    0  0.23573157262E+02  0.49036163177E+02 -0.29591312609E+03  0.31143543984E+03  0.80419002446E+02 0.  1.
<mgrwt>
<rscale>  0 0.97095082E+02</rscale>
<asrwt>0</asrwt>
<pdfrwt beam="1">  1        2 0.20352151E+00 0.97095082E+02</pdfrwt>
<pdfrwt beam="2">  1       -2 0.15497832E-02 0.97095082E+02</pdfrwt>
<totfact> 0.18032500E+04</totfact>
</mgrwt>
</event>
<event>
 4    1  0.4941530E-001  0.1908764E+03  0.7546771E-02  0.1157673E+00
         -2   -1    0    0    0  501 -0.00000000000E+00  0.00000000000E+00  0.84782041972E+03  0.84782041972E+03  0.00000000000E+00 0.  1.
          2   -1    0    0  501    0  0.00000000000E+00 -0.00000000000E+00 -0.43043424997E+02  0.43043424997E+02  0.00000000000E+00 0. -1.
         24    1    1    2    0    0 -0.17309774687E+03  0.19386252698E+01  0.38443420174E+03  0.42921260426E+03  0.80419002446E+02 0.  1.
        -24    1    1    2    0    0  0.17309774687E+03 -0.19386252698E+01  0.42034279299E+03  0.46165124045E+03  0.80419002446E+02 0. -1.
<mgrwt>
<rscale>  0 0.19087641E+03</rscale>
<asrwt>0</asrwt>
<pdfrwt beam="1">  1        2 0.66220660E-02 0.19087641E+03</pdfrwt>
<pdfrwt beam="2">  1       -2 0.13043390E+00 0.19087641E+03</pdfrwt>
<totfact> 0.48698939E+02</totfact>
</mgrwt>
</event>
<event>
 4    1  0.4941530E-001  0.8583808E+02  0.7546771E-02  0.1313255E+00
         -2   -1    0    0    0  501 -0.00000000000E+00  0.00000000000E+00  0.12826819511E+02  0.12826819511E+02  0.00000000000E+00 0.  1.
          2   -1    0    0  501    0  0.00000000000E+00 -0.00000000000E+00 -0.57480518169E+03  0.57480518169E+03  0.00000000000E+00 0. -1.
         24    1    1    2    0    0  0.27640846984E+02 -0.11702267179E+02 -0.28844439325E+03  0.30094574832E+03  0.80419002446E+02 0.  1.
        -24    1    1    2    0    0 -0.27640846984E+02  0.11702267179E+02 -0.27353396893E+03  0.28668625289E+03  0.80419002446E+02 0.  0.
<mgrwt>
<rscale>  0 0.85838077E+02</rscale>
<asrwt>0</asrwt>
<pdfrwt beam="1">  1        2 0.88431570E-01 0.85838077E+02</pdfrwt>
<pdfrwt beam="2">  1       -2 0.19733568E-02 0.85838077E+02</pdfrwt>
<totfact> 0.37118132E+04</totfact>
</mgrwt>
</event>
<event>
 4    1  0.4941530E-001  0.8265387E+02  0.7546771E-02  0.1321684E+00
         -1   -1    0    0    0  501 -0.00000000000E+00  0.00000000000E+00  0.56348919306E+03  0.56348919306E+03  0.00000000000E+00 0.  1.
          1   -1    0    0  501    0  0.00000000000E+00 -0.00000000000E+00 -0.12510998634E+02  0.12510998634E+02  0.00000000000E+00 0. -1.
         24    1    1    2    0    0  0.14734599885E+01  0.19033534977E+02  0.32615099906E+03  0.33646119640E+03  0.80419002446E+02 0.  0.
        -24    1    1    2    0    0 -0.14734599885E+01 -0.19033534977E+02  0.22482719537E+03  0.23953899530E+03  0.80419002446E+02 0.  0.
<mgrwt>
<rscale>  0 0.82653872E+02</rscale>
<asrwt>0</asrwt>
<pdfrwt beam="1">  1        1 0.19247695E-02 0.82653872E+02</pdfrwt>
<pdfrwt beam="2">  1       -1 0.86690625E-01 0.82653872E+02</pdfrwt>
<totfact> 0.79415235E+03</totfact>
</mgrwt>
</event>
<event>
 4    1  0.4941530E-001  0.8165972E+02  0.7546771E-02  0.1324406E+00
          2   -1    0    0  501    0  0.00000000000E+00  0.00000000000E+00  0.24525352130E+04  0.24525352130E+04  0.00000000000E+00 0. -1.
         -2   -1    0    0    0  501 -0.00000000000E+00 -0.00000000000E+00 -0.14039349066E+02  0.14039349066E+02  0.00000000000E+00 0.  1.
         24    1    1    2    0    0 -0.32073766881E+01 -0.13813302982E+02  0.23266917766E+04  0.23281243381E+04  0.80419002446E+02 0. -1.
        -24    1    1    2    0    0  0.32073766881E+01  0.13813302982E+02  0.11180408732E+03  0.13845022391E+03  0.80419002446E+02 0.  1.
<mgrwt>
<rscale>  0 0.81659724E+02</rscale>
<asrwt>0</asrwt>
<pdfrwt beam="1">  1        2 0.37731277E+00 0.81659724E+02</pdfrwt>
<pdfrwt beam="2">  1       -2 0.21599018E-02 0.81659724E+02</pdfrwt>
<totfact> 0.29712867E+03</totfact>
</mgrwt>
</event>
<event>
 4    1  0.4941530E-001  0.9356868E+02  0.7546771E-02  0.1294433E+00
          1   -1    0    0  501    0  0.00000000000E+00  0.00000000000E+00  0.36674269265E+03  0.36674269265E+03  0.00000000000E+00 0. -1.
         -1   -1    0    0    0  501 -0.00000000000E+00 -0.00000000000E+00 -0.50107724340E+02  0.50107724340E+02  0.00000000000E+00 0.  1.
         24    1    1    2    0    0 -0.37130439022E+02 -0.30153148202E+02  0.75042150429E+01  0.93869116573E+02  0.80419002446E+02 0.  1.
        -24    1    1    2    0    0  0.37130439022E+02  0.30153148202E+02  0.30913075327E+03  0.32298130042E+03  0.80419002446E+02 0. -1.
<mgrwt>
<rscale>  0 0.93568680E+02</rscale>
<asrwt>0</asrwt>
<pdfrwt beam="1">  1        1 0.56421951E-01 0.93568680E+02</pdfrwt>
<pdfrwt beam="2">  1       -1 0.77088809E-02 0.93568680E+02</pdfrwt>
<totfact> 0.57753209E+03</totfact>
</mgrwt>
</event>
<event>
 4    1  0.4941530E-001  0.8984424E+02  0.7546771E-02  0.1303229E+00
         -1   -1    0    0    0  501 -0.00000000000E+00  0.00000000000E+00  0.22677758379E+02  0.22677758379E+02  0.00000000000E+00 0.  1.
          1   -1    0    0  501    0  0.00000000000E+00 -0.00000000000E+00 -0.37275835445E+03  0.37275835445E+03  0.00000000000E+00 0. -1.
         24    1    1    2    0    0 -0.31394598132E+02  0.24882732149E+02 -0.13304632825E+03  0.16054068819E+03  0.80419002446E+02 0.  0.
        -24    1    1    2    0    0  0.31394598132E+02 -0.24882732149E+02 -0.21703426783E+03  0.23489542464E+03  0.80419002446E+02 0.  0.
<mgrwt>
<rscale>  0 0.89844238E+02</rscale>
<asrwt>0</asrwt>
<pdfrwt beam="1">  1        1 0.57347435E-01 0.89844238E+02</pdfrwt>
<pdfrwt beam="2">  1       -1 0.34888862E-02 0.89844238E+02</pdfrwt>
<totfact> 0.18041724E+04</totfact>
</mgrwt>
</event>
<event>
 4    1  0.4941530E-001  0.8051777E+02  0.7546771E-02  0.1327588E+00
          1   -1    0    0  501    0  0.00000000000E+00  0.00000000000E+00  0.73960773474E+03  0.73960773474E+03  0.00000000000E+00 0. -1.
         -1   -1    0    0    0  501 -0.00000000000E+00 -0.00000000000E+00 -0.91593468549E+01  0.91593468549E+01  0.00000000000E+00 0.  1.
         24    1    1    2    0    0 -0.20086724048E+01 -0.34438079467E+01  0.28760138839E+03  0.29865978829E+03  0.80419002446E+02 0.  1.
        -24    1    1    2    0    0  0.20086724048E+01  0.34438079467E+01  0.44284699949E+03  0.45010729331E+03  0.80419002446E+02 0. -1.
<mgrwt>
<rscale>  0 0.80517765E+02</rscale>
<asrwt>0</asrwt>
<pdfrwt beam="1">  1        1 0.11378576E+00 0.80517765E+02</pdfrwt>
<pdfrwt beam="2">  1       -1 0.14091309E-02 0.80517765E+02</pdfrwt>
<totfact> 0.26595433E+04</totfact>
</mgrwt>
</event>
<event>
 4    1  0.4941530E-001  0.1349739E+03  0.7546771E-02  0.1220256E+00
          4   -1    0    0  501    0  0.00000000000E+00  0.00000000000E+00  0.56403605914E+03  0.56403605914E+03  0.00000000000E+00 0. -1.
         -4   -1    0    0    0  501 -0.00000000000E+00 -0.00000000000E+00 -0.53566623563E+02  0.53566623563E+02  0.00000000000E+00 0.  1.
         24    1    1    2    0    0  0.23369964423E+02 -0.10585175369E+03  0.44981039489E+03  0.46962469729E+03  0.80419002446E+02 0. -1.
        -24    1    1    2    0    0 -0.23369964423E+02  0.10585175369E+03  0.60659040681E+02  0.14797798541E+03  0.80419002446E+02 0.  1.
<mgrwt>
<rscale>  0 0.13497394E+03</rscale>
<asrwt>0</asrwt>
<pdfrwt beam="1">  1        4 0.86774774E-01 0.13497394E+03</pdfrwt>
<pdfrwt beam="2">  1       -4 0.82410194E-02 0.13497394E+03</pdfrwt>
<totfact> 0.20770640E+02</totfact>
</mgrwt>
</event>
<event>
 4    1  0.4941530E-001  0.8427315E+02  0.7546771E-02  0.1317344E+00
          2   -1    0    0  501    0  0.00000000000E+00  0.00000000000E+00  0.25129278029E+04  0.25129278029E+04  0.00000000000E+00 0. -1.
         -2   -1    0    0    0  501 -0.00000000000E+00 -0.00000000000E+00 -0.28264964117E+01  0.28264964117E+01  0.00000000000E+00 0.  1.
         24    1    1    2    0    0  0.17761841277E+02  0.17867871874E+02  0.12415219069E+04  0.12443788029E+04  0.80419002446E+02 0.  0.
        -24    1    1    2    0    0 -0.17761841277E+02 -0.17867871874E+02  0.12685793996E+04  0.12713754964E+04  0.80419002446E+02 0.  1.
<mgrwt>
<rscale>  0 0.84273137E+02</rscale>
<asrwt>0</asrwt>
<pdfrwt beam="1">  1        2 0.38660249E+00 0.84273147E+02</pdfrwt>
<pdfrwt beam="2">  1       -2 0.43484761E-03 0.84273147E+02</pdfrwt>
<totfact> 0.26613123E+04</totfact>
</mgrwt>
</event>
<event>
 4    1  0.4941530E-001  0.9253883E+02  0.7546771E-02  0.1296818E+00
          2   -1    0    0  501    0  0.00000000000E+00  0.00000000000E+00  0.79774705141E+03  0.79774705141E+03  0.00000000000E+00 0. -1.
         -2   -1    0    0    0  501 -0.00000000000E+00 -0.00000000000E+00 -0.12881544257E+02  0.12881544257E+02  0.00000000000E+00 0.  1.
         24    1    1    2    0    0 -0.38458427280E+02 -0.24842771065E+02  0.22695993460E+03  0.24510047281E+03  0.80419002446E+02 0.  0.
        -24    1    1    2    0    0  0.38458427280E+02  0.24842771065E+02  0.55790557255E+03  0.56552812285E+03  0.80419002446E+02 0.  0.
<mgrwt>
<rscale>  0 0.92538813E+02</rscale>
<asrwt>0</asrwt>
<pdfrwt beam="1">  1        2 0.12273028E+00 0.92538825E+02</pdfrwt>
<pdfrwt beam="2">  1       -2 0.19817767E-02 0.92538825E+02</pdfrwt>
<totfact> 0.25451863E+04</totfact>
</mgrwt>
</event>
<event>
 4    1  0.4941530E-001  0.9855544E+02  0.7546771E-02  0.1283363E+00
          2   -1    0    0  501    0  0.00000000000E+00  0.00000000000E+00  0.28218395753E+02  0.28218395753E+02  0.00000000000E+00 0. -1.
         -2   -1    0    0    0  501 -0.00000000000E+00 -0.00000000000E+00 -0.53658773776E+03  0.53658773776E+03  0.00000000000E+00 0.  1.
         24    1    1    2    0    0 -0.56870126066E+02  0.34273278390E+01 -0.85093219345E+02  0.13020764090E+03  0.80419002446E+02 0. -1.
        -24    1    1    2    0    0  0.56870126066E+02 -0.34273278390E+01 -0.42327612266E+03  0.43459849262E+03  0.80419002446E+02 0.  1.
<mgrwt>
<rscale>  0 0.98555435E+02</rscale>
<asrwt>0</asrwt>
<pdfrwt beam="1">  1        2 0.43412915E-02 0.98555435E+02</pdfrwt>
<pdfrwt beam="2">  1       -2 0.82551962E-01 0.98555435E+02</pdfrwt>
<totfact> 0.23608877E+03</totfact>
</mgrwt>
</event>
<event>
 4    1  0.4941530E-001  0.1841231E+03  0.7546771E-02  0.1163871E+00
         -1   -1    0    0    0  501 -0.00000000000E+00  0.00000000000E+00  0.31491184146E+02  0.31491184146E+02  0.00000000000E+00 0.  1.
          1   -1    0    0  501    0  0.00000000000E+00 -0.00000000000E+00 -0.11258584970E+04  0.11258584970E+04  0.00000000000E+00 0. -1.
         24    1    1    2    0    0  0.38284758094E+02  0.16114707883E+03 -0.42606095942E+03  0.46414357781E+03  0.80419002446E+02 0.  1.
        -24    1    1    2    0    0 -0.38284758094E+02 -0.16114707883E+03 -0.66830635339E+03  0.69320610330E+03  0.80419002446E+02 0. -1.
<mgrwt>
<rscale>  0 0.18412311E+03</rscale>
<asrwt>0</asrwt>
<pdfrwt beam="1">  1        1 0.17320900E+00 0.18412311E+03</pdfrwt>
<pdfrwt beam="2">  1       -1 0.48447976E-02 0.18412311E+03</pdfrwt>
<totfact> 0.23748546E+03</totfact>
</mgrwt>
</event>
<event>
 4    1  0.4941530E-001  0.8186180E+02  0.7546771E-02  0.1323849E+00
          1   -1    0    0  501    0  0.00000000000E+00  0.00000000000E+00  0.72768840596E+03  0.72768840596E+03  0.00000000000E+00 0. -1.
         -1   -1    0    0    0  501 -0.00000000000E+00 -0.00000000000E+00 -0.22698117669E+02  0.22698117669E+02  0.00000000000E+00 0.  1.
         24    1    1    2    0    0 -0.52559286034E+01  0.14370590327E+02  0.63260516799E+02  0.10345650097E+03  0.80419002446E+02 0.  1.
        -24    1    1    2    0    0  0.52559286034E+01 -0.14370590327E+02  0.64172977149E+03  0.64693002266E+03  0.80419002446E+02 0. -1.
<mgrwt>
<rscale>  0 0.81861802E+02</rscale>
<asrwt>0</asrwt>
<pdfrwt beam="1">  1        1 0.11195204E+00 0.81861802E+02</pdfrwt>
<pdfrwt beam="2">  1       -1 0.34920187E-02 0.81861802E+02</pdfrwt>
<totfact> 0.74723553E+03</totfact>
</mgrwt>
</event>
<event>
 4    1  0.4941530E-001  0.8513022E+02  0.7546771E-02  0.1315092E+00
         -3   -1    0    0    0  501 -0.00000000000E+00  0.00000000000E+00  0.12756469696E+04  0.12756469696E+04  0.00000000000E+00 0.  1.
          3   -1    0    0  501    0  0.00000000000E+00 -0.00000000000E+00 -0.68807506637E+01  0.68807506637E+01  0.00000000000E+00 0. -1.
         24    1    1    2    0    0 -0.27634720127E+02  0.40320760298E+01  0.36662918453E+03  0.37638293040E+03  0.80419002446E+02 0.  0.
        -24    1    1    2    0    0  0.27634720127E+02 -0.40320760298E+01  0.90213703440E+03  0.90614478985E+03  0.80419002446E+02 0.  0.
<mgrwt>
<rscale>  0 0.85130213E+02</rscale>
<asrwt>0</asrwt>
<pdfrwt beam="1">  1        3 0.10585780E-02 0.85130224E+02</pdfrwt>
<pdfrwt beam="2">  1       -3 0.19625319E+00 0.85130224E+02</pdfrwt>
<totfact> 0.91055638E+02</totfact>
</mgrwt>
</event>
<event>
 4    1  0.4941530E-001  0.8684974E+02  0.7546771E-02  0.1310665E+00
          2   -1    0    0  501    0  0.00000000000E+00  0.00000000000E+00  0.40244501660E+03  0.40244501660E+03  0.00000000000E+00 0. -1.
         -2   -1    0    0    0  501 -0.00000000000E+00 -0.00000000000E+00 -0.40488875766E+02  0.40488875766E+02  0.00000000000E+00 0.  1.
         24    1    1    2    0    0 -0.52944755034E-01 -0.32797221386E+02  0.34328357256E+03  0.35409954487E+03  0.80419002446E+02 0. -1.
        -24    1    1    2    0    0  0.52944755034E-01  0.32797221386E+02  0.18672568269E+02  0.88834347490E+02  0.80419002446E+02 0.  1.
<mgrwt>
<rscale>  0 0.86849735E+02</rscale>
<asrwt>0</asrwt>
<pdfrwt beam="1">  1        2 0.61914615E-01 0.86849735E+02</pdfrwt>
<pdfrwt beam="2">  1       -2 0.62290581E-02 0.86849735E+02</pdfrwt>
<totfact> 0.10143843E+04</totfact>
</mgrwt>
</event>
<event>
 4    1  0.4941530E-001  0.1474456E+03  0.7546771E-02  0.1203647E+00
          2   -1    0    0  501    0  0.00000000000E+00  0.00000000000E+00  0.24332208848E+04  0.24332208848E+04  0.00000000000E+00 0. -1.
         -2   -1    0    0    0  501 -0.00000000000E+00 -0.00000000000E+00 -0.90798430220E+01  0.90798430220E+01  0.00000000000E+00 0.  1.
         24    1    1    2    0    0  0.10067943749E+03 -0.71670268878E+02  0.13664431560E+04  0.13743751638E+04  0.80419002446E+02 0. -1.
        -24    1    1    2    0    0 -0.10067943749E+03  0.71670268878E+02  0.10576978858E+04  0.10679255640E+04  0.80419002446E+02 0.  0.
<mgrwt>
<rscale>  0 0.14744556E+03</rscale>
<asrwt>0</asrwt>
<pdfrwt beam="1">  1        2 0.37434115E+00 0.14744556E+03</pdfrwt>
<pdfrwt beam="2">  1       -2 0.13969009E-02 0.14744556E+03</pdfrwt>
<totfact> 0.57037969E+03</totfact>
</mgrwt>
</event>
<event>
 4    1  0.4941530E-001  0.8896769E+02  0.7546771E-02  0.1305371E+00
         -1   -1    0    0    0  501 -0.00000000000E+00  0.00000000000E+00  0.27584615572E+02  0.27584615572E+02  0.00000000000E+00 0.  1.
          1   -1    0    0  501    0  0.00000000000E+00 -0.00000000000E+00 -0.30070914121E+03  0.30070914121E+03  0.00000000000E+00 0. -1.
         24    1    1    2    0    0 -0.28732958197E+02 -0.24948976880E+02 -0.10144313474E+03  0.13492946259E+03  0.80419002446E+02 0.  1.
        -24    1    1    2    0    0  0.28732958197E+02  0.24948976880E+02 -0.17168139090E+03  0.19336429420E+03  0.80419002446E+02 0. -1.
<mgrwt>
<rscale>  0 0.88967692E+02</rscale>
<asrwt>0</asrwt>
<pdfrwt beam="1">  1        1 0.46262945E-01 0.88967692E+02</pdfrwt>
<pdfrwt beam="2">  1       -1 0.42437870E-02 0.88967692E+02</pdfrwt>
<totfact> 0.17657149E+04</totfact>
</mgrwt>
</event>
<event>
 4    1  0.4941530E-001  0.8719920E+02  0.7546771E-02  0.1309780E+00
          3   -1    0    0  501    0  0.00000000000E+00  0.00000000000E+00  0.32361571836E+03  0.32361571836E+03  0.00000000000E+00 0. -1.
         -3   -1    0    0    0  501 -0.00000000000E+00 -0.00000000000E+00 -0.50092408050E+02  0.50092408050E+02  0.00000000000E+00 0.  1.
         24    1    1    2    0    0  0.34482564936E+01 -0.33534973835E+02  0.60858788390E+00  0.87201326117E+02  0.80419002446E+02 0. -1.
        -24    1    1    2    0    0 -0.34482564936E+01  0.33534973835E+02  0.27291472243E+03  0.28650680029E+03  0.80419002446E+02 0. -1.
<mgrwt>
<rscale>  0 0.87199202E+02</rscale>
<asrwt>0</asrwt>
<pdfrwt beam="1">  1        3 0.49787032E-01 0.87199202E+02</pdfrwt>
<pdfrwt beam="2">  1       -3 0.77065245E-02 0.87199202E+02</pdfrwt>
<totfact> 0.97620327E+02</totfact>
</mgrwt>
</event>
<event>
 4    1  0.4941530E-001  0.1419135E+03  0.7546771E-02  0.1210777E+00
         -2   -1    0    0    0  501 -0.00000000000E+00  0.00000000000E+00  0.88837392512E+01  0.88837392512E+01  0.00000000000E+00 0.  1.
          2   -1    0    0  501    0  0.00000000000E+00 -0.00000000000E+00 -0.33835683772E+04  0.33835683772E+04  0.00000000000E+00 0. -1.
         24    1    1    2    0    0 -0.11651297749E+03 -0.98468151727E+01 -0.26617453688E+04  0.26655258126E+04  0.80419002446E+02 0. -1.
        -24    1    1    2    0    0  0.11651297749E+03  0.98468151727E+01 -0.71293926923E+03  0.72692630387E+03  0.80419002446E+02 0.  1.
<mgrwt>
<rscale>  0 0.14191353E+03</rscale>
<asrwt>0</asrwt>
<pdfrwt beam="1">  1        2 0.52054831E+00 0.14191353E+03</pdfrwt>
<pdfrwt beam="2">  1       -2 0.13667309E-02 0.14191353E+03</pdfrwt>
<totfact> 0.16792785E+03</totfact>
</mgrwt>
</event>
<event>
 4    1  0.4941530E-001  0.8321104E+02  0.7546771E-02  0.1320178E+00
         -2   -1    0    0    0  501 -0.00000000000E+00  0.00000000000E+00  0.22390199926E+03  0.22390199926E+03  0.00000000000E+00 0.  1.
          2   -1    0    0  501    0  0.00000000000E+00 -0.00000000000E+00 -0.22584638832E+03  0.22584638832E+03  0.00000000000E+00 0. -1.
         24    1    1    2    0    0  0.16234669902E+01 -0.21312582475E+02 -0.20988412776E+03  0.22577737897E+03  0.80419002446E+02 0. -1.
        -24    1    1    2    0    0 -0.16234669902E+01  0.21312582475E+02  0.20793973869E+03  0.22397100861E+03  0.80419002446E+02 0.  1.
<mgrwt>
<rscale>  0 0.83211044E+02</rscale>
<asrwt>0</asrwt>
<pdfrwt beam="1">  1        2 0.34745598E-01 0.83211044E+02</pdfrwt>
<pdfrwt beam="2">  1       -2 0.34446461E-01 0.83211044E+02</pdfrwt>
<totfact> 0.11443926E+03</totfact>
</mgrwt>
</event>
<event>
 4    1  0.4941530E-001  0.8117010E+02  0.7546771E-02  0.1325763E+00
          2   -1    0    0  501    0  0.00000000000E+00  0.00000000000E+00  0.22783287453E+03  0.22783287453E+03  0.00000000000E+00 0. -1.
         -2   -1    0    0    0  501 -0.00000000000E+00 -0.00000000000E+00 -0.30236988413E+02  0.30236988413E+02  0.00000000000E+00 0.  1.
         24    1    1    2    0    0 -0.90354748013E+01  0.63028739793E+01  0.71852932516E+02  0.10840399389E+03  0.80419002446E+02 0. -1.
        -24    1    1    2    0    0  0.90354748013E+01 -0.63028739793E+01  0.12574295360E+03  0.14966586906E+03  0.80419002446E+02 0.  0.
<mgrwt>
<rscale>  0 0.81170091E+02</rscale>
<asrwt>0</asrwt>
<pdfrwt beam="1">  1        2 0.35051210E-01 0.81170101E+02</pdfrwt>
<pdfrwt beam="2">  1       -2 0.46518445E-02 0.81170101E+02</pdfrwt>
<totfact> 0.28193338E+04</totfact>
</mgrwt>
</event>
<event>
 4    1  0.4941530E-001  0.9378253E+02  0.7546771E-02  0.1293942E+00
         -2   -1    0    0    0  501 -0.00000000000E+00  0.00000000000E+00  0.22574978969E+02  0.22574978969E+02  0.00000000000E+00 0.  1.
          2   -1    0    0  501    0  0.00000000000E+00 -0.00000000000E+00 -0.60681284351E+03  0.60681284351E+03  0.00000000000E+00 0. -1.
         24    1    1    2    0    0  0.79257161591E+01  0.47593378830E+02 -0.48039966760E+03  0.48946808198E+03  0.80419002446E+02 0. -1.
        -24    1    1    2    0    0 -0.79257161591E+01 -0.47593378830E+02 -0.10383819694E+03  0.13991974050E+03  0.80419002446E+02 0.  1.
<mgrwt>
<rscale>  0 0.93782528E+02</rscale>
<asrwt>0</asrwt>
<pdfrwt beam="1">  1        2 0.93355823E-01 0.93782528E+02</pdfrwt>
<pdfrwt beam="2">  1       -2 0.34730737E-02 0.93782528E+02</pdfrwt>
<totfact> 0.15557816E+04</totfact>
</mgrwt>
</event>
<event>
 4    1  0.4941530E-001  0.1142454E+03  0.7546771E-02  0.1252904E+00
         -1   -1    0    0    0  501 -0.00000000000E+00  0.00000000000E+00  0.53279279424E+01  0.53279279424E+01  0.00000000000E+00 0.  1.
          1   -1    0    0  501    0  0.00000000000E+00 -0.00000000000E+00 -0.48043855909E+04  0.48043855909E+04  0.00000000000E+00 0. -1.
         24    1    1    2    0    0 -0.25954253101E+02  0.76884190262E+02 -0.71595017648E+03  0.72500805038E+03  0.80419002446E+02 0.  1.
        -24    1    1    2    0    0  0.25954253101E+02 -0.76884190262E+02 -0.40831074865E+04  0.40847054685E+04  0.80419002446E+02 0. -1.
<mgrwt>
<rscale>  0 0.11424543E+03</rscale>
<asrwt>0</asrwt>
<pdfrwt beam="1">  1        1 0.73913848E+00 0.11424543E+03</pdfrwt>
<pdfrwt beam="2">  1       -1 0.81967874E-03 0.11424543E+03</pdfrwt>
<totfact> 0.58405712E+01</totfact>
</mgrwt>
</event>
<event>
 4    1  0.4941530E-001  0.8627292E+02  0.7546771E-02  0.1312137E+00
         -1   -1    0    0    0  501 -0.00000000000E+00  0.00000000000E+00  0.77636431684E+01  0.77636431684E+01  0.00000000000E+00 0.  1.
          1   -1    0    0  501    0  0.00000000000E+00 -0.00000000000E+00 -0.97863785582E+03  0.97863785582E+03  0.00000000000E+00 0. -1.
         24    1    1    2    0    0 -0.16926106729E+02 -0.26254612570E+02 -0.55583169817E+03  0.56248723578E+03  0.80419002446E+02 0.  0.
        -24    1    1    2    0    0  0.16926106729E+02  0.26254612570E+02 -0.41504251448E+03  0.42391426321E+03  0.80419002446E+02 0. -1.
<mgrwt>
<rscale>  0 0.86272913E+02</rscale>
<asrwt>0</asrwt>
<pdfrwt beam="1">  1        1 0.15055960E+00 0.86272924E+02</pdfrwt>
<pdfrwt beam="2">  1       -1 0.11944072E-02 0.86272924E+02</pdfrwt>
<totfact> 0.22082355E+04</totfact>
</mgrwt>
</event>
<event>
 4    1  0.4941530E-001  0.9807959E+02  0.7546771E-02  0.1284387E+00
         -2   -1    0    0    0  501 -0.00000000000E+00  0.00000000000E+00  0.10001460922E+03  0.10001460922E+03  0.00000000000E+00 0.  1.
          2   -1    0    0  501    0  0.00000000000E+00 -0.00000000000E+00 -0.21305999549E+03  0.21305999549E+03  0.00000000000E+00 0. -1.
         24    1    1    2    0    0 -0.48141232676E+01  0.55939385173E+02 -0.17246267810E+03  0.19840106322E+03  0.80419002446E+02 0. -1.
        -24    1    1    2    0    0  0.48141232676E+01 -0.55939385173E+02  0.59417291818E+02  0.11467354149E+03  0.80419002446E+02 0.  1.
<mgrwt>
<rscale>  0 0.98079593E+02</rscale>
<asrwt>0</asrwt>
<pdfrwt beam="1">  1        2 0.32778461E-01 0.98079593E+02</pdfrwt>
<pdfrwt beam="2">  1       -2 0.15386863E-01 0.98079593E+02</pdfrwt>
<totfact> 0.48861641E+03</totfact>
</mgrwt>
</event>
<event>
 4    1  0.4941530E-001  0.8174295E+02  0.7546771E-02  0.1324177E+00
         -1   -1    0    0    0  501 -0.00000000000E+00  0.00000000000E+00  0.15382212521E+02  0.15382212521E+02  0.00000000000E+00 0.  1.
          1   -1    0    0  501    0  0.00000000000E+00 -0.00000000000E+00 -0.54290486453E+03  0.54290486453E+03  0.00000000000E+00 0. -1.
         24    1    1    2    0    0 -0.13810839843E+02 -0.48943183643E+01 -0.13896368201E+03  0.16122287220E+03  0.80419002446E+02 0.  1.
        -24    1    1    2    0    0  0.13810839843E+02  0.48943183643E+01 -0.38855897000E+03  0.39706420484E+03  0.80419002446E+02 0. -1.
<mgrwt>
<rscale>  0 0.81742948E+02</rscale>
<asrwt>0</asrwt>
<pdfrwt beam="1">  1        1 0.83523820E-01 0.81742948E+02</pdfrwt>
<pdfrwt beam="2">  1       -1 0.23664944E-02 0.81742948E+02</pdfrwt>
<totfact> 0.19416577E+04</totfact>
</mgrwt>
</event>
<event>
 4    1  0.4941530E-001  0.8472667E+02  0.7546771E-02  0.1316149E+00
          2   -1    0    0  501    0  0.00000000000E+00  0.00000000000E+00  0.55150964553E+01  0.55150964553E+01  0.00000000000E+00 0. -1.
         -2   -1    0    0    0  501 -0.00000000000E+00 -0.00000000000E+00 -0.15130189789E+04  0.15130189789E+04  0.00000000000E+00 0.  1.
         24    1    1    2    0    0  0.20595256723E+02 -0.16947825268E+02 -0.46995050845E+03  0.47752705654E+03  0.80419002446E+02 0. -1.
        -24    1    1    2    0    0 -0.20595256723E+02  0.16947825268E+02 -0.10375533740E+04  0.10410070188E+04  0.80419002446E+02 0.  1.
<mgrwt>
<rscale>  0 0.84726674E+02</rscale>
<asrwt>0</asrwt>
<pdfrwt beam="1">  1        2 0.84847617E-03 0.84726674E+02</pdfrwt>
<pdfrwt beam="2">  1       -2 0.23277221E+00 0.84726674E+02</pdfrwt>
<totfact> 0.15323702E+03</totfact>
</mgrwt>
</event>
<event>
 4    1  0.4941530E-001  0.9384187E+02  0.7546771E-02  0.1293806E+00
         -2   -1    0    0    0  501 -0.00000000000E+00  0.00000000000E+00  0.77645660944E+01  0.77645660944E+01  0.00000000000E+00 0.  1.
          2   -1    0    0  501    0  0.00000000000E+00 -0.00000000000E+00 -0.15181047821E+04  0.15181047821E+04  0.00000000000E+00 0. -1.
         24    1    1    2    0    0  0.32168928063E+02  0.36114265891E+02 -0.11388493081E+04  0.11427090805E+04  0.80419002446E+02 0.  0.
        -24    1    1    2    0    0 -0.32168928063E+02 -0.36114265891E+02 -0.37149090798E+03  0.38316026777E+03  0.80419002446E+02 0.  0.
<mgrwt>
<rscale>  0 0.93841867E+02</rscale>
<asrwt>0</asrwt>
<pdfrwt beam="1">  1        2 0.23355493E+00 0.93841867E+02</pdfrwt>
<pdfrwt beam="2">  1       -2 0.11945469E-02 0.93841867E+02</pdfrwt>
<totfact> 0.20652977E+04</totfact>
</mgrwt>
</event>
<event>
 4    1  0.4941530E-001  0.1035455E+03  0.7546771E-02  0.1273012E+00
          1   -1    0    0  501    0  0.00000000000E+00  0.00000000000E+00  0.23052017848E+02  0.23052017848E+02  0.00000000000E+00 0. -1.
         -1   -1    0    0    0  501 -0.00000000000E+00 -0.00000000000E+00 -0.54456190522E+03  0.54456190522E+03  0.00000000000E+00 0.  1.
         24    1    1    2    0    0 -0.64667175107E+02 -0.85209579669E+01 -0.36916221846E+03  0.38340893281E+03  0.80419002446E+02 0.  1.
        -24    1    1    2    0    0  0.64667175107E+02  0.85209579669E+01 -0.15234766891E+03  0.18420499026E+03  0.80419002446E+02 0. -1.
<mgrwt>
<rscale>  0 0.10354548E+03</rscale>
<asrwt>0</asrwt>
<pdfrwt beam="1">  1        1 0.35464647E-02 0.10354548E+03</pdfrwt>
<pdfrwt beam="2">  1       -1 0.83778746E-01 0.10354548E+03</pdfrwt>
<totfact> 0.37549348E+03</totfact>
</mgrwt>
</event>
<event>
 4    1  0.4941530E-001  0.8841468E+02  0.7546771E-02  0.1306737E+00
          2   -1    0    0  501    0  0.00000000000E+00  0.00000000000E+00  0.10228340417E+04  0.10228340417E+04  0.00000000000E+00 0. -1.
         -2   -1    0    0    0  501 -0.00000000000E+00 -0.00000000000E+00 -0.98975158645E+01  0.98975158645E+01  0.00000000000E+00 0.  1.
         24    1    1    2    0    0  0.25566293841E+02 -0.26387567417E+02  0.75293335395E+03  0.75810671448E+03  0.80419002446E+02 0. -1.
        -24    1    1    2    0    0 -0.25566293841E+02  0.26387567417E+02  0.26000317191E+03  0.27462484311E+03  0.80419002446E+02 0.  1.
<mgrwt>
<rscale>  0 0.88414677E+02</rscale>
<asrwt>0</asrwt>
<pdfrwt beam="1">  1        2 0.15735900E+00 0.88414677E+02</pdfrwt>
<pdfrwt beam="2">  1       -2 0.15226956E-02 0.88414677E+02</pdfrwt>
<totfact> 0.26831966E+04</totfact>
</mgrwt>
</event>
<event>
 4    1  0.4941530E-001  0.8385258E+02  0.7546771E-02  0.1318461E+00
          2   -1    0    0  501    0  0.00000000000E+00  0.00000000000E+00  0.12133106390E+04  0.12133106390E+04  0.00000000000E+00 0. -1.
         -2   -1    0    0    0  501 -0.00000000000E+00 -0.00000000000E+00 -0.58505585649E+01  0.58505585649E+01  0.00000000000E+00 0.  1.
         24    1    1    2    0    0 -0.23179678588E+02  0.51713031862E+01  0.66307979004E+03  0.66836072879E+03  0.80419002446E+02 0.  1.
        -24    1    1    2    0    0  0.23179678588E+02 -0.51713031862E+01  0.54438029036E+03  0.55080046874E+03  0.80419002446E+02 0. -1.
<mgrwt>
<rscale>  0 0.83852584E+02</rscale>
<asrwt>0</asrwt>
<pdfrwt beam="1">  1        2 0.18666297E+00 0.83852584E+02</pdfrwt>
<pdfrwt beam="2">  1       -2 0.90008690E-03 0.83852584E+02</pdfrwt>
<totfact> 0.44044169E+04</totfact>
</mgrwt>
</event>
<event>
 4    1  0.4941530E-001  0.8823831E+02  0.7546771E-02  0.1307175E+00
         -1   -1    0    0    0  501 -0.00000000000E+00  0.00000000000E+00  0.45939608129E+03  0.45939608129E+03  0.00000000000E+00 0.  1.
          1   -1    0    0  501    0  0.00000000000E+00 -0.00000000000E+00 -0.22690438846E+03  0.22690438846E+03  0.00000000000E+00 0. -1.
         24    1    1    2    0    0 -0.27649200013E+02 -0.23543681285E+02  0.44633180627E+03  0.45497041710E+03  0.80419002446E+02 0.  1.
        -24    1    1    2    0    0  0.27649200013E+02  0.23543681285E+02 -0.21384011344E+03  0.23133005265E+03  0.80419002446E+02 0. -1.
<mgrwt>
<rscale>  0 0.88238309E+02</rscale>
<asrwt>0</asrwt>
<pdfrwt beam="1">  1        1 0.34908368E-01 0.88238309E+02</pdfrwt>
<pdfrwt beam="2">  1       -1 0.70676320E-01 0.88238309E+02</pdfrwt>
<totfact> 0.26905347E+02</totfact>
</mgrwt>
</event>
<event>
 4    1  0.4941530E-001  0.8645812E+02  0.7546771E-02  0.1311663E+00
          2   -1    0    0  501    0  0.00000000000E+00  0.00000000000E+00  0.51321499486E+02  0.51321499486E+02  0.00000000000E+00 0. -1.
         -2   -1    0    0    0  501 -0.00000000000E+00 -0.00000000000E+00 -0.37385807922E+03  0.37385807922E+03  0.00000000000E+00 0.  1.
         24    1    1    2    0    0  0.28955403039E+02  0.13014407986E+02  0.48257211138E+01  0.86592688600E+02  0.80419002446E+02 0.  0.
        -24    1    1    2    0    0 -0.28955403039E+02 -0.13014407986E+02 -0.32736230085E+03  0.33858689011E+03  0.80419002446E+02 0.  1.
<mgrwt>
<rscale>  0 0.86458118E+02</rscale>
<asrwt>0</asrwt>
<pdfrwt beam="1">  1        2 0.78956153E-02 0.86458118E+02</pdfrwt>
<pdfrwt beam="2">  1       -2 0.57516628E-01 0.86458118E+02</pdfrwt>
<totfact> 0.23328006E+03</totfact>
</mgrwt>
</event>
<event>
 4    1  0.4941530E-001  0.8516176E+02  0.7546771E-02  0.1315010E+00
          1   -1    0    0  501    0  0.00000000000E+00  0.00000000000E+00  0.29470071107E+03  0.29470071107E+03  0.00000000000E+00 0. -1.
         -1   -1    0    0    0  501 -0.00000000000E+00 -0.00000000000E+00 -0.27367206811E+02  0.27367206811E+02  0.00000000000E+00 0.  1.
         24    1    1    2    0    0  0.24051549878E+02 -0.14381669321E+02  0.82551242806E+02  0.11860536711E+03  0.80419002446E+02 0.  1.
        -24    1    1    2    0    0 -0.24051549878E+02  0.14381669321E+02  0.18478226146E+03  0.20346255077E+03  0.80419002446E+02 0.  1.
<mgrwt>
<rscale>  0 0.85161760E+02</rscale>
<asrwt>0</asrwt>
<pdfrwt beam="1">  1        1 0.45338569E-01 0.85161760E+02</pdfrwt>
<pdfrwt beam="2">  1       -1 0.42103397E-02 0.85161760E+02</pdfrwt>
<totfact> 0.18221305E+04</totfact>
</mgrwt>
</event>
<event>
 4    1  0.4941530E-001  0.8320505E+02  0.7546771E-02  0.1320194E+00
          2   -1    0    0  501    0  0.00000000000E+00  0.00000000000E+00  0.71165188442E+03  0.71165188442E+03  0.00000000000E+00 0. -1.
         -2   -1    0    0    0  501 -0.00000000000E+00 -0.00000000000E+00 -0.10610963878E+02  0.10610963878E+02  0.00000000000E+00 0.  1.
         24    1    1    2    0    0 -0.88100855542E+00 -0.21332702718E+02  0.24635697419E+03  0.26002852741E+03  0.80419002446E+02 0.  1.
        -24    1    1    2    0    0  0.88100855542E+00  0.21332702718E+02  0.45468394635E+03  0.46223432089E+03  0.80419002446E+02 0. -1.
<mgrwt>
<rscale>  0 0.83205036E+02</rscale>
<asrwt>0</asrwt>
<pdfrwt beam="1">  1        2 0.10948487E+00 0.83205047E+02</pdfrwt>
<pdfrwt beam="2">  1       -2 0.16324565E-02 0.83205047E+02</pdfrwt>
<totfact> 0.38066609E+04</totfact>
</mgrwt>
</event>
<event>
 4    1  0.4941530E-001  0.1035768E+03  0.7546771E-02  0.1272949E+00
          4   -1    0    0  501    0  0.00000000000E+00  0.00000000000E+00  0.41465085474E+03  0.41465085474E+03  0.00000000000E+00 0. -1.
         -4   -1    0    0    0  501 -0.00000000000E+00 -0.00000000000E+00 -0.45490110384E+02  0.45490110384E+02  0.00000000000E+00 0.  1.
         24    1    1    2    0    0  0.64087272044E+01  0.64960497591E+02  0.33566587623E+03  0.35128298344E+03  0.80419002446E+02 0. -1.
        -24    1    1    2    0    0 -0.64087272044E+01 -0.64960497591E+02  0.33494868123E+02  0.10885798169E+03  0.80419002446E+02 0.  1.
<mgrwt>
<rscale>  0 0.10357680E+03</rscale>
<asrwt>0</asrwt>
<pdfrwt beam="1">  1        4 0.63792437E-01 0.10357680E+03</pdfrwt>
<pdfrwt beam="2">  1       -4 0.69984788E-02 0.10357680E+03</pdfrwt>
<totfact> 0.50380831E+02</totfact>
</mgrwt>
</event>
<event>
 4    1  0.4941530E-001  0.8178363E+02  0.7546771E-02  0.1324065E+00
          1   -1    0    0  501    0  0.00000000000E+00  0.00000000000E+00  0.68101826049E+03  0.68101826049E+03  0.00000000000E+00 0. -1.
         -1   -1    0    0    0  501 -0.00000000000E+00 -0.00000000000E+00 -0.10298124879E+02  0.10298124879E+02  0.00000000000E+00 0.  1.
         24    1    1    2    0    0 -0.10699382681E+02 -0.10337727964E+02  0.26099038644E+03  0.27350419225E+03  0.80419002446E+02 0.  1.
        -24    1    1    2    0    0  0.10699382681E+02  0.10337727964E+02  0.40972974917E+03  0.41781219312E+03  0.80419002446E+02 0.  1.
<mgrwt>
<rscale>  0 0.81783625E+02</rscale>
<asrwt>0</asrwt>
<pdfrwt beam="1">  1        1 0.10477200E+00 0.81783625E+02</pdfrwt>
<pdfrwt beam="2">  1       -1 0.15843274E-02 0.81783625E+02</pdfrwt>
<totfact> 0.25349029E+04</totfact>
</mgrwt>
</event>
<event>
 4    1  0.4941530E-001  0.9331885E+02  0.7546771E-02  0.1295008E+00
         -2   -1    0    0    0  501 -0.00000000000E+00  0.00000000000E+00  0.94106803657E+01  0.94106803657E+01  0.00000000000E+00 0.  1.
          2   -1    0    0  501    0  0.00000000000E+00 -0.00000000000E+00 -0.97581735284E+03  0.97581735284E+03  0.00000000000E+00 0. -1.
         24    1    1    2    0    0  0.35818740769E+02 -0.30954958329E+02 -0.59520397744E+03  0.60247504707E+03  0.80419002446E+02 0.  0.
        -24    1    1    2    0    0 -0.35818740769E+02  0.30954958329E+02 -0.37120269503E+03  0.38275298613E+03  0.80419002446E+02 0.  1.
<mgrwt>
<rscale>  0 0.93318849E+02</rscale>
<asrwt>0</asrwt>
<pdfrwt beam="1">  1        2 0.15012563E+00 0.93318849E+02</pdfrwt>
<pdfrwt beam="2">  1       -2 0.14477981E-02 0.93318849E+02</pdfrwt>
<totfact> 0.30881750E+04</totfact>
</mgrwt>
</event>
<event>
 4    1  0.4941530E-001  0.1149014E+03  0.7546771E-02  0.1251753E+00
         -1   -1    0    0    0  501 -0.00000000000E+00  0.00000000000E+00  0.48639917165E+02  0.48639917165E+02  0.00000000000E+00 0.  1.
          1   -1    0    0  501    0  0.00000000000E+00 -0.00000000000E+00 -0.52282465914E+03  0.52282465914E+03  0.00000000000E+00 0. -1.
         24    1    1    2    0    0 -0.68305271286E+02  0.45491761988E+02 -0.38958181663E+02  0.12132628061E+03  0.80419002446E+02 0.  1.
        -24    1    1    2    0    0  0.68305271286E+02 -0.45491761988E+02 -0.43522656032E+03  0.45013829570E+03  0.80419002446E+02 0. -1.
<mgrwt>
<rscale>  0 0.11490138E+03</rscale>
<asrwt>0</asrwt>
<pdfrwt beam="1">  1        1 0.80434567E-01 0.11490138E+03</pdfrwt>
<pdfrwt beam="2">  1       -1 0.74830638E-02 0.11490138E+03</pdfrwt>
<totfact> 0.39012379E+03</totfact>
</mgrwt>
</event>
<event>
 4    1  0.4941530E-001  0.9900573E+02  0.7546771E-02  0.1282401E+00
         -1   -1    0    0    0  501 -0.00000000000E+00  0.00000000000E+00  0.24766792402E+02  0.24766792402E+02  0.00000000000E+00 0.  1.
          1   -1    0    0  501    0  0.00000000000E+00 -0.00000000000E+00 -0.91127816427E+03  0.91127816427E+03  0.00000000000E+00 0. -1.
         24    1    1    2    0    0 -0.52899023082E+02 -0.23164907143E+02 -0.91244951857E+02  0.13463943241E+03  0.80419002446E+02 0.  1.
        -24    1    1    2    0    0  0.52899023082E+02  0.23164907143E+02 -0.79526642001E+03  0.80140552426E+03  0.80419002446E+02 0. -1.
<mgrwt>
<rscale>  0 0.99005735E+02</rscale>
<asrwt>0</asrwt>
<pdfrwt beam="1">  1        1 0.14019662E+00 0.99005735E+02</pdfrwt>
<pdfrwt beam="2">  1       -1 0.38102762E-02 0.99005735E+02</pdfrwt>
<totfact> 0.47566930E+03</totfact>
</mgrwt>
</event>
<event>
 4    1  0.4941530E-001  0.1023203E+03  0.7546771E-02  0.1275491E+00
         -2   -1    0    0    0  501 -0.00000000000E+00  0.00000000000E+00  0.83201700324E+02  0.83201700324E+02  0.00000000000E+00 0.  1.
          2   -1    0    0  501    0  0.00000000000E+00 -0.00000000000E+00 -0.16076076100E+03  0.16076076100E+03  0.00000000000E+00 0. -1.
         24    1    1    2    0    0  0.60256297544E+02 -0.19271852203E+02 -0.95637870803E+02  0.14005728816E+03  0.80419002446E+02 0. -1.
        -24    1    1    2    0    0 -0.60256297544E+02  0.19271852203E+02  0.18078810123E+02  0.10390517317E+03  0.80419002446E+02 0.  1.
<mgrwt>
<rscale>  0 0.10232029E+03</rscale>
<asrwt>0</asrwt>
<pdfrwt beam="1">  1        2 0.24732425E-01 0.10232029E+03</pdfrwt>
<pdfrwt beam="2">  1       -2 0.12800262E-01 0.10232029E+03</pdfrwt>
<totfact> 0.89333140E+03</totfact>
</mgrwt>
</event>
<event>
 4    1  0.4941530E-001  0.1161079E+03  0.7546771E-02  0.1249659E+00
          1   -1    0    0  501    0  0.00000000000E+00  0.00000000000E+00  0.14960959621E+04  0.14960959621E+04  0.00000000000E+00 0. -1.
         -1   -1    0    0    0  501 -0.00000000000E+00 -0.00000000000E+00 -0.17473922174E+02  0.17473922174E+02  0.00000000000E+00 0.  1.
         24    1    1    2    0    0 -0.64520404475E+01 -0.83499694731E+02  0.21263662335E+03  0.24227128883E+03  0.80419002446E+02 0.  1.
        -24    1    1    2    0    0  0.64520404475E+01  0.83499694731E+02  0.12659854166E+04  0.12712985955E+04  0.80419002446E+02 0. -1.
<mgrwt>
<rscale>  0 0.11610790E+03</rscale>
<asrwt>0</asrwt>
<pdfrwt beam="1">  1        1 0.23016851E+00 0.11610790E+03</pdfrwt>
<pdfrwt beam="2">  1       -1 0.26882969E-02 0.11610790E+03</pdfrwt>
<totfact> 0.31556104E+03</totfact>
</mgrwt>
</event>
<event>
 4    1  0.4941530E-001  0.1234215E+03  0.7546771E-02  0.1237557E+00
          1   -1    0    0  501    0  0.00000000000E+00  0.00000000000E+00  0.62960918516E+03  0.62960918516E+03  0.00000000000E+00 0. -1.
         -1   -1    0    0    0  501 -0.00000000000E+00 -0.00000000000E+00 -0.26389063314E+02  0.26389063314E+02  0.00000000000E+00 0.  1.
         24    1    1    2    0    0 -0.73350987430E+02 -0.58183169864E+02  0.20701498745E+03  0.24101466677E+03  0.80419002446E+02 0. -1.
        -24    1    1    2    0    0  0.73350987430E+02  0.58183169864E+02  0.39620513440E+03  0.41498358171E+03  0.80419002446E+02 0.  0.
<mgrwt>
<rscale>  0 0.12342149E+03</rscale>
<asrwt>0</asrwt>
<pdfrwt beam="1">  1        1 0.96862940E-01 0.12342149E+03</pdfrwt>
<pdfrwt beam="2">  1       -1 0.40598564E-02 0.12342149E+03</pdfrwt>
<totfact> 0.75486317E+03</totfact>
</mgrwt>
</event>
<event>
 4    1  0.4941530E-001  0.9629735E+02  0.7546771E-02  0.1288281E+00
          1   -1    0    0  501    0  0.00000000000E+00  0.00000000000E+00  0.31726563201E+02  0.31726563201E+02  0.00000000000E+00 0. -1.
         -1   -1    0    0    0  501 -0.00000000000E+00 -0.00000000000E+00 -0.55966428800E+03  0.55966428800E+03  0.00000000000E+00 0.  1.
         24    1    1    2    0    0  0.39793749943E+02  0.34963135371E+02 -0.46835205602E+03  0.47814937802E+03  0.80419002446E+02 0.  1.
        -24    1    1    2    0    0 -0.39793749943E+02 -0.34963135371E+02 -0.59585668779E+02  0.11324147318E+03  0.80419002446E+02 0. -1.
<mgrwt>
<rscale>  0 0.96297348E+02</rscale>
<asrwt>0</asrwt>
<pdfrwt beam="1">  1        1 0.48810095E-02 0.96297348E+02</pdfrwt>
<pdfrwt beam="2">  1       -1 0.86102202E-01 0.96297348E+02</pdfrwt>
<totfact> 0.22859108E+03</totfact>
</mgrwt>
</event>
<event>
 4    1  0.4941530E-001  0.1226507E+03  0.7546771E-02  0.1238787E+00
          2   -1    0    0  501    0  0.00000000000E+00  0.00000000000E+00  0.20062258608E+03  0.20062258608E+03  0.00000000000E+00 0. -1.
         -2   -1    0    0    0  501 -0.00000000000E+00 -0.00000000000E+00 -0.85638420428E+02  0.85638420428E+02  0.00000000000E+00 0.  1.
         24    1    1    2    0    0  0.53079851928E+02  0.75884749007E+02  0.70034640299E+01  0.12285043865E+03  0.80419002446E+02 0. -1.
        -24    1    1    2    0    0 -0.53079851928E+02 -0.75884749007E+02  0.10798070163E+03  0.16341056787E+03  0.80419002446E+02 0.  0.
<mgrwt>
<rscale>  0 0.12265066E+03</rscale>
<asrwt>0</asrwt>
<pdfrwt beam="1">  1        2 0.30865013E-01 0.12265068E+03</pdfrwt>
<pdfrwt beam="2">  1       -2 0.13175142E-01 0.12265068E+03</pdfrwt>
<totfact> 0.68019089E+03</totfact>
</mgrwt>
</event>
<event>
 4    1  0.4941530E-001  0.8346922E+02  0.7546771E-02  0.1319485E+00
          1   -1    0    0  501    0  0.00000000000E+00  0.00000000000E+00  0.17641691982E+04  0.17641691982E+04  0.00000000000E+00 0. -1.
         -1   -1    0    0    0  501 -0.00000000000E+00 -0.00000000000E+00 -0.53323315748E+02  0.53323315748E+02  0.00000000000E+00 0.  1.
         24    1    1    2    0    0  0.15218368540E+02  0.16379766727E+02 -0.19024258405E+02  0.85609776669E+02  0.80419002446E+02 0.  1.
        -24    1    1    2    0    0 -0.15218368540E+02 -0.16379766727E+02  0.17298701408E+04  0.17318827373E+04  0.80419002446E+02 0. -1.
<mgrwt>
<rscale>  0 0.83469225E+02</rscale>
<asrwt>0</asrwt>
<pdfrwt beam="1">  1        1 0.27141060E+00 0.83469225E+02</pdfrwt>
<pdfrwt beam="2">  1       -1 0.82035884E-02 0.83469225E+02</pdfrwt>
<totfact> 0.41721478E+02</totfact>
</mgrwt>
</event>
<event>
 4    1  0.4941530E-001  0.1103284E+03  0.7546771E-02  0.1259963E+00
         -1   -1    0    0    0  501 -0.00000000000E+00  0.00000000000E+00  0.77538188445E+02  0.77538188445E+02  0.00000000000E+00 0.  1.
          1   -1    0    0  501    0  0.00000000000E+00 -0.00000000000E+00 -0.20361958845E+03  0.20361958845E+03  0.00000000000E+00 0. -1.
         24    1    1    2    0    0 -0.45265271292E+02 -0.60466506858E+02  0.42357085908E+01  0.11040969350E+03  0.80419002446E+02 0.  1.
        -24    1    1    2    0    0  0.45265271292E+02  0.60466506858E+02 -0.13031710860E+03  0.17074808340E+03  0.80419002446E+02 0. -1.
<mgrwt>
<rscale>  0 0.11032842E+03</rscale>
<asrwt>0</asrwt>
<pdfrwt beam="1">  1        1 0.31326090E-01 0.11032842E+03</pdfrwt>
<pdfrwt beam="2">  1       -1 0.11928952E-01 0.11032842E+03</pdfrwt>
<totfact> 0.62200385E+03</totfact>
</mgrwt>
</event>
<event>
 4    1  0.4941530E-001  0.1412270E+03  0.7546771E-02  0.1211687E+00
          1   -1    0    0  501    0  0.00000000000E+00  0.00000000000E+00  0.48490176992E+03  0.48490176992E+03  0.00000000000E+00 0. -1.
         -1   -1    0    0    0  501 -0.00000000000E+00 -0.00000000000E+00 -0.42269331882E+02  0.42269331882E+02  0.00000000000E+00 0.  1.
         24    1    1    2    0    0  0.13130962745E+02  0.11534919681E+03  0.17808327467E+03  0.22728556500E+03  0.80419002446E+02 0.  1.
        -24    1    1    2    0    0 -0.13130962745E+02 -0.11534919681E+03  0.26454916337E+03  0.29988553680E+03  0.80419002446E+02 0. -1.
<mgrwt>
<rscale>  0 0.14122703E+03</rscale>
<asrwt>0</asrwt>
<pdfrwt beam="1">  1        1 0.74600268E-01 0.14122703E+03</pdfrwt>
<pdfrwt beam="2">  1       -1 0.65029745E-02 0.14122703E+03</pdfrwt>
<totfact> 0.53656577E+03</totfact>
</mgrwt>
</event>
<event>
 4    1  0.4941530E-001  0.8407771E+02  0.7546771E-02  0.1317862E+00
          2   -1    0    0  501    0  0.00000000000E+00  0.00000000000E+00  0.27876435605E+04  0.27876435605E+04  0.00000000000E+00 0. -1.
         -2   -1    0    0    0  501 -0.00000000000E+00 -0.00000000000E+00 -0.97822683653E+01  0.97822683653E+01  0.00000000000E+00 0.  1.
         24    1    1    2    0    0 -0.31124279761E+01  0.24334314827E+02  0.25927749633E+04  0.25941378283E+04  0.80419002446E+02 0. -1.
        -24    1    1    2    0    0  0.31124279761E+01 -0.24334314827E+02  0.18508632880E+03  0.20328800051E+03  0.80419002446E+02 0.  1.
<mgrwt>
<rscale>  0 0.84077714E+02</rscale>
<asrwt>0</asrwt>
<pdfrwt beam="1">  1        2 0.42886761E+00 0.84077714E+02</pdfrwt>
<pdfrwt beam="2">  1       -2 0.15049666E-02 0.84077714E+02</pdfrwt>
<totfact> 0.33027818E+03</totfact>
</mgrwt>
</event>
<event>
 4    1  0.4941530E-001  0.8312760E+02  0.7546771E-02  0.1320403E+00
         -4   -1    0    0    0  501 -0.00000000000E+00  0.00000000000E+00  0.94915056450E+02  0.94915056450E+02  0.00000000000E+00 0.  1.
          4   -1    0    0  501    0  0.00000000000E+00 -0.00000000000E+00 -0.96304195805E+02  0.96304195805E+02  0.00000000000E+00 0. -1.
         24    1    1    2    0    0  0.20710294542E+02 -0.37499808785E+01  0.46535095707E+02  0.95266519530E+02  0.80419002446E+02 0.  0.
        -24    1    1    2    0    0 -0.20710294542E+02  0.37499808785E+01 -0.47924235063E+02  0.95952732725E+02  0.80419002446E+02 0. -1.
<mgrwt>
<rscale>  0 0.83127591E+02</rscale>
<asrwt>0</asrwt>
<pdfrwt beam="1">  1        4 0.14816030E-01 0.83127601E+02</pdfrwt>
<pdfrwt beam="2">  1       -4 0.14602316E-01 0.83127601E+02</pdfrwt>
<totfact> 0.22074949E+03</totfact>
</mgrwt>
</event>
<event>
 4    1  0.4941530E-001  0.8747670E+02  0.7546771E-02  0.1309080E+00
         -2   -1    0    0    0  501 -0.00000000000E+00  0.00000000000E+00  0.15128112736E+04  0.15128112736E+04  0.00000000000E+00 0.  1.
          2   -1    0    0  501    0  0.00000000000E+00 -0.00000000000E+00 -0.20326110434E+02  0.20326110434E+02  0.00000000000E+00 0. -1.
         24    1    1    2    0    0  0.29256023500E+02  0.18139496188E+02  0.81867891426E+02  0.11981036614E+03  0.80419002446E+02 0. -1.
        -24    1    1    2    0    0 -0.29256023500E+02 -0.18139496188E+02  0.14106172717E+04  0.14133270179E+04  0.80419002446E+02 0.  1.
<mgrwt>
<rscale>  0 0.87476695E+02</rscale>
<asrwt>0</asrwt>
<pdfrwt beam="1">  1        2 0.31270951E-02 0.87476695E+02</pdfrwt>
<pdfrwt beam="2">  1       -2 0.23274011E+00 0.87476695E+02</pdfrwt>
<totfact> 0.26349997E+02</totfact>
</mgrwt>
</event>
<event>
 4    1  0.4941530E-001  0.1035612E+03  0.7546771E-02  0.1272981E+00
          2   -1    0    0  501    0  0.00000000000E+00  0.00000000000E+00  0.27436172456E+03  0.27436172456E+03  0.00000000000E+00 0. -1.
         -2   -1    0    0    0  501 -0.00000000000E+00 -0.00000000000E+00 -0.64213876285E+02  0.64213876285E+02  0.00000000000E+00 0.  1.
         24    1    1    2    0    0  0.98281438916E+01  0.64506626372E+02  0.21096295400E+03  0.23501123627E+03  0.80419002446E+02 0. -1.
        -24    1    1    2    0    0 -0.98281438916E+01 -0.64506626372E+02 -0.81510572477E+00  0.10356436458E+03  0.80419002446E+02 0.  1.
<mgrwt>
<rscale>  0 0.10356116E+03</rscale>
<asrwt>0</asrwt>
<pdfrwt beam="1">  1        2 0.42209495E-01 0.10356116E+03</pdfrwt>
<pdfrwt beam="2">  1       -2 0.98790581E-02 0.10356116E+03</pdfrwt>
<totfact> 0.75959112E+03</totfact>
</mgrwt>
</event>
<event>
 4    1  0.4941530E-001  0.9131328E+02  0.7546771E-02  0.1299702E+00
         -2   -1    0    0    0  501 -0.00000000000E+00  0.00000000000E+00  0.43175372671E+03  0.43175372671E+03  0.00000000000E+00 0.  1.
          2   -1    0    0  501    0  0.00000000000E+00 -0.00000000000E+00 -0.20375476273E+02  0.20375476273E+02  0.00000000000E+00 0. -1.
         24    1    1    2    0    0  0.10959852574E+02  0.41842341573E+02  0.15404736856E+03  0.17907737889E+03  0.80419002446E+02 0. -1.
        -24    1    1    2    0    0 -0.10959852574E+02 -0.41842341573E+02  0.25733088187E+03  0.27305182409E+03  0.80419002446E+02 0.  1.
<mgrwt>
<rscale>  0 0.91313284E+02</rscale>
<asrwt>0</asrwt>
<pdfrwt beam="1">  1        2 0.31346890E-02 0.91313284E+02</pdfrwt>
<pdfrwt beam="2">  1       -2 0.66423644E-01 0.91313284E+02</pdfrwt>
<totfact> 0.57278391E+03</totfact>
</mgrwt>
</event>
<event>
 4    1  0.4941530E-001  0.9340975E+02  0.7546771E-02  0.1294798E+00
         -2   -1    0    0    0  501 -0.00000000000E+00  0.00000000000E+00  0.16556220509E+02  0.16556220509E+02  0.00000000000E+00 0.  1.
          2   -1    0    0  501    0  0.00000000000E+00 -0.00000000000E+00 -0.65707670386E+03  0.65707670386E+03  0.00000000000E+00 0. -1.
         24    1    1    2    0    0 -0.47113862045E+02 -0.62007234599E+01 -0.47011121000E+03  0.47930150291E+03  0.80419002446E+02 0. -1.
        -24    1    1    2    0    0  0.47113862045E+02  0.62007234599E+01 -0.17040927335E+03  0.19433142146E+03  0.80419002446E+02 0.  1.
<mgrwt>
<rscale>  0 0.93409747E+02</rscale>
<asrwt>0</asrwt>
<pdfrwt beam="1">  1        2 0.10108870E+00 0.93409747E+02</pdfrwt>
<pdfrwt beam="2">  1       -2 0.25471114E-02 0.93409747E+02</pdfrwt>
<totfact> 0.22310068E+04</totfact>
</mgrwt>
</event>
<event>
 4    1  0.4941530E-001  0.1029593E+03  0.7546771E-02  0.1274193E+00
          1   -1    0    0  501    0  0.00000000000E+00  0.00000000000E+00  0.88172272662E+02  0.88172272662E+02  0.00000000000E+00 0. -1.
         -1   -1    0    0    0  501 -0.00000000000E+00 -0.00000000000E+00 -0.23027935889E+03  0.23027935889E+03  0.00000000000E+00 0.  1.
         24    1    1    2    0    0  0.42986424509E+02  0.47807675843E+02 -0.18112814316E+03  0.20834593051E+03  0.80419002446E+02 0.  1.
        -24    1    1    2    0    0 -0.42986424509E+02 -0.47807675843E+02  0.39021056938E+02  0.11010570104E+03  0.80419002446E+02 0. -1.
<mgrwt>
<rscale>  0 0.10295932E+03</rscale>
<asrwt>0</asrwt>
<pdfrwt beam="1">  1        1 0.13564965E-01 0.10295932E+03</pdfrwt>
<pdfrwt beam="2">  1       -1 0.35427593E-01 0.10295932E+03</pdfrwt>
<totfact> 0.30947013E+03</totfact>
</mgrwt>
</event>
<event>
 4    1  0.4941530E-001  0.1084208E+03  0.7546771E-02  0.1263523E+00
         -1   -1    0    0    0  501 -0.00000000000E+00  0.00000000000E+00  0.15426178942E+02  0.15426178942E+02  0.00000000000E+00 0.  1.
          1   -1    0    0  501    0  0.00000000000E+00 -0.00000000000E+00 -0.13042224583E+04  0.13042224583E+04  0.00000000000E+00 0. -1.
         24    1    1    2    0    0  0.45123780662E+01  0.72577532616E+02 -0.21896361377E+03  0.24433612076E+03  0.80419002446E+02 0.  1.
        -24    1    1    2    0    0 -0.45123780662E+01 -0.72577532616E+02 -0.10698326656E+04  0.10753125165E+04  0.80419002446E+02 0. -1.
<mgrwt>
<rscale>  0 0.10842083E+03</rscale>
<asrwt>0</asrwt>
<pdfrwt beam="1">  1        1 0.20064961E+00 0.10842083E+03</pdfrwt>
<pdfrwt beam="2">  1       -1 0.23732583E-02 0.10842083E+03</pdfrwt>
<totfact> 0.50288210E+03</totfact>
</mgrwt>
</event>
<event>
 4    1  0.4941530E-001  0.1498819E+03  0.7546771E-02  0.1200618E+00
          1   -1    0    0  501    0  0.00000000000E+00  0.00000000000E+00  0.80024684285E+03  0.80024684285E+03  0.00000000000E+00 0. -1.
         -1   -1    0    0    0  501 -0.00000000000E+00 -0.00000000000E+00 -0.95290295047E+02  0.95290295047E+02  0.00000000000E+00 0.  1.
         24    1    1    2    0    0 -0.31884024080E+02  0.12239601378E+03 -0.23595255781E+02  0.15172780639E+03  0.80419002446E+02 0.  1.
        -24    1    1    2    0    0  0.31884024080E+02 -0.12239601378E+03  0.72855180358E+03  0.74380933151E+03  0.80419002446E+02 0. -1.
<mgrwt>
<rscale>  0 0.14988192E+03</rscale>
<asrwt>0</asrwt>
<pdfrwt beam="1">  1        1 0.12311489E+00 0.14988192E+03</pdfrwt>
<pdfrwt beam="2">  1       -1 0.14660046E-01 0.14988192E+03</pdfrwt>
<totfact> 0.77379324E+02</totfact>
</mgrwt>
</event>
<event>
 4    1  0.4941530E-001  0.8884774E+02  0.7546771E-02  0.1305666E+00
          2   -1    0    0  501    0  0.00000000000E+00  0.00000000000E+00  0.23963176461E+04  0.23963176461E+04  0.00000000000E+00 0. -1.
         -2   -1    0    0    0  501 -0.00000000000E+00 -0.00000000000E+00 -0.33696370503E+01  0.33696370503E+01  0.00000000000E+00 0.  1.
         24    1    1    2    0    0  0.22424751907E+02 -0.30394675764E+02  0.13760130285E+04  0.13788784487E+04  0.80419002446E+02 0. -1.
        -24    1    1    2    0    0 -0.22424751907E+02  0.30394675764E+02  0.10169349805E+04  0.10208088344E+04  0.80419002446E+02 0.  1.
<mgrwt>
<rscale>  0 0.88847745E+02</rscale>
<asrwt>0</asrwt>
<pdfrwt beam="1">  1        2 0.36866289E+00 0.88847745E+02</pdfrwt>
<pdfrwt beam="2">  1       -2 0.51840762E-03 0.88847745E+02</pdfrwt>
<totfact> 0.24009531E+04</totfact>
</mgrwt>
</event>
<event>
 4    1  0.4941530E-001  0.1205347E+03  0.7546771E-02  0.1242218E+00
         -1   -1    0    0    0  501 -0.00000000000E+00  0.00000000000E+00  0.79341161251E+02  0.79341161251E+02  0.00000000000E+00 0.  1.
          1   -1    0    0  501    0  0.00000000000E+00 -0.00000000000E+00 -0.27325675397E+03  0.27325675397E+03  0.00000000000E+00 0. -1.
         24    1    1    2    0    0 -0.70651718726E+01  0.89506891181E+02  0.42993046931E+01  0.12061136015E+03  0.80419002446E+02 0.  1.
        -24    1    1    2    0    0  0.70651718726E+01 -0.89506891181E+02 -0.19821489742E+03  0.23198655507E+03  0.80419002446E+02 0. -1.
<mgrwt>
<rscale>  0 0.12053471E+03</rscale>
<asrwt>0</asrwt>
<pdfrwt beam="1">  1        1 0.42039501E-01 0.12053471E+03</pdfrwt>
<pdfrwt beam="2">  1       -1 0.12206332E-01 0.12053471E+03</pdfrwt>
<totfact> 0.42028074E+03</totfact>
</mgrwt>
</event>
<event>
 4    1  0.4941530E-001  0.9418502E+02  0.7546771E-02  0.1293022E+00
         -2   -1    0    0    0  501 -0.00000000000E+00  0.00000000000E+00  0.42814452068E+01  0.42814452068E+01  0.00000000000E+00 0.  1.
          2   -1    0    0  501    0  0.00000000000E+00 -0.00000000000E+00 -0.28669577254E+04  0.28669577254E+04  0.00000000000E+00 0. -1.
         24    1    1    2    0    0  0.28852667035E+02  0.39637415870E+02 -0.21873389677E+04  0.21893657932E+04  0.80419002446E+02 0. -1.
        -24    1    1    2    0    0 -0.28852667035E+02 -0.39637415870E+02 -0.67533731251E+03  0.68187337736E+03  0.80419002446E+02 0.  1.
<mgrwt>
<rscale>  0 0.94185015E+02</rscale>
<asrwt>0</asrwt>
<pdfrwt beam="1">  1        2 0.44107026E+00 0.94185015E+02</pdfrwt>
<pdfrwt beam="2">  1       -2 0.65868411E-03 0.94185015E+02</pdfrwt>
<totfact> 0.96224278E+03</totfact>
</mgrwt>
</event>
<event>
 4    1  0.4941530E-001  0.1028679E+03  0.7546771E-02  0.1274378E+00
         -2   -1    0    0    0  501 -0.00000000000E+00  0.00000000000E+00  0.62990689824E+02  0.62990689824E+02  0.00000000000E+00 0.  1.
          2   -1    0    0  501    0  0.00000000000E+00 -0.00000000000E+00 -0.60131878069E+03  0.60131878069E+03  0.00000000000E+00 0. -1.
         24    1    1    2    0    0 -0.12431308810E+02 -0.62928967885E+02 -0.55113009021E+03  0.56064800430E+03  0.80419002446E+02 0. -1.
        -24    1    1    2    0    0  0.12431308810E+02  0.62928967885E+02  0.12801999336E+02  0.10366146622E+03  0.80419002446E+02 0.  1.
<mgrwt>
<rscale>  0 0.10286792E+03</rscale>
<asrwt>0</asrwt>
<pdfrwt beam="1">  1        2 0.92510583E-01 0.10286792E+03</pdfrwt>
<pdfrwt beam="2">  1       -2 0.96908752E-02 0.10286792E+03</pdfrwt>
<totfact> 0.33803814E+03</totfact>
</mgrwt>
</event>
<event>
 4    1  0.4941530E-001  0.8876630E+02  0.7546771E-02  0.1305867E+00
          2   -1    0    0  501    0  0.00000000000E+00  0.00000000000E+00  0.28071485530E+04  0.28071485530E+04  0.00000000000E+00 0. -1.
         -2   -1    0    0    0  501 -0.00000000000E+00 -0.00000000000E+00 -0.77981446966E+01  0.77981446966E+01  0.00000000000E+00 0.  1.
         24    1    1    2    0    0  0.36256981224E+02 -0.98828995701E+01  0.25256997683E+04  0.25272591430E+04  0.80419002446E+02 0.  0.
        -24    1    1    2    0    0 -0.36256981224E+02  0.98828995701E+01  0.27365063998E+03  0.28768755466E+03  0.80419002446E+02 0.  0.
<mgrwt>
<rscale>  0 0.88766302E+02</rscale>
<asrwt>0</asrwt>
<pdfrwt beam="1">  1        2 0.43186820E+00 0.88766302E+02</pdfrwt>
<pdfrwt beam="2">  1       -2 0.11997168E-02 0.88766302E+02</pdfrwt>
<totfact> 0.44468607E+03</totfact>
</mgrwt>
</event>
<event>
 4    1  0.4941530E-001  0.8489519E+02  0.7546771E-02  0.1315707E+00
         -3   -1    0    0    0  501 -0.00000000000E+00  0.00000000000E+00  0.90911273842E+03  0.90911273842E+03  0.00000000000E+00 0.  1.
          3   -1    0    0  501    0  0.00000000000E+00 -0.00000000000E+00 -0.86224666232E+01  0.86224666232E+01  0.00000000000E+00 0. -1.
         24    1    1    2    0    0  0.22910498467E+02  0.14665813422E+02  0.58049709363E+03  0.58667202822E+03  0.80419002446E+02 0. -1.
        -24    1    1    2    0    0 -0.22910498467E+02 -0.14665813422E+02  0.31999317816E+03  0.33106317682E+03  0.80419002446E+02 0. -1.
<mgrwt>
<rscale>  0 0.84895188E+02</rscale>
<asrwt>0</asrwt>
<pdfrwt beam="1">  1        3 0.13265340E-02 0.84895188E+02</pdfrwt>
<pdfrwt beam="2">  1       -3 0.13986342E+00 0.84895188E+02</pdfrwt>
<totfact> 0.15377697E+03</totfact>
</mgrwt>
</event>
<event>
 4    1  0.4941530E-001  0.8168611E+02  0.7546771E-02  0.1324333E+00
          1   -1    0    0  501    0  0.00000000000E+00  0.00000000000E+00  0.23320642682E+04  0.23320642682E+04  0.00000000000E+00 0. -1.
         -1   -1    0    0    0  501 -0.00000000000E+00 -0.00000000000E+00 -0.89749181009E+01  0.89749181009E+01  0.00000000000E+00 0.  1.
         24    1    1    2    0    0  0.70194492808E+00  0.14314765506E+02  0.19546190967E+03  0.21184423364E+03  0.80419002446E+02 0.  1.
        -24    1    1    2    0    0 -0.70194492808E+00 -0.14314765506E+02  0.21276274404E+04  0.21291949526E+04  0.80419002446E+02 0. -1.
<mgrwt>
<rscale>  0 0.81686114E+02</rscale>
<asrwt>0</asrwt>
<pdfrwt beam="1">  1        1 0.35877864E+00 0.81686114E+02</pdfrwt>
<pdfrwt beam="2">  1       -1 0.13807585E-02 0.81686114E+02</pdfrwt>
<totfact> 0.24126859E+03</totfact>
</mgrwt>
</event>
<event>
 4    1  0.4941530E-001  0.8470826E+02  0.7546771E-02  0.1316197E+00
          1   -1    0    0  501    0  0.00000000000E+00  0.00000000000E+00  0.18396196578E+03  0.18396196578E+03  0.00000000000E+00 0. -1.
         -1   -1    0    0    0  501 -0.00000000000E+00 -0.00000000000E+00 -0.11148711849E+03  0.11148711849E+03  0.00000000000E+00 0.  1.
         24    1    1    2    0    0  0.26545995073E+02 -0.18931662467E+01 -0.82874400713E+02  0.11850593310E+03  0.80419002446E+02 0.  1.
        -24    1    1    2    0    0 -0.26545995073E+02  0.18931662467E+01  0.15534924801E+03  0.17694315116E+03  0.80419002446E+02 0. -1.
<mgrwt>
<rscale>  0 0.84708263E+02</rscale>
<asrwt>0</asrwt>
<pdfrwt beam="1">  1        1 0.28301841E-01 0.84708263E+02</pdfrwt>
<pdfrwt beam="2">  1       -1 0.17151864E-01 0.84708263E+02</pdfrwt>
<totfact> 0.39445982E+03</totfact>
</mgrwt>
</event>
<event>
 4    1  0.4941530E-001  0.8923237E+02  0.7546771E-02  0.1304721E+00
         -2   -1    0    0    0  501 -0.00000000000E+00  0.00000000000E+00  0.19307354045E+02  0.19307354045E+02  0.00000000000E+00 0.  1.
          2   -1    0    0  501    0  0.00000000000E+00 -0.00000000000E+00 -0.46135050407E+03  0.46135050407E+03  0.00000000000E+00 0. -1.
         24    1    1    2    0    0 -0.41694797743E+01  0.38442356239E+02 -0.29930229008E+03  0.31232079040E+03  0.80419002446E+02 0.  1.
        -24    1    1    2    0    0  0.41694797743E+01 -0.38442356239E+02 -0.14274085994E+03  0.16833706772E+03  0.80419002446E+02 0. -1.
<mgrwt>
<rscale>  0 0.89232367E+02</rscale>
<asrwt>0</asrwt>
<pdfrwt beam="1">  1        2 0.70976995E-01 0.89232367E+02</pdfrwt>
<pdfrwt beam="2">  1       -2 0.29703624E-02 0.89232367E+02</pdfrwt>
<totfact> 0.26233913E+04</totfact>
</mgrwt>
</event>
<event>
 4    1  0.4941530E-001  0.9211038E+02  0.7546771E-02  0.1297820E+00
         -1   -1    0    0    0  501 -0.00000000000E+00  0.00000000000E+00  0.32517981506E+02  0.32517981506E+02  0.00000000000E+00 0.  1.
          1   -1    0    0  501    0  0.00000000000E+00 -0.00000000000E+00 -0.42663842701E+03  0.42663842701E+03  0.00000000000E+00 0. -1.
         24    1    1    2    0    0  0.44293540621E+02  0.74289509665E+01 -0.53974303064E+02  0.10675930123E+03  0.80419002446E+02 0.  1.
        -24    1    1    2    0    0 -0.44293540621E+02 -0.74289509665E+01 -0.34014614244E+03  0.35239710729E+03  0.80419002446E+02 0. -1.
<mgrwt>
<rscale>  0 0.92110385E+02</rscale>
<asrwt>0</asrwt>
<pdfrwt beam="1">  1        1 0.65636675E-01 0.92110385E+02</pdfrwt>
<pdfrwt beam="2">  1       -1 0.50027668E-02 0.92110385E+02</pdfrwt>
<totfact> 0.90518619E+03</totfact>
</mgrwt>
</event>
<event>
 4    1  0.4941530E-001  0.8507096E+02  0.7546771E-02  0.1315247E+00
          1   -1    0    0  501    0  0.00000000000E+00  0.00000000000E+00  0.13037096682E+04  0.13037096682E+04  0.00000000000E+00 0. -1.
         -1   -1    0    0    0  501 -0.00000000000E+00 -0.00000000000E+00 -0.13640786253E+02  0.13640786253E+02  0.00000000000E+00 0.  1.
         24    1    1    2    0    0 -0.27448009328E+02 -0.40568843161E+01  0.13779087607E+03  0.16193638569E+03  0.80419002446E+02 0.  0.
        -24    1    1    2    0    0  0.27448009328E+02  0.40568843161E+01  0.11522780059E+04  0.11554140687E+04  0.80419002446E+02 0.  0.
<mgrwt>
<rscale>  0 0.85070956E+02</rscale>
<asrwt>0</asrwt>
<pdfrwt beam="1">  1        1 0.20057062E+00 0.85070956E+02</pdfrwt>
<pdfrwt beam="2">  1       -1 0.20985835E-02 0.85070956E+02</pdfrwt>
<totfact> 0.59394810E+03</totfact>
</mgrwt>
</event>
<event>
 4    1  0.4941530E-001  0.9816992E+02  0.7546771E-02  0.1284192E+00
          2   -1    0    0  501    0  0.00000000000E+00  0.00000000000E+00  0.96420156553E+03  0.96420156553E+03  0.00000000000E+00 0. -1.
         -2   -1    0    0    0  501 -0.00000000000E+00 -0.00000000000E+00 -0.24701983495E+02  0.24701983495E+02  0.00000000000E+00 0.  1.
         24    1    1    2    0    0 -0.68074461507E+01 -0.55890751981E+02  0.85127013720E+03  0.85691200244E+03  0.80419002446E+02 0. -1.
        -24    1    1    2    0    0  0.68074461507E+01  0.55890751981E+02  0.88229444837E+02  0.13199154659E+03  0.80419002446E+02 0.  1.
<mgrwt>
<rscale>  0 0.98169921E+02</rscale>
<asrwt>0</asrwt>
<pdfrwt beam="1">  1        2 0.14833867E+00 0.98169921E+02</pdfrwt>
<pdfrwt beam="2">  1       -2 0.38003059E-02 0.98169921E+02</pdfrwt>
<totfact> 0.78038363E+03</totfact>
</mgrwt>
</event>
<event>
 4    1  0.4941530E-001  0.1087915E+03  0.7546771E-02  0.1262824E+00
          1   -1    0    0  501    0  0.00000000000E+00  0.00000000000E+00  0.28733463699E+04  0.28733463699E+04  0.00000000000E+00 0. -1.
         -1   -1    0    0    0  501 -0.00000000000E+00 -0.00000000000E+00 -0.11899289624E+02  0.11899289624E+02  0.00000000000E+00 0.  1.
         24    1    1    2    0    0 -0.23453783093E+02  0.69413925943E+02  0.26421615975E+03  0.28573723608E+03  0.80419002446E+02 0.  1.
        -24    1    1    2    0    0  0.23453783093E+02 -0.69413925943E+02  0.25972309206E+04  0.25995084235E+04  0.80419002446E+02 0. -1.
<mgrwt>
<rscale>  0 0.10879149E+03</rscale>
<asrwt>0</asrwt>
<pdfrwt beam="1">  1        1 0.44205273E+00 0.10879149E+03</pdfrwt>
<pdfrwt beam="2">  1       -1 0.18306622E-02 0.10879149E+03</pdfrwt>
<totfact> 0.71477948E+02</totfact>
</mgrwt>
</event>
<event>
 4    1  0.4941530E-001  0.1001611E+03  0.7546771E-02  0.1279958E+00
          1   -1    0    0  501    0  0.00000000000E+00  0.00000000000E+00  0.38970192072E+03  0.38970192072E+03  0.00000000000E+00 0. -1.
         -1   -1    0    0    0  501 -0.00000000000E+00 -0.00000000000E+00 -0.75105303960E+02  0.75105303960E+02  0.00000000000E+00 0.  1.
         24    1    1    2    0    0 -0.57647395319E+02 -0.15549945518E+02 -0.31111571913E+02  0.10488168979E+03  0.80419002446E+02 0.  1.
        -24    1    1    2    0    0  0.57647395319E+02  0.15549945518E+02  0.34570818867E+03  0.35992553488E+03  0.80419002446E+02 0. -1.
<mgrwt>
<rscale>  0 0.10016107E+03</rscale>
<asrwt>0</asrwt>
<pdfrwt beam="1">  1        1 0.59954141E-01 0.10016107E+03</pdfrwt>
<pdfrwt beam="2">  1       -1 0.11554662E-01 0.10016107E+03</pdfrwt>
<totfact> 0.29210532E+03</totfact>
</mgrwt>
</event>
<event>
 4    1  0.4941530E-001  0.8368758E+02  0.7546771E-02  0.1318901E+00
          1   -1    0    0  501    0  0.00000000000E+00  0.00000000000E+00  0.53067372446E+03  0.53067372446E+03  0.00000000000E+00 0. -1.
         -1   -1    0    0    0  501 -0.00000000000E+00 -0.00000000000E+00 -0.48124133984E+02  0.48124133984E+02  0.00000000000E+00 0.  1.
         24    1    1    2    0    0 -0.13673602356E+02  0.18692977217E+02 -0.52685611378E+01  0.83853255688E+02  0.80419002446E+02 0.  1.
        -24    1    1    2    0    0  0.13673602356E+02 -0.18692977217E+02  0.48781815162E+03  0.49494460276E+03  0.80419002446E+02 0. -1.
<mgrwt>
<rscale>  0 0.83687578E+02</rscale>
<asrwt>0</asrwt>
<pdfrwt beam="1">  1        1 0.81642107E-01 0.83687578E+02</pdfrwt>
<pdfrwt beam="2">  1       -1 0.74037133E-02 0.83687578E+02</pdfrwt>
<totfact> 0.38239863E+03</totfact>
</mgrwt>
</event>
<event>
 4    1  0.4941530E-001  0.8309669E+02  0.7546771E-02  0.1320486E+00
          2   -1    0    0  501    0  0.00000000000E+00  0.00000000000E+00  0.18866895231E+04  0.18866895231E+04  0.00000000000E+00 0. -1.
         -2   -1    0    0    0  501 -0.00000000000E+00 -0.00000000000E+00 -0.35340470608E+02  0.35340470608E+02  0.00000000000E+00 0.  1.
         24    1    1    2    0    0  0.20606770812E+02 -0.36339563324E+01  0.18355681534E+04  0.18374480963E+04  0.80419002446E+02 0. -1.
        -24    1    1    2    0    0 -0.20606770812E+02  0.36339563324E+01  0.15780899041E+02  0.84581897418E+02  0.80419002446E+02 0.  1.
<mgrwt>
<rscale>  0 0.83096694E+02</rscale>
<asrwt>0</asrwt>
<pdfrwt beam="1">  1        2 0.29025985E+00 0.83096694E+02</pdfrwt>
<pdfrwt beam="2">  1       -2 0.54369970E-02 0.83096694E+02</pdfrwt>
<totfact> 0.14953249E+03</totfact>
</mgrwt>
</event>
<event>
 4    1  0.4941530E-001  0.8205406E+02  0.7546771E-02  0.1323321E+00
          2   -1    0    0  501    0  0.00000000000E+00  0.00000000000E+00  0.15753080572E+04  0.15753080572E+04  0.00000000000E+00 0. -1.
         -2   -1    0    0    0  501 -0.00000000000E+00 -0.00000000000E+00 -0.56475847923E+01  0.56475847923E+01  0.00000000000E+00 0.  1.
         24    1    1    2    0    0 -0.14395160136E+02 -0.76440734423E+01  0.11746697567E+04  0.11775321252E+04  0.80419002446E+02 0. -1.
        -24    1    1    2    0    0  0.14395160136E+02  0.76440734423E+01  0.39499071572E+03  0.40342351686E+03  0.80419002446E+02 0.  1.
<mgrwt>
<rscale>  0 0.82054058E+02</rscale>
<asrwt>0</asrwt>
<pdfrwt beam="1">  1        2 0.24235473E+00 0.82054058E+02</pdfrwt>
<pdfrwt beam="2">  1       -2 0.86886046E-03 0.82054058E+02</pdfrwt>
<totfact> 0.29991704E+04</totfact>
</mgrwt>
</event>
<event>
 4    1  0.4941530E-001  0.8585108E+02  0.7546771E-02  0.1313222E+00
         -1   -1    0    0    0  501 -0.00000000000E+00  0.00000000000E+00  0.67509892187E+01  0.67509892187E+01  0.00000000000E+00 0.  1.
          1   -1    0    0  501    0  0.00000000000E+00 -0.00000000000E+00 -0.10918474026E+04  0.10918474026E+04  0.00000000000E+00 0. -1.
         24    1    1    2    0    0  0.12141468844E+02  0.27491389026E+02 -0.53742040592E+03  0.54423441676E+03  0.80419002446E+02 0.  1.
        -24    1    1    2    0    0 -0.12141468844E+02 -0.27491389026E+02 -0.54767600748E+03  0.55436397507E+03  0.80419002446E+02 0. -1.
<mgrwt>
<rscale>  0 0.85851079E+02</rscale>
<asrwt>0</asrwt>
<pdfrwt beam="1">  1        1 0.16797649E+00 0.85851079E+02</pdfrwt>
<pdfrwt beam="2">  1       -1 0.10386140E-02 0.85851079E+02</pdfrwt>
<totfact> 0.22349252E+04</totfact>
</mgrwt>
</event>
<event>
 4    1  0.4941530E-001  0.9584814E+02  0.7546771E-02  0.1289277E+00
         -2   -1    0    0    0  501 -0.00000000000E+00  0.00000000000E+00  0.47787031070E+02  0.47787031070E+02  0.00000000000E+00 0.  1.
          2   -1    0    0  501    0  0.00000000000E+00 -0.00000000000E+00 -0.11170716736E+04  0.11170716736E+04  0.00000000000E+00 0. -1.
         24    1    1    2    0    0 -0.38462974407E+02 -0.35217187787E+02 -0.10645896012E+04  0.10688956384E+04  0.80419002446E+02 0. -1.
        -24    1    1    2    0    0  0.38462974407E+02  0.35217187787E+02 -0.46950412369E+01  0.95963066241E+02  0.80419002446E+02 0.  1.
<mgrwt>
<rscale>  0 0.95848144E+02</rscale>
<asrwt>0</asrwt>
<pdfrwt beam="1">  1        2 0.17185716E+00 0.95848144E+02</pdfrwt>
<pdfrwt beam="2">  1       -2 0.73518518E-02 0.95848144E+02</pdfrwt>
<totfact> 0.23741092E+03</totfact>
</mgrwt>
</event>
<event>
 4    1  0.4941530E-001  0.8315180E+02  0.7546771E-02  0.1320338E+00
         -2   -1    0    0    0  501 -0.00000000000E+00  0.00000000000E+00  0.14713268154E+03  0.14713268154E+03  0.00000000000E+00 0.  1.
          2   -1    0    0  501    0  0.00000000000E+00 -0.00000000000E+00 -0.12550673139E+03  0.12550673139E+03  0.00000000000E+00 0. -1.
         24    1    1    2    0    0 -0.16974220639E+02 -0.12604828064E+02 -0.97006607545E+02  0.12776738128E+03  0.80419002446E+02 0.  0.
        -24    1    1    2    0    0  0.16974220639E+02  0.12604828064E+02  0.11863255770E+03  0.14487203166E+03  0.80419002446E+02 0.  1.
<mgrwt>
<rscale>  0 0.83151800E+02</rscale>
<asrwt>0</asrwt>
<pdfrwt beam="1">  1        2 0.19308728E-01 0.83151800E+02</pdfrwt>
<pdfrwt beam="2">  1       -2 0.22635797E-01 0.83151800E+02</pdfrwt>
<totfact> 0.45247922E+03</totfact>
</mgrwt>
</event>
<event>
 4    1  0.4941530E-001  0.8934967E+02  0.7546771E-02  0.1304434E+00
          3   -1    0    0  501    0  0.00000000000E+00  0.00000000000E+00  0.39589040781E+03  0.39589040781E+03  0.00000000000E+00 0. -1.
         -3   -1    0    0    0  501 -0.00000000000E+00 -0.00000000000E+00 -0.89761976189E+02  0.89761976189E+02  0.00000000000E+00 0.  1.
         24    1    1    2    0    0 -0.21751035954E+02 -0.32296139441E+02 -0.60752998642E+02  0.10804763295E+03  0.80419002446E+02 0.  1.
        -24    1    1    2    0    0  0.21751035954E+02  0.32296139441E+02  0.36688143027E+03  0.37760475105E+03  0.80419002446E+02 0. -1.
<mgrwt>
<rscale>  0 0.89349673E+02</rscale>
<asrwt>0</asrwt>
<pdfrwt beam="1">  1        3 0.60906216E-01 0.89349673E+02</pdfrwt>
<pdfrwt beam="2">  1       -3 0.13809535E-01 0.89349673E+02</pdfrwt>
<totfact> 0.25116956E+02</totfact>
</mgrwt>
</event>
<event>
 4    1  0.4941530E-001  0.8386440E+02  0.7546771E-02  0.1318429E+00
          2   -1    0    0  501    0  0.00000000000E+00  0.00000000000E+00  0.22959187047E+03  0.22959187047E+03  0.00000000000E+00 0. -1.
         -2   -1    0    0    0  501 -0.00000000000E+00 -0.00000000000E+00 -0.53588063454E+02  0.53588063454E+02  0.00000000000E+00 0.  1.
         24    1    1    2    0    0 -0.60087526905E+01 -0.23019903677E+02  0.18067027859E+03  0.19918580922E+03  0.80419002446E+02 0. -1.
        -24    1    1    2    0    0  0.60087526905E+01  0.23019903677E+02 -0.46664715697E+01  0.83994124708E+02  0.80419002446E+02 0.  1.
<mgrwt>
<rscale>  0 0.83864397E+02</rscale>
<asrwt>0</asrwt>
<pdfrwt beam="1">  1        2 0.35321826E-01 0.83864397E+02</pdfrwt>
<pdfrwt beam="2">  1       -2 0.82443176E-02 0.83864397E+02</pdfrwt>
<totfact> 0.11894958E+04</totfact>
</mgrwt>
</event>
<event>
 4    1  0.4941530E-001  0.9113999E+02  0.7546771E-02  0.1300114E+00
         -2   -1    0    0    0  501 -0.00000000000E+00  0.00000000000E+00  0.33231180407E+01  0.33231180407E+01  0.00000000000E+00 0.  1.
          2   -1    0    0  501    0  0.00000000000E+00 -0.00000000000E+00 -0.25007858470E+04  0.25007858470E+04  0.00000000000E+00 0. -1.
         24    1    1    2    0    0 -0.15443506907E+02 -0.40009691572E+02 -0.12215617929E+04  0.12249570226E+04  0.80419002446E+02 0.  1.
        -24    1    1    2    0    0  0.15443506907E+02  0.40009691572E+02 -0.12759009360E+04  0.12791519424E+04  0.80419002446E+02 0.  0.
<mgrwt>
<rscale>  0 0.91139977E+02</rscale>
<asrwt>0</asrwt>
<pdfrwt beam="1">  1        2 0.38473589E+00 0.91139988E+02</pdfrwt>
<pdfrwt beam="2">  1       -2 0.51124946E-03 0.91139988E+02</pdfrwt>
<totfact> 0.21624468E+04</totfact>
</mgrwt>
</event>
<event>
 4    1  0.4941530E-001  0.1081496E+03  0.7546771E-02  0.1264035E+00
          2   -1    0    0  501    0  0.00000000000E+00  0.00000000000E+00  0.20509429478E+02  0.20509429478E+02  0.00000000000E+00 0. -1.
         -2   -1    0    0    0  501 -0.00000000000E+00 -0.00000000000E+00 -0.57030642316E+03  0.57030642316E+03  0.00000000000E+00 0.  1.
         24    1    1    2    0    0 -0.28451837508E+02  0.66480172637E+02 -0.27645085959E+03  0.29685251243E+03  0.80419002446E+02 0.  0.
        -24    1    1    2    0    0  0.28451837508E+02 -0.66480172637E+02 -0.27334613409E+03  0.29396334021E+03  0.80419002446E+02 0.  1.
<mgrwt>
<rscale>  0 0.10814962E+03</rscale>
<asrwt>0</asrwt>
<pdfrwt beam="1">  1        2 0.31552965E-02 0.10814963E+03</pdfrwt>
<pdfrwt beam="2">  1       -2 0.87739459E-01 0.10814963E+03</pdfrwt>
<totfact> 0.31676506E+03</totfact>
</mgrwt>
</event>
<event>
 4    1  0.4941530E-001  0.8196839E+02  0.7546771E-02  0.1323556E+00
          2   -1    0    0  501    0  0.00000000000E+00  0.00000000000E+00  0.13133211439E+03  0.13133211439E+03  0.00000000000E+00 0. -1.
         -2   -1    0    0    0  501 -0.00000000000E+00 -0.00000000000E+00 -0.91018527269E+02  0.91018527269E+02  0.00000000000E+00 0.  1.
         24    1    1    2    0    0  0.12329008633E+02  0.99798118436E+01  0.93728303360E+02  0.12451430401E+03  0.80419002446E+02 0.  0.
        -24    1    1    2    0    0 -0.12329008633E+02 -0.99798118436E+01 -0.53414716242E+02  0.97836337645E+02  0.80419002446E+02 0.  0.
<mgrwt>
<rscale>  0 0.81968391E+02</rscale>
<asrwt>0</asrwt>
<pdfrwt beam="1">  1        2 0.20204941E-01 0.81968391E+02</pdfrwt>
<pdfrwt beam="2">  1       -2 0.14002850E-01 0.81968391E+02</pdfrwt>
<totfact> 0.94820930E+03</totfact>
</mgrwt>
</event>
<event>
 4    1  0.4941530E-001  0.9369000E+02  0.7546771E-02  0.1294154E+00
         -1   -1    0    0    0  501 -0.00000000000E+00  0.00000000000E+00  0.83467651509E+01  0.83467651509E+01  0.00000000000E+00 0.  1.
          1   -1    0    0  501    0  0.00000000000E+00 -0.00000000000E+00 -0.10516923329E+04  0.10516923329E+04  0.00000000000E+00 0. -1.
         24    1    1    2    0    0  0.47749308794E+02  0.55317289992E+01 -0.52532340006E+03  0.53361267519E+03  0.80419002446E+02 0.  0.
        -24    1    1    2    0    0 -0.47749308794E+02 -0.55317289992E+01 -0.51802216764E+03  0.52642642281E+03  0.80419002446E+02 0. -1.
<mgrwt>
<rscale>  0 0.93689992E+02</rscale>
<asrwt>0</asrwt>
<pdfrwt beam="1">  1        1 0.16179881E+00 0.93690004E+02</pdfrwt>
<pdfrwt beam="2">  1       -1 0.12841178E-02 0.93690004E+02</pdfrwt>
<totfact> 0.17801409E+04</totfact>
</mgrwt>
</event>
<event>
 4    1  0.4941530E-001  0.8683723E+02  0.7546771E-02  0.1310697E+00
         -2   -1    0    0    0  501 -0.00000000000E+00  0.00000000000E+00  0.11075757718E+03  0.11075757718E+03  0.00000000000E+00 0.  1.
          2   -1    0    0  501    0  0.00000000000E+00 -0.00000000000E+00 -0.68164946372E+02  0.68164946372E+02  0.00000000000E+00 0. -1.
         24    1    1    2    0    0 -0.14090534893E+02  0.29579479755E+02  0.18193898856E+02  0.88722729366E+02  0.80419002446E+02 0.  1.
        -24    1    1    2    0    0  0.14090534893E+02 -0.29579479755E+02  0.24398731952E+02  0.90199794187E+02  0.80419002446E+02 0. -1.
<mgrwt>
<rscale>  0 0.86837231E+02</rscale>
<asrwt>0</asrwt>
<pdfrwt beam="1">  1        2 0.10486915E-01 0.86837231E+02</pdfrwt>
<pdfrwt beam="2">  1       -2 0.17039627E-01 0.86837231E+02</pdfrwt>
<totfact> 0.14829119E+04</totfact>
</mgrwt>
</event>
<event>
 4    1  0.4941530E-001  0.8297390E+02  0.7546771E-02  0.1320818E+00
         -1   -1    0    0    0  501 -0.00000000000E+00  0.00000000000E+00  0.13632184136E+03  0.13632184136E+03  0.00000000000E+00 0.  1.
          1   -1    0    0  501    0  0.00000000000E+00 -0.00000000000E+00 -0.83009945790E+02  0.83009945790E+02  0.00000000000E+00 0. -1.
         24    1    1    2    0    0  0.83295064216E+01  0.18656682744E+02  0.95282832090E+02  0.12634669182E+03  0.80419002446E+02 0.  0.
        -24    1    1    2    0    0 -0.83295064216E+01 -0.18656682744E+02 -0.41970936516E+02  0.92985095336E+02  0.80419002446E+02 0.  0.
<mgrwt>
<rscale>  0 0.82973902E+02</rscale>
<asrwt>0</asrwt>
<pdfrwt beam="1">  1        1 0.12770761E-01 0.82973902E+02</pdfrwt>
<pdfrwt beam="2">  1       -1 0.20972591E-01 0.82973902E+02</pdfrwt>
<totfact> 0.77966744E+03</totfact>
</mgrwt>
</event>
<event>
 4    1  0.4941530E-001  0.8280195E+02  0.7546771E-02  0.1321283E+00
         -2   -1    0    0    0  501 -0.00000000000E+00  0.00000000000E+00  0.69681601071E+03  0.69681601071E+03  0.00000000000E+00 0.  1.
          2   -1    0    0  501    0  0.00000000000E+00 -0.00000000000E+00 -0.23959177435E+02  0.23959177435E+02  0.00000000000E+00 0. -1.
         24    1    1    2    0    0 -0.18972389942E+02 -0.53846988758E+01  0.59766252975E+02  0.10211839947E+03  0.80419002446E+02 0. -1.
        -24    1    1    2    0    0  0.18972389942E+02  0.53846988758E+01  0.61309058030E+03  0.61865678867E+03  0.80419002446E+02 0.  1.
<mgrwt>
<rscale>  0 0.82801948E+02</rscale>
<asrwt>0</asrwt>
<pdfrwt beam="1">  1        2 0.36860278E-02 0.82801948E+02</pdfrwt>
<pdfrwt beam="2">  1       -2 0.10720245E+00 0.82801948E+02</pdfrwt>
<totfact> 0.16017673E+03</totfact>
</mgrwt>
</event>
<event>
 4    1  0.4941530E-001  0.1232639E+03  0.7546771E-02  0.1237808E+00
          2   -1    0    0  501    0  0.00000000000E+00  0.00000000000E+00  0.13359421013E+04  0.13359421013E+04  0.00000000000E+00 0. -1.
         -2   -1    0    0    0  501 -0.00000000000E+00 -0.00000000000E+00 -0.17725898536E+02  0.17725898536E+02  0.00000000000E+00 0.  1.
         24    1    1    2    0    0 -0.65136402821E+01  0.93189881247E+02  0.10642951983E+04  0.10714094766E+04  0.80419002446E+02 0. -1.
        -24    1    1    2    0    0  0.65136402821E+01 -0.93189881247E+02  0.25392100449E+03  0.28225852326E+03  0.80419002446E+02 0.  1.
<mgrwt>
<rscale>  0 0.12326393E+03</rscale>
<asrwt>0</asrwt>
<pdfrwt beam="1">  1        2 0.20552947E+00 0.12326393E+03</pdfrwt>
<pdfrwt beam="2">  1       -2 0.27270624E-02 0.12326393E+03</pdfrwt>
<totfact> 0.79501562E+03</totfact>
</mgrwt>
</event>
<event>
 4    1  0.4941530E-001  0.8782184E+02  0.7546771E-02  0.1308214E+00
         -1   -1    0    0    0  501 -0.00000000000E+00  0.00000000000E+00  0.86214628997E+02  0.86214628997E+02  0.00000000000E+00 0.  1.
          1   -1    0    0  501    0  0.00000000000E+00 -0.00000000000E+00 -0.10451081553E+03  0.10451081553E+03  0.00000000000E+00 0. -1.
         24    1    1    2    0    0 -0.31035928458E+02  0.16799724018E+02  0.27042215726E+02  0.91891005915E+02  0.80419002446E+02 0.  1.
        -24    1    1    2    0    0  0.31035928458E+02 -0.16799724018E+02 -0.45338402259E+02  0.98834438614E+02  0.80419002446E+02 0. -1.
<mgrwt>
<rscale>  0 0.87821840E+02</rscale>
<asrwt>0</asrwt>
<pdfrwt beam="1">  1        1 0.16078587E-01 0.87821840E+02</pdfrwt>
<pdfrwt beam="2">  1       -1 0.13263789E-01 0.87821840E+02</pdfrwt>
<totfact> 0.11939466E+04</totfact>
</mgrwt>
</event>
<event>
 4    1  0.4941530E-001  0.8467765E+02  0.7546771E-02  0.1316278E+00
          1   -1    0    0  501    0  0.00000000000E+00  0.00000000000E+00  0.94454924253E+02  0.94454924253E+02  0.00000000000E+00 0. -1.
         -1   -1    0    0    0  501 -0.00000000000E+00 -0.00000000000E+00 -0.76472561771E+02  0.76472561771E+02  0.00000000000E+00 0.  1.
         24    1    1    2    0    0  0.15229595476E+02 -0.21705947941E+02  0.16769874346E+01  0.84694255978E+02  0.80419002446E+02 0. -1.
        -24    1    1    2    0    0 -0.15229595476E+02  0.21705947941E+02  0.16305375048E+02  0.86233230046E+02  0.80419002446E+02 0.  1.
<mgrwt>
<rscale>  0 0.84677652E+02</rscale>
<asrwt>0</asrwt>
<pdfrwt beam="1">  1        1 0.14531527E-01 0.84677652E+02</pdfrwt>
<pdfrwt beam="2">  1       -1 0.11765009E-01 0.84677652E+02</pdfrwt>
<totfact> 0.16251630E+04</totfact>
</mgrwt>
</event>
<event>
 4    1  0.4941530E-001  0.1119519E+03  0.7546771E-02  0.1256997E+00
          1   -1    0    0  501    0  0.00000000000E+00  0.00000000000E+00  0.21326348967E+02  0.21326348967E+02  0.00000000000E+00 0. -1.
         -1   -1    0    0    0  501 -0.00000000000E+00 -0.00000000000E+00 -0.86150303844E+03  0.86150303844E+03  0.00000000000E+00 0.  1.
         24    1    1    2    0    0  0.23495505184E+02  0.74256134701E+02 -0.66894395763E+03  0.67824718702E+03  0.80419002446E+02 0.  1.
        -24    1    1    2    0    0 -0.23495505184E+02 -0.74256134701E+02 -0.17123273185E+03  0.20458220039E+03  0.80419002446E+02 0. -1.
<mgrwt>
<rscale>  0 0.11195190E+03</rscale>
<asrwt>0</asrwt>
<pdfrwt beam="1">  1        1 0.32809773E-02 0.11195190E+03</pdfrwt>
<pdfrwt beam="2">  1       -1 0.13253891E+00 0.11195190E+03</pdfrwt>
<totfact> 0.15067615E+03</totfact>
</mgrwt>
</event>
<event>
 4    1  0.4941530E-001  0.8545217E+02  0.7546771E-02  0.1314254E+00
          2   -1    0    0  501    0  0.00000000000E+00  0.00000000000E+00  0.12855402237E+04  0.12855402237E+04  0.00000000000E+00 0. -1.
         -2   -1    0    0    0  501 -0.00000000000E+00 -0.00000000000E+00 -0.64243660763E+01  0.64243660763E+01  0.00000000000E+00 0.  1.
         24    1    1    2    0    0  0.87247703701E+01 -0.27545159562E+02  0.85942098241E+03  0.86365878586E+03  0.80419002446E+02 0.  1.
        -24    1    1    2    0    0 -0.87247703701E+01  0.27545159562E+02  0.41969487524E+03  0.42830580394E+03  0.80419002446E+02 0.  0.
<mgrwt>
<rscale>  0 0.85452170E+02</rscale>
<asrwt>0</asrwt>
<pdfrwt beam="1">  1        2 0.19777522E+00 0.85452170E+02</pdfrwt>
<pdfrwt beam="2">  1       -2 0.98836503E-03 0.85452170E+02</pdfrwt>
<totfact> 0.35384485E+04</totfact>
</mgrwt>
</event>
<event>
 4    1  0.4941530E-001  0.1041815E+03  0.7546771E-02  0.1271741E+00
          1   -1    0    0  501    0  0.00000000000E+00  0.00000000000E+00  0.28925700823E+03  0.28925700823E+03  0.00000000000E+00 0. -1.
         -1   -1    0    0    0  501 -0.00000000000E+00 -0.00000000000E+00 -0.23529768705E+03  0.23529768705E+03  0.00000000000E+00 0.  1.
         24    1    1    2    0    0 -0.45129812225E+02  0.48475540297E+02 -0.21347726767E+03  0.23754228619E+03  0.80419002446E+02 0.  1.
        -24    1    1    2    0    0  0.45129812225E+02 -0.48475540297E+02  0.26743658886E+03  0.28701240909E+03  0.80419002446E+02 0. -1.
<mgrwt>
<rscale>  0 0.10418154E+03</rscale>
<asrwt>0</asrwt>
<pdfrwt beam="1">  1        1 0.44501078E-01 0.10418154E+03</pdfrwt>
<pdfrwt beam="2">  1       -1 0.36199644E-01 0.10418154E+03</pdfrwt>
<totfact> 0.67597983E+02</totfact>
</mgrwt>
</event>
<event>
 4    1  0.4941530E-001  0.8841255E+02  0.7546771E-02  0.1306742E+00
          4   -1    0    0  501    0  0.00000000000E+00  0.00000000000E+00  0.15219369938E+03  0.15219369938E+03  0.00000000000E+00 0. -1.
         -4   -1    0    0    0  501 -0.00000000000E+00 -0.00000000000E+00 -0.51398893870E+02  0.51398893870E+02  0.00000000000E+00 0.  1.
         24    1    1    2    0    0  0.25893366766E+02 -0.26059399033E+02  0.47622411150E+02  0.10042245127E+03  0.80419002446E+02 0.  1.
        -24    1    1    2    0    0 -0.25893366766E+02  0.26059399033E+02  0.53172394363E+02  0.10317014198E+03  0.80419002446E+02 0. -1.
<mgrwt>
<rscale>  0 0.88412537E+02</rscale>
<asrwt>0</asrwt>
<pdfrwt beam="1">  1        4 0.23414415E-01 0.88412548E+02</pdfrwt>
<pdfrwt beam="2">  1       -4 0.79075222E-02 0.88412548E+02</pdfrwt>
<totfact> 0.27997282E+03</totfact>
</mgrwt>
</event>
<event>
 4    1  0.4941530E-001  0.8214939E+02  0.7546771E-02  0.1323060E+00
          2   -1    0    0  501    0  0.00000000000E+00  0.00000000000E+00  0.43729685021E+02  0.43729685021E+02  0.00000000000E+00 0. -1.
         -2   -1    0    0    0  501 -0.00000000000E+00 -0.00000000000E+00 -0.27169182006E+03  0.27169182006E+03  0.00000000000E+00 0.  1.
         24    1    1    2    0    0  0.74719563366E+01  0.15015762630E+02 -0.21763801545E+03  0.23262593359E+03  0.80419002446E+02 0.  1.
        -24    1    1    2    0    0 -0.74719563366E+01 -0.15015762630E+02 -0.10324119597E+02  0.82795571492E+02  0.80419002446E+02 0.  0.
<mgrwt>
<rscale>  0 0.82149382E+02</rscale>
<asrwt>0</asrwt>
<pdfrwt beam="1">  1        2 0.67276437E-02 0.82149392E+02</pdfrwt>
<pdfrwt beam="2">  1       -2 0.41798743E-01 0.82149392E+02</pdfrwt>
<totfact> 0.52892792E+03</totfact>
</mgrwt>
</event>
<event>
 4    1  0.4941530E-001  0.8061699E+02  0.7546771E-02  0.1327310E+00
         -2   -1    0    0    0  501 -0.00000000000E+00  0.00000000000E+00  0.27292224641E+02  0.27292224641E+02  0.00000000000E+00 0.  1.
          2   -1    0    0  501    0  0.00000000000E+00 -0.00000000000E+00 -0.27372180419E+03  0.27372180419E+03  0.00000000000E+00 0. -1.
         24    1    1    2    0    0  0.26431644394E+01 -0.49896303248E+01 -0.17748690780E+03  0.19493768523E+03  0.80419002446E+02 0. -1.
        -24    1    1    2    0    0 -0.26431644394E+01  0.49896303248E+01 -0.68942671748E+02  0.10607634360E+03  0.80419002446E+02 0.  0.
<mgrwt>
<rscale>  0 0.80616988E+02</rscale>
<asrwt>0</asrwt>
<pdfrwt beam="1">  1        2 0.42111045E-01 0.80616988E+02</pdfrwt>
<pdfrwt beam="2">  1       -2 0.41988040E-02 0.80616988E+02</pdfrwt>
<totfact> 0.27030937E+04</totfact>
</mgrwt>
</event>
<event>
 4    1  0.4941530E-001  0.9534301E+02  0.7546771E-02  0.1290405E+00
         -1   -1    0    0    0  501 -0.00000000000E+00  0.00000000000E+00  0.43650937004E+02  0.43650937004E+02  0.00000000000E+00 0.  1.
          1   -1    0    0  501    0  0.00000000000E+00 -0.00000000000E+00 -0.28460252451E+03  0.28460252451E+03  0.00000000000E+00 0. -1.
         24    1    1    2    0    0  0.12659482662E+02  0.49626714485E+02 -0.35465240382E+02  0.10172547627E+03  0.80419002446E+02 0.  1.
        -24    1    1    2    0    0 -0.12659482662E+02 -0.49626714485E+02 -0.20548634713E+03  0.22652798525E+03  0.80419002446E+02 0. -1.
<mgrwt>
<rscale>  0 0.95343008E+02</rscale>
<asrwt>0</asrwt>
<pdfrwt beam="1">  1        1 0.43785004E-01 0.95343008E+02</pdfrwt>
<pdfrwt beam="2">  1       -1 0.67155288E-02 0.95343008E+02</pdfrwt>
<totfact> 0.96913828E+03</totfact>
</mgrwt>
</event>
<event>
 4    1  0.4941530E-001  0.8385298E+02  0.7546771E-02  0.1318460E+00
         -2   -1    0    0    0  501 -0.00000000000E+00  0.00000000000E+00  0.19974536932E+02  0.19974536932E+02  0.00000000000E+00 0.  1.
          2   -1    0    0  501    0  0.00000000000E+00 -0.00000000000E+00 -0.34295079040E+04  0.34295079040E+04  0.00000000000E+00 0. -1.
         24    1    1    2    0    0 -0.68775626514E+01  0.22733340137E+02 -0.33385957652E+04  0.33396486350E+04  0.80419002446E+02 0. -1.
        -24    1    1    2    0    0  0.68775626514E+01 -0.22733340137E+02 -0.70937601874E+02  0.10983380598E+03  0.80419002446E+02 0.  1.
<mgrwt>
<rscale>  0 0.83852976E+02</rscale>
<asrwt>0</asrwt>
<pdfrwt beam="1">  1        2 0.52761676E+00 0.83852976E+02</pdfrwt>
<pdfrwt beam="2">  1       -2 0.30730048E-02 0.83852976E+02</pdfrwt>
<totfact> 0.50131693E+02</totfact>
</mgrwt>
</event>
<event>
 4    1  0.4941530E-001  0.8158610E+02  0.7546771E-02  0.1324610E+00
         -2   -1    0    0    0  501 -0.00000000000E+00  0.00000000000E+00  0.11903263771E+02  0.11903263771E+02  0.00000000000E+00 0.  1.
          2   -1    0    0  501    0  0.00000000000E+00 -0.00000000000E+00 -0.70723601515E+03  0.70723601515E+03  0.00000000000E+00 0. -1.
         24    1    1    2    0    0  0.11289828220E+02 -0.78495679135E+01 -0.51217404565E+03  0.51863141529E+03  0.80419002446E+02 0.  0.
        -24    1    1    2    0    0 -0.11289828220E+02  0.78495679135E+01 -0.18315870573E+03  0.20050786363E+03  0.80419002446E+02 0.  0.
<mgrwt>
<rscale>  0 0.81586101E+02</rscale>
<asrwt>0</asrwt>
<pdfrwt beam="1">  1        2 0.10880556E+00 0.81586101E+02</pdfrwt>
<pdfrwt beam="2">  1       -2 0.18312710E-02 0.81586101E+02</pdfrwt>
<totfact> 0.32471720E+04</totfact>
</mgrwt>
</event>
<event>
 4    1  0.4941530E-001  0.1115729E+03  0.7546771E-02  0.1257684E+00
         -1   -1    0    0    0  501 -0.00000000000E+00  0.00000000000E+00  0.15837285398E+02  0.15837285398E+02  0.00000000000E+00 0.  1.
          1   -1    0    0  501    0  0.00000000000E+00 -0.00000000000E+00 -0.94873481439E+03  0.94873481439E+03  0.00000000000E+00 0. -1.
         24    1    1    2    0    0  0.62328910858E+02  0.45786581606E+02 -0.26672136417E+03  0.28911728804E+03  0.80419002446E+02 0.  1.
        -24    1    1    2    0    0 -0.62328910858E+02 -0.45786581606E+02 -0.66617616482E+03  0.67545481175E+03  0.80419002446E+02 0. -1.
<mgrwt>
<rscale>  0 0.11157294E+03</rscale>
<asrwt>0</asrwt>
<pdfrwt beam="1">  1        1 0.14595920E+00 0.11157294E+03</pdfrwt>
<pdfrwt beam="2">  1       -1 0.24365056E-02 0.11157294E+03</pdfrwt>
<totfact> 0.85712396E+03</totfact>
</mgrwt>
</event>
<event>
 4    1  0.4941530E-001  0.8228727E+02  0.7546771E-02  0.1322683E+00
          2   -1    0    0  501    0  0.00000000000E+00  0.00000000000E+00  0.31705341492E+03  0.31705341492E+03  0.00000000000E+00 0. -1.
         -2   -1    0    0    0  501 -0.00000000000E+00 -0.00000000000E+00 -0.49243823950E+02  0.49243823950E+02  0.00000000000E+00 0.  1.
         24    1    1    2    0    0 -0.17423567493E+02 -0.63117175405E+00  0.27173046471E+03  0.28391660833E+03  0.80419002446E+02 0. -1.
        -24    1    1    2    0    0  0.17423567493E+02  0.63117175405E+00 -0.39208737418E+01  0.82380630534E+02  0.80419002446E+02 0.  0.
<mgrwt>
<rscale>  0 0.82287271E+02</rscale>
<asrwt>0</asrwt>
<pdfrwt beam="1">  1        2 0.48777447E-01 0.82287271E+02</pdfrwt>
<pdfrwt beam="2">  1       -2 0.75759731E-02 0.82287271E+02</pdfrwt>
<totfact> 0.96396042E+03</totfact>
</mgrwt>
</event>
<event>
 4    1  0.4941530E-001  0.8322498E+02  0.7546771E-02  0.1320141E+00
          2   -1    0    0  501    0  0.00000000000E+00  0.00000000000E+00  0.21607099081E+03  0.21607099081E+03  0.00000000000E+00 0. -1.
         -2   -1    0    0    0  501 -0.00000000000E+00 -0.00000000000E+00 -0.12225086090E+03  0.12225086090E+03  0.00000000000E+00 0.  1.
         24    1    1    2    0    0 -0.21203146357E+02  0.30997727830E+01  0.19220975710E+03  0.20945402523E+03  0.80419002446E+02 0. -1.
        -24    1    1    2    0    0  0.21203146357E+02 -0.30997727830E+01 -0.98389627193E+02  0.12886782647E+03  0.80419002446E+02 0.  1.
<mgrwt>
<rscale>  0 0.83224984E+02</rscale>
<asrwt>0</asrwt>
<pdfrwt beam="1">  1        2 0.33241691E-01 0.83224984E+02</pdfrwt>
<pdfrwt beam="2">  1       -2 0.18807825E-01 0.83224984E+02</pdfrwt>
<totfact> 0.34253259E+03</totfact>
</mgrwt>
</event>
<event>
 4    1  0.4941530E-001  0.9031383E+02  0.7546771E-02  0.1302093E+00
          1   -1    0    0  501    0  0.00000000000E+00  0.00000000000E+00  0.75160192155E+03  0.75160192155E+03  0.00000000000E+00 0. -1.
         -1   -1    0    0    0  501 -0.00000000000E+00 -0.00000000000E+00 -0.11782627406E+02  0.11782627406E+02  0.00000000000E+00 0.  1.
         24    1    1    2    0    0 -0.17689217840E+02 -0.37100709881E+02  0.26265473646E+03  0.27774826307E+03  0.80419002446E+02 0.  1.
        -24    1    1    2    0    0  0.17689217840E+02  0.37100709881E+02  0.47716455769E+03  0.48563628589E+03  0.80419002446E+02 0. -1.
<mgrwt>
<rscale>  0 0.90313825E+02</rscale>
<asrwt>0</asrwt>
<pdfrwt beam="1">  1        1 0.11563103E+00 0.90313825E+02</pdfrwt>
<pdfrwt beam="2">  1       -1 0.18127125E-02 0.90313825E+02</pdfrwt>
<totfact> 0.18392201E+04</totfact>
</mgrwt>
</event>
<event>
 4    1  0.4941530E-001  0.8852127E+02  0.7546771E-02  0.1306473E+00
          1   -1    0    0  501    0  0.00000000000E+00  0.00000000000E+00  0.43584540638E+03  0.43584540638E+03  0.00000000000E+00 0. -1.
         -1   -1    0    0    0  501 -0.00000000000E+00 -0.00000000000E+00 -0.18014224556E+02  0.18014224556E+02  0.00000000000E+00 0.  1.
         24    1    1    2    0    0 -0.35114446793E+02 -0.11652267880E+02  0.19886487726E+03  0.21767695119E+03  0.80419002446E+02 0.  0.
        -24    1    1    2    0    0  0.35114446793E+02  0.11652267880E+02  0.21896630456E+03  0.23618267974E+03  0.80419002446E+02 0. -1.
<mgrwt>
<rscale>  0 0.88521272E+02</rscale>
<asrwt>0</asrwt>
<pdfrwt beam="1">  1        1 0.67053131E-01 0.88521272E+02</pdfrwt>
<pdfrwt beam="2">  1       -1 0.27714195E-02 0.88521272E+02</pdfrwt>
<totfact> 0.20666074E+04</totfact>
</mgrwt>
</event>
<event>
 4    1  0.4941530E-001  0.8452003E+02  0.7546771E-02  0.1316693E+00
         -2   -1    0    0    0  501 -0.00000000000E+00  0.00000000000E+00  0.14595943080E+02  0.14595943080E+02  0.00000000000E+00 0.  1.
          2   -1    0    0  501    0  0.00000000000E+00 -0.00000000000E+00 -0.85897850422E+03  0.85897850422E+03  0.00000000000E+00 0. -1.
         24    1    1    2    0    0 -0.24530435205E+02  0.86415659093E+01 -0.70868613082E+03  0.71370839065E+03  0.80419002446E+02 0. -1.
        -24    1    1    2    0    0  0.24530435205E+02 -0.86415659093E+01 -0.13569643032E+03  0.15986605665E+03  0.80419002446E+02 0.  1.
<mgrwt>
<rscale>  0 0.84520026E+02</rscale>
<asrwt>0</asrwt>
<pdfrwt beam="1">  1        2 0.13215059E+00 0.84520026E+02</pdfrwt>
<pdfrwt beam="2">  1       -2 0.22455289E-02 0.84520026E+02</pdfrwt>
<totfact> 0.19244797E+04</totfact>
</mgrwt>
</event>
<event>
 4    1  0.4941530E-001  0.8090997E+02  0.7546771E-02  0.1326489E+00
          2   -1    0    0  501    0  0.00000000000E+00  0.00000000000E+00  0.27651148815E+04  0.27651148815E+04  0.00000000000E+00 0. -1.
         -2   -1    0    0    0  501 -0.00000000000E+00 -0.00000000000E+00 -0.59289101349E+01  0.59289101349E+01  0.00000000000E+00 0.  1.
         24    1    1    2    0    0 -0.55369514042E+01  0.69677000844E+01  0.24534257845E+04  0.24547595611E+04  0.80419002446E+02 0. -1.
        -24    1    1    2    0    0  0.55369514042E+01 -0.69677000844E+01  0.30576018683E+03  0.31628423053E+03  0.80419002446E+02 0.  1.
<mgrwt>
<rscale>  0 0.80909966E+02</rscale>
<asrwt>0</asrwt>
<pdfrwt beam="1">  1        2 0.42540126E+00 0.80909966E+02</pdfrwt>
<pdfrwt beam="2">  1       -2 0.91214223E-03 0.80909966E+02</pdfrwt>
<totfact> 0.69012137E+03</totfact>
</mgrwt>
</event>
<event>
 4    1  0.4941530E-001  0.9538850E+02  0.7546771E-02  0.1290303E+00
          3   -1    0    0  501    0  0.00000000000E+00  0.00000000000E+00  0.69954923817E+02  0.69954923817E+02  0.00000000000E+00 0. -1.
         -3   -1    0    0    0  501 -0.00000000000E+00 -0.00000000000E+00 -0.20215628256E+03  0.20215628256E+03  0.00000000000E+00 0.  1.
         24    1    1    2    0    0  0.50368143585E+02  0.97365213983E+01 -0.14734671775E+03  0.17552783518E+03  0.80419002446E+02 0.  0.
        -24    1    1    2    0    0 -0.50368143585E+02 -0.97365213983E+01  0.15145359011E+02  0.96583371193E+02  0.80419002446E+02 0.  0.
<mgrwt>
<rscale>  0 0.95388499E+02</rscale>
<asrwt>0</asrwt>
<pdfrwt beam="1">  1        3 0.10762296E-01 0.95388499E+02</pdfrwt>
<pdfrwt beam="2">  1       -3 0.31100965E-01 0.95388499E+02</pdfrwt>
<totfact> 0.14133016E+03</totfact>
</mgrwt>
</event>
<event>
 4    1  0.4941530E-001  0.1119215E+03  0.7546771E-02  0.1257052E+00
         -1   -1    0    0    0  501 -0.00000000000E+00  0.00000000000E+00  0.31191196266E+02  0.31191196266E+02  0.00000000000E+00 0.  1.
          1   -1    0    0  501    0  0.00000000000E+00 -0.00000000000E+00 -0.51717084717E+03  0.51717084717E+03  0.00000000000E+00 0. -1.
         24    1    1    2    0    0  0.41303493285E+02  0.65979022826E+02 -0.11337877860E+03  0.15931469926E+03  0.80419002446E+02 0.  1.
        -24    1    1    2    0    0 -0.41303493285E+02 -0.65979022826E+02 -0.37260087230E+03  0.38904734417E+03  0.80419002446E+02 0. -1.
<mgrwt>
<rscale>  0 0.11192152E+03</rscale>
<asrwt>0</asrwt>
<pdfrwt beam="1">  1        1 0.79564740E-01 0.11192152E+03</pdfrwt>
<pdfrwt beam="2">  1       -1 0.47986459E-02 0.11192152E+03</pdfrwt>
<totfact> 0.76354190E+03</totfact>
</mgrwt>
</event>
<event>
 4    1  0.4941530E-001  0.1068666E+03  0.7546771E-02  0.1266485E+00
         -2   -1    0    0    0  501 -0.00000000000E+00  0.00000000000E+00  0.51249749067E+02  0.51249749067E+02  0.00000000000E+00 0.  1.
          2   -1    0    0  501    0  0.00000000000E+00 -0.00000000000E+00 -0.22651805149E+03  0.22651805149E+03  0.00000000000E+00 0. -1.
         24    1    1    2    0    0  0.68646706244E+02  0.15520668951E+02 -0.10533233162E+03  0.15005124952E+03  0.80419002446E+02 0.  0.
        -24    1    1    2    0    0 -0.68646706244E+02 -0.15520668951E+02 -0.69935970800E+02  0.12771655104E+03  0.80419002446E+02 0.  1.
<mgrwt>
<rscale>  0 0.10686663E+03</rscale>
<asrwt>0</asrwt>
<pdfrwt beam="1">  1        2 0.34848931E-01 0.10686663E+03</pdfrwt>
<pdfrwt beam="2">  1       -2 0.78845768E-02 0.10686663E+03</pdfrwt>
<totfact> 0.13214658E+04</totfact>
</mgrwt>
</event>
<event>
 4    1  0.4941530E-001  0.9827047E+02  0.7546771E-02  0.1283976E+00
         -3   -1    0    0    0  501 -0.00000000000E+00  0.00000000000E+00  0.12682066930E+04  0.12682066930E+04  0.00000000000E+00 0.  1.
          3   -1    0    0  501    0  0.00000000000E+00 -0.00000000000E+00 -0.27380394462E+02  0.27380394462E+02  0.00000000000E+00 0. -1.
         24    1    1    2    0    0  0.55883015099E+02  0.81827738065E+01  0.11708052389E+04  0.11749221219E+04  0.80419002446E+02 0.  1.
        -24    1    1    2    0    0 -0.55883015099E+02 -0.81827738065E+01  0.70021059632E+02  0.12066496555E+03  0.80419002446E+02 0. -1.
<mgrwt>
<rscale>  0 0.98270469E+02</rscale>
<asrwt>0</asrwt>
<pdfrwt beam="1">  1        3 0.42123694E-02 0.98270469E+02</pdfrwt>
<pdfrwt beam="2">  1       -3 0.19510868E+00 0.98270469E+02</pdfrwt>
<totfact> 0.11670558E+02</totfact>
</mgrwt>
</event>
<event>
 4    1  0.4941530E-001  0.8083473E+02  0.7546771E-02  0.1326699E+00
         -1   -1    0    0    0  501 -0.00000000000E+00  0.00000000000E+00  0.42214220971E+02  0.42214220971E+02  0.00000000000E+00 0.  1.
          1   -1    0    0  501    0  0.00000000000E+00 -0.00000000000E+00 -0.18845252168E+03  0.18845252168E+03  0.00000000000E+00 0. -1.
         24    1    1    2    0    0 -0.80100510935E+01  0.16961783477E+01 -0.24372993839E+02  0.84429240921E+02  0.80419002446E+02 0.  0.
        -24    1    1    2    0    0  0.80100510935E+01 -0.16961783477E+01 -0.12186530687E+03  0.14623750173E+03  0.80419002446E+02 0. -1.
<mgrwt>
<rscale>  0 0.80834732E+02</rscale>
<asrwt>0</asrwt>
<pdfrwt beam="1">  1        1 0.28992696E-01 0.80834732E+02</pdfrwt>
<pdfrwt beam="2">  1       -1 0.64944955E-02 0.80834732E+02</pdfrwt>
<totfact> 0.16578907E+04</totfact>
</mgrwt>
</event>
<event>
 4    1  0.4941530E-001  0.1290994E+03  0.7546771E-02  0.1228798E+00
          2   -1    0    0  501    0  0.00000000000E+00  0.00000000000E+00  0.16943624978E+03  0.16943624978E+03  0.00000000000E+00 0. -1.
         -2   -1    0    0    0  501 -0.00000000000E+00 -0.00000000000E+00 -0.12068954562E+03  0.12068954562E+03  0.00000000000E+00 0.  1.
         24    1    1    2    0    0  0.21220374964E+02  0.98737695535E+02  0.86762580862E+02  0.15554548603E+03  0.80419002446E+02 0. -1.
        -24    1    1    2    0    0 -0.21220374964E+02 -0.98737695535E+02 -0.38015876700E+02  0.13458030937E+03  0.80419002446E+02 0.  1.
<mgrwt>
<rscale>  0 0.12909939E+03</rscale>
<asrwt>0</asrwt>
<pdfrwt beam="1">  1        2 0.26067115E-01 0.12909939E+03</pdfrwt>
<pdfrwt beam="2">  1       -2 0.18567622E-01 0.12909939E+03</pdfrwt>
<totfact> 0.46729527E+03</totfact>
</mgrwt>
</event>
<event>
 4    1  0.4941530E-001  0.1724346E+03  0.7546771E-02  0.1175332E+00
         -1   -1    0    0    0  501 -0.00000000000E+00  0.00000000000E+00  0.14903001235E+02  0.14903001235E+02  0.00000000000E+00 0.  1.
          1   -1    0    0  501    0  0.00000000000E+00 -0.00000000000E+00 -0.20135897566E+04  0.20135897566E+04  0.00000000000E+00 0. -1.
         24    1    1    2    0    0 -0.12293491075E+03  0.90296669243E+02 -0.90227980710E+03  0.91860902837E+03  0.80419002446E+02 0.  1.
        -24    1    1    2    0    0  0.12293491075E+03 -0.90296669243E+02 -0.10964069482E+04  0.11098837294E+04  0.80419002446E+02 0. -1.
<mgrwt>
<rscale>  0 0.17243462E+03</rscale>
<asrwt>0</asrwt>
<pdfrwt beam="1">  1        1 0.30978286E+00 0.17243462E+03</pdfrwt>
<pdfrwt beam="2">  1       -1 0.22927707E-02 0.17243462E+03</pdfrwt>
<totfact> 0.18605970E+03</totfact>
</mgrwt>
</event>
<event>
 4    1  0.4941530E-001  0.9284312E+02  0.7546771E-02  0.1296109E+00
         -1   -1    0    0    0  501 -0.00000000000E+00  0.00000000000E+00  0.22001976329E+03  0.22001976329E+03  0.00000000000E+00 0.  1.
          1   -1    0    0  501    0  0.00000000000E+00 -0.00000000000E+00 -0.61200154618E+02  0.61200154618E+02  0.00000000000E+00 0. -1.
         24    1    1    2    0    0  0.37214345593E+02  0.27707780135E+02  0.16375760189E+03  0.18824557559E+03  0.80419002446E+02 0.  1.
        -24    1    1    2    0    0 -0.37214345593E+02 -0.27707780135E+02 -0.49379932194E+01  0.92974342318E+02  0.80419002446E+02 0. -1.
<mgrwt>
<rscale>  0 0.92843118E+02</rscale>
<asrwt>0</asrwt>
<pdfrwt beam="1">  1        1 0.94154085E-02 0.92843118E+02</pdfrwt>
<pdfrwt beam="2">  1       -1 0.33849194E-01 0.92843118E+02</pdfrwt>
<totfact> 0.53445784E+03</totfact>
</mgrwt>
</event>
<event>
 4    1  0.4941530E-001  0.8555584E+02  0.7546771E-02  0.1313985E+00
         -1   -1    0    0    0  501 -0.00000000000E+00  0.00000000000E+00  0.40726028169E+02  0.40726028169E+02  0.00000000000E+00 0.  1.
          1   -1    0    0  501    0  0.00000000000E+00 -0.00000000000E+00 -0.36164698298E+03  0.36164698298E+03  0.00000000000E+00 0. -1.
         24    1    1    2    0    0  0.22894721600E+02 -0.18122293205E+02 -0.17771724118E+02  0.87382125865E+02  0.80419002446E+02 0.  1.
        -24    1    1    2    0    0 -0.22894721600E+02  0.18122293205E+02 -0.30314923069E+03  0.31499088528E+03  0.80419002446E+02 0. -1.
<mgrwt>
<rscale>  0 0.85555840E+02</rscale>
<asrwt>0</asrwt>
<pdfrwt beam="1">  1        1 0.55637997E-01 0.85555840E+02</pdfrwt>
<pdfrwt beam="2">  1       -1 0.62655428E-02 0.85555840E+02</pdfrwt>
<totfact> 0.79357094E+03</totfact>
</mgrwt>
</event>
<event>
 4    1  0.4941530E-001  0.8436294E+02  0.7546771E-02  0.1317107E+00
          2   -1    0    0  501    0  0.00000000000E+00  0.00000000000E+00  0.47447433379E+03  0.47447433379E+03  0.00000000000E+00 0. -1.
         -2   -1    0    0    0  501 -0.00000000000E+00 -0.00000000000E+00 -0.16614451499E+02  0.16614451499E+02  0.00000000000E+00 0.  1.
         24    1    1    2    0    0 -0.24959717190E+02  0.51866862634E+01  0.30547238281E+03  0.31690768658E+03  0.80419002446E+02 0. -1.
        -24    1    1    2    0    0  0.24959717190E+02 -0.51866862634E+01  0.15238749947E+03  0.17418109871E+03  0.80419002446E+02 0.  1.
<mgrwt>
<rscale>  0 0.84362937E+02</rscale>
<asrwt>0</asrwt>
<pdfrwt beam="1">  1        2 0.72996041E-01 0.84362937E+02</pdfrwt>
<pdfrwt beam="2">  1       -2 0.25560698E-02 0.84362937E+02</pdfrwt>
<totfact> 0.31445409E+04</totfact>
</mgrwt>
</event>
<event>
 4    1  0.4941530E-001  0.1081967E+03  0.7546771E-02  0.1263946E+00
          3   -1    0    0  501    0  0.00000000000E+00  0.00000000000E+00  0.21160431780E+03  0.21160431780E+03  0.00000000000E+00 0. -1.
         -3   -1    0    0    0  501 -0.00000000000E+00 -0.00000000000E+00 -0.55798388918E+02  0.55798388918E+02  0.00000000000E+00 0.  1.
         24    1    1    2    0    0 -0.71486188536E+02  0.11359418521E+02  0.90247508425E+02  0.14089407465E+03  0.80419002446E+02 0.  1.
        -24    1    1    2    0    0  0.71486188536E+02 -0.11359418521E+02  0.65558420460E+02  0.12650863207E+03  0.80419002446E+02 0.  0.
<mgrwt>
<rscale>  0 0.10819672E+03</rscale>
<asrwt>0</asrwt>
<pdfrwt beam="1">  1        3 0.32554510E-01 0.10819673E+03</pdfrwt>
<pdfrwt beam="2">  1       -3 0.85843676E-02 0.10819673E+03</pdfrwt>
<totfact> 0.19261923E+03</totfact>
</mgrwt>
</event>
<event>
 4    1  0.4941530E-001  0.8364349E+02  0.7546771E-02  0.1319019E+00
         -1   -1    0    0    0  501 -0.00000000000E+00  0.00000000000E+00  0.78259533129E+01  0.78259533129E+01  0.00000000000E+00 0.  1.
          1   -1    0    0  501    0  0.00000000000E+00 -0.00000000000E+00 -0.99162019517E+03  0.99162019517E+03  0.00000000000E+00 0. -1.
         24    1    1    2    0    0  0.13870562201E+02  0.18347343910E+02 -0.33508684245E+03  0.34536853571E+03  0.80419002446E+02 0.  1.
        -24    1    1    2    0    0 -0.13870562201E+02 -0.18347343910E+02 -0.64870739942E+03  0.65407761278E+03  0.80419002446E+02 0. -1.
<mgrwt>
<rscale>  0 0.83643490E+02</rscale>
<asrwt>0</asrwt>
<pdfrwt beam="1">  1        1 0.15255698E+00 0.83643490E+02</pdfrwt>
<pdfrwt beam="2">  1       -1 0.12039926E-02 0.83643490E+02</pdfrwt>
<totfact> 0.21306505E+04</totfact>
</mgrwt>
</event>
<event>
 4    1  0.4941530E-001  0.1334179E+03  0.7546771E-02  0.1222471E+00
          1   -1    0    0  501    0  0.00000000000E+00  0.00000000000E+00  0.58146166785E+02  0.58146166785E+02  0.00000000000E+00 0. -1.
         -1   -1    0    0    0  501 -0.00000000000E+00 -0.00000000000E+00 -0.15438292099E+04  0.15438292099E+04  0.00000000000E+00 0.  1.
         24    1    1    2    0    0  0.91032085954E+02  0.55193126038E+02 -0.14600305128E+04  0.14661137187E+04  0.80419002446E+02 0.  1.
        -24    1    1    2    0    0 -0.91032085954E+02 -0.55193126038E+02 -0.25652530245E+02  0.13586165794E+03  0.80419002446E+02 0. -1.
<mgrwt>
<rscale>  0 0.13341791E+03</rscale>
<asrwt>0</asrwt>
<pdfrwt beam="1">  1        1 0.89455656E-02 0.13341791E+03</pdfrwt>
<pdfrwt beam="2">  1       -1 0.23751215E+00 0.13341791E+03</pdfrwt>
<totfact> 0.73247300E+01</totfact>
</mgrwt>
</event>
<event>
 4    1  0.4941530E-001  0.8749291E+02  0.7546771E-02  0.1309039E+00
          2   -1    0    0  501    0  0.00000000000E+00  0.00000000000E+00  0.33569454483E+03  0.33569454483E+03  0.00000000000E+00 0. -1.
         -2   -1    0    0    0  501 -0.00000000000E+00 -0.00000000000E+00 -0.34413136281E+03  0.34413136281E+03  0.00000000000E+00 0.  1.
         24    1    1    2    0    0  0.65048091489E+01 -0.33844955213E+02  0.32423954497E+03  0.33583670439E+03  0.80419002446E+02 0. -1.
        -24    1    1    2    0    0 -0.65048091489E+01  0.33844955213E+02 -0.33267636295E+03  0.34398920326E+03  0.80419002446E+02 0.  1.
<mgrwt>
<rscale>  0 0.87492911E+02</rscale>
<asrwt>0</asrwt>
<pdfrwt beam="1">  1        2 0.51645315E-01 0.87492911E+02</pdfrwt>
<pdfrwt beam="2">  1       -2 0.52943287E-01 0.87492911E+02</pdfrwt>
<totfact> 0.33451769E+02</totfact>
</mgrwt>
</event>
<event>
 4    1  0.4941530E-001  0.8871206E+02  0.7546771E-02  0.1306001E+00
          2   -1    0    0  501    0  0.00000000000E+00  0.00000000000E+00  0.66401748698E+03  0.66401748698E+03  0.00000000000E+00 0. -1.
         -2   -1    0    0    0  501 -0.00000000000E+00 -0.00000000000E+00 -0.25312155344E+02  0.25312155344E+02  0.00000000000E+00 0.  1.
         24    1    1    2    0    0 -0.14004396040E+02  0.34734563418E+02  0.57069174152E+03  0.57754557638E+03  0.80419002446E+02 0. -1.
        -24    1    1    2    0    0  0.14004396040E+02 -0.34734563418E+02  0.68013590121E+02  0.11178406595E+03  0.80419002446E+02 0.  1.
<mgrwt>
<rscale>  0 0.88712056E+02</rscale>
<asrwt>0</asrwt>
<pdfrwt beam="1">  1        2 0.10215652E+00 0.88712056E+02</pdfrwt>
<pdfrwt beam="2">  1       -2 0.38941783E-02 0.88712056E+02</pdfrwt>
<totfact> 0.11821615E+04</totfact>
</mgrwt>
</event>
<event>
 4    1  0.4941530E-001  0.8618560E+02  0.7546771E-02  0.1312361E+00
          2   -1    0    0  501    0  0.00000000000E+00  0.00000000000E+00  0.28327619706E+04  0.28327619706E+04  0.00000000000E+00 0. -1.
         -2   -1    0    0    0  501 -0.00000000000E+00 -0.00000000000E+00 -0.62068504043E+01  0.62068504043E+01  0.00000000000E+00 0.  1.
         24    1    1    2    0    0 -0.28781094293E+02  0.11506116227E+02  0.24920274198E+04  0.24935173188E+04  0.80419002446E+02 0. -1.
        -24    1    1    2    0    0  0.28781094293E+02 -0.11506116227E+02  0.33452770045E+03  0.34545150228E+03  0.80419002446E+02 0.  1.
<mgrwt>
<rscale>  0 0.86185602E+02</rscale>
<asrwt>0</asrwt>
<pdfrwt beam="1">  1        2 0.43580850E+00 0.86185602E+02</pdfrwt>
<pdfrwt beam="2">  1       -2 0.95490232E-03 0.86185602E+02</pdfrwt>
<totfact> 0.59461029E+03</totfact>
</mgrwt>
</event>
<event>
 4    1  0.4941530E-001  0.9347120E+02  0.7546771E-02  0.1294657E+00
          2   -1    0    0  501    0  0.00000000000E+00  0.00000000000E+00  0.43545781769E+04  0.43545781769E+04  0.00000000000E+00 0. -1.
         -2   -1    0    0    0  501 -0.00000000000E+00 -0.00000000000E+00 -0.49417474538E+01  0.49417474538E+01  0.00000000000E+00 0.  1.
         24    1    1    2    0    0  0.32002256350E+02 -0.35291710386E+02  0.38547857198E+04  0.38559188024E+04  0.80419002446E+02 0. -1.
        -24    1    1    2    0    0 -0.32002256350E+02  0.35291710386E+02  0.49485070964E+03  0.50360112194E+03  0.80419002446E+02 0.  1.
<mgrwt>
<rscale>  0 0.93471200E+02</rscale>
<asrwt>0</asrwt>
<pdfrwt beam="1">  1        2 0.66993204E+00 0.93471200E+02</pdfrwt>
<pdfrwt beam="2">  1       -2 0.76027232E-03 0.93471200E+02</pdfrwt>
<totfact> 0.78819531E+02</totfact>
</mgrwt>
</event>
<event>
 4    1  0.4941530E-001  0.8441600E+02  0.7546771E-02  0.1316967E+00
          1   -1    0    0  501    0  0.00000000000E+00  0.00000000000E+00  0.13112195841E+03  0.13112195841E+03  0.00000000000E+00 0. -1.
         -1   -1    0    0    0  501 -0.00000000000E+00 -0.00000000000E+00 -0.64829379705E+02  0.64829379705E+02  0.00000000000E+00 0.  1.
         24    1    1    2    0    0 -0.21261404883E+02 -0.14380486671E+02 -0.62509637758E+01  0.84647127754E+02  0.80419002446E+02 0.  0.
        -24    1    1    2    0    0  0.21261404883E+02  0.14380486671E+02  0.72543542485E+02  0.11130421037E+03  0.80419002446E+02 0.  0.
<mgrwt>
<rscale>  0 0.84416004E+02</rscale>
<asrwt>0</asrwt>
<pdfrwt beam="1">  1        1 0.20172609E-01 0.84416004E+02</pdfrwt>
<pdfrwt beam="2">  1       -1 0.99737508E-02 0.84416004E+02</pdfrwt>
<totfact> 0.13776327E+04</totfact>
</mgrwt>
</event>
<event>
 4    1  0.4941530E-001  0.8054303E+02  0.7546771E-02  0.1327517E+00
         -1   -1    0    0    0  501 -0.00000000000E+00  0.00000000000E+00  0.12765928024E+02  0.12765928024E+02  0.00000000000E+00 0.  1.
          1   -1    0    0  501    0  0.00000000000E+00 -0.00000000000E+00 -0.99588609565E+03  0.99588609565E+03  0.00000000000E+00 0. -1.
         24    1    1    2    0    0  0.20553440570E+01 -0.39673015793E+01 -0.13862654553E+03  0.16032622681E+03  0.80419002446E+02 0.  0.
        -24    1    1    2    0    0 -0.20553440570E+01  0.39673015793E+01 -0.84449362209E+03  0.84832579687E+03  0.80419002446E+02 0. -1.
<mgrwt>
<rscale>  0 0.80543031E+02</rscale>
<asrwt>0</asrwt>
<pdfrwt beam="1">  1        1 0.15321332E+00 0.80543031E+02</pdfrwt>
<pdfrwt beam="2">  1       -1 0.19639880E-02 0.80543031E+02</pdfrwt>
<totfact> 0.10548549E+04</totfact>
</mgrwt>
</event>
<event>
 4    1  0.4941530E-001  0.8316978E+02  0.7546771E-02  0.1320289E+00
         -2   -1    0    0    0  501 -0.00000000000E+00  0.00000000000E+00  0.38039684098E+02  0.38039684098E+02  0.00000000000E+00 0.  1.
          2   -1    0    0  501    0  0.00000000000E+00 -0.00000000000E+00 -0.44755214382E+03  0.44755214382E+03  0.00000000000E+00 0. -1.
         24    1    1    2    0    0 -0.10817030002E+02  0.18247960732E+02 -0.39183461894E+03  0.40056407822E+03  0.80419002446E+02 0. -1.
        -24    1    1    2    0    0  0.10817030002E+02 -0.18247960732E+02 -0.17677840783E+02  0.85027749694E+02  0.80419002446E+02 0.  1.
<mgrwt>
<rscale>  0 0.83169779E+02</rscale>
<asrwt>0</asrwt>
<pdfrwt beam="1">  1        2 0.68854176E-01 0.83169779E+02</pdfrwt>
<pdfrwt beam="2">  1       -2 0.58522591E-02 0.83169779E+02</pdfrwt>
<totfact> 0.99195843E+03</totfact>
</mgrwt>
</event>
<event>
 4    1  0.4941530E-001  0.9554229E+02  0.7546771E-02  0.1289959E+00
          2   -1    0    0  501    0  0.00000000000E+00  0.00000000000E+00  0.26496749701E+03  0.26496749701E+03  0.00000000000E+00 0. -1.
         -2   -1    0    0    0  501 -0.00000000000E+00 -0.00000000000E+00 -0.34614127741E+02  0.34614127741E+02  0.00000000000E+00 0.  1.
         24    1    1    2    0    0 -0.43090917485E+01  0.51405685402E+02  0.12546765497E+03  0.15770371322E+03  0.80419002446E+02 0.  0.
        -24    1    1    2    0    0  0.43090917485E+01 -0.51405685402E+02  0.10488571429E+03  0.14187791153E+03  0.80419002446E+02 0.  1.
<mgrwt>
<rscale>  0 0.95542288E+02</rscale>
<asrwt>0</asrwt>
<pdfrwt beam="1">  1        2 0.40764229E-01 0.95542288E+02</pdfrwt>
<pdfrwt beam="2">  1       -2 0.53252506E-02 0.95542288E+02</pdfrwt>
<totfact> 0.20048081E+04</totfact>
</mgrwt>
</event>
<event>
 4    1  0.4941530E-001  0.9381097E+02  0.7546771E-02  0.1293877E+00
          2   -1    0    0  501    0  0.00000000000E+00  0.00000000000E+00  0.11036258760E+03  0.11036258760E+03  0.00000000000E+00 0. -1.
         -2   -1    0    0    0  501 -0.00000000000E+00 -0.00000000000E+00 -0.80197988981E+02  0.80197988981E+02  0.00000000000E+00 0.  1.
         24    1    1    2    0    0 -0.32418483871E+02  0.35809560730E+02  0.22269313079E+02  0.96417949551E+02  0.80419002446E+02 0.  0.
        -24    1    1    2    0    0  0.32418483871E+02 -0.35809560730E+02  0.78952855420E+01  0.94142627031E+02  0.80419002446E+02 0. -1.
<mgrwt>
<rscale>  0 0.93810973E+02</rscale>
<asrwt>0</asrwt>
<pdfrwt beam="1">  1        2 0.16978860E-01 0.93810973E+02</pdfrwt>
<pdfrwt beam="2">  1       -2 0.12338152E-01 0.93810973E+02</pdfrwt>
<totfact> 0.14300451E+04</totfact>
</mgrwt>
</event>
<event>
 4    1  0.4941530E-001  0.8474436E+02  0.7546771E-02  0.1316102E+00
         -1   -1    0    0    0  501 -0.00000000000E+00  0.00000000000E+00  0.24399658294E+02  0.24399658294E+02  0.00000000000E+00 0.  1.
          1   -1    0    0  501    0  0.00000000000E+00 -0.00000000000E+00 -0.29808778741E+03  0.29808778741E+03  0.00000000000E+00 0. -1.
         24    1    1    2    0    0 -0.10929255377E+02  0.24391356946E+02 -0.15494308022E+03  0.17660396648E+03  0.80419002446E+02 0. -1.
        -24    1    1    2    0    0  0.10929255377E+02 -0.24391356946E+02 -0.11874504890E+03  0.14588347922E+03  0.80419002446E+02 0.  1.
<mgrwt>
<rscale>  0 0.84744349E+02</rscale>
<asrwt>0</asrwt>
<pdfrwt beam="1">  1        1 0.45859659E-01 0.84744359E+02</pdfrwt>
<pdfrwt beam="2">  1       -1 0.37537936E-02 0.84744359E+02</pdfrwt>
<totfact> 0.21209900E+04</totfact>
</mgrwt>
</event>
<event>
 4    1  0.4941530E-001  0.8580026E+02  0.7546771E-02  0.1313353E+00
          1   -1    0    0  501    0  0.00000000000E+00  0.00000000000E+00  0.10482982499E+04  0.10482982499E+04  0.00000000000E+00 0. -1.
         -1   -1    0    0    0  501 -0.00000000000E+00 -0.00000000000E+00 -0.21469595161E+02  0.21469595161E+02  0.00000000000E+00 0.  1.
         24    1    1    2    0    0  0.16239476537E+02 -0.25114688716E+02  0.74643500478E+02  0.11372482713E+03  0.80419002446E+02 0.  1.
        -24    1    1    2    0    0 -0.16239476537E+02  0.25114688716E+02  0.95218515422E+03  0.95604301789E+03  0.80419002446E+02 0. -1.
<mgrwt>
<rscale>  0 0.85800257E+02</rscale>
<asrwt>0</asrwt>
<pdfrwt beam="1">  1        1 0.16127661E+00 0.85800257E+02</pdfrwt>
<pdfrwt beam="2">  1       -1 0.33030155E-02 0.85800257E+02</pdfrwt>
<totfact> 0.46185723E+03</totfact>
</mgrwt>
</event>
<event>
 4    1  0.4941530E-001  0.9955032E+02  0.7546771E-02  0.1281244E+00
          2   -1    0    0  501    0  0.00000000000E+00  0.00000000000E+00  0.11223897080E+04  0.11223897080E+04  0.00000000000E+00 0. -1.
         -2   -1    0    0    0  501 -0.00000000000E+00 -0.00000000000E+00 -0.89752808329E+01  0.89752808329E+01  0.00000000000E+00 0.  1.
         24    1    1    2    0    0  0.58274314255E+02  0.68669782173E+01  0.62877317100E+03  0.63660503267E+03  0.80419002446E+02 0. -1.
        -24    1    1    2    0    0 -0.58274314255E+02 -0.68669782173E+01  0.48464125612E+03  0.49475995612E+03  0.80419002446E+02 0.  1.
<mgrwt>
<rscale>  0 0.99550324E+02</rscale>
<asrwt>0</asrwt>
<pdfrwt beam="1">  1        2 0.17267523E+00 0.99550324E+02</pdfrwt>
<pdfrwt beam="2">  1       -2 0.13808133E-02 0.99550324E+02</pdfrwt>
<totfact> 0.27369999E+04</totfact>
</mgrwt>
</event>
<event>
 4    1  0.4941530E-001  0.8317120E+02  0.7546771E-02  0.1320286E+00
         -3   -1    0    0    0  501 -0.00000000000E+00  0.00000000000E+00  0.14033518958E+03  0.14033518958E+03  0.00000000000E+00 0.  1.
          3   -1    0    0  501    0  0.00000000000E+00 -0.00000000000E+00 -0.23464295286E+03  0.23464295286E+03  0.00000000000E+00 0. -1.
         24    1    1    2    0    0  0.21204045588E+02 -0.78782348819E+00  0.11948227006E+03  0.14557974113E+03  0.80419002446E+02 0.  1.
        -24    1    1    2    0    0 -0.21204045588E+02  0.78782348819E+00 -0.21379003334E+03  0.22939840131E+03  0.80419002446E+02 0. -1.
<mgrwt>
<rscale>  0 0.83171198E+02</rscale>
<asrwt>0</asrwt>
<pdfrwt beam="1">  1        3 0.36098915E-01 0.83171198E+02</pdfrwt>
<pdfrwt beam="2">  1       -3 0.21590030E-01 0.83171198E+02</pdfrwt>
<totfact> 0.32069344E+02</totfact>
</mgrwt>
</event>
<event>
 4    1  0.4941530E-001  0.8906226E+02  0.7546771E-02  0.1305139E+00
          1   -1    0    0  501    0  0.00000000000E+00  0.00000000000E+00  0.23446970568E+03  0.23446970568E+03  0.00000000000E+00 0. -1.
         -1   -1    0    0    0  501 -0.00000000000E+00 -0.00000000000E+00 -0.36174189597E+03  0.36174189597E+03  0.00000000000E+00 0.  1.
         24    1    1    2    0    0  0.36043178306E+02 -0.12874787429E+02 -0.34746045945E+03  0.35869326407E+03  0.80419002446E+02 0.  1.
        -24    1    1    2    0    0 -0.36043178306E+02  0.12874787429E+02  0.22018826916E+03  0.23751833757E+03  0.80419002446E+02 0. -1.
<mgrwt>
<rscale>  0 0.89062264E+02</rscale>
<asrwt>0</asrwt>
<pdfrwt beam="1">  1        1 0.36072262E-01 0.89062264E+02</pdfrwt>
<pdfrwt beam="2">  1       -1 0.55652599E-01 0.89062264E+02</pdfrwt>
<totfact> 0.40697719E+02</totfact>
</mgrwt>
</event>
<event>
 4    1  0.4941530E-001  0.8902856E+02  0.7546771E-02  0.1305221E+00
          2   -1    0    0  501    0  0.00000000000E+00  0.00000000000E+00  0.33405054283E+04  0.33405054283E+04  0.00000000000E+00 0. -1.
         -2   -1    0    0    0  501 -0.00000000000E+00 -0.00000000000E+00 -0.24948865920E+01  0.24948865920E+01  0.00000000000E+00 0.  1.
         24    1    1    2    0    0  0.22954006771E+02  0.30528394183E+02  0.20388816623E+04  0.20408244702E+04  0.80419002446E+02 0. -1.
        -24    1    1    2    0    0 -0.22954006771E+02 -0.30528394183E+02  0.12991288793E+04  0.13021758446E+04  0.80419002446E+02 0.  1.
<mgrwt>
<rscale>  0 0.89028564E+02</rscale>
<asrwt>0</asrwt>
<pdfrwt beam="1">  1        2 0.51392033E+00 0.89028564E+02</pdfrwt>
<pdfrwt beam="2">  1       -2 0.38383138E-03 0.89028564E+02</pdfrwt>
<totfact> 0.10857180E+04</totfact>
</mgrwt>
</event>
<event>
 4    1  0.4941530E-001  0.8222286E+02  0.7546771E-02  0.1322859E+00
         -1   -1    0    0    0  501 -0.00000000000E+00  0.00000000000E+00  0.25049616147E+02  0.25049616147E+02  0.00000000000E+00 0.  1.
          1   -1    0    0  501    0  0.00000000000E+00 -0.00000000000E+00 -0.28413443185E+03  0.28413443185E+03  0.00000000000E+00 0. -1.
         24    1    1    2    0    0  0.15554756894E+01  0.17057640013E+02 -0.94926677920E+02  0.12558532049E+03  0.80419002446E+02 0.  1.
        -24    1    1    2    0    0 -0.15554756894E+01 -0.17057640013E+02 -0.16415813778E+03  0.18359872750E+03  0.80419002446E+02 0. -1.
<mgrwt>
<rscale>  0 0.82222859E+02</rscale>
<asrwt>0</asrwt>
<pdfrwt beam="1">  1        1 0.43712985E-01 0.82222859E+02</pdfrwt>
<pdfrwt beam="2">  1       -1 0.38537875E-02 0.82222859E+02</pdfrwt>
<totfact> 0.21571444E+04</totfact>
</mgrwt>
</event>
<event>
 4    1  0.4941530E-001  0.1365499E+03  0.7546771E-02  0.1218048E+00
         -2   -1    0    0    0  501 -0.00000000000E+00  0.00000000000E+00  0.40077317826E+03  0.40077317826E+03  0.00000000000E+00 0.  1.
          2   -1    0    0  501    0  0.00000000000E+00 -0.00000000000E+00 -0.10986427170E+03  0.10986427170E+03  0.00000000000E+00 0. -1.
         24    1    1    2    0    0  0.10676339658E+03  0.27932717056E+02 -0.48407143569E+02  0.14487624731E+03  0.80419002446E+02 0. -1.
        -24    1    1    2    0    0 -0.10676339658E+03 -0.27932717056E+02  0.33931605014E+03  0.36576120265E+03  0.80419002446E+02 0.  1.
<mgrwt>
<rscale>  0 0.13654990E+03</rscale>
<asrwt>0</asrwt>
<pdfrwt beam="1">  1        2 0.16902196E-01 0.13654990E+03</pdfrwt>
<pdfrwt beam="2">  1       -2 0.61657411E-01 0.13654990E+03</pdfrwt>
<totfact> 0.83129801E+02</totfact>
</mgrwt>
</event>
<event>
 4    1  0.4941530E-001  0.1084430E+03  0.7546771E-02  0.1263481E+00
          2   -1    0    0  501    0  0.00000000000E+00  0.00000000000E+00  0.83390699533E+02  0.83390699533E+02  0.00000000000E+00 0. -1.
         -2   -1    0    0    0  501 -0.00000000000E+00 -0.00000000000E+00 -0.28126514733E+03  0.28126514733E+03  0.00000000000E+00 0.  1.
         24    1    1    2    0    0  0.34206260877E+02 -0.64207409773E+02  0.29809721145E+02  0.11246552886E+03  0.80419002446E+02 0. -1.
        -24    1    1    2    0    0 -0.34206260877E+02  0.64207409773E+02 -0.22768416894E+03  0.25219031800E+03  0.80419002446E+02 0.  1.
<mgrwt>
<rscale>  0 0.10844296E+03</rscale>
<asrwt>0</asrwt>
<pdfrwt beam="1">  1        2 0.12829339E-01 0.10844296E+03</pdfrwt>
<pdfrwt beam="2">  1       -2 0.43271561E-01 0.10844296E+03</pdfrwt>
<totfact> 0.22969082E+03</totfact>
</mgrwt>
</event>
<event>
 4    1  0.4941530E-001  0.8719860E+02  0.7546771E-02  0.1309781E+00
          2   -1    0    0  501    0  0.00000000000E+00  0.00000000000E+00  0.11818110036E+03  0.11818110036E+03  0.00000000000E+00 0. -1.
         -2   -1    0    0    0  501 -0.00000000000E+00 -0.00000000000E+00 -0.14478000054E+03  0.14478000054E+03  0.00000000000E+00 0.  1.
         24    1    1    2    0    0  0.32316707066E+02 -0.95921798446E+01  0.84705337625E+02  0.12156722275E+03  0.80419002446E+02 0. -1.
        -24    1    1    2    0    0 -0.32316707066E+02  0.95921798446E+01 -0.11130423781E+03  0.14139387815E+03  0.80419002446E+02 0.  1.
<mgrwt>
<rscale>  0 0.87198598E+02</rscale>
<asrwt>0</asrwt>
<pdfrwt beam="1">  1        2 0.18181708E-01 0.87198598E+02</pdfrwt>
<pdfrwt beam="2">  1       -2 0.22273846E-01 0.87198598E+02</pdfrwt>
<totfact> 0.49937474E+03</totfact>
</mgrwt>
</event>
<event>
 4    1  0.4941530E-001  0.8961881E+02  0.7546771E-02  0.1303777E+00
          2   -1    0    0  501    0  0.00000000000E+00  0.00000000000E+00  0.34868252478E+02  0.34868252478E+02  0.00000000000E+00 0. -1.
         -2   -1    0    0    0  501 -0.00000000000E+00 -0.00000000000E+00 -0.35138623065E+03  0.35138623065E+03  0.00000000000E+00 0.  1.
         24    1    1    2    0    0 -0.36527696295E+02 -0.15167152498E+02 -0.44907313172E+02  0.10024069953E+03  0.80419002446E+02 0. -1.
        -24    1    1    2    0    0  0.36527696295E+02  0.15167152498E+02 -0.27161066500E+03  0.28601378359E+03  0.80419002446E+02 0.  1.
<mgrwt>
<rscale>  0 0.89618810E+02</rscale>
<asrwt>0</asrwt>
<pdfrwt beam="1">  1        2 0.53643467E-02 0.89618810E+02</pdfrwt>
<pdfrwt beam="2">  1       -2 0.54059418E-01 0.89618810E+02</pdfrwt>
<totfact> 0.43145516E+03</totfact>
</mgrwt>
</event>
<event>
 4    1  0.4941530E-001  0.9844675E+02  0.7546771E-02  0.1283597E+00
          1   -1    0    0  501    0  0.00000000000E+00  0.00000000000E+00  0.13296474209E+03  0.13296474209E+03  0.00000000000E+00 0. -1.
         -1   -1    0    0    0  501 -0.00000000000E+00 -0.00000000000E+00 -0.73544629596E+02  0.73544629596E+02  0.00000000000E+00 0.  1.
         24    1    1    2    0    0  0.80286051179E+00  0.56779418350E+02  0.19966336192E+02  0.10045107002E+03  0.80419002446E+02 0.  1.
        -24    1    1    2    0    0 -0.80286051179E+00 -0.56779418350E+02  0.39453776304E+02  0.10605830167E+03  0.80419002446E+02 0.  0.
<mgrwt>
<rscale>  0 0.98446752E+02</rscale>
<asrwt>0</asrwt>
<pdfrwt beam="1">  1        1 0.20456114E-01 0.98446752E+02</pdfrwt>
<pdfrwt beam="2">  1       -1 0.11314558E-01 0.98446752E+02</pdfrwt>
<totfact> 0.11353202E+04</totfact>
</mgrwt>
</event>
<event>
 4    1  0.4941530E-001  0.8434467E+02  0.7546771E-02  0.1317155E+00
          1   -1    0    0  501    0  0.00000000000E+00  0.00000000000E+00  0.25735508214E+02  0.25735508214E+02  0.00000000000E+00 0. -1.
         -1   -1    0    0    0  501 -0.00000000000E+00 -0.00000000000E+00 -0.37095425453E+03  0.37095425453E+03  0.00000000000E+00 0.  1.
         24    1    1    2    0    0  0.18137144797E+02 -0.17828301534E+02 -0.72485745693E+02  0.11121242574E+03  0.80419002446E+02 0. -1.
        -24    1    1    2    0    0 -0.18137144797E+02  0.17828301534E+02 -0.27273300063E+03  0.28547733700E+03  0.80419002446E+02 0.  1.
<mgrwt>
<rscale>  0 0.84344662E+02</rscale>
<asrwt>0</asrwt>
<pdfrwt beam="1">  1        1 0.39593093E-02 0.84344673E+02</pdfrwt>
<pdfrwt beam="2">  1       -1 0.57069880E-01 0.84344673E+02</pdfrwt>
<totfact> 0.67208535E+03</totfact>
</mgrwt>
</event>
<event>
 4    1  0.4941530E-001  0.9699840E+02  0.7546771E-02  0.1286738E+00
         -2   -1    0    0    0  501 -0.00000000000E+00  0.00000000000E+00  0.17458248842E+02  0.17458248842E+02  0.00000000000E+00 0.  1.
          2   -1    0    0  501    0  0.00000000000E+00 -0.00000000000E+00 -0.58104834484E+03  0.58104834484E+03  0.00000000000E+00 0. -1.
         24    1    1    2    0    0  0.53393891088E+02 -0.95166049232E+01 -0.36236877907E+03  0.37512640719E+03  0.80419002446E+02 0.  1.
        -24    1    1    2    0    0 -0.53393891088E+02  0.95166049232E+01 -0.20122131693E+03  0.22338018649E+03  0.80419002446E+02 0. -1.
<mgrwt>
<rscale>  0 0.96998399E+02</rscale>
<asrwt>0</asrwt>
<pdfrwt beam="1">  1        2 0.89392038E-01 0.96998399E+02</pdfrwt>
<pdfrwt beam="2">  1       -2 0.26858849E-02 0.96998399E+02</pdfrwt>
<totfact> 0.23824745E+04</totfact>
</mgrwt>
</event>
<event>
 4    1  0.4941530E-001  0.9025593E+02  0.7546771E-02  0.1302233E+00
          3   -1    0    0  501    0  0.00000000000E+00  0.00000000000E+00  0.61316606335E+02  0.61316606335E+02  0.00000000000E+00 0. -1.
         -3   -1    0    0    0  501 -0.00000000000E+00 -0.00000000000E+00 -0.21655431439E+03  0.21655431439E+03  0.00000000000E+00 0.  1.
         24    1    1    2    0    0 -0.23644411644E+02  0.33464301751E+02 -0.16399507357E+03  0.18719112640E+03  0.80419002446E+02 0.  1.
        -24    1    1    2    0    0  0.23644411644E+02 -0.33464301751E+02  0.87573655135E+01  0.90679794325E+02  0.80419002446E+02 0. -1.
<mgrwt>
<rscale>  0 0.90255934E+02</rscale>
<asrwt>0</asrwt>
<pdfrwt beam="1">  1        3 0.94333242E-02 0.90255934E+02</pdfrwt>
<pdfrwt beam="2">  1       -3 0.33316048E-01 0.90255934E+02</pdfrwt>
<totfact> 0.15281599E+03</totfact>
</mgrwt>
</event>
<event>
 4    1  0.4941530E-001  0.8154328E+02  0.7546771E-02  0.1324728E+00
         -2   -1    0    0    0  501 -0.00000000000E+00  0.00000000000E+00  0.53907607637E+01  0.53907607637E+01  0.00000000000E+00 0.  1.
          2   -1    0    0  501    0  0.00000000000E+00 -0.00000000000E+00 -0.12460127228E+04  0.12460127228E+04  0.00000000000E+00 0. -1.
         24    1    1    2    0    0 -0.12936195168E+02 -0.38398835928E+01 -0.68310484600E+03  0.68795460347E+03  0.80419002446E+02 0.  1.
        -24    1    1    2    0    0  0.12936195168E+02  0.38398835928E+01 -0.55751711600E+03  0.56344888006E+03  0.80419002446E+02 0.  0.
<mgrwt>
<rscale>  0 0.81543276E+02</rscale>
<asrwt>0</asrwt>
<pdfrwt beam="1">  1        2 0.19169402E+00 0.81543276E+02</pdfrwt>
<pdfrwt beam="2">  1       -2 0.82934886E-03 0.81543276E+02</pdfrwt>
<totfact> 0.47331503E+04</totfact>
</mgrwt>
</event>
<event>
 4    1  0.4941530E-001  0.8581701E+02  0.7546771E-02  0.1313310E+00
         -1   -1    0    0    0  501 -0.00000000000E+00  0.00000000000E+00  0.11771115794E+02  0.11771115794E+02  0.00000000000E+00 0.  1.
          1   -1    0    0  501    0  0.00000000000E+00 -0.00000000000E+00 -0.16771928568E+04  0.16771928568E+04  0.00000000000E+00 0. -1.
         24    1    1    2    0    0 -0.29520098179E+02  0.50898786946E+01 -0.16403897330E+03  0.18513061275E+03  0.80419002446E+02 0.  1.
        -24    1    1    2    0    0  0.29520098179E+02 -0.50898786946E+01 -0.15013827677E+04  0.15038333599E+04  0.80419002446E+02 0. -1.
<mgrwt>
<rscale>  0 0.85817009E+02</rscale>
<asrwt>0</asrwt>
<pdfrwt beam="1">  1        1 0.25802949E+00 0.85817009E+02</pdfrwt>
<pdfrwt beam="2">  1       -1 0.18109422E-02 0.85817009E+02</pdfrwt>
<totfact> 0.42313715E+03</totfact>
</mgrwt>
</event>
<event>
 4    1  0.4941530E-001  0.9340105E+02  0.7546771E-02  0.1294818E+00
         -1   -1    0    0    0  501 -0.00000000000E+00  0.00000000000E+00  0.34812685744E+02  0.34812685744E+02  0.00000000000E+00 0.  1.
          1   -1    0    0  501    0  0.00000000000E+00 -0.00000000000E+00 -0.72898028945E+03  0.72898028945E+03  0.00000000000E+00 0. -1.
         24    1    1    2    0    0 -0.33789049529E+02  0.33389233090E+02 -0.37713691701E+02  0.10072774817E+03  0.80419002446E+02 0.  1.
        -24    1    1    2    0    0  0.33789049529E+02 -0.33389233090E+02 -0.65645391201E+03  0.66306522703E+03  0.80419002446E+02 0. -1.
<mgrwt>
<rscale>  0 0.93401053E+02</rscale>
<asrwt>0</asrwt>
<pdfrwt beam="1">  1        1 0.11215081E+00 0.93401053E+02</pdfrwt>
<pdfrwt beam="2">  1       -1 0.53557981E-02 0.93401053E+02</pdfrwt>
<totfact> 0.40324916E+03</totfact>
</mgrwt>
</event>
<event>
 4    1  0.4941530E-001  0.9257275E+02  0.7546771E-02  0.1296738E+00
         -2   -1    0    0    0  501 -0.00000000000E+00  0.00000000000E+00  0.11038570206E+02  0.11038570206E+02  0.00000000000E+00 0.  1.
          2   -1    0    0  501    0  0.00000000000E+00 -0.00000000000E+00 -0.10918891353E+04  0.10918891353E+04  0.00000000000E+00 0. -1.
         24    1    1    2    0    0 -0.38696384940E+02 -0.24598544859E+02 -0.83688066808E+03  0.84198513477E+03  0.80419002446E+02 0. -1.
        -24    1    1    2    0    0  0.38696384940E+02  0.24598544859E+02 -0.24396989697E+03  0.26094257069E+03  0.80419002446E+02 0.  1.
<mgrwt>
<rscale>  0 0.92572753E+02</rscale>
<asrwt>0</asrwt>
<pdfrwt beam="1">  1        2 0.16798306E+00 0.92572753E+02</pdfrwt>
<pdfrwt beam="2">  1       -2 0.16982404E-02 0.92572753E+02</pdfrwt>
<totfact> 0.21050924E+04</totfact>
</mgrwt>
</event>
<event>
 4    1  0.4941530E-001  0.1241272E+03  0.7546771E-02  0.1236440E+00
         -1   -1    0    0    0  501 -0.00000000000E+00  0.00000000000E+00  0.88590135625E+01  0.88590135625E+01  0.00000000000E+00 0.  1.
          1   -1    0    0  501    0  0.00000000000E+00 -0.00000000000E+00 -0.36591159728E+04  0.36591159728E+04  0.00000000000E+00 0. -1.
         24    1    1    2    0    0 -0.59491991012E+02  0.73491852880E+02 -0.49666448210E+03  0.51194059535E+03  0.80419002446E+02 0.  1.
        -24    1    1    2    0    0  0.59491991012E+02 -0.73491852880E+02 -0.31535924771E+04  0.31560343910E+04  0.80419002446E+02 0. -1.
<mgrwt>
<rscale>  0 0.12412721E+03</rscale>
<asrwt>0</asrwt>
<pdfrwt beam="1">  1        1 0.56294121E+00 0.12412721E+03</pdfrwt>
<pdfrwt beam="2">  1       -1 0.13629245E-02 0.12412721E+03</pdfrwt>
<totfact> 0.29811439E+02</totfact>
</mgrwt>
</event>
<event>
 4    1  0.4941530E-001  0.1001768E+03  0.7546771E-02  0.1279925E+00
         -1   -1    0    0    0  501 -0.00000000000E+00  0.00000000000E+00  0.12123775059E+03  0.12123775059E+03  0.00000000000E+00 0.  1.
          1   -1    0    0  501    0  0.00000000000E+00 -0.00000000000E+00 -0.82774838380E+02  0.82774838380E+02  0.00000000000E+00 0. -1.
         24    1    1    2    0    0  0.51686065971E+02  0.29945328233E+02  0.19010332533E+02  0.10196460560E+03  0.80419002446E+02 0.  1.
        -24    1    1    2    0    0 -0.51686065971E+02 -0.29945328233E+02  0.19452579678E+02  0.10204798337E+03  0.80419002446E+02 0.  0.
<mgrwt>
<rscale>  0 0.10017680E+03</rscale>
<asrwt>0</asrwt>
<pdfrwt beam="1">  1        1 0.12734591E-01 0.10017681E+03</pdfrwt>
<pdfrwt beam="2">  1       -1 0.18651962E-01 0.10017681E+03</pdfrwt>
<totfact> 0.95884655E+03</totfact>
</mgrwt>
</event>
<event>
 4    1  0.4941530E-001  0.8276589E+02  0.7546771E-02  0.1321381E+00
         -2   -1    0    0    0  501 -0.00000000000E+00  0.00000000000E+00  0.30259474448E+02  0.30259474448E+02  0.00000000000E+00 0.  1.
          2   -1    0    0  501    0  0.00000000000E+00 -0.00000000000E+00 -0.32060411955E+03  0.32060411955E+03  0.00000000000E+00 0. -1.
         24    1    1    2    0    0  0.18030656047E+02 -0.76073719765E+01 -0.24027676105E+03  0.25413208086E+03  0.80419002446E+02 0. -1.
        -24    1    1    2    0    0 -0.18030656047E+02  0.76073719765E+01 -0.50067884045E+02  0.96731513133E+02  0.80419002446E+02 0.  1.
<mgrwt>
<rscale>  0 0.82765890E+02</rscale>
<asrwt>0</asrwt>
<pdfrwt beam="1">  1        2 0.49323713E-01 0.82765890E+02</pdfrwt>
<pdfrwt beam="2">  1       -2 0.46553036E-02 0.82765890E+02</pdfrwt>
<totfact> 0.19755127E+04</totfact>
</mgrwt>
</event>
<event>
 4    1  0.4941530E-001  0.9092664E+02  0.7546771E-02  0.1300623E+00
          2   -1    0    0  501    0  0.00000000000E+00  0.00000000000E+00  0.63686265276E+03  0.63686265276E+03  0.00000000000E+00 0. -1.
         -2   -1    0    0    0  501 -0.00000000000E+00 -0.00000000000E+00 -0.12994114453E+02  0.12994114453E+02  0.00000000000E+00 0.  1.
         24    1    1    2    0    0  0.42321525533E+02 -0.30540445620E+01  0.32191723526E+03  0.33451212388E+03  0.80419002446E+02 0. -1.
        -24    1    1    2    0    0 -0.42321525533E+02  0.30540445620E+01  0.30195130304E+03  0.31534464333E+03  0.80419002446E+02 0.  1.
<mgrwt>
<rscale>  0 0.90926644E+02</rscale>
<asrwt>0</asrwt>
<pdfrwt beam="1">  1        2 0.97978845E-01 0.90926644E+02</pdfrwt>
<pdfrwt beam="2">  1       -2 0.19990950E-02 0.90926644E+02</pdfrwt>
<totfact> 0.32695471E+04</totfact>
</mgrwt>
</event>
<event>
 4    1  0.4941530E-001  0.8122930E+02  0.7546771E-02  0.1325599E+00
          2   -1    0    0  501    0  0.00000000000E+00  0.00000000000E+00  0.14361463886E+04  0.14361463886E+04  0.00000000000E+00 0. -1.
         -2   -1    0    0    0  501 -0.00000000000E+00 -0.00000000000E+00 -0.20978641919E+02  0.20978641919E+02  0.00000000000E+00 0.  1.
         24    1    1    2    0    0  0.10501391185E+02  0.45502433951E+01  0.13514441036E+04  0.13538830692E+04  0.80419002446E+02 0. -1.
        -24    1    1    2    0    0 -0.10501391185E+02 -0.45502433951E+01  0.63723643017E+02  0.10324196126E+03  0.80419002446E+02 0.  1.
<mgrwt>
<rscale>  0 0.81229304E+02</rscale>
<asrwt>0</asrwt>
<pdfrwt beam="1">  1        2 0.22094552E+00 0.81229304E+02</pdfrwt>
<pdfrwt beam="2">  1       -2 0.32274845E-02 0.81229304E+02</pdfrwt>
<totfact> 0.54195712E+03</totfact>
</mgrwt>
</event>
<event>
 4    1  0.4941530E-001  0.9688831E+02  0.7546771E-02  0.1286979E+00
          2   -1    0    0  501    0  0.00000000000E+00  0.00000000000E+00  0.36354459592E+03  0.36354459592E+03  0.00000000000E+00 0. -1.
         -2   -1    0    0    0  501 -0.00000000000E+00 -0.00000000000E+00 -0.26793846714E+02  0.26793846714E+02  0.00000000000E+00 0.  1.
         24    1    1    2    0    0  0.50724877461E+02  0.18630897459E+02  0.13119962758E+03  0.16309715437E+03  0.80419002446E+02 0. -1.
        -24    1    1    2    0    0 -0.50724877461E+02 -0.18630897459E+02  0.20555112163E+03  0.22724128826E+03  0.80419002446E+02 0.  1.
<mgrwt>
<rscale>  0 0.96888296E+02</rscale>
<asrwt>0</asrwt>
<pdfrwt beam="1">  1        2 0.55929934E-01 0.96888308E+02</pdfrwt>
<pdfrwt beam="2">  1       -2 0.41221305E-02 0.96888308E+02</pdfrwt>
<totfact> 0.21072671E+04</totfact>
</mgrwt>
</event>
<event>
 4    1  0.4941530E-001  0.8272323E+02  0.7546771E-02  0.1321496E+00
          3   -1    0    0  501    0  0.00000000000E+00  0.00000000000E+00  0.14002297908E+03  0.14002297908E+03  0.00000000000E+00 0. -1.
         -3   -1    0    0    0  501 -0.00000000000E+00 -0.00000000000E+00 -0.51732139314E+02  0.51732139314E+02  0.00000000000E+00 0.  1.
         24    1    1    2    0    0 -0.17024218470E+02  0.92786430229E+01  0.21599486819E+02  0.85496614062E+02  0.80419002446E+02 0.  0.
        -24    1    1    2    0    0  0.17024218470E+02 -0.92786430229E+01  0.66691352949E+02  0.10625850433E+03  0.80419002446E+02 0.  0.
<mgrwt>
<rscale>  0 0.82723232E+02</rscale>
<asrwt>0</asrwt>
<pdfrwt beam="1">  1        3 0.21541997E-01 0.82723232E+02</pdfrwt>
<pdfrwt beam="2">  1       -3 0.79587907E-02 0.82723232E+02</pdfrwt>
<totfact> 0.43367714E+03</totfact>
</mgrwt>
</event>
<event>
 4    1  0.4941530E-001  0.8563073E+02  0.7546771E-02  0.1313791E+00
          2   -1    0    0  501    0  0.00000000000E+00  0.00000000000E+00  0.15679510671E+03  0.15679510671E+03  0.00000000000E+00 0. -1.
         -2   -1    0    0    0  501 -0.00000000000E+00 -0.00000000000E+00 -0.48325407899E+02  0.48325407899E+02  0.00000000000E+00 0.  1.
         24    1    1    2    0    0 -0.52884908819E+01 -0.28938452152E+02  0.35809058827E+02  0.92816522221E+02  0.80419002446E+02 0.  1.
        -24    1    1    2    0    0  0.52884908819E+01  0.28938452152E+02  0.72660639982E+02  0.11230399239E+03  0.80419002446E+02 0.  1.
<mgrwt>
<rscale>  0 0.85630718E+02</rscale>
<asrwt>0</asrwt>
<pdfrwt beam="1">  1        2 0.24122324E-01 0.85630729E+02</pdfrwt>
<pdfrwt beam="2">  1       -2 0.74346782E-02 0.85630729E+02</pdfrwt>
<totfact> 0.20988829E+04</totfact>
</mgrwt>
</event>
<event>
 4    1  0.4941530E-001  0.8084436E+02  0.7546771E-02  0.1326672E+00
          2   -1    0    0  501    0  0.00000000000E+00  0.00000000000E+00  0.49519607721E+03  0.49519607721E+03  0.00000000000E+00 0. -1.
         -2   -1    0    0    0  501 -0.00000000000E+00 -0.00000000000E+00 -0.13821732964E+02  0.13821732964E+02  0.00000000000E+00 0.  1.
         24    1    1    2    0    0  0.54979888401E+01  0.61941194547E+01  0.29473412277E+03  0.30562070296E+03  0.80419002446E+02 0.  0.
        -24    1    1    2    0    0 -0.54979888401E+01 -0.61941194547E+01  0.18664022147E+03  0.20339710721E+03  0.80419002446E+02 0.  1.
<mgrwt>
<rscale>  0 0.80844363E+02</rscale>
<asrwt>0</asrwt>
<pdfrwt beam="1">  1        2 0.76183998E-01 0.80844363E+02</pdfrwt>
<pdfrwt beam="2">  1       -2 0.21264208E-02 0.80844363E+02</pdfrwt>
<totfact> 0.38944004E+04</totfact>
</mgrwt>
</event>
<event>
 4    1  0.4941530E-001  0.9068915E+02  0.7546771E-02  0.1301191E+00
          2   -1    0    0  501    0  0.00000000000E+00  0.00000000000E+00  0.18823609328E+04  0.18823609328E+04  0.00000000000E+00 0. -1.
         -2   -1    0    0    0  501 -0.00000000000E+00 -0.00000000000E+00 -0.19695733237E+02  0.19695733237E+02  0.00000000000E+00 0.  1.
         24    1    1    2    0    0 -0.30332824759E+02  0.28934842339E+02  0.17702679936E+04  0.17725894309E+04  0.80419002446E+02 0. -1.
        -24    1    1    2    0    0  0.30332824759E+02 -0.28934842339E+02  0.92397206025E+02  0.12946723522E+03  0.80419002446E+02 0.  1.
<mgrwt>
<rscale>  0 0.90689147E+02</rscale>
<asrwt>0</asrwt>
<pdfrwt beam="1">  1        2 0.28959385E+00 0.90689147E+02</pdfrwt>
<pdfrwt beam="2">  1       -2 0.30301143E-02 0.90689147E+02</pdfrwt>
<totfact> 0.35500076E+03</totfact>
</mgrwt>
</event>
<event>
 4    1  0.4941530E-001  0.9209405E+02  0.7546771E-02  0.1297858E+00
          2   -1    0    0  501    0  0.00000000000E+00  0.00000000000E+00  0.15028858445E+04  0.15028858445E+04  0.00000000000E+00 0. -1.
         -2   -1    0    0    0  501 -0.00000000000E+00 -0.00000000000E+00 -0.72176579180E+01  0.72176579180E+01  0.00000000000E+00 0.  1.
         24    1    1    2    0    0  0.37728977185E+02 -0.24302720590E+02  0.11004672378E+04  0.11043140202E+04  0.80419002446E+02 0. -1.
        -24    1    1    2    0    0 -0.37728977185E+02  0.24302720590E+02  0.39520094884E+03  0.40578948220E+03  0.80419002446E+02 0.  1.
<mgrwt>
<rscale>  0 0.92094049E+02</rscale>
<asrwt>0</asrwt>
<pdfrwt beam="1">  1        2 0.23121296E+00 0.92094049E+02</pdfrwt>
<pdfrwt beam="2">  1       -2 0.11104101E-02 0.92094049E+02</pdfrwt>
<totfact> 0.23291663E+04</totfact>
</mgrwt>
</event>
<event>
 4    1  0.4941530E-001  0.8386590E+02  0.7546771E-02  0.1318425E+00
          1   -1    0    0  501    0  0.00000000000E+00  0.00000000000E+00  0.19968887930E+03  0.19968887930E+03  0.00000000000E+00 0. -1.
         -1   -1    0    0    0  501 -0.00000000000E+00 -0.00000000000E+00 -0.11388607121E+03  0.11388607121E+03  0.00000000000E+00 0.  1.
         24    1    1    2    0    0  0.20346071568E+01  0.23709359652E+02 -0.87404355697E+02  0.12113220344E+03  0.80419002446E+02 0.  1.
        -24    1    1    2    0    0 -0.20346071568E+01 -0.23709359652E+02  0.17320716379E+03  0.19244274708E+03  0.80419002446E+02 0. -1.
<mgrwt>
<rscale>  0 0.83865901E+02</rscale>
<asrwt>0</asrwt>
<pdfrwt beam="1">  1        1 0.30721366E-01 0.83865901E+02</pdfrwt>
<pdfrwt beam="2">  1       -1 0.17520934E-01 0.83865901E+02</pdfrwt>
<totfact> 0.34481309E+03</totfact>
</mgrwt>
</event>
<event>
 4    1  0.4941530E-001  0.8193674E+02  0.7546771E-02  0.1323643E+00
          4   -1    0    0  501    0  0.00000000000E+00  0.00000000000E+00  0.14291086771E+03  0.14291086771E+03  0.00000000000E+00 0. -1.
         -4   -1    0    0    0  501 -0.00000000000E+00 -0.00000000000E+00 -0.81994896962E+02  0.81994896962E+02  0.00000000000E+00 0.  1.
         24    1    1    2    0    0  0.27348666963E+01 -0.15457490964E+02  0.10394618800E+03  0.13235724187E+03  0.80419002446E+02 0. -1.
        -24    1    1    2    0    0 -0.27348666963E+01  0.15457490964E+02 -0.43030217244E+02  0.92548522804E+02  0.80419002446E+02 0.  1.
<mgrwt>
<rscale>  0 0.81936741E+02</rscale>
<asrwt>0</asrwt>
<pdfrwt beam="1">  1        4 0.21986287E-01 0.81936741E+02</pdfrwt>
<pdfrwt beam="2">  1       -4 0.12614600E-01 0.81936741E+02</pdfrwt>
<totfact> 0.14099752E+03</totfact>
</mgrwt>
</event>
<event>
 4    1  0.4941530E-001  0.1488837E+03  0.7546771E-02  0.1201851E+00
         -1   -1    0    0    0  501 -0.00000000000E+00  0.00000000000E+00  0.22201451884E+03  0.22201451884E+03  0.00000000000E+00 0.  1.
          1   -1    0    0  501    0  0.00000000000E+00 -0.00000000000E+00 -0.12179867050E+03  0.12179867050E+03  0.00000000000E+00 0. -1.
         24    1    1    2    0    0 -0.66722405425E+02  0.10605311785E+03  0.12309654362E+03  0.19318156796E+03  0.80419002446E+02 0.  1.
        -24    1    1    2    0    0  0.66722405425E+02 -0.10605311785E+03 -0.22880695286E+02  0.15063162139E+03  0.80419002446E+02 0. -1.
<mgrwt>
<rscale>  0 0.14888371E+03</rscale>
<asrwt>0</asrwt>
<pdfrwt beam="1">  1        1 0.18738257E-01 0.14888371E+03</pdfrwt>
<pdfrwt beam="2">  1       -1 0.34156080E-01 0.14888371E+03</pdfrwt>
<totfact> 0.22142647E+03</totfact>
</mgrwt>
</event>
<event>
 4    1  0.4941530E-001  0.8994335E+02  0.7546771E-02  0.1302989E+00
          2   -1    0    0  501    0  0.00000000000E+00  0.00000000000E+00  0.22204830022E+04  0.22204830022E+04  0.00000000000E+00 0. -1.
         -2   -1    0    0    0  501 -0.00000000000E+00 -0.00000000000E+00 -0.62486520705E+01  0.62486520705E+01  0.00000000000E+00 0.  1.
         24    1    1    2    0    0 -0.10146382613E+02 -0.38982567469E+02  0.18260377824E+04  0.18282515659E+04  0.80419002446E+02 0. -1.
        -24    1    1    2    0    0  0.10146382613E+02  0.38982567469E+02  0.38819656774E+03  0.39848008834E+03  0.80419002446E+02 0.  1.
<mgrwt>
<rscale>  0 0.89943347E+02</rscale>
<asrwt>0</asrwt>
<pdfrwt beam="1">  1        2 0.34161214E+00 0.89943347E+02</pdfrwt>
<pdfrwt beam="2">  1       -2 0.96133286E-03 0.89943347E+02</pdfrwt>
<totfact> 0.12401375E+04</totfact>
</mgrwt>
</event>
<event>
 4    1  0.4941530E-001  0.8345988E+02  0.7546771E-02  0.1319510E+00
          3   -1    0    0  501    0  0.00000000000E+00  0.00000000000E+00  0.63748695944E+02  0.63748695944E+02  0.00000000000E+00 0. -1.
         -3   -1    0    0    0  501 -0.00000000000E+00 -0.00000000000E+00 -0.23397561247E+03  0.23397561247E+03  0.00000000000E+00 0.  1.
         24    1    1    2    0    0  0.22200698083E+02 -0.23376958450E+01 -0.19379338313E+03  0.21100101212E+03  0.80419002446E+02 0.  1.
        -24    1    1    2    0    0 -0.22200698083E+02  0.23376958450E+01  0.23566466604E+02  0.86723296292E+02  0.80419002446E+02 0.  0.
<mgrwt>
<rscale>  0 0.83459881E+02</rscale>
<asrwt>0</asrwt>
<pdfrwt beam="1">  1        3 0.98074916E-02 0.83459881E+02</pdfrwt>
<pdfrwt beam="2">  1       -3 0.35996248E-01 0.83459881E+02</pdfrwt>
<totfact> 0.12221488E+03</totfact>
</mgrwt>
</event>
<event>
 4    1  0.4941530E-001  0.8877454E+02  0.7546771E-02  0.1305847E+00
          2   -1    0    0  501    0  0.00000000000E+00  0.00000000000E+00  0.31197813320E+02  0.31197813320E+02  0.00000000000E+00 0. -1.
         -2   -1    0    0    0  501 -0.00000000000E+00 -0.00000000000E+00 -0.26247964360E+03  0.26247964360E+03  0.00000000000E+00 0.  1.
         24    1    1    2    0    0  0.23386333341E+02  0.29441169090E+02 -0.87169059060E+02  0.12441609155E+03  0.80419002446E+02 0. -1.
        -24    1    1    2    0    0 -0.23386333341E+02 -0.29441169090E+02 -0.14411277122E+03  0.16926136538E+03  0.80419002446E+02 0.  1.
<mgrwt>
<rscale>  0 0.88774540E+02</rscale>
<asrwt>0</asrwt>
<pdfrwt beam="1">  1        2 0.47996637E-02 0.88774540E+02</pdfrwt>
<pdfrwt beam="2">  1       -2 0.40381483E-01 0.88774540E+02</pdfrwt>
<totfact> 0.87467131E+03</totfact>
</mgrwt>
</event>
<event>
 4    1  0.4941530E-001  0.8627878E+02  0.7546771E-02  0.1312122E+00
          2   -1    0    0  501    0  0.00000000000E+00  0.00000000000E+00  0.20485222767E+03  0.20485222767E+03  0.00000000000E+00 0. -1.
         -2   -1    0    0    0  501 -0.00000000000E+00 -0.00000000000E+00 -0.64125604580E+02  0.64125604580E+02  0.00000000000E+00 0.  1.
         24    1    1    2    0    0 -0.14155474133E+02 -0.27864561934E+02  0.15889367187E+03  0.18080715189E+03  0.80419002446E+02 0. -1.
        -24    1    1    2    0    0  0.14155474133E+02  0.27864561934E+02 -0.18167048779E+02  0.88170680362E+02  0.80419002446E+02 0.  1.
<mgrwt>
<rscale>  0 0.86278776E+02</rscale>
<asrwt>0</asrwt>
<pdfrwt beam="1">  1        2 0.31515727E-01 0.86278776E+02</pdfrwt>
<pdfrwt beam="2">  1       -2 0.98654777E-02 0.86278776E+02</pdfrwt>
<totfact> 0.10206894E+04</totfact>
</mgrwt>
</event>
<event>
 4    1  0.4941530E-001  0.8300034E+02  0.7546771E-02  0.1320746E+00
          2   -1    0    0  501    0  0.00000000000E+00  0.00000000000E+00  0.21075538930E+02  0.21075538930E+02  0.00000000000E+00 0. -1.
         -2   -1    0    0    0  501 -0.00000000000E+00 -0.00000000000E+00 -0.91657148493E+03  0.91657148493E+03  0.00000000000E+00 0.  1.
         24    1    1    2    0    0  0.10342427206E+02 -0.17744711627E+02 -0.71702243271E+02  0.10968257945E+03  0.80419002446E+02 0. -1.
        -24    1    1    2    0    0 -0.10342427206E+02  0.17744711627E+02 -0.82379370273E+03  0.82796444441E+03  0.80419002446E+02 0.  1.
<mgrwt>
<rscale>  0 0.83000341E+02</rscale>
<asrwt>0</asrwt>
<pdfrwt beam="1">  1        2 0.32423897E-02 0.83000341E+02</pdfrwt>
<pdfrwt beam="2">  1       -2 0.14101104E+00 0.83000341E+02</pdfrwt>
<totfact> 0.98369752E+02</totfact>
</mgrwt>
</event>
<event>
 4    1  0.4941530E-001  0.8931523E+02  0.7546771E-02  0.1304518E+00
          1   -1    0    0  501    0  0.00000000000E+00  0.00000000000E+00  0.95306734545E+03  0.95306734545E+03  0.00000000000E+00 0. -1.
         -1   -1    0    0    0  501 -0.00000000000E+00 -0.00000000000E+00 -0.12114353173E+02  0.12114353173E+02  0.00000000000E+00 0.  1.
         24    1    1    2    0    0  0.11156266359E+02  0.37222738881E+02  0.20217992134E+03  0.22102925399E+03  0.80419002446E+02 0.  1.
        -24    1    1    2    0    0 -0.11156266359E+02 -0.37222738881E+02  0.73877307093E+03  0.74415244464E+03  0.80419002446E+02 0. -1.
<mgrwt>
<rscale>  0 0.89315231E+02</rscale>
<asrwt>0</asrwt>
<pdfrwt beam="1">  1        1 0.14662569E+00 0.89315231E+02</pdfrwt>
<pdfrwt beam="2">  1       -1 0.18637474E-02 0.89315231E+02</pdfrwt>
<totfact> 0.12303185E+04</totfact>
</mgrwt>
</event>
<event>
 4    1  0.4941530E-001  0.8306842E+02  0.7546771E-02  0.1320563E+00
         -2   -1    0    0    0  501 -0.00000000000E+00  0.00000000000E+00  0.67841621089E+01  0.67841621089E+01  0.00000000000E+00 0.  1.
          2   -1    0    0  501    0  0.00000000000E+00 -0.00000000000E+00 -0.10270563549E+04  0.10270563549E+04  0.00000000000E+00 0. -1.
         24    1    1    2    0    0 -0.20811383798E+02  0.18191493582E+00 -0.56095908616E+03  0.56707623746E+03  0.80419002446E+02 0.  1.
        -24    1    1    2    0    0  0.20811383798E+02 -0.18191493582E+00 -0.45931310667E+03  0.46676427959E+03  0.80419002446E+02 0. -1.
<mgrwt>
<rscale>  0 0.83068422E+02</rscale>
<asrwt>0</asrwt>
<pdfrwt beam="1">  1        2 0.15800857E+00 0.83068422E+02</pdfrwt>
<pdfrwt beam="2">  1       -2 0.10437179E-02 0.83068422E+02</pdfrwt>
<totfact> 0.45314494E+04</totfact>
</mgrwt>
</event>
<event>
 4    1  0.4941530E-001  0.9013124E+02  0.7546771E-02  0.1302534E+00
         -2   -1    0    0    0  501 -0.00000000000E+00  0.00000000000E+00  0.82125083855E+01  0.82125083855E+01  0.00000000000E+00 0.  1.
          2   -1    0    0  501    0  0.00000000000E+00 -0.00000000000E+00 -0.14977188365E+04  0.14977188365E+04  0.00000000000E+00 0. -1.
         24    1    1    2    0    0  0.26269855055E+02  0.31085667851E+02 -0.11835086553E+04  0.11869357090E+04  0.80419002446E+02 0.  0.
        -24    1    1    2    0    0 -0.26269855055E+02 -0.31085667851E+02 -0.30599767280E+03  0.31899563594E+03  0.80419002446E+02 0. -1.
<mgrwt>
<rscale>  0 0.90131238E+02</rscale>
<asrwt>0</asrwt>
<pdfrwt beam="1">  1        2 0.23041809E+00 0.90131238E+02</pdfrwt>
<pdfrwt beam="2">  1       -2 0.12634639E-02 0.90131238E+02</pdfrwt>
<totfact> 0.19477440E+04</totfact>
</mgrwt>
</event>
<event>
 4    1  0.4941530E-001  0.8183656E+02  0.7546771E-02  0.1323919E+00
          1   -1    0    0  501    0  0.00000000000E+00  0.00000000000E+00  0.96332798056E+03  0.96332798056E+03  0.00000000000E+00 0. -1.
         -1   -1    0    0    0  501 -0.00000000000E+00 -0.00000000000E+00 -0.12310369593E+02  0.12310369593E+02  0.00000000000E+00 0.  1.
         24    1    1    2    0    0 -0.69635464865E+01 -0.13472777019E+02  0.15367426781E+03  0.17410629868E+03  0.80419002446E+02 0.  0.
        -24    1    1    2    0    0  0.69635464865E+01  0.13472777019E+02  0.79734334315E+03  0.80153205147E+03  0.80419002446E+02 0. -1.
<mgrwt>
<rscale>  0 0.81836561E+02</rscale>
<asrwt>0</asrwt>
<pdfrwt beam="1">  1        1 0.14820425E+00 0.81836561E+02</pdfrwt>
<pdfrwt beam="2">  1       -1 0.18939038E-02 0.81836561E+02</pdfrwt>
<totfact> 0.11740281E+04</totfact>
</mgrwt>
</event>
<event>
 4    1  0.4941530E-001  0.8411487E+02  0.7546771E-02  0.1317764E+00
         -2   -1    0    0    0  501 -0.00000000000E+00  0.00000000000E+00  0.10742601456E+03  0.10742601456E+03  0.00000000000E+00 0.  1.
          2   -1    0    0  501    0  0.00000000000E+00 -0.00000000000E+00 -0.84192979542E+03  0.84192979542E+03  0.00000000000E+00 0. -1.
         24    1    1    2    0    0  0.22119054132E+02 -0.10901525834E+02 -0.82298528900E+03  0.82727268641E+03  0.80419002446E+02 0. -1.
        -24    1    1    2    0    0 -0.22119054132E+02  0.10901525834E+02  0.88481508142E+02  0.12208312356E+03  0.80419002446E+02 0.  1.
<mgrwt>
<rscale>  0 0.84114872E+02</rscale>
<asrwt>0</asrwt>
<pdfrwt beam="1">  1        2 0.12952766E+00 0.84114872E+02</pdfrwt>
<pdfrwt beam="2">  1       -2 0.16527079E-01 0.84114872E+02</pdfrwt>
<totfact> 0.96740253E+02</totfact>
</mgrwt>
</event>
<event>
 4    1  0.4941530E-001  0.9880671E+02  0.7546771E-02  0.1282825E+00
          2   -1    0    0  501    0  0.00000000000E+00  0.00000000000E+00  0.10761191805E+04  0.10761191805E+04  0.00000000000E+00 0. -1.
         -2   -1    0    0    0  501 -0.00000000000E+00 -0.00000000000E+00 -0.90742243031E+01  0.90742243031E+01  0.00000000000E+00 0.  1.
         24    1    1    2    0    0 -0.26171922450E+02 -0.51093839891E+02  0.54163128139E+03  0.55056989650E+03  0.80419002446E+02 0. -1.
        -24    1    1    2    0    0  0.26171922450E+02  0.51093839891E+02  0.52541367480E+03  0.53462350829E+03  0.80419002446E+02 0.  0.
<mgrwt>
<rscale>  0 0.98806710E+02</rscale>
<asrwt>0</asrwt>
<pdfrwt beam="1">  1        2 0.16555670E+00 0.98806710E+02</pdfrwt>
<pdfrwt beam="2">  1       -2 0.13960354E-02 0.98806710E+02</pdfrwt>
<totfact> 0.28595404E+04</totfact>
</mgrwt>
</event>
<event>
 4    1  0.4941530E-001  0.1162868E+03  0.7546771E-02  0.1249352E+00
         -1   -1    0    0    0  501 -0.00000000000E+00  0.00000000000E+00  0.33790499506E+03  0.33790499506E+03  0.00000000000E+00 0.  1.
          1   -1    0    0  501    0  0.00000000000E+00 -0.00000000000E+00 -0.45079757468E+02  0.45079757468E+02  0.00000000000E+00 0. -1.
         24    1    1    2    0    0 -0.26069026813E+02 -0.79848622892E+02  0.21057336305E+03  0.24054885973E+03  0.80419002446E+02 0.  1.
        -24    1    1    2    0    0  0.26069026813E+02  0.79848622892E+02  0.82251874542E+02  0.14243589280E+03  0.80419002446E+02 0. -1.
<mgrwt>
<rscale>  0 0.11628677E+03</rscale>
<asrwt>0</asrwt>
<pdfrwt beam="1">  1        1 0.69353475E-02 0.11628677E+03</pdfrwt>
<pdfrwt beam="2">  1       -1 0.51985382E-01 0.11628677E+03</pdfrwt>
<totfact> 0.38374757E+03</totfact>
</mgrwt>
</event>
<event>
 4    1  0.4941530E-001  0.9995471E+02  0.7546771E-02  0.1280391E+00
          2   -1    0    0  501    0  0.00000000000E+00  0.00000000000E+00  0.15131088215E+04  0.15131088215E+04  0.00000000000E+00 0. -1.
         -2   -1    0    0    0  501 -0.00000000000E+00 -0.00000000000E+00 -0.19384705546E+02  0.19384705546E+02  0.00000000000E+00 0.  1.
         24    1    1    2    0    0 -0.38030822307E+02  0.45578277712E+02  0.12465521027E+03  0.15978066293E+03  0.80419002446E+02 0.  1.
        -24    1    1    2    0    0  0.38030822307E+02 -0.45578277712E+02  0.13690689056E+04  0.13727128641E+04  0.80419002446E+02 0. -1.
<mgrwt>
<rscale>  0 0.99954696E+02</rscale>
<asrwt>0</asrwt>
<pdfrwt beam="1">  1        2 0.23278588E+00 0.99954709E+02</pdfrwt>
<pdfrwt beam="2">  1       -2 0.29822636E-02 0.99954709E+02</pdfrwt>
<totfact> 0.55943815E+03</totfact>
</mgrwt>
</event>
<event>
 4    1  0.4941530E-001  0.9966448E+02  0.7546771E-02  0.1281003E+00
          2   -1    0    0  501    0  0.00000000000E+00  0.00000000000E+00  0.41338950469E+03  0.41338950469E+03  0.00000000000E+00 0. -1.
         -2   -1    0    0    0  501 -0.00000000000E+00 -0.00000000000E+00 -0.24730037046E+02  0.24730037046E+02  0.00000000000E+00 0.  1.
         24    1    1    2    0    0 -0.43390679744E+02 -0.39787443372E+02  0.23123317758E+03  0.25179712092E+03  0.80419002446E+02 0.  0.
        -24    1    1    2    0    0  0.43390679744E+02  0.39787443372E+02  0.15742629007E+03  0.18632242081E+03  0.80419002446E+02 0. -1.
<mgrwt>
<rscale>  0 0.99664476E+02</rscale>
<asrwt>0</asrwt>
<pdfrwt beam="1">  1        2 0.63598380E-01 0.99664476E+02</pdfrwt>
<pdfrwt beam="2">  1       -2 0.38046214E-02 0.99664476E+02</pdfrwt>
<totfact> 0.20767862E+04</totfact>
</mgrwt>
</event>
<event>
 4    1  0.4941530E-001  0.8324584E+02  0.7546771E-02  0.1320085E+00
          2   -1    0    0  501    0  0.00000000000E+00  0.00000000000E+00  0.14628039199E+04  0.14628039199E+04  0.00000000000E+00 0. -1.
         -2   -1    0    0    0  501 -0.00000000000E+00 -0.00000000000E+00 -0.47557068152E+01  0.47557068152E+01  0.00000000000E+00 0.  1.
         24    1    1    2    0    0 -0.15071871179E+02 -0.15345773781E+02  0.77456531490E+03  0.77902586419E+03  0.80419002446E+02 0. -1.
        -24    1    1    2    0    0  0.15071871179E+02  0.15345773781E+02  0.68348289815E+03  0.68853376249E+03  0.80419002446E+02 0.  1.
<mgrwt>
<rscale>  0 0.83245841E+02</rscale>
<asrwt>0</asrwt>
<pdfrwt beam="1">  1        2 0.22504640E+00 0.83245841E+02</pdfrwt>
<pdfrwt beam="2">  1       -2 0.73164837E-03 0.83245841E+02</pdfrwt>
<totfact> 0.43618602E+04</totfact>
</mgrwt>
</event>
<event>
 4    1  0.4941530E-001  0.8829018E+02  0.7546771E-02  0.1307046E+00
          2   -1    0    0  501    0  0.00000000000E+00  0.00000000000E+00  0.17530997410E+04  0.17530997410E+04  0.00000000000E+00 0. -1.
         -2   -1    0    0    0  501 -0.00000000000E+00 -0.00000000000E+00 -0.46520599681E+01  0.46520599681E+01  0.00000000000E+00 0.  1.
         24    1    1    2    0    0  0.35633760381E+02  0.76272277785E+01  0.10589701272E+04  0.10626442894E+04  0.80419002446E+02 0.  1.
        -24    1    1    2    0    0 -0.35633760381E+02 -0.76272277785E+01  0.68947755385E+03  0.69510751161E+03  0.80419002446E+02 0. -1.
<mgrwt>
<rscale>  0 0.88290177E+02</rscale>
<asrwt>0</asrwt>
<pdfrwt beam="1">  1        2 0.26970713E+00 0.88290177E+02</pdfrwt>
<pdfrwt beam="2">  1       -2 0.71570293E-03 0.88290177E+02</pdfrwt>
<totfact> 0.32273201E+04</totfact>
</mgrwt>
</event>
<event>
 4    1  0.4941530E-001  0.9023591E+02  0.7546771E-02  0.1302281E+00
         -2   -1    0    0    0  501 -0.00000000000E+00  0.00000000000E+00  0.56140904676E+01  0.56140904676E+01  0.00000000000E+00 0.  1.
          2   -1    0    0  501    0  0.00000000000E+00 -0.00000000000E+00 -0.19019777963E+04  0.19019777963E+04  0.00000000000E+00 0. -1.
         24    1    1    2    0    0 -0.11394133066E+02  0.39312569547E+02 -0.14129458104E+04  0.14158242770E+04  0.80419002446E+02 0. -1.
        -24    1    1    2    0    0  0.11394133066E+02 -0.39312569547E+02 -0.48341789546E+03  0.49176760975E+03  0.80419002446E+02 0.  1.
<mgrwt>
<rscale>  0 0.90235915E+02</rscale>
<asrwt>0</asrwt>
<pdfrwt beam="1">  1        2 0.29261190E+00 0.90235915E+02</pdfrwt>
<pdfrwt beam="2">  1       -2 0.86370644E-03 0.90235915E+02</pdfrwt>
<totfact> 0.20887542E+04</totfact>
</mgrwt>
</event>
<event>
 4    1  0.4941530E-001  0.8061316E+02  0.7546771E-02  0.1327320E+00
          3   -1    0    0  501    0  0.00000000000E+00  0.00000000000E+00  0.17677521597E+02  0.17677521597E+02  0.00000000000E+00 0. -1.
         -3   -1    0    0    0  501 -0.00000000000E+00 -0.00000000000E+00 -0.42403689374E+03  0.42403689374E+03  0.00000000000E+00 0.  1.
         24    1    1    2    0    0 -0.53104779102E+00 -0.55663457789E+01 -0.28374391918E+03  0.29497303918E+03  0.80419002446E+02 0.  1.
        -24    1    1    2    0    0  0.53104779102E+00  0.55663457789E+01 -0.12261545297E+03  0.14674137616E+03  0.80419002446E+02 0. -1.
<mgrwt>
<rscale>  0 0.80613164E+02</rscale>
<asrwt>0</asrwt>
<pdfrwt beam="1">  1        3 0.27196186E-02 0.80613164E+02</pdfrwt>
<pdfrwt beam="2">  1       -3 0.65236448E-01 0.80613164E+02</pdfrwt>
<totfact> 0.28230552E+03</totfact>
</mgrwt>
</event>
<event>
 4    1  0.4941530E-001  0.8111397E+02  0.7546771E-02  0.1325920E+00
         -2   -1    0    0    0  501 -0.00000000000E+00  0.00000000000E+00  0.18441880886E+02  0.18441880886E+02  0.00000000000E+00 0.  1.
          2   -1    0    0  501    0  0.00000000000E+00 -0.00000000000E+00 -0.10724889438E+04  0.10724889438E+04  0.00000000000E+00 0. -1.
         24    1    1    2    0    0 -0.27426958410E+01 -0.10234110194E+02 -0.97262091213E+03  0.97599739449E+03  0.80419002446E+02 0. -1.
        -24    1    1    2    0    0  0.27426958410E+01  0.10234110194E+02 -0.81426150814E+02  0.11493343022E+03  0.80419002446E+02 0.  0.
<mgrwt>
<rscale>  0 0.81113965E+02</rscale>
<asrwt>0</asrwt>
<pdfrwt beam="1">  1        2 0.16499830E+00 0.81113965E+02</pdfrwt>
<pdfrwt beam="2">  1       -2 0.28372125E-02 0.81113965E+02</pdfrwt>
<totfact> 0.10216335E+04</totfact>
</mgrwt>
</event>
<event>
 4    1  0.4941530E-001  0.8584552E+02  0.7546771E-02  0.1313236E+00
          2   -1    0    0  501    0  0.00000000000E+00  0.00000000000E+00  0.23738694735E+03  0.23738694735E+03  0.00000000000E+00 0. -1.
         -2   -1    0    0    0  501 -0.00000000000E+00 -0.00000000000E+00 -0.78553835966E+02  0.78553835966E+02  0.00000000000E+00 0.  1.
         24    1    1    2    0    0  0.19531329745E+02 -0.22820255858E+02  0.20226892068E+03  0.21973203942E+03  0.80419002446E+02 0.  0.
        -24    1    1    2    0    0 -0.19531329745E+02  0.22820255858E+02 -0.43435809296E+02  0.96208743899E+02  0.80419002446E+02 0.  0.
<mgrwt>
<rscale>  0 0.85845517E+02</rscale>
<asrwt>0</asrwt>
<pdfrwt beam="1">  1        2 0.36521069E-01 0.85845517E+02</pdfrwt>
<pdfrwt beam="2">  1       -2 0.12085206E-01 0.85845517E+02</pdfrwt>
<totfact> 0.63546799E+03</totfact>
</mgrwt>
</event>
<event>
 4    1  0.4941530E-001  0.9534846E+02  0.7546771E-02  0.1290393E+00
         -2   -1    0    0    0  501 -0.00000000000E+00  0.00000000000E+00  0.96633450005E+01  0.96633450005E+01  0.00000000000E+00 0.  1.
          2   -1    0    0  501    0  0.00000000000E+00 -0.00000000000E+00 -0.97711750247E+03  0.97711750247E+03  0.00000000000E+00 0. -1.
         24    1    1    2    0    0  0.10345034077E+02  0.50170632491E+02 -0.57884064511E+03  0.58664113432E+03  0.80419002446E+02 0.  0.
        -24    1    1    2    0    0 -0.10345034077E+02 -0.50170632491E+02 -0.38861351236E+03  0.40013971315E+03  0.80419002446E+02 0.  1.
<mgrwt>
<rscale>  0 0.95348456E+02</rscale>
<asrwt>0</asrwt>
<pdfrwt beam="1">  1        2 0.15032580E+00 0.95348456E+02</pdfrwt>
<pdfrwt beam="2">  1       -2 0.14866682E-02 0.95348456E+02</pdfrwt>
<totfact> 0.29743802E+04</totfact>
</mgrwt>
</event>
<event>
 4    1  0.4941530E-001  0.8747154E+02  0.7546771E-02  0.1309093E+00
          1   -1    0    0  501    0  0.00000000000E+00  0.00000000000E+00  0.43844914240E+03  0.43844914240E+03  0.00000000000E+00 0. -1.
         -1   -1    0    0    0  501 -0.00000000000E+00 -0.00000000000E+00 -0.21175653847E+02  0.21175653847E+02  0.00000000000E+00 0.  1.
         24    1    1    2    0    0  0.31772862028E+02  0.13211369438E+02  0.11225118798E+03  0.14230811713E+03  0.80419002446E+02 0.  1.
        -24    1    1    2    0    0 -0.31772862028E+02 -0.13211369438E+02  0.30502230058E+03  0.31731667912E+03  0.80419002446E+02 0. -1.
<mgrwt>
<rscale>  0 0.87471544E+02</rscale>
<asrwt>0</asrwt>
<pdfrwt beam="1">  1        1 0.67453708E-01 0.87471544E+02</pdfrwt>
<pdfrwt beam="2">  1       -1 0.32577932E-02 0.87471544E+02</pdfrwt>
<totfact> 0.16233965E+04</totfact>
</mgrwt>
</event>
<event>
 4    1  0.4941530E-001  0.9099600E+02  0.7546771E-02  0.1300458E+00
          2   -1    0    0  501    0  0.00000000000E+00  0.00000000000E+00  0.86634126802E+02  0.86634126802E+02  0.00000000000E+00 0. -1.
         -2   -1    0    0    0  501 -0.00000000000E+00 -0.00000000000E+00 -0.11608723978E+03  0.11608723978E+03  0.00000000000E+00 0.  1.
         24    1    1    2    0    0  0.41710812204E+02  0.85594894729E+01  0.27878135866E+02  0.95170705201E+02  0.80419002446E+02 0. -1.
        -24    1    1    2    0    0 -0.41710812204E+02 -0.85594894729E+01 -0.57331248839E+02  0.10755066138E+03  0.80419002446E+02 0.  1.
<mgrwt>
<rscale>  0 0.90996004E+02</rscale>
<asrwt>0</asrwt>
<pdfrwt beam="1">  1        2 0.13328327E-01 0.90996004E+02</pdfrwt>
<pdfrwt beam="2">  1       -2 0.17859575E-01 0.90996004E+02</pdfrwt>
<totfact> 0.10372656E+04</totfact>
</mgrwt>
</event>
<event>
 4    1  0.4941530E-001  0.1009856E+03  0.7546771E-02  0.1278237E+00
          1   -1    0    0  501    0  0.00000000000E+00  0.00000000000E+00  0.19340845288E+04  0.19340845288E+04  0.00000000000E+00 0. -1.
         -1   -1    0    0    0  501 -0.00000000000E+00 -0.00000000000E+00 -0.36498545102E+02  0.36498545102E+02  0.00000000000E+00 0.  1.
         24    1    1    2    0    0  0.60425107535E+02  0.89270065135E+01  0.37447258004E+02  0.10770514450E+03  0.80419002446E+02 0.  1.
        -24    1    1    2    0    0 -0.60425107535E+02 -0.89270065135E+01  0.18601387257E+04  0.18628779294E+04  0.80419002446E+02 0. -1.
<mgrwt>
<rscale>  0 0.10098565E+03</rscale>
<asrwt>0</asrwt>
<pdfrwt beam="1">  1        1 0.29755139E+00 0.10098565E+03</pdfrwt>
<pdfrwt beam="2">  1       -1 0.56151623E-02 0.10098565E+03</pdfrwt>
<totfact> 0.56898890E+02</totfact>
</mgrwt>
</event>
<event>
 4    1  0.4941530E-001  0.8777205E+02  0.7546771E-02  0.1308338E+00
          1   -1    0    0  501    0  0.00000000000E+00  0.00000000000E+00  0.29534426790E+04  0.29534426790E+04  0.00000000000E+00 0. -1.
         -1   -1    0    0    0  501 -0.00000000000E+00 -0.00000000000E+00 -0.27377707299E+01  0.27377707299E+01  0.00000000000E+00 0.  1.
         24    1    1    2    0    0  0.32729581004E+02 -0.12864346205E+02  0.11541180065E+04  0.11574507790E+04  0.80419002446E+02 0.  1.
        -24    1    1    2    0    0 -0.32729581004E+02  0.12864346205E+02  0.17965869018E+04  0.17987296708E+04  0.80419002446E+02 0. -1.
<mgrwt>
<rscale>  0 0.87772050E+02</rscale>
<asrwt>0</asrwt>
<pdfrwt beam="1">  1        1 0.45437325E+00 0.87772050E+02</pdfrwt>
<pdfrwt beam="2">  1       -1 0.42119786E-03 0.87772050E+02</pdfrwt>
<totfact> 0.50295254E+03</totfact>
</mgrwt>
</event>
<event>
 4    1  0.4941530E-001  0.8507410E+02  0.7546771E-02  0.1315239E+00
         -2   -1    0    0    0  501 -0.00000000000E+00  0.00000000000E+00  0.21402830981E+02  0.21402830981E+02  0.00000000000E+00 0.  1.
          2   -1    0    0  501    0  0.00000000000E+00 -0.00000000000E+00 -0.37132903363E+03  0.37132903363E+03  0.00000000000E+00 0. -1.
         24    1    1    2    0    0 -0.69582386079E+01  0.26869479221E+02 -0.23365076079E+03  0.24865695239E+03  0.80419002446E+02 0. -1.
        -24    1    1    2    0    0  0.69582386079E+01 -0.26869479221E+02 -0.11627544185E+03  0.14407491222E+03  0.80419002446E+02 0.  1.
<mgrwt>
<rscale>  0 0.85074097E+02</rscale>
<asrwt>0</asrwt>
<pdfrwt beam="1">  1        2 0.57127539E-01 0.85074097E+02</pdfrwt>
<pdfrwt beam="2">  1       -2 0.32927435E-02 0.85074097E+02</pdfrwt>
<totfact> 0.28241010E+04</totfact>
</mgrwt>
</event>
<event>
 4    1  0.4941530E-001  0.8367783E+02  0.7546771E-02  0.1318927E+00
          2   -1    0    0  501    0  0.00000000000E+00  0.00000000000E+00  0.66171275737E+03  0.66171275737E+03  0.00000000000E+00 0. -1.
         -2   -1    0    0    0  501 -0.00000000000E+00 -0.00000000000E+00 -0.72598722016E+02  0.72598722016E+02  0.00000000000E+00 0.  1.
         24    1    1    2    0    0 -0.18066305277E+02  0.14435072331E+02  0.63390216554E+03  0.63940123094E+03  0.80419002446E+02 0. -1.
        -24    1    1    2    0    0  0.18066305277E+02 -0.14435072331E+02 -0.44788130186E+02  0.94910248443E+02  0.80419002446E+02 0.  1.
<mgrwt>
<rscale>  0 0.83677827E+02</rscale>
<asrwt>0</asrwt>
<pdfrwt beam="1">  1        2 0.10180196E+00 0.83677827E+02</pdfrwt>
<pdfrwt beam="2">  1       -2 0.11169035E-01 0.83677827E+02</pdfrwt>
<totfact> 0.24090790E+03</totfact>
</mgrwt>
</event>
<event>
 4    1  0.4941530E-001  0.1025977E+03  0.7546771E-02  0.1274926E+00
          2   -1    0    0  501    0  0.00000000000E+00  0.00000000000E+00  0.29873130783E+03  0.29873130783E+03  0.00000000000E+00 0. -1.
         -2   -1    0    0    0  501 -0.00000000000E+00 -0.00000000000E+00 -0.35428846736E+02  0.35428846736E+02  0.00000000000E+00 0.  1.
         24    1    1    2    0    0  0.63264318167E+02 -0.75298630677E+01  0.14395748650E+03  0.17677682729E+03  0.80419002446E+02 0.  1.
        -24    1    1    2    0    0 -0.63264318167E+02  0.75298630677E+01  0.11934497459E+03  0.15738332728E+03  0.80419002446E+02 0. -1.
<mgrwt>
<rscale>  0 0.10259770E+03</rscale>
<asrwt>0</asrwt>
<pdfrwt beam="1">  1        2 0.45958661E-01 0.10259770E+03</pdfrwt>
<pdfrwt beam="2">  1       -2 0.54505920E-02 0.10259770E+03</pdfrwt>
<totfact> 0.17196771E+04</totfact>
</mgrwt>
</event>
<event>
 4    1  0.4941530E-001  0.8148108E+02  0.7546771E-02  0.1324900E+00
          4   -1    0    0  501    0  0.00000000000E+00  0.00000000000E+00  0.66862955718E+02  0.66862955718E+02  0.00000000000E+00 0. -1.
         -4   -1    0    0    0  501 -0.00000000000E+00 -0.00000000000E+00 -0.10605166723E+03  0.10605166723E+03  0.00000000000E+00 0.  1.
         24    1    1    2    0    0  0.94521042799E+01 -0.90889461047E+01  0.22281412559E+01  0.81511543872E+02  0.80419002446E+02 0. -1.
        -24    1    1    2    0    0 -0.94521042799E+01  0.90889461047E+01 -0.41416852766E+02  0.91403079073E+02  0.80419002446E+02 0.  1.
<mgrwt>
<rscale>  0 0.81481085E+02</rscale>
<asrwt>0</asrwt>
<pdfrwt beam="1">  1        4 0.10286609E-01 0.81481085E+02</pdfrwt>
<pdfrwt beam="2">  1       -4 0.16315641E-01 0.81481085E+02</pdfrwt>
<totfact> 0.33637211E+03</totfact>
</mgrwt>
</event>
<event>
 4    1  0.4941530E-001  0.1221676E+03  0.7546771E-02  0.1239563E+00
          2   -1    0    0  501    0  0.00000000000E+00  0.00000000000E+00  0.92392182892E+02  0.92392182892E+02  0.00000000000E+00 0. -1.
         -2   -1    0    0    0  501 -0.00000000000E+00 -0.00000000000E+00 -0.29756481918E+03  0.29756481918E+03  0.00000000000E+00 0.  1.
         24    1    1    2    0    0 -0.70456044000E+02 -0.59107128426E+02  0.29241457249E+02  0.12561841244E+03  0.80419002446E+02 0. -1.
        -24    1    1    2    0    0  0.70456044000E+02  0.59107128426E+02 -0.23441409354E+03  0.26433858964E+03  0.80419002446E+02 0.  1.
<mgrwt>
<rscale>  0 0.12216760E+03</rscale>
<asrwt>0</asrwt>
<pdfrwt beam="1">  1        2 0.14214182E-01 0.12216760E+03</pdfrwt>
<pdfrwt beam="2">  1       -2 0.45779204E-01 0.12216760E+03</pdfrwt>
<totfact> 0.18375003E+03</totfact>
</mgrwt>
</event>
<event>
 4    1  0.4941530E-001  0.1030295E+03  0.7546771E-02  0.1274051E+00
         -2   -1    0    0    0  501 -0.00000000000E+00  0.00000000000E+00  0.60849308785E+02  0.60849308785E+02  0.00000000000E+00 0.  1.
          2   -1    0    0  501    0  0.00000000000E+00 -0.00000000000E+00 -0.11299201450E+04  0.11299201450E+04  0.00000000000E+00 0. -1.
         24    1    1    2    0    0 -0.41858887670E+02  0.48945904885E+02 -0.10820335801E+04  0.10869276666E+04  0.80419002446E+02 0. -1.
        -24    1    1    2    0    0  0.41858887670E+02 -0.48945904885E+02  0.12962743854E+02  0.10384178718E+03  0.80419002446E+02 0.  1.
<mgrwt>
<rscale>  0 0.10302953E+03</rscale>
<asrwt>0</asrwt>
<pdfrwt beam="1">  1        2 0.17383385E+00 0.10302953E+03</pdfrwt>
<pdfrwt beam="2">  1       -2 0.93614330E-02 0.10302953E+03</pdfrwt>
<totfact> 0.16128035E+03</totfact>
</mgrwt>
</event>
<event>
 4    1  0.4941530E-001  0.8162659E+02  0.7546771E-02  0.1324498E+00
         -2   -1    0    0    0  501 -0.00000000000E+00  0.00000000000E+00  0.30528311414E+03  0.30528311414E+03  0.00000000000E+00 0.  1.
          2   -1    0    0  501    0  0.00000000000E+00 -0.00000000000E+00 -0.40088796079E+02  0.40088796079E+02  0.00000000000E+00 0. -1.
         24    1    1    2    0    0 -0.13971368357E+02 -0.69644407871E+00  0.16040446475E+02  0.83187715714E+02  0.80419002446E+02 0. -1.
        -24    1    1    2    0    0  0.13971368357E+02  0.69644407871E+00  0.24915387159E+03  0.26218419451E+03  0.80419002446E+02 0.  0.
<mgrwt>
<rscale>  0 0.81626590E+02</rscale>
<asrwt>0</asrwt>
<pdfrwt beam="1">  1        2 0.61675073E-02 0.81626590E+02</pdfrwt>
<pdfrwt beam="2">  1       -2 0.46966632E-01 0.81626590E+02</pdfrwt>
<totfact> 0.47208274E+03</totfact>
</mgrwt>
</event>
<event>
 4    1  0.4941530E-001  0.9715559E+02  0.7546771E-02  0.1286394E+00
          2   -1    0    0  501    0  0.00000000000E+00  0.00000000000E+00  0.25476152965E+03  0.25476152965E+03  0.00000000000E+00 0. -1.
         -2   -1    0    0    0  501 -0.00000000000E+00 -0.00000000000E+00 -0.37533064914E+02  0.37533064914E+02  0.00000000000E+00 0.  1.
         24    1    1    2    0    0 -0.24234466334E+02 -0.48833222814E+02  0.12517447261E+03  0.15845459146E+03  0.80419002446E+02 0.  1.
        -24    1    1    2    0    0  0.24234466334E+02  0.48833222814E+02  0.92053992127E+02  0.13384000310E+03  0.80419002446E+02 0. -1.
<mgrwt>
<rscale>  0 0.97155592E+02</rscale>
<asrwt>0</asrwt>
<pdfrwt beam="1">  1        2 0.39194080E-01 0.97155592E+02</pdfrwt>
<pdfrwt beam="2">  1       -2 0.57743178E-02 0.97155592E+02</pdfrwt>
<totfact> 0.18541107E+04</totfact>
</mgrwt>
</event>
<event>
 4    1  0.4941530E-001  0.1136982E+03  0.7546771E-02  0.1253871E+00
          2   -1    0    0  501    0  0.00000000000E+00  0.00000000000E+00  0.86927461701E+03  0.86927461701E+03  0.00000000000E+00 0. -1.
         -2   -1    0    0    0  501 -0.00000000000E+00 -0.00000000000E+00 -0.86680969061E+02  0.86680969061E+02  0.00000000000E+00 0.  1.
         24    1    1    2    0    0 -0.78487757946E+02 -0.17313114086E+02  0.82634479630E+03  0.83413009201E+03  0.80419002446E+02 0. -1.
        -24    1    1    2    0    0  0.78487757946E+02  0.17313114086E+02 -0.43751148353E+02  0.12182549406E+03  0.80419002446E+02 0.  1.
<mgrwt>
<rscale>  0 0.11369823E+03</rscale>
<asrwt>0</asrwt>
<pdfrwt beam="1">  1        2 0.13373455E+00 0.11369823E+03</pdfrwt>
<pdfrwt beam="2">  1       -2 0.13335534E-01 0.11369823E+03</pdfrwt>
<totfact> 0.13190294E+03</totfact>
</mgrwt>
</event>
<event>
 4    1  0.4941530E-001  0.8763892E+02  0.7546771E-02  0.1308672E+00
         -2   -1    0    0    0  501 -0.00000000000E+00  0.00000000000E+00  0.16844450776E+02  0.16844450776E+02  0.00000000000E+00 0.  1.
          2   -1    0    0  501    0  0.00000000000E+00 -0.00000000000E+00 -0.37896054318E+04  0.37896054318E+04  0.00000000000E+00 0. -1.
         24    1    1    2    0    0 -0.14494746905E+02  0.31674395217E+02 -0.36714375802E+04  0.36724834222E+04  0.80419002446E+02 0. -1.
        -24    1    1    2    0    0  0.14494746905E+02 -0.31674395217E+02 -0.10132340083E+03  0.13396646039E+03  0.80419002446E+02 0.  1.
<mgrwt>
<rscale>  0 0.87638924E+02</rscale>
<asrwt>0</asrwt>
<pdfrwt beam="1">  1        2 0.58301724E+00 0.87638924E+02</pdfrwt>
<pdfrwt beam="2">  1       -2 0.25914494E-02 0.87638924E+02</pdfrwt>
<totfact> 0.37119788E+02</totfact>
</mgrwt>
</event>
<event>
 4    1  0.4941530E-001  0.1088113E+03  0.7546771E-02  0.1262787E+00
         -2   -1    0    0    0  501 -0.00000000000E+00  0.00000000000E+00  0.83128244220E+02  0.83128244220E+02  0.00000000000E+00 0.  1.
          2   -1    0    0  501    0  0.00000000000E+00 -0.00000000000E+00 -0.14290944494E+03  0.14290944494E+03  0.00000000000E+00 0. -1.
         24    1    1    2    0    0 -0.51014200553E+02 -0.52633038114E+02 -0.36441283016E+02  0.11475133298E+03  0.80419002446E+02 0.  0.
        -24    1    1    2    0    0  0.51014200553E+02  0.52633038114E+02 -0.23339917708E+02  0.11128635618E+03  0.80419002446E+02 0.  1.
<mgrwt>
<rscale>  0 0.10881131E+03</rscale>
<asrwt>0</asrwt>
<pdfrwt beam="1">  1        2 0.21986068E-01 0.10881131E+03</pdfrwt>
<pdfrwt beam="2">  1       -2 0.12788961E-01 0.10881131E+03</pdfrwt>
<totfact> 0.10240433E+04</totfact>
</mgrwt>
</event>
<event>
 4    1  0.4941530E-001  0.9077822E+02  0.7546771E-02  0.1300978E+00
         -2   -1    0    0    0  501 -0.00000000000E+00  0.00000000000E+00  0.21906872231E+03  0.21906872231E+03  0.00000000000E+00 0.  1.
          2   -1    0    0  501    0  0.00000000000E+00 -0.00000000000E+00 -0.77702285211E+02  0.77702285211E+02  0.00000000000E+00 0. -1.
         24    1    1    2    0    0  0.36872423431E+02  0.20344360436E+02 -0.35894802341E+02  0.97617218772E+02  0.80419002446E+02 0.  0.
        -24    1    1    2    0    0 -0.36872423431E+02 -0.20344360436E+02  0.17726123944E+03  0.19915378875E+03  0.80419002446E+02 0.  0.
<mgrwt>
<rscale>  0 0.90778216E+02</rscale>
<asrwt>0</asrwt>
<pdfrwt beam="1">  1        2 0.11954198E-01 0.90778216E+02</pdfrwt>
<pdfrwt beam="2">  1       -2 0.33702880E-01 0.90778216E+02</pdfrwt>
<totfact> 0.39339342E+03</totfact>
</mgrwt>
</event>
<event>
 4    1  0.4941530E-001  0.1198944E+03  0.7546771E-02  0.1243271E+00
         -2   -1    0    0    0  501 -0.00000000000E+00  0.00000000000E+00  0.31446643025E+03  0.31446643025E+03  0.00000000000E+00 0.  1.
          2   -1    0    0  501    0  0.00000000000E+00 -0.00000000000E+00 -0.10951758426E+03  0.10951758426E+03  0.00000000000E+00 0. -1.
         24    1    1    2    0    0  0.11173896334E+02 -0.88219084555E+02 -0.59337002558E+02  0.13377428253E+03  0.80419002446E+02 0. -1.
        -24    1    1    2    0    0 -0.11173896334E+02  0.88219084555E+02  0.26428584855E+03  0.29020973198E+03  0.80419002446E+02 0.  1.
<mgrwt>
<rscale>  0 0.11989445E+03</rscale>
<asrwt>0</asrwt>
<pdfrwt beam="1">  1        2 0.16848859E-01 0.11989445E+03</pdfrwt>
<pdfrwt beam="2">  1       -2 0.48379450E-01 0.11989445E+03</pdfrwt>
<totfact> 0.13528935E+03</totfact>
</mgrwt>
</event>
<event>
 4    1  0.4941530E-001  0.8460076E+02  0.7546771E-02  0.1316480E+00
          2   -1    0    0  501    0  0.00000000000E+00  0.00000000000E+00  0.27363748612E+04  0.27363748612E+04  0.00000000000E+00 0. -1.
         -2   -1    0    0    0  501 -0.00000000000E+00 -0.00000000000E+00 -0.15097495978E+02  0.15097495978E+02  0.00000000000E+00 0.  1.
         24    1    1    2    0    0  0.15929970390E+02 -0.20888010331E+02  0.26115392979E+04  0.26129092585E+04  0.80419002446E+02 0. -1.
        -24    1    1    2    0    0 -0.15929970390E+02  0.20888010331E+02  0.10973806736E+03  0.13856309867E+03  0.80419002446E+02 0.  1.
<mgrwt>
<rscale>  0 0.84600762E+02</rscale>
<asrwt>0</asrwt>
<pdfrwt beam="1">  1        2 0.42098035E+00 0.84600762E+02</pdfrwt>
<pdfrwt beam="2">  1       -2 0.23226939E-02 0.84600762E+02</pdfrwt>
<totfact> 0.18924446E+03</totfact>
</mgrwt>
</event>
<event>
 4    1  0.4941530E-001  0.8330435E+02  0.7546771E-02  0.1319927E+00
         -3   -1    0    0    0  501 -0.00000000000E+00  0.00000000000E+00  0.29553184940E+03  0.29553184940E+03  0.00000000000E+00 0.  1.
          3   -1    0    0  501    0  0.00000000000E+00 -0.00000000000E+00 -0.19427709813E+03  0.19427709813E+03  0.00000000000E+00 0. -1.
         24    1    1    2    0    0  0.27553532282E+01  0.21559396237E+02  0.28025487082E+03  0.29237374730E+03  0.80419002446E+02 0.  1.
        -24    1    1    2    0    0 -0.27553532282E+01 -0.21559396237E+02 -0.17900011955E+03  0.19743520023E+03  0.80419002446E+02 0. -1.
<mgrwt>
<rscale>  0 0.83304355E+02</rscale>
<asrwt>0</asrwt>
<pdfrwt beam="1">  1        3 0.29888784E-01 0.83304355E+02</pdfrwt>
<pdfrwt beam="2">  1       -3 0.45466438E-01 0.83304355E+02</pdfrwt>
<totfact> 0.11535094E+02</totfact>
</mgrwt>
</event>
<event>
 4    1  0.4941530E-001  0.9478460E+02  0.7546771E-02  0.1291662E+00
          1   -1    0    0  501    0  0.00000000000E+00  0.00000000000E+00  0.48862504793E+02  0.48862504793E+02  0.00000000000E+00 0. -1.
         -1   -1    0    0    0  501 -0.00000000000E+00 -0.00000000000E+00 -0.23416819671E+03  0.23416819671E+03  0.00000000000E+00 0.  1.
         24    1    1    2    0    0  0.31209520276E+02 -0.39279382826E+02 -0.15824260149E+03  0.18445823633E+03  0.80419002446E+02 0.  1.
        -24    1    1    2    0    0 -0.31209520276E+02  0.39279382826E+02 -0.27063090426E+02  0.98572465166E+02  0.80419002446E+02 0. -1.
<mgrwt>
<rscale>  0 0.94784598E+02</rscale>
<asrwt>0</asrwt>
<pdfrwt beam="1">  1        1 0.75173083E-02 0.94784598E+02</pdfrwt>
<pdfrwt beam="2">  1       -1 0.36025877E-01 0.94784598E+02</pdfrwt>
<totfact> 0.64862732E+03</totfact>
</mgrwt>
</event>
<event>
 4    1  0.4941530E-001  0.8117805E+02  0.7546771E-02  0.1325741E+00
         -3   -1    0    0    0  501 -0.00000000000E+00  0.00000000000E+00  0.24760572772E+03  0.24760572772E+03  0.00000000000E+00 0.  1.
          3   -1    0    0  501    0  0.00000000000E+00 -0.00000000000E+00 -0.35576141407E+02  0.35576141407E+02  0.00000000000E+00 0. -1.
         24    1    1    2    0    0 -0.10981522305E+02 -0.14372779204E+01  0.17707925288E+03  0.19479973653E+03  0.80419002446E+02 0.  1.
        -24    1    1    2    0    0  0.10981522305E+02  0.14372779204E+01  0.34950333436E+02  0.88382132593E+02  0.80419002446E+02 0. -1.
<mgrwt>
<rscale>  0 0.81178048E+02</rscale>
<asrwt>0</asrwt>
<pdfrwt beam="1">  1        3 0.54732527E-02 0.81178048E+02</pdfrwt>
<pdfrwt beam="2">  1       -3 0.38093188E-01 0.81178048E+02</pdfrwt>
<totfact> 0.27757711E+03</totfact>
</mgrwt>
</event>
<event>
 4    1  0.4941530E-001  0.8930714E+02  0.7546771E-02  0.1304538E+00
          2   -1    0    0  501    0  0.00000000000E+00  0.00000000000E+00  0.23357896843E+03  0.23357896843E+03  0.00000000000E+00 0. -1.
         -2   -1    0    0    0  501 -0.00000000000E+00 -0.00000000000E+00 -0.34275049209E+02  0.34275049209E+02  0.00000000000E+00 0.  1.
         24    1    1    2    0    0  0.15651782293E+02 -0.35546698605E+02  0.91430670464E+02  0.12780973956E+03  0.80419002446E+02 0.  0.
        -24    1    1    2    0    0 -0.15651782293E+02  0.35546698605E+02  0.10787324875E+03  0.14004427807E+03  0.80419002446E+02 0.  0.
<mgrwt>
<rscale>  0 0.89307133E+02</rscale>
<asrwt>0</asrwt>
<pdfrwt beam="1">  1        2 0.35935225E-01 0.89307144E+02</pdfrwt>
<pdfrwt beam="2">  1       -2 0.52730846E-02 0.89307144E+02</pdfrwt>
<totfact> 0.23062746E+04</totfact>
</mgrwt>
</event>
<event>
 4    1  0.4941530E-001  0.1068538E+03  0.7546771E-02  0.1266510E+00
         -1   -1    0    0    0  501 -0.00000000000E+00  0.00000000000E+00  0.30924629026E+02  0.30924629026E+02  0.00000000000E+00 0.  1.
          1   -1    0    0  501    0  0.00000000000E+00 -0.00000000000E+00 -0.71125400925E+03  0.71125400925E+03  0.00000000000E+00 0. -1.
         24    1    1    2    0    0 -0.28730759982E+02 -0.64226723442E+02 -0.82825572737E+02  0.13519548819E+03  0.80419002446E+02 0.  1.
        -24    1    1    2    0    0  0.28730759982E+02  0.64226723442E+02 -0.59750380748E+03  0.60698315008E+03  0.80419002446E+02 0. -1.
<mgrwt>
<rscale>  0 0.10685385E+03</rscale>
<asrwt>0</asrwt>
<pdfrwt beam="1">  1        1 0.10942369E+00 0.10685385E+03</pdfrwt>
<pdfrwt beam="2">  1       -1 0.47576355E-02 0.10685385E+03</pdfrwt>
<totfact> 0.50032375E+03</totfact>
</mgrwt>
</event>
<event>
 4    1  0.4941530E-001  0.8343170E+02  0.7546771E-02  0.1319585E+00
          2   -1    0    0  501    0  0.00000000000E+00  0.00000000000E+00  0.55939393094E+03  0.55939393094E+03  0.00000000000E+00 0. -1.
         -2   -1    0    0    0  501 -0.00000000000E+00 -0.00000000000E+00 -0.15467266930E+02  0.15467266930E+02  0.00000000000E+00 0.  1.
         24    1    1    2    0    0  0.14742768953E+02  0.16621782267E+02  0.39904896490E+03  0.40767747696E+03  0.80419002446E+02 0. -1.
        -24    1    1    2    0    0 -0.14742768953E+02 -0.16621782267E+02  0.14487769912E+03  0.16718372091E+03  0.80419002446E+02 0.  0.
<mgrwt>
<rscale>  0 0.83431702E+02</rscale>
<asrwt>0</asrwt>
<pdfrwt beam="1">  1        2 0.86060589E-01 0.83431702E+02</pdfrwt>
<pdfrwt beam="2">  1       -2 0.23795800E-02 0.83431702E+02</pdfrwt>
<totfact> 0.29133096E+04</totfact>
</mgrwt>
</event>
<event>
 4    1  0.4941530E-001  0.8348955E+02  0.7546771E-02  0.1319430E+00
         -1   -1    0    0    0  501 -0.00000000000E+00  0.00000000000E+00  0.17643620805E+02  0.17643620805E+02  0.00000000000E+00 0.  1.
          1   -1    0    0  501    0  0.00000000000E+00 -0.00000000000E+00 -0.43643837241E+03  0.43643837241E+03  0.00000000000E+00 0. -1.
         24    1    1    2    0    0 -0.21920767248E+02 -0.47713119562E+01 -0.27929562319E+03  0.29150736962E+03  0.80419002446E+02 0.  0.
        -24    1    1    2    0    0  0.21920767248E+02  0.47713119562E+01 -0.13949912842E+03  0.16257462360E+03  0.80419002446E+02 0.  0.
<mgrwt>
<rscale>  0 0.83489539E+02</rscale>
<asrwt>0</asrwt>
<pdfrwt beam="1">  1        1 0.67144365E-01 0.83489550E+02</pdfrwt>
<pdfrwt beam="2">  1       -1 0.27144032E-02 0.83489550E+02</pdfrwt>
<totfact> 0.21122896E+04</totfact>
</mgrwt>
</event>
<event>
 4    1  0.4941530E-001  0.9743413E+02  0.7546771E-02  0.1285786E+00
         -2   -1    0    0    0  501 -0.00000000000E+00  0.00000000000E+00  0.48264006821E+02  0.48264006821E+02  0.00000000000E+00 0.  1.
          2   -1    0    0  501    0  0.00000000000E+00 -0.00000000000E+00 -0.22273671921E+03  0.22273671921E+03  0.00000000000E+00 0. -1.
         24    1    1    2    0    0  0.64381245059E+01 -0.54632814558E+02 -0.13356594743E+03  0.16532777184E+03  0.80419002446E+02 0. -1.
        -24    1    1    2    0    0 -0.64381245059E+01  0.54632814558E+02 -0.40906764954E+02  0.10567295419E+03  0.80419002446E+02 0.  1.
<mgrwt>
<rscale>  0 0.97434131E+02</rscale>
<asrwt>0</asrwt>
<pdfrwt beam="1">  1        2 0.34267188E-01 0.97434131E+02</pdfrwt>
<pdfrwt beam="2">  1       -2 0.74252317E-02 0.97434131E+02</pdfrwt>
<totfact> 0.14617856E+04</totfact>
</mgrwt>
</event>
<event>
 4    1  0.4941530E-001  0.2049452E+03  0.7546771E-02  0.1145633E+00
         -1   -1    0    0    0  501 -0.00000000000E+00  0.00000000000E+00  0.56842590983E+02  0.56842590983E+02  0.00000000000E+00 0.  1.
          1   -1    0    0  501    0  0.00000000000E+00 -0.00000000000E+00 -0.14738495342E+04  0.14738495342E+04  0.00000000000E+00 0. -1.
         24    1    1    2    0    0 -0.16600027700E+03 -0.89326572335E+02 -0.16805790314E+03  0.26503962581E+03  0.80419002446E+02 0.  1.
        -24    1    1    2    0    0  0.16600027700E+03  0.89326572335E+02 -0.12489490401E+04  0.12656524993E+04  0.80419002446E+02 0. -1.
<mgrwt>
<rscale>  0 0.20494522E+03</rscale>
<asrwt>0</asrwt>
<pdfrwt beam="1">  1        1 0.22674604E+00 0.20494522E+03</pdfrwt>
<pdfrwt beam="2">  1       -1 0.87450156E-02 0.20494522E+03</pdfrwt>
<totfact> 0.56485687E+02</totfact>
</mgrwt>
</event>
<event>
 4    1  0.4941530E-001  0.8710192E+02  0.7546771E-02  0.1310026E+00
          1   -1    0    0  501    0  0.00000000000E+00  0.00000000000E+00  0.13500365285E+04  0.13500365285E+04  0.00000000000E+00 0. -1.
         -1   -1    0    0    0  501 -0.00000000000E+00 -0.00000000000E+00 -0.13642177503E+02  0.13642177503E+02  0.00000000000E+00 0.  1.
         24    1    1    2    0    0 -0.70860934521E+00  0.33451864541E+02  0.14532495239E+03  0.16942870804E+03  0.80419002446E+02 0.  1.
        -24    1    1    2    0    0  0.70860934521E+00 -0.33451864541E+02  0.11910693986E+04  0.11942499980E+04  0.80419002446E+02 0. -1.
<mgrwt>
<rscale>  0 0.87101925E+02</rscale>
<asrwt>0</asrwt>
<pdfrwt beam="1">  1        1 0.20769782E+00 0.87101925E+02</pdfrwt>
<pdfrwt beam="2">  1       -1 0.20987976E-02 0.87101925E+02</pdfrwt>
<totfact> 0.55452107E+03</totfact>
</mgrwt>
</event>
<event>
 4    1  0.4941530E-001  0.9386219E+02  0.7546771E-02  0.1293759E+00
          2   -1    0    0  501    0  0.00000000000E+00  0.00000000000E+00  0.63887854507E+03  0.63887854507E+03  0.00000000000E+00 0. -1.
         -2   -1    0    0    0  501 -0.00000000000E+00 -0.00000000000E+00 -0.13804127436E+02  0.13804127436E+02  0.00000000000E+00 0.  1.
         24    1    1    2    0    0 -0.48031968127E+02  0.59850454765E+01  0.30208079674E+03  0.31632722685E+03  0.80419002446E+02 0.  1.
        -24    1    1    2    0    0  0.48031968127E+02 -0.59850454765E+01  0.32299362089E+03  0.33635544566E+03  0.80419002446E+02 0. -1.
<mgrwt>
<rscale>  0 0.93862180E+02</rscale>
<asrwt>0</asrwt>
<pdfrwt beam="1">  1        2 0.98288984E-01 0.93862192E+02</pdfrwt>
<pdfrwt beam="2">  1       -2 0.21237124E-02 0.93862192E+02</pdfrwt>
<totfact> 0.29965397E+04</totfact>
</mgrwt>
</event>
<event>
 4    1  0.4941530E-001  0.9087130E+02  0.7546771E-02  0.1300755E+00
          2   -1    0    0  501    0  0.00000000000E+00  0.00000000000E+00  0.48410850726E+03  0.48410850726E+03  0.00000000000E+00 0. -1.
         -2   -1    0    0    0  501 -0.00000000000E+00 -0.00000000000E+00 -0.24812405514E+02  0.24812405514E+02  0.00000000000E+00 0.  1.
         24    1    1    2    0    0  0.18416511494E+02 -0.38094738724E+02  0.37190687211E+03  0.38284763875E+03  0.80419002446E+02 0.  0.
        -24    1    1    2    0    0 -0.18416511494E+02  0.38094738724E+02  0.87389229634E+02  0.12607327403E+03  0.80419002446E+02 0.  0.
<mgrwt>
<rscale>  0 0.90871299E+02</rscale>
<asrwt>0</asrwt>
<pdfrwt beam="1">  1        2 0.74478225E-01 0.90871299E+02</pdfrwt>
<pdfrwt beam="2">  1       -2 0.38172935E-02 0.90871299E+02</pdfrwt>
<totfact> 0.17307227E+04</totfact>
</mgrwt>
</event>
<event>
 4    1  0.4941530E-001  0.9571530E+02  0.7546771E-02  0.1289573E+00
         -2   -1    0    0    0  501 -0.00000000000E+00  0.00000000000E+00  0.52732844217E+01  0.52732844217E+01  0.00000000000E+00 0.  1.
          2   -1    0    0  501    0  0.00000000000E+00 -0.00000000000E+00 -0.26276754455E+04  0.26276754455E+04  0.00000000000E+00 0. -1.
         24    1    1    2    0    0  0.51448057873E+02  0.68774720967E+01 -0.20775148016E+04  0.20797185313E+04  0.80419002446E+02 0. -1.
        -24    1    1    2    0    0 -0.51448057873E+02 -0.68774720967E+01 -0.54488735949E+03  0.55323019871E+03  0.80419002446E+02 0.  1.
<mgrwt>
<rscale>  0 0.95715298E+02</rscale>
<asrwt>0</asrwt>
<pdfrwt beam="1">  1        2 0.40425759E+00 0.95715298E+02</pdfrwt>
<pdfrwt beam="2">  1       -2 0.81127486E-03 0.95715298E+02</pdfrwt>
<totfact> 0.96907036E+03</totfact>
</mgrwt>
</event>
<event>
 4    1  0.4941530E-001  0.8146289E+02  0.7546771E-02  0.1324951E+00
          2   -1    0    0  501    0  0.00000000000E+00  0.00000000000E+00  0.73984210424E+03  0.73984210424E+03  0.00000000000E+00 0. -1.
         -2   -1    0    0    0  501 -0.00000000000E+00 -0.00000000000E+00 -0.91836540734E+01  0.91836540734E+01  0.00000000000E+00 0.  1.
         24    1    1    2    0    0  0.41193720771E+01 -0.12329420711E+02  0.30817253871E+03  0.31875776604E+03  0.80419002446E+02 0.  1.
        -24    1    1    2    0    0 -0.41193720771E+01  0.12329420711E+02  0.42248591146E+03  0.43026799228E+03  0.80419002446E+02 0. -1.
<mgrwt>
<rscale>  0 0.81462884E+02</rscale>
<asrwt>0</asrwt>
<pdfrwt beam="1">  1        2 0.11382182E+00 0.81462894E+02</pdfrwt>
<pdfrwt beam="2">  1       -2 0.14128704E-02 0.81462894E+02</pdfrwt>
<totfact> 0.44558522E+04</totfact>
</mgrwt>
</event>
<event>
 4    1  0.4941530E-001  0.8944223E+02  0.7546771E-02  0.1304208E+00
          1   -1    0    0  501    0  0.00000000000E+00  0.00000000000E+00  0.49027592593E+03  0.49027592593E+03  0.00000000000E+00 0. -1.
         -1   -1    0    0    0  501 -0.00000000000E+00 -0.00000000000E+00 -0.16317276258E+02  0.16317276258E+02  0.00000000000E+00 0.  1.
         24    1    1    2    0    0  0.38645849486E+02 -0.62605206636E+01  0.23630934292E+03  0.25266977917E+03  0.80419002446E+02 0.  1.
        -24    1    1    2    0    0 -0.38645849486E+02  0.62605206636E+01  0.23764930676E+03  0.25392342302E+03  0.80419002446E+02 0.  0.
<mgrwt>
<rscale>  0 0.89442226E+02</rscale>
<asrwt>0</asrwt>
<pdfrwt beam="1">  1        1 0.75427054E-01 0.89442226E+02</pdfrwt>
<pdfrwt beam="2">  1       -1 0.25103506E-02 0.89442226E+02</pdfrwt>
<totfact> 0.20543060E+04</totfact>
</mgrwt>
</event>
<event>
 4    1  0.4941530E-001  0.8162471E+02  0.7546771E-02  0.1324503E+00
         -2   -1    0    0    0  501 -0.00000000000E+00  0.00000000000E+00  0.10751272956E+03  0.10751272956E+03  0.00000000000E+00 0.  1.
          2   -1    0    0  501    0  0.00000000000E+00 -0.00000000000E+00 -0.11020422333E+03  0.11020422333E+03  0.00000000000E+00 0. -1.
         24    1    1    2    0    0  0.13392186771E+02 -0.40032683634E+01 -0.73363499769E+02  0.10974878531E+03  0.80419002446E+02 0.  0.
        -24    1    1    2    0    0 -0.13392186771E+02  0.40032683634E+01  0.70672006002E+02  0.10796816758E+03  0.80419002446E+02 0.  0.
<mgrwt>
<rscale>  0 0.81624707E+02</rscale>
<asrwt>0</asrwt>
<pdfrwt beam="1">  1        2 0.16954496E-01 0.81624707E+02</pdfrwt>
<pdfrwt beam="2">  1       -2 0.16540420E-01 0.81624707E+02</pdfrwt>
<totfact> 0.88190188E+03</totfact>
</mgrwt>
</event>
<event>
 4    1  0.4941530E-001  0.8755435E+02  0.7546771E-02  0.1308885E+00
          1   -1    0    0  501    0  0.00000000000E+00  0.00000000000E+00  0.25845703607E+02  0.25845703607E+02  0.00000000000E+00 0. -1.
         -1   -1    0    0    0  501 -0.00000000000E+00 -0.00000000000E+00 -0.34087673921E+03  0.34087673921E+03  0.00000000000E+00 0.  1.
         24    1    1    2    0    0 -0.30663517337E+02  0.16071605173E+02 -0.22360164111E+03  0.24013216704E+03  0.80419002446E+02 0.  1.
        -24    1    1    2    0    0  0.30663517337E+02 -0.16071605173E+02 -0.91429394494E+02  0.12659027577E+03  0.80419002446E+02 0. -1.
<mgrwt>
<rscale>  0 0.87554347E+02</rscale>
<asrwt>0</asrwt>
<pdfrwt beam="1">  1        1 0.39762621E-02 0.87554347E+02</pdfrwt>
<pdfrwt beam="2">  1       -1 0.52442575E-01 0.87554347E+02</pdfrwt>
<totfact> 0.78327749E+03</totfact>
</mgrwt>
</event>
<event>
 4    1  0.4941530E-001  0.8133049E+02  0.7546771E-02  0.1325318E+00
         -2   -1    0    0    0  501 -0.00000000000E+00  0.00000000000E+00  0.94690140416E+01  0.94690140416E+01  0.00000000000E+00 0.  1.
          2   -1    0    0  501    0  0.00000000000E+00 -0.00000000000E+00 -0.83685465803E+03  0.83685465803E+03  0.00000000000E+00 0. -1.
         24    1    1    2    0    0  0.11406909426E+02  0.41606783741E+01 -0.24166880067E+03  0.25498716439E+03  0.80419002446E+02 0.  1.
        -24    1    1    2    0    0 -0.11406909426E+02 -0.41606783741E+01 -0.58571684331E+03  0.59133650769E+03  0.80419002446E+02 0.  0.
<mgrwt>
<rscale>  0 0.81330477E+02</rscale>
<asrwt>0</asrwt>
<pdfrwt beam="1">  1        2 0.12874690E+00 0.81330487E+02</pdfrwt>
<pdfrwt beam="2">  1       -2 0.14567711E-02 0.81330487E+02</pdfrwt>
<totfact> 0.36755129E+04</totfact>
</mgrwt>
</event>
<event>
 4    1  0.4941530E-001  0.1018175E+03  0.7546771E-02  0.1276520E+00
         -1   -1    0    0    0  501 -0.00000000000E+00  0.00000000000E+00  0.54069768981E+03  0.54069768981E+03  0.00000000000E+00 0.  1.
          1   -1    0    0  501    0  0.00000000000E+00 -0.00000000000E+00 -0.20186157316E+02  0.20186157316E+02  0.00000000000E+00 0. -1.
         24    1    1    2    0    0 -0.62064692026E+02  0.68969312238E+01  0.32308322263E+03  0.33874707136E+03  0.80419002446E+02 0.  1.
        -24    1    1    2    0    0  0.62064692026E+02 -0.68969312238E+01  0.19742830986E+03  0.22213677576E+03  0.80419002446E+02 0. -1.
<mgrwt>
<rscale>  0 0.10181753E+03</rscale>
<asrwt>0</asrwt>
<pdfrwt beam="1">  1        1 0.31055631E-02 0.10181753E+03</pdfrwt>
<pdfrwt beam="2">  1       -1 0.83184249E-01 0.10181753E+03</pdfrwt>
<totfact> 0.45654133E+03</totfact>
</mgrwt>
</event>
<event>
 4    1  0.4941530E-001  0.8710510E+02  0.7546771E-02  0.1310017E+00
          4   -1    0    0  501    0  0.00000000000E+00  0.00000000000E+00  0.19187323517E+03  0.19187323517E+03  0.00000000000E+00 0. -1.
         -4   -1    0    0    0  501 -0.00000000000E+00 -0.00000000000E+00 -0.54272399404E+02  0.54272399404E+02  0.00000000000E+00 0.  1.
         24    1    1    2    0    0  0.13249187589E+02  0.30733402924E+02  0.13291559925E+03  0.15891461703E+03  0.80419002446E+02 0.  0.
        -24    1    1    2    0    0 -0.13249187589E+02 -0.30733402924E+02  0.46852365208E+01  0.87231017549E+02  0.80419002446E+02 0.  0.
<mgrwt>
<rscale>  0 0.87105103E+02</rscale>
<asrwt>0</asrwt>
<pdfrwt beam="1">  1        4 0.29518959E-01 0.87105103E+02</pdfrwt>
<pdfrwt beam="2">  1       -4 0.83496000E-02 0.87105103E+02</pdfrwt>
<totfact> 0.16648876E+03</totfact>
</mgrwt>
</event>
<event>
 4    1  0.4941530E-001  0.8631875E+02  0.7546771E-02  0.1312019E+00
         -3   -1    0    0    0  501 -0.00000000000E+00  0.00000000000E+00  0.49791782705E+03  0.49791782705E+03  0.00000000000E+00 0.  1.
          3   -1    0    0  501    0  0.00000000000E+00 -0.00000000000E+00 -0.27147476065E+02  0.27147476065E+02  0.00000000000E+00 0. -1.
         24    1    1    2    0    0 -0.31359000952E+02 -0.56938492099E+00  0.41125898461E+03  0.42022003702E+03  0.80419002446E+02 0.  1.
        -24    1    1    2    0    0  0.31359000952E+02  0.56938492099E+00  0.59511366381E+02  0.10484526610E+03  0.80419002446E+02 0. -1.
<mgrwt>
<rscale>  0 0.86318753E+02</rscale>
<asrwt>0</asrwt>
<pdfrwt beam="1">  1        3 0.41765351E-02 0.86318753E+02</pdfrwt>
<pdfrwt beam="2">  1       -3 0.76602736E-01 0.86318753E+02</pdfrwt>
<totfact> 0.10577576E+03</totfact>
</mgrwt>
</event>
<event>
 4    1  0.4941530E-001  0.8086155E+02  0.7546771E-02  0.1326624E+00
         -1   -1    0    0    0  501 -0.00000000000E+00  0.00000000000E+00  0.13106614484E+03  0.13106614484E+03  0.00000000000E+00 0.  1.
          1   -1    0    0  501    0  0.00000000000E+00 -0.00000000000E+00 -0.52372287555E+02  0.52372287555E+02  0.00000000000E+00 0. -1.
         24    1    1    2    0    0 -0.24813065393E+01  0.80757607224E+01  0.59324156642E+02  0.10028931303E+03  0.80419002446E+02 0.  1.
        -24    1    1    2    0    0  0.24813065393E+01 -0.80757607224E+01  0.19369700647E+02  0.83149119363E+02  0.80419002446E+02 0. -1.
<mgrwt>
<rscale>  0 0.80861553E+02</rscale>
<asrwt>0</asrwt>
<pdfrwt beam="1">  1        1 0.80572751E-02 0.80861553E+02</pdfrwt>
<pdfrwt beam="2">  1       -1 0.20164022E-01 0.80861553E+02</pdfrwt>
<totfact> 0.15091915E+04</totfact>
</mgrwt>
</event>
<event>
 4    1  0.4941530E-001  0.8424269E+02  0.7546771E-02  0.1317425E+00
          2   -1    0    0  501    0  0.00000000000E+00  0.00000000000E+00  0.79534196242E+02  0.79534196242E+02  0.00000000000E+00 0. -1.
         -2   -1    0    0    0  501 -0.00000000000E+00 -0.00000000000E+00 -0.96229430868E+02  0.96229430868E+02  0.00000000000E+00 0.  1.
         24    1    1    2    0    0  0.18053611008E+02  0.17426496692E+02  0.15354015016E+02  0.85630469979E+02  0.80419002446E+02 0. -1.
        -24    1    1    2    0    0 -0.18053611008E+02 -0.17426496692E+02 -0.32049249642E+02  0.90133157131E+02  0.80419002446E+02 0.  1.
<mgrwt>
<rscale>  0 0.84242695E+02</rscale>
<asrwt>0</asrwt>
<pdfrwt beam="1">  1        2 0.12236030E-01 0.84242695E+02</pdfrwt>
<pdfrwt beam="2">  1       -2 0.14804528E-01 0.84242695E+02</pdfrwt>
<totfact> 0.15453161E+04</totfact>
</mgrwt>
</event>
<event>
 4    1  0.4941530E-001  0.1088629E+03  0.7546771E-02  0.1262690E+00
          2   -1    0    0  501    0  0.00000000000E+00  0.00000000000E+00  0.16489202247E+04  0.16489202247E+04  0.00000000000E+00 0. -1.
         -2   -1    0    0    0  501 -0.00000000000E+00 -0.00000000000E+00 -0.71877122920E+01  0.71877122920E+01  0.00000000000E+00 0.  1.
         24    1    1    2    0    0  0.57478443277E+02  0.45608451589E+02  0.81387062460E+03  0.82111906069E+03  0.80419002446E+02 0.  1.
        -24    1    1    2    0    0 -0.57478443277E+02 -0.45608451589E+02  0.82786188781E+03  0.83498887630E+03  0.80419002446E+02 0. -1.
<mgrwt>
<rscale>  0 0.10886286E+03</rscale>
<asrwt>0</asrwt>
<pdfrwt beam="1">  1        2 0.25367973E+00 0.10886287E+03</pdfrwt>
<pdfrwt beam="2">  1       -2 0.11058032E-02 0.10886287E+03</pdfrwt>
<totfact> 0.19969509E+04</totfact>
</mgrwt>
</event>
<event>
 4    1  0.4941530E-001  0.9020683E+02  0.7546771E-02  0.1302352E+00
          2   -1    0    0  501    0  0.00000000000E+00  0.00000000000E+00  0.46451808490E+03  0.46451808490E+03  0.00000000000E+00 0. -1.
         -2   -1    0    0    0  501 -0.00000000000E+00 -0.00000000000E+00 -0.23324238483E+02  0.23324238483E+02  0.00000000000E+00 0.  1.
         24    1    1    2    0    0  0.27977300589E+02  0.29788042853E+02  0.34230114896E+03  0.35398778140E+03  0.80419002446E+02 0. -1.
        -24    1    1    2    0    0 -0.27977300589E+02 -0.29788042853E+02  0.98892697452E+02  0.13385454198E+03  0.80419002446E+02 0.  1.
<mgrwt>
<rscale>  0 0.90206833E+02</rscale>
<asrwt>0</asrwt>
<pdfrwt beam="1">  1        2 0.71464314E-01 0.90206833E+02</pdfrwt>
<pdfrwt beam="2">  1       -2 0.35883447E-02 0.90206833E+02</pdfrwt>
<totfact> 0.19792793E+04</totfact>
</mgrwt>
</event>
<event>
 4    1  0.4941530E-001  0.8819829E+02  0.7546771E-02  0.1307274E+00
          1   -1    0    0  501    0  0.00000000000E+00  0.00000000000E+00  0.29205729126E+03  0.29205729126E+03  0.00000000000E+00 0. -1.
         -1   -1    0    0    0  501 -0.00000000000E+00 -0.00000000000E+00 -0.45151605934E+02  0.45151605934E+02  0.00000000000E+00 0.  1.
         24    1    1    2    0    0  0.20187116383E+02 -0.30069961905E+02  0.15480274719E+02  0.89546508232E+02  0.80419002446E+02 0.  1.
        -24    1    1    2    0    0 -0.20187116383E+02  0.30069961905E+02  0.23142541060E+03  0.24766238896E+03  0.80419002446E+02 0. -1.
<mgrwt>
<rscale>  0 0.88198289E+02</rscale>
<asrwt>0</asrwt>
<pdfrwt beam="1">  1        1 0.44931890E-01 0.88198289E+02</pdfrwt>
<pdfrwt beam="2">  1       -1 0.69464011E-02 0.88198289E+02</pdfrwt>
<totfact> 0.88727818E+03</totfact>
</mgrwt>
</event>
<event>
 4    1  0.4941530E-001  0.8256218E+02  0.7546771E-02  0.1321934E+00
          1   -1    0    0  501    0  0.00000000000E+00  0.00000000000E+00  0.89744205141E+03  0.89744205141E+03  0.00000000000E+00 0. -1.
         -1   -1    0    0    0  501 -0.00000000000E+00 -0.00000000000E+00 -0.76086981958E+01  0.76086981958E+01  0.00000000000E+00 0.  1.
         24    1    1    2    0    0  0.22539887588E+01 -0.18553104127E+02  0.42606397903E+03  0.43398966384E+03  0.80419002446E+02 0.  0.
        -24    1    1    2    0    0 -0.22539887588E+01  0.18553104127E+02  0.46376937418E+03  0.47106108577E+03  0.80419002446E+02 0. -1.
<mgrwt>
<rscale>  0 0.82562183E+02</rscale>
<asrwt>0</asrwt>
<pdfrwt beam="1">  1        1 0.13806792E+00 0.82562183E+02</pdfrwt>
<pdfrwt beam="2">  1       -1 0.11705697E-02 0.82562183E+02</pdfrwt>
<totfact> 0.25973848E+04</totfact>
</mgrwt>
</event>
<event>
 4    1  0.4941530E-001  0.1040901E+03  0.7546771E-02  0.1271923E+00
          1   -1    0    0  501    0  0.00000000000E+00  0.00000000000E+00  0.70997460751E+03  0.70997460751E+03  0.00000000000E+00 0. -1.
         -1   -1    0    0    0  501 -0.00000000000E+00 -0.00000000000E+00 -0.15772828049E+02  0.15772828049E+02  0.00000000000E+00 0.  1.
         24    1    1    2    0    0 -0.39726371499E+02 -0.52814285087E+02  0.28171767610E+03  0.30033247957E+03  0.80419002446E+02 0.  1.
        -24    1    1    2    0    0  0.39726371499E+02  0.52814285087E+02  0.41248410336E+03  0.42541495599E+03  0.80419002446E+02 0. -1.
<mgrwt>
<rscale>  0 0.10409010E+03</rscale>
<asrwt>0</asrwt>
<pdfrwt beam="1">  1        1 0.10922684E+00 0.10409010E+03</pdfrwt>
<pdfrwt beam="2">  1       -1 0.24265895E-02 0.10409010E+03</pdfrwt>
<totfact> 0.13307614E+04</totfact>
</mgrwt>
</event>
<event>
 4    1  0.4941530E-001  0.8815632E+02  0.7546771E-02  0.1307379E+00
         -1   -1    0    0    0  501 -0.00000000000E+00  0.00000000000E+00  0.48825559234E+02  0.48825559234E+02  0.00000000000E+00 0.  1.
          1   -1    0    0  501    0  0.00000000000E+00 -0.00000000000E+00 -0.16082133158E+03  0.16082133158E+03  0.00000000000E+00 0. -1.
         24    1    1    2    0    0 -0.26831162370E+02  0.24174564906E+02 -0.45374140787E+02  0.99148118838E+02  0.80419002446E+02 0. -1.
        -24    1    1    2    0    0  0.26831162370E+02 -0.24174564906E+02 -0.66621631562E+02  0.11049877198E+03  0.80419002446E+02 0.  0.
<mgrwt>
<rscale>  0 0.88156320E+02</rscale>
<asrwt>0</asrwt>
<pdfrwt beam="1">  1        1 0.24741743E-01 0.88156320E+02</pdfrwt>
<pdfrwt beam="2">  1       -1 0.75116245E-02 0.88156320E+02</pdfrwt>
<totfact> 0.16403600E+04</totfact>
</mgrwt>
</event>
<event>
 4    1  0.4941530E-001  0.1170235E+03  0.7546771E-02  0.1248090E+00
          1   -1    0    0  501    0  0.00000000000E+00  0.00000000000E+00  0.75313675997E+03  0.75313675997E+03  0.00000000000E+00 0. -1.
         -1   -1    0    0    0  501 -0.00000000000E+00 -0.00000000000E+00 -0.32964788110E+02  0.32964788110E+02  0.00000000000E+00 0.  1.
         24    1    1    2    0    0  0.54605116984E+02  0.65157972955E+02  0.96887799642E+02  0.15192676497E+03  0.80419002446E+02 0.  1.
        -24    1    1    2    0    0 -0.54605116984E+02 -0.65157972955E+02  0.62328417222E+03  0.63417478311E+03  0.80419002446E+02 0. -1.
<mgrwt>
<rscale>  0 0.11702349E+03</rscale>
<asrwt>0</asrwt>
<pdfrwt beam="1">  1        1 0.11586718E+00 0.11702349E+03</pdfrwt>
<pdfrwt beam="2">  1       -1 0.50715064E-02 0.11702349E+03</pdfrwt>
<totfact> 0.42121745E+03</totfact>
</mgrwt>
</event>
<event>
 4    1  0.4941530E-001  0.8297239E+02  0.7546771E-02  0.1320822E+00
         -2   -1    0    0    0  501 -0.00000000000E+00  0.00000000000E+00  0.15499654355E+02  0.15499654355E+02  0.00000000000E+00 0.  1.
          2   -1    0    0  501    0  0.00000000000E+00 -0.00000000000E+00 -0.44863040243E+03  0.44863040243E+03  0.00000000000E+00 0. -1.
         24    1    1    2    0    0 -0.14163938451E+02  0.14716711942E+02 -0.19341479013E+03  0.21046067509E+03  0.80419002446E+02 0. -1.
        -24    1    1    2    0    0  0.14163938451E+02 -0.14716711942E+02 -0.23971595794E+03  0.25366938169E+03  0.80419002446E+02 0.  0.
<mgrwt>
<rscale>  0 0.82972384E+02</rscale>
<asrwt>0</asrwt>
<pdfrwt beam="1">  1        2 0.69020051E-01 0.82972394E+02</pdfrwt>
<pdfrwt beam="2">  1       -2 0.23845626E-02 0.82972394E+02</pdfrwt>
<totfact> 0.36820078E+04</totfact>
</mgrwt>
</event>
<event>
 4    1  0.4941530E-001  0.8262577E+02  0.7546771E-02  0.1321761E+00
         -2   -1    0    0    0  501 -0.00000000000E+00  0.00000000000E+00  0.79578899997E+01  0.79578899997E+01  0.00000000000E+00 0.  1.
          2   -1    0    0  501    0  0.00000000000E+00 -0.00000000000E+00 -0.12367407407E+04  0.12367407407E+04  0.00000000000E+00 0. -1.
         24    1    1    2    0    0 -0.11206475321E+02 -0.15304139008E+02 -0.95884227689E+03  0.96239572405E+03  0.80419002446E+02 0. -1.
        -24    1    1    2    0    0  0.11206475321E+02  0.15304139008E+02 -0.26994057378E+03  0.28230290662E+03  0.80419002446E+02 0.  1.
<mgrwt>
<rscale>  0 0.82625769E+02</rscale>
<asrwt>0</asrwt>
<pdfrwt beam="1">  1        2 0.19026791E+00 0.82625769E+02</pdfrwt>
<pdfrwt beam="2">  1       -2 0.12242901E-02 0.82625769E+02</pdfrwt>
<totfact> 0.27661807E+04</totfact>
</mgrwt>
</event>
<event>
 4    1  0.4941530E-001  0.9149194E+02  0.7546771E-02  0.1299278E+00
         -2   -1    0    0    0  501 -0.00000000000E+00  0.00000000000E+00  0.11433030656E+03  0.11433030656E+03  0.00000000000E+00 0.  1.
          2   -1    0    0  501    0  0.00000000000E+00 -0.00000000000E+00 -0.74505831233E+02  0.74505831233E+02  0.00000000000E+00 0. -1.
         24    1    1    2    0    0 -0.48140611476E+01 -0.43363335573E+02  0.32336824411E+02  0.97038344092E+02  0.80419002446E+02 0.  1.
        -24    1    1    2    0    0  0.48140611476E+01  0.43363335573E+02  0.74876509109E+01  0.91797793695E+02  0.80419002446E+02 0. -1.
<mgrwt>
<rscale>  0 0.91491924E+02</rscale>
<asrwt>0</asrwt>
<pdfrwt beam="1">  1        2 0.11462436E-01 0.91491935E+02</pdfrwt>
<pdfrwt beam="2">  1       -2 0.17589278E-01 0.91491935E+02</pdfrwt>
<totfact> 0.12722345E+04</totfact>
</mgrwt>
</event>
<event>
 4    1  0.4941530E-001  0.8272351E+02  0.7546771E-02  0.1321495E+00
         -2   -1    0    0    0  501 -0.00000000000E+00  0.00000000000E+00  0.44959070265E+02  0.44959070265E+02  0.00000000000E+00 0.  1.
          2   -1    0    0  501    0  0.00000000000E+00 -0.00000000000E+00 -0.48582546894E+03  0.48582546894E+03  0.00000000000E+00 0. -1.
         24    1    1    2    0    0 -0.91218769262E+01  0.17110088411E+02 -0.44035678285E+03  0.44805945578E+03  0.80419002446E+02 0. -1.
        -24    1    1    2    0    0  0.91218769262E+01 -0.17110088411E+02 -0.50961582714E+00  0.82725083419E+02  0.80419002446E+02 0.  1.
<mgrwt>
<rscale>  0 0.82723514E+02</rscale>
<asrwt>0</asrwt>
<pdfrwt beam="1">  1        2 0.74742383E-01 0.82723514E+02</pdfrwt>
<pdfrwt beam="2">  1       -2 0.69167798E-02 0.82723514E+02</pdfrwt>
<totfact> 0.70683095E+03</totfact>
</mgrwt>
</event>
<event>
 4    1  0.4941530E-001  0.8461798E+02  0.7546771E-02  0.1316435E+00
          1   -1    0    0  501    0  0.00000000000E+00  0.00000000000E+00  0.84731526937E+02  0.84731526937E+02  0.00000000000E+00 0. -1.
         -1   -1    0    0    0  501 -0.00000000000E+00 -0.00000000000E+00 -0.10947945561E+03  0.10947945561E+03  0.00000000000E+00 0.  1.
         24    1    1    2    0    0 -0.25609034124E+02  0.60962408122E+01 -0.58753786232E+02  0.10301558199E+03  0.80419002446E+02 0.  1.
        -24    1    1    2    0    0  0.25609034124E+02 -0.60962408122E+01  0.34005857560E+02  0.91195400562E+02  0.80419002446E+02 0. -1.
<mgrwt>
<rscale>  0 0.84617981E+02</rscale>
<asrwt>0</asrwt>
<pdfrwt beam="1">  1        1 0.13035620E-01 0.84617981E+02</pdfrwt>
<pdfrwt beam="2">  1       -1 0.16842993E-01 0.84617981E+02</pdfrwt>
<totfact> 0.10748089E+04</totfact>
</mgrwt>
</event>
<event>
 4    1  0.4941530E-001  0.8230536E+02  0.7546771E-02  0.1322634E+00
         -3   -1    0    0    0  501 -0.00000000000E+00  0.00000000000E+00  0.13156970487E+02  0.13156970487E+02  0.00000000000E+00 0.  1.
          3   -1    0    0  501    0  0.00000000000E+00 -0.00000000000E+00 -0.11362457446E+04  0.11362457446E+04  0.00000000000E+00 0. -1.
         24    1    1    2    0    0  0.12786812133E+02 -0.11977235766E+02 -0.13655108428E+03  0.15943767219E+03  0.80419002446E+02 0.  0.
        -24    1    1    2    0    0 -0.12786812133E+02  0.11977235766E+02 -0.98653768978E+03  0.98996504285E+03  0.80419002446E+02 0. -1.
<mgrwt>
<rscale>  0 0.82305362E+02</rscale>
<asrwt>0</asrwt>
<pdfrwt beam="1">  1        3 0.17480709E+00 0.82305362E+02</pdfrwt>
<pdfrwt beam="2">  1       -3 0.20241487E-02 0.82305362E+02</pdfrwt>
<totfact> 0.46864990E+02</totfact>
</mgrwt>
</event>
<event>
 4    1  0.4941530E-001  0.1074959E+03  0.7546771E-02  0.1265279E+00
         -4   -1    0    0    0  501 -0.00000000000E+00  0.00000000000E+00  0.10592400727E+03  0.10592400727E+03  0.00000000000E+00 0.  1.
          4   -1    0    0  501    0  0.00000000000E+00 -0.00000000000E+00 -0.10915805035E+03  0.10915805035E+03  0.00000000000E+00 0. -1.
         24    1    1    2    0    0  0.68413882241E+02  0.20191184683E+02  0.10476638010E+01  0.10750096174E+03  0.80419002446E+02 0. -1.
        -24    1    1    2    0    0 -0.68413882241E+02 -0.20191184683E+02 -0.42817068775E+01  0.10758109588E+03  0.80419002446E+02 0.  0.
<mgrwt>
<rscale>  0 0.10749587E+03</rscale>
<asrwt>0</asrwt>
<pdfrwt beam="1">  1        4 0.16793546E-01 0.10749588E+03</pdfrwt>
<pdfrwt beam="2">  1       -4 0.16296001E-01 0.10749588E+03</pdfrwt>
<totfact> 0.15673781E+03</totfact>
</mgrwt>
</event>
<event>
 4    1  0.4941530E-001  0.2983450E+03  0.7546771E-02  0.1086071E+00
         -1   -1    0    0    0  501 -0.00000000000E+00  0.00000000000E+00  0.76686732931E+03  0.76686732931E+03  0.00000000000E+00 0.  1.
          1   -1    0    0  501    0  0.00000000000E+00 -0.00000000000E+00 -0.13212517156E+03  0.13212517156E+03  0.00000000000E+00 0. -1.
         24    1    1    2    0    0  0.23329568201E+03  0.16767728273E+03  0.47406425678E+03  0.56013095067E+03  0.80419002446E+02 0.  1.
        -24    1    1    2    0    0 -0.23329568201E+03 -0.16767728273E+03  0.16067790096E+03  0.33886155020E+03  0.80419002446E+02 0. -1.
<mgrwt>
<rscale>  0 0.29834504E+03</rscale>
<asrwt>0</asrwt>
<pdfrwt beam="1">  1        1 0.20326950E-01 0.29834504E+03</pdfrwt>
<pdfrwt beam="2">  1       -1 0.11797959E+00 0.29834504E+03</pdfrwt>
<totfact> 0.17259164E+02</totfact>
</mgrwt>
</event>
<event>
 4    1  0.4941530E-001  0.8270814E+02  0.7546771E-02  0.1321537E+00
          2   -1    0    0  501    0  0.00000000000E+00  0.00000000000E+00  0.45903881982E+02  0.45903881982E+02  0.00000000000E+00 0. -1.
         -2   -1    0    0    0  501 -0.00000000000E+00 -0.00000000000E+00 -0.11211767159E+04  0.11211767159E+04  0.00000000000E+00 0.  1.
         24    1    1    2    0    0  0.76402402495E+01  0.17749569838E+02  0.57412246030E+01  0.82907165642E+02  0.80419002446E+02 0. -1.
        -24    1    1    2    0    0 -0.76402402495E+01 -0.17749569838E+02 -0.10810140585E+04  0.10841734322E+04  0.80419002446E+02 0.  1.
<mgrwt>
<rscale>  0 0.82708140E+02</rscale>
<asrwt>0</asrwt>
<pdfrwt beam="1">  1        2 0.70621354E-02 0.82708140E+02</pdfrwt>
<pdfrwt beam="2">  1       -2 0.17248873E+00 0.82708140E+02</pdfrwt>
<totfact> 0.21549230E+02</totfact>
</mgrwt>
</event>
<event>
 4    1  0.4941530E-001  0.9885737E+02  0.7546771E-02  0.1282717E+00
          2   -1    0    0  501    0  0.00000000000E+00  0.00000000000E+00  0.75569727721E+03  0.75569727721E+03  0.00000000000E+00 0. -1.
         -2   -1    0    0    0  501 -0.00000000000E+00 -0.00000000000E+00 -0.13134697174E+02  0.13134697174E+02  0.00000000000E+00 0.  1.
         24    1    1    2    0    0 -0.54955682585E+02 -0.16894712766E+02  0.32354182872E+03  0.33830768430E+03  0.80419002446E+02 0.  1.
        -24    1    1    2    0    0  0.54955682585E+02  0.16894712766E+02  0.41902075131E+03  0.43052429008E+03  0.80419002446E+02 0. -1.
<mgrwt>
<rscale>  0 0.98857356E+02</rscale>
<asrwt>0</asrwt>
<pdfrwt beam="1">  1        2 0.11626109E+00 0.98857368E+02</pdfrwt>
<pdfrwt beam="2">  1       -2 0.20207232E-02 0.98857368E+02</pdfrwt>
<totfact> 0.26595018E+04</totfact>
</mgrwt>
</event>
<event>
 4    1  0.4941530E-001  0.1070968E+03  0.7546771E-02  0.1266043E+00
          1   -1    0    0  501    0  0.00000000000E+00  0.00000000000E+00  0.44309749507E+03  0.44309749507E+03  0.00000000000E+00 0. -1.
         -1   -1    0    0    0  501 -0.00000000000E+00 -0.00000000000E+00 -0.25898769774E+02  0.25898769774E+02  0.00000000000E+00 0.  1.
         24    1    1    2    0    0  0.58721119272E+02 -0.39425138568E+02  0.21394015441E+03  0.23924906901E+03  0.80419002446E+02 0.  0.
        -24    1    1    2    0    0 -0.58721119272E+02  0.39425138568E+02  0.20325857089E+03  0.22974719583E+03  0.80419002446E+02 0. -1.
<mgrwt>
<rscale>  0 0.10709683E+03</rscale>
<asrwt>0</asrwt>
<pdfrwt beam="1">  1        1 0.68168840E-01 0.10709684E+03</pdfrwt>
<pdfrwt beam="2">  1       -1 0.39844264E-02 0.10709684E+03</pdfrwt>
<totfact> 0.12184791E+04</totfact>
</mgrwt>
</event>
<event>
 4    1  0.4941530E-001  0.8243797E+02  0.7546771E-02  0.1322272E+00
         -2   -1    0    0    0  501 -0.00000000000E+00  0.00000000000E+00  0.64884024919E+02  0.64884024919E+02  0.00000000000E+00 0.  1.
          2   -1    0    0  501    0  0.00000000000E+00 -0.00000000000E+00 -0.19468503171E+03  0.19468503171E+03  0.00000000000E+00 0. -1.
         24    1    1    2    0    0 -0.11786875238E+02 -0.13779323434E+02  0.23314585033E+02  0.85671383856E+02  0.80419002446E+02 0.  1.
        -24    1    1    2    0    0  0.11786875238E+02  0.13779323434E+02 -0.15311559182E+03  0.17389767277E+03  0.80419002446E+02 0. -1.
<mgrwt>
<rscale>  0 0.82437964E+02</rscale>
<asrwt>0</asrwt>
<pdfrwt beam="1">  1        2 0.29951543E-01 0.82437974E+02</pdfrwt>
<pdfrwt beam="2">  1       -2 0.99821579E-02 0.82437974E+02</pdfrwt>
<totfact> 0.10535586E+04</totfact>
</mgrwt>
</event>
<event>
 4    1  0.4941530E-001  0.8163728E+02  0.7546771E-02  0.1324468E+00
         -2   -1    0    0    0  501 -0.00000000000E+00  0.00000000000E+00  0.16091534930E+02  0.16091534930E+02  0.00000000000E+00 0.  1.
          2   -1    0    0  501    0  0.00000000000E+00 -0.00000000000E+00 -0.85189095197E+03  0.85189095197E+03  0.00000000000E+00 0. -1.
         24    1    1    2    0    0 -0.19013010682E+01  0.13921752849E+02 -0.72899050781E+03  0.73354741263E+03  0.80419002446E+02 0. -1.
        -24    1    1    2    0    0  0.19013010682E+01 -0.13921752849E+02 -0.10680890923E+03  0.13443507427E+03  0.80419002446E+02 0.  1.
<mgrwt>
<rscale>  0 0.81637284E+02</rscale>
<asrwt>0</asrwt>
<pdfrwt beam="1">  1        2 0.13106017E+00 0.81637284E+02</pdfrwt>
<pdfrwt beam="2">  1       -2 0.24756203E-02 0.81637284E+02</pdfrwt>
<totfact> 0.16845847E+04</totfact>
</mgrwt>
</event>
<event>
 4    1  0.4941530E-001  0.8134509E+02  0.7546771E-02  0.1325277E+00
          2   -1    0    0  501    0  0.00000000000E+00  0.00000000000E+00  0.12430875368E+04  0.12430875368E+04  0.00000000000E+00 0. -1.
         -2   -1    0    0    0  501 -0.00000000000E+00 -0.00000000000E+00 -0.16424701755E+02  0.16424701755E+02  0.00000000000E+00 0.  1.
         24    1    1    2    0    0  0.11392957545E+02  0.44730144567E+01  0.11310781333E+04  0.11339994564E+04  0.80419002446E+02 0.  0.
        -24    1    1    2    0    0 -0.11392957545E+02 -0.44730144567E+01  0.95584701683E+02  0.12551278218E+03  0.80419002446E+02 0.  1.
<mgrwt>
<rscale>  0 0.81345088E+02</rscale>
<asrwt>0</asrwt>
<pdfrwt beam="1">  1        2 0.19124416E+00 0.81345088E+02</pdfrwt>
<pdfrwt beam="2">  1       -2 0.25268782E-02 0.81345088E+02</pdfrwt>
<totfact> 0.97401489E+03</totfact>
</mgrwt>
</event>
<event>
 4    1  0.4941530E-001  0.8792439E+02  0.7546771E-02  0.1307957E+00
          2   -1    0    0  501    0  0.00000000000E+00  0.00000000000E+00  0.16948970913E+04  0.16948970913E+04  0.00000000000E+00 0. -1.
         -2   -1    0    0    0  501 -0.00000000000E+00 -0.00000000000E+00 -0.61519576163E+01  0.61519576163E+01  0.00000000000E+00 0.  1.
         24    1    1    2    0    0  0.17596900234E+02  0.30884150014E+02  0.12768740271E+04  0.12798976439E+04  0.80419002446E+02 0.  0.
        -24    1    1    2    0    0 -0.17596900234E+02 -0.30884150014E+02  0.41187110650E+03  0.42115140501E+03  0.80419002446E+02 0. -1.
<mgrwt>
<rscale>  0 0.87924386E+02</rscale>
<asrwt>0</asrwt>
<pdfrwt beam="1">  1        2 0.26075303E+00 0.87924386E+02</pdfrwt>
<pdfrwt beam="2">  1       -2 0.94645637E-03 0.87924386E+02</pdfrwt>
<totfact> 0.23269706E+04</totfact>
</mgrwt>
</event>
<event>
 4    1  0.4941530E-001  0.8824909E+02  0.7546771E-02  0.1307148E+00
          1   -1    0    0  501    0  0.00000000000E+00  0.00000000000E+00  0.67402655310E+02  0.67402655310E+02  0.00000000000E+00 0. -1.
         -1   -1    0    0    0  501 -0.00000000000E+00 -0.00000000000E+00 -0.11569025455E+03  0.11569025455E+03  0.00000000000E+00 0.  1.
         24    1    1    2    0    0 -0.10008332006E+02  0.34935918361E+02 -0.27410534164E+02  0.92407999863E+02  0.80419002446E+02 0.  1.
        -24    1    1    2    0    0  0.10008332006E+02 -0.34935918361E+02 -0.20877065080E+02  0.90684910001E+02  0.80419002446E+02 0.  0.
<mgrwt>
<rscale>  0 0.88249085E+02</rscale>
<asrwt>0</asrwt>
<pdfrwt beam="1">  1        1 0.10369639E-01 0.88249085E+02</pdfrwt>
<pdfrwt beam="2">  1       -1 0.17798500E-01 0.88249085E+02</pdfrwt>
<totfact> 0.13320666E+04</totfact>
</mgrwt>
</event>
<event>
 4    1  0.4941530E-001  0.1041463E+03  0.7546771E-02  0.1271811E+00
          2   -1    0    0  501    0  0.00000000000E+00  0.00000000000E+00  0.99327122810E+03  0.99327122810E+03  0.00000000000E+00 0. -1.
         -2   -1    0    0    0  501 -0.00000000000E+00 -0.00000000000E+00 -0.38906308790E+02  0.38906308790E+02  0.00000000000E+00 0.  1.
         24    1    1    2    0    0  0.59833913369E+02 -0.28269054080E+02  0.91489374579E+03  0.92080237763E+03  0.80419002446E+02 0. -1.
        -24    1    1    2    0    0 -0.59833913369E+02  0.28269054080E+02  0.39471173523E+02  0.11137515926E+03  0.80419002446E+02 0.  1.
<mgrwt>
<rscale>  0 0.10414630E+03</rscale>
<asrwt>0</asrwt>
<pdfrwt beam="1">  1        2 0.15281094E+00 0.10414630E+03</pdfrwt>
<pdfrwt beam="2">  1       -2 0.59855867E-02 0.10414630E+03</pdfrwt>
<totfact> 0.38268934E+03</totfact>
</mgrwt>
</event>
<event>
 4    1  0.4941530E-001  0.9014446E+02  0.7546771E-02  0.1302502E+00
         -3   -1    0    0    0  501 -0.00000000000E+00  0.00000000000E+00  0.10930692818E+04  0.10930692818E+04  0.00000000000E+00 0.  1.
          3   -1    0    0  501    0  0.00000000000E+00 -0.00000000000E+00 -0.11081969753E+02  0.11081969753E+02  0.00000000000E+00 0. -1.
         24    1    1    2    0    0 -0.10940447902E+02  0.39231546006E+02  0.85773716857E+03  0.86246105646E+03  0.80419002446E+02 0.  1.
        -24    1    1    2    0    0  0.10940447902E+02 -0.39231546006E+02  0.22425014349E+03  0.24169019511E+03  0.80419002446E+02 0. -1.
<mgrwt>
<rscale>  0 0.90144459E+02</rscale>
<asrwt>0</asrwt>
<pdfrwt beam="1">  1        3 0.17049193E-02 0.90144459E+02</pdfrwt>
<pdfrwt beam="2">  1       -3 0.16816442E+00 0.90144459E+02</pdfrwt>
<totfact> 0.67700906E+02</totfact>
</mgrwt>
</event>
<event>
 4    1  0.4941530E-001  0.9022750E+02  0.7546771E-02  0.1302302E+00
         -2   -1    0    0    0  501 -0.00000000000E+00  0.00000000000E+00  0.27164325416E+02  0.27164325416E+02  0.00000000000E+00 0.  1.
          2   -1    0    0  501    0  0.00000000000E+00 -0.00000000000E+00 -0.47899980950E+03  0.47899980950E+03  0.00000000000E+00 0. -1.
         24    1    1    2    0    0  0.39091648710E+02 -0.12067689775E+02 -0.38076022866E+03  0.39130468157E+03  0.80419002446E+02 0. -1.
        -24    1    1    2    0    0 -0.39091648710E+02  0.12067689775E+02 -0.71075255431E+02  0.11485945335E+03  0.80419002446E+02 0.  1.
<mgrwt>
<rscale>  0 0.90227502E+02</rscale>
<asrwt>0</asrwt>
<pdfrwt beam="1">  1        2 0.73692272E-01 0.90227502E+02</pdfrwt>
<pdfrwt beam="2">  1       -2 0.41791274E-02 0.90227502E+02</pdfrwt>
<totfact> 0.15313311E+04</totfact>
</mgrwt>
</event>
<event>
 4    1  0.4941530E-001  0.1174766E+03  0.7546771E-02  0.1247319E+00
         -1   -1    0    0    0  501 -0.00000000000E+00  0.00000000000E+00  0.11735199492E+03  0.11735199492E+03  0.00000000000E+00 0.  1.
          1   -1    0    0  501    0  0.00000000000E+00 -0.00000000000E+00 -0.17809112555E+03  0.17809112555E+03  0.00000000000E+00 0. -1.
         24    1    1    2    0    0  0.84883470448E+02  0.11328522109E+02  0.55722608781E+02  0.13002216754E+03  0.80419002446E+02 0.  1.
        -24    1    1    2    0    0 -0.84883470448E+02 -0.11328522109E+02 -0.11646173941E+03  0.16542095294E+03  0.80419002446E+02 0. -1.
<mgrwt>
<rscale>  0 0.11747661E+03</rscale>
<asrwt>0</asrwt>
<pdfrwt beam="1">  1        1 0.27398635E-01 0.11747661E+03</pdfrwt>
<pdfrwt beam="2">  1       -1 0.18054153E-01 0.11747661E+03</pdfrwt>
<totfact> 0.38651318E+03</totfact>
</mgrwt>
</event>
<event>
 4    1  0.4941530E-001  0.8073577E+02  0.7546771E-02  0.1326976E+00
          1   -1    0    0  501    0  0.00000000000E+00  0.00000000000E+00  0.78466271801E+01  0.78466271801E+01  0.00000000000E+00 0. -1.
         -1   -1    0    0    0  501 -0.00000000000E+00 -0.00000000000E+00 -0.99486372473E+03  0.99486372473E+03  0.00000000000E+00 0.  1.
         24    1    1    2    0    0  0.62845146996E+01 -0.33990734953E+01 -0.69716127890E+03  0.70182057078E+03  0.80419002446E+02 0.  0.
        -24    1    1    2    0    0 -0.62845146996E+01  0.33990734953E+01 -0.28985581865E+03  0.30088978112E+03  0.80419002446E+02 0. -1.
<mgrwt>
<rscale>  0 0.80735771E+02</rscale>
<asrwt>0</asrwt>
<pdfrwt beam="1">  1        1 0.12071748E-02 0.80735771E+02</pdfrwt>
<pdfrwt beam="2">  1       -1 0.15305579E+00 0.80735771E+02</pdfrwt>
<totfact> 0.40807533E+03</totfact>
</mgrwt>
</event>
<event>
 4    1  0.4941530E-001  0.9297297E+02  0.7546771E-02  0.1295808E+00
          1   -1    0    0  501    0  0.00000000000E+00  0.00000000000E+00  0.21032125786E+04  0.21032125786E+04  0.00000000000E+00 0. -1.
         -1   -1    0    0    0  501 -0.00000000000E+00 -0.00000000000E+00 -0.44073443495E+01  0.44073443495E+01  0.00000000000E+00 0.  1.
         24    1    1    2    0    0 -0.38181085639E+02 -0.26813453636E+02  0.77563385131E+03  0.78118617746E+03  0.80419002446E+02 0.  1.
        -24    1    1    2    0    0  0.38181085639E+02  0.26813453636E+02  0.13231713830E+04  0.13264337455E+04  0.80419002446E+02 0. -1.
<mgrwt>
<rscale>  0 0.92972967E+02</rscale>
<asrwt>0</asrwt>
<pdfrwt beam="1">  1        1 0.32357036E+00 0.92972967E+02</pdfrwt>
<pdfrwt beam="2">  1       -1 0.67805466E-03 0.92972967E+02</pdfrwt>
<totfact> 0.91917975E+03</totfact>
</mgrwt>
</event>
<event>
 4    1  0.4941530E-001  0.8750999E+02  0.7546771E-02  0.1308996E+00
         -2   -1    0    0    0  501 -0.00000000000E+00  0.00000000000E+00  0.76835098088E+02  0.76835098088E+02  0.00000000000E+00 0.  1.
          2   -1    0    0  501    0  0.00000000000E+00 -0.00000000000E+00 -0.19861633938E+03  0.19861633938E+03  0.00000000000E+00 0. -1.
         24    1    1    2    0    0 -0.10471809525E+02 -0.32880456681E+02 -0.15810082477E+03  0.18070381837E+03  0.80419002446E+02 0. -1.
        -24    1    1    2    0    0  0.10471809525E+02  0.32880456681E+02  0.36319583477E+02  0.94747619097E+02  0.80419002446E+02 0.  1.
<mgrwt>
<rscale>  0 0.87509995E+02</rscale>
<asrwt>0</asrwt>
<pdfrwt beam="1">  1        2 0.30556359E-01 0.87509995E+02</pdfrwt>
<pdfrwt beam="2">  1       -2 0.11820785E-01 0.87509995E+02</pdfrwt>
<totfact> 0.79604945E+03</totfact>
</mgrwt>
</event>
<event>
 4    1  0.4941530E-001  0.8110692E+02  0.7546771E-02  0.1325939E+00
          2   -1    0    0  501    0  0.00000000000E+00  0.00000000000E+00  0.21049573281E+03  0.21049573281E+03  0.00000000000E+00 0. -1.
         -2   -1    0    0    0  501 -0.00000000000E+00 -0.00000000000E+00 -0.31781167137E+02  0.31781167137E+02  0.00000000000E+00 0.  1.
         24    1    1    2    0    0 -0.64942714631E+00 -0.10521135481E+02  0.10499418335E+03  0.13267294577E+03  0.80419002446E+02 0.  0.
        -24    1    1    2    0    0  0.64942714631E+00  0.10521135481E+02  0.73720382328E+02  0.10960395418E+03  0.80419002446E+02 0. -1.
<mgrwt>
<rscale>  0 0.81106917E+02</rscale>
<asrwt>0</asrwt>
<pdfrwt beam="1">  1        2 0.32383958E-01 0.81106917E+02</pdfrwt>
<pdfrwt beam="2">  1       -2 0.48894105E-02 0.81106917E+02</pdfrwt>
<totfact> 0.28472859E+04</totfact>
</mgrwt>
</event>
<event>
 4    1  0.4941530E-001  0.9093395E+02  0.7546771E-02  0.1300606E+00
         -2   -1    0    0    0  501 -0.00000000000E+00  0.00000000000E+00  0.16140088053E+02  0.16140088053E+02  0.00000000000E+00 0.  1.
          2   -1    0    0  501    0  0.00000000000E+00 -0.00000000000E+00 -0.87558983699E+03  0.87558983699E+03  0.00000000000E+00 0. -1.
         24    1    1    2    0    0  0.42354502674E+02 -0.28040684859E+01 -0.71691150898E+03  0.72265558488E+03  0.80419002446E+02 0. -1.
        -24    1    1    2    0    0 -0.42354502674E+02  0.28040684859E+01 -0.14253823996E+03  0.16907434016E+03  0.80419002446E+02 0.  1.
<mgrwt>
<rscale>  0 0.90933947E+02</rscale>
<asrwt>0</asrwt>
<pdfrwt beam="1">  1        2 0.13470616E+00 0.90933947E+02</pdfrwt>
<pdfrwt beam="2">  1       -2 0.24830899E-02 0.90933947E+02</pdfrwt>
<totfact> 0.16354754E+04</totfact>
</mgrwt>
</event>
<event>
 4    1  0.4941530E-001  0.8246755E+02  0.7546771E-02  0.1322191E+00
         -1   -1    0    0    0  501 -0.00000000000E+00  0.00000000000E+00  0.47019396459E+02  0.47019396459E+02  0.00000000000E+00 0.  1.
          1   -1    0    0  501    0  0.00000000000E+00 -0.00000000000E+00 -0.13799268602E+04  0.13799268602E+04  0.00000000000E+00 0. -1.
         24    1    1    2    0    0  0.89266434618E+01  0.15937258839E+02  0.85924017406E+01  0.82913970505E+02  0.80419002446E+02 0.  1.
        -24    1    1    2    0    0 -0.89266434618E+01 -0.15937258839E+02 -0.13414998654E+04  0.13440322861E+04  0.80419002446E+02 0. -1.
<mgrwt>
<rscale>  0 0.82467552E+02</rscale>
<asrwt>0</asrwt>
<pdfrwt beam="1">  1        1 0.21229644E+00 0.82467552E+02</pdfrwt>
<pdfrwt beam="2">  1       -1 0.72337534E-02 0.82467552E+02</pdfrwt>
<totfact> 0.88067982E+02</totfact>
</mgrwt>
</event>
<event>
 4    1  0.4941530E-001  0.1044692E+03  0.7546771E-02  0.1271169E+00
          2   -1    0    0  501    0  0.00000000000E+00  0.00000000000E+00  0.77262030231E+03  0.77262030231E+03  0.00000000000E+00 0. -1.
         -2   -1    0    0    0  501 -0.00000000000E+00 -0.00000000000E+00 -0.15334977542E+02  0.15334977542E+02  0.00000000000E+00 0.  1.
         24    1    1    2    0    0  0.31577382703E+02 -0.58732172153E+02  0.48927703872E+03  0.50030574224E+03  0.80419002446E+02 0. -1.
        -24    1    1    2    0    0 -0.31577382703E+02  0.58732172153E+02  0.26800828605E+03  0.28764953762E+03  0.80419002446E+02 0.  1.
<mgrwt>
<rscale>  0 0.10446921E+03</rscale>
<asrwt>0</asrwt>
<pdfrwt beam="1">  1        2 0.11886463E+00 0.10446921E+03</pdfrwt>
<pdfrwt beam="2">  1       -2 0.23592279E-02 0.10446921E+03</pdfrwt>
<totfact> 0.20809574E+04</totfact>
</mgrwt>
</event>
<event>
 4    1  0.4941530E-001  0.1176491E+03  0.7546771E-02  0.1247026E+00
         -1   -1    0    0    0  501 -0.00000000000E+00  0.00000000000E+00  0.26424644072E+03  0.26424644072E+03  0.00000000000E+00 0.  1.
          1   -1    0    0  501    0  0.00000000000E+00 -0.00000000000E+00 -0.16310396085E+04  0.16310396085E+04  0.00000000000E+00 0. -1.
         24    1    1    2    0    0  0.56970208052E+02 -0.64253398793E+02  0.24890563428E+03  0.27530952507E+03  0.80419002446E+02 0.  1.
        -24    1    1    2    0    0 -0.56970208052E+02  0.64253398793E+02 -0.16156988021E+04  0.16199765241E+04  0.80419002446E+02 0. -1.
<mgrwt>
<rscale>  0 0.11764914E+03</rscale>
<asrwt>0</asrwt>
<pdfrwt beam="1">  1        1 0.25092917E+00 0.11764914E+03</pdfrwt>
<pdfrwt beam="2">  1       -1 0.40653299E-01 0.11764914E+03</pdfrwt>
<totfact> 0.38673175E+01</totfact>
</mgrwt>
</event>
<event>
 4    1  0.4941530E-001  0.8857338E+02  0.7546771E-02  0.1306344E+00
          4   -1    0    0  501    0  0.00000000000E+00  0.00000000000E+00  0.27191919489E+03  0.27191919489E+03  0.00000000000E+00 0. -1.
         -4   -1    0    0    0  501 -0.00000000000E+00 -0.00000000000E+00 -0.39230047389E+02  0.39230047389E+02  0.00000000000E+00 0.  1.
         24    1    1    2    0    0 -0.34582216218E+02 -0.13494393126E+02  0.19636486226E+03  0.21541681320E+03  0.80419002446E+02 0.  0.
        -24    1    1    2    0    0  0.34582216218E+02  0.13494393126E+02  0.36324285237E+02  0.95732429076E+02  0.80419002446E+02 0.  0.
<mgrwt>
<rscale>  0 0.88573384E+02</rscale>
<asrwt>0</asrwt>
<pdfrwt beam="1">  1        4 0.41833721E-01 0.88573384E+02</pdfrwt>
<pdfrwt beam="2">  1       -4 0.60353921E-02 0.88573384E+02</pdfrwt>
<totfact> 0.14553904E+03</totfact>
</mgrwt>
</event>
<event>
 4    1  0.4941530E-001  0.1631862E+03  0.7546771E-02  0.1185146E+00
         -2   -1    0    0    0  501 -0.00000000000E+00  0.00000000000E+00  0.27178126444E+02  0.27178126444E+02  0.00000000000E+00 0.  1.
          2   -1    0    0  501    0  0.00000000000E+00 -0.00000000000E+00 -0.14244977753E+04  0.14244977753E+04  0.00000000000E+00 0. -1.
         24    1    1    2    0    0  0.69432261511E+02  0.12386158152E+03 -0.11041965210E+04  0.11161898151E+04  0.80419002446E+02 0. -1.
        -24    1    1    2    0    0 -0.69432261511E+02 -0.12386158152E+03 -0.29312312786E+03  0.33548608668E+03  0.80419002446E+02 0.  1.
<mgrwt>
<rscale>  0 0.16318623E+03</rscale>
<asrwt>0</asrwt>
<pdfrwt beam="1">  1        2 0.21915350E+00 0.16318623E+03</pdfrwt>
<pdfrwt beam="2">  1       -2 0.41812502E-02 0.16318623E+03</pdfrwt>
<totfact> 0.38246859E+03</totfact>
</mgrwt>
</event>
<event>
 4    1  0.4941530E-001  0.1062415E+03  0.7546771E-02  0.1267693E+00
          1   -1    0    0  501    0  0.00000000000E+00  0.00000000000E+00  0.38051182977E+03  0.38051182977E+03  0.00000000000E+00 0. -1.
         -1   -1    0    0    0  501 -0.00000000000E+00 -0.00000000000E+00 -0.11108105264E+03  0.11108105264E+03  0.00000000000E+00 0.  1.
         24    1    1    2    0    0 -0.69027065612E+02 -0.74364739926E+01 -0.75718188731E+02  0.13046262680E+03  0.80419002446E+02 0.  1.
        -24    1    1    2    0    0  0.69027065612E+02  0.74364739926E+01  0.34514896585E+03  0.36113025561E+03  0.80419002446E+02 0. -1.
<mgrwt>
<rscale>  0 0.10624148E+03</rscale>
<asrwt>0</asrwt>
<pdfrwt beam="1">  1        1 0.58540281E-01 0.10624148E+03</pdfrwt>
<pdfrwt beam="2">  1       -1 0.17089393E-01 0.10624148E+03</pdfrwt>
<totfact> 0.16451288E+03</totfact>
</mgrwt>
</event>
<event>
 4    1  0.4941530E-001  0.1131612E+03  0.7546771E-02  0.1254825E+00
          1   -1    0    0  501    0  0.00000000000E+00  0.00000000000E+00  0.26533917271E+03  0.26533917271E+03  0.00000000000E+00 0. -1.
         -1   -1    0    0    0  501 -0.00000000000E+00 -0.00000000000E+00 -0.10031403451E+03  0.10031403451E+03  0.00000000000E+00 0.  1.
         24    1    1    2    0    0  0.53016237203E+02 -0.59392952276E+02 -0.49186506634E+02  0.12338870522E+03  0.80419002446E+02 0.  1.
        -24    1    1    2    0    0 -0.53016237203E+02  0.59392952276E+02  0.21421164484E+03  0.24226450199E+03  0.80419002446E+02 0. -1.
<mgrwt>
<rscale>  0 0.11316121E+03</rscale>
<asrwt>0</asrwt>
<pdfrwt beam="1">  1        1 0.40821411E-01 0.11316121E+03</pdfrwt>
<pdfrwt beam="2">  1       -1 0.15432928E-01 0.11316121E+03</pdfrwt>
<totfact> 0.30186470E+03</totfact>
</mgrwt>
</event>
<event>
 4    1  0.4941530E-001  0.8419576E+02  0.7546771E-02  0.1317549E+00
         -2   -1    0    0    0  501 -0.00000000000E+00  0.00000000000E+00  0.13963684504E+02  0.13963684504E+02  0.00000000000E+00 0.  1.
          2   -1    0    0  501    0  0.00000000000E+00 -0.00000000000E+00 -0.56600518922E+03  0.56600518922E+03  0.00000000000E+00 0. -1.
         24    1    1    2    0    0  0.85382945652E+01  0.23426650676E+02 -0.36911747812E+03  0.37859825547E+03  0.80419002446E+02 0. -1.
        -24    1    1    2    0    0 -0.85382945652E+01 -0.23426650676E+02 -0.18292402659E+03  0.20137061825E+03  0.80419002446E+02 0.  1.
<mgrwt>
<rscale>  0 0.84195762E+02</rscale>
<asrwt>0</asrwt>
<pdfrwt beam="1">  1        2 0.87077713E-01 0.84195762E+02</pdfrwt>
<pdfrwt beam="2">  1       -2 0.21482594E-02 0.84195762E+02</pdfrwt>
<totfact> 0.33349381E+04</totfact>
</mgrwt>
</event>
<event>
 4    1  0.4941530E-001  0.8294906E+02  0.7546771E-02  0.1320885E+00
          1   -1    0    0  501    0  0.00000000000E+00  0.00000000000E+00  0.13124692324E+02  0.13124692324E+02  0.00000000000E+00 0. -1.
         -1   -1    0    0    0  501 -0.00000000000E+00 -0.00000000000E+00 -0.96327458734E+03  0.96327458734E+03  0.00000000000E+00 0.  1.
         24    1    1    2    0    0 -0.74425957992E+01 -0.18919271666E+02 -0.80466156779E+03  0.80892569850E+03  0.80419002446E+02 0.  1.
        -24    1    1    2    0    0  0.74425957992E+01  0.18919271666E+02 -0.14548832723E+03  0.16747358116E+03  0.80419002446E+02 0.  0.
<mgrwt>
<rscale>  0 0.82949063E+02</rscale>
<asrwt>0</asrwt>
<pdfrwt beam="1">  1        1 0.20191833E-02 0.82949063E+02</pdfrwt>
<pdfrwt beam="2">  1       -1 0.14819610E+00 0.82949063E+02</pdfrwt>
<totfact> 0.21870013E+03</totfact>
</mgrwt>
</event>
<event>
 4    1  0.4941530E-001  0.8479134E+02  0.7546771E-02  0.1315979E+00
          2   -1    0    0  501    0  0.00000000000E+00  0.00000000000E+00  0.10285228623E+03  0.10285228623E+03  0.00000000000E+00 0. -1.
         -2   -1    0    0    0  501 -0.00000000000E+00 -0.00000000000E+00 -0.70008062989E+02  0.70008062989E+02  0.00000000000E+00 0.  1.
         24    1    1    2    0    0 -0.15848650190E+02 -0.21706490379E+02  0.13055955114E+02  0.85790590135E+02  0.80419002446E+02 0.  1.
        -24    1    1    2    0    0  0.15848650190E+02  0.21706490379E+02  0.19788268130E+02  0.87069759086E+02  0.80419002446E+02 0. -1.
<mgrwt>
<rscale>  0 0.84791327E+02</rscale>
<asrwt>0</asrwt>
<pdfrwt beam="1">  1        2 0.15823429E-01 0.84791338E+02</pdfrwt>
<pdfrwt beam="2">  1       -2 0.10770471E-01 0.84791338E+02</pdfrwt>
<totfact> 0.18988362E+04</totfact>
</mgrwt>
</event>
<event>
 4    1  0.4941530E-001  0.1007883E+03  0.7546771E-02  0.1278647E+00
          2   -1    0    0  501    0  0.00000000000E+00  0.00000000000E+00  0.76768940173E+03  0.76768940173E+03  0.00000000000E+00 0. -1.
         -2   -1    0    0    0  501 -0.00000000000E+00 -0.00000000000E+00 -0.13299911007E+02  0.13299911007E+02  0.00000000000E+00 0.  1.
         24    1    1    2    0    0  0.53492389595E+02 -0.28803063738E+02  0.34934522267E+03  0.36359366438E+03  0.80419002446E+02 0. -1.
        -24    1    1    2    0    0 -0.53492389595E+02  0.28803063738E+02  0.40504426805E+03  0.41739564835E+03  0.80419002446E+02 0.  1.
<mgrwt>
<rscale>  0 0.10078825E+03</rscale>
<asrwt>0</asrwt>
<pdfrwt beam="1">  1        2 0.11810603E+00 0.10078826E+03</pdfrwt>
<pdfrwt beam="2">  1       -2 0.20461408E-02 0.10078826E+03</pdfrwt>
<totfact> 0.25677120E+04</totfact>
</mgrwt>
</event>
<event>
 4    1  0.4941530E-001  0.1360530E+03  0.7546771E-02  0.1218741E+00
         -4   -1    0    0    0  501 -0.00000000000E+00  0.00000000000E+00  0.49947281032E+02  0.49947281032E+02  0.00000000000E+00 0.  1.
          4   -1    0    0  501    0  0.00000000000E+00 -0.00000000000E+00 -0.78077020844E+03  0.78077020844E+03  0.00000000000E+00 0. -1.
         24    1    1    2    0    0  0.87687877366E+02 -0.65985220686E+02 -0.66646528917E+03  0.68021056358E+03  0.80419002446E+02 0. -1.
        -24    1    1    2    0    0 -0.87687877366E+02  0.65985220686E+02 -0.64357638232E+02  0.15050692588E+03  0.80419002446E+02 0.  0.
<mgrwt>
<rscale>  0 0.13605304E+03</rscale>
<asrwt>0</asrwt>
<pdfrwt beam="1">  1        4 0.12011849E+00 0.13605304E+03</pdfrwt>
<pdfrwt beam="2">  1       -4 0.76841972E-02 0.13605304E+03</pdfrwt>
<totfact> 0.10978827E+02</totfact>
</mgrwt>
</event>
<event>
 4    1  0.4941530E-001  0.9654354E+02  0.7546771E-02  0.1287737E+00
         -2   -1    0    0    0  501 -0.00000000000E+00  0.00000000000E+00  0.96456326110E+02  0.96456326110E+02  0.00000000000E+00 0.  1.
          2   -1    0    0  501    0  0.00000000000E+00 -0.00000000000E+00 -0.11357080646E+03  0.11357080646E+03  0.00000000000E+00 0. -1.
         24    1    1    2    0    0  0.17583369598E+02  0.50440706343E+02 -0.49114475373E+02  0.10831845359E+03  0.80419002446E+02 0.  0.
        -24    1    1    2    0    0 -0.17583369598E+02 -0.50440706343E+02  0.31999995027E+02  0.10170867898E+03  0.80419002446E+02 0. -1.
<mgrwt>
<rscale>  0 0.96543543E+02</rscale>
<asrwt>0</asrwt>
<pdfrwt beam="1">  1        2 0.17472432E-01 0.96543543E+02</pdfrwt>
<pdfrwt beam="2">  1       -2 0.14839435E-01 0.96543543E+02</pdfrwt>
<totfact> 0.10326176E+04</totfact>
</mgrwt>
</event>
<event>
 4    1  0.4941530E-001  0.8867839E+02  0.7546771E-02  0.1306084E+00
         -2   -1    0    0    0  501 -0.00000000000E+00  0.00000000000E+00  0.40986837632E+01  0.40986837632E+01  0.00000000000E+00 0.  1.
          2   -1    0    0  501    0  0.00000000000E+00 -0.00000000000E+00 -0.24965876755E+04  0.24965876755E+04  0.00000000000E+00 0. -1.
         24    1    1    2    0    0 -0.30288945409E+02  0.21891112261E+02 -0.18478390512E+04  0.18499656797E+04  0.80419002446E+02 0. -1.
        -24    1    1    2    0    0  0.30288945409E+02 -0.21891112261E+02 -0.64464994054E+03  0.65072067956E+03  0.80419002446E+02 0.  1.
<mgrwt>
<rscale>  0 0.88678391E+02</rscale>
<asrwt>0</asrwt>
<pdfrwt beam="1">  1        2 0.38409119E+00 0.88678391E+02</pdfrwt>
<pdfrwt beam="2">  1       -2 0.63056545E-03 0.88678391E+02</pdfrwt>
<totfact> 0.16172649E+04</totfact>
</mgrwt>
</event>
<event>
 4    1  0.4941530E-001  0.8743695E+02  0.7546771E-02  0.1309180E+00
         -1   -1    0    0    0  501 -0.00000000000E+00  0.00000000000E+00  0.93206666034E+02  0.93206666034E+02  0.00000000000E+00 0.  1.
          1   -1    0    0  501    0  0.00000000000E+00 -0.00000000000E+00 -0.11678492213E+03  0.11678492213E+03  0.00000000000E+00 0. -1.
         24    1    1    2    0    0  0.76404482657E+01 -0.33460790617E+02 -0.69071622902E+02  0.11142758188E+03  0.80419002446E+02 0.  0.
        -24    1    1    2    0    0 -0.76404482657E+01  0.33460790617E+02  0.45493366803E+02  0.98564006290E+02  0.80419002446E+02 0.  1.
<mgrwt>
<rscale>  0 0.87436942E+02</rscale>
<asrwt>0</asrwt>
<pdfrwt beam="1">  1        1 0.17966911E-01 0.87436953E+02</pdfrwt>
<pdfrwt beam="2">  1       -1 0.14339487E-01 0.87436953E+02</pdfrwt>
<totfact> 0.91951238E+03</totfact>
</mgrwt>
</event>
<event>
 4    1  0.4941530E-001  0.8231238E+02  0.7546771E-02  0.1322614E+00
         -2   -1    0    0    0  501 -0.00000000000E+00  0.00000000000E+00  0.47890571249E+02  0.47890571249E+02  0.00000000000E+00 0.  1.
          2   -1    0    0  501    0  0.00000000000E+00 -0.00000000000E+00 -0.30558071482E+03  0.30558071482E+03  0.00000000000E+00 0. -1.
         24    1    1    2    0    0 -0.62117946791E+01 -0.16417230704E+02 -0.25836087711E+03  0.27115617388E+03  0.80419002446E+02 0. -1.
        -24    1    1    2    0    0  0.62117946791E+01  0.16417230704E+02  0.67073353919E+00  0.82315112191E+02  0.80419002446E+02 0.  1.
<mgrwt>
<rscale>  0 0.82312379E+02</rscale>
<asrwt>0</asrwt>
<pdfrwt beam="1">  1        2 0.47012418E-01 0.82312379E+02</pdfrwt>
<pdfrwt beam="2">  1       -2 0.73677802E-02 0.82312379E+02</pdfrwt>
<totfact> 0.10449352E+04</totfact>
</mgrwt>
</event>
<event>
 4    1  0.4941530E-001  0.9559069E+02  0.7546771E-02  0.1289851E+00
         -2   -1    0    0    0  501 -0.00000000000E+00  0.00000000000E+00  0.19828318505E+02  0.19828318505E+02  0.00000000000E+00 0.  1.
          2   -1    0    0  501    0  0.00000000000E+00 -0.00000000000E+00 -0.95028951338E+03  0.95028951338E+03  0.00000000000E+00 0. -1.
         24    1    1    2    0    0 -0.41387648025E+02  0.30942302860E+02 -0.81334562764E+03  0.81894364242E+03  0.80419002446E+02 0.  0.
        -24    1    1    2    0    0  0.41387648025E+02 -0.30942302860E+02 -0.11711556724E+03  0.15117418946E+03  0.80419002446E+02 0.  0.
<mgrwt>
<rscale>  0 0.95590687E+02</rscale>
<asrwt>0</asrwt>
<pdfrwt beam="1">  1        2 0.14619839E+00 0.95590687E+02</pdfrwt>
<pdfrwt beam="2">  1       -2 0.30505104E-02 0.95590687E+02</pdfrwt>
<totfact> 0.10955320E+04</totfact>
</mgrwt>
</event>
<event>
 4    1  0.4941530E-001  0.9746385E+02  0.7546771E-02  0.1285721E+00
         -2   -1    0    0    0  501 -0.00000000000E+00  0.00000000000E+00  0.30646630505E+03  0.30646630505E+03  0.00000000000E+00 0.  1.
          2   -1    0    0  501    0  0.00000000000E+00 -0.00000000000E+00 -0.90182322313E+02  0.90182322313E+02  0.00000000000E+00 0. -1.
         24    1    1    2    0    0  0.16329677340E+02 -0.52586376393E+02 -0.52524854828E+02  0.11071613104E+03  0.80419002446E+02 0. -1.
        -24    1    1    2    0    0 -0.16329677340E+02  0.52586376393E+02  0.26880883756E+03  0.28593249632E+03  0.80419002446E+02 0.  1.
<mgrwt>
<rscale>  0 0.97463846E+02</rscale>
<asrwt>0</asrwt>
<pdfrwt beam="1">  1        2 0.13874204E-01 0.97463846E+02</pdfrwt>
<pdfrwt beam="2">  1       -2 0.47148662E-01 0.97463846E+02</pdfrwt>
<totfact> 0.17649345E+03</totfact>
</mgrwt>
</event>
<event>
 4    1  0.4941530E-001  0.8431057E+02  0.7546771E-02  0.1317245E+00
          2   -1    0    0  501    0  0.00000000000E+00  0.00000000000E+00  0.15329168011E+03  0.15329168011E+03  0.00000000000E+00 0. -1.
         -2   -1    0    0    0  501 -0.00000000000E+00 -0.00000000000E+00 -0.50547226028E+02  0.50547226028E+02  0.00000000000E+00 0.  1.
         24    1    1    2    0    0 -0.21830813583E+02 -0.12824662968E+02  0.80668062928E+02  0.11668594060E+03  0.80419002446E+02 0. -1.
        -24    1    1    2    0    0  0.21830813583E+02  0.12824662968E+02  0.22076391153E+02  0.87152965541E+02  0.80419002446E+02 0.  1.
<mgrwt>
<rscale>  0 0.84310571E+02</rscale>
<asrwt>0</asrwt>
<pdfrwt beam="1">  1        2 0.23583335E-01 0.84310571E+02</pdfrwt>
<pdfrwt beam="2">  1       -2 0.77764964E-02 0.84310571E+02</pdfrwt>
<totfact> 0.20057018E+04</totfact>
</mgrwt>
</event>
<event>
 4    1  0.4941530E-001  0.9404362E+02  0.7546771E-02  0.1293345E+00
          2   -1    0    0  501    0  0.00000000000E+00  0.00000000000E+00  0.95785215161E+03  0.95785215161E+03  0.00000000000E+00 0. -1.
         -2   -1    0    0    0  501 -0.00000000000E+00 -0.00000000000E+00 -0.18930291429E+02  0.18930291429E+02  0.00000000000E+00 0.  1.
         24    1    1    2    0    0  0.26063999343E+02 -0.41202593961E+02  0.81900840885E+03  0.82439006273E+03  0.80419002446E+02 0. -1.
        -24    1    1    2    0    0 -0.26063999343E+02  0.41202593961E+02  0.11991345133E+03  0.15239238030E+03  0.80419002446E+02 0.  1.
<mgrwt>
<rscale>  0 0.94043616E+02</rscale>
<asrwt>0</asrwt>
<pdfrwt beam="1">  1        2 0.14736183E+00 0.94043616E+02</pdfrwt>
<pdfrwt beam="2">  1       -2 0.29123533E-02 0.94043616E+02</pdfrwt>
<totfact> 0.11584844E+04</totfact>
</mgrwt>
</event>
<event>
 4    1  0.4941530E-001  0.2540045E+03  0.7546771E-02  0.1110800E+00
          3   -1    0    0  501    0  0.00000000000E+00  0.00000000000E+00  0.34671082962E+03  0.34671082962E+03  0.00000000000E+00 0. -1.
         -3   -1    0    0    0  501 -0.00000000000E+00 -0.00000000000E+00 -0.31796636306E+03  0.31796636306E+03  0.00000000000E+00 0.  1.
         24    1    1    2    0    0  0.19520876595E+03  0.14122539154E+03 -0.19965992613E+03  0.32308261416E+03  0.80419002446E+02 0.  1.
        -24    1    1    2    0    0 -0.19520876595E+03 -0.14122539154E+03  0.22840439269E+03  0.34159457852E+03  0.80419002446E+02 0. -1.
<mgrwt>
<rscale>  0 0.25400451E+03</rscale>
<asrwt>0</asrwt>
<pdfrwt beam="1">  1        3 0.53340127E-01 0.25400451E+03</pdfrwt>
<pdfrwt beam="2">  1       -3 0.48917902E-01 0.25400451E+03</pdfrwt>
<totfact> 0.36317425E+01</totfact>
</mgrwt>
</event>
<event>
 4    1  0.4941530E-001  0.8648022E+02  0.7546771E-02  0.1311606E+00
         -2   -1    0    0    0  501 -0.00000000000E+00  0.00000000000E+00  0.99778971256E+01  0.99778971256E+01  0.00000000000E+00 0.  1.
          2   -1    0    0  501    0  0.00000000000E+00 -0.00000000000E+00 -0.93898748114E+03  0.93898748114E+03  0.00000000000E+00 0. -1.
         24    1    1    2    0    0 -0.25515799255E+02  0.18988331263E+02 -0.67763027738E+03  0.68312635838E+03  0.80419002446E+02 0.  0.
        -24    1    1    2    0    0  0.25515799255E+02 -0.18988331263E+02 -0.25137930663E+03  0.26583901988E+03  0.80419002446E+02 0.  0.
<mgrwt>
<rscale>  0 0.86480221E+02</rscale>
<asrwt>0</asrwt>
<pdfrwt beam="1">  1        2 0.14445966E+00 0.86480221E+02</pdfrwt>
<pdfrwt beam="2">  1       -2 0.15350606E-02 0.86480221E+02</pdfrwt>
<totfact> 0.29666302E+04</totfact>
</mgrwt>
</event>
<event>
 4    1  0.4941530E-001  0.8187173E+02  0.7546771E-02  0.1323822E+00
         -2   -1    0    0    0  501 -0.00000000000E+00  0.00000000000E+00  0.18766032179E+02  0.18766032179E+02  0.00000000000E+00 0.  1.
          2   -1    0    0  501    0  0.00000000000E+00 -0.00000000000E+00 -0.35901120621E+03  0.35901120621E+03  0.00000000000E+00 0. -1.
         24    1    1    2    0    0  0.13126648492E+02  0.79659010627E+01 -0.18358749378E+03  0.20101579119E+03  0.80419002446E+02 0. -1.
        -24    1    1    2    0    0 -0.13126648492E+02 -0.79659010627E+01 -0.15665768025E+03  0.17676144720E+03  0.80419002446E+02 0.  0.
<mgrwt>
<rscale>  0 0.81871732E+02</rscale>
<asrwt>0</asrwt>
<pdfrwt beam="1">  1        2 0.55232487E-01 0.81871732E+02</pdfrwt>
<pdfrwt beam="2">  1       -2 0.28870822E-02 0.81871732E+02</pdfrwt>
<totfact> 0.35246891E+04</totfact>
</mgrwt>
</event>
<event>
 4    1  0.4941530E-001  0.1020576E+03  0.7546771E-02  0.1276028E+00
         -1   -1    0    0    0  501 -0.00000000000E+00  0.00000000000E+00  0.14688699635E+04  0.14688699635E+04  0.00000000000E+00 0.  1.
          1   -1    0    0  501    0  0.00000000000E+00 -0.00000000000E+00 -0.83330992888E+01  0.83330992888E+01  0.00000000000E+00 0. -1.
         24    1    1    2    0    0  0.12412294644E+02 -0.61599260581E+02  0.10154266648E+04  0.10205425330E+04  0.80419002446E+02 0.  1.
        -24    1    1    2    0    0 -0.12412294644E+02  0.61599260581E+02  0.44511019935E+03  0.45666052980E+03  0.80419002446E+02 0. -1.
<mgrwt>
<rscale>  0 0.10205758E+03</rscale>
<asrwt>0</asrwt>
<pdfrwt beam="1">  1        1 0.12820164E-02 0.10205758E+03</pdfrwt>
<pdfrwt beam="2">  1       -1 0.22597979E+00 0.10205758E+03</pdfrwt>
<totfact> 0.12388024E+03</totfact>
</mgrwt>
</event>
<event>
 4    1  0.4941530E-001  0.8225066E+02  0.7546771E-02  0.1322783E+00
          4   -1    0    0  501    0  0.00000000000E+00  0.00000000000E+00  0.49279913461E+02  0.49279913461E+02  0.00000000000E+00 0. -1.
         -4   -1    0    0    0  501 -0.00000000000E+00 -0.00000000000E+00 -0.14236876530E+03  0.14236876530E+03  0.00000000000E+00 0.  1.
         24    1    1    2    0    0  0.18399372665E+01  0.17163054668E+02 -0.28428821840E+02  0.87025109481E+02  0.80419002446E+02 0.  1.
        -24    1    1    2    0    0 -0.18399372665E+01 -0.17163054668E+02 -0.64660029995E+02  0.10462356928E+03  0.80419002446E+02 0.  1.
<mgrwt>
<rscale>  0 0.82250664E+02</rscale>
<asrwt>0</asrwt>
<pdfrwt beam="1">  1        4 0.75815252E-02 0.82250664E+02</pdfrwt>
<pdfrwt beam="2">  1       -4 0.21902887E-01 0.82250664E+02</pdfrwt>
<totfact> 0.33153641E+03</totfact>
</mgrwt>
</event>
<event>
 4    1  0.4941530E-001  0.8604807E+02  0.7546771E-02  0.1312714E+00
         -2   -1    0    0    0  501 -0.00000000000E+00  0.00000000000E+00  0.10218131062E+02  0.10218131062E+02  0.00000000000E+00 0.  1.
          2   -1    0    0  501    0  0.00000000000E+00 -0.00000000000E+00 -0.22135706820E+04  0.22135706820E+04  0.00000000000E+00 0. -1.
         24    1    1    2    0    0 -0.29879109046E+02 -0.66553194534E+01 -0.20135965830E+04  0.20154343128E+04  0.80419002446E+02 0. -1.
        -24    1    1    2    0    0  0.29879109046E+02  0.66553194534E+01 -0.18975596801E+03  0.20835450028E+03  0.80419002446E+02 0.  1.
<mgrwt>
<rscale>  0 0.86048070E+02</rscale>
<asrwt>0</asrwt>
<pdfrwt beam="1">  1        2 0.34054997E+00 0.86048070E+02</pdfrwt>
<pdfrwt beam="2">  1       -2 0.15720172E-02 0.86048070E+02</pdfrwt>
<totfact> 0.62109882E+03</totfact>
</mgrwt>
</event>
<event>
 4    1  0.4941530E-001  0.8303393E+02  0.7546771E-02  0.1320656E+00
         -1   -1    0    0    0  501 -0.00000000000E+00  0.00000000000E+00  0.12143786448E+02  0.12143786448E+02  0.00000000000E+00 0.  1.
          1   -1    0    0  501    0  0.00000000000E+00 -0.00000000000E+00 -0.67857980367E+03  0.67857980367E+03  0.00000000000E+00 0. -1.
         24    1    1    2    0    0 -0.19897421852E+02  0.56130550167E+01 -0.47279149273E+03  0.48002752560E+03  0.80419002446E+02 0.  0.
        -24    1    1    2    0    0  0.19897421852E+02 -0.56130550167E+01 -0.19364452450E+03  0.21069606452E+03  0.80419002446E+02 0.  0.
<mgrwt>
<rscale>  0 0.83033918E+02</rscale>
<asrwt>0</asrwt>
<pdfrwt beam="1">  1        1 0.10439691E+00 0.83033928E+02</pdfrwt>
<pdfrwt beam="2">  1       -1 0.18682746E-02 0.83033928E+02</pdfrwt>
<totfact> 0.20194301E+04</totfact>
</mgrwt>
</event>
<event>
 4    1  0.4941530E-001  0.8563707E+02  0.7546771E-02  0.1313775E+00
          2   -1    0    0  501    0  0.00000000000E+00  0.00000000000E+00  0.79563160435E+03  0.79563160435E+03  0.00000000000E+00 0. -1.
         -2   -1    0    0    0  501 -0.00000000000E+00 -0.00000000000E+00 -0.13322930158E+02  0.13322930158E+02  0.00000000000E+00 0.  1.
         24    1    1    2    0    0  0.28614259261E+02 -0.69076954418E+01  0.61568482649E+03  0.62161202821E+03  0.80419002446E+02 0. -1.
        -24    1    1    2    0    0 -0.28614259261E+02  0.69076954418E+01  0.16662384770E+03  0.18734250630E+03  0.80419002446E+02 0.  1.
<mgrwt>
<rscale>  0 0.85637072E+02</rscale>
<asrwt>0</asrwt>
<pdfrwt beam="1">  1        2 0.12240482E+00 0.85637072E+02</pdfrwt>
<pdfrwt beam="2">  1       -2 0.20496822E-02 0.85637072E+02</pdfrwt>
<totfact> 0.24144890E+04</totfact>
</mgrwt>
</event>
<event>
 4    1  0.4941530E-001  0.9110478E+02  0.7546771E-02  0.1300198E+00
         -1   -1    0    0    0  501 -0.00000000000E+00  0.00000000000E+00  0.41634680238E+02  0.41634680238E+02  0.00000000000E+00 0.  1.
          1   -1    0    0  501    0  0.00000000000E+00 -0.00000000000E+00 -0.52450792303E+03  0.52450792303E+03  0.00000000000E+00 0. -1.
         24    1    1    2    0    0 -0.14793978550E+02 -0.40174659313E+02 -0.18560440373E+02  0.92976184873E+02  0.80419002446E+02 0.  1.
        -24    1    1    2    0    0  0.14793978550E+02  0.40174659313E+02 -0.46431280242E+03  0.47316641839E+03  0.80419002446E+02 0. -1.
<mgrwt>
<rscale>  0 0.91104780E+02</rscale>
<asrwt>0</asrwt>
<pdfrwt beam="1">  1        1 0.80693527E-01 0.91104780E+02</pdfrwt>
<pdfrwt beam="2">  1       -1 0.64053354E-02 0.91104780E+02</pdfrwt>
<totfact> 0.48349345E+03</totfact>
</mgrwt>
</event>
<event>
 4    1  0.4941530E-001  0.1502459E+03  0.7546771E-02  0.1200171E+00
          2   -1    0    0  501    0  0.00000000000E+00  0.00000000000E+00  0.11093576144E+04  0.11093576144E+04  0.00000000000E+00 0. -1.
         -2   -1    0    0    0  501 -0.00000000000E+00 -0.00000000000E+00 -0.31319967145E+02  0.31319967145E+02  0.00000000000E+00 0.  1.
         24    1    1    2    0    0 -0.63717928760E+02 -0.10975717286E+03  0.87658076325E+03  0.88936362748E+03  0.80419002446E+02 0. -1.
        -24    1    1    2    0    0  0.63717928760E+02  0.10975717286E+03  0.20145688403E+03  0.25131395408E+03  0.80419002446E+02 0.  1.
<mgrwt>
<rscale>  0 0.15024589E+03</rscale>
<asrwt>0</asrwt>
<pdfrwt beam="1">  1        2 0.17067037E+00 0.15024589E+03</pdfrwt>
<pdfrwt beam="2">  1       -2 0.48184573E-02 0.15024589E+03</pdfrwt>
<totfact> 0.45947452E+03</totfact>
</mgrwt>
</event>
<event>
 4    1  0.4941530E-001  0.8616195E+02  0.7546771E-02  0.1312422E+00
         -1   -1    0    0    0  501 -0.00000000000E+00  0.00000000000E+00  0.17072490952E+02  0.17072490952E+02  0.00000000000E+00 0.  1.
          1   -1    0    0  501    0  0.00000000000E+00 -0.00000000000E+00 -0.59086148562E+03  0.59086148562E+03  0.00000000000E+00 0. -1.
         24    1    1    2    0    0 -0.30856763697E+02  0.21274111514E+01 -0.13069872178E+03  0.15654404356E+03  0.80419002446E+02 0.  0.
        -24    1    1    2    0    0  0.30856763697E+02 -0.21274111514E+01 -0.44309027288E+03  0.45138993301E+03  0.80419002446E+02 0.  0.
<mgrwt>
<rscale>  0 0.86161950E+02</rscale>
<asrwt>0</asrwt>
<pdfrwt beam="1">  1        1 0.90901773E-01 0.86161950E+02</pdfrwt>
<pdfrwt beam="2">  1       -1 0.26265369E-02 0.86161950E+02</pdfrwt>
<totfact> 0.15040637E+04</totfact>
</mgrwt>
</event>
<event>
 4    1  0.4941530E-001  0.1022821E+03  0.7546771E-02  0.1275569E+00
         -2   -1    0    0    0  501 -0.00000000000E+00  0.00000000000E+00  0.97702411664E+01  0.97702411664E+01  0.00000000000E+00 0.  1.
          2   -1    0    0  501    0  0.00000000000E+00 -0.00000000000E+00 -0.13024302023E+04  0.13024302023E+04  0.00000000000E+00 0. -1.
         24    1    1    2    0    0 -0.62433040127E+02  0.98245765421E+01 -0.92303960912E+03  0.92868926060E+03  0.80419002446E+02 0. -1.
        -24    1    1    2    0    0  0.62433040127E+02 -0.98245765421E+01 -0.36962035204E+03  0.38351118289E+03  0.80419002446E+02 0.  1.
<mgrwt>
<rscale>  0 0.10228207E+03</rscale>
<asrwt>0</asrwt>
<pdfrwt beam="1">  1        2 0.20037376E+00 0.10228207E+03</pdfrwt>
<pdfrwt beam="2">  1       -2 0.15031149E-02 0.10228207E+03</pdfrwt>
<totfact> 0.19387265E+04</totfact>
</mgrwt>
</event>
<event>
 4    1  0.4941530E-001  0.8051524E+02  0.7546771E-02  0.1327596E+00
          2   -1    0    0  501    0  0.00000000000E+00  0.00000000000E+00  0.30776890789E+04  0.30776890789E+04  0.00000000000E+00 0. -1.
         -2   -1    0    0    0  501 -0.00000000000E+00 -0.00000000000E+00 -0.21064982944E+01  0.21064982944E+01  0.00000000000E+00 0.  1.
         24    1    1    2    0    0 -0.34246497424E+01  0.19387984216E+01  0.15505301870E+04  0.15526192591E+04  0.80419002446E+02 0. -1.
        -24    1    1    2    0    0  0.34246497424E+01 -0.19387984216E+01  0.15250523936E+04  0.15271763181E+04  0.80419002446E+02 0.  1.
<mgrwt>
<rscale>  0 0.80515235E+02</rscale>
<asrwt>0</asrwt>
<pdfrwt beam="1">  1        2 0.47348703E+00 0.80515235E+02</pdfrwt>
<pdfrwt beam="2">  1       -2 0.32407912E-03 0.80515235E+02</pdfrwt>
<totfact> 0.19622732E+04</totfact>
</mgrwt>
</event>
<event>
 4    1  0.4941530E-001  0.8180290E+02  0.7546771E-02  0.1324012E+00
          2   -1    0    0  501    0  0.00000000000E+00  0.00000000000E+00  0.40968213485E+03  0.40968213485E+03  0.00000000000E+00 0. -1.
         -2   -1    0    0    0  501 -0.00000000000E+00 -0.00000000000E+00 -0.25711551413E+02  0.25711551413E+02  0.00000000000E+00 0.  1.
         24    1    1    2    0    0  0.14660221497E+02 -0.30944970853E+01  0.32345770670E+03  0.33364142726E+03  0.80419002446E+02 0. -1.
        -24    1    1    2    0    0 -0.14660221497E+02  0.30944970853E+01  0.60512876732E+02  0.10175225900E+03  0.80419002446E+02 0.  1.
<mgrwt>
<rscale>  0 0.81802897E+02</rscale>
<asrwt>0</asrwt>
<pdfrwt beam="1">  1        2 0.63028016E-01 0.81802897E+02</pdfrwt>
<pdfrwt beam="2">  1       -2 0.39556236E-02 0.81802897E+02</pdfrwt>
<totfact> 0.19406332E+04</totfact>
</mgrwt>
</event>
<event>
 4    1  0.4941530E-001  0.8327768E+02  0.7546771E-02  0.1319999E+00
          4   -1    0    0  501    0  0.00000000000E+00  0.00000000000E+00  0.15886657567E+02  0.15886657567E+02  0.00000000000E+00 0. -1.
         -4   -1    0    0    0  501 -0.00000000000E+00 -0.00000000000E+00 -0.43974566933E+03  0.43974566933E+03  0.00000000000E+00 0.  1.
         24    1    1    2    0    0  0.12647999802E+02  0.17549480515E+02 -0.19248048247E+03  0.20972340893E+03  0.80419002446E+02 0. -1.
        -24    1    1    2    0    0 -0.12647999802E+02 -0.17549480515E+02 -0.23137852929E+03  0.24590891796E+03  0.80419002446E+02 0.  1.
<mgrwt>
<rscale>  0 0.83277681E+02</rscale>
<asrwt>0</asrwt>
<pdfrwt beam="1">  1        4 0.24441011E-02 0.83277681E+02</pdfrwt>
<pdfrwt beam="2">  1       -4 0.67653183E-01 0.83277681E+02</pdfrwt>
<totfact> 0.22223129E+03</totfact>
</mgrwt>
</event>
<event>
 4    1  0.4941530E-001  0.8100682E+02  0.7546771E-02  0.1326218E+00
          2   -1    0    0  501    0  0.00000000000E+00  0.00000000000E+00  0.14505176108E+04  0.14505176108E+04  0.00000000000E+00 0. -1.
         -2   -1    0    0    0  501 -0.00000000000E+00 -0.00000000000E+00 -0.18757028258E+02  0.18757028258E+02  0.00000000000E+00 0.  1.
         24    1    1    2    0    0 -0.77905035583E+01 -0.58478045911E+01  0.13558214080E+04  0.13582392260E+04  0.80419002446E+02 0. -1.
        -24    1    1    2    0    0  0.77905035583E+01  0.58478045911E+01  0.75939174554E+02  0.11103541305E+03  0.80419002446E+02 0.  1.
<mgrwt>
<rscale>  0 0.81006819E+02</rscale>
<asrwt>0</asrwt>
<pdfrwt beam="1">  1        2 0.22315647E+00 0.81006819E+02</pdfrwt>
<pdfrwt beam="2">  1       -2 0.28856978E-02 0.81006819E+02</pdfrwt>
<totfact> 0.62670346E+03</totfact>
</mgrwt>
</event>
<event>
 4    1  0.4941530E-001  0.8103271E+02  0.7546771E-02  0.1326146E+00
         -2   -1    0    0    0  501 -0.00000000000E+00  0.00000000000E+00  0.27025918815E+02  0.27025918815E+02  0.00000000000E+00 0.  1.
          2   -1    0    0  501    0  0.00000000000E+00 -0.00000000000E+00 -0.84668182044E+03  0.84668182044E+03  0.00000000000E+00 0. -1.
         24    1    1    2    0    0  0.98964015290E+01 -0.10702868721E+01 -0.77871499413E+03  0.78291975471E+03  0.80419002446E+02 0. -1.
        -24    1    1    2    0    0 -0.98964015290E+01  0.10702868721E+01 -0.40940907499E+02  0.90787984549E+02  0.80419002446E+02 0.  1.
<mgrwt>
<rscale>  0 0.81032711E+02</rscale>
<asrwt>0</asrwt>
<pdfrwt beam="1">  1        2 0.13025876E+00 0.81032711E+02</pdfrwt>
<pdfrwt beam="2">  1       -2 0.41578332E-02 0.81032711E+02</pdfrwt>
<totfact> 0.79851596E+03</totfact>
</mgrwt>
</event>
<event>
 4    1  0.4941530E-001  0.8369728E+02  0.7546771E-02  0.1318875E+00
         -1   -1    0    0    0  501 -0.00000000000E+00  0.00000000000E+00  0.10729343072E+03  0.10729343072E+03  0.00000000000E+00 0.  1.
          1   -1    0    0  501    0  0.00000000000E+00 -0.00000000000E+00 -0.13961234347E+03  0.13961234347E+03  0.00000000000E+00 0. -1.
         24    1    1    2    0    0 -0.58946246556E+00  0.23187755664E+02  0.73914191334E+02  0.11166263078E+03  0.80419002446E+02 0.  1.
        -24    1    1    2    0    0  0.58946246556E+00 -0.23187755664E+02 -0.10623310409E+03  0.13524314340E+03  0.80419002446E+02 0. -1.
<mgrwt>
<rscale>  0 0.83697285E+02</rscale>
<asrwt>0</asrwt>
<pdfrwt beam="1">  1        1 0.21478822E-01 0.83697285E+02</pdfrwt>
<pdfrwt beam="2">  1       -1 0.16506682E-01 0.83697285E+02</pdfrwt>
<totfact> 0.58864641E+03</totfact>
</mgrwt>
</event>
<event>
 4    1  0.4941530E-001  0.8414175E+02  0.7546771E-02  0.1317692E+00
          2   -1    0    0  501    0  0.00000000000E+00  0.00000000000E+00  0.10457471327E+04  0.10457471327E+04  0.00000000000E+00 0. -1.
         -2   -1    0    0    0  501 -0.00000000000E+00 -0.00000000000E+00 -0.31215213893E+02  0.31215213893E+02  0.00000000000E+00 0.  1.
         24    1    1    2    0    0  0.22740154564E+02 -0.97726063138E+01  0.98378824257E+03  0.98737993733E+03  0.80419002446E+02 0. -1.
        -24    1    1    2    0    0 -0.22740154564E+02  0.97726063138E+01  0.30743676211E+02  0.89582409239E+02  0.80419002446E+02 0.  1.
<mgrwt>
<rscale>  0 0.84141752E+02</rscale>
<asrwt>0</asrwt>
<pdfrwt beam="1">  1        2 0.16088415E+00 0.84141752E+02</pdfrwt>
<pdfrwt beam="2">  1       -2 0.48023414E-02 0.84141752E+02</pdfrwt>
<totfact> 0.49118219E+03</totfact>
</mgrwt>
</event>
<event>
 4    1  0.4941530E-001  0.1616503E+03  0.7546771E-02  0.1186846E+00
         -2   -1    0    0    0  501 -0.00000000000E+00  0.00000000000E+00  0.17017033463E+02  0.17017033463E+02  0.00000000000E+00 0.  1.
          2   -1    0    0  501    0  0.00000000000E+00 -0.00000000000E+00 -0.37544362956E+04  0.37544362956E+04  0.00000000000E+00 0. -1.
         24    1    1    2    0    0 -0.64195326932E+02 -0.12466980737E+03 -0.33183894968E+04  0.33223244377E+04  0.80419002446E+02 0. -1.
        -24    1    1    2    0    0  0.64195326932E+02  0.12466980737E+03 -0.41902976533E+03  0.44912889136E+03  0.80419002446E+02 0.  1.
<mgrwt>
<rscale>  0 0.16165029E+03</rscale>
<asrwt>0</asrwt>
<pdfrwt beam="1">  1        2 0.57760607E+00 0.16165029E+03</pdfrwt>
<pdfrwt beam="2">  1       -2 0.26180029E-02 0.16165029E+03</pdfrwt>
<totfact> 0.36765398E+02</totfact>
</mgrwt>
</event>
<event>
 4    1  0.4941530E-001  0.8223790E+02  0.7546771E-02  0.1322818E+00
         -1   -1    0    0    0  501 -0.00000000000E+00  0.00000000000E+00  0.32501568765E+02  0.32501568765E+02  0.00000000000E+00 0.  1.
          1   -1    0    0  501    0  0.00000000000E+00 -0.00000000000E+00 -0.21751399798E+03  0.21751399798E+03  0.00000000000E+00 0. -1.
         24    1    1    2    0    0 -0.13748848903E+02  0.10335665342E+02 -0.66478402137E+02  0.10574710743E+03  0.80419002446E+02 0.  0.
        -24    1    1    2    0    0  0.13748848903E+02 -0.10335665342E+02 -0.11853402708E+03  0.14426845932E+03  0.80419002446E+02 0.  0.
<mgrwt>
<rscale>  0 0.82237904E+02</rscale>
<asrwt>0</asrwt>
<pdfrwt beam="1">  1        1 0.33463692E-01 0.82237904E+02</pdfrwt>
<pdfrwt beam="2">  1       -1 0.50002414E-02 0.82237904E+02</pdfrwt>
<totfact> 0.20452485E+04</totfact>
</mgrwt>
</event>
<event>
 4    1  0.4941530E-001  0.9781857E+02  0.7546771E-02  0.1284951E+00
         -2   -1    0    0    0  501 -0.00000000000E+00  0.00000000000E+00  0.54627507005E+03  0.54627507005E+03  0.00000000000E+00 0.  1.
          2   -1    0    0  501    0  0.00000000000E+00 -0.00000000000E+00 -0.20287688803E+02  0.20287688803E+02  0.00000000000E+00 0. -1.
         24    1    1    2    0    0  0.40650494307E+02  0.38063017350E+02  0.15828426850E+03  0.18607090473E+03  0.80419002446E+02 0. -1.
        -24    1    1    2    0    0 -0.40650494307E+02 -0.38063017350E+02  0.36770311274E+03  0.38049185412E+03  0.80419002446E+02 0.  1.
<mgrwt>
<rscale>  0 0.97818566E+02</rscale>
<asrwt>0</asrwt>
<pdfrwt beam="1">  1        2 0.31211833E-02 0.97818566E+02</pdfrwt>
<pdfrwt beam="2">  1       -2 0.84042307E-01 0.97818566E+02</pdfrwt>
<totfact> 0.35037701E+03</totfact>
</mgrwt>
</event>
<event>
 4    1  0.4941530E-001  0.8358579E+02  0.7546771E-02  0.1319173E+00
         -2   -1    0    0    0  501 -0.00000000000E+00  0.00000000000E+00  0.76589092431E+01  0.76589092431E+01  0.00000000000E+00 0.  1.
          2   -1    0    0  501    0  0.00000000000E+00 -0.00000000000E+00 -0.10187453937E+04  0.10187453937E+04  0.00000000000E+00 0. -1.
         24    1    1    2    0    0 -0.10979272059E+02 -0.19970568385E+02 -0.67149780273E+03  0.67668004481E+03  0.80419002446E+02 0. -1.
        -24    1    1    2    0    0  0.10979272059E+02  0.19970568385E+02 -0.33958868174E+03  0.34972425814E+03  0.80419002446E+02 0.  1.
<mgrwt>
<rscale>  0 0.83585788E+02</rscale>
<asrwt>0</asrwt>
<pdfrwt beam="1">  1        2 0.15673012E+00 0.83585788E+02</pdfrwt>
<pdfrwt beam="2">  1       -2 0.11782933E-02 0.83585788E+02</pdfrwt>
<totfact> 0.38620723E+04</totfact>
</mgrwt>
</event>
<event>
 4    1  0.4941530E-001  0.1097373E+03  0.7546771E-02  0.1261057E+00
          2   -1    0    0  501    0  0.00000000000E+00  0.00000000000E+00  0.17443873098E+04  0.17443873098E+04  0.00000000000E+00 0. -1.
         -2   -1    0    0    0  501 -0.00000000000E+00 -0.00000000000E+00 -0.77567686163E+01  0.77567686163E+01  0.00000000000E+00 0.  1.
         24    1    1    2    0    0 -0.48593894455E+02 -0.56689365300E+02  0.57774010201E+03  0.58806963205E+03  0.80419002446E+02 0.  1.
        -24    1    1    2    0    0  0.48593894455E+02  0.56689365300E+02  0.11588904391E+04  0.11640744463E+04  0.80419002446E+02 0. -1.
<mgrwt>
<rscale>  0 0.10973728E+03</rscale>
<asrwt>0</asrwt>
<pdfrwt beam="1">  1        2 0.26836697E+00 0.10973729E+03</pdfrwt>
<pdfrwt beam="2">  1       -2 0.11933504E-02 0.10973729E+03</pdfrwt>
<totfact> 0.16030274E+04</totfact>
</mgrwt>
</event>
<event>
 4    1  0.4941530E-001  0.1299054E+03  0.7546771E-02  0.1227596E+00
         -3   -1    0    0    0  501 -0.00000000000E+00  0.00000000000E+00  0.35859647337E+03  0.35859647337E+03  0.00000000000E+00 0.  1.
          3   -1    0    0  501    0  0.00000000000E+00 -0.00000000000E+00 -0.53110163451E+02  0.53110163451E+02  0.00000000000E+00 0. -1.
         24    1    1    2    0    0 -0.25875505735E+02  0.98684653675E+02  0.22222410687E+03  0.25740818226E+03  0.80419002446E+02 0.  0.
        -24    1    1    2    0    0  0.25875505735E+02 -0.98684653675E+02  0.83262203053E+02  0.15429845456E+03  0.80419002446E+02 0.  1.
<mgrwt>
<rscale>  0 0.12990542E+03</rscale>
<asrwt>0</asrwt>
<pdfrwt beam="1">  1        3 0.81707946E-02 0.12990542E+03</pdfrwt>
<pdfrwt beam="2">  1       -3 0.55168687E-01 0.12990542E+03</pdfrwt>
<totfact> 0.77405560E+02</totfact>
</mgrwt>
</event>
<event>
 4    1  0.4941530E-001  0.8463859E+02  0.7546771E-02  0.1316380E+00
         -2   -1    0    0    0  501 -0.00000000000E+00  0.00000000000E+00  0.25713198573E+03  0.25713198573E+03  0.00000000000E+00 0.  1.
          2   -1    0    0  501    0  0.00000000000E+00 -0.00000000000E+00 -0.26897795460E+03  0.26897795460E+03  0.00000000000E+00 0. -1.
         24    1    1    2    0    0  0.16797777724E+02 -0.20354590761E+02 -0.25498240105E+03  0.26866282866E+03  0.80419002446E+02 0. -1.
        -24    1    1    2    0    0 -0.16797777724E+02  0.20354590761E+02  0.24313643218E+03  0.25744711167E+03  0.80419002446E+02 0.  1.
<mgrwt>
<rscale>  0 0.84638588E+02</rscale>
<asrwt>0</asrwt>
<pdfrwt beam="1">  1        2 0.41381224E-01 0.84638588E+02</pdfrwt>
<pdfrwt beam="2">  1       -2 0.39558767E-01 0.84638588E+02</pdfrwt>
<totfact> 0.73837146E+02</totfact>
</mgrwt>
</event>
<event>
 4    1  0.4941530E-001  0.8077369E+02  0.7546771E-02  0.1326870E+00
         -2   -1    0    0    0  501 -0.00000000000E+00  0.00000000000E+00  0.12565571063E+02  0.12565571063E+02  0.00000000000E+00 0.  1.
          2   -1    0    0  501    0  0.00000000000E+00 -0.00000000000E+00 -0.61585854759E+03  0.61585854759E+03  0.00000000000E+00 0. -1.
         24    1    1    2    0    0 -0.50922894594E+01  0.55893804532E+01 -0.42610969211E+03  0.43369788822E+03  0.80419002446E+02 0.  0.
        -24    1    1    2    0    0  0.50922894594E+01 -0.55893804532E+01 -0.17718328442E+03  0.19472623043E+03  0.80419002446E+02 0.  1.
<mgrwt>
<rscale>  0 0.80773687E+02</rscale>
<asrwt>0</asrwt>
<pdfrwt beam="1">  1        2 0.94747441E-01 0.80773687E+02</pdfrwt>
<pdfrwt beam="2">  1       -2 0.19331653E-02 0.80773687E+02</pdfrwt>
<totfact> 0.35154015E+04</totfact>
</mgrwt>
</event>
<event>
 4    1  0.4941530E-001  0.9597645E+02  0.7546771E-02  0.1288992E+00
         -2   -1    0    0    0  501 -0.00000000000E+00  0.00000000000E+00  0.11003686931E+02  0.11003686931E+02  0.00000000000E+00 0.  1.
          2   -1    0    0  501    0  0.00000000000E+00 -0.00000000000E+00 -0.84229709373E+03  0.84229709373E+03  0.00000000000E+00 0. -1.
         24    1    1    2    0    0  0.22335720152E+02  0.47385371905E+02 -0.38221754979E+03  0.39408340385E+03  0.80419002446E+02 0.  1.
        -24    1    1    2    0    0 -0.22335720152E+02 -0.47385371905E+02 -0.44907585700E+03  0.45921737681E+03  0.80419002446E+02 0. -1.
<mgrwt>
<rscale>  0 0.95976435E+02</rscale>
<asrwt>0</asrwt>
<pdfrwt beam="1">  1        2 0.12958414E+00 0.95976447E+02</pdfrwt>
<pdfrwt beam="2">  1       -2 0.16928753E-02 0.95976447E+02</pdfrwt>
<totfact> 0.29941020E+04</totfact>
</mgrwt>
</event>
<event>
 4    1  0.4941530E-001  0.1098337E+03  0.7546771E-02  0.1260878E+00
          1   -1    0    0  501    0  0.00000000000E+00  0.00000000000E+00  0.99853951080E+03  0.99853951080E+03  0.00000000000E+00 0. -1.
         -1   -1    0    0    0  501 -0.00000000000E+00 -0.00000000000E+00 -0.37724480264E+02  0.37724480264E+02  0.00000000000E+00 0.  1.
         24    1    1    2    0    0 -0.38865308180E+02  0.63919562632E+02  0.53221959244E+02  0.12204923419E+03  0.80419002446E+02 0.  1.
        -24    1    1    2    0    0  0.38865308180E+02 -0.63919562632E+02  0.90759307129E+03  0.91421475687E+03  0.80419002446E+02 0. -1.
<mgrwt>
<rscale>  0 0.10983369E+03</rscale>
<asrwt>0</asrwt>
<pdfrwt beam="1">  1        1 0.15362144E+00 0.10983369E+03</pdfrwt>
<pdfrwt beam="2">  1       -1 0.58037670E-02 0.10983369E+03</pdfrwt>
<totfact> 0.22204647E+03</totfact>
</mgrwt>
</event>
<event>
 4    1  0.4941530E-001  0.8273639E+02  0.7546771E-02  0.1321461E+00
          2   -1    0    0  501    0  0.00000000000E+00  0.00000000000E+00  0.59934899057E+03  0.59934899057E+03  0.00000000000E+00 0. -1.
         -2   -1    0    0    0  501 -0.00000000000E+00 -0.00000000000E+00 -0.20369092245E+02  0.20369092245E+02  0.00000000000E+00 0.  1.
         24    1    1    2    0    0  0.18541534689E+02 -0.58571690902E+01  0.49486025380E+03  0.50172899227E+03  0.80419002446E+02 0.  1.
        -24    1    1    2    0    0 -0.18541534689E+02  0.58571690902E+01  0.84119644525E+02  0.11798909055E+03  0.80419002446E+02 0.  1.
<mgrwt>
<rscale>  0 0.82736394E+02</rscale>
<asrwt>0</asrwt>
<pdfrwt beam="1">  1        2 0.92207523E-01 0.82736394E+02</pdfrwt>
<pdfrwt beam="2">  1       -2 0.31337070E-02 0.82736394E+02</pdfrwt>
<totfact> 0.18114101E+04</totfact>
</mgrwt>
</event>
<event>
 4    1  0.4941530E-001  0.9624931E+02  0.7546771E-02  0.1288387E+00
          1   -1    0    0  501    0  0.00000000000E+00  0.00000000000E+00  0.19153057450E+02  0.19153057450E+02  0.00000000000E+00 0. -1.
         -1   -1    0    0    0  501 -0.00000000000E+00 -0.00000000000E+00 -0.50892888446E+03  0.50892888446E+03  0.00000000000E+00 0.  1.
         24    1    1    2    0    0  0.34135120933E+02  0.40391860391E+02 -0.18607461385E+03  0.20949388235E+03  0.80419002446E+02 0. -1.
        -24    1    1    2    0    0 -0.34135120933E+02 -0.40391860391E+02 -0.30370121316E+03  0.31858805956E+03  0.80419002446E+02 0.  1.
<mgrwt>
<rscale>  0 0.96249297E+02</rscale>
<asrwt>0</asrwt>
<pdfrwt beam="1">  1        1 0.29466243E-02 0.96249309E+02</pdfrwt>
<pdfrwt beam="2">  1       -1 0.78296749E-01 0.96249309E+02</pdfrwt>
<totfact> 0.55252033E+03</totfact>
</mgrwt>
</event>
<event>
 4    1  0.4941530E-001  0.9275715E+02  0.7546771E-02  0.1296309E+00
          2   -1    0    0  501    0  0.00000000000E+00  0.00000000000E+00  0.83817883293E+03  0.83817883293E+03  0.00000000000E+00 0. -1.
         -2   -1    0    0    0  501 -0.00000000000E+00 -0.00000000000E+00 -0.12225752984E+02  0.12225752984E+02  0.00000000000E+00 0.  1.
         24    1    1    2    0    0  0.10356800445E+02 -0.45048962961E+02  0.58325963254E+03  0.59058927122E+03  0.80419002446E+02 0.  0.
        -24    1    1    2    0    0 -0.10356800445E+02  0.45048962961E+02  0.24269344741E+03  0.25981531470E+03  0.80419002446E+02 0.  0.
<mgrwt>
<rscale>  0 0.92757147E+02</rscale>
<asrwt>0</asrwt>
<pdfrwt beam="1">  1        2 0.12895054E+00 0.92757147E+02</pdfrwt>
<pdfrwt beam="2">  1       -2 0.18808857E-02 0.92757147E+02</pdfrwt>
<totfact> 0.25817751E+04</totfact>
</mgrwt>
</event>
<event>
 4    1  0.4941530E-001  0.9519773E+02  0.7546771E-02  0.1290731E+00
          2   -1    0    0  501    0  0.00000000000E+00  0.00000000000E+00  0.35063127100E+03  0.35063127100E+03  0.00000000000E+00 0. -1.
         -2   -1    0    0    0  501 -0.00000000000E+00 -0.00000000000E+00 -0.86783142378E+02  0.86783142378E+02  0.00000000000E+00 0.  1.
         24    1    1    2    0    0  0.38286289120E+02  0.33608805558E+02  0.31519116114E+03  0.32925381663E+03  0.80419002446E+02 0.  1.
        -24    1    1    2    0    0 -0.38286289120E+02 -0.33608805558E+02 -0.51343032526E+02  0.10816059675E+03  0.80419002446E+02 0.  1.
<mgrwt>
<rscale>  0 0.95197729E+02</rscale>
<asrwt>0</asrwt>
<pdfrwt beam="1">  1        2 0.53943272E-01 0.95197729E+02</pdfrwt>
<pdfrwt beam="2">  1       -2 0.13351253E-01 0.95197729E+02</pdfrwt>
<totfact> 0.36308516E+03</totfact>
</mgrwt>
</event>
<event>
 4    1  0.4941530E-001  0.8935176E+02  0.7546771E-02  0.1304429E+00
          2   -1    0    0  501    0  0.00000000000E+00  0.00000000000E+00  0.77543368759E+03  0.77543368759E+03  0.00000000000E+00 0. -1.
         -2   -1    0    0    0  501 -0.00000000000E+00 -0.00000000000E+00 -0.10314563280E+02  0.10314563280E+02  0.00000000000E+00 0.  1.
         24    1    1    2    0    0 -0.18496786006E+02 -0.34269321529E+02  0.36581651099E+03  0.37657064830E+03  0.80419002446E+02 0. -1.
        -24    1    1    2    0    0  0.18496786006E+02  0.34269321529E+02  0.39930261332E+03  0.40917760257E+03  0.80419002446E+02 0.  1.
<mgrwt>
<rscale>  0 0.89351751E+02</rscale>
<asrwt>0</asrwt>
<pdfrwt beam="1">  1        2 0.11929745E+00 0.89351762E+02</pdfrwt>
<pdfrwt beam="2">  1       -2 0.15868565E-02 0.89351762E+02</pdfrwt>
<totfact> 0.36085115E+04</totfact>
</mgrwt>
</event>
<event>
 4    1  0.4941530E-001  0.9752713E+02  0.7546771E-02  0.1285584E+00
         -1   -1    0    0    0  501 -0.00000000000E+00  0.00000000000E+00  0.13914166474E+03  0.13914166474E+03  0.00000000000E+00 0.  1.
          1   -1    0    0  501    0  0.00000000000E+00 -0.00000000000E+00 -0.10318165121E+03  0.10318165121E+03  0.00000000000E+00 0. -1.
         24    1    1    2    0    0 -0.20091744669E+02 -0.51387220710E+02  0.88367723769E+02  0.13160697252E+03  0.80419002446E+02 0.  1.
        -24    1    1    2    0    0  0.20091744669E+02  0.51387220710E+02 -0.52407710239E+02  0.11071634343E+03  0.80419002446E+02 0. -1.
<mgrwt>
<rscale>  0 0.97527128E+02</rscale>
<asrwt>0</asrwt>
<pdfrwt beam="1">  1        1 0.15874100E-01 0.97527128E+02</pdfrwt>
<pdfrwt beam="2">  1       -1 0.21406410E-01 0.97527128E+02</pdfrwt>
<totfact> 0.57868497E+03</totfact>
</mgrwt>
</event>
<event>
 4    1  0.4941530E-001  0.8845874E+02  0.7546771E-02  0.1306628E+00
         -1   -1    0    0    0  501 -0.00000000000E+00  0.00000000000E+00  0.18954240153E+02  0.18954240153E+02  0.00000000000E+00 0.  1.
          1   -1    0    0  501    0  0.00000000000E+00 -0.00000000000E+00 -0.41959368898E+03  0.41959368898E+03  0.00000000000E+00 0. -1.
         24    1    1    2    0    0  0.36555928363E+02  0.46253060654E+01 -0.22815221057E+03  0.24470058540E+03  0.80419002446E+02 0.  1.
        -24    1    1    2    0    0 -0.36555928363E+02 -0.46253060654E+01 -0.17248723825E+03  0.19384734373E+03  0.80419002446E+02 0.  0.
<mgrwt>
<rscale>  0 0.88458732E+02</rscale>
<asrwt>0</asrwt>
<pdfrwt beam="1">  1        1 0.64552874E-01 0.88458743E+02</pdfrwt>
<pdfrwt beam="2">  1       -1 0.29160370E-02 0.88458743E+02</pdfrwt>
<totfact> 0.20143267E+04</totfact>
</mgrwt>
</event>
<event>
 4    1  0.4941530E-001  0.1110616E+03  0.7546771E-02  0.1258617E+00
         -2   -1    0    0    0  501 -0.00000000000E+00  0.00000000000E+00  0.66488334261E+02  0.66488334261E+02  0.00000000000E+00 0.  1.
          2   -1    0    0  501    0  0.00000000000E+00 -0.00000000000E+00 -0.20808096336E+03  0.20808096336E+03  0.00000000000E+00 0. -1.
         24    1    1    2    0    0  0.54415866562E+02  0.53910731180E+02 -0.11600483363E+03  0.16059822804E+03  0.80419002446E+02 0.  1.
        -24    1    1    2    0    0 -0.54415866562E+02 -0.53910731180E+02 -0.25587795469E+02  0.11397106958E+03  0.80419002446E+02 0.  0.
<mgrwt>
<rscale>  0 0.11106156E+03</rscale>
<asrwt>0</asrwt>
<pdfrwt beam="1">  1        2 0.32012456E-01 0.11106156E+03</pdfrwt>
<pdfrwt beam="2">  1       -2 0.10228975E-01 0.11106156E+03</pdfrwt>
<totfact> 0.96983591E+03</totfact>
</mgrwt>
</event>
<event>
 4    1  0.4941530E-001  0.8256227E+02  0.7546771E-02  0.1321933E+00
          1   -1    0    0  501    0  0.00000000000E+00  0.00000000000E+00  0.32099856686E+01  0.32099856686E+01  0.00000000000E+00 0. -1.
         -1   -1    0    0    0  501 -0.00000000000E+00 -0.00000000000E+00 -0.21723918797E+04  0.21723918797E+04  0.00000000000E+00 0.  1.
         24    1    1    2    0    0 -0.35297389714E+01 -0.18353547371E+02 -0.12477188511E+04  0.12504474635E+04  0.80419002446E+02 0.  1.
        -24    1    1    2    0    0  0.35297389714E+01  0.18353547371E+02 -0.92146304294E+03  0.92515440183E+03  0.80419002446E+02 0. -1.
<mgrwt>
<rscale>  0 0.82562266E+02</rscale>
<asrwt>0</asrwt>
<pdfrwt beam="1">  1        1 0.49384433E-03 0.82562266E+02</pdfrwt>
<pdfrwt beam="2">  1       -1 0.33421387E+00 0.82562266E+02</pdfrwt>
<totfact> 0.10022339E+03</totfact>
</mgrwt>
</event>
<event>
 4    1  0.4941530E-001  0.8145992E+02  0.7546771E-02  0.1324959E+00
         -2   -1    0    0    0  501 -0.00000000000E+00  0.00000000000E+00  0.14401081528E+03  0.14401081528E+03  0.00000000000E+00 0.  1.
          2   -1    0    0  501    0  0.00000000000E+00 -0.00000000000E+00 -0.19412832308E+03  0.19412832308E+03  0.00000000000E+00 0. -1.
         24    1    1    2    0    0 -0.12911337207E+02  0.13417959666E+01 -0.17270614918E+03  0.19095322193E+03  0.80419002446E+02 0. -1.
        -24    1    1    2    0    0  0.12911337207E+02 -0.13417959666E+01  0.12258864139E+03  0.14718591643E+03  0.80419002446E+02 0.  1.
<mgrwt>
<rscale>  0 0.81459923E+02</rscale>
<asrwt>0</asrwt>
<pdfrwt beam="1">  1        2 0.29865896E-01 0.81459923E+02</pdfrwt>
<pdfrwt beam="2">  1       -2 0.22155510E-01 0.81459923E+02</pdfrwt>
<totfact> 0.29120254E+03</totfact>
</mgrwt>
</event>
<event>
 4    1  0.4941530E-001  0.8156071E+02  0.7546771E-02  0.1324680E+00
         -2   -1    0    0    0  501 -0.00000000000E+00  0.00000000000E+00  0.22799295834E+02  0.22799295834E+02  0.00000000000E+00 0.  1.
          2   -1    0    0  501    0  0.00000000000E+00 -0.00000000000E+00 -0.29887997838E+03  0.29887997838E+03  0.00000000000E+00 0. -1.
         24    1    1    2    0    0  0.90236254623E+01  0.10173899791E+02 -0.16284764324E+03  0.18213046125E+03  0.80419002446E+02 0. -1.
        -24    1    1    2    0    0 -0.90236254623E+01 -0.10173899791E+02 -0.11323303931E+03  0.13954881296E+03  0.80419002446E+02 0.  1.
<mgrwt>
<rscale>  0 0.81560714E+02</rscale>
<asrwt>0</asrwt>
<pdfrwt beam="1">  1        2 0.45981530E-01 0.81560714E+02</pdfrwt>
<pdfrwt beam="2">  1       -2 0.35075844E-02 0.81560714E+02</pdfrwt>
<totfact> 0.32136984E+04</totfact>
</mgrwt>
</event>
<event>
 4    1  0.4941530E-001  0.1046277E+03  0.7546771E-02  0.1270855E+00
          4   -1    0    0  501    0  0.00000000000E+00  0.00000000000E+00  0.31335118217E+02  0.31335118217E+02  0.00000000000E+00 0. -1.
         -4   -1    0    0    0  501 -0.00000000000E+00 -0.00000000000E+00 -0.41209552437E+03  0.41209552437E+03  0.00000000000E+00 0.  1.
         24    1    1    2    0    0 -0.64805105202E+02  0.16734417028E+02 -0.10386662147E+03  0.14742874002E+03  0.80419002446E+02 0. -1.
        -24    1    1    2    0    0  0.64805105202E+02 -0.16734417028E+02 -0.27689378469E+03  0.29600190257E+03  0.80419002446E+02 0.  1.
<mgrwt>
<rscale>  0 0.10462771E+03</rscale>
<asrwt>0</asrwt>
<pdfrwt beam="1">  1        4 0.48207877E-02 0.10462771E+03</pdfrwt>
<pdfrwt beam="2">  1       -4 0.63399307E-01 0.10462771E+03</pdfrwt>
<totfact> 0.93334737E+02</totfact>
</mgrwt>
</event>
<event>
 4    1  0.4941530E-001  0.1921545E+03  0.7546771E-02  0.1156532E+00
          1   -1    0    0  501    0  0.00000000000E+00  0.00000000000E+00  0.21490441375E+04  0.21490441375E+04  0.00000000000E+00 0. -1.
         -1   -1    0    0    0  501 -0.00000000000E+00 -0.00000000000E+00 -0.28276406442E+02  0.28276406442E+02  0.00000000000E+00 0.  1.
         24    1    1    2    0    0  0.84195474366E+02  0.15286348844E+03  0.37844366084E+03  0.42443249685E+03  0.80419002446E+02 0.  1.
        -24    1    1    2    0    0 -0.84195474366E+02 -0.15286348844E+03  0.17423240702E+04  0.17528880471E+04  0.80419002446E+02 0. -1.
<mgrwt>
<rscale>  0 0.19215447E+03</rscale>
<asrwt>0</asrwt>
<pdfrwt beam="1">  1        1 0.33062205E+00 0.19215447E+03</pdfrwt>
<pdfrwt beam="2">  1       -1 0.43502181E-02 0.19215447E+03</pdfrwt>
<totfact> 0.59267921E+02</totfact>
</mgrwt>
</event>
<event>
 4    1  0.4941530E-001  0.1264023E+03  0.7546771E-02  0.1232894E+00
         -4   -1    0    0    0  501 -0.00000000000E+00  0.00000000000E+00  0.31331377790E+03  0.31331377790E+03  0.00000000000E+00 0.  1.
          4   -1    0    0  501    0  0.00000000000E+00 -0.00000000000E+00 -0.84699825265E+02  0.84699825265E+02  0.00000000000E+00 0. -1.
         24    1    1    2    0    0  0.78071311080E+02 -0.58439718546E+02 -0.11229645389E+02  0.12690016236E+03  0.80419002446E+02 0. -1.
        -24    1    1    2    0    0 -0.78071311080E+02  0.58439718546E+02  0.23984359803E+03  0.27111344081E+03  0.80419002446E+02 0.  1.
<mgrwt>
<rscale>  0 0.12640232E+03</rscale>
<asrwt>0</asrwt>
<pdfrwt beam="1">  1        4 0.13030742E-01 0.12640232E+03</pdfrwt>
<pdfrwt beam="2">  1       -4 0.48202119E-01 0.12640232E+03</pdfrwt>
<totfact> 0.33070983E+02</totfact>
</mgrwt>
</event>
<event>
 4    1  0.4941530E-001  0.8340826E+02  0.7546771E-02  0.1319648E+00
         -1   -1    0    0    0  501 -0.00000000000E+00  0.00000000000E+00  0.11470862568E+04  0.11470862568E+04  0.00000000000E+00 0.  1.
          1   -1    0    0  501    0  0.00000000000E+00 -0.00000000000E+00 -0.73854929738E+01  0.73854929738E+01  0.00000000000E+00 0. -1.
         24    1    1    2    0    0  0.57158255457E+01  0.21378763595E+02  0.81394133669E+03  0.81820378741E+03  0.80419002446E+02 0.  1.
        -24    1    1    2    0    0 -0.57158255457E+01 -0.21378763595E+02  0.32575942715E+03  0.33626796239E+03  0.80419002446E+02 0. -1.
<mgrwt>
<rscale>  0 0.83408262E+02</rscale>
<asrwt>0</asrwt>
<pdfrwt beam="1">  1        1 0.11362306E-02 0.83408262E+02</pdfrwt>
<pdfrwt beam="2">  1       -1 0.17647467E+00 0.83408262E+02</pdfrwt>
<totfact> 0.30390575E+03</totfact>
</mgrwt>
</event>
<event>
 4    1  0.4941530E-001  0.8788225E+02  0.7546771E-02  0.1308063E+00
          2   -1    0    0  501    0  0.00000000000E+00  0.00000000000E+00  0.11119267854E+04  0.11119267854E+04  0.00000000000E+00 0. -1.
         -2   -1    0    0    0  501 -0.00000000000E+00 -0.00000000000E+00 -0.73057427225E+01  0.73057427225E+01  0.00000000000E+00 0.  1.
         24    1    1    2    0    0  0.31447056757E+02  0.16344900808E+02  0.67651518855E+03  0.68219944991E+03  0.80419002446E+02 0.  0.
        -24    1    1    2    0    0 -0.31447056757E+02 -0.16344900808E+02  0.42810585412E+03  0.43703307821E+03  0.80419002446E+02 0. -1.
<mgrwt>
<rscale>  0 0.87882246E+02</rscale>
<asrwt>0</asrwt>
<pdfrwt beam="1">  1        2 0.17106552E+00 0.87882246E+02</pdfrwt>
<pdfrwt beam="2">  1       -2 0.11239613E-02 0.87882246E+02</pdfrwt>
<totfact> 0.36743865E+04</totfact>
</mgrwt>
</event>
<event>
 4    1  0.4941530E-001  0.8210573E+02  0.7546771E-02  0.1323180E+00
         -2   -1    0    0    0  501 -0.00000000000E+00  0.00000000000E+00  0.24357480644E+02  0.24357480644E+02  0.00000000000E+00 0.  1.
          2   -1    0    0  501    0  0.00000000000E+00 -0.00000000000E+00 -0.27708788405E+03  0.27708788405E+03  0.00000000000E+00 0. -1.
         24    1    1    2    0    0 -0.72207621536E+01 -0.14899500267E+02 -0.13149314504E+03  0.15502192639E+03  0.80419002446E+02 0.  1.
        -24    1    1    2    0    0  0.72207621536E+01  0.14899500267E+02 -0.12123725836E+03  0.14642343830E+03  0.80419002446E+02 0.  0.
<mgrwt>
<rscale>  0 0.82105727E+02</rscale>
<asrwt>0</asrwt>
<pdfrwt beam="1">  1        2 0.42628904E-01 0.82105727E+02</pdfrwt>
<pdfrwt beam="2">  1       -2 0.37473048E-02 0.82105727E+02</pdfrwt>
<totfact> 0.31598943E+04</totfact>
</mgrwt>
</event>
<event>
 4    1  0.4941530E-001  0.8505548E+02  0.7546771E-02  0.1315288E+00
         -2   -1    0    0    0  501 -0.00000000000E+00  0.00000000000E+00  0.43144179311E+02  0.43144179311E+02  0.00000000000E+00 0.  1.
          2   -1    0    0  501    0  0.00000000000E+00 -0.00000000000E+00 -0.18752439852E+03  0.18752439852E+03  0.00000000000E+00 0. -1.
         24    1    1    2    0    0 -0.19596594634E+02 -0.19575304606E+02 -0.10970845636E+03  0.13881779577E+03  0.80419002446E+02 0. -1.
        -24    1    1    2    0    0  0.19596594634E+02  0.19575304606E+02 -0.34671762849E+02  0.91850782060E+02  0.80419002446E+02 0.  1.
<mgrwt>
<rscale>  0 0.85055482E+02</rscale>
<asrwt>0</asrwt>
<pdfrwt beam="1">  1        2 0.28849907E-01 0.85055482E+02</pdfrwt>
<pdfrwt beam="2">  1       -2 0.66375661E-02 0.85055482E+02</pdfrwt>
<totfact> 0.20518134E+04</totfact>
</mgrwt>
</event>
<event>
 4    1  0.4941530E-001  0.1023687E+03  0.7546771E-02  0.1275392E+00
          2   -1    0    0  501    0  0.00000000000E+00  0.00000000000E+00  0.23585077961E+02  0.23585077961E+02  0.00000000000E+00 0. -1.
         -2   -1    0    0    0  501 -0.00000000000E+00 -0.00000000000E+00 -0.59677363427E+03  0.59677363427E+03  0.00000000000E+00 0.  1.
         24    1    1    2    0    0  0.48598504212E+02 -0.40624051432E+02 -0.12981970695E+03  0.16532543795E+03  0.80419002446E+02 0. -1.
        -24    1    1    2    0    0 -0.48598504212E+02  0.40624051432E+02 -0.44336884936E+03  0.45503327428E+03  0.80419002446E+02 0.  1.
<mgrwt>
<rscale>  0 0.10236867E+03</rscale>
<asrwt>0</asrwt>
<pdfrwt beam="1">  1        2 0.36284734E-02 0.10236867E+03</pdfrwt>
<pdfrwt beam="2">  1       -2 0.91811332E-01 0.10236867E+03</pdfrwt>
<totfact> 0.23676685E+03</totfact>
</mgrwt>
</event>
<event>
 4    1  0.4941530E-001  0.9532816E+02  0.7546771E-02  0.1290439E+00
          2   -1    0    0  501    0  0.00000000000E+00  0.00000000000E+00  0.16262754356E+04  0.16262754356E+04  0.00000000000E+00 0. -1.
         -2   -1    0    0    0  501 -0.00000000000E+00 -0.00000000000E+00 -0.11622274981E+02  0.11622274981E+02  0.00000000000E+00 0.  1.
         24    1    1    2    0    0 -0.12578086063E+02  0.49618880852E+02  0.13974291531E+04  0.14006768704E+04  0.80419002446E+02 0. -1.
        -24    1    1    2    0    0  0.12578086063E+02 -0.49618880852E+02  0.21722400755E+03  0.23722084014E+03  0.80419002446E+02 0.  1.
<mgrwt>
<rscale>  0 0.95328157E+02</rscale>
<asrwt>0</asrwt>
<pdfrwt beam="1">  1        2 0.25019604E+00 0.95328157E+02</pdfrwt>
<pdfrwt beam="2">  1       -2 0.17880436E-02 0.95328157E+02</pdfrwt>
<totfact> 0.10241685E+04</totfact>
</mgrwt>
</event>
<event>
 4    1  0.4941530E-001  0.9917722E+02  0.7546771E-02  0.1282036E+00
         -2   -1    0    0    0  501 -0.00000000000E+00  0.00000000000E+00  0.45821201114E+02  0.45821201114E+02  0.00000000000E+00 0.  1.
          2   -1    0    0  501    0  0.00000000000E+00 -0.00000000000E+00 -0.41738440804E+03  0.41738440804E+03  0.00000000000E+00 0. -1.
         24    1    1    2    0    0  0.81773558381E+01  0.57463347768E+02 -0.34718972933E+03  0.36107731802E+03  0.80419002446E+02 0. -1.
        -24    1    1    2    0    0 -0.81773558381E+01 -0.57463347768E+02 -0.24373477599E+02  0.10212829113E+03  0.80419002446E+02 0.  1.
<mgrwt>
<rscale>  0 0.99177222E+02</rscale>
<asrwt>0</asrwt>
<pdfrwt beam="1">  1        2 0.64212985E-01 0.99177222E+02</pdfrwt>
<pdfrwt beam="2">  1       -2 0.70494156E-02 0.99177222E+02</pdfrwt>
<totfact> 0.81830720E+03</totfact>
</mgrwt>
</event>
<event>
 4    1  0.4941530E-001  0.1847745E+03  0.7546771E-02  0.1163261E+00
          1   -1    0    0  501    0  0.00000000000E+00  0.00000000000E+00  0.13466206534E+04  0.13466206534E+04  0.00000000000E+00 0. -1.
         -1   -1    0    0    0  501 -0.00000000000E+00 -0.00000000000E+00 -0.15216218263E+03  0.15216218263E+03  0.00000000000E+00 0.  1.
         24    1    1    2    0    0 -0.41216950144E+02 -0.16116936382E+03 -0.86886779241E+02  0.20418356735E+03  0.80419002446E+02 0.  1.
        -24    1    1    2    0    0  0.41216950144E+02  0.16116936382E+03  0.12813452500E+04  0.12945992686E+04  0.80419002446E+02 0. -1.
<mgrwt>
<rscale>  0 0.18477450E+03</rscale>
<asrwt>0</asrwt>
<pdfrwt beam="1">  1        1 0.20717240E+00 0.18477450E+03</pdfrwt>
<pdfrwt beam="2">  1       -1 0.23409567E-01 0.18477450E+03</pdfrwt>
<totfact> 0.14556773E+02</totfact>
</mgrwt>
</event>
<event>
 4    1  0.4941530E-001  0.1026511E+03  0.7546771E-02  0.1274818E+00
         -2   -1    0    0    0  501 -0.00000000000E+00  0.00000000000E+00  0.16712603315E+02  0.16712603315E+02  0.00000000000E+00 0.  1.
          2   -1    0    0  501    0  0.00000000000E+00 -0.00000000000E+00 -0.67364844271E+03  0.67364844271E+03  0.00000000000E+00 0. -1.
         24    1    1    2    0    0  0.63578570471E+02  0.52729605615E+01 -0.41583035797E+03  0.42831313463E+03  0.80419002446E+02 0. -1.
        -24    1    1    2    0    0 -0.63578570471E+02 -0.52729605615E+01 -0.24110548142E+03  0.26204791138E+03  0.80419002446E+02 0.  1.
<mgrwt>
<rscale>  0 0.10265113E+03</rscale>
<asrwt>0</asrwt>
<pdfrwt beam="1">  1        2 0.10363823E+00 0.10265113E+03</pdfrwt>
<pdfrwt beam="2">  1       -2 0.25711696E-02 0.10265113E+03</pdfrwt>
<totfact> 0.21575766E+04</totfact>
</mgrwt>
</event>
<event>
 4    1  0.4941530E-001  0.8950484E+02  0.7546771E-02  0.1304055E+00
         -4   -1    0    0    0  501 -0.00000000000E+00  0.00000000000E+00  0.91892387731E+02  0.91892387731E+02  0.00000000000E+00 0.  1.
          4   -1    0    0  501    0  0.00000000000E+00 -0.00000000000E+00 -0.15590577183E+03  0.15590577183E+03  0.00000000000E+00 0. -1.
         24    1    1    2    0    0  0.36532857446E+02  0.14465495044E+02 -0.11426862975E+03  0.14514970175E+03  0.80419002446E+02 0. -1.
        -24    1    1    2    0    0 -0.36532857446E+02 -0.14465495044E+02  0.50255245652E+02  0.10264845781E+03  0.80419002446E+02 0.  1.
<mgrwt>
<rscale>  0 0.89504839E+02</rscale>
<asrwt>0</asrwt>
<pdfrwt beam="1">  1        4 0.23985503E-01 0.89504839E+02</pdfrwt>
<pdfrwt beam="2">  1       -4 0.14137291E-01 0.89504839E+02</pdfrwt>
<totfact> 0.10143347E+03</totfact>
</mgrwt>
</event>
<event>
 4    1  0.4941530E-001  0.8613739E+02  0.7546771E-02  0.1312485E+00
          2   -1    0    0  501    0  0.00000000000E+00  0.00000000000E+00  0.11224707719E+04  0.11224707719E+04  0.00000000000E+00 0. -1.
         -2   -1    0    0    0  501 -0.00000000000E+00 -0.00000000000E+00 -0.66168463863E+01  0.66168463863E+01  0.00000000000E+00 0.  1.
         24    1    1    2    0    0  0.67666441833E+01  0.30110568804E+02  0.57594648572E+03  0.58235213076E+03  0.80419002446E+02 0.  1.
        -24    1    1    2    0    0 -0.67666441833E+01 -0.30110568804E+02  0.53990743979E+03  0.54673548752E+03  0.80419002446E+02 0. -1.
<mgrwt>
<rscale>  0 0.86137389E+02</rscale>
<asrwt>0</asrwt>
<pdfrwt beam="1">  1        2 0.17268766E+00 0.86137389E+02</pdfrwt>
<pdfrwt beam="2">  1       -2 0.10179773E-02 0.86137389E+02</pdfrwt>
<totfact> 0.41620280E+04</totfact>
</mgrwt>
</event>
<event>
 4    1  0.4941530E-001  0.1238147E+03  0.7546771E-02  0.1236933E+00
          1   -1    0    0  501    0  0.00000000000E+00  0.00000000000E+00  0.18636520075E+04  0.18636520075E+04  0.00000000000E+00 0. -1.
         -1   -1    0    0    0  501 -0.00000000000E+00 -0.00000000000E+00 -0.49687360417E+02  0.49687360417E+02  0.00000000000E+00 0.  1.
         24    1    1    2    0    0  0.25511072433E+02  0.90620375452E+02  0.33082368616E+02  0.12815820821E+03  0.80419002446E+02 0.  1.
        -24    1    1    2    0    0 -0.25511072433E+02 -0.90620375452E+02  0.17808822784E+04  0.17851811597E+04  0.80419002446E+02 0. -1.
<mgrwt>
<rscale>  0 0.12381471E+03</rscale>
<asrwt>0</asrwt>
<pdfrwt beam="1">  1        1 0.28671564E+00 0.12381471E+03</pdfrwt>
<pdfrwt beam="2">  1       -1 0.76442107E-02 0.12381471E+03</pdfrwt>
<totfact> 0.39544305E+02</totfact>
</mgrwt>
</event>
<event>
 4    1  0.4941530E-001  0.9449858E+02  0.7546771E-02  0.1292309E+00
          2   -1    0    0  501    0  0.00000000000E+00  0.00000000000E+00  0.33347876695E+03  0.33347876695E+03  0.00000000000E+00 0. -1.
         -2   -1    0    0    0  501 -0.00000000000E+00 -0.00000000000E+00 -0.35608669425E+02  0.35608669425E+02  0.00000000000E+00 0.  1.
         24    1    1    2    0    0  0.36500493874E+02 -0.33622606131E+02  0.24083425812E+03  0.25871049754E+03  0.80419002446E+02 0. -1.
        -24    1    1    2    0    0 -0.36500493874E+02  0.33622606131E+02  0.57035839397E+02  0.11037693883E+03  0.80419002446E+02 0.  1.
<mgrwt>
<rscale>  0 0.94498580E+02</rscale>
<asrwt>0</asrwt>
<pdfrwt beam="1">  1        2 0.51304424E-01 0.94498580E+02</pdfrwt>
<pdfrwt beam="2">  1       -2 0.54782570E-02 0.94498580E+02</pdfrwt>
<totfact> 0.15089125E+04</totfact>
</mgrwt>
</event>
<event>
 4    1  0.4941530E-001  0.1328337E+03  0.7546771E-02  0.1223311E+00
         -2   -1    0    0    0  501 -0.00000000000E+00  0.00000000000E+00  0.61268222558E+03  0.61268222558E+03  0.00000000000E+00 0.  1.
          2   -1    0    0  501    0  0.00000000000E+00 -0.00000000000E+00 -0.30562287709E+02  0.30562287709E+02  0.00000000000E+00 0. -1.
         24    1    1    2    0    0  0.71067404813E+02 -0.78275141832E+02  0.21381259589E+03  0.25171534711E+03  0.80419002446E+02 0.  1.
        -24    1    1    2    0    0 -0.71067404813E+02  0.78275141832E+02  0.36830734198E+03  0.39152916618E+03  0.80419002446E+02 0. -1.
<mgrwt>
<rscale>  0 0.13283369E+03</rscale>
<asrwt>0</asrwt>
<pdfrwt beam="1">  1        2 0.47018909E-02 0.13283369E+03</pdfrwt>
<pdfrwt beam="2">  1       -2 0.94258795E-01 0.13283369E+03</pdfrwt>
<totfact> 0.16152675E+03</totfact>
</mgrwt>
</event>
<event>
 4    1  0.4941530E-001  0.8851695E+02  0.7546771E-02  0.1306483E+00
          2   -1    0    0  501    0  0.00000000000E+00  0.00000000000E+00  0.85769550494E+02  0.85769550494E+02  0.00000000000E+00 0. -1.
         -2   -1    0    0    0  501 -0.00000000000E+00 -0.00000000000E+00 -0.95797016562E+02  0.95797016562E+02  0.00000000000E+00 0.  1.
         24    1    1    2    0    0 -0.69822145334E+00 -0.36980365804E+02  0.14540868010E+02  0.89703331962E+02  0.80419002446E+02 0. -1.
        -24    1    1    2    0    0  0.69822145334E+00  0.36980365804E+02 -0.24568334078E+02  0.91863235094E+02  0.80419002446E+02 0.  1.
<mgrwt>
<rscale>  0 0.88516953E+02</rscale>
<asrwt>0</asrwt>
<pdfrwt beam="1">  1        2 0.13195315E-01 0.88516953E+02</pdfrwt>
<pdfrwt beam="2">  1       -2 0.14738003E-01 0.88516953E+02</pdfrwt>
<totfact> 0.14319028E+04</totfact>
</mgrwt>
</event>
<event>
 4    1  0.4941530E-001  0.8834684E+02  0.7546771E-02  0.1306905E+00
          2   -1    0    0  501    0  0.00000000000E+00  0.00000000000E+00  0.39050437110E+03  0.39050437110E+03  0.00000000000E+00 0. -1.
         -2   -1    0    0    0  501 -0.00000000000E+00 -0.00000000000E+00 -0.27254713416E+02  0.27254713416E+02  0.00000000000E+00 0.  1.
         24    1    1    2    0    0 -0.34724252957E+02 -0.11496680765E+02  0.28948530311E+03  0.30266632466E+03  0.80419002446E+02 0. -1.
        -24    1    1    2    0    0  0.34724252957E+02  0.11496680765E+02  0.73764354581E+02  0.11509275986E+03  0.80419002446E+02 0.  1.
<mgrwt>
<rscale>  0 0.88346836E+02</rscale>
<asrwt>0</asrwt>
<pdfrwt beam="1">  1        2 0.60077591E-01 0.88346836E+02</pdfrwt>
<pdfrwt beam="2">  1       -2 0.41930331E-02 0.88346836E+02</pdfrwt>
<totfact> 0.18884397E+04</totfact>
</mgrwt>
</event>
<event>
 4    1  0.4941530E-001  0.8086155E+02  0.7546771E-02  0.1326624E+00
          2   -1    0    0  501    0  0.00000000000E+00  0.00000000000E+00  0.95859533267E+03  0.95859533267E+03  0.00000000000E+00 0. -1.
         -2   -1    0    0    0  501 -0.00000000000E+00 -0.00000000000E+00 -0.79289521126E+01  0.79289521126E+01  0.00000000000E+00 0.  1.
         24    1    1    2    0    0 -0.47980015660E+00  0.84347281182E+01  0.65598108780E+03  0.66094612364E+03  0.80419002446E+02 0.  0.
        -24    1    1    2    0    0  0.47980015660E+00 -0.84347281182E+01  0.29468529276E+03  0.30557816115E+03  0.80419002446E+02 0.  0.
<mgrwt>
<rscale>  0 0.80861553E+02</rscale>
<asrwt>0</asrwt>
<pdfrwt beam="1">  1        2 0.14747611E+00 0.80861553E+02</pdfrwt>
<pdfrwt beam="2">  1       -2 0.12198395E-02 0.80861553E+02</pdfrwt>
<totfact> 0.39742322E+04</totfact>
</mgrwt>
</event>
<event>
 4    1  0.4941530E-001  0.1043007E+03  0.7546771E-02  0.1271503E+00
          2   -1    0    0  501    0  0.00000000000E+00  0.00000000000E+00  0.24072085924E+03  0.24072085924E+03  0.00000000000E+00 0. -1.
         -2   -1    0    0    0  501 -0.00000000000E+00 -0.00000000000E+00 -0.50104301131E+02  0.50104301131E+02  0.00000000000E+00 0.  1.
         24    1    1    2    0    0  0.38518149367E+02  0.54108981878E+02  0.14083947462E+03  0.17525525189E+03  0.80419002446E+02 0. -1.
        -24    1    1    2    0    0 -0.38518149367E+02 -0.54108981878E+02  0.49777083490E+02  0.11556990848E+03  0.80419002446E+02 0.  1.
<mgrwt>
<rscale>  0 0.10430075E+03</rscale>
<asrwt>0</asrwt>
<pdfrwt beam="1">  1        2 0.37033978E-01 0.10430075E+03</pdfrwt>
<pdfrwt beam="2">  1       -2 0.77083542E-02 0.10430075E+03</pdfrwt>
<totfact> 0.12796887E+04</totfact>
</mgrwt>
</event>
<event>
 4    1  0.4941530E-001  0.8709613E+02  0.7546771E-02  0.1310040E+00
          2   -1    0    0  501    0  0.00000000000E+00  0.00000000000E+00  0.24054292443E+04  0.24054292443E+04  0.00000000000E+00 0. -1.
         -2   -1    0    0    0  501 -0.00000000000E+00 -0.00000000000E+00 -0.51043118556E+01  0.51043118556E+01  0.00000000000E+00 0.  1.
         24    1    1    2    0    0 -0.29920135224E+02 -0.14943411539E+02  0.19452586437E+04  0.19472074688E+04  0.80419002446E+02 0. -1.
        -24    1    1    2    0    0  0.29920135224E+02  0.14943411539E+02  0.45506628883E+03  0.46332608735E+03  0.80419002446E+02 0.  1.
<mgrwt>
<rscale>  0 0.87096131E+02</rscale>
<asrwt>0</asrwt>
<pdfrwt beam="1">  1        2 0.37006513E+00 0.87096131E+02</pdfrwt>
<pdfrwt beam="2">  1       -2 0.78528067E-03 0.87096131E+02</pdfrwt>
<totfact> 0.13241404E+04</totfact>
</mgrwt>
</event>
<event>
 4    1  0.4941530E-001  0.1143550E+03  0.7546771E-02  0.1252711E+00
          2   -1    0    0  501    0  0.00000000000E+00  0.00000000000E+00  0.11042846358E+04  0.11042846358E+04  0.00000000000E+00 0. -1.
         -2   -1    0    0    0  501 -0.00000000000E+00 -0.00000000000E+00 -0.13375360263E+02  0.13375360263E+02  0.00000000000E+00 0.  1.
         24    1    1    2    0    0 -0.28422501506E+02  0.76170986702E+02  0.73465926016E+03  0.74350608760E+03  0.80419002446E+02 0. -1.
        -24    1    1    2    0    0  0.28422501506E+02 -0.76170986702E+02  0.35625001537E+03  0.37415390845E+03  0.80419002446E+02 0.  1.
<mgrwt>
<rscale>  0 0.11435503E+03</rscale>
<asrwt>0</asrwt>
<pdfrwt beam="1">  1        2 0.16988987E+00 0.11435503E+03</pdfrwt>
<pdfrwt beam="2">  1       -2 0.20577486E-02 0.11435503E+03</pdfrwt>
<totfact> 0.15968014E+04</totfact>
</mgrwt>
</event>
<event>
 4    1  0.4941530E-001  0.8537639E+02  0.7546771E-02  0.1314451E+00
          1   -1    0    0  501    0  0.00000000000E+00  0.00000000000E+00  0.63598488340E+03  0.63598488340E+03  0.00000000000E+00 0. -1.
         -1   -1    0    0    0  501 -0.00000000000E+00 -0.00000000000E+00 -0.11503863085E+02  0.11503863085E+02  0.00000000000E+00 0.  1.
         24    1    1    2    0    0 -0.48031089934E+01  0.28263734255E+02  0.33196519981E+03  0.34276817001E+03  0.80419002446E+02 0.  0.
        -24    1    1    2    0    0  0.48031089934E+01 -0.28263734255E+02  0.29251582050E+03  0.30472057648E+03  0.80419002446E+02 0. -1.
<mgrwt>
<rscale>  0 0.85376380E+02</rscale>
<asrwt>0</asrwt>
<pdfrwt beam="1">  1        1 0.97843800E-01 0.85376391E+02</pdfrwt>
<pdfrwt beam="2">  1       -1 0.17698256E-02 0.85376391E+02</pdfrwt>
<totfact> 0.23906726E+04</totfact>
</mgrwt>
</event>
<event>
 4    1  0.4941530E-001  0.8050967E+02  0.7546771E-02  0.1327611E+00
          2   -1    0    0  501    0  0.00000000000E+00  0.00000000000E+00  0.15274464766E+04  0.15274464766E+04  0.00000000000E+00 0. -1.
         -2   -1    0    0    0  501 -0.00000000000E+00 -0.00000000000E+00 -0.21446950077E+02  0.21446950077E+02  0.00000000000E+00 0.  1.
         24    1    1    2    0    0  0.18618913460E+01 -0.33353006303E+01  0.14466105231E+04  0.14488491337E+04  0.80419002446E+02 0.  0.
        -24    1    1    2    0    0 -0.18618913460E+01  0.33353006303E+01  0.59389003478E+02  0.10004429298E+03  0.80419002446E+02 0.  1.
<mgrwt>
<rscale>  0 0.80509669E+02</rscale>
<asrwt>0</asrwt>
<pdfrwt beam="1">  1        2 0.23499168E+00 0.80509669E+02</pdfrwt>
<pdfrwt beam="2">  1       -2 0.32995320E-02 0.80509669E+02</pdfrwt>
<totfact> 0.47140197E+03</totfact>
</mgrwt>
</event>
<event>
 4    1  0.4941530E-001  0.8486626E+02  0.7546771E-02  0.1315783E+00
         -2   -1    0    0    0  501 -0.00000000000E+00  0.00000000000E+00  0.20145758212E+02  0.20145758212E+02  0.00000000000E+00 0.  1.
          2   -1    0    0  501    0  0.00000000000E+00 -0.00000000000E+00 -0.91324354074E+03  0.91324354074E+03  0.00000000000E+00 0. -1.
         24    1    1    2    0    0  0.15561794637E+02 -0.22201293255E+02 -0.81060921345E+03  0.81503961853E+03  0.80419002446E+02 0. -1.
        -24    1    1    2    0    0 -0.15561794637E+02  0.22201293255E+02 -0.82488569069E+02  0.11834968042E+03  0.80419002446E+02 0.  1.
<mgrwt>
<rscale>  0 0.84866264E+02</rscale>
<asrwt>0</asrwt>
<pdfrwt beam="1">  1        2 0.14049903E+00 0.84866264E+02</pdfrwt>
<pdfrwt beam="2">  1       -2 0.30993469E-02 0.84866264E+02</pdfrwt>
<totfact> 0.11179961E+04</totfact>
</mgrwt>
</event>
<event>
 4    1  0.4941530E-001  0.9141323E+02  0.7546771E-02  0.1299465E+00
         -2   -1    0    0    0  501 -0.00000000000E+00  0.00000000000E+00  0.15526323620E+02  0.15526323620E+02  0.00000000000E+00 0.  1.
          2   -1    0    0  501    0  0.00000000000E+00 -0.00000000000E+00 -0.10470784677E+04  0.10470784677E+04  0.00000000000E+00 0. -1.
         24    1    1    2    0    0 -0.43228879283E+02  0.45196301829E+01 -0.88616340777E+03  0.89086585089E+03  0.80419002446E+02 0. -1.
        -24    1    1    2    0    0  0.43228879283E+02 -0.45196301829E+01 -0.14538873634E+03  0.17173894046E+03  0.80419002446E+02 0.  1.
<mgrwt>
<rscale>  0 0.91413232E+02</rscale>
<asrwt>0</asrwt>
<pdfrwt beam="1">  1        2 0.16108902E+00 0.91413232E+02</pdfrwt>
<pdfrwt beam="2">  1       -2 0.23886648E-02 0.91413232E+02</pdfrwt>
<totfact> 0.13658674E+04</totfact>
</mgrwt>
</event>
<event>
 4    1  0.4941530E-001  0.8107908E+02  0.7546771E-02  0.1326017E+00
         -2   -1    0    0    0  501 -0.00000000000E+00  0.00000000000E+00  0.53906532485E+02  0.53906532485E+02  0.00000000000E+00 0.  1.
          2   -1    0    0  501    0  0.00000000000E+00 -0.00000000000E+00 -0.46103602320E+03  0.46103602320E+03  0.00000000000E+00 0. -1.
         24    1    1    2    0    0  0.10189647649E+02 -0.16649420723E+01 -0.42437401907E+03  0.43204991027E+03  0.80419002446E+02 0.  0.
        -24    1    1    2    0    0 -0.10189647649E+02  0.16649420723E+01  0.17244528353E+02  0.82892645414E+02  0.80419002446E+02 0.  0.
<mgrwt>
<rscale>  0 0.81079078E+02</rscale>
<asrwt>0</asrwt>
<pdfrwt beam="1">  1        2 0.70928619E-01 0.81079078E+02</pdfrwt>
<pdfrwt beam="2">  1       -2 0.82933127E-02 0.81079078E+02</pdfrwt>
<totfact> 0.56663570E+03</totfact>
</mgrwt>
</event>
<event>
 4    1  0.4941530E-001  0.1079377E+03  0.7546771E-02  0.1264437E+00
         -2   -1    0    0    0  501 -0.00000000000E+00  0.00000000000E+00  0.79581860594E+01  0.79581860594E+01  0.00000000000E+00 0.  1.
          2   -1    0    0  501    0  0.00000000000E+00 -0.00000000000E+00 -0.17431726332E+04  0.17431726332E+04  0.00000000000E+00 0. -1.
         24    1    1    2    0    0 -0.41356982521E+02 -0.58931529556E+02 -0.51719552868E+03  0.52833867549E+03  0.80419002446E+02 0.  1.
        -24    1    1    2    0    0  0.41356982521E+02  0.58931529556E+02 -0.12180189185E+04  0.12227921438E+04  0.80419002446E+02 0. -1.
<mgrwt>
<rscale>  0 0.10793769E+03</rscale>
<asrwt>0</asrwt>
<pdfrwt beam="1">  1        2 0.26818039E+00 0.10793770E+03</pdfrwt>
<pdfrwt beam="2">  1       -2 0.12243364E-02 0.10793770E+03</pdfrwt>
<totfact> 0.15462562E+04</totfact>
</mgrwt>
</event>
<event>
 4    1  0.4941530E-001  0.9094410E+02  0.7546771E-02  0.1300581E+00
         -2   -1    0    0    0  501 -0.00000000000E+00  0.00000000000E+00  0.26027669213E+01  0.26027669213E+01  0.00000000000E+00 0.  1.
          2   -1    0    0  501    0  0.00000000000E+00 -0.00000000000E+00 -0.36512653535E+04  0.36512653535E+04  0.00000000000E+00 0. -1.
         24    1    1    2    0    0  0.41269613750E+02  0.10021581654E+02 -0.24822741953E+04  0.24839396148E+04  0.80419002446E+02 0. -1.
        -24    1    1    2    0    0 -0.41269613750E+02 -0.10021581654E+02 -0.11663883912E+04  0.11699285056E+04  0.80419002446E+02 0.  1.
<mgrwt>
<rscale>  0 0.90944099E+02</rscale>
<asrwt>0</asrwt>
<pdfrwt beam="1">  1        2 0.56173643E+00 0.90944099E+02</pdfrwt>
<pdfrwt beam="2">  1       -2 0.40042333E-03 0.90944099E+02</pdfrwt>
<totfact> 0.64859224E+03</totfact>
</mgrwt>
</event>
<event>
 4    1  0.4941530E-001  0.1178851E+03  0.7546771E-02  0.1246627E+00
         -2   -1    0    0    0  501 -0.00000000000E+00  0.00000000000E+00  0.11995409933E+03  0.11995409933E+03  0.00000000000E+00 0.  1.
          2   -1    0    0  501    0  0.00000000000E+00 -0.00000000000E+00 -0.12890724073E+03  0.12890724073E+03  0.00000000000E+00 0. -1.
         24    1    1    2    0    0  0.79567003629E+02  0.33147668560E+02 -0.44075681692E+02  0.12585530449E+03  0.80419002446E+02 0.  1.
        -24    1    1    2    0    0 -0.79567003629E+02 -0.33147668560E+02  0.35122540291E+02  0.12300603558E+03  0.80419002446E+02 0. -1.
<mgrwt>
<rscale>  0 0.11788508E+03</rscale>
<asrwt>0</asrwt>
<pdfrwt beam="1">  1        2 0.19831883E-01 0.11788508E+03</pdfrwt>
<pdfrwt beam="2">  1       -2 0.18454477E-01 0.11788508E+03</pdfrwt>
<totfact> 0.63574789E+03</totfact>
</mgrwt>
</event>
<event>
 4    1  0.4941530E-001  0.8444105E+02  0.7546771E-02  0.1316901E+00
         -4   -1    0    0    0  501 -0.00000000000E+00  0.00000000000E+00  0.52857384069E+03  0.52857384069E+03  0.00000000000E+00 0.  1.
          4   -1    0    0  501    0  0.00000000000E+00 -0.00000000000E+00 -0.16292020055E+02  0.16292020055E+02  0.00000000000E+00 0. -1.
         24    1    1    2    0    0  0.12487712030E+02 -0.22519593072E+02  0.14315281282E+03  0.16620174125E+03  0.80419002446E+02 0.  0.
        -24    1    1    2    0    0 -0.12487712030E+02  0.22519593072E+02  0.36912900782E+03  0.37866411949E+03  0.80419002446E+02 0.  1.
<mgrwt>
<rscale>  0 0.84441050E+02</rscale>
<asrwt>0</asrwt>
<pdfrwt beam="1">  1        4 0.25064650E-02 0.84441050E+02</pdfrwt>
<pdfrwt beam="2">  1       -4 0.81319039E-01 0.84441050E+02</pdfrwt>
<totfact> 0.14431461E+03</totfact>
</mgrwt>
</event>
<event>
 4    1  0.4941530E-001  0.9615133E+02  0.7546771E-02  0.1288604E+00
         -1   -1    0    0    0  501 -0.00000000000E+00  0.00000000000E+00  0.18319556135E+02  0.18319556135E+02  0.00000000000E+00 0.  1.
          1   -1    0    0  501    0  0.00000000000E+00 -0.00000000000E+00 -0.73079523912E+03  0.73079523912E+03  0.00000000000E+00 0. -1.
         24    1    1    2    0    0 -0.47436763368E+02 -0.22969875551E+02 -0.14788074742E+03  0.17639102333E+03  0.80419002446E+02 0.  1.
        -24    1    1    2    0    0  0.47436763368E+02  0.22969875551E+02 -0.56459493556E+03  0.57272377192E+03  0.80419002446E+02 0. -1.
<mgrwt>
<rscale>  0 0.96151327E+02</rscale>
<asrwt>0</asrwt>
<pdfrwt beam="1">  1        1 0.11243001E+00 0.96151327E+02</pdfrwt>
<pdfrwt beam="2">  1       -1 0.28183939E-02 0.96151327E+02</pdfrwt>
<totfact> 0.10232671E+04</totfact>
</mgrwt>
</event>
<event>
 4    1  0.4941530E-001  0.8113032E+02  0.7546771E-02  0.1325874E+00
          1   -1    0    0  501    0  0.00000000000E+00  0.00000000000E+00  0.23029186591E+03  0.23029186591E+03  0.00000000000E+00 0. -1.
         -1   -1    0    0    0  501 -0.00000000000E+00 -0.00000000000E+00 -0.43772017269E+03  0.43772017269E+03  0.00000000000E+00 0.  1.
         24    1    1    2    0    0 -0.45012143962E+01  0.97289363195E+01 -0.42663135591E+03  0.43427691965E+03  0.80419002446E+02 0.  1.
        -24    1    1    2    0    0  0.45012143962E+01 -0.97289363195E+01  0.21920304913E+03  0.23373511896E+03  0.80419002446E+02 0. -1.
<mgrwt>
<rscale>  0 0.81130322E+02</rscale>
<asrwt>0</asrwt>
<pdfrwt beam="1">  1        1 0.35429518E-01 0.81130322E+02</pdfrwt>
<pdfrwt beam="2">  1       -1 0.67341565E-01 0.81130322E+02</pdfrwt>
<totfact> 0.29044535E+02</totfact>
</mgrwt>
</event>
<event>
 4    1  0.4941530E-001  0.1105849E+03  0.7546771E-02  0.1259491E+00
          2   -1    0    0  501    0  0.00000000000E+00  0.00000000000E+00  0.68622856019E+03  0.68622856019E+03  0.00000000000E+00 0. -1.
         -2   -1    0    0    0  501 -0.00000000000E+00 -0.00000000000E+00 -0.58279098930E+02  0.58279098930E+02  0.00000000000E+00 0.  1.
         24    1    1    2    0    0 -0.73133331585E+02  0.20330263597E+02  0.62413597113E+03  0.63385702664E+03  0.80419002446E+02 0. -1.
        -24    1    1    2    0    0  0.73133331585E+02 -0.20330263597E+02  0.38134901289E+01  0.11065063248E+03  0.80419002446E+02 0.  1.
<mgrwt>
<rscale>  0 0.11058490E+03</rscale>
<asrwt>0</asrwt>
<pdfrwt beam="1">  1        2 0.10557362E+00 0.11058490E+03</pdfrwt>
<pdfrwt beam="2">  1       -2 0.89660157E-02 0.11058490E+03</pdfrwt>
<totfact> 0.32882359E+03</totfact>
</mgrwt>
</event>
<event>
 4    1  0.4941530E-001  0.1010513E+03  0.7546771E-02  0.1278101E+00
         -1   -1    0    0    0  501 -0.00000000000E+00  0.00000000000E+00  0.12121060955E+04  0.12121060955E+04  0.00000000000E+00 0.  1.
          1   -1    0    0  501    0  0.00000000000E+00 -0.00000000000E+00 -0.24581146359E+02  0.24581146359E+02  0.00000000000E+00 0. -1.
         24    1    1    2    0    0 -0.39930668851E+02  0.46364662618E+02  0.10950706398E+04  0.10997231753E+04  0.80419002446E+02 0.  1.
        -24    1    1    2    0    0  0.39930668851E+02 -0.46364662618E+02  0.92454309399E+02  0.13696406658E+03  0.80419002446E+02 0. -1.
<mgrwt>
<rscale>  0 0.10105126E+03</rscale>
<asrwt>0</asrwt>
<pdfrwt beam="1">  1        1 0.37817158E-02 0.10105126E+03</pdfrwt>
<pdfrwt beam="2">  1       -1 0.18647781E+00 0.10105126E+03</pdfrwt>
<totfact> 0.50146854E+02</totfact>
</mgrwt>
</event>
<event>
 4    1  0.4941530E-001  0.8154875E+02  0.7546771E-02  0.1324713E+00
          2   -1    0    0  501    0  0.00000000000E+00  0.00000000000E+00  0.29499453739E+03  0.29499453739E+03  0.00000000000E+00 0. -1.
         -2   -1    0    0    0  501 -0.00000000000E+00 -0.00000000000E+00 -0.27959190565E+02  0.27959190565E+02  0.00000000000E+00 0.  1.
         24    1    1    2    0    0 -0.90464644308E+01  0.10057027387E+02  0.20458605680E+03  0.22023998935E+03  0.80419002446E+02 0. -1.
        -24    1    1    2    0    0  0.90464644308E+01 -0.10057027387E+02  0.62449290023E+02  0.10271373860E+03  0.80419002446E+02 0.  0.
<mgrwt>
<rscale>  0 0.81548748E+02</rscale>
<asrwt>0</asrwt>
<pdfrwt beam="1">  1        2 0.45383773E-01 0.81548748E+02</pdfrwt>
<pdfrwt beam="2">  1       -2 0.43014141E-02 0.81548748E+02</pdfrwt>
<totfact> 0.24165490E+04</totfact>
</mgrwt>
</event>
<event>
 4    1  0.4941530E-001  0.1177902E+03  0.7546771E-02  0.1246788E+00
         -1   -1    0    0    0  501 -0.00000000000E+00  0.00000000000E+00  0.10852506039E+02  0.10852506039E+02  0.00000000000E+00 0.  1.
          1   -1    0    0  501    0  0.00000000000E+00 -0.00000000000E+00 -0.23823274423E+04  0.23823274423E+04  0.00000000000E+00 0. -1.
         24    1    1    2    0    0 -0.16272164274E+02 -0.84513534694E+02 -0.37121637659E+03  0.38945620431E+03  0.80419002446E+02 0.  1.
        -24    1    1    2    0    0  0.16272164274E+02  0.84513534694E+02 -0.20002585596E+04  0.20037237440E+04  0.80419002446E+02 0. -1.
<mgrwt>
<rscale>  0 0.11779022E+03</rscale>
<asrwt>0</asrwt>
<pdfrwt beam="1">  1        1 0.36651214E+00 0.11779022E+03</pdfrwt>
<pdfrwt beam="2">  1       -1 0.16696153E-02 0.11779022E+03</pdfrwt>
<totfact> 0.17106434E+03</totfact>
</mgrwt>
</event>
<event>
 4    1  0.4941530E-001  0.9909244E+02  0.7546771E-02  0.1282216E+00
         -2   -1    0    0    0  501 -0.00000000000E+00  0.00000000000E+00  0.30883403180E+04  0.30883403180E+04  0.00000000000E+00 0.  1.
          2   -1    0    0  501    0  0.00000000000E+00 -0.00000000000E+00 -0.66834094668E+01  0.66834094668E+01  0.00000000000E+00 0. -1.
         24    1    1    2    0    0  0.56768184088E+02  0.11378415389E+02  0.42032619743E+03  0.43184884307E+03  0.80419002446E+02 0. -1.
        -24    1    1    2    0    0 -0.56768184088E+02 -0.11378415389E+02  0.26613307111E+04  0.26631748844E+04  0.80419002446E+02 0.  1.
<mgrwt>
<rscale>  0 0.99092437E+02</rscale>
<asrwt>0</asrwt>
<pdfrwt beam="1">  1        2 0.10282193E-02 0.99092437E+02</pdfrwt>
<pdfrwt beam="2">  1       -2 0.47512814E+00 0.99092437E+02</pdfrwt>
<totfact> 0.41586720E+01</totfact>
</mgrwt>
</event>
<event>
 4    1  0.4941530E-001  0.2042073E+03  0.7546771E-02  0.1146237E+00
          1   -1    0    0  501    0  0.00000000000E+00  0.00000000000E+00  0.14776623569E+03  0.14776623569E+03  0.00000000000E+00 0. -1.
         -1   -1    0    0    0  501 -0.00000000000E+00 -0.00000000000E+00 -0.51934526107E+03  0.51934526107E+03  0.00000000000E+00 0.  1.
         24    1    1    2    0    0 -0.93377635760E+02  0.16283128011E+03 -0.41118302718E+03  0.45909923376E+03  0.80419002446E+02 0.  1.
        -24    1    1    2    0    0  0.93377635760E+02 -0.16283128011E+03  0.39604001806E+02  0.20801226300E+03  0.80419002446E+02 0. -1.
<mgrwt>
<rscale>  0 0.20420731E+03</rscale>
<asrwt>0</asrwt>
<pdfrwt beam="1">  1        1 0.22733267E-01 0.20420731E+03</pdfrwt>
<pdfrwt beam="2">  1       -1 0.79899271E-01 0.20420731E+03</pdfrwt>
<totfact> 0.35615537E+02</totfact>
</mgrwt>
</event>
<event>
 4    1  0.4941530E-001  0.9040318E+02  0.7546771E-02  0.1301878E+00
         -1   -1    0    0    0  501 -0.00000000000E+00  0.00000000000E+00  0.36748072712E+03  0.36748072712E+03  0.00000000000E+00 0.  1.
          1   -1    0    0  501    0  0.00000000000E+00 -0.00000000000E+00 -0.37823238984E+02  0.37823238984E+02  0.00000000000E+00 0. -1.
         24    1    1    2    0    0  0.57358364543E+01 -0.40897671196E+02  0.29490610987E+03  0.30845153416E+03  0.80419002446E+02 0.  1.
        -24    1    1    2    0    0 -0.57358364543E+01  0.40897671196E+02  0.34751378266E+02  0.96852431951E+02  0.80419002446E+02 0. -1.
<mgrwt>
<rscale>  0 0.90403182E+02</rscale>
<asrwt>0</asrwt>
<pdfrwt beam="1">  1        1 0.58189601E-02 0.90403182E+02</pdfrwt>
<pdfrwt beam="2">  1       -1 0.56535494E-01 0.90403182E+02</pdfrwt>
<totfact> 0.40900042E+03</totfact>
</mgrwt>
</event>
<event>
 4    1  0.4941530E-001  0.1103485E+03  0.7546771E-02  0.1259926E+00
          2   -1    0    0  501    0  0.00000000000E+00  0.00000000000E+00  0.14230609423E+04  0.14230609423E+04  0.00000000000E+00 0. -1.
         -2   -1    0    0    0  501 -0.00000000000E+00 -0.00000000000E+00 -0.88321297433E+01  0.88321297433E+01  0.00000000000E+00 0.  1.
         24    1    1    2    0    0  0.54937621578E+02  0.51878948479E+02  0.83353275149E+03  0.84080534687E+03  0.80419002446E+02 0.  1.
        -24    1    1    2    0    0 -0.54937621578E+02 -0.51878948479E+02  0.58069606102E+03  0.59108772513E+03  0.80419002446E+02 0.  0.
<mgrwt>
<rscale>  0 0.11034846E+03</rscale>
<asrwt>0</asrwt>
<pdfrwt beam="1">  1        2 0.21893227E+00 0.11034846E+03</pdfrwt>
<pdfrwt beam="2">  1       -2 0.13587903E-02 0.11034846E+03</pdfrwt>
<totfact> 0.19457311E+04</totfact>
</mgrwt>
</event>
<event>
 4    1  0.4941530E-001  0.1336388E+03  0.7546771E-02  0.1222154E+00
         -2   -1    0    0    0  501 -0.00000000000E+00  0.00000000000E+00  0.13452420048E+02  0.13452420048E+02  0.00000000000E+00 0.  1.
          2   -1    0    0  501    0  0.00000000000E+00 -0.00000000000E+00 -0.13277676252E+04  0.13277676252E+04  0.00000000000E+00 0. -1.
         24    1    1    2    0    0  0.50437534866E+02 -0.94064628489E+02 -0.64942862672E+03  0.66303608983E+03  0.80419002446E+02 0.  1.
        -24    1    1    2    0    0 -0.50437534866E+02  0.94064628489E+02 -0.66488657842E+03  0.67818395541E+03  0.80419002446E+02 0. -1.
<mgrwt>
<rscale>  0 0.13363877E+03</rscale>
<asrwt>0</asrwt>
<pdfrwt beam="1">  1        2 0.20427194E+00 0.13363878E+03</pdfrwt>
<pdfrwt beam="2">  1       -2 0.20696031E-02 0.13363878E+03</pdfrwt>
<totfact> 0.12048751E+04</totfact>
</mgrwt>
</event>
<event>
 4    1  0.4941530E-001  0.8302650E+02  0.7546771E-02  0.1320676E+00
          2   -1    0    0  501    0  0.00000000000E+00  0.00000000000E+00  0.45148709274E+04  0.45148709274E+04  0.00000000000E+00 0. -1.
         -2   -1    0    0    0  501 -0.00000000000E+00 -0.00000000000E+00 -0.35195803157E+02  0.35195803157E+02  0.00000000000E+00 0.  1.
         24    1    1    2    0    0  0.19326365128E+02  0.72578284676E+01  0.44649774710E+04  0.44657493455E+04  0.80419002446E+02 0. -1.
        -24    1    1    2    0    0 -0.19326365128E+02 -0.72578284676E+01  0.14697653299E+02  0.84317385099E+02  0.80419002446E+02 0.  1.
<mgrwt>
<rscale>  0 0.83026504E+02</rscale>
<asrwt>0</asrwt>
<pdfrwt beam="1">  1        2 0.69459507E+00 0.83026504E+02</pdfrwt>
<pdfrwt beam="2">  1       -2 0.54147425E-02 0.83026504E+02</pdfrwt>
<totfact> 0.34291190E+01</totfact>
</mgrwt>
</event>
<event>
 4    1  0.4941530E-001  0.8380228E+02  0.7546771E-02  0.1318595E+00
          1   -1    0    0  501    0  0.00000000000E+00  0.00000000000E+00  0.18108290645E+04  0.18108290645E+04  0.00000000000E+00 0. -1.
         -1   -1    0    0    0  501 -0.00000000000E+00 -0.00000000000E+00 -0.89430784971E+01  0.89430784971E+01  0.00000000000E+00 0.  1.
         24    1    1    2    0    0 -0.14856957242E+02  0.18299645732E+02  0.21620176883E+03  0.23187502455E+03  0.80419002446E+02 0.  0.
        -24    1    1    2    0    0  0.14856957242E+02 -0.18299645732E+02  0.15856842172E+04  0.15878971184E+04  0.80419002446E+02 0. -1.
<mgrwt>
<rscale>  0 0.83802280E+02</rscale>
<asrwt>0</asrwt>
<pdfrwt beam="1">  1        1 0.27858880E+00 0.83802280E+02</pdfrwt>
<pdfrwt beam="2">  1       -1 0.13758597E-02 0.83802280E+02</pdfrwt>
<totfact> 0.51480492E+03</totfact>
</mgrwt>
</event>
<event>
 4    1  0.4941530E-001  0.9402776E+02  0.7546771E-02  0.1293381E+00
          2   -1    0    0  501    0  0.00000000000E+00  0.00000000000E+00  0.56748744117E+03  0.56748744117E+03  0.00000000000E+00 0. -1.
         -2   -1    0    0    0  501 -0.00000000000E+00 -0.00000000000E+00 -0.17414595454E+02  0.17414595454E+02  0.00000000000E+00 0.  1.
         24    1    1    2    0    0  0.95477998135E+01  0.47779109730E+02  0.36996905424E+03  0.38173069154E+03  0.80419002446E+02 0. -1.
        -24    1    1    2    0    0 -0.95477998135E+01 -0.47779109730E+02  0.18010379147E+03  0.20317134509E+03  0.80419002446E+02 0.  1.
<mgrwt>
<rscale>  0 0.94027761E+02</rscale>
<asrwt>0</asrwt>
<pdfrwt beam="1">  1        2 0.87305746E-01 0.94027761E+02</pdfrwt>
<pdfrwt beam="2">  1       -2 0.26791690E-02 0.94027761E+02</pdfrwt>
<totfact> 0.24470547E+04</totfact>
</mgrwt>
</event>
<event>
 4    1  0.4941530E-001  0.8862069E+02  0.7546771E-02  0.1306227E+00
         -2   -1    0    0    0  501 -0.00000000000E+00  0.00000000000E+00  0.12980039588E+03  0.12980039588E+03  0.00000000000E+00 0.  1.
          2   -1    0    0  501    0  0.00000000000E+00 -0.00000000000E+00 -0.12601656625E+03  0.12601656625E+03  0.00000000000E+00 0. -1.
         24    1    1    2    0    0  0.21223039097E+02  0.30594018448E+02 -0.90331908793E+02  0.12654438373E+03  0.80419002446E+02 0. -1.
        -24    1    1    2    0    0 -0.21223039097E+02 -0.30594018448E+02  0.94115738427E+02  0.12927257840E+03  0.80419002446E+02 0.  1.
<mgrwt>
<rscale>  0 0.88620693E+02</rscale>
<asrwt>0</asrwt>
<pdfrwt beam="1">  1        2 0.19387164E-01 0.88620693E+02</pdfrwt>
<pdfrwt beam="2">  1       -2 0.19969292E-01 0.88620693E+02</pdfrwt>
<totfact> 0.55931917E+03</totfact>
</mgrwt>
</event>
<event>
 4    1  0.4941530E-001  0.8102649E+02  0.7546771E-02  0.1326163E+00
         -2   -1    0    0    0  501 -0.00000000000E+00  0.00000000000E+00  0.15888357737E+04  0.15888357737E+04  0.00000000000E+00 0.  1.
          2   -1    0    0  501    0  0.00000000000E+00 -0.00000000000E+00 -0.41618555698E+01  0.41618555698E+01  0.00000000000E+00 0. -1.
         24    1    1    2    0    0 -0.96243597025E+01 -0.23342053129E+01  0.72503472872E+03  0.72954825106E+03  0.80419002446E+02 0.  0.
        -24    1    1    2    0    0  0.96243597025E+01  0.23342053129E+01  0.85963918944E+03  0.86344937824E+03  0.80419002446E+02 0.  0.
<mgrwt>
<rscale>  0 0.81026494E+02</rscale>
<asrwt>0</asrwt>
<pdfrwt beam="1">  1        2 0.64028674E-03 0.81026494E+02</pdfrwt>
<pdfrwt beam="2">  1       -2 0.24443579E+00 0.81026494E+02</pdfrwt>
<totfact> 0.19246920E+03</totfact>
</mgrwt>
</event>
<event>
 4    1  0.4941530E-001  0.1117830E+03  0.7546771E-02  0.1257303E+00
         -1   -1    0    0    0  501 -0.00000000000E+00  0.00000000000E+00  0.32194868532E+03  0.32194868532E+03  0.00000000000E+00 0.  1.
          1   -1    0    0  501    0  0.00000000000E+00 -0.00000000000E+00 -0.43960663283E+02  0.43960663283E+02  0.00000000000E+00 0. -1.
         24    1    1    2    0    0  0.92242341188E+00  0.77636146121E+02  0.20160681300E+03  0.23052276471E+03  0.80419002446E+02 0.  0.
        -24    1    1    2    0    0 -0.92242341188E+00 -0.77636146121E+02  0.76381209044E+02  0.13538658390E+03  0.80419002446E+02 0. -1.
<mgrwt>
<rscale>  0 0.11178300E+03</rscale>
<asrwt>0</asrwt>
<pdfrwt beam="1">  1        1 0.67631792E-02 0.11178300E+03</pdfrwt>
<pdfrwt beam="2">  1       -1 0.49530565E-01 0.11178300E+03</pdfrwt>
<totfact> 0.43238854E+03</totfact>
</mgrwt>
</event>
<event>
 4    1  0.4941530E-001  0.8535084E+02  0.7546771E-02  0.1314518E+00
          2   -1    0    0  501    0  0.00000000000E+00  0.00000000000E+00  0.11853406629E+04  0.11853406629E+04  0.00000000000E+00 0. -1.
         -2   -1    0    0    0  501 -0.00000000000E+00 -0.00000000000E+00 -0.63375473431E+01  0.63375473431E+01  0.00000000000E+00 0.  1.
         24    1    1    2    0    0  0.69021979271E+01 -0.27747181447E+02  0.48583643302E+03  0.49327659788E+03  0.80419002446E+02 0.  0.
        -24    1    1    2    0    0 -0.69021979271E+01  0.27747181447E+02  0.69316668254E+03  0.69840161237E+03  0.80419002446E+02 0.  0.
<mgrwt>
<rscale>  0 0.85350830E+02</rscale>
<asrwt>0</asrwt>
<pdfrwt beam="1">  1        2 0.18235993E+00 0.85350841E+02</pdfrwt>
<pdfrwt beam="2">  1       -2 0.97500823E-03 0.85350841E+02</pdfrwt>
<totfact> 0.40815035E+04</totfact>
</mgrwt>
</event>
<event>
 4    1  0.4941530E-001  0.8193941E+02  0.7546771E-02  0.1323636E+00
         -2   -1    0    0    0  501 -0.00000000000E+00  0.00000000000E+00  0.10530824763E+03  0.10530824763E+03  0.00000000000E+00 0.  1.
          2   -1    0    0  501    0  0.00000000000E+00 -0.00000000000E+00 -0.19559649853E+03  0.19559649853E+03  0.00000000000E+00 0. -1.
         24    1    1    2    0    0 -0.15488030376E+02 -0.26404708661E+01 -0.16866557601E+03  0.18751571575E+03  0.80419002446E+02 0.  0.
        -24    1    1    2    0    0  0.15488030376E+02  0.26404708661E+01  0.78377325108E+02  0.11338903041E+03  0.80419002446E+02 0.  0.
<mgrwt>
<rscale>  0 0.81939411E+02</rscale>
<asrwt>0</asrwt>
<pdfrwt beam="1">  1        2 0.30091769E-01 0.81939411E+02</pdfrwt>
<pdfrwt beam="2">  1       -2 0.16201269E-01 0.81939411E+02</pdfrwt>
<totfact> 0.48589482E+03</totfact>
</mgrwt>
</event>
<event>
 4    1  0.4941530E-001  0.8660004E+02  0.7546771E-02  0.1311301E+00
         -2   -1    0    0    0  501 -0.00000000000E+00  0.00000000000E+00  0.21215305528E+02  0.21215305528E+02  0.00000000000E+00 0.  1.
          2   -1    0    0  501    0  0.00000000000E+00 -0.00000000000E+00 -0.12881469983E+04  0.12881469983E+04  0.00000000000E+00 0. -1.
         24    1    1    2    0    0 -0.41673889967E+01 -0.31858802631E+02 -0.11911283136E+04  0.11942722579E+04  0.80419002446E+02 0. -1.
        -24    1    1    2    0    0  0.41673889967E+01  0.31858802631E+02 -0.75803379161E+02  0.11509004598E+03  0.80419002446E+02 0.  1.
<mgrwt>
<rscale>  0 0.86600037E+02</rscale>
<asrwt>0</asrwt>
<pdfrwt beam="1">  1        2 0.19817649E+00 0.86600037E+02</pdfrwt>
<pdfrwt beam="2">  1       -2 0.32638928E-02 0.86600037E+02</pdfrwt>
<totfact> 0.63836270E+03</totfact>
</mgrwt>
</event>
<event>
 4    1  0.4941530E-001  0.8822441E+02  0.7546771E-02  0.1307209E+00
         -2   -1    0    0    0  501 -0.00000000000E+00  0.00000000000E+00  0.42793227247E+02  0.42793227247E+02  0.00000000000E+00 0.  1.
          2   -1    0    0  501    0  0.00000000000E+00 -0.00000000000E+00 -0.22391793111E+03  0.22391793111E+03  0.00000000000E+00 0. -1.
         24    1    1    2    0    0  0.57051312522E+01 -0.35829903020E+02 -0.14833861970E+03  0.17259169309E+03  0.80419002446E+02 0.  0.
        -24    1    1    2    0    0 -0.57051312522E+01  0.35829903020E+02 -0.32786084156E+02  0.94119465264E+02  0.80419002446E+02 0.  0.
<mgrwt>
<rscale>  0 0.88224409E+02</rscale>
<asrwt>0</asrwt>
<pdfrwt beam="1">  1        2 0.34448913E-01 0.88224409E+02</pdfrwt>
<pdfrwt beam="2">  1       -2 0.65835734E-02 0.88224409E+02</pdfrwt>
<totfact> 0.17270649E+04</totfact>
</mgrwt>
</event>
<event>
 4    1  0.4941530E-001  0.1063652E+03  0.7546771E-02  0.1267453E+00
         -2   -1    0    0    0  501 -0.00000000000E+00  0.00000000000E+00  0.23784719433E+02  0.23784719433E+02  0.00000000000E+00 0.  1.
          2   -1    0    0  501    0  0.00000000000E+00 -0.00000000000E+00 -0.54775605058E+03  0.54775605058E+03  0.00000000000E+00 0. -1.
         24    1    1    2    0    0  0.51088146034E+02  0.47289976520E+02 -0.36565840338E+03  0.38081442260E+03  0.80419002446E+02 0.  0.
        -24    1    1    2    0    0 -0.51088146034E+02 -0.47289976520E+02 -0.15831292777E+03  0.19072634741E+03  0.80419002446E+02 0. -1.
<mgrwt>
<rscale>  0 0.10636520E+03</rscale>
<asrwt>0</asrwt>
<pdfrwt beam="1">  1        2 0.84270155E-01 0.10636520E+03</pdfrwt>
<pdfrwt beam="2">  1       -2 0.36591879E-02 0.10636520E+03</pdfrwt>
<totfact> 0.16330195E+04</totfact>
</mgrwt>
</event>
<event>
 4    1  0.4941530E-001  0.8510544E+02  0.7546771E-02  0.1315157E+00
         -2   -1    0    0    0  501 -0.00000000000E+00  0.00000000000E+00  0.14922602083E+02  0.14922602083E+02  0.00000000000E+00 0.  1.
          2   -1    0    0  501    0  0.00000000000E+00 -0.00000000000E+00 -0.12903760988E+04  0.12903760988E+04  0.00000000000E+00 0. -1.
         24    1    1    2    0    0  0.24593113785E+02 -0.13072815659E+02 -0.11532190714E+04  0.11563551195E+04  0.80419002446E+02 0. -1.
        -24    1    1    2    0    0 -0.24593113785E+02  0.13072815659E+02 -0.12223442534E+03  0.14894358142E+03  0.80419002446E+02 0.  1.
<mgrwt>
<rscale>  0 0.85105439E+02</rscale>
<asrwt>0</asrwt>
<pdfrwt beam="1">  1        2 0.19851950E+00 0.85105439E+02</pdfrwt>
<pdfrwt beam="2">  1       -2 0.22957837E-02 0.85105439E+02</pdfrwt>
<totfact> 0.10584083E+04</totfact>
</mgrwt>
</event>
<event>
 4    1  0.4941530E-001  0.8845844E+02  0.7546771E-02  0.1306628E+00
         -1   -1    0    0    0  501 -0.00000000000E+00  0.00000000000E+00  0.35078417433E+02  0.35078417433E+02  0.00000000000E+00 0.  1.
          1   -1    0    0  501    0  0.00000000000E+00 -0.00000000000E+00 -0.33339682914E+03  0.33339682914E+03  0.00000000000E+00 0. -1.
         24    1    1    2    0    0 -0.15406109511E+02 -0.33471354043E+02 -0.43175088322E+02  0.98432636649E+02  0.80419002446E+02 0.  1.
        -24    1    1    2    0    0  0.15406109511E+02  0.33471354043E+02 -0.25514332339E+03  0.27004260993E+03  0.80419002446E+02 0. -1.
<mgrwt>
<rscale>  0 0.88458441E+02</rscale>
<asrwt>0</asrwt>
<pdfrwt beam="1">  1        1 0.51291821E-01 0.88458441E+02</pdfrwt>
<pdfrwt beam="2">  1       -1 0.53966795E-02 0.88458441E+02</pdfrwt>
<totfact> 0.10951887E+04</totfact>
</mgrwt>
</event>
<event>
 4    1  0.4941530E-001  0.9681009E+02  0.7546771E-02  0.1287151E+00
         -1   -1    0    0    0  501 -0.00000000000E+00  0.00000000000E+00  0.39318869653E+03  0.39318869653E+03  0.00000000000E+00 0.  1.
          1   -1    0    0  501    0  0.00000000000E+00 -0.00000000000E+00 -0.48891233151E+02  0.48891233151E+02  0.00000000000E+00 0. -1.
         24    1    1    2    0    0  0.19062637015E+02 -0.50414216938E+02  0.33038326784E+03  0.34427503108E+03  0.80419002446E+02 0.  1.
        -24    1    1    2    0    0 -0.19062637015E+02  0.50414216938E+02  0.13914195540E+02  0.97804898606E+02  0.80419002446E+02 0. -1.
<mgrwt>
<rscale>  0 0.96810089E+02</rscale>
<asrwt>0</asrwt>
<pdfrwt beam="1">  1        1 0.75217284E-02 0.96810089E+02</pdfrwt>
<pdfrwt beam="2">  1       -1 0.60490567E-01 0.96810089E+02</pdfrwt>
<totfact> 0.25684516E+03</totfact>
</mgrwt>
</event>
<event>
 4    1  0.4941530E-001  0.1629988E+03  0.7546771E-02  0.1185352E+00
          4   -1    0    0  501    0  0.00000000000E+00  0.00000000000E+00  0.54663677777E+03  0.54663677777E+03  0.00000000000E+00 0. -1.
         -4   -1    0    0    0  501 -0.00000000000E+00 -0.00000000000E+00 -0.82884130007E+02  0.82884130007E+02  0.00000000000E+00 0.  1.
         24    1    1    2    0    0  0.49329484278E+02 -0.13292096168E+03  0.43430279288E+03  0.46388308003E+03  0.80419002446E+02 0. -1.
        -24    1    1    2    0    0 -0.49329484278E+02  0.13292096168E+03  0.29449854875E+02  0.16563782775E+03  0.80419002446E+02 0.  1.
<mgrwt>
<rscale>  0 0.16299876E+03</rscale>
<asrwt>0</asrwt>
<pdfrwt beam="1">  1        4 0.84097963E-01 0.16299876E+03</pdfrwt>
<pdfrwt beam="2">  1       -4 0.12751405E-01 0.16299876E+03</pdfrwt>
<totfact> 0.10977419E+02</totfact>
</mgrwt>
</event>
<event>
 4    1  0.4941530E-001  0.9832393E+02  0.7546771E-02  0.1283860E+00
         -2   -1    0    0    0  501 -0.00000000000E+00  0.00000000000E+00  0.10965223442E+02  0.10965223442E+02  0.00000000000E+00 0.  1.
          2   -1    0    0  501    0  0.00000000000E+00 -0.00000000000E+00 -0.12294143031E+04  0.12294143031E+04  0.00000000000E+00 0. -1.
         24    1    1    2    0    0  0.53626983737E+02  0.18014586272E+02 -0.93907110101E+03  0.94420449449E+03  0.80419002446E+02 0. -1.
        -24    1    1    2    0    0 -0.53626983737E+02 -0.18014586272E+02 -0.27937797861E+03  0.29617503202E+03  0.80419002446E+02 0.  1.
<mgrwt>
<rscale>  0 0.98323927E+02</rscale>
<asrwt>0</asrwt>
<pdfrwt beam="1">  1        2 0.18914067E+00 0.98323927E+02</pdfrwt>
<pdfrwt beam="2">  1       -2 0.16869574E-02 0.98323927E+02</pdfrwt>
<totfact> 0.17931780E+04</totfact>
</mgrwt>
</event>
<event>
 4    1  0.4941530E-001  0.1581423E+03  0.7546771E-02  0.1190810E+00
          1   -1    0    0  501    0  0.00000000000E+00  0.00000000000E+00  0.79600378369E+03  0.79600378369E+03  0.00000000000E+00 0. -1.
         -1   -1    0    0    0  501 -0.00000000000E+00 -0.00000000000E+00 -0.31420442031E+02  0.31420442031E+02  0.00000000000E+00 0.  1.
         24    1    1    2    0    0  0.11185414072E+03 -0.77655801618E+02  0.37877956132E+03  0.41046673964E+03  0.80419002446E+02 0.  1.
        -24    1    1    2    0    0 -0.11185414072E+03  0.77655801618E+02  0.38580378034E+03  0.41695748608E+03  0.80419002446E+02 0.  0.
<mgrwt>
<rscale>  0 0.15814230E+03</rscale>
<asrwt>0</asrwt>
<pdfrwt beam="1">  1        1 0.12246211E+00 0.15814230E+03</pdfrwt>
<pdfrwt beam="2">  1       -1 0.48339147E-02 0.15814230E+03</pdfrwt>
<totfact> 0.42160198E+03</totfact>
</mgrwt>
</event>
<event>
 4    1  0.4941530E-001  0.1046397E+03  0.7546771E-02  0.1270831E+00
          2   -1    0    0  501    0  0.00000000000E+00  0.00000000000E+00  0.13796148339E+04  0.13796148339E+04  0.00000000000E+00 0. -1.
         -2   -1    0    0    0  501 -0.00000000000E+00 -0.00000000000E+00 -0.11914558966E+02  0.11914558966E+02  0.00000000000E+00 0.  1.
         24    1    1    2    0    0  0.55316680901E+02  0.37713598279E+02  0.10858750235E+04  0.10909051441E+04  0.80419002446E+02 0. -1.
        -24    1    1    2    0    0 -0.55316680901E+02 -0.37713598279E+02  0.28182525145E+03  0.30062424884E+03  0.80419002446E+02 0.  1.
<mgrwt>
<rscale>  0 0.10463970E+03</rscale>
<asrwt>0</asrwt>
<pdfrwt beam="1">  1        2 0.21224831E+00 0.10463970E+03</pdfrwt>
<pdfrwt beam="2">  1       -2 0.18330102E-02 0.10463970E+03</pdfrwt>
<totfact> 0.13298130E+04</totfact>
</mgrwt>
</event>
<event>
 4    1  0.4941530E-001  0.9721515E+02  0.7546771E-02  0.1286264E+00
          1   -1    0    0  501    0  0.00000000000E+00  0.00000000000E+00  0.83183033932E+02  0.83183033932E+02  0.00000000000E+00 0. -1.
         -1   -1    0    0    0  501 -0.00000000000E+00 -0.00000000000E+00 -0.11394765940E+03  0.11394765940E+03  0.00000000000E+00 0.  1.
         24    1    1    2    0    0 -0.53798420870E+02 -0.94498798515E+01 -0.20713154591E+02  0.99397288921E+02  0.80419002446E+02 0.  0.
        -24    1    1    2    0    0  0.53798420870E+02  0.94498798515E+01 -0.10051470881E+02  0.97733404415E+02  0.80419002446E+02 0. -1.
<mgrwt>
<rscale>  0 0.97215155E+02</rscale>
<asrwt>0</asrwt>
<pdfrwt beam="1">  1        1 0.12797390E-01 0.97215155E+02</pdfrwt>
<pdfrwt beam="2">  1       -1 0.17530409E-01 0.97215155E+02</pdfrwt>
<totfact> 0.10477766E+04</totfact>
</mgrwt>
</event>
<event>
 4    1  0.4941530E-001  0.9853156E+02  0.7546771E-02  0.1283415E+00
          1   -1    0    0  501    0  0.00000000000E+00  0.00000000000E+00  0.11929534294E+04  0.11929534294E+04  0.00000000000E+00 0. -1.
         -1   -1    0    0    0  501 -0.00000000000E+00 -0.00000000000E+00 -0.14160053360E+02  0.14160053360E+02  0.00000000000E+00 0.  1.
         24    1    1    2    0    0  0.36684455597E+01  0.56813679708E+02  0.19579991206E+03  0.21919414502E+03  0.80419002446E+02 0. -1.
        -24    1    1    2    0    0 -0.36684455597E+01 -0.56813679708E+02  0.98299346398E+03  0.98791933773E+03  0.80419002446E+02 0.  0.
<mgrwt>
<rscale>  0 0.98531557E+02</rscale>
<asrwt>0</asrwt>
<pdfrwt beam="1">  1        1 0.18353122E+00 0.98531557E+02</pdfrwt>
<pdfrwt beam="2">  1       -1 0.21784707E-02 0.98531557E+02</pdfrwt>
<totfact> 0.67211080E+03</totfact>
</mgrwt>
</event>
<event>
 4    1  0.4941530E-001  0.9040288E+02  0.7546771E-02  0.1301879E+00
         -2   -1    0    0    0  501 -0.00000000000E+00  0.00000000000E+00  0.12978315524E+02  0.12978315524E+02  0.00000000000E+00 0.  1.
          2   -1    0    0  501    0  0.00000000000E+00 -0.00000000000E+00 -0.88085422692E+03  0.88085422692E+03  0.00000000000E+00 0. -1.
         24    1    1    2    0    0  0.39034811958E+02 -0.13481410460E+02 -0.67256996193E+03  0.67861847500E+03  0.80419002446E+02 0. -1.
        -24    1    1    2    0    0 -0.39034811958E+02  0.13481410460E+02 -0.19530594947E+03  0.21521406744E+03  0.80419002446E+02 0.  1.
<mgrwt>
<rscale>  0 0.90402881E+02</rscale>
<asrwt>0</asrwt>
<pdfrwt beam="1">  1        2 0.13551604E+00 0.90402881E+02</pdfrwt>
<pdfrwt beam="2">  1       -2 0.19966638E-02 0.90402881E+02</pdfrwt>
<totfact> 0.22208296E+04</totfact>
</mgrwt>
</event>
<event>
 4    1  0.4941530E-001  0.8452142E+02  0.7546771E-02  0.1316689E+00
          1   -1    0    0  501    0  0.00000000000E+00  0.00000000000E+00  0.82784945779E+03  0.82784945779E+03  0.00000000000E+00 0. -1.
         -1   -1    0    0    0  501 -0.00000000000E+00 -0.00000000000E+00 -0.12846619849E+02  0.12846619849E+02  0.00000000000E+00 0.  1.
         24    1    1    2    0    0  0.24641121603E+02 -0.83348157779E+01  0.16666281515E+03  0.18686991180E+03  0.80419002446E+02 0.  1.
        -24    1    1    2    0    0 -0.24641121603E+02  0.83348157779E+01  0.64834002280E+03  0.65382616584E+03  0.80419002446E+02 0. -1.
<mgrwt>
<rscale>  0 0.84521417E+02</rscale>
<asrwt>0</asrwt>
<pdfrwt beam="1">  1        1 0.12736141E+00 0.84521417E+02</pdfrwt>
<pdfrwt beam="2">  1       -1 0.19764037E-02 0.84521417E+02</pdfrwt>
<totfact> 0.14024153E+04</totfact>
</mgrwt>
</event>
<event>
 4    1  0.4941530E-001  0.8253245E+02  0.7546771E-02  0.1322015E+00
          1   -1    0    0  501    0  0.00000000000E+00  0.00000000000E+00  0.16649120624E+04  0.16649120624E+04  0.00000000000E+00 0. -1.
         -1   -1    0    0    0  501 -0.00000000000E+00 -0.00000000000E+00 -0.53138029512E+01  0.53138029512E+01  0.00000000000E+00 0.  1.
         24    1    1    2    0    0 -0.11802383594E+02 -0.14321048395E+02  0.42923432522E+03  0.43709691212E+03  0.80419002446E+02 0.  1.
        -24    1    1    2    0    0  0.11802383594E+02  0.14321048395E+02  0.12303639343E+04  0.12331289533E+04  0.80419002446E+02 0. -1.
<mgrwt>
<rscale>  0 0.82532446E+02</rscale>
<asrwt>0</asrwt>
<pdfrwt beam="1">  1        1 0.25613990E+00 0.82532446E+02</pdfrwt>
<pdfrwt beam="2">  1       -1 0.81750947E-03 0.82532446E+02</pdfrwt>
<totfact> 0.13212563E+04</totfact>
</mgrwt>
</event>
<event>
 4    1  0.4941530E-001  0.8517278E+02  0.7546771E-02  0.1314981E+00
         -1   -1    0    0    0  501 -0.00000000000E+00  0.00000000000E+00  0.59803144362E+02  0.59803144362E+02  0.00000000000E+00 0.  1.
          1   -1    0    0  501    0  0.00000000000E+00 -0.00000000000E+00 -0.55566008000E+03  0.55566008000E+03  0.00000000000E+00 0. -1.
         24    1    1    2    0    0 -0.10735885649E+01 -0.28036297486E+02  0.24147458068E+02  0.88529668782E+02  0.80419002446E+02 0.  1.
        -24    1    1    2    0    0  0.10735885649E+01  0.28036297486E+02 -0.52000439371E+03  0.52693355558E+03  0.80419002446E+02 0. -1.
<mgrwt>
<rscale>  0 0.85172780E+02</rscale>
<asrwt>0</asrwt>
<pdfrwt beam="1">  1        1 0.85486167E-01 0.85172780E+02</pdfrwt>
<pdfrwt beam="2">  1       -1 0.92004836E-02 0.85172780E+02</pdfrwt>
<totfact> 0.26068393E+03</totfact>
</mgrwt>
</event>
<event>
 4    1  0.4941530E-001  0.8537950E+02  0.7546771E-02  0.1314443E+00
         -1   -1    0    0    0  501 -0.00000000000E+00  0.00000000000E+00  0.44975460453E+02  0.44975460453E+02  0.00000000000E+00 0.  1.
          1   -1    0    0  501    0  0.00000000000E+00 -0.00000000000E+00 -0.16876538468E+03  0.16876538468E+03  0.00000000000E+00 0. -1.
         24    1    1    2    0    0 -0.28219301040E+02  0.51102384665E+01 -0.40625698533E+02  0.94552138125E+02  0.80419002446E+02 0.  1.
        -24    1    1    2    0    0  0.28219301040E+02 -0.51102384665E+01 -0.83164225689E+02  0.11918870700E+03  0.80419002446E+02 0. -1.
<mgrwt>
<rscale>  0 0.85379502E+02</rscale>
<asrwt>0</asrwt>
<pdfrwt beam="1">  1        1 0.25963905E-01 0.85379502E+02</pdfrwt>
<pdfrwt beam="2">  1       -1 0.69193016E-02 0.85379502E+02</pdfrwt>
<totfact> 0.17395375E+04</totfact>
</mgrwt>
</event>
<event>
 4    1  0.4941530E-001  0.8088172E+02  0.7546771E-02  0.1326568E+00
          1   -1    0    0  501    0  0.00000000000E+00  0.00000000000E+00  0.12751085509E+03  0.12751085509E+03  0.00000000000E+00 0. -1.
         -1   -1    0    0    0  501 -0.00000000000E+00 -0.00000000000E+00 -0.95797246517E+02  0.95797246517E+02  0.00000000000E+00 0.  1.
         24    1    1    2    0    0  0.42144070565E+01 -0.75415704315E+01 -0.60236011917E+02  0.10084755623E+03  0.80419002446E+02 0.  1.
        -24    1    1    2    0    0 -0.42144070565E+01  0.75415704315E+01  0.91949620488E+02  0.12246054538E+03  0.80419002446E+02 0.  0.
<mgrwt>
<rscale>  0 0.80881719E+02</rscale>
<asrwt>0</asrwt>
<pdfrwt beam="1">  1        1 0.19617055E-01 0.80881719E+02</pdfrwt>
<pdfrwt beam="2">  1       -1 0.14738038E-01 0.80881719E+02</pdfrwt>
<totfact> 0.78363384E+03</totfact>
</mgrwt>
</event>
<event>
 4    1  0.4941530E-001  0.9284846E+02  0.7546771E-02  0.1296097E+00
          2   -1    0    0  501    0  0.00000000000E+00  0.00000000000E+00  0.73792643670E+03  0.73792643670E+03  0.00000000000E+00 0. -1.
         -2   -1    0    0    0  501 -0.00000000000E+00 -0.00000000000E+00 -0.34852564958E+02  0.34852564958E+02  0.00000000000E+00 0.  1.
         24    1    1    2    0    0 -0.26480978642E+02 -0.38110083839E+02  0.66658109289E+03  0.67301648574E+03  0.80419002446E+02 0.  1.
        -24    1    1    2    0    0  0.26480978642E+02  0.38110083839E+02  0.36492778851E+02  0.99762515920E+02  0.80419002446E+02 0.  1.
<mgrwt>
<rscale>  0 0.92848461E+02</rscale>
<asrwt>0</asrwt>
<pdfrwt beam="1">  1        2 0.11352713E+00 0.92848461E+02</pdfrwt>
<pdfrwt beam="2">  1       -2 0.53619336E-02 0.92848461E+02</pdfrwt>
<totfact> 0.65329870E+03</totfact>
</mgrwt>
</event>
<event>
 4    1  0.4941530E-001  0.1248958E+03  0.7546771E-02  0.1235232E+00
         -2   -1    0    0    0  501 -0.00000000000E+00  0.00000000000E+00  0.10543536250E+02  0.10543536250E+02  0.00000000000E+00 0.  1.
          2   -1    0    0  501    0  0.00000000000E+00 -0.00000000000E+00 -0.23072518101E+04  0.23072518101E+04  0.00000000000E+00 0. -1.
         24    1    1    2    0    0  0.24622960529E+02  0.92333355838E+02 -0.45420495427E+03  0.47106379104E+03  0.80419002446E+02 0.  1.
        -24    1    1    2    0    0 -0.24622960529E+02 -0.92333355838E+02 -0.18425033195E+04  0.18467315553E+04  0.80419002446E+02 0. -1.
<mgrwt>
<rscale>  0 0.12489579E+03</rscale>
<asrwt>0</asrwt>
<pdfrwt beam="1">  1        2 0.35496192E+00 0.12489581E+03</pdfrwt>
<pdfrwt beam="2">  1       -2 0.16220820E-02 0.12489581E+03</pdfrwt>
<totfact> 0.53479661E+03</totfact>
</mgrwt>
</event>
<event>
 4    1  0.4941530E-001  0.8693030E+02  0.7546771E-02  0.1310460E+00
         -2   -1    0    0    0  501 -0.00000000000E+00  0.00000000000E+00  0.31018777969E+02  0.31018777969E+02  0.00000000000E+00 0.  1.
          2   -1    0    0  501    0  0.00000000000E+00 -0.00000000000E+00 -0.24595915727E+03  0.24595915727E+03  0.00000000000E+00 0. -1.
         24    1    1    2    0    0  0.24932423129E+02  0.21634137571E+02 -0.12096805708E+03  0.14896358085E+03  0.80419002446E+02 0.  0.
        -24    1    1    2    0    0 -0.24932423129E+02 -0.21634137571E+02 -0.93972322213E+02  0.12801435438E+03  0.80419002446E+02 0. -1.
<mgrwt>
<rscale>  0 0.86930303E+02</rscale>
<asrwt>0</asrwt>
<pdfrwt beam="1">  1        2 0.37839870E-01 0.86930303E+02</pdfrwt>
<pdfrwt beam="2">  1       -2 0.47721197E-02 0.86930303E+02</pdfrwt>
<totfact> 0.25253125E+04</totfact>
</mgrwt>
</event>
<event>
 4    1  0.4941530E-001  0.8815847E+02  0.7546771E-02  0.1307374E+00
         -2   -1    0    0    0  501 -0.00000000000E+00  0.00000000000E+00  0.47233687431E+02  0.47233687431E+02  0.00000000000E+00 0.  1.
          2   -1    0    0  501    0  0.00000000000E+00 -0.00000000000E+00 -0.18869549682E+03  0.18869549682E+03  0.00000000000E+00 0. -1.
         24    1    1    2    0    0  0.30228065862E+02 -0.19772795527E+02 -0.11293579925E+03  0.14327040907E+03  0.80419002446E+02 0. -1.
        -24    1    1    2    0    0 -0.30228065862E+02  0.19772795527E+02 -0.28526010138E+02  0.92658775178E+02  0.80419002446E+02 0. -1.
<mgrwt>
<rscale>  0 0.88158467E+02</rscale>
<asrwt>0</asrwt>
<pdfrwt beam="1">  1        2 0.29030076E-01 0.88158467E+02</pdfrwt>
<pdfrwt beam="2">  1       -2 0.72667212E-02 0.88158467E+02</pdfrwt>
<totfact> 0.17844274E+04</totfact>
</mgrwt>
</event>
<event>
 4    1  0.4941530E-001  0.1069354E+03  0.7546771E-02  0.1266353E+00
          1   -1    0    0  501    0  0.00000000000E+00  0.00000000000E+00  0.28579408831E+03  0.28579408831E+03  0.00000000000E+00 0. -1.
         -1   -1    0    0    0  501 -0.00000000000E+00 -0.00000000000E+00 -0.14360916263E+03  0.14360916263E+03  0.00000000000E+00 0.  1.
         24    1    1    2    0    0  0.56284847242E+02 -0.42426173513E+02 -0.11126279188E+03  0.15431976231E+03  0.80419002446E+02 0.  1.
        -24    1    1    2    0    0 -0.56284847242E+02  0.42426173513E+02  0.25344771755E+03  0.27508348863E+03  0.80419002446E+02 0. -1.
<mgrwt>
<rscale>  0 0.10693540E+03</rscale>
<asrwt>0</asrwt>
<pdfrwt beam="1">  1        1 0.43968321E-01 0.10693540E+03</pdfrwt>
<pdfrwt beam="2">  1       -1 0.22093717E-01 0.10693540E+03</pdfrwt>
<totfact> 0.15564774E+03</totfact>
</mgrwt>
</event>
<event>
 4    1  0.4941530E-001  0.8196180E+02  0.7546771E-02  0.1323575E+00
         -2   -1    0    0    0  501 -0.00000000000E+00  0.00000000000E+00  0.72726464486E+01  0.72726464486E+01  0.00000000000E+00 0.  1.
          2   -1    0    0  501    0  0.00000000000E+00 -0.00000000000E+00 -0.20833253633E+04  0.20833253633E+04  0.00000000000E+00 0. -1.
         24    1    1    2    0    0  0.97679752907E+01 -0.12454230270E+02 -0.18178941841E+04  0.18197409161E+04  0.80419002446E+02 0.  0.
        -24    1    1    2    0    0 -0.97679752907E+01  0.12454230270E+02 -0.25815853277E+03  0.27085709366E+03  0.80419002446E+02 0.  1.
<mgrwt>
<rscale>  0 0.81961803E+02</rscale>
<asrwt>0</asrwt>
<pdfrwt beam="1">  1        2 0.32051153E+00 0.81961803E+02</pdfrwt>
<pdfrwt beam="2">  1       -2 0.11188689E-02 0.81961803E+02</pdfrwt>
<totfact> 0.11691631E+04</totfact>
</mgrwt>
</event>
<event>
 4    1  0.4941530E-001  0.9050543E+02  0.7546771E-02  0.1301632E+00
         -2   -1    0    0    0  501 -0.00000000000E+00  0.00000000000E+00  0.83192386110E+02  0.83192386110E+02  0.00000000000E+00 0.  1.
          2   -1    0    0  501    0  0.00000000000E+00 -0.00000000000E+00 -0.23746453508E+03  0.23746453508E+03  0.00000000000E+00 0. -1.
         24    1    1    2    0    0  0.23820623774E+02 -0.34008732907E+02 -0.19980192365E+03  0.21934457067E+03  0.80419002446E+02 0. -1.
        -24    1    1    2    0    0 -0.23820623774E+02  0.34008732907E+02  0.45529774685E+02  0.10131235052E+03  0.80419002446E+02 0.  1.
<mgrwt>
<rscale>  0 0.90505425E+02</rscale>
<asrwt>0</asrwt>
<pdfrwt beam="1">  1        2 0.36533005E-01 0.90505425E+02</pdfrwt>
<pdfrwt beam="2">  1       -2 0.12798829E-01 0.90505425E+02</pdfrwt>
<totfact> 0.58241510E+03</totfact>
</mgrwt>
</event>
<event>
 4    1  0.4941530E-001  0.8404648E+02  0.7546771E-02  0.1317945E+00
         -4   -1    0    0    0  501 -0.00000000000E+00  0.00000000000E+00  0.35794509125E+02  0.35794509125E+02  0.00000000000E+00 0.  1.
          4   -1    0    0  501    0  0.00000000000E+00 -0.00000000000E+00 -0.32594815984E+03  0.32594815984E+03  0.00000000000E+00 0. -1.
         24    1    1    2    0    0  0.10556722478E+02  0.22026149745E+02 -0.25868875271E+03  0.27199941617E+03  0.80419002446E+02 0.  0.
        -24    1    1    2    0    0 -0.10556722478E+02 -0.22026149745E+02 -0.31464898006E+02  0.89743252799E+02  0.80419002446E+02 0.  0.
<mgrwt>
<rscale>  0 0.84046485E+02</rscale>
<asrwt>0</asrwt>
<pdfrwt beam="1">  1        4 0.50145872E-01 0.84046485E+02</pdfrwt>
<pdfrwt beam="2">  1       -4 0.55068474E-02 0.84046485E+02</pdfrwt>
<totfact> 0.11597347E+03</totfact>
</mgrwt>
</event>
<event>
 4    1  0.4941530E-001  0.8239556E+02  0.7546771E-02  0.1322387E+00
          2   -1    0    0  501    0  0.00000000000E+00  0.00000000000E+00  0.24121709466E+03  0.24121709466E+03  0.00000000000E+00 0. -1.
         -2   -1    0    0    0  501 -0.00000000000E+00 -0.00000000000E+00 -0.45981064947E+02  0.45981064947E+02  0.00000000000E+00 0.  1.
         24    1    1    2    0    0  0.15388246455E+02 -0.92203368479E+01  0.18705414534E+03  0.20439736295E+03  0.80419002446E+02 0. -1.
        -24    1    1    2    0    0 -0.15388246455E+02  0.92203368479E+01  0.81818843795E+01  0.82800796656E+02  0.80419002446E+02 0.  1.
<mgrwt>
<rscale>  0 0.82395562E+02</rscale>
<asrwt>0</asrwt>
<pdfrwt beam="1">  1        2 0.37110321E-01 0.82395562E+02</pdfrwt>
<pdfrwt beam="2">  1       -2 0.70740102E-02 0.82395562E+02</pdfrwt>
<totfact> 0.14226215E+04</totfact>
</mgrwt>
</event>
<event>
 4    1  0.4941530E-001  0.1507021E+03  0.7546771E-02  0.1199613E+00
         -1   -1    0    0    0  501 -0.00000000000E+00  0.00000000000E+00  0.90859758261E+02  0.90859758261E+02  0.00000000000E+00 0.  1.
          1   -1    0    0  501    0  0.00000000000E+00 -0.00000000000E+00 -0.26366628704E+03  0.26366628704E+03  0.00000000000E+00 0. -1.
         24    1    1    2    0    0 -0.11047376751E+03 -0.63556765156E+02 -0.45984687956E+02  0.15756180751E+03  0.80419002446E+02 0. -1.
        -24    1    1    2    0    0  0.11047376751E+03  0.63556765156E+02 -0.12682184083E+03  0.19696423779E+03  0.80419002446E+02 0.  1.
<mgrwt>
<rscale>  0 0.15070213E+03</rscale>
<asrwt>0</asrwt>
<pdfrwt beam="1">  1        1 0.40564044E-01 0.15070213E+03</pdfrwt>
<pdfrwt beam="2">  1       -1 0.13978425E-01 0.15070213E+03</pdfrwt>
<totfact> 0.36009950E+03</totfact>
</mgrwt>
</event>
<event>
 4    1  0.4941530E-001  0.8259503E+02  0.7546771E-02  0.1321844E+00
         -1   -1    0    0    0  501 -0.00000000000E+00  0.00000000000E+00  0.27603907721E+02  0.27603907721E+02  0.00000000000E+00 0.  1.
          1   -1    0    0  501    0  0.00000000000E+00 -0.00000000000E+00 -0.87418090115E+03  0.87418090115E+03  0.00000000000E+00 0. -1.
         24    1    1    2    0    0  0.27998863825E+00  0.18832013615E+02 -0.41413402199E+02  0.92395935877E+02  0.80419002446E+02 0.  1.
        -24    1    1    2    0    0 -0.27998863825E+00 -0.18832013615E+02 -0.80516359123E+03  0.80938887300E+03  0.80419002446E+02 0.  0.
<mgrwt>
<rscale>  0 0.82595031E+02</rscale>
<asrwt>0</asrwt>
<pdfrwt beam="1">  1        1 0.13448937E+00 0.82595031E+02</pdfrwt>
<pdfrwt beam="2">  1       -1 0.42467549E-02 0.82595031E+02</pdfrwt>
<totfact> 0.42976541E+03</totfact>
</mgrwt>
</event>
<event>
 4    1  0.4941530E-001  0.1451354E+03  0.7546771E-02  0.1206581E+00
         -2   -1    0    0    0  501 -0.00000000000E+00  0.00000000000E+00  0.10132246765E+03  0.10132246765E+03  0.00000000000E+00 0.  1.
          2   -1    0    0  501    0  0.00000000000E+00 -0.00000000000E+00 -0.49373548198E+03  0.49373548198E+03  0.00000000000E+00 0. -1.
         24    1    1    2    0    0  0.84942314258E+02  0.85917868907E+02 -0.42259014019E+03  0.44681844130E+03  0.80419002446E+02 0. -1.
        -24    1    1    2    0    0 -0.84942314258E+02 -0.85917868907E+02  0.30177125852E+02  0.14823950832E+03  0.80419002446E+02 0.  1.
<mgrwt>
<rscale>  0 0.14513543E+03</rscale>
<asrwt>0</asrwt>
<pdfrwt beam="1">  1        2 0.75959306E-01 0.14513543E+03</pdfrwt>
<pdfrwt beam="2">  1       -2 0.15588072E-01 0.14513543E+03</pdfrwt>
<totfact> 0.19938386E+03</totfact>
</mgrwt>
</event>
<event>
 4    1  0.4941530E-001  0.1068659E+03  0.7546771E-02  0.1266486E+00
          2   -1    0    0  501    0  0.00000000000E+00  0.00000000000E+00  0.10674259651E+02  0.10674259651E+02  0.00000000000E+00 0. -1.
         -2   -1    0    0    0  501 -0.00000000000E+00 -0.00000000000E+00 -0.11398714100E+04  0.11398714100E+04  0.00000000000E+00 0.  1.
         24    1    1    2    0    0 -0.44382275221E+02  0.54619758636E+02 -0.70713524771E+03  0.71516472152E+03  0.80419002446E+02 0.  0.
        -24    1    1    2    0    0  0.44382275221E+02 -0.54619758636E+02 -0.42206190260E+03  0.43538094810E+03  0.80419002446E+02 0.  1.
<mgrwt>
<rscale>  0 0.10686591E+03</rscale>
<asrwt>0</asrwt>
<pdfrwt beam="1">  1        2 0.16421937E-02 0.10686593E+03</pdfrwt>
<pdfrwt beam="2">  1       -2 0.17536485E+00 0.10686593E+03</pdfrwt>
<totfact> 0.14243633E+03</totfact>
</mgrwt>
</event>
<event>
 4    1  0.4941530E-001  0.8153064E+02  0.7546771E-02  0.1324763E+00
         -2   -1    0    0    0  501 -0.00000000000E+00  0.00000000000E+00  0.60208255197E+02  0.60208255197E+02  0.00000000000E+00 0.  1.
          2   -1    0    0  501    0  0.00000000000E+00 -0.00000000000E+00 -0.19422649776E+03  0.19422649776E+03  0.00000000000E+00 0. -1.
         24    1    1    2    0    0 -0.53504781307E+01 -0.12304546595E+02 -0.15058326301E+03  0.17123832671E+03  0.80419002446E+02 0. -1.
        -24    1    1    2    0    0  0.53504781307E+01  0.12304546595E+02  0.16565020444E+02  0.83196426244E+02  0.80419002446E+02 0.  0.
<mgrwt>
<rscale>  0 0.81530641E+02</rscale>
<asrwt>0</asrwt>
<pdfrwt beam="1">  1        2 0.29880999E-01 0.81530641E+02</pdfrwt>
<pdfrwt beam="2">  1       -2 0.92628087E-02 0.81530641E+02</pdfrwt>
<totfact> 0.11844124E+04</totfact>
</mgrwt>
</event>
<event>
 4    1  0.4941530E-001  0.8630316E+02  0.7546771E-02  0.1312059E+00
         -2   -1    0    0    0  501 -0.00000000000E+00  0.00000000000E+00  0.79255401919E+02  0.79255401919E+02  0.00000000000E+00 0.  1.
          2   -1    0    0  501    0  0.00000000000E+00 -0.00000000000E+00 -0.95549993843E+02  0.95549993843E+02  0.00000000000E+00 0. -1.
         24    1    1    2    0    0  0.27208710320E+02 -0.15514548418E+02  0.30649488054E+01  0.86357541625E+02  0.80419002446E+02 0.  0.
        -24    1    1    2    0    0 -0.27208710320E+02  0.15514548418E+02 -0.19359540729E+02  0.88447854137E+02  0.80419002446E+02 0.  0.
<mgrwt>
<rscale>  0 0.86303146E+02</rscale>
<asrwt>0</asrwt>
<pdfrwt beam="1">  1        2 0.14699999E-01 0.86303156E+02</pdfrwt>
<pdfrwt beam="2">  1       -2 0.12193139E-01 0.86303156E+02</pdfrwt>
<totfact> 0.17042304E+04</totfact>
</mgrwt>
</event>
<event>
 4    1  0.4941530E-001  0.1646221E+03  0.7546771E-02  0.1183575E+00
          1   -1    0    0  501    0  0.00000000000E+00  0.00000000000E+00  0.10372496951E+04  0.10372496951E+04  0.00000000000E+00 0. -1.
         -1   -1    0    0    0  501 -0.00000000000E+00 -0.00000000000E+00 -0.18519278657E+03  0.18519278657E+03  0.00000000000E+00 0.  1.
         24    1    1    2    0    0 -0.88310568202E+02 -0.11328921958E+03 -0.14043844104E+03  0.21638709621E+03  0.80419002446E+02 0.  1.
        -24    1    1    2    0    0  0.88310568202E+02  0.11328921958E+03  0.99249534953E+03  0.10060553854E+04  0.80419002446E+02 0. -1.
<mgrwt>
<rscale>  0 0.16462205E+03</rscale>
<asrwt>0</asrwt>
<pdfrwt beam="1">  1        1 0.15957687E+00 0.16462205E+03</pdfrwt>
<pdfrwt beam="2">  1       -1 0.28491198E-01 0.16462205E+03</pdfrwt>
<totfact> 0.17332739E+02</totfact>
</mgrwt>
</event>
<event>
 4    1  0.4941530E-001  0.8266946E+02  0.7546771E-02  0.1321642E+00
          2   -1    0    0  501    0  0.00000000000E+00  0.00000000000E+00  0.23261321049E+04  0.23261321049E+04  0.00000000000E+00 0. -1.
         -2   -1    0    0    0  501 -0.00000000000E+00 -0.00000000000E+00 -0.19786310441E+02  0.19786310441E+02  0.00000000000E+00 0.  1.
         24    1    1    2    0    0 -0.18712350768E+02  0.41074457904E+01  0.22355493319E+04  0.22370773466E+04  0.80419002446E+02 0. -1.
        -24    1    1    2    0    0  0.18712350768E+02 -0.41074457904E+01  0.70796462481E+02  0.10884106870E+03  0.80419002446E+02 0.  1.
<mgrwt>
<rscale>  0 0.82669457E+02</rscale>
<asrwt>0</asrwt>
<pdfrwt beam="1">  1        2 0.35786626E+00 0.82669457E+02</pdfrwt>
<pdfrwt beam="2">  1       -2 0.30440496E-02 0.82669457E+02</pdfrwt>
<totfact> 0.21044301E+03</totfact>
</mgrwt>
</event>
<event>
 4    1  0.4941530E-001  0.8101078E+02  0.7546771E-02  0.1326207E+00
          2   -1    0    0  501    0  0.00000000000E+00  0.00000000000E+00  0.19600514122E+04  0.19600514122E+04  0.00000000000E+00 0. -1.
         -2   -1    0    0    0  501 -0.00000000000E+00 -0.00000000000E+00 -0.37837122841E+01  0.37837122841E+01  0.00000000000E+00 0.  1.
         24    1    1    2    0    0 -0.52519699921E+01  0.82430284236E+01  0.13112457123E+04  0.13137458143E+04  0.80419002446E+02 0. -1.
        -24    1    1    2    0    0  0.52519699921E+01 -0.82430284236E+01  0.64502198763E+03  0.65008931016E+03  0.80419002446E+02 0.  0.
<mgrwt>
<rscale>  0 0.81010781E+02</rscale>
<asrwt>0</asrwt>
<pdfrwt beam="1">  1        2 0.30154556E+00 0.81010781E+02</pdfrwt>
<pdfrwt beam="2">  1       -2 0.58211115E-03 0.81010781E+02</pdfrwt>
<totfact> 0.33758984E+04</totfact>
</mgrwt>
</event>
<event>
 4    1  0.4941530E-001  0.8563429E+02  0.7546771E-02  0.1313782E+00
          2   -1    0    0  501    0  0.00000000000E+00  0.00000000000E+00  0.10708851596E+04  0.10708851596E+04  0.00000000000E+00 0. -1.
         -2   -1    0    0    0  501 -0.00000000000E+00 -0.00000000000E+00 -0.14913797646E+02  0.14913797646E+02  0.00000000000E+00 0.  1.
         24    1    1    2    0    0  0.28458664169E+02  0.74913629380E+01  0.92724377332E+03  0.93118969453E+03  0.80419002446E+02 0. -1.
        -24    1    1    2    0    0 -0.28458664169E+02 -0.74913629380E+01  0.12872758858E+03  0.15460926266E+03  0.80419002446E+02 0.  1.
<mgrwt>
<rscale>  0 0.85634292E+02</rscale>
<asrwt>0</asrwt>
<pdfrwt beam="1">  1        2 0.16475150E+00 0.85634292E+02</pdfrwt>
<pdfrwt beam="2">  1       -2 0.22944313E-02 0.85634292E+02</pdfrwt>
<totfact> 0.13961401E+04</totfact>
</mgrwt>
</event>
<event>
 4    1  0.4941530E-001  0.9698299E+02  0.7546771E-02  0.1286771E+00
         -2   -1    0    0    0  501 -0.00000000000E+00  0.00000000000E+00  0.15831167443E+03  0.15831167443E+03  0.00000000000E+00 0.  1.
          2   -1    0    0  501    0  0.00000000000E+00 -0.00000000000E+00 -0.60280417068E+02  0.60280417068E+02  0.00000000000E+00 0. -1.
         24    1    1    2    0    0  0.42666809723E+02 -0.33436861886E+02  0.62130050451E+02  0.11517742621E+03  0.80419002446E+02 0. -1.
        -24    1    1    2    0    0 -0.42666809723E+02  0.33436861886E+02  0.35901206910E+02  0.10341466529E+03  0.80419002446E+02 0.  0.
<mgrwt>
<rscale>  0 0.96982981E+02</rscale>
<asrwt>0</asrwt>
<pdfrwt beam="1">  1        2 0.92739104E-02 0.96982994E+02</pdfrwt>
<pdfrwt beam="2">  1       -2 0.24355642E-01 0.96982994E+02</pdfrwt>
<totfact> 0.95495004E+03</totfact>
</mgrwt>
</event>
<event>
 4    1  0.4941530E-001  0.9762094E+02  0.7546771E-02  0.1285380E+00
          2   -1    0    0  501    0  0.00000000000E+00  0.00000000000E+00  0.11107622816E+04  0.11107622816E+04  0.00000000000E+00 0. -1.
         -2   -1    0    0    0  501 -0.00000000000E+00 -0.00000000000E+00 -0.11012607872E+02  0.11012607872E+02  0.00000000000E+00 0.  1.
         24    1    1    2    0    0  0.49705742342E+02  0.24330460849E+02  0.81351176476E+03  0.81934805761E+03  0.80419002446E+02 0. -1.
        -24    1    1    2    0    0 -0.49705742342E+02 -0.24330460849E+02  0.28623790895E+03  0.30242683185E+03  0.80419002446E+02 0.  1.
<mgrwt>
<rscale>  0 0.97620941E+02</rscale>
<asrwt>0</asrwt>
<pdfrwt beam="1">  1        2 0.17088642E+00 0.97620941E+02</pdfrwt>
<pdfrwt beam="2">  1       -2 0.16942482E-02 0.97620941E+02</pdfrwt>
<totfact> 0.20701281E+04</totfact>
</mgrwt>
</event>
<event>
 4    1  0.4941530E-001  0.8088515E+02  0.7546771E-02  0.1326558E+00
          2   -1    0    0  501    0  0.00000000000E+00  0.00000000000E+00  0.37497026536E+03  0.37497026536E+03  0.00000000000E+00 0. -1.
         -2   -1    0    0    0  501 -0.00000000000E+00 -0.00000000000E+00 -0.34263333621E+03  0.34263333621E+03  0.00000000000E+00 0.  1.
         24    1    1    2    0    0 -0.83945777491E+01 -0.21732327318E+01  0.36571533161E+03  0.37455321598E+03  0.80419002446E+02 0. -1.
        -24    1    1    2    0    0  0.83945777491E+01  0.21732327318E+01 -0.33337840245E+03  0.34305038559E+03  0.80419002446E+02 0.  1.
<mgrwt>
<rscale>  0 0.80885152E+02</rscale>
<asrwt>0</asrwt>
<pdfrwt beam="1">  1        2 0.57687733E-01 0.80885152E+02</pdfrwt>
<pdfrwt beam="2">  1       -2 0.52712821E-01 0.80885152E+02</pdfrwt>
<totfact> 0.30055512E+02</totfact>
</mgrwt>
</event>
<event>
 4    1  0.4941530E-001  0.8779646E+02  0.7546771E-02  0.1308277E+00
          3   -1    0    0  501    0  0.00000000000E+00  0.00000000000E+00  0.49901048139E+02  0.49901048139E+02  0.00000000000E+00 0. -1.
         -3   -1    0    0    0  501 -0.00000000000E+00 -0.00000000000E+00 -0.17120957734E+03  0.17120957734E+03  0.00000000000E+00 0.  1.
         24    1    1    2    0    0  0.22266964343E+02  0.27298063038E+02 -0.95223283603E+02  0.12952100849E+03  0.80419002446E+02 0.  1.
        -24    1    1    2    0    0 -0.22266964343E+02 -0.27298063038E+02 -0.26085245593E+02  0.91589616981E+02  0.80419002446E+02 0. -1.
<mgrwt>
<rscale>  0 0.87796457E+02</rscale>
<asrwt>0</asrwt>
<pdfrwt beam="1">  1        3 0.76770845E-02 0.87796457E+02</pdfrwt>
<pdfrwt beam="2">  1       -3 0.26339934E-01 0.87796457E+02</pdfrwt>
<totfact> 0.32578203E+03</totfact>
</mgrwt>
</event>
<event>
 4    1  0.4941530E-001  0.8550100E+02  0.7546771E-02  0.1314128E+00
          2   -1    0    0  501    0  0.00000000000E+00  0.00000000000E+00  0.12931577186E+04  0.12931577186E+04  0.00000000000E+00 0. -1.
         -2   -1    0    0    0  501 -0.00000000000E+00 -0.00000000000E+00 -0.52903008499E+02  0.52903008499E+02  0.00000000000E+00 0.  1.
         24    1    1    2    0    0  0.18832660743E+01 -0.28976846634E+02  0.12561824099E+04  0.12590888242E+04  0.80419002446E+02 0. -1.
        -24    1    1    2    0    0 -0.18832660743E+01  0.28976846634E+02 -0.15927699734E+02  0.86971902964E+02  0.80419002446E+02 0.  1.
<mgrwt>
<rscale>  0 0.85500996E+02</rscale>
<asrwt>0</asrwt>
<pdfrwt beam="1">  1        2 0.19894732E+00 0.85500996E+02</pdfrwt>
<pdfrwt beam="2">  1       -2 0.81389253E-02 0.85500996E+02</pdfrwt>
<totfact> 0.16288013E+03</totfact>
</mgrwt>
</event>
<event>
 4    1  0.4941530E-001  0.9427140E+02  0.7546771E-02  0.1292826E+00
         -1   -1    0    0    0  501 -0.00000000000E+00  0.00000000000E+00  0.21167231871E+02  0.21167231871E+02  0.00000000000E+00 0.  1.
          1   -1    0    0  501    0  0.00000000000E+00 -0.00000000000E+00 -0.42200680305E+03  0.42200680305E+03  0.00000000000E+00 0. -1.
         24    1    1    2    0    0  0.36655280668E+02  0.32806574545E+02 -0.18458452354E+03  0.20726442825E+03  0.80419002446E+02 0.  1.
        -24    1    1    2    0    0 -0.36655280668E+02 -0.32806574545E+02 -0.21625504764E+03  0.23590960666E+03  0.80419002446E+02 0. -1.
<mgrwt>
<rscale>  0 0.94271400E+02</rscale>
<asrwt>0</asrwt>
<pdfrwt beam="1">  1        1 0.64924119E-01 0.94271400E+02</pdfrwt>
<pdfrwt beam="2">  1       -1 0.32564974E-02 0.94271400E+02</pdfrwt>
<totfact> 0.17166043E+04</totfact>
</mgrwt>
</event>
<event>
 4    1  0.4941530E-001  0.1142395E+03  0.7546771E-02  0.1252915E+00
         -2   -1    0    0    0  501 -0.00000000000E+00  0.00000000000E+00  0.64248584722E+02  0.64248584722E+02  0.00000000000E+00 0.  1.
          2   -1    0    0  501    0  0.00000000000E+00 -0.00000000000E+00 -0.50996768291E+03  0.50996768291E+03  0.00000000000E+00 0. -1.
         24    1    1    2    0    0  0.65424977537E+02  0.47989682654E+02 -0.44556471819E+03  0.45997670743E+03  0.80419002446E+02 0. -1.
        -24    1    1    2    0    0 -0.65424977537E+02 -0.47989682654E+02 -0.15437999316E+00  0.11423956020E+03  0.80419002446E+02 0.  1.
<mgrwt>
<rscale>  0 0.11423946E+03</rscale>
<asrwt>0</asrwt>
<pdfrwt beam="1">  1        2 0.78456567E-01 0.11423946E+03</pdfrwt>
<pdfrwt beam="2">  1       -2 0.98843977E-02 0.11423946E+03</pdfrwt>
<totfact> 0.39541024E+03</totfact>
</mgrwt>
</event>
<event>
 4    1  0.4941530E-001  0.9590584E+02  0.7546771E-02  0.1289149E+00
         -2   -1    0    0    0  501 -0.00000000000E+00  0.00000000000E+00  0.16306900185E+02  0.16306900185E+02  0.00000000000E+00 0.  1.
          2   -1    0    0  501    0  0.00000000000E+00 -0.00000000000E+00 -0.14370101929E+04  0.14370101929E+04  0.00000000000E+00 0. -1.
         24    1    1    2    0    0  0.51587285758E+02 -0.83345923924E+01 -0.12767178631E+04  0.12803149735E+04  0.80419002446E+02 0. -1.
        -24    1    1    2    0    0 -0.51587285758E+02  0.83345923924E+01 -0.14398542963E+03  0.17300211959E+03  0.80419002446E+02 0.  1.
<mgrwt>
<rscale>  0 0.95905836E+02</rscale>
<asrwt>0</asrwt>
<pdfrwt beam="1">  1        2 0.22107844E+00 0.95905836E+02</pdfrwt>
<pdfrwt beam="2">  1       -2 0.25087544E-02 0.95905836E+02</pdfrwt>
<totfact> 0.78571263E+03</totfact>
</mgrwt>
</event>
<event>
 4    1  0.4941530E-001  0.1320641E+03  0.7546771E-02  0.1224425E+00
          2   -1    0    0  501    0  0.00000000000E+00  0.00000000000E+00  0.17474526891E+04  0.17474526891E+04  0.00000000000E+00 0. -1.
         -2   -1    0    0    0  501 -0.00000000000E+00 -0.00000000000E+00 -0.10741900688E+02  0.10741900688E+02  0.00000000000E+00 0.  1.
         24    1    1    2    0    0  0.80728911108E+02 -0.66757444897E+02  0.11023603176E+04  0.11102428560E+04  0.80419002446E+02 0. -1.
        -24    1    1    2    0    0 -0.80728911108E+02  0.66757444897E+02  0.63435047080E+03  0.64795173377E+03  0.80419002446E+02 0.  1.
<mgrwt>
<rscale>  0 0.13206411E+03</rscale>
<asrwt>0</asrwt>
<pdfrwt beam="1">  1        2 0.26883865E+00 0.13206411E+03</pdfrwt>
<pdfrwt beam="2">  1       -2 0.16526015E-02 0.13206411E+03</pdfrwt>
<totfact> 0.10094763E+04</totfact>
</mgrwt>
</event>
<event>
 4    1  0.4941530E-001  0.9132061E+02  0.7546771E-02  0.1299685E+00
         -2   -1    0    0    0  501 -0.00000000000E+00  0.00000000000E+00  0.44246498828E+01  0.44246498828E+01  0.00000000000E+00 0.  1.
          2   -1    0    0  501    0  0.00000000000E+00 -0.00000000000E+00 -0.19070523267E+04  0.19070523267E+04  0.00000000000E+00 0. -1.
         24    1    1    2    0    0 -0.25187231436E+02 -0.35182961258E+02 -0.10546196745E+04  0.10585660637E+04  0.80419002446E+02 0. -1.
        -24    1    1    2    0    0  0.25187231436E+02  0.35182961258E+02 -0.84800800232E+03  0.85291091290E+03  0.80419002446E+02 0.  1.
<mgrwt>
<rscale>  0 0.91320607E+02</rscale>
<asrwt>0</asrwt>
<pdfrwt beam="1">  1        2 0.29339303E+00 0.91320607E+02</pdfrwt>
<pdfrwt beam="2">  1       -2 0.68071453E-03 0.91320607E+02</pdfrwt>
<totfact> 0.29069012E+04</totfact>
</mgrwt>
</event>
<event>
 4    1  0.4941530E-001  0.9784659E+02  0.7546771E-02  0.1284891E+00
          1   -1    0    0  501    0  0.00000000000E+00  0.00000000000E+00  0.16480212064E+02  0.16480212064E+02  0.00000000000E+00 0. -1.
         -1   -1    0    0    0  501 -0.00000000000E+00 -0.00000000000E+00 -0.89126473894E+03  0.89126473894E+03  0.00000000000E+00 0.  1.
         24    1    1    2    0    0  0.21331889960E+02 -0.51494569240E+02 -0.70521112312E+03  0.71196677192E+03  0.80419002446E+02 0.  0.
        -24    1    1    2    0    0 -0.21331889960E+02  0.51494569240E+02 -0.16957340376E+03  0.19577817909E+03  0.80419002446E+02 0.  1.
<mgrwt>
<rscale>  0 0.97846595E+02</rscale>
<asrwt>0</asrwt>
<pdfrwt beam="1">  1        1 0.25354171E-02 0.97846595E+02</pdfrwt>
<pdfrwt beam="2">  1       -1 0.13711766E+00 0.97846595E+02</pdfrwt>
<totfact> 0.19628894E+03</totfact>
</mgrwt>
</event>
<event>
 4    1  0.4941530E-001  0.8373786E+02  0.7546771E-02  0.1318767E+00
          2   -1    0    0  501    0  0.00000000000E+00  0.00000000000E+00  0.18488887339E+04  0.18488887339E+04  0.00000000000E+00 0. -1.
         -2   -1    0    0    0  501 -0.00000000000E+00 -0.00000000000E+00 -0.39149783756E+01  0.39149783756E+01  0.00000000000E+00 0.  1.
         24    1    1    2    0    0  0.11330423602E+02 -0.20406658414E+02  0.75867193079E+03  0.76327919187E+03  0.80419002446E+02 0.  1.
        -24    1    1    2    0    0 -0.11330423602E+02  0.20406658414E+02  0.10863018247E+04  0.10895245204E+04  0.80419002446E+02 0. -1.
<mgrwt>
<rscale>  0 0.83737852E+02</rscale>
<asrwt>0</asrwt>
<pdfrwt beam="1">  1        2 0.28444372E+00 0.83737863E+02</pdfrwt>
<pdfrwt beam="2">  1       -2 0.60230584E-03 0.83737863E+02</pdfrwt>
<totfact> 0.36667919E+04</totfact>
</mgrwt>
</event>
<event>
 4    1  0.4941530E-001  0.9276218E+02  0.7546771E-02  0.1296297E+00
          2   -1    0    0  501    0  0.00000000000E+00  0.00000000000E+00  0.58870711803E+02  0.58870711803E+02  0.00000000000E+00 0. -1.
         -2   -1    0    0    0  501 -0.00000000000E+00 -0.00000000000E+00 -0.14617974628E+03  0.14617974628E+03  0.00000000000E+00 0.  1.
         24    1    1    2    0    0 -0.11247155472E+02 -0.44845379165E+02 -0.42615859906E+02  0.10208297610E+03  0.80419002446E+02 0. -1.
        -24    1    1    2    0    0  0.11247155472E+02  0.44845379165E+02 -0.44693174568E+02  0.10296748198E+03  0.80419002446E+02 0.  0.
<mgrwt>
<rscale>  0 0.92762182E+02</rscale>
<asrwt>0</asrwt>
<pdfrwt beam="1">  1        2 0.90570327E-02 0.92762182E+02</pdfrwt>
<pdfrwt beam="2">  1       -2 0.22489191E-01 0.92762182E+02</pdfrwt>
<totfact> 0.11222314E+04</totfact>
</mgrwt>
</event>
<event>
 4    1  0.4941530E-001  0.8918680E+02  0.7546771E-02  0.1304833E+00
         -1   -1    0    0    0  501 -0.00000000000E+00  0.00000000000E+00  0.68600068779E+01  0.68600068779E+01  0.00000000000E+00 0.  1.
          1   -1    0    0  501    0  0.00000000000E+00 -0.00000000000E+00 -0.15661188039E+04  0.15661188039E+04  0.00000000000E+00 0. -1.
         24    1    1    2    0    0  0.35423458576E+02  0.15239655862E+02 -0.37888638239E+03  0.38924179535E+03  0.80419002446E+02 0.  1.
        -24    1    1    2    0    0 -0.35423458576E+02 -0.15239655862E+02 -0.11803724147E+04  0.11837370155E+04  0.80419002446E+02 0. -1.
<mgrwt>
<rscale>  0 0.89186795E+02</rscale>
<asrwt>0</asrwt>
<pdfrwt beam="1">  1        1 0.24094157E+00 0.89186795E+02</pdfrwt>
<pdfrwt beam="2">  1       -1 0.10553847E-02 0.89186795E+02</pdfrwt>
<totfact> 0.10698359E+04</totfact>
</mgrwt>
</event>
<event>
 4    1  0.4941530E-001  0.9421314E+02  0.7546771E-02  0.1292958E+00
          2   -1    0    0  501    0  0.00000000000E+00  0.00000000000E+00  0.12982220425E+03  0.12982220425E+03  0.00000000000E+00 0. -1.
         -2   -1    0    0    0  501 -0.00000000000E+00 -0.00000000000E+00 -0.20895394982E+03  0.20895394982E+03  0.00000000000E+00 0.  1.
         24    1    1    2    0    0 -0.14317336903E+02 -0.46945859631E+02  0.99372872519E+02  0.13693459614E+03  0.80419002446E+02 0. -1.
        -24    1    1    2    0    0  0.14317336903E+02  0.46945859631E+02 -0.17850461809E+03  0.20184155793E+03  0.80419002446E+02 0.  1.
<mgrwt>
<rscale>  0 0.94213140E+02</rscale>
<asrwt>0</asrwt>
<pdfrwt beam="1">  1        2 0.19972647E-01 0.94213140E+02</pdfrwt>
<pdfrwt beam="2">  1       -2 0.32146761E-01 0.94213140E+02</pdfrwt>
<totfact> 0.23769718E+03</totfact>
</mgrwt>
</event>
<event>
 4    1  0.4941530E-001  0.9420417E+02  0.7546771E-02  0.1292979E+00
          2   -1    0    0  501    0  0.00000000000E+00  0.00000000000E+00  0.14906694732E+04  0.14906694732E+04  0.00000000000E+00 0. -1.
         -2   -1    0    0    0  501 -0.00000000000E+00 -0.00000000000E+00 -0.71210941848E+01  0.71210941848E+01  0.00000000000E+00 0.  1.
         24    1    1    2    0    0  0.34330392983E+02 -0.35051861475E+02  0.10450432520E+04  0.10492806218E+04  0.80419002446E+02 0. -1.
        -24    1    1    2    0    0 -0.34330392983E+02  0.35051861475E+02  0.43850512705E+03  0.44850994557E+03  0.80419002446E+02 0.  1.
<mgrwt>
<rscale>  0 0.94204166E+02</rscale>
<asrwt>0</asrwt>
<pdfrwt beam="1">  1        2 0.22933352E+00 0.94204166E+02</pdfrwt>
<pdfrwt beam="2">  1       -2 0.10955541E-02 0.94204166E+02</pdfrwt>
<totfact> 0.24126704E+04</totfact>
</mgrwt>
</event>
<event>
 4    1  0.4941530E-001  0.8259685E+02  0.7546771E-02  0.1321839E+00
          2   -1    0    0  501    0  0.00000000000E+00  0.00000000000E+00  0.13957920655E+04  0.13957920655E+04  0.00000000000E+00 0. -1.
         -2   -1    0    0    0  501 -0.00000000000E+00 -0.00000000000E+00 -0.52286736749E+02  0.52286736749E+02  0.00000000000E+00 0.  1.
         24    1    1    2    0    0  0.14395603361E+02 -0.12156926844E+02  0.13611206323E+04  0.13636244409E+04  0.80419002446E+02 0. -1.
        -24    1    1    2    0    0 -0.14395603361E+02  0.12156926844E+02 -0.17615303581E+02  0.84454361291E+02  0.80419002446E+02 0.  1.
<mgrwt>
<rscale>  0 0.82596854E+02</rscale>
<asrwt>0</asrwt>
<pdfrwt beam="1">  1        2 0.21473721E+00 0.82596854E+02</pdfrwt>
<pdfrwt beam="2">  1       -2 0.80441144E-02 0.82596854E+02</pdfrwt>
<totfact> 0.14654624E+03</totfact>
</mgrwt>
</event>
<event>
 4    1  0.4941530E-001  0.9455625E+02  0.7546771E-02  0.1292179E+00
          2   -1    0    0  501    0  0.00000000000E+00  0.00000000000E+00  0.25378741781E+04  0.25378741781E+04  0.00000000000E+00 0. -1.
         -2   -1    0    0    0  501 -0.00000000000E+00 -0.00000000000E+00 -0.86636862572E+01  0.86636862572E+01  0.00000000000E+00 0.  1.
         24    1    1    2    0    0  0.47392784922E+02 -0.15086140642E+02  0.22454044781E+04  0.22473945256E+04  0.80419002446E+02 0. -1.
        -24    1    1    2    0    0 -0.47392784922E+02  0.15086140642E+02  0.28380601378E+03  0.29914333874E+03  0.80419002446E+02 0.  1.
<mgrwt>
<rscale>  0 0.94556246E+02</rscale>
<asrwt>0</asrwt>
<pdfrwt beam="1">  1        2 0.39044159E+00 0.94556246E+02</pdfrwt>
<pdfrwt beam="2">  1       -2 0.13328768E-02 0.94556246E+02</pdfrwt>
<totfact> 0.53480124E+03</totfact>
</mgrwt>
</event>
<event>
 4    1  0.4941530E-001  0.1018650E+03  0.7546771E-02  0.1276422E+00
          2   -1    0    0  501    0  0.00000000000E+00  0.00000000000E+00  0.25364278453E+03  0.25364278453E+03  0.00000000000E+00 0. -1.
         -2   -1    0    0    0  501 -0.00000000000E+00 -0.00000000000E+00 -0.45738477151E+02  0.45738477151E+02  0.00000000000E+00 0.  1.
         24    1    1    2    0    0 -0.18846434573E+02 -0.59616046904E+02  0.15258924390E+03  0.18346649409E+03  0.80419002446E+02 0. -1.
        -24    1    1    2    0    0  0.18846434573E+02  0.59616046904E+02  0.55315063482E+02  0.11591476760E+03  0.80419002446E+02 0.  1.
<mgrwt>
<rscale>  0 0.10186499E+03</rscale>
<asrwt>0</asrwt>
<pdfrwt beam="1">  1        2 0.39021966E-01 0.10186499E+03</pdfrwt>
<pdfrwt beam="2">  1       -2 0.70366890E-02 0.10186499E+03</pdfrwt>
<totfact> 0.13884488E+04</totfact>
</mgrwt>
</event>
<event>
 4    1  0.4941530E-001  0.1017511E+03  0.7546771E-02  0.1276656E+00
         -1   -1    0    0    0  501 -0.00000000000E+00  0.00000000000E+00  0.20147825262E+03  0.20147825262E+03  0.00000000000E+00 0.  1.
          1   -1    0    0  501    0  0.00000000000E+00 -0.00000000000E+00 -0.54854319118E+02  0.54854319118E+02  0.00000000000E+00 0. -1.
         24    1    1    2    0    0  0.10957332340E+02 -0.61367784734E+02  0.10553673544E+03  0.14659906758E+03  0.80419002446E+02 0.  1.
        -24    1    1    2    0    0 -0.10957332340E+02  0.61367784734E+02  0.41087198064E+02  0.10973350416E+03  0.80419002446E+02 0. -1.
<mgrwt>
<rscale>  0 0.10175109E+03</rscale>
<asrwt>0</asrwt>
<pdfrwt beam="1">  1        1 0.84391261E-02 0.10175109E+03</pdfrwt>
<pdfrwt beam="2">  1       -1 0.30996654E-01 0.10175109E+03</pdfrwt>
<totfact> 0.72148163E+03</totfact>
</mgrwt>
</event>
<event>
 4    1  0.4941530E-001  0.1555027E+03  0.7546771E-02  0.1193870E+00
         -1   -1    0    0    0  501 -0.00000000000E+00  0.00000000000E+00  0.23472784364E+02  0.23472784364E+02  0.00000000000E+00 0.  1.
          1   -1    0    0  501    0  0.00000000000E+00 -0.00000000000E+00 -0.13175439361E+04  0.13175439361E+04  0.00000000000E+00 0. -1.
         24    1    1    2    0    0 -0.51468889305E+02 -0.12273884427E+03 -0.33389365813E+03  0.36832874087E+03  0.80419002446E+02 0.  0.
        -24    1    1    2    0    0  0.51468889305E+02  0.12273884427E+03 -0.96017749364E+03  0.97268797962E+03  0.80419002446E+02 0. -1.
<mgrwt>
<rscale>  0 0.15550269E+03</rscale>
<asrwt>0</asrwt>
<pdfrwt beam="1">  1        1 0.20269906E+00 0.15550269E+03</pdfrwt>
<pdfrwt beam="2">  1       -1 0.36111978E-02 0.15550269E+03</pdfrwt>
<totfact> 0.27022089E+03</totfact>
</mgrwt>
</event>
<event>
 4    1  0.4941530E-001  0.8385782E+02  0.7546771E-02  0.1318447E+00
          2   -1    0    0  501    0  0.00000000000E+00  0.00000000000E+00  0.13393613734E+03  0.13393613734E+03  0.00000000000E+00 0. -1.
         -2   -1    0    0    0  501 -0.00000000000E+00 -0.00000000000E+00 -0.76735754161E+02  0.76735754161E+02  0.00000000000E+00 0.  1.
         24    1    1    2    0    0 -0.14220291727E+02  0.19044713384E+02  0.87793611842E+02  0.12140779233E+03  0.80419002446E+02 0. -1.
        -24    1    1    2    0    0  0.14220291727E+02 -0.19044713384E+02 -0.30593228667E+02  0.89264099163E+02  0.80419002446E+02 0.  0.
<mgrwt>
<rscale>  0 0.83857819E+02</rscale>
<asrwt>0</asrwt>
<pdfrwt beam="1">  1        2 0.20605560E-01 0.83857819E+02</pdfrwt>
<pdfrwt beam="2">  1       -2 0.11805501E-01 0.83857819E+02</pdfrwt>
<totfact> 0.12192800E+04</totfact>
</mgrwt>
</event>
<event>
 4    1  0.4941530E-001  0.9733281E+02  0.7546771E-02  0.1286007E+00
         -2   -1    0    0    0  501 -0.00000000000E+00  0.00000000000E+00  0.88195328292E+03  0.88195328292E+03  0.00000000000E+00 0.  1.
          2   -1    0    0  501    0  0.00000000000E+00 -0.00000000000E+00 -0.53412049831E+02  0.53412049831E+02  0.00000000000E+00 0. -1.
         24    1    1    2    0    0  0.54067840582E+02 -0.91174530904E+01 -0.37471747366E+01  0.97404910600E+02  0.80419002446E+02 0. -1.
        -24    1    1    2    0    0 -0.54067840582E+02  0.91174530904E+01  0.83228840783E+03  0.83796042215E+03  0.80419002446E+02 0.  1.
<mgrwt>
<rscale>  0 0.97332807E+02</rscale>
<asrwt>0</asrwt>
<pdfrwt beam="1">  1        2 0.82172391E-02 0.97332807E+02</pdfrwt>
<pdfrwt beam="2">  1       -2 0.13568511E+00 0.97332807E+02</pdfrwt>
<totfact> 0.33040342E+02</totfact>
</mgrwt>
</event>
<event>
 4    1  0.4941530E-001  0.9124172E+02  0.7546771E-02  0.1299872E+00
          2   -1    0    0  501    0  0.00000000000E+00  0.00000000000E+00  0.82687949874E+02  0.82687949874E+02  0.00000000000E+00 0. -1.
         -2   -1    0    0    0  501 -0.00000000000E+00 -0.00000000000E+00 -0.11568916111E+03  0.11568916111E+03  0.00000000000E+00 0.  1.
         24    1    1    2    0    0 -0.43091993748E+02 -0.95655121353E+00  0.19225734364E+02  0.93245266537E+02  0.80419002446E+02 0. -1.
        -24    1    1    2    0    0  0.43091993748E+02  0.95655121353E+00 -0.52226945597E+02  0.10513184444E+03  0.80419002446E+02 0.  1.
<mgrwt>
<rscale>  0 0.91241717E+02</rscale>
<asrwt>0</asrwt>
<pdfrwt beam="1">  1        2 0.12721223E-01 0.91241717E+02</pdfrwt>
<pdfrwt beam="2">  1       -2 0.17798332E-01 0.91241717E+02</pdfrwt>
<totfact> 0.11022450E+04</totfact>
</mgrwt>
</event>
<event>
 4    1  0.4941530E-001  0.8116223E+02  0.7546771E-02  0.1325785E+00
         -1   -1    0    0    0  501 -0.00000000000E+00  0.00000000000E+00  0.72454754332E+03  0.72454754332E+03  0.00000000000E+00 0.  1.
          1   -1    0    0  501    0  0.00000000000E+00 -0.00000000000E+00 -0.13125788705E+02  0.13125788705E+02  0.00000000000E+00 0. -1.
         24    1    1    2    0    0  0.28870271929E+01  0.10571465938E+02  0.56018988108E+03  0.56603887643E+03  0.80419002446E+02 0.  0.
        -24    1    1    2    0    0 -0.28870271929E+01 -0.10571465938E+02  0.15123187354E+03  0.17163445560E+03  0.80419002446E+02 0. -1.
<mgrwt>
<rscale>  0 0.81162225E+02</rscale>
<asrwt>0</asrwt>
<pdfrwt beam="1">  1        1 0.20193527E-02 0.81162225E+02</pdfrwt>
<pdfrwt beam="2">  1       -1 0.11146882E+00 0.81162225E+02</pdfrwt>
<totfact> 0.43125200E+03</totfact>
</mgrwt>
</event>
<event>
 4    1  0.4941530E-001  0.8184311E+02  0.7546771E-02  0.1323901E+00
         -1   -1    0    0    0  501 -0.00000000000E+00  0.00000000000E+00  0.88273702438E+03  0.88273702438E+03  0.00000000000E+00 0.  1.
          1   -1    0    0  501    0  0.00000000000E+00 -0.00000000000E+00 -0.10535755040E+02  0.10535755040E+02  0.00000000000E+00 0. -1.
         24    1    1    2    0    0 -0.30535554526E+01 -0.14891421334E+02  0.67234409041E+03  0.67730707252E+03  0.80419002446E+02 0.  0.
        -24    1    1    2    0    0  0.30535554526E+01  0.14891421334E+02  0.19985717894E+03  0.21596570690E+03  0.80419002446E+02 0.  0.
<mgrwt>
<rscale>  0 0.81843110E+02</rscale>
<asrwt>0</asrwt>
<pdfrwt beam="1">  1        1 0.16208861E-02 0.81843110E+02</pdfrwt>
<pdfrwt beam="2">  1       -1 0.13580564E+00 0.81843110E+02</pdfrwt>
<totfact> 0.36745175E+03</totfact>
</mgrwt>
</event>
<event>
 4    1  0.4941530E-001  0.8977600E+02  0.7546771E-02  0.1303395E+00
          2   -1    0    0  501    0  0.00000000000E+00  0.00000000000E+00  0.70342456811E+02  0.70342456811E+02  0.00000000000E+00 0. -1.
         -2   -1    0    0    0  501 -0.00000000000E+00 -0.00000000000E+00 -0.11632274505E+03  0.11632274505E+03  0.00000000000E+00 0.  1.
         24    1    1    2    0    0 -0.66941484681E+01  0.39340789737E+02 -0.34419420370E+02  0.96147916326E+02  0.80419002446E+02 0. -1.
        -24    1    1    2    0    0  0.66941484681E+01 -0.39340789737E+02 -0.11560867872E+02  0.90517285538E+02  0.80419002446E+02 0. -1.
<mgrwt>
<rscale>  0 0.89775984E+02</rscale>
<asrwt>0</asrwt>
<pdfrwt beam="1">  1        2 0.10821916E-01 0.89775995E+02</pdfrwt>
<pdfrwt beam="2">  1       -2 0.17895807E-01 0.89775995E+02</pdfrwt>
<totfact> 0.13220068E+04</totfact>
</mgrwt>
</event>
<event>
 4    1  0.4941530E-001  0.8117130E+02  0.7546771E-02  0.1325760E+00
          1   -1    0    0  501    0  0.00000000000E+00  0.00000000000E+00  0.34852015984E+03  0.34852015984E+03  0.00000000000E+00 0. -1.
         -1   -1    0    0    0  501 -0.00000000000E+00 -0.00000000000E+00 -0.13700151274E+03  0.13700151274E+03  0.00000000000E+00 0.  1.
         24    1    1    2    0    0 -0.16689054110E-01 -0.11025568849E+02 -0.11963057596E+03  0.14456920179E+03  0.80419002446E+02 0.  0.
        -24    1    1    2    0    0  0.16689054110E-01  0.11025568849E+02  0.33114922307E+03  0.34095247079E+03  0.80419002446E+02 0. -1.
<mgrwt>
<rscale>  0 0.81171297E+02</rscale>
<asrwt>0</asrwt>
<pdfrwt beam="1">  1        1 0.53618486E-01 0.81171297E+02</pdfrwt>
<pdfrwt beam="2">  1       -1 0.21077156E-01 0.81171297E+02</pdfrwt>
<totfact> 0.13048625E+03</totfact>
</mgrwt>
</event>
<event>
 4    1  0.4941530E-001  0.8255547E+02  0.7546771E-02  0.1321952E+00
         -1   -1    0    0    0  501 -0.00000000000E+00  0.00000000000E+00  0.65216093866E+02  0.65216093866E+02  0.00000000000E+00 0.  1.
          1   -1    0    0  501    0  0.00000000000E+00 -0.00000000000E+00 -0.71863199776E+03  0.71863199776E+03  0.00000000000E+00 0. -1.
         24    1    1    2    0    0 -0.65712692505E+01  0.17464473977E+02  0.35599897239E+02  0.89904160464E+02  0.80419002446E+02 0.  1.
        -24    1    1    2    0    0  0.65712692505E+01 -0.17464473977E+02 -0.68901580113E+03  0.69394393116E+03  0.80419002446E+02 0. -1.
<mgrwt>
<rscale>  0 0.82555469E+02</rscale>
<asrwt>0</asrwt>
<pdfrwt beam="1">  1        1 0.11055877E+00 0.82555469E+02</pdfrwt>
<pdfrwt beam="2">  1       -1 0.10033245E-01 0.82555469E+02</pdfrwt>
<totfact> 0.16121710E+03</totfact>
</mgrwt>
</event>
<event>
 4    1  0.4941530E-001  0.8890033E+02  0.7546771E-02  0.1305537E+00
          2   -1    0    0  501    0  0.00000000000E+00  0.00000000000E+00  0.42503380169E+03  0.42503380169E+03  0.00000000000E+00 0. -1.
         -2   -1    0    0    0  501 -0.00000000000E+00 -0.00000000000E+00 -0.21256080440E+02  0.21256080440E+02  0.00000000000E+00 0.  1.
         24    1    1    2    0    0  0.13534172889E+02  0.35396039030E+02  0.28085109117E+03  0.29458547958E+03  0.80419002446E+02 0. -1.
        -24    1    1    2    0    0 -0.13534172889E+02 -0.35396039030E+02  0.12292663007E+03  0.15170440254E+03  0.80419002446E+02 0.  1.
<mgrwt>
<rscale>  0 0.88900334E+02</rscale>
<asrwt>0</asrwt>
<pdfrwt beam="1">  1        2 0.65389809E-01 0.88900334E+02</pdfrwt>
<pdfrwt beam="2">  1       -2 0.32701666E-02 0.88900334E+02</pdfrwt>
<totfact> 0.24873850E+04</totfact>
</mgrwt>
</event>
<event>
 4    1  0.4941530E-001  0.8056134E+02  0.7546771E-02  0.1327466E+00
         -2   -1    0    0    0  501 -0.00000000000E+00  0.00000000000E+00  0.61108557665E+01  0.61108557665E+01  0.00000000000E+00 0.  1.
          2   -1    0    0  501    0  0.00000000000E+00 -0.00000000000E+00 -0.21722112577E+04  0.21722112577E+04  0.00000000000E+00 0. -1.
         24    1    1    2    0    0  0.30906427970E+01  0.36553692213E+01 -0.18616800617E+04  0.18634223305E+04  0.80419002446E+02 0.  0.
        -24    1    1    2    0    0 -0.30906427970E+01 -0.36553692213E+01 -0.30442034023E+03  0.31489978294E+03  0.80419002446E+02 0.  1.
<mgrwt>
<rscale>  0 0.80561342E+02</rscale>
<asrwt>0</asrwt>
<pdfrwt beam="1">  1        2 0.33418688E+00 0.80561342E+02</pdfrwt>
<pdfrwt beam="2">  1       -2 0.94013015E-03 0.80561342E+02</pdfrwt>
<totfact> 0.13473636E+04</totfact>
</mgrwt>
</event>
<event>
 4    1  0.4941530E-001  0.8147551E+02  0.7546771E-02  0.1324916E+00
          4   -1    0    0  501    0  0.00000000000E+00  0.00000000000E+00  0.18421619719E+03  0.18421619719E+03  0.00000000000E+00 0. -1.
         -4   -1    0    0    0  501 -0.00000000000E+00 -0.00000000000E+00 -0.36087475360E+02  0.36087475360E+02  0.00000000000E+00 0.  1.
         24    1    1    2    0    0 -0.29628364794E+01  0.12738278503E+02  0.78258803125E+02  0.11297211320E+03  0.80419002446E+02 0.  1.
        -24    1    1    2    0    0  0.29628364794E+01 -0.12738278503E+02  0.69869918707E+02  0.10733155936E+03  0.80419002446E+02 0. -1.
<mgrwt>
<rscale>  0 0.81475506E+02</rscale>
<asrwt>0</asrwt>
<pdfrwt beam="1">  1        4 0.28340953E-01 0.81475506E+02</pdfrwt>
<pdfrwt beam="2">  1       -4 0.55519194E-02 0.81475506E+02</pdfrwt>
<totfact> 0.34171022E+03</totfact>
</mgrwt>
</event>
<event>
 4    1  0.4941530E-001  0.8083930E+02  0.7546771E-02  0.1326686E+00
          2   -1    0    0  501    0  0.00000000000E+00  0.00000000000E+00  0.15421111457E+03  0.15421111457E+03  0.00000000000E+00 0. -1.
         -2   -1    0    0    0  501 -0.00000000000E+00 -0.00000000000E+00 -0.42397617796E+02  0.42397617796E+02  0.00000000000E+00 0.  1.
         24    1    1    2    0    0  0.80772445305E+01 -0.15908513206E+01  0.53733562220E+02  0.97068451880E+02  0.80419002446E+02 0.  0.
        -24    1    1    2    0    0 -0.80772445305E+01  0.15908513206E+01  0.58079934553E+02  0.99540280486E+02  0.80419002446E+02 0.  1.
<mgrwt>
<rscale>  0 0.80839287E+02</rscale>
<asrwt>0</asrwt>
<pdfrwt beam="1">  1        2 0.23724787E-01 0.80839297E+02</pdfrwt>
<pdfrwt beam="2">  1       -2 0.65227105E-02 0.80839297E+02</pdfrwt>
<totfact> 0.25868545E+04</totfact>
</mgrwt>
</event>
<event>
 4    1  0.4941530E-001  0.9115324E+02  0.7546771E-02  0.1300083E+00
          1   -1    0    0  501    0  0.00000000000E+00  0.00000000000E+00  0.94557521980E+02  0.94557521980E+02  0.00000000000E+00 0. -1.
         -1   -1    0    0    0  501 -0.00000000000E+00 -0.00000000000E+00 -0.87871551165E+02  0.87871551165E+02  0.00000000000E+00 0.  1.
         24    1    1    2    0    0 -0.36995095690E+02  0.21749855090E+02  0.34259550453E+01  0.91217577385E+02  0.80419002446E+02 0.  1.
        -24    1    1    2    0    0  0.36995095690E+02 -0.21749855090E+02  0.32600157700E+01  0.91211495760E+02  0.80419002446E+02 0. -1.
<mgrwt>
<rscale>  0 0.91153230E+02</rscale>
<asrwt>0</asrwt>
<pdfrwt beam="1">  1        1 0.14547311E-01 0.91153241E+02</pdfrwt>
<pdfrwt beam="2">  1       -1 0.13518700E-01 0.91153241E+02</pdfrwt>
<totfact> 0.13225736E+04</totfact>
</mgrwt>
</event>
<event>
 4    1  0.4941530E-001  0.8140911E+02  0.7546771E-02  0.1325100E+00
          2   -1    0    0  501    0  0.00000000000E+00  0.00000000000E+00  0.41077399866E+03  0.41077399866E+03  0.00000000000E+00 0. -1.
         -2   -1    0    0    0  501 -0.00000000000E+00 -0.00000000000E+00 -0.71702039125E+02  0.71702039125E+02  0.00000000000E+00 0.  1.
         24    1    1    2    0    0 -0.23861249102E+01  0.12431124333E+02  0.38190560269E+03  0.39048601993E+03  0.80419002446E+02 0. -1.
        -24    1    1    2    0    0  0.23861249102E+01 -0.12431124333E+02 -0.42833643153E+02  0.91990017852E+02  0.80419002446E+02 0.  1.
<mgrwt>
<rscale>  0 0.81409105E+02</rscale>
<asrwt>0</asrwt>
<pdfrwt beam="1">  1        2 0.63195998E-01 0.81409105E+02</pdfrwt>
<pdfrwt beam="2">  1       -2 0.11031083E-01 0.81409105E+02</pdfrwt>
<totfact> 0.41206735E+03</totfact>
</mgrwt>
</event>
<event>
 4    1  0.4941530E-001  0.8223550E+02  0.7546771E-02  0.1322825E+00
         -3   -1    0    0    0  501 -0.00000000000E+00  0.00000000000E+00  0.51975473176E+03  0.51975473176E+03  0.00000000000E+00 0.  1.
          3   -1    0    0  501    0  0.00000000000E+00 -0.00000000000E+00 -0.13089874873E+02  0.13089874873E+02  0.00000000000E+00 0. -1.
         24    1    1    2    0    0 -0.44331117123E+01 -0.16607405772E+02  0.23268814256E+03  0.24679231359E+03  0.80419002446E+02 0. -1.
        -24    1    1    2    0    0  0.44331117123E+01  0.16607405772E+02  0.27397671433E+03  0.28605229304E+03  0.80419002446E+02 0.  1.
<mgrwt>
<rscale>  0 0.82235491E+02</rscale>
<asrwt>0</asrwt>
<pdfrwt beam="1">  1        3 0.20138273E-02 0.82235502E+02</pdfrwt>
<pdfrwt beam="2">  1       -3 0.79962250E-01 0.82235502E+02</pdfrwt>
<totfact> 0.29111040E+03</totfact>
</mgrwt>
</event>
<event>
 4    1  0.4941530E-001  0.8899897E+02  0.7546771E-02  0.1305294E+00
         -1   -1    0    0    0  501 -0.00000000000E+00  0.00000000000E+00  0.40073549836E+02  0.40073549836E+02  0.00000000000E+00 0.  1.
          1   -1    0    0  501    0  0.00000000000E+00 -0.00000000000E+00 -0.47841309044E+03  0.47841309044E+03  0.00000000000E+00 0. -1.
         24    1    1    2    0    0  0.10634437258E+02  0.36612978588E+02 -0.20573702536E+02  0.91346016045E+02  0.80419002446E+02 0.  1.
        -24    1    1    2    0    0 -0.10634437258E+02 -0.36612978588E+02 -0.41776583807E+03  0.42714062423E+03  0.80419002446E+02 0. -1.
<mgrwt>
<rscale>  0 0.88998974E+02</rscale>
<asrwt>0</asrwt>
<pdfrwt beam="1">  1        1 0.73602012E-01 0.88998974E+02</pdfrwt>
<pdfrwt beam="2">  1       -1 0.61651617E-02 0.88998974E+02</pdfrwt>
<totfact> 0.57485114E+03</totfact>
</mgrwt>
</event>
<event>
 4    1  0.4941530E-001  0.8680185E+02  0.7546771E-02  0.1310787E+00
         -2   -1    0    0    0  501 -0.00000000000E+00  0.00000000000E+00  0.36436699378E+01  0.36436699378E+01  0.00000000000E+00 0.  1.
          2   -1    0    0  501    0  0.00000000000E+00 -0.00000000000E+00 -0.40325996534E+04  0.40325996534E+04  0.00000000000E+00 0. -1.
         24    1    1    2    0    0  0.31459255739E+02  0.88125314052E+01 -0.34231453265E+04  0.34242456816E+04  0.80419002446E+02 0. -1.
        -24    1    1    2    0    0 -0.31459255739E+02 -0.88125314052E+01 -0.60581065693E+03  0.61199764173E+03  0.80419002446E+02 0.  1.
<mgrwt>
<rscale>  0 0.86801852E+02</rscale>
<asrwt>0</asrwt>
<pdfrwt beam="1">  1        2 0.62040359E+00 0.86801852E+02</pdfrwt>
<pdfrwt beam="2">  1       -2 0.56056132E-03 0.86801852E+02</pdfrwt>
<totfact> 0.21866472E+03</totfact>
</mgrwt>
</event>
<event>
 4    1  0.4941530E-001  0.8268284E+02  0.7546771E-02  0.1321606E+00
         -2   -1    0    0    0  501 -0.00000000000E+00  0.00000000000E+00  0.71313565088E+01  0.71313565088E+01  0.00000000000E+00 0.  1.
          2   -1    0    0  501    0  0.00000000000E+00 -0.00000000000E+00 -0.12109088779E+04  0.12109088779E+04  0.00000000000E+00 0. -1.
         24    1    1    2    0    0 -0.13148920633E+02 -0.14012203840E+02 -0.87986131124E+03  0.88373773199E+03  0.80419002446E+02 0. -1.
        -24    1    1    2    0    0  0.13148920633E+02  0.14012203840E+02 -0.32391621012E+03  0.33430250239E+03  0.80419002446E+02 0.  1.
<mgrwt>
<rscale>  0 0.82682839E+02</rscale>
<asrwt>0</asrwt>
<pdfrwt beam="1">  1        2 0.18629384E+00 0.82682839E+02</pdfrwt>
<pdfrwt beam="2">  1       -2 0.10971308E-02 0.82682839E+02</pdfrwt>
<totfact> 0.33356674E+04</totfact>
</mgrwt>
</event>
<event>
 4    1  0.4941530E-001  0.8170038E+02  0.7546771E-02  0.1324294E+00
          1   -1    0    0  501    0  0.00000000000E+00  0.00000000000E+00  0.14149256182E+04  0.14149256182E+04  0.00000000000E+00 0. -1.
         -1   -1    0    0    0  501 -0.00000000000E+00 -0.00000000000E+00 -0.64864505502E+01  0.64864505502E+01  0.00000000000E+00 0.  1.
         24    1    1    2    0    0 -0.85097362876E+01  0.11632711116E+02  0.33307696384E+03  0.34295074773E+03  0.80419002446E+02 0.  0.
        -24    1    1    2    0    0  0.85097362876E+01 -0.11632711116E+02  0.10753622038E+04  0.10784613210E+04  0.80419002446E+02 0. -1.
<mgrwt>
<rscale>  0 0.81700377E+02</rscale>
<asrwt>0</asrwt>
<pdfrwt beam="1">  1        1 0.21768062E+00 0.81700377E+02</pdfrwt>
<pdfrwt beam="2">  1       -1 0.99791659E-03 0.81700377E+02</pdfrwt>
<totfact> 0.14369339E+04</totfact>
</mgrwt>
</event>
<event>
 4    1  0.4941530E-001  0.8077685E+02  0.7546771E-02  0.1326861E+00
         -1   -1    0    0    0  501 -0.00000000000E+00  0.00000000000E+00  0.91589447402E+02  0.91589447402E+02  0.00000000000E+00 0.  1.
          1   -1    0    0  501    0  0.00000000000E+00 -0.00000000000E+00 -0.20743938301E+03  0.20743938301E+03  0.00000000000E+00 0. -1.
         24    1    1    2    0    0 -0.14758129820E+00  0.75935399025E+01  0.63225154867E+02  0.10257835927E+03  0.80419002446E+02 0.  0.
        -24    1    1    2    0    0  0.14758129820E+00 -0.75935399025E+01 -0.17907509047E+03  0.19645047114E+03  0.80419002446E+02 0. -1.
<mgrwt>
<rscale>  0 0.80776851E+02</rscale>
<asrwt>0</asrwt>
<pdfrwt beam="1">  1        1 0.31913751E-01 0.80776851E+02</pdfrwt>
<pdfrwt beam="2">  1       -1 0.14090684E-01 0.80776851E+02</pdfrwt>
<totfact> 0.46037325E+03</totfact>
</mgrwt>
</event>
<event>
 4    1  0.4941530E-001  0.8981804E+02  0.7546771E-02  0.1303293E+00
         -1   -1    0    0    0  501 -0.00000000000E+00  0.00000000000E+00  0.67707882082E+01  0.67707882082E+01  0.00000000000E+00 0.  1.
          1   -1    0    0  501    0  0.00000000000E+00 -0.00000000000E+00 -0.14678164108E+04  0.14678164108E+04  0.00000000000E+00 0. -1.
         24    1    1    2    0    0  0.35363846915E+02  0.18693937042E+02 -0.41061777492E+03  0.42032634701E+03  0.80419002446E+02 0.  1.
        -24    1    1    2    0    0 -0.35363846915E+02 -0.18693937042E+02 -0.10504278477E+04  0.10542608520E+04  0.80419002446E+02 0. -1.
<mgrwt>
<rscale>  0 0.89818043E+02</rscale>
<asrwt>0</asrwt>
<pdfrwt beam="1">  1        1 0.22581801E+00 0.89818043E+02</pdfrwt>
<pdfrwt beam="2">  1       -1 0.10416593E-02 0.89818043E+02</pdfrwt>
<totfact> 0.12592887E+04</totfact>
</mgrwt>
</event>
<event>
 4    1  0.4941530E-001  0.1109067E+03  0.7546771E-02  0.1258900E+00
         -1   -1    0    0    0  501 -0.00000000000E+00  0.00000000000E+00  0.20519922597E+02  0.20519922597E+02  0.00000000000E+00 0.  1.
          1   -1    0    0  501    0  0.00000000000E+00 -0.00000000000E+00 -0.22701764495E+04  0.22701764495E+04  0.00000000000E+00 0. -1.
         24    1    1    2    0    0  0.88597392039E+01  0.75858969309E+02 -0.14225992716E+03  0.18038342782E+03  0.80419002446E+02 0.  1.
        -24    1    1    2    0    0 -0.88597392039E+01 -0.75858969309E+02 -0.21073965998E+04  0.21103129443E+04  0.80419002446E+02 0. -1.
<mgrwt>
<rscale>  0 0.11090669E+03</rscale>
<asrwt>0</asrwt>
<pdfrwt beam="1">  1        1 0.34925792E+00 0.11090669E+03</pdfrwt>
<pdfrwt beam="2">  1       -1 0.31569111E-02 0.11090669E+03</pdfrwt>
<totfact> 0.80702705E+02</totfact>
</mgrwt>
</event>
<event>
 4    1  0.4941530E-001  0.1114396E+03  0.7546771E-02  0.1257927E+00
          1   -1    0    0  501    0  0.00000000000E+00  0.00000000000E+00  0.17036072545E+03  0.17036072545E+03  0.00000000000E+00 0. -1.
         -1   -1    0    0    0  501 -0.00000000000E+00 -0.00000000000E+00 -0.11523595592E+03  0.11523595592E+03  0.00000000000E+00 0.  1.
         24    1    1    2    0    0  0.19668429718E+01  0.77121329762E+02 -0.58994035118E+02  0.12609155447E+03  0.80419002446E+02 0.  1.
        -24    1    1    2    0    0 -0.19668429718E+01 -0.77121329762E+02  0.11411880465E+03  0.15950512689E+03  0.80419002446E+02 0. -1.
<mgrwt>
<rscale>  0 0.11143960E+03</rscale>
<asrwt>0</asrwt>
<pdfrwt beam="1">  1        1 0.26209342E-01 0.11143960E+03</pdfrwt>
<pdfrwt beam="2">  1       -1 0.17728609E-01 0.11143960E+03</pdfrwt>
<totfact> 0.41909113E+03</totfact>
</mgrwt>
</event>
<event>
 4    1  0.4941530E-001  0.1431261E+03  0.7546771E-02  0.1209183E+00
         -3   -1    0    0    0  501 -0.00000000000E+00  0.00000000000E+00  0.44231706460E+02  0.44231706460E+02  0.00000000000E+00 0.  1.
          3   -1    0    0  501    0  0.00000000000E+00 -0.00000000000E+00 -0.73597503809E+03  0.73597503809E+03  0.00000000000E+00 0. -1.
         24    1    1    2    0    0 -0.70670195694E+02 -0.94992608025E+02 -0.10834894967E+03  0.17951206920E+03  0.80419002446E+02 0.  1.
        -24    1    1    2    0    0  0.70670195694E+02  0.94992608025E+02 -0.58339438197E+03  0.60069467536E+03  0.80419002446E+02 0. -1.
<mgrwt>
<rscale>  0 0.14312613E+03</rscale>
<asrwt>0</asrwt>
<pdfrwt beam="1">  1        3 0.11322692E+00 0.14312613E+03</pdfrwt>
<pdfrwt beam="2">  1       -3 0.68048782E-02 0.14312613E+03</pdfrwt>
<totfact> 0.22208447E+02</totfact>
</mgrwt>
</event>
<event>
 4    1  0.4941530E-001  0.8353833E+02  0.7546771E-02  0.1319300E+00
         -1   -1    0    0    0  501 -0.00000000000E+00  0.00000000000E+00  0.83539181982E+01  0.83539181982E+01  0.00000000000E+00 0.  1.
          1   -1    0    0  501    0  0.00000000000E+00 -0.00000000000E+00 -0.10271572748E+04  0.10271572748E+04  0.00000000000E+00 0. -1.
         24    1    1    2    0    0  0.13235590043E+02 -0.18337261810E+02 -0.28567854501E+03  0.29764220643E+03  0.80419002446E+02 0.  1.
        -24    1    1    2    0    0 -0.13235590043E+02  0.18337261810E+02 -0.73312481155E+03  0.73786898653E+03  0.80419002446E+02 0. -1.
<mgrwt>
<rscale>  0 0.83538326E+02</rscale>
<asrwt>0</asrwt>
<pdfrwt beam="1">  1        1 0.15802416E+00 0.83538326E+02</pdfrwt>
<pdfrwt beam="2">  1       -1 0.12852185E-02 0.83538326E+02</pdfrwt>
<totfact> 0.18325098E+04</totfact>
</mgrwt>
</event>
<event>
 4    1  0.4941530E-001  0.8179224E+02  0.7546771E-02  0.1324041E+00
          1   -1    0    0  501    0  0.00000000000E+00  0.00000000000E+00  0.21878162153E+03  0.21878162153E+03  0.00000000000E+00 0. -1.
         -1   -1    0    0    0  501 -0.00000000000E+00 -0.00000000000E+00 -0.71068960199E+02  0.71068960199E+02  0.00000000000E+00 0.  1.
         24    1    1    2    0    0 -0.13041705093E+02  0.72573192324E+01 -0.35534674512E+02  0.89177821240E+02  0.80419002446E+02 0.  1.
        -24    1    1    2    0    0  0.13041705093E+02 -0.72573192324E+01  0.18324733584E+03  0.20067276048E+03  0.80419002446E+02 0. -1.
<mgrwt>
<rscale>  0 0.81792241E+02</rscale>
<asrwt>0</asrwt>
<pdfrwt beam="1">  1        1 0.33658711E-01 0.81792241E+02</pdfrwt>
<pdfrwt beam="2">  1       -1 0.10933686E-01 0.81792241E+02</pdfrwt>
<totfact> 0.63581638E+03</totfact>
</mgrwt>
</event>
<event>
 4    1  0.4941530E-001  0.1130840E+03  0.7546771E-02  0.1254963E+00
         -3   -1    0    0    0  501 -0.00000000000E+00  0.00000000000E+00  0.83985434613E+02  0.83985434613E+02  0.00000000000E+00 0.  1.
          3   -1    0    0  501    0  0.00000000000E+00 -0.00000000000E+00 -0.16486855489E+03  0.16486855489E+03  0.00000000000E+00 0. -1.
         24    1    1    2    0    0 -0.24980805133E+02 -0.75476663904E+02 -0.60379282114E+01  0.11324504382E+03  0.80419002446E+02 0.  0.
        -24    1    1    2    0    0  0.24980805133E+02  0.75476663904E+02 -0.74845192069E+02  0.13560894568E+03  0.80419002446E+02 0. -1.
<mgrwt>
<rscale>  0 0.11308397E+03</rscale>
<asrwt>0</asrwt>
<pdfrwt beam="1">  1        3 0.25364393E-01 0.11308397E+03</pdfrwt>
<pdfrwt beam="2">  1       -3 0.12920836E-01 0.11308397E+03</pdfrwt>
<totfact> 0.15604246E+03</totfact>
</mgrwt>
</event>
<event>
 4    1  0.4941530E-001  0.8471660E+02  0.7546771E-02  0.1316175E+00
         -2   -1    0    0    0  501 -0.00000000000E+00  0.00000000000E+00  0.43905840725E+01  0.43905840725E+01  0.00000000000E+00 0.  1.
          2   -1    0    0  501    0  0.00000000000E+00 -0.00000000000E+00 -0.24996205975E+04  0.24996205975E+04  0.00000000000E+00 0. -1.
         24    1    1    2    0    0  0.22578815701E+02  0.14138040256E+02 -0.19841261787E+04  0.19859339354E+04  0.80419002446E+02 0. -1.
        -24    1    1    2    0    0 -0.22578815701E+02 -0.14138040256E+02 -0.51110383478E+03  0.51807724616E+03  0.80419002446E+02 0.  1.
<mgrwt>
<rscale>  0 0.84716604E+02</rscale>
<asrwt>0</asrwt>
<pdfrwt beam="1">  1        2 0.38455662E+00 0.84716604E+02</pdfrwt>
<pdfrwt beam="2">  1       -2 0.67547517E-03 0.84716604E+02</pdfrwt>
<totfact> 0.14601719E+04</totfact>
</mgrwt>
</event>
<event>
 4    1  0.4941530E-001  0.8664110E+02  0.7546771E-02  0.1311196E+00
         -1   -1    0    0    0  501 -0.00000000000E+00  0.00000000000E+00  0.76928764053E+02  0.76928764053E+02  0.00000000000E+00 0.  1.
          1   -1    0    0  501    0  0.00000000000E+00 -0.00000000000E+00 -0.10454107217E+04  0.10454107217E+04  0.00000000000E+00 0. -1.
         24    1    1    2    0    0  0.27447614693E+02 -0.16914252942E+02  0.50097253921E+02  0.10008203790E+03  0.80419002446E+02 0.  1.
        -24    1    1    2    0    0 -0.27447614693E+02  0.16914252942E+02 -0.10185792116E+04  0.10222574479E+04  0.80419002446E+02 0.  0.
<mgrwt>
<rscale>  0 0.86641096E+02</rscale>
<asrwt>0</asrwt>
<pdfrwt beam="1">  1        1 0.16083241E+00 0.86641096E+02</pdfrwt>
<pdfrwt beam="2">  1       -1 0.11835195E-01 0.86641096E+02</pdfrwt>
<totfact> 0.70504353E+02</totfact>
</mgrwt>
</event>
<event>
 4    1  0.4941530E-001  0.8338499E+02  0.7546771E-02  0.1319711E+00
         -2   -1    0    0    0  501 -0.00000000000E+00  0.00000000000E+00  0.23388140979E+02  0.23388140979E+02  0.00000000000E+00 0.  1.
          2   -1    0    0  501    0  0.00000000000E+00 -0.00000000000E+00 -0.16019512442E+04  0.16019512442E+04  0.00000000000E+00 0. -1.
         24    1    1    2    0    0 -0.14987862016E+02 -0.16161835739E+02 -0.15226771895E+04  0.15249586487E+04  0.80419002446E+02 0. -1.
        -24    1    1    2    0    0  0.14987862016E+02  0.16161835739E+02 -0.55885913698E+02  0.10038073643E+03  0.80419002446E+02 0.  1.
<mgrwt>
<rscale>  0 0.83384992E+02</rscale>
<asrwt>0</asrwt>
<pdfrwt beam="1">  1        2 0.24645412E+00 0.83384992E+02</pdfrwt>
<pdfrwt beam="2">  1       -2 0.35981743E-02 0.83384992E+02</pdfrwt>
<totfact> 0.38140082E+03</totfact>
</mgrwt>
</event>
<event>
 4    1  0.4941530E-001  0.1068182E+03  0.7546771E-02  0.1266578E+00
         -2   -1    0    0    0  501 -0.00000000000E+00  0.00000000000E+00  0.77986324957E+02  0.77986324957E+02  0.00000000000E+00 0.  1.
          2   -1    0    0  501    0  0.00000000000E+00 -0.00000000000E+00 -0.15936950285E+03  0.15936950285E+03  0.00000000000E+00 0. -1.
         24    1    1    2    0    0 -0.21766827498E+02 -0.66851400585E+02 -0.74665311398E+02  0.13032662514E+03  0.80419002446E+02 0.  0.
        -24    1    1    2    0    0  0.21766827498E+02  0.66851400585E+02 -0.67178664965E+01  0.10702920267E+03  0.80419002446E+02 0. -1.
<mgrwt>
<rscale>  0 0.10681817E+03</rscale>
<asrwt>0</asrwt>
<pdfrwt beam="1">  1        2 0.24518385E-01 0.10681817E+03</pdfrwt>
<pdfrwt beam="2">  1       -2 0.11997896E-01 0.10681817E+03</pdfrwt>
<totfact> 0.10034544E+04</totfact>
</mgrwt>
</event>
<event>
 4    1  0.4941530E-001  0.9364432E+02  0.7546771E-02  0.1294259E+00
          3   -1    0    0  501    0  0.00000000000E+00  0.00000000000E+00  0.48174201236E+02  0.48174201236E+02  0.00000000000E+00 0. -1.
         -3   -1    0    0    0  501 -0.00000000000E+00 -0.00000000000E+00 -0.18204575272E+03  0.18204575272E+03  0.00000000000E+00 0.  1.
         24    1    1    2    0    0  0.17932881966E+02 -0.44502297776E+02 -0.67926778563E+02  0.11568623930E+03  0.80419002446E+02 0.  1.
        -24    1    1    2    0    0 -0.17932881966E+02  0.44502297776E+02 -0.65944772920E+02  0.11453371466E+03  0.80419002446E+02 0. -1.
<mgrwt>
<rscale>  0 0.93644320E+02</rscale>
<asrwt>0</asrwt>
<pdfrwt beam="1">  1        3 0.74114155E-02 0.93644320E+02</pdfrwt>
<pdfrwt beam="2">  1       -3 0.28007039E-01 0.93644320E+02</pdfrwt>
<totfact> 0.31280769E+03</totfact>
</mgrwt>
</event>
<event>
 4    1  0.4941530E-001  0.8922850E+02  0.7546771E-02  0.1304731E+00
         -1   -1    0    0    0  501 -0.00000000000E+00  0.00000000000E+00  0.11840216992E+03  0.11840216992E+03  0.00000000000E+00 0.  1.
          1   -1    0    0  501    0  0.00000000000E+00 -0.00000000000E+00 -0.98964160048E+02  0.98964160048E+02  0.00000000000E+00 0. -1.
         24    1    1    2    0    0  0.36230260001E+02 -0.13486165862E+02  0.71250492838E+02  0.11418562560E+03  0.80419002446E+02 0.  1.
        -24    1    1    2    0    0 -0.36230260001E+02  0.13486165862E+02 -0.51812482963E+02  0.10318070437E+03  0.80419002446E+02 0. -1.
<mgrwt>
<rscale>  0 0.89228495E+02</rscale>
<asrwt>0</asrwt>
<pdfrwt beam="1">  1        1 0.15225255E-01 0.89228495E+02</pdfrwt>
<pdfrwt beam="2">  1       -1 0.18215719E-01 0.89228495E+02</pdfrwt>
<totfact> 0.78297156E+03</totfact>
</mgrwt>
</event>
<event>
 4    1  0.4941530E-001  0.8708906E+02  0.7546771E-02  0.1310058E+00
         -1   -1    0    0    0  501 -0.00000000000E+00  0.00000000000E+00  0.15247141566E+02  0.15247141566E+02  0.00000000000E+00 0. -1.
          1   -1    0    0  501    0  0.00000000000E+00 -0.00000000000E+00 -0.50477076667E+03  0.50477076667E+03  0.00000000000E+00 0.  1.
         24    1    1    2    0    0 -0.12430041436E+02  0.31028741442E+02 -0.21342312366E+03  0.23050799204E+03  0.80419002446E+02 0.  1.
        -24    1    1    2    0    0  0.12430041436E+02 -0.31028741442E+02 -0.27610050144E+03  0.28950991620E+03  0.80419002446E+02 0.  1.
<mgrwt>
<rscale>  0 0.87089062E+02</rscale>
<asrwt>0</asrwt>
<pdfrwt beam="1">  1        1 0.77657041E-01 0.87089062E+02</pdfrwt>
<pdfrwt beam="2">  1       -1 0.23457141E-02 0.87089062E+02</pdfrwt>
<totfact> 0.21747252E+04</totfact>
</mgrwt>
</event>
<event>
 4    1  0.4941530E-001  0.8532863E+02  0.7546771E-02  0.1314575E+00
         -2   -1    0    0    0  501 -0.00000000000E+00  0.00000000000E+00  0.26732056850E+01  0.26732056850E+01  0.00000000000E+00 0.  1.
          2   -1    0    0  501    0  0.00000000000E+00 -0.00000000000E+00 -0.27565018549E+04  0.27565018549E+04  0.00000000000E+00 0. -1.
         24    1    1    2    0    0 -0.28087142428E+02  0.49871327498E+01 -0.15274386657E+04  0.15298202026E+04  0.80419002446E+02 0.  1.
        -24    1    1    2    0    0  0.28087142428E+02 -0.49871327498E+01 -0.12263899836E+04  0.12293548580E+04  0.80419002446E+02 0. -1.
<mgrwt>
<rscale>  0 0.85328630E+02</rscale>
<asrwt>0</asrwt>
<pdfrwt beam="1">  1        2 0.42407774E+00 0.85328630E+02</pdfrwt>
<pdfrwt beam="2">  1       -2 0.41126190E-03 0.85328630E+02</pdfrwt>
<totfact> 0.21342887E+04</totfact>
</mgrwt>
</event>
<event>
 4    1  0.4941530E-001  0.8297896E+02  0.7546771E-02  0.1320804E+00
          2   -1    0    0  501    0  0.00000000000E+00  0.00000000000E+00  0.11577870085E+04  0.11577870085E+04  0.00000000000E+00 0. -1.
         -2   -1    0    0    0  501 -0.00000000000E+00 -0.00000000000E+00 -0.15094232652E+02  0.15094232652E+02  0.00000000000E+00 0.  1.
         24    1    1    2    0    0  0.70002772200E+01  0.19216871944E+02  0.10278669457E+04  0.10312109222E+04  0.80419002446E+02 0. -1.
        -24    1    1    2    0    0 -0.70002772200E+01 -0.19216871944E+02  0.11482583015E+03  0.14167031896E+03  0.80419002446E+02 0.  1.
<mgrwt>
<rscale>  0 0.82978961E+02</rscale>
<asrwt>0</asrwt>
<pdfrwt beam="1">  1        2 0.17812101E+00 0.82978961E+02</pdfrwt>
<pdfrwt beam="2">  1       -2 0.23221906E-02 0.82978961E+02</pdfrwt>
<totfact> 0.12247435E+04</totfact>
</mgrwt>
</event>
<event>
 4    1  0.4941530E-001  0.8679805E+02  0.7546771E-02  0.1310796E+00
          2   -1    0    0  501    0  0.00000000000E+00  0.00000000000E+00  0.51487187642E+03  0.51487187642E+03  0.00000000000E+00 0. -1.
         -2   -1    0    0    0  501 -0.00000000000E+00 -0.00000000000E+00 -0.24062317789E+02  0.24062317789E+02  0.00000000000E+00 0.  1.
         24    1    1    2    0    0  0.27251738188E+02 -0.18000763769E+02  0.41409385858E+03  0.42309292644E+03  0.80419002446E+02 0. -1.
        -24    1    1    2    0    0 -0.27251738188E+02  0.18000763769E+02  0.76715700047E+02  0.11584126777E+03  0.80419002446E+02 0.  1.
<mgrwt>
<rscale>  0 0.86798045E+02</rscale>
<asrwt>0</asrwt>
<pdfrwt beam="1">  1        2 0.79211050E-01 0.86798045E+02</pdfrwt>
<pdfrwt beam="2">  1       -2 0.37018954E-02 0.86798045E+02</pdfrwt>
<totfact> 0.16863502E+04</totfact>
</mgrwt>
</event>
<event>
 4    1  0.4941530E-001  0.1056421E+03  0.7546771E-02  0.1268860E+00
          2   -1    0    0  501    0  0.00000000000E+00  0.00000000000E+00  0.28319502573E+04  0.28319502573E+04  0.00000000000E+00 0. -1.
         -2   -1    0    0    0  501 -0.00000000000E+00 -0.00000000000E+00 -0.58044051806E+01  0.58044051806E+01  0.00000000000E+00 0.  1.
         24    1    1    2    0    0  0.22923721789E+02 -0.64556514374E+02  0.22170405202E+04  0.22195560197E+04  0.80419002446E+02 0. -1.
        -24    1    1    2    0    0 -0.22923721789E+02  0.64556514374E+02  0.60910533194E+03  0.61819864277E+03  0.80419002446E+02 0.  1.
<mgrwt>
<rscale>  0 0.10564212E+03</rscale>
<asrwt>0</asrwt>
<pdfrwt beam="1">  1        2 0.43568355E+00 0.10564212E+03</pdfrwt>
<pdfrwt beam="2">  1       -2 0.89298767E-03 0.10564212E+03</pdfrwt>
<totfact> 0.65573885E+03</totfact>
</mgrwt>
</event>
<event>
 4    1  0.4941530E-001  0.8089097E+02  0.7546771E-02  0.1326542E+00
         -1   -1    0    0    0  501 -0.00000000000E+00  0.00000000000E+00  0.22057920521E+03  0.22057920521E+03  0.00000000000E+00 0.  1.
          1   -1    0    0  501    0  0.00000000000E+00 -0.00000000000E+00 -0.38045099347E+02  0.38045099347E+02  0.00000000000E+00 0. -1.
         24    1    1    2    0    0 -0.93636615575E+00  0.86750822833E+01  0.15195886548E+03  0.17214774638E+03  0.80419002446E+02 0.  0.
        -24    1    1    2    0    0  0.93636615575E+00 -0.86750822833E+01  0.30575240387E+02  0.86476558172E+02  0.80419002446E+02 0. -1.
<mgrwt>
<rscale>  0 0.80890975E+02</rscale>
<asrwt>0</asrwt>
<pdfrwt beam="1">  1        1 0.58530923E-02 0.80890975E+02</pdfrwt>
<pdfrwt beam="2">  1       -1 0.33935262E-01 0.80890975E+02</pdfrwt>
<totfact> 0.98765502E+03</totfact>
</mgrwt>
</event>
<event>
 4    1  0.4941530E-001  0.8475688E+02  0.7546771E-02  0.1316070E+00
         -1   -1    0    0    0  501 -0.00000000000E+00  0.00000000000E+00  0.75878356636E+01  0.75878356636E+01  0.00000000000E+00 0.  1.
          1   -1    0    0  501    0  0.00000000000E+00 -0.00000000000E+00 -0.17106029044E+04  0.17106029044E+04  0.00000000000E+00 0. -1.
         24    1    1    2    0    0  0.17141950562E+02  0.20558832358E+02 -0.27742581366E+03  0.29008414313E+03  0.80419002446E+02 0.  0.
        -24    1    1    2    0    0 -0.17141950562E+02 -0.20558832358E+02 -0.14255892551E+04  0.14281065969E+04  0.80419002446E+02 0. -1.
<mgrwt>
<rscale>  0 0.84756876E+02</rscale>
<asrwt>0</asrwt>
<pdfrwt beam="1">  1        1 0.26316975E+00 0.84756876E+02</pdfrwt>
<pdfrwt beam="2">  1       -1 0.11673590E-02 0.84756876E+02</pdfrwt>
<totfact> 0.75048448E+03</totfact>
</mgrwt>
</event>
<event>
 4    1  0.4941530E-001  0.9412154E+02  0.7546771E-02  0.1293167E+00
         -2   -1    0    0    0  501 -0.00000000000E+00  0.00000000000E+00  0.84451669683E+01  0.84451669683E+01  0.00000000000E+00 0.  1.
          2   -1    0    0  501    0  0.00000000000E+00 -0.00000000000E+00 -0.11965957103E+04  0.11965957103E+04  0.00000000000E+00 0. -1.
         24    1    1    2    0    0 -0.42439191378E+02 -0.24301501729E+02 -0.80569452636E+03  0.81117355338E+03  0.80419002446E+02 0. -1.
        -24    1    1    2    0    0  0.42439191378E+02  0.24301501729E+02 -0.38245601700E+03  0.39386732391E+03  0.80419002446E+02 0.  1.
<mgrwt>
<rscale>  0 0.94121538E+02</rscale>
<asrwt>0</asrwt>
<pdfrwt beam="1">  1        2 0.18409166E+00 0.94121538E+02</pdfrwt>
<pdfrwt beam="2">  1       -2 0.12992564E-02 0.94121538E+02</pdfrwt>
<totfact> 0.27034031E+04</totfact>
</mgrwt>
</event>
<event>
 4    1  0.4941530E-001  0.8498537E+02  0.7546771E-02  0.1315471E+00
          1   -1    0    0  501    0  0.00000000000E+00  0.00000000000E+00  0.12021743674E+04  0.12021743674E+04  0.00000000000E+00 0. -1.
         -1   -1    0    0    0  501 -0.00000000000E+00 -0.00000000000E+00 -0.82196422016E+01  0.82196422016E+01  0.00000000000E+00 0.  1.
         24    1    1    2    0    0 -0.81739125132E+00  0.27470525109E+02  0.28304218777E+03  0.29552562307E+03  0.80419002446E+02 0.  1.
        -24    1    1    2    0    0  0.81739125132E+00 -0.27470525109E+02  0.91091253739E+03  0.91486838649E+03  0.80419002446E+02 0. -1.
<mgrwt>
<rscale>  0 0.84985374E+02</rscale>
<asrwt>0</asrwt>
<pdfrwt beam="1">  1        1 0.18494976E+00 0.84985374E+02</pdfrwt>
<pdfrwt beam="2">  1       -1 0.12645613E-02 0.84985374E+02</pdfrwt>
<totfact> 0.14226956E+04</totfact>
</mgrwt>
</event>
<event>
 4    1  0.4941530E-001  0.8074848E+02  0.7546771E-02  0.1326941E+00
          4   -1    0    0  501    0  0.00000000000E+00  0.00000000000E+00  0.29964684532E+02  0.29964684532E+02  0.00000000000E+00 0. -1.
         -4   -1    0    0    0  501 -0.00000000000E+00 -0.00000000000E+00 -0.23413943690E+03  0.23413943690E+03  0.00000000000E+00 0.  1.
         24    1    1    2    0    0 -0.81439519325E-01 -0.72865750435E+01 -0.66990566498E+02  0.10491926783E+03  0.80419002446E+02 0.  1.
        -24    1    1    2    0    0  0.81439519325E-01  0.72865750435E+01 -0.13718418587E+03  0.15918485360E+03  0.80419002446E+02 0.  1.
<mgrwt>
<rscale>  0 0.80748478E+02</rscale>
<asrwt>0</asrwt>
<pdfrwt beam="1">  1        4 0.46099515E-02 0.80748478E+02</pdfrwt>
<pdfrwt beam="2">  1       -4 0.36021451E-01 0.80748478E+02</pdfrwt>
<totfact> 0.29154670E+03</totfact>
</mgrwt>
</event>
<event>
 4    1  0.4941530E-001  0.8924047E+02  0.7546771E-02  0.1304701E+00
         -1   -1    0    0    0  501 -0.00000000000E+00  0.00000000000E+00  0.50486768332E+02  0.50486768332E+02  0.00000000000E+00 0.  1.
          1   -1    0    0  501    0  0.00000000000E+00 -0.00000000000E+00 -0.35932479539E+03  0.35932479539E+03  0.00000000000E+00 0. -1.
         24    1    1    2    0    0 -0.37892731766E+02  0.77966037347E+01 -0.94395260298E+00  0.89245465719E+02  0.80419002446E+02 0.  1.
        -24    1    1    2    0    0  0.37892731766E+02 -0.77966037347E+01 -0.30789407445E+03  0.32056609800E+03  0.80419002446E+02 0. -1.
<mgrwt>
<rscale>  0 0.89240473E+02</rscale>
<asrwt>0</asrwt>
<pdfrwt beam="1">  1        1 0.55280739E-01 0.89240473E+02</pdfrwt>
<pdfrwt beam="2">  1       -1 0.77671950E-02 0.89240473E+02</pdfrwt>
<totfact> 0.58373497E+03</totfact>
</mgrwt>
</event>
<event>
 4    1  0.4941530E-001  0.8910338E+02  0.7546771E-02  0.1305038E+00
          2   -1    0    0  501    0  0.00000000000E+00  0.00000000000E+00  0.29153002846E+02  0.29153002846E+02  0.00000000000E+00 0. -1.
         -2   -1    0    0    0  501 -0.00000000000E+00 -0.00000000000E+00 -0.64971818672E+03  0.64971818672E+03  0.00000000000E+00 0.  1.
         24    1    1    2    0    0  0.98816611890E+01 -0.37074901378E+02 -0.51589052645E+02  0.10296038970E+03  0.80419002446E+02 0. -1.
        -24    1    1    2    0    0 -0.98816611890E+01  0.37074901378E+02 -0.56897613122E+03  0.57591079986E+03  0.80419002446E+02 0.  1.
<mgrwt>
<rscale>  0 0.89103375E+02</rscale>
<asrwt>0</asrwt>
<pdfrwt beam="1">  1        2 0.44850776E-02 0.89103375E+02</pdfrwt>
<pdfrwt beam="2">  1       -2 0.99956638E-01 0.89103375E+02</pdfrwt>
<totfact> 0.14650268E+03</totfact>
</mgrwt>
</event>
<event>
 4    1  0.4941530E-001  0.1153763E+03  0.7546771E-02  0.1250926E+00
          2   -1    0    0  501    0  0.00000000000E+00  0.00000000000E+00  0.82675567458E+03  0.82675567458E+03  0.00000000000E+00 0. -1.
         -2   -1    0    0    0  501 -0.00000000000E+00 -0.00000000000E+00 -0.43113785420E+02  0.43113785420E+02  0.00000000000E+00 0.  1.
         24    1    1    2    0    0  0.77854351701E+02 -0.27985099895E+02  0.73609146145E+03  0.74507873508E+03  0.80419002446E+02 0. -1.
        -24    1    1    2    0    0 -0.77854351701E+02  0.27985099895E+02  0.47550427701E+02  0.12479072491E+03  0.80419002446E+02 0.  1.
<mgrwt>
<rscale>  0 0.11537626E+03</rscale>
<asrwt>0</asrwt>
<pdfrwt beam="1">  1        2 0.12719317E+00 0.11537626E+03</pdfrwt>
<pdfrwt beam="2">  1       -2 0.66328907E-02 0.11537626E+03</pdfrwt>
<totfact> 0.41753082E+03</totfact>
</mgrwt>
</event>
<event>
 4    1  0.4941530E-001  0.2689644E+03  0.7546771E-02  0.1101874E+00
          1   -1    0    0  501    0  0.00000000000E+00  0.00000000000E+00  0.90569766645E+02  0.90569766645E+02  0.00000000000E+00 0. -1.
         -1   -1    0    0    0  501 -0.00000000000E+00 -0.00000000000E+00 -0.93083878440E+03  0.93083878440E+03  0.00000000000E+00 0.  1.
         24    1    1    2    0    0 -0.23754980987E+03  0.97183829451E+02 -0.22774591515E+03  0.35243442893E+03  0.80419002446E+02 0. -1.
        -24    1    1    2    0    0  0.23754980987E+03 -0.97183829451E+02 -0.61252310261E+03  0.66897412212E+03  0.80419002446E+02 0.  1.
<mgrwt>
<rscale>  0 0.26896439E+03</rscale>
<asrwt>0</asrwt>
<pdfrwt beam="1">  1        1 0.13933810E-01 0.26896442E+03</pdfrwt>
<pdfrwt beam="2">  1       -1 0.14320597E+00 0.26896442E+03</pdfrwt>
<totfact> 0.17585822E+02</totfact>
</mgrwt>
</event>
<event>
 4    1  0.4941530E-001  0.9618230E+02  0.7546771E-02  0.1288535E+00
          4   -1    0    0  501    0  0.00000000000E+00  0.00000000000E+00  0.33033936844E+02  0.33033936844E+02  0.00000000000E+00 0. -1.
         -4   -1    0    0    0  501 -0.00000000000E+00 -0.00000000000E+00 -0.75423066073E+03  0.75423066073E+03  0.00000000000E+00 0.  1.
         24    1    1    2    0    0 -0.20503246294E+02  0.48615184671E+02 -0.48485116179E+02  0.10771184584E+03  0.80419002446E+02 0. -1.
        -24    1    1    2    0    0  0.20503246294E+02 -0.48615184671E+02 -0.67271160771E+03  0.67955275173E+03  0.80419002446E+02 0.  1.
<mgrwt>
<rscale>  0 0.96182302E+02</rscale>
<asrwt>0</asrwt>
<pdfrwt beam="1">  1        4 0.50821445E-02 0.96182302E+02</pdfrwt>
<pdfrwt beam="2">  1       -4 0.11603548E+00 0.96182302E+02</pdfrwt>
<totfact> 0.21909332E+02</totfact>
</mgrwt>
</event>
<event>
 4    1  0.4941530E-001  0.1080322E+03  0.7546771E-02  0.1264258E+00
         -2   -1    0    0    0  501 -0.00000000000E+00  0.00000000000E+00  0.47292746661E+02  0.47292746661E+02  0.00000000000E+00 0.  1.
          2   -1    0    0  501    0  0.00000000000E+00 -0.00000000000E+00 -0.24803905757E+03  0.24803905757E+03  0.00000000000E+00 0. -1.
         24    1    1    2    0    0 -0.47405993024E+02 -0.54372871507E+02 -0.11088946229E+03  0.15481416645E+03  0.80419002446E+02 0.  0.
        -24    1    1    2    0    0  0.47405993024E+02  0.54372871507E+02 -0.89856848612E+02  0.14051763778E+03  0.80419002446E+02 0.  0.
<mgrwt>
<rscale>  0 0.10803219E+03</rscale>
<asrwt>0</asrwt>
<pdfrwt beam="1">  1        2 0.38159855E-01 0.10803219E+03</pdfrwt>
<pdfrwt beam="2">  1       -2 0.72758071E-02 0.10803219E+03</pdfrwt>
<totfact> 0.13584772E+04</totfact>
</mgrwt>
</event>
<event>
 4    1  0.4941530E-001  0.2027030E+03  0.7546771E-02  0.1147478E+00
         -2   -1    0    0    0  501 -0.00000000000E+00  0.00000000000E+00  0.34741011916E+02  0.34741011916E+02  0.00000000000E+00 0.  1.
          2   -1    0    0  501    0  0.00000000000E+00 -0.00000000000E+00 -0.13880441741E+04  0.13880441741E+04  0.00000000000E+00 0. -1.
         24    1    1    2    0    0  0.88104032193E+01  0.18585927030E+03 -0.95026624497E+03  0.97164522530E+03  0.80419002446E+02 0. -1.
        -24    1    1    2    0    0 -0.88104032193E+01 -0.18585927030E+03 -0.40303691720E+03  0.45113996070E+03  0.80419002446E+02 0.  1.
<mgrwt>
<rscale>  0 0.20270300E+03</rscale>
<asrwt>0</asrwt>
<pdfrwt beam="1">  1        2 0.21354527E+00 0.20270300E+03</pdfrwt>
<pdfrwt beam="2">  1       -2 0.53447708E-02 0.20270300E+03</pdfrwt>
<totfact> 0.27693034E+03</totfact>
</mgrwt>
</event>
<event>
 4    1  0.4941530E-001  0.9275460E+02  0.7546771E-02  0.1296315E+00
         -2   -1    0    0    0  501 -0.00000000000E+00  0.00000000000E+00  0.31345273922E+03  0.31345273922E+03  0.00000000000E+00 0.  1.
          2   -1    0    0  501    0  0.00000000000E+00 -0.00000000000E+00 -0.92014120474E+02  0.92014120474E+02  0.00000000000E+00 0. -1.
         24    1    1    2    0    0 -0.45280738600E+02  0.92657553926E+01 -0.59106228644E+02  0.10998618882E+03  0.80419002446E+02 0. -1.
        -24    1    1    2    0    0  0.45280738600E+02 -0.92657553926E+01  0.28054484739E+03  0.29548067088E+03  0.80419002446E+02 0.  1.
<mgrwt>
<rscale>  0 0.92754598E+02</rscale>
<asrwt>0</asrwt>
<pdfrwt beam="1">  1        2 0.14156019E-01 0.92754598E+02</pdfrwt>
<pdfrwt beam="2">  1       -2 0.48223498E-01 0.92754598E+02</pdfrwt>
<totfact> 0.16458053E+03</totfact>
</mgrwt>
</event>
<event>
 4    1  0.4941530E-001  0.8136911E+02  0.7546771E-02  0.1325210E+00
          2   -1    0    0  501    0  0.00000000000E+00  0.00000000000E+00  0.22707753922E+03  0.22707753922E+03  0.00000000000E+00 0. -1.
         -2   -1    0    0    0  501 -0.00000000000E+00 -0.00000000000E+00 -0.37134215996E+02  0.37134215996E+02  0.00000000000E+00 0.  1.
         24    1    1    2    0    0  0.12393106047E+02 -0.35593868941E+00  0.15620061854E+03  0.17612372060E+03  0.80419002446E+02 0.  0.
        -24    1    1    2    0    0 -0.12393106047E+02  0.35593868941E+00  0.33742704687E+02  0.88088034623E+02  0.80419002446E+02 0.  1.
<mgrwt>
<rscale>  0 0.81369108E+02</rscale>
<asrwt>0</asrwt>
<pdfrwt beam="1">  1        2 0.34935005E-01 0.81369108E+02</pdfrwt>
<pdfrwt beam="2">  1       -2 0.57129565E-02 0.81369108E+02</pdfrwt>
<totfact> 0.20865045E+04</totfact>
</mgrwt>
</event>
<event>
 4    1  0.4941530E-001  0.8205757E+02  0.7546771E-02  0.1323312E+00
          1   -1    0    0  501    0  0.00000000000E+00  0.00000000000E+00  0.12612123871E+03  0.12612123871E+03  0.00000000000E+00 0. -1.
         -1   -1    0    0    0  501 -0.00000000000E+00 -0.00000000000E+00 -0.94801450676E+02  0.94801450676E+02  0.00000000000E+00 0.  1.
         24    1    1    2    0    0 -0.11236432335E+02 -0.11830977379E+02 -0.57348033820E+02  0.10011115010E+03  0.80419002446E+02 0.  1.
        -24    1    1    2    0    0  0.11236432335E+02  0.11830977379E+02  0.88667821848E+02  0.12081153928E+03  0.80419002446E+02 0.  0.
<mgrwt>
<rscale>  0 0.82057574E+02</rscale>
<asrwt>0</asrwt>
<pdfrwt beam="1">  1        1 0.19403267E-01 0.82057574E+02</pdfrwt>
<pdfrwt beam="2">  1       -1 0.14584839E-01 0.82057574E+02</pdfrwt>
<totfact> 0.80842026E+03</totfact>
</mgrwt>
</event>
<event>
 4    1  0.4941530E-001  0.8884894E+02  0.7546771E-02  0.1305663E+00
          1   -1    0    0  501    0  0.00000000000E+00  0.00000000000E+00  0.52868894545E+03  0.52868894545E+03  0.00000000000E+00 0. -1.
         -1   -1    0    0    0  501 -0.00000000000E+00 -0.00000000000E+00 -0.14287004519E+03  0.14287004519E+03  0.00000000000E+00 0.  1.
         24    1    1    2    0    0  0.54816986638E+01  0.37374709772E+02 -0.12483958252E+03  0.15322876776E+03  0.80419002446E+02 0.  1.
        -24    1    1    2    0    0 -0.54816986638E+01 -0.37374709772E+02  0.51065848279E+03  0.51833022288E+03  0.80419002446E+02 0. -1.
<mgrwt>
<rscale>  0 0.88848939E+02</rscale>
<asrwt>0</asrwt>
<pdfrwt beam="1">  1        1 0.81336760E-01 0.88848939E+02</pdfrwt>
<pdfrwt beam="2">  1       -1 0.21980007E-01 0.88848939E+02</pdfrwt>
<totfact> 0.72502169E+02</totfact>
</mgrwt>
</event>
<event>
 4    1  0.4941530E-001  0.8573476E+02  0.7546771E-02  0.1313522E+00
          1   -1    0    0  501    0  0.00000000000E+00  0.00000000000E+00  0.26412112015E+02  0.26412112015E+02  0.00000000000E+00 0. -1.
         -1   -1    0    0    0  501 -0.00000000000E+00 -0.00000000000E+00 -0.29825099757E+03  0.29825099757E+03  0.00000000000E+00 0.  1.
         24    1    1    2    0    0  0.10385708976E+02 -0.27845465444E+02 -0.17790612698E+03  0.19748680682E+03  0.80419002446E+02 0.  1.
        -24    1    1    2    0    0 -0.10385708976E+02  0.27845465444E+02 -0.93932758569E+02  0.12717630276E+03  0.80419002446E+02 0. -1.
<mgrwt>
<rscale>  0 0.85734759E+02</rscale>
<asrwt>0</asrwt>
<pdfrwt beam="1">  1        1 0.40634018E-02 0.85734759E+02</pdfrwt>
<pdfrwt beam="2">  1       -1 0.45884769E-01 0.85734759E+02</pdfrwt>
<totfact> 0.96494919E+03</totfact>
</mgrwt>
</event>
<event>
 4    1  0.4941530E-001  0.8466897E+02  0.7546771E-02  0.1316300E+00
         -1   -1    0    0    0  501 -0.00000000000E+00  0.00000000000E+00  0.97320022609E+01  0.97320022609E+01  0.00000000000E+00 0.  1.
          1   -1    0    0  501    0  0.00000000000E+00 -0.00000000000E+00 -0.85541080037E+03  0.85541080037E+03  0.00000000000E+00 0. -1.
         24    1    1    2    0    0 -0.26376710010E+02  0.24263174150E+01 -0.26164381248E+03  0.27500239710E+03  0.80419002446E+02 0. -1.
        -24    1    1    2    0    0  0.26376710010E+02 -0.24263174150E+01 -0.58403498563E+03  0.59014040553E+03  0.80419002446E+02 0.  0.
<mgrwt>
<rscale>  0 0.84668966E+02</rscale>
<asrwt>0</asrwt>
<pdfrwt beam="1">  1        1 0.13160167E+00 0.84668966E+02</pdfrwt>
<pdfrwt beam="2">  1       -1 0.14972310E-02 0.84668966E+02</pdfrwt>
<totfact> 0.19799423E+04</totfact>
</mgrwt>
</event>
<event>
 4    1  0.4941530E-001  0.9525685E+02  0.7546771E-02  0.1290599E+00
         -3   -1    0    0    0  501 -0.00000000000E+00  0.00000000000E+00  0.21995085454E+03  0.21995085454E+03  0.00000000000E+00 0.  1.
          3   -1    0    0  501    0  0.00000000000E+00 -0.00000000000E+00 -0.55008706123E+02  0.55008706123E+02  0.00000000000E+00 0. -1.
         24    1    1    2    0    0  0.97032528093E+01 -0.50124828197E+02  0.15121711664E+03  0.17871900805E+03  0.80419002446E+02 0. -1.
        -24    1    1    2    0    0 -0.97032528093E+01  0.50124828197E+02  0.13725031776E+02  0.96240552619E+02  0.80419002446E+02 0.  1.
<mgrwt>
<rscale>  0 0.95256850E+02</rscale>
<asrwt>0</asrwt>
<pdfrwt beam="1">  1        3 0.84628780E-02 0.95256850E+02</pdfrwt>
<pdfrwt beam="2">  1       -3 0.33838592E-01 0.95256850E+02</pdfrwt>
<totfact> 0.17894175E+03</totfact>
</mgrwt>
</event>
<event>
 4    1  0.4941530E-001  0.8171438E+02  0.7546771E-02  0.1324255E+00
         -2   -1    0    0    0  501 -0.00000000000E+00  0.00000000000E+00  0.45303166320E+01  0.45303166320E+01  0.00000000000E+00 0.  1.
          2   -1    0    0  501    0  0.00000000000E+00 -0.00000000000E+00 -0.15170435753E+04  0.15170435753E+04  0.00000000000E+00 0. -1.
         24    1    1    2    0    0  0.12331230112E+02  0.76134582444E+01 -0.88455322823E+03  0.88831956722E+03  0.80419002446E+02 0. -1.
        -24    1    1    2    0    0 -0.12331230112E+02 -0.76134582444E+01 -0.62796003047E+03  0.63325432474E+03  0.80419002446E+02 0.  1.
<mgrwt>
<rscale>  0 0.81714380E+02</rscale>
<asrwt>0</asrwt>
<pdfrwt beam="1">  1        2 0.23339115E+00 0.81714380E+02</pdfrwt>
<pdfrwt beam="2">  1       -2 0.69697228E-03 0.81714380E+02</pdfrwt>
<totfact> 0.43740289E+04</totfact>
</mgrwt>
</event>
<event>
 4    1  0.4941530E-001  0.8776780E+02  0.7546771E-02  0.1308349E+00
         -2   -1    0    0    0  501 -0.00000000000E+00  0.00000000000E+00  0.22957392697E+02  0.22957392697E+02  0.00000000000E+00 0.  1.
          2   -1    0    0  501    0  0.00000000000E+00 -0.00000000000E+00 -0.23455743783E+04  0.23455743783E+04  0.00000000000E+00 0. -1.
         24    1    1    2    0    0 -0.33426392408E+02 -0.10892507659E+02 -0.22576000297E+04  0.22593054420E+04  0.80419002446E+02 0. -1.
        -24    1    1    2    0    0  0.33426392408E+02  0.10892507659E+02 -0.65016955983E+02  0.10922632902E+03  0.80419002446E+02 0.  1.
<mgrwt>
<rscale>  0 0.87767798E+02</rscale>
<asrwt>0</asrwt>
<pdfrwt beam="1">  1        2 0.36085764E+00 0.87767798E+02</pdfrwt>
<pdfrwt beam="2">  1       -2 0.35319061E-02 0.87767798E+02</pdfrwt>
<totfact> 0.16550161E+03</totfact>
</mgrwt>
</event>
<event>
 4    1  0.4941530E-001  0.8179183E+02  0.7546771E-02  0.1324042E+00
          1   -1    0    0  501    0  0.00000000000E+00  0.00000000000E+00  0.29780099881E+02  0.29780099881E+02  0.00000000000E+00 0. -1.
         -1   -1    0    0    0  501 -0.00000000000E+00 -0.00000000000E+00 -0.23405991656E+03  0.23405991656E+03  0.00000000000E+00 0.  1.
         24    1    1    2    0    0 -0.40240653143E+01  0.14369771762E+02 -0.75679594623E+02  0.11143294144E+03  0.80419002446E+02 0. -1.
        -24    1    1    2    0    0  0.40240653143E+01 -0.14369771762E+02 -0.12860022206E+03  0.15240707500E+03  0.80419002446E+02 0.  1.
<mgrwt>
<rscale>  0 0.81791815E+02</rscale>
<asrwt>0</asrwt>
<pdfrwt beam="1">  1        1 0.45815537E-02 0.81791826E+02</pdfrwt>
<pdfrwt beam="2">  1       -1 0.36009219E-01 0.81791826E+02</pdfrwt>
<totfact> 0.12430446E+04</totfact>
</mgrwt>
</event>
<event>
 4    1  0.4941530E-001  0.1031679E+03  0.7546771E-02  0.1273772E+00
          2   -1    0    0  501    0  0.00000000000E+00  0.00000000000E+00  0.36025191101E+03  0.36025191101E+03  0.00000000000E+00 0. -1.
         -2   -1    0    0    0  501 -0.00000000000E+00 -0.00000000000E+00 -0.46529993511E+02  0.46529993511E+02  0.00000000000E+00 0.  1.
         24    1    1    2    0    0 -0.64355451473E+02 -0.58978167049E+01  0.27974584692E+03  0.29816331632E+03  0.80419002446E+02 0. -1.
        -24    1    1    2    0    0  0.64355451473E+02  0.58978167049E+01  0.33976070578E+02  0.10861858820E+03  0.80419002446E+02 0.  1.
<mgrwt>
<rscale>  0 0.10316794E+03</rscale>
<asrwt>0</asrwt>
<pdfrwt beam="1">  1        2 0.55423369E-01 0.10316794E+03</pdfrwt>
<pdfrwt beam="2">  1       -2 0.71584608E-02 0.10316794E+03</pdfrwt>
<totfact> 0.93665530E+03</totfact>
</mgrwt>
</event>
<event>
 4    1  0.4941530E-001  0.8228713E+02  0.7546771E-02  0.1322683E+00
         -2   -1    0    0    0  501 -0.00000000000E+00  0.00000000000E+00  0.37673709366E+02  0.37673709366E+02  0.00000000000E+00 0.  1.
          2   -1    0    0  501    0  0.00000000000E+00 -0.00000000000E+00 -0.27345017951E+03  0.27345017951E+03  0.00000000000E+00 0. -1.
         24    1    1    2    0    0  0.10695199776E+02  0.13768391838E+02 -0.20895840214E+03  0.22457690373E+03  0.80419002446E+02 0. -1.
        -24    1    1    2    0    0 -0.10695199776E+02 -0.13768391838E+02 -0.26818068012E+02  0.86546985149E+02  0.80419002446E+02 0.  1.
<mgrwt>
<rscale>  0 0.82287131E+02</rscale>
<asrwt>0</asrwt>
<pdfrwt beam="1">  1        2 0.42069258E-01 0.82287131E+02</pdfrwt>
<pdfrwt beam="2">  1       -2 0.57959553E-02 0.82287131E+02</pdfrwt>
<totfact> 0.16828994E+04</totfact>
</mgrwt>
</event>
<event>
 4    1  0.4941530E-001  0.1137782E+03  0.7546771E-02  0.1253729E+00
          2   -1    0    0  501    0  0.00000000000E+00  0.00000000000E+00  0.34717113585E+03  0.34717113585E+03  0.00000000000E+00 0. -1.
         -2   -1    0    0    0  501 -0.00000000000E+00 -0.00000000000E+00 -0.44501005241E+02  0.44501005241E+02  0.00000000000E+00 0.  1.
         24    1    1    2    0    0 -0.37432188797E+02 -0.71253674919E+02  0.23017614820E+03  0.25676162116E+03  0.80419002446E+02 0. -1.
        -24    1    1    2    0    0  0.37432188797E+02  0.71253674919E+02  0.72493982409E+02  0.13491051993E+03  0.80419002446E+02 0.  1.
<mgrwt>
<rscale>  0 0.11377817E+03</rscale>
<asrwt>0</asrwt>
<pdfrwt beam="1">  1        2 0.53410942E-01 0.11377817E+03</pdfrwt>
<pdfrwt beam="2">  1       -2 0.68463087E-02 0.11377817E+03</pdfrwt>
<totfact> 0.10503923E+04</totfact>
</mgrwt>
</event>
<event>
 4    1  0.4941530E-001  0.8734669E+02  0.7546771E-02  0.1309407E+00
          2   -1    0    0  501    0  0.00000000000E+00  0.00000000000E+00  0.43667894433E+03  0.43667894433E+03  0.00000000000E+00 0. -1.
         -2   -1    0    0    0  501 -0.00000000000E+00 -0.00000000000E+00 -0.46208112582E+02  0.46208112582E+02  0.00000000000E+00 0.  1.
         24    1    1    2    0    0 -0.15279126051E+02 -0.30475828930E+02  0.38563855713E+03  0.39540680386E+03  0.80419002446E+02 0. -1.
        -24    1    1    2    0    0  0.15279126051E+02  0.30475828930E+02  0.48322746232E+01  0.87480253053E+02  0.80419002446E+02 0.  1.
<mgrwt>
<rscale>  0 0.87346687E+02</rscale>
<asrwt>0</asrwt>
<pdfrwt beam="1">  1        2 0.67181373E-01 0.87346687E+02</pdfrwt>
<pdfrwt beam="2">  1       -2 0.71089407E-02 0.87346687E+02</pdfrwt>
<totfact> 0.76286352E+03</totfact>
</mgrwt>
</event>
<event>
 4    1  0.4941530E-001  0.8404185E+02  0.7546771E-02  0.1317957E+00
          2   -1    0    0  501    0  0.00000000000E+00  0.00000000000E+00  0.16130962028E+04  0.16130962028E+04  0.00000000000E+00 0. -1.
         -2   -1    0    0    0  501 -0.00000000000E+00 -0.00000000000E+00 -0.83195017249E+01  0.83195017249E+01  0.00000000000E+00 0.  1.
         24    1    1    2    0    0  0.66168726437E+01  0.23495383087E+02  0.13603649050E+04  0.13629584391E+04  0.80419002446E+02 0.  0.
        -24    1    1    2    0    0 -0.66168726437E+01 -0.23495383087E+02  0.24441179604E+03  0.25845726538E+03  0.80419002446E+02 0.  1.
<mgrwt>
<rscale>  0 0.84041847E+02</rscale>
<asrwt>0</asrwt>
<pdfrwt beam="1">  1        2 0.24816840E+00 0.84041847E+02</pdfrwt>
<pdfrwt beam="2">  1       -2 0.12799246E-02 0.84041847E+02</pdfrwt>
<totfact> 0.16633415E+04</totfact>
</mgrwt>
</event>
<event>
 4    1  0.4941530E-001  0.1608612E+03  0.7546771E-02  0.1187728E+00
          2   -1    0    0  501    0  0.00000000000E+00  0.00000000000E+00  0.15368428170E+04  0.15368428170E+04  0.00000000000E+00 0. -1.
         -2   -1    0    0    0  501 -0.00000000000E+00 -0.00000000000E+00 -0.17765151174E+02  0.17765151174E+02  0.00000000000E+00 0.  1.
         24    1    1    2    0    0  0.13472489365E+03  0.35472511760E+02  0.93717903903E+03  0.95088425332E+03  0.80419002446E+02 0.  1.
        -24    1    1    2    0    0 -0.13472489365E+03 -0.35472511760E+02  0.58189862684E+03  0.60372371490E+03  0.80419002446E+02 0. -1.
<mgrwt>
<rscale>  0 0.16086116E+03</rscale>
<asrwt>0</asrwt>
<pdfrwt beam="1">  1        2 0.23643725E+00 0.16086116E+03</pdfrwt>
<pdfrwt beam="2">  1       -2 0.27331014E-02 0.16086116E+03</pdfrwt>
<totfact> 0.62682551E+03</totfact>
</mgrwt>
</event>
<event>
 4    1  0.4941530E-001  0.9216584E+02  0.7546771E-02  0.1297690E+00
         -2   -1    0    0    0  501 -0.00000000000E+00  0.00000000000E+00  0.98677928308E+01  0.98677928308E+01  0.00000000000E+00 0.  1.
          2   -1    0    0  501    0  0.00000000000E+00 -0.00000000000E+00 -0.93846449618E+03  0.93846449618E+03  0.00000000000E+00 0. -1.
         24    1    1    2    0    0  0.10283968406E+01 -0.45014082911E+02 -0.60067344682E+03  0.60770316021E+03  0.80419002446E+02 0.  0.
        -24    1    1    2    0    0 -0.10283968406E+01  0.45014082911E+02 -0.32792325653E+03  0.34062912880E+03  0.80419002446E+02 0.  1.
<mgrwt>
<rscale>  0 0.92165835E+02</rscale>
<asrwt>0</asrwt>
<pdfrwt beam="1">  1        2 0.14437914E+00 0.92165835E+02</pdfrwt>
<pdfrwt beam="2">  1       -2 0.15181222E-02 0.92165835E+02</pdfrwt>
<totfact> 0.30352177E+04</totfact>
</mgrwt>
</event>
<event>
 4    1  0.4941530E-001  0.9275230E+02  0.7546771E-02  0.1296320E+00
         -2   -1    0    0    0  501 -0.00000000000E+00  0.00000000000E+00  0.14400952944E+04  0.14400952944E+04  0.00000000000E+00 0.  1.
          2   -1    0    0  501    0  0.00000000000E+00 -0.00000000000E+00 -0.22044092169E+02  0.22044092169E+02  0.00000000000E+00 0. -1.
         24    1    1    2    0    0 -0.32324190097E+02 -0.33029072800E+02  0.84826451380E+02  0.12569214663E+03  0.80419002446E+02 0. -1.
        -24    1    1    2    0    0  0.32324190097E+02  0.33029072800E+02  0.13332247509E+04  0.13364472400E+04  0.80419002446E+02 0.  1.
<mgrwt>
<rscale>  0 0.92752298E+02</rscale>
<asrwt>0</asrwt>
<pdfrwt beam="1">  1        2 0.33913999E-02 0.92752298E+02</pdfrwt>
<pdfrwt beam="2">  1       -2 0.22155305E+00 0.92752298E+02</pdfrwt>
<totfact> 0.27548881E+02</totfact>
</mgrwt>
</event>
<event>
 4    1  0.4941530E-001  0.8241994E+02  0.7546771E-02  0.1322321E+00
         -1   -1    0    0    0  501 -0.00000000000E+00  0.00000000000E+00  0.51611569335E+02  0.51611569335E+02  0.00000000000E+00 0.  1.
          1   -1    0    0  501    0  0.00000000000E+00 -0.00000000000E+00 -0.30345868916E+03  0.30345868916E+03  0.00000000000E+00 0. -1.
         24    1    1    2    0    0 -0.92651570695E+01 -0.15491519946E+02  0.76734272033E+01  0.82776372022E+02  0.80419002446E+02 0.  0.
        -24    1    1    2    0    0  0.92651570695E+01  0.15491519946E+02 -0.25952054703E+03  0.27229388647E+03  0.80419002446E+02 0. -1.
<mgrwt>
<rscale>  0 0.82419939E+02</rscale>
<asrwt>0</asrwt>
<pdfrwt beam="1">  1        1 0.46685952E-01 0.82419939E+02</pdfrwt>
<pdfrwt beam="2">  1       -1 0.79402415E-02 0.82419939E+02</pdfrwt>
<totfact> 0.69048959E+03</totfact>
</mgrwt>
</event>
<event>
 4    1  0.4941530E-001  0.8205431E+02  0.7546771E-02  0.1323321E+00
         -1   -1    0    0    0  501 -0.00000000000E+00  0.00000000000E+00  0.41873131475E+02  0.41873131475E+02  0.00000000000E+00 0.  1.
          1   -1    0    0  501    0  0.00000000000E+00 -0.00000000000E+00 -0.18045585467E+03  0.18045585467E+03  0.00000000000E+00 0. -1.
         24    1    1    2    0    0 -0.38416758902E+01  0.15840950310E+02 -0.32596697980E+02  0.88291873091E+02  0.80419002446E+02 0.  1.
        -24    1    1    2    0    0  0.38416758902E+01 -0.15840950310E+02 -0.10598602521E+03  0.13403711305E+03  0.80419002446E+02 0.  0.
<mgrwt>
<rscale>  0 0.82054312E+02</rscale>
<asrwt>0</asrwt>
<pdfrwt beam="1">  1        1 0.27762439E-01 0.82054312E+02</pdfrwt>
<pdfrwt beam="2">  1       -1 0.64420202E-02 0.82054312E+02</pdfrwt>
<totfact> 0.17723592E+04</totfact>
</mgrwt>
</event>
<event>
 4    1  0.4941530E-001  0.8160043E+02  0.7546771E-02  0.1324570E+00
          2   -1    0    0  501    0  0.00000000000E+00  0.00000000000E+00  0.10157252270E+04  0.10157252270E+04  0.00000000000E+00 0. -1.
         -2   -1    0    0    0  501 -0.00000000000E+00 -0.00000000000E+00 -0.63491521767E+03  0.63491521767E+03  0.00000000000E+00 0.  1.
         24    1    1    2    0    0 -0.77394324998E+01  0.11468001622E+02  0.10114534282E+04  0.10147397042E+04  0.80419002446E+02 0. -1.
        -24    1    1    2    0    0  0.77394324998E+01 -0.11468001622E+02 -0.63064341893E+03  0.63590074042E+03  0.80419002446E+02 0.  1.
<mgrwt>
<rscale>  0 0.81600428E+02</rscale>
<asrwt>0</asrwt>
<pdfrwt beam="1">  1        2 0.15626542E+00 0.81600428E+02</pdfrwt>
<pdfrwt beam="2">  1       -2 0.97679264E-01 0.81600428E+02</pdfrwt>
<totfact> 0.25969267E+01</totfact>
</mgrwt>
</event>
<event>
 4    1  0.4941530E-001  0.1278938E+03  0.7546771E-02  0.1230615E+00
          2   -1    0    0  501    0  0.00000000000E+00  0.00000000000E+00  0.49999484341E+03  0.49999484341E+03  0.00000000000E+00 0. -1.
         -2   -1    0    0    0  501 -0.00000000000E+00 -0.00000000000E+00 -0.33951195224E+02  0.33951195224E+02  0.00000000000E+00 0.  1.
         24    1    1    2    0    0  0.99367286153E+02 -0.39691424159E+01  0.18205820550E+03  0.22249048922E+03  0.80419002446E+02 0.  1.
        -24    1    1    2    0    0 -0.99367286153E+02  0.39691424159E+01  0.28398544269E+03  0.31145554941E+03  0.80419002446E+02 0. -1.
<mgrwt>
<rscale>  0 0.12789383E+03</rscale>
<asrwt>0</asrwt>
<pdfrwt beam="1">  1        2 0.76922278E-01 0.12789385E+03</pdfrwt>
<pdfrwt beam="2">  1       -2 0.52232612E-02 0.12789385E+03</pdfrwt>
<totfact> 0.10795263E+04</totfact>
</mgrwt>
</event>
<event>
 4    1  0.4941530E-001  0.8724118E+02  0.7546771E-02  0.1309674E+00
         -2   -1    0    0    0  501 -0.00000000000E+00  0.00000000000E+00  0.20081076113E+02  0.20081076113E+02  0.00000000000E+00 0.  1.
          2   -1    0    0  501    0  0.00000000000E+00 -0.00000000000E+00 -0.41183908254E+03  0.41183908254E+03  0.00000000000E+00 0. -1.
         24    1    1    2    0    0 -0.23922485949E+02 -0.23906546828E+02 -0.25684779330E+03  0.27125967852E+03  0.80419002446E+02 0. -1.
        -24    1    1    2    0    0  0.23922485949E+02  0.23906546828E+02 -0.13491021314E+03  0.16066048014E+03  0.80419002446E+02 0.  1.
<mgrwt>
<rscale>  0 0.87241184E+02</rscale>
<asrwt>0</asrwt>
<pdfrwt beam="1">  1        2 0.63359853E-01 0.87241184E+02</pdfrwt>
<pdfrwt beam="2">  1       -2 0.30893966E-02 0.87241184E+02</pdfrwt>
<totfact> 0.27876572E+04</totfact>
</mgrwt>
</event>
<event>
 4    1  0.4941530E-001  0.8479626E+02  0.7546771E-02  0.1315966E+00
         -2   -1    0    0    0  501 -0.00000000000E+00  0.00000000000E+00  0.88691694393E+01  0.88691694393E+01  0.00000000000E+00 0.  1.
          2   -1    0    0  501    0  0.00000000000E+00 -0.00000000000E+00 -0.95532879033E+03  0.95532879033E+03  0.00000000000E+00 0. -1.
         24    1    1    2    0    0  0.22592573211E+02 -0.14586488714E+02 -0.66079762754E+03  0.66621611398E+03  0.80419002446E+02 0. -1.
        -24    1    1    2    0    0 -0.22592573211E+02  0.14586488714E+02 -0.28566199336E+03  0.29798184579E+03  0.80419002446E+02 0. -1.
<mgrwt>
<rscale>  0 0.84796262E+02</rscale>
<asrwt>0</asrwt>
<pdfrwt beam="1">  1        2 0.14697355E+00 0.84796262E+02</pdfrwt>
<pdfrwt beam="2">  1       -2 0.13644886E-02 0.84796262E+02</pdfrwt>
<totfact> 0.34227708E+04</totfact>
</mgrwt>
</event>
<event>
 4    1  0.4941530E-001  0.9652127E+02  0.7546771E-02  0.1287786E+00
         -1   -1    0    0    0  501 -0.00000000000E+00  0.00000000000E+00  0.11414728261E+03  0.11414728261E+03  0.00000000000E+00 0.  1.
          1   -1    0    0  501    0  0.00000000000E+00 -0.00000000000E+00 -0.18782305451E+03  0.18782305451E+03  0.00000000000E+00 0. -1.
         24    1    1    2    0    0  0.35986339457E+02  0.39422357135E+02  0.76698364343E+02  0.12328419979E+03  0.80419002446E+02 0.  1.
        -24    1    1    2    0    0 -0.35986339457E+02 -0.39422357135E+02 -0.15037413624E+03  0.17868613733E+03  0.80419002446E+02 0. -1.
<mgrwt>
<rscale>  0 0.96521266E+02</rscale>
<asrwt>0</asrwt>
<pdfrwt beam="1">  1        1 0.28895854E-01 0.96521266E+02</pdfrwt>
<pdfrwt beam="2">  1       -1 0.17561121E-01 0.96521266E+02</pdfrwt>
<totfact> 0.37365820E+03</totfact>
</mgrwt>
</event>
<event>
 4    1  0.4941530E-001  0.8565310E+02  0.7546771E-02  0.1313733E+00
          1   -1    0    0  501    0  0.00000000000E+00  0.00000000000E+00  0.18612018262E+02  0.18612018262E+02  0.00000000000E+00 0. -1.
         -1   -1    0    0    0  501 -0.00000000000E+00 -0.00000000000E+00 -0.74836323093E+03  0.74836323093E+03  0.00000000000E+00 0.  1.
         24    1    1    2    0    0  0.22980609670E+02  0.18469700914E+02 -0.62869708859E+03  0.63450491206E+03  0.80419002446E+02 0.  1.
        -24    1    1    2    0    0 -0.22980609670E+02 -0.18469700914E+02 -0.10105412408E+03  0.13247033714E+03  0.80419002446E+02 0. -1.
<mgrwt>
<rscale>  0 0.85653104E+02</rscale>
<asrwt>0</asrwt>
<pdfrwt beam="1">  1        1 0.28633880E-02 0.85653104E+02</pdfrwt>
<pdfrwt beam="2">  1       -1 0.11513278E+00 0.85653104E+02</pdfrwt>
<totfact> 0.24932453E+03</totfact>
</mgrwt>
</event>
<event>
 4    1  0.4941530E-001  0.8664801E+02  0.7546771E-02  0.1311178E+00
          1   -1    0    0  501    0  0.00000000000E+00  0.00000000000E+00  0.11052340354E+04  0.11052340354E+04  0.00000000000E+00 0. -1.
         -1   -1    0    0    0  501 -0.00000000000E+00 -0.00000000000E+00 -0.68593769626E+01  0.68593769626E+01  0.00000000000E+00 0.  1.
         24    1    1    2    0    0 -0.32078777115E+02  0.34077798722E+01  0.49449677442E+03  0.50203081257E+03  0.80419002446E+02 0. -1.
        -24    1    1    2    0    0  0.32078777115E+02 -0.34077798722E+01  0.60387788405E+03  0.61006259983E+03  0.80419002446E+02 0.  1.
<mgrwt>
<rscale>  0 0.86648006E+02</rscale>
<asrwt>0</asrwt>
<pdfrwt beam="1">  1        1 0.17003586E+00 0.86648006E+02</pdfrwt>
<pdfrwt beam="2">  1       -1 0.10552896E-02 0.86648006E+02</pdfrwt>
<totfact> 0.21409810E+04</totfact>
</mgrwt>
</event>
<event>
 4    1  0.4941530E-001  0.1230214E+03  0.7546771E-02  0.1238194E+00
          2   -1    0    0  501    0  0.00000000000E+00  0.00000000000E+00  0.41048521394E+03  0.41048521394E+03  0.00000000000E+00 0. -1.
         -2   -1    0    0    0  501 -0.00000000000E+00 -0.00000000000E+00 -0.66558558683E+02  0.66558558683E+02  0.00000000000E+00 0.  1.
         24    1    1    2    0    0  0.36169073322E+02 -0.85783744603E+02  0.33126728360E+03  0.35337272368E+03  0.80419002446E+02 0. -1.
        -24    1    1    2    0    0 -0.36169073322E+02  0.85783744603E+02  0.12659371663E+02  0.12367104895E+03  0.80419002446E+02 0.  1.
<mgrwt>
<rscale>  0 0.12302142E+03</rscale>
<asrwt>0</asrwt>
<pdfrwt beam="1">  1        2 0.63151570E-01 0.12302142E+03</pdfrwt>
<pdfrwt beam="2">  1       -2 0.10239779E-01 0.12302142E+03</pdfrwt>
<totfact> 0.47467418E+03</totfact>
</mgrwt>
</event>
<event>
 4    1  0.4941530E-001  0.1111100E+03  0.7546771E-02  0.1258528E+00
         -1   -1    0    0    0  501 -0.00000000000E+00  0.00000000000E+00  0.27239381057E+02  0.27239381057E+02  0.00000000000E+00 0.  1.
          1   -1    0    0  501    0  0.00000000000E+00 -0.00000000000E+00 -0.45429693603E+03  0.45429693603E+03  0.00000000000E+00 0. -1.
         24    1    1    2    0    0 -0.33617681041E+02 -0.68906240993E+02 -0.20180661256E+03  0.23037218442E+03  0.80419002446E+02 0.  0.
        -24    1    1    2    0    0  0.33617681041E+02  0.68906240993E+02 -0.22525094241E+03  0.25116413266E+03  0.80419002446E+02 0. -1.
<mgrwt>
<rscale>  0 0.11111001E+03</rscale>
<asrwt>0</asrwt>
<pdfrwt beam="1">  1        1 0.69891828E-01 0.11111001E+03</pdfrwt>
<pdfrwt beam="2">  1       -1 0.41906745E-02 0.11111001E+03</pdfrwt>
<totfact> 0.10998860E+04</totfact>
</mgrwt>
</event>
<event>
 4    1  0.4941530E-001  0.9964928E+02  0.7546771E-02  0.1281035E+00
          2   -1    0    0  501    0  0.00000000000E+00  0.00000000000E+00  0.44921295793E+03  0.44921295793E+03  0.00000000000E+00 0. -1.
         -2   -1    0    0    0  501 -0.00000000000E+00 -0.00000000000E+00 -0.23127205546E+02  0.23127205546E+02  0.00000000000E+00 0.  1.
         24    1    1    2    0    0 -0.52068263252E+02 -0.27416301952E+02  0.16339792272E+03  0.19138666294E+03  0.80419002446E+02 0.  0.
        -24    1    1    2    0    0  0.52068263252E+02  0.27416301952E+02  0.26268782967E+03  0.28095350054E+03  0.80419002446E+02 0.  0.
<mgrwt>
<rscale>  0 0.99649265E+02</rscale>
<asrwt>0</asrwt>
<pdfrwt beam="1">  1        2 0.69109679E-01 0.99649278E+02</pdfrwt>
<pdfrwt beam="2">  1       -2 0.35580320E-02 0.99649278E+02</pdfrwt>
<totfact> 0.20976411E+04</totfact>
</mgrwt>
</event>
<event>
 4    1  0.4941530E-001  0.8831261E+02  0.7546771E-02  0.1306990E+00
         -1   -1    0    0    0  501 -0.00000000000E+00  0.00000000000E+00  0.21835739357E+03  0.21835739357E+03  0.00000000000E+00 0.  1.
          1   -1    0    0  501    0  0.00000000000E+00 -0.00000000000E+00 -0.36081092160E+02  0.36081092160E+02  0.00000000000E+00 0. -1.
         24    1    1    2    0    0  0.23457035270E+02  0.27958350071E+02  0.10391403143E+03  0.13637171160E+03  0.80419002446E+02 0.  1.
        -24    1    1    2    0    0 -0.23457035270E+02 -0.27958350071E+02  0.78362269980E+02  0.11806677413E+03  0.80419002446E+02 0.  0.
<mgrwt>
<rscale>  0 0.88312614E+02</rscale>
<asrwt>0</asrwt>
<pdfrwt beam="1">  1        1 0.55509374E-02 0.88312614E+02</pdfrwt>
<pdfrwt beam="2">  1       -1 0.33593444E-01 0.88312614E+02</pdfrwt>
<totfact> 0.10884738E+04</totfact>
</mgrwt>
</event>
<event>
 4    1  0.4941530E-001  0.8771393E+02  0.7546771E-02  0.1308484E+00
         -3   -1    0    0    0  501 -0.00000000000E+00  0.00000000000E+00  0.56297655870E+03  0.56297655870E+03  0.00000000000E+00 0.  1.
          3   -1    0    0  501    0  0.00000000000E+00 -0.00000000000E+00 -0.20982899496E+02  0.20982899496E+02  0.00000000000E+00 0. -1.
         24    1    1    2    0    0 -0.35019237142E+02  0.41408534603E+00  0.44341315943E+03  0.45200549150E+03  0.80419002446E+02 0.  1.
        -24    1    1    2    0    0  0.35019237142E+02 -0.41408534603E+00  0.98580499774E+02  0.13195396670E+03  0.80419002446E+02 0. -1.
<mgrwt>
<rscale>  0 0.87713935E+02</rscale>
<asrwt>0</asrwt>
<pdfrwt beam="1">  1        3 0.32281388E-02 0.87713935E+02</pdfrwt>
<pdfrwt beam="2">  1       -3 0.86611767E-01 0.87713935E+02</pdfrwt>
<totfact> 0.12116198E+03</totfact>
</mgrwt>
</event>
<event>
 4    1  0.4941530E-001  0.1034102E+03  0.7546771E-02  0.1273284E+00
         -2   -1    0    0    0  501 -0.00000000000E+00  0.00000000000E+00  0.23691642594E+02  0.23691642594E+02  0.00000000000E+00 0.  1.
          2   -1    0    0  501    0  0.00000000000E+00 -0.00000000000E+00 -0.86540117577E+03  0.86540117577E+03  0.00000000000E+00 0. -1.
         24    1    1    2    0    0  0.57962124395E+02 -0.29442346320E+02 -0.72834077311E+03  0.73564526597E+03  0.80419002446E+02 0. -1.
        -24    1    1    2    0    0 -0.57962124395E+02  0.29442346320E+02 -0.11336876007E+03  0.15344755239E+03  0.80419002446E+02 0.  1.
<mgrwt>
<rscale>  0 0.10341023E+03</rscale>
<asrwt>0</asrwt>
<pdfrwt beam="1">  1        2 0.13313863E+00 0.10341023E+03</pdfrwt>
<pdfrwt beam="2">  1       -2 0.36448684E-02 0.10341023E+03</pdfrwt>
<totfact> 0.95787260E+03</totfact>
</mgrwt>
</event>
<event>
 4    1  0.4941530E-001  0.8696220E+02  0.7546771E-02  0.1310379E+00
          2   -1    0    0  501    0  0.00000000000E+00  0.00000000000E+00  0.21160432357E+04  0.21160432357E+04  0.00000000000E+00 0. -1.
         -2   -1    0    0    0  501 -0.00000000000E+00 -0.00000000000E+00 -0.39779464520E+01  0.39779464520E+01  0.00000000000E+00 0.  1.
         24    1    1    2    0    0  0.11823261151E+02 -0.30909862048E+02  0.13938813533E+04  0.13965914406E+04  0.80419002446E+02 0. -1.
        -24    1    1    2    0    0 -0.11823261151E+02  0.30909862048E+02  0.71818393597E+03  0.72342974152E+03  0.80419002446E+02 0.  1.
<mgrwt>
<rscale>  0 0.86962205E+02</rscale>
<asrwt>0</asrwt>
<pdfrwt beam="1">  1        2 0.32554421E+00 0.86962205E+02</pdfrwt>
<pdfrwt beam="2">  1       -2 0.61199345E-03 0.86962205E+02</pdfrwt>
<totfact> 0.26417012E+04</totfact>
</mgrwt>
</event>
<event>
 4    1  0.4941530E-001  0.8363135E+02  0.7546771E-02  0.1319051E+00
         -2   -1    0    0    0  501 -0.00000000000E+00  0.00000000000E+00  0.56167832300E+02  0.56167832300E+02  0.00000000000E+00 0.  1.
          2   -1    0    0  501    0  0.00000000000E+00 -0.00000000000E+00 -0.12488480647E+03  0.12488480647E+03  0.00000000000E+00 0. -1.
         24    1    1    2    0    0  0.21274072221E+02  0.86255563748E+01 -0.39229218741E+02  0.92374963757E+02  0.80419002446E+02 0.  0.
        -24    1    1    2    0    0 -0.21274072221E+02 -0.86255563748E+01 -0.29487755433E+02  0.88677675017E+02  0.80419002446E+02 0.  1.
<mgrwt>
<rscale>  0 0.83631348E+02</rscale>
<asrwt>0</asrwt>
<pdfrwt beam="1">  1        2 0.19213047E-01 0.83631348E+02</pdfrwt>
<pdfrwt beam="2">  1       -2 0.86412050E-02 0.83631348E+02</pdfrwt>
<totfact> 0.21396458E+04</totfact>
</mgrwt>
</event>
<event>
 4    1  0.4941530E-001  0.1003100E+03  0.7546771E-02  0.1279645E+00
         -1   -1    0    0    0  501 -0.00000000000E+00  0.00000000000E+00  0.72763580280E+02  0.72763580280E+02  0.00000000000E+00 0.  1.
          1   -1    0    0  501    0  0.00000000000E+00 -0.00000000000E+00 -0.29402163542E+03  0.29402163542E+03  0.00000000000E+00 0. -1.
         24    1    1    2    0    0  0.24783278697E+02  0.54595579870E+02  0.22842219861E+02  0.10287794325E+03  0.80419002446E+02 0.  1.
        -24    1    1    2    0    0 -0.24783278697E+02 -0.54595579870E+02 -0.24410027500E+03  0.26390727245E+03  0.80419002446E+02 0. -1.
<mgrwt>
<rscale>  0 0.10031004E+03</rscale>
<asrwt>0</asrwt>
<pdfrwt beam="1">  1        1 0.45234097E-01 0.10031004E+03</pdfrwt>
<pdfrwt beam="2">  1       -1 0.11194397E-01 0.10031004E+03</pdfrwt>
<totfact> 0.43388499E+03</totfact>
</mgrwt>
</event>
<event>
 4    1  0.4941530E-001  0.1294318E+03  0.7546771E-02  0.1228301E+00
          4   -1    0    0  501    0  0.00000000000E+00  0.00000000000E+00  0.10008112612E+03  0.10008112612E+03  0.00000000000E+00 0. -1.
         -4   -1    0    0    0  501 -0.00000000000E+00 -0.00000000000E+00 -0.26315762117E+03  0.26315762117E+03  0.00000000000E+00 0.  1.
         24    1    1    2    0    0 -0.92805000535E+02  0.40897423016E+02  0.28024639172E+02  0.13243097707E+03  0.80419002446E+02 0. -1.
        -24    1    1    2    0    0  0.92805000535E+02 -0.40897423016E+02 -0.19110113423E+03  0.23080777022E+03  0.80419002446E+02 0.  1.
<mgrwt>
<rscale>  0 0.12943177E+03</rscale>
<asrwt>0</asrwt>
<pdfrwt beam="1">  1        4 0.15397096E-01 0.12943177E+03</pdfrwt>
<pdfrwt beam="2">  1       -4 0.40485788E-01 0.12943177E+03</pdfrwt>
<totfact> 0.35230837E+02</totfact>
</mgrwt>
</event>
<event>
 4    1  0.4941530E-001  0.1017158E+03  0.7546771E-02  0.1276729E+00
          2   -1    0    0  501    0  0.00000000000E+00  0.00000000000E+00  0.12970519254E+04  0.12970519254E+04  0.00000000000E+00 0. -1.
         -2   -1    0    0    0  501 -0.00000000000E+00 -0.00000000000E+00 -0.16477437720E+02  0.16477437720E+02  0.00000000000E+00 0.  1.
         24    1    1    2    0    0  0.40362781455E+02 -0.47431324644E+02  0.11120189850E+04  0.11166612395E+04  0.80419002446E+02 0. -1.
        -24    1    1    2    0    0 -0.40362781455E+02  0.47431324644E+02  0.16855550261E+03  0.19686812362E+03  0.80419002446E+02 0.  1.
<mgrwt>
<rscale>  0 0.10171578E+03</rscale>
<asrwt>0</asrwt>
<pdfrwt beam="1">  1        2 0.19954637E+00 0.10171578E+03</pdfrwt>
<pdfrwt beam="2">  1       -2 0.25349914E-02 0.10171578E+03</pdfrwt>
<totfact> 0.91896864E+03</totfact>
</mgrwt>
</event>
<event>
 4    1  0.4941530E-001  0.1118665E+03  0.7546771E-02  0.1257152E+00
          2   -1    0    0  501    0  0.00000000000E+00  0.00000000000E+00  0.17918987891E+04  0.17918987891E+04  0.00000000000E+00 0. -1.
         -2   -1    0    0    0  501 -0.00000000000E+00 -0.00000000000E+00 -0.11938708150E+02  0.11938708150E+02  0.00000000000E+00 0.  1.
         24    1    1    2    0    0  0.37422134137E+02  0.68165059573E+02  0.14710258191E+04  0.14752732180E+04  0.80419002446E+02 0. -1.
        -24    1    1    2    0    0 -0.37422134137E+02 -0.68165059573E+02  0.30893426186E+03  0.32856427921E+03  0.80419002446E+02 0.  1.
<mgrwt>
<rscale>  0 0.11186647E+03</rscale>
<asrwt>0</asrwt>
<pdfrwt beam="1">  1        2 0.27567652E+00 0.11186647E+03</pdfrwt>
<pdfrwt beam="2">  1       -2 0.18367257E-02 0.11186647E+03</pdfrwt>
<totfact> 0.81790624E+03</totfact>
</mgrwt>
</event>
<event>
 4    1  0.4941530E-001  0.1109101E+03  0.7546771E-02  0.1258894E+00
          1   -1    0    0  501    0  0.00000000000E+00  0.00000000000E+00  0.13430738945E+02  0.13430738945E+02  0.00000000000E+00 0. -1.
         -1   -1    0    0    0  501 -0.00000000000E+00 -0.00000000000E+00 -0.97213499542E+03  0.97213499542E+03  0.00000000000E+00 0.  1.
         24    1    1    2    0    0  0.75424660779E+02 -0.12039511671E+02 -0.59788644407E+03  0.60808654421E+03  0.80419002446E+02 0. -1.
        -24    1    1    2    0    0 -0.75424660779E+02  0.12039511671E+02 -0.36081781241E+03  0.37747919016E+03  0.80419002446E+02 0.  0.
<mgrwt>
<rscale>  0 0.11091008E+03</rscale>
<asrwt>0</asrwt>
<pdfrwt beam="1">  1        1 0.20662675E-02 0.11091008E+03</pdfrwt>
<pdfrwt beam="2">  1       -1 0.14955923E+00 0.11091008E+03</pdfrwt>
<totfact> 0.21077659E+03</totfact>
</mgrwt>
</event>
<event>
 4    1  0.4941530E-001  0.9302862E+02  0.7546771E-02  0.1295679E+00
         -2   -1    0    0    0  501 -0.00000000000E+00  0.00000000000E+00  0.11347087269E+02  0.11347087269E+02  0.00000000000E+00 0.  1.
          2   -1    0    0  501    0  0.00000000000E+00 -0.00000000000E+00 -0.13183944225E+04  0.13183944225E+04  0.00000000000E+00 0. -1.
         24    1    1    2    0    0 -0.42266430197E+02  0.20016409979E+02 -0.10851779012E+04  0.10891581157E+04  0.80419002446E+02 0. -1.
        -24    1    1    2    0    0  0.42266430197E+02 -0.20016409979E+02 -0.22186943404E+03  0.24058339407E+03  0.80419002446E+02 0.  1.
<mgrwt>
<rscale>  0 0.93028618E+02</rscale>
<asrwt>0</asrwt>
<pdfrwt beam="1">  1        2 0.20282997E+00 0.93028618E+02</pdfrwt>
<pdfrwt beam="2">  1       -2 0.17457052E-02 0.93028618E+02</pdfrwt>
<totfact> 0.15245469E+04</totfact>
</mgrwt>
</event>
<event>
 4    1  0.4941530E-001  0.8423562E+02  0.7546771E-02  0.1317444E+00
          2   -1    0    0  501    0  0.00000000000E+00  0.00000000000E+00  0.30097664747E+03  0.30097664747E+03  0.00000000000E+00 0. -1.
         -2   -1    0    0    0  501 -0.00000000000E+00 -0.00000000000E+00 -0.94832920659E+02  0.94832920659E+02  0.00000000000E+00 0.  1.
         24    1    1    2    0    0  0.10972551896E+02  0.22539465796E+02  0.27462241896E+03  0.28725095885E+03  0.80419002446E+02 0. -1.
        -24    1    1    2    0    0 -0.10972551896E+02 -0.22539465796E+02 -0.68478692152E+02  0.10855860927E+03  0.80419002446E+02 0.  1.
<mgrwt>
<rscale>  0 0.84235624E+02</rscale>
<asrwt>0</asrwt>
<pdfrwt beam="1">  1        2 0.46304099E-01 0.84235624E+02</pdfrwt>
<pdfrwt beam="2">  1       -2 0.14589680E-01 0.84235624E+02</pdfrwt>
<totfact> 0.36673279E+03</totfact>
</mgrwt>
</event>
<event>
 4    1  0.4941530E-001  0.9216490E+02  0.7546771E-02  0.1297692E+00
         -1   -1    0    0    0  501 -0.00000000000E+00  0.00000000000E+00  0.92320807705E+02  0.92320807705E+02  0.00000000000E+00 0.  1.
          1   -1    0    0  501    0  0.00000000000E+00 -0.00000000000E+00 -0.11972962635E+03  0.11972962635E+03  0.00000000000E+00 0. -1.
         24    1    1    2    0    0  0.37863184865E+02 -0.24362529503E+02  0.37311755629E+02  0.99431064936E+02  0.80419002446E+02 0.  1.
        -24    1    1    2    0    0 -0.37863184865E+02  0.24362529503E+02 -0.64720574276E+02  0.11261936912E+03  0.80419002446E+02 0. -1.
<mgrwt>
<rscale>  0 0.92164904E+02</rscale>
<asrwt>0</asrwt>
<pdfrwt beam="1">  1        1 0.18419943E-01 0.92164904E+02</pdfrwt>
<pdfrwt beam="2">  1       -1 0.14203201E-01 0.92164904E+02</pdfrwt>
<totfact> 0.90866981E+03</totfact>
</mgrwt>
</event>
<event>
 4    1  0.4941530E-001  0.1063622E+03  0.7546771E-02  0.1267459E+00
          1   -1    0    0  501    0  0.00000000000E+00  0.00000000000E+00  0.19287057740E+03  0.19287057740E+03  0.00000000000E+00 0. -1.
         -1   -1    0    0    0  501 -0.00000000000E+00 -0.00000000000E+00 -0.61888072557E+02  0.61888072557E+02  0.00000000000E+00 0.  1.
         24    1    1    2    0    0  0.48272502441E+02 -0.50154273964E+02  0.94603521186E+02  0.14234720884E+03  0.80419002446E+02 0. -1.
        -24    1    1    2    0    0 -0.48272502441E+02  0.50154273964E+02  0.36378983660E+02  0.11241144112E+03  0.80419002446E+02 0.  1.
<mgrwt>
<rscale>  0 0.10636214E+03</rscale>
<asrwt>0</asrwt>
<pdfrwt beam="1">  1        1 0.29672396E-01 0.10636215E+03</pdfrwt>
<pdfrwt beam="2">  1       -1 0.95212420E-02 0.10636215E+03</pdfrwt>
<totfact> 0.93478696E+03</totfact>
</mgrwt>
</event>
<event>
 4    1  0.4941530E-001  0.8503684E+02  0.7546771E-02  0.1315336E+00
         -2   -1    0    0    0  501 -0.00000000000E+00  0.00000000000E+00  0.25359174453E+02  0.25359174453E+02  0.00000000000E+00 0.  1.
          2   -1    0    0  501    0  0.00000000000E+00 -0.00000000000E+00 -0.38961905065E+03  0.38961905065E+03  0.00000000000E+00 0. -1.
         24    1    1    2    0    0 -0.50429385878E+01  0.27177510250E+02 -0.28956875196E+03  0.30179682960E+03  0.80419002446E+02 0. -1.
        -24    1    1    2    0    0  0.50429385878E+01 -0.27177510250E+02 -0.74691124238E+02  0.11318139550E+03  0.80419002446E+02 0.  1.
<mgrwt>
<rscale>  0 0.85036841E+02</rscale>
<asrwt>0</asrwt>
<pdfrwt beam="1">  1        2 0.59941386E-01 0.85036841E+02</pdfrwt>
<pdfrwt beam="2">  1       -2 0.39014119E-02 0.85036841E+02</pdfrwt>
<totfact> 0.20959663E+04</totfact>
</mgrwt>
</event>
<event>
 4    1  0.4941530E-001  0.8513218E+02  0.7546771E-02  0.1315087E+00
          2   -1    0    0  501    0  0.00000000000E+00  0.00000000000E+00  0.68546509613E+03  0.68546509613E+03  0.00000000000E+00 0. -1.
         -2   -1    0    0    0  501 -0.00000000000E+00 -0.00000000000E+00 -0.10582372616E+02  0.10582372616E+02  0.00000000000E+00 0.  1.
         24    1    1    2    0    0 -0.13672363140E+02 -0.24358533903E+02  0.34774601647E+03  0.35801505501E+03  0.80419002446E+02 0.  1.
        -24    1    1    2    0    0  0.13672363140E+02  0.24358533903E+02  0.32713670704E+03  0.33803241373E+03  0.80419002446E+02 0.  0.
<mgrwt>
<rscale>  0 0.85132177E+02</rscale>
<asrwt>0</asrwt>
<pdfrwt beam="1">  1        2 0.10545613E+00 0.85132177E+02</pdfrwt>
<pdfrwt beam="2">  1       -2 0.16280579E-02 0.85132177E+02</pdfrwt>
<totfact> 0.40020168E+04</totfact>
</mgrwt>
</event>
<event>
 4    1  0.4941530E-001  0.8447992E+02  0.7546771E-02  0.1316798E+00
         -1   -1    0    0    0  501 -0.00000000000E+00  0.00000000000E+00  0.17030283012E+03  0.17030283012E+03  0.00000000000E+00 0.  1.
          1   -1    0    0  501    0  0.00000000000E+00 -0.00000000000E+00 -0.70625162393E+03  0.70625162393E+03  0.00000000000E+00 0. -1.
         24    1    1    2    0    0  0.21523690357E+02  0.14365652880E+02  0.15710096485E+03  0.17837480298E+03  0.80419002446E+02 0.  1.
        -24    1    1    2    0    0 -0.21523690357E+02 -0.14365652880E+02 -0.69304975865E+03  0.69817965106E+03  0.80419002446E+02 0. -1.
<mgrwt>
<rscale>  0 0.84479922E+02</rscale>
<asrwt>0</asrwt>
<pdfrwt beam="1">  1        1 0.10865409E+00 0.84479922E+02</pdfrwt>
<pdfrwt beam="2">  1       -1 0.26200436E-01 0.84479922E+02</pdfrwt>
<totfact> 0.36963671E+02</totfact>
</mgrwt>
</event>
<event>
 4    1  0.4941530E-001  0.9150064E+02  0.7546771E-02  0.1299258E+00
         -1   -1    0    0    0  501 -0.00000000000E+00  0.00000000000E+00  0.15898743267E+02  0.15898743267E+02  0.00000000000E+00 0.  1.
          1   -1    0    0  501    0  0.00000000000E+00 -0.00000000000E+00 -0.61349933173E+03  0.61349933173E+03  0.00000000000E+00 0. -1.
         24    1    1    2    0    0  0.38524959148E+02 -0.20517665902E+02 -0.41723616322E+03  0.42715147072E+03  0.80419002446E+02 0.  0.
        -24    1    1    2    0    0 -0.38524959148E+02  0.20517665902E+02 -0.18036442525E+03  0.20224660428E+03  0.80419002446E+02 0.  0.
<mgrwt>
<rscale>  0 0.91500629E+02</rscale>
<asrwt>0</asrwt>
<pdfrwt beam="1">  1        1 0.94384526E-01 0.91500641E+02</pdfrwt>
<pdfrwt beam="2">  1       -1 0.24459602E-02 0.91500641E+02</pdfrwt>
<totfact> 0.15927220E+04</totfact>
</mgrwt>
</event>
<event>
 4    1  0.4941530E-001  0.1026647E+03  0.7546771E-02  0.1274790E+00
          1   -1    0    0  501    0  0.00000000000E+00  0.00000000000E+00  0.63363517390E+02  0.63363517390E+02  0.00000000000E+00 0. -1.
         -1   -1    0    0    0  501 -0.00000000000E+00 -0.00000000000E+00 -0.83871884700E+03  0.83871884700E+03  0.00000000000E+00 0.  1.
         24    1    1    2    0    0 -0.44401621619E+02 -0.45840152009E+02 -0.79152222938E+03  0.79815254124E+03  0.80419002446E+02 0.  1.
        -24    1    1    2    0    0  0.44401621619E+02  0.45840152009E+02  0.16166899760E+02  0.10392982315E+03  0.80419002446E+02 0. -1.
<mgrwt>
<rscale>  0 0.10266469E+03</rscale>
<asrwt>0</asrwt>
<pdfrwt beam="1">  1        1 0.97482335E-02 0.10266469E+03</pdfrwt>
<pdfrwt beam="2">  1       -1 0.12903367E+00 0.10266469E+03</pdfrwt>
<totfact> 0.36893997E+02</totfact>
</mgrwt>
</event>
<event>
 4    1  0.4941530E-001  0.1181390E+03  0.7546771E-02  0.1246199E+00
          4   -1    0    0  501    0  0.00000000000E+00  0.00000000000E+00  0.41457231316E+02  0.41457231316E+02  0.00000000000E+00 0. -1.
         -4   -1    0    0    0  501 -0.00000000000E+00 -0.00000000000E+00 -0.34408827293E+03  0.34408827293E+03  0.00000000000E+00 0.  1.
         24    1    1    2    0    0 -0.30356169048E+02 -0.81043934284E+02 -0.12298419456E+03  0.17053429083E+03  0.80419002446E+02 0.  0.
        -24    1    1    2    0    0  0.30356169048E+02  0.81043934284E+02 -0.17964684706E+03  0.21501121342E+03  0.80419002446E+02 0.  1.
<mgrwt>
<rscale>  0 0.11813904E+03</rscale>
<asrwt>0</asrwt>
<pdfrwt beam="1">  1        4 0.63780355E-02 0.11813904E+03</pdfrwt>
<pdfrwt beam="2">  1       -4 0.52936658E-01 0.11813904E+03</pdfrwt>
<totfact> 0.88897860E+02</totfact>
</mgrwt>
</event>
<event>
 4    1  0.4941530E-001  0.8985928E+02  0.7546771E-02  0.1303193E+00
         -2   -1    0    0    0  501 -0.00000000000E+00  0.00000000000E+00  0.41171498464E+01  0.41171498464E+01  0.00000000000E+00 0.  1.
          2   -1    0    0  501    0  0.00000000000E+00 -0.00000000000E+00 -0.22152650396E+04  0.22152650396E+04  0.00000000000E+00 0. -1.
         24    1    1    2    0    0 -0.36825592113E+02 -0.15854024555E+02 -0.14813537810E+04  0.14840767213E+04  0.80419002446E+02 0. -1.
        -24    1    1    2    0    0  0.36825592113E+02  0.15854024555E+02 -0.72979410871E+03  0.73530546809E+03  0.80419002446E+02 0.  1.
<mgrwt>
<rscale>  0 0.89859280E+02</rscale>
<asrwt>0</asrwt>
<pdfrwt beam="1">  1        2 0.34081000E+00 0.89859280E+02</pdfrwt>
<pdfrwt beam="2">  1       -2 0.63340768E-03 0.89859280E+02</pdfrwt>
<totfact> 0.22464290E+04</totfact>
</mgrwt>
</event>
<event>
 4    1  0.4941530E-001  0.1387376E+03  0.7546771E-02  0.1215038E+00
         -2   -1    0    0    0  501 -0.00000000000E+00  0.00000000000E+00  0.39039314871E+02  0.39039314871E+02  0.00000000000E+00 0.  1.
          2   -1    0    0  501    0  0.00000000000E+00 -0.00000000000E+00 -0.83869225069E+03  0.83869225069E+03  0.00000000000E+00 0. -1.
         24    1    1    2    0    0  0.97044013592E+01  0.11263536312E+03 -0.68156569806E+03  0.69554289383E+03  0.80419002446E+02 0. -1.
        -24    1    1    2    0    0 -0.97044013592E+01 -0.11263536312E+03 -0.11808723776E+03  0.18218867173E+03  0.80419002446E+02 0.  1.
<mgrwt>
<rscale>  0 0.13873758E+03</rscale>
<asrwt>0</asrwt>
<pdfrwt beam="1">  1        2 0.12902957E+00 0.13873758E+03</pdfrwt>
<pdfrwt beam="2">  1       -2 0.60060486E-02 0.13873758E+03</pdfrwt>
<totfact> 0.48034711E+03</totfact>
</mgrwt>
</event>
<event>
 4    1  0.4941530E-001  0.1000159E+03  0.7546771E-02  0.1280263E+00
         -1   -1    0    0    0  501 -0.00000000000E+00  0.00000000000E+00  0.13946421995E+03  0.13946421995E+03  0.00000000000E+00 0.  1.
          1   -1    0    0  501    0  0.00000000000E+00 -0.00000000000E+00 -0.10579186386E+03  0.10579186386E+03  0.00000000000E+00 0. -1.
         24    1    1    2    0    0 -0.17040629428E+02  0.56969936882E+02  0.86422694493E+02  0.13218190057E+03  0.80419002446E+02 0.  1.
        -24    1    1    2    0    0  0.17040629428E+02 -0.56969936882E+02 -0.52750338404E+02  0.11307418324E+03  0.80419002446E+02 0. -1.
<mgrwt>
<rscale>  0 0.10001586E+03</rscale>
<asrwt>0</asrwt>
<pdfrwt beam="1">  1        1 0.16275671E-01 0.10001586E+03</pdfrwt>
<pdfrwt beam="2">  1       -1 0.21456034E-01 0.10001586E+03</pdfrwt>
<totfact> 0.55950503E+03</totfact>
</mgrwt>
</event>
<event>
 4    1  0.4941530E-001  0.9315382E+02  0.7546771E-02  0.1295389E+00
          2   -1    0    0  501    0  0.00000000000E+00  0.00000000000E+00  0.23407297110E+03  0.23407297110E+03  0.00000000000E+00 0. -1.
         -2   -1    0    0    0  501 -0.00000000000E+00 -0.00000000000E+00 -0.43541809185E+02  0.43541809185E+02  0.00000000000E+00 0.  1.
         24    1    1    2    0    0  0.13031572783E+01 -0.46997016187E+02  0.14877047937E+03  0.17552859948E+03  0.80419002446E+02 0. -1.
        -24    1    1    2    0    0 -0.13031572783E+01  0.46997016187E+02  0.41760682539E+02  0.10208618080E+03  0.80419002446E+02 0.  1.
<mgrwt>
<rscale>  0 0.93153817E+02</rscale>
<asrwt>0</asrwt>
<pdfrwt beam="1">  1        2 0.36011226E-01 0.93153817E+02</pdfrwt>
<pdfrwt beam="2">  1       -2 0.66987400E-02 0.93153817E+02</pdfrwt>
<totfact> 0.16143998E+04</totfact>
</mgrwt>
</event>
<event>
 4    1  0.4941530E-001  0.9575053E+02  0.7546771E-02  0.1289495E+00
         -1   -1    0    0    0  501 -0.00000000000E+00  0.00000000000E+00  0.26903101810E+03  0.26903101810E+03  0.00000000000E+00 0.  1.
          1   -1    0    0  501    0  0.00000000000E+00 -0.00000000000E+00 -0.22628333242E+03  0.22628333242E+03  0.00000000000E+00 0. -1.
         24    1    1    2    0    0 -0.42919674445E+02 -0.29306142369E+02  0.24962175936E+03  0.26735591846E+03  0.80419002446E+02 0.  1.
        -24    1    1    2    0    0  0.42919674445E+02  0.29306142369E+02 -0.20687407367E+03  0.22795843206E+03  0.80419002446E+02 0. -1.
<mgrwt>
<rscale>  0 0.95750532E+02</rscale>
<asrwt>0</asrwt>
<pdfrwt beam="1">  1        1 0.34812820E-01 0.95750532E+02</pdfrwt>
<pdfrwt beam="2">  1       -1 0.41389387E-01 0.95750532E+02</pdfrwt>
<totfact> 0.72340486E+02</totfact>
</mgrwt>
</event>
<event>
 4    1  0.4941530E-001  0.1118920E+03  0.7546771E-02  0.1257106E+00
         -1   -1    0    0    0  501 -0.00000000000E+00  0.00000000000E+00  0.67378645911E+03  0.67378645911E+03  0.00000000000E+00 0.  1.
          1   -1    0    0  501    0  0.00000000000E+00 -0.00000000000E+00 -0.21319906222E+02  0.21319906222E+02  0.00000000000E+00 0. -1.
         24    1    1    2    0    0 -0.58960407522E+02 -0.50756904763E+02  0.20166837285E+03  0.23062944651E+03  0.80419002446E+02 0.  1.
        -24    1    1    2    0    0  0.58960407522E+02  0.50756904763E+02  0.45079818003E+03  0.46447691881E+03  0.80419002446E+02 0. -1.
<mgrwt>
<rscale>  0 0.11189197E+03</rscale>
<asrwt>0</asrwt>
<pdfrwt beam="1">  1        1 0.32799861E-02 0.11189198E+03</pdfrwt>
<pdfrwt beam="2">  1       -1 0.10365944E+00 0.11189198E+03</pdfrwt>
<totfact> 0.26663250E+03</totfact>
</mgrwt>
</event>
<event>
 4    1  0.4941530E-001  0.9092649E+02  0.7546771E-02  0.1300623E+00
         -2   -1    0    0    0  501 -0.00000000000E+00  0.00000000000E+00  0.95606312931E+01  0.95606312931E+01  0.00000000000E+00 0.  1.
          2   -1    0    0  501    0  0.00000000000E+00 -0.00000000000E+00 -0.88020678052E+03  0.88020678052E+03  0.00000000000E+00 0. -1.
         24    1    1    2    0    0  0.26434825584E+02 -0.33190525363E+02 -0.49426295894E+03  0.50255696146E+03  0.80419002446E+02 0.  0.
        -24    1    1    2    0    0 -0.26434825584E+02  0.33190525363E+02 -0.37638319029E+03  0.38721045035E+03  0.80419002446E+02 0. -1.
<mgrwt>
<rscale>  0 0.90926492E+02</rscale>
<asrwt>0</asrwt>
<pdfrwt beam="1">  1        2 0.13541646E+00 0.90926492E+02</pdfrwt>
<pdfrwt beam="2">  1       -2 0.14708660E-02 0.90926492E+02</pdfrwt>
<totfact> 0.34441262E+04</totfact>
</mgrwt>
</event>
<event>
 4    1  0.4941530E-001  0.8859673E+02  0.7546771E-02  0.1306286E+00
          4   -1    0    0  501    0  0.00000000000E+00  0.00000000000E+00  0.37518432801E+02  0.37518432801E+02  0.00000000000E+00 0. -1.
         -4   -1    0    0    0  501 -0.00000000000E+00 -0.00000000000E+00 -0.21518004451E+03  0.21518004451E+03  0.00000000000E+00 0.  1.
         24    1    1    2    0    0  0.90438600647E+01 -0.36060698375E+02 -0.67792297303E+02  0.11155795310E+03  0.80419002446E+02 0. -1.
        -24    1    1    2    0    0 -0.90438600647E+01  0.36060698375E+02 -0.10986931441E+03  0.14114052421E+03  0.80419002446E+02 0.  1.
<mgrwt>
<rscale>  0 0.88596734E+02</rscale>
<asrwt>0</asrwt>
<pdfrwt beam="1">  1        4 0.57720666E-02 0.88596734E+02</pdfrwt>
<pdfrwt beam="2">  1       -4 0.33104622E-01 0.88596734E+02</pdfrwt>
<totfact> 0.24560672E+03</totfact>
</mgrwt>
</event>
<event>
 4    1  0.4941530E-001  0.8123433E+02  0.7546771E-02  0.1325585E+00
         -2   -1    0    0    0  501 -0.00000000000E+00  0.00000000000E+00  0.27123001429E+02  0.27123001429E+02  0.00000000000E+00 0.  1.
          2   -1    0    0  501    0  0.00000000000E+00 -0.00000000000E+00 -0.24384778552E+03  0.24384778552E+03  0.00000000000E+00 0. -1.
         24    1    1    2    0    0 -0.10399131286E+02  0.48637243056E+01 -0.10193815357E+03  0.13034723186E+03  0.80419002446E+02 0. -1.
        -24    1    1    2    0    0  0.10399131286E+02 -0.48637243056E+01 -0.11478663052E+03  0.14062355509E+03  0.80419002446E+02 0.  1.
<mgrwt>
<rscale>  0 0.81234324E+02</rscale>
<asrwt>0</asrwt>
<pdfrwt beam="1">  1        2 0.37515044E-01 0.81234334E+02</pdfrwt>
<pdfrwt beam="2">  1       -2 0.41727695E-02 0.81234334E+02</pdfrwt>
<totfact> 0.30808267E+04</totfact>
</mgrwt>
</event>
<event>
 4    1  0.4941530E-001  0.1017400E+03  0.7546771E-02  0.1276679E+00
         -2   -1    0    0    0  501 -0.00000000000E+00  0.00000000000E+00  0.51912078215E+02  0.51912078215E+02  0.00000000000E+00 0.  1.
          2   -1    0    0  501    0  0.00000000000E+00 -0.00000000000E+00 -0.20405057469E+03  0.20405057469E+03  0.00000000000E+00 0. -1.
         24    1    1    2    0    0  0.22868295841E+02 -0.57972876440E+02 -0.56738620966E+02  0.11649163241E+03  0.80419002446E+02 0.  0.
        -24    1    1    2    0    0 -0.22868295841E+02  0.57972876440E+02 -0.95399875513E+02  0.13947102050E+03  0.80419002446E+02 0.  0.
<mgrwt>
<rscale>  0 0.10174002E+03</rscale>
<asrwt>0</asrwt>
<pdfrwt beam="1">  1        2 0.31392396E-01 0.10174003E+03</pdfrwt>
<pdfrwt beam="2">  1       -2 0.79864735E-02 0.10174003E+03</pdfrwt>
<totfact> 0.14416514E+04</totfact>
</mgrwt>
</event>
<event>
 4    1  0.4941530E-001  0.2153249E+03  0.7546771E-02  0.1137417E+00
          2   -1    0    0  501    0  0.00000000000E+00  0.00000000000E+00  0.16578020957E+04  0.16578020957E+04  0.00000000000E+00 0. -1.
         -2   -1    0    0    0  501 -0.00000000000E+00 -0.00000000000E+00 -0.42356538170E+02  0.42356538170E+02  0.00000000000E+00 0.  1.
         24    1    1    2    0    0  0.39279448008E+02  0.19584362749E+03  0.13031877352E+04  0.13208569531E+04  0.80419002446E+02 0. -1.
        -24    1    1    2    0    0 -0.39279448008E+02 -0.19584362749E+03  0.31225782236E+03  0.37930168078E+03  0.80419002446E+02 0.  1.
<mgrwt>
<rscale>  0 0.21532491E+03</rscale>
<asrwt>0</asrwt>
<pdfrwt beam="1">  1        2 0.25504643E+00 0.21532491E+03</pdfrwt>
<pdfrwt beam="2">  1       -2 0.65163918E-02 0.21532491E+03</pdfrwt>
<totfact> 0.14707650E+03</totfact>
</mgrwt>
</event>
<event>
 4    1  0.4941530E-001  0.9775332E+02  0.7546771E-02  0.1285093E+00
         -1   -1    0    0    0  501 -0.00000000000E+00  0.00000000000E+00  0.68198477317E+02  0.68198477317E+02  0.00000000000E+00 0.  1.
          1   -1    0    0  501    0  0.00000000000E+00 -0.00000000000E+00 -0.14775269059E+03  0.14775269059E+03  0.00000000000E+00 0. -1.
         24    1    1    2    0    0 -0.55563595047E+02  0.10871848353E+01 -0.15229736684E+02  0.98932582597E+02  0.80419002446E+02 0.  1.
        -24    1    1    2    0    0  0.55563595047E+02 -0.10871848353E+01 -0.64324476589E+02  0.11701858531E+03  0.80419002446E+02 0. -1.
<mgrwt>
<rscale>  0 0.97753317E+02</rscale>
<asrwt>0</asrwt>
<pdfrwt beam="1">  1        1 0.22731183E-01 0.97753317E+02</pdfrwt>
<pdfrwt beam="2">  1       -1 0.10492074E-01 0.97753317E+02</pdfrwt>
<totfact> 0.11150483E+04</totfact>
</mgrwt>
</event>
<event>
 4    1  0.4941530E-001  0.1007656E+03  0.7546771E-02  0.1278694E+00
         -2   -1    0    0    0  501 -0.00000000000E+00  0.00000000000E+00  0.57227839439E+03  0.57227839439E+03  0.00000000000E+00 0.  1.
          2   -1    0    0  501    0  0.00000000000E+00 -0.00000000000E+00 -0.18795103232E+02  0.18795103232E+02  0.00000000000E+00 0. -1.
         24    1    1    2    0    0 -0.60692697642E+02 -0.16978317742E+01  0.34667791741E+03  0.36102531844E+03  0.80419002446E+02 0.  0.
        -24    1    1    2    0    0  0.60692697642E+02  0.16978317742E+01  0.20680537375E+03  0.23004817919E+03  0.80419002446E+02 0.  0.
<mgrwt>
<rscale>  0 0.10076559E+03</rscale>
<asrwt>0</asrwt>
<pdfrwt beam="1">  1        2 0.28915548E-02 0.10076561E+03</pdfrwt>
<pdfrwt beam="2">  1       -2 0.88042817E-01 0.10076561E+03</pdfrwt>
<totfact> 0.35096817E+03</totfact>
</mgrwt>
</event>
<event>
 4    1  0.4941530E-001  0.8329036E+02  0.7546771E-02  0.1319965E+00
          2   -1    0    0  501    0  0.00000000000E+00  0.00000000000E+00  0.49263232470E+03  0.49263232470E+03  0.00000000000E+00 0. -1.
         -2   -1    0    0    0  501 -0.00000000000E+00 -0.00000000000E+00 -0.19353588664E+02  0.19353588664E+02  0.00000000000E+00 0.  1.
         24    1    1    2    0    0 -0.57674766988E+01 -0.20899876722E+02  0.37024199408E+03  0.37949495224E+03  0.80419002446E+02 0.  1.
        -24    1    1    2    0    0  0.57674766988E+01  0.20899876722E+02  0.10303674195E+03  0.13249096113E+03  0.80419002446E+02 0.  1.
<mgrwt>
<rscale>  0 0.83290363E+02</rscale>
<asrwt>0</asrwt>
<pdfrwt beam="1">  1        2 0.75789579E-01 0.83290363E+02</pdfrwt>
<pdfrwt beam="2">  1       -2 0.29774756E-02 0.83290363E+02</pdfrwt>
<totfact> 0.24186916E+04</totfact>
</mgrwt>
</event>
<event>
 4    1  0.4941530E-001  0.8338259E+02  0.7546771E-02  0.1319717E+00
          1   -1    0    0  501    0  0.00000000000E+00  0.00000000000E+00  0.14272866401E+03  0.14272866401E+03  0.00000000000E+00 0. -1.
         -1   -1    0    0    0  501 -0.00000000000E+00 -0.00000000000E+00 -0.49408398099E+02  0.49408398099E+02  0.00000000000E+00 0.  1.
         24    1    1    2    0    0 -0.15256350161E+02  0.15896043579E+02  0.35258069028E+02  0.90530590452E+02  0.80419002446E+02 0.  1.
        -24    1    1    2    0    0  0.15256350161E+02 -0.15896043579E+02  0.58062196887E+02  0.10160647166E+03  0.80419002446E+02 0. -1.
<mgrwt>
<rscale>  0 0.83382590E+02</rscale>
<asrwt>0</asrwt>
<pdfrwt beam="1">  1        1 0.21958256E-01 0.83382590E+02</pdfrwt>
<pdfrwt beam="2">  1       -1 0.76012921E-02 0.83382590E+02</pdfrwt>
<totfact> 0.18577294E+04</totfact>
</mgrwt>
</event>
<event>
 4    1  0.4941530E-001  0.8670423E+02  0.7546771E-02  0.1311035E+00
         -2   -1    0    0    0  501 -0.00000000000E+00  0.00000000000E+00  0.90242874827E+03  0.90242874827E+03  0.00000000000E+00 0.  1.
          2   -1    0    0  501    0  0.00000000000E+00 -0.00000000000E+00 -0.11880260395E+02  0.11880260395E+02  0.00000000000E+00 0. -1.
         24    1    1    2    0    0  0.26087019034E+02  0.19232146749E+02  0.19538157105E+03  0.21375589417E+03  0.80419002446E+02 0. -1.
        -24    1    1    2    0    0 -0.26087019034E+02 -0.19232146749E+02  0.69516691683E+03  0.70055311450E+03  0.80419002446E+02 0.  1.
<mgrwt>
<rscale>  0 0.86704233E+02</rscale>
<asrwt>0</asrwt>
<pdfrwt beam="1">  1        2 0.18277331E-02 0.86704233E+02</pdfrwt>
<pdfrwt beam="2">  1       -2 0.13883514E+00 0.86704233E+02</pdfrwt>
<totfact> 0.22065230E+03</totfact>
</mgrwt>
</event>
<event>
 4    1  0.4941530E-001  0.8805411E+02  0.7546771E-02  0.1307634E+00
         -1   -1    0    0    0  501 -0.00000000000E+00  0.00000000000E+00  0.15840138977E+02  0.15840138977E+02  0.00000000000E+00 0.  1.
          1   -1    0    0  501    0  0.00000000000E+00 -0.00000000000E+00 -0.53193841442E+03  0.53193841442E+03  0.00000000000E+00 0. -1.
         24    1    1    2    0    0 -0.34669995248E+02 -0.91815957602E+01 -0.18067504619E+03  0.20099004588E+03  0.80419002446E+02 0.  1.
        -24    1    1    2    0    0  0.34669995248E+02  0.91815957602E+01 -0.33542322925E+03  0.34678850752E+03  0.80419002446E+02 0. -1.
<mgrwt>
<rscale>  0 0.88054110E+02</rscale>
<asrwt>0</asrwt>
<pdfrwt beam="1">  1        1 0.81836693E-01 0.88054110E+02</pdfrwt>
<pdfrwt beam="2">  1       -1 0.24369440E-02 0.88054110E+02</pdfrwt>
<totfact> 0.19265363E+04</totfact>
</mgrwt>
</event>
<event>
 4    1  0.4941530E-001  0.1478167E+03  0.7546771E-02  0.1203182E+00
         -1   -1    0    0    0  501 -0.00000000000E+00  0.00000000000E+00  0.12493493603E+03  0.12493493603E+03  0.00000000000E+00 0.  1.
          1   -1    0    0  501    0  0.00000000000E+00 -0.00000000000E+00 -0.26031431852E+03  0.26031431852E+03  0.00000000000E+00 0. -1.
         24    1    1    2    0    0 -0.10746948199E+03 -0.61910265021E+02  0.42655970695E+02  0.15384836127E+03  0.80419002446E+02 0.  1.
        -24    1    1    2    0    0  0.10746948199E+03  0.61910265021E+02 -0.17803535319E+03  0.23140089329E+03  0.80419002446E+02 0. -1.
<mgrwt>
<rscale>  0 0.14781673E+03</rscale>
<asrwt>0</asrwt>
<pdfrwt beam="1">  1        1 0.40048356E-01 0.14781673E+03</pdfrwt>
<pdfrwt beam="2">  1       -1 0.19220760E-01 0.14781673E+03</pdfrwt>
<totfact> 0.22086535E+03</totfact>
</mgrwt>
</event>
<event>
 4    1  0.4941530E-001  0.9434907E+02  0.7546771E-02  0.1292649E+00
          1   -1    0    0  501    0  0.00000000000E+00  0.00000000000E+00  0.69841583313E+03  0.69841583313E+03  0.00000000000E+00 0. -1.
         -1   -1    0    0    0  501 -0.00000000000E+00 -0.00000000000E+00 -0.15632458576E+02  0.15632458576E+02  0.00000000000E+00 0.  1.
         24    1    1    2    0    0  0.30403314598E+02  0.38860908493E+02  0.18796720417E+03  0.21031742093E+03  0.80419002446E+02 0.  0.
        -24    1    1    2    0    0 -0.30403314598E+02 -0.38860908493E+02  0.49481617038E+03  0.50373087077E+03  0.80419002446E+02 0.  0.
<mgrwt>
<rscale>  0 0.94349074E+02</rscale>
<asrwt>0</asrwt>
<pdfrwt beam="1">  1        1 0.10744857E+00 0.94349074E+02</pdfrwt>
<pdfrwt beam="2">  1       -1 0.24049942E-02 0.94349074E+02</pdfrwt>
<totfact> 0.13686115E+04</totfact>
</mgrwt>
</event>
<event>
 4    1  0.4941530E-001  0.1014326E+03  0.7546771E-02  0.1277312E+00
          1   -1    0    0  501    0  0.00000000000E+00  0.00000000000E+00  0.58422647408E+03  0.58422647408E+03  0.00000000000E+00 0. -1.
         -1   -1    0    0    0  501 -0.00000000000E+00 -0.00000000000E+00 -0.23938523567E+02  0.23938523567E+02  0.00000000000E+00 0.  1.
         24    1    1    2    0    0  0.20491787130E+02 -0.58321976756E+02  0.12380287993E+03  0.16004916540E+03  0.80419002446E+02 0.  1.
        -24    1    1    2    0    0 -0.20491787130E+02  0.58321976756E+02  0.43648507059E+03  0.44811583225E+03  0.80419002446E+02 0. -1.
<mgrwt>
<rscale>  0 0.10143265E+03</rscale>
<asrwt>0</asrwt>
<pdfrwt beam="1">  1        1 0.89880985E-01 0.10143265E+03</pdfrwt>
<pdfrwt beam="2">  1       -1 0.36828502E-02 0.10143265E+03</pdfrwt>
<totfact> 0.95032813E+03</totfact>
</mgrwt>
</event>
<event>
 4    1  0.4941530E-001  0.8480047E+02  0.7546771E-02  0.1315955E+00
         -1   -1    0    0    0  501 -0.00000000000E+00  0.00000000000E+00  0.22023731600E+02  0.22023731600E+02  0.00000000000E+00 0.  1.
          1   -1    0    0  501    0  0.00000000000E+00 -0.00000000000E+00 -0.54510993325E+03  0.54510993325E+03  0.00000000000E+00 0. -1.
         24    1    1    2    0    0  0.19604529379E+02 -0.18427321391E+02 -0.81974011004E+02  0.11794430118E+03  0.80419002446E+02 0.  1.
        -24    1    1    2    0    0 -0.19604529379E+02  0.18427321391E+02 -0.44111219065E+03  0.44918936367E+03  0.80419002446E+02 0. -1.
<mgrwt>
<rscale>  0 0.84800470E+02</rscale>
<asrwt>0</asrwt>
<pdfrwt beam="1">  1        1 0.83863063E-01 0.84800470E+02</pdfrwt>
<pdfrwt beam="2">  1       -1 0.33882665E-02 0.84800470E+02</pdfrwt>
<totfact> 0.11581502E+04</totfact>
</mgrwt>
</event>
<event>
 4    1  0.4941530E-001  0.8512411E+02  0.7546771E-02  0.1315108E+00
          1   -1    0    0  501    0  0.00000000000E+00  0.00000000000E+00  0.12418830097E+04  0.12418830097E+04  0.00000000000E+00 0. -1.
         -1   -1    0    0    0  501 -0.00000000000E+00 -0.00000000000E+00 -0.58571748306E+01  0.58571748306E+01  0.00000000000E+00 0.  1.
         24    1    1    2    0    0  0.19296847614E+02 -0.20162512632E+02  0.65659156452E+03  0.66208654555E+03  0.80419002446E+02 0.  0.
        -24    1    1    2    0    0 -0.19296847614E+02  0.20162512632E+02  0.57943427039E+03  0.58565363902E+03  0.80419002446E+02 0. -1.
<mgrwt>
<rscale>  0 0.85124104E+02</rscale>
<asrwt>0</asrwt>
<pdfrwt beam="1">  1        1 0.19105871E+00 0.85124114E+02</pdfrwt>
<pdfrwt beam="2">  1       -1 0.90110481E-03 0.85124114E+02</pdfrwt>
<totfact> 0.21580091E+04</totfact>
</mgrwt>
</event>
<event>
 4    1  0.4941530E-001  0.1017198E+03  0.7546771E-02  0.1276720E+00
         -2   -1    0    0    0  501 -0.00000000000E+00  0.00000000000E+00  0.37016473441E+01  0.37016473441E+01  0.00000000000E+00 0.  1.
          2   -1    0    0  501    0  0.00000000000E+00 -0.00000000000E+00 -0.35745374405E+04  0.35745374405E+04  0.00000000000E+00 0. -1.
         24    1    1    2    0    0 -0.52674595775E+02 -0.33242793459E+02 -0.95003205089E+03  0.95546209241E+03  0.80419002446E+02 0.  0.
        -24    1    1    2    0    0  0.52674595775E+02  0.33242793459E+02 -0.26208037423E+04  0.26227769954E+04  0.80419002446E+02 0.  0.
<mgrwt>
<rscale>  0 0.10171979E+03</rscale>
<asrwt>0</asrwt>
<pdfrwt beam="1">  1        2 0.54992722E+00 0.10171980E+03</pdfrwt>
<pdfrwt beam="2">  1       -2 0.56948588E-03 0.10171980E+03</pdfrwt>
<totfact> 0.44435313E+03</totfact>
</mgrwt>
</event>
<event>
 4    1  0.4941530E-001  0.8331382E+02  0.7546771E-02  0.1319902E+00
         -2   -1    0    0    0  501 -0.00000000000E+00  0.00000000000E+00  0.69229193598E+01  0.69229193598E+01  0.00000000000E+00 0.  1.
          2   -1    0    0  501    0  0.00000000000E+00 -0.00000000000E+00 -0.10640588770E+04  0.10640588770E+04  0.00000000000E+00 0. -1.
         24    1    1    2    0    0 -0.36352956790E+00  0.21767973737E+02 -0.65722152794E+03  0.66248119186E+03  0.80419002446E+02 0. -1.
        -24    1    1    2    0    0  0.36352956790E+00 -0.21767973737E+02 -0.39991442967E+03  0.40850060447E+03  0.80419002446E+02 0.  1.
<mgrwt>
<rscale>  0 0.83313821E+02</rscale>
<asrwt>0</asrwt>
<pdfrwt beam="1">  1        2 0.16370123E+00 0.83313821E+02</pdfrwt>
<pdfrwt beam="2">  1       -2 0.10650654E-02 0.83313821E+02</pdfrwt>
<totfact> 0.41956062E+04</totfact>
</mgrwt>
</event>
<event>
 4    1  0.4941530E-001  0.8454958E+02  0.7546771E-02  0.1316615E+00
         -2   -1    0    0    0  501 -0.00000000000E+00  0.00000000000E+00  0.88650865396E+01  0.88650865396E+01  0.00000000000E+00 0.  1.
          2   -1    0    0  501    0  0.00000000000E+00 -0.00000000000E+00 -0.19897549789E+04  0.19897549789E+04  0.00000000000E+00 0. -1.
         24    1    1    2    0    0 -0.20370058631E+02  0.16324074319E+02 -0.17611027739E+04  0.17631311951E+04  0.80419002446E+02 0. -1.
        -24    1    1    2    0    0  0.20370058631E+02 -0.16324074319E+02 -0.21978711843E+03  0.23548887038E+03  0.80419002446E+02 0.  1.
<mgrwt>
<rscale>  0 0.84549575E+02</rscale>
<asrwt>0</asrwt>
<pdfrwt beam="1">  1        2 0.30611639E+00 0.84549575E+02</pdfrwt>
<pdfrwt beam="2">  1       -2 0.13638584E-02 0.84549575E+02</pdfrwt>
<totfact> 0.98514622E+03</totfact>
</mgrwt>
</event>
<event>
 4    1  0.4941530E-001  0.1214576E+03  0.7546771E-02  0.1240712E+00
          1   -1    0    0  501    0  0.00000000000E+00  0.00000000000E+00  0.69166032767E+03  0.69166032767E+03  0.00000000000E+00 0. -1.
         -1   -1    0    0    0  501 -0.00000000000E+00 -0.00000000000E+00 -0.63028905387E+02  0.63028905387E+02  0.00000000000E+00 0.  1.
         24    1    1    2    0    0  0.90851616946E+02  0.55424614680E+01  0.73856935321E+01  0.12168196088E+03  0.80419002446E+02 0.  1.
        -24    1    1    2    0    0 -0.90851616946E+02 -0.55424614680E+01  0.62124572875E+03  0.63300727218E+03  0.80419002446E+02 0. -1.
<mgrwt>
<rscale>  0 0.12145761E+03</rscale>
<asrwt>0</asrwt>
<pdfrwt beam="1">  1        1 0.10640928E+00 0.12145761E+03</pdfrwt>
<pdfrwt beam="2">  1       -1 0.96967552E-02 0.12145761E+03</pdfrwt>
<totfact> 0.18087066E+03</totfact>
</mgrwt>
</event>
<event>
 4    1  0.4941530E-001  0.1232916E+03  0.7546771E-02  0.1237764E+00
          2   -1    0    0  501    0  0.00000000000E+00  0.00000000000E+00  0.66569764765E+03  0.66569764765E+03  0.00000000000E+00 0. -1.
         -2   -1    0    0    0  501 -0.00000000000E+00 -0.00000000000E+00 -0.70843451355E+02  0.70843451355E+02  0.00000000000E+00 0.  1.
         24    1    1    2    0    0  0.45488178481E+02 -0.81635951318E+02  0.60059178430E+03  0.61311606589E+03  0.80419002446E+02 0. -1.
        -24    1    1    2    0    0 -0.45488178481E+02  0.81635951318E+02 -0.57375880044E+01  0.12342503312E+03  0.80419002446E+02 0.  1.
<mgrwt>
<rscale>  0 0.12329160E+03</rscale>
<asrwt>0</asrwt>
<pdfrwt beam="1">  1        2 0.10241502E+00 0.12329160E+03</pdfrwt>
<pdfrwt beam="2">  1       -2 0.10898993E-01 0.12329160E+03</pdfrwt>
<totfact> 0.25200578E+03</totfact>
</mgrwt>
</event>
<event>
 4    1  0.4941530E-001  0.9030694E+02  0.7546771E-02  0.1302110E+00
          1   -1    0    0  501    0  0.00000000000E+00  0.00000000000E+00  0.10322254800E+04  0.10322254800E+04  0.00000000000E+00 0. -1.
         -1   -1    0    0    0  501 -0.00000000000E+00 -0.00000000000E+00 -0.20034532396E+02  0.20034532396E+02  0.00000000000E+00 0.  1.
         24    1    1    2    0    0  0.17651974976E+02 -0.37101686375E+02  0.96644623169E+02  0.13227065621E+03  0.80419002446E+02 0.  1.
        -24    1    1    2    0    0 -0.17651974976E+02  0.37101686375E+02  0.91554632442E+03  0.91998935617E+03  0.80419002446E+02 0. -1.
<mgrwt>
<rscale>  0 0.90306939E+02</rscale>
<asrwt>0</asrwt>
<pdfrwt beam="1">  1        1 0.15880388E+00 0.90306939E+02</pdfrwt>
<pdfrwt beam="2">  1       -1 0.30822366E-02 0.90306939E+02</pdfrwt>
<totfact> 0.52512390E+03</totfact>
</mgrwt>
</event>
<event>
 4    1  0.4941530E-001  0.8446585E+02  0.7546771E-02  0.1316835E+00
         -2   -1    0    0    0  501 -0.00000000000E+00  0.00000000000E+00  0.43502463342E+01  0.43502463342E+01  0.00000000000E+00 0.  1.
          2   -1    0    0  501    0  0.00000000000E+00 -0.00000000000E+00 -0.30836094542E+04  0.30836094542E+04  0.00000000000E+00 0. -1.
         24    1    1    2    0    0  0.25723093507E+02 -0.23634696402E+01 -0.25960437119E+04  0.25974174547E+04  0.80419002446E+02 0. -1.
        -24    1    1    2    0    0 -0.25723093507E+02  0.23634696402E+01 -0.48321549598E+03  0.49054224593E+03  0.80419002446E+02 0.  1.
<mgrwt>
<rscale>  0 0.84465848E+02</rscale>
<asrwt>0</asrwt>
<pdfrwt beam="1">  1        2 0.47440335E+00 0.84465848E+02</pdfrwt>
<pdfrwt beam="2">  1       -2 0.66926599E-03 0.84465848E+02</pdfrwt>
<totfact> 0.70810976E+03</totfact>
</mgrwt>
</event>
<event>
 4    1  0.4941530E-001  0.8286613E+02  0.7546771E-02  0.1321109E+00
         -1   -1    0    0    0  501 -0.00000000000E+00  0.00000000000E+00  0.14328489927E+01  0.14328489927E+01  0.00000000000E+00 0.  1.
          1   -1    0    0  501    0  0.00000000000E+00 -0.00000000000E+00 -0.48948124040E+04  0.48948124040E+04  0.00000000000E+00 0. -1.
         24    1    1    2    0    0 -0.19968340314E+02  0.91920040878E+00 -0.20925891921E+04  0.20942292908E+04  0.80419002446E+02 0.  0.
        -24    1    1    2    0    0  0.19968340314E+02 -0.91920040878E+00 -0.28007903629E+04  0.28020159622E+04  0.80419002446E+02 0.  1.
<mgrwt>
<rscale>  0 0.82866130E+02</rscale>
<asrwt>0</asrwt>
<pdfrwt beam="1">  1        1 0.75305986E+00 0.82866130E+02</pdfrwt>
<pdfrwt beam="2">  1       -1 0.22043485E-03 0.82866130E+02</pdfrwt>
<totfact> 0.29924471E+02</totfact>
</mgrwt>
</event>
<event>
 4    1  0.4941530E-001  0.9715749E+02  0.7546771E-02  0.1286389E+00
          3   -1    0    0  501    0  0.00000000000E+00  0.00000000000E+00  0.64416703088E+02  0.64416703088E+02  0.00000000000E+00 0. -1.
         -3   -1    0    0    0  501 -0.00000000000E+00 -0.00000000000E+00 -0.15060382891E+03  0.15060382891E+03  0.00000000000E+00 0.  1.
         24    1    1    2    0    0 -0.53394070040E+02 -0.11019803370E+02 -0.60755442012E+02  0.11458971363E+03  0.80419002446E+02 0.  0.
        -24    1    1    2    0    0  0.53394070040E+02  0.11019803370E+02 -0.25431683808E+02  0.10043081836E+03  0.80419002446E+02 0.  1.
<mgrwt>
<rscale>  0 0.97157494E+02</rscale>
<asrwt>0</asrwt>
<pdfrwt beam="1">  1        3 0.99102621E-02 0.97157494E+02</pdfrwt>
<pdfrwt beam="2">  1       -3 0.23169820E-01 0.97157494E+02</pdfrwt>
<totfact> 0.27664789E+03</totfact>
</mgrwt>
</event>
<event>
 4    1  0.4941530E-001  0.1186289E+03  0.7546771E-02  0.1245376E+00
          2   -1    0    0  501    0  0.00000000000E+00  0.00000000000E+00  0.21594764105E+04  0.21594764105E+04  0.00000000000E+00 0. -1.
         -2   -1    0    0    0  501 -0.00000000000E+00 -0.00000000000E+00 -0.65215394312E+01  0.65215394312E+01  0.00000000000E+00 0.  1.
         24    1    1    2    0    0 -0.70118359064E+01 -0.86927715681E+02  0.11057673890E+04  0.11121125519E+04  0.80419002446E+02 0. -1.
        -24    1    1    2    0    0  0.70118359064E+01  0.86927715681E+02  0.10471874821E+04  0.10538853980E+04  0.80419002446E+02 0.  1.
<mgrwt>
<rscale>  0 0.11862887E+03</rscale>
<asrwt>0</asrwt>
<pdfrwt beam="1">  1        2 0.33222657E+00 0.11862887E+03</pdfrwt>
<pdfrwt beam="2">  1       -2 0.10033155E-02 0.11862887E+03</pdfrwt>
<totfact> 0.12678021E+04</totfact>
</mgrwt>
</event>
<event>
 4    1  0.4941530E-001  0.8304074E+02  0.7546771E-02  0.1320637E+00
         -2   -1    0    0    0  501 -0.00000000000E+00  0.00000000000E+00  0.32944635387E+03  0.32944635387E+03  0.00000000000E+00 0.  1.
          2   -1    0    0  501    0  0.00000000000E+00 -0.00000000000E+00 -0.34702516215E+03  0.34702516215E+03  0.00000000000E+00 0. -1.
         24    1    1    2    0    0  0.13886567998E+02  0.15352928460E+02 -0.33666591013E+03  0.34675596633E+03  0.80419002446E+02 0. -1.
        -24    1    1    2    0    0 -0.13886567998E+02 -0.15352928460E+02  0.31908710186E+03  0.32971554970E+03  0.80419002446E+02 0.  1.
<mgrwt>
<rscale>  0 0.83040744E+02</rscale>
<asrwt>0</asrwt>
<pdfrwt beam="1">  1        2 0.53388486E-01 0.83040744E+02</pdfrwt>
<pdfrwt beam="2">  1       -2 0.50684055E-01 0.83040744E+02</pdfrwt>
<totfact> 0.35209926E+02</totfact>
</mgrwt>
</event>
<event>
 4    1  0.4941530E-001  0.1450390E+03  0.7546771E-02  0.1206705E+00
         -2   -1    0    0    0  501 -0.00000000000E+00  0.00000000000E+00  0.94794089041E+02  0.94794089041E+02  0.00000000000E+00 0.  1.
          2   -1    0    0  501    0  0.00000000000E+00 -0.00000000000E+00 -0.24840216318E+03  0.24840216318E+03  0.00000000000E+00 0. -1.
         24    1    1    2    0    0  0.38048847277E+02  0.11454853861E+03 -0.13283739929E+03  0.19667758663E+03  0.80419002446E+02 0. -1.
        -24    1    1    2    0    0 -0.38048847277E+02 -0.11454853861E+03 -0.20770674845E+02  0.14651866559E+03  0.80419002446E+02 0.  0.
<mgrwt>
<rscale>  0 0.14503895E+03</rscale>
<asrwt>0</asrwt>
<pdfrwt beam="1">  1        2 0.38215717E-01 0.14503895E+03</pdfrwt>
<pdfrwt beam="2">  1       -2 0.14583706E-01 0.14503895E+03</pdfrwt>
<totfact> 0.46380702E+03</totfact>
</mgrwt>
</event>
<event>
 4    1  0.4941530E-001  0.1623575E+03  0.7546771E-02  0.1186061E+00
         -2   -1    0    0    0  501 -0.00000000000E+00  0.00000000000E+00  0.39756826316E+02  0.39756826316E+02  0.00000000000E+00 0.  1.
          2   -1    0    0  501    0  0.00000000000E+00 -0.00000000000E+00 -0.15649710881E+04  0.15649710881E+04  0.00000000000E+00 0. -1.
         24    1    1    2    0    0 -0.40838699280E+02  0.13499982879E+03 -0.13717334080E+04  0.13813082609E+04  0.80419002446E+02 0. -1.
        -24    1    1    2    0    0  0.40838699280E+02 -0.13499982879E+03 -0.15348085378E+03  0.22341965348E+03  0.80419002446E+02 0.  1.
<mgrwt>
<rscale>  0 0.16235753E+03</rscale>
<asrwt>0</asrwt>
<pdfrwt beam="1">  1        2 0.24076473E+00 0.16235753E+03</pdfrwt>
<pdfrwt beam="2">  1       -2 0.61164361E-02 0.16235753E+03</pdfrwt>
<totfact> 0.18171750E+03</totfact>
</mgrwt>
</event>
<event>
 4    1  0.4941530E-001  0.1019069E+03  0.7546771E-02  0.1276336E+00
         -2   -1    0    0    0  501 -0.00000000000E+00  0.00000000000E+00  0.11026146615E+03  0.11026146615E+03  0.00000000000E+00 0.  1.
          2   -1    0    0  501    0  0.00000000000E+00 -0.00000000000E+00 -0.10171952402E+03  0.10171952402E+03  0.00000000000E+00 0. -1.
         24    1    1    2    0    0 -0.33476654563E+02  0.52887679881E+02 -0.24574928410E+02  0.10482812669E+03  0.80419002446E+02 0.  0.
        -24    1    1    2    0    0  0.33476654563E+02 -0.52887679881E+02  0.33116870536E+02  0.10715286348E+03  0.80419002446E+02 0. -1.
<mgrwt>
<rscale>  0 0.10190686E+03</rscale>
<asrwt>0</asrwt>
<pdfrwt beam="1">  1        2 0.15649158E-01 0.10190686E+03</pdfrwt>
<pdfrwt beam="2">  1       -2 0.16963302E-01 0.10190686E+03</pdfrwt>
<totfact> 0.94652540E+03</totfact>
</mgrwt>
</event>
<event>
 4    1  0.4941530E-001  0.8897071E+02  0.7546771E-02  0.1305364E+00
          2   -1    0    0  501    0  0.00000000000E+00  0.00000000000E+00  0.62911701328E+03  0.62911701328E+03  0.00000000000E+00 0. -1.
         -2   -1    0    0    0  501 -0.00000000000E+00 -0.00000000000E+00 -0.34181087275E+02  0.34181087275E+02  0.00000000000E+00 0.  1.
         24    1    1    2    0    0 -0.11581902523E+02 -0.36255068266E+02  0.56110094829E+03  0.56811095797E+03  0.80419002446E+02 0. -1.
        -24    1    1    2    0    0  0.11581902523E+02  0.36255068266E+02  0.33834977708E+02  0.95187142577E+02  0.80419002446E+02 0.  1.
<mgrwt>
<rscale>  0 0.88970705E+02</rscale>
<asrwt>0</asrwt>
<pdfrwt beam="1">  1        2 0.96787224E-01 0.88970705E+02</pdfrwt>
<pdfrwt beam="2">  1       -2 0.52586293E-02 0.88970705E+02</pdfrwt>
<totfact> 0.80669298E+03</totfact>
</mgrwt>
</event>
<event>
 4    1  0.4941530E-001  0.8233929E+02  0.7546771E-02  0.1322541E+00
          1   -1    0    0  501    0  0.00000000000E+00  0.00000000000E+00  0.11660125799E+04  0.11660125799E+04  0.00000000000E+00 0. -1.
         -1   -1    0    0    0  501 -0.00000000000E+00 -0.00000000000E+00 -0.10097426993E+02  0.10097426993E+02  0.00000000000E+00 0.  1.
         24    1    1    2    0    0 -0.16237871606E+02 -0.69910625518E+01  0.19497075774E+03  0.21164440875E+03  0.80419002446E+02 0.  1.
        -24    1    1    2    0    0  0.16237871606E+02  0.69910625518E+01  0.96094439513E+03  0.96446559809E+03  0.80419002446E+02 0. -1.
<mgrwt>
<rscale>  0 0.82339294E+02</rscale>
<asrwt>0</asrwt>
<pdfrwt beam="1">  1        1 0.17938644E+00 0.82339294E+02</pdfrwt>
<pdfrwt beam="2">  1       -1 0.15534512E-02 0.82339294E+02</pdfrwt>
<totfact> 0.11222153E+04</totfact>
</mgrwt>
</event>
<event>
 4    1  0.4941530E-001  0.9431195E+02  0.7546771E-02  0.1292733E+00
          1   -1    0    0  501    0  0.00000000000E+00  0.00000000000E+00  0.14544176500E+03  0.14544176500E+03  0.00000000000E+00 0. -1.
         -1   -1    0    0    0  501 -0.00000000000E+00 -0.00000000000E+00 -0.83960286604E+02  0.83960286604E+02  0.00000000000E+00 0.  1.
         24    1    1    2    0    0 -0.38374210680E+02 -0.30902218787E+02 -0.29035916665E+02  0.98680431608E+02  0.80419002446E+02 0.  1.
        -24    1    1    2    0    0  0.38374210680E+02  0.30902218787E+02  0.90517395058E+02  0.13072161999E+03  0.80419002446E+02 0. -1.
<mgrwt>
<rscale>  0 0.94311946E+02</rscale>
<asrwt>0</asrwt>
<pdfrwt beam="1">  1        1 0.22375656E-01 0.94311946E+02</pdfrwt>
<pdfrwt beam="2">  1       -1 0.12916967E-01 0.94311946E+02</pdfrwt>
<totfact> 0.82544695E+03</totfact>
</mgrwt>
</event>
<event>
 4    1  0.4941530E-001  0.8189778E+02  0.7546771E-02  0.1323750E+00
          2   -1    0    0  501    0  0.00000000000E+00  0.00000000000E+00  0.13182094657E+04  0.13182094657E+04  0.00000000000E+00 0. -1.
         -2   -1    0    0    0  501 -0.00000000000E+00 -0.00000000000E+00 -0.65173981578E+01  0.65173981578E+01  0.00000000000E+00 0.  1.
         24    1    1    2    0    0  0.24140702478E+01  0.15303675031E+02  0.96602560782E+03  0.96949095979E+03  0.80419002446E+02 0.  0.
        -24    1    1    2    0    0 -0.24140702478E+01 -0.15303675031E+02  0.34566645973E+03  0.35523590407E+03  0.80419002446E+02 0.  1.
<mgrwt>
<rscale>  0 0.81897779E+02</rscale>
<asrwt>0</asrwt>
<pdfrwt beam="1">  1        2 0.20280124E+00 0.81897779E+02</pdfrwt>
<pdfrwt beam="2">  1       -2 0.10026777E-02 0.81897779E+02</pdfrwt>
<totfact> 0.33193046E+04</totfact>
</mgrwt>
</event>
<event>
 4    1  0.4941530E-001  0.8572471E+02  0.7546771E-02  0.1313548E+00
         -2   -1    0    0    0  501 -0.00000000000E+00  0.00000000000E+00  0.35224617286E+02  0.35224617286E+02  0.00000000000E+00 0.  1.
          2   -1    0    0  501    0  0.00000000000E+00 -0.00000000000E+00 -0.58174135970E+03  0.58174135970E+03  0.00000000000E+00 0. -1.
         24    1    1    2    0    0 -0.34525799948E+01 -0.29488800297E+02 -0.52031047848E+03  0.52732506068E+03  0.80419002446E+02 0. -1.
        -24    1    1    2    0    0  0.34525799948E+01  0.29488800297E+02 -0.26206263928E+02  0.89640916299E+02  0.80419002446E+02 0.  1.
<mgrwt>
<rscale>  0 0.85724708E+02</rscale>
<asrwt>0</asrwt>
<pdfrwt beam="1">  1        2 0.89498670E-01 0.85724708E+02</pdfrwt>
<pdfrwt beam="2">  1       -2 0.54191719E-02 0.85724708E+02</pdfrwt>
<totfact> 0.83971816E+03</totfact>
</mgrwt>
</event>
<event>
 4    1  0.4941530E-001  0.1125730E+03  0.7546771E-02  0.1255878E+00
          2   -1    0    0  501    0  0.00000000000E+00  0.00000000000E+00  0.13897721739E+04  0.13897721739E+04  0.00000000000E+00 0. -1.
         -2   -1    0    0    0  501 -0.00000000000E+00 -0.00000000000E+00 -0.96958679093E+01  0.96958679093E+01  0.00000000000E+00 0.  1.
         24    1    1    2    0    0  0.39148223953E+02  0.68358476358E+02  0.86078563077E+03  0.86811553541E+03  0.80419002446E+02 0. -1.
        -24    1    1    2    0    0 -0.39148223953E+02 -0.68358476358E+02  0.51929067519E+03  0.53135250636E+03  0.80419002446E+02 0.  1.
<mgrwt>
<rscale>  0 0.11257300E+03</rscale>
<asrwt>0</asrwt>
<pdfrwt beam="1">  1        2 0.21381095E+00 0.11257300E+03</pdfrwt>
<pdfrwt beam="2">  1       -2 0.14916731E-02 0.11257300E+03</pdfrwt>
<totfact> 0.17742039E+04</totfact>
</mgrwt>
</event>
<event>
 4    1  0.4941530E-001  0.8236203E+02  0.7546771E-02  0.1322479E+00
          1   -1    0    0  501    0  0.00000000000E+00  0.00000000000E+00  0.15439410821E+02  0.15439410821E+02  0.00000000000E+00 0. -1.
         -1   -1    0    0    0  501 -0.00000000000E+00 -0.00000000000E+00 -0.66455674618E+03  0.66455674618E+03  0.00000000000E+00 0.  1.
         24    1    1    2    0    0  0.16726218193E+02 -0.60432869442E+01 -0.52247823276E+03  0.52893005904E+03  0.80419002446E+02 0.  0.
        -24    1    1    2    0    0 -0.16726218193E+02  0.60432869442E+01 -0.12663910260E+03  0.15106609796E+03  0.80419002446E+02 0. -1.
<mgrwt>
<rscale>  0 0.82362028E+02</rscale>
<asrwt>0</asrwt>
<pdfrwt beam="1">  1        1 0.23752935E-02 0.82362028E+02</pdfrwt>
<pdfrwt beam="2">  1       -1 0.10223952E+00 0.82362028E+02</pdfrwt>
<totfact> 0.41874949E+03</totfact>
</mgrwt>
</event>
<event>
 4    1  0.4941530E-001  0.8178983E+02  0.7546771E-02  0.1324048E+00
         -2   -1    0    0    0  501 -0.00000000000E+00  0.00000000000E+00  0.66163927376E+03  0.66163927376E+03  0.00000000000E+00 0.  1.
          2   -1    0    0  501    0  0.00000000000E+00 -0.00000000000E+00 -0.87781328302E+02  0.87781328302E+02  0.00000000000E+00 0. -1.
         24    1    1    2    0    0  0.65760893802E+01  0.13383410804E+02 -0.65541888122E+02  0.10481085673E+03  0.80419002446E+02 0. -1.
        -24    1    1    2    0    0 -0.65760893802E+01 -0.13383410804E+02  0.63939983358E+03  0.64460974533E+03  0.80419002446E+02 0.  0.
<mgrwt>
<rscale>  0 0.81789832E+02</rscale>
<asrwt>0</asrwt>
<pdfrwt beam="1">  1        2 0.13504820E-01 0.81789832E+02</pdfrwt>
<pdfrwt beam="2">  1       -2 0.10179065E+00 0.81789832E+02</pdfrwt>
<totfact> 0.35752960E+02</totfact>
</mgrwt>
</event>
<event>
 4    1  0.4941530E-001  0.8174534E+02  0.7546771E-02  0.1324170E+00
         -1   -1    0    0    0  501 -0.00000000000E+00  0.00000000000E+00  0.38546135645E+03  0.38546135645E+03  0.00000000000E+00 0.  1.
          1   -1    0    0  501    0  0.00000000000E+00 -0.00000000000E+00 -0.29016224899E+02  0.29016224899E+02  0.00000000000E+00 0. -1.
         24    1    1    2    0    0  0.14030433295E+02 -0.42699203940E+01  0.30970839179E+03  0.32031482822E+03  0.80419002446E+02 0.  1.
        -24    1    1    2    0    0 -0.14030433295E+02  0.42699203940E+01  0.46736739757E+02  0.94162753125E+02  0.80419002446E+02 0.  0.
<mgrwt>
<rscale>  0 0.81745344E+02</rscale>
<asrwt>0</asrwt>
<pdfrwt beam="1">  1        1 0.44640349E-02 0.81745344E+02</pdfrwt>
<pdfrwt beam="2">  1       -1 0.59301744E-01 0.81745344E+02</pdfrwt>
<totfact> 0.53043226E+03</totfact>
</mgrwt>
</event>
<event>
 4    1  0.4941530E-001  0.9025529E+02  0.7546771E-02  0.1302235E+00
         -1   -1    0    0    0  501 -0.00000000000E+00  0.00000000000E+00  0.47630212444E+03  0.47630212444E+03  0.00000000000E+00 0.  1.
          1   -1    0    0  501    0  0.00000000000E+00 -0.00000000000E+00 -0.19343015698E+02  0.19343015698E+02  0.00000000000E+00 0. -1.
         24    1    1    2    0    0 -0.34422140532E+02 -0.22224257349E+02  0.31282089520E+03  0.32558091130E+03  0.80419002446E+02 0.  1.
        -24    1    1    2    0    0  0.34422140532E+02  0.22224257349E+02  0.14413821354E+03  0.17006422884E+03  0.80419002446E+02 0.  1.
<mgrwt>
<rscale>  0 0.90255290E+02</rscale>
<asrwt>0</asrwt>
<pdfrwt beam="1">  1        1 0.29758489E-02 0.90255290E+02</pdfrwt>
<pdfrwt beam="2">  1       -1 0.73277241E-01 0.90255290E+02</pdfrwt>
<totfact> 0.61872278E+03</totfact>
</mgrwt>
</event>
<event>
 4    1  0.4941530E-001  0.8590240E+02  0.7546771E-02  0.1313089E+00
         -2   -1    0    0    0  501 -0.00000000000E+00  0.00000000000E+00  0.35079284615E+01  0.35079284615E+01  0.00000000000E+00 0. -1.
          2   -1    0    0  501    0  0.00000000000E+00 -0.00000000000E+00 -0.22945150431E+04  0.22945150431E+04  0.00000000000E+00 0.  1.
         24    1    1    2    0    0  0.22248227993E+01 -0.30117313126E+02 -0.81405324376E+03  0.81857308899E+03  0.80419002446E+02 0. -1.
        -24    1    1    2    0    0 -0.22248227993E+01  0.30117313126E+02 -0.14769538709E+04  0.14794498826E+04  0.80419002446E+02 0.  0.
<mgrwt>
<rscale>  0 0.85902388E+02</rscale>
<asrwt>0</asrwt>
<pdfrwt beam="1">  1        2 0.35300213E+00 0.85902398E+02</pdfrwt>
<pdfrwt beam="2">  1       -2 0.53968159E-03 0.85902398E+02</pdfrwt>
<totfact> 0.25554158E+04</totfact>
</mgrwt>
</event>
<event>
 4    1  0.4941530E-001  0.8596375E+02  0.7546771E-02  0.1312931E+00
         -1   -1    0    0    0  501 -0.00000000000E+00  0.00000000000E+00  0.14935696582E+03  0.14935696582E+03  0.00000000000E+00 0.  1.
          1   -1    0    0  501    0  0.00000000000E+00 -0.00000000000E+00 -0.10056391276E+03  0.10056391276E+03  0.00000000000E+00 0. -1.
         24    1    1    2    0    0 -0.12948696015E+01 -0.30345896430E+02  0.11346118268E+03  0.14234888846E+03  0.80419002446E+02 0.  1.
        -24    1    1    2    0    0  0.12948696015E+01  0.30345896430E+02 -0.64668129612E+02  0.10757199012E+03  0.80419002446E+02 0. -1.
<mgrwt>
<rscale>  0 0.85963749E+02</rscale>
<asrwt>0</asrwt>
<pdfrwt beam="1">  1        1 0.15471371E-01 0.85963749E+02</pdfrwt>
<pdfrwt beam="2">  1       -1 0.22977995E-01 0.85963749E+02</pdfrwt>
<totfact> 0.52853231E+03</totfact>
</mgrwt>
</event>
<event>
 4    1  0.4941530E-001  0.8920365E+02  0.7546771E-02  0.1304792E+00
         -1   -1    0    0    0  501 -0.00000000000E+00  0.00000000000E+00  0.13963460428E+02  0.13963460428E+02  0.00000000000E+00 0.  1.
          1   -1    0    0  501    0  0.00000000000E+00 -0.00000000000E+00 -0.72374502195E+03  0.72374502195E+03  0.00000000000E+00 0. -1.
         24    1    1    2    0    0  0.21532806248E+02  0.32037681523E+02 -0.18481096885E+03  0.20521302333E+03  0.80419002446E+02 0. -1.
        -24    1    1    2    0    0 -0.21532806248E+02 -0.32037681523E+02 -0.52497059267E+03  0.53249545905E+03  0.80419002446E+02 0. -1.
<mgrwt>
<rscale>  0 0.89203648E+02</rscale>
<asrwt>0</asrwt>
<pdfrwt beam="1">  1        1 0.11134538E+00 0.89203648E+02</pdfrwt>
<pdfrwt beam="2">  1       -1 0.21482249E-02 0.89203648E+02</pdfrwt>
<totfact> 0.15222326E+04</totfact>
</mgrwt>
</event>
<event>
 4    1  0.4941530E-001  0.8588019E+02  0.7546771E-02  0.1313147E+00
         -2   -1    0    0    0  501 -0.00000000000E+00  0.00000000000E+00  0.11924244448E+02  0.11924244448E+02  0.00000000000E+00 0.  1.
          2   -1    0    0  501    0  0.00000000000E+00 -0.00000000000E+00 -0.16373192622E+04  0.16373192622E+04  0.00000000000E+00 0. -1.
         24    1    1    2    0    0  0.25718341527E+02  0.15708527408E+02 -0.14631745878E+04  0.14656927650E+04  0.80419002446E+02 0. -1.
        -24    1    1    2    0    0 -0.25718341527E+02 -0.15708527408E+02 -0.16222042993E+03  0.18355074166E+03  0.80419002446E+02 0.  1.
<mgrwt>
<rscale>  0 0.85880189E+02</rscale>
<asrwt>0</asrwt>
<pdfrwt beam="1">  1        2 0.25189510E+00 0.85880189E+02</pdfrwt>
<pdfrwt beam="2">  1       -2 0.18345004E-02 0.85880189E+02</pdfrwt>
<totfact> 0.96966571E+03</totfact>
</mgrwt>
</event>
<event>
 4    1  0.4941530E-001  0.1032237E+03  0.7546771E-02  0.1273659E+00
         -3   -1    0    0    0  501 -0.00000000000E+00  0.00000000000E+00  0.48929557279E+02  0.48929557279E+02  0.00000000000E+00 0.  1.
          3   -1    0    0  501    0  0.00000000000E+00 -0.00000000000E+00 -0.25163779886E+03  0.25163779886E+03  0.00000000000E+00 0. -1.
         24    1    1    2    0    0  0.61912309609E+02  0.18835421764E+02 -0.46215958594E+02  0.11309747114E+03  0.80419002446E+02 0.  1.
        -24    1    1    2    0    0 -0.61912309609E+02 -0.18835421764E+02 -0.15649228298E+03  0.18746988500E+03  0.80419002446E+02 0.  0.
<mgrwt>
<rscale>  0 0.10322366E+03</rscale>
<asrwt>0</asrwt>
<pdfrwt beam="1">  1        3 0.38713507E-01 0.10322366E+03</pdfrwt>
<pdfrwt beam="2">  1       -3 0.75276243E-02 0.10322366E+03</pdfrwt>
<totfact> 0.17040442E+03</totfact>
</mgrwt>
</event>
<event>
 4    1  0.4941530E-001  0.1279437E+03  0.7546771E-02  0.1230539E+00
          2   -1    0    0  501    0  0.00000000000E+00  0.00000000000E+00  0.28306241645E+03  0.28306241645E+03  0.00000000000E+00 0. -1.
         -2   -1    0    0    0  501 -0.00000000000E+00 -0.00000000000E+00 -0.62429577565E+02  0.62429577565E+02  0.00000000000E+00 0.  1.
         24    1    1    2    0    0  0.37233168716E+02  0.92282541936E+02  0.15720383424E+03  0.20268852423E+03  0.80419002446E+02 0. -1.
        -24    1    1    2    0    0 -0.37233168716E+02 -0.92282541936E+02  0.63429004645E+02  0.14280346979E+03  0.80419002446E+02 0.  1.
<mgrwt>
<rscale>  0 0.12794371E+03</rscale>
<asrwt>0</asrwt>
<pdfrwt beam="1">  1        2 0.43548063E-01 0.12794371E+03</pdfrwt>
<pdfrwt beam="2">  1       -2 0.96045506E-02 0.12794371E+03</pdfrwt>
<totfact> 0.78002860E+03</totfact>
</mgrwt>
</event>
<event>
 4    1  0.4941530E-001  0.9577666E+02  0.7546771E-02  0.1289436E+00
          2   -1    0    0  501    0  0.00000000000E+00  0.00000000000E+00  0.52486444836E+03  0.52486444836E+03  0.00000000000E+00 0. -1.
         -2   -1    0    0    0  501 -0.00000000000E+00 -0.00000000000E+00 -0.36230725396E+02  0.36230725396E+02  0.00000000000E+00 0.  1.
         24    1    1    2    0    0  0.51922472439E+02  0.31631169501E+01  0.42475853343E+02  0.10477290931E+03  0.80419002446E+02 0.  1.
        -24    1    1    2    0    0 -0.51922472439E+02 -0.31631169501E+01  0.44615786962E+03  0.45632226445E+03  0.80419002446E+02 0. -1.
<mgrwt>
<rscale>  0 0.95776650E+02</rscale>
<asrwt>0</asrwt>
<pdfrwt beam="1">  1        2 0.80748371E-01 0.95776662E+02</pdfrwt>
<pdfrwt beam="2">  1       -2 0.55739581E-02 0.95776662E+02</pdfrwt>
<totfact> 0.90907871E+03</totfact>
</mgrwt>
</event>
<event>
 4    1  0.4941530E-001  0.8395544E+02  0.7546771E-02  0.1318187E+00
          4   -1    0    0  501    0  0.00000000000E+00  0.00000000000E+00  0.35939890946E+02  0.35939890946E+02  0.00000000000E+00 0. -1.
         -4   -1    0    0    0  501 -0.00000000000E+00 -0.00000000000E+00 -0.40846917658E+03  0.40846917658E+03  0.00000000000E+00 0.  1.
         24    1    1    2    0    0  0.14760839841E+02 -0.19063514018E+02 -0.26051181750E+02  0.87904379780E+02  0.80419002446E+02 0. -1.
        -24    1    1    2    0    0 -0.14760839841E+02  0.19063514018E+02 -0.34647810389E+03  0.35650468775E+03  0.80419002446E+02 0.  0.
<mgrwt>
<rscale>  0 0.83955440E+02</rscale>
<asrwt>0</asrwt>
<pdfrwt beam="1">  1        4 0.55292137E-02 0.83955440E+02</pdfrwt>
<pdfrwt beam="2">  1       -4 0.62841415E-01 0.83955440E+02</pdfrwt>
<totfact> 0.72455895E+02</totfact>
</mgrwt>
</event>
<event>
 4    1  0.4941530E-001  0.8119690E+02  0.7546771E-02  0.1325689E+00
          2   -1    0    0  501    0  0.00000000000E+00  0.00000000000E+00  0.12400545926E+04  0.12400545926E+04  0.00000000000E+00 0. -1.
         -2   -1    0    0    0  501 -0.00000000000E+00 -0.00000000000E+00 -0.91274429023E+01  0.91274429023E+01  0.00000000000E+00 0.  1.
         24    1    1    2    0    0  0.59196664764E+01 -0.95225055716E+01  0.10190428291E+04  0.10222725781E+04  0.80419002446E+02 0. -1.
        -24    1    1    2    0    0 -0.59196664764E+01  0.95225055716E+01  0.21188432065E+03  0.22690945740E+03  0.80419002446E+02 0.  1.
<mgrwt>
<rscale>  0 0.81196900E+02</rscale>
<asrwt>0</asrwt>
<pdfrwt beam="1">  1        2 0.19077750E+00 0.81196900E+02</pdfrwt>
<pdfrwt beam="2">  1       -2 0.14042230E-02 0.81196900E+02</pdfrwt>
<totfact> 0.22645277E+04</totfact>
</mgrwt>
</event>
<event>
 4    1  0.4941530E-001  0.8383626E+02  0.7546771E-02  0.1318504E+00
         -3   -1    0    0    0  501 -0.00000000000E+00  0.00000000000E+00  0.12993315242E+03  0.12993315242E+03  0.00000000000E+00 0.  1.
          3   -1    0    0  501    0  0.00000000000E+00 -0.00000000000E+00 -0.19775607867E+03  0.19775607867E+03  0.00000000000E+00 0. -1.
         24    1    1    2    0    0  0.19524441753E+02  0.13420080738E+02  0.10573801644E+03  0.13494089991E+03  0.80419002446E+02 0.  1.
        -24    1    1    2    0    0 -0.19524441753E+02 -0.13420080738E+02 -0.17356094269E+03  0.19274833118E+03  0.80419002446E+02 0.  0.
<mgrwt>
<rscale>  0 0.83836259E+02</rscale>
<asrwt>0</asrwt>
<pdfrwt beam="1">  1        3 0.30424012E-01 0.83836259E+02</pdfrwt>
<pdfrwt beam="2">  1       -3 0.19989716E-01 0.83836259E+02</pdfrwt>
<totfact> 0.50441579E+02</totfact>
</mgrwt>
</event>
<event>
 4    1  0.4941530E-001  0.8993816E+02  0.7546771E-02  0.1303002E+00
         -2   -1    0    0    0  501 -0.00000000000E+00  0.00000000000E+00  0.28915598546E+02  0.28915598546E+02  0.00000000000E+00 0.  1.
          2   -1    0    0  501    0  0.00000000000E+00 -0.00000000000E+00 -0.96713392194E+03  0.96713392194E+03  0.00000000000E+00 0. -1.
         24    1    1    2    0    0 -0.17961533234E+02  0.36042191846E+02 -0.88897469305E+03  0.89351266198E+03  0.80419002446E+02 0. -1.
        -24    1    1    2    0    0  0.17961533234E+02 -0.36042191846E+02 -0.49243630339E+02  0.10253685851E+03  0.80419002446E+02 0.  1.
<mgrwt>
<rscale>  0 0.89938158E+02</rscale>
<asrwt>0</asrwt>
<pdfrwt beam="1">  1        2 0.14878982E+00 0.89938158E+02</pdfrwt>
<pdfrwt beam="2">  1       -2 0.44485541E-02 0.89938158E+02</pdfrwt>
<totfact> 0.61331800E+03</totfact>
</mgrwt>
</event>
<event>
 4    1  0.4941530E-001  0.8216059E+02  0.7546771E-02  0.1323029E+00
          1   -1    0    0  501    0  0.00000000000E+00  0.00000000000E+00  0.14497537286E+03  0.14497537286E+03  0.00000000000E+00 0. -1.
         -1   -1    0    0    0  501 -0.00000000000E+00 -0.00000000000E+00 -0.48482485468E+02  0.48482485468E+02  0.00000000000E+00 0.  1.
         24    1    1    2    0    0 -0.92325333917E+01 -0.14067790976E+02  0.67497639415E+02  0.10633103826E+03  0.80419002446E+02 0.  0.
        -24    1    1    2    0    0  0.92325333917E+01  0.14067790976E+02  0.28995247975E+02  0.87126820069E+02  0.80419002446E+02 0.  0.
<mgrwt>
<rscale>  0 0.82160575E+02</rscale>
<asrwt>0</asrwt>
<pdfrwt beam="1">  1        1 0.22303903E-01 0.82160585E+02</pdfrwt>
<pdfrwt beam="2">  1       -1 0.74588440E-02 0.82160585E+02</pdfrwt>
<totfact> 0.18707362E+04</totfact>
</mgrwt>
</event>
<event>
 4    1  0.4941530E-001  0.8772447E+02  0.7546771E-02  0.1308458E+00
         -2   -1    0    0    0  501 -0.00000000000E+00  0.00000000000E+00  0.16731596385E+02  0.16731596385E+02  0.00000000000E+00 0.  1.
          2   -1    0    0  501    0  0.00000000000E+00 -0.00000000000E+00 -0.11331720626E+04  0.11331720626E+04  0.00000000000E+00 0. -1.
         24    1    1    2    0    0  0.29943049479E+02  0.18214858159E+02 -0.10013846771E+04  0.10052198042E+04  0.80419002446E+02 0. -1.
        -24    1    1    2    0    0 -0.29943049479E+02 -0.18214858159E+02 -0.11505578907E+03  0.14468385474E+03  0.80419002446E+02 0.  0.
<mgrwt>
<rscale>  0 0.87724473E+02</rscale>
<asrwt>0</asrwt>
<pdfrwt beam="1">  1        2 0.17433420E+00 0.87724473E+02</pdfrwt>
<pdfrwt beam="2">  1       -2 0.25740913E-02 0.87724473E+02</pdfrwt>
<totfact> 0.10933165E+04</totfact>
</mgrwt>
</event>
<event>
 4    1  0.4941530E-001  0.8511145E+02  0.7546771E-02  0.1315141E+00
          2   -1    0    0  501    0  0.00000000000E+00  0.00000000000E+00  0.17126289134E+03  0.17126289134E+03  0.00000000000E+00 0. -1.
         -2   -1    0    0    0  501 -0.00000000000E+00 -0.00000000000E+00 -0.14285016323E+03  0.14285016323E+03  0.00000000000E+00 0.  1.
         24    1    1    2    0    0  0.13038783755E+02 -0.24631965374E+02  0.14597523350E+03  0.16897552589E+03  0.80419002446E+02 0. -1.
        -24    1    1    2    0    0 -0.13038783755E+02  0.24631965374E+02 -0.11756250540E+03  0.14513752867E+03  0.80419002446E+02 0.  1.
<mgrwt>
<rscale>  0 0.85111454E+02</rscale>
<asrwt>0</asrwt>
<pdfrwt beam="1">  1        2 0.26348137E-01 0.85111454E+02</pdfrwt>
<pdfrwt beam="2">  1       -2 0.21976948E-01 0.85111454E+02</pdfrwt>
<totfact> 0.33864323E+03</totfact>
</mgrwt>
</event>
<event>
 4    1  0.4941530E-001  0.8567121E+02  0.7546771E-02  0.1313687E+00
          1   -1    0    0  501    0  0.00000000000E+00  0.00000000000E+00  0.18923735203E+03  0.18923735203E+03  0.00000000000E+00 0. -1.
         -1   -1    0    0    0  501 -0.00000000000E+00 -0.00000000000E+00 -0.69168215244E+02  0.69168215244E+02  0.00000000000E+00 0.  1.
         24    1    1    2    0    0  0.13862576845E+00  0.29535089873E+02 -0.25597410294E+02  0.89413556685E+02  0.80419002446E+02 0.  1.
        -24    1    1    2    0    0 -0.13862576845E+00 -0.29535089873E+02  0.14566654708E+03  0.16899201059E+03  0.80419002446E+02 0. -1.
<mgrwt>
<rscale>  0 0.85671213E+02</rscale>
<asrwt>0</asrwt>
<pdfrwt beam="1">  1        1 0.29113439E-01 0.85671213E+02</pdfrwt>
<pdfrwt beam="2">  1       -1 0.10641264E-01 0.85671213E+02</pdfrwt>
<totfact> 0.79407328E+03</totfact>
</mgrwt>
</event>
<event>
 4    1  0.4941530E-001  0.8712389E+02  0.7546771E-02  0.1309970E+00
          2   -1    0    0  501    0  0.00000000000E+00  0.00000000000E+00  0.18537236135E+03  0.18537236135E+03  0.00000000000E+00 0. -1.
         -2   -1    0    0    0  501 -0.00000000000E+00 -0.00000000000E+00 -0.11203369160E+03  0.11203369160E+03  0.00000000000E+00 0.  1.
         24    1    1    2    0    0 -0.23640809444E+00  0.33515667376E+02  0.15511999841E+03  0.17791229781E+03  0.80419002446E+02 0. -1.
        -24    1    1    2    0    0  0.23640809444E+00 -0.33515667376E+02 -0.81781328662E+02  0.11949375515E+03  0.80419002446E+02 0.  1.
<mgrwt>
<rscale>  0 0.87123888E+02</rscale>
<asrwt>0</asrwt>
<pdfrwt beam="1">  1        2 0.28518825E-01 0.87123888E+02</pdfrwt>
<pdfrwt beam="2">  1       -2 0.17235953E-01 0.87123888E+02</pdfrwt>
<totfact> 0.46714719E+03</totfact>
</mgrwt>
</event>
<event>
 4    1  0.4941530E-001  0.9207034E+02  0.7546771E-02  0.1297914E+00
          2   -1    0    0  501    0  0.00000000000E+00  0.00000000000E+00  0.56948193122E+02  0.56948193122E+02  0.00000000000E+00 0. -1.
         -2   -1    0    0    0  501 -0.00000000000E+00 -0.00000000000E+00 -0.38695506151E+03  0.38695506151E+03  0.00000000000E+00 0.  1.
         24    1    1    2    0    0  0.41701377588E+02 -0.16453759019E+02  0.91006835071E+01  0.92519022224E+02  0.80419002446E+02 0. -1.
        -24    1    1    2    0    0 -0.41701377588E+02  0.16453759019E+02 -0.33910755190E+03  0.35138423241E+03  0.80419002446E+02 0.  1.
<mgrwt>
<rscale>  0 0.92070337E+02</rscale>
<asrwt>0</asrwt>
<pdfrwt beam="1">  1        2 0.87612604E-02 0.92070337E+02</pdfrwt>
<pdfrwt beam="2">  1       -2 0.59531549E-01 0.92070337E+02</pdfrwt>
<totfact> 0.19214919E+03</totfact>
</mgrwt>
</event>
<event>
 4    1  0.4941530E-001  0.8103548E+02  0.7546771E-02  0.1326138E+00
         -2   -1    0    0    0  501 -0.00000000000E+00  0.00000000000E+00  0.38852393805E+02  0.38852393805E+02  0.00000000000E+00 0.  1.
          2   -1    0    0  501    0  0.00000000000E+00 -0.00000000000E+00 -0.16752604663E+04  0.16752604663E+04  0.00000000000E+00 0. -1.
         24    1    1    2    0    0 -0.99307959872E+01  0.95488439641E+00 -0.16308768126E+04  0.16328888285E+04  0.80419002446E+02 0. -1.
        -24    1    1    2    0    0  0.99307959872E+01 -0.95488439641E+00 -0.55312598856E+01  0.81224031564E+02  0.80419002446E+02 0.  1.
<mgrwt>
<rscale>  0 0.81035477E+02</rscale>
<asrwt>0</asrwt>
<pdfrwt beam="1">  1        2 0.25773233E+00 0.81035477E+02</pdfrwt>
<pdfrwt beam="2">  1       -2 0.59772925E-02 0.81035477E+02</pdfrwt>
<totfact> 0.16556498E+03</totfact>
</mgrwt>
</event>
<event>
 4    1  0.4941530E-001  0.8501893E+02  0.7546771E-02  0.1315383E+00
         -2   -1    0    0    0  501 -0.00000000000E+00  0.00000000000E+00  0.62538119008E+01  0.62538119008E+01  0.00000000000E+00 0.  1.
          2   -1    0    0  501    0  0.00000000000E+00 -0.00000000000E+00 -0.12036460469E+04  0.12036460469E+04  0.00000000000E+00 0. -1.
         24    1    1    2    0    0  0.27551261904E+02  0.13891685567E+01 -0.71929633179E+03  0.72430341066E+03  0.80419002446E+02 0.  1.
        -24    1    1    2    0    0 -0.27551261904E+02 -0.13891685567E+01 -0.47809590326E+03  0.48559644818E+03  0.80419002446E+02 0.  0.
<mgrwt>
<rscale>  0 0.85018926E+02</rscale>
<asrwt>0</asrwt>
<pdfrwt beam="1">  1        2 0.18517613E+00 0.85018926E+02</pdfrwt>
<pdfrwt beam="2">  1       -2 0.96212586E-03 0.85018926E+02</pdfrwt>
<totfact> 0.40633219E+04</totfact>
</mgrwt>
</event>
<event>
 4    1  0.4941530E-001  0.9453631E+02  0.7546771E-02  0.1292224E+00
         -1   -1    0    0    0  501 -0.00000000000E+00  0.00000000000E+00  0.61546214288E+02  0.61546214288E+02  0.00000000000E+00 0.  1.
          1   -1    0    0  501    0  0.00000000000E+00 -0.00000000000E+00 -0.15294001873E+03  0.15294001873E+03  0.00000000000E+00 0. -1.
         24    1    1    2    0    0  0.41820567536E+02  0.26850212329E+02 -0.69807415507E+02  0.11751674342E+03  0.80419002446E+02 0.  0.
        -24    1    1    2    0    0 -0.41820567536E+02 -0.26850212329E+02 -0.21586388940E+02  0.96969489598E+02  0.80419002446E+02 0.  0.
<mgrwt>
<rscale>  0 0.94536300E+02</rscale>
<asrwt>0</asrwt>
<pdfrwt beam="1">  1        1 0.23529234E-01 0.94536312E+02</pdfrwt>
<pdfrwt beam="2">  1       -1 0.94686484E-02 0.94536312E+02</pdfrwt>
<totfact> 0.12434843E+04</totfact>
</mgrwt>
</event>
<event>
 4    1  0.4941530E-001  0.8083647E+02  0.7546771E-02  0.1326694E+00
          1   -1    0    0  501    0  0.00000000000E+00  0.00000000000E+00  0.26897482742E+02  0.26897482742E+02  0.00000000000E+00 0. -1.
         -1   -1    0    0    0  501 -0.00000000000E+00 -0.00000000000E+00 -0.41554544665E+03  0.41554544665E+03  0.00000000000E+00 0.  1.
         24    1    1    2    0    0  0.80880252003E+01 -0.13794319926E+01 -0.33689866626E+03  0.34646103138E+03  0.80419002446E+02 0.  1.
        -24    1    1    2    0    0 -0.80880252003E+01  0.13794319926E+01 -0.51749297648E+02  0.95981898011E+02  0.80419002446E+02 0.  0.
<mgrwt>
<rscale>  0 0.80836470E+02</rscale>
<asrwt>0</asrwt>
<pdfrwt beam="1">  1        1 0.41380745E-02 0.80836470E+02</pdfrwt>
<pdfrwt beam="2">  1       -1 0.63930065E-01 0.80836470E+02</pdfrwt>
<totfact> 0.50955102E+03</totfact>
</mgrwt>
</event>
<event>
 4    1  0.4941530E-001  0.2339767E+03  0.7546771E-02  0.1123872E+00
         -2   -1    0    0    0  501 -0.00000000000E+00  0.00000000000E+00  0.11257916065E+03  0.11257916065E+03  0.00000000000E+00 0.  1.
          2   -1    0    0  501    0  0.00000000000E+00 -0.00000000000E+00 -0.63954909248E+03  0.63954909248E+03  0.00000000000E+00 0. -1.
         24    1    1    2    0    0 -0.16699832584E+03  0.14279155641E+03 -0.44758383042E+03  0.50505085945E+03  0.80419002446E+02 0.  0.
        -24    1    1    2    0    0  0.16699832584E+03 -0.14279155641E+03 -0.79386101401E+02  0.24707739368E+03  0.80419002446E+02 0.  0.
<mgrwt>
<rscale>  0 0.23397668E+03</rscale>
<asrwt>0</asrwt>
<pdfrwt beam="1">  1        2 0.98392167E-01 0.23397668E+03</pdfrwt>
<pdfrwt beam="2">  1       -2 0.17319871E-01 0.23397668E+03</pdfrwt>
<totfact> 0.12576362E+03</totfact>
</mgrwt>
</event>
<event>
 4    1  0.4941530E-001  0.8469157E+02  0.7546771E-02  0.1316241E+00
          1   -1    0    0  501    0  0.00000000000E+00  0.00000000000E+00  0.10891820675E+03  0.10891820675E+03  0.00000000000E+00 0. -1.
         -1   -1    0    0    0  501 -0.00000000000E+00 -0.00000000000E+00 -0.11841628055E+03  0.11841628055E+03  0.00000000000E+00 0.  1.
         24    1    1    2    0    0 -0.21387862532E+02 -0.15748188996E+02 -0.80479069485E+02  0.11683125737E+03  0.80419002446E+02 0.  1.
        -24    1    1    2    0    0  0.21387862532E+02  0.15748188996E+02  0.70980995682E+02  0.11050322992E+03  0.80419002446E+02 0. -1.
<mgrwt>
<rscale>  0 0.84691570E+02</rscale>
<asrwt>0</asrwt>
<pdfrwt beam="1">  1        1 0.16756647E-01 0.84691570E+02</pdfrwt>
<pdfrwt beam="2">  1       -1 0.18217889E-01 0.84691570E+02</pdfrwt>
<totfact> 0.68982594E+03</totfact>
</mgrwt>
</event>
<event>
 4    1  0.4941530E-001  0.9932987E+02  0.7546771E-02  0.1281711E+00
          2   -1    0    0  501    0  0.00000000000E+00  0.00000000000E+00  0.20193978000E+03  0.20193978000E+03  0.00000000000E+00 0. -1.
         -2   -1    0    0    0  501 -0.00000000000E+00 -0.00000000000E+00 -0.65389142123E+02  0.65389142123E+02  0.00000000000E+00 0.  1.
         24    1    1    2    0    0 -0.39671380077E+02 -0.42724575074E+02  0.13548182473E+03  0.16799329897E+03  0.80419002446E+02 0.  0.
        -24    1    1    2    0    0  0.39671380077E+02  0.42724575074E+02  0.10688131555E+01  0.99335623159E+02  0.80419002446E+02 0. -1.
<mgrwt>
<rscale>  0 0.99329873E+02</rscale>
<asrwt>0</asrwt>
<pdfrwt beam="1">  1        2 0.31067658E-01 0.99329873E+02</pdfrwt>
<pdfrwt beam="2">  1       -2 0.10059868E-01 0.99329873E+02</pdfrwt>
<totfact> 0.10181142E+04</totfact>
</mgrwt>
</event>
<event>
 4    1  0.4941530E-001  0.1055857E+03  0.7546771E-02  0.1268970E+00
         -2   -1    0    0    0  501 -0.00000000000E+00  0.00000000000E+00  0.48969816363E+01  0.48969816363E+01  0.00000000000E+00 0.  1.
          2   -1    0    0  501    0  0.00000000000E+00 -0.00000000000E+00 -0.24022318614E+04  0.24022318614E+04  0.00000000000E+00 0. -1.
         24    1    1    2    0    0 -0.33921714517E+02 -0.59417422778E+02 -0.92339607117E+03  0.92941305836E+03  0.80419002446E+02 0.  1.
        -24    1    1    2    0    0  0.33921714517E+02  0.59417422778E+02 -0.14739388085E+04  0.14777157846E+04  0.80419002446E+02 0. -1.
<mgrwt>
<rscale>  0 0.10558566E+03</rscale>
<asrwt>0</asrwt>
<pdfrwt beam="1">  1        2 0.36957375E+00 0.10558567E+03</pdfrwt>
<pdfrwt beam="2">  1       -2 0.75338256E-03 0.10558567E+03</pdfrwt>
<totfact> 0.14200058E+04</totfact>
</mgrwt>
</event>
<event>
 4    1  0.4941530E-001  0.9207925E+02  0.7546771E-02  0.1297893E+00
         -1   -1    0    0    0  501 -0.00000000000E+00  0.00000000000E+00  0.49581682531E+02  0.49581682531E+02  0.00000000000E+00 0.  1.
          1   -1    0    0  501    0  0.00000000000E+00 -0.00000000000E+00 -0.23445244256E+03  0.23445244256E+03  0.00000000000E+00 0. -1.
         24    1    1    2    0    0  0.13866241369E+02 -0.42650913480E+02 -0.18555030092E+02  0.93930177081E+02  0.80419002446E+02 0.  1.
        -24    1    1    2    0    0 -0.13866241369E+02  0.42650913480E+02 -0.16631572994E+03  0.19010394801E+03  0.80419002446E+02 0. -1.
<mgrwt>
<rscale>  0 0.92079254E+02</rscale>
<asrwt>0</asrwt>
<pdfrwt beam="1">  1        1 0.36069606E-01 0.92079254E+02</pdfrwt>
<pdfrwt beam="2">  1       -1 0.76279512E-02 0.92079254E+02</pdfrwt>
<totfact> 0.10131809E+04</totfact>
</mgrwt>
</event>
<event>
 4    1  0.4941530E-001  0.8911567E+02  0.7546771E-02  0.1305007E+00
          1   -1    0    0  501    0  0.00000000000E+00  0.00000000000E+00  0.39109133827E+02  0.39109133827E+02  0.00000000000E+00 0. -1.
         -1   -1    0    0    0  501 -0.00000000000E+00 -0.00000000000E+00 -0.23211718314E+03  0.23211718314E+03  0.00000000000E+00 0.  1.
         24    1    1    2    0    0 -0.19544565214E+02  0.33051421473E+02 -0.14448350067E+03  0.16975595545E+03  0.80419002446E+02 0.  1.
        -24    1    1    2    0    0  0.19544565214E+02 -0.33051421473E+02 -0.48524548642E+02  0.10147036152E+03  0.80419002446E+02 0. -1.
<mgrwt>
<rscale>  0 0.89115669E+02</rscale>
<asrwt>0</asrwt>
<pdfrwt beam="1">  1        1 0.60167899E-02 0.89115669E+02</pdfrwt>
<pdfrwt beam="2">  1       -1 0.35710335E-01 0.89115669E+02</pdfrwt>
<totfact> 0.88159576E+03</totfact>
</mgrwt>
</event>
<event>
 4    1  0.4941530E-001  0.8842168E+02  0.7546771E-02  0.1306719E+00
          1   -1    0    0  501    0  0.00000000000E+00  0.00000000000E+00  0.11295074372E+02  0.11295074372E+02  0.00000000000E+00 0. -1.
         -1   -1    0    0    0  501 -0.00000000000E+00 -0.00000000000E+00 -0.88955943143E+03  0.88955943143E+03  0.00000000000E+00 0.  1.
         24    1    1    2    0    0  0.23278628497E+02  0.28447902820E+02 -0.65129615730E+03  0.65727093211E+03  0.80419002446E+02 0.  1.
        -24    1    1    2    0    0 -0.23278628497E+02 -0.28447902820E+02 -0.22696819975E+03  0.24358357369E+03  0.80419002446E+02 0. -1.
<mgrwt>
<rscale>  0 0.88421681E+02</rscale>
<asrwt>0</asrwt>
<pdfrwt beam="1">  1        1 0.17377029E-02 0.88421681E+02</pdfrwt>
<pdfrwt beam="2">  1       -1 0.13685537E+00 0.88421681E+02</pdfrwt>
<totfact> 0.32966824E+03</totfact>
</mgrwt>
</event>
<event>
 4    1  0.4941530E-001  0.8314960E+02  0.7546771E-02  0.1320344E+00
         -2   -1    0    0    0  501 -0.00000000000E+00  0.00000000000E+00  0.16789356408E+03  0.16789356408E+03  0.00000000000E+00 0.  1.
          2   -1    0    0  501    0  0.00000000000E+00 -0.00000000000E+00 -0.43530639346E+02  0.43530639346E+02  0.00000000000E+00 0. -1.
         24    1    1    2    0    0 -0.20985502092E+02  0.24998401980E+01  0.37616253074E+02  0.91262472839E+02  0.80419002446E+02 0. -1.
        -24    1    1    2    0    0  0.20985502092E+02 -0.24998401980E+01  0.86746671661E+02  0.12016173059E+03  0.80419002446E+02 0.  1.
<mgrwt>
<rscale>  0 0.83149603E+02</rscale>
<asrwt>0</asrwt>
<pdfrwt beam="1">  1        2 0.66970216E-02 0.83149603E+02</pdfrwt>
<pdfrwt beam="2">  1       -2 0.25829779E-01 0.83149603E+02</pdfrwt>
<totfact> 0.12716671E+04</totfact>
</mgrwt>
</event>
<event>
 4    1  0.4941530E-001  0.8388839E+02  0.7546771E-02  0.1318365E+00
         -2   -1    0    0    0  501 -0.00000000000E+00  0.00000000000E+00  0.35411328969E+02  0.35411328969E+02  0.00000000000E+00 0.  1.
          2   -1    0    0  501    0  0.00000000000E+00 -0.00000000000E+00 -0.36808492383E+03  0.36808492383E+03  0.00000000000E+00 0. -1.
         24    1    1    2    0    0  0.21347318778E+02  0.10692873570E+02 -0.30318388651E+03  0.31457547673E+03  0.80419002446E+02 0. -1.
        -24    1    1    2    0    0 -0.21347318778E+02 -0.10692873570E+02 -0.29489708351E+02  0.88920776072E+02  0.80419002446E+02 0.  1.
<mgrwt>
<rscale>  0 0.83888387E+02</rscale>
<asrwt>0</asrwt>
<pdfrwt beam="1">  1        2 0.56628446E-01 0.83888387E+02</pdfrwt>
<pdfrwt beam="2">  1       -2 0.54478971E-02 0.83888387E+02</pdfrwt>
<totfact> 0.13566170E+04</totfact>
</mgrwt>
</event>
<event>
 4    1  0.4941530E-001  0.9807963E+02  0.7546771E-02  0.1284387E+00
         -3   -1    0    0    0  501 -0.00000000000E+00  0.00000000000E+00  0.10325436759E+04  0.10325436759E+04  0.00000000000E+00 0.  1.
          3   -1    0    0  501    0  0.00000000000E+00 -0.00000000000E+00 -0.94845822705E+01  0.94845822705E+01  0.00000000000E+00 0. -1.
         24    1    1    2    0    0  0.26189053405E+02  0.49664182653E+02  0.58090422445E+03  0.58912590462E+03  0.80419002446E+02 0.  1.
        -24    1    1    2    0    0 -0.26189053405E+02 -0.49664182653E+02  0.44215486915E+03  0.45290235352E+03  0.80419002446E+02 0.  0.
<mgrwt>
<rscale>  0 0.98079628E+02</rscale>
<asrwt>0</asrwt>
<pdfrwt beam="1">  1        3 0.14591673E-02 0.98079628E+02</pdfrwt>
<pdfrwt beam="2">  1       -3 0.15885278E+00 0.98079628E+02</pdfrwt>
<totfact> 0.10019546E+03</totfact>
</mgrwt>
</event>
<event>
 4    1  0.4941530E-001  0.8396911E+02  0.7546771E-02  0.1318151E+00
          2   -1    0    0  501    0  0.00000000000E+00  0.00000000000E+00  0.11727540977E+03  0.11727540977E+03  0.00000000000E+00 0. -1.
         -2   -1    0    0    0  501 -0.00000000000E+00 -0.00000000000E+00 -0.64581220124E+02  0.64581220124E+02  0.00000000000E+00 0.  1.
         24    1    1    2    0    0  0.52651403194E+01 -0.23576966854E+02  0.50240841941E+02  0.97851689929E+02  0.80419002446E+02 0. -1.
        -24    1    1    2    0    0 -0.52651403194E+01  0.23576966854E+02  0.24533477004E+01  0.84004939961E+02  0.80419002446E+02 0.  1.
<mgrwt>
<rscale>  0 0.83969108E+02</rscale>
<asrwt>0</asrwt>
<pdfrwt beam="1">  1        2 0.18042371E-01 0.83969108E+02</pdfrwt>
<pdfrwt beam="2">  1       -2 0.99355724E-02 0.83969108E+02</pdfrwt>
<totfact> 0.18523968E+04</totfact>
</mgrwt>
</event>
<event>
 4    1  0.4941530E-001  0.9699908E+02  0.7546771E-02  0.1286736E+00
         -2   -1    0    0    0  501 -0.00000000000E+00  0.00000000000E+00  0.39318482776E+01  0.39318482776E+01  0.00000000000E+00 0.  1.
          2   -1    0    0  501    0  0.00000000000E+00 -0.00000000000E+00 -0.24405866282E+04  0.24405866282E+04  0.00000000000E+00 0. -1.
         24    1    1    2    0    0 -0.42894399066E+02 -0.33191426822E+02 -0.10476127108E+04  0.10520937259E+04  0.80419002446E+02 0. -1.
        -24    1    1    2    0    0  0.42894399066E+02  0.33191426822E+02 -0.13890420691E+04  0.13924247506E+04  0.80419002446E+02 0.  0.
<mgrwt>
<rscale>  0 0.96999065E+02</rscale>
<asrwt>0</asrwt>
<pdfrwt beam="1">  1        2 0.37547468E+00 0.96999077E+02</pdfrwt>
<pdfrwt beam="2">  1       -2 0.60490003E-03 0.96999077E+02</pdfrwt>
<totfact> 0.18417649E+04</totfact>
</mgrwt>
</event>
<event>
 4    1  0.4941530E-001  0.8987908E+02  0.7546771E-02  0.1303145E+00
          1   -1    0    0  501    0  0.00000000000E+00  0.00000000000E+00  0.31742165029E+02  0.31742165029E+02  0.00000000000E+00 0. -1.
         -1   -1    0    0    0  501 -0.00000000000E+00 -0.00000000000E+00 -0.30156646675E+03  0.30156646675E+03  0.00000000000E+00 0.  1.
         24    1    1    2    0    0  0.29802535378E+02 -0.26885726184E+02 -0.20075369011E+03  0.21995520779E+03  0.80419002446E+02 0.  1.
        -24    1    1    2    0    0 -0.29802535378E+02  0.26885726184E+02 -0.69070611614E+02  0.11335342399E+03  0.80419002446E+02 0. -1.
<mgrwt>
<rscale>  0 0.89879082E+02</rscale>
<asrwt>0</asrwt>
<pdfrwt beam="1">  1        1 0.48834101E-02 0.89879082E+02</pdfrwt>
<pdfrwt beam="2">  1       -1 0.46394840E-01 0.89879082E+02</pdfrwt>
<totfact> 0.74112608E+03</totfact>
</mgrwt>
</event>
<event>
 4    1  0.4941530E-001  0.8721987E+02  0.7546771E-02  0.1309727E+00
         -2   -1    0    0    0  501 -0.00000000000E+00  0.00000000000E+00  0.22438649022E+02  0.22438649022E+02  0.00000000000E+00 0.  1.
          2   -1    0    0  501    0  0.00000000000E+00 -0.00000000000E+00 -0.35654785801E+03  0.35654785801E+03  0.00000000000E+00 0. -1.
         24    1    1    2    0    0  0.50885788520E+01 -0.33379580881E+02 -0.20906081894E+03  0.22652534521E+03  0.80419002446E+02 0. -1.
        -24    1    1    2    0    0 -0.50885788520E+01  0.33379580881E+02 -0.12504839005E+03  0.15246116182E+03  0.80419002446E+02 0.  1.
<mgrwt>
<rscale>  0 0.87219872E+02</rscale>
<asrwt>0</asrwt>
<pdfrwt beam="1">  1        2 0.54853511E-01 0.87219872E+02</pdfrwt>
<pdfrwt beam="2">  1       -2 0.34521002E-02 0.87219872E+02</pdfrwt>
<totfact> 0.27584697E+04</totfact>
</mgrwt>
</event>
<event>
 4    1  0.4941530E-001  0.8279380E+02  0.7546771E-02  0.1321305E+00
          3   -1    0    0  501    0  0.00000000000E+00  0.00000000000E+00  0.20836541372E+02  0.20836541372E+02  0.00000000000E+00 0. -1.
         -3   -1    0    0    0  501 -0.00000000000E+00 -0.00000000000E+00 -0.51836253259E+03  0.51836253259E+03  0.00000000000E+00 0.  1.
         24    1    1    2    0    0 -0.45487074058E+01 -0.19154799740E+02 -0.41171956704E+03  0.41996168269E+03  0.80419002446E+02 0.  1.
        -24    1    1    2    0    0  0.45487074058E+01  0.19154799740E+02 -0.85806424176E+02  0.11923739127E+03  0.80419002446E+02 0.  0.
<mgrwt>
<rscale>  0 0.82793798E+02</rscale>
<asrwt>0</asrwt>
<pdfrwt beam="1">  1        3 0.32056219E-02 0.82793798E+02</pdfrwt>
<pdfrwt beam="2">  1       -3 0.79748079E-01 0.82793798E+02</pdfrwt>
<totfact> 0.14473185E+03</totfact>
</mgrwt>
</event>
<event>
 4    1  0.4941530E-001  0.8057215E+02  0.7546771E-02  0.1327436E+00
         -2   -1    0    0    0  501 -0.00000000000E+00  0.00000000000E+00  0.23500146330E+02  0.23500146330E+02  0.00000000000E+00 0.  1.
          2   -1    0    0  501    0  0.00000000000E+00 -0.00000000000E+00 -0.44193337642E+03  0.44193337642E+03  0.00000000000E+00 0. -1.
         24    1    1    2    0    0  0.49068191932E+01 -0.76016075382E+00 -0.35170885945E+03  0.36081988927E+03  0.80419002446E+02 0. -1.
        -24    1    1    2    0    0 -0.49068191932E+01  0.76016075382E+00 -0.66724370634E+02  0.10461363348E+03  0.80419002446E+02 0.  0.
<mgrwt>
<rscale>  0 0.80572146E+02</rscale>
<asrwt>0</asrwt>
<pdfrwt beam="1">  1        2 0.67989743E-01 0.80572146E+02</pdfrwt>
<pdfrwt beam="2">  1       -2 0.36154075E-02 0.80572146E+02</pdfrwt>
<totfact> 0.20402146E+04</totfact>
</mgrwt>
</event>
<event>
 4    1  0.4941530E-001  0.8498088E+02  0.7546771E-02  0.1315483E+00
         -1   -1    0    0    0  501 -0.00000000000E+00  0.00000000000E+00  0.76328257421E+01  0.76328257421E+01  0.00000000000E+00 0.  1.
          1   -1    0    0  501    0  0.00000000000E+00 -0.00000000000E+00 -0.95702251112E+03  0.95702251112E+03  0.00000000000E+00 0. -1.
         24    1    1    2    0    0  0.25276933692E+02  0.10752087985E+02 -0.52612055867E+03  0.53293957348E+03  0.80419002446E+02 0. -1.
        -24    1    1    2    0    0 -0.25276933692E+02 -0.10752087985E+02 -0.42326912671E+03  0.43171576338E+03  0.80419002446E+02 0.  1.
<mgrwt>
<rscale>  0 0.84980872E+02</rscale>
<asrwt>0</asrwt>
<pdfrwt beam="1">  1        1 0.14723418E+00 0.84980882E+02</pdfrwt>
<pdfrwt beam="2">  1       -1 0.11742813E-02 0.84980882E+02</pdfrwt>
<totfact> 0.23420130E+04</totfact>
</mgrwt>
</event>
<event>
 4    1  0.4941530E-001  0.8558771E+02  0.7546771E-02  0.1313903E+00
         -2   -1    0    0    0  501 -0.00000000000E+00  0.00000000000E+00  0.68805010010E+02  0.68805010010E+02  0.00000000000E+00 0.  1.
          2   -1    0    0  501    0  0.00000000000E+00 -0.00000000000E+00 -0.17781940844E+03  0.17781940844E+03  0.00000000000E+00 0. -1.
         24    1    1    2    0    0  0.26130459697E+02  0.13237774505E+02 -0.13262139967E+03  0.15784071465E+03  0.80419002446E+02 0. -1.
        -24    1    1    2    0    0 -0.26130459697E+02 -0.13237774505E+02  0.23607001240E+02  0.88783703796E+02  0.80419002446E+02 0.  1.
<mgrwt>
<rscale>  0 0.85587707E+02</rscale>
<asrwt>0</asrwt>
<pdfrwt beam="1">  1        2 0.27356832E-01 0.85587707E+02</pdfrwt>
<pdfrwt beam="2">  1       -2 0.10585386E-01 0.85587707E+02</pdfrwt>
<totfact> 0.10634033E+04</totfact>
</mgrwt>
</event>
<event>
 4    1  0.4941530E-001  0.8302766E+02  0.7546771E-02  0.1320673E+00
          1   -1    0    0  501    0  0.00000000000E+00  0.00000000000E+00  0.57212874327E+02  0.57212874327E+02  0.00000000000E+00 0. -1.
         -1   -1    0    0    0  501 -0.00000000000E+00 -0.00000000000E+00 -0.30253963040E+03  0.30253963040E+03  0.00000000000E+00 0.  1.
         24    1    1    2    0    0  0.42811698263E+01  0.20200178749E+02 -0.26219650845E+03  0.27502836332E+03  0.80419002446E+02 0.  1.
        -24    1    1    2    0    0 -0.42811698263E+01 -0.20200178749E+02  0.16869752376E+02  0.84724141401E+02  0.80419002446E+02 0. -1.
<mgrwt>
<rscale>  0 0.83027656E+02</rscale>
<asrwt>0</asrwt>
<pdfrwt beam="1">  1        1 0.88019805E-02 0.83027656E+02</pdfrwt>
<pdfrwt beam="2">  1       -1 0.46544559E-01 0.83027656E+02</pdfrwt>
<totfact> 0.33363210E+03</totfact>
</mgrwt>
</event>
<event>
 4    1  0.4941530E-001  0.8793061E+02  0.7546771E-02  0.1307942E+00
         -4   -1    0    0    0  501 -0.00000000000E+00  0.00000000000E+00  0.51395744993E+03  0.51395744993E+03  0.00000000000E+00 0.  1.
          4   -1    0    0  501    0  0.00000000000E+00 -0.00000000000E+00 -0.15770189193E+02  0.15770189193E+02  0.00000000000E+00 0. -1.
         24    1    1    2    0    0  0.23994636463E+02  0.26245655227E+02  0.19224297477E+03  0.21139809436E+03  0.80419002446E+02 0. -1.
        -24    1    1    2    0    0 -0.23994636463E+02 -0.26245655227E+02  0.30594428596E+03  0.31832954476E+03  0.80419002446E+02 0.  1.
<mgrwt>
<rscale>  0 0.87930614E+02</rscale>
<asrwt>0</asrwt>
<pdfrwt beam="1">  1        4 0.24261833E-02 0.87930614E+02</pdfrwt>
<pdfrwt beam="2">  1       -4 0.79070364E-01 0.87930614E+02</pdfrwt>
<totfact> 0.16306149E+03</totfact>
</mgrwt>
</event>
<event>
 4    1  0.4941530E-001  0.8945319E+02  0.7546771E-02  0.1304181E+00
         -2   -1    0    0    0  501 -0.00000000000E+00  0.00000000000E+00  0.53380126711E+02  0.53380126711E+02  0.00000000000E+00 0.  1.
          2   -1    0    0  501    0  0.00000000000E+00 -0.00000000000E+00 -0.43038825008E+03  0.43038825008E+03  0.00000000000E+00 0. -1.
         24    1    1    2    0    0 -0.39170580554E+02 -0.56848894026E+00 -0.38377239585E+03  0.39405979918E+03  0.80419002446E+02 0. -1.
        -24    1    1    2    0    0  0.39170580554E+02  0.56848894026E+00  0.67642724789E+01  0.89708577612E+02  0.80419002446E+02 0.  1.
<mgrwt>
<rscale>  0 0.89453192E+02</rscale>
<asrwt>0</asrwt>
<pdfrwt beam="1">  1        2 0.66213576E-01 0.89453192E+02</pdfrwt>
<pdfrwt beam="2">  1       -2 0.82123273E-02 0.89453192E+02</pdfrwt>
<totfact> 0.62301461E+03</totfact>
</mgrwt>
</event>
<event>
 4    1  0.4941530E-001  0.8208535E+02  0.7546771E-02  0.1323236E+00
         -1   -1    0    0    0  501 -0.00000000000E+00  0.00000000000E+00  0.11666281064E+02  0.11666281064E+02  0.00000000000E+00 0.  1.
          1   -1    0    0  501    0  0.00000000000E+00 -0.00000000000E+00 -0.61136172389E+03  0.61136172389E+03  0.00000000000E+00 0. -1.
         24    1    1    2    0    0 -0.11651182789E+02  0.11620481490E+02 -0.37309381816E+03  0.38201701370E+03  0.80419002446E+02 0. -1.
        -24    1    1    2    0    0  0.11651182789E+02 -0.11620481490E+02 -0.22660162466E+03  0.24101099125E+03  0.80419002446E+02 0.  1.
<mgrwt>
<rscale>  0 0.82085342E+02</rscale>
<asrwt>0</asrwt>
<pdfrwt beam="1">  1        1 0.94055675E-01 0.82085352E+02</pdfrwt>
<pdfrwt beam="2">  1       -1 0.17948120E-02 0.82085352E+02</pdfrwt>
<totfact> 0.24615511E+04</totfact>
</mgrwt>
</event>
<event>
 4    1  0.4941530E-001  0.8141679E+02  0.7546771E-02  0.1325078E+00
         -1   -1    0    0    0  501 -0.00000000000E+00  0.00000000000E+00  0.28783441745E+03  0.28783441745E+03  0.00000000000E+00 0.  1.
          1   -1    0    0  501    0  0.00000000000E+00 -0.00000000000E+00 -0.54053329383E+03  0.54053329383E+03  0.00000000000E+00 0. -1.
         24    1    1    2    0    0  0.76131755455E+01  0.10174364357E+02  0.27891518496E+03  0.29055528646E+03  0.80419002446E+02 0.  1.
        -24    1    1    2    0    0 -0.76131755455E+01 -0.10174364357E+02 -0.53161406134E+03  0.53781242483E+03  0.80419002446E+02 0. -1.
<mgrwt>
<rscale>  0 0.81416792E+02</rscale>
<asrwt>0</asrwt>
<pdfrwt beam="1">  1        1 0.83158967E-01 0.81416792E+02</pdfrwt>
<pdfrwt beam="2">  1       -1 0.44282219E-01 0.81416792E+02</pdfrwt>
<totfact> 0.21856564E+02</totfact>
</mgrwt>
</event>
<event>
 4    1  0.4941530E-001  0.1017678E+03  0.7546771E-02  0.1276622E+00
         -2   -1    0    0    0  501 -0.00000000000E+00  0.00000000000E+00  0.63236190665E+02  0.63236190665E+02  0.00000000000E+00 0.  1.
          2   -1    0    0  501    0  0.00000000000E+00 -0.00000000000E+00 -0.16419405527E+03  0.16419405527E+03  0.00000000000E+00 0. -1.
         24    1    1    2    0    0  0.61723154666E+02 -0.89285679479E+01 -0.56204629027E+02  0.11625679948E+03  0.80419002446E+02 0. -1.
        -24    1    1    2    0    0 -0.61723154666E+02  0.89285679479E+01 -0.44753235580E+02  0.11117344646E+03  0.80419002446E+02 0.  0.
<mgrwt>
<rscale>  0 0.10176779E+03</rscale>
<asrwt>0</asrwt>
<pdfrwt beam="1">  1        2 0.25260623E-01 0.10176779E+03</pdfrwt>
<pdfrwt beam="2">  1       -2 0.97286449E-02 0.10176779E+03</pdfrwt>
<totfact> 0.13442089E+04</totfact>
</mgrwt>
</event>
<event>
 4    1  0.4941530E-001  0.8982638E+02  0.7546771E-02  0.1303273E+00
          1   -1    0    0  501    0  0.00000000000E+00  0.00000000000E+00  0.36898461983E+03  0.36898461983E+03  0.00000000000E+00 0. -1.
         -1   -1    0    0    0  501 -0.00000000000E+00 -0.00000000000E+00 -0.28002148996E+02  0.28002148996E+02  0.00000000000E+00 0.  1.
         24    1    1    2    0    0 -0.18820213353E+02  0.35318018994E+02  0.77585082147E+02  0.11869382386E+03  0.80419002446E+02 0.  1.
        -24    1    1    2    0    0  0.18820213353E+02 -0.35318018994E+02  0.26339738869E+03  0.27829294497E+03  0.80419002446E+02 0. -1.
<mgrwt>
<rscale>  0 0.89826382E+02</rscale>
<asrwt>0</asrwt>
<pdfrwt beam="1">  1        1 0.56766861E-01 0.89826382E+02</pdfrwt>
<pdfrwt beam="2">  1       -1 0.43080232E-02 0.89826382E+02</pdfrwt>
<totfact> 0.13454834E+04</totfact>
</mgrwt>
</event>
<event>
 4    1  0.4941530E-001  0.9427397E+02  0.7546771E-02  0.1292820E+00
         -2   -1    0    0    0  501 -0.00000000000E+00  0.00000000000E+00  0.45175822313E+02  0.45175822313E+02  0.00000000000E+00 0.  1.
          2   -1    0    0  501    0  0.00000000000E+00 -0.00000000000E+00 -0.60404899787E+03  0.60404899787E+03  0.00000000000E+00 0. -1.
         24    1    1    2    0    0  0.26273200035E+02  0.41594292602E+02 -0.54599640685E+03  0.55407549889E+03  0.80419002446E+02 0. -1.
        -24    1    1    2    0    0 -0.26273200035E+02 -0.41594292602E+02 -0.12876768709E+02  0.95149321300E+02  0.80419002446E+02 0.  1.
<mgrwt>
<rscale>  0 0.94273974E+02</rscale>
<asrwt>0</asrwt>
<pdfrwt beam="1">  1        2 0.92930609E-01 0.94273974E+02</pdfrwt>
<pdfrwt beam="2">  1       -2 0.69501269E-02 0.94273974E+02</pdfrwt>
<totfact> 0.55767236E+03</totfact>
</mgrwt>
</event>
<event>
 4    1  0.4941530E-001  0.8324980E+02  0.7546771E-02  0.1320074E+00
          1   -1    0    0  501    0  0.00000000000E+00  0.00000000000E+00  0.56366732725E+03  0.56366732725E+03  0.00000000000E+00 0. -1.
         -1   -1    0    0    0  501 -0.00000000000E+00 -0.00000000000E+00 -0.20992410945E+02  0.20992410945E+02  0.00000000000E+00 0.  1.
         24    1    1    2    0    0 -0.30909593745E+00  0.21522493260E+02  0.83177840232E+02  0.11768212403E+03  0.80419002446E+02 0.  1.
        -24    1    1    2    0    0  0.30909593745E+00 -0.21522493260E+02  0.45949707607E+03  0.46697761416E+03  0.80419002446E+02 0. -1.
<mgrwt>
<rscale>  0 0.83249800E+02</rscale>
<asrwt>0</asrwt>
<pdfrwt beam="1">  1        1 0.86718039E-01 0.83249800E+02</pdfrwt>
<pdfrwt beam="2">  1       -1 0.32296021E-02 0.83249800E+02</pdfrwt>
<totfact> 0.11858992E+04</totfact>
</mgrwt>
</event>
<event>
 4    1  0.4941530E-001  0.9720394E+02  0.7546771E-02  0.1286288E+00
          2   -1    0    0  501    0  0.00000000000E+00  0.00000000000E+00  0.68970089221E+03  0.68970089221E+03  0.00000000000E+00 0. -1.
         -2   -1    0    0    0  501 -0.00000000000E+00 -0.00000000000E+00 -0.13825762589E+02  0.13825762589E+02  0.00000000000E+00 0.  1.
         24    1    1    2    0    0 -0.54482029788E+02 -0.36193063288E+01  0.37154379653E+03  0.38404869436E+03  0.80419002446E+02 0. -1.
        -24    1    1    2    0    0  0.54482029788E+02  0.36193063288E+01  0.30433133309E+03  0.31947796043E+03  0.80419002446E+02 0.  1.
<mgrwt>
<rscale>  0 0.97203945E+02</rscale>
<asrwt>0</asrwt>
<pdfrwt beam="1">  1        2 0.10610780E+00 0.97203945E+02</pdfrwt>
<pdfrwt beam="2">  1       -2 0.21270409E-02 0.97203945E+02</pdfrwt>
<totfact> 0.27473858E+04</totfact>
</mgrwt>
</event>
<event>
 4    1  0.4941530E-001  0.8107603E+02  0.7546771E-02  0.1326025E+00
          2   -1    0    0  501    0  0.00000000000E+00  0.00000000000E+00  0.70237471715E+03  0.70237471715E+03  0.00000000000E+00 0. -1.
         -2   -1    0    0    0  501 -0.00000000000E+00 -0.00000000000E+00 -0.19931465577E+03  0.19931465577E+03  0.00000000000E+00 0.  1.
         24    1    1    2    0    0  0.98415421392E+01 -0.30416094253E+01  0.69166287791E+03  0.69639849222E+03  0.80419002446E+02 0. -1.
        -24    1    1    2    0    0 -0.98415421392E+01  0.30416094253E+01 -0.18860281653E+03  0.20529088070E+03  0.80419002446E+02 0.  1.
<mgrwt>
<rscale>  0 0.81076034E+02</rscale>
<asrwt>0</asrwt>
<pdfrwt beam="1">  1        2 0.10805765E+00 0.81076034E+02</pdfrwt>
<pdfrwt beam="2">  1       -2 0.30663794E-01 0.81076034E+02</pdfrwt>
<totfact> 0.41976577E+02</totfact>
</mgrwt>
</event>
<event>
 4    1  0.4941530E-001  0.9234016E+02  0.7546771E-02  0.1297282E+00
         -2   -1    0    0    0  501 -0.00000000000E+00  0.00000000000E+00  0.33497486818E+02  0.33497486818E+02  0.00000000000E+00 0.  1.
          2   -1    0    0  501    0  0.00000000000E+00 -0.00000000000E+00 -0.27187386158E+03  0.27187386158E+03  0.00000000000E+00 0. -1.
         24    1    1    2    0    0 -0.42630098987E+02  0.15561617531E+02 -0.15773308199E+03  0.18277426074E+03  0.80419002446E+02 0.  1.
        -24    1    1    2    0    0  0.42630098987E+02 -0.15561617531E+02 -0.80643292778E+02  0.12259708767E+03  0.80419002446E+02 0.  0.
<mgrwt>
<rscale>  0 0.92340160E+02</rscale>
<asrwt>0</asrwt>
<pdfrwt beam="1">  1        2 0.41826747E-01 0.92340160E+02</pdfrwt>
<pdfrwt beam="2">  1       -2 0.51534596E-02 0.92340160E+02</pdfrwt>
<totfact> 0.20419845E+04</totfact>
</mgrwt>
</event>
<event>
 4    1  0.4941530E-001  0.2276123E+03  0.7546771E-02  0.1128332E+00
         -2   -1    0    0    0  501 -0.00000000000E+00  0.00000000000E+00  0.17399941607E+03  0.17399941607E+03  0.00000000000E+00 0.  1.
          2   -1    0    0  501    0  0.00000000000E+00 -0.00000000000E+00 -0.33549997105E+03  0.33549997105E+03  0.00000000000E+00 0. -1.
         24    1    1    2    0    0  0.30503146617E+02 -0.21073607453E+03  0.47087551095E+01  0.22766098346E+03  0.80419002446E+02 0.  0.
        -24    1    1    2    0    0 -0.30503146617E+02  0.21073607453E+03 -0.16620931009E+03  0.28183840366E+03  0.80419002446E+02 0.  0.
<mgrwt>
<rscale>  0 0.22761231E+03</rscale>
<asrwt>0</asrwt>
<pdfrwt beam="1">  1        2 0.51615380E-01 0.22761234E+03</pdfrwt>
<pdfrwt beam="2">  1       -2 0.26769141E-01 0.22761234E+03</pdfrwt>
<totfact> 0.12145738E+03</totfact>
</mgrwt>
</event>
<event>
 4    1  0.4941530E-001  0.9186392E+02  0.7546771E-02  0.1298400E+00
         -3   -1    0    0    0  501 -0.00000000000E+00  0.00000000000E+00  0.35147596989E+03  0.35147596989E+03  0.00000000000E+00 0.  1.
          3   -1    0    0  501    0  0.00000000000E+00 -0.00000000000E+00 -0.23237941763E+03  0.23237941763E+03  0.00000000000E+00 0. -1.
         24    1    1    2    0    0 -0.36344490640E+02  0.25511619703E+02  0.33598346724E+03  0.34831576328E+03  0.80419002446E+02 0.  1.
        -24    1    1    2    0    0  0.36344490640E+02 -0.25511619703E+02 -0.21688691498E+03  0.23553962423E+03  0.80419002446E+02 0. -1.
<mgrwt>
<rscale>  0 0.91863925E+02</rscale>
<asrwt>0</asrwt>
<pdfrwt beam="1">  1        3 0.35750680E-01 0.91863925E+02</pdfrwt>
<pdfrwt beam="2">  1       -3 0.54073226E-01 0.91863925E+02</pdfrwt>
<totfact> 0.59555417E+01</totfact>
</mgrwt>
</event>
<event>
 4    1  0.4941530E-001  0.1981409E+03  0.7546771E-02  0.1151317E+00
          2   -1    0    0  501    0  0.00000000000E+00  0.00000000000E+00  0.10756259436E+04  0.10756259436E+04  0.00000000000E+00 0. -1.
         -2   -1    0    0    0  501 -0.00000000000E+00 -0.00000000000E+00 -0.43155114235E+02  0.43155114235E+02  0.00000000000E+00 0.  1.
         24    1    1    2    0    0 -0.31146844852E+01 -0.18106047563E+03  0.73591663163E+03  0.76212407242E+03  0.80419002446E+02 0. -1.
        -24    1    1    2    0    0  0.31146844852E+01  0.18106047563E+03  0.29655419773E+03  0.35665698541E+03  0.80419002446E+02 0.  1.
<mgrwt>
<rscale>  0 0.19814089E+03</rscale>
<asrwt>0</asrwt>
<pdfrwt beam="1">  1        2 0.16548089E+00 0.19814089E+03</pdfrwt>
<pdfrwt beam="2">  1       -2 0.66392492E-02 0.19814089E+03</pdfrwt>
<totfact> 0.29715579E+03</totfact>
</mgrwt>
</event>
<event>
 4    1  0.4941530E-001  0.8175902E+02  0.7546771E-02  0.1324132E+00
         -2   -1    0    0    0  501 -0.00000000000E+00  0.00000000000E+00  0.31141015924E+03  0.31141015924E+03  0.00000000000E+00 0.  1.
          2   -1    0    0  501    0  0.00000000000E+00 -0.00000000000E+00 -0.80803383938E+03  0.80803383938E+03  0.00000000000E+00 0. -1.
         24    1    1    2    0    0  0.13805888612E+02 -0.51690562396E+01 -0.80054930398E+03  0.80471344326E+03  0.80419002446E+02 0. -1.
        -24    1    1    2    0    0 -0.13805888612E+02  0.51690562396E+01  0.30392562384E+03  0.31473055537E+03  0.80419002446E+02 0.  1.
<mgrwt>
<rscale>  0 0.81759022E+02</rscale>
<asrwt>0</asrwt>
<pdfrwt beam="1">  1        2 0.12431290E+00 0.81759022E+02</pdfrwt>
<pdfrwt beam="2">  1       -2 0.47909255E-01 0.81759022E+02</pdfrwt>
<totfact> 0.15500554E+02</totfact>
</mgrwt>
</event>
<event>
 4    1  0.4941530E-001  0.1088830E+03  0.7546771E-02  0.1262653E+00
         -2   -1    0    0    0  501 -0.00000000000E+00  0.00000000000E+00  0.19309976901E+04  0.19309976901E+04  0.00000000000E+00 0.  1.
          2   -1    0    0  501    0  0.00000000000E+00 -0.00000000000E+00 -0.91488378429E+01  0.91488378429E+01  0.00000000000E+00 0. -1.
         24    1    1    2    0    0 -0.65881056544E+01 -0.73108692756E+02  0.40456964834E+03  0.41896551219E+03  0.80419002446E+02 0. -1.
        -24    1    1    2    0    0  0.65881056544E+01  0.73108692756E+02  0.15172792039E+04  0.15211810157E+04  0.80419002446E+02 0.  1.
<mgrwt>
<rscale>  0 0.10888296E+03</rscale>
<asrwt>0</asrwt>
<pdfrwt beam="1">  1        2 0.14075151E-02 0.10888296E+03</pdfrwt>
<pdfrwt beam="2">  1       -2 0.29707624E+00 0.10888296E+03</pdfrwt>
<totfact> 0.33528361E+02</totfact>
</mgrwt>
</event>
<event>
 4    1  0.4941530E-001  0.1543749E+03  0.7546771E-02  0.1195198E+00
          1   -1    0    0  501    0  0.00000000000E+00  0.00000000000E+00  0.26875608073E+03  0.26875608073E+03  0.00000000000E+00 0. -1.
         -1   -1    0    0    0  501 -0.00000000000E+00 -0.00000000000E+00 -0.22944886642E+03  0.22944886642E+03  0.00000000000E+00 0.  1.
         24    1    1    2    0    0 -0.10639528552E+03  0.77745899692E+02 -0.17546473510E+03  0.23370808912E+03  0.80419002446E+02 0.  1.
        -24    1    1    2    0    0  0.10639528552E+03 -0.77745899692E+02  0.21477194941E+03  0.26449685803E+03  0.80419002446E+02 0. -1.
<mgrwt>
<rscale>  0 0.15437486E+03</rscale>
<asrwt>0</asrwt>
<pdfrwt beam="1">  1        1 0.41347089E-01 0.15437486E+03</pdfrwt>
<pdfrwt beam="2">  1       -1 0.35299826E-01 0.15437486E+03</pdfrwt>
<totfact> 0.77572771E+02</totfact>
</mgrwt>
</event>
<event>
 4    1  0.4941530E-001  0.8367989E+02  0.7546771E-02  0.1318921E+00
          1   -1    0    0  501    0  0.00000000000E+00  0.00000000000E+00  0.10467743540E+02  0.10467743540E+02  0.00000000000E+00 0. -1.
         -1   -1    0    0    0  501 -0.00000000000E+00 -0.00000000000E+00 -0.68982470914E+03  0.68982470914E+03  0.00000000000E+00 0.  1.
         24    1    1    2    0    0  0.22338472483E+02 -0.60083641123E+01 -0.40059893494E+03  0.40924544032E+03  0.80419002446E+02 0.  0.
        -24    1    1    2    0    0 -0.22338472483E+02  0.60083641123E+01 -0.27875803066E+03  0.29104701236E+03  0.80419002446E+02 0.  0.
<mgrwt>
<rscale>  0 0.83679889E+02</rscale>
<asrwt>0</asrwt>
<pdfrwt beam="1">  1        1 0.16104221E-02 0.83679889E+02</pdfrwt>
<pdfrwt beam="2">  1       -1 0.10612688E+00 0.83679889E+02</pdfrwt>
<totfact> 0.65893998E+03</totfact>
</mgrwt>
</event>
<event>
 4    1  0.4941530E-001  0.8639182E+02  0.7546771E-02  0.1311832E+00
          2   -1    0    0  501    0  0.00000000000E+00  0.00000000000E+00  0.89848177963E+03  0.89848177963E+03  0.00000000000E+00 0. -1.
         -2   -1    0    0    0  501 -0.00000000000E+00 -0.00000000000E+00 -0.87784432187E+01  0.87784432187E+01  0.00000000000E+00 0.  1.
         24    1    1    2    0    0  0.19370276299E+02 -0.24922339442E+02  0.54999467394E+03  0.55673843762E+03  0.80419002446E+02 0. -1.
        -24    1    1    2    0    0 -0.19370276299E+02  0.24922339442E+02  0.33970866247E+03  0.35052178523E+03  0.80419002446E+02 0.  1.
<mgrwt>
<rscale>  0 0.86391820E+02</rscale>
<asrwt>0</asrwt>
<pdfrwt beam="1">  1        2 0.13822789E+00 0.86391820E+02</pdfrwt>
<pdfrwt beam="2">  1       -2 0.13505304E-02 0.86391820E+02</pdfrwt>
<totfact> 0.37680950E+04</totfact>
</mgrwt>
</event>
<event>
 4    1  0.4941530E-001  0.9332003E+02  0.7546771E-02  0.1295005E+00
          2   -1    0    0  501    0  0.00000000000E+00  0.00000000000E+00  0.19424329740E+04  0.19424329740E+04  0.00000000000E+00 0. -1.
         -2   -1    0    0    0  501 -0.00000000000E+00 -0.00000000000E+00 -0.72520963367E+01  0.72520963367E+01  0.00000000000E+00 0.  1.
         24    1    1    2    0    0 -0.46121052503E+02 -0.10689302085E+02  0.15699327829E+04  0.15727039046E+04  0.80419002446E+02 0. -1.
        -24    1    1    2    0    0  0.46121052503E+02  0.10689302085E+02  0.36524809480E+03  0.37698116580E+03  0.80419002446E+02 0.  1.
<mgrwt>
<rscale>  0 0.93320033E+02</rscale>
<asrwt>0</asrwt>
<pdfrwt beam="1">  1        2 0.29883543E+00 0.93320033E+02</pdfrwt>
<pdfrwt beam="2">  1       -2 0.11157087E-02 0.93320033E+02</pdfrwt>
<totfact> 0.13900993E+04</totfact>
</mgrwt>
</event>
<event>
 4    1  0.4941530E-001  0.1025589E+03  0.7546771E-02  0.1275005E+00
         -1   -1    0    0    0  501 -0.00000000000E+00  0.00000000000E+00  0.92092034030E+01  0.92092034030E+01  0.00000000000E+00 0.  1.
          1   -1    0    0  501    0  0.00000000000E+00 -0.00000000000E+00 -0.11424897137E+04  0.11424897137E+04  0.00000000000E+00 0. -1.
         24    1    1    2    0    0 -0.17143706103E+01 -0.63625316731E+02 -0.55678100952E+03  0.56614788573E+03  0.80419002446E+02 0.  0.
        -24    1    1    2    0    0  0.17143706103E+01  0.63625316731E+02 -0.57649950077E+03  0.58555103137E+03  0.80419002446E+02 0. -1.
<mgrwt>
<rscale>  0 0.10255894E+03</rscale>
<asrwt>0</asrwt>
<pdfrwt beam="1">  1        1 0.17576770E+00 0.10255894E+03</pdfrwt>
<pdfrwt beam="2">  1       -1 0.14168001E-02 0.10255894E+03</pdfrwt>
<totfact> 0.13477235E+04</totfact>
</mgrwt>
</event>
<event>
 4    1  0.4941530E-001  0.8054957E+02  0.7546771E-02  0.1327499E+00
          2   -1    0    0  501    0  0.00000000000E+00  0.00000000000E+00  0.10183875446E+04  0.10183875446E+04  0.00000000000E+00 0. -1.
         -2   -1    0    0    0  501 -0.00000000000E+00 -0.00000000000E+00 -0.74702447189E+02  0.74702447189E+02  0.00000000000E+00 0.  1.
         24    1    1    2    0    0 -0.81386497660E+00 -0.45115549713E+01  0.99456186675E+03  0.99781838992E+03  0.80419002446E+02 0. -1.
        -24    1    1    2    0    0  0.81386497660E+00  0.45115549713E+01 -0.50876769362E+02  0.95271601852E+02  0.80419002446E+02 0.  1.
<mgrwt>
<rscale>  0 0.80549565E+02</rscale>
<asrwt>0</asrwt>
<pdfrwt beam="1">  1        2 0.15667500E+00 0.80549565E+02</pdfrwt>
<pdfrwt beam="2">  1       -2 0.11492685E-01 0.80549565E+02</pdfrwt>
<totfact> 0.13512943E+03</totfact>
</mgrwt>
</event>
<event>
 4    1  0.4941530E-001  0.8752708E+02  0.7546771E-02  0.1308953E+00
          2   -1    0    0  501    0  0.00000000000E+00  0.00000000000E+00  0.37576428939E+03  0.37576428939E+03  0.00000000000E+00 0. -1.
         -2   -1    0    0    0  501 -0.00000000000E+00 -0.00000000000E+00 -0.24865830776E+02  0.24865830776E+02  0.00000000000E+00 0.  1.
         24    1    1    2    0    0  0.21882056929E+02  0.26738546925E+02  0.26045684496E+03  0.27477037385E+03  0.80419002446E+02 0. -1.
        -24    1    1    2    0    0 -0.21882056929E+02 -0.26738546925E+02  0.90441613656E+02  0.12585974631E+03  0.80419002446E+02 0.  1.
<mgrwt>
<rscale>  0 0.87527083E+02</rscale>
<asrwt>0</asrwt>
<pdfrwt beam="1">  1        2 0.57809887E-01 0.87527083E+02</pdfrwt>
<pdfrwt beam="2">  1       -2 0.38255127E-02 0.87527083E+02</pdfrwt>
<totfact> 0.22475649E+04</totfact>
</mgrwt>
</event>
<event>
 4    1  0.4941530E-001  0.8495559E+02  0.7546771E-02  0.1315549E+00
         -1   -1    0    0    0  501 -0.00000000000E+00  0.00000000000E+00  0.76237739423E+01  0.76237739423E+01  0.00000000000E+00 0.  1.
          1   -1    0    0  501    0  0.00000000000E+00 -0.00000000000E+00 -0.11195848164E+04  0.11195848164E+04  0.00000000000E+00 0. -1.
         24    1    1    2    0    0  0.20984631996E+02 -0.17603437725E+02 -0.33450786827E+03  0.34512746296E+03  0.80419002446E+02 0.  0.
        -24    1    1    2    0    0 -0.20984631996E+02  0.17603437725E+02 -0.77745317419E+03  0.78208112738E+03  0.80419002446E+02 0.  0.
<mgrwt>
<rscale>  0 0.84955587E+02</rscale>
<asrwt>0</asrwt>
<pdfrwt beam="1">  1        1 0.17224374E+00 0.84955587E+02</pdfrwt>
<pdfrwt beam="2">  1       -1 0.11728889E-02 0.84955587E+02</pdfrwt>
<totfact> 0.17999940E+04</totfact>
</mgrwt>
</event>
<event>
 4    1  0.4941530E-001  0.8772237E+02  0.7546771E-02  0.1308463E+00
          2   -1    0    0  501    0  0.00000000000E+00  0.00000000000E+00  0.10265691154E+03  0.10265691154E+03  0.00000000000E+00 0. -1.
         -2   -1    0    0    0  501 -0.00000000000E+00 -0.00000000000E+00 -0.81240049558E+02  0.81240049558E+02  0.00000000000E+00 0.  1.
         24    1    1    2    0    0  0.28611628299E+02  0.20232953681E+02  0.36272126568E+02  0.94925659380E+02  0.80419002446E+02 0. -1.
        -24    1    1    2    0    0 -0.28611628299E+02 -0.20232953681E+02 -0.14855264588E+02  0.88971301715E+02  0.80419002446E+02 0.  1.
<mgrwt>
<rscale>  0 0.87722367E+02</rscale>
<asrwt>0</asrwt>
<pdfrwt beam="1">  1        2 0.15793371E-01 0.87722367E+02</pdfrwt>
<pdfrwt beam="2">  1       -2 0.12498469E-01 0.87722367E+02</pdfrwt>
<totfact> 0.15114353E+04</totfact>
</mgrwt>
</event>
<event>
 4    1  0.4941530E-001  0.1033573E+03  0.7546771E-02  0.1273390E+00
         -1   -1    0    0    0  501 -0.00000000000E+00  0.00000000000E+00  0.28661815619E+03  0.28661815619E+03  0.00000000000E+00 0.  1.
          1   -1    0    0  501    0  0.00000000000E+00 -0.00000000000E+00 -0.21016935785E+03  0.21016935785E+03  0.00000000000E+00 0. -1.
         24    1    1    2    0    0  0.23049742506E+02  0.60697798451E+02  0.26351890743E+03  0.28306349799E+03  0.80419002446E+02 0.  1.
        -24    1    1    2    0    0 -0.23049742506E+02 -0.60697798451E+02 -0.18707010909E+03  0.21372401605E+03  0.80419002446E+02 0. -1.
<mgrwt>
<rscale>  0 0.10335729E+03</rscale>
<asrwt>0</asrwt>
<pdfrwt beam="1">  1        1 0.32333747E-01 0.10335729E+03</pdfrwt>
<pdfrwt beam="2">  1       -1 0.44095101E-01 0.10335729E+03</pdfrwt>
<totfact> 0.70937873E+02</totfact>
</mgrwt>
</event>
<event>
 4    1  0.4941530E-001  0.8197427E+02  0.7546771E-02  0.1323540E+00
         -2   -1    0    0    0  501 -0.00000000000E+00  0.00000000000E+00  0.10371109931E+02  0.10371109931E+02  0.00000000000E+00 0.  1.
          2   -1    0    0  501    0  0.00000000000E+00 -0.00000000000E+00 -0.78757610615E+03  0.78757610615E+03  0.00000000000E+00 0. -1.
         24    1    1    2    0    0  0.15405324067E+02  0.39040496817E+01 -0.55660203045E+03  0.56260608055E+03  0.80419002446E+02 0. -1.
        -24    1    1    2    0    0 -0.15405324067E+02 -0.39040496817E+01 -0.22060296577E+03  0.23534113553E+03  0.80419002446E+02 0.  1.
<mgrwt>
<rscale>  0 0.81974274E+02</rscale>
<asrwt>0</asrwt>
<pdfrwt beam="1">  1        2 0.12116554E+00 0.81974274E+02</pdfrwt>
<pdfrwt beam="2">  1       -2 0.15955556E-02 0.81974274E+02</pdfrwt>
<totfact> 0.34808647E+04</totfact>
</mgrwt>
</event>
<event>
 4    1  0.4941530E-001  0.8169388E+02  0.7546771E-02  0.1324312E+00
          2   -1    0    0  501    0  0.00000000000E+00  0.00000000000E+00  0.15767171703E+04  0.15767171703E+04  0.00000000000E+00 0. -1.
         -2   -1    0    0    0  501 -0.00000000000E+00 -0.00000000000E+00 -0.97074867603E+01  0.97074867603E+01  0.00000000000E+00 0.  1.
         24    1    1    2    0    0  0.66743542921E+01  0.12732881430E+02  0.13791898584E+04  0.13816072361E+04  0.80419002446E+02 0. -1.
        -24    1    1    2    0    0 -0.66743542921E+01 -0.12732881430E+02  0.18781982516E+03  0.20481742102E+03  0.80419002446E+02 0.  1.
<mgrwt>
<rscale>  0 0.81693875E+02</rscale>
<asrwt>0</asrwt>
<pdfrwt beam="1">  1        2 0.24257167E+00 0.81693875E+02</pdfrwt>
<pdfrwt beam="2">  1       -2 0.14934608E-02 0.81693875E+02</pdfrwt>
<totfact> 0.13910359E+04</totfact>
</mgrwt>
</event>
<event>
 4    1  0.4941530E-001  0.1000091E+03  0.7546771E-02  0.1280277E+00
         -2   -1    0    0    0  501 -0.00000000000E+00  0.00000000000E+00  0.11130312352E+02  0.11130312352E+02  0.00000000000E+00 0.  1.
          2   -1    0    0  501    0  0.00000000000E+00 -0.00000000000E+00 -0.98488350545E+03  0.98488350545E+03  0.00000000000E+00 0. -1.
         24    1    1    2    0    0  0.45974058589E+02  0.37696101630E+02 -0.63426998884E+03  0.64210610092E+03  0.80419002446E+02 0. -1.
        -24    1    1    2    0    0 -0.45974058589E+02 -0.37696101630E+02 -0.33948320426E+03  0.35390771689E+03  0.80419002446E+02 0.  1.
<mgrwt>
<rscale>  0 0.10000913E+03</rscale>
<asrwt>0</asrwt>
<pdfrwt beam="1">  1        2 0.15152056E+00 0.10000913E+03</pdfrwt>
<pdfrwt beam="2">  1       -2 0.17123555E-02 0.10000913E+03</pdfrwt>
<totfact> 0.24144252E+04</totfact>
</mgrwt>
</event>
<event>
 4    1  0.4941530E-001  0.1038126E+03  0.7546771E-02  0.1272477E+00
         -2   -1    0    0    0  501 -0.00000000000E+00  0.00000000000E+00  0.13524511372E+03  0.13524511372E+03  0.00000000000E+00 0.  1.
          2   -1    0    0  501    0  0.00000000000E+00 -0.00000000000E+00 -0.99835809484E+02  0.99835809484E+02  0.00000000000E+00 0. -1.
         24    1    1    2    0    0 -0.62426601866E+02  0.20316665642E+02 -0.35101674735E+02  0.10958645467E+03  0.80419002446E+02 0.  1.
        -24    1    1    2    0    0  0.62426601866E+02 -0.20316665642E+02  0.70510978971E+02  0.12549446854E+03  0.80419002446E+02 0. -1.
<mgrwt>
<rscale>  0 0.10381264E+03</rscale>
<asrwt>0</asrwt>
<pdfrwt beam="1">  1        2 0.15359355E-01 0.10381264E+03</pdfrwt>
<pdfrwt beam="2">  1       -2 0.20806941E-01 0.10381264E+03</pdfrwt>
<totfact> 0.68914260E+03</totfact>
</mgrwt>
</event>
<event>
 4    1  0.4941530E-001  0.9023175E+02  0.7546771E-02  0.1302291E+00
         -2   -1    0    0    0  501 -0.00000000000E+00  0.00000000000E+00  0.55144744129E+02  0.55144744129E+02  0.00000000000E+00 0.  1.
          2   -1    0    0  501    0  0.00000000000E+00 -0.00000000000E+00 -0.14884802768E+03  0.14884802768E+03  0.00000000000E+00 0. -1.
         24    1    1    2    0    0  0.16403623755E+02  0.37489640300E+02 -0.56026630219E+02  0.10621088103E+03  0.80419002446E+02 0. -1.
        -24    1    1    2    0    0 -0.16403623755E+02 -0.37489640300E+02 -0.37676653327E+02  0.97781890769E+02  0.80419002446E+02 0.  1.
<mgrwt>
<rscale>  0 0.90231746E+02</rscale>
<asrwt>0</asrwt>
<pdfrwt beam="1">  1        2 0.22899696E-01 0.90231746E+02</pdfrwt>
<pdfrwt beam="2">  1       -2 0.84838069E-02 0.90231746E+02</pdfrwt>
<totfact> 0.18272065E+04</totfact>
</mgrwt>
</event>
<event>
 4    1  0.4941530E-001  0.8109252E+02  0.7546771E-02  0.1325979E+00
         -1   -1    0    0    0  501 -0.00000000000E+00  0.00000000000E+00  0.46622657146E+01  0.46622657146E+01  0.00000000000E+00 0.  1.
          1   -1    0    0  501    0  0.00000000000E+00 -0.00000000000E+00 -0.32587759010E+04  0.32587759010E+04  0.00000000000E+00 0. -1.
         24    1    1    2    0    0 -0.61494241714E+00 -0.10411673400E+02 -0.39819007937E+03  0.40636355196E+03  0.80419002446E+02 0.  1.
        -24    1    1    2    0    0  0.61494241714E+00  0.10411673400E+02 -0.28559235559E+04  0.28570746148E+04  0.80419002446E+02 0. -1.
<mgrwt>
<rscale>  0 0.81092522E+02</rscale>
<asrwt>0</asrwt>
<pdfrwt beam="1">  1        1 0.50134875E+00 0.81092522E+02</pdfrwt>
<pdfrwt beam="2">  1       -1 0.71727364E-03 0.81092522E+02</pdfrwt>
<totfact> 0.14729932E+03</totfact>
</mgrwt>
</event>
<event>
 4    1  0.4941530E-001  0.8437681E+02  0.7546771E-02  0.1317070E+00
         -1   -1    0    0    0  501 -0.00000000000E+00  0.00000000000E+00  0.93719644748E+02  0.93719644748E+02  0.00000000000E+00 0.  1.
          1   -1    0    0  501    0  0.00000000000E+00 -0.00000000000E+00 -0.10843503168E+04  0.10843503168E+04  0.00000000000E+00 0. -1.
         24    1    1    2    0    0  0.24282380202E+02  0.79117335704E+01  0.72712296437E+02  0.11138457489E+03  0.80419002446E+02 0.  1.
        -24    1    1    2    0    0 -0.24282380202E+02 -0.79117335704E+01 -0.10633429685E+04  0.10666853867E+04  0.80419002446E+02 0. -1.
<mgrwt>
<rscale>  0 0.84376806E+02</rscale>
<asrwt>0</asrwt>
<pdfrwt beam="1">  1        1 0.16682313E+00 0.84376806E+02</pdfrwt>
<pdfrwt beam="2">  1       -1 0.14418406E-01 0.84376806E+02</pdfrwt>
<totfact> 0.48944749E+02</totfact>
</mgrwt>
</event>
<event>
 4    1  0.4941530E-001  0.9581556E+02  0.7546771E-02  0.1289350E+00
         -2   -1    0    0    0  501 -0.00000000000E+00  0.00000000000E+00  0.14340197251E+02  0.14340197251E+02  0.00000000000E+00 0.  1.
          2   -1    0    0  501    0  0.00000000000E+00 -0.00000000000E+00 -0.28120859137E+04  0.28120859137E+04  0.00000000000E+00 0. -1.
         24    1    1    2    0    0  0.49290762108E+02 -0.16847154858E+02 -0.26408444460E+04  0.26425820725E+04  0.80419002446E+02 0. -1.
        -24    1    1    2    0    0 -0.49290762108E+02  0.16847154858E+02 -0.15690127039E+03  0.18384403841E+03  0.80419002446E+02 0.  1.
<mgrwt>
<rscale>  0 0.95815561E+02</rscale>
<asrwt>0</asrwt>
<pdfrwt beam="1">  1        2 0.43262816E+00 0.95815561E+02</pdfrwt>
<pdfrwt beam="2">  1       -2 0.22061865E-02 0.95815561E+02</pdfrwt>
<totfact> 0.18478292E+03</totfact>
</mgrwt>
</event>
<event>
 4    1  0.4941530E-001  0.8655788E+02  0.7546771E-02  0.1311408E+00
          2   -1    0    0  501    0  0.00000000000E+00  0.00000000000E+00  0.96835530897E+03  0.96835530897E+03  0.00000000000E+00 0. -1.
         -2   -1    0    0    0  501 -0.00000000000E+00 -0.00000000000E+00 -0.87308486116E+01  0.87308486116E+01  0.00000000000E+00 0.  1.
         24    1    1    2    0    0  0.25434095959E+02  0.19446187037E+02  0.31499122427E+03  0.32666762121E+03  0.80419002446E+02 0.  1.
        -24    1    1    2    0    0 -0.25434095959E+02 -0.19446187037E+02  0.64463323609E+03  0.65041853637E+03  0.80419002446E+02 0.  0.
<mgrwt>
<rscale>  0 0.86557872E+02</rscale>
<asrwt>0</asrwt>
<pdfrwt beam="1">  1        2 0.14897766E+00 0.86557883E+02</pdfrwt>
<pdfrwt beam="2">  1       -2 0.13432082E-02 0.86557883E+02</pdfrwt>
<totfact> 0.34454021E+04</totfact>
</mgrwt>
</event>
<event>
 4    1  0.4941530E-001  0.8660411E+02  0.7546771E-02  0.1311290E+00
          2   -1    0    0  501    0  0.00000000000E+00  0.00000000000E+00  0.78134835120E+02  0.78134835120E+02  0.00000000000E+00 0. -1.
         -2   -1    0    0    0  501 -0.00000000000E+00 -0.00000000000E+00 -0.13800254231E+03  0.13800254231E+03  0.00000000000E+00 0.  1.
         24    1    1    2    0    0  0.27410078441E+02 -0.16785099192E+02 -0.89560291886E+02  0.12458456482E+03  0.80419002446E+02 0.  1.
        -24    1    1    2    0    0 -0.27410078441E+02  0.16785099192E+02  0.29692584699E+02  0.91552812603E+02  0.80419002446E+02 0. -1.
<mgrwt>
<rscale>  0 0.86604098E+02</rscale>
<asrwt>0</asrwt>
<pdfrwt beam="1">  1        2 0.12020744E-01 0.86604109E+02</pdfrwt>
<pdfrwt beam="2">  1       -2 0.21231160E-01 0.86604109E+02</pdfrwt>
<totfact> 0.87360312E+03</totfact>
</mgrwt>
</event>
<event>
 4    1  0.4941530E-001  0.1039695E+03  0.7546771E-02  0.1272163E+00
          1   -1    0    0  501    0  0.00000000000E+00  0.00000000000E+00  0.24938907470E+03  0.24938907470E+03  0.00000000000E+00 0. -1.
         -1   -1    0    0    0  501 -0.00000000000E+00 -0.00000000000E+00 -0.10486792681E+03  0.10486792681E+03  0.00000000000E+00 0.  1.
         24    1    1    2    0    0  0.25204466839E+02  0.60886561552E+02 -0.63410488666E+02  0.12178072324E+03  0.80419002446E+02 0.  1.
        -24    1    1    2    0    0 -0.25204466839E+02 -0.60886561552E+02  0.20793163655E+03  0.23247627827E+03  0.80419002446E+02 0. -1.
<mgrwt>
<rscale>  0 0.10396949E+03</rscale>
<asrwt>0</asrwt>
<pdfrwt beam="1">  1        1 0.38367550E-01 0.10396949E+03</pdfrwt>
<pdfrwt beam="2">  1       -1 0.16133527E-01 0.10396949E+03</pdfrwt>
<totfact> 0.30256723E+03</totfact>
</mgrwt>
</event>
<event>
 4    1  0.4941530E-001  0.8306492E+02  0.7546771E-02  0.1320572E+00
          1   -1    0    0  501    0  0.00000000000E+00  0.00000000000E+00  0.88129581105E+03  0.88129581105E+03  0.00000000000E+00 0. -1.
         -1   -1    0    0    0  501 -0.00000000000E+00 -0.00000000000E+00 -0.79066205439E+01  0.79066205439E+01  0.00000000000E+00 0.  1.
         24    1    1    2    0    0 -0.65817219610E+01  0.19729221095E+02  0.48071021622E+03  0.48783407954E+03  0.80419002446E+02 0.  1.
        -24    1    1    2    0    0  0.65817219610E+01 -0.19729221095E+02  0.39267897429E+03  0.40136835206E+03  0.80419002446E+02 0.  0.
<mgrwt>
<rscale>  0 0.83064908E+02</rscale>
<asrwt>0</asrwt>
<pdfrwt beam="1">  1        1 0.13558389E+00 0.83064918E+02</pdfrwt>
<pdfrwt beam="2">  1       -1 0.12164039E-02 0.83064918E+02</pdfrwt>
<totfact> 0.25322495E+04</totfact>
</mgrwt>
</event>
<event>
 4    1  0.4941530E-001  0.1083550E+03  0.7546771E-02  0.1263647E+00
          2   -1    0    0  501    0  0.00000000000E+00  0.00000000000E+00  0.14464362087E+04  0.14464362087E+04  0.00000000000E+00 0. -1.
         -2   -1    0    0    0  501 -0.00000000000E+00 -0.00000000000E+00 -0.81596672378E+01  0.81596672378E+01  0.00000000000E+00 0.  1.
         24    1    1    2    0    0  0.71841973047E+02  0.10598417879E+02  0.77169286902E+03  0.77926291815E+03  0.80419002446E+02 0. -1.
        -24    1    1    2    0    0 -0.71841973047E+02 -0.10598417879E+02  0.66658367240E+03  0.67533295775E+03  0.80419002446E+02 0.  1.
<mgrwt>
<rscale>  0 0.10835503E+03</rscale>
<asrwt>0</asrwt>
<pdfrwt beam="1">  1        2 0.22252844E+00 0.10835503E+03</pdfrwt>
<pdfrwt beam="2">  1       -2 0.12553346E-02 0.10835503E+03</pdfrwt>
<totfact> 0.21161622E+04</totfact>
</mgrwt>
</event>
<event>
 4    1  0.4941530E-001  0.8734361E+02  0.7546771E-02  0.1309415E+00
         -1   -1    0    0    0  501 -0.00000000000E+00  0.00000000000E+00  0.11602513517E+02  0.11602513517E+02  0.00000000000E+00 0.  1.
          1   -1    0    0  501    0  0.00000000000E+00 -0.00000000000E+00 -0.96980642075E+03  0.96980642075E+03  0.00000000000E+00 0. -1.
         24    1    1    2    0    0 -0.14510759177E+02  0.30840377387E+02 -0.20064844210E+03  0.21883487903E+03  0.80419002446E+02 0.  1.
        -24    1    1    2    0    0  0.14510759177E+02 -0.30840377387E+02 -0.75755546514E+03  0.76257405524E+03  0.80419002446E+02 0. -1.
<mgrwt>
<rscale>  0 0.87343614E+02</rscale>
<asrwt>0</asrwt>
<pdfrwt beam="1">  1        1 0.14920106E+00 0.87343614E+02</pdfrwt>
<pdfrwt beam="2">  1       -1 0.17850012E-02 0.87343614E+02</pdfrwt>
<totfact> 0.12697051E+04</totfact>
</mgrwt>
</event>
<event>
 4    1  0.4941530E-001  0.8239087E+02  0.7546771E-02  0.1322400E+00
         -1   -1    0    0    0  501 -0.00000000000E+00  0.00000000000E+00  0.17097257188E+02  0.17097257188E+02  0.00000000000E+00 0.  1.
          1   -1    0    0  501    0  0.00000000000E+00 -0.00000000000E+00 -0.13518292966E+04  0.13518292966E+04  0.00000000000E+00 0. -1.
         24    1    1    2    0    0  0.16734700900E+02  0.64022347144E+01 -0.92133366442E+02  0.12359940125E+03  0.80419002446E+02 0.  0.
        -24    1    1    2    0    0 -0.16734700900E+02 -0.64022347144E+01 -0.12425986730E+04  0.12453271525E+04  0.80419002446E+02 0. -1.
<mgrwt>
<rscale>  0 0.82390866E+02</rscale>
<asrwt>0</asrwt>
<pdfrwt beam="1">  1        1 0.20797378E+00 0.82390866E+02</pdfrwt>
<pdfrwt beam="2">  1       -1 0.26303467E-02 0.82390866E+02</pdfrwt>
<totfact> 0.39963399E+03</totfact>
</mgrwt>
</event>
<event>
 4    1  0.4941530E-001  0.8997543E+02  0.7546771E-02  0.1302911E+00
          1   -1    0    0  501    0  0.00000000000E+00  0.00000000000E+00  0.73766314184E+02  0.73766314184E+02  0.00000000000E+00 0. -1.
         -1   -1    0    0    0  501 -0.00000000000E+00 -0.00000000000E+00 -0.11786563736E+03  0.11786563736E+03  0.00000000000E+00 0.  1.
         24    1    1    2    0    0 -0.12970637391E+02 -0.38211584277E+02 -0.47197760159E+02  0.10160318462E+03  0.80419002446E+02 0.  0.
        -24    1    1    2    0    0  0.12970637391E+02  0.38211584277E+02  0.30984369820E+01  0.90028766921E+02  0.80419002446E+02 0.  1.
<mgrwt>
<rscale>  0 0.89975433E+02</rscale>
<asrwt>0</asrwt>
<pdfrwt beam="1">  1        1 0.11348664E-01 0.89975433E+02</pdfrwt>
<pdfrwt beam="2">  1       -1 0.18133175E-01 0.89975433E+02</pdfrwt>
<totfact> 0.11524759E+04</totfact>
</mgrwt>
</event>
<event>
 4    1  0.4941530E-001  0.9997242E+02  0.7546771E-02  0.1280354E+00
         -1   -1    0    0    0  501 -0.00000000000E+00  0.00000000000E+00  0.15466257494E+02  0.15466257494E+02  0.00000000000E+00 0.  1.
          1   -1    0    0  501    0  0.00000000000E+00 -0.00000000000E+00 -0.14991314382E+04  0.14991314382E+04  0.00000000000E+00 0. -1.
         24    1    1    2    0    0  0.17470804154E+02 -0.56763009644E+02 -0.17061523206E+03  0.19774741876E+03  0.80419002446E+02 0.  1.
        -24    1    1    2    0    0 -0.17470804154E+02  0.56763009644E+02 -0.13130499486E+04  0.13168502769E+04  0.80419002446E+02 0. -1.
<mgrwt>
<rscale>  0 0.99972417E+02</rscale>
<asrwt>0</asrwt>
<pdfrwt beam="1">  1        1 0.23063563E+00 0.99972417E+02</pdfrwt>
<pdfrwt beam="2">  1       -1 0.23794240E-02 0.99972417E+02</pdfrwt>
<totfact> 0.37318548E+03</totfact>
</mgrwt>
</event>
<event>
 4    1  0.4941530E-001  0.3229023E+03  0.7546771E-02  0.1074321E+00
          1   -1    0    0  501    0  0.00000000000E+00  0.00000000000E+00  0.87015157635E+03  0.87015157635E+03  0.00000000000E+00 0. -1.
         -1   -1    0    0    0  501 -0.00000000000E+00 -0.00000000000E+00 -0.23990540463E+03  0.23990540463E+03  0.00000000000E+00 0.  1.
         24    1    1    2    0    0 -0.21863969914E+02  0.31196261934E+03 -0.77550154616E+02  0.33208425359E+03  0.80419002446E+02 0.  1.
        -24    1    1    2    0    0  0.21863969914E+02 -0.31196261934E+03  0.70779632633E+03  0.77797272740E+03  0.80419002446E+02 0. -1.
<mgrwt>
<rscale>  0 0.32290235E+03</rscale>
<asrwt>0</asrwt>
<pdfrwt beam="1">  1        1 0.13386947E+00 0.32290235E+03</pdfrwt>
<pdfrwt beam="2">  1       -1 0.36908524E-01 0.32290235E+03</pdfrwt>
<totfact> 0.14411335E+02</totfact>
</mgrwt>
</event>
<event>
 4    1  0.4941530E-001  0.1093246E+03  0.7546771E-02  0.1261826E+00
          1   -1    0    0  501    0  0.00000000000E+00  0.00000000000E+00  0.20456422321E+04  0.20456422321E+04  0.00000000000E+00 0. -1.
         -1   -1    0    0    0  501 -0.00000000000E+00 -0.00000000000E+00 -0.96863116887E+01  0.96863116887E+01  0.00000000000E+00 0.  1.
         24    1    1    2    0    0 -0.11883507483E+02 -0.73098811910E+02  0.16653402853E+04  0.16689248443E+04  0.80419002446E+02 0. -1.
        -24    1    1    2    0    0  0.11883507483E+02  0.73098811910E+02  0.37061563514E+03  0.38640369954E+03  0.80419002446E+02 0.  1.
<mgrwt>
<rscale>  0 0.10932462E+03</rscale>
<asrwt>0</asrwt>
<pdfrwt beam="1">  1        1 0.31471385E+00 0.10932464E+03</pdfrwt>
<pdfrwt beam="2">  1       -1 0.14902034E-02 0.10932464E+03</pdfrwt>
<totfact> 0.32957319E+03</totfact>
</mgrwt>
</event>
<event>
 4    1  0.4941530E-001  0.9059479E+02  0.7546771E-02  0.1301418E+00
          2   -1    0    0  501    0  0.00000000000E+00  0.00000000000E+00  0.57144559891E+02  0.57144559891E+02  0.00000000000E+00 0. -1.
         -2   -1    0    0    0  501 -0.00000000000E+00 -0.00000000000E+00 -0.14819496231E+03  0.14819496231E+03  0.00000000000E+00 0.  1.
         24    1    1    2    0    0 -0.22317863419E+01 -0.41655967888E+02 -0.27496768798E+02  0.94675703217E+02  0.80419002446E+02 0.  0.
        -24    1    1    2    0    0  0.22317863419E+01  0.41655967888E+02 -0.63553633616E+02  0.11066381898E+03  0.80419002446E+02 0. -1.
<mgrwt>
<rscale>  0 0.90594793E+02</rscale>
<asrwt>0</asrwt>
<pdfrwt beam="1">  1        2 0.87914709E-02 0.90594793E+02</pdfrwt>
<pdfrwt beam="2">  1       -2 0.22799225E-01 0.90594793E+02</pdfrwt>
<totfact> 0.11344007E+04</totfact>
</mgrwt>
</event>
<event>
 4    1  0.4941530E-001  0.8358686E+02  0.7546771E-02  0.1319170E+00
         -2   -1    0    0    0  501 -0.00000000000E+00  0.00000000000E+00  0.15862690406E+02  0.15862690406E+02  0.00000000000E+00 0.  1.
          2   -1    0    0  501    0  0.00000000000E+00 -0.00000000000E+00 -0.13620128574E+04  0.13620128574E+04  0.00000000000E+00 0. -1.
         24    1    1    2    0    0 -0.94104120715E+01  0.20760335070E+02 -0.12397725370E+04  0.12425871024E+04  0.80419002446E+02 0. -1.
        -24    1    1    2    0    0  0.94104120715E+01 -0.20760335070E+02 -0.10637762998E+03  0.13528844549E+03  0.80419002446E+02 0.  1.
<mgrwt>
<rscale>  0 0.83586861E+02</rscale>
<asrwt>0</asrwt>
<pdfrwt beam="1">  1        2 0.20954045E+00 0.83586861E+02</pdfrwt>
<pdfrwt beam="2">  1       -2 0.24404138E-02 0.83586861E+02</pdfrwt>
<totfact> 0.88808717E+03</totfact>
</mgrwt>
</event>
<event>
 4    1  0.4941530E-001  0.8107263E+02  0.7546771E-02  0.1326035E+00
          1   -1    0    0  501    0  0.00000000000E+00  0.00000000000E+00  0.66600927259E+02  0.66600927259E+02  0.00000000000E+00 0. -1.
         -1   -1    0    0    0  501 -0.00000000000E+00 -0.00000000000E+00 -0.26105414274E+03  0.26105414274E+03  0.00000000000E+00 0.  1.
         24    1    1    2    0    0 -0.69435909405E+01  0.75724239552E+01 -0.22642828748E+03  0.24050476167E+03  0.80419002446E+02 0.  0.
        -24    1    1    2    0    0  0.69435909405E+01 -0.75724239552E+01  0.31975071993E+02  0.87150308336E+02  0.80419002446E+02 0. -1.
<mgrwt>
<rscale>  0 0.81072628E+02</rscale>
<asrwt>0</asrwt>
<pdfrwt beam="1">  1        1 0.10246296E-01 0.81072628E+02</pdfrwt>
<pdfrwt beam="2">  1       -1 0.40162176E-01 0.81072628E+02</pdfrwt>
<totfact> 0.35356103E+03</totfact>
</mgrwt>
</event>
<event>
 4    1  0.4941530E-001  0.8167262E+02  0.7546771E-02  0.1324371E+00
         -2   -1    0    0    0  501 -0.00000000000E+00  0.00000000000E+00  0.15894749880E+02  0.15894749880E+02  0.00000000000E+00 0.  1.
          2   -1    0    0  501    0  0.00000000000E+00 -0.00000000000E+00 -0.48736668696E+03  0.48736668696E+03  0.00000000000E+00 0. -1.
         24    1    1    2    0    0 -0.14250405421E+02  0.35028886642E+00 -0.14194800961E+03  0.16376706062E+03  0.80419002446E+02 0.  0.
        -24    1    1    2    0    0  0.14250405421E+02 -0.35028886642E+00 -0.32952392746E+03  0.33949437622E+03  0.80419002446E+02 0. -1.
<mgrwt>
<rscale>  0 0.81672605E+02</rscale>
<asrwt>0</asrwt>
<pdfrwt beam="1">  1        2 0.74979484E-01 0.81672615E+02</pdfrwt>
<pdfrwt beam="2">  1       -2 0.24453463E-02 0.81672615E+02</pdfrwt>
<totfact> 0.32447648E+04</totfact>
</mgrwt>
</event>
<event>
 4    1  0.4941530E-001  0.8503239E+02  0.7546771E-02  0.1315348E+00
         -2   -1    0    0    0  501 -0.00000000000E+00  0.00000000000E+00  0.50310005531E+02  0.50310005531E+02  0.00000000000E+00 0.  1.
          2   -1    0    0  501    0  0.00000000000E+00 -0.00000000000E+00 -0.72890934551E+03  0.72890934551E+03  0.00000000000E+00 0. -1.
         24    1    1    2    0    0 -0.14139613167E+02  0.23735250990E+02 -0.68839298147E+03  0.69362482921E+03  0.80419002446E+02 0. -1.
        -24    1    1    2    0    0  0.14139613167E+02 -0.23735250990E+02  0.97936414916E+01  0.85594521835E+02  0.80419002446E+02 0.  1.
<mgrwt>
<rscale>  0 0.85032387E+02</rscale>
<asrwt>0</asrwt>
<pdfrwt beam="1">  1        2 0.11213989E+00 0.85032387E+02</pdfrwt>
<pdfrwt beam="2">  1       -2 0.77400013E-02 0.85032387E+02</pdfrwt>
<totfact> 0.37951395E+03</totfact>
</mgrwt>
</event>
<event>
 4    1  0.4941530E-001  0.8297584E+02  0.7546771E-02  0.1320812E+00
          1   -1    0    0  501    0  0.00000000000E+00  0.00000000000E+00  0.15704116167E+04  0.15704116167E+04  0.00000000000E+00 0. -1.
         -1   -1    0    0    0  501 -0.00000000000E+00 -0.00000000000E+00 -0.56088301498E+01  0.56088301498E+01  0.00000000000E+00 0.  1.
         24    1    1    2    0    0 -0.10079809795E+02 -0.17781220117E+02  0.41418839233E+03  0.42241805673E+03  0.80419002446E+02 0.  0.
        -24    1    1    2    0    0  0.10079809795E+02  0.17781220117E+02  0.11506143942E+04  0.11536023901E+04  0.80419002446E+02 0. -1.
<mgrwt>
<rscale>  0 0.82975842E+02</rscale>
<asrwt>0</asrwt>
<pdfrwt beam="1">  1        1 0.24160144E+00 0.82975842E+02</pdfrwt>
<pdfrwt beam="2">  1       -1 0.86289820E-03 0.82975842E+02</pdfrwt>
<totfact> 0.14050221E+04</totfact>
</mgrwt>
</event>
<event>
 4    1  0.4941530E-001  0.8724543E+02  0.7546771E-02  0.1309663E+00
          4   -1    0    0  501    0  0.00000000000E+00  0.00000000000E+00  0.40111625556E+02  0.40111625556E+02  0.00000000000E+00 0. -1.
         -4   -1    0    0    0  501 -0.00000000000E+00 -0.00000000000E+00 -0.40666539039E+03  0.40666539039E+03  0.00000000000E+00 0.  1.
         24    1    1    2    0    0 -0.12336368970E+02  0.31501803190E+02 -0.20132240982E+02  0.89538107445E+02  0.80419002446E+02 0. -1.
        -24    1    1    2    0    0  0.12336368970E+02 -0.31501803190E+02 -0.34642152385E+03  0.35723890850E+03  0.80419002446E+02 0.  1.
<mgrwt>
<rscale>  0 0.87245433E+02</rscale>
<asrwt>0</asrwt>
<pdfrwt beam="1">  1        4 0.61710191E-02 0.87245433E+02</pdfrwt>
<pdfrwt beam="2">  1       -4 0.62563908E-01 0.87245433E+02</pdfrwt>
<totfact> 0.61888835E+02</totfact>
</mgrwt>
</event>
<event>
 4    1  0.4941530E-001  0.8798667E+02  0.7546771E-02  0.1307802E+00
         -1   -1    0    0    0  501 -0.00000000000E+00  0.00000000000E+00  0.13529416061E+03  0.13529416061E+03  0.00000000000E+00 0.  1.
          1   -1    0    0  501    0  0.00000000000E+00 -0.00000000000E+00 -0.57246339182E+02  0.57246339182E+02  0.00000000000E+00 0. -1.
         24    1    1    2    0    0 -0.32476372911E+02  0.14823056438E+02  0.41053285689E+02  0.97092873168E+02  0.80419002446E+02 0.  0.
        -24    1    1    2    0    0  0.32476372911E+02 -0.14823056438E+02  0.36994535740E+02  0.95447626627E+02  0.80419002446E+02 0.  1.
<mgrwt>
<rscale>  0 0.87986668E+02</rscale>
<asrwt>0</asrwt>
<pdfrwt beam="1">  1        1 0.88071291E-02 0.87986668E+02</pdfrwt>
<pdfrwt beam="2">  1       -1 0.20814486E-01 0.87986668E+02</pdfrwt>
<totfact> 0.12879626E+04</totfact>
</mgrwt>
</event>
<event>
 4    1  0.4941530E-001  0.8433830E+02  0.7546771E-02  0.1317172E+00
         -2   -1    0    0    0  501 -0.00000000000E+00  0.00000000000E+00  0.17117564550E+03  0.17117564550E+03  0.00000000000E+00 0.  1.
          2   -1    0    0  501    0  0.00000000000E+00 -0.00000000000E+00 -0.42367175293E+02  0.42367175293E+02  0.00000000000E+00 0. -1.
         24    1    1    2    0    0 -0.23882900621E+02  0.86796822391E+01  0.79201041108E+02  0.11569680502E+03  0.80419002446E+02 0.  0.
        -24    1    1    2    0    0  0.23882900621E+02 -0.86796822391E+01  0.49607429102E+02  0.97846015771E+02  0.80419002446E+02 0.  0.
<mgrwt>
<rscale>  0 0.84338292E+02</rscale>
<asrwt>0</asrwt>
<pdfrwt beam="1">  1        2 0.65180271E-02 0.84338303E+02</pdfrwt>
<pdfrwt beam="2">  1       -2 0.26334714E-01 0.84338303E+02</pdfrwt>
<totfact> 0.12742444E+04</totfact>
</mgrwt>
</event>
<event>
 4    1  0.4941530E-001  0.8500391E+02  0.7546771E-02  0.1315422E+00
         -2   -1    0    0    0  501 -0.00000000000E+00  0.00000000000E+00  0.97463651275E+01  0.97463651275E+01  0.00000000000E+00 0.  1.
          2   -1    0    0  501    0  0.00000000000E+00 -0.00000000000E+00 -0.12435475883E+04  0.12435475883E+04  0.00000000000E+00 0. -1.
         24    1    1    2    0    0  0.23532442961E+02 -0.14306373843E+02 -0.10151181131E+04  0.10186709222E+04  0.80419002446E+02 0. -1.
        -24    1    1    2    0    0 -0.23532442961E+02  0.14306373843E+02 -0.21868311006E+03  0.23462303123E+03  0.80419002446E+02 0. -1.
<mgrwt>
<rscale>  0 0.85003907E+02</rscale>
<asrwt>0</asrwt>
<pdfrwt beam="1">  1        2 0.19131504E+00 0.85003907E+02</pdfrwt>
<pdfrwt beam="2">  1       -2 0.14994406E-02 0.85003907E+02</pdfrwt>
<totfact> 0.20618428E+04</totfact>
</mgrwt>
</event>
<event>
 4    1  0.4941530E-001  0.9139384E+02  0.7546771E-02  0.1299511E+00
         -1   -1    0    0    0  501 -0.00000000000E+00  0.00000000000E+00  0.19412730960E+02  0.19412730960E+02  0.00000000000E+00 0.  1.
          1   -1    0    0  501    0  0.00000000000E+00 -0.00000000000E+00 -0.95446560730E+03  0.95446560730E+03  0.00000000000E+00 0. -1.
         24    1    1    2    0    0 -0.21466293829E+02 -0.37746729381E+02 -0.10666643502E+03  0.14046551771E+03  0.80419002446E+02 0.  1.
        -24    1    1    2    0    0  0.21466293829E+02  0.37746729381E+02 -0.82838644132E+03  0.83341282056E+03  0.80419002446E+02 0. -1.
<mgrwt>
<rscale>  0 0.91393836E+02</rscale>
<asrwt>0</asrwt>
<pdfrwt beam="1">  1        1 0.14684088E+00 0.91393836E+02</pdfrwt>
<pdfrwt beam="2">  1       -1 0.29865735E-02 0.91393836E+02</pdfrwt>
<totfact> 0.62579319E+03</totfact>
</mgrwt>
</event>
<event>
 4    1  0.4941530E-001  0.2109333E+03  0.7546771E-02  0.1140829E+00
         -2   -1    0    0    0  501 -0.00000000000E+00  0.00000000000E+00  0.32680124661E+03  0.32680124661E+03  0.00000000000E+00 0.  1.
          2   -1    0    0  501    0  0.00000000000E+00 -0.00000000000E+00 -0.13736978398E+03  0.13736978398E+03  0.00000000000E+00 0. -1.
         24    1    1    2    0    0  0.19468644377E+03 -0.11081672660E+02  0.11661725254E+03  0.24102368017E+03  0.80419002446E+02 0.  1.
        -24    1    1    2    0    0 -0.19468644377E+03  0.11081672660E+02  0.72814210090E+02  0.22314735043E+03  0.80419002446E+02 0. -1.
<mgrwt>
<rscale>  0 0.21093326E+03</rscale>
<asrwt>0</asrwt>
<pdfrwt beam="1">  1        2 0.21133813E-01 0.21093329E+03</pdfrwt>
<pdfrwt beam="2">  1       -2 0.50277115E-01 0.21093329E+03</pdfrwt>
<totfact> 0.98478766E+02</totfact>
</mgrwt>
</event>
<event>
 4    1  0.4941530E-001  0.8558938E+02  0.7546771E-02  0.1313898E+00
         -2   -1    0    0    0  501 -0.00000000000E+00  0.00000000000E+00  0.10751887095E+02  0.10751887095E+02  0.00000000000E+00 0.  1.
          2   -1    0    0  501    0  0.00000000000E+00 -0.00000000000E+00 -0.68332497359E+03  0.68332497359E+03  0.00000000000E+00 0. -1.
         24    1    1    2    0    0  0.16692877019E+02  0.24076348853E+02 -0.31751572676E+03  0.32884916818E+03  0.80419002446E+02 0.  1.
        -24    1    1    2    0    0 -0.16692877019E+02 -0.24076348853E+02 -0.35505735973E+03  0.36522769250E+03  0.80419002446E+02 0. -1.
<mgrwt>
<rscale>  0 0.85589371E+02</rscale>
<asrwt>0</asrwt>
<pdfrwt beam="1">  1        2 0.10512690E+00 0.85589382E+02</pdfrwt>
<pdfrwt beam="2">  1       -2 0.16541367E-02 0.85589382E+02</pdfrwt>
<totfact> 0.39288895E+04</totfact>
</mgrwt>
</event>
<event>
 4    1  0.4941530E-001  0.1663359E+03  0.7546771E-02  0.1181724E+00
         -1   -1    0    0    0  501 -0.00000000000E+00  0.00000000000E+00  0.32848711844E+03  0.32848711844E+03  0.00000000000E+00 0.  1.
          1   -1    0    0  501    0  0.00000000000E+00 -0.00000000000E+00 -0.86034012525E+02  0.86034012525E+02  0.00000000000E+00 0. -1.
         24    1    1    2    0    0 -0.32882679222E+01  0.14556645876E+03  0.15126044825E+03  0.22482736884E+03  0.80419002446E+02 0.  1.
        -24    1    1    2    0    0  0.32882679222E+01 -0.14556645876E+03  0.91192657663E+02  0.18969376212E+03  0.80419002446E+02 0. -1.
<mgrwt>
<rscale>  0 0.16633587E+03</rscale>
<asrwt>0</asrwt>
<pdfrwt beam="1">  1        1 0.13236002E-01 0.16633587E+03</pdfrwt>
<pdfrwt beam="2">  1       -1 0.50536479E-01 0.16633587E+03</pdfrwt>
<totfact> 0.17423247E+03</totfact>
</mgrwt>
</event>
<event>
 4    1  0.4941530E-001  0.1112941E+03  0.7546771E-02  0.1258192E+00
          2   -1    0    0  501    0  0.00000000000E+00  0.00000000000E+00  0.12008998951E+03  0.12008998951E+03  0.00000000000E+00 0. -1.
         -2   -1    0    0    0  501 -0.00000000000E+00 -0.00000000000E+00 -0.17027685047E+03  0.17027685047E+03  0.00000000000E+00 0.  1.
         24    1    1    2    0    0  0.52668730840E+02 -0.56081783576E+02  0.66068124649E+02  0.12942710190E+03  0.80419002446E+02 0. -1.
        -24    1    1    2    0    0 -0.52668730840E+02  0.56081783576E+02 -0.11625498561E+03  0.16093973807E+03  0.80419002446E+02 0.  1.
<mgrwt>
<rscale>  0 0.11129410E+03</rscale>
<asrwt>0</asrwt>
<pdfrwt beam="1">  1        2 0.18475383E-01 0.11129410E+03</pdfrwt>
<pdfrwt beam="2">  1       -2 0.26196439E-01 0.11129410E+03</pdfrwt>
<totfact> 0.37713370E+03</totfact>
</mgrwt>
</event>
<event>
 4    1  0.4941530E-001  0.9331803E+02  0.7546771E-02  0.1295010E+00
         -1   -1    0    0    0  501 -0.00000000000E+00  0.00000000000E+00  0.10071499721E+02  0.10071499721E+02  0.00000000000E+00 0.  1.
          1   -1    0    0  501    0  0.00000000000E+00 -0.00000000000E+00 -0.88336110545E+03  0.88336110545E+03  0.00000000000E+00 0. -1.
         24    1    1    2    0    0  0.45212247811E+02 -0.14031813993E+02 -0.37161840155E+03  0.38315596234E+03  0.80419002446E+02 0.  1.
        -24    1    1    2    0    0 -0.45212247811E+02  0.14031813993E+02 -0.50167120418E+03  0.51027664283E+03  0.80419002446E+02 0. -1.
<mgrwt>
<rscale>  0 0.93318032E+02</rscale>
<asrwt>0</asrwt>
<pdfrwt beam="1">  1        1 0.13590174E+00 0.93318032E+02</pdfrwt>
<pdfrwt beam="2">  1       -1 0.15494612E-02 0.93318032E+02</pdfrwt>
<totfact> 0.18108215E+04</totfact>
</mgrwt>
</event>
<event>
 4    1  0.4941530E-001  0.9196537E+02  0.7546771E-02  0.1298161E+00
          2   -1    0    0  501    0  0.00000000000E+00  0.00000000000E+00  0.20787074688E+03  0.20787074688E+03  0.00000000000E+00 0. -1.
         -2   -1    0    0    0  501 -0.00000000000E+00 -0.00000000000E+00 -0.15977441405E+03  0.15977441405E+03  0.00000000000E+00 0.  1.
         24    1    1    2    0    0 -0.14805817374E+02 -0.42085641778E+02  0.18274864671E+03  0.20458420589E+03  0.80419002446E+02 0. -1.
        -24    1    1    2    0    0  0.14805817374E+02  0.42085641778E+02 -0.13465231387E+03  0.16306095504E+03  0.80419002446E+02 0.  1.
<mgrwt>
<rscale>  0 0.91965371E+02</rscale>
<asrwt>0</asrwt>
<pdfrwt beam="1">  1        2 0.31980115E-01 0.91965371E+02</pdfrwt>
<pdfrwt beam="2">  1       -2 0.24580679E-01 0.91965371E+02</pdfrwt>
<totfact> 0.22823370E+03</totfact>
</mgrwt>
</event>
<event>
 4    1  0.4941530E-001  0.8840800E+02  0.7546771E-02  0.1306753E+00
         -2   -1    0    0    0  501 -0.00000000000E+00  0.00000000000E+00  0.13844231601E+02  0.13844231601E+02  0.00000000000E+00 0.  1.
          2   -1    0    0  501    0  0.00000000000E+00 -0.00000000000E+00 -0.63243846444E+03  0.63243846444E+03  0.00000000000E+00 0. -1.
         24    1    1    2    0    0 -0.36722226745E+02  0.48559312908E+00 -0.41515719930E+03  0.42446610444E+03  0.80419002446E+02 0. -1.
        -24    1    1    2    0    0  0.36722226745E+02 -0.48559312908E+00 -0.20343703354E+03  0.22181659160E+03  0.80419002446E+02 0.  1.
<mgrwt>
<rscale>  0 0.88407996E+02</rscale>
<asrwt>0</asrwt>
<pdfrwt beam="1">  1        2 0.97298221E-01 0.88407996E+02</pdfrwt>
<pdfrwt beam="2">  1       -2 0.21298819E-02 0.88407996E+02</pdfrwt>
<totfact> 0.29993980E+04</totfact>
</mgrwt>
</event>
<event>
 4    1  0.4941530E-001  0.9051547E+02  0.7546771E-02  0.1301608E+00
         -2   -1    0    0    0  501 -0.00000000000E+00  0.00000000000E+00  0.42389006518E+03  0.42389006518E+03  0.00000000000E+00 0.  1.
          2   -1    0    0  501    0  0.00000000000E+00 -0.00000000000E+00 -0.29492377885E+02  0.29492377885E+02  0.00000000000E+00 0. -1.
         24    1    1    2    0    0  0.23544631776E+02  0.34226946800E+02  0.64118151543E+02  0.11092423939E+03  0.80419002446E+02 0. -1.
        -24    1    1    2    0    0 -0.23544631776E+02 -0.34226946800E+02  0.33027953575E+03  0.34245820367E+03  0.80419002446E+02 0.  1.
<mgrwt>
<rscale>  0 0.90515466E+02</rscale>
<asrwt>0</asrwt>
<pdfrwt beam="1">  1        2 0.45372892E-02 0.90515466E+02</pdfrwt>
<pdfrwt beam="2">  1       -2 0.65213852E-01 0.90515466E+02</pdfrwt>
<totfact> 0.36599748E+03</totfact>
</mgrwt>
</event>
<event>
 4    1  0.4941530E-001  0.1310738E+03  0.7546771E-02  0.1225871E+00
         -4   -1    0    0    0  501 -0.00000000000E+00  0.00000000000E+00  0.21776138222E+03  0.21776138222E+03  0.00000000000E+00 0.  1.
          4   -1    0    0  501    0  0.00000000000E+00 -0.00000000000E+00 -0.17722016619E+03  0.17722016619E+03  0.00000000000E+00 0. -1.
         24    1    1    2    0    0  0.28263689831E+02 -0.99570525071E+02 -0.12683255320E+03  0.18239199032E+03  0.80419002446E+02 0. -1.
        -24    1    1    2    0    0 -0.28263689831E+02  0.99570525071E+02  0.16737376923E+03  0.21258955809E+03  0.80419002446E+02 0.  1.
<mgrwt>
<rscale>  0 0.13107380E+03</rscale>
<asrwt>0</asrwt>
<pdfrwt beam="1">  1        4 0.27264641E-01 0.13107380E+03</pdfrwt>
<pdfrwt beam="2">  1       -4 0.33501751E-01 0.13107380E+03</pdfrwt>
<totfact> 0.18201462E+02</totfact>
</mgrwt>
</event>
<event>
 4    1  0.4941530E-001  0.8389831E+02  0.7546771E-02  0.1318339E+00
         -1   -1    0    0    0  501 -0.00000000000E+00  0.00000000000E+00  0.42645475070E+02  0.42645475070E+02  0.00000000000E+00 0.  1.
          1   -1    0    0  501    0  0.00000000000E+00 -0.00000000000E+00 -0.16531891714E+03  0.16531891714E+03  0.00000000000E+00 0. -1.
         24    1    1    2    0    0 -0.22124270873E+02 -0.90679418036E+01 -0.57196520011E+02  0.10153998614E+03  0.80419002446E+02 0. -1.
        -24    1    1    2    0    0  0.22124270873E+02  0.90679418036E+01 -0.65476922064E+02  0.10642440607E+03  0.80419002446E+02 0.  1.
<mgrwt>
<rscale>  0 0.83898313E+02</rscale>
<asrwt>0</asrwt>
<pdfrwt beam="1">  1        1 0.25433680E-01 0.83898313E+02</pdfrwt>
<pdfrwt beam="2">  1       -1 0.65608423E-02 0.83898313E+02</pdfrwt>
<totfact> 0.19266007E+04</totfact>
</mgrwt>
</event>
<event>
 4    1  0.4941530E-001  0.9071563E+02  0.7546771E-02  0.1301128E+00
         -2   -1    0    0    0  501 -0.00000000000E+00  0.00000000000E+00  0.22855143007E+02  0.22855143007E+02  0.00000000000E+00 0.  1.
          2   -1    0    0  501    0  0.00000000000E+00 -0.00000000000E+00 -0.36009248323E+03  0.36009248323E+03  0.00000000000E+00 0. -1.
         24    1    1    2    0    0 -0.25628811710E+02  0.33245587231E+02 -0.16692466011E+03  0.18998200748E+03  0.80419002446E+02 0. -1.
        -24    1    1    2    0    0  0.25628811710E+02 -0.33245587231E+02 -0.17031268012E+03  0.19296561876E+03  0.80419002446E+02 0.  0.
<mgrwt>
<rscale>  0 0.90715616E+02</rscale>
<asrwt>0</asrwt>
<pdfrwt beam="1">  1        2 0.55398844E-01 0.90715628E+02</pdfrwt>
<pdfrwt beam="2">  1       -2 0.35161758E-02 0.90715628E+02</pdfrwt>
<totfact> 0.26696037E+04</totfact>
</mgrwt>
</event>
<event>
 4    1  0.4941530E-001  0.1014948E+03  0.7546771E-02  0.1277184E+00
          4   -1    0    0  501    0  0.00000000000E+00  0.00000000000E+00  0.13078897266E+02  0.13078897266E+02  0.00000000000E+00 0. -1.
         -4   -1    0    0    0  501 -0.00000000000E+00 -0.00000000000E+00 -0.83855990488E+03  0.83855990488E+03  0.00000000000E+00 0.  1.
         24    1    1    2    0    0  0.59654537220E+02 -0.16592212319E+02 -0.51769327565E+03  0.52754858442E+03  0.80419002446E+02 0. -1.
        -24    1    1    2    0    0 -0.59654537220E+02  0.16592212319E+02 -0.30778773197E+03  0.32409021772E+03  0.80419002446E+02 0.  0.
<mgrwt>
<rscale>  0 0.10149475E+03</rscale>
<asrwt>0</asrwt>
<pdfrwt beam="1">  1        4 0.20121381E-02 0.10149476E+03</pdfrwt>
<pdfrwt beam="2">  1       -4 0.12900921E+00 0.10149476E+03</pdfrwt>
<totfact> 0.73079881E+02</totfact>
</mgrwt>
</event>
<event>
 4    1  0.4941530E-001  0.8822275E+02  0.7546771E-02  0.1307214E+00
         -1   -1    0    0    0  501 -0.00000000000E+00  0.00000000000E+00  0.15394323590E+03  0.15394323590E+03  0.00000000000E+00 0.  1.
          1   -1    0    0  501    0  0.00000000000E+00 -0.00000000000E+00 -0.50838335577E+02  0.50838335577E+02  0.00000000000E+00 0. -1.
         24    1    1    2    0    0  0.26464936278E+02 -0.24812100362E+02  0.43965603678E+02  0.98570905635E+02  0.80419002446E+02 0. -1.
        -24    1    1    2    0    0 -0.26464936278E+02  0.24812100362E+02  0.59139296647E+02  0.10621066584E+03  0.80419002446E+02 0.  1.
<mgrwt>
<rscale>  0 0.88222736E+02</rscale>
<asrwt>0</asrwt>
<pdfrwt beam="1">  1        1 0.78212824E-02 0.88222747E+02</pdfrwt>
<pdfrwt beam="2">  1       -1 0.23683575E-01 0.88222747E+02</pdfrwt>
<totfact> 0.12252222E+04</totfact>
</mgrwt>
</event>
<event>
 4    1  0.4941530E-001  0.1016110E+03  0.7546771E-02  0.1276944E+00
         -2   -1    0    0    0  501 -0.00000000000E+00  0.00000000000E+00  0.21809685999E+02  0.21809685999E+02  0.00000000000E+00 0.  1.
          2   -1    0    0  501    0  0.00000000000E+00 -0.00000000000E+00 -0.59638313705E+03  0.59638313705E+03  0.00000000000E+00 0. -1.
         24    1    1    2    0    0 -0.78208209315E+01  0.61615082183E+02 -0.14692572897E+03  0.17863921569E+03  0.80419002446E+02 0.  1.
        -24    1    1    2    0    0  0.78208209315E+01 -0.61615082183E+02 -0.42764772208E+03  0.43955360736E+03  0.80419002446E+02 0.  0.
<mgrwt>
<rscale>  0 0.10161103E+03</rscale>
<asrwt>0</asrwt>
<pdfrwt beam="1">  1        2 0.91751260E-01 0.10161105E+03</pdfrwt>
<pdfrwt beam="2">  1       -2 0.33553360E-02 0.10161105E+03</pdfrwt>
<totfact> 0.16802710E+04</totfact>
</mgrwt>
</event>
<event>
 4    1  0.4941530E-001  0.9485872E+02  0.7546771E-02  0.1291495E+00
          2   -1    0    0  501    0  0.00000000000E+00  0.00000000000E+00  0.57396631366E+03  0.57396631366E+03  0.00000000000E+00 0. -1.
         -2   -1    0    0    0  501 -0.00000000000E+00 -0.00000000000E+00 -0.10083568529E+03  0.10083568529E+03  0.00000000000E+00 0.  1.
         24    1    1    2    0    0 -0.47376612254E+02  0.16923885296E+02  0.54663066317E+03  0.55480019750E+03  0.80419002446E+02 0. -1.
        -24    1    1    2    0    0  0.47376612254E+02 -0.16923885296E+02 -0.73500034790E+02  0.12000180145E+03  0.80419002446E+02 0.  1.
<mgrwt>
<rscale>  0 0.94858723E+02</rscale>
<asrwt>0</asrwt>
<pdfrwt beam="1">  1        2 0.88302508E-01 0.94858723E+02</pdfrwt>
<pdfrwt beam="2">  1       -2 0.15513183E-01 0.94858723E+02</pdfrwt>
<totfact> 0.16813244E+03</totfact>
</mgrwt>
</event>
<event>
 4    1  0.4941530E-001  0.8485678E+02  0.7546771E-02  0.1315807E+00
         -2   -1    0    0    0  501 -0.00000000000E+00  0.00000000000E+00  0.30207758175E+02  0.30207758175E+02  0.00000000000E+00 0.  1.
          2   -1    0    0  501    0  0.00000000000E+00 -0.00000000000E+00 -0.24263908611E+03  0.24263908611E+03  0.00000000000E+00 0. -1.
         24    1    1    2    0    0  0.20227186416E+02 -0.18008832297E+02 -0.12430789938E+03  0.15050955755E+03  0.80419002446E+02 0. -1.
        -24    1    1    2    0    0 -0.20227186416E+02  0.18008832297E+02 -0.88123428555E+02  0.12233728673E+03  0.80419002446E+02 0.  1.
<mgrwt>
<rscale>  0 0.84856780E+02</rscale>
<asrwt>0</asrwt>
<pdfrwt beam="1">  1        2 0.37329089E-01 0.84856780E+02</pdfrwt>
<pdfrwt beam="2">  1       -2 0.46473475E-02 0.84856780E+02</pdfrwt>
<totfact> 0.26564896E+04</totfact>
</mgrwt>
</event>
<event>
 4    1  0.4941530E-001  0.8458101E+02  0.7546771E-02  0.1316532E+00
          2   -1    0    0  501    0  0.00000000000E+00  0.00000000000E+00  0.30119836360E+04  0.30119836360E+04  0.00000000000E+00 0. -1.
         -2   -1    0    0    0  501 -0.00000000000E+00 -0.00000000000E+00 -0.24466353915E+01  0.24466353915E+01  0.00000000000E+00 0.  1.
         24    1    1    2    0    0 -0.26169232587E+02  0.13790640560E+01  0.17623800962E+04  0.17644085553E+04  0.80419002446E+02 0. -1.
        -24    1    1    2    0    0  0.26169232587E+02 -0.13790640560E+01  0.12471569045E+04  0.12500217162E+04  0.80419002446E+02 0.  1.
<mgrwt>
<rscale>  0 0.84581006E+02</rscale>
<asrwt>0</asrwt>
<pdfrwt beam="1">  1        2 0.46337913E+00 0.84581006E+02</pdfrwt>
<pdfrwt beam="2">  1       -2 0.37640786E-03 0.84581006E+02</pdfrwt>
<totfact> 0.17407758E+04</totfact>
</mgrwt>
</event>
<event>
 4    1  0.4941530E-001  0.8953535E+02  0.7546771E-02  0.1303981E+00
         -2   -1    0    0    0  501 -0.00000000000E+00  0.00000000000E+00  0.43260656547E+02  0.43260656547E+02  0.00000000000E+00 0.  1.
          2   -1    0    0  501    0  0.00000000000E+00 -0.00000000000E+00 -0.38736977073E+03  0.38736977073E+03  0.00000000000E+00 0. -1.
         24    1    1    2    0    0  0.39357144228E+02  0.61436465609E+00 -0.32756269634E+03  0.33957900146E+03  0.80419002446E+02 0. -1.
        -24    1    1    2    0    0 -0.39357144228E+02 -0.61436465609E+00 -0.16546417847E+02  0.91051425819E+02  0.80419002446E+02 0.  1.
<mgrwt>
<rscale>  0 0.89535346E+02</rscale>
<asrwt>0</asrwt>
<pdfrwt beam="1">  1        2 0.59595350E-01 0.89535346E+02</pdfrwt>
<pdfrwt beam="2">  1       -2 0.66554856E-02 0.89535346E+02</pdfrwt>
<totfact> 0.95819114E+03</totfact>
</mgrwt>
</event>
<event>
 4    1  0.4941530E-001  0.8497720E+02  0.7546771E-02  0.1315492E+00
          2   -1    0    0  501    0  0.00000000000E+00  0.00000000000E+00  0.35311203926E+02  0.35311203926E+02  0.00000000000E+00 0. -1.
         -2   -1    0    0    0  501 -0.00000000000E+00 -0.00000000000E+00 -0.20854536108E+03  0.20854536108E+03  0.00000000000E+00 0.  1.
         24    1    1    2    0    0 -0.21931961257E+02 -0.16519590362E+02 -0.69634275541E+02  0.10986380694E+03  0.80419002446E+02 0. -1.
        -24    1    1    2    0    0  0.21931961257E+02  0.16519590362E+02 -0.10359988161E+03  0.13399275807E+03  0.80419002446E+02 0.  1.
<mgrwt>
<rscale>  0 0.84977195E+02</rscale>
<asrwt>0</asrwt>
<pdfrwt beam="1">  1        2 0.54324930E-02 0.84977195E+02</pdfrwt>
<pdfrwt beam="2">  1       -2 0.32083901E-01 0.84977195E+02</pdfrwt>
<totfact> 0.11331316E+04</totfact>
</mgrwt>
</event>
<event>
 4    1  0.4941530E-001  0.8660514E+02  0.7546771E-02  0.1311288E+00
         -3   -1    0    0    0  501 -0.00000000000E+00  0.00000000000E+00  0.91881123967E+03  0.91881123967E+03  0.00000000000E+00 0.  1.
          3   -1    0    0  501    0  0.00000000000E+00 -0.00000000000E+00 -0.13743068699E+02  0.13743068699E+02  0.00000000000E+00 0. -1.
         24    1    1    2    0    0  0.23861587508E+02 -0.21537365481E+02  0.74964175674E+03  0.75462786384E+03  0.80419002446E+02 0.  1.
        -24    1    1    2    0    0 -0.23861587508E+02  0.21537365481E+02  0.15542641423E+03  0.17792644454E+03  0.80419002446E+02 0. -1.
<mgrwt>
<rscale>  0 0.86605135E+02</rscale>
<asrwt>0</asrwt>
<pdfrwt beam="1">  1        3 0.21143190E-02 0.86605135E+02</pdfrwt>
<pdfrwt beam="2">  1       -3 0.14135553E+00 0.86605135E+02</pdfrwt>
<totfact> 0.74792800E+02</totfact>
</mgrwt>
</event>
<event>
 4    1  0.4941530E-001  0.8574064E+02  0.7546771E-02  0.1313507E+00
         -3   -1    0    0    0  501 -0.00000000000E+00  0.00000000000E+00  0.10219734240E+03  0.10219734240E+03  0.00000000000E+00 0.  1.
          3   -1    0    0  501    0  0.00000000000E+00 -0.00000000000E+00 -0.22940103892E+03  0.22940103892E+03  0.00000000000E+00 0. -1.
         24    1    1    2    0    0 -0.97919426361E+01 -0.28077728344E+02  0.73764273467E+02  0.11310448693E+03  0.80419002446E+02 0.  1.
        -24    1    1    2    0    0  0.97919426361E+01  0.28077728344E+02 -0.20096796999E+03  0.21849389439E+03  0.80419002446E+02 0. -1.
<mgrwt>
<rscale>  0 0.85740638E+02</rscale>
<asrwt>0</asrwt>
<pdfrwt beam="1">  1        3 0.35292467E-01 0.85740638E+02</pdfrwt>
<pdfrwt beam="2">  1       -3 0.15722668E-01 0.85740638E+02</pdfrwt>
<totfact> 0.58143147E+02</totfact>
</mgrwt>
</event>
<event>
 4    1  0.4941530E-001  0.1525103E+03  0.7546771E-02  0.1197422E+00
         -1   -1    0    0    0  501 -0.00000000000E+00  0.00000000000E+00  0.37307611603E+03  0.37307611603E+03  0.00000000000E+00 0.  1.
          1   -1    0    0  501    0  0.00000000000E+00 -0.00000000000E+00 -0.68933594586E+02  0.68933594586E+02  0.00000000000E+00 0. -1.
         24    1    1    2    0    0  0.91318097892E+02  0.91941238960E+02  0.22039713930E+03  0.26801921833E+03  0.80419002446E+02 0.  1.
        -24    1    1    2    0    0 -0.91318097892E+02 -0.91941238960E+02  0.83745382144E+02  0.17399049229E+03  0.80419002446E+02 0. -1.
<mgrwt>
<rscale>  0 0.15251034E+03</rscale>
<asrwt>0</asrwt>
<pdfrwt beam="1">  1        1 0.10605169E-01 0.15251034E+03</pdfrwt>
<pdfrwt beam="2">  1       -1 0.57396324E-01 0.15251034E+03</pdfrwt>
<totfact> 0.18359129E+03</totfact>
</mgrwt>
</event>
<event>
 4    1  0.4941530E-001  0.8933929E+02  0.7546771E-02  0.1304460E+00
         -3   -1    0    0    0  501 -0.00000000000E+00  0.00000000000E+00  0.15451911658E+03  0.15451911658E+03  0.00000000000E+00 0.  1.
          3   -1    0    0  501    0  0.00000000000E+00 -0.00000000000E+00 -0.12107974698E+03  0.12107974698E+03  0.00000000000E+00 0. -1.
         24    1    1    2    0    0 -0.11966829485E+02 -0.37028212399E+02  0.12106486166E+03  0.15045999536E+03  0.80419002446E+02 0.  1.
        -24    1    1    2    0    0  0.11966829485E+02  0.37028212399E+02 -0.87625492062E+02  0.12513886820E+03  0.80419002446E+02 0. -1.
<mgrwt>
<rscale>  0 0.89339294E+02</rscale>
<asrwt>0</asrwt>
<pdfrwt beam="1">  1        3 0.18627653E-01 0.89339294E+02</pdfrwt>
<pdfrwt beam="2">  1       -3 0.23772172E-01 0.89339294E+02</pdfrwt>
<totfact> 0.90008360E+02</totfact>
</mgrwt>
</event>
<event>
 4    1  0.4941530E-001  0.9172257E+02  0.7546771E-02  0.1298733E+00
          1   -1    0    0  501    0  0.00000000000E+00  0.00000000000E+00  0.22015575435E+02  0.22015575435E+02  0.00000000000E+00 0. -1.
         -1   -1    0    0    0  501 -0.00000000000E+00 -0.00000000000E+00 -0.42370588223E+03  0.42370588223E+03  0.00000000000E+00 0.  1.
         24    1    1    2    0    0  0.74307394705E+00  0.44105112705E+02 -0.27064757561E+03  0.28576763159E+03  0.80419002446E+02 0. -1.
        -24    1    1    2    0    0 -0.74307394705E+00 -0.44105112705E+02 -0.13104273118E+03  0.15995382607E+03  0.80419002446E+02 0.  0.
<mgrwt>
<rscale>  0 0.91722566E+02</rscale>
<asrwt>0</asrwt>
<pdfrwt beam="1">  1        1 0.33870116E-02 0.91722566E+02</pdfrwt>
<pdfrwt beam="2">  1       -1 0.65185520E-01 0.91722566E+02</pdfrwt>
<totfact> 0.65190707E+03</totfact>
</mgrwt>
</event>
<event>
 4    1  0.4941530E-001  0.8071447E+02  0.7546771E-02  0.1327036E+00
         -2   -1    0    0    0  501 -0.00000000000E+00  0.00000000000E+00  0.94371189379E+02  0.94371189379E+02  0.00000000000E+00 0.  1.
          2   -1    0    0  501    0  0.00000000000E+00 -0.00000000000E+00 -0.13511229703E+03  0.13511229703E+03  0.00000000000E+00 0. -1.
         24    1    1    2    0    0 -0.68978607683E+01 -0.17025487161E+00 -0.10061283395E+03  0.12898747140E+03  0.80419002446E+02 0. -1.
        -24    1    1    2    0    0  0.68978607683E+01  0.17025487161E+00  0.59871726290E+02  0.10049601501E+03  0.80419002446E+02 0.  0.
<mgrwt>
<rscale>  0 0.80714468E+02</rscale>
<asrwt>0</asrwt>
<pdfrwt beam="1">  1        2 0.20786507E-01 0.80714468E+02</pdfrwt>
<pdfrwt beam="2">  1       -2 0.14518645E-01 0.80714468E+02</pdfrwt>
<totfact> 0.86578074E+03</totfact>
</mgrwt>
</event>
<event>
 4    1  0.4941530E-001  0.9769554E+02  0.7546771E-02  0.1285218E+00
          1   -1    0    0  501    0  0.00000000000E+00  0.00000000000E+00  0.16530441728E+03  0.16530441728E+03  0.00000000000E+00 0. -1.
         -1   -1    0    0    0  501 -0.00000000000E+00 -0.00000000000E+00 -0.76614616691E+02  0.76614616691E+02  0.00000000000E+00 0.  1.
         24    1    1    2    0    0 -0.52098880875E+02 -0.19050160991E+02 -0.15695188798E+02  0.98948253790E+02  0.80419002446E+02 0.  1.
        -24    1    1    2    0    0  0.52098880875E+02  0.19050160991E+02  0.10438498939E+03  0.14297078018E+03  0.80419002446E+02 0. -1.
<mgrwt>
<rscale>  0 0.97695537E+02</rscale>
<asrwt>0</asrwt>
<pdfrwt beam="1">  1        1 0.25431449E-01 0.97695537E+02</pdfrwt>
<pdfrwt beam="2">  1       -1 0.11786864E-01 0.97695537E+02</pdfrwt>
<totfact> 0.81216678E+03</totfact>
</mgrwt>
</event>
<event>
 4    1  0.4941530E-001  0.1016715E+03  0.7546771E-02  0.1276820E+00
         -2   -1    0    0    0  501 -0.00000000000E+00  0.00000000000E+00  0.81950012819E+02  0.81950012819E+02  0.00000000000E+00 0.  1.
          2   -1    0    0  501    0  0.00000000000E+00 -0.00000000000E+00 -0.10574499988E+04  0.10574499988E+04  0.00000000000E+00 0. -1.
         24    1    1    2    0    0 -0.21001073268E+02  0.58556165055E+02 -0.10223927525E+04  0.10274356554E+04  0.80419002446E+02 0. -1.
        -24    1    1    2    0    0  0.21001073268E+02 -0.58556165055E+02  0.46892766602E+02  0.11196435620E+03  0.80419002446E+02 0.  1.
<mgrwt>
<rscale>  0 0.10167146E+03</rscale>
<asrwt>0</asrwt>
<pdfrwt beam="1">  1        2 0.16268462E+00 0.10167146E+03</pdfrwt>
<pdfrwt beam="2">  1       -2 0.12607694E-01 0.10167146E+03</pdfrwt>
<totfact> 0.11101982E+03</totfact>
</mgrwt>
</event>
<event>
 4    1  0.4941530E-001  0.2368904E+03  0.7546771E-02  0.1121882E+00
          2   -1    0    0  501    0  0.00000000000E+00  0.00000000000E+00  0.23800815388E+03  0.23800815388E+03  0.00000000000E+00 0. -1.
         -2   -1    0    0    0  501 -0.00000000000E+00 -0.00000000000E+00 -0.50634670910E+03  0.50634670910E+03  0.00000000000E+00 0.  1.
         24    1    1    2    0    0 -0.10459010506E+03  0.19675046083E+03  0.13789088095E+03  0.27410024611E+03  0.80419002446E+02 0. -1.
        -24    1    1    2    0    0  0.10459010506E+03 -0.19675046083E+03 -0.40622943618E+03  0.47025461687E+03  0.80419002446E+02 0.  1.
<mgrwt>
<rscale>  0 0.23689038E+03</rscale>
<asrwt>0</asrwt>
<pdfrwt beam="1">  1        2 0.36616639E-01 0.23689038E+03</pdfrwt>
<pdfrwt beam="2">  1       -2 0.77899493E-01 0.23689038E+03</pdfrwt>
<totfact> 0.21434281E+02</totfact>
</mgrwt>
</event>
<event>
 4    1  0.4941530E-001  0.1539753E+03  0.7546771E-02  0.1195672E+00
         -1   -1    0    0    0  501 -0.00000000000E+00  0.00000000000E+00  0.24499653128E+03  0.24499653128E+03  0.00000000000E+00 0.  1.
          1   -1    0    0  501    0  0.00000000000E+00 -0.00000000000E+00 -0.28451602309E+03  0.28451602309E+03  0.00000000000E+00 0. -1.
         24    1    1    2    0    0  0.85966643268E+02  0.99251798740E+02  0.19530928251E+03  0.24870487550E+03  0.80419002446E+02 0.  1.
        -24    1    1    2    0    0 -0.85966643268E+02 -0.99251798740E+02 -0.23482877432E+03  0.28080767887E+03  0.80419002446E+02 0. -1.
<mgrwt>
<rscale>  0 0.15397532E+03</rscale>
<asrwt>0</asrwt>
<pdfrwt beam="1">  1        1 0.43771695E-01 0.15397532E+03</pdfrwt>
<pdfrwt beam="2">  1       -1 0.37691774E-01 0.15397532E+03</pdfrwt>
<totfact> 0.64517351E+02</totfact>
</mgrwt>
</event>
<event>
 4    1  0.4941530E-001  0.1050131E+03  0.7546771E-02  0.1270094E+00
         -2   -1    0    0    0  501 -0.00000000000E+00  0.00000000000E+00  0.88397315922E+01  0.88397315922E+01  0.00000000000E+00 0.  1.
          2   -1    0    0  501    0  0.00000000000E+00 -0.00000000000E+00 -0.18673204317E+04  0.18673204317E+04  0.00000000000E+00 0. -1.
         24    1    1    2    0    0  0.10379018622E+02  0.66729456733E+02 -0.14696905690E+04  0.14734375212E+04  0.80419002446E+02 0. -1.
        -24    1    1    2    0    0 -0.10379018622E+02 -0.66729456733E+02 -0.38879013109E+03  0.40272264204E+03  0.80419002446E+02 0.  1.
<mgrwt>
<rscale>  0 0.10501314E+03</rscale>
<asrwt>0</asrwt>
<pdfrwt beam="1">  1        2 0.28728052E+00 0.10501314E+03</pdfrwt>
<pdfrwt beam="2">  1       -2 0.13599566E-02 0.10501314E+03</pdfrwt>
<totfact> 0.11503413E+04</totfact>
</mgrwt>
</event>
<event>
 4    1  0.4941530E-001  0.1002540E+03  0.7546771E-02  0.1279763E+00
          1   -1    0    0  501    0  0.00000000000E+00  0.00000000000E+00  0.23021727074E+04  0.23021727074E+04  0.00000000000E+00 0. -1.
         -1   -1    0    0    0  501 -0.00000000000E+00 -0.00000000000E+00 -0.45794550118E+01  0.45794550118E+01  0.00000000000E+00 0.  1.
         24    1    1    2    0    0  0.23001240751E+02  0.55268310177E+02  0.89967824124E+03  0.90524681546E+03  0.80419002446E+02 0.  0.
        -24    1    1    2    0    0 -0.23001240751E+02 -0.55268310177E+02  0.13979150112E+04  0.14015053470E+04  0.80419002446E+02 0.  1.
<mgrwt>
<rscale>  0 0.10025397E+03</rscale>
<asrwt>0</asrwt>
<pdfrwt beam="1">  1        1 0.35417949E+00 0.10025397E+03</pdfrwt>
<pdfrwt beam="2">  1       -1 0.70453338E-03 0.10025397E+03</pdfrwt>
<totfact> 0.65381731E+03</totfact>
</mgrwt>
</event>
<event>
 4    1  0.4941530E-001  0.1106447E+03  0.7546771E-02  0.1259381E+00
         -2   -1    0    0    0  501 -0.00000000000E+00  0.00000000000E+00  0.92650142265E+01  0.92650142265E+01  0.00000000000E+00 0.  1.
          2   -1    0    0  501    0  0.00000000000E+00 -0.00000000000E+00 -0.13226823186E+04  0.13226823186E+04  0.00000000000E+00 0. -1.
         24    1    1    2    0    0 -0.42529033200E+02  0.62978648669E+02 -0.67791503153E+03  0.68688502297E+03  0.80419002446E+02 0.  1.
        -24    1    1    2    0    0  0.42529033200E+02 -0.62978648669E+02 -0.63550227288E+03  0.64506230989E+03  0.80419002446E+02 0. -1.
<mgrwt>
<rscale>  0 0.11064468E+03</rscale>
<asrwt>0</asrwt>
<pdfrwt beam="1">  1        2 0.20348964E+00 0.11064468E+03</pdfrwt>
<pdfrwt beam="2">  1       -2 0.14253864E-02 0.11064468E+03</pdfrwt>
<totfact> 0.20522016E+04</totfact>
</mgrwt>
</event>
<event>
 4    1  0.4941530E-001  0.2628840E+03  0.7546771E-02  0.1105423E+00
          1   -1    0    0  501    0  0.00000000000E+00  0.00000000000E+00  0.34208588035E+03  0.34208588035E+03  0.00000000000E+00 0. -1.
         -1   -1    0    0    0  501 -0.00000000000E+00 -0.00000000000E+00 -0.21064366996E+03  0.21064366996E+03  0.00000000000E+00 0.  1.
         24    1    1    2    0    0  0.18419815555E+03 -0.16944557299E+03  0.12164147916E+03  0.28966295608E+03  0.80419002446E+02 0. -1.
        -24    1    1    2    0    0 -0.18419815555E+03  0.16944557299E+03  0.98007312277E+01  0.26306659423E+03  0.80419002446E+02 0.  1.
<mgrwt>
<rscale>  0 0.26288400E+03</rscale>
<asrwt>0</asrwt>
<pdfrwt beam="1">  1        1 0.52628597E-01 0.26288403E+03</pdfrwt>
<pdfrwt beam="2">  1       -1 0.32406718E-01 0.26288403E+03</pdfrwt>
<totfact> 0.66527453E+02</totfact>
</mgrwt>
</event>
<event>
 4    1  0.4941530E-001  0.8451696E+02  0.7546771E-02  0.1316701E+00
         -2   -1    0    0    0  501 -0.00000000000E+00  0.00000000000E+00  0.32124104122E+02  0.32124104122E+02  0.00000000000E+00 0.  1.
          2   -1    0    0  501    0  0.00000000000E+00 -0.00000000000E+00 -0.27881287223E+03  0.27881287223E+03  0.00000000000E+00 0. -1.
         24    1    1    2    0    0 -0.17629069411E+02  0.19108024327E+02 -0.19330101494E+03  0.21097013773E+03  0.80419002446E+02 0.  0.
        -24    1    1    2    0    0  0.17629069411E+02 -0.19108024327E+02 -0.53387753174E+02  0.99966838628E+02  0.80419002446E+02 0. -1.
<mgrwt>
<rscale>  0 0.84516961E+02</rscale>
<asrwt>0</asrwt>
<pdfrwt beam="1">  1        2 0.42894287E-01 0.84516961E+02</pdfrwt>
<pdfrwt beam="2">  1       -2 0.49421700E-02 0.84516961E+02</pdfrwt>
<totfact> 0.20962439E+04</totfact>
</mgrwt>
</event>
<event>
 4    1  0.4941530E-001  0.1070296E+03  0.7546771E-02  0.1266172E+00
          2   -1    0    0  501    0  0.00000000000E+00  0.00000000000E+00  0.49565969771E+03  0.49565969771E+03  0.00000000000E+00 0. -1.
         -2   -1    0    0    0  501 -0.00000000000E+00 -0.00000000000E+00 -0.44984657251E+02  0.44984657251E+02  0.00000000000E+00 0.  1.
         24    1    1    2    0    0  0.51175525392E+02  0.48674201998E+02  0.41383581518E+03  0.42745223151E+03  0.80419002446E+02 0. -1.
        -24    1    1    2    0    0 -0.51175525392E+02 -0.48674201998E+02  0.36839225283E+02  0.11319212346E+03  0.80419002446E+02 0.  1.
<mgrwt>
<rscale>  0 0.10702957E+03</rscale>
<asrwt>0</asrwt>
<pdfrwt beam="1">  1        2 0.76255334E-01 0.10702957E+03</pdfrwt>
<pdfrwt beam="2">  1       -2 0.69207169E-02 0.10702957E+03</pdfrwt>
<totfact> 0.70367091E+03</totfact>
</mgrwt>
</event>
<event>
 4    1  0.4941530E-001  0.8358742E+02  0.7546771E-02  0.1319168E+00
          1   -1    0    0  501    0  0.00000000000E+00  0.00000000000E+00  0.30549887915E+03  0.30549887915E+03  0.00000000000E+00 0. -1.
         -1   -1    0    0    0  501 -0.00000000000E+00 -0.00000000000E+00 -0.30960794539E+02  0.30960794539E+02  0.00000000000E+00 0.  1.
         24    1    1    2    0    0  0.71483539430E+01  0.21645828710E+02  0.51271903973E+02  0.98059497021E+02  0.80419002446E+02 0.  1.
        -24    1    1    2    0    0 -0.71483539430E+01 -0.21645828710E+02  0.22326618064E+03  0.23840017667E+03  0.80419002446E+02 0.  1.
<mgrwt>
<rscale>  0 0.83587420E+02</rscale>
<asrwt>0</asrwt>
<pdfrwt beam="1">  1        1 0.46999825E-01 0.83587420E+02</pdfrwt>
<pdfrwt beam="2">  1       -1 0.47631994E-02 0.83587420E+02</pdfrwt>
<totfact> 0.14546540E+04</totfact>
</mgrwt>
</event>
<event>
 4    1  0.4941530E-001  0.1038714E+03  0.7546771E-02  0.1272359E+00
         -1   -1    0    0    0  501 -0.00000000000E+00  0.00000000000E+00  0.31163190870E+03  0.31163190870E+03  0.00000000000E+00 0.  1.
          1   -1    0    0  501    0  0.00000000000E+00 -0.00000000000E+00 -0.64797737485E+02  0.64797737485E+02  0.00000000000E+00 0. -1.
         24    1    1    2    0    0 -0.32078966154E+02  0.57384550500E+02  0.25185823166E+03  0.27243683950E+03  0.80419002446E+02 0.  1.
        -24    1    1    2    0    0  0.32078966154E+02 -0.57384550500E+02 -0.50240604441E+01  0.10399280669E+03  0.80419002446E+02 0. -1.
<mgrwt>
<rscale>  0 0.10387138E+03</rscale>
<asrwt>0</asrwt>
<pdfrwt beam="1">  1        1 0.99688829E-02 0.10387138E+03</pdfrwt>
<pdfrwt beam="2">  1       -1 0.47943370E-01 0.10387138E+03</pdfrwt>
<totfact> 0.27245376E+03</totfact>
</mgrwt>
</event>
<event>
 4    1  0.4941530E-001  0.1134271E+03  0.7546771E-02  0.1254352E+00
          3   -1    0    0  501    0  0.00000000000E+00  0.00000000000E+00  0.15612323277E+04  0.15612323277E+04  0.00000000000E+00 0. -1.
         -3   -1    0    0    0  501 -0.00000000000E+00 -0.00000000000E+00 -0.84351784000E+01  0.84351784000E+01  0.00000000000E+00 0.  1.
         24    1    1    2    0    0  0.79485574035E+02 -0.89734776929E+01  0.65723828821E+03  0.66695416876E+03  0.80419002446E+02 0. -1.
        -24    1    1    2    0    0 -0.79485574035E+02  0.89734776929E+01  0.89555886104E+03  0.90271333729E+03  0.80419002446E+02 0.  1.
<mgrwt>
<rscale>  0 0.11342705E+03</rscale>
<asrwt>0</asrwt>
<pdfrwt beam="1">  1        3 0.24018936E+00 0.11342705E+03</pdfrwt>
<pdfrwt beam="2">  1       -3 0.12977210E-02 0.11342705E+03</pdfrwt>
<totfact> 0.39941836E+02</totfact>
</mgrwt>
</event>
<event>
 4    1  0.4941530E-001  0.9590540E+02  0.7546771E-02  0.1289150E+00
          2   -1    0    0  501    0  0.00000000000E+00  0.00000000000E+00  0.43293820132E+03  0.43293820132E+03  0.00000000000E+00 0. -1.
         -2   -1    0    0    0  501 -0.00000000000E+00 -0.00000000000E+00 -0.54475476940E+02  0.54475476940E+02  0.00000000000E+00 0.  1.
         24    1    1    2    0    0  0.51134566930E+02  0.10765037934E+02  0.37957324855E+03  0.39150184794E+03  0.80419002446E+02 0. -1.
        -24    1    1    2    0    0 -0.51134566930E+02 -0.10765037934E+02 -0.11105241635E+01  0.95911830319E+02  0.80419002446E+02 0.  1.
<mgrwt>
<rscale>  0 0.95905401E+02</rscale>
<asrwt>0</asrwt>
<pdfrwt beam="1">  1        2 0.66605875E-01 0.95905401E+02</pdfrwt>
<pdfrwt beam="2">  1       -2 0.83808429E-02 0.95905401E+02</pdfrwt>
<totfact> 0.60297176E+03</totfact>
</mgrwt>
</event>
<event>
 4    1  0.4941530E-001  0.9152387E+02  0.7546771E-02  0.1299203E+00
         -2   -1    0    0    0  501 -0.00000000000E+00  0.00000000000E+00  0.10714661781E+03  0.10714661781E+03  0.00000000000E+00 0.  1.
          2   -1    0    0  501    0  0.00000000000E+00 -0.00000000000E+00 -0.11345972429E+03  0.11345972429E+03  0.00000000000E+00 0. -1.
         24    1    1    2    0    0  0.11833914172E+01  0.43680680919E+02 -0.64665135958E+02  0.11206336629E+03  0.80419002446E+02 0. -1.
        -24    1    1    2    0    0 -0.11833914172E+01 -0.43680680919E+02  0.58352029475E+02  0.10854297582E+03  0.80419002446E+02 0.  1.
<mgrwt>
<rscale>  0 0.91523867E+02</rscale>
<asrwt>0</asrwt>
<pdfrwt beam="1">  1        2 0.17455342E-01 0.91523867E+02</pdfrwt>
<pdfrwt beam="2">  1       -2 0.16484095E-01 0.91523867E+02</pdfrwt>
<totfact> 0.86714007E+03</totfact>
</mgrwt>
</event>
<event>
 4    1  0.4941530E-001  0.8444795E+02  0.7546771E-02  0.1316883E+00
         -2   -1    0    0    0  501 -0.00000000000E+00  0.00000000000E+00  0.30894092814E+01  0.30894092814E+01  0.00000000000E+00 0.  1.
          2   -1    0    0  501    0  0.00000000000E+00 -0.00000000000E+00 -0.23656358203E+04  0.23656358203E+04  0.00000000000E+00 0. -1.
         24    1    1    2    0    0  0.23211802018E+02 -0.11200524655E+02 -0.13655678801E+04  0.13681765568E+04  0.80419002446E+02 0.  1.
        -24    1    1    2    0    0 -0.23211802018E+02  0.11200524655E+02 -0.99697853087E+03  0.10005486727E+04  0.80419002446E+02 0.  0.
<mgrwt>
<rscale>  0 0.84447945E+02</rscale>
<asrwt>0</asrwt>
<pdfrwt beam="1">  1        2 0.36394353E+00 0.84447945E+02</pdfrwt>
<pdfrwt beam="2">  1       -2 0.47529431E-03 0.84447945E+02</pdfrwt>
<totfact> 0.28034452E+04</totfact>
</mgrwt>
</event>
<event>
 4    1  0.4941530E-001  0.9685878E+02  0.7546771E-02  0.1287044E+00
          1   -1    0    0  501    0  0.00000000000E+00  0.00000000000E+00  0.10567719435E+04  0.10567719435E+04  0.00000000000E+00 0. -1.
         -1   -1    0    0    0  501 -0.00000000000E+00 -0.00000000000E+00 -0.11278123343E+02  0.11278123343E+02  0.00000000000E+00 0.  1.
         24    1    1    2    0    0 -0.51742421718E+01 -0.53736706100E+02  0.27637333089E+03  0.29285464030E+03  0.80419002446E+02 0.  0.
        -24    1    1    2    0    0  0.51742421718E+01  0.53736706100E+02  0.76912048923E+03  0.77519542650E+03  0.80419002446E+02 0.  1.
<mgrwt>
<rscale>  0 0.96858775E+02</rscale>
<asrwt>0</asrwt>
<pdfrwt beam="1">  1        1 0.16258022E+00 0.96858775E+02</pdfrwt>
<pdfrwt beam="2">  1       -1 0.17350967E-02 0.96858775E+02</pdfrwt>
<totfact> 0.11539953E+04</totfact>
</mgrwt>
</event>
<event>
 4    1  0.4941530E-001  0.9018474E+02  0.7546771E-02  0.1302405E+00
         -1   -1    0    0    0  501 -0.00000000000E+00  0.00000000000E+00  0.18491314533E+03  0.18491314533E+03  0.00000000000E+00 0.  1.
          1   -1    0    0  501    0  0.00000000000E+00 -0.00000000000E+00 -0.14183819432E+03  0.14183819432E+03  0.00000000000E+00 0. -1.
         24    1    1    2    0    0  0.38388214600E+01  0.40636616648E+02  0.15723742905E+03  0.18126471309E+03  0.80419002446E+02 0.  1.
        -24    1    1    2    0    0 -0.38388214600E+01 -0.40636616648E+02 -0.11416247804E+03  0.14548662657E+03  0.80419002446E+02 0.  0.
<mgrwt>
<rscale>  0 0.90184739E+02</rscale>
<asrwt>0</asrwt>
<pdfrwt beam="1">  1        1 0.21821260E-01 0.90184739E+02</pdfrwt>
<pdfrwt beam="2">  1       -1 0.28448176E-01 0.90184739E+02</pdfrwt>
<totfact> 0.24271606E+03</totfact>
</mgrwt>
</event>
<event>
 4    1  0.4941530E-001  0.8262318E+02  0.7546771E-02  0.1321768E+00
          2   -1    0    0  501    0  0.00000000000E+00  0.00000000000E+00  0.21639662794E+03  0.21639662794E+03  0.00000000000E+00 0. -1.
         -2   -1    0    0    0  501 -0.00000000000E+00 -0.00000000000E+00 -0.90755857266E+02  0.90755857266E+02  0.00000000000E+00 0.  1.
         24    1    1    2    0    0  0.10281111368E+02 -0.15927098345E+02  0.18686597068E+03  0.20431710811E+03  0.80419002446E+02 0. -1.
        -24    1    1    2    0    0 -0.10281111368E+02  0.15927098345E+02 -0.61225200006E+02  0.10283537710E+03  0.80419002446E+02 0.  1.
<mgrwt>
<rscale>  0 0.82623179E+02</rscale>
<asrwt>0</asrwt>
<pdfrwt beam="1">  1        2 0.33291789E-01 0.82623179E+02</pdfrwt>
<pdfrwt beam="2">  1       -2 0.13962440E-01 0.82623179E+02</pdfrwt>
<totfact> 0.55526845E+03</totfact>
</mgrwt>
</event>
<event>
 4    1  0.4941530E-001  0.1046901E+03  0.7546771E-02  0.1270731E+00
         -1   -1    0    0    0  501 -0.00000000000E+00  0.00000000000E+00  0.70518692903E+02  0.70518692903E+02  0.00000000000E+00 0.  1.
          1   -1    0    0  501    0  0.00000000000E+00 -0.00000000000E+00 -0.19343119679E+03  0.19343119679E+03  0.00000000000E+00 0. -1.
         24    1    1    2    0    0  0.17561287061E+02  0.64686893783E+02 -0.29523935539E+01  0.10473168390E+03  0.80419002446E+02 0.  1.
        -24    1    1    2    0    0 -0.17561287061E+02 -0.64686893783E+02 -0.11996011033E+03  0.15921820579E+03  0.80419002446E+02 0. -1.
<mgrwt>
<rscale>  0 0.10469006E+03</rscale>
<asrwt>0</asrwt>
<pdfrwt beam="1">  1        1 0.29758645E-01 0.10469006E+03</pdfrwt>
<pdfrwt beam="2">  1       -1 0.10849030E-01 0.10469006E+03</pdfrwt>
<totfact> 0.76304950E+03</totfact>
</mgrwt>
</event>
<event>
 4    1  0.4941530E-001  0.9793286E+02  0.7546771E-02  0.1284704E+00
          1   -1    0    0  501    0  0.00000000000E+00  0.00000000000E+00  0.51263481522E+03  0.51263481522E+03  0.00000000000E+00 0. -1.
         -1   -1    0    0    0  501 -0.00000000000E+00 -0.00000000000E+00 -0.52250401994E+02  0.52250401994E+02  0.00000000000E+00 0.  1.
         24    1    1    2    0    0 -0.30187514083E+02 -0.47035544117E+02  0.38963971546E+01  0.98010337628E+02  0.80419002446E+02 0.  1.
        -24    1    1    2    0    0  0.30187514083E+02  0.47035544117E+02  0.45648801607E+03  0.46687487958E+03  0.80419002446E+02 0. -1.
<mgrwt>
<rscale>  0 0.97932856E+02</rscale>
<asrwt>0</asrwt>
<pdfrwt beam="1">  1        1 0.78866891E-01 0.97932856E+02</pdfrwt>
<pdfrwt beam="2">  1       -1 0.80385237E-02 0.97932856E+02</pdfrwt>
<totfact> 0.35674511E+03</totfact>
</mgrwt>
</event>
<event>
 4    1  0.4941530E-001  0.8051314E+02  0.7546771E-02  0.1327602E+00
          1   -1    0    0  501    0  0.00000000000E+00  0.00000000000E+00  0.18834376522E+04  0.18834376522E+04  0.00000000000E+00 0. -1.
         -1   -1    0    0    0  501 -0.00000000000E+00 -0.00000000000E+00 -0.94945718172E+01  0.94945718172E+01  0.00000000000E+00 0.  1.
         24    1    1    2    0    0 -0.23490320772E+00  0.38851013260E+01  0.18127838090E+03  0.19835376611E+03  0.80419002446E+02 0.  1.
        -24    1    1    2    0    0  0.23490320772E+00 -0.38851013260E+01  0.16926646995E+04  0.16945784579E+04  0.80419002446E+02 0.  0.
<mgrwt>
<rscale>  0 0.80513136E+02</rscale>
<asrwt>0</asrwt>
<pdfrwt beam="1">  1        1 0.28975934E+00 0.80513136E+02</pdfrwt>
<pdfrwt beam="2">  1       -1 0.14607049E-02 0.80513136E+02</pdfrwt>
<totfact> 0.42561307E+03</totfact>
</mgrwt>
</event>
<event>
 4    1  0.4941530E-001  0.8115304E+02  0.7546771E-02  0.1325811E+00
          3   -1    0    0  501    0  0.00000000000E+00  0.00000000000E+00  0.45488639611E+03  0.45488639611E+03  0.00000000000E+00 0. -1.
         -3   -1    0    0    0  501 -0.00000000000E+00 -0.00000000000E+00 -0.34697989439E+02  0.34697989439E+02  0.00000000000E+00 0.  1.
         24    1    1    2    0    0  0.81673646587E+01  0.72037354410E+01  0.23225501190E+02  0.84411133802E+02  0.80419002446E+02 0.  1.
        -24    1    1    2    0    0 -0.81673646587E+01 -0.72037354410E+01  0.39696290548E+03  0.40517325175E+03  0.80419002446E+02 0.  0.
<mgrwt>
<rscale>  0 0.81153038E+02</rscale>
<asrwt>0</asrwt>
<pdfrwt beam="1">  1        3 0.69982518E-01 0.81153038E+02</pdfrwt>
<pdfrwt beam="2">  1       -3 0.53381526E-02 0.81153038E+02</pdfrwt>
<totfact> 0.86366816E+02</totfact>
</mgrwt>
</event>
<event>
 4    1  0.4941530E-001  0.8052032E+02  0.7546771E-02  0.1327581E+00
         -2   -1    0    0    0  501 -0.00000000000E+00  0.00000000000E+00  0.12259466670E+03  0.12259466670E+03  0.00000000000E+00 0.  1.
          2   -1    0    0  501    0  0.00000000000E+00 -0.00000000000E+00 -0.11700715896E+03  0.11700715896E+03  0.00000000000E+00 0. -1.
         24    1    1    2    0    0 -0.40203360322E+01 -0.37834863872E+00 -0.85892258090E+02  0.11773275756E+03  0.80419002446E+02 0.  0.
        -24    1    1    2    0    0  0.40203360322E+01  0.37834863872E+00  0.91479765829E+02  0.12186906810E+03  0.80419002446E+02 0.  0.
<mgrwt>
<rscale>  0 0.80520322E+02</rscale>
<asrwt>0</asrwt>
<pdfrwt beam="1">  1        2 0.18001101E-01 0.80520322E+02</pdfrwt>
<pdfrwt beam="2">  1       -2 0.18860718E-01 0.80520322E+02</pdfrwt>
<totfact> 0.66332057E+03</totfact>
</mgrwt>
</event>
<event>
 4    1  0.4941530E-001  0.1114473E+03  0.7546771E-02  0.1257913E+00
         -2   -1    0    0    0  501 -0.00000000000E+00  0.00000000000E+00  0.98683295434E+03  0.98683295434E+03  0.00000000000E+00 0.  1.
          2   -1    0    0  501    0  0.00000000000E+00 -0.00000000000E+00 -0.18561384019E+02  0.18561384019E+02  0.00000000000E+00 0. -1.
         24    1    1    2    0    0 -0.45134703588E+02 -0.62579089924E+02  0.19891835832E+03  0.22801099359E+03  0.80419002446E+02 0. -1.
        -24    1    1    2    0    0  0.45134703588E+02  0.62579089924E+02  0.76935321199E+03  0.77738334477E+03  0.80419002446E+02 0.  1.
<mgrwt>
<rscale>  0 0.11144730E+03</rscale>
<asrwt>0</asrwt>
<pdfrwt beam="1">  1        2 0.28555983E-02 0.11144730E+03</pdfrwt>
<pdfrwt beam="2">  1       -2 0.15182041E+00 0.11144730E+03</pdfrwt>
<totfact> 0.98573007E+02</totfact>
</mgrwt>
</event>
<event>
 4    1  0.4941530E-001  0.2018984E+03  0.7546771E-02  0.1148147E+00
         -1   -1    0    0    0  501 -0.00000000000E+00  0.00000000000E+00  0.86427432881E+02  0.86427432881E+02  0.00000000000E+00 0.  1.
          1   -1    0    0  501    0  0.00000000000E+00 -0.00000000000E+00 -0.49625124378E+03  0.49625124378E+03  0.00000000000E+00 0. -1.
         24    1    1    2    0    0  0.14665904201E+03  0.11307910406E+03 -0.14003645213E+03  0.24570954857E+03  0.80419002446E+02 0. -1.
        -24    1    1    2    0    0 -0.14665904201E+03 -0.11307910406E+03 -0.26978735877E+03  0.33696912809E+03  0.80419002446E+02 0.  1.
<mgrwt>
<rscale>  0 0.20189843E+03</rscale>
<asrwt>0</asrwt>
<pdfrwt beam="1">  1        1 0.76346345E-01 0.20189843E+03</pdfrwt>
<pdfrwt beam="2">  1       -1 0.13296528E-01 0.20189843E+03</pdfrwt>
<totfact> 0.17655086E+03</totfact>
</mgrwt>
</event>
<event>
 4    1  0.4941530E-001  0.8103015E+02  0.7546771E-02  0.1326153E+00
          1   -1    0    0  501    0  0.00000000000E+00  0.00000000000E+00  0.14731749305E+04  0.14731749305E+04  0.00000000000E+00 0. -1.
         -1   -1    0    0    0  501 -0.00000000000E+00 -0.00000000000E+00 -0.47507728859E+01  0.47507728859E+01  0.00000000000E+00 0.  1.
         24    1    1    2    0    0 -0.37359063537E+01  0.92039210682E+01  0.55044225539E+03  0.55637447967E+03  0.80419002446E+02 0.  0.
        -24    1    1    2    0    0  0.37359063537E+01 -0.92039210682E+01  0.91798190222E+03  0.92155122370E+03  0.80419002446E+02 0. -1.
<mgrwt>
<rscale>  0 0.81030149E+02</rscale>
<asrwt>0</asrwt>
<pdfrwt beam="1">  1        1 0.22664193E+00 0.81030149E+02</pdfrwt>
<pdfrwt beam="2">  1       -1 0.73088931E-03 0.81030149E+02</pdfrwt>
<totfact> 0.20402310E+04</totfact>
</mgrwt>
</event>
<event>
 4    1  0.4941530E-001  0.8666391E+02  0.7546771E-02  0.1311138E+00
         -2   -1    0    0    0  501 -0.00000000000E+00  0.00000000000E+00  0.21505965097E+01  0.21505965097E+01  0.00000000000E+00 0.  1.
          2   -1    0    0  501    0  0.00000000000E+00 -0.00000000000E+00 -0.37100917537E+04  0.37100917537E+04  0.00000000000E+00 0. -1.
         24    1    1    2    0    0  0.30768056301E+02 -0.98358713791E+01 -0.23036322162E+04  0.23052618118E+04  0.80419002446E+02 0. -1.
        -24    1    1    2    0    0 -0.30768056301E+02  0.98358713791E+01 -0.14043089410E+04  0.14069805384E+04  0.80419002446E+02 0.  1.
<mgrwt>
<rscale>  0 0.86663912E+02</rscale>
<asrwt>0</asrwt>
<pdfrwt beam="1">  1        2 0.57078953E+00 0.86663912E+02</pdfrwt>
<pdfrwt beam="2">  1       -2 0.33085742E-03 0.86663912E+02</pdfrwt>
<totfact> 0.77316046E+03</totfact>
</mgrwt>
</event>
<event>
 4    1  0.4941530E-001  0.8672107E+02  0.7546771E-02  0.1310992E+00
          1   -1    0    0  501    0  0.00000000000E+00  0.00000000000E+00  0.76455775302E+01  0.76455775302E+01  0.00000000000E+00 0. -1.
         -1   -1    0    0    0  501 -0.00000000000E+00 -0.00000000000E+00 -0.11720676369E+04  0.11720676369E+04  0.00000000000E+00 0.  1.
         24    1    1    2    0    0 -0.95006491699E+00 -0.32441109674E+02 -0.81871320128E+03  0.82329329532E+03  0.80419002446E+02 0.  0.
        -24    1    1    2    0    0  0.95006491699E+00  0.32441109674E+02 -0.34570885811E+03  0.35641991912E+03  0.80419002446E+02 0.  0.
<mgrwt>
<rscale>  0 0.86721071E+02</rscale>
<asrwt>0</asrwt>
<pdfrwt beam="1">  1        1 0.11762432E-02 0.86721071E+02</pdfrwt>
<pdfrwt beam="2">  1       -1 0.18031803E+00 0.86721071E+02</pdfrwt>
<totfact> 0.27358425E+03</totfact>
</mgrwt>
</event>
<event>
 4    1  0.4941530E-001  0.8209883E+02  0.7546771E-02  0.1323199E+00
         -1   -1    0    0    0  501 -0.00000000000E+00  0.00000000000E+00  0.37410091915E+03  0.37410091915E+03  0.00000000000E+00 0.  1.
          1   -1    0    0  501    0  0.00000000000E+00 -0.00000000000E+00 -0.24485380627E+02  0.24485380627E+02  0.00000000000E+00 0. -1.
         24    1    1    2    0    0 -0.29654676565E+01 -0.16254450507E+02  0.27723915765E+03  0.28913970265E+03  0.80419002446E+02 0.  1.
        -24    1    1    2    0    0  0.29654676565E+01  0.16254450507E+02  0.72376380869E+02  0.10944659712E+03  0.80419002446E+02 0. -1.
<mgrwt>
<rscale>  0 0.82098825E+02</rscale>
<asrwt>0</asrwt>
<pdfrwt beam="1">  1        1 0.37669819E-02 0.82098825E+02</pdfrwt>
<pdfrwt beam="2">  1       -1 0.57553983E-01 0.82098825E+02</pdfrwt>
<totfact> 0.70610131E+03</totfact>
</mgrwt>
</event>
<event>
 4    1  0.4941530E-001  0.8714716E+02  0.7546771E-02  0.1309911E+00
         -2   -1    0    0    0  501 -0.00000000000E+00  0.00000000000E+00  0.46672110241E+02  0.46672110241E+02  0.00000000000E+00 0.  1.
          2   -1    0    0  501    0  0.00000000000E+00 -0.00000000000E+00 -0.25987946023E+03  0.25987946023E+03  0.00000000000E+00 0. -1.
         24    1    1    2    0    0 -0.30010564491E+02 -0.15059145280E+02 -0.20032174099E+03  0.21845692414E+03  0.80419002446E+02 0. -1.
        -24    1    1    2    0    0  0.30010564491E+02  0.15059145280E+02 -0.12885608996E+02  0.88094646326E+02  0.80419002446E+02 0.  1.
<mgrwt>
<rscale>  0 0.87147162E+02</rscale>
<asrwt>0</asrwt>
<pdfrwt beam="1">  1        2 0.39981456E-01 0.87147162E+02</pdfrwt>
<pdfrwt beam="2">  1       -2 0.71803245E-02 0.87147162E+02</pdfrwt>
<totfact> 0.12934561E+04</totfact>
</mgrwt>
</event>
<event>
 4    1  0.4941530E-001  0.1016643E+03  0.7546771E-02  0.1276835E+00
         -1   -1    0    0    0  501 -0.00000000000E+00  0.00000000000E+00  0.18154980313E+02  0.18154980313E+02  0.00000000000E+00 0.  1.
          1   -1    0    0  501    0  0.00000000000E+00 -0.00000000000E+00 -0.68863539194E+03  0.68863539194E+03  0.00000000000E+00 0. -1.
         24    1    1    2    0    0  0.26965720959E+02  0.56047038704E+02 -0.18812757618E+03  0.21384017754E+03  0.80419002446E+02 0.  1.
        -24    1    1    2    0    0 -0.26965720959E+02 -0.56047038704E+02 -0.48235283544E+03  0.49295019471E+03  0.80419002446E+02 0. -1.
<mgrwt>
<rscale>  0 0.10166433E+03</rscale>
<asrwt>0</asrwt>
<pdfrwt beam="1">  1        1 0.10594389E+00 0.10166433E+03</pdfrwt>
<pdfrwt beam="2">  1       -1 0.27930744E-02 0.10166433E+03</pdfrwt>
<totfact> 0.11325397E+04</totfact>
</mgrwt>
</event>
<event>
 4    1  0.4941530E-001  0.1042237E+03  0.7546771E-02  0.1271657E+00
         -2   -1    0    0    0  501 -0.00000000000E+00  0.00000000000E+00  0.16245257253E+02  0.16245257253E+02  0.00000000000E+00 0.  1.
          2   -1    0    0  501    0  0.00000000000E+00 -0.00000000000E+00 -0.19521971741E+04  0.19521971741E+04  0.00000000000E+00 0. -1.
         24    1    1    2    0    0 -0.65999444112E+02 -0.62797937772E+01 -0.17660346856E+04  0.17691074273E+04  0.80419002446E+02 0. -1.
        -24    1    1    2    0    0  0.65999444112E+02  0.62797937772E+01 -0.16991723123E+03  0.19933500409E+03  0.80419002446E+02 0.  1.
<mgrwt>
<rscale>  0 0.10422369E+03</rscale>
<asrwt>0</asrwt>
<pdfrwt beam="1">  1        2 0.30033800E+00 0.10422369E+03</pdfrwt>
<pdfrwt beam="2">  1       -2 0.24992706E-02 0.10422369E+03</pdfrwt>
<totfact> 0.43400502E+03</totfact>
</mgrwt>
</event>
<event>
 4    1  0.4941530E-001  0.1220716E+03  0.7546771E-02  0.1239718E+00
         -2   -1    0    0    0  501 -0.00000000000E+00  0.00000000000E+00  0.33465023328E+03  0.33465023328E+03  0.00000000000E+00 0.  1.
          2   -1    0    0  501    0  0.00000000000E+00 -0.00000000000E+00 -0.41473288963E+03  0.41473288963E+03  0.00000000000E+00 0. -1.
         24    1    1    2    0    0  0.82490434387E+02 -0.40368093891E+02 -0.39404719486E+03  0.41252231758E+03  0.80419002446E+02 0. -1.
        -24    1    1    2    0    0 -0.82490434387E+02  0.40368093891E+02  0.31396453851E+03  0.33686080533E+03  0.80419002446E+02 0.  1.
<mgrwt>
<rscale>  0 0.12207158E+03</rscale>
<asrwt>0</asrwt>
<pdfrwt beam="1">  1        2 0.63805060E-01 0.12207158E+03</pdfrwt>
<pdfrwt beam="2">  1       -2 0.51484651E-01 0.12207158E+03</pdfrwt>
<totfact> 0.28261644E+02</totfact>
</mgrwt>
</event>
<event>
 4    1  0.4941530E-001  0.8989535E+02  0.7546771E-02  0.1303105E+00
          2   -1    0    0  501    0  0.00000000000E+00  0.00000000000E+00  0.10409134052E+03  0.10409134052E+03  0.00000000000E+00 0. -1.
         -2   -1    0    0    0  501 -0.00000000000E+00 -0.00000000000E+00 -0.77640327376E+02  0.77640327376E+02  0.00000000000E+00 0.  1.
         24    1    1    2    0    0  0.17865421652E+02 -0.35983059220E+02  0.12499472306E+02  0.90760159784E+02  0.80419002446E+02 0. -1.
        -24    1    1    2    0    0 -0.17865421652E+02  0.35983059220E+02  0.13951540835E+02  0.90971508109E+02  0.80419002446E+02 0.  1.
<mgrwt>
<rscale>  0 0.89895338E+02</rscale>
<asrwt>0</asrwt>
<pdfrwt beam="1">  1        2 0.16014052E-01 0.89895349E+02</pdfrwt>
<pdfrwt beam="2">  1       -2 0.11944666E-01 0.89895349E+02</pdfrwt>
<totfact> 0.16023996E+04</totfact>
</mgrwt>
</event>
<event>
 4    1  0.4941530E-001  0.9964836E+02  0.7546771E-02  0.1281037E+00
         -2   -1    0    0    0  501 -0.00000000000E+00  0.00000000000E+00  0.32432828943E+02  0.32432828943E+02  0.00000000000E+00 0.  1.
          2   -1    0    0  501    0  0.00000000000E+00 -0.00000000000E+00 -0.93172333073E+03  0.93172333073E+03  0.00000000000E+00 0. -1.
         24    1    1    2    0    0 -0.16501805520E+02  0.56482484140E+02 -0.84465499671E+03  0.85051270421E+03  0.80419002446E+02 0. -1.
        -24    1    1    2    0    0  0.16501805520E+02 -0.56482484140E+02 -0.54635505076E+02  0.11364345546E+03  0.80419002446E+02 0.  1.
<mgrwt>
<rscale>  0 0.99648365E+02</rscale>
<asrwt>0</asrwt>
<pdfrwt beam="1">  1        2 0.14334208E+00 0.99648365E+02</pdfrwt>
<pdfrwt beam="2">  1       -2 0.49896652E-02 0.99648365E+02</pdfrwt>
<totfact> 0.54619039E+03</totfact>
</mgrwt>
</event>
<event>
 4    1  0.4941530E-001  0.8359047E+02  0.7546771E-02  0.1319160E+00
         -3   -1    0    0    0  501 -0.00000000000E+00  0.00000000000E+00  0.11517094740E+03  0.11517094740E+03  0.00000000000E+00 0.  1.
          3   -1    0    0  501    0  0.00000000000E+00 -0.00000000000E+00 -0.17777705055E+03  0.17777705055E+03  0.00000000000E+00 0. -1.
         24    1    1    2    0    0  0.16283300538E+02  0.15968867370E+02  0.87578672417E+02  0.12106771006E+03  0.80419002446E+02 0.  1.
        -24    1    1    2    0    0 -0.16283300538E+02 -0.15968867370E+02 -0.15018477557E+03  0.17188028790E+03  0.80419002446E+02 0.  0.
<mgrwt>
<rscale>  0 0.83590469E+02</rscale>
<asrwt>0</asrwt>
<pdfrwt beam="1">  1        3 0.27350315E-01 0.83590469E+02</pdfrwt>
<pdfrwt beam="2">  1       -3 0.17718607E-01 0.83590469E+02</pdfrwt>
<totfact> 0.75383367E+02</totfact>
</mgrwt>
</event>
<event>
 4    1  0.4941530E-001  0.8636354E+02  0.7546771E-02  0.1311905E+00
          1   -1    0    0  501    0  0.00000000000E+00  0.00000000000E+00  0.35394799975E+03  0.35394799975E+03  0.00000000000E+00 0. -1.
         -1   -1    0    0    0  501 -0.00000000000E+00 -0.00000000000E+00 -0.91334493432E+02  0.91334493432E+02  0.00000000000E+00 0.  1.
         24    1    1    2    0    0 -0.31575257683E+01 -0.31328497199E+02 -0.63968697166E+02  0.10747397302E+03  0.80419002446E+02 0.  1.
        -24    1    1    2    0    0  0.31575257683E+01  0.31328497199E+02  0.32658220349E+03  0.33780852016E+03  0.80419002446E+02 0. -1.
<mgrwt>
<rscale>  0 0.86363538E+02</rscale>
<asrwt>0</asrwt>
<pdfrwt beam="1">  1        1 0.54453538E-01 0.86363538E+02</pdfrwt>
<pdfrwt beam="2">  1       -1 0.14051461E-01 0.86363538E+02</pdfrwt>
<totfact> 0.24202979E+03</totfact>
</mgrwt>
</event>
<event>
 4    1  0.4941530E-001  0.9487809E+02  0.7546771E-02  0.1291451E+00
         -1   -1    0    0    0  501 -0.00000000000E+00  0.00000000000E+00  0.14437109861E+03  0.14437109861E+03  0.00000000000E+00 0.  1.
          1   -1    0    0  501    0  0.00000000000E+00 -0.00000000000E+00 -0.69414430532E+02  0.69414430532E+02  0.00000000000E+00 0. -1.
         24    1    1    2    0    0 -0.43069942808E+02  0.26069460279E+02  0.71573671669E+02  0.11884714201E+03  0.80419002446E+02 0.  1.
        -24    1    1    2    0    0  0.43069942808E+02 -0.26069460279E+02  0.33829964090E+01  0.94938387135E+02  0.80419002446E+02 0. -1.
<mgrwt>
<rscale>  0 0.94878094E+02</rscale>
<asrwt>0</asrwt>
<pdfrwt beam="1">  1        1 0.10679143E-01 0.94878094E+02</pdfrwt>
<pdfrwt beam="2">  1       -1 0.22210938E-01 0.94878094E+02</pdfrwt>
<totfact> 0.90818582E+03</totfact>
</mgrwt>
</event>
<event>
 4    1  0.4941530E-001  0.1497887E+03  0.7546771E-02  0.1200733E+00
         -2   -1    0    0    0  501 -0.00000000000E+00  0.00000000000E+00  0.72832408211E+02  0.72832408211E+02  0.00000000000E+00 0.  1.
          2   -1    0    0  501    0  0.00000000000E+00 -0.00000000000E+00 -0.17477820667E+04  0.17477820667E+04  0.00000000000E+00 0. -1.
         24    1    1    2    0    0 -0.50480137917E+02 -0.11584991119E+03 -0.16636723208E+04  0.16704018238E+04  0.80419002446E+02 0. -1.
        -24    1    1    2    0    0  0.50480137917E+02  0.11584991119E+03 -0.11277337741E+02  0.15021265109E+03  0.80419002446E+02 0.  1.
<mgrwt>
<rscale>  0 0.14978873E+03</rscale>
<asrwt>0</asrwt>
<pdfrwt beam="1">  1        2 0.26888953E+00 0.14978873E+03</pdfrwt>
<pdfrwt beam="2">  1       -2 0.11204987E-01 0.14978873E+03</pdfrwt>
<totfact> 0.57124646E+02</totfact>
</mgrwt>
</event>
<event>
 4    1  0.4941530E-001  0.1262416E+03  0.7546771E-02  0.1233141E+00
          1   -1    0    0  501    0  0.00000000000E+00  0.00000000000E+00  0.47669331222E+02  0.47669331222E+02  0.00000000000E+00 0. -1.
         -1   -1    0    0    0  501 -0.00000000000E+00 -0.00000000000E+00 -0.33680670540E+03  0.33680670540E+03  0.00000000000E+00 0.  1.
         24    1    1    2    0    0 -0.61784526555E+02 -0.75182459250E+02 -0.12805996073E+03  0.17982296682E+03  0.80419002446E+02 0.  1.
        -24    1    1    2    0    0  0.61784526555E+02  0.75182459250E+02 -0.16107741344E+03  0.20465306980E+03  0.80419002446E+02 0.  0.
<mgrwt>
<rscale>  0 0.12624163E+03</rscale>
<asrwt>0</asrwt>
<pdfrwt beam="1">  1        1 0.73337431E-02 0.12624165E+03</pdfrwt>
<pdfrwt beam="2">  1       -1 0.51816417E-01 0.12624165E+03</pdfrwt>
<totfact> 0.35998597E+03</totfact>
</mgrwt>
</event>
<event>
 4    1  0.4941530E-001  0.1245756E+03  0.7546771E-02  0.1235734E+00
          2   -1    0    0  501    0  0.00000000000E+00  0.00000000000E+00  0.59617681997E+02  0.59617681997E+02  0.00000000000E+00 0. -1.
         -2   -1    0    0    0  501 -0.00000000000E+00 -0.00000000000E+00 -0.38192121072E+03  0.38192121072E+03  0.00000000000E+00 0.  1.
         24    1    1    2    0    0  0.87613519314E+02 -0.37091021451E+02 -0.36574556707E+02  0.12983368897E+03  0.80419002446E+02 0. -1.
        -24    1    1    2    0    0 -0.87613519314E+02  0.37091021451E+02 -0.28572897201E+03  0.31170520374E+03  0.80419002446E+02 0.  1.
<mgrwt>
<rscale>  0 0.12457563E+03</rscale>
<asrwt>0</asrwt>
<pdfrwt beam="1">  1        2 0.91719512E-02 0.12457563E+03</pdfrwt>
<pdfrwt beam="2">  1       -2 0.58757109E-01 0.12457563E+03</pdfrwt>
<totfact> 0.18982591E+03</totfact>
</mgrwt>
</event>
<event>
 4    1  0.4941530E-001  0.8067994E+02  0.7546771E-02  0.1327133E+00
          2   -1    0    0  501    0  0.00000000000E+00  0.00000000000E+00  0.15202645893E+02  0.15202645893E+02  0.00000000000E+00 0. -1.
         -2   -1    0    0    0  501 -0.00000000000E+00 -0.00000000000E+00 -0.43864132591E+03  0.43864132591E+03  0.00000000000E+00 0.  1.
         24    1    1    2    0    0 -0.22637754950E+01  0.60754876221E+01 -0.17665134879E+03  0.19420337590E+03  0.80419002446E+02 0. -1.
        -24    1    1    2    0    0  0.22637754950E+01 -0.60754876221E+01 -0.24678733123E+03  0.25964059590E+03  0.80419002446E+02 0.  0.
<mgrwt>
<rscale>  0 0.80679937E+02</rscale>
<asrwt>0</asrwt>
<pdfrwt beam="1">  1        2 0.23388690E-02 0.80679937E+02</pdfrwt>
<pdfrwt beam="2">  1       -2 0.67483270E-01 0.80679937E+02</pdfrwt>
<totfact> 0.80739040E+03</totfact>
</mgrwt>
</event>
<event>
 4    1  0.4941530E-001  0.8424193E+02  0.7546771E-02  0.1317427E+00
         -3   -1    0    0    0  501 -0.00000000000E+00  0.00000000000E+00  0.16815152374E+02  0.16815152374E+02  0.00000000000E+00 0.  1.
          3   -1    0    0  501    0  0.00000000000E+00 -0.00000000000E+00 -0.43075246399E+03  0.43075246399E+03  0.00000000000E+00 0. -1.
         24    1    1    2    0    0  0.20545465421E+02 -0.14400358919E+02 -0.17514628010E+03  0.19435257105E+03  0.80419002446E+02 0. -1.
        -24    1    1    2    0    0 -0.20545465421E+02  0.14400358919E+02 -0.23879103151E+03  0.25321504531E+03  0.80419002446E+02 0.  0.
<mgrwt>
<rscale>  0 0.84241928E+02</rscale>
<asrwt>0</asrwt>
<pdfrwt beam="1">  1        3 0.66269592E-01 0.84241928E+02</pdfrwt>
<pdfrwt beam="2">  1       -3 0.25869472E-02 0.84241928E+02</pdfrwt>
<totfact> 0.29800722E+03</totfact>
</mgrwt>
</event>
<event>
 4    1  0.4941530E-001  0.1127062E+03  0.7546771E-02  0.1255639E+00
         -1   -1    0    0    0  501 -0.00000000000E+00  0.00000000000E+00  0.79191736444E+01  0.79191736444E+01  0.00000000000E+00 0.  1.
          1   -1    0    0  501    0  0.00000000000E+00 -0.00000000000E+00 -0.28959768981E+04  0.28959768981E+04  0.00000000000E+00 0. -1.
         24    1    1    2    0    0 -0.60168914328E+02 -0.51138786565E+02 -0.47424760262E+03  0.48745612960E+03  0.80419002446E+02 0.  1.
        -24    1    1    2    0    0  0.60168914328E+02  0.51138786565E+02 -0.24138101219E+04  0.24164399422E+04  0.80419002446E+02 0. -1.
<mgrwt>
<rscale>  0 0.11270621E+03</rscale>
<asrwt>0</asrwt>
<pdfrwt beam="1">  1        1 0.44553473E+00 0.11270621E+03</pdfrwt>
<pdfrwt beam="2">  1       -1 0.12183349E-02 0.11270621E+03</pdfrwt>
<totfact> 0.12328348E+03</totfact>
</mgrwt>
</event>
<event>
 4    1  0.4941530E-001  0.8075682E+02  0.7546771E-02  0.1326917E+00
         -2   -1    0    0    0  501 -0.00000000000E+00  0.00000000000E+00  0.82642397235E+02  0.82642397235E+02  0.00000000000E+00 0.  1.
          2   -1    0    0  501    0  0.00000000000E+00 -0.00000000000E+00 -0.13521404969E+04  0.13521404969E+04  0.00000000000E+00 0. -1.
         24    1    1    2    0    0 -0.46876796439E+01 -0.56985405440E+01 -0.13308914305E+04  0.13333392905E+04  0.80419002446E+02 0. -1.
        -24    1    1    2    0    0  0.46876796439E+01  0.56985405440E+01  0.61393330835E+02  0.10144360369E+03  0.80419002446E+02 0.  1.
<mgrwt>
<rscale>  0 0.80756818E+02</rscale>
<asrwt>0</asrwt>
<pdfrwt beam="1">  1        2 0.20802161E+00 0.80756818E+02</pdfrwt>
<pdfrwt beam="2">  1       -2 0.12714215E-01 0.80756818E+02</pdfrwt>
<totfact> 0.75839611E+02</totfact>
</mgrwt>
</event>
<event>
 4    1  0.4941530E-001  0.1228711E+03  0.7546771E-02  0.1238434E+00
          1   -1    0    0  501    0  0.00000000000E+00  0.00000000000E+00  0.31709613589E+03  0.31709613589E+03  0.00000000000E+00 0. -1.
         -1   -1    0    0    0  501 -0.00000000000E+00 -0.00000000000E+00 -0.47642349427E+02  0.47642349427E+02  0.00000000000E+00 0.  1.
         24    1    1    2    0    0  0.58917650890E+02 -0.71824792739E+02  0.13939504067E+03  0.18581787792E+03  0.80419002446E+02 0.  1.
        -24    1    1    2    0    0 -0.58917650890E+02  0.71824792739E+02  0.13005874580E+03  0.17892060740E+03  0.80419002446E+02 0.  0.
<mgrwt>
<rscale>  0 0.12287111E+03</rscale>
<asrwt>0</asrwt>
<pdfrwt beam="1">  1        1 0.48784020E-01 0.12287113E+03</pdfrwt>
<pdfrwt beam="2">  1       -1 0.73295924E-02 0.12287113E+03</pdfrwt>
<totfact> 0.75962177E+03</totfact>
</mgrwt>
</event>
<event>
 4    1  0.4941530E-001  0.9148948E+02  0.7546771E-02  0.1299284E+00
         -2   -1    0    0    0  501 -0.00000000000E+00  0.00000000000E+00  0.97175225718E+01  0.97175225718E+01  0.00000000000E+00 0.  1.
          2   -1    0    0  501    0  0.00000000000E+00 -0.00000000000E+00 -0.18093144779E+04  0.18093144779E+04  0.00000000000E+00 0. -1.
         24    1    1    2    0    0  0.27638421818E+02  0.33752441672E+02 -0.15581322024E+04  0.15608159039E+04  0.80419002446E+02 0. -1.
        -24    1    1    2    0    0 -0.27638421818E+02 -0.33752441672E+02 -0.24146475290E+03  0.25821609656E+03  0.80419002446E+02 0.  1.
<mgrwt>
<rscale>  0 0.91489484E+02</rscale>
<asrwt>0</asrwt>
<pdfrwt beam="1">  1        2 0.27835598E+00 0.91489484E+02</pdfrwt>
<pdfrwt beam="2">  1       -2 0.14950040E-02 0.91489484E+02</pdfrwt>
<totfact> 0.10680398E+04</totfact>
</mgrwt>
</event>
<event>
 4    1  0.4941530E-001  0.9409747E+02  0.7546771E-02  0.1293222E+00
          1   -1    0    0  501    0  0.00000000000E+00  0.00000000000E+00  0.76154354372E+03  0.76154354372E+03  0.00000000000E+00 0. -1.
         -1   -1    0    0    0  501 -0.00000000000E+00 -0.00000000000E+00 -0.14450128743E+02  0.14450128743E+02  0.00000000000E+00 0.  1.
         24    1    1    2    0    0  0.19534767318E+02  0.44782938988E+02  0.20204398962E+03  0.22288137754E+03  0.80419002446E+02 0.  1.
        -24    1    1    2    0    0 -0.19534767318E+02 -0.44782938988E+02  0.54504942535E+03  0.55311229492E+03  0.80419002446E+02 0. -1.
<mgrwt>
<rscale>  0 0.94097475E+02</rscale>
<asrwt>0</asrwt>
<pdfrwt beam="1">  1        1 0.11716051E+00 0.94097475E+02</pdfrwt>
<pdfrwt beam="2">  1       -1 0.22230973E-02 0.94097475E+02</pdfrwt>
<totfact> 0.13532729E+04</totfact>
</mgrwt>
</event>
<event>
 4    1  0.4941530E-001  0.1268748E+03  0.7546771E-02  0.1232168E+00
          2   -1    0    0  501    0  0.00000000000E+00  0.00000000000E+00  0.18816232976E+04  0.18816232976E+04  0.00000000000E+00 0. -1.
         -2   -1    0    0    0  501 -0.00000000000E+00 -0.00000000000E+00 -0.91700565339E+01  0.91700565339E+01  0.00000000000E+00 0.  1.
         24    1    1    2    0    0 -0.92339255078E+02 -0.33218551413E+02  0.11810749021E+04  0.11878700058E+04  0.80419002446E+02 0. -1.
        -24    1    1    2    0    0  0.92339255078E+02  0.33218551413E+02  0.69137833894E+03  0.70292334838E+03  0.80419002446E+02 0.  0.
<mgrwt>
<rscale>  0 0.12687484E+03</rscale>
<asrwt>0</asrwt>
<pdfrwt beam="1">  1        2 0.28948020E+00 0.12687484E+03</pdfrwt>
<pdfrwt beam="2">  1       -2 0.14107794E-02 0.12687484E+03</pdfrwt>
<totfact> 0.10815852E+04</totfact>
</mgrwt>
</event>
<event>
 4    1  0.4941530E-001  0.1074645E+03  0.7546771E-02  0.1265339E+00
          2   -1    0    0  501    0  0.00000000000E+00  0.00000000000E+00  0.36341378916E+03  0.36341378916E+03  0.00000000000E+00 0. -1.
         -2   -1    0    0    0  501 -0.00000000000E+00 -0.00000000000E+00 -0.13452732219E+03  0.13452732219E+03  0.00000000000E+00 0.  1.
         24    1    1    2    0    0  0.69947076711E+02 -0.13740655683E+02  0.33202972122E+03  0.34898760850E+03  0.80419002446E+02 0. -1.
        -24    1    1    2    0    0 -0.69947076711E+02  0.13740655683E+02 -0.10314325425E+03  0.14895350285E+03  0.80419002446E+02 0.  1.
<mgrwt>
<rscale>  0 0.10746448E+03</rscale>
<asrwt>0</asrwt>
<pdfrwt beam="1">  1        2 0.55909813E-01 0.10746448E+03</pdfrwt>
<pdfrwt beam="2">  1       -2 0.20696511E-01 0.10746448E+03</pdfrwt>
<totfact> 0.17112723E+03</totfact>
</mgrwt>
</event>
<event>
 4    1  0.4941530E-001  0.8329254E+02  0.7546771E-02  0.1319959E+00
         -4   -1    0    0    0  501 -0.00000000000E+00  0.00000000000E+00  0.47690467920E+03  0.47690467920E+03  0.00000000000E+00 0.  1.
          4   -1    0    0  501    0  0.00000000000E+00 -0.00000000000E+00 -0.27285955768E+02  0.27285955768E+02  0.00000000000E+00 0. -1.
         24    1    1    2    0    0  0.55376839454E+01  0.20970584383E+02  0.52559849723E+02  0.98489517768E+02  0.80419002446E+02 0. -1.
        -24    1    1    2    0    0 -0.55376839454E+01 -0.20970584383E+02  0.39705887371E+03  0.40570111720E+03  0.80419002446E+02 0.  1.
<mgrwt>
<rscale>  0 0.83292541E+02</rscale>
<asrwt>0</asrwt>
<pdfrwt beam="1">  1        4 0.41978397E-02 0.83292541E+02</pdfrwt>
<pdfrwt beam="2">  1       -4 0.73369945E-01 0.83292541E+02</pdfrwt>
<totfact> 0.80601748E+02</totfact>
</mgrwt>
</event>
<event>
 4    1  0.4941530E-001  0.1034631E+03  0.7546771E-02  0.1273178E+00
         -1   -1    0    0    0  501 -0.00000000000E+00  0.00000000000E+00  0.32745046457E+03  0.32745046457E+03  0.00000000000E+00 0.  1.
          1   -1    0    0  501    0  0.00000000000E+00 -0.00000000000E+00 -0.12647750832E+03  0.12647750832E+03  0.00000000000E+00 0. -1.
         24    1    1    2    0    0 -0.64909638030E+02  0.49128952239E+01  0.29592986304E+03  0.31349497196E+03  0.80419002446E+02 0.  1.
        -24    1    1    2    0    0  0.64909638030E+02 -0.49128952239E+01 -0.94956906787E+02  0.14043300093E+03  0.80419002446E+02 0. -1.
<mgrwt>
<rscale>  0 0.10346310E+03</rscale>
<asrwt>0</asrwt>
<pdfrwt beam="1">  1        1 0.19458078E-01 0.10346310E+03</pdfrwt>
<pdfrwt beam="2">  1       -1 0.50376994E-01 0.10346310E+03</pdfrwt>
<totfact> 0.10514501E+03</totfact>
</mgrwt>
</event>
<event>
 4    1  0.4941530E-001  0.8990825E+02  0.7546771E-02  0.1303074E+00
          1   -1    0    0  501    0  0.00000000000E+00  0.00000000000E+00  0.15870396243E+04  0.15870396243E+04  0.00000000000E+00 0. -1.
         -1   -1    0    0    0  501 -0.00000000000E+00 -0.00000000000E+00 -0.54420853345E+01  0.54420853345E+01  0.00000000000E+00 0.  1.
         24    1    1    2    0    0  0.30627646469E+02 -0.26042763974E+02  0.58926284000E+03  0.59608236750E+03  0.80419002446E+02 0. -1.
        -24    1    1    2    0    0 -0.30627646469E+02  0.26042763974E+02  0.99233469897E+03  0.99639934214E+03  0.80419002446E+02 0.  0.
<mgrwt>
<rscale>  0 0.89908255E+02</rscale>
<asrwt>0</asrwt>
<pdfrwt beam="1">  1        1 0.24415957E+00 0.89908255E+02</pdfrwt>
<pdfrwt beam="2">  1       -1 0.83724516E-03 0.89908255E+02</pdfrwt>
<totfact> 0.14386435E+04</totfact>
</mgrwt>
</event>
<event>
 4    1  0.4941530E-001  0.1181910E+03  0.7546771E-02  0.1246112E+00
         -2   -1    0    0    0  501 -0.00000000000E+00  0.00000000000E+00  0.14601341337E+02  0.14601341337E+02  0.00000000000E+00 0.  1.
          2   -1    0    0  501    0  0.00000000000E+00 -0.00000000000E+00 -0.15474448564E+04  0.15474448564E+04  0.00000000000E+00 0. -1.
         24    1    1    2    0    0 -0.40045924702E+02  0.76799825400E+02 -0.12489871940E+04  0.12545669037E+04  0.80419002446E+02 0. -1.
        -24    1    1    2    0    0  0.40045924702E+02 -0.76799825400E+02 -0.28385632109E+03  0.30747929401E+03  0.80419002446E+02 0.  1.
<mgrwt>
<rscale>  0 0.11819097E+03</rscale>
<asrwt>0</asrwt>
<pdfrwt beam="1">  1        2 0.23806825E+00 0.11819097E+03</pdfrwt>
<pdfrwt beam="2">  1       -2 0.22463620E-02 0.11819097E+03</pdfrwt>
<totfact> 0.81606506E+03</totfact>
</mgrwt>
</event>
<event>
 4    1  0.4941530E-001  0.8450176E+02  0.7546771E-02  0.1316741E+00
          1   -1    0    0  501    0  0.00000000000E+00  0.00000000000E+00  0.24864379004E+02  0.24864379004E+02  0.00000000000E+00 0. -1.
         -1   -1    0    0    0  501 -0.00000000000E+00 -0.00000000000E+00 -0.44863628835E+03  0.44863628835E+03  0.00000000000E+00 0.  1.
         24    1    1    2    0    0  0.90836597866E+01 -0.24306748912E+02 -0.35391304161E+03  0.36386122065E+03  0.80419002446E+02 0.  1.
        -24    1    1    2    0    0 -0.90836597866E+01  0.24306748912E+02 -0.69858867738E+02  0.10963944671E+03  0.80419002446E+02 0. -1.
<mgrwt>
<rscale>  0 0.84501757E+02</rscale>
<asrwt>0</asrwt>
<pdfrwt beam="1">  1        1 0.38252891E-02 0.84501757E+02</pdfrwt>
<pdfrwt beam="2">  1       -1 0.69020967E-01 0.84501757E+02</pdfrwt>
<totfact> 0.49108162E+03</totfact>
</mgrwt>
</event>
<event>
 4    1  0.4941530E-001  0.9544280E+02  0.7546771E-02  0.1290182E+00
          2   -1    0    0  501    0  0.00000000000E+00  0.00000000000E+00  0.15753934322E+04  0.15753934322E+04  0.00000000000E+00 0. -1.
         -2   -1    0    0    0  501 -0.00000000000E+00 -0.00000000000E+00 -0.32298323220E+02  0.32298323220E+02  0.00000000000E+00 0.  1.
         24    1    1    2    0    0 -0.27958583430E+02  0.43132695495E+02  0.14998929152E+04  0.15029265068E+04  0.80419002446E+02 0. -1.
        -24    1    1    2    0    0  0.27958583430E+02 -0.43132695495E+02  0.43202193704E+02  0.10476524855E+03  0.80419002446E+02 0.  1.
<mgrwt>
<rscale>  0 0.95442798E+02</rscale>
<asrwt>0</asrwt>
<pdfrwt beam="1">  1        2 0.24236816E+00 0.95442798E+02</pdfrwt>
<pdfrwt beam="2">  1       -2 0.49689740E-02 0.95442798E+02</pdfrwt>
<totfact> 0.24507603E+03</totfact>
</mgrwt>
</event>
<event>
 4    1  0.4941530E-001  0.9274305E+02  0.7546771E-02  0.1296342E+00
          1   -1    0    0  501    0  0.00000000000E+00  0.00000000000E+00  0.14561305644E+04  0.14561305644E+04  0.00000000000E+00 0. -1.
         -1   -1    0    0    0  501 -0.00000000000E+00 -0.00000000000E+00 -0.80393135277E+01  0.80393135277E+01  0.00000000000E+00 0.  1.
         24    1    1    2    0    0  0.70638824865E+01  0.45652583981E+02  0.34700873541E+03  0.35918843977E+03  0.80419002446E+02 0.  1.
        -24    1    1    2    0    0 -0.70638824865E+01 -0.45652583981E+02  0.11010825155E+04  0.11049814382E+04  0.80419002446E+02 0. -1.
<mgrwt>
<rscale>  0 0.92743047E+02</rscale>
<asrwt>0</asrwt>
<pdfrwt beam="1">  1        1 0.22401988E+00 0.92743047E+02</pdfrwt>
<pdfrwt beam="2">  1       -1 0.12368186E-02 0.92743047E+02</pdfrwt>
<totfact> 0.10071302E+04</totfact>
</mgrwt>
</event>
<event>
 4    1  0.4941530E-001  0.8088281E+02  0.7546771E-02  0.1326565E+00
          2   -1    0    0  501    0  0.00000000000E+00  0.00000000000E+00  0.40539992657E+03  0.40539992657E+03  0.00000000000E+00 0. -1.
         -2   -1    0    0    0  501 -0.00000000000E+00 -0.00000000000E+00 -0.31691498834E+03  0.31691498834E+03  0.00000000000E+00 0.  1.
         24    1    1    2    0    0  0.82829797072E+01 -0.24911341006E+01  0.39608477690E+03  0.40425880318E+03  0.80419002446E+02 0. -1.
        -24    1    1    2    0    0 -0.82829797072E+01  0.24911341006E+01 -0.30759983867E+03  0.31805611173E+03  0.80419002446E+02 0.  1.
<mgrwt>
<rscale>  0 0.80882813E+02</rscale>
<asrwt>0</asrwt>
<pdfrwt beam="1">  1        2 0.62369219E-01 0.80882813E+02</pdfrwt>
<pdfrwt beam="2">  1       -2 0.48756152E-01 0.80882813E+02</pdfrwt>
<totfact> 0.32283778E+02</totfact>
</mgrwt>
</event>
<event>
 4    1  0.4941530E-001  0.1089096E+03  0.7546771E-02  0.1262602E+00
          2   -1    0    0  501    0  0.00000000000E+00  0.00000000000E+00  0.12499047503E+03  0.12499047503E+03  0.00000000000E+00 0. -1.
         -2   -1    0    0    0  501 -0.00000000000E+00 -0.00000000000E+00 -0.10277943069E+04  0.10277943069E+04  0.00000000000E+00 0.  1.
         24    1    1    2    0    0 -0.33827739795E+02 -0.65190304126E+02  0.97736584688E+02  0.14633436942E+03  0.80419002446E+02 0. -1.
        -24    1    1    2    0    0  0.33827739795E+02  0.65190304126E+02 -0.10005404165E+04  0.10064504125E+04  0.80419002446E+02 0.  1.
<mgrwt>
<rscale>  0 0.10890963E+03</rscale>
<asrwt>0</asrwt>
<pdfrwt beam="1">  1        2 0.19229303E-01 0.10890963E+03</pdfrwt>
<pdfrwt beam="2">  1       -2 0.15812221E+00 0.10890963E+03</pdfrwt>
<totfact> 0.82068377E+01</totfact>
</mgrwt>
</event>
<event>
 4    1  0.4941530E-001  0.9313723E+02  0.7546771E-02  0.1295427E+00
         -2   -1    0    0    0  501 -0.00000000000E+00  0.00000000000E+00  0.11602703955E+02  0.11602703955E+02  0.00000000000E+00 0.  1.
          2   -1    0    0  501    0  0.00000000000E+00 -0.00000000000E+00 -0.10346164021E+04  0.10346164021E+04  0.00000000000E+00 0. -1.
         24    1    1    2    0    0  0.16691618124E+02 -0.43917166772E+02 -0.78701389824E+03  0.79250578523E+03  0.80419002446E+02 0. -1.
        -24    1    1    2    0    0 -0.16691618124E+02  0.43917166772E+02 -0.23599979993E+03  0.25371332085E+03  0.80419002446E+02 0.  1.
<mgrwt>
<rscale>  0 0.93137230E+02</rscale>
<asrwt>0</asrwt>
<pdfrwt beam="1">  1        2 0.15917181E+00 0.93137230E+02</pdfrwt>
<pdfrwt beam="2">  1       -2 0.17850307E-02 0.93137230E+02</pdfrwt>
<totfact> 0.21143110E+04</totfact>
</mgrwt>
</event>
<event>
 4    1  0.4941530E-001  0.9905686E+02  0.7546771E-02  0.1282292E+00
          1   -1    0    0  501    0  0.00000000000E+00  0.00000000000E+00  0.17787416129E+03  0.17787416129E+03  0.00000000000E+00 0. -1.
         -1   -1    0    0    0  501 -0.00000000000E+00 -0.00000000000E+00 -0.55258845133E+02  0.55258845133E+02  0.00000000000E+00 0.  1.
         24    1    1    2    0    0 -0.57287092287E+02  0.79520629949E+01  0.56480113702E+02  0.11402747672E+03  0.80419002446E+02 0.  1.
        -24    1    1    2    0    0  0.57287092287E+02 -0.79520629949E+01  0.66135202459E+02  0.11910552971E+03  0.80419002446E+02 0. -1.
<mgrwt>
<rscale>  0 0.99056863E+02</rscale>
<asrwt>0</asrwt>
<pdfrwt beam="1">  1        1 0.27365255E-01 0.99056863E+02</pdfrwt>
<pdfrwt beam="2">  1       -1 0.85013609E-02 0.99056863E+02</pdfrwt>
<totfact> 0.12176127E+04</totfact>
</mgrwt>
</event>
<event>
 4    1  0.4941530E-001  0.8202004E+02  0.7546771E-02  0.1323415E+00
         -4   -1    0    0    0  501 -0.00000000000E+00  0.00000000000E+00  0.43378287310E+02  0.43378287310E+02  0.00000000000E+00 0.  1.
          4   -1    0    0  501    0  0.00000000000E+00 -0.00000000000E+00 -0.16518826746E+03  0.16518826746E+03  0.00000000000E+00 0. -1.
         24    1    1    2    0    0  0.14751190431E+02 -0.65171501540E+01 -0.86696292436E+02  0.11934627745E+03  0.80419002446E+02 0.  1.
        -24    1    1    2    0    0 -0.14751190431E+02  0.65171501540E+01 -0.35113687713E+02  0.89220277317E+02  0.80419002446E+02 0.  1.
<mgrwt>
<rscale>  0 0.82020039E+02</rscale>
<asrwt>0</asrwt>
<pdfrwt beam="1">  1        4 0.25413580E-01 0.82020039E+02</pdfrwt>
<pdfrwt beam="2">  1       -4 0.66735827E-02 0.82020039E+02</pdfrwt>
<totfact> 0.31127700E+03</totfact>
</mgrwt>
</event>
<event>
 4    1  0.4941530E-001  0.1290167E+03  0.7546771E-02  0.1228922E+00
          2   -1    0    0  501    0  0.00000000000E+00  0.00000000000E+00  0.54923403007E+02  0.54923403007E+02  0.00000000000E+00 0. -1.
         -2   -1    0    0    0  501 -0.00000000000E+00 -0.00000000000E+00 -0.30541745066E+03  0.30541745066E+03  0.00000000000E+00 0.  1.
         24    1    1    2    0    0  0.62854354675E+02  0.78914016080E+02 -0.14106265311E+03  0.19116479774E+03  0.80419002446E+02 0.  1.
        -24    1    1    2    0    0 -0.62854354675E+02 -0.78914016080E+02 -0.10943139454E+03  0.16917605593E+03  0.80419002446E+02 0. -1.
<mgrwt>
<rscale>  0 0.12901671E+03</rscale>
<asrwt>0</asrwt>
<pdfrwt beam="1">  1        2 0.84497544E-02 0.12901673E+03</pdfrwt>
<pdfrwt beam="2">  1       -2 0.46987300E-01 0.12901673E+03</pdfrwt>
<totfact> 0.32900600E+03</totfact>
</mgrwt>
</event>
<event>
 4    1  0.4941530E-001  0.8762284E+02  0.7546771E-02  0.1308713E+00
          1   -1    0    0  501    0  0.00000000000E+00  0.00000000000E+00  0.21896094086E+04  0.21896094086E+04  0.00000000000E+00 0. -1.
         -1   -1    0    0    0  501 -0.00000000000E+00 -0.00000000000E+00 -0.88919151085E+01  0.88919151085E+01  0.00000000000E+00 0.  1.
         24    1    1    2    0    0  0.17513039659E+02 -0.30063913043E+02  0.23487731143E+03  0.25068927541E+03  0.80419002446E+02 0.  1.
        -24    1    1    2    0    0 -0.17513039659E+02  0.30063913043E+02  0.19458401821E+04  0.19478120483E+04  0.80419002446E+02 0. -1.
<mgrwt>
<rscale>  0 0.87622836E+02</rscale>
<asrwt>0</asrwt>
<pdfrwt beam="1">  1        1 0.33686256E+00 0.87622836E+02</pdfrwt>
<pdfrwt beam="2">  1       -1 0.13679887E-02 0.87622836E+02</pdfrwt>
<totfact> 0.30097662E+03</totfact>
</mgrwt>
</event>
<event>
 4    1  0.4941530E-001  0.8551958E+02  0.7546771E-02  0.1314079E+00
         -2   -1    0    0    0  501 -0.00000000000E+00  0.00000000000E+00  0.77228738709E+02  0.77228738709E+02  0.00000000000E+00 0.  1.
          2   -1    0    0  501    0  0.00000000000E+00 -0.00000000000E+00 -0.23303829843E+03  0.23303829843E+03  0.00000000000E+00 0. -1.
         24    1    1    2    0    0 -0.27523937376E+02 -0.94241533739E+01 -0.19743080346E+03  0.21515696574E+03  0.80419002446E+02 0. -1.
        -24    1    1    2    0    0  0.27523937376E+02  0.94241533739E+01  0.41621243747E+02  0.95110071396E+02  0.80419002446E+02 0.  1.
<mgrwt>
<rscale>  0 0.85519575E+02</rscale>
<asrwt>0</asrwt>
<pdfrwt beam="1">  1        2 0.35852046E-01 0.85519575E+02</pdfrwt>
<pdfrwt beam="2">  1       -2 0.11881344E-01 0.85519575E+02</pdfrwt>
<totfact> 0.66538786E+03</totfact>
</mgrwt>
</event>
<event>
 4    1  0.4941530E-001  0.8130066E+02  0.7546771E-02  0.1325400E+00
          2   -1    0    0  501    0  0.00000000000E+00  0.00000000000E+00  0.15663898026E+03  0.15663898026E+03  0.00000000000E+00 0. -1.
         -2   -1    0    0    0  501 -0.00000000000E+00 -0.00000000000E+00 -0.85875830944E+02  0.85875830944E+02  0.00000000000E+00 0.  1.
         24    1    1    2    0    0  0.11934711187E+02  0.38024426681E+00  0.12185945486E+03  0.14649069803E+03  0.80419002446E+02 0. -1.
        -24    1    1    2    0    0 -0.11934711187E+02 -0.38024426681E+00 -0.51096305541E+02  0.96024113175E+02  0.80419002446E+02 0.  1.
<mgrwt>
<rscale>  0 0.81300663E+02</rscale>
<asrwt>0</asrwt>
<pdfrwt beam="1">  1        2 0.24098305E-01 0.81300663E+02</pdfrwt>
<pdfrwt beam="2">  1       -2 0.13211666E-01 0.81300663E+02</pdfrwt>
<totfact> 0.85643560E+03</totfact>
</mgrwt>
</event>
<event>
 4    1  0.4941530E-001  0.9273151E+02  0.7546771E-02  0.1296369E+00
         -2   -1    0    0    0  501 -0.00000000000E+00  0.00000000000E+00  0.87713344949E+01  0.87713344949E+01  0.00000000000E+00 0.  1.
          2   -1    0    0  501    0  0.00000000000E+00 -0.00000000000E+00 -0.10211000581E+04  0.10211000581E+04  0.00000000000E+00 0. -1.
         24    1    1    2    0    0  0.18057980159E+02  0.42494961769E+02 -0.40331740407E+03  0.41384061763E+03  0.80419002446E+02 0.  1.
        -24    1    1    2    0    0 -0.18057980159E+02 -0.42494961769E+02 -0.60901131953E+03  0.61603077496E+03  0.80419002446E+02 0.  1.
<mgrwt>
<rscale>  0 0.92731497E+02</rscale>
<asrwt>0</asrwt>
<pdfrwt beam="1">  1        2 0.15709229E+00 0.92731509E+02</pdfrwt>
<pdfrwt beam="2">  1       -2 0.13494363E-02 0.92731509E+02</pdfrwt>
<totfact> 0.32091365E+04</totfact>
</mgrwt>
</event>
<event>
 4    1  0.4941530E-001  0.1619759E+03  0.7546771E-02  0.1186484E+00
          1   -1    0    0  501    0  0.00000000000E+00  0.00000000000E+00  0.13908118219E+04  0.13908118219E+04  0.00000000000E+00 0. -1.
         -1   -1    0    0    0  501 -0.00000000000E+00 -0.00000000000E+00 -0.18863969992E+02  0.18863969992E+02  0.00000000000E+00 0.  1.
         24    1    1    2    0    0  0.11748864790E+03  0.77235851817E+02  0.68701580372E+03  0.70585188935E+03  0.80419002446E+02 0. -1.
        -24    1    1    2    0    0 -0.11748864790E+03 -0.77235851817E+02  0.68493204815E+03  0.70382390250E+03  0.80419002446E+02 0.  1.
<mgrwt>
<rscale>  0 0.16197587E+03</rscale>
<asrwt>0</asrwt>
<pdfrwt beam="1">  1        1 0.21397097E+00 0.16197589E+03</pdfrwt>
<pdfrwt beam="2">  1       -1 0.29021503E-02 0.16197589E+03</pdfrwt>
<totfact> 0.33291373E+03</totfact>
</mgrwt>
</event>
<event>
 4    1  0.4941530E-001  0.8652541E+02  0.7546771E-02  0.1311491E+00
         -2   -1    0    0    0  501 -0.00000000000E+00  0.00000000000E+00  0.95206689602E+01  0.95206689602E+01  0.00000000000E+00 0.  1.
          2   -1    0    0  501    0  0.00000000000E+00 -0.00000000000E+00 -0.12599786090E+04  0.12599786090E+04  0.00000000000E+00 0. -1.
         24    1    1    2    0    0 -0.25714924165E+02 -0.18925387425E+02 -0.23606136243E+03  0.25141919258E+03  0.80419002446E+02 0.  1.
        -24    1    1    2    0    0  0.25714924165E+02  0.18925387425E+02 -0.10143965776E+04  0.10180800854E+04  0.80419002446E+02 0.  0.
<mgrwt>
<rscale>  0 0.86525403E+02</rscale>
<asrwt>0</asrwt>
<pdfrwt beam="1">  1        2 0.19384288E+00 0.86525414E+02</pdfrwt>
<pdfrwt beam="2">  1       -2 0.14647181E-02 0.86525414E+02</pdfrwt>
<totfact> 0.20921873E+04</totfact>
</mgrwt>
</event>
<event>
 4    1  0.4941530E-001  0.1230948E+03  0.7546771E-02  0.1238077E+00
         -3   -1    0    0    0  501 -0.00000000000E+00  0.00000000000E+00  0.57890825405E+03  0.57890825405E+03  0.00000000000E+00 0.  1.
          3   -1    0    0  501    0  0.00000000000E+00 -0.00000000000E+00 -0.30832154197E+02  0.30832154197E+02  0.00000000000E+00 0. -1.
         24    1    1    2    0    0 -0.96811630735E+01 -0.92689709054E+02  0.39253896853E+03  0.41138687978E+03  0.80419002446E+02 0.  1.
        -24    1    1    2    0    0  0.96811630735E+01  0.92689709054E+02  0.15553713133E+03  0.19835352848E+03  0.80419002446E+02 0. -1.
<mgrwt>
<rscale>  0 0.12309477E+03</rscale>
<asrwt>0</asrwt>
<pdfrwt beam="1">  1        3 0.47434088E-02 0.12309477E+03</pdfrwt>
<pdfrwt beam="2">  1       -3 0.89062800E-01 0.12309477E+03</pdfrwt>
<totfact> 0.66477669E+02</totfact>
</mgrwt>
</event>
<event>
 4    1  0.4941530E-001  0.9037336E+02  0.7546771E-02  0.1301950E+00
         -1   -1    0    0    0  501 -0.00000000000E+00  0.00000000000E+00  0.29328509143E+02  0.29328509143E+02  0.00000000000E+00 0.  1.
          1   -1    0    0  501    0  0.00000000000E+00 -0.00000000000E+00 -0.28606513298E+03  0.28606513298E+03  0.00000000000E+00 0. -1.
         24    1    1    2    0    0 -0.34267161776E+02  0.22932305852E+02 -0.10268630729E+03  0.13679116450E+03  0.80419002446E+02 0.  1.
        -24    1    1    2    0    0  0.34267161776E+02 -0.22932305852E+02 -0.15405031655E+03  0.17860247762E+03  0.80419002446E+02 0. -1.
<mgrwt>
<rscale>  0 0.90373364E+02</rscale>
<asrwt>0</asrwt>
<pdfrwt beam="1">  1        1 0.44010020E-01 0.90373364E+02</pdfrwt>
<pdfrwt beam="2">  1       -1 0.45120784E-02 0.90373364E+02</pdfrwt>
<totfact> 0.17191736E+04</totfact>
</mgrwt>
</event>
<event>
 4    1  0.4941530E-001  0.8864600E+02  0.7546771E-02  0.1306164E+00
          2   -1    0    0  501    0  0.00000000000E+00  0.00000000000E+00  0.64849146585E+03  0.64849146585E+03  0.00000000000E+00 0. -1.
         -2   -1    0    0    0  501 -0.00000000000E+00 -0.00000000000E+00 -0.14514041030E+02  0.14514041030E+02  0.00000000000E+00 0.  1.
         24    1    1    2    0    0 -0.13817412685E+01  0.37269133626E+02  0.45169344856E+03  0.46030977065E+03  0.80419002446E+02 0. -1.
        -24    1    1    2    0    0  0.13817412685E+01 -0.37269133626E+02  0.18228397626E+03  0.20269573623E+03  0.80419002446E+02 0.  1.
<mgrwt>
<rscale>  0 0.88646001E+02</rscale>
<asrwt>0</asrwt>
<pdfrwt beam="1">  1        2 0.99767895E-01 0.88646001E+02</pdfrwt>
<pdfrwt beam="2">  1       -2 0.22329299E-02 0.88646001E+02</pdfrwt>
<totfact> 0.27243990E+04</totfact>
</mgrwt>
</event>
<event>
 4    1  0.4941530E-001  0.1059482E+03  0.7546771E-02  0.1268263E+00
         -1   -1    0    0    0  501 -0.00000000000E+00  0.00000000000E+00  0.61220774360E+03  0.61220774360E+03  0.00000000000E+00 0.  1.
          1   -1    0    0  501    0  0.00000000000E+00 -0.00000000000E+00 -0.25867756756E+02  0.25867756756E+02  0.00000000000E+00 0. -1.
         24    1    1    2    0    0  0.41549336025E+02  0.55058649141E+02  0.46532939928E+03  0.47723837645E+03  0.80419002446E+02 0. -1.
        -24    1    1    2    0    0 -0.41549336025E+02 -0.55058649141E+02  0.12101058757E+03  0.16083712391E+03  0.80419002446E+02 0. -1.
<mgrwt>
<rscale>  0 0.10594819E+03</rscale>
<asrwt>0</asrwt>
<pdfrwt beam="1">  1        1 0.39796554E-02 0.10594819E+03</pdfrwt>
<pdfrwt beam="2">  1       -1 0.94185795E-01 0.10594819E+03</pdfrwt>
<totfact> 0.25120604E+03</totfact>
</mgrwt>
</event>
<event>
 4    1  0.4941530E-001  0.9378746E+02  0.7546771E-02  0.1293931E+00
         -1   -1    0    0    0  501 -0.00000000000E+00  0.00000000000E+00  0.12636312252E+03  0.12636312252E+03  0.00000000000E+00 0.  1.
          1   -1    0    0  501    0  0.00000000000E+00 -0.00000000000E+00 -0.70617075456E+02  0.70617075456E+02  0.00000000000E+00 0. -1.
         24    1    1    2    0    0  0.48115106492E+02 -0.37159702316E+01  0.39636954750E+02  0.10181933040E+03  0.80419002446E+02 0.  0.
        -24    1    1    2    0    0 -0.48115106492E+02  0.37159702316E+01  0.16109092314E+02  0.95160867572E+02  0.80419002446E+02 0. -1.
<mgrwt>
<rscale>  0 0.93787461E+02</rscale>
<asrwt>0</asrwt>
<pdfrwt beam="1">  1        1 0.10864165E-01 0.93787461E+02</pdfrwt>
<pdfrwt beam="2">  1       -1 0.19440480E-01 0.93787461E+02</pdfrwt>
<totfact> 0.10972705E+04</totfact>
</mgrwt>
</event>
<event>
 4    1  0.4941530E-001  0.9579168E+02  0.7546771E-02  0.1289403E+00
          2   -1    0    0  501    0  0.00000000000E+00  0.00000000000E+00  0.45435230597E+03  0.45435230597E+03  0.00000000000E+00 0. -1.
         -2   -1    0    0    0  501 -0.00000000000E+00 -0.00000000000E+00 -0.29091271862E+02  0.29091271862E+02  0.00000000000E+00 0.  1.
         24    1    1    2    0    0  0.41879312368E+02  0.30902329759E+02  0.34629526229E+03  0.35929995189E+03  0.80419002446E+02 0.  0.
        -24    1    1    2    0    0 -0.41879312368E+02 -0.30902329759E+02  0.78965771816E+02  0.12414362594E+03  0.80419002446E+02 0.  0.
<mgrwt>
<rscale>  0 0.95791684E+02</rscale>
<asrwt>0</asrwt>
<pdfrwt beam="1">  1        2 0.69900350E-01 0.95791684E+02</pdfrwt>
<pdfrwt beam="2">  1       -2 0.44755806E-02 0.95791684E+02</pdfrwt>
<totfact> 0.14724973E+04</totfact>
</mgrwt>
</event>
<event>
 4    1  0.4941530E-001  0.9064941E+02  0.7546771E-02  0.1301287E+00
         -2   -1    0    0    0  501 -0.00000000000E+00  0.00000000000E+00  0.40981836844E+01  0.40981836844E+01  0.00000000000E+00 0.  1.
          2   -1    0    0  501    0  0.00000000000E+00 -0.00000000000E+00 -0.20161039033E+04  0.20161039033E+04  0.00000000000E+00 0. -1.
         24    1    1    2    0    0  0.95275789581E+01  0.40734757844E+02 -0.93141398064E+03  0.93581478646E+03  0.80419002446E+02 0.  0.
        -24    1    1    2    0    0 -0.95275789581E+01 -0.40734757844E+02 -0.10805917389E+04  0.10843873005E+04  0.80419002446E+02 0.  0.
<mgrwt>
<rscale>  0 0.90649397E+02</rscale>
<asrwt>0</asrwt>
<pdfrwt beam="1">  1        2 0.31016904E+00 0.90649409E+02</pdfrwt>
<pdfrwt beam="2">  1       -2 0.63049141E-03 0.90649409E+02</pdfrwt>
<totfact> 0.28527269E+04</totfact>
</mgrwt>
</event>
<event>
 4    1  0.4941530E-001  0.9596196E+02  0.7546771E-02  0.1289024E+00
         -2   -1    0    0    0  501 -0.00000000000E+00  0.00000000000E+00  0.24333615332E+02  0.24333615332E+02  0.00000000000E+00 0.  1.
          2   -1    0    0  501    0  0.00000000000E+00 -0.00000000000E+00 -0.71442646774E+03  0.71442646774E+03  0.00000000000E+00 0. -1.
         24    1    1    2    0    0 -0.28489502093E+02 -0.43929832536E+02 -0.59836009154E+03  0.60600618563E+03  0.80419002446E+02 0. -1.
        -24    1    1    2    0    0  0.28489502093E+02  0.43929832536E+02 -0.91732760869E+02  0.13275389745E+03  0.80419002446E+02 0.  1.
<mgrwt>
<rscale>  0 0.95961961E+02</rscale>
<asrwt>0</asrwt>
<pdfrwt beam="1">  1        2 0.10991177E+00 0.95961961E+02</pdfrwt>
<pdfrwt beam="2">  1       -2 0.37436330E-02 0.95961961E+02</pdfrwt>
<totfact> 0.11575787E+04</totfact>
</mgrwt>
</event>
<event>
 4    1  0.4941530E-001  0.8419841E+02  0.7546771E-02  0.1317542E+00
         -4   -1    0    0    0  501 -0.00000000000E+00  0.00000000000E+00  0.51942145191E+02  0.51942145191E+02  0.00000000000E+00 0.  1.
          4   -1    0    0  501    0  0.00000000000E+00 -0.00000000000E+00 -0.15085445978E+03  0.15085445978E+03  0.00000000000E+00 0. -1.
         24    1    1    2    0    0 -0.13289623630E+02  0.21107862736E+02 -0.80749920713E+02  0.11666156872E+03  0.80419002446E+02 0. -1.
        -24    1    1    2    0    0  0.13289623630E+02 -0.21107862736E+02 -0.18162393878E+02  0.86135036259E+02  0.80419002446E+02 0.  1.
<mgrwt>
<rscale>  0 0.84198408E+02</rscale>
<asrwt>0</asrwt>
<pdfrwt beam="1">  1        4 0.23208378E-01 0.84198408E+02</pdfrwt>
<pdfrwt beam="2">  1       -4 0.79910993E-02 0.84198408E+02</pdfrwt>
<totfact> 0.27585161E+03</totfact>
</mgrwt>
</event>
<event>
 4    1  0.4941530E-001  0.9198707E+02  0.7546771E-02  0.1298110E+00
          1   -1    0    0  501    0  0.00000000000E+00  0.00000000000E+00  0.88240675125E+03  0.88240675125E+03  0.00000000000E+00 0. -1.
         -1   -1    0    0    0  501 -0.00000000000E+00 -0.00000000000E+00 -0.10281135126E+02  0.10281135126E+02  0.00000000000E+00 0.  1.
         24    1    1    2    0    0 -0.43977336781E+02 -0.77716873117E+01  0.32027434341E+03  0.33322256268E+03  0.80419002446E+02 0.  0.
        -24    1    1    2    0    0  0.43977336781E+02  0.77716873117E+01  0.55185127271E+03  0.55946532370E+03  0.80419002446E+02 0.  1.
<mgrwt>
<rscale>  0 0.91987071E+02</rscale>
<asrwt>0</asrwt>
<pdfrwt beam="1">  1        1 0.13575483E+00 0.91987071E+02</pdfrwt>
<pdfrwt beam="2">  1       -1 0.15817138E-02 0.91987071E+02</pdfrwt>
<totfact> 0.17593423E+04</totfact>
</mgrwt>
</event>
<event>
 4    1  0.4941530E-001  0.8185572E+02  0.7546771E-02  0.1323866E+00
          2   -1    0    0  501    0  0.00000000000E+00  0.00000000000E+00  0.35218096664E+03  0.35218096664E+03  0.00000000000E+00 0. -1.
         -2   -1    0    0    0  501 -0.00000000000E+00 -0.00000000000E+00 -0.19785817488E+02  0.19785817488E+02  0.00000000000E+00 0.  1.
         24    1    1    2    0    0 -0.14993276977E+02 -0.28886450896E+01  0.20265983863E+03  0.21856662319E+03  0.80419002446E+02 0. -1.
        -24    1    1    2    0    0  0.14993276977E+02  0.28886450896E+01  0.12973531052E+03  0.15340016094E+03  0.80419002446E+02 0.  1.
<mgrwt>
<rscale>  0 0.81855718E+02</rscale>
<asrwt>0</asrwt>
<pdfrwt beam="1">  1        2 0.54181683E-01 0.81855718E+02</pdfrwt>
<pdfrwt beam="2">  1       -2 0.30439722E-02 0.81855718E+02</pdfrwt>
<totfact> 0.33305236E+04</totfact>
</mgrwt>
</event>
<event>
 4    1  0.4941530E-001  0.1012440E+03  0.7546771E-02  0.1277702E+00
          2   -1    0    0  501    0  0.00000000000E+00  0.00000000000E+00  0.10160370587E+04  0.10160370587E+04  0.00000000000E+00 0. -1.
         -2   -1    0    0    0  501 -0.00000000000E+00 -0.00000000000E+00 -0.11072163237E+02  0.11072163237E+02  0.00000000000E+00 0.  1.
         24    1    1    2    0    0 -0.32784414472E+01  0.61419608780E+02  0.34941446612E+03  0.36378675293E+03  0.80419002446E+02 0.  1.
        -24    1    1    2    0    0  0.32784414472E+01 -0.61419608780E+02  0.65555042939E+03  0.66332246905E+03  0.80419002446E+02 0. -1.
<mgrwt>
<rscale>  0 0.10124394E+03</rscale>
<asrwt>0</asrwt>
<pdfrwt beam="1">  1        2 0.15631332E+00 0.10124395E+03</pdfrwt>
<pdfrwt beam="2">  1       -2 0.17034105E-02 0.10124395E+03</pdfrwt>
<totfact> 0.23344643E+04</totfact>
</mgrwt>
</event>
<event>
 4    1  0.4941530E-001  0.8146352E+02  0.7546771E-02  0.1324949E+00
          1   -1    0    0  501    0  0.00000000000E+00  0.00000000000E+00  0.11755421505E+04  0.11755421505E+04  0.00000000000E+00 0. -1.
         -1   -1    0    0    0  501 -0.00000000000E+00 -0.00000000000E+00 -0.68359574246E+01  0.68359574246E+01  0.00000000000E+00 0.  1.
         24    1    1    2    0    0 -0.90940736347E+01 -0.92944697767E+01  0.33762565563E+03  0.34731453848E+03  0.80419002446E+02 0.  0.
        -24    1    1    2    0    0  0.90940736347E+01  0.92944697767E+01  0.83108053747E+03  0.83506356947E+03  0.80419002446E+02 0. -1.
<mgrwt>
<rscale>  0 0.81463521E+02</rscale>
<asrwt>0</asrwt>
<pdfrwt beam="1">  1        1 0.18085248E+00 0.81463521E+02</pdfrwt>
<pdfrwt beam="2">  1       -1 0.10516867E-02 0.81463521E+02</pdfrwt>
<totfact> 0.19159697E+04</totfact>
</mgrwt>
</event>
<event>
 4    1  0.4941530E-001  0.8708561E+02  0.7546771E-02  0.1310067E+00
         -1   -1    0    0    0  501 -0.00000000000E+00  0.00000000000E+00  0.12625751889E+02  0.12625751889E+02  0.00000000000E+00 0.  1.
          1   -1    0    0  501    0  0.00000000000E+00 -0.00000000000E+00 -0.68098942274E+03  0.68098942274E+03  0.00000000000E+00 0. -1.
         24    1    1    2    0    0  0.20709707403E+02  0.26225865213E+02 -0.21507681264E+03  0.23203865901E+03  0.80419002446E+02 0.  1.
        -24    1    1    2    0    0 -0.20709707403E+02 -0.26225865213E+02 -0.45328685821E+03  0.46157651562E+03  0.80419002446E+02 0. -1.
<mgrwt>
<rscale>  0 0.87085613E+02</rscale>
<asrwt>0</asrwt>
<pdfrwt beam="1">  1        1 0.10476764E+00 0.87085613E+02</pdfrwt>
<pdfrwt beam="2">  1       -1 0.19424227E-02 0.87085613E+02</pdfrwt>
<totfact> 0.19101989E+04</totfact>
</mgrwt>
</event>
<event>
 4    1  0.4941530E-001  0.2043240E+03  0.7546771E-02  0.1146141E+00
          2   -1    0    0  501    0  0.00000000000E+00  0.00000000000E+00  0.16689721712E+04  0.16689721712E+04  0.00000000000E+00 0. -1.
         -2   -1    0    0    0  501 -0.00000000000E+00 -0.00000000000E+00 -0.25701194509E+02  0.25701194509E+02  0.00000000000E+00 0.  1.
         24    1    1    2    0    0 -0.18627519712E+03 -0.24137418104E+02  0.96015267283E+03  0.98165240035E+03  0.80419002446E+02 0. -1.
        -24    1    1    2    0    0  0.18627519712E+03  0.24137418104E+02  0.68311830384E+03  0.71302096534E+03  0.80419002446E+02 0.  1.
<mgrwt>
<rscale>  0 0.20432396E+03</rscale>
<asrwt>0</asrwt>
<pdfrwt beam="1">  1        2 0.25676486E+00 0.20432396E+03</pdfrwt>
<pdfrwt beam="2">  1       -2 0.39540312E-02 0.20432396E+03</pdfrwt>
<totfact> 0.31005781E+03</totfact>
</mgrwt>
</event>
<event>
 4    1  0.4941530E-001  0.9091539E+02  0.7546771E-02  0.1300650E+00
          4   -1    0    0  501    0  0.00000000000E+00  0.00000000000E+00  0.14298628587E+03  0.14298628587E+03  0.00000000000E+00 0. -1.
         -4   -1    0    0    0  501 -0.00000000000E+00 -0.00000000000E+00 -0.62847013269E+02  0.62847013269E+02  0.00000000000E+00 0.  1.
         24    1    1    2    0    0  0.41674097179E+02  0.78525132175E+01  0.69214305986E+02  0.11426385451E+03  0.80419002446E+02 0. -1.
        -24    1    1    2    0    0 -0.41674097179E+02 -0.78525132175E+01  0.10924966611E+02  0.91569444627E+02  0.80419002446E+02 0.  1.
<mgrwt>
<rscale>  0 0.90915391E+02</rscale>
<asrwt>0</asrwt>
<pdfrwt beam="1">  1        4 0.21997890E-01 0.90915391E+02</pdfrwt>
<pdfrwt beam="2">  1       -4 0.96687713E-02 0.90915391E+02</pdfrwt>
<totfact> 0.22654640E+03</totfact>
</mgrwt>
</event>
<event>
 4    1  0.4941530E-001  0.9103808E+02  0.7546771E-02  0.1300357E+00
         -2   -1    0    0    0  501 -0.00000000000E+00  0.00000000000E+00  0.10494222730E+02  0.10494222730E+02  0.00000000000E+00 0.  1.
          2   -1    0    0  501    0  0.00000000000E+00 -0.00000000000E+00 -0.10287089725E+04  0.10287089725E+04  0.00000000000E+00 0. -1.
         24    1    1    2    0    0 -0.40313591045E+02  0.13983232740E+02 -0.75953111404E+03  0.76496761080E+03  0.80419002446E+02 0. -1.
        -24    1    1    2    0    0  0.40313591045E+02 -0.13983232740E+02 -0.25868363576E+03  0.27423558446E+03  0.80419002446E+02 0.  1.
<mgrwt>
<rscale>  0 0.91038082E+02</rscale>
<asrwt>0</asrwt>
<pdfrwt beam="1">  1        2 0.15826288E+00 0.91038082E+02</pdfrwt>
<pdfrwt beam="2">  1       -2 0.16144962E-02 0.91038082E+02</pdfrwt>
<totfact> 0.24554565E+04</totfact>
</mgrwt>
</event>
<event>
 4    1  0.4941530E-001  0.1217544E+03  0.7546771E-02  0.1240231E+00
          4   -1    0    0  501    0  0.00000000000E+00  0.00000000000E+00  0.82612508384E+03  0.82612508384E+03  0.00000000000E+00 0. -1.
         -4   -1    0    0    0  501 -0.00000000000E+00 -0.00000000000E+00 -0.20820323853E+02  0.20820323853E+02  0.00000000000E+00 0.  1.
         24    1    1    2    0    0  0.88301268904E+02 -0.23659926767E+02  0.56004644677E+03  0.57312838415E+03  0.80419002446E+02 0. -1.
        -24    1    1    2    0    0 -0.88301268904E+02  0.23659926767E+02  0.24525831321E+03  0.27381702354E+03  0.80419002446E+02 0.  1.
<mgrwt>
<rscale>  0 0.12175435E+03</rscale>
<asrwt>0</asrwt>
<pdfrwt beam="1">  1        4 0.12709614E+00 0.12175435E+03</pdfrwt>
<pdfrwt beam="2">  1       -4 0.32031274E-02 0.12175435E+03</pdfrwt>
<totfact> 0.38305175E+02</totfact>
</mgrwt>
</event>
<event>
 4    1  0.4941530E-001  0.1001228E+03  0.7546771E-02  0.1280038E+00
         -1   -1    0    0    0  501 -0.00000000000E+00  0.00000000000E+00  0.13655733428E+02  0.13655733428E+02  0.00000000000E+00 0.  1.
          1   -1    0    0  501    0  0.00000000000E+00 -0.00000000000E+00 -0.75000562307E+03  0.75000562307E+03  0.00000000000E+00 0. -1.
         24    1    1    2    0    0 -0.43746171550E+02  0.40541780003E+02 -0.31255784206E+03  0.32820265697E+03  0.80419002446E+02 0.  1.
        -24    1    1    2    0    0  0.43746171550E+02 -0.40541780003E+02 -0.42379204758E+03  0.43545869953E+03  0.80419002446E+02 0. -1.
<mgrwt>
<rscale>  0 0.10012282E+03</rscale>
<asrwt>0</asrwt>
<pdfrwt beam="1">  1        1 0.11538551E+00 0.10012282E+03</pdfrwt>
<pdfrwt beam="2">  1       -1 0.21008814E-02 0.10012282E+03</pdfrwt>
<totfact> 0.15079399E+04</totfact>
</mgrwt>
</event>
<event>
 4    1  0.4941530E-001  0.1168571E+03  0.7546771E-02  0.1248374E+00
          1   -1    0    0  501    0  0.00000000000E+00  0.00000000000E+00  0.11437404644E+04  0.11437404644E+04  0.00000000000E+00 0. -1.
         -1   -1    0    0    0  501 -0.00000000000E+00 -0.00000000000E+00 -0.12212860766E+02  0.12212860766E+02  0.00000000000E+00 0.  1.
         24    1    1    2    0    0  0.83884319249E+02  0.12320250158E+02  0.65224926565E+03  0.66263465656E+03  0.80419002446E+02 0.  1.
        -24    1    1    2    0    0 -0.83884319249E+02 -0.12320250158E+02  0.47927833801E+03  0.49331866863E+03  0.80419002446E+02 0.  0.
<mgrwt>
<rscale>  0 0.11685712E+03</rscale>
<asrwt>0</asrwt>
<pdfrwt beam="1">  1        1 0.17595999E+00 0.11685714E+03</pdfrwt>
<pdfrwt beam="2">  1       -1 0.18789026E-02 0.11685714E+03</pdfrwt>
<totfact> 0.90603237E+03</totfact>
</mgrwt>
</event>
<event>
 4    1  0.4941530E-001  0.1198892E+03  0.7546771E-02  0.1243280E+00
          1   -1    0    0  501    0  0.00000000000E+00  0.00000000000E+00  0.18218771148E+03  0.18218771148E+03  0.00000000000E+00 0. -1.
         -1   -1    0    0    0  501 -0.00000000000E+00 -0.00000000000E+00 -0.11260077593E+03  0.11260077593E+03  0.00000000000E+00 0.  1.
         24    1    1    2    0    0 -0.87484935967E+02 -0.15893215777E+02  0.11543740593E+03  0.16643082338E+03  0.80419002446E+02 0.  0.
        -24    1    1    2    0    0  0.87484935967E+02  0.15893215777E+02 -0.45850470373E+02  0.12835766404E+03  0.80419002446E+02 0.  0.
<mgrwt>
<rscale>  0 0.11988923E+03</rscale>
<asrwt>0</asrwt>
<pdfrwt beam="1">  1        1 0.28028878E-01 0.11988925E+03</pdfrwt>
<pdfrwt beam="2">  1       -1 0.17323196E-01 0.11988925E+03</pdfrwt>
<totfact> 0.40160266E+03</totfact>
</mgrwt>
</event>
<event>
 4    1  0.4941530E-001  0.9517870E+02  0.7546771E-02  0.1290774E+00
          2   -1    0    0  501    0  0.00000000000E+00  0.00000000000E+00  0.19989304444E+03  0.19989304444E+03  0.00000000000E+00 0. -1.
         -2   -1    0    0    0  501 -0.00000000000E+00 -0.00000000000E+00 -0.28619130709E+03  0.28619130709E+03  0.00000000000E+00 0.  1.
         24    1    1    2    0    0 -0.69534258793E+01 -0.50432312918E+02  0.17982101556E+03  0.20345658483E+03  0.80419002446E+02 0. -1.
        -24    1    1    2    0    0  0.69534258793E+01  0.50432312918E+02 -0.26611927822E+03  0.28262776670E+03  0.80419002446E+02 0.  1.
<mgrwt>
<rscale>  0 0.95178697E+02</rscale>
<asrwt>0</asrwt>
<pdfrwt beam="1">  1        2 0.30752776E-01 0.95178697E+02</pdfrwt>
<pdfrwt beam="2">  1       -2 0.44029432E-01 0.95178697E+02</pdfrwt>
<totfact> 0.82746508E+02</totfact>
</mgrwt>
</event>
<event>
 4    1  0.4941530E-001  0.9947015E+02  0.7546771E-02  0.1281414E+00
         -2   -1    0    0    0  501 -0.00000000000E+00  0.00000000000E+00  0.37565242005E+02  0.37565242005E+02  0.00000000000E+00 0.  1.
          2   -1    0    0  501    0  0.00000000000E+00 -0.00000000000E+00 -0.31769219708E+03  0.31769219708E+03  0.00000000000E+00 0. -1.
         24    1    1    2    0    0 -0.47424238876E+02  0.34322544236E+02 -0.21350105854E+03  0.23553558845E+03  0.80419002446E+02 0.  0.
        -24    1    1    2    0    0  0.47424238876E+02 -0.34322544236E+02 -0.66625896537E+02  0.11972185063E+03  0.80419002446E+02 0. -1.
<mgrwt>
<rscale>  0 0.99470153E+02</rscale>
<asrwt>0</asrwt>
<pdfrwt beam="1">  1        2 0.48875722E-01 0.99470153E+02</pdfrwt>
<pdfrwt beam="2">  1       -2 0.57792681E-02 0.99470153E+02</pdfrwt>
<totfact> 0.14723945E+04</totfact>
</mgrwt>
</event>
<event>
 4    1  0.4941530E-001  0.1369420E+03  0.7546771E-02  0.1217504E+00
         -2   -1    0    0    0  501 -0.00000000000E+00  0.00000000000E+00  0.72868920860E+02  0.72868920860E+02  0.00000000000E+00 0.  1.
          2   -1    0    0  501    0  0.00000000000E+00 -0.00000000000E+00 -0.27222796210E+03  0.27222796210E+03  0.00000000000E+00 0. -1.
         24    1    1    2    0    0  0.28603560793E+02  0.10708754697E+03 -0.14001202455E+03  0.19584812835E+03  0.80419002446E+02 0. -1.
        -24    1    1    2    0    0 -0.28603560793E+02 -0.10708754697E+03 -0.59347016690E+02  0.14924875461E+03  0.80419002446E+02 0.  0.
<mgrwt>
<rscale>  0 0.13694204E+03</rscale>
<asrwt>0</asrwt>
<pdfrwt beam="1">  1        2 0.41881226E-01 0.13694204E+03</pdfrwt>
<pdfrwt beam="2">  1       -2 0.11210603E-01 0.13694204E+03</pdfrwt>
<totfact> 0.64014000E+03</totfact>
</mgrwt>
</event>
<event>
 4    1  0.4941530E-001  0.8540230E+02  0.7546771E-02  0.1314384E+00
          2   -1    0    0  501    0  0.00000000000E+00  0.00000000000E+00  0.16356884923E+04  0.16356884923E+04  0.00000000000E+00 0. -1.
         -2   -1    0    0    0  501 -0.00000000000E+00 -0.00000000000E+00 -0.47510672904E+01  0.47510672904E+01  0.00000000000E+00 0.  1.
         24    1    1    2    0    0  0.15994048213E+02 -0.23885701302E+02  0.10188299881E+04  0.10224030991E+04  0.80419002446E+02 0. -1.
        -24    1    1    2    0    0 -0.15994048213E+02  0.23885701302E+02  0.61210743693E+03  0.61803646058E+03  0.80419002446E+02 0.  1.
<mgrwt>
<rscale>  0 0.85402297E+02</rscale>
<asrwt>0</asrwt>
<pdfrwt beam="1">  1        2 0.25164393E+00 0.85402297E+02</pdfrwt>
<pdfrwt beam="2">  1       -2 0.73093473E-03 0.85402297E+02</pdfrwt>
<totfact> 0.35785631E+04</totfact>
</mgrwt>
</event>
<event>
 4    1  0.4941530E-001  0.1007510E+03  0.7546771E-02  0.1278725E+00
         -4   -1    0    0    0  501 -0.00000000000E+00  0.00000000000E+00  0.27765295867E+02  0.27765295867E+02  0.00000000000E+00 0.  1.
          4   -1    0    0  501    0  0.00000000000E+00 -0.00000000000E+00 -0.36594602974E+03  0.36594602974E+03  0.00000000000E+00 0. -1.
         24    1    1    2    0    0 -0.64318968122E+01  0.60350476218E+02 -0.17521479626E+03  0.20211627856E+03  0.80419002446E+02 0.  0.
        -24    1    1    2    0    0  0.64318968122E+01 -0.60350476218E+02 -0.16296593762E+03  0.19159504705E+03  0.80419002446E+02 0.  0.
<mgrwt>
<rscale>  0 0.10075101E+03</rscale>
<asrwt>0</asrwt>
<pdfrwt beam="1">  1        4 0.56299391E-01 0.10075101E+03</pdfrwt>
<pdfrwt beam="2">  1       -4 0.42715838E-02 0.10075101E+03</pdfrwt>
<totfact> 0.14361059E+03</totfact>
</mgrwt>
</event>
<event>
 4    1  0.4941530E-001  0.8874230E+02  0.7546771E-02  0.1305926E+00
         -1   -1    0    0    0  501 -0.00000000000E+00  0.00000000000E+00  0.13971524228E+02  0.13971524228E+02  0.00000000000E+00 0.  1.
          1   -1    0    0  501    0  0.00000000000E+00 -0.00000000000E+00 -0.10309140892E+04  0.10309140892E+04  0.00000000000E+00 0. -1.
         24    1    1    2    0    0  0.33031954085E+02 -0.17800839125E+02 -0.15674578178E+03  0.18012339083E+03  0.80419002446E+02 0.  1.
        -24    1    1    2    0    0 -0.33031954085E+02  0.17800839125E+02 -0.86019678324E+03  0.86476222264E+03  0.80419002446E+02 0. -1.
<mgrwt>
<rscale>  0 0.88742300E+02</rscale>
<asrwt>0</asrwt>
<pdfrwt beam="1">  1        1 0.15860223E+00 0.88742300E+02</pdfrwt>
<pdfrwt beam="2">  1       -1 0.21494645E-02 0.88742300E+02</pdfrwt>
<totfact> 0.88160507E+03</totfact>
</mgrwt>
</event>
<event>
 4    1  0.4941530E-001  0.1269602E+03  0.7546771E-02  0.1232037E+00
         -1   -1    0    0    0  501 -0.00000000000E+00  0.00000000000E+00  0.76543618433E+02  0.76543618433E+02  0.00000000000E+00 0.  1.
          1   -1    0    0  501    0  0.00000000000E+00 -0.00000000000E+00 -0.33291381809E+03  0.33291381809E+03  0.00000000000E+00 0. -1.
         24    1    1    2    0    0 -0.16181038149E+02 -0.96901305537E+02 -0.40833200032E+01  0.12702589684E+03  0.80419002446E+02 0.  1.
        -24    1    1    2    0    0  0.16181038149E+02  0.96901305537E+02 -0.25228687966E+03  0.28243153969E+03  0.80419002446E+02 0. -1.
<mgrwt>
<rscale>  0 0.12696025E+03</rscale>
<asrwt>0</asrwt>
<pdfrwt beam="1">  1        1 0.51217511E-01 0.12696025E+03</pdfrwt>
<pdfrwt beam="2">  1       -1 0.11775941E-01 0.12696025E+03</pdfrwt>
<totfact> 0.34900762E+03</totfact>
</mgrwt>
</event>
<event>
 4    1  0.4941530E-001  0.1247046E+03  0.7546771E-02  0.1235532E+00
          2   -1    0    0  501    0  0.00000000000E+00  0.00000000000E+00  0.20674120768E+04  0.20674120768E+04  0.00000000000E+00 0. -1.
         -2   -1    0    0    0  501 -0.00000000000E+00 -0.00000000000E+00 -0.91280979362E+01  0.91280979362E+01  0.00000000000E+00 0.  1.
         24    1    1    2    0    0 -0.26365644130E+02 -0.91590746692E+02  0.14646499645E+04  0.14699492327E+04  0.80419002446E+02 0. -1.
        -24    1    1    2    0    0  0.26365644130E+02  0.91590746692E+02  0.59363401432E+03  0.60659094205E+03  0.80419002446E+02 0.  1.
<mgrwt>
<rscale>  0 0.12470456E+03</rscale>
<asrwt>0</asrwt>
<pdfrwt beam="1">  1        2 0.31806302E+00 0.12470456E+03</pdfrwt>
<pdfrwt beam="2">  1       -2 0.14043244E-02 0.12470456E+03</pdfrwt>
<totfact> 0.87486735E+03</totfact>
</mgrwt>
</event>
<event>
 4    1  0.4941530E-001  0.9214231E+02  0.7546771E-02  0.1297745E+00
         -1   -1    0    0    0  501 -0.00000000000E+00  0.00000000000E+00  0.78661012619E+01  0.78661012619E+01  0.00000000000E+00 0.  1.
          1   -1    0    0  501    0  0.00000000000E+00 -0.00000000000E+00 -0.10843742608E+04  0.10843742608E+04  0.00000000000E+00 0. -1.
         24    1    1    2    0    0 -0.14350502042E+02  0.42626838867E+02 -0.57546347993E+03  0.58279363156E+03  0.80419002446E+02 0.  1.
        -24    1    1    2    0    0  0.14350502042E+02 -0.42626838867E+02 -0.50104467966E+03  0.50944673055E+03  0.80419002446E+02 0.  0.
<mgrwt>
<rscale>  0 0.92142294E+02</rscale>
<asrwt>0</asrwt>
<pdfrwt beam="1">  1        1 0.16682669E+00 0.92142306E+02</pdfrwt>
<pdfrwt beam="2">  1       -1 0.12101703E-02 0.92142306E+02</pdfrwt>
<totfact> 0.18339831E+04</totfact>
</mgrwt>
</event>
<event>
 4    1  0.4941530E-001  0.1064928E+03  0.7546771E-02  0.1267206E+00
          2   -1    0    0  501    0  0.00000000000E+00  0.00000000000E+00  0.12286905042E+04  0.12286905042E+04  0.00000000000E+00 0. -1.
         -2   -1    0    0    0  501 -0.00000000000E+00 -0.00000000000E+00 -0.10586517572E+02  0.10586517572E+02  0.00000000000E+00 0.  1.
         24    1    1    2    0    0 -0.41817558279E+01  0.69685152928E+02  0.83086461171E+03  0.83766146299E+03  0.80419002446E+02 0. -1.
        -24    1    1    2    0    0  0.41817558279E+01 -0.69685152928E+02  0.38723937492E+03  0.40161555879E+03  0.80419002446E+02 0.  1.
<mgrwt>
<rscale>  0 0.10649283E+03</rscale>
<asrwt>0</asrwt>
<pdfrwt beam="1">  1        2 0.18902919E+00 0.10649283E+03</pdfrwt>
<pdfrwt beam="2">  1       -2 0.16286960E-02 0.10649283E+03</pdfrwt>
<totfact> 0.18986171E+04</totfact>
</mgrwt>
</event>
<event>
 4    1  0.4941530E-001  0.8058294E+02  0.7546771E-02  0.1327405E+00
          2   -1    0    0  501    0  0.00000000000E+00  0.00000000000E+00  0.11490490839E+04  0.11490490839E+04  0.00000000000E+00 0. -1.
         -2   -1    0    0    0  501 -0.00000000000E+00 -0.00000000000E+00 -0.13478903252E+02  0.13478903252E+02  0.00000000000E+00 0.  1.
         24    1    1    2    0    0 -0.10688348008E+01  0.50250849077E+01  0.10107413236E+04  0.10139485357E+04  0.80419002446E+02 0. -1.
        -24    1    1    2    0    0  0.10688348008E+01 -0.50250849077E+01  0.12482885710E+03  0.14857945149E+03  0.80419002446E+02 0.  0.
<mgrwt>
<rscale>  0 0.80582938E+02</rscale>
<asrwt>0</asrwt>
<pdfrwt beam="1">  1        2 0.17677671E+00 0.80582938E+02</pdfrwt>
<pdfrwt beam="2">  1       -2 0.20736783E-02 0.80582938E+02</pdfrwt>
<totfact> 0.14537375E+04</totfact>
</mgrwt>
</event>
<event>
 4    1  0.4941530E-001  0.9451862E+02  0.7546771E-02  0.1292264E+00
         -1   -1    0    0    0  501 -0.00000000000E+00  0.00000000000E+00  0.17439692333E+02  0.17439692333E+02  0.00000000000E+00 0.  1.
          1   -1    0    0  501    0  0.00000000000E+00 -0.00000000000E+00 -0.82499950032E+03  0.82499950032E+03  0.00000000000E+00 0. -1.
         24    1    1    2    0    0  0.37429810792E+02  0.32642963445E+02 -0.14444044743E+03  0.17261753273E+03  0.80419002446E+02 0.  1.
        -24    1    1    2    0    0 -0.37429810792E+02 -0.32642963445E+02 -0.66311936055E+03  0.66982165991E+03  0.80419002446E+02 0. -1.
<mgrwt>
<rscale>  0 0.94518621E+02</rscale>
<asrwt>0</asrwt>
<pdfrwt beam="1">  1        1 0.12692301E+00 0.94518621E+02</pdfrwt>
<pdfrwt beam="2">  1       -1 0.26830294E-02 0.94518621E+02</pdfrwt>
<totfact> 0.91824620E+03</totfact>
</mgrwt>
</event>
<event>
 4    1  0.4941530E-001  0.1015076E+03  0.7546771E-02  0.1277157E+00
         -2   -1    0    0    0  501 -0.00000000000E+00  0.00000000000E+00  0.40179495308E+02  0.40179495308E+02  0.00000000000E+00 0.  1.
          2   -1    0    0  501    0  0.00000000000E+00 -0.00000000000E+00 -0.47893198260E+03  0.47893198260E+03  0.00000000000E+00 0. -1.
         24    1    1    2    0    0  0.88358604330E+01  0.61306694781E+02 -0.39628396285E+03  0.40907796130E+03  0.80419002446E+02 0. -1.
        -24    1    1    2    0    0 -0.88358604330E+01 -0.61306694781E+02 -0.42468524442E+02  0.11003351661E+03  0.80419002446E+02 0.  1.
<mgrwt>
<rscale>  0 0.10150763E+03</rscale>
<asrwt>0</asrwt>
<pdfrwt beam="1">  1        2 0.73681839E-01 0.10150763E+03</pdfrwt>
<pdfrwt beam="2">  1       -2 0.61814612E-02 0.10150763E+03</pdfrwt>
<totfact> 0.86328822E+03</totfact>
</mgrwt>
</event>
<event>
 4    1  0.4941530E-001  0.9975891E+02  0.7546771E-02  0.1280804E+00
          2   -1    0    0  501    0  0.00000000000E+00  0.00000000000E+00  0.26340196678E+03  0.26340196678E+03  0.00000000000E+00 0. -1.
         -2   -1    0    0    0  501 -0.00000000000E+00 -0.00000000000E+00 -0.50685073771E+02  0.50685073771E+02  0.00000000000E+00 0.  1.
         24    1    1    2    0    0  0.56786992888E+02  0.16120209175E+02  0.18559533804E+03  0.21070706955E+03  0.80419002446E+02 0.  1.
        -24    1    1    2    0    0 -0.56786992888E+02 -0.16120209175E+02  0.27121554977E+02  0.10337997100E+03  0.80419002446E+02 0.  0.
<mgrwt>
<rscale>  0 0.99758908E+02</rscale>
<asrwt>0</asrwt>
<pdfrwt beam="1">  1        2 0.40523379E-01 0.99758908E+02</pdfrwt>
<pdfrwt beam="2">  1       -2 0.77977038E-02 0.99758908E+02</pdfrwt>
<totfact> 0.11388371E+04</totfact>
</mgrwt>
</event>
<event>
 4    1  0.4941530E-001  0.1610405E+03  0.7546771E-02  0.1187527E+00
          1   -1    0    0  501    0  0.00000000000E+00  0.00000000000E+00  0.16755915698E+03  0.16755915698E+03  0.00000000000E+00 0. -1.
         -1   -1    0    0    0  501 -0.00000000000E+00 -0.00000000000E+00 -0.15847256655E+03  0.15847256655E+03  0.00000000000E+00 0.  1.
         24    1    1    2    0    0  0.35800686998E+02 -0.13485227164E+03  0.29442510227E+02  0.16370980948E+03  0.80419002446E+02 0. -1.
        -24    1    1    2    0    0 -0.35800686998E+02  0.13485227164E+03 -0.20355919799E+02  0.16232191405E+03  0.80419002446E+02 0.  1.
<mgrwt>
<rscale>  0 0.16104051E+03</rscale>
<asrwt>0</asrwt>
<pdfrwt beam="1">  1        1 0.25778332E-01 0.16104053E+03</pdfrwt>
<pdfrwt beam="2">  1       -1 0.24380395E-01 0.16104053E+03</pdfrwt>
<totfact> 0.26092622E+03</totfact>
</mgrwt>
</event>
<event>
 4    1  0.4941530E-001  0.1144722E+03  0.7546771E-02  0.1252505E+00
          1   -1    0    0  501    0  0.00000000000E+00  0.00000000000E+00  0.53859138129E+03  0.53859138129E+03  0.00000000000E+00 0. -1.
         -1   -1    0    0    0  501 -0.00000000000E+00 -0.00000000000E+00 -0.24505394932E+02  0.24505394932E+02  0.00000000000E+00 0.  1.
         24    1    1    2    0    0  0.27590876387E+02  0.76651223624E+02  0.23321782430E+03  0.25979691312E+03  0.80419002446E+02 0. -1.
        -24    1    1    2    0    0 -0.27590876387E+02 -0.76651223624E+02  0.28086816206E+03  0.30329986310E+03  0.80419002446E+02 0.  1.
<mgrwt>
<rscale>  0 0.11447219E+03</rscale>
<asrwt>0</asrwt>
<pdfrwt beam="1">  1        1 0.82860204E-01 0.11447219E+03</pdfrwt>
<pdfrwt beam="2">  1       -1 0.37700612E-02 0.11447219E+03</pdfrwt>
<totfact> 0.10323547E+04</totfact>
</mgrwt>
</event>
<event>
 4    1  0.4941530E-001  0.8268143E+02  0.7546771E-02  0.1321610E+00
         -2   -1    0    0    0  501 -0.00000000000E+00  0.00000000000E+00  0.20612107858E+03  0.20612107858E+03  0.00000000000E+00 0.  1.
          2   -1    0    0  501    0  0.00000000000E+00 -0.00000000000E+00 -0.33181286764E+02  0.33181286764E+02  0.00000000000E+00 0. -1.
         24    1    1    2    0    0  0.17996345665E+02  0.67180189887E+01  0.89036257953E+02  0.12150584933E+03  0.80419002446E+02 0.  0.
        -24    1    1    2    0    0 -0.17996345665E+02 -0.67180189887E+01  0.83903533863E+02  0.11779651602E+03  0.80419002446E+02 0. -1.
<mgrwt>
<rscale>  0 0.82681424E+02</rscale>
<asrwt>0</asrwt>
<pdfrwt beam="1">  1        2 0.51048135E-02 0.82681434E+02</pdfrwt>
<pdfrwt beam="2">  1       -2 0.31710934E-01 0.82681434E+02</pdfrwt>
<totfact> 0.12493865E+04</totfact>
</mgrwt>
</event>
<event>
 4    1  0.4941530E-001  0.1357595E+03  0.7546771E-02  0.1219152E+00
          1   -1    0    0  501    0  0.00000000000E+00  0.00000000000E+00  0.21644322756E+03  0.21644322756E+03  0.00000000000E+00 0. -1.
         -1   -1    0    0    0  501 -0.00000000000E+00 -0.00000000000E+00 -0.85364517240E+02  0.85364517240E+02  0.00000000000E+00 0.  1.
         24    1    1    2    0    0 -0.64907987298E+02 -0.88036201357E+02  0.73063667343E+02  0.15417177110E+03  0.80419002446E+02 0.  1.
        -24    1    1    2    0    0  0.64907987298E+02  0.88036201357E+02  0.58015042979E+02  0.14763597370E+03  0.80419002446E+02 0.  0.
<mgrwt>
<rscale>  0 0.13575949E+03</rscale>
<asrwt>0</asrwt>
<pdfrwt beam="1">  1        1 0.33298958E-01 0.13575951E+03</pdfrwt>
<pdfrwt beam="2">  1       -1 0.13133003E-01 0.13575951E+03</pdfrwt>
<totfact> 0.50400529E+03</totfact>
</mgrwt>
</event>
<event>
 4    1  0.4941530E-001  0.9606139E+02  0.7546771E-02  0.1288803E+00
         -2   -1    0    0    0  501 -0.00000000000E+00  0.00000000000E+00  0.10762306954E+02  0.10762306954E+02  0.00000000000E+00 0.  1.
          2   -1    0    0  501    0  0.00000000000E+00 -0.00000000000E+00 -0.11596398003E+04  0.11596398003E+04  0.00000000000E+00 0. -1.
         24    1    1    2    0    0 -0.38556581547E+02  0.35692650564E+02 -0.87318793588E+03  0.87845601063E+03  0.80419002446E+02 0. -1.
        -24    1    1    2    0    0  0.38556581547E+02 -0.35692650564E+02 -0.27568955745E+03  0.29194609661E+03  0.80419002446E+02 0.  1.
<mgrwt>
<rscale>  0 0.96061393E+02</rscale>
<asrwt>0</asrwt>
<pdfrwt beam="1">  1        2 0.17840612E+00 0.96061393E+02</pdfrwt>
<pdfrwt beam="2">  1       -2 0.16557396E-02 0.96061393E+02</pdfrwt>
<totfact> 0.20070491E+04</totfact>
</mgrwt>
</event>
<event>
 4    1  0.4941530E-001  0.1062895E+03  0.7546771E-02  0.1267600E+00
          2   -1    0    0  501    0  0.00000000000E+00  0.00000000000E+00  0.25038940646E+04  0.25038940646E+04  0.00000000000E+00 0. -1.
         -2   -1    0    0    0  501 -0.00000000000E+00 -0.00000000000E+00 -0.11451808538E+02  0.11451808538E+02  0.00000000000E+00 0.  1.
         24    1    1    2    0    0  0.28788944195E+01  0.69440358272E+02  0.22252730040E+04  0.22278100030E+04  0.80419002446E+02 0. -1.
        -24    1    1    2    0    0 -0.28788944195E+01 -0.69440358272E+02  0.26716925213E+03  0.28753587016E+03  0.80419002446E+02 0.  1.
<mgrwt>
<rscale>  0 0.10628954E+03</rscale>
<asrwt>0</asrwt>
<pdfrwt beam="1">  1        2 0.38521404E+00 0.10628954E+03</pdfrwt>
<pdfrwt beam="2">  1       -2 0.17618187E-02 0.10628954E+03</pdfrwt>
<totfact> 0.37412292E+03</totfact>
</mgrwt>
</event>
<event>
 4    1  0.4941530E-001  0.9176813E+02  0.7546771E-02  0.1298626E+00
         -2   -1    0    0    0  501 -0.00000000000E+00  0.00000000000E+00  0.55378827578E+03  0.55378827578E+03  0.00000000000E+00 0.  1.
          2   -1    0    0  501    0  0.00000000000E+00 -0.00000000000E+00 -0.12807475298E+04  0.12807475298E+04  0.00000000000E+00 0. -1.
         24    1    1    2    0    0  0.23820973962E+02 -0.37238892299E+02 -0.12752857069E+04  0.12785832097E+04  0.80419002446E+02 0. -1.
        -24    1    1    2    0    0 -0.23820973962E+02  0.37238892299E+02  0.54832645293E+03  0.55595259585E+03  0.80419002446E+02 0.  1.
<mgrwt>
<rscale>  0 0.91768131E+02</rscale>
<asrwt>0</asrwt>
<pdfrwt beam="1">  1        2 0.19703808E+00 0.91768131E+02</pdfrwt>
<pdfrwt beam="2">  1       -2 0.85198196E-01 0.91768131E+02</pdfrwt>
<totfact> 0.24914714E+01</totfact>
</mgrwt>
</event>
<event>
 4    1  0.4941530E-001  0.8322605E+02  0.7546771E-02  0.1320138E+00
          1   -1    0    0  501    0  0.00000000000E+00  0.00000000000E+00  0.88189431312E+02  0.88189431312E+02  0.00000000000E+00 0. -1.
         -1   -1    0    0    0  501 -0.00000000000E+00 -0.00000000000E+00 -0.19153665495E+03  0.19153665495E+03  0.00000000000E+00 0.  1.
         24    1    1    2    0    0  0.34510238106E+01  0.21153029884E+02 -0.15909875305E+03  0.17955219134E+03  0.80419002446E+02 0.  1.
        -24    1    1    2    0    0 -0.34510238106E+01 -0.21153029884E+02  0.55751529409E+02  0.10017389493E+03  0.80419002446E+02 0. -1.
<mgrwt>
<rscale>  0 0.83226055E+02</rscale>
<asrwt>0</asrwt>
<pdfrwt beam="1">  1        1 0.13567605E-01 0.83226055E+02</pdfrwt>
<pdfrwt beam="2">  1       -1 0.29467177E-01 0.83226055E+02</pdfrwt>
<totfact> 0.41574081E+03</totfact>
</mgrwt>
</event>
<event>
 4    1  0.4941530E-001  0.1222645E+03  0.7546771E-02  0.1239407E+00
          2   -1    0    0  501    0  0.00000000000E+00  0.00000000000E+00  0.90648031310E+03  0.90648031310E+03  0.00000000000E+00 0. -1.
         -2   -1    0    0    0  501 -0.00000000000E+00 -0.00000000000E+00 -0.26837455432E+02  0.26837455432E+02  0.00000000000E+00 0.  1.
         24    1    1    2    0    0 -0.83705853619E+02 -0.38402041136E+02  0.72957477996E+03  0.73974858040E+03  0.80419002446E+02 0. -1.
        -24    1    1    2    0    0  0.83705853619E+02  0.38402041136E+02  0.15006807771E+03  0.19356918813E+03  0.80419002446E+02 0.  1.
<mgrwt>
<rscale>  0 0.12226448E+03</rscale>
<asrwt>0</asrwt>
<pdfrwt beam="1">  1        2 0.13945849E+00 0.12226448E+03</pdfrwt>
<pdfrwt beam="2">  1       -2 0.41288400E-02 0.12226448E+03</pdfrwt>
<totfact> 0.75805264E+03</totfact>
</mgrwt>
</event>
<event>
 4    1  0.4941530E-001  0.8729311E+02  0.7546771E-02  0.1309542E+00
         -4   -1    0    0    0  501 -0.00000000000E+00  0.00000000000E+00  0.75369648960E+02  0.75369648960E+02  0.00000000000E+00 0.  1.
          4   -1    0    0  501    0  0.00000000000E+00 -0.00000000000E+00 -0.10110331723E+03  0.10110331723E+03  0.00000000000E+00 0. -1.
         24    1    1    2    0    0  0.29922222938E+02 -0.16047695563E+02 -0.12670791556E+02  0.88207895743E+02  0.80419002446E+02 0. -1.
        -24    1    1    2    0    0 -0.29922222938E+02  0.16047695563E+02 -0.13062876714E+02  0.88265070446E+02  0.80419002446E+02 0.  0.
<mgrwt>
<rscale>  0 0.87293103E+02</rscale>
<asrwt>0</asrwt>
<pdfrwt beam="1">  1        4 0.15554356E-01 0.87293114E+02</pdfrwt>
<pdfrwt beam="2">  1       -4 0.11595331E-01 0.87293114E+02</pdfrwt>
<totfact> 0.30480678E+03</totfact>
</mgrwt>
</event>
<event>
 4    1  0.4941530E-001  0.1086267E+03  0.7546771E-02  0.1263134E+00
         -1   -1    0    0    0  501 -0.00000000000E+00  0.00000000000E+00  0.74334760201E+02  0.74334760201E+02  0.00000000000E+00 0.  1.
          1   -1    0    0  501    0  0.00000000000E+00 -0.00000000000E+00 -0.24778163989E+03  0.24778163989E+03  0.00000000000E+00 0. -1.
         24    1    1    2    0    0  0.35900891229E+02  0.63589803940E+02  0.98259799371E+01  0.10907017462E+03  0.80419002446E+02 0.  1.
        -24    1    1    2    0    0 -0.35900891229E+02 -0.63589803940E+02 -0.18327285962E+03  0.21304622546E+03  0.80419002446E+02 0. -1.
<mgrwt>
<rscale>  0 0.10862667E+03</rscale>
<asrwt>0</asrwt>
<pdfrwt beam="1">  1        1 0.38120253E-01 0.10862667E+03</pdfrwt>
<pdfrwt beam="2">  1       -1 0.11436117E-01 0.10862667E+03</pdfrwt>
<totfact> 0.52057955E+03</totfact>
</mgrwt>
</event>
<event>
 4    1  0.4941530E-001  0.8791804E+02  0.7546771E-02  0.1307973E+00
          2   -1    0    0  501    0  0.00000000000E+00  0.00000000000E+00  0.43308800712E+02  0.43308800712E+02  0.00000000000E+00 0. -1.
         -2   -1    0    0    0  501 -0.00000000000E+00 -0.00000000000E+00 -0.84853901349E+03  0.84853901349E+03  0.00000000000E+00 0.  1.
         24    1    1    2    0    0 -0.35527161381E+02  0.43297862831E+00 -0.63528902719E+01  0.88147273557E+02  0.80419002446E+02 0. -1.
        -24    1    1    2    0    0  0.35527161381E+02 -0.43297862831E+00 -0.79887732250E+03  0.80370054064E+03  0.80419002446E+02 0.  1.
<mgrwt>
<rscale>  0 0.87918045E+02</rscale>
<asrwt>0</asrwt>
<pdfrwt beam="1">  1        2 0.66628926E-02 0.87918045E+02</pdfrwt>
<pdfrwt beam="2">  1       -2 0.13054446E+00 0.87918045E+02</pdfrwt>
<totfact> 0.47023530E+02</totfact>
</mgrwt>
</event>
<event>
 4    1  0.4941530E-001  0.1148390E+03  0.7546771E-02  0.1251862E+00
         -2   -1    0    0    0  501 -0.00000000000E+00  0.00000000000E+00  0.27253329314E+03  0.27253329314E+03  0.00000000000E+00 0.  1.
          2   -1    0    0  501    0  0.00000000000E+00 -0.00000000000E+00 -0.54304165675E+02  0.54304165675E+02  0.00000000000E+00 0. -1.
         24    1    1    2    0    0  0.25274153741E+02 -0.77987127667E+02  0.55186121357E+02  0.12741074866E+03  0.80419002446E+02 0. -1.
        -24    1    1    2    0    0 -0.25274153741E+02  0.77987127667E+02  0.16304300611E+03  0.19942671016E+03  0.80419002446E+02 0.  1.
<mgrwt>
<rscale>  0 0.11483898E+03</rscale>
<asrwt>0</asrwt>
<pdfrwt beam="1">  1        2 0.83544872E-02 0.11483898E+03</pdfrwt>
<pdfrwt beam="2">  1       -2 0.41928198E-01 0.11483898E+03</pdfrwt>
<totfact> 0.41226036E+03</totfact>
</mgrwt>
</event>
<event>
 4    1  0.4941530E-001  0.1136168E+03  0.7546771E-02  0.1254015E+00
          2   -1    0    0  501    0  0.00000000000E+00  0.00000000000E+00  0.21580274012E+04  0.21580274012E+04  0.00000000000E+00 0. -1.
         -2   -1    0    0    0  501 -0.00000000000E+00 -0.00000000000E+00 -0.61287502099E+01  0.61287502099E+01  0.00000000000E+00 0.  1.
         24    1    1    2    0    0 -0.39233510918E+02  0.70016348443E+02  0.90836383186E+03  0.91544176462E+03  0.80419002446E+02 0. -1.
        -24    1    1    2    0    0  0.39233510918E+02 -0.70016348443E+02  0.12435348192E+04  0.12487143868E+04  0.80419002446E+02 0.  0.
<mgrwt>
<rscale>  0 0.11361680E+03</rscale>
<asrwt>0</asrwt>
<pdfrwt beam="1">  1        2 0.33200361E+00 0.11361681E+03</pdfrwt>
<pdfrwt beam="2">  1       -2 0.94288637E-03 0.11361681E+03</pdfrwt>
<totfact> 0.13851017E+04</totfact>
</mgrwt>
</event>
<event>
 4    1  0.4941530E-001  0.8702844E+02  0.7546771E-02  0.1310212E+00
         -1   -1    0    0    0  501 -0.00000000000E+00  0.00000000000E+00  0.18499047043E+02  0.18499047043E+02  0.00000000000E+00 0.  1.
          1   -1    0    0  501    0  0.00000000000E+00 -0.00000000000E+00 -0.57222805318E+03  0.57222805318E+03  0.00000000000E+00 0. -1.
         24    1    1    2    0    0  0.32570485496E+01  0.33107767085E+02 -0.11931925308E+03  0.14768558737E+03  0.80419002446E+02 0.  1.
        -24    1    1    2    0    0 -0.32570485496E+01 -0.33107767085E+02 -0.43440975306E+03  0.44304151285E+03  0.80419002446E+02 0. -1.
<mgrwt>
<rscale>  0 0.87028435E+02</rscale>
<asrwt>0</asrwt>
<pdfrwt beam="1">  1        1 0.88035077E-01 0.87028435E+02</pdfrwt>
<pdfrwt beam="2">  1       -1 0.28460075E-02 0.87028435E+02</pdfrwt>
<totfact> 0.13999580E+04</totfact>
</mgrwt>
</event>
<event>
 4    1  0.4941530E-001  0.9614026E+02  0.7546771E-02  0.1288628E+00
         -2   -1    0    0    0  501 -0.00000000000E+00  0.00000000000E+00  0.88357531015E+01  0.88357531015E+01  0.00000000000E+00 0.  1.
          2   -1    0    0  501    0  0.00000000000E+00 -0.00000000000E+00 -0.15035001081E+04  0.15035001081E+04  0.00000000000E+00 0. -1.
         24    1    1    2    0    0  0.40681367156E+02  0.33477747945E+02 -0.11644144712E+04  0.11683766559E+04  0.80419002446E+02 0.  1.
        -24    1    1    2    0    0 -0.40681367156E+02 -0.33477747945E+02 -0.33024988374E+03  0.34395920529E+03  0.80419002446E+02 0.  0.
<mgrwt>
<rscale>  0 0.96140258E+02</rscale>
<asrwt>0</asrwt>
<pdfrwt beam="1">  1        2 0.23130791E+00 0.96140258E+02</pdfrwt>
<pdfrwt beam="2">  1       -2 0.13593454E-02 0.96140258E+02</pdfrwt>
<totfact> 0.17509790E+04</totfact>
</mgrwt>
</event>
<event>
 4    1  0.4941530E-001  0.8111520E+02  0.7546771E-02  0.1325916E+00
          2   -1    0    0  501    0  0.00000000000E+00  0.00000000000E+00  0.10942125702E+03  0.10942125702E+03  0.00000000000E+00 0. -1.
         -2   -1    0    0    0  501 -0.00000000000E+00 -0.00000000000E+00 -0.69900127999E+02  0.69900127999E+02  0.00000000000E+00 0.  1.
         24    1    1    2    0    0 -0.10230756630E+02  0.27907074186E+01 -0.13757447349E+02  0.82273566478E+02  0.80419002446E+02 0.  0.
        -24    1    1    2    0    0  0.10230756630E+02 -0.27907074186E+01  0.53278576370E+02  0.97047818541E+02  0.80419002446E+02 0. -1.
<mgrwt>
<rscale>  0 0.81115190E+02</rscale>
<asrwt>0</asrwt>
<pdfrwt beam="1">  1        2 0.16834039E-01 0.81115200E+02</pdfrwt>
<pdfrwt beam="2">  1       -2 0.10753866E-01 0.81115200E+02</pdfrwt>
<totfact> 0.17646795E+04</totfact>
</mgrwt>
</event>
<event>
 4    1  0.4941530E-001  0.8340850E+02  0.7546771E-02  0.1319648E+00
         -3   -1    0    0    0  501 -0.00000000000E+00  0.00000000000E+00  0.44649164076E+02  0.44649164076E+02  0.00000000000E+00 0.  1.
          3   -1    0    0  501    0  0.00000000000E+00 -0.00000000000E+00 -0.30619255993E+03  0.30619255993E+03  0.00000000000E+00 0. -1.
         24    1    1    2    0    0 -0.83185469107E+01  0.20507669195E+02 -0.78364453948E+01  0.83775823179E+02  0.80419002446E+02 0.  1.
        -24    1    1    2    0    0  0.83185469107E+01 -0.20507669195E+02 -0.25370695045E+03  0.26706590082E+03  0.80419002446E+02 0.  0.
<mgrwt>
<rscale>  0 0.83408505E+02</rscale>
<asrwt>0</asrwt>
<pdfrwt beam="1">  1        3 0.47106549E-01 0.83408505E+02</pdfrwt>
<pdfrwt beam="2">  1       -3 0.68691020E-02 0.83408505E+02</pdfrwt>
<totfact> 0.12966836E+03</totfact>
</mgrwt>
</event>
<event>
 4    1  0.4941530E-001  0.8978172E+02  0.7546771E-02  0.1303381E+00
          2   -1    0    0  501    0  0.00000000000E+00  0.00000000000E+00  0.17109549000E+04  0.17109549000E+04  0.00000000000E+00 0. -1.
         -2   -1    0    0    0  501 -0.00000000000E+00 -0.00000000000E+00 -0.47222369843E+01  0.47222369843E+01  0.00000000000E+00 0.  1.
         24    1    1    2    0    0 -0.37781772612E+02  0.12887147409E+02  0.89447179926E+03  0.89896638232E+03  0.80419002446E+02 0.  1.
        -24    1    1    2    0    0  0.37781772612E+02 -0.12887147409E+02  0.81176086378E+03  0.81671075469E+03  0.80419002446E+02 0. -1.
<mgrwt>
<rscale>  0 0.89781718E+02</rscale>
<asrwt>0</asrwt>
<pdfrwt beam="1">  1        2 0.26322334E+00 0.89781718E+02</pdfrwt>
<pdfrwt beam="2">  1       -2 0.72649936E-03 0.89781718E+02</pdfrwt>
<totfact> 0.33220862E+04</totfact>
</mgrwt>
</event>
<event>
 4    1  0.4941530E-001  0.8080312E+02  0.7546771E-02  0.1326788E+00
         -1   -1    0    0    0  501 -0.00000000000E+00  0.00000000000E+00  0.79799879449E+01  0.79799879449E+01  0.00000000000E+00 0.  1.
          1   -1    0    0  501    0  0.00000000000E+00 -0.00000000000E+00 -0.10907025215E+04  0.10907025215E+04  0.00000000000E+00 0. -1.
         24    1    1    2    0    0 -0.74444482657E+01  0.25512309426E+01 -0.26677268962E+03  0.27874147964E+03  0.80419002446E+02 0.  0.
        -24    1    1    2    0    0  0.74444482657E+01 -0.25512309426E+01 -0.81594984397E+03  0.81994102985E+03  0.80419002446E+02 0. -1.
<mgrwt>
<rscale>  0 0.80803122E+02</rscale>
<asrwt>0</asrwt>
<pdfrwt beam="1">  1        1 0.16780032E+00 0.80803122E+02</pdfrwt>
<pdfrwt beam="2">  1       -1 0.12276910E-02 0.80803122E+02</pdfrwt>
<totfact> 0.17593268E+04</totfact>
</mgrwt>
</event>
<event>
 4    1  0.4941530E-001  0.9219550E+02  0.7546771E-02  0.1297620E+00
          2   -1    0    0  501    0  0.00000000000E+00  0.00000000000E+00  0.59075824277E+03  0.59075824277E+03  0.00000000000E+00 0. -1.
         -2   -1    0    0    0  501 -0.00000000000E+00 -0.00000000000E+00 -0.78173839143E+02  0.78173839143E+02  0.00000000000E+00 0.  1.
         24    1    1    2    0    0 -0.23504482120E+02  0.38475097739E+02  0.55841424107E+03  0.56597391672E+03  0.80419002446E+02 0. -1.
        -24    1    1    2    0    0  0.23504482120E+02 -0.38475097739E+02 -0.45829837441E+02  0.10295816519E+03  0.80419002446E+02 0.  1.
<mgrwt>
<rscale>  0 0.92195498E+02</rscale>
<asrwt>0</asrwt>
<pdfrwt beam="1">  1        2 0.90885881E-01 0.92195498E+02</pdfrwt>
<pdfrwt beam="2">  1       -2 0.12026745E-01 0.92195498E+02</pdfrwt>
<totfact> 0.24463974E+03</totfact>
</mgrwt>
</event>
<event>
 4    1  0.4941530E-001  0.9173552E+02  0.7546771E-02  0.1298702E+00
         -1   -1    0    0    0  501 -0.00000000000E+00  0.00000000000E+00  0.11958299140E+03  0.11958299140E+03  0.00000000000E+00 0.  1.
          1   -1    0    0  501    0  0.00000000000E+00 -0.00000000000E+00 -0.86081084441E+02  0.86081084441E+02  0.00000000000E+00 0. -1.
         24    1    1    2    0    0 -0.84076757935E+01  0.43330127424E+02  0.60678528133E+02  0.10998767515E+03  0.80419002446E+02 0.  1.
        -24    1    1    2    0    0  0.84076757935E+01 -0.43330127424E+02 -0.27176621177E+02  0.95676400684E+02  0.80419002446E+02 0. -1.
<mgrwt>
<rscale>  0 0.91735516E+02</rscale>
<asrwt>0</asrwt>
<pdfrwt beam="1">  1        1 0.13243244E-01 0.91735516E+02</pdfrwt>
<pdfrwt beam="2">  1       -1 0.18397383E-01 0.91735516E+02</pdfrwt>
<totfact> 0.92415982E+03</totfact>
</mgrwt>
</event>
<event>
 4    1  0.4941530E-001  0.8283788E+02  0.7546771E-02  0.1321186E+00
          2   -1    0    0  501    0  0.00000000000E+00  0.00000000000E+00  0.20960675099E+04  0.20960675099E+04  0.00000000000E+00 0. -1.
         -2   -1    0    0    0  501 -0.00000000000E+00 -0.00000000000E+00 -0.71624176472E+01  0.71624176472E+01  0.00000000000E+00 0.  1.
         24    1    1    2    0    0 -0.86758468253E-01 -0.19871867214E+02  0.18193144763E+04  0.18211994065E+04  0.80419002446E+02 0. -1.
        -24    1    1    2    0    0  0.86758468253E-01  0.19871867214E+02  0.26959061595E+03  0.28203052103E+03  0.80419002446E+02 0.  0.
<mgrwt>
<rscale>  0 0.82837881E+02</rscale>
<asrwt>0</asrwt>
<pdfrwt beam="1">  1        2 0.32247144E+00 0.82837881E+02</pdfrwt>
<pdfrwt beam="2">  1       -2 0.11019121E-02 0.82837881E+02</pdfrwt>
<totfact> 0.11777764E+04</totfact>
</mgrwt>
</event>
<event>
 4    1  0.4941530E-001  0.8476097E+02  0.7546771E-02  0.1316059E+00
         -2   -1    0    0    0  501 -0.00000000000E+00  0.00000000000E+00  0.30487681122E+02  0.30487681122E+02  0.00000000000E+00 0.  1.
          2   -1    0    0  501    0  0.00000000000E+00 -0.00000000000E+00 -0.23658086071E+03  0.23658086071E+03  0.00000000000E+00 0. -1.
         24    1    1    2    0    0 -0.51072053568E+01  0.26289213757E+02 -0.11142272581E+03  0.13999802173E+03  0.80419002446E+02 0. -1.
        -24    1    1    2    0    0  0.51072053568E+01 -0.26289213757E+02 -0.94670453777E+02  0.12707052010E+03  0.80419002446E+02 0.  0.
<mgrwt>
<rscale>  0 0.84760971E+02</rscale>
<asrwt>0</asrwt>
<pdfrwt beam="1">  1        2 0.36397056E-01 0.84760971E+02</pdfrwt>
<pdfrwt beam="2">  1       -2 0.46904124E-02 0.84760971E+02</pdfrwt>
<totfact> 0.26907663E+04</totfact>
</mgrwt>
</event>
<event>
 4    1  0.4941530E-001  0.1017952E+03  0.7546771E-02  0.1276566E+00
         -1   -1    0    0    0  501 -0.00000000000E+00  0.00000000000E+00  0.65253792588E+02  0.65253792588E+02  0.00000000000E+00 0.  1.
          1   -1    0    0  501    0  0.00000000000E+00 -0.00000000000E+00 -0.23283033001E+03  0.23283033001E+03  0.00000000000E+00 0. -1.
         24    1    1    2    0    0 -0.60149904414E+02 -0.16644398560E+02  0.25359619724E+00  0.10179551694E+03  0.80419002446E+02 0.  1.
        -24    1    1    2    0    0  0.60149904414E+02  0.16644398560E+02 -0.16783013362E+03  0.19628860566E+03  0.80419002446E+02 0. -1.
<mgrwt>
<rscale>  0 0.10179520E+03</rscale>
<asrwt>0</asrwt>
<pdfrwt beam="1">  1        1 0.35820050E-01 0.10179520E+03</pdfrwt>
<pdfrwt beam="2">  1       -1 0.10039045E-01 0.10179520E+03</pdfrwt>
<totfact> 0.68197993E+03</totfact>
</mgrwt>
</event>
<event>
 4    1  0.4941530E-001  0.8375435E+02  0.7546771E-02  0.1318723E+00
          2   -1    0    0  501    0  0.00000000000E+00  0.00000000000E+00  0.12302818271E+03  0.12302818271E+03  0.00000000000E+00 0. -1.
         -2   -1    0    0    0  501 -0.00000000000E+00 -0.00000000000E+00 -0.24736004290E+03  0.24736004290E+03  0.00000000000E+00 0.  1.
         24    1    1    2    0    0 -0.23243075155E+02 -0.27083757820E+01  0.10028793033E+03  0.13066162698E+03  0.80419002446E+02 0. -1.
        -24    1    1    2    0    0  0.23243075155E+02  0.27083757820E+01 -0.22461979052E+03  0.23972659862E+03  0.80419002446E+02 0.  1.
<mgrwt>
<rscale>  0 0.83754354E+02</rscale>
<asrwt>0</asrwt>
<pdfrwt beam="1">  1        2 0.18927413E-01 0.83754354E+02</pdfrwt>
<pdfrwt beam="2">  1       -2 0.38055392E-01 0.83754354E+02</pdfrwt>
<totfact> 0.18418241E+03</totfact>
</mgrwt>
</event>
<event>
 4    1  0.4941530E-001  0.8350737E+02  0.7546771E-02  0.1319383E+00
         -1   -1    0    0    0  501 -0.00000000000E+00  0.00000000000E+00  0.11404092994E+02  0.11404092994E+02  0.00000000000E+00 0.  1.
          1   -1    0    0  501    0  0.00000000000E+00 -0.00000000000E+00 -0.64990465480E+03  0.64990465480E+03  0.00000000000E+00 0. -1.
         24    1    1    2    0    0 -0.18951918128E+02 -0.12128073057E+02 -0.23886035288E+03  0.25303705161E+03  0.80419002446E+02 0.  1.
        -24    1    1    2    0    0  0.18951918128E+02  0.12128073057E+02 -0.39964020893E+03  0.40827169618E+03  0.80419002446E+02 0. -1.
<mgrwt>
<rscale>  0 0.83507373E+02</rscale>
<asrwt>0</asrwt>
<pdfrwt beam="1">  1        1 0.99985341E-01 0.83507373E+02</pdfrwt>
<pdfrwt beam="2">  1       -1 0.17544757E-02 0.83507373E+02</pdfrwt>
<totfact> 0.23445949E+04</totfact>
</mgrwt>
</event>
<event>
 4    1  0.4941530E-001  0.1707801E+03  0.7546771E-02  0.1177037E+00
          1   -1    0    0  501    0  0.00000000000E+00  0.00000000000E+00  0.79129286829E+03  0.79129286829E+03  0.00000000000E+00 0. -1.
         -1   -1    0    0    0  501 -0.00000000000E+00 -0.00000000000E+00 -0.37678886389E+02  0.37678886389E+02  0.00000000000E+00 0.  1.
         24    1    1    2    0    0 -0.93207045652E+02  0.11836833596E+03  0.31564495353E+03  0.35888378197E+03  0.80419002446E+02 0.  1.
        -24    1    1    2    0    0  0.93207045652E+02 -0.11836833596E+03  0.43796902837E+03  0.47008797271E+03  0.80419002446E+02 0. -1.
<mgrwt>
<rscale>  0 0.17078007E+03</rscale>
<asrwt>0</asrwt>
<pdfrwt beam="1">  1        1 0.12173735E+00 0.17078007E+03</pdfrwt>
<pdfrwt beam="2">  1       -1 0.57967523E-02 0.17078007E+03</pdfrwt>
<totfact> 0.32537650E+03</totfact>
</mgrwt>
</event>
<event>
 4    1  0.4941530E-001  0.8623700E+02  0.7546771E-02  0.1312229E+00
          2   -1    0    0  501    0  0.00000000000E+00  0.00000000000E+00  0.23983739276E+02  0.23983739276E+02  0.00000000000E+00 0. -1.
         -2   -1    0    0    0  501 -0.00000000000E+00 -0.00000000000E+00 -0.43931151239E+03  0.43931151239E+03  0.00000000000E+00 0.  1.
         24    1    1    2    0    0 -0.16193959155E+02 -0.26596249878E+02 -0.82023352121E+02  0.11901533963E+03  0.80419002446E+02 0.  1.
        -24    1    1    2    0    0  0.16193959155E+02  0.26596249878E+02 -0.33330442099E+03  0.34427991203E+03  0.80419002446E+02 0.  0.
<mgrwt>
<rscale>  0 0.86237004E+02</rscale>
<asrwt>0</asrwt>
<pdfrwt beam="1">  1        2 0.36898061E-02 0.86237004E+02</pdfrwt>
<pdfrwt beam="2">  1       -2 0.67586386E-01 0.86237004E+02</pdfrwt>
<totfact> 0.44301262E+03</totfact>
</mgrwt>
</event>
<event>
 4    1  0.4941530E-001  0.8101666E+02  0.7546771E-02  0.1326191E+00
          1   -1    0    0  501    0  0.00000000000E+00  0.00000000000E+00  0.39227975668E+03  0.39227975668E+03  0.00000000000E+00 0. -1.
         -1   -1    0    0    0  501 -0.00000000000E+00 -0.00000000000E+00 -0.21631165537E+02  0.21631165537E+02  0.00000000000E+00 0.  1.
         24    1    1    2    0    0  0.92124040822E+01  0.34080603300E+01  0.86834873525E+02  0.11876023947E+03  0.80419002446E+02 0.  1.
        -24    1    1    2    0    0 -0.92124040822E+01 -0.34080603300E+01  0.28381371762E+03  0.29515068275E+03  0.80419002446E+02 0.  0.
<mgrwt>
<rscale>  0 0.81016660E+02</rscale>
<asrwt>0</asrwt>
<pdfrwt beam="1">  1        1 0.60350726E-01 0.81016660E+02</pdfrwt>
<pdfrwt beam="2">  1       -1 0.33278719E-02 0.81016660E+02</pdfrwt>
<totfact> 0.17940773E+04</totfact>
</mgrwt>
</event>
<event>
 4    1  0.4941530E-001  0.8134695E+02  0.7546771E-02  0.1325272E+00
         -1   -1    0    0    0  501 -0.00000000000E+00  0.00000000000E+00  0.47117788299E+01  0.47117788299E+01  0.00000000000E+00 0.  1.
          1   -1    0    0  501    0  0.00000000000E+00 -0.00000000000E+00 -0.14139349867E+04  0.14139349867E+04  0.00000000000E+00 0. -1.
         24    1    1    2    0    0 -0.12247339186E+02  0.33718028669E+00 -0.64643041343E+03  0.65152866888E+03  0.80419002446E+02 0.  1.
        -24    1    1    2    0    0  0.12247339186E+02 -0.33718028669E+00 -0.76279279447E+03  0.76711809668E+03  0.80419002446E+02 0. -1.
<mgrwt>
<rscale>  0 0.81346954E+02</rscale>
<asrwt>0</asrwt>
<pdfrwt beam="1">  1        1 0.21752872E+00 0.81346954E+02</pdfrwt>
<pdfrwt beam="2">  1       -1 0.72488819E-03 0.81346954E+02</pdfrwt>
<totfact> 0.22527963E+04</totfact>
</mgrwt>
</event>
<event>
 4    1  0.4941530E-001  0.8652406E+02  0.7546771E-02  0.1311494E+00
          1   -1    0    0  501    0  0.00000000000E+00  0.00000000000E+00  0.19290533372E+04  0.19290533372E+04  0.00000000000E+00 0. -1.
         -1   -1    0    0    0  501 -0.00000000000E+00 -0.00000000000E+00 -0.60371648424E+01  0.60371648424E+01  0.00000000000E+00 0.  1.
         24    1    1    2    0    0 -0.53838532831E+01 -0.31467614662E+02  0.38326765411E+03  0.39291284948E+03  0.80419002446E+02 0.  1.
        -24    1    1    2    0    0  0.53838532831E+01  0.31467614662E+02  0.15397485183E+04  0.15421776526E+04  0.80419002446E+02 0. -1.
<mgrwt>
<rscale>  0 0.86524058E+02</rscale>
<asrwt>0</asrwt>
<pdfrwt beam="1">  1        1 0.29677694E+00 0.86524058E+02</pdfrwt>
<pdfrwt beam="2">  1       -1 0.92879613E-03 0.86524058E+02</pdfrwt>
<totfact> 0.75690354E+03</totfact>
</mgrwt>
</event>
<event>
 4    1  0.4941530E-001  0.8060677E+02  0.7546771E-02  0.1327338E+00
          2   -1    0    0  501    0  0.00000000000E+00  0.00000000000E+00  0.16286324342E+04  0.16286324342E+04  0.00000000000E+00 0. -1.
         -2   -1    0    0    0  501 -0.00000000000E+00 -0.00000000000E+00 -0.40041005366E+01  0.40041005366E+01  0.00000000000E+00 0.  1.
         24    1    1    2    0    0  0.29822105832E+01  0.46196921896E+01  0.86158506674E+03  0.86534748993E+03  0.80419002446E+02 0. -1.
        -24    1    1    2    0    0 -0.29822105832E+01 -0.46196921896E+01  0.76304326688E+03  0.76728904477E+03  0.80419002446E+02 0.  1.
<mgrwt>
<rscale>  0 0.80606768E+02</rscale>
<asrwt>0</asrwt>
<pdfrwt beam="1">  1        2 0.25055831E+00 0.80606768E+02</pdfrwt>
<pdfrwt beam="2">  1       -2 0.61601677E-03 0.80606768E+02</pdfrwt>
<totfact> 0.45625743E+04</totfact>
</mgrwt>
</event>
<event>
 4    1  0.4941530E-001  0.8719042E+02  0.7546771E-02  0.1309802E+00
          2   -1    0    0  501    0  0.00000000000E+00  0.00000000000E+00  0.10656433574E+04  0.10656433574E+04  0.00000000000E+00 0. -1.
         -2   -1    0    0    0  501 -0.00000000000E+00 -0.00000000000E+00 -0.15537468819E+03  0.15537468819E+03  0.00000000000E+00 0.  1.
         24    1    1    2    0    0 -0.12034470756E+02 -0.31466237574E+02  0.10514632156E+04  0.10550720649E+04  0.80419002446E+02 0. -1.
        -24    1    1    2    0    0  0.12034470756E+02  0.31466237574E+02 -0.14119454639E+03  0.16594598060E+03  0.80419002446E+02 0.  1.
<mgrwt>
<rscale>  0 0.87190415E+02</rscale>
<asrwt>0</asrwt>
<pdfrwt beam="1">  1        2 0.16394513E+00 0.87190415E+02</pdfrwt>
<pdfrwt beam="2">  1       -2 0.23903799E-01 0.87190415E+02</pdfrwt>
<totfact> 0.38286445E+02</totfact>
</mgrwt>
</event>
<event>
 4    1  0.4941530E-001  0.8612925E+02  0.7546771E-02  0.1312506E+00
         -2   -1    0    0    0  501 -0.00000000000E+00  0.00000000000E+00  0.17827738614E+02  0.17827738614E+02  0.00000000000E+00 0.  1.
          2   -1    0    0  501    0  0.00000000000E+00 -0.00000000000E+00 -0.18692468760E+04  0.18692468760E+04  0.00000000000E+00 0. -1.
         24    1    1    2    0    0  0.24498639735E+02  0.18730936695E+02 -0.17576255196E+04  0.17597345580E+04  0.80419002446E+02 0. -1.
        -24    1    1    2    0    0 -0.24498639735E+02 -0.18730936695E+02 -0.93793617771E+02  0.12734005665E+03  0.80419002446E+02 0.  1.
<mgrwt>
<rscale>  0 0.86129248E+02</rscale>
<asrwt>0</asrwt>
<pdfrwt beam="1">  1        2 0.28757656E+00 0.86129248E+02</pdfrwt>
<pdfrwt beam="2">  1       -2 0.27427279E-02 0.86129248E+02</pdfrwt>
<totfact> 0.41611359E+03</totfact>
</mgrwt>
</event>
<event>
 4    1  0.4941530E-001  0.8208901E+02  0.7546771E-02  0.1323226E+00
          2   -1    0    0  501    0  0.00000000000E+00  0.00000000000E+00  0.66626992118E+03  0.66626992118E+03  0.00000000000E+00 0. -1.
         -2   -1    0    0    0  501 -0.00000000000E+00 -0.00000000000E+00 -0.12369076157E+02  0.12369076157E+02  0.00000000000E+00 0.  1.
         24    1    1    2    0    0  0.94592328790E+01  0.13487466203E+02  0.47183691592E+03  0.47892450346E+03  0.80419002446E+02 0. -1.
        -24    1    1    2    0    0 -0.94592328790E+01 -0.13487466203E+02  0.18206392910E+03  0.19971449388E+03  0.80419002446E+02 0.  1.
<mgrwt>
<rscale>  0 0.82089005E+02</rscale>
<asrwt>0</asrwt>
<pdfrwt beam="1">  1        2 0.10250304E+00 0.82089005E+02</pdfrwt>
<pdfrwt beam="2">  1       -2 0.19029353E-02 0.82089005E+02</pdfrwt>
<totfact> 0.32952196E+04</totfact>
</mgrwt>
</event>
<event>
 4    1  0.4941530E-001  0.8545420E+02  0.7546771E-02  0.1314249E+00
          2   -1    0    0  501    0  0.00000000000E+00  0.00000000000E+00  0.15161332854E+04  0.15161332854E+04  0.00000000000E+00 0. -1.
         -2   -1    0    0    0  501 -0.00000000000E+00 -0.00000000000E+00 -0.48243746602E+01  0.48243746602E+01  0.00000000000E+00 0.  1.
         24    1    1    2    0    0  0.31197015245E+01  0.28731039722E+02  0.78642358122E+03  0.79105276071E+03  0.80419002446E+02 0.  0.
        -24    1    1    2    0    0 -0.31197015245E+01 -0.28731039722E+02  0.72488532952E+03  0.72990489934E+03  0.80419002446E+02 0. -1.
<mgrwt>
<rscale>  0 0.85454205E+02</rscale>
<asrwt>0</asrwt>
<pdfrwt beam="1">  1        2 0.23325089E+00 0.85454205E+02</pdfrwt>
<pdfrwt beam="2">  1       -2 0.74221270E-03 0.85454205E+02</pdfrwt>
<totfact> 0.40254454E+04</totfact>
</mgrwt>
</event>
<event>
 4    1  0.4941530E-001  0.8296679E+02  0.7546771E-02  0.1320837E+00
          2   -1    0    0  501    0  0.00000000000E+00  0.00000000000E+00  0.19120314345E+02  0.19120314345E+02  0.00000000000E+00 0. -1.
         -2   -1    0    0    0  501 -0.00000000000E+00 -0.00000000000E+00 -0.47087780810E+03  0.47087780810E+03  0.00000000000E+00 0.  1.
         24    1    1    2    0    0 -0.31183445519E+01  0.20163026317E+02 -0.10699711688E+03  0.13539523876E+03  0.80419002446E+02 0. -1.
        -24    1    1    2    0    0  0.31183445519E+01 -0.20163026317E+02 -0.34476037687E+03  0.35460288368E+03  0.80419002446E+02 0.  1.
<mgrwt>
<rscale>  0 0.82966786E+02</rscale>
<asrwt>0</asrwt>
<pdfrwt beam="1">  1        2 0.29415871E-02 0.82966786E+02</pdfrwt>
<pdfrwt beam="2">  1       -2 0.72442732E-01 0.82966786E+02</pdfrwt>
<totfact> 0.51417244E+03</totfact>
</mgrwt>
</event>
<event>
 4    1  0.4941530E-001  0.1100018E+03  0.7546771E-02  0.1260567E+00
          1   -1    0    0  501    0  0.00000000000E+00  0.00000000000E+00  0.56741831412E+03  0.56741831412E+03  0.00000000000E+00 0. -1.
         -1   -1    0    0    0  501 -0.00000000000E+00 -0.00000000000E+00 -0.34525299003E+02  0.34525299003E+02  0.00000000000E+00 0.  1.
         24    1    1    2    0    0 -0.42469606472E+02 -0.61882983266E+02  0.80347771562E+02  0.13622096550E+03  0.80419002446E+02 0.  1.
        -24    1    1    2    0    0  0.42469606472E+02  0.61882983266E+02  0.45254524356E+03  0.46572264763E+03  0.80419002446E+02 0. -1.
<mgrwt>
<rscale>  0 0.11000176E+03</rscale>
<asrwt>0</asrwt>
<pdfrwt beam="1">  1        1 0.87295118E-01 0.11000176E+03</pdfrwt>
<pdfrwt beam="2">  1       -1 0.53115849E-02 0.11000176E+03</pdfrwt>
<totfact> 0.58132836E+03</totfact>
</mgrwt>
</event>
<event>
 4    1  0.4941530E-001  0.8309207E+02  0.7546771E-02  0.1320499E+00
         -1   -1    0    0    0  501 -0.00000000000E+00  0.00000000000E+00  0.10641348258E+02  0.10641348258E+02  0.00000000000E+00 0.  1.
          1   -1    0    0  501    0  0.00000000000E+00 -0.00000000000E+00 -0.11155558537E+04  0.11155558537E+04  0.00000000000E+00 0. -1.
         24    1    1    2    0    0  0.36295186449E+01 -0.20588893736E+02 -0.18822736470E+03  0.20575187174E+03  0.80419002446E+02 0.  0.
        -24    1    1    2    0    0 -0.36295186449E+01  0.20588893736E+02 -0.91668714071E+03  0.92044533018E+03  0.80419002446E+02 0. -1.
<mgrwt>
<rscale>  0 0.83092069E+02</rscale>
<asrwt>0</asrwt>
<pdfrwt beam="1">  1        1 0.17162396E+00 0.83092069E+02</pdfrwt>
<pdfrwt beam="2">  1       -1 0.16371306E-02 0.83092069E+02</pdfrwt>
<totfact> 0.11283948E+04</totfact>
</mgrwt>
</event>
<event>
 4    1  0.4941530E-001  0.1046631E+03  0.7546771E-02  0.1270785E+00
         -1   -1    0    0    0  501 -0.00000000000E+00  0.00000000000E+00  0.10379075861E+02  0.10379075861E+02  0.00000000000E+00 0.  1.
          1   -1    0    0  501    0  0.00000000000E+00 -0.00000000000E+00 -0.15060869075E+04  0.15060869075E+04  0.00000000000E+00 0. -1.
         24    1    1    2    0    0 -0.17047829221E+02 -0.64780537632E+02 -0.33308914374E+03  0.34914572913E+03  0.80419002446E+02 0.  1.
        -24    1    1    2    0    0  0.17047829221E+02  0.64780537632E+02 -0.11626186879E+04  0.11673202542E+04  0.80419002446E+02 0. -1.
<mgrwt>
<rscale>  0 0.10466309E+03</rscale>
<asrwt>0</asrwt>
<pdfrwt beam="1">  1        1 0.23170573E+00 0.10466309E+03</pdfrwt>
<pdfrwt beam="2">  1       -1 0.15967805E-02 0.10466309E+03</pdfrwt>
<totfact> 0.65471382E+03</totfact>
</mgrwt>
</event>
<event>
 4    1  0.4941530E-001  0.1376680E+03  0.7546771E-02  0.1216502E+00
          2   -1    0    0  501    0  0.00000000000E+00  0.00000000000E+00  0.15993203861E+04  0.15993203861E+04  0.00000000000E+00 0. -1.
         -2   -1    0    0    0  501 -0.00000000000E+00 -0.00000000000E+00 -0.19078425632E+02  0.19078425632E+02  0.00000000000E+00 0.  1.
         24    1    1    2    0    0  0.10586363877E+03 -0.35751381052E+02  0.12881974117E+04  0.12955327316E+04  0.80419002446E+02 0.  0.
        -24    1    1    2    0    0 -0.10586363877E+03  0.35751381052E+02  0.29204454876E+03  0.32286608010E+03  0.80419002446E+02 0.  1.
<mgrwt>
<rscale>  0 0.13766803E+03</rscale>
<asrwt>0</asrwt>
<pdfrwt beam="1">  1        2 0.24604918E+00 0.13766803E+03</pdfrwt>
<pdfrwt beam="2">  1       -2 0.29351437E-02 0.13766803E+03</pdfrwt>
<totfact> 0.52177998E+03</totfact>
</mgrwt>
</event>
<event>
 4    1  0.4941530E-001  0.8170468E+02  0.7546771E-02  0.1324282E+00
         -2   -1    0    0    0  501 -0.00000000000E+00  0.00000000000E+00  0.71449668540E+02  0.71449668540E+02  0.00000000000E+00 0.  1.
          2   -1    0    0  501    0  0.00000000000E+00 -0.00000000000E+00 -0.67849567479E+03  0.67849567479E+03  0.00000000000E+00 0. -1.
         24    1    1    2    0    0  0.91109542885E+01 -0.11199525823E+02 -0.65172222935E+03  0.65682381127E+03  0.80419002446E+02 0. -1.
        -24    1    1    2    0    0 -0.91109542885E+01  0.11199525823E+02  0.44676223106E+02  0.93121532054E+02  0.80419002446E+02 0.  1.
<mgrwt>
<rscale>  0 0.81704681E+02</rscale>
<asrwt>0</asrwt>
<pdfrwt beam="1">  1        2 0.10438395E+00 0.81704681E+02</pdfrwt>
<pdfrwt beam="2">  1       -2 0.10992257E-01 0.81704681E+02</pdfrwt>
<totfact> 0.23978761E+03</totfact>
</mgrwt>
</event>
<event>
 4    1  0.4941530E-001  0.8234034E+02  0.7546771E-02  0.1322538E+00
         -3   -1    0    0    0  501 -0.00000000000E+00  0.00000000000E+00  0.26500869405E+02  0.26500869405E+02  0.00000000000E+00 0.  1.
          3   -1    0    0  501    0  0.00000000000E+00 -0.00000000000E+00 -0.40550283103E+03  0.40550283103E+03  0.00000000000E+00 0. -1.
         24    1    1    2    0    0  0.85175924893E+01 -0.15497311596E+02 -0.58274867876E+02  0.10087562753E+03  0.80419002446E+02 0.  1.
        -24    1    1    2    0    0 -0.85175924893E+01  0.15497311596E+02 -0.32072709375E+03  0.33112807291E+03  0.80419002446E+02 0. -1.
<mgrwt>
<rscale>  0 0.82340342E+02</rscale>
<asrwt>0</asrwt>
<pdfrwt beam="1">  1        3 0.62385041E-01 0.82340342E+02</pdfrwt>
<pdfrwt beam="2">  1       -3 0.40770574E-02 0.82340342E+02</pdfrwt>
<totfact> 0.16718690E+03</totfact>
</mgrwt>
</event>
<event>
 4    1  0.4941530E-001  0.8911116E+02  0.7546771E-02  0.1305019E+00
          2   -1    0    0  501    0  0.00000000000E+00  0.00000000000E+00  0.28184112743E+04  0.28184112743E+04  0.00000000000E+00 0. -1.
         -2   -1    0    0    0  501 -0.00000000000E+00 -0.00000000000E+00 -0.23930536871E+02  0.23930536871E+02  0.00000000000E+00 0.  1.
         24    1    1    2    0    0  0.27423117916E+02 -0.26861768767E+02  0.27321310971E+04  0.27335839350E+04  0.80419002446E+02 0. -1.
        -24    1    1    2    0    0 -0.27423117916E+02  0.26861768767E+02  0.62349640252E+02  0.10875787609E+03  0.80419002446E+02 0.  1.
<mgrwt>
<rscale>  0 0.89111155E+02</rscale>
<asrwt>0</asrwt>
<pdfrwt beam="1">  1        2 0.43360147E+00 0.89111155E+02</pdfrwt>
<pdfrwt beam="2">  1       -2 0.36816233E-02 0.89111155E+02</pdfrwt>
<totfact> 0.87332640E+02</totfact>
</mgrwt>
</event>
<event>
 4    1  0.4941530E-001  0.8124967E+02  0.7546771E-02  0.1325542E+00
         -4   -1    0    0    0  501 -0.00000000000E+00  0.00000000000E+00  0.16439263652E+03  0.16439263652E+03  0.00000000000E+00 0.  1.
          4   -1    0    0  501    0  0.00000000000E+00 -0.00000000000E+00 -0.61094150400E+03  0.61094150400E+03  0.00000000000E+00 0. -1.
         24    1    1    2    0    0 -0.11587307749E+02 -0.16464726180E+00 -0.59798436094E+03  0.60347891818E+03  0.80419002446E+02 0. -1.
        -24    1    1    2    0    0  0.11587307749E+02  0.16464726180E+00  0.15143549346E+03  0.17185522233E+03  0.80419002446E+02 0.  1.
<mgrwt>
<rscale>  0 0.81249669E+02</rscale>
<asrwt>0</asrwt>
<pdfrwt beam="1">  1        4 0.93991000E-01 0.81249669E+02</pdfrwt>
<pdfrwt beam="2">  1       -4 0.25291175E-01 0.81249669E+02</pdfrwt>
<totfact> 0.22739371E+01</totfact>
</mgrwt>
</event>
<event>
 4    1  0.4941530E-001  0.8220631E+02  0.7546771E-02  0.1322904E+00
         -2   -1    0    0    0  501 -0.00000000000E+00  0.00000000000E+00  0.10803603112E+03  0.10803603112E+03  0.00000000000E+00 0.  1.
          2   -1    0    0  501    0  0.00000000000E+00 -0.00000000000E+00 -0.72716354577E+02  0.72716354577E+02  0.00000000000E+00 0. -1.
         24    1    1    2    0    0 -0.16958390362E+02  0.17534168546E+01 -0.16129243638E+02  0.83773682795E+02  0.80419002446E+02 0. -1.
        -24    1    1    2    0    0  0.16958390362E+02 -0.17534168546E+01  0.51448920181E+02  0.96978702902E+02  0.80419002446E+02 0.  1.
<mgrwt>
<rscale>  0 0.82206310E+02</rscale>
<asrwt>0</asrwt>
<pdfrwt beam="1">  1        2 0.11187132E-01 0.82206310E+02</pdfrwt>
<pdfrwt beam="2">  1       -2 0.16620928E-01 0.82206310E+02</pdfrwt>
<totfact> 0.14208111E+04</totfact>
</mgrwt>
</event>
<event>
 4    1  0.4941530E-001  0.8654625E+02  0.7546771E-02  0.1311438E+00
          2   -1    0    0  501    0  0.00000000000E+00  0.00000000000E+00  0.83927403224E+03  0.83927403224E+03  0.00000000000E+00 0. -1.
         -2   -1    0    0    0  501 -0.00000000000E+00 -0.00000000000E+00 -0.23237741806E+02  0.23237741806E+02  0.00000000000E+00 0.  1.
         24    1    1    2    0    0 -0.29380872230E+02  0.12641294644E+02  0.74647578143E+03  0.75147611153E+03  0.80419002446E+02 0. -1.
        -24    1    1    2    0    0  0.29380872230E+02 -0.12641294644E+02  0.69560509006E+02  0.11103566252E+03  0.80419002446E+02 0.  1.
<mgrwt>
<rscale>  0 0.86546253E+02</rscale>
<asrwt>0</asrwt>
<pdfrwt beam="1">  1        2 0.12911906E+00 0.86546253E+02</pdfrwt>
<pdfrwt beam="2">  1       -2 0.35750378E-02 0.86546253E+02</pdfrwt>
<totfact> 0.10117369E+04</totfact>
</mgrwt>
</event>
<event>
 4    1  0.4941530E-001  0.8069405E+02  0.7546771E-02  0.1327093E+00
          1   -1    0    0  501    0  0.00000000000E+00  0.00000000000E+00  0.87391868625E+03  0.87391868625E+03  0.00000000000E+00 0. -1.
         -1   -1    0    0    0  501 -0.00000000000E+00 -0.00000000000E+00 -0.17219788803E+02  0.17219788803E+02  0.00000000000E+00 0.  1.
         24    1    1    2    0    0  0.26149729755E+01  0.61217015783E+01  0.92748919083E+02  0.12293856701E+03  0.80419002446E+02 0.  1.
        -24    1    1    2    0    0 -0.26149729755E+01 -0.61217015783E+01  0.76394997836E+03  0.76819990804E+03  0.80419002446E+02 0.  0.
<mgrwt>
<rscale>  0 0.80694047E+02</rscale>
<asrwt>0</asrwt>
<pdfrwt beam="1">  1        1 0.13444899E+00 0.80694047E+02</pdfrwt>
<pdfrwt beam="2">  1       -1 0.26491990E-02 0.80694047E+02</pdfrwt>
<totfact> 0.84731142E+03</totfact>
</mgrwt>
</event>
<event>
 4    1  0.4941530E-001  0.9940892E+02  0.7546771E-02  0.1281544E+00
         -2   -1    0    0    0  501 -0.00000000000E+00  0.00000000000E+00  0.25302990874E+03  0.25302990874E+03  0.00000000000E+00 0.  1.
          2   -1    0    0  501    0  0.00000000000E+00 -0.00000000000E+00 -0.23053096568E+03  0.23053096568E+03  0.00000000000E+00 0. -1.
         24    1    1    2    0    0 -0.54085724601E+02 -0.22128088266E+02 -0.20910071909E+03  0.23152806434E+03  0.80419002446E+02 0. -1.
        -24    1    1    2    0    0  0.54085724601E+02  0.22128088266E+02  0.23159966215E+03  0.25203281008E+03  0.80419002446E+02 0.  1.
<mgrwt>
<rscale>  0 0.99408922E+02</rscale>
<asrwt>0</asrwt>
<pdfrwt beam="1">  1        2 0.35466303E-01 0.99408922E+02</pdfrwt>
<pdfrwt beam="2">  1       -2 0.38927678E-01 0.99408922E+02</pdfrwt>
<totfact> 0.89860336E+02</totfact>
</mgrwt>
</event>
<event>
 4    1  0.4941530E-001  0.8474017E+02  0.7546771E-02  0.1316113E+00
         -1   -1    0    0    0  501 -0.00000000000E+00  0.00000000000E+00  0.16591450948E+02  0.16591450948E+02  0.00000000000E+00 0.  1.
          1   -1    0    0  501    0  0.00000000000E+00 -0.00000000000E+00 -0.43282027207E+03  0.43282027207E+03  0.00000000000E+00 0. -1.
         24    1    1    2    0    0 -0.26593099309E+02  0.25462703995E+01 -0.20936922522E+03  0.22586802529E+03  0.80419002446E+02 0.  0.
        -24    1    1    2    0    0  0.26593099309E+02 -0.25462703995E+01 -0.20685959590E+03  0.22354369772E+03  0.80419002446E+02 0.  0.
<mgrwt>
<rscale>  0 0.84740157E+02</rscale>
<asrwt>0</asrwt>
<pdfrwt beam="1">  1        1 0.66587728E-01 0.84740167E+02</pdfrwt>
<pdfrwt beam="2">  1       -1 0.25525312E-02 0.84740167E+02</pdfrwt>
<totfact> 0.23346970E+04</totfact>
</mgrwt>
</event>
<event>
 4    1  0.4941530E-001  0.9532516E+02  0.7546771E-02  0.1290445E+00
          1   -1    0    0  501    0  0.00000000000E+00  0.00000000000E+00  0.93118722322E+03  0.93118722322E+03  0.00000000000E+00 0. -1.
         -1   -1    0    0    0  501 -0.00000000000E+00 -0.00000000000E+00 -0.97786971929E+01  0.97786971929E+01  0.00000000000E+00 0.  1.
         24    1    1    2    0    0 -0.44740064531E+01 -0.50986803344E+02  0.43926335916E+03  0.44948769227E+03  0.80419002446E+02 0.  1.
        -24    1    1    2    0    0  0.44740064531E+01  0.50986803344E+02  0.48214516687E+03  0.49147822814E+03  0.80419002446E+02 0.  0.
<mgrwt>
<rscale>  0 0.95325164E+02</rscale>
<asrwt>0</asrwt>
<pdfrwt beam="1">  1        1 0.14325950E+00 0.95325164E+02</pdfrwt>
<pdfrwt beam="2">  1       -1 0.15044157E-02 0.95325164E+02</pdfrwt>
<totfact> 0.17410094E+04</totfact>
</mgrwt>
</event>
<event>
 4    1  0.4941530E-001  0.8328253E+02  0.7546771E-02  0.1319986E+00
         -1   -1    0    0    0  501 -0.00000000000E+00  0.00000000000E+00  0.19445730416E+02  0.19445730416E+02  0.00000000000E+00 0.  1.
          1   -1    0    0  501    0  0.00000000000E+00 -0.00000000000E+00 -0.86088887323E+03  0.86088887323E+03  0.00000000000E+00 0. -1.
         24    1    1    2    0    0 -0.21000064520E+02  0.52688545727E+01 -0.83862861600E+02  0.11819035091E+03  0.80419002446E+02 0.  1.
        -24    1    1    2    0    0  0.21000064520E+02 -0.52688545727E+01 -0.75758028121E+03  0.76214425273E+03  0.80419002446E+02 0. -1.
<mgrwt>
<rscale>  0 0.83282528E+02</rscale>
<asrwt>0</asrwt>
<pdfrwt beam="1">  1        1 0.13244443E+00 0.83282528E+02</pdfrwt>
<pdfrwt beam="2">  1       -1 0.29916510E-02 0.83282528E+02</pdfrwt>
<totfact> 0.72990781E+03</totfact>
</mgrwt>
</event>
<event>
 4    1  0.4941530E-001  0.1094996E+03  0.7546771E-02  0.1261499E+00
         -2   -1    0    0    0  501 -0.00000000000E+00  0.00000000000E+00  0.10249681486E+02  0.10249681486E+02  0.00000000000E+00 0.  1.
          2   -1    0    0  501    0  0.00000000000E+00 -0.00000000000E+00 -0.12391672857E+04  0.12391672857E+04  0.00000000000E+00 0. -1.
         24    1    1    2    0    0 -0.16068102812E+02 -0.72558611162E+02 -0.76225627888E+03  0.77008102601E+03  0.80419002446E+02 0. -1.
        -24    1    1    2    0    0  0.16068102812E+02  0.72558611162E+02 -0.46666132533E+03  0.47933594117E+03  0.80419002446E+02 0.  1.
<mgrwt>
<rscale>  0 0.10949955E+03</rscale>
<asrwt>0</asrwt>
<pdfrwt beam="1">  1        2 0.19064103E+00 0.10949955E+03</pdfrwt>
<pdfrwt beam="2">  1       -2 0.15768748E-02 0.10949955E+03</pdfrwt>
<totfact> 0.19669393E+04</totfact>
</mgrwt>
</event>
<event>
 4    1  0.4941530E-001  0.1661427E+03  0.7546771E-02  0.1181931E+00
         -2   -1    0    0    0  501 -0.00000000000E+00  0.00000000000E+00  0.81484431498E+02  0.81484431498E+02  0.00000000000E+00 0.  1.
          2   -1    0    0  501    0  0.00000000000E+00 -0.00000000000E+00 -0.47417605316E+03  0.47417605316E+03  0.00000000000E+00 0. -1.
         24    1    1    2    0    0  0.65577742504E+02 -0.12975265172E+03 -0.34481963142E+03  0.38275838998E+03  0.80419002446E+02 0. -1.
        -24    1    1    2    0    0 -0.65577742504E+02  0.12975265172E+03 -0.47871990250E+02  0.17290209468E+03  0.80419002446E+02 0.  1.
<mgrwt>
<rscale>  0 0.16614273E+03</rscale>
<asrwt>0</asrwt>
<pdfrwt beam="1">  1        2 0.72950162E-01 0.16614273E+03</pdfrwt>
<pdfrwt beam="2">  1       -2 0.12536066E-01 0.16614273E+03</pdfrwt>
<totfact> 0.29841319E+03</totfact>
</mgrwt>
</event>
<event>
 4    1  0.4941530E-001  0.1130554E+03  0.7546771E-02  0.1255014E+00
         -2   -1    0    0    0  501 -0.00000000000E+00  0.00000000000E+00  0.72215001222E+01  0.72215001222E+01  0.00000000000E+00 0.  1.
          2   -1    0    0  501    0  0.00000000000E+00 -0.00000000000E+00 -0.17752855030E+04  0.17752855030E+04  0.00000000000E+00 0. -1.
         24    1    1    2    0    0  0.79159040191E+02 -0.69397451775E+01 -0.93299633210E+03  0.93982109221E+03  0.80419002446E+02 0. -1.
        -24    1    1    2    0    0 -0.79159040191E+02  0.69397451775E+01 -0.83506767074E+03  0.84268591087E+03  0.80419002446E+02 0.  1.
<mgrwt>
<rscale>  0 0.11305543E+03</rscale>
<asrwt>0</asrwt>
<pdfrwt beam="1">  1        2 0.27312108E+00 0.11305543E+03</pdfrwt>
<pdfrwt beam="2">  1       -2 0.11109991E-02 0.11305543E+03</pdfrwt>
<totfact> 0.17151649E+04</totfact>
</mgrwt>
</event>
<event>
 4    1  0.4941530E-001  0.9613015E+02  0.7546771E-02  0.1288651E+00
          1   -1    0    0  501    0  0.00000000000E+00  0.00000000000E+00  0.50717252847E+03  0.50717252847E+03  0.00000000000E+00 0. -1.
         -1   -1    0    0    0  501 -0.00000000000E+00 -0.00000000000E+00 -0.19017625210E+02  0.19017625210E+02  0.00000000000E+00 0.  1.
         24    1    1    2    0    0 -0.48604571415E+02  0.20282518279E+02  0.29793710766E+03  0.31306152907E+03  0.80419002446E+02 0. -1.
        -24    1    1    2    0    0  0.48604571415E+02 -0.20282518279E+02  0.19021779560E+03  0.21312862461E+03  0.80419002446E+02 0. -1.
<mgrwt>
<rscale>  0 0.96130137E+02</rscale>
<asrwt>0</asrwt>
<pdfrwt beam="1">  1        1 0.78026532E-01 0.96130149E+02</pdfrwt>
<pdfrwt beam="2">  1       -1 0.29257889E-02 0.96130149E+02</pdfrwt>
<totfact> 0.15892861E+04</totfact>
</mgrwt>
</event>
<event>
 4    1  0.4941530E-001  0.8054950E+02  0.7546771E-02  0.1327499E+00
         -1   -1    0    0    0  501 -0.00000000000E+00  0.00000000000E+00  0.22992011305E+02  0.22992011305E+02  0.00000000000E+00 0.  1.
          1   -1    0    0  501    0  0.00000000000E+00 -0.00000000000E+00 -0.59196203032E+03  0.59196203032E+03  0.00000000000E+00 0. -1.
         24    1    1    2    0    0 -0.24903525062E+01  0.38477055234E+01 -0.62060020151E+02  0.10168416174E+03  0.80419002446E+02 0.  0.
        -24    1    1    2    0    0  0.24903525062E+01 -0.38477055234E+01 -0.50690999887E+03  0.51326987989E+03  0.80419002446E+02 0. -1.
<mgrwt>
<rscale>  0 0.80549504E+02</rscale>
<asrwt>0</asrwt>
<pdfrwt beam="1">  1        1 0.91071071E-01 0.80549504E+02</pdfrwt>
<pdfrwt beam="2">  1       -1 0.35372329E-02 0.80549504E+02</pdfrwt>
<totfact> 0.97232360E+03</totfact>
</mgrwt>
</event>
<event>
 4    1  0.4941530E-001  0.8060791E+02  0.7546771E-02  0.1327335E+00
         -2   -1    0    0    0  501 -0.00000000000E+00  0.00000000000E+00  0.18514902203E+02  0.18514902203E+02  0.00000000000E+00 0.  1.
          2   -1    0    0  501    0  0.00000000000E+00 -0.00000000000E+00 -0.35552062345E+03  0.35552062345E+03  0.00000000000E+00 0. -1.
         24    1    1    2    0    0  0.45071351940E+01 -0.31782412544E+01 -0.14727614033E+03  0.16789250415E+03  0.80419002446E+02 0.  0.
        -24    1    1    2    0    0 -0.45071351940E+01  0.31782412544E+01 -0.18972958092E+03  0.20614302151E+03  0.80419002446E+02 0. -1.
<mgrwt>
<rscale>  0 0.80607897E+02</rscale>
<asrwt>0</asrwt>
<pdfrwt beam="1">  1        2 0.54695473E-01 0.80607907E+02</pdfrwt>
<pdfrwt beam="2">  1       -2 0.28484469E-02 0.80607907E+02</pdfrwt>
<totfact> 0.36239397E+04</totfact>
</mgrwt>
</event>
<event>
 4    1  0.4941530E-001  0.9445532E+02  0.7546771E-02  0.1292408E+00
          2   -1    0    0  501    0  0.00000000000E+00  0.00000000000E+00  0.15611878963E+04  0.15611878963E+04  0.00000000000E+00 0. -1.
         -2   -1    0    0    0  501 -0.00000000000E+00 -0.00000000000E+00 -0.24884823156E+02  0.24884823156E+02  0.00000000000E+00 0.  1.
         24    1    1    2    0    0  0.49541636952E+02 -0.46644117889E+00  0.14641970551E+04  0.14672405472E+04  0.80419002446E+02 0. -1.
        -24    1    1    2    0    0 -0.49541636952E+02  0.46644117889E+00  0.72106018034E+02  0.11883217220E+03  0.80419002446E+02 0.  1.
<mgrwt>
<rscale>  0 0.94455319E+02</rscale>
<asrwt>0</asrwt>
<pdfrwt beam="1">  1        2 0.24018268E+00 0.94455319E+02</pdfrwt>
<pdfrwt beam="2">  1       -2 0.38284355E-02 0.94455319E+02</pdfrwt>
<totfact> 0.36627642E+03</totfact>
</mgrwt>
</event>
<event>
 4    1  0.4941530E-001  0.1047470E+03  0.7546771E-02  0.1270619E+00
         -1   -1    0    0    0  501 -0.00000000000E+00  0.00000000000E+00  0.19699303684E+02  0.19699303684E+02  0.00000000000E+00 0.  1.
          1   -1    0    0  501    0  0.00000000000E+00 -0.00000000000E+00 -0.81480142240E+03  0.81480142240E+03  0.00000000000E+00 0. -1.
         24    1    1    2    0    0 -0.57595248986E+01 -0.66869690306E+02 -0.16283770560E+03  0.19361834089E+03  0.80419002446E+02 0.  1.
        -24    1    1    2    0    0  0.57595248986E+01  0.66869690306E+02 -0.63226441311E+03  0.64088238519E+03  0.80419002446E+02 0. -1.
<mgrwt>
<rscale>  0 0.10474705E+03</rscale>
<asrwt>0</asrwt>
<pdfrwt beam="1">  1        1 0.12535405E+00 0.10474705E+03</pdfrwt>
<pdfrwt beam="2">  1       -1 0.30306625E-02 0.10474705E+03</pdfrwt>
<totfact> 0.79015470E+03</totfact>
</mgrwt>
</event>
<event>
 4    1  0.4941530E-001  0.8725674E+02  0.7546771E-02  0.1309634E+00
         -2   -1    0    0    0  501 -0.00000000000E+00  0.00000000000E+00  0.24628743461E+02  0.24628743461E+02  0.00000000000E+00 0.  1.
          2   -1    0    0  501    0  0.00000000000E+00 -0.00000000000E+00 -0.21942703382E+04  0.21942703382E+04  0.00000000000E+00 0. -1.
         24    1    1    2    0    0  0.26141466351E+02  0.21520852201E+02 -0.21131522877E+04  0.21149530327E+04  0.80419002446E+02 0. -1.
        -24    1    1    2    0    0 -0.26141466351E+02 -0.21520852201E+02 -0.56489307051E+02  0.10394604903E+03  0.80419002446E+02 0.  1.
<mgrwt>
<rscale>  0 0.87256744E+02</rscale>
<asrwt>0</asrwt>
<pdfrwt beam="1">  1        2 0.33758014E+00 0.87256744E+02</pdfrwt>
<pdfrwt beam="2">  1       -2 0.37890364E-02 0.87256744E+02</pdfrwt>
<totfact> 0.17843963E+03</totfact>
</mgrwt>
</event>
<event>
 4    1  0.4941530E-001  0.8918173E+02  0.7546771E-02  0.1304845E+00
          4   -1    0    0  501    0  0.00000000000E+00  0.00000000000E+00  0.11179057524E+03  0.11179057524E+03  0.00000000000E+00 0. -1.
         -4   -1    0    0    0  501 -0.00000000000E+00 -0.00000000000E+00 -0.73476628494E+02  0.73476628494E+02  0.00000000000E+00 0.  1.
         24    1    1    2    0    0  0.19098184574E+01 -0.38503472164E+02  0.35657206499E+02  0.96045911443E+02  0.80419002446E+02 0. -1.
        -24    1    1    2    0    0 -0.19098184574E+01  0.38503472164E+02  0.26567402487E+01  0.89221292293E+02  0.80419002446E+02 0.  1.
<mgrwt>
<rscale>  0 0.89181729E+02</rscale>
<asrwt>0</asrwt>
<pdfrwt beam="1">  1        4 0.17198550E-01 0.89181729E+02</pdfrwt>
<pdfrwt beam="2">  1       -4 0.11304097E-01 0.89181729E+02</pdfrwt>
<totfact> 0.26861938E+03</totfact>
</mgrwt>
</event>
<event>
 4    1  0.4941530E-001  0.8163009E+02  0.7546771E-02  0.1324488E+00
         -2   -1    0    0    0  501 -0.00000000000E+00  0.00000000000E+00  0.75151967686E+01  0.75151967686E+01  0.00000000000E+00 0.  1.
          2   -1    0    0  501    0  0.00000000000E+00 -0.00000000000E+00 -0.15372911497E+04  0.15372911497E+04  0.00000000000E+00 0. -1.
         24    1    1    2    0    0  0.11271238769E+02 -0.83195121108E+01 -0.12673825060E+04  0.12700086171E+04  0.80419002446E+02 0. -1.
        -24    1    1    2    0    0 -0.11271238769E+02  0.83195121108E+01 -0.26239344694E+03  0.27479772935E+03  0.80419002446E+02 0.  0.
<mgrwt>
<rscale>  0 0.81630087E+02</rscale>
<asrwt>0</asrwt>
<pdfrwt beam="1">  1        2 0.23650672E+00 0.81630087E+02</pdfrwt>
<pdfrwt beam="2">  1       -2 0.11561822E-02 0.81630087E+02</pdfrwt>
<totfact> 0.20936431E+04</totfact>
</mgrwt>
</event>
<event>
 4    1  0.4941530E-001  0.1175784E+03  0.7546771E-02  0.1247146E+00
          1   -1    0    0  501    0  0.00000000000E+00  0.00000000000E+00  0.18185275025E+04  0.18185275025E+04  0.00000000000E+00 0. -1.
         -1   -1    0    0    0  501 -0.00000000000E+00 -0.00000000000E+00 -0.76575207854E+01  0.76575207854E+01  0.00000000000E+00 0.  1.
         24    1    1    2    0    0 -0.25610744428E+02 -0.81862995172E+02  0.82777397398E+03  0.83608278787E+03  0.80419002446E+02 0. -1.
        -24    1    1    2    0    0  0.25610744428E+02  0.81862995172E+02  0.98309600769E+03  0.99010223538E+03  0.80419002446E+02 0.  1.
<mgrwt>
<rscale>  0 0.11757838E+03</rscale>
<asrwt>0</asrwt>
<pdfrwt beam="1">  1        1 0.27977312E+00 0.11757838E+03</pdfrwt>
<pdfrwt beam="2">  1       -1 0.11780816E-02 0.11757838E+03</pdfrwt>
<totfact> 0.64216153E+03</totfact>
</mgrwt>
</event>
<event>
 4    1  0.4941530E-001  0.8114988E+02  0.7546771E-02  0.1325820E+00
         -3   -1    0    0    0  501 -0.00000000000E+00  0.00000000000E+00  0.25999938954E+02  0.25999938954E+02  0.00000000000E+00 0.  1.
          3   -1    0    0  501    0  0.00000000000E+00 -0.00000000000E+00 -0.26400552858E+03  0.26400552858E+03  0.00000000000E+00 0. -1.
         24    1    1    2    0    0 -0.83972936442E+01 -0.68973170698E+01 -0.89778185915E+02  0.12101828847E+03  0.80419002446E+02 0.  0.
        -24    1    1    2    0    0  0.83972936442E+01  0.68973170698E+01 -0.14822740371E+03  0.16898717907E+03  0.80419002446E+02 0.  1.
<mgrwt>
<rscale>  0 0.81149883E+02</rscale>
<asrwt>0</asrwt>
<pdfrwt beam="1">  1        3 0.40616233E-01 0.81149883E+02</pdfrwt>
<pdfrwt beam="2">  1       -3 0.39999908E-02 0.81149883E+02</pdfrwt>
<totfact> 0.40063815E+03</totfact>
</mgrwt>
</event>
<event>
 4    1  0.4941530E-001  0.1213462E+03  0.7546771E-02  0.1240893E+00
          3   -1    0    0  501    0  0.00000000000E+00  0.00000000000E+00  0.11765170191E+04  0.11765170191E+04  0.00000000000E+00 0. -1.
         -3   -1    0    0    0  501 -0.00000000000E+00 -0.00000000000E+00 -0.18541545473E+02  0.18541545473E+02  0.00000000000E+00 0.  1.
         24    1    1    2    0    0 -0.43412177577E+02  0.79831421418E+02  0.23834698382E+03  0.26745873263E+03  0.80419002446E+02 0.  1.
        -24    1    1    2    0    0  0.43412177577E+02 -0.79831421418E+02  0.91962848979E+03  0.92759983193E+03  0.80419002446E+02 0. -1.
<mgrwt>
<rscale>  0 0.12134615E+03</rscale>
<asrwt>0</asrwt>
<pdfrwt beam="1">  1        3 0.18100256E+00 0.12134615E+03</pdfrwt>
<pdfrwt beam="2">  1       -3 0.28525464E-02 0.12134615E+03</pdfrwt>
<totfact> 0.26897686E+02</totfact>
</mgrwt>
</event>
<event>
 4    1  0.4941530E-001  0.9148913E+02  0.7546771E-02  0.1299285E+00
          1   -1    0    0  501    0  0.00000000000E+00  0.00000000000E+00  0.10351692506E+04  0.10351692506E+04  0.00000000000E+00 0. -1.
         -1   -1    0    0    0  501 -0.00000000000E+00 -0.00000000000E+00 -0.46642138981E+02  0.46642138981E+02  0.00000000000E+00 0.  1.
         24    1    1    2    0    0  0.39484114673E+02 -0.18548569433E+02  0.24735097375E+01  0.91522559756E+02  0.80419002446E+02 0.  1.
        -24    1    1    2    0    0 -0.39484114673E+02  0.18548569433E+02  0.98605360191E+03  0.99028882985E+03  0.80419002446E+02 0. -1.
<mgrwt>
<rscale>  0 0.91489129E+02</rscale>
<asrwt>0</asrwt>
<pdfrwt beam="1">  1        1 0.15925679E+00 0.91489129E+02</pdfrwt>
<pdfrwt beam="2">  1       -1 0.71757145E-02 0.91489129E+02</pdfrwt>
<totfact> 0.15209877E+03</totfact>
</mgrwt>
</event>
<event>
 4    1  0.4941530E-001  0.8306939E+02  0.7546771E-02  0.1320560E+00
          2   -1    0    0  501    0  0.00000000000E+00  0.00000000000E+00  0.29986448773E+04  0.29986448773E+04  0.00000000000E+00 0. -1.
         -2   -1    0    0    0  501 -0.00000000000E+00 -0.00000000000E+00 -0.41444617116E+01  0.41444617116E+01  0.00000000000E+00 0.  1.
         24    1    1    2    0    0 -0.37792267785E+01 -0.20470117767E+02  0.24985234944E+04  0.24999040334E+04  0.80419002446E+02 0. -1.
        -24    1    1    2    0    0  0.37792267785E+01  0.20470117767E+02  0.49597692122E+03  0.50288530563E+03  0.80419002446E+02 0.  1.
<mgrwt>
<rscale>  0 0.83069394E+02</rscale>
<asrwt>0</asrwt>
<pdfrwt beam="1">  1        2 0.46132825E+00 0.83069394E+02</pdfrwt>
<pdfrwt beam="2">  1       -2 0.63761189E-03 0.83069394E+02</pdfrwt>
<totfact> 0.84750945E+03</totfact>
</mgrwt>
</event>
<event>
 4    1  0.4941530E-001  0.8528877E+02  0.7546771E-02  0.1314679E+00
         -2   -1    0    0    0  501 -0.00000000000E+00  0.00000000000E+00  0.35453739665E+02  0.35453739665E+02  0.00000000000E+00 0.  1.
          2   -1    0    0  501    0  0.00000000000E+00 -0.00000000000E+00 -0.22054216262E+03  0.22054216262E+03  0.00000000000E+00 0. -1.
         24    1    1    2    0    0  0.74075322128E+01  0.27424212523E+02 -0.12633298488E+03  0.15242768118E+03  0.80419002446E+02 0. -1.
        -24    1    1    2    0    0 -0.74075322128E+01 -0.27424212523E+02 -0.58755438077E+02  0.10356822111E+03  0.80419002446E+02 0.  1.
<mgrwt>
<rscale>  0 0.85288774E+02</rscale>
<asrwt>0</asrwt>
<pdfrwt beam="1">  1        2 0.33929564E-01 0.85288774E+02</pdfrwt>
<pdfrwt beam="2">  1       -2 0.54544215E-02 0.85288774E+02</pdfrwt>
<totfact> 0.23179026E+04</totfact>
</mgrwt>
</event>
<event>
 4    1  0.4941530E-001  0.1218776E+03  0.7546771E-02  0.1240031E+00
          2   -1    0    0  501    0  0.00000000000E+00  0.00000000000E+00  0.12511184494E+04  0.12511184494E+04  0.00000000000E+00 0. -1.
         -2   -1    0    0    0  501 -0.00000000000E+00 -0.00000000000E+00 -0.24819087106E+02  0.24819087106E+02  0.00000000000E+00 0.  1.
         24    1    1    2    0    0  0.23978140575E+02  0.88385459765E+02  0.10739160529E+04  0.10808098100E+04  0.80419002446E+02 0. -1.
        -24    1    1    2    0    0 -0.23978140575E+02 -0.88385459765E+02  0.15238330941E+03  0.19512772654E+03  0.80419002446E+02 0.  1.
<mgrwt>
<rscale>  0 0.12187763E+03</rscale>
<asrwt>0</asrwt>
<pdfrwt beam="1">  1        2 0.19247971E+00 0.12187763E+03</pdfrwt>
<pdfrwt beam="2">  1       -2 0.38183221E-02 0.12187763E+03</pdfrwt>
<totfact> 0.53816931E+03</totfact>
</mgrwt>
</event>
<event>
 4    1  0.4941530E-001  0.9111033E+02  0.7546771E-02  0.1300185E+00
          2   -1    0    0  501    0  0.00000000000E+00  0.00000000000E+00  0.75902070864E+02  0.75902070864E+02  0.00000000000E+00 0. -1.
         -2   -1    0    0    0  501 -0.00000000000E+00 -0.00000000000E+00 -0.12958439982E+03  0.12958439982E+03  0.00000000000E+00 0.  1.
         24    1    1    2    0    0  0.42054164347E+02 -0.80822893749E+01  0.13742589602E+02  0.92140929362E+02  0.80419002446E+02 0. -1.
        -24    1    1    2    0    0 -0.42054164347E+02  0.80822893749E+01 -0.67424918558E+02  0.11334554132E+03  0.80419002446E+02 0.  1.
<mgrwt>
<rscale>  0 0.91110329E+02</rscale>
<asrwt>0</asrwt>
<pdfrwt beam="1">  1        2 0.11677242E-01 0.91110329E+02</pdfrwt>
<pdfrwt beam="2">  1       -2 0.19936061E-01 0.91110329E+02</pdfrwt>
<totfact> 0.10101643E+04</totfact>
</mgrwt>
</event>
<event>
 4    1  0.4941530E-001  0.8586540E+02  0.7546771E-02  0.1313185E+00
         -2   -1    0    0    0  501 -0.00000000000E+00  0.00000000000E+00  0.26988848718E+03  0.26988848718E+03  0.00000000000E+00 0.  1.
          2   -1    0    0  501    0  0.00000000000E+00 -0.00000000000E+00 -0.66080454074E+02  0.66080454074E+02  0.00000000000E+00 0. -1.
         24    1    1    2    0    0 -0.17728247419E+01 -0.30041776191E+02 -0.26754087722E+02  0.89936913381E+02  0.80419002446E+02 0. -1.
        -24    1    1    2    0    0  0.17728247419E+01  0.30041776191E+02  0.23056212083E+03  0.24603202787E+03  0.80419002446E+02 0.  1.
<mgrwt>
<rscale>  0 0.85865402E+02</rscale>
<asrwt>0</asrwt>
<pdfrwt beam="1">  1        2 0.10166224E-01 0.85865402E+02</pdfrwt>
<pdfrwt beam="2">  1       -2 0.41521305E-01 0.85865402E+02</pdfrwt>
<totfact> 0.32320609E+03</totfact>
</mgrwt>
</event>
<event>
 4    1  0.4941530E-001  0.8907546E+02  0.7546771E-02  0.1305106E+00
          2   -1    0    0  501    0  0.00000000000E+00  0.00000000000E+00  0.22838224175E+04  0.22838224175E+04  0.00000000000E+00 0. -1.
         -2   -1    0    0    0  501 -0.00000000000E+00 -0.00000000000E+00 -0.40286190550E+01  0.40286190550E+01  0.00000000000E+00 0.  1.
         24    1    1    2    0    0  0.33020968373E+02 -0.19412294760E+02  0.15642641563E+04  0.15667982602E+04  0.80419002446E+02 0.  1.
        -24    1    1    2    0    0 -0.33020968373E+02  0.19412294760E+02  0.71552964212E+03  0.72105277633E+03  0.80419002446E+02 0.  1.
<mgrwt>
<rscale>  0 0.89075460E+02</rscale>
<asrwt>0</asrwt>
<pdfrwt beam="1">  1        2 0.35135626E+00 0.89075460E+02</pdfrwt>
<pdfrwt beam="2">  1       -2 0.61978937E-03 0.89075460E+02</pdfrwt>
<totfact> 0.21357388E+04</totfact>
</mgrwt>
</event>
<event>
 4    1  0.4941530E-001  0.9102633E+02  0.7546771E-02  0.1300385E+00
          1   -1    0    0  501    0  0.00000000000E+00  0.00000000000E+00  0.33401842955E+03  0.33401842955E+03  0.00000000000E+00 0. -1.
         -1   -1    0    0    0  501 -0.00000000000E+00 -0.00000000000E+00 -0.84945226155E+02  0.84945226155E+02  0.00000000000E+00 0.  1.
         24    1    1    2    0    0  0.26892879063E+02 -0.33096072682E+02 -0.51723639323E+02  0.10469540482E+03  0.80419002446E+02 0.  1.
        -24    1    1    2    0    0 -0.26892879063E+02  0.33096072682E+02  0.30079684272E+03  0.31426825089E+03  0.80419002446E+02 0. -1.
<mgrwt>
<rscale>  0 0.91026331E+02</rscale>
<asrwt>0</asrwt>
<pdfrwt beam="1">  1        1 0.51387450E-01 0.91026331E+02</pdfrwt>
<pdfrwt beam="2">  1       -1 0.13068496E-01 0.91026331E+02</pdfrwt>
<totfact> 0.29131174E+03</totfact>
</mgrwt>
</event>
<event>
 4    1  0.4941530E-001  0.8573086E+02  0.7546771E-02  0.1313532E+00
         -2   -1    0    0    0  501 -0.00000000000E+00  0.00000000000E+00  0.12794548423E+03  0.12794548423E+03  0.00000000000E+00 0.  1.
          2   -1    0    0  501    0  0.00000000000E+00 -0.00000000000E+00 -0.66648606027E+02  0.66648606027E+02  0.00000000000E+00 0. -1.
         24    1    1    2    0    0  0.29639407576E+02 -0.20165805983E+01  0.66805455572E+02  0.10868645696E+03  0.80419002446E+02 0.  0.
        -24    1    1    2    0    0 -0.29639407576E+02  0.20165805983E+01 -0.55085773706E+01  0.85907633292E+02  0.80419002446E+02 0.  0.
<mgrwt>
<rscale>  0 0.85730851E+02</rscale>
<asrwt>0</asrwt>
<pdfrwt beam="1">  1        2 0.10253632E-01 0.85730862E+02</pdfrwt>
<pdfrwt beam="2">  1       -2 0.19683921E-01 0.85730862E+02</pdfrwt>
<totfact> 0.11984769E+04</totfact>
</mgrwt>
</event>
<event>
 4    1  0.4941530E-001  0.9216548E+02  0.7546771E-02  0.1297691E+00
          3   -1    0    0  501    0  0.00000000000E+00  0.00000000000E+00  0.54921054904E+02  0.54921054904E+02  0.00000000000E+00 0. -1.
         -3   -1    0    0    0  501 -0.00000000000E+00 -0.00000000000E+00 -0.23606366512E+03  0.23606366512E+03  0.00000000000E+00 0.  1.
         24    1    1    2    0    0 -0.16517651314E+02 -0.41885878397E+02 -0.17600493998E+03  0.19867615475E+03  0.80419002446E+02 0.  1.
        -24    1    1    2    0    0  0.16517651314E+02  0.41885878397E+02 -0.51376702406E+01  0.92308565279E+02  0.80419002446E+02 0. -1.
<mgrwt>
<rscale>  0 0.92165479E+02</rscale>
<asrwt>0</asrwt>
<pdfrwt beam="1">  1        3 0.84493931E-02 0.92165479E+02</pdfrwt>
<pdfrwt beam="2">  1       -3 0.36317487E-01 0.92165479E+02</pdfrwt>
<totfact> 0.15615599E+03</totfact>
</mgrwt>
</event>
<event>
 4    1  0.4941530E-001  0.9002326E+02  0.7546771E-02  0.1302795E+00
          4   -1    0    0  501    0  0.00000000000E+00  0.00000000000E+00  0.11603968493E+03  0.11603968493E+03  0.00000000000E+00 0. -1.
         -4   -1    0    0    0  501 -0.00000000000E+00 -0.00000000000E+00 -0.87666255501E+02  0.87666255501E+02  0.00000000000E+00 0.  1.
         24    1    1    2    0    0  0.40442670628E+02  0.11666479526E+01  0.60116049375E+02  0.10825029340E+03  0.80419002446E+02 0. -1.
        -24    1    1    2    0    0 -0.40442670628E+02 -0.11666479526E+01 -0.31742619943E+02  0.95455647031E+02  0.80419002446E+02 0.  1.
<mgrwt>
<rscale>  0 0.90023256E+02</rscale>
<asrwt>0</asrwt>
<pdfrwt beam="1">  1        4 0.17852259E-01 0.90023256E+02</pdfrwt>
<pdfrwt beam="2">  1       -4 0.13487116E-01 0.90023256E+02</pdfrwt>
<totfact> 0.18684530E+03</totfact>
</mgrwt>
</event>
<event>
 4    1  0.4941530E-001  0.8120126E+02  0.7546771E-02  0.1325677E+00
          2   -1    0    0  501    0  0.00000000000E+00  0.00000000000E+00  0.13725808023E+04  0.13725808023E+04  0.00000000000E+00 0. -1.
         -2   -1    0    0    0  501 -0.00000000000E+00 -0.00000000000E+00 -0.59421109392E+01  0.59421109392E+01  0.00000000000E+00 0.  1.
         24    1    1    2    0    0 -0.54637794803E+01 -0.98272674235E+01  0.98499374725E+03  0.98833512846E+03  0.80419002446E+02 0. -1.
        -24    1    1    2    0    0  0.54637794803E+01  0.98272674235E+01  0.38164494409E+03  0.39018778476E+03  0.80419002446E+02 0.  0.
<mgrwt>
<rscale>  0 0.81201256E+02</rscale>
<asrwt>0</asrwt>
<pdfrwt beam="1">  1        2 0.21116603E+00 0.81201256E+02</pdfrwt>
<pdfrwt beam="2">  1       -2 0.91417200E-03 0.81201256E+02</pdfrwt>
<totfact> 0.35396745E+04</totfact>
</mgrwt>
</event>
<event>
 4    1  0.4941530E-001  0.8428459E+02  0.7546771E-02  0.1317314E+00
          1   -1    0    0  501    0  0.00000000000E+00  0.00000000000E+00  0.44499438625E+03  0.44499438625E+03  0.00000000000E+00 0. -1.
         -1   -1    0    0    0  501 -0.00000000000E+00 -0.00000000000E+00 -0.38205942456E+02  0.38205942456E+02  0.00000000000E+00 0.  1.
         24    1    1    2    0    0 -0.10921438750E+02  0.22746377507E+02  0.19054851713E+02  0.86411682325E+02  0.80419002446E+02 0.  0.
        -24    1    1    2    0    0  0.10921438750E+02 -0.22746377507E+02  0.38773359208E+03  0.39678864638E+03  0.80419002446E+02 0.  0.
<mgrwt>
<rscale>  0 0.84284586E+02</rscale>
<asrwt>0</asrwt>
<pdfrwt beam="1">  1        1 0.68460671E-01 0.84284586E+02</pdfrwt>
<pdfrwt beam="2">  1       -1 0.58778376E-02 0.84284586E+02</pdfrwt>
<totfact> 0.67318278E+03</totfact>
</mgrwt>
</event>
<event>
 4    1  0.4941530E-001  0.8936196E+02  0.7546771E-02  0.1304404E+00
         -2   -1    0    0    0  501 -0.00000000000E+00  0.00000000000E+00  0.20135146375E+02  0.20135146375E+02  0.00000000000E+00 0.  1.
          2   -1    0    0  501    0  0.00000000000E+00 -0.00000000000E+00 -0.41087514475E+04  0.41087514475E+04  0.00000000000E+00 0. -1.
         24    1    1    2    0    0  0.15189595911E+02  0.35883431558E+02 -0.40065881578E+04  0.40075845876E+04  0.80419002446E+02 0. -1.
        -24    1    1    2    0    0 -0.15189595911E+02 -0.35883431558E+02 -0.82028143405E+02  0.12130200637E+03  0.80419002446E+02 0.  1.
<mgrwt>
<rscale>  0 0.89361963E+02</rscale>
<asrwt>0</asrwt>
<pdfrwt beam="1">  1        2 0.63211596E+00 0.89361963E+02</pdfrwt>
<pdfrwt beam="2">  1       -2 0.30977131E-02 0.89361963E+02</pdfrwt>
<totfact> 0.16757337E+02</totfact>
</mgrwt>
</event>
<event>
 4    1  0.4941530E-001  0.9107776E+02  0.7546771E-02  0.1300263E+00
         -2   -1    0    0    0  501 -0.00000000000E+00  0.00000000000E+00  0.88973429019E+01  0.88973429019E+01  0.00000000000E+00 0.  1.
          2   -1    0    0  501    0  0.00000000000E+00 -0.00000000000E+00 -0.11540092999E+04  0.11540092999E+04  0.00000000000E+00 0. -1.
         24    1    1    2    0    0 -0.86323026503E+01  0.41873921112E+02 -0.82740559431E+03  0.83240325285E+03  0.80419002446E+02 0.  0.
        -24    1    1    2    0    0  0.86323026503E+01 -0.41873921112E+02 -0.31770636271E+03  0.33050338997E+03  0.80419002446E+02 0.  0.
<mgrwt>
<rscale>  0 0.91077757E+02</rscale>
<asrwt>0</asrwt>
<pdfrwt beam="1">  1        2 0.17753996E+00 0.91077757E+02</pdfrwt>
<pdfrwt beam="2">  1       -2 0.13688215E-02 0.91077757E+02</pdfrwt>
<totfact> 0.26408243E+04</totfact>
</mgrwt>
</event>
<event>
 4    1  0.4941530E-001  0.8919527E+02  0.7546771E-02  0.1304812E+00
          1   -1    0    0  501    0  0.00000000000E+00  0.00000000000E+00  0.39664416642E+02  0.39664416642E+02  0.00000000000E+00 0. -1.
         -1   -1    0    0    0  501 -0.00000000000E+00 -0.00000000000E+00 -0.23874948247E+03  0.23874948247E+03  0.00000000000E+00 0.  1.
         24    1    1    2    0    0 -0.23282463593E+02 -0.30765354174E+02 -0.15520482877E+03  0.17900931528E+03  0.80419002446E+02 0.  1.
        -24    1    1    2    0    0  0.23282463593E+02  0.30765354174E+02 -0.43880237056E+02  0.99404583832E+02  0.80419002446E+02 0. -1.
<mgrwt>
<rscale>  0 0.89195269E+02</rscale>
<asrwt>0</asrwt>
<pdfrwt beam="1">  1        1 0.61022179E-02 0.89195269E+02</pdfrwt>
<pdfrwt beam="2">  1       -1 0.36730690E-01 0.89195269E+02</pdfrwt>
<totfact> 0.82457918E+03</totfact>
</mgrwt>
</event>
<event>
 4    1  0.4941530E-001  0.8381952E+02  0.7546771E-02  0.1318549E+00
          2   -1    0    0  501    0  0.00000000000E+00  0.00000000000E+00  0.22162517850E+04  0.22162517850E+04  0.00000000000E+00 0. -1.
         -2   -1    0    0    0  501 -0.00000000000E+00 -0.00000000000E+00 -0.37075956224E+01  0.37075956224E+01  0.00000000000E+00 0.  1.
         24    1    1    2    0    0 -0.14868136305E+02  0.18369393841E+02  0.15289031159E+04  0.15311990236E+04  0.80419002446E+02 0.  0.
        -24    1    1    2    0    0  0.14868136305E+02 -0.18369393841E+02  0.68364107349E+03  0.68876035704E+03  0.80419002446E+02 0.  0.
<mgrwt>
<rscale>  0 0.83819521E+02</rscale>
<asrwt>0</asrwt>
<pdfrwt beam="1">  1        2 0.34096075E+00 0.83819521E+02</pdfrwt>
<pdfrwt beam="2">  1       -2 0.57040110E-03 0.83819521E+02</pdfrwt>
<totfact> 0.25882124E+04</totfact>
</mgrwt>
</event>
<event>
 4    1  0.4941530E-001  0.8483281E+02  0.7546771E-02  0.1315870E+00
         -1   -1    0    0    0  501 -0.00000000000E+00  0.00000000000E+00  0.11456460043E+03  0.11456460043E+03  0.00000000000E+00 0.  1.
          1   -1    0    0  501    0  0.00000000000E+00 -0.00000000000E+00 -0.17518614915E+03  0.17518614915E+03  0.00000000000E+00 0. -1.
         24    1    1    2    0    0 -0.10310619270E+02 -0.24961573195E+02  0.85718674106E+02  0.12059973487E+03  0.80419002446E+02 0.  1.
        -24    1    1    2    0    0  0.10310619270E+02  0.24961573195E+02 -0.14634022283E+03  0.16915101471E+03  0.80419002446E+02 0. -1.
<mgrwt>
<rscale>  0 0.84832806E+02</rscale>
<asrwt>0</asrwt>
<pdfrwt beam="1">  1        1 0.26951715E-01 0.84832806E+02</pdfrwt>
<pdfrwt beam="2">  1       -1 0.17625323E-01 0.84832806E+02</pdfrwt>
<totfact> 0.40145537E+03</totfact>
</mgrwt>
</event>
<event>
 4    1  0.4941530E-001  0.8760470E+02  0.7546771E-02  0.1308758E+00
          2   -1    0    0  501    0  0.00000000000E+00  0.00000000000E+00  0.11950904479E+03  0.11950904479E+03  0.00000000000E+00 0. -1.
         -2   -1    0    0    0  501 -0.00000000000E+00 -0.00000000000E+00 -0.67974478314E+02  0.67974478314E+02  0.00000000000E+00 0.  1.
         24    1    1    2    0    0 -0.33852321710E+02 -0.78350932343E+01  0.47805354962E+02  0.99799480402E+02  0.80419002446E+02 0. -1.
        -24    1    1    2    0    0  0.33852321710E+02  0.78350932343E+01  0.37292115116E+01  0.87684042699E+02  0.80419002446E+02 0.  1.
<mgrwt>
<rscale>  0 0.87604705E+02</rscale>
<asrwt>0</asrwt>
<pdfrwt beam="1">  1        2 0.18386007E-01 0.87604705E+02</pdfrwt>
<pdfrwt beam="2">  1       -2 0.10457612E-01 0.87604705E+02</pdfrwt>
<totfact> 0.16824873E+04</totfact>
</mgrwt>
</event>
<event>
 4    1  0.4941530E-001  0.8524938E+02  0.7546771E-02  0.1314782E+00
         -2   -1    0    0    0  501 -0.00000000000E+00  0.00000000000E+00  0.17007904637E+03  0.17007904637E+03  0.00000000000E+00 0.  1.
          2   -1    0    0  501    0  0.00000000000E+00 -0.00000000000E+00 -0.14243202238E+03  0.14243202238E+03  0.00000000000E+00 0. -1.
         24    1    1    2    0    0 -0.28278358610E+02  0.75801923575E+00 -0.11690907272E+03  0.14468996993E+03  0.80419002446E+02 0. -1.
        -24    1    1    2    0    0  0.28278358610E+02 -0.75801923575E+00  0.14455609671E+03  0.16782109882E+03  0.80419002446E+02 0.  1.
<mgrwt>
<rscale>  0 0.85249376E+02</rscale>
<asrwt>0</asrwt>
<pdfrwt beam="1">  1        2 0.21912619E-01 0.85249376E+02</pdfrwt>
<pdfrwt beam="2">  1       -2 0.26166007E-01 0.85249376E+02</pdfrwt>
<totfact> 0.30696831E+03</totfact>
</mgrwt>
</event>
<event>
 4    1  0.4941530E-001  0.9063995E+02  0.7546771E-02  0.1301309E+00
          2   -1    0    0  501    0  0.00000000000E+00  0.00000000000E+00  0.49467556967E+03  0.49467556967E+03  0.00000000000E+00 0. -1.
         -2   -1    0    0    0  501 -0.00000000000E+00 -0.00000000000E+00 -0.18932546983E+02  0.18932546983E+02  0.00000000000E+00 0.  1.
         24    1    1    2    0    0  0.26701875313E+02 -0.32177558434E+02  0.32785461186E+03  0.34015327117E+03  0.80419002446E+02 0. -1.
        -24    1    1    2    0    0 -0.26701875313E+02  0.32177558434E+02  0.14788841083E+03  0.17345484549E+03  0.80419002446E+02 0.  1.
<mgrwt>
<rscale>  0 0.90639955E+02</rscale>
<asrwt>0</asrwt>
<pdfrwt beam="1">  1        2 0.76103924E-01 0.90639955E+02</pdfrwt>
<pdfrwt beam="2">  1       -2 0.29126999E-02 0.90639955E+02</pdfrwt>
<totfact> 0.25088019E+04</totfact>
</mgrwt>
</event>
<event>
 4    1  0.4941530E-001  0.9211703E+02  0.7546771E-02  0.1297805E+00
         -2   -1    0    0    0  501 -0.00000000000E+00  0.00000000000E+00  0.20799327779E+03  0.20799327779E+03  0.00000000000E+00 0.  1.
          2   -1    0    0  501    0  0.00000000000E+00 -0.00000000000E+00 -0.70347352425E+02  0.70347352425E+02  0.00000000000E+00 0. -1.
         24    1    1    2    0    0  0.26630111497E+02  0.36182423297E+02 -0.21376194974E+02  0.94564730528E+02  0.80419002446E+02 0. -1.
        -24    1    1    2    0    0 -0.26630111497E+02 -0.36182423297E+02  0.15902212034E+03  0.18377589969E+03  0.80419002446E+02 0.  1.
<mgrwt>
<rscale>  0 0.92117026E+02</rscale>
<asrwt>0</asrwt>
<pdfrwt beam="1">  1        2 0.10822670E-01 0.92117026E+02</pdfrwt>
<pdfrwt beam="2">  1       -2 0.31998966E-01 0.92117026E+02</pdfrwt>
<totfact> 0.48719542E+03</totfact>
</mgrwt>
</event>
<event>
 4    1  0.4941530E-001  0.8171488E+02  0.7546771E-02  0.1324254E+00
         -2   -1    0    0    0  501 -0.00000000000E+00  0.00000000000E+00  0.28860206826E+02  0.28860206826E+02  0.00000000000E+00 0.  1.
          2   -1    0    0  501    0  0.00000000000E+00 -0.00000000000E+00 -0.61728200336E+03  0.61728200336E+03  0.00000000000E+00 0. -1.
         24    1    1    2    0    0 -0.13606305298E+02 -0.49974014068E+01 -0.54965843034E+03  0.55569929958E+03  0.80419002446E+02 0. -1.
        -24    1    1    2    0    0  0.13606305298E+02  0.49974014068E+01 -0.38763366199E+02  0.90442910602E+02  0.80419002446E+02 0.  1.
<mgrwt>
<rscale>  0 0.81714879E+02</rscale>
<asrwt>0</asrwt>
<pdfrwt beam="1">  1        2 0.94966463E-01 0.81714879E+02</pdfrwt>
<pdfrwt beam="2">  1       -2 0.44400318E-02 0.81714879E+02</pdfrwt>
<totfact> 0.10518966E+04</totfact>
</mgrwt>
</event>
<event>
 4    1  0.4941530E-001  0.1342815E+03  0.7546771E-02  0.1221238E+00
         -3   -1    0    0    0  501 -0.00000000000E+00  0.00000000000E+00  0.19745259223E+03  0.19745259223E+03  0.00000000000E+00 0.  1.
          3   -1    0    0  501    0  0.00000000000E+00 -0.00000000000E+00 -0.10902999607E+03  0.10902999607E+03  0.00000000000E+00 0. -1.
         24    1    1    2    0    0  0.10753738623E+03  0.14050787517E+00  0.10597061110E+03  0.17105933342E+03  0.80419002446E+02 0.  0.
        -24    1    1    2    0    0 -0.10753738623E+03 -0.14050787517E+00 -0.17548014937E+02  0.13542325488E+03  0.80419002446E+02 0.  1.
<mgrwt>
<rscale>  0 0.13428151E+03</rscale>
<asrwt>0</asrwt>
<pdfrwt beam="1">  1        3 0.16773846E-01 0.13428151E+03</pdfrwt>
<pdfrwt beam="2">  1       -3 0.30377322E-01 0.13428151E+03</pdfrwt>
<totfact> 0.74028846E+02</totfact>
</mgrwt>
</event>
<event>
 4    1  0.4941530E-001  0.9689110E+02  0.7546771E-02  0.1286973E+00
         -2   -1    0    0    0  501 -0.00000000000E+00  0.00000000000E+00  0.70028140879E+01  0.70028140879E+01  0.00000000000E+00 0.  1.
          2   -1    0    0  501    0  0.00000000000E+00 -0.00000000000E+00 -0.13442265746E+04  0.13442265746E+04  0.00000000000E+00 0. -1.
         24    1    1    2    0    0  0.45013563141E+02 -0.29907338831E+02 -0.70376406409E+03  0.71040252226E+03  0.80419002446E+02 0. -1.
        -24    1    1    2    0    0 -0.45013563141E+02  0.29907338831E+02 -0.63345969639E+03  0.64082686639E+03  0.80419002446E+02 0.  1.
<mgrwt>
<rscale>  0 0.96891102E+02</rscale>
<asrwt>0</asrwt>
<pdfrwt beam="1">  1        2 0.20680413E+00 0.96891102E+02</pdfrwt>
<pdfrwt beam="2">  1       -2 0.10773558E-02 0.96891102E+02</pdfrwt>
<totfact> 0.29494169E+04</totfact>
</mgrwt>
</event>
<event>
 4    1  0.4941530E-001  0.1060650E+03  0.7546771E-02  0.1268035E+00
          1   -1    0    0  501    0  0.00000000000E+00  0.00000000000E+00  0.12632131226E+02  0.12632131226E+02  0.00000000000E+00 0. -1.
         -1   -1    0    0    0  501 -0.00000000000E+00 -0.00000000000E+00 -0.11092543131E+04  0.11092543131E+04  0.00000000000E+00 0.  1.
         24    1    1    2    0    0  0.67393463488E+02 -0.15514354357E+02 -0.79737609565E+03  0.80439942067E+03  0.80419002446E+02 0. -1.
        -24    1    1    2    0    0 -0.67393463488E+02  0.15514354357E+02 -0.29924608619E+03  0.31748702362E+03  0.80419002446E+02 0.  1.
<mgrwt>
<rscale>  0 0.10606503E+03</rscale>
<asrwt>0</asrwt>
<pdfrwt beam="1">  1        1 0.19434046E-02 0.10606503E+03</pdfrwt>
<pdfrwt beam="2">  1       -1 0.17065453E+00 0.10606503E+03</pdfrwt>
<totfact> 0.16120882E+03</totfact>
</mgrwt>
</event>
<event>
 4    1  0.4941530E-001  0.8490671E+02  0.7546771E-02  0.1315677E+00
         -4   -1    0    0    0  501 -0.00000000000E+00  0.00000000000E+00  0.39538157496E+03  0.39538157496E+03  0.00000000000E+00 0.  1.
          4   -1    0    0  501    0  0.00000000000E+00 -0.00000000000E+00 -0.53533153665E+02  0.53533153665E+02  0.00000000000E+00 0. -1.
         24    1    1    2    0    0  0.21470601266E+02  0.16761442467E+02 -0.11342900260E+02  0.85661018048E+02  0.80419002446E+02 0. -1.
        -24    1    1    2    0    0 -0.21470601266E+02 -0.16761442467E+02  0.35319132156E+03  0.36325371058E+03  0.80419002446E+02 0.  1.
<mgrwt>
<rscale>  0 0.84906705E+02</rscale>
<asrwt>0</asrwt>
<pdfrwt beam="1">  1        4 0.82358701E-02 0.84906705E+02</pdfrwt>
<pdfrwt beam="2">  1       -4 0.60827933E-01 0.84906705E+02</pdfrwt>
<totfact> 0.40769798E+02</totfact>
</mgrwt>
</event>
<event>
 4    1  0.4941530E-001  0.1235502E+03  0.7546771E-02  0.1237353E+00
          2   -1    0    0  501    0  0.00000000000E+00  0.00000000000E+00  0.11280732364E+04  0.11280732364E+04  0.00000000000E+00 0. -1.
         -2   -1    0    0    0  501 -0.00000000000E+00 -0.00000000000E+00 -0.24113320224E+02  0.24113320224E+02  0.00000000000E+00 0.  1.
         24    1    1    2    0    0  0.93165462642E+02 -0.10845671231E+02  0.93360970334E+03  0.94174929049E+03  0.80419002446E+02 0. -1.
        -24    1    1    2    0    0 -0.93165462642E+02  0.10845671231E+02  0.17035021288E+03  0.21043726618E+03  0.80419002446E+02 0.  1.
<mgrwt>
<rscale>  0 0.12355018E+03</rscale>
<asrwt>0</asrwt>
<pdfrwt beam="1">  1        2 0.17354969E+00 0.12355018E+03</pdfrwt>
<pdfrwt beam="2">  1       -2 0.37097425E-02 0.12355018E+03</pdfrwt>
<totfact> 0.65720426E+03</totfact>
</mgrwt>
</event>
<event>
 4    1  0.4941530E-001  0.9039262E+02  0.7546771E-02  0.1301904E+00
          1   -1    0    0  501    0  0.00000000000E+00  0.00000000000E+00  0.25861177560E+02  0.25861177560E+02  0.00000000000E+00 0. -1.
         -1   -1    0    0    0  501 -0.00000000000E+00 -0.00000000000E+00 -0.76222232200E+03  0.76222232200E+03  0.00000000000E+00 0.  1.
         24    1    1    2    0    0  0.39747699907E+02  0.11123422223E+02 -0.66969050706E+03  0.67576342116E+03  0.80419002446E+02 0.  1.
        -24    1    1    2    0    0 -0.39747699907E+02 -0.11123422223E+02 -0.66670637380E+02  0.11232007840E+03  0.80419002446E+02 0. -1.
<mgrwt>
<rscale>  0 0.90392622E+02</rscale>
<asrwt>0</asrwt>
<pdfrwt beam="1">  1        1 0.39786428E-02 0.90392622E+02</pdfrwt>
<pdfrwt beam="2">  1       -1 0.11726497E+00 0.90392622E+02</pdfrwt>
<totfact> 0.15312468E+03</totfact>
</mgrwt>
</event>
<event>
 4    1  0.4941530E-001  0.1066464E+03  0.7546771E-02  0.1266909E+00
         -2   -1    0    0    0  501 -0.00000000000E+00  0.00000000000E+00  0.16089581201E+03  0.16089581201E+03  0.00000000000E+00 0.  1.
          2   -1    0    0  501    0  0.00000000000E+00 -0.00000000000E+00 -0.82715963795E+02  0.82715963795E+02  0.00000000000E+00 0. -1.
         24    1    1    2    0    0 -0.68193829755E+02 -0.15994899897E+02 -0.73577831112E+01  0.10689989788E+03  0.80419002446E+02 0. -1.
        -24    1    1    2    0    0  0.68193829755E+02  0.15994899897E+02  0.85537631324E+02  0.13671187793E+03  0.80419002446E+02 0.  1.
<mgrwt>
<rscale>  0 0.10664638E+03</rscale>
<asrwt>0</asrwt>
<pdfrwt beam="1">  1        2 0.12725533E-01 0.10664638E+03</pdfrwt>
<pdfrwt beam="2">  1       -2 0.24753202E-01 0.10664638E+03</pdfrwt>
<totfact> 0.63952519E+03</totfact>
</mgrwt>
</event>
<event>
 4    1  0.4941530E-001  0.8294881E+02  0.7546771E-02  0.1320885E+00
         -2   -1    0    0    0  501 -0.00000000000E+00  0.00000000000E+00  0.21723621061E+03  0.21723621061E+03  0.00000000000E+00 0.  1.
          2   -1    0    0  501    0  0.00000000000E+00 -0.00000000000E+00 -0.31681986436E+02  0.31681986436E+02  0.00000000000E+00 0. -1.
         24    1    1    2    0    0 -0.15606886505E+02 -0.13027441714E+02  0.90671680715E+02  0.12288962032E+03  0.80419002446E+02 0. -1.
        -24    1    1    2    0    0  0.15606886505E+02  0.13027441714E+02  0.94882543457E+02  0.12602857672E+03  0.80419002446E+02 0.  0.
<mgrwt>
<rscale>  0 0.82948810E+02</rscale>
<asrwt>0</asrwt>
<pdfrwt beam="1">  1        2 0.48741519E-02 0.82948810E+02</pdfrwt>
<pdfrwt beam="2">  1       -2 0.33420955E-01 0.82948810E+02</pdfrwt>
<totfact> 0.12065472E+04</totfact>
</mgrwt>
</event>
<event>
 4    1  0.4941530E-001  0.9219304E+02  0.7546771E-02  0.1297626E+00
         -2   -1    0    0    0  501 -0.00000000000E+00  0.00000000000E+00  0.86813344926E+02  0.86813344926E+02  0.00000000000E+00 0.  1.
          2   -1    0    0  501    0  0.00000000000E+00 -0.00000000000E+00 -0.12123577243E+04  0.12123577243E+04  0.00000000000E+00 0. -1.
         24    1    1    2    0    0 -0.44875861771E+02  0.43008552164E+01 -0.11855764339E+04  0.11891555983E+04  0.80419002446E+02 0. -1.
        -24    1    1    2    0    0  0.44875861771E+02 -0.43008552164E+01  0.60032054524E+02  0.11001547096E+03  0.80419002446E+02 0.  1.
<mgrwt>
<rscale>  0 0.92193038E+02</rscale>
<asrwt>0</asrwt>
<pdfrwt beam="1">  1        2 0.18651654E+00 0.92193038E+02</pdfrwt>
<pdfrwt beam="2">  1       -2 0.13355901E-01 0.92193038E+02</pdfrwt>
<totfact> 0.83049738E+02</totfact>
</mgrwt>
</event>
<event>
 4    1  0.4941530E-001  0.9569505E+02  0.7546771E-02  0.1289618E+00
         -2   -1    0    0    0  501 -0.00000000000E+00  0.00000000000E+00  0.91359833295E+01  0.91359833295E+01  0.00000000000E+00 0.  1.
          2   -1    0    0  501    0  0.00000000000E+00 -0.00000000000E+00 -0.10029126484E+04  0.10029126484E+04  0.00000000000E+00 0. -1.
         24    1    1    2    0    0  0.14983266242E+01 -0.51846671977E+02 -0.48500279969E+03  0.49435336961E+03  0.80419002446E+02 0. -1.
        -24    1    1    2    0    0 -0.14983266242E+01  0.51846671977E+02 -0.50877386535E+03  0.51769526210E+03  0.80419002446E+02 0.  1.
<mgrwt>
<rscale>  0 0.95695040E+02</rscale>
<asrwt>0</asrwt>
<pdfrwt beam="1">  1        2 0.15429421E+00 0.95695052E+02</pdfrwt>
<pdfrwt beam="2">  1       -2 0.14055363E-02 0.95695052E+02</pdfrwt>
<totfact> 0.31124422E+04</totfact>
</mgrwt>
</event>
<event>
 4    1  0.4941530E-001  0.1009354E+03  0.7546771E-02  0.1278341E+00
          1   -1    0    0  501    0  0.00000000000E+00  0.00000000000E+00  0.29849782311E+03  0.29849782311E+03  0.00000000000E+00 0. -1.
         -1   -1    0    0    0  501 -0.00000000000E+00 -0.00000000000E+00 -0.37497349011E+02  0.37497349011E+02  0.00000000000E+00 0.  1.
         24    1    1    2    0    0 -0.53783505814E+02 -0.28776206775E+02  0.80161871149E+02  0.12889482967E+03  0.80419002446E+02 0.  1.
        -24    1    1    2    0    0  0.53783505814E+02  0.28776206775E+02  0.18083860295E+03  0.20710034246E+03  0.80419002446E+02 0. -1.
<mgrwt>
<rscale>  0 0.10093538E+03</rscale>
<asrwt>0</asrwt>
<pdfrwt beam="1">  1        1 0.45922740E-01 0.10093538E+03</pdfrwt>
<pdfrwt beam="2">  1       -1 0.57688231E-02 0.10093538E+03</pdfrwt>
<totfact> 0.11502244E+04</totfact>
</mgrwt>
</event>
<event>
 4    1  0.4941530E-001  0.9271446E+02  0.7546771E-02  0.1296408E+00
         -1   -1    0    0    0  501 -0.00000000000E+00  0.00000000000E+00  0.22575105651E+04  0.22575105651E+04  0.00000000000E+00 0.  1.
          1   -1    0    0  501    0  0.00000000000E+00 -0.00000000000E+00 -0.42155667868E+01  0.42155667868E+01  0.00000000000E+00 0. -1.
         24    1    1    2    0    0  0.45849971298E+02 -0.51511597271E+01  0.14783942147E+04  0.14812985602E+04  0.80419002446E+02 0.  1.
        -24    1    1    2    0    0 -0.45849971298E+02  0.51511597271E+01  0.77490078355E+03  0.78042757167E+03  0.80419002446E+02 0. -1.
<mgrwt>
<rscale>  0 0.92714456E+02</rscale>
<asrwt>0</asrwt>
<pdfrwt beam="1">  1        1 0.64855054E-03 0.92714456E+02</pdfrwt>
<pdfrwt beam="2">  1       -1 0.34730835E+00 0.92714456E+02</pdfrwt>
<totfact> 0.57266972E+02</totfact>
</mgrwt>
</event>
<event>
 4    1  0.4941530E-001  0.1046986E+03  0.7546771E-02  0.1270715E+00
          1   -1    0    0  501    0  0.00000000000E+00  0.00000000000E+00  0.18640254256E+04  0.18640254256E+04  0.00000000000E+00 0. -1.
         -1   -1    0    0    0  501 -0.00000000000E+00 -0.00000000000E+00 -0.75093653828E+01  0.75093653828E+01  0.00000000000E+00 0.  1.
         24    1    1    2    0    0  0.65427755347E+02  0.14621295421E+02  0.49246413211E+03  0.50347066530E+03  0.80419002446E+02 0.  1.
        -24    1    1    2    0    0 -0.65427755347E+02 -0.14621295421E+02  0.13640519281E+04  0.13680641256E+04  0.80419002446E+02 0. -1.
<mgrwt>
<rscale>  0 0.10469856E+03</rscale>
<asrwt>0</asrwt>
<pdfrwt beam="1">  1        1 0.28677277E+00 0.10469856E+03</pdfrwt>
<pdfrwt beam="2">  1       -1 0.11552885E-02 0.10469856E+03</pdfrwt>
<totfact> 0.61550104E+03</totfact>
</mgrwt>
</event>
<event>
 4    1  0.4941530E-001  0.1226534E+03  0.7546771E-02  0.1238783E+00
          1   -1    0    0  501    0  0.00000000000E+00  0.00000000000E+00  0.10987122160E+04  0.10987122160E+04  0.00000000000E+00 0. -1.
         -1   -1    0    0    0  501 -0.00000000000E+00 -0.00000000000E+00 -0.20316360114E+02  0.20316360114E+02  0.00000000000E+00 0.  1.
         24    1    1    2    0    0  0.55787480894E+02 -0.73921494667E+02  0.21971189102E+03  0.25162901544E+03  0.80419002446E+02 0.  1.
        -24    1    1    2    0    0 -0.55787480894E+02  0.73921494667E+02  0.85868396485E+03  0.86739956067E+03  0.80419002446E+02 0. -1.
<mgrwt>
<rscale>  0 0.12265336E+03</rscale>
<asrwt>0</asrwt>
<pdfrwt beam="1">  1        1 0.16903260E+00 0.12265336E+03</pdfrwt>
<pdfrwt beam="2">  1       -1 0.31255947E-02 0.12265336E+03</pdfrwt>
<totfact> 0.46808539E+03</totfact>
</mgrwt>
</event>
<event>
 4    1  0.4941530E-001  0.8768426E+02  0.7546771E-02  0.1308559E+00
         -2   -1    0    0    0  501 -0.00000000000E+00  0.00000000000E+00  0.67777790746E+01  0.67777790746E+01  0.00000000000E+00 0.  1.
          2   -1    0    0  501    0  0.00000000000E+00 -0.00000000000E+00 -0.11581880085E+04  0.11581880085E+04  0.00000000000E+00 0. -1.
         24    1    1    2    0    0  0.29726136522E+02 -0.18375784359E+02 -0.65923085600E+03  0.66503672838E+03  0.80419002446E+02 0. -1.
        -24    1    1    2    0    0 -0.29726136522E+02  0.18375784359E+02 -0.49217937344E+03  0.49992905921E+03  0.80419002446E+02 0.  1.
<mgrwt>
<rscale>  0 0.87684255E+02</rscale>
<asrwt>0</asrwt>
<pdfrwt beam="1">  1        2 0.17818260E+00 0.87684255E+02</pdfrwt>
<pdfrwt beam="2">  1       -2 0.10427362E-02 0.87684255E+02</pdfrwt>
<totfact> 0.38513086E+04</totfact>
</mgrwt>
</event>
<event>
 4    1  0.4941530E-001  0.8448944E+02  0.7546771E-02  0.1316773E+00
         -1   -1    0    0    0  501 -0.00000000000E+00  0.00000000000E+00  0.24989382295E+02  0.24989382295E+02  0.00000000000E+00 0.  1.
          1   -1    0    0  501    0  0.00000000000E+00 -0.00000000000E+00 -0.28684239678E+03  0.28684239678E+03  0.00000000000E+00 0. -1.
         24    1    1    2    0    0  0.25879980580E+02 -0.12152802806E+01 -0.12091601570E+03  0.14750982715E+03  0.80419002446E+02 0.  1.
        -24    1    1    2    0    0 -0.25879980580E+02  0.12152802806E+01 -0.14093699879E+03  0.16432195192E+03  0.80419002446E+02 0. -1.
<mgrwt>
<rscale>  0 0.84489445E+02</rscale>
<asrwt>0</asrwt>
<pdfrwt beam="1">  1        1 0.44129596E-01 0.84489445E+02</pdfrwt>
<pdfrwt beam="2">  1       -1 0.38445207E-02 0.84489445E+02</pdfrwt>
<totfact> 0.21464106E+04</totfact>
</mgrwt>
</event>
<event>
 4    1  0.4941530E-001  0.9189618E+02  0.7546771E-02  0.1298324E+00
          1   -1    0    0  501    0  0.00000000000E+00  0.00000000000E+00  0.21331732316E+03  0.21331732316E+03  0.00000000000E+00 0. -1.
         -1   -1    0    0    0  501 -0.00000000000E+00 -0.00000000000E+00 -0.42557570155E+02  0.42557570155E+02  0.00000000000E+00 0.  1.
         24    1    1    2    0    0 -0.30212882870E+02  0.32632396142E+02  0.51587298708E+02  0.10538575289E+03  0.80419002446E+02 0.  1.
        -24    1    1    2    0    0  0.30212882870E+02 -0.32632396142E+02  0.11917245430E+03  0.15048914043E+03  0.80419002446E+02 0. -1.
<mgrwt>
<rscale>  0 0.91896178E+02</rscale>
<asrwt>0</asrwt>
<pdfrwt beam="1">  1        1 0.32818049E-01 0.91896178E+02</pdfrwt>
<pdfrwt beam="2">  1       -1 0.65473186E-02 0.91896178E+02</pdfrwt>
<totfact> 0.14265259E+04</totfact>
</mgrwt>
</event>
<event>
 4    1  0.4941530E-001  0.1024601E+03  0.7546771E-02  0.1275206E+00
         -2   -1    0    0    0  501 -0.00000000000E+00  0.00000000000E+00  0.12250915841E+03  0.12250915841E+03  0.00000000000E+00 0.  1.
          2   -1    0    0  501    0  0.00000000000E+00 -0.00000000000E+00 -0.63608217378E+03  0.63608217378E+03  0.00000000000E+00 0. -1.
         24    1    1    2    0    0  0.49717550201E+02 -0.39484370586E+02 -0.60960924661E+03  0.61815976885E+03  0.80419002446E+02 0. -1.
        -24    1    1    2    0    0 -0.49717550201E+02  0.39484370586E+02  0.96036231240E+02  0.14043156335E+03  0.80419002446E+02 0.  1.
<mgrwt>
<rscale>  0 0.10246007E+03</rscale>
<asrwt>0</asrwt>
<pdfrwt beam="1">  1        2 0.97858796E-01 0.10246007E+03</pdfrwt>
<pdfrwt beam="2">  1       -2 0.18847563E-01 0.10246007E+03</pdfrwt>
<totfact> 0.10889295E+03</totfact>
</mgrwt>
</event>
<event>
 4    1  0.4941530E-001  0.8050887E+02  0.7546771E-02  0.1327614E+00
         -3   -1    0    0    0  501 -0.00000000000E+00  0.00000000000E+00  0.18545973336E+02  0.18545973336E+02  0.00000000000E+00 0.  1.
          3   -1    0    0  501    0  0.00000000000E+00 -0.00000000000E+00 -0.75905420567E+03  0.75905420567E+03  0.00000000000E+00 0. -1.
         24    1    1    2    0    0  0.35054753166E+01  0.14741328598E+01 -0.84659729753E+02  0.11682870889E+03  0.80419002446E+02 0.  1.
        -24    1    1    2    0    0 -0.35054753166E+01 -0.14741328598E+01 -0.65584850258E+03  0.66077147011E+03  0.80419002446E+02 0.  0.
<mgrwt>
<rscale>  0 0.80508865E+02</rscale>
<asrwt>0</asrwt>
<pdfrwt beam="1">  1        3 0.11677758E+00 0.80508865E+02</pdfrwt>
<pdfrwt beam="2">  1       -3 0.28532264E-02 0.80508865E+02</pdfrwt>
<totfact> 0.73770644E+02</totfact>
</mgrwt>
</event>
<event>
 4    1  0.4941530E-001  0.8353132E+02  0.7546771E-02  0.1319319E+00
         -2   -1    0    0    0  501 -0.00000000000E+00  0.00000000000E+00  0.12185893542E+02  0.12185893542E+02  0.00000000000E+00 0.  1.
          2   -1    0    0  501    0  0.00000000000E+00 -0.00000000000E+00 -0.21418433633E+04  0.21418433633E+04  0.00000000000E+00 0. -1.
         24    1    1    2    0    0  0.14153727175E+02  0.17605023131E+02 -0.19867094645E+04  0.19884647286E+04  0.80419002446E+02 0. -1.
        -24    1    1    2    0    0 -0.14153727175E+02 -0.17605023131E+02 -0.14294800529E+03  0.16556452821E+03  0.80419002446E+02 0.  1.
<mgrwt>
<rscale>  0 0.83531316E+02</rscale>
<asrwt>0</asrwt>
<pdfrwt beam="1">  1        2 0.32951449E+00 0.83531316E+02</pdfrwt>
<pdfrwt beam="2">  1       -2 0.18747521E-02 0.83531316E+02</pdfrwt>
<totfact> 0.52475614E+03</totfact>
</mgrwt>
</event>
<event>
 4    1  0.4941530E-001  0.8399277E+02  0.7546771E-02  0.1318088E+00
         -2   -1    0    0    0  501 -0.00000000000E+00  0.00000000000E+00  0.37742136187E+02  0.37742136187E+02  0.00000000000E+00 0.  1.
          2   -1    0    0  501    0  0.00000000000E+00 -0.00000000000E+00 -0.45752648726E+03  0.45752648726E+03  0.00000000000E+00 0. -1.
         24    1    1    2    0    0  0.22973557908E+02  0.77321148930E+01 -0.40033791075E+03  0.40905406575E+03  0.80419002446E+02 0. -1.
        -24    1    1    2    0    0 -0.22973557908E+02 -0.77321148930E+01 -0.19446440317E+02  0.86214557698E+02  0.80419002446E+02 0.  1.
<mgrwt>
<rscale>  0 0.83992773E+02</rscale>
<asrwt>0</asrwt>
<pdfrwt beam="1">  1        2 0.70388687E-01 0.83992773E+02</pdfrwt>
<pdfrwt beam="2">  1       -2 0.58064828E-02 0.83992773E+02</pdfrwt>
<totfact> 0.98124932E+03</totfact>
</mgrwt>
</event>
<event>
 4    1  0.4941530E-001  0.8107015E+02  0.7546771E-02  0.1326042E+00
          1   -1    0    0  501    0  0.00000000000E+00  0.00000000000E+00  0.23028463734E+03  0.23028463734E+03  0.00000000000E+00 0. -1.
         -1   -1    0    0    0  501 -0.00000000000E+00 -0.00000000000E+00 -0.34134754705E+02  0.34134754705E+02  0.00000000000E+00 0.  1.
         24    1    1    2    0    0 -0.65624091291E+01  0.78795655753E+01  0.44551032135E+02  0.92504936008E+02  0.80419002446E+02 0.  1.
        -24    1    1    2    0    0  0.65624091291E+01 -0.78795655753E+01  0.15159885050E+03  0.17191445604E+03  0.80419002446E+02 0.  0.
<mgrwt>
<rscale>  0 0.81070147E+02</rscale>
<asrwt>0</asrwt>
<pdfrwt beam="1">  1        1 0.35428405E-01 0.81070147E+02</pdfrwt>
<pdfrwt beam="2">  1       -1 0.52515009E-02 0.81070147E+02</pdfrwt>
<totfact> 0.17732809E+04</totfact>
</mgrwt>
</event>
<event>
 4    1  0.4941530E-001  0.1125082E+03  0.7546771E-02  0.1255994E+00
          1   -1    0    0  501    0  0.00000000000E+00  0.00000000000E+00  0.14527776716E+03  0.14527776716E+03  0.00000000000E+00 0. -1.
         -1   -1    0    0    0  501 -0.00000000000E+00 -0.00000000000E+00 -0.17597165924E+03  0.17597165924E+03  0.00000000000E+00 0.  1.
         24    1    1    2    0    0 -0.36835511477E+02 -0.69527169476E+02 -0.12947661358E+03  0.17152927336E+03  0.80419002446E+02 0.  1.
        -24    1    1    2    0    0  0.36835511477E+02  0.69527169476E+02  0.98782721506E+02  0.14972015303E+03  0.80419002446E+02 0. -1.
<mgrwt>
<rscale>  0 0.11250821E+03</rscale>
<asrwt>0</asrwt>
<pdfrwt beam="1">  1        1 0.22350426E-01 0.11250821E+03</pdfrwt>
<pdfrwt beam="2">  1       -1 0.27072563E-01 0.11250821E+03</pdfrwt>
<totfact> 0.25851018E+03</totfact>
</mgrwt>
</event>
<event>
 4    1  0.4941530E-001  0.9670751E+02  0.7546771E-02  0.1287376E+00
          1   -1    0    0  501    0  0.00000000000E+00  0.00000000000E+00  0.29170708531E+03  0.29170708531E+03  0.00000000000E+00 0. -1.
         -1   -1    0    0    0  501 -0.00000000000E+00 -0.00000000000E+00 -0.75904326921E+02  0.75904326921E+02  0.00000000000E+00 0.  1.
         24    1    1    2    0    0  0.53208459755E+02 -0.73475154971E+01 -0.31792960948E+02  0.10179948179E+03  0.80419002446E+02 0.  1.
        -24    1    1    2    0    0 -0.53208459755E+02  0.73475154971E+01  0.24759571934E+03  0.26581193043E+03  0.80419002446E+02 0. -1.
<mgrwt>
<rscale>  0 0.96707508E+02</rscale>
<asrwt>0</asrwt>
<pdfrwt beam="1">  1        1 0.44878012E-01 0.96707508E+02</pdfrwt>
<pdfrwt beam="2">  1       -1 0.11677589E-01 0.96707508E+02</pdfrwt>
<totfact> 0.40984827E+03</totfact>
</mgrwt>
</event>
<event>
 4    1  0.4941530E-001  0.8138190E+02  0.7546771E-02  0.1325175E+00
         -1   -1    0    0    0  501 -0.00000000000E+00  0.00000000000E+00  0.26722995921E+03  0.26722995921E+03  0.00000000000E+00 0.  1.
          1   -1    0    0  501    0  0.00000000000E+00 -0.00000000000E+00 -0.25044836717E+02  0.25044836717E+02  0.00000000000E+00 0. -1.
         24    1    1    2    0    0 -0.11760987749E+02  0.41806167205E+01  0.13600769042E+03  0.15849639174E+03  0.80419002446E+02 0. -1.
        -24    1    1    2    0    0  0.11760987749E+02 -0.41806167205E+01  0.10617743207E+03  0.13377840418E+03  0.80419002446E+02 0.  0.
<mgrwt>
<rscale>  0 0.81381904E+02</rscale>
<asrwt>0</asrwt>
<pdfrwt beam="1">  1        1 0.38530520E-02 0.81381904E+02</pdfrwt>
<pdfrwt beam="2">  1       -1 0.41112300E-01 0.81381904E+02</pdfrwt>
<totfact> 0.12506287E+04</totfact>
</mgrwt>
</event>
<event>
 4    1  0.4941530E-001  0.8476044E+02  0.7546771E-02  0.1316060E+00
         -2   -1    0    0    0  501 -0.00000000000E+00  0.00000000000E+00  0.34569559562E+01  0.34569559562E+01  0.00000000000E+00 0.  1.
          2   -1    0    0  501    0  0.00000000000E+00 -0.00000000000E+00 -0.21574422845E+04  0.21574422845E+04  0.00000000000E+00 0. -1.
         24    1    1    2    0    0 -0.26299499724E+02 -0.50451275181E+01 -0.12840279550E+04  0.12868224906E+04  0.80419002446E+02 0.  0.
        -24    1    1    2    0    0  0.26299499724E+02  0.50451275181E+01 -0.86995737354E+03  0.87407674990E+03  0.80419002446E+02 0. -1.
<mgrwt>
<rscale>  0 0.84760444E+02</rscale>
<asrwt>0</asrwt>
<pdfrwt beam="1">  1        2 0.33191368E+00 0.84760444E+02</pdfrwt>
<pdfrwt beam="2">  1       -2 0.53184020E-03 0.84760444E+02</pdfrwt>
<totfact> 0.30596089E+04</totfact>
</mgrwt>
</event>
<event>
 4    1  0.4941530E-001  0.1443166E+03  0.7546771E-02  0.1207636E+00
          2   -1    0    0  501    0  0.00000000000E+00  0.00000000000E+00  0.62165000871E+03  0.62165000871E+03  0.00000000000E+00 0. -1.
         -2   -1    0    0    0  501 -0.00000000000E+00 -0.00000000000E+00 -0.37155281929E+02  0.37155281929E+02  0.00000000000E+00 0.  1.
         24    1    1    2    0    0  0.11390330919E+03  0.37230200152E+02  0.39552035742E+03  0.42102686462E+03  0.80419002446E+02 0. -1.
        -24    1    1    2    0    0 -0.11390330919E+03 -0.37230200152E+02  0.18897436937E+03  0.23777842602E+03  0.80419002446E+02 0.  1.
<mgrwt>
<rscale>  0 0.14431655E+03</rscale>
<asrwt>0</asrwt>
<pdfrwt beam="1">  1        2 0.95638455E-01 0.14431655E+03</pdfrwt>
<pdfrwt beam="2">  1       -2 0.57161977E-02 0.14431655E+03</pdfrwt>
<totfact> 0.74391403E+03</totfact>
</mgrwt>
</event>
<event>
 4    1  0.4941530E-001  0.8840852E+02  0.7546771E-02  0.1306752E+00
          2   -1    0    0  501    0  0.00000000000E+00  0.00000000000E+00  0.62272637072E+03  0.62272637072E+03  0.00000000000E+00 0. -1.
         -2   -1    0    0    0  501 -0.00000000000E+00 -0.00000000000E+00 -0.45907147287E+02  0.45907147287E+02  0.00000000000E+00 0.  1.
         24    1    1    2    0    0 -0.33355655514E+02  0.15370437788E+02  0.57338250987E+03  0.58015822729E+03  0.80419002446E+02 0. -1.
        -24    1    1    2    0    0  0.33355655514E+02 -0.15370437788E+02  0.34367135596E+01  0.88475290714E+02  0.80419002446E+02 0.  1.
<mgrwt>
<rscale>  0 0.88408518E+02</rscale>
<asrwt>0</asrwt>
<pdfrwt beam="1">  1        2 0.95804051E-01 0.88408518E+02</pdfrwt>
<pdfrwt beam="2">  1       -2 0.70626385E-02 0.88408518E+02</pdfrwt>
<totfact> 0.52393223E+03</totfact>
</mgrwt>
</event>
<event>
 4    1  0.4941530E-001  0.8474688E+02  0.7546771E-02  0.1316096E+00
          1   -1    0    0  501    0  0.00000000000E+00  0.00000000000E+00  0.35345461261E+03  0.35345461261E+03  0.00000000000E+00 0. -1.
         -1   -1    0    0    0  501 -0.00000000000E+00 -0.00000000000E+00 -0.57420317520E+02  0.57420317520E+02  0.00000000000E+00 0.  1.
         24    1    1    2    0    0 -0.25990603577E+02 -0.62694855339E+01 -0.17117566682E+02  0.86458342377E+02  0.80419002446E+02 0.  1.
        -24    1    1    2    0    0  0.25990603577E+02  0.62694855339E+01  0.31315186177E+03  0.32441658775E+03  0.80419002446E+02 0. -1.
<mgrwt>
<rscale>  0 0.84746881E+02</rscale>
<asrwt>0</asrwt>
<pdfrwt beam="1">  1        1 0.54377631E-01 0.84746881E+02</pdfrwt>
<pdfrwt beam="2">  1       -1 0.88338952E-02 0.84746881E+02</pdfrwt>
<totfact> 0.48978102E+03</totfact>
</mgrwt>
</event>
<event>
 4    1  0.4941530E-001  0.8693117E+02  0.7546771E-02  0.1310458E+00
          1   -1    0    0  501    0  0.00000000000E+00  0.00000000000E+00  0.24506777277E+02  0.24506777277E+02  0.00000000000E+00 0. -1.
         -1   -1    0    0    0  501 -0.00000000000E+00 -0.00000000000E+00 -0.46922777741E+03  0.46922777741E+03  0.00000000000E+00 0.  1.
         24    1    1    2    0    0 -0.15423603831E+02 -0.29187741818E+02 -0.36690437892E+03  0.37706213156E+03  0.80419002446E+02 0.  1.
        -24    1    1    2    0    0  0.15423603831E+02  0.29187741818E+02 -0.77816621206E+02  0.11667242313E+03  0.80419002446E+02 0. -1.
<mgrwt>
<rscale>  0 0.86931167E+02</rscale>
<asrwt>0</asrwt>
<pdfrwt beam="1">  1        1 0.37702737E-02 0.86931167E+02</pdfrwt>
<pdfrwt beam="2">  1       -1 0.72188883E-01 0.86931167E+02</pdfrwt>
<totfact> 0.45988795E+03</totfact>
</mgrwt>
</event>
<event>
 4    1  0.4941530E-001  0.1208207E+03  0.7546771E-02  0.1241749E+00
          1   -1    0    0  501    0  0.00000000000E+00  0.00000000000E+00  0.45900352214E+03  0.45900352214E+03  0.00000000000E+00 0. -1.
         -1   -1    0    0    0  501 -0.00000000000E+00 -0.00000000000E+00 -0.14043091699E+03  0.14043091699E+03  0.00000000000E+00 0.  1.
         24    1    1    2    0    0  0.56010526854E+02  0.70662840529E+02 -0.10431727669E+03  0.15962370225E+03  0.80419002446E+02 0.  1.
        -24    1    1    2    0    0 -0.56010526854E+02 -0.70662840529E+02  0.42288988184E+03  0.43981073687E+03  0.80419002446E+02 0. -1.
<mgrwt>
<rscale>  0 0.12082066E+03</rscale>
<asrwt>0</asrwt>
<pdfrwt beam="1">  1        1 0.70615925E-01 0.12082066E+03</pdfrwt>
<pdfrwt beam="2">  1       -1 0.21604757E-01 0.12082066E+03</pdfrwt>
<totfact> 0.89660443E+02</totfact>
</mgrwt>
</event>
<event>
 4    1  0.4941530E-001  0.1118633E+03  0.7546771E-02  0.1257158E+00
          2   -1    0    0  501    0  0.00000000000E+00  0.00000000000E+00  0.15845190582E+04  0.15845190582E+04  0.00000000000E+00 0. -1.
         -2   -1    0    0    0  501 -0.00000000000E+00 -0.00000000000E+00 -0.79002469339E+01  0.79002469339E+01  0.00000000000E+00 0.  1.
         24    1    1    2    0    0  0.62511775487E+02  0.46243488321E+02  0.77289201164E+03  0.78094523489E+03  0.80419002446E+02 0.  0.
        -24    1    1    2    0    0 -0.62511775487E+02 -0.46243488321E+02  0.80372679967E+03  0.81147407029E+03  0.80419002446E+02 0.  0.
<mgrwt>
<rscale>  0 0.11186332E+03</rscale>
<asrwt>0</asrwt>
<pdfrwt beam="1">  1        2 0.24377191E+00 0.11186333E+03</pdfrwt>
<pdfrwt beam="2">  1       -2 0.12154239E-02 0.11186333E+03</pdfrwt>
<totfact> 0.18853092E+04</totfact>
</mgrwt>
</event>
<event>
 4    1  0.4941530E-001  0.9210805E+02  0.7546771E-02  0.1297826E+00
          4   -1    0    0  501    0  0.00000000000E+00  0.00000000000E+00  0.22118780963E+03  0.22118780963E+03  0.00000000000E+00 0. -1.
         -4   -1    0    0    0  501 -0.00000000000E+00 -0.00000000000E+00 -0.40261315208E+02  0.40261315208E+02  0.00000000000E+00 0.  1.
         24    1    1    2    0    0 -0.40805556893E+02  0.18750551646E+02  0.11890065084E+03  0.15040364818E+03  0.80419002446E+02 0. -1.
        -24    1    1    2    0    0  0.40805556893E+02 -0.18750551646E+02  0.62025843580E+02  0.11104547666E+03  0.80419002446E+02 0.  1.
<mgrwt>
<rscale>  0 0.92108049E+02</rscale>
<asrwt>0</asrwt>
<pdfrwt beam="1">  1        4 0.34028893E-01 0.92108049E+02</pdfrwt>
<pdfrwt beam="2">  1       -4 0.61940486E-02 0.92108049E+02</pdfrwt>
<totfact> 0.21022485E+03</totfact>
</mgrwt>
</event>
<event>
 4    1  0.4941530E-001  0.9898986E+02  0.7546771E-02  0.1282435E+00
         -2   -1    0    0    0  501 -0.00000000000E+00  0.00000000000E+00  0.82340315264E+02  0.82340315264E+02  0.00000000000E+00 0.  1.
          2   -1    0    0  501    0  0.00000000000E+00 -0.00000000000E+00 -0.68207421094E+03  0.68207421094E+03  0.00000000000E+00 0. -1.
         24    1    1    2    0    0  0.42018255959E+02  0.39575783449E+02 -0.64713403287E+03  0.65466132384E+03  0.80419002446E+02 0. -1.
        -24    1    1    2    0    0 -0.42018255959E+02 -0.39575783449E+02  0.47400137196E+02  0.10975320237E+03  0.80419002446E+02 0.  1.
<mgrwt>
<rscale>  0 0.98989860E+02</rscale>
<asrwt>0</asrwt>
<pdfrwt beam="1">  1        2 0.10493449E+00 0.98989860E+02</pdfrwt>
<pdfrwt beam="2">  1       -2 0.12667741E-01 0.98989860E+02</pdfrwt>
<totfact> 0.19174904E+03</totfact>
</mgrwt>
</event>
<event>
 4    1  0.4941530E-001  0.9609447E+02  0.7546771E-02  0.1288730E+00
         -1   -1    0    0    0  501 -0.00000000000E+00  0.00000000000E+00  0.64504746780E+02  0.64504746780E+02  0.00000000000E+00 0.  1.
          1   -1    0    0  501    0  0.00000000000E+00 -0.00000000000E+00 -0.18552683406E+03  0.18552683406E+03  0.00000000000E+00 0. -1.
         24    1    1    2    0    0  0.10400019607E+02 -0.51563275552E+02 -0.76592034408E+00  0.96097525368E+02  0.80419002446E+02 0.  1.
        -24    1    1    2    0    0 -0.10400019607E+02  0.51563275552E+02 -0.12025616693E+03  0.15393405547E+03  0.80419002446E+02 0. -1.
<mgrwt>
<rscale>  0 0.96094473E+02</rscale>
<asrwt>0</asrwt>
<pdfrwt beam="1">  1        1 0.28542589E-01 0.96094473E+02</pdfrwt>
<pdfrwt beam="2">  1       -1 0.99238075E-02 0.96094473E+02</pdfrwt>
<totfact> 0.91320830E+03</totfact>
</mgrwt>
</event>
<event>
 4    1  0.4941530E-001  0.9727581E+02  0.7546771E-02  0.1286131E+00
         -2   -1    0    0    0  501 -0.00000000000E+00  0.00000000000E+00  0.12478354957E+02  0.12478354957E+02  0.00000000000E+00 0.  1.
          2   -1    0    0  501    0  0.00000000000E+00 -0.00000000000E+00 -0.13905471857E+04  0.13905471857E+04  0.00000000000E+00 0. -1.
         24    1    1    2    0    0 -0.44730316574E+02 -0.31536726344E+02 -0.11620543081E+04  0.11661186892E+04  0.80419002446E+02 0. -1.
        -24    1    1    2    0    0  0.44730316574E+02  0.31536726344E+02 -0.21601452264E+03  0.23690685147E+03  0.80419002446E+02 0.  1.
<mgrwt>
<rscale>  0 0.97275805E+02</rscale>
<asrwt>0</asrwt>
<pdfrwt beam="1">  1        2 0.21393041E+00 0.97275805E+02</pdfrwt>
<pdfrwt beam="2">  1       -2 0.19197462E-02 0.97275805E+02</pdfrwt>
<totfact> 0.12227279E+04</totfact>
</mgrwt>
</event>
<event>
 4    1  0.4941530E-001  0.2059621E+03  0.7546771E-02  0.1144804E+00
          2   -1    0    0  501    0  0.00000000000E+00  0.00000000000E+00  0.86220744385E+03  0.86220744385E+03  0.00000000000E+00 0. -1.
         -2   -1    0    0    0  501 -0.00000000000E+00 -0.00000000000E+00 -0.15918432188E+03  0.15918432188E+03  0.00000000000E+00 0.  1.
         24    1    1    2    0    0 -0.14917829425E+03 -0.11704268125E+03  0.77601200180E+03  0.80287919116E+03  0.80419002446E+02 0. -1.
        -24    1    1    2    0    0  0.14917829425E+03  0.11704268125E+03 -0.72988879823E+02  0.21851257456E+03  0.80419002446E+02 0.  1.
<mgrwt>
<rscale>  0 0.20596206E+03</rscale>
<asrwt>0</asrwt>
<pdfrwt beam="1">  1        2 0.13264730E+00 0.20596206E+03</pdfrwt>
<pdfrwt beam="2">  1       -2 0.24489896E-01 0.20596206E+03</pdfrwt>
<totfact> 0.47972177E+02</totfact>
</mgrwt>
</event>
<event>
 4    1  0.4941530E-001  0.8294535E+02  0.7546771E-02  0.1320895E+00
          1   -1    0    0  501    0  0.00000000000E+00  0.00000000000E+00  0.22409329414E+02  0.22409329414E+02  0.00000000000E+00 0. -1.
         -1   -1    0    0    0  501 -0.00000000000E+00 -0.00000000000E+00 -0.41357422830E+03  0.41357422830E+03  0.00000000000E+00 0.  1.
         24    1    1    2    0    0 -0.26425848897E+01 -0.20142781155E+02 -0.30623596796E+03  0.31727023011E+03  0.80419002446E+02 0.  1.
        -24    1    1    2    0    0  0.26425848897E+01  0.20142781155E+02 -0.84928930919E+02  0.11871332760E+03  0.80419002446E+02 0. -1.
<mgrwt>
<rscale>  0 0.82945349E+02</rscale>
<asrwt>0</asrwt>
<pdfrwt beam="1">  1        1 0.34475892E-02 0.82945349E+02</pdfrwt>
<pdfrwt beam="2">  1       -1 0.63626804E-01 0.82945349E+02</pdfrwt>
<totfact> 0.66028039E+03</totfact>
</mgrwt>
</event>
<event>
 4    1  0.4941530E-001  0.1024002E+03  0.7546771E-02  0.1275328E+00
          2   -1    0    0  501    0  0.00000000000E+00  0.00000000000E+00  0.15858234027E+04  0.15858234027E+04  0.00000000000E+00 0. -1.
         -2   -1    0    0    0  501 -0.00000000000E+00 -0.00000000000E+00 -0.66574126534E+01  0.66574126534E+01  0.00000000000E+00 0.  1.
         24    1    1    2    0    0 -0.62723561823E+02 -0.91834565883E+01  0.72397233254E+03  0.73117831978E+03  0.80419002446E+02 0. -1.
        -24    1    1    2    0    0  0.62723561823E+02  0.91834565883E+01  0.85519365755E+03  0.86130249561E+03  0.80419002446E+02 0.  0.
<mgrwt>
<rscale>  0 0.10240019E+03</rscale>
<asrwt>0</asrwt>
<pdfrwt beam="1">  1        2 0.24397253E+00 0.10240021E+03</pdfrwt>
<pdfrwt beam="2">  1       -2 0.10242186E-02 0.10240021E+03</pdfrwt>
<totfact> 0.23882090E+04</totfact>
</mgrwt>
</event>
<event>
 4    1  0.4941530E-001  0.9518335E+02  0.7546771E-02  0.1290764E+00
          4   -1    0    0  501    0  0.00000000000E+00  0.00000000000E+00  0.41971285050E+03  0.41971285050E+03  0.00000000000E+00 0. -1.
         -4   -1    0    0    0  501 -0.00000000000E+00 -0.00000000000E+00 -0.23388236323E+02  0.23388236323E+02  0.00000000000E+00 0.  1.
         24    1    1    2    0    0  0.26225535366E+02  0.43644875989E+02  0.25966509490E+03  0.27656071914E+03  0.80419002446E+02 0. -1.
        -24    1    1    2    0    0 -0.26225535366E+02 -0.43644875989E+02  0.13665951927E+03  0.16654036768E+03  0.80419002446E+02 0.  1.
<mgrwt>
<rscale>  0 0.95183349E+02</rscale>
<asrwt>0</asrwt>
<pdfrwt beam="1">  1        4 0.64571202E-01 0.95183349E+02</pdfrwt>
<pdfrwt beam="2">  1       -4 0.35981905E-02 0.95183349E+02</pdfrwt>
<totfact> 0.13940352E+03</totfact>
</mgrwt>
</event>
<event>
 4    1  0.4941530E-001  0.8219984E+02  0.7546771E-02  0.1322922E+00
         -3   -1    0    0    0  501 -0.00000000000E+00  0.00000000000E+00  0.61915533683E+02  0.61915533683E+02  0.00000000000E+00 0.  1.
          3   -1    0    0  501    0  0.00000000000E+00 -0.00000000000E+00 -0.12310883754E+03  0.12310883754E+03  0.00000000000E+00 0. -1.
         24    1    1    2    0    0 -0.11464015135E+02 -0.12576745982E+02  0.57766119196E+00  0.82201872420E+02  0.80419002446E+02 0.  1.
        -24    1    1    2    0    0  0.11464015135E+02  0.12576745982E+02 -0.61770965046E+02  0.10282249880E+03  0.80419002446E+02 0. -1.
<mgrwt>
<rscale>  0 0.82199843E+02</rscale>
<asrwt>0</asrwt>
<pdfrwt beam="1">  1        3 0.18939821E-01 0.82199843E+02</pdfrwt>
<pdfrwt beam="2">  1       -3 0.95254668E-02 0.82199843E+02</pdfrwt>
<totfact> 0.40529292E+03</totfact>
</mgrwt>
</event>
<event>
 4    1  0.4941530E-001  0.8613054E+02  0.7546771E-02  0.1312502E+00
         -1   -1    0    0    0  501 -0.00000000000E+00  0.00000000000E+00  0.20711770505E+02  0.20711770505E+02  0.00000000000E+00 0.  1.
          1   -1    0    0  501    0  0.00000000000E+00 -0.00000000000E+00 -0.46270365767E+03  0.46270365767E+03  0.00000000000E+00 0. -1.
         24    1    1    2    0    0  0.13802992997E+02 -0.27581282904E+02 -0.33587847316E+03  0.34674603742E+03  0.80419002446E+02 0.  0.
        -24    1    1    2    0    0 -0.13802992997E+02  0.27581282904E+02 -0.10611341401E+03  0.13666939075E+03  0.80419002446E+02 0.  0.
<mgrwt>
<rscale>  0 0.86130526E+02</rscale>
<asrwt>0</asrwt>
<pdfrwt beam="1">  1        1 0.71185173E-01 0.86130537E+02</pdfrwt>
<pdfrwt beam="2">  1       -1 0.31864265E-02 0.86130537E+02</pdfrwt>
<totfact> 0.15637740E+04</totfact>
</mgrwt>
</event>
<event>
 4    1  0.4941530E-001  0.8564654E+02  0.7546771E-02  0.1313750E+00
         -1   -1    0    0    0  501 -0.00000000000E+00  0.00000000000E+00  0.33404660339E+02  0.33404660339E+02  0.00000000000E+00 0.  1.
          1   -1    0    0  501    0  0.00000000000E+00 -0.00000000000E+00 -0.32386060581E+03  0.32386060581E+03  0.00000000000E+00 0. -1.
         24    1    1    2    0    0  0.28038926894E+02  0.90516902976E+01 -0.43868902732E+02  0.96227912270E+02  0.80419002446E+02 0. -1.
        -24    1    1    2    0    0 -0.28038926894E+02 -0.90516902976E+01 -0.24658704274E+03  0.26103735388E+03  0.80419002446E+02 0. -1.
<mgrwt>
<rscale>  0 0.85646544E+02</rscale>
<asrwt>0</asrwt>
<pdfrwt beam="1">  1        1 0.49824710E-01 0.85646544E+02</pdfrwt>
<pdfrwt beam="2">  1       -1 0.51391784E-02 0.85646544E+02</pdfrwt>
<totfact> 0.12153465E+04</totfact>
</mgrwt>
</event>
<event>
 4    1  0.4941530E-001  0.1181653E+03  0.7546771E-02  0.1246155E+00
          1   -1    0    0  501    0  0.00000000000E+00  0.00000000000E+00  0.37866616905E+03  0.37866616905E+03  0.00000000000E+00 0. -1.
         -1   -1    0    0    0  501 -0.00000000000E+00 -0.00000000000E+00 -0.39266579228E+02  0.39266579228E+02  0.00000000000E+00 0.  1.
         24    1    1    2    0    0  0.82362312082E+02  0.26688634760E+02  0.11812103741E+03  0.16707970885E+03  0.80419002446E+02 0.  1.
        -24    1    1    2    0    0 -0.82362312082E+02 -0.26688634760E+02  0.22127855241E+03  0.25085303942E+03  0.80419002446E+02 0. -1.
<mgrwt>
<rscale>  0 0.11816535E+03</rscale>
<asrwt>0</asrwt>
<pdfrwt beam="1">  1        1 0.58256331E-01 0.11816535E+03</pdfrwt>
<pdfrwt beam="2">  1       -1 0.60410124E-02 0.11816535E+03</pdfrwt>
<totfact> 0.81082753E+03</totfact>
</mgrwt>
</event>
<event>
 4    1  0.4941530E-001  0.8433396E+02  0.7546771E-02  0.1317184E+00
         -2   -1    0    0    0  501 -0.00000000000E+00  0.00000000000E+00  0.11092998889E+03  0.11092998889E+03  0.00000000000E+00 0.  1.
          2   -1    0    0  501    0  0.00000000000E+00 -0.00000000000E+00 -0.81673733805E+02  0.81673733805E+02  0.00000000000E+00 0. -1.
         24    1    1    2    0    0  0.12536672214E+02 -0.22086923486E+02 -0.30024472929E+02  0.89519189386E+02  0.80419002446E+02 0.  0.
        -24    1    1    2    0    0 -0.12536672214E+02  0.22086923486E+02  0.59280728013E+02  0.10308453331E+03  0.80419002446E+02 0.  0.
<mgrwt>
<rscale>  0 0.84333957E+02</rscale>
<asrwt>0</asrwt>
<pdfrwt beam="1">  1        2 0.12565190E-01 0.84333957E+02</pdfrwt>
<pdfrwt beam="2">  1       -2 0.17066152E-01 0.84333957E+02</pdfrwt>
<totfact> 0.11888146E+04</totfact>
</mgrwt>
</event>
<event>
 4    1  0.4941530E-001  0.9644133E+02  0.7546771E-02  0.1287962E+00
         -2   -1    0    0    0  501 -0.00000000000E+00  0.00000000000E+00  0.19611096287E+02  0.19611096287E+02  0.00000000000E+00 0.  1.
          2   -1    0    0  501    0  0.00000000000E+00 -0.00000000000E+00 -0.50446876701E+03  0.50446876701E+03  0.00000000000E+00 0. -1.
         24    1    1    2    0    0  0.53168546718E+02 -0.26115648051E+01 -0.30654296631E+03  0.32135575424E+03  0.80419002446E+02 0.  0.
        -24    1    1    2    0    0 -0.53168546718E+02  0.26115648051E+01 -0.17831470441E+03  0.20272410906E+03  0.80419002446E+02 0. -1.
<mgrwt>
<rscale>  0 0.96441332E+02</rscale>
<asrwt>0</asrwt>
<pdfrwt beam="1">  1        2 0.77610571E-01 0.96441332E+02</pdfrwt>
<pdfrwt beam="2">  1       -2 0.30170921E-02 0.96441332E+02</pdfrwt>
<totfact> 0.23484136E+04</totfact>
</mgrwt>
</event>
<event>
 4    1  0.4941530E-001  0.9851961E+02  0.7546771E-02  0.1283440E+00
          2   -1    0    0  501    0  0.00000000000E+00  0.00000000000E+00  0.28760473322E+03  0.28760473322E+03  0.00000000000E+00 0. -1.
         -2   -1    0    0    0  501 -0.00000000000E+00 -0.00000000000E+00 -0.34705172000E+02  0.34705172000E+02  0.00000000000E+00 0.  1.
         24    1    1    2    0    0  0.55331891777E+02  0.13314612306E+02  0.15321180824E+03  0.18215370237E+03  0.80419002446E+02 0. -1.
        -24    1    1    2    0    0 -0.55331891777E+02 -0.13314612306E+02  0.99687752979E+02  0.14015620285E+03  0.80419002446E+02 0.  0.
<mgrwt>
<rscale>  0 0.98519608E+02</rscale>
<asrwt>0</asrwt>
<pdfrwt beam="1">  1        2 0.44246880E-01 0.98519608E+02</pdfrwt>
<pdfrwt beam="2">  1       -2 0.53392574E-02 0.98519608E+02</pdfrwt>
<totfact> 0.18382229E+04</totfact>
</mgrwt>
</event>
<event>
 4    1  0.4941530E-001  0.9393212E+02  0.7546771E-02  0.1293599E+00
          1   -1    0    0  501    0  0.00000000000E+00  0.00000000000E+00  0.27966092544E+03  0.27966092544E+03  0.00000000000E+00 0. -1.
         -1   -1    0    0    0  501 -0.00000000000E+00 -0.00000000000E+00 -0.31587010333E+02  0.31587010333E+02  0.00000000000E+00 0.  1.
         24    1    1    2    0    0  0.48308877193E+02 -0.47200423445E+01  0.11869457142E+03  0.15136592633E+03  0.80419002446E+02 0. -1.
        -24    1    1    2    0    0 -0.48308877193E+02  0.47200423445E+01  0.12937934369E+03  0.15988200944E+03  0.80419002446E+02 0.  1.
<mgrwt>
<rscale>  0 0.93932116E+02</rscale>
<asrwt>0</asrwt>
<pdfrwt beam="1">  1        1 0.43024756E-01 0.93932116E+02</pdfrwt>
<pdfrwt beam="2">  1       -1 0.48595402E-02 0.93932116E+02</pdfrwt>
<totfact> 0.15920005E+04</totfact>
</mgrwt>
</event>
<event>
 4    1  0.4941530E-001  0.9169082E+02  0.7546771E-02  0.1298808E+00
         -1   -1    0    0    0  501 -0.00000000000E+00  0.00000000000E+00  0.15509925034E+03  0.15509925034E+03  0.00000000000E+00 0.  1.
          1   -1    0    0  501    0  0.00000000000E+00 -0.00000000000E+00 -0.10575315512E+03  0.10575315512E+03  0.00000000000E+00 0. -1.
         24    1    1    2    0    0  0.40256753101E+02  0.17871343745E+02  0.11573214258E+03  0.14765207712E+03  0.80419002446E+02 0.  1.
        -24    1    1    2    0    0 -0.40256753101E+02 -0.17871343745E+02 -0.66386047364E+02  0.11320032834E+03  0.80419002446E+02 0. -1.
<mgrwt>
<rscale>  0 0.91690823E+02</rscale>
<asrwt>0</asrwt>
<pdfrwt beam="1">  1        1 0.16269716E-01 0.91690823E+02</pdfrwt>
<pdfrwt beam="2">  1       -1 0.23861423E-01 0.91690823E+02</pdfrwt>
<totfact> 0.46877425E+03</totfact>
</mgrwt>
</event>
<event>
 4    1  0.4941530E-001  0.1094615E+03  0.7546771E-02  0.1261570E+00
         -1   -1    0    0    0  501 -0.00000000000E+00  0.00000000000E+00  0.78256439676E+02  0.78256439676E+02  0.00000000000E+00 0.  1.
          1   -1    0    0  501    0  0.00000000000E+00 -0.00000000000E+00 -0.17984255942E+03  0.17984255942E+03  0.00000000000E+00 0. -1.
         24    1    1    2    0    0  0.32561842630E+02 -0.66740741020E+02 -0.10384639290E+01  0.10946640795E+03  0.80419002446E+02 0.  1.
        -24    1    1    2    0    0 -0.32561842630E+02  0.66740741020E+02 -0.10054765582E+03  0.14863259115E+03  0.80419002446E+02 0. -1.
<mgrwt>
<rscale>  0 0.10946148E+03</rscale>
<asrwt>0</asrwt>
<pdfrwt beam="1">  1        1 0.27668086E-01 0.10946148E+03</pdfrwt>
<pdfrwt beam="2">  1       -1 0.12039452E-01 0.10946148E+03</pdfrwt>
<totfact> 0.71463795E+03</totfact>
</mgrwt>
</event>
<event>
 4    1  0.4941530E-001  0.8103794E+02  0.7546771E-02  0.1326131E+00
         -1   -1    0    0    0  501 -0.00000000000E+00  0.00000000000E+00  0.38298434357E+03  0.38298434357E+03  0.00000000000E+00 0.  1.
          1   -1    0    0  501    0  0.00000000000E+00 -0.00000000000E+00 -0.19430425263E+02  0.19430425263E+02  0.00000000000E+00 0. -1.
         24    1    1    2    0    0  0.19540119336E+01 -0.98037692413E+01  0.25074811273E+03  0.26351805260E+03  0.80419002446E+02 0.  0.
        -24    1    1    2    0    0 -0.19540119336E+01  0.98037692413E+01  0.11280580558E+03  0.13889671623E+03  0.80419002446E+02 0. -1.
<mgrwt>
<rscale>  0 0.81037942E+02</rscale>
<asrwt>0</asrwt>
<pdfrwt beam="1">  1        1 0.29892965E-02 0.81037942E+02</pdfrwt>
<pdfrwt beam="2">  1       -1 0.58920663E-01 0.81037942E+02</pdfrwt>
<totfact> 0.92473632E+03</totfact>
</mgrwt>
</event>
<event>
 4    1  0.4941530E-001  0.9888749E+02  0.7546771E-02  0.1282653E+00
         -2   -1    0    0    0  501 -0.00000000000E+00  0.00000000000E+00  0.16410790490E+02  0.16410790490E+02  0.00000000000E+00 0.  1.
          2   -1    0    0  501    0  0.00000000000E+00 -0.00000000000E+00 -0.65046879219E+03  0.65046879219E+03  0.00000000000E+00 0. -1.
         24    1    1    2    0    0  0.44452452045E+02 -0.36544486132E+02 -0.41363107617E+03  0.42528743584E+03  0.80419002446E+02 0.  1.
        -24    1    1    2    0    0 -0.44452452045E+02  0.36544486132E+02 -0.22042692553E+03  0.24159214684E+03  0.80419002446E+02 0.  0.
<mgrwt>
<rscale>  0 0.98887491E+02</rscale>
<asrwt>0</asrwt>
<pdfrwt beam="1">  1        2 0.10007212E+00 0.98887491E+02</pdfrwt>
<pdfrwt beam="2">  1       -2 0.25247370E-02 0.98887491E+02</pdfrwt>
<totfact> 0.22985337E+04</totfact>
</mgrwt>
</event>
<event>
 4    1  0.4941530E-001  0.8888363E+02  0.7546771E-02  0.1305578E+00
         -1   -1    0    0    0  501 -0.00000000000E+00  0.00000000000E+00  0.15120988545E+02  0.15120988545E+02  0.00000000000E+00 0.  1.
          1   -1    0    0  501    0  0.00000000000E+00 -0.00000000000E+00 -0.54640302289E+03  0.54640302289E+03  0.00000000000E+00 0. -1.
         24    1    1    2    0    0  0.12596733576E+02  0.35698830356E+02 -0.20688420676E+03  0.22516965858E+03  0.80419002446E+02 0. -1.
        -24    1    1    2    0    0 -0.12596733576E+02 -0.35698830356E+02 -0.32439782759E+03  0.33635435286E+03  0.80419002446E+02 0.  1.
<mgrwt>
<rscale>  0 0.88883633E+02</rscale>
<asrwt>0</asrwt>
<pdfrwt beam="1">  1        1 0.84061987E-01 0.88883633E+02</pdfrwt>
<pdfrwt beam="2">  1       -1 0.23263064E-02 0.88883633E+02</pdfrwt>
<totfact> 0.19901278E+04</totfact>
</mgrwt>
</event>
<event>
 4    1  0.4941530E-001  0.8450866E+02  0.7546771E-02  0.1316722E+00
         -2   -1    0    0    0  501 -0.00000000000E+00  0.00000000000E+00  0.70346435747E+01  0.70346435747E+01  0.00000000000E+00 0.  1.
          2   -1    0    0  501    0  0.00000000000E+00 -0.00000000000E+00 -0.45276122439E+04  0.45276122439E+04  0.00000000000E+00 0. -1.
         24    1    1    2    0    0 -0.25953076643E+02  0.96733931347E+00 -0.42572992792E+04  0.42581379577E+04  0.80419002446E+02 0. -1.
        -24    1    1    2    0    0  0.25953076643E+02 -0.96733931347E+00 -0.26327832115E+03  0.27650892983E+03  0.80419002446E+02 0.  1.
<mgrwt>
<rscale>  0 0.84508662E+02</rscale>
<asrwt>0</asrwt>
<pdfrwt beam="1">  1        2 0.69655656E+00 0.84508662E+02</pdfrwt>
<pdfrwt beam="2">  1       -2 0.10822516E-02 0.84508662E+02</pdfrwt>
<totfact> 0.34081342E+02</totfact>
</mgrwt>
</event>
<event>
 4    1  0.4941530E-001  0.1026189E+03  0.7546771E-02  0.1274883E+00
         -2   -1    0    0    0  501 -0.00000000000E+00  0.00000000000E+00  0.61192300959E+02  0.61192300959E+02  0.00000000000E+00 0.  1.
          2   -1    0    0  501    0  0.00000000000E+00 -0.00000000000E+00 -0.22444058666E+03  0.22444058666E+03  0.00000000000E+00 0. -1.
         24    1    1    2    0    0  0.51688123341E+02 -0.37306244815E+02 -0.15059805264E+03  0.18223722839E+03  0.80419002446E+02 0. -1.
        -24    1    1    2    0    0 -0.51688123341E+02  0.37306244815E+02 -0.12650233057E+02  0.10339565923E+03  0.80419002446E+02 0.  1.
<mgrwt>
<rscale>  0 0.10261888E+03</rscale>
<asrwt>0</asrwt>
<pdfrwt beam="1">  1        2 0.34529321E-01 0.10261888E+03</pdfrwt>
<pdfrwt beam="2">  1       -2 0.94142003E-02 0.10261888E+03</pdfrwt>
<totfact> 0.10114718E+04</totfact>
</mgrwt>
</event>
<event>
 4    1  0.4941530E-001  0.8072988E+02  0.7546771E-02  0.1326993E+00
         -1   -1    0    0    0  501 -0.00000000000E+00  0.00000000000E+00  0.12710870141E+02  0.12710870141E+02  0.00000000000E+00 0.  1.
          1   -1    0    0  501    0  0.00000000000E+00 -0.00000000000E+00 -0.29062961643E+04  0.29062961643E+04  0.00000000000E+00 0. -1.
         24    1    1    2    0    0  0.35288913720E+01 -0.61354926715E+01 -0.12227594638E+03  0.14652208149E+03  0.80419002446E+02 0.  1.
        -24    1    1    2    0    0 -0.35288913720E+01  0.61354926715E+01 -0.27713093478E+04  0.27724849530E+04  0.80419002446E+02 0.  0.
<mgrwt>
<rscale>  0 0.80729879E+02</rscale>
<asrwt>0</asrwt>
<pdfrwt beam="1">  1        1 0.44712337E+00 0.80729879E+02</pdfrwt>
<pdfrwt beam="2">  1       -1 0.19555146E-02 0.80729879E+02</pdfrwt>
<totfact> 0.62455560E+02</totfact>
</mgrwt>
</event>
<event>
 4    1  0.4941530E-001  0.8341581E+02  0.7546771E-02  0.1319628E+00
          2   -1    0    0  501    0  0.00000000000E+00  0.00000000000E+00  0.61085877986E+03  0.61085877986E+03  0.00000000000E+00 0. -1.
         -2   -1    0    0    0  501 -0.00000000000E+00 -0.00000000000E+00 -0.12558408815E+03  0.12558408815E+03  0.00000000000E+00 0.  1.
         24    1    1    2    0    0  0.18347798660E+02  0.12423361020E+02  0.59376251443E+03  0.59959329642E+03  0.80419002446E+02 0. -1.
        -24    1    1    2    0    0 -0.18347798660E+02 -0.12423361020E+02 -0.10848782272E+03  0.13684957160E+03  0.80419002446E+02 0.  1.
<mgrwt>
<rscale>  0 0.83415811E+02</rscale>
<asrwt>0</asrwt>
<pdfrwt beam="1">  1        2 0.93978272E-01 0.83415811E+02</pdfrwt>
<pdfrwt beam="2">  1       -2 0.19320629E-01 0.83415811E+02</pdfrwt>
<totfact> 0.10899371E+03</totfact>
</mgrwt>
</event>
<event>
 4    1  0.4941530E-001  0.8567967E+02  0.7546771E-02  0.1313665E+00
          2   -1    0    0  501    0  0.00000000000E+00  0.00000000000E+00  0.18529323286E+03  0.18529323286E+03  0.00000000000E+00 0. -1.
         -2   -1    0    0    0  501 -0.00000000000E+00 -0.00000000000E+00 -0.41972672163E+02  0.41972672163E+02  0.00000000000E+00 0.  1.
         24    1    1    2    0    0  0.29222014442E+02 -0.44568020593E+01  0.98572988630E+02  0.13060489751E+03  0.80419002446E+02 0.  0.
        -24    1    1    2    0    0 -0.29222014442E+02  0.44568020593E+01  0.44747572068E+02  0.96661007511E+02  0.80419002446E+02 0. -1.
<mgrwt>
<rscale>  0 0.85679666E+02</rscale>
<asrwt>0</asrwt>
<pdfrwt beam="1">  1        2 0.28506651E-01 0.85679666E+02</pdfrwt>
<pdfrwt beam="2">  1       -2 0.64573343E-02 0.85679666E+02</pdfrwt>
<totfact> 0.21680361E+04</totfact>
</mgrwt>
</event>
<event>
 4    1  0.4941530E-001  0.8842719E+02  0.7546771E-02  0.1306706E+00
         -2   -1    0    0    0  501 -0.00000000000E+00  0.00000000000E+00  0.12181202778E+03  0.12181202778E+03  0.00000000000E+00 0.  1.
          2   -1    0    0  501    0  0.00000000000E+00 -0.00000000000E+00 -0.95383366135E+02  0.95383366135E+02  0.00000000000E+00 0. -1.
         24    1    1    2    0    0  0.36516367043E+02 -0.43250480063E+01 -0.48887006931E+02  0.10104111294E+03  0.80419002446E+02 0. -1.
        -24    1    1    2    0    0 -0.36516367043E+02  0.43250480063E+01  0.75315668574E+02  0.11615428098E+03  0.80419002446E+02 0.  1.
<mgrwt>
<rscale>  0 0.88427185E+02</rscale>
<asrwt>0</asrwt>
<pdfrwt beam="1">  1        2 0.14674364E-01 0.88427185E+02</pdfrwt>
<pdfrwt beam="2">  1       -2 0.18740312E-01 0.88427185E+02</pdfrwt>
<totfact> 0.85385140E+03</totfact>
</mgrwt>
</event>
<event>
 4    1  0.4941530E-001  0.1106097E+03  0.7546771E-02  0.1259445E+00
         -2   -1    0    0    0  501 -0.00000000000E+00  0.00000000000E+00  0.51350858794E+02  0.51350858794E+02  0.00000000000E+00 0.  1.
          2   -1    0    0  501    0  0.00000000000E+00 -0.00000000000E+00 -0.75346654701E+03  0.75346654701E+03  0.00000000000E+00 0. -1.
         24    1    1    2    0    0  0.27631818868E+02 -0.70737333767E+02 -0.68381618613E+03  0.69270417941E+03  0.80419002446E+02 0. -1.
        -24    1    1    2    0    0 -0.27631818868E+02  0.70737333767E+02 -0.18299502089E+02  0.11211322640E+03  0.80419002446E+02 0.  1.
<mgrwt>
<rscale>  0 0.11060969E+03</rscale>
<asrwt>0</asrwt>
<pdfrwt beam="1">  1        2 0.11591792E+00 0.11060969E+03</pdfrwt>
<pdfrwt beam="2">  1       -2 0.79001325E-02 0.11060969E+03</pdfrwt>
<totfact> 0.35770444E+03</totfact>
</mgrwt>
</event>
<event>
 4    1  0.4941530E-001  0.9391269E+02  0.7546771E-02  0.1293644E+00
         -2   -1    0    0    0  501 -0.00000000000E+00  0.00000000000E+00  0.26241440088E+01  0.26241440088E+01  0.00000000000E+00 0.  1.
          2   -1    0    0  501    0  0.00000000000E+00 -0.00000000000E+00 -0.34071497114E+04  0.34071497114E+04  0.00000000000E+00 0. -1.
         24    1    1    2    0    0 -0.45776520241E+02  0.16027738394E+02 -0.19008083376E+04  0.19031268824E+04  0.80419002446E+02 0.  0.
        -24    1    1    2    0    0  0.45776520241E+02 -0.16027738394E+02 -0.15037172298E+04  0.15066469730E+04  0.80419002446E+02 0.  1.
<mgrwt>
<rscale>  0 0.93912694E+02</rscale>
<asrwt>0</asrwt>
<pdfrwt beam="1">  1        2 0.52417659E+00 0.93912694E+02</pdfrwt>
<pdfrwt beam="2">  1       -2 0.40371469E-03 0.93912694E+02</pdfrwt>
<totfact> 0.92087920E+03</totfact>
</mgrwt>
</event>
<event>
 4    1  0.4941530E-001  0.8398470E+02  0.7546771E-02  0.1318109E+00
         -2   -1    0    0    0  501 -0.00000000000E+00  0.00000000000E+00  0.48497127483E+01  0.48497127483E+01  0.00000000000E+00 0.  1.
          2   -1    0    0  501    0  0.00000000000E+00 -0.00000000000E+00 -0.14643130787E+04  0.14643130787E+04  0.00000000000E+00 0. -1.
         24    1    1    2    0    0 -0.20060022202E+02  0.13557646827E+02 -0.79016703313E+03  0.79461775118E+03  0.80419002446E+02 0. -1.
        -24    1    1    2    0    0  0.20060022202E+02 -0.13557646827E+02 -0.66929633283E+03  0.67454504029E+03  0.80419002446E+02 0.  1.
<mgrwt>
<rscale>  0 0.83984702E+02</rscale>
<asrwt>0</asrwt>
<pdfrwt beam="1">  1        2 0.22527938E+00 0.83984702E+02</pdfrwt>
<pdfrwt beam="2">  1       -2 0.74610818E-03 0.83984702E+02</pdfrwt>
<totfact> 0.42395835E+04</totfact>
</mgrwt>
</event>
<event>
 4    1  0.4941530E-001  0.8818291E+02  0.7546771E-02  0.1307313E+00
          1   -1    0    0  501    0  0.00000000000E+00  0.00000000000E+00  0.43275649503E+03  0.43275649503E+03  0.00000000000E+00 0. -1.
         -1   -1    0    0    0  501 -0.00000000000E+00 -0.00000000000E+00 -0.36379493686E+02  0.36379493686E+02  0.00000000000E+00 0.  1.
         24    1    1    2    0    0  0.36174832953E+02 -0.62546011351E+00  0.31320721505E+02  0.93579983381E+02  0.80419002446E+02 0.  1.
        -24    1    1    2    0    0 -0.36174832953E+02  0.62546011351E+00  0.36505627984E+03  0.37555600534E+03  0.80419002446E+02 0. -1.
<mgrwt>
<rscale>  0 0.88182910E+02</rscale>
<asrwt>0</asrwt>
<pdfrwt beam="1">  1        1 0.66577919E-01 0.88182910E+02</pdfrwt>
<pdfrwt beam="2">  1       -1 0.55968455E-02 0.88182910E+02</pdfrwt>
<totfact> 0.75172077E+03</totfact>
</mgrwt>
</event>
<event>
 4    1  0.4941530E-001  0.8435935E+02  0.7546771E-02  0.1317116E+00
          1   -1    0    0  501    0  0.00000000000E+00  0.00000000000E+00  0.83324528176E+03  0.83324528176E+03  0.00000000000E+00 0. -1.
         -1   -1    0    0    0  501 -0.00000000000E+00 -0.00000000000E+00 -0.23046063620E+02  0.23046063620E+02  0.00000000000E+00 0.  1.
         24    1    1    2    0    0  0.34878737995E+01 -0.25241196574E+02  0.65429392280E+02  0.10675909608E+03  0.80419002446E+02 0.  1.
        -24    1    1    2    0    0 -0.34878737995E+01  0.25241196574E+02  0.74476982586E+03  0.74953224929E+03  0.80419002446E+02 0.  0.
<mgrwt>
<rscale>  0 0.84359346E+02</rscale>
<asrwt>0</asrwt>
<pdfrwt beam="1">  1        1 0.12819156E+00 0.84359346E+02</pdfrwt>
<pdfrwt beam="2">  1       -1 0.35455489E-02 0.84359346E+02</pdfrwt>
<totfact> 0.60096466E+03</totfact>
</mgrwt>
</event>
<event>
 4    1  0.4941530E-001  0.9331594E+02  0.7546771E-02  0.1295015E+00
          2   -1    0    0  501    0  0.00000000000E+00  0.00000000000E+00  0.14068536092E+03  0.14068536092E+03  0.00000000000E+00 0. -1.
         -2   -1    0    0    0  501 -0.00000000000E+00 -0.00000000000E+00 -0.61931141218E+02  0.61931141218E+02  0.00000000000E+00 0.  1.
         24    1    1    2    0    0  0.47269690180E+02 -0.24942724344E+01  0.36963845733E+02  0.10037024883E+03  0.80419002446E+02 0.  0.
        -24    1    1    2    0    0 -0.47269690180E+02  0.24942724344E+01  0.41790373969E+02  0.10224625331E+03  0.80419002446E+02 0.  1.
<mgrwt>
<rscale>  0 0.93315932E+02</rscale>
<asrwt>0</asrwt>
<pdfrwt beam="1">  1        2 0.21643902E-01 0.93315944E+02</pdfrwt>
<pdfrwt beam="2">  1       -2 0.95278679E-02 0.93315944E+02</pdfrwt>
<totfact> 0.16315888E+04</totfact>
</mgrwt>
</event>
<event>
 4    1  0.4941530E-001  0.9256643E+02  0.7546771E-02  0.1296753E+00
          1   -1    0    0  501    0  0.00000000000E+00  0.00000000000E+00  0.11894942544E+04  0.11894942544E+04  0.00000000000E+00 0. -1.
         -1   -1    0    0    0  501 -0.00000000000E+00 -0.00000000000E+00 -0.88226568663E+01  0.88226568663E+01  0.00000000000E+00 0.  1.
         24    1    1    2    0    0 -0.16323243826E+02  0.42835502888E+02  0.33366060234E+03  0.34626282230E+03  0.80419002446E+02 0.  1.
        -24    1    1    2    0    0  0.16323243826E+02 -0.42835502888E+02  0.84701099521E+03  0.85205408899E+03  0.80419002446E+02 0. -1.
<mgrwt>
<rscale>  0 0.92566433E+02</rscale>
<asrwt>0</asrwt>
<pdfrwt beam="1">  1        1 0.18299899E+00 0.92566433E+02</pdfrwt>
<pdfrwt beam="2">  1       -1 0.13573328E-02 0.92566433E+02</pdfrwt>
<totfact> 0.13209154E+04</totfact>
</mgrwt>
</event>
<event>
 4    1  0.4941530E-001  0.8361146E+02  0.7546771E-02  0.1319104E+00
         -1   -1    0    0    0  501 -0.00000000000E+00  0.00000000000E+00  0.15842610147E+02  0.15842610147E+02  0.00000000000E+00 0.  1.
          1   -1    0    0  501    0  0.00000000000E+00 -0.00000000000E+00 -0.14214922238E+04  0.14214922238E+04  0.00000000000E+00 0. -1.
         24    1    1    2    0    0 -0.14234307051E+02 -0.17917738114E+02 -0.10603984823E+03  0.13503823978E+03  0.80419002446E+02 0.  1.
        -24    1    1    2    0    0  0.14234307051E+02  0.17917738114E+02 -0.12996097654E+04  0.13022965942E+04  0.80419002446E+02 0. -1.
<mgrwt>
<rscale>  0 0.83611463E+02</rscale>
<asrwt>0</asrwt>
<pdfrwt beam="1">  1        1 0.21869110E+00 0.83611463E+02</pdfrwt>
<pdfrwt beam="2">  1       -1 0.24373248E-02 0.83611463E+02</pdfrwt>
<totfact> 0.40205481E+03</totfact>
</mgrwt>
</event>
<event>
 4    1  0.4941530E-001  0.1071004E+03  0.7546771E-02  0.1266036E+00
          2   -1    0    0  501    0  0.00000000000E+00  0.00000000000E+00  0.67534073758E+02  0.67534073758E+02  0.00000000000E+00 0. -1.
         -2   -1    0    0    0  501 -0.00000000000E+00 -0.00000000000E+00 -0.17641910188E+03  0.17641910188E+03  0.00000000000E+00 0.  1.
         24    1    1    2    0    0  0.59294811455E+02 -0.38566714585E+02 -0.77984599164E+02  0.13248426246E+03  0.80419002446E+02 0.  0.
        -24    1    1    2    0    0 -0.59294811455E+02  0.38566714585E+02 -0.30900428953E+02  0.11146891317E+03  0.80419002446E+02 0.  1.
<mgrwt>
<rscale>  0 0.10710035E+03</rscale>
<asrwt>0</asrwt>
<pdfrwt beam="1">  1        2 0.10389858E-01 0.10710036E+03</pdfrwt>
<pdfrwt beam="2">  1       -2 0.27141400E-01 0.10710036E+03</pdfrwt>
<totfact> 0.69466711E+03</totfact>
</mgrwt>
</event>
<event>
 4    1  0.4941530E-001  0.8279134E+02  0.7546771E-02  0.1321312E+00
          2   -1    0    0  501    0  0.00000000000E+00  0.00000000000E+00  0.10682648979E+04  0.10682648979E+04  0.00000000000E+00 0. -1.
         -2   -1    0    0    0  501 -0.00000000000E+00 -0.00000000000E+00 -0.70424855186E+01  0.70424855186E+01  0.00000000000E+00 0.  1.
         24    1    1    2    0    0 -0.38702352940E+01  0.19292788293E+02  0.69092070317E+03  0.69586336620E+03  0.80419002446E+02 0.  0.
        -24    1    1    2    0    0  0.38702352940E+01 -0.19292788293E+02  0.37030170925E+03  0.37944401725E+03  0.80419002446E+02 0.  0.
<mgrwt>
<rscale>  0 0.82791342E+02</rscale>
<asrwt>0</asrwt>
<pdfrwt beam="1">  1        2 0.16434832E+00 0.82791342E+02</pdfrwt>
<pdfrwt beam="2">  1       -2 0.10834602E-02 0.82791342E+02</pdfrwt>
<totfact> 0.40701140E+04</totfact>
</mgrwt>
</event>
<event>
 4    1  0.4941530E-001  0.1112387E+03  0.7546771E-02  0.1258293E+00
         -2   -1    0    0    0  501 -0.00000000000E+00  0.00000000000E+00  0.14791551701E+03  0.14791551701E+03  0.00000000000E+00 0.  1.
          2   -1    0    0  501    0  0.00000000000E+00 -0.00000000000E+00 -0.92013367142E+02  0.92013367142E+02  0.00000000000E+00 0. -1.
         24    1    1    2    0    0  0.22781253411E+02 -0.73401958060E+02 -0.82029643459E+01  0.11154074382E+03  0.80419002446E+02 0.  0.
        -24    1    1    2    0    0 -0.22781253411E+02  0.73401958060E+02  0.64105114209E+02  0.12838814033E+03  0.80419002446E+02 0.  1.
<mgrwt>
<rscale>  0 0.11123870E+03</rscale>
<asrwt>0</asrwt>
<pdfrwt beam="1">  1        2 0.14155903E-01 0.11123870E+03</pdfrwt>
<pdfrwt beam="2">  1       -2 0.22756233E-01 0.11123870E+03</pdfrwt>
<totfact> 0.65432518E+03</totfact>
</mgrwt>
</event>
<event>
 4    1  0.4941530E-001  0.9557216E+02  0.7546771E-02  0.1289893E+00
         -1   -1    0    0    0  501 -0.00000000000E+00  0.00000000000E+00  0.10835674834E+03  0.10835674834E+03  0.00000000000E+00 0.  1.
          1   -1    0    0  501    0  0.00000000000E+00 -0.00000000000E+00 -0.21058031000E+03  0.21058031000E+03  0.00000000000E+00 0. -1.
         24    1    1    2    0    0 -0.22002063221E+02  0.46719696842E+02  0.72380799157E+02  0.11988751770E+03  0.80419002446E+02 0.  1.
        -24    1    1    2    0    0  0.22002063221E+02 -0.46719696842E+02 -0.17460436082E+03  0.19904954064E+03  0.80419002446E+02 0. -1.
<mgrwt>
<rscale>  0 0.95572155E+02</rscale>
<asrwt>0</asrwt>
<pdfrwt beam="1">  1        1 0.32396971E-01 0.95572155E+02</pdfrwt>
<pdfrwt beam="2">  1       -1 0.16670269E-01 0.95572155E+02</pdfrwt>
<totfact> 0.35206816E+03</totfact>
</mgrwt>
</event>
<event>
 4    1  0.4941530E-001  0.9536868E+02  0.7546771E-02  0.1290348E+00
         -1   -1    0    0    0  501 -0.00000000000E+00  0.00000000000E+00  0.15067395656E+02  0.15067395656E+02  0.00000000000E+00 0.  1.
          1   -1    0    0  501    0  0.00000000000E+00 -0.00000000000E+00 -0.66462015124E+03  0.66462015124E+03  0.00000000000E+00 0. -1.
         24    1    1    2    0    0 -0.43781526295E+02  0.26667324596E+02 -0.22183023137E+03  0.24146187224E+03  0.80419002446E+02 0. -1.
        -24    1    1    2    0    0  0.43781526295E+02 -0.26667324596E+02 -0.42772252422E+03  0.43822567465E+03  0.80419002446E+02 0.  0.
<mgrwt>
<rscale>  0 0.95368675E+02</rscale>
<asrwt>0</asrwt>
<pdfrwt beam="1">  1        1 0.10224922E+00 0.95368675E+02</pdfrwt>
<pdfrwt beam="2">  1       -1 0.23180616E-02 0.95368675E+02</pdfrwt>
<totfact> 0.15476522E+04</totfact>
</mgrwt>
</event>
<event>
 4    1  0.4941530E-001  0.1319906E+03  0.7546771E-02  0.1224532E+00
          2   -1    0    0  501    0  0.00000000000E+00  0.00000000000E+00  0.14947576588E+04  0.14947576588E+04  0.00000000000E+00 0. -1.
         -2   -1    0    0    0  501 -0.00000000000E+00 -0.00000000000E+00 -0.11881789079E+02  0.11881789079E+02  0.00000000000E+00 0.  1.
         24    1    1    2    0    0 -0.88577572937E+02  0.55752279793E+02  0.63738040240E+03  0.65090344633E+03  0.80419002446E+02 0.  1.
        -24    1    1    2    0    0  0.88577572937E+02 -0.55752279793E+02  0.84549546736E+03  0.85573600158E+03  0.80419002446E+02 0. -1.
<mgrwt>
<rscale>  0 0.13199062E+03</rscale>
<asrwt>0</asrwt>
<pdfrwt beam="1">  1        2 0.22996257E+00 0.13199064E+03</pdfrwt>
<pdfrwt beam="2">  1       -2 0.18279687E-02 0.13199064E+03</pdfrwt>
<totfact> 0.11770551E+04</totfact>
</mgrwt>
</event>
<event>
 4    1  0.4941530E-001  0.8142815E+02  0.7546771E-02  0.1325047E+00
         -2   -1    0    0    0  501 -0.00000000000E+00  0.00000000000E+00  0.18749294790E+02  0.18749294790E+02  0.00000000000E+00 0.  1.
          2   -1    0    0  501    0  0.00000000000E+00 -0.00000000000E+00 -0.10845718489E+04  0.10845718489E+04  0.00000000000E+00 0. -1.
         24    1    1    2    0    0  0.59810107828E+01 -0.11294019903E+02 -0.98578857154E+03  0.98914592003E+03  0.80419002446E+02 0. -1.
        -24    1    1    2    0    0 -0.59810107828E+01  0.11294019903E+02 -0.80033982536E+02  0.11417522363E+03  0.80419002446E+02 0.  1.
<mgrwt>
<rscale>  0 0.81428148E+02</rscale>
<asrwt>0</asrwt>
<pdfrwt beam="1">  1        2 0.16685719E+00 0.81428148E+02</pdfrwt>
<pdfrwt beam="2">  1       -2 0.28845072E-02 0.81428148E+02</pdfrwt>
<totfact> 0.98222779E+03</totfact>
</mgrwt>
</event>
<event>
 4    1  0.4941530E-001  0.8871518E+02  0.7546771E-02  0.1305993E+00
         -2   -1    0    0    0  501 -0.00000000000E+00  0.00000000000E+00  0.35183047161E+03  0.35183047161E+03  0.00000000000E+00 0.  1.
          2   -1    0    0  501    0  0.00000000000E+00 -0.00000000000E+00 -0.34631371785E+02  0.34631371785E+02  0.00000000000E+00 0. -1.
         24    1    1    2    0    0 -0.25536144085E+02  0.27405712793E+02  0.43621608819E+02  0.98859640191E+02  0.80419002446E+02 0. -1.
        -24    1    1    2    0    0  0.25536144085E+02 -0.27405712793E+02  0.27357749100E+03  0.28760220320E+03  0.80419002446E+02 0.  1.
<mgrwt>
<rscale>  0 0.88715183E+02</rscale>
<asrwt>0</asrwt>
<pdfrwt beam="1">  1        2 0.53279036E-02 0.88715183E+02</pdfrwt>
<pdfrwt beam="2">  1       -2 0.54127762E-01 0.88715183E+02</pdfrwt>
<totfact> 0.43375680E+03</totfact>
</mgrwt>
</event>
<event>
 4    1  0.4941530E-001  0.9111154E+02  0.7546771E-02  0.1300182E+00
         -1   -1    0    0    0  501 -0.00000000000E+00  0.00000000000E+00  0.40619262765E+02  0.40619262765E+02  0.00000000000E+00 0.  1.
          1   -1    0    0  501    0  0.00000000000E+00 -0.00000000000E+00 -0.89456163373E+03  0.89456163373E+03  0.00000000000E+00 0. -1.
         24    1    1    2    0    0 -0.28227215403E+01  0.42733224227E+02 -0.16251325807E+02  0.92549542163E+02  0.80419002446E+02 0.  1.
        -24    1    1    2    0    0  0.28227215403E+01 -0.42733224227E+02 -0.83769104515E+03  0.84263135433E+03  0.80419002446E+02 0. -1.
<mgrwt>
<rscale>  0 0.91111537E+02</rscale>
<asrwt>0</asrwt>
<pdfrwt beam="1">  1        1 0.13762486E+00 0.91111537E+02</pdfrwt>
<pdfrwt beam="2">  1       -1 0.62491176E-02 0.91111537E+02</pdfrwt>
<totfact> 0.23657723E+03</totfact>
</mgrwt>
</event>
<event>
 4    1  0.4941530E-001  0.8431672E+02  0.7546771E-02  0.1317229E+00
          1   -1    0    0  501    0  0.00000000000E+00  0.00000000000E+00  0.71315636862E+03  0.71315636862E+03  0.00000000000E+00 0. -1.
         -1   -1    0    0    0  501 -0.00000000000E+00 -0.00000000000E+00 -0.12142134000E+02  0.12142134000E+02  0.00000000000E+00 0.  1.
         24    1    1    2    0    0 -0.20041770726E+02 -0.15505500288E+02  0.19707965861E+03  0.21435881345E+03  0.80419002446E+02 0.  1.
        -24    1    1    2    0    0  0.20041770726E+02  0.15505500288E+02  0.50393457601E+03  0.51093968916E+03  0.80419002446E+02 0. -1.
<mgrwt>
<rscale>  0 0.84316719E+02</rscale>
<asrwt>0</asrwt>
<pdfrwt beam="1">  1        1 0.10971633E+00 0.84316719E+02</pdfrwt>
<pdfrwt beam="2">  1       -1 0.18680212E-02 0.84316719E+02</pdfrwt>
<totfact> 0.18870263E+04</totfact>
</mgrwt>
</event>
<event>
 4    1  0.4941530E-001  0.8227196E+02  0.7546771E-02  0.1322725E+00
         -2   -1    0    0    0  501 -0.00000000000E+00  0.00000000000E+00  0.10900576900E+02  0.10900576900E+02  0.00000000000E+00 0.  1.
          2   -1    0    0  501    0  0.00000000000E+00 -0.00000000000E+00 -0.64383010613E+03  0.64383010613E+03  0.00000000000E+00 0. -1.
         24    1    1    2    0    0  0.15344698383E+02 -0.81240243065E+01 -0.37818234976E+03  0.38702786097E+03  0.80419002446E+02 0.  0.
        -24    1    1    2    0    0 -0.15344698383E+02  0.81240243065E+01 -0.25474717947E+03  0.26770282207E+03  0.80419002446E+02 0.  0.
<mgrwt>
<rscale>  0 0.82271961E+02</rscale>
<asrwt>0</asrwt>
<pdfrwt beam="1">  1        2 0.99050799E-01 0.82271961E+02</pdfrwt>
<pdfrwt beam="2">  1       -2 0.16770116E-02 0.82271961E+02</pdfrwt>
<totfact> 0.41051909E+04</totfact>
</mgrwt>
</event>
<event>
 4    1  0.4941530E-001  0.1030429E+03  0.7546771E-02  0.1274024E+00
         -2   -1    0    0    0  501 -0.00000000000E+00  0.00000000000E+00  0.10363502180E+04  0.10363502180E+04  0.00000000000E+00 0.  1.
          2   -1    0    0  501    0  0.00000000000E+00 -0.00000000000E+00 -0.22029345786E+02  0.22029345786E+02  0.00000000000E+00 0. -1.
         24    1    1    2    0    0  0.37824539424E+02  0.52152979932E+02  0.12012064452E+03  0.15826185356E+03  0.80419002446E+02 0. -1.
        -24    1    1    2    0    0 -0.37824539424E+02 -0.52152979932E+02  0.89420022766E+03  0.90011771019E+03  0.80419002446E+02 0.  1.
<mgrwt>
<rscale>  0 0.10304293E+03</rscale>
<asrwt>0</asrwt>
<pdfrwt beam="1">  1        2 0.33891309E-02 0.10304293E+03</pdfrwt>
<pdfrwt beam="2">  1       -2 0.15943846E+00 0.10304293E+03</pdfrwt>
<totfact> 0.68869538E+02</totfact>
</mgrwt>
</event>
<event>
 4    1  0.4941530E-001  0.8343859E+02  0.7546771E-02  0.1319567E+00
          2   -1    0    0  501    0  0.00000000000E+00  0.00000000000E+00  0.19741874683E+04  0.19741874683E+04  0.00000000000E+00 0. -1.
         -2   -1    0    0    0  501 -0.00000000000E+00 -0.00000000000E+00 -0.22300550604E+02  0.22300550604E+02  0.00000000000E+00 0.  1.
         24    1    1    2    0    0  0.82375453468E+01 -0.20662156153E+02  0.18918639203E+04  0.18937030101E+04  0.80419002446E+02 0. -1.
        -24    1    1    2    0    0 -0.82375453468E+01  0.20662156153E+02  0.60022997408E+02  0.10278500874E+03  0.80419002446E+02 0.  1.
<mgrwt>
<rscale>  0 0.83438587E+02</rscale>
<asrwt>0</asrwt>
<pdfrwt beam="1">  1        2 0.30372101E+00 0.83438587E+02</pdfrwt>
<pdfrwt beam="2">  1       -2 0.34308555E-02 0.83438587E+02</pdfrwt>
<totfact> 0.26630254E+03</totfact>
</mgrwt>
</event>
<event>
 4    1  0.4941530E-001  0.8289130E+02  0.7546771E-02  0.1321041E+00
          2   -1    0    0  501    0  0.00000000000E+00  0.00000000000E+00  0.11429126499E+04  0.11429126499E+04  0.00000000000E+00 0. -1.
         -2   -1    0    0    0  501 -0.00000000000E+00 -0.00000000000E+00 -0.11477879511E+03  0.11477879511E+03  0.00000000000E+00 0.  1.
         24    1    1    2    0    0 -0.81777935338E+00  0.20076937491E+02  0.11262225396E+04  0.11292688683E+04  0.80419002446E+02 0. -1.
        -24    1    1    2    0    0  0.81777935338E+00 -0.20076937491E+02 -0.98088684793E+02  0.12842257676E+03  0.80419002446E+02 0.  1.
<mgrwt>
<rscale>  0 0.82891303E+02</rscale>
<asrwt>0</asrwt>
<pdfrwt beam="1">  1        2 0.17583271E+00 0.82891303E+02</pdfrwt>
<pdfrwt beam="2">  1       -2 0.17658277E-01 0.82891303E+02</pdfrwt>
<totfact> 0.57702364E+02</totfact>
</mgrwt>
</event>
<event>
 4    1  0.4941530E-001  0.8102286E+02  0.7546771E-02  0.1326174E+00
          2   -1    0    0  501    0  0.00000000000E+00  0.00000000000E+00  0.49508038897E+04  0.49508038897E+04  0.00000000000E+00 0. -1.
         -2   -1    0    0    0  501 -0.00000000000E+00 -0.00000000000E+00 -0.18811001385E+01  0.18811001385E+01  0.00000000000E+00 0.  1.
         24    1    1    2    0    0  0.62897746487E+01 -0.76109834169E+01  0.38196875207E+04  0.38205467488E+04  0.80419002446E+02 0. -1.
        -24    1    1    2    0    0 -0.62897746487E+01  0.76109834169E+01  0.11292352688E+04  0.11321382410E+04  0.80419002446E+02 0.  0.
<mgrwt>
<rscale>  0 0.81022863E+02</rscale>
<asrwt>0</asrwt>
<pdfrwt beam="1">  1        2 0.76165170E+00 0.81022863E+02</pdfrwt>
<pdfrwt beam="2">  1       -2 0.28940399E-03 0.81022863E+02</pdfrwt>
<totfact> 0.81352053E+02</totfact>
</mgrwt>
</event>
<event>
 4    1  0.4941530E-001  0.1353328E+03  0.7546771E-02  0.1219751E+00
          3   -1    0    0  501    0  0.00000000000E+00  0.00000000000E+00  0.83208078170E+03  0.83208078170E+03  0.00000000000E+00 0. -1.
         -3   -1    0    0    0  501 -0.00000000000E+00 -0.00000000000E+00 -0.31921064890E+02  0.31921064890E+02  0.00000000000E+00 0.  1.
         24    1    1    2    0    0 -0.96687259569E+02  0.49993352311E+02  0.15937603276E+03  0.20908299120E+03  0.80419002446E+02 0.  1.
        -24    1    1    2    0    0  0.96687259569E+02 -0.49993352311E+02  0.64078368406E+03  0.65491885539E+03  0.80419002446E+02 0. -1.
<mgrwt>
<rscale>  0 0.13533284E+03</rscale>
<asrwt>0</asrwt>
<pdfrwt beam="1">  1        3 0.12801241E+00 0.13533284E+03</pdfrwt>
<pdfrwt beam="2">  1       -3 0.49109337E-02 0.13533284E+03</pdfrwt>
<totfact> 0.27789499E+02</totfact>
</mgrwt>
</event>
<event>
 4    1  0.4941530E-001  0.8932642E+02  0.7546771E-02  0.1304491E+00
          1   -1    0    0  501    0  0.00000000000E+00  0.00000000000E+00  0.47429934682E+04  0.47429934682E+04  0.00000000000E+00 0. -1.
         -1   -1    0    0    0  501 -0.00000000000E+00 -0.00000000000E+00 -0.17143635162E+01  0.17143635162E+01  0.00000000000E+00 0.  1.
         24    1    1    2    0    0  0.14685970637E+01 -0.38856608006E+02  0.20462756856E+04  0.20482244482E+04  0.80419002446E+02 0.  1.
        -24    1    1    2    0    0 -0.14685970637E+01  0.38856608006E+02  0.26950034191E+04  0.26964833835E+04  0.80419002446E+02 0. -1.
<mgrwt>
<rscale>  0 0.89326417E+02</rscale>
<asrwt>0</asrwt>
<pdfrwt beam="1">  1        1 0.72968080E+00 0.89326417E+02</pdfrwt>
<pdfrwt beam="2">  1       -1 0.26375203E-03 0.89326417E+02</pdfrwt>
<totfact> 0.33964596E+02</totfact>
</mgrwt>
</event>
<event>
 4    1  0.4941530E-001  0.9211463E+02  0.7546771E-02  0.1297810E+00
          1   -1    0    0  501    0  0.00000000000E+00  0.00000000000E+00  0.16088402884E+02  0.16088402884E+02  0.00000000000E+00 0. -1.
         -1   -1    0    0    0  501 -0.00000000000E+00 -0.00000000000E+00 -0.59867384081E+03  0.59867384081E+03  0.00000000000E+00 0.  1.
         24    1    1    2    0    0 -0.19171104272E+01 -0.44879984467E+02 -0.39734789509E+03  0.40788534419E+03  0.80419002446E+02 0.  1.
        -24    1    1    2    0    0  0.19171104272E+01  0.44879984467E+02 -0.18523754283E+03  0.20687689950E+03  0.80419002446E+02 0.  1.
<mgrwt>
<rscale>  0 0.92114626E+02</rscale>
<asrwt>0</asrwt>
<pdfrwt beam="1">  1        1 0.24751393E-02 0.92114626E+02</pdfrwt>
<pdfrwt beam="2">  1       -1 0.92103652E-01 0.92114626E+02</pdfrwt>
<totfact> 0.50013960E+03</totfact>
</mgrwt>
</event>
<event>
 4    1  0.4941530E-001  0.8540613E+02  0.7546771E-02  0.1314374E+00
         -2   -1    0    0    0  501 -0.00000000000E+00  0.00000000000E+00  0.20046572205E+02  0.20046572205E+02  0.00000000000E+00 0.  1.
          2   -1    0    0  501    0  0.00000000000E+00 -0.00000000000E+00 -0.36479463414E+03  0.36479463414E+03  0.00000000000E+00 0. -1.
         24    1    1    2    0    0 -0.28703168270E+02  0.17662052007E+01 -0.18209778021E+03  0.20113132243E+03  0.80419002446E+02 0.  1.
        -24    1    1    2    0    0  0.28703168270E+02 -0.17662052007E+01 -0.16265028172E+03  0.18370988392E+03  0.80419002446E+02 0. -1.
<mgrwt>
<rscale>  0 0.85406132E+02</rscale>
<asrwt>0</asrwt>
<pdfrwt beam="1">  1        2 0.56122250E-01 0.85406132E+02</pdfrwt>
<pdfrwt beam="2">  1       -2 0.30840881E-02 0.85406132E+02</pdfrwt>
<totfact> 0.31659705E+04</totfact>
</mgrwt>
</event>
<event>
 4    1  0.4941530E-001  0.8376720E+02  0.7546771E-02  0.1318688E+00
          1   -1    0    0  501    0  0.00000000000E+00  0.00000000000E+00  0.33733555851E+02  0.33733555851E+02  0.00000000000E+00 0. -1.
         -1   -1    0    0    0  501 -0.00000000000E+00 -0.00000000000E+00 -0.26798317730E+03  0.26798317730E+03  0.00000000000E+00 0.  1.
         24    1    1    2    0    0  0.12911217647E+02  0.19571126636E+02 -0.18849078646E+03  0.20626614136E+03  0.80419002446E+02 0.  1.
        -24    1    1    2    0    0 -0.12911217647E+02 -0.19571126636E+02 -0.45758834993E+02  0.95450591791E+02  0.80419002446E+02 0. -1.
<mgrwt>
<rscale>  0 0.83767204E+02</rscale>
<asrwt>0</asrwt>
<pdfrwt beam="1">  1        1 0.51897778E-02 0.83767204E+02</pdfrwt>
<pdfrwt beam="2">  1       -1 0.41228181E-01 0.83767204E+02</pdfrwt>
<totfact> 0.83474190E+03</totfact>
</mgrwt>
</event>
<event>
 4    1  0.4941530E-001  0.8854307E+02  0.7546771E-02  0.1306419E+00
         -2   -1    0    0    0  501 -0.00000000000E+00  0.00000000000E+00  0.10083569444E+03  0.10083569444E+03  0.00000000000E+00 0.  1.
          2   -1    0    0  501    0  0.00000000000E+00 -0.00000000000E+00 -0.24874298098E+03  0.24874298098E+03  0.00000000000E+00 0. -1.
         24    1    1    2    0    0  0.21940183438E+02  0.29854446448E+02 -0.21887417420E+03  0.23610544193E+03  0.80419002446E+02 0. -1.
        -24    1    1    2    0    0 -0.21940183438E+02 -0.29854446448E+02  0.70966887661E+02  0.11347323350E+03  0.80419002446E+02 0.  1.
<mgrwt>
<rscale>  0 0.88543072E+02</rscale>
<asrwt>0</asrwt>
<pdfrwt beam="1">  1        2 0.38268151E-01 0.88543072E+02</pdfrwt>
<pdfrwt beam="2">  1       -2 0.15513184E-01 0.88543072E+02</pdfrwt>
<totfact> 0.40659066E+03</totfact>
</mgrwt>
</event>
<event>
 4    1  0.4941530E-001  0.8672776E+02  0.7546771E-02  0.1310975E+00
         -2   -1    0    0    0  501 -0.00000000000E+00  0.00000000000E+00  0.35595106835E+02  0.35595106835E+02  0.00000000000E+00 0.  1.
          2   -1    0    0  501    0  0.00000000000E+00 -0.00000000000E+00 -0.22427264348E+03  0.22427264348E+03  0.00000000000E+00 0. -1.
         24    1    1    2    0    0  0.30999572884E+02  0.96701491141E+01 -0.63104285254E+02  0.10725601183E+03  0.80419002446E+02 0.  1.
        -24    1    1    2    0    0 -0.30999572884E+02 -0.96701491141E+01 -0.12557325139E+03  0.15261173848E+03  0.80419002446E+02 0. -1.
<mgrwt>
<rscale>  0 0.86727753E+02</rscale>
<asrwt>0</asrwt>
<pdfrwt beam="1">  1        2 0.34503483E-01 0.86727764E+02</pdfrwt>
<pdfrwt beam="2">  1       -2 0.54761703E-02 0.86727764E+02</pdfrwt>
<totfact> 0.22680493E+04</totfact>
</mgrwt>
</event>
<event>
 4    1  0.4941530E-001  0.8059091E+02  0.7546771E-02  0.1327383E+00
          2   -1    0    0  501    0  0.00000000000E+00  0.00000000000E+00  0.23000471684E+03  0.23000471684E+03  0.00000000000E+00 0. -1.
         -2   -1    0    0    0  501 -0.00000000000E+00 -0.00000000000E+00 -0.35986195698E+02  0.35986195698E+02  0.00000000000E+00 0.  1.
         24    1    1    2    0    0 -0.35672278857E+01 -0.38669286884E+01  0.15872082630E+03  0.17800897423E+03  0.80419002446E+02 0. -1.
        -24    1    1    2    0    0  0.35672278857E+01  0.38669286884E+01  0.35297694844E+02  0.87981938305E+02  0.80419002446E+02 0.  1.
<mgrwt>
<rscale>  0 0.80590906E+02</rscale>
<asrwt>0</asrwt>
<pdfrwt beam="1">  1        2 0.35385340E-01 0.80590906E+02</pdfrwt>
<pdfrwt beam="2">  1       -2 0.55363379E-02 0.80590906E+02</pdfrwt>
<totfact> 0.21548388E+04</totfact>
</mgrwt>
</event>
<event>
 4    1  0.4941530E-001  0.8872611E+02  0.7546771E-02  0.1305966E+00
         -2   -1    0    0    0  501 -0.00000000000E+00  0.00000000000E+00  0.72757873395E+01  0.72757873395E+01  0.00000000000E+00 0.  1.
          2   -1    0    0  501    0  0.00000000000E+00 -0.00000000000E+00 -0.18832232997E+04  0.18832232997E+04  0.00000000000E+00 0. -1.
         24    1    1    2    0    0  0.31314360858E+02  0.20603802381E+02 -0.15545337404E+04  0.15570637341E+04  0.80419002446E+02 0. -1.
        -24    1    1    2    0    0 -0.31314360858E+02 -0.20603802381E+02 -0.32141377193E+03  0.33343535297E+03  0.80419002446E+02 0.  1.
<mgrwt>
<rscale>  0 0.88726106E+02</rscale>
<asrwt>0</asrwt>
<pdfrwt beam="1">  1        2 0.28972724E+00 0.88726106E+02</pdfrwt>
<pdfrwt beam="2">  1       -2 0.11193496E-02 0.88726106E+02</pdfrwt>
<totfact> 0.14776933E+04</totfact>
</mgrwt>
</event>
<event>
 4    1  0.4941530E-001  0.1268764E+03  0.7546771E-02  0.1232166E+00
          1   -1    0    0  501    0  0.00000000000E+00  0.00000000000E+00  0.19025056671E+04  0.19025056671E+04  0.00000000000E+00 0. -1.
         -1   -1    0    0    0  501 -0.00000000000E+00 -0.00000000000E+00 -0.46501521376E+02  0.46501521376E+02  0.00000000000E+00 0.  1.
         24    1    1    2    0    0  0.94969385834E+02 -0.24722814766E+02  0.18093990212E+04  0.18138418993E+04  0.80419002446E+02 0. -1.
        -24    1    1    2    0    0 -0.94969385834E+02  0.24722814766E+02  0.46605124561E+02  0.13516528920E+03  0.80419002446E+02 0.  1.
<mgrwt>
<rscale>  0 0.12687640E+03</rscale>
<asrwt>0</asrwt>
<pdfrwt beam="1">  1        1 0.29269312E+00 0.12687642E+03</pdfrwt>
<pdfrwt beam="2">  1       -1 0.71540817E-02 0.12687642E+03</pdfrwt>
<totfact> 0.41228620E+02</totfact>
</mgrwt>
</event>
<event>
 4    1  0.4941530E-001  0.1173753E+03  0.7546771E-02  0.1247491E+00
         -2   -1    0    0    0  501 -0.00000000000E+00  0.00000000000E+00  0.13941297373E+03  0.13941297373E+03  0.00000000000E+00 0.  1.
          2   -1    0    0  501    0  0.00000000000E+00 -0.00000000000E+00 -0.99204249690E+02  0.99204249690E+02  0.00000000000E+00 0. -1.
         24    1    1    2    0    0  0.54714367202E+01 -0.85321843574E+02  0.12691522881E+02  0.11805949482E+03  0.80419002446E+02 0.  1.
        -24    1    1    2    0    0 -0.54714367202E+01  0.85321843574E+02  0.27517201160E+02  0.12055772860E+03  0.80419002446E+02 0. -1.
<mgrwt>
<rscale>  0 0.11737534E+03</rscale>
<asrwt>0</asrwt>
<pdfrwt beam="1">  1        2 0.15262192E-01 0.11737534E+03</pdfrwt>
<pdfrwt beam="2">  1       -2 0.21448150E-01 0.11737534E+03</pdfrwt>
<totfact> 0.66580866E+03</totfact>
</mgrwt>
</event>
<event>
 4    1  0.4941530E-001  0.1067861E+03  0.7546771E-02  0.1266640E+00
         -1   -1    0    0    0  501 -0.00000000000E+00  0.00000000000E+00  0.81267142602E+01  0.81267142602E+01  0.00000000000E+00 0.  1.
          1   -1    0    0  501    0  0.00000000000E+00 -0.00000000000E+00 -0.14706180095E+04  0.14706180095E+04  0.00000000000E+00 0. -1.
         24    1    1    2    0    0  0.69044524620E+02  0.12995982204E+02 -0.88957437159E+03  0.89596083647E+03  0.80419002446E+02 0.  0.
        -24    1    1    2    0    0 -0.69044524620E+02 -0.12995982204E+02 -0.57291692367E+03  0.58278388731E+03  0.80419002446E+02 0.  0.
<mgrwt>
<rscale>  0 0.10678605E+03</rscale>
<asrwt>0</asrwt>
<pdfrwt beam="1">  1        1 0.22624901E+00 0.10678606E+03</pdfrwt>
<pdfrwt beam="2">  1       -1 0.12502633E-02 0.10678606E+03</pdfrwt>
<totfact> 0.97846355E+03</totfact>
</mgrwt>
</event>
<event>
 4    1  0.4941530E-001  0.9737638E+02  0.7546771E-02  0.1285912E+00
         -1   -1    0    0    0  501 -0.00000000000E+00  0.00000000000E+00  0.22961419765E+02  0.22961419765E+02  0.00000000000E+00 0.  1.
          1   -1    0    0  501    0  0.00000000000E+00 -0.00000000000E+00 -0.11007427031E+04  0.11007427031E+04  0.00000000000E+00 0. -1.
         24    1    1    2    0    0  0.51367241467E+02  0.19399723032E+02 -0.94766330011E+02  0.13587794526E+03  0.80419002446E+02 0.  1.
        -24    1    1    2    0    0 -0.51367241467E+02 -0.19399723032E+02 -0.98301495334E+03  0.98782617763E+03  0.80419002446E+02 0. -1.
<mgrwt>
<rscale>  0 0.97376377E+02</rscale>
<asrwt>0</asrwt>
<pdfrwt beam="1">  1        1 0.16934498E+00 0.97376377E+02</pdfrwt>
<pdfrwt beam="2">  1       -1 0.35325272E-02 0.97376377E+02</pdfrwt>
<totfact> 0.38721835E+03</totfact>
</mgrwt>
</event>
<event>
 4    1  0.4941530E-001  0.1124702E+03  0.7546771E-02  0.1256063E+00
          1   -1    0    0  501    0  0.00000000000E+00  0.00000000000E+00  0.54568073987E+03  0.54568073987E+03  0.00000000000E+00 0. -1.
         -1   -1    0    0    0  501 -0.00000000000E+00 -0.00000000000E+00 -0.24327666891E+02  0.24327666891E+02  0.00000000000E+00 0.  1.
         24    1    1    2    0    0 -0.46887124491E+02 -0.63118421625E+02  0.19880724587E+03  0.22841601204E+03  0.80419002446E+02 0.  1.
        -24    1    1    2    0    0  0.46887124491E+02  0.63118421625E+02  0.32254582711E+03  0.34159239473E+03  0.80419002446E+02 0. -1.
<mgrwt>
<rscale>  0 0.11247023E+03</rscale>
<asrwt>0</asrwt>
<pdfrwt beam="1">  1        1 0.83950874E-01 0.11247023E+03</pdfrwt>
<pdfrwt beam="2">  1       -1 0.37427184E-02 0.11247023E+03</pdfrwt>
<totfact> 0.10242151E+04</totfact>
</mgrwt>
</event>
