<event>
 4    1  0.1726795E-008  0.3662313E+03  0.7818608E-02  0.1056143E+00
         -2   -1    0    0    0  501 -0.00000000000E+00  0.00000000000E+00  0.23795830189E+03  0.23795830190E+03  0.25500000000E-02 0.  1.
          2   -1    0    0  501    0  0.00000000000E+00 -0.00000000000E+00 -0.74344312380E+03  0.74344312381E+03  0.25500000000E-02 0. -1.
    8880022    1    1    2    0    0 -0.22106208517E+03 -0.24872727764E+03 -0.11430621651E+02  0.36640962906E+03  0.15294330000E+03 0.  0.
    8880022    1    1    2    0    0  0.22106208517E+03  0.24872727764E+03 -0.49405420026E+03  0.61499179666E+03  0.15294330000E+03 0.  0.
<mgrwt>
<rscale>  0 0.36623129E+03</rscale>
<asrwt>0</asrwt>
<pdfrwt beam="1">  1        2 0.11437586E+00 0.36623129E+03</pdfrwt>
<pdfrwt beam="2">  1       -2 0.36608970E-01 0.36623129E+03</pdfrwt>
<totfact> 0.27468866E+02</totfact>
</mgrwt>
</event>
<event>
 4    1  0.1726795E-008  0.8802002E+03  0.7818608E-02  0.9450676E-01
          2   -1    0    0  501    0  0.00000000000E+00  0.00000000000E+00  0.23863656190E+04  0.23863656190E+04  0.25500000000E-02 0. -1.
         -2   -1    0    0    0  501 -0.00000000000E+00 -0.00000000000E+00 -0.54335807684E+03  0.54335807685E+03  0.25500000000E-02 0.  1.
    8880022    1    1    2    0    0  0.78918372833E+03  0.35853851734E+03  0.18508513244E+04  0.20494884980E+04  0.15294330000E+03 0.  0.
    8880022    1    1    2    0    0 -0.78918372833E+03 -0.35853851734E+03 -0.78437822896E+01  0.88023519778E+03  0.15294330000E+03 0.  0.
<mgrwt>
<rscale>  0 0.88020025E+03</rscale>
<asrwt>0</asrwt>
<pdfrwt beam="1">  1        2 0.36713317E+00 0.88020025E+03</pdfrwt>
<pdfrwt beam="2">  1       -2 0.83593552E-01 0.88020025E+03</pdfrwt>
<totfact> 0.51907226E+00</totfact>
</mgrwt>
</event>
<event>
 4    1  0.1726795E-008  0.5444782E+03  0.7818608E-02  0.1002780E+00
         -2   -1    0    0    0  501 -0.00000000000E+00  0.00000000000E+00  0.64181548503E+03  0.64181548503E+03  0.25500000000E-02 0.  1.
          2   -1    0    0  501    0  0.00000000000E+00 -0.00000000000E+00 -0.16269037333E+04  0.16269037333E+04  0.25500000000E-02 0. -1.
    8880022    1    1    2    0    0  0.49096787357E+03 -0.17892851131E+03 -0.14524594375E+04  0.15511592232E+04  0.15294330000E+03 0.  0.
    8880022    1    1    2    0    0 -0.49096787357E+03  0.17892851131E+03  0.46737118927E+03  0.71755999513E+03  0.15294330000E+03 0.  0.
<mgrwt>
<rscale>  0 0.54447821E+03</rscale>
<asrwt>0</asrwt>
<pdfrwt beam="1">  1        2 0.25029288E+00 0.54447821E+03</pdfrwt>
<pdfrwt beam="2">  1       -2 0.98740844E-01 0.54447821E+03</pdfrwt>
<totfact> 0.97446440E+00</totfact>
</mgrwt>
</event>
<event>
 4    1  0.1726795E-008  0.1192791E+04  0.7818608E-02  0.9119190E-01
          2   -1    0    0  501    0  0.00000000000E+00  0.00000000000E+00  0.16256757347E+04  0.16256757347E+04  0.25500000000E-02 0. -1.
         -2   -1    0    0    0  501 -0.00000000000E+00 -0.00000000000E+00 -0.12527430590E+04  0.12527430590E+04  0.25500000000E-02 0.  1.
    8880022    1    1    2    0    0  0.97992379880E+03 -0.66265258762E+03 -0.60364921145E+03  0.13368407261E+04  0.15294330000E+03 0.  0.
    8880022    1    1    2    0    0 -0.97992379880E+03  0.66265258762E+03  0.97658188717E+03  0.15415780677E+04  0.15294330000E+03 0.  0.
<mgrwt>
<rscale>  0 0.11927912E+04</rscale>
<asrwt>0</asrwt>
<pdfrwt beam="1">  1        2 0.25010396E+00 0.11927912E+04</pdfrwt>
<pdfrwt beam="2">  1       -2 0.19272970E+00 0.11927912E+04</pdfrwt>
<totfact> 0.15567431E+00</totfact>
</mgrwt>
</event>
<event>
 4    1  0.1821406E-008  0.8137756E+03  0.7818608E-02  0.9540289E-01
         -2   -1    0    0    0  501 -0.00000000000E+00  0.00000000000E+00  0.15398794284E+04  0.15398794284E+04  0.25500000000E-02 0.  1.
          2   -1    0    0  501    0  0.00000000000E+00 -0.00000000000E+00 -0.19848578364E+04  0.19848578364E+04  0.25500000000E-02 0. -1.
    8880022    1    1    2    0    0  0.79379406362E+03 -0.93434625291E+02 -0.17822927682E+04  0.19592851270E+04  0.15294330000E+03 0.  0.
    8880022    1    1    2    0    0 -0.79379406362E+03  0.93434625291E+02  0.13373143602E+04  0.15654521378E+04  0.15294330000E+03 0.  0.
<mgrwt>
<rscale>  0 0.81377558E+03</rscale>
<asrwt>0</asrwt>
<pdfrwt beam="1">  1        2 0.30536274E+00 0.81377558E+03</pdfrwt>
<pdfrwt beam="2">  1       -2 0.23690453E+00 0.81377558E+03</pdfrwt>
<totfact> 0.54658472E-01</totfact>
</mgrwt>
</event>
<event>
 4    1  0.1726795E-008  0.1343505E+04  0.7818608E-02  0.8995759E-01
         -2   -1    0    0    0  501 -0.00000000000E+00  0.00000000000E+00  0.17899186484E+04  0.17899186484E+04  0.25500000000E-02 0.  1.
          2   -1    0    0  501    0  0.00000000000E+00 -0.00000000000E+00 -0.11110101958E+04  0.11110101958E+04  0.25500000000E-02 0. -1.
    8880022    1    1    2    0    0  0.97832155615E+03  0.90802089239E+03  0.78019274167E+03  0.15536110760E+04  0.15294330000E+03 0.  0.
    8880022    1    1    2    0    0 -0.97832155615E+03 -0.90802089239E+03 -0.10128428908E+03  0.13473177682E+04  0.15294330000E+03 0.  0.
<mgrwt>
<rscale>  0 0.13435054E+04</rscale>
<asrwt>0</asrwt>
<pdfrwt beam="1">  1        2 0.17092465E+00 0.13435054E+04</pdfrwt>
<pdfrwt beam="2">  1       -2 0.27537210E+00 0.13435054E+04</pdfrwt>
<totfact> 0.92534306E-01</totfact>
</mgrwt>
</event>
<event>
 4    1  0.1726795E-008  0.5383838E+03  0.7818608E-02  0.1004219E+00
         -2   -1    0    0    0  501 -0.00000000000E+00  0.00000000000E+00  0.50606090169E+03  0.50606090170E+03  0.25500000000E-02 0.  1.
          2   -1    0    0  501    0  0.00000000000E+00 -0.00000000000E+00 -0.11539619405E+04  0.11539619405E+04  0.25500000000E-02 0. -1.
    8880022    1    1    2    0    0  0.16708721732E+03  0.48841311959E+03  0.26509333211E+03  0.60010969108E+03  0.15294330000E+03 0.  0.
    8880022    1    1    2    0    0 -0.16708721732E+03 -0.48841311959E+03 -0.91299437095E+03  0.10599131511E+04  0.15294330000E+03 0.  0.
<mgrwt>
<rscale>  0 0.53838385E+03</rscale>
<asrwt>0</asrwt>
<pdfrwt beam="1">  1        2 0.17753260E+00 0.53838385E+03</pdfrwt>
<pdfrwt beam="2">  1       -2 0.77855524E-01 0.53838385E+03</pdfrwt>
<totfact> 0.30978576E+01</totfact>
</mgrwt>
</event>
<event>
 4    1  0.1726795E-008  0.5903052E+03  0.7818608E-02  0.9925726E-01
          2   -1    0    0  501    0  0.00000000000E+00  0.00000000000E+00  0.30929174452E+04  0.30929174452E+04  0.25500000000E-02 0. -1.
         -2   -1    0    0    0  501 -0.00000000000E+00 -0.00000000000E+00 -0.29943300501E+03  0.29943300502E+03  0.25500000000E-02 0.  1.
    8880022    1    1    2    0    0  0.71659782286E+02 -0.56562663218E+03  0.27363367140E+04  0.27992854225E+04  0.15294330000E+03 0.  0.
    8880022    1    1    2    0    0 -0.71659782286E+02  0.56562663218E+03  0.57147726173E+02  0.59306502767E+03  0.15294330000E+03 0.  0.
<mgrwt>
<rscale>  0 0.59030523E+03</rscale>
<asrwt>0</asrwt>
<pdfrwt beam="1">  1        2 0.47583345E+00 0.59030523E+03</pdfrwt>
<pdfrwt beam="2">  1       -2 0.46066617E-01 0.59030523E+03</pdfrwt>
<totfact> 0.75057635E+00</totfact>
</mgrwt>
</event>
<event>
 4    1  0.1726795E-008  0.6974333E+03  0.7818608E-02  0.9721632E-01
         -2   -1    0    0    0  501 -0.00000000000E+00  0.00000000000E+00  0.13767176920E+03  0.13767176923E+03  0.25500000000E-02 0.  1.
          2   -1    0    0  501    0  0.00000000000E+00 -0.00000000000E+00 -0.36731629567E+04  0.36731629567E+04  0.25500000000E-02 0. -1.
    8880022    1    1    2    0    0  0.17671751358E+03  0.65710919474E+03 -0.21397724062E+04  0.22505641908E+04  0.15294330000E+03 0.  0.
    8880022    1    1    2    0    0 -0.17671751358E+03 -0.65710919474E+03 -0.13957187813E+04  0.15602705351E+04  0.15294330000E+03 0.  0.
<mgrwt>
<rscale>  0 0.69743331E+03</rscale>
<asrwt>0</asrwt>
<pdfrwt beam="1">  1        2 0.56510192E+00 0.69743331E+03</pdfrwt>
<pdfrwt beam="2">  1       -2 0.21180275E-01 0.69743331E+03</pdfrwt>
<totfact> 0.12924431E+01</totfact>
</mgrwt>
</event>
<event>
 4    1  0.1726795E-008  0.9145614E+03  0.7818608E-02  0.9407560E-01
          2   -1    0    0  501    0  0.00000000000E+00  0.00000000000E+00  0.94439701837E+03  0.94439701837E+03  0.25500000000E-02 0. -1.
         -2   -1    0    0    0  501 -0.00000000000E+00 -0.00000000000E+00 -0.10859042799E+04  0.10859042799E+04  0.25500000000E-02 0.  1.
    8880022    1    1    2    0    0 -0.45009726817E+03 -0.78130879513E+03  0.36516519749E+03  0.98476812430E+03  0.15294330000E+03 0.  0.
    8880022    1    1    2    0    0  0.45009726817E+03  0.78130879513E+03 -0.50667245905E+03  0.10455331740E+04  0.15294330000E+03 0.  0.
<mgrwt>
<rscale>  0 0.91456145E+03</rscale>
<asrwt>0</asrwt>
<pdfrwt beam="1">  1        2 0.14529185E+00 0.91456145E+03</pdfrwt>
<pdfrwt beam="2">  1       -2 0.16706220E+00 0.91456145E+03</pdfrwt>
<totfact> 0.61246542E+00</totfact>
</mgrwt>
</event>
<event>
 4    1  0.1726795E-008  0.1258457E+04  0.7818608E-02  0.9063174E-01
          2   -1    0    0  501    0  0.00000000000E+00  0.00000000000E+00  0.16713817204E+04  0.16713817204E+04  0.25500000000E-02 0. -1.
         -2   -1    0    0    0  501 -0.00000000000E+00 -0.00000000000E+00 -0.16084817026E+04  0.16084817027E+04  0.25500000000E-02 0.  1.
    8880022    1    1    2    0    0 -0.12280321937E+04 -0.22860273777E+03  0.10826775817E+04  0.16600917684E+04  0.15294330000E+03 0.  0.
    8880022    1    1    2    0    0  0.12280321937E+04  0.22860273777E+03 -0.10197775639E+04  0.16197716547E+04  0.15294330000E+03 0.  0.
<mgrwt>
<rscale>  0 0.12584570E+04</rscale>
<asrwt>0</asrwt>
<pdfrwt beam="1">  1        2 0.25713565E+00 0.12584570E+04</pdfrwt>
<pdfrwt beam="2">  1       -2 0.24745872E+00 0.12584570E+04</pdfrwt>
<totfact> 0.65369901E-01</totfact>
</mgrwt>
</event>
<event>
 4    1  0.1726795E-008  0.6490422E+03  0.7818608E-02  0.9808578E-01
          2   -1    0    0  501    0  0.00000000000E+00  0.00000000000E+00  0.25965324582E+04  0.25965324582E+04  0.25500000000E-02 0. -1.
         -2   -1    0    0    0  501 -0.00000000000E+00 -0.00000000000E+00 -0.30479337267E+03  0.30479337268E+03  0.25500000000E-02 0.  1.
    8880022    1    1    2    0    0  0.62691442010E+03  0.69587826843E+02  0.21379703269E+04  0.22343171054E+04  0.15294330000E+03 0.  0.
    8880022    1    1    2    0    0 -0.62691442010E+03 -0.69587826843E+02  0.15376875868E+03  0.66700872553E+03  0.15294330000E+03 0.  0.
<mgrwt>
<rscale>  0 0.64904222E+03</rscale>
<asrwt>0</asrwt>
<pdfrwt beam="1">  1        2 0.39946652E+00 0.64904222E+03</pdfrwt>
<pdfrwt beam="2">  1       -2 0.46891289E-01 0.64904222E+03</pdfrwt>
<totfact> 0.14088495E+01</totfact>
</mgrwt>
</event>
<event>
 4    1  0.1726795E-008  0.6182311E+03  0.7818608E-02  0.9868288E-01
          2   -1    0    0  501    0  0.00000000000E+00  0.00000000000E+00  0.11105013440E+04  0.11105013440E+04  0.25500000000E-02 0. -1.
         -2   -1    0    0    0  501 -0.00000000000E+00 -0.00000000000E+00 -0.13078173591E+04  0.13078173591E+04  0.25500000000E-02 0.  1.
    8880022    1    1    2    0    0  0.52013496832E+03  0.29711546484E+03  0.93927029712E+03  0.11244724669E+04  0.15294330000E+03 0.  0.
    8880022    1    1    2    0    0 -0.52013496832E+03 -0.29711546484E+03 -0.11365863122E+04  0.12938462362E+04  0.15294330000E+03 0.  0.
<mgrwt>
<rscale>  0 0.61823106E+03</rscale>
<asrwt>0</asrwt>
<pdfrwt beam="1">  1        2 0.17084636E+00 0.61823106E+03</pdfrwt>
<pdfrwt beam="2">  1       -2 0.20120267E+00 0.61823106E+03</pdfrwt>
<totfact> 0.29417326E+00</totfact>
</mgrwt>
</event>
<event>
 4    1  0.1726795E-008  0.1262290E+04  0.7818608E-02  0.9060016E-01
         -2   -1    0    0    0  501 -0.00000000000E+00  0.00000000000E+00  0.16513445117E+04  0.16513445117E+04  0.25500000000E-02 0.  1.
          2   -1    0    0  501    0  0.00000000000E+00 -0.00000000000E+00 -0.12812586158E+04  0.12812586158E+04  0.25500000000E-02 0. -1.
    8880022    1    1    2    0    0 -0.39455179194E+03  0.11892492783E+04  0.91365626134E+03  0.15582504225E+04  0.15294330000E+03 0.  0.
    8880022    1    1    2    0    0  0.39455179194E+03 -0.11892492783E+04 -0.54357036545E+03  0.13743527049E+04  0.15294330000E+03 0.  0.
<mgrwt>
<rscale>  0 0.12622902E+04</rscale>
<asrwt>0</asrwt>
<pdfrwt beam="1">  1        2 0.19711671E+00 0.12622902E+04</pdfrwt>
<pdfrwt beam="2">  1       -2 0.25405300E+00 0.12622902E+04</pdfrwt>
<totfact> 0.99340877E-01</totfact>
</mgrwt>
</event>
<event>
 4    1  0.1726795E-008  0.5057777E+03  0.7818608E-02  0.1012282E+00
         -2   -1    0    0    0  501 -0.00000000000E+00  0.00000000000E+00  0.48990822470E+03  0.48990822471E+03  0.25500000000E-02 0.  1.
          2   -1    0    0  501    0  0.00000000000E+00 -0.00000000000E+00 -0.60802505027E+03  0.60802505028E+03  0.25500000000E-02 0. -1.
    8880022    1    1    2    0    0 -0.31581858623E+03 -0.36424995311E+03  0.14723740552E+03  0.52677311468E+03  0.15294330000E+03 0.  0.
    8880022    1    1    2    0    0  0.31581858623E+03  0.36424995311E+03 -0.26535423109E+03  0.57116016031E+03  0.15294330000E+03 0.  0.
<mgrwt>
<rscale>  0 0.50577768E+03</rscale>
<asrwt>0</asrwt>
<pdfrwt beam="1">  1        2 0.93542315E-01 0.50577768E+03</pdfrwt>
<pdfrwt beam="2">  1       -2 0.75370497E-01 0.50577768E+03</pdfrwt>
<totfact> 0.79438748E+01</totfact>
</mgrwt>
</event>
<event>
 4    1  0.1726795E-008  0.8607730E+03  0.7818608E-02  0.9475991E-01
          2   -1    0    0  501    0  0.00000000000E+00  0.00000000000E+00  0.30520603957E+04  0.30520603957E+04  0.25500000000E-02 0. -1.
         -2   -1    0    0    0  501 -0.00000000000E+00 -0.00000000000E+00 -0.58094726792E+03  0.58094726792E+03  0.25500000000E-02 0.  1.
    8880022    1    1    2    0    0  0.84416274548E+03 -0.70198016559E+02  0.26214954145E+04  0.27591970505E+04  0.15294330000E+03 0.  0.
    8880022    1    1    2    0    0 -0.84416274548E+03  0.70198016559E+02 -0.15038228672E+03  0.87381061309E+03  0.15294330000E+03 0.  0.
<mgrwt>
<rscale>  0 0.86077300E+03</rscale>
<asrwt>0</asrwt>
<pdfrwt beam="1">  1        2 0.46954775E+00 0.86077300E+03</pdfrwt>
<pdfrwt beam="2">  1       -2 0.89376503E-01 0.86077300E+03</pdfrwt>
<totfact> 0.18138237E+00</totfact>
</mgrwt>
</event>
<event>
 4    1  0.1726795E-008  0.2771723E+03  0.7818608E-02  0.1097243E+00
          2   -1    0    0  501    0  0.00000000000E+00  0.00000000000E+00  0.71542830523E+03  0.71542830524E+03  0.25500000000E-02 0. -1.
         -2   -1    0    0    0  501 -0.00000000000E+00 -0.00000000000E+00 -0.30315616665E+03  0.30315616666E+03  0.25500000000E-02 0.  1.
    8880022    1    1    2    0    0  0.14983058620E+03  0.17602164428E+03 -0.20313495120E+03  0.34363976084E+03  0.15294330000E+03 0.  0.
    8880022    1    1    2    0    0 -0.14983058620E+03 -0.17602164428E+03  0.61540708978E+03  0.67494471106E+03  0.15294330000E+03 0.  0.
<mgrwt>
<rscale>  0 0.27717229E+03</rscale>
<asrwt>0</asrwt>
<pdfrwt beam="1">  1        2 0.11006589E+00 0.27717229E+03</pdfrwt>
<pdfrwt beam="2">  1       -2 0.46639410E-01 0.27717229E+03</pdfrwt>
<totfact> 0.18194015E+02</totfact>
</mgrwt>
</event>
<event>
 4    1  0.1726795E-008  0.5399642E+03  0.7818608E-02  0.1003844E+00
         -2   -1    0    0    0  501 -0.00000000000E+00  0.00000000000E+00  0.47865553306E+03  0.47865553307E+03  0.25500000000E-02 0.  1.
          2   -1    0    0  501    0  0.00000000000E+00 -0.00000000000E+00 -0.13232932035E+04  0.13232932035E+04  0.25500000000E-02 0. -1.
    8880022    1    1    2    0    0  0.32355866097E+03  0.40432589661E+03 -0.10842068212E+04  0.12112248850E+04  0.15294330000E+03 0.  0.
    8880022    1    1    2    0    0 -0.32355866097E+03 -0.40432589661E+03  0.23956915084E+03  0.59072385156E+03  0.15294330000E+03 0.  0.
<mgrwt>
<rscale>  0 0.53996416E+03</rscale>
<asrwt>0</asrwt>
<pdfrwt beam="1">  1        2 0.20358357E+00 0.53996416E+03</pdfrwt>
<pdfrwt beam="2">  1       -2 0.73639313E-01 0.53996416E+03</pdfrwt>
<totfact> 0.27945990E+01</totfact>
</mgrwt>
</event>
<event>
 4    1  0.1726795E-008  0.1127697E+04  0.7818608E-02  0.9178610E-01
         -2   -1    0    0    0  501 -0.00000000000E+00  0.00000000000E+00  0.44264002195E+04  0.44264002195E+04  0.25500000000E-02 0.  1.
          2   -1    0    0  501    0  0.00000000000E+00 -0.00000000000E+00 -0.72751671311E+03  0.72751671311E+03  0.25500000000E-02 0. -1.
    8880022    1    1    2    0    0 -0.88947811552E+03 -0.67611865939E+03  0.38540051386E+04  0.40156014520E+04  0.15294330000E+03 0.  0.
    8880022    1    1    2    0    0  0.88947811552E+03  0.67611865939E+03 -0.15512163226E+03  0.11383154806E+04  0.15294330000E+03 0.  0.
<mgrwt>
<rscale>  0 0.11276965E+04</rscale>
<asrwt>0</asrwt>
<pdfrwt beam="1">  1        2 0.11192565E+00 0.11276965E+04</pdfrwt>
<pdfrwt beam="2">  1       -2 0.68098464E+00 0.11276965E+04</pdfrwt>
<totfact> 0.10117222E-02</totfact>
</mgrwt>
</event>
<event>
 4    1  0.1726795E-008  0.1422498E+04  0.7818608E-02  0.8937692E-01
         -2   -1    0    0    0  501 -0.00000000000E+00  0.00000000000E+00  0.24977822613E+04  0.24977822613E+04  0.25500000000E-02 0.  1.
          2   -1    0    0  501    0  0.00000000000E+00 -0.00000000000E+00 -0.11721598341E+04  0.11721598341E+04  0.25500000000E-02 0. -1.
    8880022    1    1    2    0    0  0.50925696998E+03 -0.13193812608E+04 -0.35698757304E+03  0.14666087935E+04  0.15294330000E+03 0.  0.
    8880022    1    1    2    0    0 -0.50925696998E+03  0.13193812608E+04  0.16826100003E+04  0.22033333019E+04  0.15294330000E+03 0.  0.
<mgrwt>
<rscale>  0 0.14224982E+04</rscale>
<asrwt>0</asrwt>
<pdfrwt beam="1">  1        2 0.18033228E+00 0.14224982E+04</pdfrwt>
<pdfrwt beam="2">  1       -2 0.38427419E+00 0.14224982E+04</pdfrwt>
<totfact> 0.17670880E-01</totfact>
</mgrwt>
</event>
<event>
 4    1  0.1726795E-008  0.7298512E+03  0.7818608E-02  0.9667502E-01
         -2   -1    0    0    0  501 -0.00000000000E+00  0.00000000000E+00  0.66757936026E+03  0.66757936026E+03  0.25500000000E-02 0.  1.
          2   -1    0    0  501    0  0.00000000000E+00 -0.00000000000E+00 -0.92570394762E+03  0.92570394762E+03  0.25500000000E-02 0. -1.
    8880022    1    1    2    0    0 -0.52313392732E+03 -0.48540905160E+03  0.16690606903E+03  0.74869242161E+03  0.15294330000E+03 0.  0.
    8880022    1    1    2    0    0  0.52313392732E+03  0.48540905160E+03 -0.42503065639E+03  0.84459088627E+03  0.15294330000E+03 0.  0.
<mgrwt>
<rscale>  0 0.72985115E+03</rscale>
<asrwt>0</asrwt>
<pdfrwt beam="1">  1        2 0.14241599E+00 0.72985115E+03</pdfrwt>
<pdfrwt beam="2">  1       -2 0.10270452E+00 0.72985115E+03</pdfrwt>
<totfact> 0.22225823E+01</totfact>
</mgrwt>
</event>
<event>
 4    1  0.2725183E-008  0.1034450E+04  0.7818608E-02  0.9271548E-01
          2   -1    0    0  501    0  0.00000000000E+00  0.00000000000E+00  0.24406676245E+04  0.24406676245E+04  0.25500000000E-02 0. -1.
         -2   -1    0    0    0  501 -0.00000000000E+00 -0.00000000000E+00 -0.18764121718E+04  0.18764121718E+04  0.25500000000E-02 0.  1.
    8880022    1    1    2    0    0 -0.70212325129E+03 -0.74412186075E+03 -0.16074780871E+04  0.19115626742E+04  0.15294330000E+03 0.  0.
    8880022    1    1    2    0    0  0.70212325129E+03  0.74412186075E+03  0.21717335399E+04  0.24055171221E+04  0.15294330000E+03 0.  0.
<mgrwt>
<rscale>  0 0.10344496E+04</rscale>
<asrwt>0</asrwt>
<pdfrwt beam="1">  1        2 0.37548733E+00 0.10344496E+04</pdfrwt>
<pdfrwt beam="2">  1       -2 0.28867880E+00 0.10344496E+04</pdfrwt>
<totfact> 0.14166280E-01</totfact>
</mgrwt>
</event>
<event>
 4    1  0.1726795E-008  0.8930785E+03  0.7818608E-02  0.9434275E-01
          2   -1    0    0  501    0  0.00000000000E+00  0.00000000000E+00  0.25123153362E+04  0.25123153362E+04  0.25500000000E-02 0. -1.
         -2   -1    0    0    0  501 -0.00000000000E+00 -0.00000000000E+00 -0.34176778638E+03  0.34176778639E+03  0.25500000000E-02 0.  1.
    8880022    1    1    2    0    0  0.87201486192E+03 -0.11742099313E+03  0.14657594949E+04  0.17164032623E+04  0.15294330000E+03 0.  0.
    8880022    1    1    2    0    0 -0.87201486192E+03  0.11742099313E+03  0.70478805492E+03  0.11376798602E+04  0.15294330000E+03 0.  0.
<mgrwt>
<rscale>  0 0.89307853E+03</rscale>
<asrwt>0</asrwt>
<pdfrwt beam="1">  1        2 0.38651006E+00 0.89307853E+03</pdfrwt>
<pdfrwt beam="2">  1       -2 0.52579659E-01 0.89307853E+03</pdfrwt>
<totfact> 0.11993035E+01</totfact>
</mgrwt>
</event>
<event>
 4    1  0.1726795E-008  0.2437706E+04  0.7818608E-02  0.8425520E-01
          2   -1    0    0  501    0  0.00000000000E+00  0.00000000000E+00  0.25339557604E+04  0.25339557604E+04  0.25500000000E-02 0. -1.
         -2   -1    0    0    0  501 -0.00000000000E+00 -0.00000000000E+00 -0.38234733033E+04  0.38234733033E+04  0.25500000000E-02 0.  1.
    8880022    1    1    2    0    0 -0.21484837417E+04  0.11415059660E+04 -0.26213314957E+04  0.35796352778E+04  0.15294330000E+03 0.  0.
    8880022    1    1    2    0    0  0.21484837417E+04 -0.11415059660E+04  0.13318139528E+04  0.27777937858E+04  0.15294330000E+03 0.  0.
<mgrwt>
<rscale>  0 0.24377059E+04</rscale>
<asrwt>0</asrwt>
<pdfrwt beam="1">  1        2 0.38983935E+00 0.24377059E+04</pdfrwt>
<pdfrwt beam="2">  1       -2 0.58822666E+00 0.24377059E+04</pdfrwt>
<totfact> 0.15441193E-03</totfact>
</mgrwt>
</event>
<event>
 4    1  0.1726795E-008  0.1655722E+04  0.7818608E-02  0.8787028E-01
          2   -1    0    0  501    0  0.00000000000E+00  0.00000000000E+00  0.34700241098E+04  0.34700241098E+04  0.25500000000E-02 0. -1.
         -2   -1    0    0    0  501 -0.00000000000E+00 -0.00000000000E+00 -0.15402205168E+04  0.15402205168E+04  0.25500000000E-02 0.  1.
    8880022    1    1    2    0    0 -0.11929392689E+04 -0.11379457711E+04  0.27132335155E+04  0.31785299180E+04  0.15294330000E+03 0.  0.
    8880022    1    1    2    0    0  0.11929392689E+04  0.11379457711E+04 -0.78342992242E+03  0.18317147086E+04  0.15294330000E+03 0.  0.
<mgrwt>
<rscale>  0 0.16557223E+04</rscale>
<asrwt>0</asrwt>
<pdfrwt beam="1">  1        2 0.53384986E+00 0.16557223E+04</pdfrwt>
<pdfrwt beam="2">  1       -2 0.23695700E+00 0.16557223E+04</pdfrwt>
<totfact> 0.61119868E-02</totfact>
</mgrwt>
</event>
<event>
 4    1  0.1726795E-008  0.4383082E+03  0.7818608E-02  0.1031267E+00
         -2   -1    0    0    0  501 -0.00000000000E+00  0.00000000000E+00  0.10744699825E+03  0.10744699828E+03  0.25500000000E-02 0.  1.
          2   -1    0    0  501    0  0.00000000000E+00 -0.00000000000E+00 -0.30021892690E+04  0.30021892690E+04  0.25500000000E-02 0. -1.
    8880022    1    1    2    0    0  0.27123043129E+03  0.30847437555E+03 -0.24361649549E+04  0.24752805352E+04  0.15294330000E+03 0.  0.
    8880022    1    1    2    0    0 -0.27123043129E+03 -0.30847437555E+03 -0.45857731578E+03  0.63435573206E+03  0.15294330000E+03 0.  0.
<mgrwt>
<rscale>  0 0.43830816E+03</rscale>
<asrwt>0</asrwt>
<pdfrwt beam="1">  1        2 0.46187521E+00 0.43830816E+03</pdfrwt>
<pdfrwt beam="2">  1       -2 0.16530310E-01 0.43830816E+03</pdfrwt>
<totfact> 0.57649151E+01</totfact>
</mgrwt>
</event>
<event>
 4    1  0.1726795E-008  0.1330589E+04  0.7818608E-02  0.9005653E-01
          2   -1    0    0  501    0  0.00000000000E+00  0.00000000000E+00  0.49524274142E+04  0.49524274142E+04  0.25500000000E-02 0. -1.
         -2   -1    0    0    0  501 -0.00000000000E+00 -0.00000000000E+00 -0.85918742757E+03  0.85918742757E+03  0.25500000000E-02 0.  1.
    8880022    1    1    2    0    0 -0.12534802798E+04  0.41936072266E+03  0.42670733699E+04  0.44697184502E+04  0.15294330000E+03 0.  0.
    8880022    1    1    2    0    0  0.12534802798E+04 -0.41936072266E+03 -0.17383338325E+03  0.13418963915E+04  0.15294330000E+03 0.  1.
<mgrwt>
<rscale>  0 0.13305893E+04</rscale>
<asrwt>0</asrwt>
<pdfrwt beam="1">  1        2 0.76191190E+00 0.13305893E+04</pdfrwt>
<pdfrwt beam="2">  1       -2 0.13218268E+00 0.13305893E+04</pdfrwt>
<totfact> 0.16676294E-02</totfact>
</mgrwt>
</event>
<event>
 4    1  0.1726795E-008  0.5314485E+03  0.7818608E-02  0.1005881E+00
         -2   -1    0    0    0  501 -0.00000000000E+00  0.00000000000E+00  0.53049715277E+03  0.53049715278E+03  0.25500000000E-02 0.  1.
          2   -1    0    0  501    0  0.00000000000E+00 -0.00000000000E+00 -0.25966430267E+04  0.25966430267E+04  0.25500000000E-02 0. -1.
    8880022    1    1    2    0    0  0.47275080290E+03  0.18855385316E+03  0.36101919066E+03  0.64247364633E+03  0.15294330000E+03 0.  0.
    8880022    1    1    2    0    0 -0.47275080290E+03 -0.18855385316E+03 -0.24271650646E+04  0.24846665331E+04  0.15294330000E+03 0.  0.
<mgrwt>
<rscale>  0 0.53144852E+03</rscale>
<asrwt>0</asrwt>
<pdfrwt beam="1">  1        2 0.39948354E+00 0.53144852E+03</pdfrwt>
<pdfrwt beam="2">  1       -2 0.81614948E-01 0.53144852E+03</pdfrwt>
<totfact> 0.44648048E+00</totfact>
</mgrwt>
</event>
<event>
 4    1  0.1726795E-008  0.2795368E+03  0.7818608E-02  0.1095942E+00
          2   -1    0    0  501    0  0.00000000000E+00  0.00000000000E+00  0.22801856595E+04  0.22801856595E+04  0.25500000000E-02 0. -1.
         -2   -1    0    0    0  501 -0.00000000000E+00 -0.00000000000E+00 -0.46733885092E+03  0.46733885092E+03  0.25500000000E-02 0.  1.
    8880022    1    1    2    0    0  0.58395420828E+02 -0.22658140520E+03 -0.41601168284E+03  0.50120507941E+03  0.15294330000E+03 0.  1.
    8880022    1    1    2    0    0 -0.58395420828E+02  0.22658140520E+03  0.22288584914E+04  0.22463194310E+04  0.15294330000E+03 0.  0.
<mgrwt>
<rscale>  0 0.27953678E+03</rscale>
<asrwt>0</asrwt>
<pdfrwt beam="1">  1        2 0.35079780E+00 0.27953678E+03</pdfrwt>
<pdfrwt beam="2">  1       -2 0.71898284E-01 0.27953678E+03</pdfrwt>
<totfact> 0.96267936E+00</totfact>
</mgrwt>
</event>
<event>
 4    1  0.1726795E-008  0.9958759E+03  0.7818608E-02  0.9313080E-01
         -2   -1    0    0    0  501 -0.00000000000E+00  0.00000000000E+00  0.90664460525E+03  0.90664460526E+03  0.25500000000E-02 0.  1.
          2   -1    0    0  501    0  0.00000000000E+00 -0.00000000000E+00 -0.13198395910E+04  0.13198395910E+04  0.25500000000E-02 0. -1.
    8880022    1    1    2    0    0 -0.82787926813E+03  0.53197094659E+03  0.25401478199E+03  0.10277608346E+04  0.15294330000E+03 0.  0.
    8880022    1    1    2    0    0  0.82787926813E+03 -0.53197094659E+03 -0.66720976771E+03  0.11987233616E+04  0.15294330000E+03 0.  0.
<mgrwt>
<rscale>  0 0.99587591E+03</rscale>
<asrwt>0</asrwt>
<pdfrwt beam="1">  1        2 0.20305224E+00 0.99587591E+03</pdfrwt>
<pdfrwt beam="2">  1       -2 0.13948379E+00 0.99587591E+03</pdfrwt>
<totfact> 0.57934180E+00</totfact>
</mgrwt>
</event>
<event>
 4    1  0.1726795E-008  0.1307427E+04  0.7818608E-02  0.9023696E-01
          2   -1    0    0  501    0  0.00000000000E+00  0.00000000000E+00  0.14083413680E+04  0.14083413680E+04  0.25500000000E-02 0. -1.
         -2   -1    0    0    0  501 -0.00000000000E+00 -0.00000000000E+00 -0.13622288717E+04  0.13622288717E+04  0.25500000000E-02 0.  1.
    8880022    1    1    2    0    0 -0.82310727695E+03 -0.10042253883E+04 -0.43430066280E+03  0.13776730159E+04  0.15294330000E+03 0.  0.
    8880022    1    1    2    0    0  0.82310727695E+03  0.10042253883E+04  0.48041315910E+03  0.13928972239E+04  0.15294330000E+03 0.  0.
<mgrwt>
<rscale>  0 0.13074272E+04</rscale>
<asrwt>0</asrwt>
<pdfrwt beam="1">  1        2 0.21666790E+00 0.13074272E+04</pdfrwt>
<pdfrwt beam="2">  1       -2 0.20957367E+00 0.13074272E+04</pdfrwt>
<totfact> 0.15825512E+00</totfact>
</mgrwt>
</event>
<event>
 4    1  0.1726795E-008  0.8010469E+03  0.7818608E-02  0.9558503E-01
         -2   -1    0    0    0  501 -0.00000000000E+00  0.00000000000E+00  0.47781091191E+03  0.47781091191E+03  0.25500000000E-02 0.  1.
          2   -1    0    0  501    0  0.00000000000E+00 -0.00000000000E+00 -0.41591911380E+04  0.41591911380E+04  0.25500000000E-02 0. -1.
    8880022    1    1    2    0    0  0.31112247597E+03 -0.72214082229E+03  0.67131495797E+02  0.80385499502E+03  0.15294330000E+03 0.  0.
    8880022    1    1    2    0    0 -0.31112247597E+03  0.72214082229E+03 -0.37485117219E+04  0.38331470549E+04  0.15294330000E+03 0.  0.
<mgrwt>
<rscale>  0 0.80104695E+03</rscale>
<asrwt>0</asrwt>
<pdfrwt beam="1">  1        2 0.63987554E+00 0.80104695E+03</pdfrwt>
<pdfrwt beam="2">  1       -2 0.73509374E-01 0.80104695E+03</pdfrwt>
<totfact> 0.46636095E-01</totfact>
</mgrwt>
</event>
<event>
 4    1  0.1726795E-008  0.1116941E+04  0.7818608E-02  0.9188835E-01
         -2   -1    0    0    0  501 -0.00000000000E+00  0.00000000000E+00  0.11741914572E+04  0.11741914572E+04  0.25500000000E-02 0.  1.
          2   -1    0    0  501    0  0.00000000000E+00 -0.00000000000E+00 -0.13567202045E+04  0.13567202045E+04  0.25500000000E-02 0. -1.
    8880022    1    1    2    0    0  0.10793495036E+04  0.24325030732E+03 -0.68058427402E+03  0.13079574420E+04  0.15294330000E+03 0.  0.
    8880022    1    1    2    0    0 -0.10793495036E+04 -0.24325030732E+03  0.49805552669E+03  0.12229542198E+04  0.15294330000E+03 0.  0.
<mgrwt>
<rscale>  0 0.11169412E+04</rscale>
<asrwt>0</asrwt>
<pdfrwt beam="1">  1        2 0.20872618E+00 0.11169412E+04</pdfrwt>
<pdfrwt beam="2">  1       -2 0.18064484E+00 0.11169412E+04</pdfrwt>
<totfact> 0.26925777E+00</totfact>
</mgrwt>
</event>
<event>
 4    1  0.1726795E-008  0.1054008E+04  0.7818608E-02  0.9251216E-01
          2   -1    0    0  501    0  0.00000000000E+00  0.00000000000E+00  0.12106870076E+04  0.12106870076E+04  0.25500000000E-02 0. -1.
         -2   -1    0    0    0  501 -0.00000000000E+00 -0.00000000000E+00 -0.95669802752E+03  0.95669802752E+03  0.25500000000E-02 0.  1.
    8880022    1    1    2    0    0  0.99518003695E+03  0.31170126890E+03 -0.92067699251E+02  0.10580213142E+04  0.15294330000E+03 0.  0.
    8880022    1    1    2    0    0 -0.99518003695E+03 -0.31170126890E+03  0.34605667930E+03  0.11093637209E+04  0.15294330000E+03 0.  0.
<mgrwt>
<rscale>  0 0.10540079E+04</rscale>
<asrwt>0</asrwt>
<pdfrwt beam="1">  1        2 0.18625954E+00 0.10540079E+04</pdfrwt>
<pdfrwt beam="2">  1       -2 0.14718431E+00 0.10540079E+04</pdfrwt>
<totfact> 0.57981950E+00</totfact>
</mgrwt>
</event>
<event>
 4    1  0.1726795E-008  0.6412670E+03  0.7818608E-02  0.9823305E-01
          2   -1    0    0  501    0  0.00000000000E+00  0.00000000000E+00  0.14440320760E+04  0.14440320760E+04  0.25500000000E-02 0. -1.
         -2   -1    0    0    0  501 -0.00000000000E+00 -0.00000000000E+00 -0.65238129639E+03  0.65238129640E+03  0.25500000000E-02 0.  1.
    8880022    1    1    2    0    0  0.53236893182E+03 -0.32313313187E+03  0.11826682456E+04  0.13453354721E+04  0.15294330000E+03 0.  0.
    8880022    1    1    2    0    0 -0.53236893182E+03  0.32313313187E+03 -0.39101746600E+03  0.75107790023E+03  0.15294330000E+03 0.  0.
<mgrwt>
<rscale>  0 0.64126699E+03</rscale>
<asrwt>0</asrwt>
<pdfrwt beam="1">  1        2 0.22215878E+00 0.64126699E+03</pdfrwt>
<pdfrwt beam="2">  1       -2 0.10036636E+00 0.64126699E+03</pdfrwt>
<totfact> 0.11624475E+01</totfact>
</mgrwt>
</event>
<event>
 4    1  0.1726795E-008  0.8049517E+03  0.7818608E-02  0.9552877E-01
          2   -1    0    0  501    0  0.00000000000E+00  0.00000000000E+00  0.20726923697E+04  0.20726923697E+04  0.25500000000E-02 0. -1.
         -2   -1    0    0    0  501 -0.00000000000E+00 -0.00000000000E+00 -0.35997741325E+03  0.35997741326E+03  0.25500000000E-02 0.  1.
    8880022    1    1    2    0    0 -0.72770857574E+03  0.30821391781E+03  0.41514376759E+03  0.90569950377E+03  0.15294330000E+03 0.  1.
    8880022    1    1    2    0    0  0.72770857574E+03 -0.30821391781E+03  0.12975711888E+04  0.15269702792E+04  0.15294330000E+03 0. -1.
<mgrwt>
<rscale>  0 0.80495170E+03</rscale>
<asrwt>0</asrwt>
<pdfrwt beam="1">  1        2 0.31887575E+00 0.80495170E+03</pdfrwt>
<pdfrwt beam="2">  1       -2 0.55381139E-01 0.80495170E+03</pdfrwt>
<totfact> 0.19174085E+01</totfact>
</mgrwt>
</event>
<event>
 4    1  0.1726795E-008  0.4302658E+03  0.7818608E-02  0.1033776E+00
          2   -1    0    0  501    0  0.00000000000E+00  0.00000000000E+00  0.10355947316E+04  0.10355947316E+04  0.25500000000E-02 0. -1.
         -2   -1    0    0    0  501 -0.00000000000E+00 -0.00000000000E+00 -0.18613693503E+03  0.18613693505E+03  0.25500000000E-02 0.  1.
    8880022    1    1    2    0    0  0.16239353883E+03  0.36792028644E+03  0.30316506326E+03  0.52634371586E+03  0.15294330000E+03 0.  0.
    8880022    1    1    2    0    0 -0.16239353883E+03 -0.36792028644E+03  0.54629273326E+03  0.69538795075E+03  0.15294330000E+03 0.  0.
<mgrwt>
<rscale>  0 0.43026579E+03</rscale>
<asrwt>0</asrwt>
<pdfrwt beam="1">  1        2 0.15932227E+00 0.43026579E+03</pdfrwt>
<pdfrwt beam="2">  1       -2 0.28636451E-01 0.43026579E+03</pdfrwt>
<totfact> 0.27548294E+02</totfact>
</mgrwt>
</event>
<event>
 4    1  0.1726795E-008  0.6276974E+03  0.7818608E-02  0.9849552E-01
          2   -1    0    0  501    0  0.00000000000E+00  0.00000000000E+00  0.24395950274E+04  0.24395950274E+04  0.25500000000E-02 0. -1.
         -2   -1    0    0    0  501 -0.00000000000E+00 -0.00000000000E+00 -0.50344991801E+03  0.50344991802E+03  0.25500000000E-02 0.  1.
    8880022    1    1    2    0    0  0.23280895316E+03  0.56250547317E+03 -0.24466701483E+03  0.67369578979E+03  0.15294330000E+03 0.  0.
    8880022    1    1    2    0    0 -0.23280895316E+03 -0.56250547317E+03  0.21808121242E+04  0.22693491557E+04  0.15294330000E+03 0.  0.
<mgrwt>
<rscale>  0 0.62769743E+03</rscale>
<asrwt>0</asrwt>
<pdfrwt beam="1">  1        2 0.37532232E+00 0.62769743E+03</pdfrwt>
<pdfrwt beam="2">  1       -2 0.77453833E-01 0.62769743E+03</pdfrwt>
<totfact> 0.60150341E+00</totfact>
</mgrwt>
</event>
<event>
 4    1  0.1726795E-008  0.5509450E+03  0.7818608E-02  0.1001275E+00
          2   -1    0    0  501    0  0.00000000000E+00  0.00000000000E+00  0.29871249141E+04  0.29871249141E+04  0.25500000000E-02 0. -1.
         -2   -1    0    0    0  501 -0.00000000000E+00 -0.00000000000E+00 -0.11854586340E+03  0.11854586343E+03  0.25500000000E-02 0.  1.
    8880022    1    1    2    0    0  0.51521346977E+03  0.12125938706E+03  0.20211107686E+04  0.20948577877E+04  0.15294330000E+03 0.  0.
    8880022    1    1    2    0    0 -0.51521346977E+03 -0.12125938706E+03  0.84746828207E+03  0.10108129899E+04  0.15294330000E+03 0.  0.
<mgrwt>
<rscale>  0 0.55094502E+03</rscale>
<asrwt>0</asrwt>
<pdfrwt beam="1">  1        2 0.45955767E+00 0.55094502E+03</pdfrwt>
<pdfrwt beam="2">  1       -2 0.18237825E-01 0.55094502E+03</pdfrwt>
<totfact> 0.48542152E+01</totfact>
</mgrwt>
</event>
<event>
 4    1  0.1726795E-008  0.8381337E+03  0.7818608E-02  0.9506403E-01
          2   -1    0    0  501    0  0.00000000000E+00  0.00000000000E+00  0.11574748357E+04  0.11574748357E+04  0.25500000000E-02 0. -1.
         -2   -1    0    0    0  501 -0.00000000000E+00 -0.00000000000E+00 -0.19586359152E+04  0.19586359152E+04  0.25500000000E-02 0.  1.
    8880022    1    1    2    0    0  0.60086184413E+03  0.56395171646E+03 -0.16949326046E+04  0.18908370320E+04  0.15294330000E+03 0.  0.
    8880022    1    1    2    0    0 -0.60086184413E+03 -0.56395171646E+03  0.89377152513E+03  0.12252737190E+04  0.15294330000E+03 0.  0.
<mgrwt>
<rscale>  0 0.83813373E+03</rscale>
<asrwt>0</asrwt>
<pdfrwt beam="1">  1        2 0.17807305E+00 0.83813373E+03</pdfrwt>
<pdfrwt beam="2">  1       -2 0.30132860E+00 0.83813373E+03</pdfrwt>
<totfact> 0.64636312E-01</totfact>
</mgrwt>
</event>
<event>
 4    1  0.1726795E-008  0.1127858E+04  0.7818608E-02  0.9178457E-01
         -2   -1    0    0    0  501 -0.00000000000E+00  0.00000000000E+00  0.11031306056E+04  0.11031306056E+04  0.25500000000E-02 0.  1.
          2   -1    0    0  501    0  0.00000000000E+00 -0.00000000000E+00 -0.13846049777E+04  0.13846049777E+04  0.25500000000E-02 0. -1.
    8880022    1    1    2    0    0 -0.10965991200E+04  0.21480742358E+03 -0.64931142718E+03  0.13014103280E+04  0.15294330000E+03 0.  0.
    8880022    1    1    2    0    0  0.10965991200E+04 -0.21480742358E+03  0.36783705512E+03  0.11863252553E+04  0.15294330000E+03 0.  0.
<mgrwt>
<rscale>  0 0.11278579E+04</rscale>
<asrwt>0</asrwt>
<pdfrwt beam="1">  1        2 0.21301615E+00 0.11278579E+04</pdfrwt>
<pdfrwt beam="2">  1       -2 0.16971240E+00 0.11278579E+04</pdfrwt>
<totfact> 0.30930717E+00</totfact>
</mgrwt>
</event>
<event>
 4    1  0.1726795E-008  0.9007211E+03  0.7818608E-02  0.9424680E-01
          2   -1    0    0  501    0  0.00000000000E+00  0.00000000000E+00  0.35423479485E+04  0.35423479485E+04  0.25500000000E-02 0. -1.
         -2   -1    0    0    0  501 -0.00000000000E+00 -0.00000000000E+00 -0.40663864718E+03  0.40663864719E+03  0.25500000000E-02 0.  1.
    8880022    1    1    2    0    0  0.80584083449E+03 -0.37219270209E+03  0.26293050075E+03  0.93831282591E+03  0.15294330000E+03 0.  0.
    8880022    1    1    2    0    0 -0.80584083449E+03  0.37219270209E+03  0.28727788006E+04  0.30106737698E+04  0.15294330000E+03 0.  0.
<mgrwt>
<rscale>  0 0.90072111E+03</rscale>
<asrwt>0</asrwt>
<pdfrwt beam="1">  1        2 0.54497660E+00 0.90072111E+03</pdfrwt>
<pdfrwt beam="2">  1       -2 0.62559792E-01 0.90072111E+03</pdfrwt>
<totfact> 0.18997202E+00</totfact>
</mgrwt>
</event>
<event>
 4    1  0.1726795E-008  0.8508331E+03  0.7818608E-02  0.9489219E-01
         -2   -1    0    0    0  501 -0.00000000000E+00  0.00000000000E+00  0.90074100395E+03  0.90074100395E+03  0.25500000000E-02 0.  1.
          2   -1    0    0  501    0  0.00000000000E+00 -0.00000000000E+00 -0.18341774179E+04  0.18341774179E+04  0.25500000000E-02 0. -1.
    8880022    1    1    2    0    0  0.72944021932E+03  0.41041726378E+03 -0.14916971523E+04  0.17172878067E+04  0.15294330000E+03 0.  0.
    8880022    1    1    2    0    0 -0.72944021932E+03 -0.41041726378E+03  0.55826073829E+03  0.10176306152E+04  0.15294330000E+03 0.  0.
<mgrwt>
<rscale>  0 0.85083313E+03</rscale>
<asrwt>0</asrwt>
<pdfrwt beam="1">  1        2 0.28218114E+00 0.85083313E+03</pdfrwt>
<pdfrwt beam="2">  1       -2 0.13857554E+00 0.85083313E+03</pdfrwt>
<totfact> 0.30971090E+00</totfact>
</mgrwt>
</event>
<event>
 4    1  0.1726795E-008  0.3688728E+03  0.7818608E-02  0.1055125E+00
          2   -1    0    0  501    0  0.00000000000E+00  0.00000000000E+00  0.24034305124E+04  0.24034305124E+04  0.25500000000E-02 0. -1.
         -2   -1    0    0    0  501 -0.00000000000E+00 -0.00000000000E+00 -0.15803179663E+03  0.15803179665E+03  0.25500000000E-02 0.  1.
    8880022    1    1    2    0    0  0.32107181005E+03  0.97920115939E+02  0.21486901178E+04  0.21801230084E+04  0.15294330000E+03 0.  0.
    8880022    1    1    2    0    0 -0.32107181005E+03 -0.97920115939E+02  0.96708597976E+02  0.38133930069E+03  0.15294330000E+03 0.  0.
<mgrwt>
<rscale>  0 0.36887275E+03</rscale>
<asrwt>0</asrwt>
<pdfrwt beam="1">  1        2 0.36975852E+00 0.36887275E+03</pdfrwt>
<pdfrwt beam="2">  1       -2 0.24312586E-01 0.36887275E+03</pdfrwt>
<totfact> 0.66229225E+01</totfact>
</mgrwt>
</event>
<event>
 4    1  0.1726795E-008  0.9849525E+03  0.7818608E-02  0.9325204E-01
          2   -1    0    0  501    0  0.00000000000E+00  0.00000000000E+00  0.18694349833E+04  0.18694349833E+04  0.25500000000E-02 0. -1.
         -2   -1    0    0    0  501 -0.00000000000E+00 -0.00000000000E+00 -0.81248225552E+03  0.81248225553E+03  0.25500000000E-02 0.  1.
    8880022    1    1    2    0    0  0.20243897460E+03 -0.95171336268E+03 -0.27753470614E+03  0.10233069086E+04  0.15294330000E+03 0.  0.
    8880022    1    1    2    0    0 -0.20243897460E+03  0.95171336268E+03  0.13344874340E+04  0.16586103302E+04  0.15294330000E+03 0.  0.
<mgrwt>
<rscale>  0 0.98495255E+03</rscale>
<asrwt>0</asrwt>
<pdfrwt beam="1">  1        2 0.28760538E+00 0.98495255E+03</pdfrwt>
<pdfrwt beam="2">  1       -2 0.12499727E+00 0.98495255E+03</pdfrwt>
<totfact> 0.37823975E+00</totfact>
</mgrwt>
</event>
<event>
 4    1  0.2513616E-008  0.1733491E+04  0.7818608E-02  0.8742490E-01
         -2   -1    0    0    0  501 -0.00000000000E+00  0.00000000000E+00  0.20007745832E+04  0.20007745832E+04  0.25500000000E-02 0.  1.
          2   -1    0    0  501    0  0.00000000000E+00 -0.00000000000E+00 -0.21221963867E+04  0.21221963867E+04  0.25500000000E-02 0. -1.
    8880022    1    1    2    0    0  0.14161084434E+04  0.98804704692E+03  0.10537944365E+04  0.20286632194E+04  0.15294330000E+03 0.  0.
    8880022    1    1    2    0    0 -0.14161084434E+04 -0.98804704692E+03 -0.11752162400E+04  0.20943077506E+04  0.15294330000E+03 0.  0.
<mgrwt>
<rscale>  0 0.17334912E+04</rscale>
<asrwt>0</asrwt>
<pdfrwt beam="1">  1        2 0.32649175E+00 0.17334912E+04</pdfrwt>
<pdfrwt beam="2">  1       -2 0.30781147E+00 0.17334912E+04</pdfrwt>
<totfact> 0.14839995E-01</totfact>
</mgrwt>
</event>
<event>
 4    1  0.1726795E-008  0.7885502E+03  0.7818608E-02  0.9576740E-01
         -2   -1    0    0    0  501 -0.00000000000E+00  0.00000000000E+00  0.33295986256E+03  0.33295986257E+03  0.25500000000E-02 0.  1.
          2   -1    0    0  501    0  0.00000000000E+00 -0.00000000000E+00 -0.27431060149E+04  0.27431060149E+04  0.25500000000E-02 0. -1.
    8880022    1    1    2    0    0  0.12183852193E+03 -0.76392088397E+03 -0.33612842337E+03  0.85720109216E+03  0.15294330000E+03 0.  0.
    8880022    1    1    2    0    0 -0.12183852193E+03  0.76392088397E+03 -0.20740177289E+04  0.22188647853E+04  0.15294330000E+03 0.  0.
<mgrwt>
<rscale>  0 0.78855019E+03</rscale>
<asrwt>0</asrwt>
<pdfrwt beam="1">  1        2 0.42201629E+00 0.78855019E+03</pdfrwt>
<pdfrwt beam="2">  1       -2 0.51224596E-01 0.78855019E+03</pdfrwt>
<totfact> 0.94524633E+00</totfact>
</mgrwt>
</event>
<event>
 4    1  0.1726795E-008  0.1547470E+04  0.7818608E-02  0.8853486E-01
          2   -1    0    0  501    0  0.00000000000E+00  0.00000000000E+00  0.19463914669E+04  0.19463914669E+04  0.25500000000E-02 0. -1.
         -2   -1    0    0    0  501 -0.00000000000E+00 -0.00000000000E+00 -0.12715213239E+04  0.12715213239E+04  0.25500000000E-02 0.  1.
    8880022    1    1    2    0    0 -0.94653423252E+03 -0.12146371633E+04  0.47768650357E+02  0.15482067009E+04  0.15294330000E+03 0.  0.
    8880022    1    1    2    0    0  0.94653423252E+03  0.12146371633E+04  0.62710149263E+03  0.16697060899E+04  0.15294330000E+03 0.  0.
<mgrwt>
<rscale>  0 0.15474696E+04</rscale>
<asrwt>0</asrwt>
<pdfrwt beam="1">  1        2 0.29944484E+00 0.15474696E+04</pdfrwt>
<pdfrwt beam="2">  1       -2 0.19561866E+00 0.15474696E+04</pdfrwt>
<totfact> 0.95183386E-01</totfact>
</mgrwt>
</event>
<event>
 4    1  0.1726795E-008  0.7889725E+03  0.7818608E-02  0.9576118E-01
         -2   -1    0    0    0  501 -0.00000000000E+00  0.00000000000E+00  0.19037847358E+04  0.19037847358E+04  0.25500000000E-02 0.  1.
          2   -1    0    0  501    0  0.00000000000E+00 -0.00000000000E+00 -0.14161361760E+04  0.14161361760E+04  0.25500000000E-02 0. -1.
    8880022    1    1    2    0    0  0.51013566083E+03 -0.58210611230E+03 -0.12119452086E+04  0.14461288878E+04  0.15294330000E+03 0.  0.
    8880022    1    1    2    0    0 -0.51013566083E+03  0.58210611230E+03  0.16995937684E+04  0.18737920239E+04  0.15294330000E+03 0.  0.
<mgrwt>
<rscale>  0 0.78897248E+03</rscale>
<asrwt>0</asrwt>
<pdfrwt beam="1">  1        2 0.21786710E+00 0.78897248E+03</pdfrwt>
<pdfrwt beam="2">  1       -2 0.29288996E+00 0.78897248E+03</pdfrwt>
<totfact> 0.51894845E-01</totfact>
</mgrwt>
</event>
<event>
 4    1  0.1726795E-008  0.8349668E+03  0.7818608E-02  0.9510739E-01
          2   -1    0    0  501    0  0.00000000000E+00  0.00000000000E+00  0.15552912179E+04  0.15552912179E+04  0.25500000000E-02 0. -1.
         -2   -1    0    0    0  501 -0.00000000000E+00 -0.00000000000E+00 -0.17194238020E+04  0.17194238020E+04  0.25500000000E-02 0.  1.
    8880022    1    1    2    0    0 -0.27673528496E+03 -0.77278419430E+03  0.13257740186E+04  0.15667948909E+04  0.15294330000E+03 0.  0.
    8880022    1    1    2    0    0  0.27673528496E+03  0.77278419430E+03 -0.14899066027E+04  0.17079201289E+04  0.15294330000E+03 0.  1.
<mgrwt>
<rscale>  0 0.83496675E+03</rscale>
<asrwt>0</asrwt>
<pdfrwt beam="1">  1        2 0.23927557E+00 0.83496675E+03</pdfrwt>
<pdfrwt beam="2">  1       -2 0.26452674E+00 0.83496675E+03</pdfrwt>
<totfact> 0.63656980E-01</totfact>
</mgrwt>
</event>
<event>
 4    1  0.1726795E-008  0.9696795E+03  0.7818608E-02  0.9342439E-01
         -2   -1    0    0    0  501 -0.00000000000E+00  0.00000000000E+00  0.54491769764E+03  0.54491769764E+03  0.25500000000E-02 0.  1.
          2   -1    0    0  501    0  0.00000000000E+00 -0.00000000000E+00 -0.25478957793E+04  0.25478957793E+04  0.25500000000E-02 0. -1.
    8880022    1    1    2    0    0  0.34831143814E+01  0.95753566404E+03 -0.12294756383E+03  0.97744280471E+03  0.15294330000E+03 0.  0.
    8880022    1    1    2    0    0 -0.34831143814E+01 -0.95753566404E+03 -0.18800305179E+04  0.21153706723E+04  0.15294330000E+03 0.  0.
<mgrwt>
<rscale>  0 0.96967950E+03</rscale>
<asrwt>0</asrwt>
<pdfrwt beam="1">  1        2 0.39198396E+00 0.96967950E+03</pdfrwt>
<pdfrwt beam="2">  1       -2 0.83833494E-01 0.96967950E+03</pdfrwt>
<totfact> 0.41208499E+00</totfact>
</mgrwt>
</event>
<event>
 4    1  0.1726795E-008  0.3100074E+03  0.7818608E-02  0.1080342E+00
         -2   -1    0    0    0  501 -0.00000000000E+00  0.00000000000E+00  0.29479636386E+03  0.29479636387E+03  0.25500000000E-02 0.  1.
          2   -1    0    0  501    0  0.00000000000E+00 -0.00000000000E+00 -0.69460978407E+03  0.69460978407E+03  0.25500000000E-02 0. -1.
    8880022    1    1    2    0    0 -0.24562978696E+03 -0.11126080928E+03  0.16046906968E+03  0.34907726260E+03  0.15294330000E+03 0.  0.
    8880022    1    1    2    0    0  0.24562978696E+03  0.11126080928E+03 -0.56028248988E+03  0.64032888535E+03  0.15294330000E+03 0. -1.
<mgrwt>
<rscale>  0 0.31000744E+03</rscale>
<asrwt>0</asrwt>
<pdfrwt beam="1">  1        2 0.10686304E+00 0.31000744E+03</pdfrwt>
<pdfrwt beam="2">  1       -2 0.45353287E-01 0.31000744E+03</pdfrwt>
<totfact> 0.19859530E+02</totfact>
</mgrwt>
</event>
<event>
 4    1  0.1726795E-008  0.7595474E+03  0.7818608E-02  0.9620490E-01
         -2   -1    0    0    0  501 -0.00000000000E+00  0.00000000000E+00  0.19391377160E+03  0.19391377162E+03  0.25500000000E-02 0.  1.
          2   -1    0    0  501    0  0.00000000000E+00 -0.00000000000E+00 -0.32961512435E+04  0.32961512435E+04  0.25500000000E-02 0. -1.
    8880022    1    1    2    0    0  0.72456192277E+03 -0.16891031248E+03 -0.20957329872E+04  0.22291274257E+04  0.15294330000E+03 0.  0.
    8880022    1    1    2    0    0 -0.72456192277E+03  0.16891031248E+03 -0.10065044848E+04  0.12609375895E+04  0.15294330000E+03 0.  0.
<mgrwt>
<rscale>  0 0.75954745E+03</rscale>
<asrwt>0</asrwt>
<pdfrwt beam="1">  1        2 0.50710015E+00 0.75954745E+03</pdfrwt>
<pdfrwt beam="2">  1       -2 0.29832891E-01 0.75954745E+03</pdfrwt>
<totfact> 0.12413950E+01</totfact>
</mgrwt>
</event>
<event>
 4    1  0.1726795E-008  0.1162035E+04  0.7818608E-02  0.9146752E-01
         -2   -1    0    0    0  501 -0.00000000000E+00  0.00000000000E+00  0.74394856972E+03  0.74394856972E+03  0.25500000000E-02 0.  1.
          2   -1    0    0  501    0  0.00000000000E+00 -0.00000000000E+00 -0.26470812572E+04  0.26470812572E+04  0.25500000000E-02 0. -1.
    8880022    1    1    2    0    0 -0.27298456154E+03 -0.11191123766E+04 -0.19021283950E+04  0.22289946537E+04  0.15294330000E+03 0.  0.
    8880022    1    1    2    0    0  0.27298456154E+03  0.11191123766E+04 -0.10042924964E+01  0.11620351732E+04  0.15294330000E+03 0.  0.
<mgrwt>
<rscale>  0 0.11620347E+04</rscale>
<asrwt>0</asrwt>
<pdfrwt beam="1">  1        2 0.40724326E+00 0.11620347E+04</pdfrwt>
<pdfrwt beam="2">  1       -2 0.11445363E+00 0.11620347E+04</pdfrwt>
<totfact> 0.16826090E+00</totfact>
</mgrwt>
</event>
<event>
 4    1  0.1726795E-008  0.1095888E+04  0.7818608E-02  0.9209209E-01
          2   -1    0    0  501    0  0.00000000000E+00  0.00000000000E+00  0.15500160081E+04  0.15500160081E+04  0.25500000000E-02 0. -1.
         -2   -1    0    0    0  501 -0.00000000000E+00 -0.00000000000E+00 -0.90210221340E+03  0.90210221341E+03  0.25500000000E-02 0.  1.
    8880022    1    1    2    0    0  0.10769924882E+04  0.13290978779E+03  0.78451318279E+03  0.13477501320E+04  0.15294330000E+03 0.  0.
    8880022    1    1    2    0    0 -0.10769924882E+04 -0.13290978779E+03 -0.13659938813E+03  0.11043680895E+04  0.15294330000E+03 0.  0.
<mgrwt>
<rscale>  0 0.10958875E+04</rscale>
<asrwt>0</asrwt>
<pdfrwt beam="1">  1        2 0.23846400E+00 0.10958875E+04</pdfrwt>
<pdfrwt beam="2">  1       -2 0.13878496E+00 0.10958875E+04</pdfrwt>
<totfact> 0.42963527E+00</totfact>
</mgrwt>
</event>
<event>
 4    1  0.1726795E-008  0.6826865E+03  0.7818608E-02  0.9747307E-01
          2   -1    0    0  501    0  0.00000000000E+00  0.00000000000E+00  0.11148122232E+04  0.11148122232E+04  0.25500000000E-02 0. -1.
         -2   -1    0    0    0  501 -0.00000000000E+00 -0.00000000000E+00 -0.25353016880E+04  0.25353016880E+04  0.25500000000E-02 0.  1.
    8880022    1    1    2    0    0 -0.60133572448E+03  0.28471840001E+03  0.95756533106E+03  0.11760069035E+04  0.15294330000E+03 0.  0.
    8880022    1    1    2    0    0  0.60133572448E+03 -0.28471840001E+03 -0.23780547958E+04  0.24741070078E+04  0.15294330000E+03 0.  0.
<mgrwt>
<rscale>  0 0.68268651E+03</rscale>
<asrwt>0</asrwt>
<pdfrwt beam="1">  1        2 0.17150957E+00 0.68268651E+03</pdfrwt>
<pdfrwt beam="2">  1       -2 0.39004641E+00 0.68268651E+03</pdfrwt>
<totfact> 0.19987477E-01</totfact>
</mgrwt>
</event>
<event>
 4    1  0.1726795E-008  0.3323627E+03  0.7818608E-02  0.1070096E+00
         -2   -1    0    0    0  501 -0.00000000000E+00  0.00000000000E+00  0.42487368031E+03  0.42487368031E+03  0.25500000000E-02 0.  1.
          2   -1    0    0  501    0  0.00000000000E+00 -0.00000000000E+00 -0.25310832475E+04  0.25310832475E+04  0.25500000000E-02 0. -1.
    8880022    1    1    2    0    0 -0.30671807340E+02 -0.29348346365E+03  0.34690771642E+03  0.48042681017E+03  0.15294330000E+03 0.  1.
    8880022    1    1    2    0    0  0.30671807340E+02  0.29348346365E+03 -0.24531172836E+04  0.24755301177E+04  0.15294330000E+03 0.  0.
<mgrwt>
<rscale>  0 0.33236269E+03</rscale>
<asrwt>0</asrwt>
<pdfrwt beam="1">  1        2 0.38939741E+00 0.33236269E+03</pdfrwt>
<pdfrwt beam="2">  1       -2 0.65365183E-01 0.33236269E+03</pdfrwt>
<totfact> 0.84246755E+00</totfact>
</mgrwt>
</event>
<event>
 4    1  0.1726795E-008  0.9843880E+03  0.7818608E-02  0.9325835E-01
         -2   -1    0    0    0  501 -0.00000000000E+00  0.00000000000E+00  0.23629838641E+04  0.23629838641E+04  0.25500000000E-02 0.  1.
          2   -1    0    0  501    0  0.00000000000E+00 -0.00000000000E+00 -0.86480411274E+03  0.86480411274E+03  0.25500000000E-02 0. -1.
    8880022    1    1    2    0    0 -0.33605281765E+03  0.91252215026E+03  0.19193667610E+04  0.21570787161E+04  0.15294330000E+03 0.  0.
    8880022    1    1    2    0    0  0.33605281765E+03 -0.91252215026E+03 -0.42118700967E+03  0.10707092608E+04  0.15294330000E+03 0.  0.
<mgrwt>
<rscale>  0 0.98438805E+03</rscale>
<asrwt>0</asrwt>
<pdfrwt beam="1">  1        2 0.13304679E+00 0.98438805E+03</pdfrwt>
<pdfrwt beam="2">  1       -2 0.36353597E+00 0.98438805E+03</pdfrwt>
<totfact> 0.40211355E-01</totfact>
</mgrwt>
</event>
<event>
 4    1  0.1726795E-008  0.4712903E+03  0.7818608E-02  0.1021557E+00
          2   -1    0    0  501    0  0.00000000000E+00  0.00000000000E+00  0.26351621840E+04  0.26351621840E+04  0.25500000000E-02 0. -1.
         -2   -1    0    0    0  501 -0.00000000000E+00 -0.00000000000E+00 -0.61062415548E+03  0.61062415549E+03  0.25500000000E-02 0.  1.
    8880022    1    1    2    0    0  0.88078169473E+02 -0.43699552852E+03  0.25189948583E+04  0.25627035734E+04  0.15294330000E+03 0.  0.
    8880022    1    1    2    0    0 -0.88078169473E+02  0.43699552852E+03 -0.49445682975E+03  0.68308276614E+03  0.15294330000E+03 0.  0.
<mgrwt>
<rscale>  0 0.47129026E+03</rscale>
<asrwt>0</asrwt>
<pdfrwt beam="1">  1        2 0.40540957E+00 0.47129026E+03</pdfrwt>
<pdfrwt beam="2">  1       -2 0.93942178E-01 0.47129026E+03</pdfrwt>
<totfact> 0.31351693E+00</totfact>
</mgrwt>
</event>
<event>
 4    1  0.1726795E-008  0.8476866E+03  0.7818608E-02  0.9493447E-01
         -2   -1    0    0    0  501 -0.00000000000E+00  0.00000000000E+00  0.12650624624E+04  0.12650624625E+04  0.25500000000E-02 0.  1.
          2   -1    0    0  501    0  0.00000000000E+00 -0.00000000000E+00 -0.15510256190E+04  0.15510256190E+04  0.25500000000E-02 0. -1.
    8880022    1    1    2    0    0  0.83148174582E+03  0.61798653402E+02 -0.12639314153E+04  0.15218722820E+04  0.15294330000E+03 0.  1.
    8880022    1    1    2    0    0 -0.83148174582E+03 -0.61798653402E+02  0.97796825879E+03  0.12942157994E+04  0.15294330000E+03 0.  1.
<mgrwt>
<rscale>  0 0.84768663E+03</rscale>
<asrwt>0</asrwt>
<pdfrwt beam="1">  1        2 0.23861933E+00 0.84768663E+03</pdfrwt>
<pdfrwt beam="2">  1       -2 0.19462499E+00 0.84768663E+03</pdfrwt>
<totfact> 0.17418677E+00</totfact>
</mgrwt>
</event>
<event>
 4    1  0.1818245E-008  0.8024398E+03  0.7818608E-02  0.9556492E-01
         -2   -1    0    0    0  501 -0.00000000000E+00  0.00000000000E+00  0.25083785818E+04  0.25083785818E+04  0.25500000000E-02 0.  1.
          2   -1    0    0  501    0  0.00000000000E+00 -0.00000000000E+00 -0.13372212663E+04  0.13372212663E+04  0.25500000000E-02 0. -1.
    8880022    1    1    2    0    0  0.78767525769E+03  0.92569864966E+01 -0.11428378574E+04  0.13964197165E+04  0.15294330000E+03 0.  0.
    8880022    1    1    2    0    0 -0.78767525769E+03 -0.92569864966E+01  0.23139951729E+04  0.24491801315E+04  0.15294330000E+03 0.  0.
<mgrwt>
<rscale>  0 0.80243981E+03</rscale>
<asrwt>0</asrwt>
<pdfrwt beam="1">  1        2 0.20572635E+00 0.80243981E+03</pdfrwt>
<pdfrwt beam="2">  1       -2 0.38590439E+00 0.80243981E+03</pdfrwt>
<totfact> 0.15264876E-01</totfact>
</mgrwt>
</event>
<event>
 4    1  0.1726795E-008  0.9153502E+03  0.7818608E-02  0.9406594E-01
          2   -1    0    0  501    0  0.00000000000E+00  0.00000000000E+00  0.24774573487E+04  0.24774573487E+04  0.25500000000E-02 0. -1.
         -2   -1    0    0    0  501 -0.00000000000E+00 -0.00000000000E+00 -0.40434754213E+03  0.40434754214E+03  0.25500000000E-02 0.  1.
    8880022    1    1    2    0    0 -0.61991632420E+03 -0.65587957129E+03  0.45374423311E+03  0.10216407114E+04  0.15294330000E+03 0.  0.
    8880022    1    1    2    0    0  0.61991632420E+03  0.65587957129E+03  0.16193655735E+04  0.18601641795E+04  0.15294330000E+03 0.  0.
<mgrwt>
<rscale>  0 0.91535016E+03</rscale>
<asrwt>0</asrwt>
<pdfrwt beam="1">  1        2 0.38114727E+00 0.91535016E+03</pdfrwt>
<pdfrwt beam="2">  1       -2 0.62207316E-01 0.91535016E+03</pdfrwt>
<totfact> 0.87970362E+00</totfact>
</mgrwt>
</event>
<event>
 4    1  0.3958172E-008  0.1277684E+04  0.7818608E-02  0.9047451E-01
         -2   -1    0    0    0  501 -0.00000000000E+00  0.00000000000E+00  0.20965762726E+04  0.20965762726E+04  0.25500000000E-02 0.  1.
          2   -1    0    0  501    0  0.00000000000E+00 -0.00000000000E+00 -0.16943976977E+04  0.16943976977E+04  0.25500000000E-02 0. -1.
    8880022    1    1    2    0    0 -0.11426125412E+04 -0.55092847302E+03 -0.11923996349E+04  0.17476538971E+04  0.15294330000E+03 0.  0.
    8880022    1    1    2    0    0  0.11426125412E+04  0.55092847302E+03  0.15945782097E+04  0.20433200732E+04  0.15294330000E+03 0.  0.
<mgrwt>
<rscale>  0 0.12776843E+04</rscale>
<asrwt>0</asrwt>
<pdfrwt beam="1">  1        2 0.26067657E+00 0.12776843E+04</pdfrwt>
<pdfrwt beam="2">  1       -2 0.32255020E+00 0.12776843E+04</pdfrwt>
<totfact> 0.22052378E-01</totfact>
</mgrwt>
</event>
<event>
 4    1  0.1726795E-008  0.3395387E+03  0.7818608E-02  0.1066993E+00
         -2   -1    0    0    0  501 -0.00000000000E+00  0.00000000000E+00  0.16828783265E+04  0.16828783265E+04  0.25500000000E-02 0.  1.
          2   -1    0    0  501    0  0.00000000000E+00 -0.00000000000E+00 -0.22087201684E+03  0.22087201685E+03  0.25500000000E-02 0. -1.
    8880022    1    1    2    0    0 -0.15654182193E+03  0.25959489137E+03  0.15215986790E+04  0.15590218224E+04  0.15294330000E+03 0.  0.
    8880022    1    1    2    0    0  0.15654182193E+03 -0.25959489137E+03 -0.59592369408E+02  0.34472852093E+03  0.15294330000E+03 0.  0.
<mgrwt>
<rscale>  0 0.33953866E+03</rscale>
<asrwt>0</asrwt>
<pdfrwt beam="1">  1        2 0.33980310E-01 0.33953866E+03</pdfrwt>
<pdfrwt beam="2">  1       -2 0.25890436E+00 0.33953866E+03</pdfrwt>
<totfact> 0.96021969E+00</totfact>
</mgrwt>
</event>
<event>
 4    1  0.1726795E-008  0.1345410E+04  0.7818608E-02  0.8994310E-01
          2   -1    0    0  501    0  0.00000000000E+00  0.00000000000E+00  0.32146660720E+04  0.32146660720E+04  0.25500000000E-02 0. -1.
         -2   -1    0    0    0  501 -0.00000000000E+00 -0.00000000000E+00 -0.13390297143E+04  0.13390297143E+04  0.25500000000E-02 0.  1.
    8880022    1    1    2    0    0 -0.12703594954E+04  0.41584105628E+03 -0.79540479225E+03  0.15629451264E+04  0.15294330000E+03 0.  0.
    8880022    1    1    2    0    0  0.12703594954E+04 -0.41584105628E+03  0.26710411500E+04  0.29907506599E+04  0.15294330000E+03 0.  0.
<mgrwt>
<rscale>  0 0.13454102E+04</rscale>
<asrwt>0</asrwt>
<pdfrwt beam="1">  1        2 0.49456401E+00 0.13454102E+04</pdfrwt>
<pdfrwt beam="2">  1       -2 0.20600457E+00 0.13454102E+04</pdfrwt>
<totfact> 0.14869571E-01</totfact>
</mgrwt>
</event>
<event>
 4    1  0.1726795E-008  0.6632838E+03  0.7818608E-02  0.9782168E-01
         -2   -1    0    0    0  501 -0.00000000000E+00  0.00000000000E+00  0.43860821659E+03  0.43860821660E+03  0.25500000000E-02 0.  1.
          2   -1    0    0  501    0  0.00000000000E+00 -0.00000000000E+00 -0.12550918787E+04  0.12550918788E+04  0.25500000000E-02 0. -1.
    8880022    1    1    2    0    0  0.48415387546E+03 -0.42678883475E+03 -0.28746570760E+02  0.66390639622E+03  0.15294330000E+03 0.  0.
    8880022    1    1    2    0    0 -0.48415387546E+03  0.42678883475E+03 -0.78773709140E+03  0.10297936991E+04  0.15294330000E+03 0.  0.
<mgrwt>
<rscale>  0 0.66328375E+03</rscale>
<asrwt>0</asrwt>
<pdfrwt beam="1">  1        2 0.19309106E+00 0.66328375E+03</pdfrwt>
<pdfrwt beam="2">  1       -2 0.67478188E-01 0.66328375E+03</pdfrwt>
<totfact> 0.36389751E+01</totfact>
</mgrwt>
</event>
<event>
 4    1  0.1726795E-008  0.1180727E+04  0.7818608E-02  0.9129896E-01
         -2   -1    0    0    0  501 -0.00000000000E+00  0.00000000000E+00  0.68021509127E+03  0.68021509127E+03  0.25500000000E-02 0.  1.
          2   -1    0    0  501    0  0.00000000000E+00 -0.00000000000E+00 -0.35749688476E+04  0.35749688476E+04  0.25500000000E-02 0. -1.
    8880022    1    1    2    0    0 -0.11609957498E+04  0.15103991698E+03 -0.57581888271E+02  0.11821300751E+04  0.15294330000E+03 0.  0.
    8880022    1    1    2    0    0  0.11609957498E+04 -0.15103991698E+03 -0.28371718681E+04  0.30730538638E+04  0.15294330000E+03 0.  0.
<mgrwt>
<rscale>  0 0.11807268E+04</rscale>
<asrwt>0</asrwt>
<pdfrwt beam="1">  1        2 0.54999520E+00 0.11807268E+04</pdfrwt>
<pdfrwt beam="2">  1       -2 0.10464848E+00 0.11807268E+04</pdfrwt>
<totfact> 0.53561667E-01</totfact>
</mgrwt>
</event>
<event>
 4    1  0.1726795E-008  0.5245406E+03  0.7818608E-02  0.1007565E+00
         -2   -1    0    0    0  501 -0.00000000000E+00  0.00000000000E+00  0.32536333281E+03  0.32536333282E+03  0.25500000000E-02 0.  1.
          2   -1    0    0  501    0  0.00000000000E+00 -0.00000000000E+00 -0.29249246175E+04  0.29249246175E+04  0.25500000000E-02 0. -1.
    8880022    1    1    2    0    0  0.27786757802E+03  0.41778078931E+03  0.70440437433E+02  0.52924917295E+03  0.15294330000E+03 0.  1.
    8880022    1    1    2    0    0 -0.27786757802E+03 -0.41778078931E+03 -0.26700017221E+04  0.27210387774E+04  0.15294330000E+03 0.  0.
<mgrwt>
<rscale>  0 0.52454059E+03</rscale>
<asrwt>0</asrwt>
<pdfrwt beam="1">  1        2 0.44998839E+00 0.52454059E+03</pdfrwt>
<pdfrwt beam="2">  1       -2 0.50055899E-01 0.52454059E+03</pdfrwt>
<totfact> 0.81708720E+00</totfact>
</mgrwt>
</event>
<event>
 4    1  0.1726795E-008  0.7386201E+03  0.7818608E-02  0.9653375E-01
         -2   -1    0    0    0  501 -0.00000000000E+00  0.00000000000E+00  0.13243520553E+04  0.13243520553E+04  0.25500000000E-02 0.  1.
          2   -1    0    0  501    0  0.00000000000E+00 -0.00000000000E+00 -0.58774445627E+03  0.58774445627E+03  0.25500000000E-02 0. -1.
    8880022    1    1    2    0    0 -0.39845100495E+03  0.60283060291E+03  0.89117519103E+03  0.11574769170E+04  0.15294330000E+03 0.  0.
    8880022    1    1    2    0    0  0.39845100495E+03 -0.60283060291E+03 -0.15456759195E+03  0.75461959467E+03  0.15294330000E+03 0.  0.
<mgrwt>
<rscale>  0 0.73862006E+03</rscale>
<asrwt>0</asrwt>
<pdfrwt beam="1">  1        2 0.90422226E-01 0.73862006E+03</pdfrwt>
<pdfrwt beam="2">  1       -2 0.20374647E+00 0.73862006E+03</pdfrwt>
<totfact> 0.65326534E+00</totfact>
</mgrwt>
</event>
<event>
 4    1  0.1726795E-008  0.7099690E+03  0.7818608E-02  0.9700334E-01
         -2   -1    0    0    0  501 -0.00000000000E+00  0.00000000000E+00  0.46144540739E+03  0.46144540739E+03  0.25500000000E-02 0.  1.
          2   -1    0    0  501    0  0.00000000000E+00 -0.00000000000E+00 -0.20549331027E+04  0.20549331027E+04  0.25500000000E-02 0. -1.
    8880022    1    1    2    0    0 -0.31333774246E+03 -0.61845272892E+03  0.64385044371E+02  0.71288246276E+03  0.15294330000E+03 0.  0.
    8880022    1    1    2    0    0  0.31333774246E+03  0.61845272892E+03 -0.16578727397E+04  0.18034960473E+04  0.15294330000E+03 0.  0.
<mgrwt>
<rscale>  0 0.70996899E+03</rscale>
<asrwt>0</asrwt>
<pdfrwt beam="1">  1        2 0.31614355E+00 0.70996899E+03</pdfrwt>
<pdfrwt beam="2">  1       -2 0.70991602E-01 0.70996899E+03</pdfrwt>
<totfact> 0.11705358E+01</totfact>
</mgrwt>
</event>
<event>
 4    1  0.1726795E-008  0.8656043E+03  0.7818608E-02  0.9469629E-01
          2   -1    0    0  501    0  0.00000000000E+00  0.00000000000E+00  0.24972905826E+04  0.24972905826E+04  0.25500000000E-02 0. -1.
         -2   -1    0    0    0  501 -0.00000000000E+00 -0.00000000000E+00 -0.99171154227E+03  0.99171154227E+03  0.25500000000E-02 0.  1.
    8880022    1    1    2    0    0 -0.12247498494E+03 -0.84313641410E+03 -0.70411320153E+03  0.11158163775E+04  0.15294330000E+03 0.  0.
    8880022    1    1    2    0    0  0.12247498494E+03  0.84313641410E+03  0.22096922418E+04  0.23731857473E+04  0.15294330000E+03 0.  0.
<mgrwt>
<rscale>  0 0.86560429E+03</rscale>
<asrwt>0</asrwt>
<pdfrwt beam="1">  1        2 0.38419854E+00 0.86560429E+03</pdfrwt>
<pdfrwt beam="2">  1       -2 0.15257101E+00 0.86560429E+03</pdfrwt>
<totfact> 0.10292594E+00</totfact>
</mgrwt>
</event>
<event>
 4    1  0.1726795E-008  0.9156255E+03  0.7818608E-02  0.9406257E-01
          2   -1    0    0  501    0  0.00000000000E+00  0.00000000000E+00  0.24562924230E+04  0.24562924230E+04  0.25500000000E-02 0. -1.
         -2   -1    0    0    0  501 -0.00000000000E+00 -0.00000000000E+00 -0.52661846194E+03  0.52661846194E+03  0.25500000000E-02 0.  1.
    8880022    1    1    2    0    0 -0.24319167911E+03 -0.86938844191E+03  0.80121361299E+02  0.91912433396E+03  0.15294330000E+03 0.  0.
    8880022    1    1    2    0    0  0.24319167911E+03  0.86938844191E+03  0.18495525997E+04  0.20637865510E+04  0.15294330000E+03 0.  0.
<mgrwt>
<rscale>  0 0.91562553E+03</rscale>
<asrwt>0</asrwt>
<pdfrwt beam="1">  1        2 0.37789114E+00 0.91562553E+03</pdfrwt>
<pdfrwt beam="2">  1       -2 0.81018226E-01 0.91562553E+03</pdfrwt>
<totfact> 0.50618323E+00</totfact>
</mgrwt>
</event>
<event>
 4    1  0.1726795E-008  0.1175326E+04  0.7818608E-02  0.9134732E-01
          2   -1    0    0  501    0  0.00000000000E+00  0.00000000000E+00  0.10255841099E+04  0.10255841099E+04  0.25500000000E-02 0. -1.
         -2   -1    0    0    0  501 -0.00000000000E+00 -0.00000000000E+00 -0.22976145202E+04  0.22976145202E+04  0.25500000000E-02 0.  1.
    8880022    1    1    2    0    0  0.82162576723E+03 -0.82639579873E+03 -0.17048382431E+04  0.20707158196E+04  0.15294330000E+03 0.  0.
    8880022    1    1    2    0    0 -0.82162576723E+03  0.82639579873E+03  0.43280783271E+03  0.12524828105E+04  0.15294330000E+03 0.  0.
<mgrwt>
<rscale>  0 0.11753257E+04</rscale>
<asrwt>0</asrwt>
<pdfrwt beam="1">  1        2 0.15778217E+00 0.11753257E+04</pdfrwt>
<pdfrwt beam="2">  1       -2 0.35347916E+00 0.11753257E+04</pdfrwt>
<totfact> 0.35377574E-01</totfact>
</mgrwt>
</event>
<event>
 4    1  0.1726795E-008  0.4921048E+03  0.7818608E-02  0.1015860E+00
          2   -1    0    0  501    0  0.00000000000E+00  0.00000000000E+00  0.67562199774E+03  0.67562199774E+03  0.25500000000E-02 0. -1.
         -2   -1    0    0    0  501 -0.00000000000E+00 -0.00000000000E+00 -0.55295298665E+03  0.55295298666E+03  0.25500000000E-02 0.  1.
    8880022    1    1    2    0    0 -0.45417328110E+03 -0.11181268993E+03  0.42567427320E+03  0.65066557214E+03  0.15294330000E+03 0.  0.
    8880022    1    1    2    0    0  0.45417328110E+03  0.11181268993E+03 -0.30300526211E+03  0.57790941226E+03  0.15294330000E+03 0.  0.
<mgrwt>
<rscale>  0 0.49210477E+03</rscale>
<asrwt>0</asrwt>
<pdfrwt beam="1">  1        2 0.10394184E+00 0.49210477E+03</pdfrwt>
<pdfrwt beam="2">  1       -2 0.85069691E-01 0.49210477E+03</pdfrwt>
<totfact> 0.53400483E+01</totfact>
</mgrwt>
</event>
<event>
 4    1  0.1726795E-008  0.1560873E+04  0.7818608E-02  0.8844952E-01
          2   -1    0    0  501    0  0.00000000000E+00  0.00000000000E+00  0.23100945797E+04  0.23100945797E+04  0.25500000000E-02 0. -1.
         -2   -1    0    0    0  501 -0.00000000000E+00 -0.00000000000E+00 -0.13020328386E+04  0.13020328386E+04  0.25500000000E-02 0.  1.
    8880022    1    1    2    0    0  0.15859236622E+03 -0.15452451066E+04 -0.28321939451E+03  0.15863602544E+04  0.15294330000E+03 0.  0.
    8880022    1    1    2    0    0 -0.15859236622E+03  0.15452451066E+04  0.12912811356E+04  0.20257671639E+04  0.15294330000E+03 0.  0.
<mgrwt>
<rscale>  0 0.15608734E+04</rscale>
<asrwt>0</asrwt>
<pdfrwt beam="1">  1        2 0.35539916E+00 0.15608734E+04</pdfrwt>
<pdfrwt beam="2">  1       -2 0.20031275E+00 0.15608734E+04</pdfrwt>
<totfact> 0.55271196E-01</totfact>
</mgrwt>
</event>
<event>
 4    1  0.1726795E-008  0.1430246E+04  0.7818608E-02  0.8932211E-01
          2   -1    0    0  501    0  0.00000000000E+00  0.00000000000E+00  0.28240867285E+04  0.28240867285E+04  0.25500000000E-02 0. -1.
         -2   -1    0    0    0  501 -0.00000000000E+00 -0.00000000000E+00 -0.10662426918E+04  0.10662426918E+04  0.25500000000E-02 0.  1.
    8880022    1    1    2    0    0 -0.96421093296E+03 -0.10452314224E+04 -0.22256321978E+03  0.14474589768E+04  0.15294330000E+03 0.  0.
    8880022    1    1    2    0    0  0.96421093296E+03  0.10452314224E+04  0.19804072565E+04  0.24428704436E+04  0.15294330000E+03 0.  0.
<mgrwt>
<rscale>  0 0.14302458E+04</rscale>
<asrwt>0</asrwt>
<pdfrwt beam="1">  1        2 0.43447487E+00 0.14302458E+04</pdfrwt>
<pdfrwt beam="2">  1       -2 0.16403734E+00 0.14302458E+04</pdfrwt>
<totfact> 0.50097385E-01</totfact>
</mgrwt>
</event>
<event>
 4    1  0.1726795E-008  0.1040532E+04  0.7818608E-02  0.9265174E-01
          2   -1    0    0  501    0  0.00000000000E+00  0.00000000000E+00  0.16987451679E+04  0.16987451679E+04  0.25500000000E-02 0. -1.
         -2   -1    0    0    0  501 -0.00000000000E+00 -0.00000000000E+00 -0.73299198215E+03  0.73299198215E+03  0.25500000000E-02 0.  1.
    8880022    1    1    2    0    0  0.48849687420E+03  0.90591685628E+03  0.92206073265E+03  0.13902885292E+04  0.15294330000E+03 0.  0.
    8880022    1    1    2    0    0 -0.48849687420E+03 -0.90591685628E+03  0.43692453145E+02  0.10414486209E+04  0.15294330000E+03 0.  0.
<mgrwt>
<rscale>  0 0.10405317E+04</rscale>
<asrwt>0</asrwt>
<pdfrwt beam="1">  1        2 0.26134541E+00 0.10405317E+04</pdfrwt>
<pdfrwt beam="2">  1       -2 0.11276800E+00 0.10405317E+04</pdfrwt>
<totfact> 0.60249450E+00</totfact>
</mgrwt>
</event>
<event>
 4    1  0.1726795E-008  0.2581991E+04  0.7818608E-02  0.8374344E-01
         -2   -1    0    0    0  501 -0.00000000000E+00  0.00000000000E+00  0.22303688492E+04  0.22303688492E+04  0.25500000000E-02 0.  1.
          2   -1    0    0  501    0  0.00000000000E+00 -0.00000000000E+00 -0.32328649454E+04  0.32328649454E+04  0.25500000000E-02 0. -1.
    8880022    1    1    2    0    0 -0.17174629162E+04  0.19218754916E+04 -0.12514175404E+04  0.28692719960E+04  0.15294330000E+03 0.  0.
    8880022    1    1    2    0    0  0.17174629162E+04 -0.19218754916E+04  0.24892144417E+03  0.25939617985E+04  0.15294330000E+03 0.  0.
<mgrwt>
<rscale>  0 0.25819907E+04</rscale>
<asrwt>0</asrwt>
<pdfrwt beam="1">  1        2 0.49736384E+00 0.25819907E+04</pdfrwt>
<pdfrwt beam="2">  1       -2 0.34313367E+00 0.25819907E+04</pdfrwt>
<totfact> 0.17636110E-02</totfact>
</mgrwt>
</event>
<event>
 4    1  0.1726795E-008  0.6215904E+03  0.7818608E-02  0.9861598E-01
         -2   -1    0    0    0  501 -0.00000000000E+00  0.00000000000E+00  0.23831114043E+04  0.23831114044E+04  0.25500000000E-02 0.  1.
          2   -1    0    0  501    0  0.00000000000E+00 -0.00000000000E+00 -0.79336271015E+03  0.79336271016E+03  0.25500000000E-02 0. -1.
    8880022    1    1    2    0    0 -0.56921611304E+03  0.19742350141E+03  0.22115618472E+04  0.22972549879E+04  0.15294330000E+03 0.  1.
    8880022    1    1    2    0    0  0.56921611304E+03 -0.19742350141E+03 -0.62181315305E+03  0.87921912660E+03  0.15294330000E+03 0.  0.
<mgrwt>
<rscale>  0 0.62159044E+03</rscale>
<asrwt>0</asrwt>
<pdfrwt beam="1">  1        2 0.12205580E+00 0.62159044E+03</pdfrwt>
<pdfrwt beam="2">  1       -2 0.36663251E+00 0.62159044E+03</pdfrwt>
<totfact> 0.46404907E-01</totfact>
</mgrwt>
</event>
<event>
 4    1  0.1726795E-008  0.3426944E+03  0.7818608E-02  0.1065654E+00
          2   -1    0    0  501    0  0.00000000000E+00  0.00000000000E+00  0.11298646262E+03  0.11298646264E+03  0.25500000000E-02 0. -1.
         -2   -1    0    0    0  501 -0.00000000000E+00 -0.00000000000E+00 -0.10830604500E+04  0.10830604500E+04  0.25500000000E-02 0.  1.
    8880022    1    1    2    0    0 -0.12258512316E+03 -0.28110621941E+03 -0.36498293176E+03  0.50065158794E+03  0.15294330000E+03 0.  1.
    8880022    1    1    2    0    0  0.12258512316E+03  0.28110621941E+03 -0.60509105557E+03  0.69539532466E+03  0.15294330000E+03 0. -1.
<mgrwt>
<rscale>  0 0.34269443E+03</rscale>
<asrwt>0</asrwt>
<pdfrwt beam="1">  1        2 0.17382533E-01 0.34269443E+03</pdfrwt>
<pdfrwt beam="2">  1       -2 0.16662468E+00 0.34269443E+03</pdfrwt>
<totfact> 0.78385691E+01</totfact>
</mgrwt>
</event>
<event>
 4    1  0.1726795E-008  0.2700486E+03  0.7818608E-02  0.1101252E+00
          2   -1    0    0  501    0  0.00000000000E+00  0.00000000000E+00  0.16145606225E+03  0.16145606227E+03  0.25500000000E-02 0. -1.
         -2   -1    0    0    0  501 -0.00000000000E+00 -0.00000000000E+00 -0.32221690508E+04  0.32221690508E+04  0.25500000000E-02 0.  1.
    8880022    1    1    2    0    0  0.11622269582E+03 -0.18980747372E+03 -0.30991161548E+04  0.31108595575E+04  0.15294330000E+03 0.  0.
    8880022    1    1    2    0    0 -0.11622269582E+03  0.18980747372E+03  0.38403166327E+02  0.27276555556E+03  0.15294330000E+03 0. -1.
<mgrwt>
<rscale>  0 0.27004860E+03</rscale>
<asrwt>0</asrwt>
<pdfrwt beam="1">  1        2 0.24839397E-01 0.27004860E+03</pdfrwt>
<pdfrwt beam="2">  1       -2 0.49571827E+00 0.27004860E+03</pdfrwt>
<totfact> 0.46644632E-01</totfact>
</mgrwt>
</event>
<event>
 4    1  0.1726795E-008  0.9638951E+03  0.7818608E-02  0.9349055E-01
          2   -1    0    0  501    0  0.00000000000E+00  0.00000000000E+00  0.21748254095E+04  0.21748254095E+04  0.25500000000E-02 0. -1.
         -2   -1    0    0    0  501 -0.00000000000E+00 -0.00000000000E+00 -0.67075829379E+03  0.67075829380E+03  0.25500000000E-02 0.  1.
    8880022    1    1    2    0    0 -0.71193514666E+03 -0.63154613003E+03  0.16093800185E+04  0.18759525219E+04  0.15294330000E+03 0.  0.
    8880022    1    1    2    0    0  0.71193514666E+03  0.63154613003E+03 -0.10531290281E+03  0.96963118139E+03  0.15294330000E+03 0.  0.
<mgrwt>
<rscale>  0 0.96389513E+03</rscale>
<asrwt>0</asrwt>
<pdfrwt beam="1">  1        2 0.33458853E+00 0.96389513E+03</pdfrwt>
<pdfrwt beam="2">  1       -2 0.10319358E+00 0.96389513E+03</pdfrwt>
<totfact> 0.41190321E+00</totfact>
</mgrwt>
</event>
<event>
 4    1  0.1726795E-008  0.1323678E+04  0.7818608E-02  0.9010996E-01
         -2   -1    0    0    0  501 -0.00000000000E+00  0.00000000000E+00  0.16230854210E+04  0.16230854210E+04  0.25500000000E-02 0.  1.
          2   -1    0    0  501    0  0.00000000000E+00 -0.00000000000E+00 -0.16943981156E+04  0.16943981156E+04  0.25500000000E-02 0. -1.
    8880022    1    1    2    0    0  0.11818300687E+04  0.57620270737E+03 -0.10349014303E+04  0.16802215612E+04  0.15294330000E+03 0.  0.
    8880022    1    1    2    0    0 -0.11818300687E+04 -0.57620270737E+03  0.96358873573E+03  0.16372619753E+04  0.15294330000E+03 0.  0.
<mgrwt>
<rscale>  0 0.13236780E+04</rscale>
<asrwt>0</asrwt>
<pdfrwt beam="1">  1        2 0.26067664E+00 0.13236780E+04</pdfrwt>
<pdfrwt beam="2">  1       -2 0.24970545E+00 0.13236780E+04</pdfrwt>
<totfact> 0.61008878E-01</totfact>
</mgrwt>
</event>
<event>
 4    1  0.1726795E-008  0.1100848E+04  0.7818608E-02  0.9204366E-01
          2   -1    0    0  501    0  0.00000000000E+00  0.00000000000E+00  0.26585685182E+04  0.26585685182E+04  0.25500000000E-02 0. -1.
         -2   -1    0    0    0  501 -0.00000000000E+00 -0.00000000000E+00 -0.78037703934E+03  0.78037703934E+03  0.25500000000E-02 0.  1.
    8880022    1    1    2    0    0 -0.10277959830E+04 -0.36346946836E+03 -0.16977039554E+03  0.11138618754E+04  0.15294330000E+03 0.  0.
    8880022    1    1    2    0    0  0.10277959830E+04  0.36346946836E+03  0.20479618744E+04  0.23250836822E+04  0.15294330000E+03 0.  0.
<mgrwt>
<rscale>  0 0.11008480E+04</rscale>
<asrwt>0</asrwt>
<pdfrwt beam="1">  1        2 0.40901054E+00 0.11008480E+04</pdfrwt>
<pdfrwt beam="2">  1       -2 0.12005801E+00 0.11008480E+04</pdfrwt>
<totfact> 0.14840361E+00</totfact>
</mgrwt>
</event>
<event>
 4    1  0.1726795E-008  0.7936005E+03  0.7818608E-02  0.9569327E-01
          2   -1    0    0  501    0  0.00000000000E+00  0.00000000000E+00  0.63375384770E+03  0.63375384770E+03  0.25500000000E-02 0. -1.
         -2   -1    0    0    0  501 -0.00000000000E+00 -0.00000000000E+00 -0.10756327758E+04  0.10756327758E+04  0.25500000000E-02 0.  1.
    8880022    1    1    2    0    0  0.42983679826E+03 -0.64934611576E+03 -0.45673613444E+03  0.91564709398E+03  0.15294330000E+03 0.  0.
    8880022    1    1    2    0    0 -0.42983679826E+03  0.64934611576E+03  0.14857206300E+02  0.79373952956E+03  0.15294330000E+03 0.  0.
<mgrwt>
<rscale>  0 0.79360047E+03</rscale>
<asrwt>0</asrwt>
<pdfrwt beam="1">  1        2 0.97500592E-01 0.79360047E+03</pdfrwt>
<pdfrwt beam="2">  1       -2 0.16548197E+00 0.79360047E+03</pdfrwt>
<totfact> 0.10776071E+01</totfact>
</mgrwt>
</event>
<event>
 4    1  0.1726795E-008  0.2139422E+03  0.7818608E-02  0.1138482E+00
          2   -1    0    0  501    0  0.00000000000E+00  0.00000000000E+00  0.16024179131E+04  0.16024179131E+04  0.25500000000E-02 0. -1.
         -2   -1    0    0    0  501 -0.00000000000E+00 -0.00000000000E+00 -0.25064381354E+03  0.25064381356E+03  0.25500000000E-02 0.  1.
    8880022    1    1    2    0    0  0.11066656917E+03  0.10066047392E+03 -0.19625264740E+03  0.29032115867E+03  0.15294330000E+03 0.  1.
    8880022    1    1    2    0    0 -0.11066656917E+03 -0.10066047392E+03  0.15480267470E+04  0.15627405680E+04  0.15294330000E+03 0.  0.
<mgrwt>
<rscale>  0 0.21394222E+03</rscale>
<asrwt>0</asrwt>
<pdfrwt beam="1">  1        2 0.24652583E+00 0.21394222E+03</pdfrwt>
<pdfrwt beam="2">  1       -2 0.38560587E-01 0.21394222E+03</pdfrwt>
<totfact> 0.79318487E+01</totfact>
</mgrwt>
</event>
<event>
 4    1  0.1726795E-008  0.7003026E+03  0.7818608E-02  0.9716715E-01
          2   -1    0    0  501    0  0.00000000000E+00  0.00000000000E+00  0.21521860576E+04  0.21521860576E+04  0.25500000000E-02 0. -1.
         -2   -1    0    0    0  501 -0.00000000000E+00 -0.00000000000E+00 -0.58661139160E+03  0.58661139160E+03  0.25500000000E-02 0.  1.
    8880022    1    1    2    0    0  0.67673019169E+03 -0.95227641833E+02 -0.28810051530E+03  0.75724871478E+03  0.15294330000E+03 0.  0.
    8880022    1    1    2    0    0 -0.67673019169E+03  0.95227641833E+02  0.18536751813E+04  0.19815487344E+04  0.15294330000E+03 0.  0.
<mgrwt>
<rscale>  0 0.70030258E+03</rscale>
<asrwt>0</asrwt>
<pdfrwt beam="1">  1        2 0.33110555E+00 0.70030258E+03</pdfrwt>
<pdfrwt beam="2">  1       -2 0.90247906E-01 0.70030258E+03</pdfrwt>
<totfact> 0.60497435E+00</totfact>
</mgrwt>
</event>
<event>
 4    1  0.1726795E-008  0.1586382E+04  0.7818608E-02  0.8828958E-01
          2   -1    0    0  501    0  0.00000000000E+00  0.00000000000E+00  0.30695955038E+04  0.30695955038E+04  0.25500000000E-02 0. -1.
         -2   -1    0    0    0  501 -0.00000000000E+00 -0.00000000000E+00 -0.12743931291E+04  0.12743931291E+04  0.25500000000E-02 0.  1.
    8880022    1    1    2    0    0 -0.57807913259E+03 -0.14693672987E+04 -0.39956194575E+03  0.16359269982E+04  0.15294330000E+03 0.  0.
    8880022    1    1    2    0    0  0.57807913259E+03  0.14693672987E+04  0.21947643205E+04  0.27080616347E+04  0.15294330000E+03 0.  0.
<mgrwt>
<rscale>  0 0.15863819E+04</rscale>
<asrwt>0</asrwt>
<pdfrwt beam="1">  1        2 0.47224546E+00 0.15863819E+04</pdfrwt>
<pdfrwt beam="2">  1       -2 0.19606048E+00 0.15863819E+04</pdfrwt>
<totfact> 0.20745143E-01</totfact>
</mgrwt>
</event>
<event>
 4    1  0.1726795E-008  0.3477688E+03  0.7818608E-02  0.1063535E+00
          2   -1    0    0  501    0  0.00000000000E+00  0.00000000000E+00  0.63650690436E+03  0.63650690436E+03  0.25500000000E-02 0. -1.
         -2   -1    0    0    0  501 -0.00000000000E+00 -0.00000000000E+00 -0.19502993016E+03  0.19502993018E+03  0.25500000000E-02 0.  1.
    8880022    1    1    2    0    0  0.19684368950E+03 -0.24249545334E+03  0.28743736060E+03  0.45117997769E+03  0.15294330000E+03 0.  1.
    8880022    1    1    2    0    0 -0.19684368950E+03  0.24249545334E+03  0.15403961359E+03  0.38035685685E+03  0.15294330000E+03 0. -1.
<mgrwt>
<rscale>  0 0.34776880E+03</rscale>
<asrwt>0</asrwt>
<pdfrwt beam="1">  1        2 0.97924139E-01 0.34776880E+03</pdfrwt>
<pdfrwt beam="2">  1       -2 0.30004605E-01 0.34776880E+03</pdfrwt>
<totfact> 0.48200406E+02</totfact>
</mgrwt>
</event>
<event>
 4    1  0.1726795E-008  0.1885508E+03  0.7818608E-02  0.1159775E+00
         -2   -1    0    0    0  501 -0.00000000000E+00  0.00000000000E+00  0.17230676772E+03  0.17230676774E+03  0.25500000000E-02 0.  1.
          2   -1    0    0  501    0  0.00000000000E+00 -0.00000000000E+00 -0.45396332964E+03  0.45396332964E+03  0.25500000000E-02 0. -1.
    8880022    1    1    2    0    0  0.93200257071E+02  0.58935950420E+02 -0.37210357562E+03  0.41714800512E+03  0.15294330000E+03 0.  0.
    8880022    1    1    2    0    0 -0.93200257071E+02 -0.58935950420E+02  0.90447013707E+02  0.20912209227E+03  0.15294330000E+03 0.  1.
<mgrwt>
<rscale>  0 0.18855075E+03</rscale>
<asrwt>0</asrwt>
<pdfrwt beam="1">  1        2 0.69840512E-01 0.18855075E+03</pdfrwt>
<pdfrwt beam="2">  1       -2 0.26508734E-01 0.18855075E+03</pdfrwt>
<totfact> 0.88834025E+02</totfact>
</mgrwt>
</event>
<event>
 4    1  0.1726795E-008  0.1336804E+04  0.7818608E-02  0.9000878E-01
         -2   -1    0    0    0  501 -0.00000000000E+00  0.00000000000E+00  0.25428905772E+04  0.25428905772E+04  0.25500000000E-02 0.  1.
          2   -1    0    0  501    0  0.00000000000E+00 -0.00000000000E+00 -0.97352799519E+03  0.97352799520E+03  0.25500000000E-02 0. -1.
    8880022    1    1    2    0    0 -0.10024988069E+04 -0.87100492016E+03  0.17119251615E+04  0.21720342632E+04  0.15294330000E+03 0.  0.
    8880022    1    1    2    0    0  0.10024988069E+04  0.87100492016E+03 -0.14256257951E+03  0.13443843092E+04  0.15294330000E+03 0.  0.
<mgrwt>
<rscale>  0 0.13368041E+04</rscale>
<asrwt>0</asrwt>
<pdfrwt beam="1">  1        2 0.14977354E+00 0.13368041E+04</pdfrwt>
<pdfrwt beam="2">  1       -2 0.39121393E+00 0.13368041E+04</pdfrwt>
<totfact> 0.21493038E-01</totfact>
</mgrwt>
</event>
<event>
 4    1  0.1726795E-008  0.6355555E+03  0.7818608E-02  0.9834267E-01
         -2   -1    0    0    0  501 -0.00000000000E+00  0.00000000000E+00  0.99801318985E+03  0.99801318985E+03  0.25500000000E-02 0.  1.
          2   -1    0    0  501    0  0.00000000000E+00 -0.00000000000E+00 -0.15903158798E+04  0.15903158798E+04  0.25500000000E-02 0. -1.
    8880022    1    1    2    0    0  0.61227172768E+03  0.75249291711E+02 -0.14135635394E+04  0.15498685936E+04  0.15294330000E+03 0.  0.
    8880022    1    1    2    0    0 -0.61227172768E+03 -0.75249291711E+02  0.82126084948E+03  0.10384604760E+04  0.15294330000E+03 0.  0.
<mgrwt>
<rscale>  0 0.63555549E+03</rscale>
<asrwt>0</asrwt>
<pdfrwt beam="1">  1        2 0.24466398E+00 0.63555549E+03</pdfrwt>
<pdfrwt beam="2">  1       -2 0.15354049E+00 0.63555549E+03</pdfrwt>
<totfact> 0.33380703E+00</totfact>
</mgrwt>
</event>
<event>
 4    1  0.1726795E-008  0.2244606E+03  0.7818608E-02  0.1130601E+00
         -2   -1    0    0    0  501 -0.00000000000E+00  0.00000000000E+00  0.89902908800E+03  0.89902908800E+03  0.25500000000E-02 0.  1.
          2   -1    0    0  501    0  0.00000000000E+00 -0.00000000000E+00 -0.23092516178E+04  0.23092516178E+04  0.25500000000E-02 0. -1.
    8880022    1    1    2    0    0  0.31727244490E+02 -0.16119641348E+03  0.87944484753E+03  0.90763747974E+03  0.15294330000E+03 0.  0.
    8880022    1    1    2    0    0 -0.31727244490E+02  0.16119641348E+03 -0.22896673773E+04  0.23006432260E+04  0.15294330000E+03 0. -1.
<mgrwt>
<rscale>  0 0.22446059E+03</rscale>
<asrwt>0</asrwt>
<pdfrwt beam="1">  1        2 0.35526948E+00 0.22446059E+03</pdfrwt>
<pdfrwt beam="2">  1       -2 0.13831217E+00 0.22446059E+03</pdfrwt>
<totfact> 0.20876328E+00</totfact>
</mgrwt>
</event>
<event>
 4    1  0.1726795E-008  0.1065997E+04  0.7818608E-02  0.9238983E-01
          2   -1    0    0  501    0  0.00000000000E+00  0.00000000000E+00  0.78687681705E+03  0.78687681706E+03  0.25500000000E-02 0. -1.
         -2   -1    0    0    0  501 -0.00000000000E+00 -0.00000000000E+00 -0.27875709211E+04  0.27875709211E+04  0.25500000000E-02 0.  1.
    8880022    1    1    2    0    0 -0.10549028277E+04 -0.11709314468E+02  0.24037938373E+03  0.10927630050E+04  0.15294330000E+03 0.  0.
    8880022    1    1    2    0    0  0.10549028277E+04  0.11709314468E+02 -0.22410734878E+04  0.24816847331E+04  0.15294330000E+03 0.  0.
<mgrwt>
<rscale>  0 0.10659966E+04</rscale>
<asrwt>0</asrwt>
<pdfrwt beam="1">  1        2 0.12105797E+00 0.10659966E+04</pdfrwt>
<pdfrwt beam="2">  1       -2 0.42885706E+00 0.10659966E+04</pdfrwt>
<totfact> 0.17008117E-01</totfact>
</mgrwt>
</event>
<event>
 4    1  0.1726795E-008  0.2406719E+03  0.7818608E-02  0.1119346E+00
          2   -1    0    0  501    0  0.00000000000E+00  0.00000000000E+00  0.96670169974E+03  0.96670169974E+03  0.25500000000E-02 0. -1.
         -2   -1    0    0    0  501 -0.00000000000E+00 -0.00000000000E+00 -0.32448152240E+03  0.32448152241E+03  0.25500000000E-02 0.  1.
    8880022    1    1    2    0    0  0.16097148837E+03  0.92841086469E+02 -0.26183518212E+03  0.35564111547E+03  0.15294330000E+03 0.  0.
    8880022    1    1    2    0    0 -0.16097148837E+03 -0.92841086469E+02  0.90405535945E+03  0.93554210668E+03  0.15294330000E+03 0. -1.
<mgrwt>
<rscale>  0 0.24067185E+03</rscale>
<asrwt>0</asrwt>
<pdfrwt beam="1">  1        2 0.14872334E+00 0.24067185E+03</pdfrwt>
<pdfrwt beam="2">  1       -2 0.49920235E-01 0.24067185E+03</pdfrwt>
<totfact> 0.10812361E+02</totfact>
</mgrwt>
</event>
<event>
 4    1  0.1726795E-008  0.3936718E+03  0.7818608E-02  0.1045993E+00
          2   -1    0    0  501    0  0.00000000000E+00  0.00000000000E+00  0.10854363468E+04  0.10854363468E+04  0.25500000000E-02 0. -1.
         -2   -1    0    0    0  501 -0.00000000000E+00 -0.00000000000E+00 -0.10869107160E+04  0.10869107160E+04  0.25500000000E-02 0.  1.
    8880022    1    1    2    0    0 -0.89407090606E+02 -0.35155685623E+03 -0.10130589541E+04  0.10868605929E+04  0.15294330000E+03 0.  0.
    8880022    1    1    2    0    0  0.89407090606E+02  0.35155685623E+03  0.10115845849E+04  0.10854864699E+04  0.15294330000E+03 0.  0.
<mgrwt>
<rscale>  0 0.39367182E+03</rscale>
<asrwt>0</asrwt>
<pdfrwt beam="1">  1        2 0.16699021E+00 0.39367182E+03</pdfrwt>
<pdfrwt beam="2">  1       -2 0.16721703E+00 0.39367182E+03</pdfrwt>
<totfact> 0.54241061E+00</totfact>
</mgrwt>
</event>
<event>
 4    1  0.1726795E-008  0.1335849E+04  0.7818608E-02  0.9001610E-01
         -2   -1    0    0    0  501 -0.00000000000E+00  0.00000000000E+00  0.11672863697E+04  0.11672863697E+04  0.25500000000E-02 0.  1.
          2   -1    0    0  501    0  0.00000000000E+00 -0.00000000000E+00 -0.28639476055E+04  0.28639476055E+04  0.25500000000E-02 0. -1.
    8880022    1    1    2    0    0 -0.13222854702E+04 -0.11252884416E+03 -0.22245816575E+04  0.25948519822E+04  0.15294330000E+03 0.  0.
    8880022    1    1    2    0    0  0.13222854702E+04  0.11252884416E+03  0.52792042171E+03  0.14363819931E+04  0.15294330000E+03 0.  0.
<mgrwt>
<rscale>  0 0.13358493E+04</rscale>
<asrwt>0</asrwt>
<pdfrwt beam="1">  1        2 0.44060732E+00 0.13358493E+04</pdfrwt>
<pdfrwt beam="2">  1       -2 0.17958252E+00 0.13358493E+04</pdfrwt>
<totfact> 0.37149407E-01</totfact>
</mgrwt>
</event>
<event>
 4    1  0.1726795E-008  0.6749814E+03  0.7818608E-02  0.9761001E-01
         -2   -1    0    0    0  501 -0.00000000000E+00  0.00000000000E+00  0.21869497497E+03  0.21869497498E+03  0.25500000000E-02 0.  1.
          2   -1    0    0  501    0  0.00000000000E+00 -0.00000000000E+00 -0.30076515412E+04  0.30076515412E+04  0.25500000000E-02 0. -1.
    8880022    1    1    2    0    0 -0.34945078044E+03 -0.55685935358E+03 -0.50015654098E+03  0.84009309372E+03  0.15294330000E+03 0.  0.
    8880022    1    1    2    0    0  0.34945078044E+03  0.55685935358E+03 -0.22888000252E+04  0.23862534224E+04  0.15294330000E+03 0.  0.
<mgrwt>
<rscale>  0 0.67498136E+03</rscale>
<asrwt>0</asrwt>
<pdfrwt beam="1">  1        2 0.46271559E+00 0.67498136E+03</pdfrwt>
<pdfrwt beam="2">  1       -2 0.33645383E-01 0.67498136E+03</pdfrwt>
<totfact> 0.15299038E+01</totfact>
</mgrwt>
</event>
<event>
 4    1  0.1726795E-008  0.1975466E+03  0.7818608E-02  0.1151826E+00
         -2   -1    0    0    0  501 -0.00000000000E+00  0.00000000000E+00  0.86220960961E+02  0.86220960999E+02  0.25500000000E-02 0.  1.
          2   -1    0    0  501    0  0.00000000000E+00 -0.00000000000E+00 -0.10606288768E+04  0.10606288768E+04  0.25500000000E-02 0. -1.
    8880022    1    1    2    0    0 -0.73243412169E+02  0.10133314528E+03 -0.92136674101E+03  0.94230638765E+03  0.15294330000E+03 0.  0.
    8880022    1    1    2    0    0  0.73243412169E+02 -0.10133314528E+03 -0.53041174839E+02  0.20454345016E+03  0.15294330000E+03 0.  0.
<mgrwt>
<rscale>  0 0.19754659E+03</rscale>
<asrwt>0</asrwt>
<pdfrwt beam="1">  1        2 0.16317366E+00 0.19754659E+03</pdfrwt>
<pdfrwt beam="2">  1       -2 0.13264764E-01 0.19754659E+03</pdfrwt>
<totfact> 0.10166954E+03</totfact>
</mgrwt>
</event>
<event>
 4    1  0.1726795E-008  0.5563057E+03  0.7818608E-02  0.1000045E+00
         -2   -1    0    0    0  501 -0.00000000000E+00  0.00000000000E+00  0.41507116788E+03  0.41507116789E+03  0.25500000000E-02 0.  1.
          2   -1    0    0  501    0  0.00000000000E+00 -0.00000000000E+00 -0.26190594807E+04  0.26190594807E+04  0.25500000000E-02 0. -1.
    8880022    1    1    2    0    0 -0.17635462337E+03 -0.50495881161E+03 -0.23850750793E+04  0.24490935347E+04  0.15294330000E+03 0.  0.
    8880022    1    1    2    0    0  0.17635462337E+03  0.50495881161E+03  0.18108676652E+03  0.58503711389E+03  0.15294330000E+03 0.  0.
<mgrwt>
<rscale>  0 0.55630568E+03</rscale>
<asrwt>0</asrwt>
<pdfrwt beam="1">  1        2 0.40293222E+00 0.55630568E+03</pdfrwt>
<pdfrwt beam="2">  1       -2 0.63857104E-01 0.55630568E+03</pdfrwt>
<totfact> 0.73698850E+00</totfact>
</mgrwt>
</event>
<event>
 4    1  0.1726795E-008  0.7037746E+03  0.7818608E-02  0.9710799E-01
          2   -1    0    0  501    0  0.00000000000E+00  0.00000000000E+00  0.40503648005E+04  0.40503648005E+04  0.25500000000E-02 0. -1.
         -2   -1    0    0    0  501 -0.00000000000E+00 -0.00000000000E+00 -0.65034645343E+03  0.65034645344E+03  0.25500000000E-02 0.  1.
    8880022    1    1    2    0    0 -0.30774769470E+02  0.68626518364E+03 -0.41788105551E+03  0.81848837395E+03  0.15294330000E+03 0.  0.
    8880022    1    1    2    0    0  0.30774769470E+02 -0.68626518364E+03  0.38178994025E+04  0.38822228800E+04  0.15294330000E+03 0.  0.
<mgrwt>
<rscale>  0 0.70377457E+03</rscale>
<asrwt>0</asrwt>
<pdfrwt beam="1">  1        2 0.62313304E+00 0.70377457E+03</pdfrwt>
<pdfrwt beam="2">  1       -2 0.10005330E+00 0.70377457E+03</pdfrwt>
<totfact> 0.29060789E-01</totfact>
</mgrwt>
</event>
<event>
 4    1  0.1726795E-008  0.3837022E+03  0.7818608E-02  0.1049574E+00
         -2   -1    0    0    0  501 -0.00000000000E+00  0.00000000000E+00  0.24506855160E+03  0.24506855161E+03  0.25500000000E-02 0.  1.
          2   -1    0    0  501    0  0.00000000000E+00 -0.00000000000E+00 -0.19144167315E+04  0.19144167315E+04  0.25500000000E-02 0. -1.
    8880022    1    1    2    0    0  0.31378604820E+03 -0.15929229194E+03  0.59748929782E+02  0.38832628798E+03  0.15294330000E+03 0.  1.
    8880022    1    1    2    0    0 -0.31378604820E+03  0.15929229194E+03 -0.17290971097E+04  0.17711589951E+04  0.15294330000E+03 0.  0.
<mgrwt>
<rscale>  0 0.38370219E+03</rscale>
<asrwt>0</asrwt>
<pdfrwt beam="1">  1        2 0.29452564E+00 0.38370219E+03</pdfrwt>
<pdfrwt beam="2">  1       -2 0.37702855E-01 0.38370219E+03</pdfrwt>
<totfact> 0.53987152E+01</totfact>
</mgrwt>
</event>
<event>
 4    1  0.1726795E-008  0.3690690E+03  0.7818608E-02  0.1055050E+00
          2   -1    0    0  501    0  0.00000000000E+00  0.00000000000E+00  0.36353373936E+04  0.36353373936E+04  0.25500000000E-02 0. -1.
         -2   -1    0    0    0  501 -0.00000000000E+00 -0.00000000000E+00 -0.46773933824E+02  0.46773933894E+02  0.25500000000E-02 0.  1.
    8880022    1    1    2    0    0 -0.31069952916E+03  0.12761683360E+03  0.26154367414E+04  0.26413483782E+04  0.15294330000E+03 0.  0.
    8880022    1    1    2    0    0  0.31069952916E+03 -0.12761683360E+03  0.97312671842E+03  0.10407629494E+04  0.15294330000E+03 0.  0.
<mgrwt>
<rscale>  0 0.36906897E+03</rscale>
<asrwt>0</asrwt>
<pdfrwt beam="1">  1        2 0.55928255E+00 0.36906897E+03</pdfrwt>
<pdfrwt beam="2">  1       -2 0.71959915E-02 0.36906897E+03</pdfrwt>
<totfact> 0.88761548E+01</totfact>
</mgrwt>
</event>
<event>
 4    1  0.1726795E-008  0.3949955E+03  0.7818608E-02  0.1045526E+00
          2   -1    0    0  501    0  0.00000000000E+00  0.00000000000E+00  0.14956984316E+04  0.14956984316E+04  0.25500000000E-02 0. -1.
         -2   -1    0    0    0  501 -0.00000000000E+00 -0.00000000000E+00 -0.52952069530E+03  0.52952069531E+03  0.25500000000E-02 0.  1.
    8880022    1    1    2    0    0  0.26917718064E+03 -0.24530281736E+03 -0.42431552598E+03  0.57971126036E+03  0.15294330000E+03 0.  0.
    8880022    1    1    2    0    0 -0.26917718064E+03  0.24530281736E+03  0.13904932622E+04  0.14455078665E+04  0.15294330000E+03 0.  0.
<mgrwt>
<rscale>  0 0.39499554E+03</rscale>
<asrwt>0</asrwt>
<pdfrwt beam="1">  1        2 0.23010745E+00 0.39499554E+03</pdfrwt>
<pdfrwt beam="2">  1       -2 0.81464723E-01 0.39499554E+03</pdfrwt>
<totfact> 0.18429901E+01</totfact>
</mgrwt>
</event>
<event>
 4    1  0.2277169E-008  0.1693239E+04  0.7818608E-02  0.8765230E-01
         -2   -1    0    0    0  501 -0.00000000000E+00  0.00000000000E+00  0.20040437739E+04  0.20040437739E+04  0.25500000000E-02 0.  1.
          2   -1    0    0  501    0  0.00000000000E+00 -0.00000000000E+00 -0.31955431371E+04  0.31955431371E+04  0.25500000000E-02 0. -1.
    8880022    1    1    2    0    0  0.16819687311E+04  0.12103481089E+03 -0.25278392978E+04  0.30425370016E+04  0.15294330000E+03 0.  0.
    8880022    1    1    2    0    0 -0.16819687311E+04 -0.12103481089E+03  0.13363399346E+04  0.21570499094E+04  0.15294330000E+03 0.  0.
<mgrwt>
<rscale>  0 0.16932395E+04</rscale>
<asrwt>0</asrwt>
<pdfrwt beam="1">  1        2 0.49162202E+00 0.16932395E+04</pdfrwt>
<pdfrwt beam="2">  1       -2 0.30831443E+00 0.16932395E+04</pdfrwt>
<totfact> 0.33856804E-02</totfact>
</mgrwt>
</event>
<event>
 4    1  0.1779709E-008  0.1105907E+04  0.7818608E-02  0.9199453E-01
         -2   -1    0    0    0  501 -0.00000000000E+00  0.00000000000E+00  0.12207975322E+04  0.12207975322E+04  0.25500000000E-02 0.  1.
          2   -1    0    0  501    0  0.00000000000E+00 -0.00000000000E+00 -0.19836533744E+04  0.19836533744E+04  0.25500000000E-02 0. -1.
    8880022    1    1    2    0    0  0.10827989486E+04 -0.16487972947E+03  0.74578928149E+03  0.13338786278E+04  0.15294330000E+03 0.  0.
    8880022    1    1    2    0    0 -0.10827989486E+04  0.16487972947E+03 -0.15086451236E+04  0.18705722788E+04  0.15294330000E+03 0.  0.
<mgrwt>
<rscale>  0 0.11059071E+04</rscale>
<asrwt>0</asrwt>
<pdfrwt beam="1">  1        2 0.30517744E+00 0.11059071E+04</pdfrwt>
<pdfrwt beam="2">  1       -2 0.18781501E+00 0.11059071E+04</pdfrwt>
<totfact> 0.10755067E+00</totfact>
</mgrwt>
</event>
<event>
 4    1  0.1726795E-008  0.9214622E+03  0.7818608E-02  0.9399143E-01
         -2   -1    0    0    0  501 -0.00000000000E+00  0.00000000000E+00  0.56343043093E+03  0.56343043094E+03  0.25500000000E-02 0.  1.
          2   -1    0    0  501    0  0.00000000000E+00 -0.00000000000E+00 -0.19243448556E+04  0.19243448556E+04  0.25500000000E-02 0. -1.
    8880022    1    1    2    0    0  0.65972969738E+03 -0.62486616182E+03 -0.12597317983E+04  0.15607744393E+04  0.15294330000E+03 0.  0.
    8880022    1    1    2    0    0 -0.65972969738E+03  0.62486616182E+03 -0.10118262633E+03  0.92700084719E+03  0.15294330000E+03 0.  0.
<mgrwt>
<rscale>  0 0.92146223E+03</rscale>
<asrwt>0</asrwt>
<pdfrwt beam="1">  1        2 0.29605305E+00 0.92146223E+03</pdfrwt>
<pdfrwt beam="2">  1       -2 0.86681606E-01 0.92146223E+03</pdfrwt>
<totfact> 0.85647072E+00</totfact>
</mgrwt>
</event>
<event>
 4    1  0.1726795E-008  0.8873976E+03  0.7818608E-02  0.9441474E-01
         -2   -1    0    0    0  501 -0.00000000000E+00  0.00000000000E+00  0.11170308275E+04  0.11170308275E+04  0.25500000000E-02 0.  1.
          2   -1    0    0  501    0  0.00000000000E+00 -0.00000000000E+00 -0.18814951200E+04  0.18814951200E+04  0.25500000000E-02 0. -1.
    8880022    1    1    2    0    0  0.57468086119E+03 -0.65865374794E+03  0.80333637006E+03  0.11970061939E+04  0.15294330000E+03 0.  0.
    8880022    1    1    2    0    0 -0.57468086119E+03  0.65865374794E+03 -0.15678006625E+04  0.18015197535E+04  0.15294330000E+03 0.  0.
<mgrwt>
<rscale>  0 0.88739760E+03</rscale>
<asrwt>0</asrwt>
<pdfrwt beam="1">  1        2 0.28946079E+00 0.88739760E+03</pdfrwt>
<pdfrwt beam="2">  1       -2 0.17185090E+00 0.88739760E+03</pdfrwt>
<totfact> 0.16283812E+00</totfact>
</mgrwt>
</event>
<event>
 4    1  0.1726795E-008  0.1454755E+04  0.7818608E-02  0.8915111E-01
          2   -1    0    0  501    0  0.00000000000E+00  0.00000000000E+00  0.20399229841E+04  0.20399229841E+04  0.25500000000E-02 0. -1.
         -2   -1    0    0    0  501 -0.00000000000E+00 -0.00000000000E+00 -0.14676503521E+04  0.14676503521E+04  0.25500000000E-02 0.  1.
    8880022    1    1    2    0    0  0.71538059037E+03 -0.12574383445E+04 -0.66337970175E+03  0.15988698699E+04  0.15294330000E+03 0.  0.
    8880022    1    1    2    0    0 -0.71538059037E+03  0.12574383445E+04  0.12356523338E+04  0.19087034663E+04  0.15294330000E+03 0.  0.
<mgrwt>
<rscale>  0 0.14547550E+04</rscale>
<asrwt>0</asrwt>
<pdfrwt beam="1">  1        2 0.31383430E+00 0.14547550E+04</pdfrwt>
<pdfrwt beam="2">  1       -2 0.22579236E+00 0.14547550E+04</pdfrwt>
<totfact> 0.54362183E-01</totfact>
</mgrwt>
</event>
<event>
 4    1  0.1726795E-008  0.7346344E+03  0.7818608E-02  0.9659770E-01
          2   -1    0    0  501    0  0.00000000000E+00  0.00000000000E+00  0.30205998806E+04  0.30205998806E+04  0.25500000000E-02 0. -1.
         -2   -1    0    0    0  501 -0.00000000000E+00 -0.00000000000E+00 -0.38460498169E+03  0.38460498170E+03  0.25500000000E-02 0.  1.
    8880022    1    1    2    0    0  0.70606863057E+03  0.13327830544E+03  0.25638650017E+04  0.26670379483E+04  0.15294330000E+03 0.  0.
    8880022    1    1    2    0    0 -0.70606863057E+03 -0.13327830544E+03  0.72129897176E+02  0.73816691395E+03  0.15294330000E+03 0.  0.
<mgrwt>
<rscale>  0 0.73463438E+03</rscale>
<asrwt>0</asrwt>
<pdfrwt beam="1">  1        2 0.46470767E+00 0.73463438E+03</pdfrwt>
<pdfrwt beam="2">  1       -2 0.59169998E-01 0.73463438E+03</pdfrwt>
<totfact> 0.48234849E+00</totfact>
</mgrwt>
</event>
<event>
 4    1  0.1726795E-008  0.8109457E+03  0.7818608E-02  0.9544307E-01
         -2   -1    0    0    0  501 -0.00000000000E+00  0.00000000000E+00  0.10865669608E+04  0.10865669608E+04  0.25500000000E-02 0.  1.
          2   -1    0    0  501    0  0.00000000000E+00 -0.00000000000E+00 -0.16434175346E+04  0.16434175346E+04  0.25500000000E-02 0. -1.
    8880022    1    1    2    0    0  0.54230454036E+03  0.58322124325E+03  0.80648096920E+03  0.11436977047E+04  0.15294330000E+03 0.  0.
    8880022    1    1    2    0    0 -0.54230454036E+03 -0.58322124325E+03 -0.13633315430E+04  0.15862867906E+04  0.15294330000E+03 0.  0.
<mgrwt>
<rscale>  0 0.81094567E+03</rscale>
<asrwt>0</asrwt>
<pdfrwt beam="1">  1        2 0.25283347E+00 0.81094567E+03</pdfrwt>
<pdfrwt beam="2">  1       -2 0.16716415E+00 0.81094567E+03</pdfrwt>
<totfact> 0.24039917E+00</totfact>
</mgrwt>
</event>
<event>
 4    1  0.1726795E-008  0.1680643E+03  0.7818608E-02  0.1179882E+00
          2   -1    0    0  501    0  0.00000000000E+00  0.00000000000E+00  0.35615583252E+04  0.35615583252E+04  0.25500000000E-02 0. -1.
         -2   -1    0    0    0  501 -0.00000000000E+00 -0.00000000000E+00 -0.27710393891E+02  0.27710394009E+02  0.25500000000E-02 0.  1.
    8880022    1    1    2    0    0 -0.57123889590E+02 -0.39885147350E+02  0.25069595162E+03  0.30181795327E+03  0.15294330000E+03 0.  0.
    8880022    1    1    2    0    0  0.57123889590E+02  0.39885147350E+02  0.32831519797E+04  0.32874507659E+04  0.15294330000E+03 0. -1.
<mgrwt>
<rscale>  0 0.16806432E+03</rscale>
<asrwt>0</asrwt>
<pdfrwt beam="1">  1        2 0.54793175E+00 0.16806432E+03</pdfrwt>
<pdfrwt beam="2">  1       -2 0.42631398E-02 0.16806432E+03</pdfrwt>
<totfact> 0.24052387E+02</totfact>
</mgrwt>
</event>
<event>
 4    1  0.1726795E-008  0.4622471E+03  0.7818608E-02  0.1024132E+00
          2   -1    0    0  501    0  0.00000000000E+00  0.00000000000E+00  0.10716797052E+04  0.10716797052E+04  0.25500000000E-02 0. -1.
         -2   -1    0    0    0  501 -0.00000000000E+00 -0.00000000000E+00 -0.25889052610E+03  0.25889052611E+03  0.25500000000E-02 0.  1.
    8880022    1    1    2    0    0  0.33347781386E+03  0.28119972835E+03  0.87429184143E+02  0.47044261586E+03  0.15294330000E+03 0.  1.
    8880022    1    1    2    0    0 -0.33347781386E+03 -0.28119972835E+03  0.72535999496E+03  0.86012761546E+03  0.15294330000E+03 0.  0.
<mgrwt>
<rscale>  0 0.46224711E+03</rscale>
<asrwt>0</asrwt>
<pdfrwt beam="1">  1        2 0.16487380E+00 0.46224711E+03</pdfrwt>
<pdfrwt beam="2">  1       -2 0.39829311E-01 0.46224711E+03</pdfrwt>
<totfact> 0.14047402E+02</totfact>
</mgrwt>
</event>
<event>
 4    1  0.1726795E-008  0.1319827E+04  0.7818608E-02  0.9013988E-01
          2   -1    0    0  501    0  0.00000000000E+00  0.00000000000E+00  0.15236134220E+04  0.15236134220E+04  0.25500000000E-02 0. -1.
         -2   -1    0    0    0  501 -0.00000000000E+00 -0.00000000000E+00 -0.17420198112E+04  0.17420198112E+04  0.25500000000E-02 0.  1.
    8880022    1    1    2    0    0  0.50663628911E+03  0.12090786517E+04  0.84804299582E+03  0.15687957455E+04  0.15294330000E+03 0.  0.
    8880022    1    1    2    0    0 -0.50663628911E+03 -0.12090786517E+04 -0.10664493850E+04  0.16968374876E+04  0.15294330000E+03 0.  0.
<mgrwt>
<rscale>  0 0.13198269E+04</rscale>
<asrwt>0</asrwt>
<pdfrwt beam="1">  1        2 0.23440207E+00 0.13198269E+04</pdfrwt>
<pdfrwt beam="2">  1       -2 0.26800305E+00 0.13198269E+04</pdfrwt>
<totfact> 0.58833348E-01</totfact>
</mgrwt>
</event>
<event>
 4    1  0.1726795E-008  0.1615601E+03  0.7818608E-02  0.1186947E+00
         -2   -1    0    0    0  501 -0.00000000000E+00  0.00000000000E+00  0.44251949965E+03  0.44251949965E+03  0.25500000000E-02 0.  1.
          2   -1    0    0  501    0  0.00000000000E+00 -0.00000000000E+00 -0.10257552187E+04  0.10257552187E+04  0.25500000000E-02 0. -1.
    8880022    1    1    2    0    0  0.51221302921E+02 -0.92948384725E+01 -0.10043350992E+04  0.10172466074E+04  0.15294330000E+03 0.  0.
    8880022    1    1    2    0    0 -0.51221302921E+02  0.92948384725E+01  0.42109938012E+03  0.45102811092E+03  0.15294330000E+03 0.  1.
<mgrwt>
<rscale>  0 0.16156011E+03</rscale>
<asrwt>0</asrwt>
<pdfrwt beam="1">  1        2 0.15780849E+00 0.16156011E+03</pdfrwt>
<pdfrwt beam="2">  1       -2 0.68079923E-01 0.16156011E+03</pdfrwt>
<totfact> 0.53820823E+01</totfact>
</mgrwt>
</event>
<event>
 4    1  0.1726795E-008  0.8789499E+03  0.7818608E-02  0.9452284E-01
          2   -1    0    0  501    0  0.00000000000E+00  0.00000000000E+00  0.46936931703E+04  0.46936931703E+04  0.25500000000E-02 0. -1.
         -2   -1    0    0    0  501 -0.00000000000E+00 -0.00000000000E+00 -0.35875801411E+03  0.35875801412E+03  0.25500000000E-02 0.  1.
    8880022    1    1    2    0    0 -0.65044498468E+03 -0.57103645667E+03  0.30899619266E+03  0.93168214163E+03  0.15294330000E+03 0.  0.
    8880022    1    1    2    0    0  0.65044498468E+03  0.57103645667E+03  0.40259389635E+04  0.41207690428E+04  0.15294330000E+03 0.  0.
<mgrwt>
<rscale>  0 0.87894992E+03</rscale>
<asrwt>0</asrwt>
<pdfrwt beam="1">  1        2 0.72210666E+00 0.87894992E+03</pdfrwt>
<pdfrwt beam="2">  1       -2 0.55193539E-01 0.87894992E+03</pdfrwt>
<totfact> 0.26875744E-01</totfact>
</mgrwt>
</event>
<event>
 4    1  0.1726795E-008  0.6053818E+03  0.7818608E-02  0.9894303E-01
         -2   -1    0    0    0  501 -0.00000000000E+00  0.00000000000E+00  0.79736743680E+03  0.79736743681E+03  0.25500000000E-02 0.  1.
          2   -1    0    0  501    0  0.00000000000E+00 -0.00000000000E+00 -0.89712100876E+03  0.89712100876E+03  0.25500000000E-02 0. -1.
    8880022    1    1    2    0    0  0.54493031719E+03 -0.21481721198E+03 -0.64153641481E+03  0.88207488894E+03  0.15294330000E+03 0.  0.
    8880022    1    1    2    0    0 -0.54493031719E+03  0.21481721198E+03  0.54178284286E+03  0.81241355662E+03  0.15294330000E+03 0.  0.
<mgrwt>
<rscale>  0 0.60538181E+03</rscale>
<asrwt>0</asrwt>
<pdfrwt beam="1">  1        2 0.13801862E+00 0.60538181E+03</pdfrwt>
<pdfrwt beam="2">  1       -2 0.12267191E+00 0.60538181E+03</pdfrwt>
<totfact> 0.15298666E+01</totfact>
</mgrwt>
</event>
<event>
 4    1  0.1726795E-008  0.9783886E+03  0.7818608E-02  0.9332571E-01
          2   -1    0    0  501    0  0.00000000000E+00  0.00000000000E+00  0.15418942917E+04  0.15418942917E+04  0.25500000000E-02 0. -1.
         -2   -1    0    0    0  501 -0.00000000000E+00 -0.00000000000E+00 -0.11066950796E+04  0.11066950796E+04  0.25500000000E-02 0.  1.
    8880022    1    1    2    0    0 -0.17009149586E+03  0.95127361485E+03  0.10950677944E+04  0.14684746285E+04  0.15294330000E+03 0.  0.
    8880022    1    1    2    0    0  0.17009149586E+03 -0.95127361485E+03 -0.65986858228E+03  0.11801147428E+04  0.15294330000E+03 0.  0.
<mgrwt>
<rscale>  0 0.97838860E+03</rscale>
<asrwt>0</asrwt>
<pdfrwt beam="1">  1        2 0.23721451E+00 0.97838860E+03</pdfrwt>
<pdfrwt beam="2">  1       -2 0.17026078E+00 0.97838860E+03</pdfrwt>
<totfact> 0.25400543E+00</totfact>
</mgrwt>
</event>
<event>
 4    1  0.1726795E-008  0.4572375E+03  0.7818608E-02  0.1025585E+00
         -2   -1    0    0    0  501 -0.00000000000E+00  0.00000000000E+00  0.11580575142E+04  0.11580575142E+04  0.25500000000E-02 0.  1.
          2   -1    0    0  501    0  0.00000000000E+00 -0.00000000000E+00 -0.23832626339E+04  0.23832626339E+04  0.25500000000E-02 0. -1.
    8880022    1    1    2    0    0  0.19419454605E+03  0.38465958844E+03 -0.23148785008E+04  0.23596034937E+04  0.15294330000E+03 0.  0.
    8880022    1    1    2    0    0 -0.19419454605E+03 -0.38465958844E+03  0.10896733812E+04  0.11817166544E+04  0.15294330000E+03 0.  0.
<mgrwt>
<rscale>  0 0.45723755E+03</rscale>
<asrwt>0</asrwt>
<pdfrwt beam="1">  1        2 0.36665579E+00 0.45723755E+03</pdfrwt>
<pdfrwt beam="2">  1       -2 0.17816269E+00 0.45723755E+03</pdfrwt>
<totfact> 0.86640936E-01</totfact>
</mgrwt>
</event>
<event>
 4    1  0.1726795E-008  0.2053523E+04  0.7818608E-02  0.8581998E-01
         -2   -1    0    0    0  501 -0.00000000000E+00  0.00000000000E+00  0.21487383675E+04  0.21487383675E+04  0.25500000000E-02 0.  1.
          2   -1    0    0  501    0  0.00000000000E+00 -0.00000000000E+00 -0.24934006178E+04  0.24934006178E+04  0.25500000000E-02 0. -1.
    8880022    1    1    2    0    0 -0.70084253476E+03 -0.19241582533E+04  0.89866454596E+03  0.22415518868E+04  0.15294330000E+03 0.  0.
    8880022    1    1    2    0    0  0.70084253476E+03  0.19241582533E+04 -0.12433267963E+04  0.24005870985E+04  0.15294330000E+03 0.  0.
<mgrwt>
<rscale>  0 0.20535230E+04</rscale>
<asrwt>0</asrwt>
<pdfrwt beam="1">  1        2 0.38360010E+00 0.20535230E+04</pdfrwt>
<pdfrwt beam="2">  1       -2 0.33057513E+00 0.20535230E+04</pdfrwt>
<totfact> 0.63653707E-02</totfact>
</mgrwt>
</event>
<event>
 4    1  0.1726795E-008  0.1042266E+04  0.7818608E-02  0.9263366E-01
          2   -1    0    0  501    0  0.00000000000E+00  0.00000000000E+00  0.24511283850E+04  0.24511283850E+04  0.25500000000E-02 0. -1.
         -2   -1    0    0    0  501 -0.00000000000E+00 -0.00000000000E+00 -0.62765270058E+03  0.62765270059E+03  0.25500000000E-02 0.  1.
    8880022    1    1    2    0    0  0.10309368072E+04 -0.97738522052E+01  0.17462684954E+04  0.20336596421E+04  0.15294330000E+03 0.  0.
    8880022    1    1    2    0    0 -0.10309368072E+04  0.97738522052E+01  0.77207188979E+02  0.10451214435E+04  0.15294330000E+03 0.  0.
<mgrwt>
<rscale>  0 0.10422657E+04</rscale>
<asrwt>0</asrwt>
<pdfrwt beam="1">  1        2 0.37709667E+00 0.10422657E+04</pdfrwt>
<pdfrwt beam="2">  1       -2 0.96561955E-01 0.10422657E+04</pdfrwt>
<totfact> 0.33402217E+00</totfact>
</mgrwt>
</event>
<event>
 4    1  0.1726795E-008  0.6802417E+03  0.7818608E-02  0.9751631E-01
          2   -1    0    0  501    0  0.00000000000E+00  0.00000000000E+00  0.15404806511E+04  0.15404806511E+04  0.25500000000E-02 0. -1.
         -2   -1    0    0    0  501 -0.00000000000E+00 -0.00000000000E+00 -0.53964294818E+03  0.53964294819E+03  0.25500000000E-02 0.  1.
    8880022    1    1    2    0    0  0.65506512076E+03 -0.10112739093E+03 -0.19211997372E+03  0.70685132733E+03  0.15294330000E+03 0.  0.
    8880022    1    1    2    0    0 -0.65506512076E+03  0.10112739093E+03  0.11929576766E+04  0.13732722719E+04  0.15294330000E+03 0. -1.
<mgrwt>
<rscale>  0 0.68024166E+03</rscale>
<asrwt>0</asrwt>
<pdfrwt beam="1">  1        2 0.23699702E+00 0.68024166E+03</pdfrwt>
<pdfrwt beam="2">  1       -2 0.83021992E-01 0.68024166E+03</pdfrwt>
<totfact> 0.15840632E+01</totfact>
</mgrwt>
</event>
<event>
 4    1  0.1726795E-008  0.4465426E+03  0.7818608E-02  0.1028758E+00
         -2   -1    0    0    0  501 -0.00000000000E+00  0.00000000000E+00  0.20343330009E+03  0.20343330010E+03  0.25500000000E-02 0.  1.
          2   -1    0    0  501    0  0.00000000000E+00 -0.00000000000E+00 -0.37681831768E+04  0.37681831768E+04  0.25500000000E-02 0. -1.
    8880022    1    1    2    0    0  0.27448653700E+03  0.31727875351E+03 -0.74255267189E+02  0.45267445713E+03  0.15294330000E+03 0.  0.
    8880022    1    1    2    0    0 -0.27448653700E+03 -0.31727875351E+03 -0.34904946096E+04  0.35189420198E+04  0.15294330000E+03 0.  0.
<mgrwt>
<rscale>  0 0.44654263E+03</rscale>
<asrwt>0</asrwt>
<pdfrwt beam="1">  1        2 0.57972044E+00 0.44654263E+03</pdfrwt>
<pdfrwt beam="2">  1       -2 0.31297434E-01 0.44654263E+03</pdfrwt>
<totfact> 0.58462530E+00</totfact>
</mgrwt>
</event>
<event>
 4    1  0.1726795E-008  0.1489575E+04  0.7818608E-02  0.8891415E-01
          2   -1    0    0  501    0  0.00000000000E+00  0.00000000000E+00  0.32251856926E+04  0.32251856926E+04  0.25500000000E-02 0. -1.
         -2   -1    0    0    0  501 -0.00000000000E+00 -0.00000000000E+00 -0.14779286826E+04  0.14779286826E+04  0.25500000000E-02 0.  1.
    8880022    1    1    2    0    0 -0.30444841701E+03 -0.14500874170E+04  0.25928456679E+04  0.29902646482E+04  0.15294330000E+03 0. -1.
    8880022    1    1    2    0    0  0.30444841701E+03  0.14500874170E+04 -0.84558865795E+03  0.17128497269E+04  0.15294330000E+03 0.  0.
<mgrwt>
<rscale>  0 0.14895751E+04</rscale>
<asrwt>0</asrwt>
<pdfrwt beam="1">  1        2 0.49618241E+00 0.14895751E+04</pdfrwt>
<pdfrwt beam="2">  1       -2 0.22737364E+00 0.14895751E+04</pdfrwt>
<totfact> 0.10472292E-01</totfact>
</mgrwt>
</event>
<event>
 4    1  0.1726795E-008  0.6182137E+03  0.7818608E-02  0.9868323E-01
          2   -1    0    0  501    0  0.00000000000E+00  0.00000000000E+00  0.43388978790E+04  0.43388978790E+04  0.25500000000E-02 0. -1.
         -2   -1    0    0    0  501 -0.00000000000E+00 -0.00000000000E+00 -0.55195970130E+03  0.55195970130E+03  0.25500000000E-02 0.  1.
    8880022    1    1    2    0    0 -0.49490616867E+03 -0.33743806136E+03 -0.34835777104E+03  0.70960647594E+03  0.15294330000E+03 0.  0.
    8880022    1    1    2    0    0  0.49490616867E+03  0.33743806136E+03  0.41352959487E+04  0.41812511043E+04  0.15294330000E+03 0.  0.
<mgrwt>
<rscale>  0 0.61821373E+03</rscale>
<asrwt>0</asrwt>
<pdfrwt beam="1">  1        2 0.66752275E+00 0.61821373E+03</pdfrwt>
<pdfrwt beam="2">  1       -2 0.84916877E-01 0.61821373E+03</pdfrwt>
<totfact> 0.24975592E-01</totfact>
</mgrwt>
</event>
<event>
 4    1  0.1726795E-008  0.7276207E+03  0.7818608E-02  0.9671129E-01
          2   -1    0    0  501    0  0.00000000000E+00  0.00000000000E+00  0.11233882326E+04  0.11233882326E+04  0.25500000000E-02 0. -1.
         -2   -1    0    0    0  501 -0.00000000000E+00 -0.00000000000E+00 -0.20064946883E+04  0.20064946883E+04  0.25500000000E-02 0.  1.
    8880022    1    1    2    0    0  0.69158026914E+03  0.16660438240E+03 -0.18104271641E+04  0.19511736105E+04  0.15294330000E+03 0.  0.
    8880022    1    1    2    0    0 -0.69158026914E+03 -0.16660438240E+03  0.92732070842E+03  0.11787093103E+04  0.15294330000E+03 0.  0.
<mgrwt>
<rscale>  0 0.72762074E+03</rscale>
<asrwt>0</asrwt>
<pdfrwt beam="1">  1        2 0.17282896E+00 0.72762074E+03</pdfrwt>
<pdfrwt beam="2">  1       -2 0.30869149E+00 0.72762074E+03</pdfrwt>
<totfact> 0.62523054E-01</totfact>
</mgrwt>
</event>
<event>
 4    1  0.1726795E-008  0.1891543E+04  0.7818608E-02  0.8659077E-01
         -2   -1    0    0    0  501 -0.00000000000E+00  0.00000000000E+00  0.10389423112E+04  0.10389423112E+04  0.25500000000E-02 0.  1.
          2   -1    0    0  501    0  0.00000000000E+00 -0.00000000000E+00 -0.37649881468E+04  0.37649881468E+04  0.25500000000E-02 0. -1.
    8880022    1    1    2    0    0 -0.55967602931E+03  0.18003626652E+04 -0.66148955970E+03  0.20038720205E+04  0.15294330000E+03 0.  0.
    8880022    1    1    2    0    0  0.55967602931E+03 -0.18003626652E+04 -0.20645562759E+04  0.28000584375E+04  0.15294330000E+03 0.  0.
<mgrwt>
<rscale>  0 0.18915429E+04</rscale>
<asrwt>0</asrwt>
<pdfrwt beam="1">  1        2 0.57922894E+00 0.18915429E+04</pdfrwt>
<pdfrwt beam="2">  1       -2 0.15983728E+00 0.18915429E+04</pdfrwt>
<totfact> 0.12025077E-01</totfact>
</mgrwt>
</event>
<event>
 4    1  0.1726795E-008  0.5199365E+03  0.7818608E-02  0.1008702E+00
         -2   -1    0    0    0  501 -0.00000000000E+00  0.00000000000E+00  0.17658965792E+03  0.17658965794E+03  0.25500000000E-02 0.  1.
          2   -1    0    0  501    0  0.00000000000E+00 -0.00000000000E+00 -0.29362480472E+04  0.29362480472E+04  0.25500000000E-02 0. -1.
    8880022    1    1    2    0    0  0.47482598801E+03 -0.14656935827E+03 -0.24566125238E+04  0.25110314694E+04  0.15294330000E+03 0.  0.
    8880022    1    1    2    0    0 -0.47482598801E+03  0.14656935827E+03 -0.30304586549E+03  0.60180623566E+03  0.15294330000E+03 0.  0.
<mgrwt>
<rscale>  0 0.51993649E+03</rscale>
<asrwt>0</asrwt>
<pdfrwt beam="1">  1        2 0.45173043E+00 0.51993649E+03</pdfrwt>
<pdfrwt beam="2">  1       -2 0.27167642E-01 0.51993649E+03</pdfrwt>
<totfact> 0.25941436E+01</totfact>
</mgrwt>
</event>
<event>
 4    1  0.1726795E-008  0.6355807E+03  0.7818608E-02  0.9834219E-01
         -2   -1    0    0    0  501 -0.00000000000E+00  0.00000000000E+00  0.40301071766E+03  0.40301071767E+03  0.25500000000E-02 0.  1.
          2   -1    0    0  501    0  0.00000000000E+00 -0.00000000000E+00 -0.15016732906E+04  0.15016732906E+04  0.25500000000E-02 0. -1.
    8880022    1    1    2    0    0  0.27933569280E+03 -0.55003882780E+03 -0.18161707192E+00  0.63558070090E+03  0.15294330000E+03 0.  0.
    8880022    1    1    2    0    0 -0.27933569280E+03  0.55003882780E+03 -0.10984809559E+04  0.12691033074E+04  0.15294330000E+03 0.  0.
<mgrwt>
<rscale>  0 0.63558067E+03</rscale>
<asrwt>0</asrwt>
<pdfrwt beam="1">  1        2 0.23102666E+00 0.63558067E+03</pdfrwt>
<pdfrwt beam="2">  1       -2 0.62001650E-01 0.63558067E+03</pdfrwt>
<totfact> 0.31751927E+01</totfact>
</mgrwt>
</event>
<event>
 4    1  0.1726795E-008  0.1363958E+04  0.7818608E-02  0.8980329E-01
         -2   -1    0    0    0  501 -0.00000000000E+00  0.00000000000E+00  0.66618590746E+03  0.66618590747E+03  0.25500000000E-02 0.  1.
          2   -1    0    0  501    0  0.00000000000E+00 -0.00000000000E+00 -0.36536886581E+04  0.36536886581E+04  0.25500000000E-02 0. -1.
    8880022    1    1    2    0    0 -0.13182288010E+04  0.31506039426E+03 -0.44516871604E+03  0.14347672503E+04  0.15294330000E+03 0.  0.
    8880022    1    1    2    0    0  0.13182288010E+04 -0.31506039426E+03 -0.25423340346E+04  0.28851073152E+04  0.15294330000E+03 0.  0.
<mgrwt>
<rscale>  0 0.13639582E+04</rscale>
<asrwt>0</asrwt>
<pdfrwt beam="1">  1        2 0.56210594E+00 0.13639582E+04</pdfrwt>
<pdfrwt beam="2">  1       -2 0.10249014E+00 0.13639582E+04</pdfrwt>
<totfact> 0.48215616E-01</totfact>
</mgrwt>
</event>
<event>
 4    1  0.1726795E-008  0.2938825E+03  0.7818608E-02  0.1088339E+00
          2   -1    0    0  501    0  0.00000000000E+00  0.00000000000E+00  0.41825739470E+03  0.41825739470E+03  0.25500000000E-02 0. -1.
         -2   -1    0    0    0  501 -0.00000000000E+00 -0.00000000000E+00 -0.45317856294E+03  0.45317856294E+03  0.25500000000E-02 0.  1.
    8880022    1    1    2    0    0  0.23005404888E+03  0.10025182518E+03 -0.33893265794E+03  0.44860037170E+03  0.15294330000E+03 0.  1.
    8880022    1    1    2    0    0 -0.23005404888E+03 -0.10025182518E+03  0.30401148970E+03  0.42283558595E+03  0.15294330000E+03 0.  0.
<mgrwt>
<rscale>  0 0.29388254E+03</rscale>
<asrwt>0</asrwt>
<pdfrwt beam="1">  1        2 0.64347292E-01 0.29388254E+03</pdfrwt>
<pdfrwt beam="2">  1       -2 0.69719778E-01 0.29388254E+03</pdfrwt>
<totfact> 0.14727573E+02</totfact>
</mgrwt>
</event>
<event>
 4    1  0.1726795E-008  0.3989603E+03  0.7818608E-02  0.1044140E+00
          2   -1    0    0  501    0  0.00000000000E+00  0.00000000000E+00  0.31992140005E+04  0.31992140005E+04  0.25500000000E-02 0. -1.
         -2   -1    0    0    0  501 -0.00000000000E+00 -0.00000000000E+00 -0.23086163378E+03  0.23086163380E+03  0.25500000000E-02 0.  1.
    8880022    1    1    2    0    0  0.50737786390E+02 -0.36497030912E+03 -0.34859032477E+02  0.40048028000E+03  0.15294330000E+03 0.  0.
    8880022    1    1    2    0    0 -0.50737786390E+02  0.36497030912E+03  0.30032113992E+04  0.30295953543E+04  0.15294330000E+03 0.  0.
<mgrwt>
<rscale>  0 0.39896028E+03</rscale>
<asrwt>0</asrwt>
<pdfrwt beam="1">  1        2 0.49218673E+00 0.39896028E+03</pdfrwt>
<pdfrwt beam="2">  1       -2 0.35517178E-01 0.39896028E+03</pdfrwt>
<totfact> 0.11297924E+01</totfact>
</mgrwt>
</event>
<event>
 4    1  0.1726795E-008  0.5578038E+03  0.7818608E-02  0.9997036E-01
         -2   -1    0    0    0  501 -0.00000000000E+00  0.00000000000E+00  0.64240683642E+03  0.64240683643E+03  0.25500000000E-02 0.  1.
          2   -1    0    0  501    0  0.00000000000E+00 -0.00000000000E+00 -0.79164485630E+03  0.79164485630E+03  0.25500000000E-02 0. -1.
    8880022    1    1    2    0    0 -0.24019528342E+02  0.53588851521E+03 -0.52135648439E+03  0.76351665031E+03  0.15294330000E+03 0.  0.
    8880022    1    1    2    0    0  0.24019528342E+02 -0.53588851521E+03  0.37211846451E+03  0.67053504242E+03  0.15294330000E+03 0.  0.
<mgrwt>
<rscale>  0 0.55780381E+03</rscale>
<asrwt>0</asrwt>
<pdfrwt beam="1">  1        2 0.12179152E+00 0.55780381E+03</pdfrwt>
<pdfrwt beam="2">  1       -2 0.98831821E-01 0.55780381E+03</pdfrwt>
<totfact> 0.30682440E+01</totfact>
</mgrwt>
</event>
<event>
 4    1  0.1726795E-008  0.1103757E+04  0.7818608E-02  0.9201537E-01
          2   -1    0    0  501    0  0.00000000000E+00  0.00000000000E+00  0.31614828540E+04  0.31614828540E+04  0.25500000000E-02 0. -1.
         -2   -1    0    0    0  501 -0.00000000000E+00 -0.00000000000E+00 -0.67883669852E+03  0.67883669853E+03  0.25500000000E-02 0.  1.
    8880022    1    1    2    0    0 -0.10825588264E+04  0.15150966276E+03 -0.21225842321E+02  0.11039614939E+04  0.15294330000E+03 0.  0.
    8880022    1    1    2    0    0  0.10825588264E+04 -0.15150966276E+03  0.25038719978E+04  0.27363580586E+04  0.15294330000E+03 0.  0.
<mgrwt>
<rscale>  0 0.11037574E+04</rscale>
<asrwt>0</asrwt>
<pdfrwt beam="1">  1        2 0.48638196E+00 0.11037574E+04</pdfrwt>
<pdfrwt beam="2">  1       -2 0.10443642E+00 0.11037574E+04</pdfrwt>
<totfact> 0.10298043E+00</totfact>
</mgrwt>
</event>
<event>
 4    1  0.1726795E-008  0.7532987E+03  0.7818608E-02  0.9630189E-01
          2   -1    0    0  501    0  0.00000000000E+00  0.00000000000E+00  0.22884448633E+04  0.22884448633E+04  0.25500000000E-02 0. -1.
         -2   -1    0    0    0  501 -0.00000000000E+00 -0.00000000000E+00 -0.84639086509E+03  0.84639086510E+03  0.25500000000E-02 0.  1.
    8880022    1    1    2    0    0  0.68430527626E+03  0.27530638252E+03  0.20389915685E+04  0.21736939953E+04  0.15294330000E+03 0.  0.
    8880022    1    1    2    0    0 -0.68430527626E+03 -0.27530638252E+03 -0.59693757032E+03  0.96114173317E+03  0.15294330000E+03 0.  0.
<mgrwt>
<rscale>  0 0.75329872E+03</rscale>
<asrwt>0</asrwt>
<pdfrwt beam="1">  1        2 0.35206844E+00 0.75329872E+03</pdfrwt>
<pdfrwt beam="2">  1       -2 0.13021398E+00 0.75329872E+03</pdfrwt>
<totfact> 0.20784095E+00</totfact>
</mgrwt>
</event>
<event>
 4    1  0.1726795E-008  0.7499493E+03  0.7818608E-02  0.9635430E-01
         -2   -1    0    0    0  501 -0.00000000000E+00  0.00000000000E+00  0.94355292563E+03  0.94355292563E+03  0.25500000000E-02 0.  1.
          2   -1    0    0  501    0  0.00000000000E+00 -0.00000000000E+00 -0.12636004605E+04  0.12636004605E+04  0.25500000000E-02 0. -1.
    8880022    1    1    2    0    0  0.63252258695E+03  0.37275653612E+03 -0.96213217066E+03  0.12198861525E+04  0.15294330000E+03 0.  0.
    8880022    1    1    2    0    0 -0.63252258695E+03 -0.37275653612E+03  0.64208463575E+03  0.98726723368E+03  0.15294330000E+03 0.  1.
<mgrwt>
<rscale>  0 0.74994927E+03</rscale>
<asrwt>0</asrwt>
<pdfrwt beam="1">  1        2 0.19440007E+00 0.74994927E+03</pdfrwt>
<pdfrwt beam="2">  1       -2 0.14516199E+00 0.74994927E+03</pdfrwt>
<totfact> 0.57979831E+00</totfact>
</mgrwt>
</event>
<event>
 4    1  0.1726795E-008  0.1400133E+04  0.7818608E-02  0.8953722E-01
          2   -1    0    0  501    0  0.00000000000E+00  0.00000000000E+00  0.16805635605E+04  0.16805635605E+04  0.25500000000E-02 0. -1.
         -2   -1    0    0    0  501 -0.00000000000E+00 -0.00000000000E+00 -0.29346843887E+04  0.29346843887E+04  0.25500000000E-02 0.  1.
    8880022    1    1    2    0    0  0.13419732789E+04  0.36890123227E+03  0.11641578447E+04  0.18208886679E+04  0.15294330000E+03 0.  0.
    8880022    1    1    2    0    0 -0.13419732789E+04 -0.36890123227E+03 -0.24182786729E+04  0.27943592813E+04  0.15294330000E+03 0.  0.
<mgrwt>
<rscale>  0 0.14001329E+04</rscale>
<asrwt>0</asrwt>
<pdfrwt beam="1">  1        2 0.25854824E+00 0.14001329E+04</pdfrwt>
<pdfrwt beam="2">  1       -2 0.45148991E+00 0.14001329E+04</pdfrwt>
<totfact> 0.32486765E-02</totfact>
</mgrwt>
</event>
<event>
 4    1  0.1726795E-008  0.8666568E+03  0.7818608E-02  0.9468250E-01
          2   -1    0    0  501    0  0.00000000000E+00  0.00000000000E+00  0.89758702658E+03  0.89758702659E+03  0.25500000000E-02 0. -1.
         -2   -1    0    0    0  501 -0.00000000000E+00 -0.00000000000E+00 -0.12482287532E+04  0.12482287532E+04  0.25500000000E-02 0.  1.
    8880022    1    1    2    0    0 -0.65188999315E+03  0.55021970358E+03  0.44065928532E+03  0.97225230477E+03  0.15294330000E+03 0.  0.
    8880022    1    1    2    0    0  0.65188999315E+03 -0.55021970358E+03 -0.79130101193E+03  0.11735634750E+04  0.15294330000E+03 0.  0.
<mgrwt>
<rscale>  0 0.86665676E+03</rscale>
<asrwt>0</asrwt>
<pdfrwt beam="1">  1        2 0.13809031E+00 0.86665676E+03</pdfrwt>
<pdfrwt beam="2">  1       -2 0.19203519E+00 0.86665676E+03</pdfrwt>
<totfact> 0.44502983E+00</totfact>
</mgrwt>
</event>
<event>
 4    1  0.1726795E-008  0.5372563E+03  0.7818608E-02  0.1004487E+00
         -2   -1    0    0    0  501 -0.00000000000E+00  0.00000000000E+00  0.99500757422E+03  0.99500757422E+03  0.25500000000E-02 0.  1.
          2   -1    0    0  501    0  0.00000000000E+00 -0.00000000000E+00 -0.28845982169E+04  0.28845982169E+04  0.25500000000E-02 0. -1.
    8880022    1    1    2    0    0  0.88676699388E+02  0.50733532998E+03  0.89488449857E+03  0.10437732574E+04  0.15294330000E+03 0.  1.
    8880022    1    1    2    0    0 -0.88676699388E+02 -0.50733532998E+03 -0.27844751413E+04  0.28358325337E+04  0.15294330000E+03 0.  0.
<mgrwt>
<rscale>  0 0.53725631E+03</rscale>
<asrwt>0</asrwt>
<pdfrwt beam="1">  1        2 0.44378434E+00 0.53725631E+03</pdfrwt>
<pdfrwt beam="2">  1       -2 0.15307809E+00 0.53725631E+03</pdfrwt>
<totfact> 0.65906620E-01</totfact>
</mgrwt>
</event>
<event>
 4    1  0.1726795E-008  0.4802271E+03  0.7818608E-02  0.1019073E+00
         -2   -1    0    0    0  501 -0.00000000000E+00  0.00000000000E+00  0.11152185551E+04  0.11152185551E+04  0.25500000000E-02 0.  1.
          2   -1    0    0  501    0  0.00000000000E+00 -0.00000000000E+00 -0.47214046679E+03  0.47214046680E+03  0.25500000000E-02 0. -1.
    8880022    1    1    2    0    0  0.44806887321E+03 -0.80378608045E+02 -0.27346235194E+03  0.55262984602E+03  0.15294330000E+03 0.  0.
    8880022    1    1    2    0    0 -0.44806887321E+03  0.80378608045E+02  0.91654044021E+03  0.10347291758E+04  0.15294330000E+03 0.  1.
<mgrwt>
<rscale>  0 0.48022712E+03</rscale>
<asrwt>0</asrwt>
<pdfrwt beam="1">  1        2 0.72636995E-01 0.48022712E+03</pdfrwt>
<pdfrwt beam="2">  1       -2 0.17157208E+00 0.48022712E+03</pdfrwt>
<totfact> 0.14330894E+01</totfact>
</mgrwt>
</event>
<event>
 4    1  0.1726795E-008  0.1030991E+04  0.7818608E-02  0.9275192E-01
          2   -1    0    0  501    0  0.00000000000E+00  0.00000000000E+00  0.13338746835E+04  0.13338746835E+04  0.25500000000E-02 0. -1.
         -2   -1    0    0    0  501 -0.00000000000E+00 -0.00000000000E+00 -0.10704054707E+04  0.10704054707E+04  0.25500000000E-02 0.  1.
    8880022    1    1    2    0    0 -0.80426809601E+03  0.62666129831E+03  0.73941711914E+03  0.12687319978E+04  0.15294330000E+03 0.  0.
    8880022    1    1    2    0    0  0.80426809601E+03 -0.62666129831E+03 -0.47594790633E+03  0.11355481565E+04  0.15294330000E+03 0.  0.
<mgrwt>
<rscale>  0 0.10309914E+04</rscale>
<asrwt>0</asrwt>
<pdfrwt beam="1">  1        2 0.20521149E+00 0.10309914E+04</pdfrwt>
<pdfrwt beam="2">  1       -2 0.16467777E+00 0.10309914E+04</pdfrwt>
<totfact> 0.36339012E+00</totfact>
</mgrwt>
</event>
<event>
 4    1  0.1726795E-008  0.7599199E+03  0.7818608E-02  0.9619915E-01
          2   -1    0    0  501    0  0.00000000000E+00  0.00000000000E+00  0.35226664679E+04  0.35226664679E+04  0.25500000000E-02 0. -1.
         -2   -1    0    0    0  501 -0.00000000000E+00 -0.00000000000E+00 -0.64331364126E+03  0.64331364126E+03  0.25500000000E-02 0.  1.
    8880022    1    1    2    0    0  0.21913920619E+03  0.71138219588E+03  0.32377872110E+04  0.33257697300E+04  0.15294330000E+03 0. -1.
    8880022    1    1    2    0    0 -0.21913920619E+03 -0.71138219588E+03 -0.35843438437E+03  0.84021037914E+03  0.15294330000E+03 0.  0.
<mgrwt>
<rscale>  0 0.75991991E+03</rscale>
<asrwt>0</asrwt>
<pdfrwt beam="1">  1        2 0.54194868E+00 0.75991991E+03</pdfrwt>
<pdfrwt beam="2">  1       -2 0.98971332E-01 0.75991991E+03</pdfrwt>
<totfact> 0.72122588E-01</totfact>
</mgrwt>
</event>
<event>
 4    1  0.1726795E-008  0.5714717E+03  0.7818608E-02  0.9966427E-01
          2   -1    0    0  501    0  0.00000000000E+00  0.00000000000E+00  0.54593133740E+03  0.54593133741E+03  0.25500000000E-02 0. -1.
         -2   -1    0    0    0  501 -0.00000000000E+00 -0.00000000000E+00 -0.70213212962E+03  0.70213212962E+03  0.25500000000E-02 0.  1.
    8880022    1    1    2    0    0 -0.54154041091E+03  0.99610532005E+02  0.16198050639E+03  0.59398452185E+03  0.15294330000E+03 0.  0.
    8880022    1    1    2    0    0  0.54154041091E+03 -0.99610532005E+02 -0.31818129860E+03  0.65407894518E+03  0.15294330000E+03 0.  1.
<mgrwt>
<rscale>  0 0.57147172E+03</rscale>
<asrwt>0</asrwt>
<pdfrwt beam="1">  1        2 0.83989436E-01 0.57147172E+03</pdfrwt>
<pdfrwt beam="2">  1       -2 0.10802033E+00 0.57147172E+03</pdfrwt>
<totfact> 0.39179705E+01</totfact>
</mgrwt>
</event>
<event>
 4    1  0.1726795E-008  0.9243869E+03  0.7818608E-02  0.9395600E-01
         -2   -1    0    0    0  501 -0.00000000000E+00  0.00000000000E+00  0.22936892619E+04  0.22936892619E+04  0.25500000000E-02 0.  1.
          2   -1    0    0  501    0  0.00000000000E+00 -0.00000000000E+00 -0.19127353740E+04  0.19127353740E+04  0.25500000000E-02 0. -1.
    8880022    1    1    2    0    0 -0.84143747565E+03 -0.35083108846E+03  0.20777883774E+04  0.22741362475E+04  0.15294330000E+03 0.  0.
    8880022    1    1    2    0    0  0.84143747565E+03  0.35083108846E+03 -0.16968344895E+04  0.19322883884E+04  0.15294330000E+03 0.  0.
<mgrwt>
<rscale>  0 0.92438689E+03</rscale>
<asrwt>0</asrwt>
<pdfrwt beam="1">  1        2 0.29426698E+00 0.92438689E+03</pdfrwt>
<pdfrwt beam="2">  1       -2 0.35287527E+00 0.92438689E+03</pdfrwt>
<totfact> 0.11518564E-01</totfact>
</mgrwt>
</event>
<event>
 4    1  0.1867269E-008  0.7247483E+03  0.7818608E-02  0.9675821E-01
          2   -1    0    0  501    0  0.00000000000E+00  0.00000000000E+00  0.22398876410E+04  0.22398876410E+04  0.25500000000E-02 0. -1.
         -2   -1    0    0    0  501 -0.00000000000E+00 -0.00000000000E+00 -0.13501005043E+04  0.13501005043E+04  0.25500000000E-02 0.  1.
    8880022    1    1    2    0    0  0.14650053338E+03  0.69311326963E+03  0.20765689567E+04  0.21994087150E+04  0.15294330000E+03 0.  0.
    8880022    1    1    2    0    0 -0.14650053338E+03 -0.69311326963E+03 -0.11867818200E+04  0.13905794303E+04  0.15294330000E+03 0.  0.
<mgrwt>
<rscale>  0 0.72474828E+03</rscale>
<asrwt>0</asrwt>
<pdfrwt beam="1">  1        2 0.34459810E+00 0.72474828E+03</pdfrwt>
<pdfrwt beam="2">  1       -2 0.20770777E+00 0.72474828E+03</pdfrwt>
<totfact> 0.61442285E-01</totfact>
</mgrwt>
</event>
<event>
 4    1  0.1726795E-008  0.1080620E+04  0.7818608E-02  0.9224290E-01
          2   -1    0    0  501    0  0.00000000000E+00  0.00000000000E+00  0.20027404857E+04  0.20027404857E+04  0.25500000000E-02 0. -1.
         -2   -1    0    0    0  501 -0.00000000000E+00 -0.00000000000E+00 -0.11530656308E+04  0.11530656308E+04  0.25500000000E-02 0.  1.
    8880022    1    1    2    0    0  0.10642409980E+04  0.10834659422E+03  0.15342389429E+04  0.18766002966E+04  0.15294330000E+03 0.  0.
    8880022    1    1    2    0    0 -0.10642409980E+04 -0.10834659422E+03 -0.68456408794E+03  0.12792058200E+04  0.15294330000E+03 0.  0.
<mgrwt>
<rscale>  0 0.10806200E+04</rscale>
<asrwt>0</asrwt>
<pdfrwt beam="1">  1        2 0.30811392E+00 0.10806200E+04</pdfrwt>
<pdfrwt beam="2">  1       -2 0.17739471E+00 0.10806200E+04</pdfrwt>
<totfact> 0.12417113E+00</totfact>
</mgrwt>
</event>
<event>
 4    1  0.1726795E-008  0.1116252E+04  0.7818608E-02  0.9189494E-01
          2   -1    0    0  501    0  0.00000000000E+00  0.00000000000E+00  0.16669620141E+04  0.16669620141E+04  0.25500000000E-02 0. -1.
         -2   -1    0    0    0  501 -0.00000000000E+00 -0.00000000000E+00 -0.84785573647E+03  0.84785573648E+03  0.25500000000E-02 0.  1.
    8880022    1    1    2    0    0  0.54545592433E+03  0.96182418190E+03 -0.23091631082E+02  0.11164912891E+04  0.15294330000E+03 0.  0.
    8880022    1    1    2    0    0 -0.54545592433E+03 -0.96182418190E+03  0.84219790867E+03  0.13983264614E+04  0.15294330000E+03 0.  0.
<mgrwt>
<rscale>  0 0.11162525E+04</rscale>
<asrwt>0</asrwt>
<pdfrwt beam="1">  1        2 0.25645569E+00 0.11162525E+04</pdfrwt>
<pdfrwt beam="2">  1       -2 0.13043934E+00 0.11162525E+04</pdfrwt>
<totfact> 0.43268284E+00</totfact>
</mgrwt>
</event>
<event>
 4    1  0.1726795E-008  0.1276282E+04  0.7818608E-02  0.9048588E-01
         -2   -1    0    0    0  501 -0.00000000000E+00  0.00000000000E+00  0.83052653081E+03  0.83052653081E+03  0.25500000000E-02 0.  1.
          2   -1    0    0  501    0  0.00000000000E+00 -0.00000000000E+00 -0.21650586374E+04  0.21650586374E+04  0.25500000000E-02 0. -1.
    8880022    1    1    2    0    0 -0.10577203748E+04 -0.69766079164E+03 -0.11267779382E+04  0.17025049623E+04  0.15294330000E+03 0.  0.
    8880022    1    1    2    0    0  0.10577203748E+04  0.69766079164E+03 -0.20775416835E+03  0.12930802059E+04  0.15294330000E+03 0.  0.
<mgrwt>
<rscale>  0 0.12762816E+04</rscale>
<asrwt>0</asrwt>
<pdfrwt beam="1">  1        2 0.33308594E+00 0.12762816E+04</pdfrwt>
<pdfrwt beam="2">  1       -2 0.12777331E+00 0.12762816E+04</pdfrwt>
<totfact> 0.23739821E+00</totfact>
</mgrwt>
</event>
<event>
 4    1  0.1726795E-008  0.9608219E+03  0.7818608E-02  0.9352590E-01
         -2   -1    0    0    0  501 -0.00000000000E+00  0.00000000000E+00  0.90477491380E+03  0.90477491381E+03  0.25500000000E-02 0.  1.
          2   -1    0    0  501    0  0.00000000000E+00 -0.00000000000E+00 -0.19861605798E+04  0.19861605798E+04  0.25500000000E-02 0. -1.
    8880022    1    1    2    0    0 -0.51937989202E+03  0.79374529125E+03  0.46728106478E+03  0.10684242164E+04  0.15294330000E+03 0.  0.
    8880022    1    1    2    0    0  0.51937989202E+03 -0.79374529125E+03 -0.15486667308E+04  0.18225112772E+04  0.15294330000E+03 0.  0.
<mgrwt>
<rscale>  0 0.96082189E+03</rscale>
<asrwt>0</asrwt>
<pdfrwt beam="1">  1        2 0.30556317E+00 0.96082189E+03</pdfrwt>
<pdfrwt beam="2">  1       -2 0.13919614E+00 0.96082189E+03</pdfrwt>
<totfact> 0.24872893E+00</totfact>
</mgrwt>
</event>
<event>
 4    1  0.1726795E-008  0.3029145E+03  0.7818608E-02  0.1083793E+00
          2   -1    0    0  501    0  0.00000000000E+00  0.00000000000E+00  0.94272261341E+03  0.94272261342E+03  0.25500000000E-02 0. -1.
         -2   -1    0    0    0  501 -0.00000000000E+00 -0.00000000000E+00 -0.12704224877E+03  0.12704224880E+03  0.25500000000E-02 0.  1.
    8880022    1    1    2    0    0  0.19609329014E+03  0.17295367891E+03  0.66650442116E+03  0.73211020341E+03  0.15294330000E+03 0.  0.
    8880022    1    1    2    0    0 -0.19609329014E+03 -0.17295367891E+03  0.14917594348E+03  0.33765465881E+03  0.15294330000E+03 0.  0.
<mgrwt>
<rscale>  0 0.30291452E+03</rscale>
<asrwt>0</asrwt>
<pdfrwt beam="1">  1        2 0.14503424E+00 0.30291452E+03</pdfrwt>
<pdfrwt beam="2">  1       -2 0.19544962E-01 0.30291452E+03</pdfrwt>
<totfact> 0.62498925E+02</totfact>
</mgrwt>
</event>
<event>
 4    1  0.1726795E-008  0.1300555E+04  0.7818608E-02  0.9029125E-01
         -2   -1    0    0    0  501 -0.00000000000E+00  0.00000000000E+00  0.19265966465E+04  0.19265966465E+04  0.25500000000E-02 0.  1.
          2   -1    0    0  501    0  0.00000000000E+00 -0.00000000000E+00 -0.11368714923E+04  0.11368714923E+04  0.25500000000E-02 0. -1.
    8880022    1    1    2    0    0 -0.92414006071E+03  0.90222826976E+03  0.11258627298E+04  0.17201770961E+04  0.15294330000E+03 0.  0.
    8880022    1    1    2    0    0  0.92414006071E+03 -0.90222826976E+03 -0.33613757567E+03  0.13432910427E+04  0.15294330000E+03 0.  0.
<mgrwt>
<rscale>  0 0.13005546E+04</rscale>
<asrwt>0</asrwt>
<pdfrwt beam="1">  1        2 0.17490331E+00 0.13005546E+04</pdfrwt>
<pdfrwt beam="2">  1       -2 0.29639948E+00 0.13005546E+04</pdfrwt>
<totfact> 0.66745433E-01</totfact>
</mgrwt>
</event>
<event>
 4    1  0.1726795E-008  0.4208106E+03  0.7818608E-02  0.1036803E+00
         -2   -1    0    0    0  501 -0.00000000000E+00  0.00000000000E+00  0.26814666312E+03  0.26814666313E+03  0.25500000000E-02 0.  1.
          2   -1    0    0  501    0  0.00000000000E+00 -0.00000000000E+00 -0.10470617834E+04  0.10470617834E+04  0.25500000000E-02 0. -1.
    8880022    1    1    2    0    0 -0.13326610461E+03  0.36868687565E+03 -0.78907954847E+03  0.89427515549E+03  0.15294330000E+03 0.  0.
    8880022    1    1    2    0    0  0.13326610461E+03 -0.36868687565E+03  0.10164428159E+02  0.42093329106E+03  0.15294330000E+03 0.  0.
<mgrwt>
<rscale>  0 0.42081055E+03</rscale>
<asrwt>0</asrwt>
<pdfrwt beam="1">  1        2 0.16108643E+00 0.42081055E+03</pdfrwt>
<pdfrwt beam="2">  1       -2 0.41253333E-01 0.42081055E+03</pdfrwt>
<totfact> 0.13649689E+02</totfact>
</mgrwt>
</event>
<event>
 4    1  0.1726795E-008  0.1025226E+04  0.7818608E-02  0.9281302E-01
         -2   -1    0    0    0  501 -0.00000000000E+00  0.00000000000E+00  0.50432540110E+03  0.50432540111E+03  0.25500000000E-02 0.  1.
          2   -1    0    0  501    0  0.00000000000E+00 -0.00000000000E+00 -0.27983844701E+04  0.27983844701E+04  0.25500000000E-02 0. -1.
    8880022    1    1    2    0    0 -0.58252321002E+03  0.82967666465E+03 -0.19813022286E+04  0.22308399387E+04  0.15294330000E+03 0.  0.
    8880022    1    1    2    0    0  0.58252321002E+03 -0.82967666465E+03 -0.31275684047E+03  0.10718699326E+04  0.15294330000E+03 0.  0.
<mgrwt>
<rscale>  0 0.10252260E+04</rscale>
<asrwt>0</asrwt>
<pdfrwt beam="1">  1        2 0.43052068E+00 0.10252260E+04</pdfrwt>
<pdfrwt beam="2">  1       -2 0.77588525E-01 0.10252260E+04</pdfrwt>
<totfact> 0.34760703E+00</totfact>
</mgrwt>
</event>
<event>
 4    1  0.1726795E-008  0.9899420E+03  0.7818608E-02  0.9319646E-01
         -2   -1    0    0    0  501 -0.00000000000E+00  0.00000000000E+00  0.56473066690E+03  0.56473066691E+03  0.25500000000E-02 0.  1.
          2   -1    0    0  501    0  0.00000000000E+00 -0.00000000000E+00 -0.28386922131E+04  0.28386922131E+04  0.25500000000E-02 0. -1.
    8880022    1    1    2    0    0 -0.93139423218E+03  0.29849345759E+03 -0.21979160848E+04  0.24105643175E+04  0.15294330000E+03 0.  0.
    8880022    1    1    2    0    0  0.93139423218E+03 -0.29849345759E+03 -0.76045461419E+02  0.99285856253E+03  0.15294330000E+03 0.  0.
<mgrwt>
<rscale>  0 0.98994203E+03</rscale>
<asrwt>0</asrwt>
<pdfrwt beam="1">  1        2 0.43672187E+00 0.98994203E+03</pdfrwt>
<pdfrwt beam="2">  1       -2 0.86881643E-01 0.98994203E+03</pdfrwt>
<totfact> 0.25566718E+00</totfact>
</mgrwt>
</event>
<event>
 4    1  0.1726795E-008  0.1081145E+04  0.7818608E-02  0.9223766E-01
         -2   -1    0    0    0  501 -0.00000000000E+00  0.00000000000E+00  0.93765188008E+03  0.93765188008E+03  0.25500000000E-02 0.  1.
          2   -1    0    0  501    0  0.00000000000E+00 -0.00000000000E+00 -0.28606000157E+04  0.28606000157E+04  0.25500000000E-02 0. -1.
    8880022    1    1    2    0    0  0.87407054003E+03 -0.61764404555E+03  0.46504378492E+03  0.11769200699E+04  0.15294330000E+03 0.  0.
    8880022    1    1    2    0    0 -0.87407054003E+03  0.61764404555E+03 -0.23879919205E+04  0.26213318259E+04  0.15294330000E+03 0.  0.
<mgrwt>
<rscale>  0 0.10811453E+04</rscale>
<asrwt>0</asrwt>
<pdfrwt beam="1">  1        2 0.44009231E+00 0.10811453E+04</pdfrwt>
<pdfrwt beam="2">  1       -2 0.14425414E+00 0.10811453E+04</pdfrwt>
<totfact> 0.70575944E-01</totfact>
</mgrwt>
</event>
<event>
 4    1  0.1726795E-008  0.5470145E+03  0.7818608E-02  0.1002187E+00
          2   -1    0    0  501    0  0.00000000000E+00  0.00000000000E+00  0.16994866845E+04  0.16994866845E+04  0.25500000000E-02 0. -1.
         -2   -1    0    0    0  501 -0.00000000000E+00 -0.00000000000E+00 -0.55775668240E+03  0.55775668240E+03  0.25500000000E-02 0.  1.
    8880022    1    1    2    0    0 -0.36856119152E+03  0.37416026096E+03 -0.36277778472E+03  0.65637841744E+03  0.15294330000E+03 0.  0.
    8880022    1    1    2    0    0  0.36856119152E+03 -0.37416026096E+03  0.15045077868E+04  0.16008649495E+04  0.15294330000E+03 0.  0.
<mgrwt>
<rscale>  0 0.54701454E+03</rscale>
<asrwt>0</asrwt>
<pdfrwt beam="1">  1        2 0.26145949E+00 0.54701454E+03</pdfrwt>
<pdfrwt beam="2">  1       -2 0.85808720E-01 0.54701454E+03</pdfrwt>
<totfact> 0.12300889E+01</totfact>
</mgrwt>
</event>
<event>
 4    1  0.1726795E-008  0.5349953E+03  0.7818608E-02  0.1005028E+00
         -2   -1    0    0    0  501 -0.00000000000E+00  0.00000000000E+00  0.11899589873E+04  0.11899589873E+04  0.25500000000E-02 0.  1.
          2   -1    0    0  501    0  0.00000000000E+00 -0.00000000000E+00 -0.48182023353E+03  0.48182023353E+03  0.25500000000E-02 0. -1.
    8880022    1    1    2    0    0  0.30037453396E+03  0.41545569672E+03 -0.23746086397E+03  0.58532692704E+03  0.15294330000E+03 0.  0.
    8880022    1    1    2    0    0 -0.30037453396E+03 -0.41545569672E+03  0.94559961775E+03  0.10864522938E+04  0.15294330000E+03 0.  0.
<mgrwt>
<rscale>  0 0.53499528E+03</rscale>
<asrwt>0</asrwt>
<pdfrwt beam="1">  1        2 0.74126190E-01 0.53499528E+03</pdfrwt>
<pdfrwt beam="2">  1       -2 0.18307061E+00 0.53499528E+03</pdfrwt>
<totfact> 0.11584150E+01</totfact>
</mgrwt>
</event>
<event>
 4    1  0.1726795E-008  0.1713414E+04  0.7818608E-02  0.8753751E-01
         -2   -1    0    0    0  501 -0.00000000000E+00  0.00000000000E+00  0.13273708199E+04  0.13273708199E+04  0.25500000000E-02 0.  1.
          2   -1    0    0  501    0  0.00000000000E+00 -0.00000000000E+00 -0.25866676382E+04  0.25866676382E+04  0.25500000000E-02 0. -1.
    8880022    1    1    2    0    0 -0.16722193929E+04  0.34070106940E+03 -0.13747302685E+04  0.21967407405E+04  0.15294330000E+03 0.  0.
    8880022    1    1    2    0    0  0.16722193929E+04 -0.34070106940E+03  0.11543345018E+03  0.17172977177E+04  0.15294330000E+03 0.  0.
<mgrwt>
<rscale>  0 0.17134137E+04</rscale>
<asrwt>0</asrwt>
<pdfrwt beam="1">  1        2 0.39794887E+00 0.17134137E+04</pdfrwt>
<pdfrwt beam="2">  1       -2 0.20421090E+00 0.17134137E+04</pdfrwt>
<totfact> 0.35530026E-01</totfact>
</mgrwt>
</event>
<event>
 4    1  0.1726795E-008  0.5673617E+03  0.7818608E-02  0.9975534E-01
          2   -1    0    0  501    0  0.00000000000E+00  0.00000000000E+00  0.24946582468E+04  0.24946582468E+04  0.25500000000E-02 0. -1.
         -2   -1    0    0    0  501 -0.00000000000E+00 -0.00000000000E+00 -0.21312566873E+03  0.21312566875E+03  0.25500000000E-02 0.  1.
    8880022    1    1    2    0    0 -0.39731013699E+03  0.37503633426E+03  0.29033550385E+03  0.63733347219E+03  0.15294330000E+03 0.  0.
    8880022    1    1    2    0    0  0.39731013699E+03 -0.37503633426E+03  0.19911970742E+04  0.20704504433E+04  0.15294330000E+03 0.  0.
<mgrwt>
<rscale>  0 0.56736166E+03</rscale>
<asrwt>0</asrwt>
<pdfrwt beam="1">  1        2 0.38379358E+00 0.56736166E+03</pdfrwt>
<pdfrwt beam="2">  1       -2 0.32788564E-01 0.56736166E+03</pdfrwt>
<totfact> 0.32688957E+01</totfact>
</mgrwt>
</event>
<event>
 4    1  0.1726795E-008  0.4494943E+03  0.7818608E-02  0.1027873E+00
         -2   -1    0    0    0  501 -0.00000000000E+00  0.00000000000E+00  0.17141553196E+03  0.17141553198E+03  0.25500000000E-02 0.  1.
          2   -1    0    0  501    0  0.00000000000E+00 -0.00000000000E+00 -0.47058065390E+04  0.47058065390E+04  0.25500000000E-02 0. -1.
    8880022    1    1    2    0    0  0.36399755064E+03  0.21484699413E+03 -0.43784259807E+04  0.44014383068E+04  0.15294330000E+03 0.  0.
    8880022    1    1    2    0    0 -0.36399755064E+03 -0.21484699413E+03 -0.15596502637E+03  0.47578376414E+03  0.15294330000E+03 0.  0.
<mgrwt>
<rscale>  0 0.44949427E+03</rscale>
<asrwt>0</asrwt>
<pdfrwt beam="1">  1        2 0.72397014E+00 0.44949427E+03</pdfrwt>
<pdfrwt beam="2">  1       -2 0.26371624E-01 0.44949427E+03</pdfrwt>
<totfact> 0.12563092E+00</totfact>
</mgrwt>
</event>
<event>
 4    1  0.1726795E-008  0.5062868E+03  0.7818608E-02  0.1012151E+00
         -2   -1    0    0    0  501 -0.00000000000E+00  0.00000000000E+00  0.31575359693E+03  0.31575359694E+03  0.25500000000E-02 0.  1.
          2   -1    0    0  501    0  0.00000000000E+00 -0.00000000000E+00 -0.10743770496E+04  0.10743770496E+04  0.25500000000E-02 0. -1.
    8880022    1    1    2    0    0  0.43718245456E+03  0.20446554791E+03 -0.72293461226E+03  0.88258753984E+03  0.15294330000E+03 0.  0.
    8880022    1    1    2    0    0 -0.43718245456E+03 -0.20446554791E+03 -0.35688840454E+02  0.50754310674E+03  0.15294330000E+03 0.  0.
<mgrwt>
<rscale>  0 0.50628679E+03</rscale>
<asrwt>0</asrwt>
<pdfrwt beam="1">  1        2 0.16528877E+00 0.50628679E+03</pdfrwt>
<pdfrwt beam="2">  1       -2 0.48577477E-01 0.50628679E+03</pdfrwt>
<totfact> 0.94134054E+01</totfact>
</mgrwt>
</event>
<event>
 4    1  0.1726795E-008  0.5896677E+03  0.7818608E-02  0.9927077E-01
          2   -1    0    0  501    0  0.00000000000E+00  0.00000000000E+00  0.12105367692E+04  0.12105367692E+04  0.25500000000E-02 0. -1.
         -2   -1    0    0    0  501 -0.00000000000E+00 -0.00000000000E+00 -0.44790907506E+03  0.44790907507E+03  0.25500000000E-02 0.  1.
    8880022    1    1    2    0    0 -0.23350839861E+03 -0.51941331044E+03  0.87796317132E+03  0.10576045303E+04  0.15294330000E+03 0.  0.
    8880022    1    1    2    0    0  0.23350839861E+03  0.51941331044E+03 -0.11533547717E+03  0.60084131398E+03  0.15294330000E+03 0.  0.
<mgrwt>
<rscale>  0 0.58966771E+03</rscale>
<asrwt>0</asrwt>
<pdfrwt beam="1">  1        2 0.18623642E+00 0.58966771E+03</pdfrwt>
<pdfrwt beam="2">  1       -2 0.68909089E-01 0.58966771E+03</pdfrwt>
<totfact> 0.37248872E+01</totfact>
</mgrwt>
</event>
<event>
 4    1  0.1726795E-008  0.5247191E+03  0.7818608E-02  0.1007521E+00
         -2   -1    0    0    0  501 -0.00000000000E+00  0.00000000000E+00  0.15312519730E+03  0.15312519732E+03  0.25500000000E-02 0.  1.
          2   -1    0    0  501    0  0.00000000000E+00 -0.00000000000E+00 -0.25790140552E+04  0.25790140552E+04  0.25500000000E-02 0. -1.
    8880022    1    1    2    0    0  0.35564850568E+03  0.35419296127E+03 -0.19646630694E+04  0.20335267746E+04  0.15294330000E+03 0.  0.
    8880022    1    1    2    0    0 -0.35564850568E+03 -0.35419296127E+03 -0.46122578845E+03  0.69861247795E+03  0.15294330000E+03 0.  0.
<mgrwt>
<rscale>  0 0.52471913E+03</rscale>
<asrwt>0</asrwt>
<pdfrwt beam="1">  1        2 0.39677136E+00 0.52471913E+03</pdfrwt>
<pdfrwt beam="2">  1       -2 0.23557724E-01 0.52471913E+03</pdfrwt>
<totfact> 0.54003116E+01</totfact>
</mgrwt>
</event>
<event>
 4    1  0.1726795E-008  0.8145149E+03  0.7818608E-02  0.9539242E-01
          2   -1    0    0  501    0  0.00000000000E+00  0.00000000000E+00  0.12577449079E+04  0.12577449079E+04  0.25500000000E-02 0. -1.
         -2   -1    0    0    0  501 -0.00000000000E+00 -0.00000000000E+00 -0.10837260834E+04  0.10837260834E+04  0.25500000000E-02 0.  1.
    8880022    1    1    2    0    0 -0.65284446648E+03  0.46242517954E+03  0.92575977136E+03  0.12330716732E+04  0.15294330000E+03 0.  0.
    8880022    1    1    2    0    0  0.65284446648E+03 -0.46242517954E+03 -0.75174094686E+03  0.11083993181E+04  0.15294330000E+03 0.  0.
<mgrwt>
<rscale>  0 0.81451495E+03</rscale>
<asrwt>0</asrwt>
<pdfrwt beam="1">  1        2 0.19349922E+00 0.81451495E+03</pdfrwt>
<pdfrwt beam="2">  1       -2 0.16672709E+00 0.81451495E+03</pdfrwt>
<totfact> 0.39935188E+00</totfact>
</mgrwt>
</event>
<event>
 4    1  0.1726795E-008  0.6491561E+03  0.7818608E-02  0.9808364E-01
         -2   -1    0    0    0  501 -0.00000000000E+00  0.00000000000E+00  0.33612815703E+03  0.33612815704E+03  0.25500000000E-02 0.  1.
          2   -1    0    0  501    0  0.00000000000E+00 -0.00000000000E+00 -0.21793195405E+04  0.21793195405E+04  0.25500000000E-02 0. -1.
    8880022    1    1    2    0    0 -0.61598720112E+03 -0.13627813632E+03 -0.10192147423E+03  0.65710851638E+03  0.15294330000E+03 0.  0.
    8880022    1    1    2    0    0  0.61598720112E+03  0.13627813632E+03 -0.17412699093E+04  0.18583391812E+04  0.15294330000E+03 0.  0.
<mgrwt>
<rscale>  0 0.64915608E+03</rscale>
<asrwt>0</asrwt>
<pdfrwt beam="1">  1        2 0.33527992E+00 0.64915608E+03</pdfrwt>
<pdfrwt beam="2">  1       -2 0.51712025E-01 0.64915608E+03</pdfrwt>
<totfact> 0.19755651E+01</totfact>
</mgrwt>
</event>
<event>
 4    1  0.1726795E-008  0.7784024E+03  0.7818608E-02  0.9591816E-01
         -2   -1    0    0    0  501 -0.00000000000E+00  0.00000000000E+00  0.61257805021E+03  0.61257805021E+03  0.25500000000E-02 0.  1.
          2   -1    0    0  501    0  0.00000000000E+00 -0.00000000000E+00 -0.12828176878E+04  0.12828176878E+04  0.25500000000E-02 0. -1.
    8880022    1    1    2    0    0 -0.75698904414E+03  0.97397029265E+02 -0.78858219881E+03  0.11080487948E+04  0.15294330000E+03 0.  0.
    8880022    1    1    2    0    0  0.75698904414E+03 -0.97397029265E+02  0.11834256122E+03  0.78734694326E+03  0.15294330000E+03 0.  0.
<mgrwt>
<rscale>  0 0.77840237E+03</rscale>
<asrwt>0</asrwt>
<pdfrwt beam="1">  1        2 0.19735657E+00 0.77840237E+03</pdfrwt>
<pdfrwt beam="2">  1       -2 0.94242777E-01 0.77840237E+03</pdfrwt>
<totfact> 0.16341713E+01</totfact>
</mgrwt>
</event>
<event>
 4    1  0.1726795E-008  0.8193848E+03  0.7818608E-02  0.9532375E-01
         -2   -1    0    0    0  501 -0.00000000000E+00  0.00000000000E+00  0.14820356574E+04  0.14820356574E+04  0.25500000000E-02 0.  1.
          2   -1    0    0  501    0  0.00000000000E+00 -0.00000000000E+00 -0.91606255634E+03  0.91606255635E+03  0.25500000000E-02 0. -1.
    8880022    1    1    2    0    0  0.31584933382E+03 -0.74043163440E+03 -0.56949494964E+03  0.99785567973E+03  0.15294330000E+03 0.  0.
    8880022    1    1    2    0    0 -0.31584933382E+03  0.74043163440E+03  0.11354680507E+04  0.14002425340E+04  0.15294330000E+03 0.  0.
<mgrwt>
<rscale>  0 0.81938481E+03</rscale>
<asrwt>0</asrwt>
<pdfrwt beam="1">  1        2 0.14093270E+00 0.81938481E+03</pdfrwt>
<pdfrwt beam="2">  1       -2 0.22800548E+00 0.81938481E+03</pdfrwt>
<totfact> 0.25611821E+00</totfact>
</mgrwt>
</event>
<event>
 4    1  0.1726795E-008  0.4927618E+03  0.7818608E-02  0.1015686E+00
         -2   -1    0    0    0  501 -0.00000000000E+00  0.00000000000E+00  0.19812595834E+03  0.19812595836E+03  0.25500000000E-02 0.  1.
          2   -1    0    0  501    0  0.00000000000E+00 -0.00000000000E+00 -0.15444422482E+04  0.15444422482E+04  0.25500000000E-02 0. -1.
    8880022    1    1    2    0    0  0.45209543123E+03  0.12260622196E+03 -0.10690646813E+04  0.11771633321E+04  0.15294330000E+03 0.  0.
    8880022    1    1    2    0    0 -0.45209543123E+03 -0.12260622196E+03 -0.27725160854E+03  0.56540487445E+03  0.15294330000E+03 0.  0.
<mgrwt>
<rscale>  0 0.49276183E+03</rscale>
<asrwt>0</asrwt>
<pdfrwt beam="1">  1        2 0.23760649E+00 0.49276183E+03</pdfrwt>
<pdfrwt beam="2">  1       -2 0.30480918E-01 0.49276183E+03</pdfrwt>
<totfact> 0.12474369E+02</totfact>
</mgrwt>
</event>
<event>
 4    1  0.1726795E-008  0.6743611E+03  0.7818608E-02  0.9762111E-01
         -2   -1    0    0    0  501 -0.00000000000E+00  0.00000000000E+00  0.70929785453E+03  0.70929785453E+03  0.25500000000E-02 0.  1.
          2   -1    0    0  501    0  0.00000000000E+00 -0.00000000000E+00 -0.33252107279E+04  0.33252107279E+04  0.25500000000E-02 0. -1.
    8880022    1    1    2    0    0 -0.62441959450E+03 -0.20364543335E+03  0.50441669506E+03  0.84213962488E+03  0.15294330000E+03 0.  0.
    8880022    1    1    2    0    0  0.62441959450E+03  0.20364543335E+03 -0.31203295684E+04  0.31923689575E+04  0.15294330000E+03 0.  0.
<mgrwt>
<rscale>  0 0.67436114E+03</rscale>
<asrwt>0</asrwt>
<pdfrwt beam="1">  1        2 0.51157087E+00 0.67436114E+03</pdfrwt>
<pdfrwt beam="2">  1       -2 0.10912275E+00 0.67436114E+03</pdfrwt>
<totfact> 0.79097712E-01</totfact>
</mgrwt>
</event>
<event>
 4    1  0.1726795E-008  0.4838204E+03  0.7818608E-02  0.1018090E+00
         -2   -1    0    0    0  501 -0.00000000000E+00  0.00000000000E+00  0.47868543514E+03  0.47868543515E+03  0.25500000000E-02 0.  1.
          2   -1    0    0  501    0  0.00000000000E+00 -0.00000000000E+00 -0.90174965728E+03  0.90174965729E+03  0.25500000000E-02 0. -1.
    8880022    1    1    2    0    0 -0.45360277590E+03  0.70250191831E+02 -0.67849333709E+03  0.83332792420E+03  0.15294330000E+03 0. -1.
    8880022    1    1    2    0    0  0.45360277590E+03 -0.70250191831E+02  0.25542911495E+03  0.54710716824E+03  0.15294330000E+03 0.  0.
<mgrwt>
<rscale>  0 0.48382044E+03</rscale>
<asrwt>0</asrwt>
<pdfrwt beam="1">  1        2 0.13873072E+00 0.48382044E+03</pdfrwt>
<pdfrwt beam="2">  1       -2 0.73643913E-01 0.48382044E+03</pdfrwt>
<totfact> 0.50694333E+01</totfact>
</mgrwt>
</event>
<event>
 4    1  0.2582578E-008  0.1130687E+04  0.7818608E-02  0.9175788E-01
         -2   -1    0    0    0  501 -0.00000000000E+00  0.00000000000E+00  0.26319800739E+04  0.26319800739E+04  0.25500000000E-02 0.  1.
          2   -1    0    0  501    0  0.00000000000E+00 -0.00000000000E+00 -0.13010466162E+04  0.13010466162E+04  0.25500000000E-02 0. -1.
    8880022    1    1    2    0    0  0.36228215118E+03  0.10601008350E+04 -0.89125640237E+03  0.14397193356E+04  0.15294330000E+03 0.  0.
    8880022    1    1    2    0    0 -0.36228215118E+03 -0.10601008350E+04  0.22221898600E+04  0.24933073546E+04  0.15294330000E+03 0.  0.
<mgrwt>
<rscale>  0 0.11306873E+04</rscale>
<asrwt>0</asrwt>
<pdfrwt beam="1">  1        2 0.20016102E+00 0.11306873E+04</pdfrwt>
<pdfrwt beam="2">  1       -2 0.40492001E+00 0.11306873E+04</pdfrwt>
<totfact> 0.11317894E-01</totfact>
</mgrwt>
</event>
<event>
 4    1  0.1726795E-008  0.7478805E+03  0.7818608E-02  0.9638681E-01
          2   -1    0    0  501    0  0.00000000000E+00  0.00000000000E+00  0.86941846645E+03  0.86941846645E+03  0.25500000000E-02 0. -1.
         -2   -1    0    0    0  501 -0.00000000000E+00 -0.00000000000E+00 -0.82928974490E+03  0.82928974491E+03  0.25500000000E-02 0.  1.
    8880022    1    1    2    0    0  0.41986963766E+03  0.59970251936E+03 -0.38213560658E+03  0.83985290330E+03  0.15294330000E+03 0.  1.
    8880022    1    1    2    0    0 -0.41986963766E+03 -0.59970251936E+03  0.42226432812E+03  0.85885530806E+03  0.15294330000E+03 0.  0.
<mgrwt>
<rscale>  0 0.74788052E+03</rscale>
<asrwt>0</asrwt>
<pdfrwt beam="1">  1        2 0.13375669E+00 0.74788052E+03</pdfrwt>
<pdfrwt beam="2">  1       -2 0.12758304E+00 0.74788052E+03</pdfrwt>
<totfact> 0.14235095E+01</totfact>
</mgrwt>
</event>
<event>
 4    1  0.1726795E-008  0.4522472E+03  0.7818608E-02  0.1027054E+00
          2   -1    0    0  501    0  0.00000000000E+00  0.00000000000E+00  0.61873060938E+03  0.61873060939E+03  0.25500000000E-02 0. -1.
         -2   -1    0    0    0  501 -0.00000000000E+00 -0.00000000000E+00 -0.67814188700E+03  0.67814188701E+03  0.25500000000E-02 0.  1.
    8880022    1    1    2    0    0  0.16065710235E+03 -0.39411314102E+03 -0.49393823668E+03  0.66970329783E+03  0.15294330000E+03 0.  1.
    8880022    1    1    2    0    0 -0.16065710235E+03  0.39411314102E+03  0.43452695906E+03  0.62716919856E+03  0.15294330000E+03 0.  0.
<mgrwt>
<rscale>  0 0.45224720E+03</rscale>
<asrwt>0</asrwt>
<pdfrwt beam="1">  1        2 0.95189325E-01 0.45224720E+03</pdfrwt>
<pdfrwt beam="2">  1       -2 0.10432952E+00 0.45224720E+03</pdfrwt>
<totfact> 0.37198285E+01</totfact>
</mgrwt>
</event>
<event>
 4    1  0.1726795E-008  0.7144033E+03  0.7818608E-02  0.9692913E-01
          2   -1    0    0  501    0  0.00000000000E+00  0.00000000000E+00  0.97505315863E+03  0.97505315863E+03  0.25500000000E-02 0. -1.
         -2   -1    0    0    0  501 -0.00000000000E+00 -0.00000000000E+00 -0.18517089772E+04  0.18517089772E+04  0.25500000000E-02 0.  1.
    8880022    1    1    2    0    0 -0.52693462730E+03 -0.45751536271E+03 -0.16353924198E+04  0.17846233295E+04  0.15294330000E+03 0.  0.
    8880022    1    1    2    0    0  0.52693462730E+03  0.45751536271E+03  0.75873660122E+03  0.10421388063E+04  0.15294330000E+03 0.  0.
<mgrwt>
<rscale>  0 0.71440329E+03</rscale>
<asrwt>0</asrwt>
<pdfrwt beam="1">  1        2 0.15000818E+00 0.71440329E+03</pdfrwt>
<pdfrwt beam="2">  1       -2 0.28487830E+00 0.71440329E+03</pdfrwt>
<totfact> 0.10786370E+00</totfact>
</mgrwt>
</event>
<event>
 4    1  0.1726795E-008  0.5541964E+03  0.7818608E-02  0.1000527E+00
          2   -1    0    0  501    0  0.00000000000E+00  0.00000000000E+00  0.17935742903E+04  0.17935742903E+04  0.25500000000E-02 0. -1.
         -2   -1    0    0    0  501 -0.00000000000E+00 -0.00000000000E+00 -0.26904930145E+03  0.26904930146E+03  0.25500000000E-02 0.  1.
    8880022    1    1    2    0    0 -0.43435142824E+02 -0.53090056335E+03  0.13840781321E+04  0.14909077599E+04  0.15294330000E+03 0.  0.
    8880022    1    1    2    0    0  0.43435142824E+02  0.53090056335E+03  0.14044685674E+03  0.57171583185E+03  0.15294330000E+03 0.  0.
<mgrwt>
<rscale>  0 0.55419642E+03</rscale>
<asrwt>0</asrwt>
<pdfrwt beam="1">  1        2 0.27593451E+00 0.55419642E+03</pdfrwt>
<pdfrwt beam="2">  1       -2 0.41392200E-01 0.55419642E+03</pdfrwt>
<totfact> 0.50673390E+01</totfact>
</mgrwt>
</event>
<event>
 4    1  0.1726795E-008  0.1020352E+04  0.7818608E-02  0.9286501E-01
         -2   -1    0    0    0  501 -0.00000000000E+00  0.00000000000E+00  0.13161620907E+04  0.13161620907E+04  0.25500000000E-02 0.  1.
          2   -1    0    0  501    0  0.00000000000E+00 -0.00000000000E+00 -0.13840192036E+04  0.13840192036E+04  0.25500000000E-02 0. -1.
    8880022    1    1    2    0    0  0.16817532219E+03 -0.99470780254E+03  0.84979573412E+03  0.13278821462E+04  0.15294330000E+03 0.  0.
    8880022    1    1    2    0    0 -0.16817532219E+03  0.99470780254E+03 -0.91765284700E+03  0.13722991482E+04  0.15294330000E+03 0.  0.
<mgrwt>
<rscale>  0 0.10203520E+04</rscale>
<asrwt>0</asrwt>
<pdfrwt beam="1">  1        2 0.21292603E+00 0.10203520E+04</pdfrwt>
<pdfrwt beam="2">  1       -2 0.20248648E+00 0.10203520E+04</pdfrwt>
<totfact> 0.18753057E+00</totfact>
</mgrwt>
</event>
<event>
 4    1  0.1726795E-008  0.9098250E+03  0.7818608E-02  0.9413382E-01
          2   -1    0    0  501    0  0.00000000000E+00  0.00000000000E+00  0.13269303894E+04  0.13269303894E+04  0.25500000000E-02 0. -1.
         -2   -1    0    0    0  501 -0.00000000000E+00 -0.00000000000E+00 -0.11515267383E+04  0.11515267383E+04  0.25500000000E-02 0.  1.
    8880022    1    1    2    0    0  0.89628305645E+03  0.32657743563E+02 -0.75118973872E+03  0.11798591111E+04  0.15294330000E+03 0.  0.
    8880022    1    1    2    0    0 -0.89628305645E+03 -0.32657743563E+02  0.92659338989E+03  0.12985980166E+04  0.15294330000E+03 0.  0.
<mgrwt>
<rscale>  0 0.90982498E+03</rscale>
<asrwt>0</asrwt>
<pdfrwt beam="1">  1        2 0.20414314E+00 0.90982498E+03</pdfrwt>
<pdfrwt beam="2">  1       -2 0.17715796E+00 0.90982498E+03</pdfrwt>
<totfact> 0.30343361E+00</totfact>
</mgrwt>
</event>
<event>
 4    1  0.2329567E-008  0.1266128E+04  0.7818608E-02  0.9056865E-01
          2   -1    0    0  501    0  0.00000000000E+00  0.00000000000E+00  0.20376797972E+04  0.20376797972E+04  0.25500000000E-02 0. -1.
         -2   -1    0    0    0  501 -0.00000000000E+00 -0.00000000000E+00 -0.19059938059E+04  0.19059938059E+04  0.25500000000E-02 0.  1.
    8880022    1    1    2    0    0  0.29073458760E+03  0.12227685498E+04 -0.14452062265E+04  0.19213802895E+04  0.15294330000E+03 0.  0.
    8880022    1    1    2    0    0 -0.29073458760E+03 -0.12227685498E+04  0.15768922178E+04  0.20222933137E+04  0.15294330000E+03 0.  0.
<mgrwt>
<rscale>  0 0.12661284E+04</rscale>
<asrwt>0</asrwt>
<pdfrwt beam="1">  1        2 0.31348920E+00 0.12661284E+04</pdfrwt>
<pdfrwt beam="2">  1       -2 0.29322982E+00 0.12661284E+04</pdfrwt>
<totfact> 0.21522338E-01</totfact>
</mgrwt>
</event>
<event>
 4    1  0.1726795E-008  0.2336144E+04  0.7818608E-02  0.8463805E-01
         -2   -1    0    0    0  501 -0.00000000000E+00  0.00000000000E+00  0.32920487852E+04  0.32920487852E+04  0.25500000000E-02 0.  1.
          2   -1    0    0  501    0  0.00000000000E+00 -0.00000000000E+00 -0.22873000747E+04  0.22873000747E+04  0.25500000000E-02 0. -1.
    8880022    1    1    2    0    0 -0.23190376678E+04 -0.23714825382E+03 -0.96111303867E+03  0.25261244873E+04  0.15294330000E+03 0.  0.
    8880022    1    1    2    0    0  0.23190376678E+04  0.23714825382E+03  0.19658617492E+04  0.30532243725E+04  0.15294330000E+03 0.  0.
<mgrwt>
<rscale>  0 0.23361435E+04</rscale>
<asrwt>0</asrwt>
<pdfrwt beam="1">  1        2 0.35189232E+00 0.23361435E+04</pdfrwt>
<pdfrwt beam="2">  1       -2 0.50646904E+00 0.23361435E+04</pdfrwt>
<totfact> 0.58530839E-03</totfact>
</mgrwt>
</event>
<event>
 4    1  0.1726795E-008  0.9456047E+03  0.7818608E-02  0.9370303E-01
          2   -1    0    0  501    0  0.00000000000E+00  0.00000000000E+00  0.18426286847E+04  0.18426286847E+04  0.25500000000E-02 0. -1.
         -2   -1    0    0    0  501 -0.00000000000E+00 -0.00000000000E+00 -0.89062768765E+03  0.89062768765E+03  0.25500000000E-02 0.  1.
    8880022    1    1    2    0    0 -0.29338566325E+03 -0.88583373174E+03  0.13979830702E+04  0.16877573478E+04  0.15294330000E+03 0.  0.
    8880022    1    1    2    0    0  0.29338566325E+03  0.88583373174E+03 -0.44598207313E+03  0.10454990245E+04  0.15294330000E+03 0.  0.
<mgrwt>
<rscale>  0 0.94560467E+03</rscale>
<asrwt>0</asrwt>
<pdfrwt beam="1">  1        2 0.28348134E+00 0.94560467E+03</pdfrwt>
<pdfrwt beam="2">  1       -2 0.13701964E+00 0.94560467E+03</pdfrwt>
<totfact> 0.31133300E+00</totfact>
</mgrwt>
</event>
<event>
 4    1  0.1726795E-008  0.2135630E+04  0.7818608E-02  0.8545709E-01
         -2   -1    0    0    0  501 -0.00000000000E+00  0.00000000000E+00  0.18493109858E+04  0.18493109858E+04  0.25500000000E-02 0.  1.
          2   -1    0    0  501    0  0.00000000000E+00 -0.00000000000E+00 -0.34158457898E+04  0.34158457898E+04  0.25500000000E-02 0. -1.
    8880022    1    1    2    0    0  0.36812084283E+02  0.21298278711E+04  0.60475140626E+03  0.22196030740E+04  0.15294330000E+03 0.  0.
    8880022    1    1    2    0    0 -0.36812084283E+02 -0.21298278711E+04 -0.21712862102E+04  0.30455537017E+04  0.15294330000E+03 0.  0.
<mgrwt>
<rscale>  0 0.21356295E+04</rscale>
<asrwt>0</asrwt>
<pdfrwt beam="1">  1        2 0.52551473E+00 0.21356295E+04</pdfrwt>
<pdfrwt beam="2">  1       -2 0.28450938E+00 0.21356295E+04</pdfrwt>
<totfact> 0.32072866E-02</totfact>
</mgrwt>
</event>
<event>
 4    1  0.1726795E-008  0.4495835E+03  0.7818608E-02  0.1027846E+00
         -2   -1    0    0    0  501 -0.00000000000E+00  0.00000000000E+00  0.89533472373E+03  0.89533472373E+03  0.25500000000E-02 0.  1.
          2   -1    0    0  501    0  0.00000000000E+00 -0.00000000000E+00 -0.14849605494E+04  0.14849605494E+04  0.25500000000E-02 0. -1.
    8880022    1    1    2    0    0  0.23105251045E+03  0.35404576014E+03 -0.13907657941E+04  0.14616274525E+04  0.15294330000E+03 0.  0.
    8880022    1    1    2    0    0 -0.23105251045E+03 -0.35404576014E+03  0.80113996836E+03  0.91866782070E+03  0.15294330000E+03 0.  0.
<mgrwt>
<rscale>  0 0.44958349E+03</rscale>
<asrwt>0</asrwt>
<pdfrwt beam="1">  1        2 0.22845547E+00 0.44958349E+03</pdfrwt>
<pdfrwt beam="2">  1       -2 0.13774380E+00 0.44958349E+03</pdfrwt>
<totfact> 0.52722667E+00</totfact>
</mgrwt>
</event>
<event>
 4    1  0.1726795E-008  0.9539836E+03  0.7818608E-02  0.9360506E-01
          2   -1    0    0  501    0  0.00000000000E+00  0.00000000000E+00  0.19505412004E+04  0.19505412004E+04  0.25500000000E-02 0. -1.
         -2   -1    0    0    0  501 -0.00000000000E+00 -0.00000000000E+00 -0.53940254175E+03  0.53940254176E+03  0.25500000000E-02 0.  1.
    8880022    1    1    2    0    0 -0.43680480680E+03  0.83420303832E+03  0.11630091757E+04  0.15042191144E+04  0.15294330000E+03 0.  0.
    8880022    1    1    2    0    0  0.43680480680E+03 -0.83420303832E+03  0.24812948290E+03  0.98572462771E+03  0.15294330000E+03 0.  0.
<mgrwt>
<rscale>  0 0.95398365E+03</rscale>
<asrwt>0</asrwt>
<pdfrwt beam="1">  1        2 0.30008326E+00 0.95398365E+03</pdfrwt>
<pdfrwt beam="2">  1       -2 0.82985006E-01 0.95398365E+03</pdfrwt>
<totfact> 0.91170636E+00</totfact>
</mgrwt>
</event>
<event>
 4    1  0.1726795E-008  0.1036905E+04  0.7818608E-02  0.9268969E-01
         -2   -1    0    0    0  501 -0.00000000000E+00  0.00000000000E+00  0.47562628270E+03  0.47562628270E+03  0.25500000000E-02 0.  1.
          2   -1    0    0  501    0  0.00000000000E+00 -0.00000000000E+00 -0.30977112122E+04  0.30977112122E+04  0.25500000000E-02 0. -1.
    8880022    1    1    2    0    0  0.25591103264E+02  0.10252443861E+04 -0.22398602378E+04  0.24682273991E+04  0.15294330000E+03 0.  0.
    8880022    1    1    2    0    0 -0.25591103264E+02 -0.10252443861E+04 -0.38222469167E+03  0.11051100958E+04  0.15294330000E+03 0.  0.
<mgrwt>
<rscale>  0 0.10369053E+04</rscale>
<asrwt>0</asrwt>
<pdfrwt beam="1">  1        2 0.47657094E+00 0.10369053E+04</pdfrwt>
<pdfrwt beam="2">  1       -2 0.73173276E-01 0.10369053E+04</pdfrwt>
<totfact> 0.25936018E+00</totfact>
</mgrwt>
</event>
<event>
 4    1  0.1726795E-008  0.1141835E+04  0.7818608E-02  0.9165349E-01
          2   -1    0    0  501    0  0.00000000000E+00  0.00000000000E+00  0.71210062646E+03  0.71210062646E+03  0.25500000000E-02 0. -1.
         -2   -1    0    0    0  501 -0.00000000000E+00 -0.00000000000E+00 -0.25248866916E+04  0.25248866916E+04  0.25500000000E-02 0.  1.
    8880022    1    1    2    0    0  0.20675413458E+03 -0.11124968156E+04 -0.57868730300E+02  0.11433008702E+04  0.15294330000E+03 0.  0.
    8880022    1    1    2    0    0 -0.20675413458E+03  0.11124968156E+04 -0.17549173348E+04  0.20936864479E+04  0.15294330000E+03 0.  0.
<mgrwt>
<rscale>  0 0.11418354E+04</rscale>
<asrwt>0</asrwt>
<pdfrwt beam="1">  1        2 0.10955394E+00 0.11418354E+04</pdfrwt>
<pdfrwt beam="2">  1       -2 0.38844410E+00 0.11418354E+04</pdfrwt>
<totfact> 0.35278115E-01</totfact>
</mgrwt>
</event>
<event>
 4    1  0.1726795E-008  0.4967598E+03  0.7818608E-02  0.1014628E+00
         -2   -1    0    0    0  501 -0.00000000000E+00  0.00000000000E+00  0.19411892157E+04  0.19411892157E+04  0.25500000000E-02 0.  1.
          2   -1    0    0  501    0  0.00000000000E+00 -0.00000000000E+00 -0.50275130720E+03  0.50275130721E+03  0.25500000000E-02 0. -1.
    8880022    1    1    2    0    0  0.73710173919E+02 -0.46684629200E+03  0.17754599952E+04  0.18436454371E+04  0.15294330000E+03 0.  0.
    8880022    1    1    2    0    0 -0.73710173919E+02  0.46684629200E+03 -0.33702208672E+03  0.60029508581E+03  0.15294330000E+03 0.  0.
<mgrwt>
<rscale>  0 0.49675980E+03</rscale>
<asrwt>0</asrwt>
<pdfrwt beam="1">  1        2 0.77346356E-01 0.49675980E+03</pdfrwt>
<pdfrwt beam="2">  1       -2 0.29864449E+00 0.49675980E+03</pdfrwt>
<totfact> 0.21670170E+00</totfact>
</mgrwt>
</event>
<event>
 4    1  0.1726795E-008  0.3963125E+03  0.7818608E-02  0.1045064E+00
          2   -1    0    0  501    0  0.00000000000E+00  0.00000000000E+00  0.56603879323E+03  0.56603879323E+03  0.25500000000E-02 0. -1.
         -2   -1    0    0    0  501 -0.00000000000E+00 -0.00000000000E+00 -0.44982480270E+03  0.44982480271E+03  0.25500000000E-02 0.  1.
    8880022    1    1    2    0    0  0.28239554378E+03  0.23221700499E+03  0.37250849064E+03  0.54389907995E+03  0.15294330000E+03 0. -1.
    8880022    1    1    2    0    0 -0.28239554378E+03 -0.23221700499E+03 -0.25629450011E+03  0.47196451599E+03  0.15294330000E+03 0.  0.
<mgrwt>
<rscale>  0 0.39631255E+03</rscale>
<asrwt>0</asrwt>
<pdfrwt beam="1">  1        2 0.87082891E-01 0.39631255E+03</pdfrwt>
<pdfrwt beam="2">  1       -2 0.69203816E-01 0.39631255E+03</pdfrwt>
<totfact> 0.10523561E+02</totfact>
</mgrwt>
</event>
<event>
 4    1  0.1726795E-008  0.1057511E+04  0.7818608E-02  0.9247624E-01
         -2   -1    0    0    0  501 -0.00000000000E+00  0.00000000000E+00  0.16284326918E+04  0.16284326918E+04  0.25500000000E-02 0.  1.
          2   -1    0    0  501    0  0.00000000000E+00 -0.00000000000E+00 -0.85603917148E+03  0.85603917149E+03  0.25500000000E-02 0. -1.
    8880022    1    1    2    0    0 -0.21022584665E+03  0.10250575293E+04 -0.16622302103E+03  0.10704950213E+04  0.15294330000E+03 0.  0.
    8880022    1    1    2    0    0  0.21022584665E+03 -0.10250575293E+04  0.93861654130E+03  0.14139768419E+04  0.15294330000E+03 0.  0.
<mgrwt>
<rscale>  0 0.10575110E+04</rscale>
<asrwt>0</asrwt>
<pdfrwt beam="1">  1        2 0.13169833E+00 0.10575110E+04</pdfrwt>
<pdfrwt beam="2">  1       -2 0.25052811E+00 0.10575110E+04</pdfrwt>
<totfact> 0.19860658E+00</totfact>
</mgrwt>
</event>
<event>
 4    1  0.1726795E-008  0.8664993E+03  0.7818608E-02  0.9468456E-01
          2   -1    0    0  501    0  0.00000000000E+00  0.00000000000E+00  0.72623861264E+03  0.72623861265E+03  0.25500000000E-02 0. -1.
         -2   -1    0    0    0  501 -0.00000000000E+00 -0.00000000000E+00 -0.22395018430E+04  0.22395018430E+04  0.25500000000E-02 0.  1.
    8880022    1    1    2    0    0  0.78375731422E+03  0.33638362208E+03 -0.18446558187E+04  0.20380324362E+04  0.15294330000E+03 0.  0.
    8880022    1    1    2    0    0 -0.78375731422E+03 -0.33638362208E+03  0.33139258826E+03  0.92770801946E+03  0.15294330000E+03 0.  0.
<mgrwt>
<rscale>  0 0.86649935E+03</rscale>
<asrwt>0</asrwt>
<pdfrwt beam="1">  1        2 0.11172902E+00 0.86649935E+03</pdfrwt>
<pdfrwt beam="2">  1       -2 0.34453874E+00 0.86649935E+03</pdfrwt>
<totfact> 0.67986385E-01</totfact>
</mgrwt>
</event>
<event>
 4    1  0.1726795E-008  0.1539300E+04  0.7818608E-02  0.8858732E-01
          2   -1    0    0  501    0  0.00000000000E+00  0.00000000000E+00  0.16381242052E+04  0.16381242052E+04  0.25500000000E-02 0. -1.
         -2   -1    0    0    0  501 -0.00000000000E+00 -0.00000000000E+00 -0.15975681374E+04  0.15975681374E+04  0.25500000000E-02 0.  1.
    8880022    1    1    2    0    0 -0.12220574121E+04 -0.92337828698E+03  0.51788279949E+03  0.16240831341E+04  0.15294330000E+03 0.  0.
    8880022    1    1    2    0    0  0.12220574121E+04  0.92337828698E+03 -0.47732673161E+03  0.16116092085E+04  0.15294330000E+03 0.  0.
<mgrwt>
<rscale>  0 0.15392997E+04</rscale>
<asrwt>0</asrwt>
<pdfrwt beam="1">  1        2 0.25201911E+00 0.15392997E+04</pdfrwt>
<pdfrwt beam="2">  1       -2 0.24577971E+00 0.15392997E+04</pdfrwt>
<totfact> 0.67784629E-01</totfact>
</mgrwt>
</event>
<event>
 4    1  0.1726795E-008  0.8774474E+03  0.7818608E-02  0.9454221E-01
          2   -1    0    0  501    0  0.00000000000E+00  0.00000000000E+00  0.29470710519E+04  0.29470710519E+04  0.25500000000E-02 0. -1.
         -2   -1    0    0    0  501 -0.00000000000E+00 -0.00000000000E+00 -0.49901951178E+03  0.49901951179E+03  0.25500000000E-02 0.  1.
    8880022    1    1    2    0    0 -0.64483174491E+03  0.57507758836E+03  0.34651255984E+02  0.87813129681E+03  0.15294330000E+03 0.  0.
    8880022    1    1    2    0    0  0.64483174491E+03 -0.57507758836E+03  0.24134002842E+04  0.25679592669E+04  0.15294330000E+03 0.  0.
<mgrwt>
<rscale>  0 0.87744736E+03</rscale>
<asrwt>0</asrwt>
<pdfrwt beam="1">  1        2 0.45339554E+00 0.87744736E+03</pdfrwt>
<pdfrwt beam="2">  1       -2 0.76772233E-01 0.87744736E+03</pdfrwt>
<totfact> 0.29627199E+00</totfact>
</mgrwt>
</event>
<event>
 4    1  0.1726795E-008  0.4341389E+03  0.7818608E-02  0.1032560E+00
          2   -1    0    0  501    0  0.00000000000E+00  0.00000000000E+00  0.67904064508E+03  0.67904064508E+03  0.25500000000E-02 0. -1.
         -2   -1    0    0    0  501 -0.00000000000E+00 -0.00000000000E+00 -0.83067368404E+03  0.83067368404E+03  0.25500000000E-02 0.  1.
    8880022    1    1    2    0    0 -0.29414079489E+03 -0.28029653535E+03 -0.69178083148E+03  0.81672353141E+03  0.15294330000E+03 0.  1.
    8880022    1    1    2    0    0  0.29414079489E+03  0.28029653535E+03  0.54014779251E+03  0.69299079772E+03  0.15294330000E+03 0.  0.
<mgrwt>
<rscale>  0 0.43413893E+03</rscale>
<asrwt>0</asrwt>
<pdfrwt beam="1">  1        2 0.10446779E+00 0.43413893E+03</pdfrwt>
<pdfrwt beam="2">  1       -2 0.12779595E+00 0.43413893E+03</pdfrwt>
<totfact> 0.20340204E+01</totfact>
</mgrwt>
</event>
<event>
 4    1  0.1726795E-008  0.8950070E+03  0.7818608E-02  0.9431845E-01
         -2   -1    0    0    0  501 -0.00000000000E+00  0.00000000000E+00  0.13767303144E+04  0.13767303144E+04  0.25500000000E-02 0.  1.
          2   -1    0    0  501    0  0.00000000000E+00 -0.00000000000E+00 -0.18493972907E+04  0.18493972907E+04  0.25500000000E-02 0. -1.
    8880022    1    1    2    0    0  0.73175996385E+03  0.49211096108E+03 -0.15717604650E+04  0.18087201152E+04  0.15294330000E+03 0.  0.
    8880022    1    1    2    0    0 -0.73175996385E+03 -0.49211096108E+03  0.10990934887E+04  0.14174074899E+04  0.15294330000E+03 0.  0.
<mgrwt>
<rscale>  0 0.89500698E+03</rscale>
<asrwt>0</asrwt>
<pdfrwt beam="1">  1        2 0.28452266E+00 0.89500698E+03</pdfrwt>
<pdfrwt beam="2">  1       -2 0.21180466E+00 0.89500698E+03</pdfrwt>
<totfact> 0.91613245E-01</totfact>
</mgrwt>
</event>
<event>
 4    1  0.1726795E-008  0.6725820E+03  0.7818608E-02  0.9765305E-01
          2   -1    0    0  501    0  0.00000000000E+00  0.00000000000E+00  0.16983115890E+04  0.16983115890E+04  0.25500000000E-02 0. -1.
         -2   -1    0    0    0  501 -0.00000000000E+00 -0.00000000000E+00 -0.62923457311E+03  0.62923457311E+03  0.25500000000E-02 0.  1.
    8880022    1    1    2    0    0  0.19448446331E+03  0.62542043425E+03 -0.34923050761E+03  0.75784465856E+03  0.15294330000E+03 0.  0.
    8880022    1    1    2    0    0 -0.19448446331E+03 -0.62542043425E+03  0.14183075235E+04  0.15697015036E+04  0.15294330000E+03 0. -1.
<mgrwt>
<rscale>  0 0.67258202E+03</rscale>
<asrwt>0</asrwt>
<pdfrwt beam="1">  1        2 0.26127871E+00 0.67258202E+03</pdfrwt>
<pdfrwt beam="2">  1       -2 0.96805318E-01 0.67258202E+03</pdfrwt>
<totfact> 0.91229881E+00</totfact>
</mgrwt>
</event>
<event>
 4    1  0.1726795E-008  0.6990523E+03  0.7818608E-02  0.9718854E-01
          2   -1    0    0  501    0  0.00000000000E+00  0.00000000000E+00  0.44916924003E+03  0.44916924003E+03  0.25500000000E-02 0. -1.
         -2   -1    0    0    0  501 -0.00000000000E+00 -0.00000000000E+00 -0.14222357076E+04  0.14222357076E+04  0.25500000000E-02 0.  1.
    8880022    1    1    2    0    0 -0.61203354434E+03  0.30116010325E+03 -0.94017209205E+03  0.11715791407E+04  0.15294330000E+03 0.  0.
    8880022    1    1    2    0    0  0.61203354434E+03 -0.30116010325E+03 -0.32894375574E+02  0.69982580700E+03  0.15294330000E+03 0.  0.
<mgrwt>
<rscale>  0 0.69905230E+03</rscale>
<asrwt>0</asrwt>
<pdfrwt beam="1">  1        2 0.69102961E-01 0.69905230E+03</pdfrwt>
<pdfrwt beam="2">  1       -2 0.21880549E+00 0.69905230E+03</pdfrwt>
<totfact> 0.72090759E+00</totfact>
</mgrwt>
</event>
<event>
 4    1  0.1726795E-008  0.4725551E+03  0.7818608E-02  0.1021202E+00
         -2   -1    0    0    0  501 -0.00000000000E+00  0.00000000000E+00  0.91071228407E+03  0.91071228407E+03  0.25500000000E-02 0.  1.
          2   -1    0    0  501    0  0.00000000000E+00 -0.00000000000E+00 -0.39055245085E+03  0.39055245086E+03  0.25500000000E-02 0. -1.
    8880022    1    1    2    0    0  0.44628580054E+03  0.27306918457E+02 -0.13684137607E+03  0.49196940838E+03  0.15294330000E+03 0.  0.
    8880022    1    1    2    0    0 -0.44628580054E+03 -0.27306918457E+02  0.65700120929E+03  0.80929532656E+03  0.15294330000E+03 0.  0.
<mgrwt>
<rscale>  0 0.47255511E+03</rscale>
<asrwt>0</asrwt>
<pdfrwt beam="1">  1        2 0.60084992E-01 0.47255511E+03</pdfrwt>
<pdfrwt beam="2">  1       -2 0.14010958E+00 0.47255511E+03</pdfrwt>
<totfact> 0.30398267E+01</totfact>
</mgrwt>
</event>
<event>
 4    1  0.1726795E-008  0.5960817E+03  0.7818608E-02  0.9913569E-01
          2   -1    0    0  501    0  0.00000000000E+00  0.00000000000E+00  0.11338493249E+04  0.11338493249E+04  0.25500000000E-02 0. -1.
         -2   -1    0    0    0  501 -0.00000000000E+00 -0.00000000000E+00 -0.51894385159E+03  0.51894385159E+03  0.25500000000E-02 0.  1.
    8880022    1    1    2    0    0  0.55946539766E+03  0.13755096020E+03  0.82758418893E+03  0.10199063882E+04  0.15294330000E+03 0.  0.
    8880022    1    1    2    0    0 -0.55946539766E+03 -0.13755096020E+03 -0.21267871557E+03  0.63288678838E+03  0.15294330000E+03 0.  0.
<mgrwt>
<rscale>  0 0.59608175E+03</rscale>
<asrwt>0</asrwt>
<pdfrwt beam="1">  1        2 0.17443836E+00 0.59608175E+03</pdfrwt>
<pdfrwt beam="2">  1       -2 0.79837516E-01 0.59608175E+03</pdfrwt>
<totfact> 0.29873159E+01</totfact>
</mgrwt>
</event>
<event>
 4    1  0.3650859E-008  0.7594528E+03  0.7818608E-02  0.9620636E-01
          2   -1    0    0  501    0  0.00000000000E+00  0.00000000000E+00  0.23572284835E+04  0.23572284835E+04  0.25500000000E-02 0. -1.
         -2   -1    0    0    0  501 -0.00000000000E+00 -0.00000000000E+00 -0.14969998360E+04  0.14969998360E+04  0.25500000000E-02 0.  1.
    8880022    1    1    2    0    0 -0.55885329370E+03  0.49097844106E+03  0.21927155256E+04  0.23205106900E+04  0.15294330000E+03 0.  0.
    8880022    1    1    2    0    0  0.55885329370E+03 -0.49097844106E+03 -0.13324868781E+04  0.15337176294E+04  0.15294330000E+03 0.  0.
<mgrwt>
<rscale>  0 0.75945275E+03</rscale>
<asrwt>0</asrwt>
<pdfrwt beam="1">  1        2 0.36265053E+00 0.75945275E+03</pdfrwt>
<pdfrwt beam="2">  1       -2 0.23030767E+00 0.75945275E+03</pdfrwt>
<totfact> 0.37849406E-01</totfact>
</mgrwt>
</event>
<event>
 4    1  0.1726795E-008  0.7710405E+03  0.7818608E-02  0.9602907E-01
         -2   -1    0    0    0  501 -0.00000000000E+00  0.00000000000E+00  0.61118405870E+03  0.61118405871E+03  0.25500000000E-02 0.  1.
          2   -1    0    0  501    0  0.00000000000E+00 -0.00000000000E+00 -0.12670460842E+04  0.12670460842E+04  0.25500000000E-02 0. -1.
    8880022    1    1    2    0    0  0.44479381321E+03  0.61095844176E+03  0.12470186414E+03  0.78105951230E+03  0.15294330000E+03 0.  0.
    8880022    1    1    2    0    0 -0.44479381321E+03 -0.61095844176E+03 -0.78056388960E+03  0.10971706306E+04  0.15294330000E+03 0.  0.
<mgrwt>
<rscale>  0 0.77104047E+03</rscale>
<asrwt>0</asrwt>
<pdfrwt beam="1">  1        2 0.19493017E+00 0.77104047E+03</pdfrwt>
<pdfrwt beam="2">  1       -2 0.94028317E-01 0.77104047E+03</pdfrwt>
<totfact> 0.16793076E+01</totfact>
</mgrwt>
</event>
<event>
 4    1  0.1726795E-008  0.9119342E+03  0.7818608E-02  0.9410785E-01
         -2   -1    0    0    0  501 -0.00000000000E+00  0.00000000000E+00  0.43368822322E+03  0.43368822323E+03  0.25500000000E-02 0.  1.
          2   -1    0    0  501    0  0.00000000000E+00 -0.00000000000E+00 -0.20046396557E+04  0.20046396557E+04  0.25500000000E-02 0. -1.
    8880022    1    1    2    0    0 -0.87949933259E+03  0.18631471577E+03 -0.53137949780E+03  0.10554563340E+04  0.15294330000E+03 0.  0.
    8880022    1    1    2    0    0  0.87949933259E+03 -0.18631471577E+03 -0.10395719347E+04  0.13828715449E+04  0.15294330000E+03 0.  0.
<mgrwt>
<rscale>  0 0.91193415E+03</rscale>
<asrwt>0</asrwt>
<pdfrwt beam="1">  1        2 0.30840610E+00 0.91193415E+03</pdfrwt>
<pdfrwt beam="2">  1       -2 0.66721266E-01 0.91193415E+03</pdfrwt>
<totfact> 0.13886185E+01</totfact>
</mgrwt>
</event>
<event>
 4    1  0.1726795E-008  0.1570180E+04  0.7818608E-02  0.8839080E-01
          2   -1    0    0  501    0  0.00000000000E+00  0.00000000000E+00  0.26663749400E+04  0.26663749400E+04  0.25500000000E-02 0. -1.
         -2   -1    0    0    0  501 -0.00000000000E+00 -0.00000000000E+00 -0.15687032285E+04  0.15687032285E+04  0.25500000000E-02 0.  1.
    8880022    1    1    2    0    0  0.14770273279E+04 -0.51035662557E+03  0.19056542059E+04  0.24692070019E+04  0.15294330000E+03 0.  0.
    8880022    1    1    2    0    0 -0.14770273279E+04  0.51035662557E+03 -0.80798249442E+03  0.17658711665E+04  0.15294330000E+03 0.  0.
<mgrwt>
<rscale>  0 0.15701800E+04</rscale>
<asrwt>0</asrwt>
<pdfrwt beam="1">  1        2 0.41021153E+00 0.15701800E+04</pdfrwt>
<pdfrwt beam="2">  1       -2 0.24133896E+00 0.15701800E+04</pdfrwt>
<totfact> 0.18807126E-01</totfact>
</mgrwt>
</event>
<event>
 4    1  0.1726795E-008  0.9683639E+03  0.7818608E-02  0.9343940E-01
         -2   -1    0    0    0  501 -0.00000000000E+00  0.00000000000E+00  0.30847894034E+04  0.30847894034E+04  0.25500000000E-02 0.  1.
          2   -1    0    0  501    0  0.00000000000E+00 -0.00000000000E+00 -0.13751672026E+04  0.13751672026E+04  0.25500000000E-02 0. -1.
    8880022    1    1    2    0    0 -0.94899114456E+03 -0.11727196841E+03  0.28229449650E+04  0.29844173360E+04  0.15294330000E+03 0.  0.
    8880022    1    1    2    0    0  0.94899114456E+03  0.11727196841E+03 -0.11133227641E+04  0.14755392700E+04  0.15294330000E+03 0. -1.
<mgrwt>
<rscale>  0 0.96836386E+03</rscale>
<asrwt>0</asrwt>
<pdfrwt beam="1">  1        2 0.21156419E+00 0.96836386E+03</pdfrwt>
<pdfrwt beam="2">  1       -2 0.47458298E+00 0.96836386E+03</pdfrwt>
<totfact> 0.36585276E-02</totfact>
</mgrwt>
</event>
<event>
 4    1  0.1726795E-008  0.6143627E+03  0.7818608E-02  0.9876048E-01
          2   -1    0    0  501    0  0.00000000000E+00  0.00000000000E+00  0.22610546478E+04  0.22610546478E+04  0.25500000000E-02 0. -1.
         -2   -1    0    0    0  501 -0.00000000000E+00 -0.00000000000E+00 -0.28690010528E+03  0.28690010529E+03  0.25500000000E-02 0.  1.
    8880022    1    1    2    0    0  0.45971836008E+03 -0.37776838094E+03  0.16326187665E+03  0.63568546752E+03  0.15294330000E+03 0.  0.
    8880022    1    1    2    0    0 -0.45971836008E+03  0.37776838094E+03  0.18108926659E+04  0.19122692856E+04  0.15294330000E+03 0. -1.
<mgrwt>
<rscale>  0 0.61436274E+03</rscale>
<asrwt>0</asrwt>
<pdfrwt beam="1">  1        2 0.34785456E+00 0.61436274E+03</pdfrwt>
<pdfrwt beam="2">  1       -2 0.44138477E-01 0.61436274E+03</pdfrwt>
<totfact> 0.24648250E+01</totfact>
</mgrwt>
</event>
<event>
 4    1  0.1726795E-008  0.4503660E+03  0.7818608E-02  0.1027613E+00
         -2   -1    0    0    0  501 -0.00000000000E+00  0.00000000000E+00  0.46669077132E+03  0.46669077133E+03  0.25500000000E-02 0.  1.
          2   -1    0    0  501    0  0.00000000000E+00 -0.00000000000E+00 -0.66145960966E+03  0.66145960966E+03  0.25500000000E-02 0. -1.
    8880022    1    1    2    0    0 -0.14064444870E+03  0.39957099720E+03 -0.42771764647E+03  0.62110537019E+03  0.15294330000E+03 0.  0.
    8880022    1    1    2    0    0  0.14064444870E+03 -0.39957099720E+03  0.23294880814E+03  0.50704501081E+03  0.15294330000E+03 0.  0.
<mgrwt>
<rscale>  0 0.45036596E+03</rscale>
<asrwt>0</asrwt>
<pdfrwt beam="1">  1        2 0.10176302E+00 0.45036596E+03</pdfrwt>
<pdfrwt beam="2">  1       -2 0.71798580E-01 0.45036596E+03</pdfrwt>
<totfact> 0.80244200E+01</totfact>
</mgrwt>
</event>
<event>
 4    1  0.1726795E-008  0.6565035E+03  0.7818608E-02  0.9794652E-01
          2   -1    0    0  501    0  0.00000000000E+00  0.00000000000E+00  0.93797546550E+03  0.93797546551E+03  0.25500000000E-02 0. -1.
         -2   -1    0    0    0  501 -0.00000000000E+00 -0.00000000000E+00 -0.10224665165E+04  0.10224665165E+04  0.25500000000E-02 0.  1.
    8880022    1    1    2    0    0  0.30818582966E+03  0.55913027626E+03 -0.76959298634E+03  0.10115681831E+04  0.15294330000E+03 0.  0.
    8880022    1    1    2    0    0 -0.30818582966E+03 -0.55913027626E+03  0.68510193533E+03  0.94887379891E+03  0.15294330000E+03 0.  0.
<mgrwt>
<rscale>  0 0.65650348E+03</rscale>
<asrwt>0</asrwt>
<pdfrwt beam="1">  1        2 0.14430392E+00 0.65650348E+03</pdfrwt>
<pdfrwt beam="2">  1       -2 0.15730254E+00 0.65650348E+03</pdfrwt>
<totfact> 0.75211666E+00</totfact>
</mgrwt>
</event>
<event>
 4    1  0.1726795E-008  0.2666262E+03  0.7818608E-02  0.1103226E+00
          2   -1    0    0  501    0  0.00000000000E+00  0.00000000000E+00  0.71774364195E+03  0.71774364195E+03  0.25500000000E-02 0. -1.
         -2   -1    0    0    0  501 -0.00000000000E+00 -0.00000000000E+00 -0.78803109859E+03  0.78803109859E+03  0.25500000000E-02 0.  1.
    8880022    1    1    2    0    0 -0.63133117867E+02  0.20907431478E+03  0.66884110464E+03  0.72002634392E+03  0.15294330000E+03 0.  0.
    8880022    1    1    2    0    0  0.63133117867E+02 -0.20907431478E+03 -0.73912856128E+03  0.78574839662E+03  0.15294330000E+03 0.  1.
<mgrwt>
<rscale>  0 0.26662617E+03</rscale>
<asrwt>0</asrwt>
<pdfrwt beam="1">  1        2 0.11042210E+00 0.26662617E+03</pdfrwt>
<pdfrwt beam="2">  1       -2 0.12123555E+00 0.26662617E+03</pdfrwt>
<totfact> 0.22391825E+01</totfact>
</mgrwt>
</event>
<event>
 4    1  0.1726795E-008  0.6755217E+03  0.7818608E-02  0.9760034E-01
         -2   -1    0    0    0  501 -0.00000000000E+00  0.00000000000E+00  0.26147661886E+03  0.26147661887E+03  0.25500000000E-02 0.  1.
          2   -1    0    0  501    0  0.00000000000E+00 -0.00000000000E+00 -0.27081866367E+04  0.27081866367E+04  0.25500000000E-02 0. -1.
    8880022    1    1    2    0    0 -0.54242537568E+03 -0.37244144529E+03 -0.33793863780E+03  0.75533574938E+03  0.15294330000E+03 0.  0.
    8880022    1    1    2    0    0  0.54242537568E+03  0.37244144529E+03 -0.21087713800E+04  0.22143275062E+04  0.15294330000E+03 0.  0.
<mgrwt>
<rscale>  0 0.67552170E+03</rscale>
<asrwt>0</asrwt>
<pdfrwt beam="1">  1        2 0.41664408E+00 0.67552170E+03</pdfrwt>
<pdfrwt beam="2">  1       -2 0.40227174E-01 0.67552170E+03</pdfrwt>
<totfact> 0.16368970E+01</totfact>
</mgrwt>
</event>
<event>
 4    1  0.1726795E-008  0.1431015E+04  0.7818608E-02  0.8931669E-01
         -2   -1    0    0    0  501 -0.00000000000E+00  0.00000000000E+00  0.16069152920E+04  0.16069152920E+04  0.25500000000E-02 0.  1.
          2   -1    0    0  501    0  0.00000000000E+00 -0.00000000000E+00 -0.21525319954E+04  0.21525319954E+04  0.25500000000E-02 0. -1.
    8880022    1    1    2    0    0  0.10104362980E+04 -0.10017137954E+04  0.92781465489E+03  0.17054746340E+04  0.15294330000E+03 0.  0.
    8880022    1    1    2    0    0 -0.10104362980E+04  0.10017137954E+04 -0.14734313583E+04  0.20539726534E+04  0.15294330000E+03 0.  0.
<mgrwt>
<rscale>  0 0.14310149E+04</rscale>
<asrwt>0</asrwt>
<pdfrwt beam="1">  1        2 0.33115877E+00 0.14310149E+04</pdfrwt>
<pdfrwt beam="2">  1       -2 0.24721774E+00 0.14310149E+04</pdfrwt>
<totfact> 0.34685693E-01</totfact>
</mgrwt>
</event>
<event>
 4    1  0.1726795E-008  0.2119651E+03  0.7818608E-02  0.1140019E+00
         -2   -1    0    0    0  501 -0.00000000000E+00  0.00000000000E+00  0.10983988460E+04  0.10983988460E+04  0.25500000000E-02 0.  1.
          2   -1    0    0  501    0  0.00000000000E+00 -0.00000000000E+00 -0.27583527113E+04  0.27583527113E+04  0.25500000000E-02 0. -1.
    8880022    1    1    2    0    0  0.54832096615E+02  0.13612860684E+03  0.10840472674E+04  0.11045757952E+04  0.15294330000E+03 0.  0.
    8880022    1    1    2    0    0 -0.54832096615E+02 -0.13612860684E+03 -0.27440011327E+04  0.27521757622E+04  0.15294330000E+03 0.  0.
<mgrwt>
<rscale>  0 0.21196511E+03</rscale>
<asrwt>0</asrwt>
<pdfrwt beam="1">  1        2 0.42436195E+00 0.21196511E+03</pdfrwt>
<pdfrwt beam="2">  1       -2 0.16898444E+00 0.21196511E+03</pdfrwt>
<totfact> 0.71143020E-01</totfact>
</mgrwt>
</event>
<event>
 4    1  0.1726795E-008  0.2535697E+03  0.7818608E-02  0.1111069E+00
         -2   -1    0    0    0  501 -0.00000000000E+00  0.00000000000E+00  0.19418964057E+03  0.19418964059E+03  0.25500000000E-02 0.  1.
          2   -1    0    0  501    0  0.00000000000E+00 -0.00000000000E+00 -0.13410119805E+04  0.13410119805E+04  0.25500000000E-02 0. -1.
    8880022    1    1    2    0    0  0.20223941646E+03 -0.22673969844E+01  0.92719336923E+02  0.26998972409E+03  0.15294330000E+03 0.  0.
    8880022    1    1    2    0    0 -0.20223941646E+03  0.22673969844E+01 -0.12395416769E+04  0.12652118970E+04  0.15294330000E+03 0.  0.
<mgrwt>
<rscale>  0 0.25356967E+03</rscale>
<asrwt>0</asrwt>
<pdfrwt beam="1">  1        2 0.20630953E+00 0.25356967E+03</pdfrwt>
<pdfrwt beam="2">  1       -2 0.29875330E-01 0.25356967E+03</pdfrwt>
<totfact> 0.17396850E+02</totfact>
</mgrwt>
</event>
<event>
 4    1  0.1726795E-008  0.1562746E+03  0.7818608E-02  0.1192968E+00
         -2   -1    0    0    0  501 -0.00000000000E+00  0.00000000000E+00  0.76478467673E+01  0.76478471924E+01  0.25500000000E-02 0.  1.
          2   -1    0    0  501    0  0.00000000000E+00 -0.00000000000E+00 -0.34565039587E+04  0.34565039587E+04  0.25500000000E-02 0. -1.
    8880022    1    1    2    0    0 -0.29570410331E+01 -0.31958814263E+02 -0.12464520181E+04  0.12562103312E+04  0.15294330000E+03 0.  0.
    8880022    1    1    2    0    0  0.29570410331E+01  0.31958814263E+02 -0.22024040939E+04  0.22079414747E+04  0.15294330000E+03 0.  0.
<mgrwt>
<rscale>  0 0.15627464E+03</rscale>
<asrwt>0</asrwt>
<pdfrwt beam="1">  1        2 0.53176859E+00 0.15627464E+03</pdfrwt>
<pdfrwt beam="2">  1       -2 0.11765946E-02 0.15627464E+03</pdfrwt>
<totfact> 0.18652694E+03</totfact>
</mgrwt>
</event>
<event>
 4    1  0.1726795E-008  0.1816570E+04  0.7818608E-02  0.8697537E-01
          2   -1    0    0  501    0  0.00000000000E+00  0.00000000000E+00  0.14913471356E+04  0.14913471356E+04  0.25500000000E-02 0. -1.
         -2   -1    0    0    0  501 -0.00000000000E+00 -0.00000000000E+00 -0.32310951581E+04  0.32310951581E+04  0.25500000000E-02 0.  1.
    8880022    1    1    2    0    0  0.18088504199E+04 -0.67784630965E+02 -0.21954869788E+04  0.28495770431E+04  0.15294330000E+03 0.  0.
    8880022    1    1    2    0    0 -0.18088504199E+04  0.67784630965E+02  0.45573895630E+03  0.18728652506E+04  0.15294330000E+03 0.  0.
<mgrwt>
<rscale>  0 0.18165699E+04</rscale>
<asrwt>0</asrwt>
<pdfrwt beam="1">  1        2 0.22943802E+00 0.18165699E+04</pdfrwt>
<pdfrwt beam="2">  1       -2 0.49709156E+00 0.18165699E+04</pdfrwt>
<totfact> 0.19884984E-02</totfact>
</mgrwt>
</event>
<event>
 4    1  0.1726795E-008  0.8843244E+03  0.7818608E-02  0.9445392E-01
         -2   -1    0    0    0  501 -0.00000000000E+00  0.00000000000E+00  0.33450920297E+03  0.33450920298E+03  0.25500000000E-02 0.  1.
          2   -1    0    0  501    0  0.00000000000E+00 -0.00000000000E+00 -0.32520258280E+04  0.32520258280E+04  0.25500000000E-02 0. -1.
    8880022    1    1    2    0    0  0.54734662235E+03 -0.67753207718E+03 -0.24095488143E+04  0.25667012257E+04  0.15294330000E+03 0.  0.
    8880022    1    1    2    0    0 -0.54734662235E+03  0.67753207718E+03 -0.50796781073E+03  0.10198338053E+04  0.15294330000E+03 0.  0.
<mgrwt>
<rscale>  0 0.88432443E+03</rscale>
<asrwt>0</asrwt>
<pdfrwt beam="1">  1        2 0.50031164E+00 0.88432443E+03</pdfrwt>
<pdfrwt beam="2">  1       -2 0.51462957E-01 0.88432443E+03</pdfrwt>
<totfact> 0.44842042E+00</totfact>
</mgrwt>
</event>
<event>
 4    1  0.1726795E-008  0.6260358E+03  0.7818608E-02  0.9852815E-01
          2   -1    0    0  501    0  0.00000000000E+00  0.00000000000E+00  0.16395844604E+04  0.16395844604E+04  0.25500000000E-02 0. -1.
         -2   -1    0    0    0  501 -0.00000000000E+00 -0.00000000000E+00 -0.11435683417E+04  0.11435683417E+04  0.25500000000E-02 0.  1.
    8880022    1    1    2    0    0 -0.21241708788E+03  0.56868985928E+03  0.14856296568E+04  0.16121464900E+04  0.15294330000E+03 0.  0.
    8880022    1    1    2    0    0  0.21241708788E+03 -0.56868985928E+03 -0.98961353801E+03  0.11710063121E+04  0.15294330000E+03 0.  0.
<mgrwt>
<rscale>  0 0.62603580E+03</rscale>
<asrwt>0</asrwt>
<pdfrwt beam="1">  1        2 0.25224376E+00 0.62603580E+03</pdfrwt>
<pdfrwt beam="2">  1       -2 0.17593359E+00 0.62603580E+03</pdfrwt>
<totfact> 0.21679230E+00</totfact>
</mgrwt>
</event>
<event>
 4    1  0.1726795E-008  0.9939170E+03  0.7818608E-02  0.9315242E-01
         -2   -1    0    0    0  501 -0.00000000000E+00  0.00000000000E+00  0.52057119154E+03  0.52057119155E+03  0.25500000000E-02 0.  1.
          2   -1    0    0  501    0  0.00000000000E+00 -0.00000000000E+00 -0.28907014653E+04  0.28907014653E+04  0.25500000000E-02 0. -1.
    8880022    1    1    2    0    0 -0.67578893263E+03  0.71259298464E+03 -0.18537170060E+03  0.10110557668E+04  0.15294330000E+03 0.  0.
    8880022    1    1    2    0    0  0.67578893263E+03 -0.71259298464E+03 -0.21847585732E+04  0.24002168901E+04  0.15294330000E+03 0.  0.
<mgrwt>
<rscale>  0 0.99391705E+03</rscale>
<asrwt>0</asrwt>
<pdfrwt beam="1">  1        2 0.44472329E+00 0.99391705E+03</pdfrwt>
<pdfrwt beam="2">  1       -2 0.80087878E-01 0.99391705E+03</pdfrwt>
<totfact> 0.28617866E+00</totfact>
</mgrwt>
</event>
<event>
 4    1  0.1726795E-008  0.1812706E+04  0.7818608E-02  0.8699572E-01
         -2   -1    0    0    0  501 -0.00000000000E+00  0.00000000000E+00  0.15720225473E+04  0.15720225473E+04  0.25500000000E-02 0.  1.
          2   -1    0    0  501    0  0.00000000000E+00 -0.00000000000E+00 -0.21247209187E+04  0.21247209187E+04  0.25500000000E-02 0. -1.
    8880022    1    1    2    0    0  0.46635140932E+03  0.17450003835E+04 -0.51182099794E+03  0.18835770126E+04  0.15294330000E+03 0.  0.
    8880022    1    1    2    0    0 -0.46635140932E+03 -0.17450003835E+04 -0.40877373427E+02  0.18131664535E+04  0.15294330000E+03 0.  0.
<mgrwt>
<rscale>  0 0.18127056E+04</rscale>
<asrwt>0</asrwt>
<pdfrwt beam="1">  1        2 0.32688014E+00 0.18127056E+04</pdfrwt>
<pdfrwt beam="2">  1       -2 0.24184962E+00 0.18127056E+04</pdfrwt>
<totfact> 0.37305185E-01</totfact>
</mgrwt>
</event>
<event>
 4    1  0.1726795E-008  0.1256241E+04  0.7818608E-02  0.9065005E-01
         -2   -1    0    0    0  501 -0.00000000000E+00  0.00000000000E+00  0.24658140242E+04  0.24658140242E+04  0.25500000000E-02 0.  1.
          2   -1    0    0  501    0  0.00000000000E+00 -0.00000000000E+00 -0.10095192882E+04  0.10095192882E+04  0.25500000000E-02 0. -1.
    8880022    1    1    2    0    0  0.45929313454E+03 -0.11592241464E+04 -0.32314277780E+03  0.12971367364E+04  0.15294330000E+03 0.  0.
    8880022    1    1    2    0    0 -0.45929313454E+03  0.11592241464E+04  0.17794375138E+04  0.21781965760E+04  0.15294330000E+03 0.  0.
<mgrwt>
<rscale>  0 0.12562414E+04</rscale>
<asrwt>0</asrwt>
<pdfrwt beam="1">  1        2 0.15531066E+00 0.12562414E+04</pdfrwt>
<pdfrwt beam="2">  1       -2 0.37935600E+00 0.12562414E+04</pdfrwt>
<totfact> 0.24538343E-01</totfact>
</mgrwt>
</event>
<event>
 4    1  0.1726795E-008  0.1250056E+04  0.7818608E-02  0.9070136E-01
          2   -1    0    0  501    0  0.00000000000E+00  0.00000000000E+00  0.18370928945E+04  0.18370928945E+04  0.25500000000E-02 0. -1.
         -2   -1    0    0    0  501 -0.00000000000E+00 -0.00000000000E+00 -0.13098147317E+04  0.13098147317E+04  0.25500000000E-02 0.  1.
    8880022    1    1    2    0    0 -0.96548400610E+03  0.77915966922E+03 -0.66801459176E+03  0.14173511576E+04  0.15294330000E+03 0.  0.
    8880022    1    1    2    0    0  0.96548400610E+03 -0.77915966922E+03  0.11952927546E+04  0.17295564687E+04  0.15294330000E+03 0.  0.
<mgrwt>
<rscale>  0 0.12500563E+04</rscale>
<asrwt>0</asrwt>
<pdfrwt beam="1">  1        2 0.28262968E+00 0.12500563E+04</pdfrwt>
<pdfrwt beam="2">  1       -2 0.20150996E+00 0.12500563E+04</pdfrwt>
<totfact> 0.10321717E+00</totfact>
</mgrwt>
</event>
<event>
 4    1  0.1726795E-008  0.4679828E+03  0.7818608E-02  0.1022491E+00
          2   -1    0    0  501    0  0.00000000000E+00  0.00000000000E+00  0.10494794145E+04  0.10494794145E+04  0.25500000000E-02 0. -1.
         -2   -1    0    0    0  501 -0.00000000000E+00 -0.00000000000E+00 -0.10616401513E+04  0.10616401513E+04  0.25500000000E-02 0.  1.
    8880022    1    1    2    0    0  0.39406970998E+03  0.20081163725E+03 -0.95222585667E+03  0.10610098893E+04  0.15294330000E+03 0.  0.
    8880022    1    1    2    0    0 -0.39406970998E+03 -0.20081163725E+03  0.94006511987E+03  0.10501096765E+04  0.15294330000E+03 0. -1.
<mgrwt>
<rscale>  0 0.46798280E+03</rscale>
<asrwt>0</asrwt>
<pdfrwt beam="1">  1        2 0.16145837E+00 0.46798280E+03</pdfrwt>
<pdfrwt beam="2">  1       -2 0.16332925E+00 0.46798280E+03</pdfrwt>
<totfact> 0.59706075E+00</totfact>
</mgrwt>
</event>
<event>
 4    1  0.1726795E-008  0.1645057E+04  0.7818608E-02  0.8793336E-01
         -2   -1    0    0    0  501 -0.00000000000E+00  0.00000000000E+00  0.15923272634E+04  0.15923272634E+04  0.25500000000E-02 0.  1.
          2   -1    0    0  501    0  0.00000000000E+00 -0.00000000000E+00 -0.17395591007E+04  0.17395591007E+04  0.25500000000E-02 0. -1.
    8880022    1    1    2    0    0 -0.16173506476E+04 -0.25884100953E+03 -0.32631858392E+03  0.16771097927E+04  0.15294330000E+03 0.  0.
    8880022    1    1    2    0    0  0.16173506476E+04  0.25884100953E+03  0.17908674657E+03  0.16547765714E+04  0.15294330000E+03 0.  0.
<mgrwt>
<rscale>  0 0.16450573E+04</rscale>
<asrwt>0</asrwt>
<pdfrwt beam="1">  1        2 0.26762448E+00 0.16450573E+04</pdfrwt>
<pdfrwt beam="2">  1       -2 0.24497343E+00 0.16450573E+04</pdfrwt>
<totfact> 0.59549763E-01</totfact>
</mgrwt>
</event>
<event>
 4    1  0.1726795E-008  0.1291260E+04  0.7818608E-02  0.9036525E-01
         -2   -1    0    0    0  501 -0.00000000000E+00  0.00000000000E+00  0.15963930088E+04  0.15963930088E+04  0.25500000000E-02 0.  1.
          2   -1    0    0  501    0  0.00000000000E+00 -0.00000000000E+00 -0.16283505741E+04  0.16283505741E+04  0.25500000000E-02 0. -1.
    8880022    1    1    2    0    0 -0.98937777664E+03 -0.81553176864E+03  0.94954020898E+03  0.16028033916E+04  0.15294330000E+03 0.  0.
    8880022    1    1    2    0    0  0.98937777664E+03  0.81553176864E+03 -0.98149777428E+03  0.16219401914E+04  0.15294330000E+03 0.  1.
<mgrwt>
<rscale>  0 0.12912599E+04</rscale>
<asrwt>0</asrwt>
<pdfrwt beam="1">  1        2 0.25051547E+00 0.12912599E+04</pdfrwt>
<pdfrwt beam="2">  1       -2 0.24559892E+00 0.12912599E+04</pdfrwt>
<totfact> 0.70658426E-01</totfact>
</mgrwt>
</event>
<event>
 4    1  0.1726795E-008  0.3276103E+03  0.7818608E-02  0.1072199E+00
         -2   -1    0    0    0  501 -0.00000000000E+00  0.00000000000E+00  0.41225590041E+02  0.41225590120E+02  0.25500000000E-02 0.  1.
          2   -1    0    0  501    0  0.00000000000E+00 -0.00000000000E+00 -0.26668071843E+04  0.26668071843E+04  0.25500000000E-02 0. -1.
    8880022    1    1    2    0    0 -0.28232519643E+03  0.65033542388E+02 -0.15215017668E+04  0.15563727566E+04  0.15294330000E+03 0. -1.
    8880022    1    1    2    0    0  0.28232519643E+03 -0.65033542388E+02 -0.11040798274E+04  0.11516600178E+04  0.15294330000E+03 0.  1.
<mgrwt>
<rscale>  0 0.32761033E+03</rscale>
<asrwt>0</asrwt>
<pdfrwt beam="1">  1        2 0.41027789E+00 0.32761033E+03</pdfrwt>
<pdfrwt beam="2">  1       -2 0.63424006E-02 0.32761033E+03</pdfrwt>
<totfact> 0.43530828E+02</totfact>
</mgrwt>
</event>
<event>
 4    1  0.1726795E-008  0.5340465E+03  0.7818608E-02  0.1005255E+00
          2   -1    0    0  501    0  0.00000000000E+00  0.00000000000E+00  0.11827437843E+04  0.11827437843E+04  0.25500000000E-02 0. -1.
         -2   -1    0    0    0  501 -0.00000000000E+00 -0.00000000000E+00 -0.51518407817E+03  0.51518407818E+03  0.25500000000E-02 0.  1.
    8880022    1    1    2    0    0 -0.50225590936E+03  0.97739435364E+02  0.95296286079E+03  0.10924027933E+04  0.15294330000E+03 0.  0.
    8880022    1    1    2    0    0  0.50225590936E+03 -0.97739435364E+02 -0.28540315466E+03  0.60552506919E+03  0.15294330000E+03 0.  0.
<mgrwt>
<rscale>  0 0.53404649E+03</rscale>
<asrwt>0</asrwt>
<pdfrwt beam="1">  1        2 0.18196058E+00 0.53404649E+03</pdfrwt>
<pdfrwt beam="2">  1       -2 0.79259088E-01 0.53404649E+03</pdfrwt>
<totfact> 0.28644572E+01</totfact>
</mgrwt>
</event>
<event>
 4    1  0.1726795E-008  0.5692865E+03  0.7818608E-02  0.9971259E-01
         -2   -1    0    0    0  501 -0.00000000000E+00  0.00000000000E+00  0.22145985355E+03  0.22145985357E+03  0.25500000000E-02 0.  1.
          2   -1    0    0  501    0  0.00000000000E+00 -0.00000000000E+00 -0.25391267947E+04  0.25391267947E+04  0.25500000000E-02 0. -1.
    8880022    1    1    2    0    0  0.19252707658E+03 -0.51344795332E+03 -0.26041710780E+03  0.62602252279E+03  0.15294330000E+03 0.  0.
    8880022    1    1    2    0    0 -0.19252707658E+03  0.51344795332E+03 -0.20572498334E+04  0.21345641255E+04  0.15294330000E+03 0.  0.
<mgrwt>
<rscale>  0 0.56928651E+03</rscale>
<asrwt>0</asrwt>
<pdfrwt beam="1">  1        2 0.39063487E+00 0.56928651E+03</pdfrwt>
<pdfrwt beam="2">  1       -2 0.34070749E-01 0.56928651E+03</pdfrwt>
<totfact> 0.28698306E+01</totfact>
</mgrwt>
</event>
<event>
 4    1  0.1726795E-008  0.6961310E+03  0.7818608E-02  0.9723872E-01
         -2   -1    0    0    0  501 -0.00000000000E+00  0.00000000000E+00  0.79635194148E+03  0.79635194148E+03  0.25500000000E-02 0.  1.
          2   -1    0    0  501    0  0.00000000000E+00 -0.00000000000E+00 -0.11769625033E+04  0.11769625033E+04  0.25500000000E-02 0. -1.
    8880022    1    1    2    0    0 -0.66154941555E+03  0.15348955183E+03 -0.87599428078E+03  0.11189121077E+04  0.15294330000E+03 0. -1.
    8880022    1    1    2    0    0  0.66154941555E+03 -0.15348955183E+03  0.49538371892E+03  0.85440233715E+03  0.15294330000E+03 0.  0.
<mgrwt>
<rscale>  0 0.69613097E+03</rscale>
<asrwt>0</asrwt>
<pdfrwt beam="1">  1        2 0.18107115E+00 0.69613097E+03</pdfrwt>
<pdfrwt beam="2">  1       -2 0.12251568E+00 0.69613097E+03</pdfrwt>
<totfact> 0.10122633E+01</totfact>
</mgrwt>
</event>
<event>
 4    1  0.1726795E-008  0.1400142E+04  0.7818608E-02  0.8953716E-01
          2   -1    0    0  501    0  0.00000000000E+00  0.00000000000E+00  0.30677045791E+04  0.30677045791E+04  0.25500000000E-02 0. -1.
         -2   -1    0    0    0  501 -0.00000000000E+00 -0.00000000000E+00 -0.72567193841E+03  0.72567193842E+03  0.25500000000E-02 0.  1.
    8880022    1    1    2    0    0  0.13915737984E+04 -0.22990969736E+02  0.51569386311E+03  0.14920918318E+04  0.15294330000E+03 0.  0.
    8880022    1    1    2    0    0 -0.13915737984E+04  0.22990969736E+02  0.18263387776E+04  0.23012846857E+04  0.15294330000E+03 0.  0.
<mgrwt>
<rscale>  0 0.14001421E+04</rscale>
<asrwt>0</asrwt>
<pdfrwt beam="1">  1        2 0.47195454E+00 0.14001421E+04</pdfrwt>
<pdfrwt beam="2">  1       -2 0.11164184E+00 0.14001421E+04</pdfrwt>
<totfact> 0.96569997E-01</totfact>
</mgrwt>
</event>
<event>
 4    1  0.1726795E-008  0.3172728E+03  0.7818608E-02  0.1076911E+00
         -2   -1    0    0    0  501 -0.00000000000E+00  0.00000000000E+00  0.12033941174E+04  0.12033941174E+04  0.25500000000E-02 0.  1.
          2   -1    0    0  501    0  0.00000000000E+00 -0.00000000000E+00 -0.14206276187E+03  0.14206276190E+03  0.25500000000E-02 0. -1.
    8880022    1    1    2    0    0  0.13639468722E+03  0.24221243617E+03  0.99286309642E+02  0.33244518230E+03  0.15294330000E+03 0.  0.
    8880022    1    1    2    0    0 -0.13639468722E+03 -0.24221243617E+03  0.96204504584E+03  0.10130116970E+04  0.15294330000E+03 0.  0.
<mgrwt>
<rscale>  0 0.31727280E+03</rscale>
<asrwt>0</asrwt>
<pdfrwt beam="1">  1        2 0.21855810E-01 0.31727280E+03</pdfrwt>
<pdfrwt beam="2">  1       -2 0.18513755E+00 0.31727280E+03</pdfrwt>
<totfact> 0.45018599E+01</totfact>
</mgrwt>
</event>
<event>
 4    1  0.1726795E-008  0.7371417E+03  0.7818608E-02  0.9655742E-01
          2   -1    0    0  501    0  0.00000000000E+00  0.00000000000E+00  0.69598720832E+03  0.69598720833E+03  0.25500000000E-02 0. -1.
         -2   -1    0    0    0  501 -0.00000000000E+00 -0.00000000000E+00 -0.10435783361E+04  0.10435783361E+04  0.25500000000E-02 0.  1.
    8880022    1    1    2    0    0  0.65723946788E+03  0.29668582836E+03  0.26272145070E+03  0.78256016546E+03  0.15294330000E+03 0.  0.
    8880022    1    1    2    0    0 -0.65723946788E+03 -0.29668582836E+03 -0.61031257843E+03  0.95700537893E+03  0.15294330000E+03 0.  0.
<mgrwt>
<rscale>  0 0.73714168E+03</rscale>
<asrwt>0</asrwt>
<pdfrwt beam="1">  1        2 0.10707495E+00 0.73714168E+03</pdfrwt>
<pdfrwt beam="2">  1       -2 0.16055051E+00 0.73714168E+03</pdfrwt>
<totfact> 0.10479569E+01</totfact>
</mgrwt>
</event>
<event>
 4    1  0.1726795E-008  0.5634306E+03  0.7818608E-02  0.9984322E-01
          2   -1    0    0  501    0  0.00000000000E+00  0.00000000000E+00  0.14322959818E+04  0.14322959818E+04  0.25500000000E-02 0. -1.
         -2   -1    0    0    0  501 -0.00000000000E+00 -0.00000000000E+00 -0.23421749832E+03  0.23421749833E+03  0.25500000000E-02 0.  1.
    8880022    1    1    2    0    0 -0.53963651834E+03 -0.53430764912E+02  0.79213219231E+03  0.97207380464E+03  0.15294330000E+03 0.  0.
    8880022    1    1    2    0    0  0.53963651834E+03  0.53430764912E+02  0.40594629117E+03  0.69443967549E+03  0.15294330000E+03 0.  0.
<mgrwt>
<rscale>  0 0.56343063E+03</rscale>
<asrwt>0</asrwt>
<pdfrwt beam="1">  1        2 0.22035323E+00 0.56343063E+03</pdfrwt>
<pdfrwt beam="2">  1       -2 0.36033461E-01 0.56343063E+03</pdfrwt>
<totfact> 0.10414822E+02</totfact>
</mgrwt>
</event>
<event>
 4    1  0.1726795E-008  0.1794948E+03  0.7818608E-02  0.1168293E+00
         -2   -1    0    0    0  501 -0.00000000000E+00  0.00000000000E+00  0.29460016100E+02  0.29460016210E+02  0.25500000000E-02 0.  1.
          2   -1    0    0  501    0  0.00000000000E+00 -0.00000000000E+00 -0.19532397680E+04  0.19532397680E+04  0.25500000000E-02 0. -1.
    8880022    1    1    2    0    0 -0.11856744140E+01  0.93943264162E+02 -0.16195469980E+04  0.16294633700E+04  0.15294330000E+03 0.  0.
    8880022    1    1    2    0    0  0.11856744140E+01 -0.93943264162E+02 -0.30423275391E+03  0.35323641414E+03  0.15294330000E+03 0.  0.
<mgrwt>
<rscale>  0 0.17949483E+03</rscale>
<asrwt>0</asrwt>
<pdfrwt beam="1">  1        2 0.30049832E+00 0.17949483E+03</pdfrwt>
<pdfrwt beam="2">  1       -2 0.45323117E-02 0.17949483E+03</pdfrwt>
<totfact> 0.17998823E+03</totfact>
</mgrwt>
</event>
<event>
 4    1  0.1726795E-008  0.1132429E+04  0.7818608E-02  0.9174148E-01
         -2   -1    0    0    0  501 -0.00000000000E+00  0.00000000000E+00  0.53073214960E+03  0.53073214961E+03  0.25500000000E-02 0.  1.
          2   -1    0    0  501    0  0.00000000000E+00 -0.00000000000E+00 -0.33602110876E+04  0.33602110876E+04  0.25500000000E-02 0. -1.
    8880022    1    1    2    0    0 -0.74506950957E+03  0.83897247045E+03 -0.24458680476E+04  0.26953043501E+04  0.15294330000E+03 0.  0.
    8880022    1    1    2    0    0  0.74506950957E+03 -0.83897247045E+03 -0.38361089044E+03  0.11956388872E+04  0.15294330000E+03 0.  0.
<mgrwt>
<rscale>  0 0.11324288E+04</rscale>
<asrwt>0</asrwt>
<pdfrwt beam="1">  1        2 0.51695554E+00 0.11324288E+04</pdfrwt>
<pdfrwt beam="2">  1       -2 0.81651102E-01 0.11324288E+04</pdfrwt>
<totfact> 0.13525527E+00</totfact>
</mgrwt>
</event>
<event>
 4    1  0.1726795E-008  0.2921483E+03  0.7818608E-02  0.1089233E+00
          2   -1    0    0  501    0  0.00000000000E+00  0.00000000000E+00  0.20403341342E+03  0.20403341343E+03  0.25500000000E-02 0. -1.
         -2   -1    0    0    0  501 -0.00000000000E+00 -0.00000000000E+00 -0.80827881685E+03  0.80827881685E+03  0.25500000000E-02 0.  1.
    8880022    1    1    2    0    0  0.10018155853E+03  0.22786537893E+03 -0.65369526716E+03  0.71600847125E+03  0.15294330000E+03 0.  1.
    8880022    1    1    2    0    0 -0.10018155853E+03 -0.22786537893E+03  0.49449863724E+02  0.29630375904E+03  0.15294330000E+03 0.  0.
<mgrwt>
<rscale>  0 0.29214830E+03</rscale>
<asrwt>0</asrwt>
<pdfrwt beam="1">  1        2 0.31389756E-01 0.29214830E+03</pdfrwt>
<pdfrwt beam="2">  1       -2 0.12435059E+00 0.29214830E+03</pdfrwt>
<totfact> 0.85303067E+01</totfact>
</mgrwt>
</event>
<event>
 4    1  0.1726795E-008  0.6932016E+03  0.7818608E-02  0.9728929E-01
          2   -1    0    0  501    0  0.00000000000E+00  0.00000000000E+00  0.87020169082E+03  0.87020169082E+03  0.25500000000E-02 0. -1.
         -2   -1    0    0    0  501 -0.00000000000E+00 -0.00000000000E+00 -0.11697546145E+04  0.11697546145E+04  0.25500000000E-02 0.  1.
    8880022    1    1    2    0    0 -0.53878825801E+03  0.40846552107E+03  0.59132880462E+03  0.91115217009E+03  0.15294330000E+03 0.  0.
    8880022    1    1    2    0    0  0.53878825801E+03 -0.40846552107E+03 -0.89088172830E+03  0.11288041352E+04  0.15294330000E+03 0.  0.
<mgrwt>
<rscale>  0 0.69320165E+03</rscale>
<asrwt>0</asrwt>
<pdfrwt beam="1">  1        2 0.13387718E+00 0.69320165E+03</pdfrwt>
<pdfrwt beam="2">  1       -2 0.17996225E+00 0.69320165E+03</pdfrwt>
<totfact> 0.57300051E+00</totfact>
</mgrwt>
</event>
<event>
 4    1  0.1726795E-008  0.8521275E+03  0.7818608E-02  0.9487486E-01
          2   -1    0    0  501    0  0.00000000000E+00  0.00000000000E+00  0.34959271038E+04  0.34959271038E+04  0.25500000000E-02 0. -1.
         -2   -1    0    0    0  501 -0.00000000000E+00 -0.00000000000E+00 -0.40149460716E+03  0.40149460717E+03  0.25500000000E-02 0.  1.
    8880022    1    1    2    0    0  0.82209065046E+03  0.16400198597E+03  0.29010734225E+04  0.30236316484E+04  0.15294330000E+03 0.  0.
    8880022    1    1    2    0    0 -0.82209065046E+03 -0.16400198597E+03  0.19335907412E+03  0.87379006262E+03  0.15294330000E+03 0.  0.
<mgrwt>
<rscale>  0 0.85212754E+03</rscale>
<asrwt>0</asrwt>
<pdfrwt beam="1">  1        2 0.53783494E+00 0.85212754E+03</pdfrwt>
<pdfrwt beam="2">  1       -2 0.61768401E-01 0.85212754E+03</pdfrwt>
<totfact> 0.21204763E+00</totfact>
</mgrwt>
</event>
<event>
 4    1  0.1726795E-008  0.1123017E+04  0.7818608E-02  0.9183043E-01
          2   -1    0    0  501    0  0.00000000000E+00  0.00000000000E+00  0.28667880158E+04  0.28667880158E+04  0.25500000000E-02 0. -1.
         -2   -1    0    0    0  501 -0.00000000000E+00 -0.00000000000E+00 -0.81168696982E+03  0.81168696983E+03  0.25500000000E-02 0.  1.
    8880022    1    1    2    0    0  0.91329927333E+03  0.63534324113E+03 -0.21718393208E+03  0.11438256467E+04  0.15294330000E+03 0.  0.
    8880022    1    1    2    0    0 -0.91329927333E+03 -0.63534324113E+03  0.22722849780E+04  0.25346493389E+04  0.15294330000E+03 0.  0.
<mgrwt>
<rscale>  0 0.11230175E+04</rscale>
<asrwt>0</asrwt>
<pdfrwt beam="1">  1        2 0.44104431E+00 0.11230175E+04</pdfrwt>
<pdfrwt beam="2">  1       -2 0.12487492E+00 0.11230175E+04</pdfrwt>
<totfact> 0.10078722E+00</totfact>
</mgrwt>
</event>
<event>
 4    1  0.1726795E-008  0.6855174E+03  0.7818608E-02  0.9742325E-01
         -2   -1    0    0    0  501 -0.00000000000E+00  0.00000000000E+00  0.21986295111E+03  0.21986295112E+03  0.25500000000E-02 0.  1.
          2   -1    0    0  501    0  0.00000000000E+00 -0.00000000000E+00 -0.36129673637E+04  0.36129673637E+04  0.25500000000E-02 0. -1.
    8880022    1    1    2    0    0 -0.44594110144E+03 -0.49767356443E+03 -0.47182955093E+03  0.83220022881E+03  0.15294330000E+03 0.  0.
    8880022    1    1    2    0    0  0.44594110144E+03  0.49767356443E+03 -0.29212748616E+04  0.30006300860E+04  0.15294330000E+03 0.  0.
<mgrwt>
<rscale>  0 0.68551739E+03</rscale>
<asrwt>0</asrwt>
<pdfrwt beam="1">  1        2 0.55584109E+00 0.68551739E+03</pdfrwt>
<pdfrwt beam="2">  1       -2 0.33825072E-01 0.68551739E+03</pdfrwt>
<totfact> 0.60895174E+00</totfact>
</mgrwt>
</event>
<event>
 4    1  0.1726795E-008  0.9515164E+03  0.7818608E-02  0.9363380E-01
          2   -1    0    0  501    0  0.00000000000E+00  0.00000000000E+00  0.18338149331E+04  0.18338149331E+04  0.25500000000E-02 0. -1.
         -2   -1    0    0    0  501 -0.00000000000E+00 -0.00000000000E+00 -0.87101018399E+03  0.87101018400E+03  0.25500000000E-02 0.  1.
    8880022    1    1    2    0    0 -0.32129541951E+02 -0.93859441529E+03  0.13715001989E+04  0.16692502007E+04  0.15294330000E+03 0.  0.
    8880022    1    1    2    0    0  0.32129541951E+02  0.93859441529E+03 -0.40869544977E+03  0.10355749164E+04  0.15294330000E+03 0.  0.
<mgrwt>
<rscale>  0 0.95151639E+03</rscale>
<asrwt>0</asrwt>
<pdfrwt beam="1">  1        2 0.28212537E+00 0.95151639E+03</pdfrwt>
<pdfrwt beam="2">  1       -2 0.13400157E+00 0.95151639E+03</pdfrwt>
<totfact> 0.33307805E+00</totfact>
</mgrwt>
</event>
<event>
 4    1  0.1726795E-008  0.7742070E+03  0.7818608E-02  0.9598121E-01
          2   -1    0    0  501    0  0.00000000000E+00  0.00000000000E+00  0.42378561311E+04  0.42378561311E+04  0.25500000000E-02 0. -1.
         -2   -1    0    0    0  501 -0.00000000000E+00 -0.00000000000E+00 -0.57157950057E+03  0.57157950058E+03  0.25500000000E-02 0.  1.
    8880022    1    1    2    0    0  0.14944299820E+03 -0.74409113568E+03  0.39192192962E+04  0.39949563668E+04  0.15294330000E+03 0.  0.
    8880022    1    1    2    0    0 -0.14944299820E+03  0.74409113568E+03 -0.25294266562E+03  0.81447926494E+03  0.15294330000E+03 0.  0.
<mgrwt>
<rscale>  0 0.77420700E+03</rscale>
<asrwt>0</asrwt>
<pdfrwt beam="1">  1        2 0.65197786E+00 0.77420700E+03</pdfrwt>
<pdfrwt beam="2">  1       -2 0.87935309E-01 0.77420700E+03</pdfrwt>
<totfact> 0.26913329E-01</totfact>
</mgrwt>
</event>
<event>
 4    1  0.1726795E-008  0.2115284E+04  0.7818608E-02  0.8554540E-01
          2   -1    0    0  501    0  0.00000000000E+00  0.00000000000E+00  0.25485851900E+04  0.25485851900E+04  0.25500000000E-02 0. -1.
         -2   -1    0    0    0  501 -0.00000000000E+00 -0.00000000000E+00 -0.29583931530E+04  0.29583931530E+04  0.25500000000E-02 0.  1.
    8880022    1    1    2    0    0  0.70880403213E+02 -0.21085563155E+04 -0.19605693619E+04  0.28841389777E+04  0.15294330000E+03 0.  0.
    8880022    1    1    2    0    0 -0.70880403213E+02  0.21085563155E+04  0.15507613988E+04  0.26228393653E+04  0.15294330000E+03 0.  0.
<mgrwt>
<rscale>  0 0.21152838E+04</rscale>
<asrwt>0</asrwt>
<pdfrwt beam="1">  1        2 0.39209003E+00 0.21152838E+04</pdfrwt>
<pdfrwt beam="2">  1       -2 0.45513741E+00 0.21152838E+04</pdfrwt>
<totfact> 0.90697117E-03</totfact>
</mgrwt>
</event>
<event>
 4    1  0.1726795E-008  0.1825935E+04  0.7818608E-02  0.8692628E-01
          2   -1    0    0  501    0  0.00000000000E+00  0.00000000000E+00  0.28163600266E+04  0.28163600266E+04  0.25500000000E-02 0. -1.
         -2   -1    0    0    0  501 -0.00000000000E+00 -0.00000000000E+00 -0.13097734451E+04  0.13097734451E+04  0.25500000000E-02 0.  1.
    8880022    1    1    2    0    0 -0.86766686098E+03 -0.15993125405E+04  0.13930807047E+04  0.22966740924E+04  0.15294330000E+03 0.  0.
    8880022    1    1    2    0    0  0.86766686098E+03  0.15993125405E+04  0.11350587675E+03  0.18294593794E+04  0.15294330000E+03 0.  0.
<mgrwt>
<rscale>  0 0.18259348E+04</rscale>
<asrwt>0</asrwt>
<pdfrwt beam="1">  1        2 0.43328616E+00 0.18259348E+04</pdfrwt>
<pdfrwt beam="2">  1       -2 0.20150361E+00 0.18259348E+04</pdfrwt>
<totfact> 0.26699508E-01</totfact>
</mgrwt>
</event>
<event>
 4    1  0.1726795E-008  0.9146327E+03  0.7818608E-02  0.9407472E-01
          2   -1    0    0  501    0  0.00000000000E+00  0.00000000000E+00  0.13831824630E+04  0.13831824630E+04  0.25500000000E-02 0. -1.
         -2   -1    0    0    0  501 -0.00000000000E+00 -0.00000000000E+00 -0.12236963398E+04  0.12236963398E+04  0.25500000000E-02 0.  1.
    8880022    1    1    2    0    0  0.77226595553E+03  0.46558206203E+03  0.10067049753E+04  0.13601499634E+04  0.15294330000E+03 0.  0.
    8880022    1    1    2    0    0 -0.77226595553E+03 -0.46558206203E+03 -0.84721885210E+03  0.12467288394E+04  0.15294330000E+03 0.  0.
<mgrwt>
<rscale>  0 0.91463272E+03</rscale>
<asrwt>0</asrwt>
<pdfrwt beam="1">  1        2 0.21279730E+00 0.91463272E+03</pdfrwt>
<pdfrwt beam="2">  1       -2 0.18826098E+00 0.91463272E+03</pdfrwt>
<totfact> 0.23639324E+00</totfact>
</mgrwt>
</event>
<event>
 4    1  0.1726795E-008  0.8456102E+03  0.7818608E-02  0.9496248E-01
         -2   -1    0    0    0  501 -0.00000000000E+00  0.00000000000E+00  0.58689722375E+03  0.58689722376E+03  0.25500000000E-02 0.  1.
          2   -1    0    0  501    0  0.00000000000E+00 -0.00000000000E+00 -0.32220963440E+04  0.32220963440E+04  0.25500000000E-02 0. -1.
    8880022    1    1    2    0    0 -0.66631501156E+03  0.49768387387E+03  0.18426386917E+03  0.86545349929E+03  0.15294330000E+03 0.  1.
    8880022    1    1    2    0    0  0.66631501156E+03 -0.49768387387E+03 -0.28194629894E+04  0.29435400684E+04  0.15294330000E+03 0.  0.
<mgrwt>
<rscale>  0 0.84561019E+03</rscale>
<asrwt>0</asrwt>
<pdfrwt beam="1">  1        2 0.49570712E+00 0.84561019E+03</pdfrwt>
<pdfrwt beam="2">  1       -2 0.90291883E-01 0.84561019E+03</pdfrwt>
<totfact> 0.13880296E+00</totfact>
</mgrwt>
</event>
<event>
 4    1  0.1726795E-008  0.1294775E+04  0.7818608E-02  0.9033719E-01
          2   -1    0    0  501    0  0.00000000000E+00  0.00000000000E+00  0.77833675626E+03  0.77833675627E+03  0.25500000000E-02 0. -1.
         -2   -1    0    0    0  501 -0.00000000000E+00 -0.00000000000E+00 -0.34226708814E+04  0.34226708814E+04  0.25500000000E-02 0.  1.
    8880022    1    1    2    0    0  0.12507427821E+04 -0.29781240579E+03 -0.43267326119E+02  0.12954973758E+04  0.15294330000E+03 0.  0.
    8880022    1    1    2    0    0 -0.12507427821E+04  0.29781240579E+03 -0.26010667990E+04  0.29055102619E+04  0.15294330000E+03 0.  0.
<mgrwt>
<rscale>  0 0.12947746E+04</rscale>
<asrwt>0</asrwt>
<pdfrwt beam="1">  1        2 0.11974412E+00 0.12947746E+04</pdfrwt>
<pdfrwt beam="2">  1       -2 0.52656474E+00 0.12947746E+04</pdfrwt>
<totfact> 0.39305235E-02</totfact>
</mgrwt>
</event>
<event>
 4    1  0.1726795E-008  0.7722286E+03  0.7818608E-02  0.9601108E-01
         -2   -1    0    0    0  501 -0.00000000000E+00  0.00000000000E+00  0.91058532346E+03  0.91058532346E+03  0.25500000000E-02 0.  1.
          2   -1    0    0  501    0  0.00000000000E+00 -0.00000000000E+00 -0.17696970771E+04  0.17696970771E+04  0.25500000000E-02 0. -1.
    8880022    1    1    2    0    0  0.17395687129E+03 -0.73667118605E+03 -0.14932092583E+04  0.16810743503E+04  0.15294330000E+03 0.  0.
    8880022    1    1    2    0    0 -0.17395687129E+03  0.73667118605E+03  0.63409750457E+03  0.99920805027E+03  0.15294330000E+03 0.  0.
<mgrwt>
<rscale>  0 0.77222865E+03</rscale>
<asrwt>0</asrwt>
<pdfrwt beam="1">  1        2 0.27226109E+00 0.77222865E+03</pdfrwt>
<pdfrwt beam="2">  1       -2 0.14009005E+00 0.77222865E+03</pdfrwt>
<totfact> 0.33060556E+00</totfact>
</mgrwt>
</event>
<event>
 4    1  0.1726795E-008  0.8427223E+03  0.7818608E-02  0.9500157E-01
          2   -1    0    0  501    0  0.00000000000E+00  0.00000000000E+00  0.12563488730E+04  0.12563488730E+04  0.25500000000E-02 0. -1.
         -2   -1    0    0    0  501 -0.00000000000E+00 -0.00000000000E+00 -0.69481489313E+03  0.69481489313E+03  0.25500000000E-02 0.  1.
    8880022    1    1    2    0    0  0.50004571307E+03  0.66086572993E+03  0.70201051665E+03  0.10968134056E+04  0.15294330000E+03 0.  0.
    8880022    1    1    2    0    0 -0.50004571307E+03 -0.66086572993E+03 -0.14047653678E+03  0.85435036055E+03  0.15294330000E+03 0.  0.
<mgrwt>
<rscale>  0 0.84272230E+03</rscale>
<asrwt>0</asrwt>
<pdfrwt beam="1">  1        2 0.19328444E+00 0.84272230E+03</pdfrwt>
<pdfrwt beam="2">  1       -2 0.10689460E+00 0.84272230E+03</pdfrwt>
<totfact> 0.12464272E+01</totfact>
</mgrwt>
</event>
<event>
 4    1  0.1726795E-008  0.8298500E+03  0.7818608E-02  0.9517788E-01
          2   -1    0    0  501    0  0.00000000000E+00  0.00000000000E+00  0.66790099568E+03  0.66790099569E+03  0.25500000000E-02 0. -1.
         -2   -1    0    0    0  501 -0.00000000000E+00 -0.00000000000E+00 -0.10401379046E+04  0.10401379046E+04  0.25500000000E-02 0.  1.
    8880022    1    1    2    0    0  0.50964104838E+03  0.63680873530E+03 -0.10636759178E+03  0.83663915826E+03  0.15294330000E+03 0.  0.
    8880022    1    1    2    0    0 -0.50964104838E+03 -0.63680873530E+03 -0.26586931710E+03  0.87139974199E+03  0.15294330000E+03 0.  0.
<mgrwt>
<rscale>  0 0.82985000E+03</rscale>
<asrwt>0</asrwt>
<pdfrwt beam="1">  1        2 0.10275400E+00 0.82985000E+03</pdfrwt>
<pdfrwt beam="2">  1       -2 0.16002122E+00 0.82985000E+03</pdfrwt>
<totfact> 0.11028350E+01</totfact>
</mgrwt>
</event>
<event>
 4    1  0.1726795E-008  0.3335332E+03  0.7818608E-02  0.1069584E+00
          2   -1    0    0  501    0  0.00000000000E+00  0.00000000000E+00  0.43596543123E+03  0.43596543123E+03  0.25500000000E-02 0. -1.
         -2   -1    0    0    0  501 -0.00000000000E+00 -0.00000000000E+00 -0.13255731333E+04  0.13255731333E+04  0.25500000000E-02 0.  1.
    8880022    1    1    2    0    0  0.14888306447E+03 -0.25629396033E+03 -0.12362737652E+04  0.12804753948E+04  0.15294330000E+03 0.  1.
    8880022    1    1    2    0    0 -0.14888306447E+03  0.25629396033E+03  0.34666606313E+03  0.48106316979E+03  0.15294330000E+03 0.  0.
<mgrwt>
<rscale>  0 0.33353323E+03</rscale>
<asrwt>0</asrwt>
<pdfrwt beam="1">  1        2 0.67071605E-01 0.33353323E+03</pdfrwt>
<pdfrwt beam="2">  1       -2 0.20393433E+00 0.33353323E+03</pdfrwt>
<totfact> 0.98336847E+00</totfact>
</mgrwt>
</event>
<event>
 4    1  0.1726795E-008  0.5906062E+03  0.7818608E-02  0.9925089E-01
         -2   -1    0    0    0  501 -0.00000000000E+00  0.00000000000E+00  0.50812955509E+03  0.50812955510E+03  0.25500000000E-02 0.  1.
          2   -1    0    0  501    0  0.00000000000E+00 -0.00000000000E+00 -0.27382041044E+04  0.27382041044E+04  0.25500000000E-02 0. -1.
    8880022    1    1    2    0    0 -0.50922106853E+03 -0.25713406206E+03  0.29000953596E+03  0.65796748132E+03  0.15294330000E+03 0.  0.
    8880022    1    1    2    0    0  0.50922106853E+03  0.25713406206E+03 -0.25200840852E+04  0.25883661781E+04  0.15294330000E+03 0.  0.
<mgrwt>
<rscale>  0 0.59060619E+03</rscale>
<asrwt>0</asrwt>
<pdfrwt beam="1">  1        2 0.42126216E+00 0.59060619E+03</pdfrwt>
<pdfrwt beam="2">  1       -2 0.78173780E-01 0.59060619E+03</pdfrwt>
<totfact> 0.40155989E+00</totfact>
</mgrwt>
</event>
<event>
 4    1  0.1726795E-008  0.6566460E+03  0.7818608E-02  0.9794388E-01
          2   -1    0    0  501    0  0.00000000000E+00  0.00000000000E+00  0.14256381989E+04  0.14256381989E+04  0.25500000000E-02 0. -1.
         -2   -1    0    0    0  501 -0.00000000000E+00 -0.00000000000E+00 -0.61561128147E+03  0.61561128148E+03  0.25500000000E-02 0.  1.
    8880022    1    1    2    0    0  0.46024768083E+03  0.44267865377E+03 -0.32292888770E+03  0.73175613270E+03  0.15294330000E+03 0.  0.
    8880022    1    1    2    0    0 -0.46024768083E+03 -0.44267865377E+03  0.11329558051E+04  0.13094933476E+04  0.15294330000E+03 0.  0.
<mgrwt>
<rscale>  0 0.65664600E+03</rscale>
<asrwt>0</asrwt>
<pdfrwt beam="1">  1        2 0.21932895E+00 0.65664600E+03</pdfrwt>
<pdfrwt beam="2">  1       -2 0.94709428E-01 0.65664600E+03</pdfrwt>
<totfact> 0.13608052E+01</totfact>
</mgrwt>
</event>
<event>
 4    1  0.1726795E-008  0.1527600E+04  0.7818608E-02  0.8866304E-01
         -2   -1    0    0    0  501 -0.00000000000E+00  0.00000000000E+00  0.12547292429E+04  0.12547292429E+04  0.25500000000E-02 0.  1.
          2   -1    0    0  501    0  0.00000000000E+00 -0.00000000000E+00 -0.23887092030E+04  0.23887092030E+04  0.25500000000E-02 0. -1.
    8880022    1    1    2    0    0  0.53595498187E+03  0.14222946728E+04 -0.14241957746E+04  0.20885150553E+04  0.15294330000E+03 0.  0.
    8880022    1    1    2    0    0 -0.53595498187E+03 -0.14222946728E+04  0.29021581439E+03  0.15549233906E+04  0.15294330000E+03 0.  0.
<mgrwt>
<rscale>  0 0.15275999E+04</rscale>
<asrwt>0</asrwt>
<pdfrwt beam="1">  1        2 0.36749372E+00 0.15275999E+04</pdfrwt>
<pdfrwt beam="2">  1       -2 0.19303527E+00 0.15275999E+04</pdfrwt>
<totfact> 0.55929908E-01</totfact>
</mgrwt>
</event>
<event>
 4    1  0.1726795E-008  0.5416157E+03  0.7818608E-02  0.1003453E+00
         -2   -1    0    0    0  501 -0.00000000000E+00  0.00000000000E+00  0.56068053042E+03  0.56068053042E+03  0.25500000000E-02 0.  1.
          2   -1    0    0  501    0  0.00000000000E+00 -0.00000000000E+00 -0.31173411082E+04  0.31173411082E+04  0.25500000000E-02 0. -1.
    8880022    1    1    2    0    0 -0.21703959387E+03 -0.47206963192E+03 -0.29559325014E+04  0.30051430130E+04  0.15294330000E+03 0.  0.
    8880022    1    1    2    0    0  0.21703959387E+03  0.47206963192E+03  0.39927192368E+03  0.67287862557E+03  0.15294330000E+03 0.  1.
<mgrwt>
<rscale>  0 0.54161571E+03</rscale>
<asrwt>0</asrwt>
<pdfrwt beam="1">  1        2 0.47959093E+00 0.54161571E+03</pdfrwt>
<pdfrwt beam="2">  1       -2 0.86258545E-01 0.54161571E+03</pdfrwt>
<totfact> 0.19325825E+00</totfact>
</mgrwt>
</event>
<event>
 4    1  0.1726795E-008  0.6201279E+03  0.7818608E-02  0.9864505E-01
          2   -1    0    0  501    0  0.00000000000E+00  0.00000000000E+00  0.83285249162E+03  0.83285249163E+03  0.25500000000E-02 0. -1.
         -2   -1    0    0    0  501 -0.00000000000E+00 -0.00000000000E+00 -0.15185602424E+04  0.15185602424E+04  0.25500000000E-02 0.  1.
    8880022    1    1    2    0    0  0.59617160271E+03  0.75805079047E+02 -0.13236620501E+04  0.14617249624E+04  0.15294330000E+03 0.  0.
    8880022    1    1    2    0    0 -0.59617160271E+03 -0.75805079047E+02  0.63795429932E+03  0.88968777160E+03  0.15294330000E+03 0.  0.
<mgrwt>
<rscale>  0 0.62012792E+03</rscale>
<asrwt>0</asrwt>
<pdfrwt beam="1">  1        2 0.12813115E+00 0.62012792E+03</pdfrwt>
<pdfrwt beam="2">  1       -2 0.23362465E+00 0.62012792E+03</pdfrwt>
<totfact> 0.27835227E+00</totfact>
</mgrwt>
</event>
<event>
 4    1  0.1726795E-008  0.8195704E+03  0.7818608E-02  0.9532114E-01
          2   -1    0    0  501    0  0.00000000000E+00  0.00000000000E+00  0.10857578936E+04  0.10857578936E+04  0.25500000000E-02 0. -1.
         -2   -1    0    0    0  501 -0.00000000000E+00 -0.00000000000E+00 -0.12478971088E+04  0.12478971088E+04  0.25500000000E-02 0.  1.
    8880022    1    1    2    0    0 -0.53857527879E+03 -0.59853203264E+03 -0.90964226350E+03  0.12243956165E+04  0.15294330000E+03 0.  1.
    8880022    1    1    2    0    0  0.53857527879E+03  0.59853203264E+03  0.74750304827E+03  0.11092593859E+04  0.15294330000E+03 0.  0.
<mgrwt>
<rscale>  0 0.81957036E+03</rscale>
<asrwt>0</asrwt>
<pdfrwt beam="1">  1        2 0.16703968E+00 0.81957036E+03</pdfrwt>
<pdfrwt beam="2">  1       -2 0.19198417E+00 0.81957036E+03</pdfrwt>
<totfact> 0.33890525E+00</totfact>
</mgrwt>
</event>
<event>
 4    1  0.1726795E-008  0.1949525E+03  0.7818608E-02  0.1154069E+00
          2   -1    0    0  501    0  0.00000000000E+00  0.00000000000E+00  0.20126823111E+04  0.20126823111E+04  0.25500000000E-02 0. -1.
         -2   -1    0    0    0  501 -0.00000000000E+00 -0.00000000000E+00 -0.49298139112E+03  0.49298139113E+03  0.25500000000E-02 0.  1.
    8880022    1    1    2    0    0 -0.10024274090E+03  0.67573649734E+02  0.19884533745E+04  0.19979873075E+04  0.15294330000E+03 0.  0.
    8880022    1    1    2    0    0  0.10024274090E+03 -0.67573649734E+02 -0.46875245448E+03  0.50767639480E+03  0.15294330000E+03 0.  1.
<mgrwt>
<rscale>  0 0.19495245E+03</rscale>
<asrwt>0</asrwt>
<pdfrwt beam="1">  1        2 0.30964342E+00 0.19495245E+03</pdfrwt>
<pdfrwt beam="2">  1       -2 0.75843293E-01 0.19495245E+03</pdfrwt>
<totfact> 0.12410291E+01</totfact>
</mgrwt>
</event>
<event>
 4    1  0.1726795E-008  0.1014966E+04  0.7818608E-02  0.9292281E-01
         -2   -1    0    0    0  501 -0.00000000000E+00  0.00000000000E+00  0.61539499649E+03  0.61539499650E+03  0.25500000000E-02 0.  1.
          2   -1    0    0  501    0  0.00000000000E+00 -0.00000000000E+00 -0.30192266747E+04  0.30192266747E+04  0.25500000000E-02 0. -1.
    8880022    1    1    2    0    0  0.85814075510E+03  0.51996007631E+03 -0.24149783076E+04  0.26195946091E+04  0.15294330000E+03 0.  0.
    8880022    1    1    2    0    0 -0.85814075510E+03 -0.51996007631E+03  0.11146629407E+02  0.10150270621E+04  0.15294330000E+03 0.  0.
<mgrwt>
<rscale>  0 0.10149659E+04</rscale>
<asrwt>0</asrwt>
<pdfrwt beam="1">  1        2 0.46449640E+00 0.10149659E+04</pdfrwt>
<pdfrwt beam="2">  1       -2 0.94676155E-01 0.10149659E+04</pdfrwt>
<totfact> 0.16196138E+00</totfact>
</mgrwt>
</event>
<event>
 4    1  0.1852763E-008  0.1331268E+04  0.7818608E-02  0.9005131E-01
          2   -1    0    0  501    0  0.00000000000E+00  0.00000000000E+00  0.17460569172E+04  0.17460569172E+04  0.25500000000E-02 0. -1.
         -2   -1    0    0    0  501 -0.00000000000E+00 -0.00000000000E+00 -0.21020275390E+04  0.21020275390E+04  0.25500000000E-02 0.  1.
    8880022    1    1    2    0    0 -0.10161738145E+04  0.84632888965E+03 -0.15615922540E+04  0.20520340717E+04  0.15294330000E+03 0.  0.
    8880022    1    1    2    0    0  0.10161738145E+04 -0.84632888965E+03  0.12056216322E+04  0.17960503845E+04  0.15294330000E+03 0.  0.
<mgrwt>
<rscale>  0 0.13312676E+04</rscale>
<asrwt>0</asrwt>
<pdfrwt beam="1">  1        2 0.26862414E+00 0.13312676E+04</pdfrwt>
<pdfrwt beam="2">  1       -2 0.32338885E+00 0.13312676E+04</pdfrwt>
<totfact> 0.20247714E-01</totfact>
</mgrwt>
</event>
<event>
 4    1  0.1726795E-008  0.9027562E+03  0.7818608E-02  0.9422143E-01
         -2   -1    0    0    0  501 -0.00000000000E+00  0.00000000000E+00  0.74794963396E+03  0.74794963397E+03  0.25500000000E-02 0.  1.
          2   -1    0    0  501    0  0.00000000000E+00 -0.00000000000E+00 -0.13655713233E+04  0.13655713233E+04  0.25500000000E-02 0. -1.
    8880022    1    1    2    0    0 -0.23633467605E+03  0.85774294198E+03 -0.78387081537E+03  0.11955844353E+04  0.15294330000E+03 0.  0.
    8880022    1    1    2    0    0  0.23633467605E+03 -0.85774294198E+03  0.16624912599E+03  0.91793652206E+03  0.15294330000E+03 0.  0.
<mgrwt>
<rscale>  0 0.90275616E+03</rscale>
<asrwt>0</asrwt>
<pdfrwt beam="1">  1        2 0.21008790E+00 0.90275616E+03</pdfrwt>
<pdfrwt beam="2">  1       -2 0.11506917E+00 0.90275616E+03</pdfrwt>
<totfact> 0.89503474E+00</totfact>
</mgrwt>
</event>
<event>
 4    1  0.1726795E-008  0.3861741E+03  0.7818608E-02  0.1048675E+00
          2   -1    0    0  501    0  0.00000000000E+00  0.00000000000E+00  0.83155225852E+03  0.83155225853E+03  0.25500000000E-02 0. -1.
         -2   -1    0    0    0  501 -0.00000000000E+00 -0.00000000000E+00 -0.44204878697E+03  0.44204878698E+03  0.25500000000E-02 0.  1.
    8880022    1    1    2    0    0 -0.16063439467E+03 -0.31612557522E+03 -0.29616263925E+03  0.48666492575E+03  0.15294330000E+03 0.  1.
    8880022    1    1    2    0    0  0.16063439467E+03  0.31612557522E+03  0.68566611080E+03  0.78693611975E+03  0.15294330000E+03 0.  0.
<mgrwt>
<rscale>  0 0.38617411E+03</rscale>
<asrwt>0</asrwt>
<pdfrwt beam="1">  1        2 0.12793111E+00 0.38617411E+03</pdfrwt>
<pdfrwt beam="2">  1       -2 0.68007507E-01 0.38617411E+03</pdfrwt>
<totfact> 0.68093617E+01</totfact>
</mgrwt>
</event>
<event>
 4    1  0.1726795E-008  0.7320016E+03  0.7818608E-02  0.9664018E-01
          2   -1    0    0  501    0  0.00000000000E+00  0.00000000000E+00  0.29510038540E+04  0.29510038540E+04  0.25500000000E-02 0. -1.
         -2   -1    0    0    0  501 -0.00000000000E+00 -0.00000000000E+00 -0.32436177566E+03  0.32436177567E+03  0.25500000000E-02 0.  1.
    8880022    1    1    2    0    0  0.62758938825E+03  0.34433459294E+03  0.23998968756E+04  0.25090499036E+04  0.15294330000E+03 0.  0.
    8880022    1    1    2    0    0 -0.62758938825E+03 -0.34433459294E+03  0.22674520281E+03  0.76631572616E+03  0.15294330000E+03 0.  0.
<mgrwt>
<rscale>  0 0.73200164E+03</rscale>
<asrwt>0</asrwt>
<pdfrwt beam="1">  1        2 0.45400061E+00 0.73200164E+03</pdfrwt>
<pdfrwt beam="2">  1       -2 0.49901810E-01 0.73200164E+03</pdfrwt>
<totfact> 0.75705640E+00</totfact>
</mgrwt>
</event>
<event>
 4    1  0.1726795E-008  0.3938911E+03  0.7818608E-02  0.1045916E+00
         -2   -1    0    0    0  501 -0.00000000000E+00  0.00000000000E+00  0.34676368158E+03  0.34676368159E+03  0.25500000000E-02 0.  1.
          2   -1    0    0  501    0  0.00000000000E+00 -0.00000000000E+00 -0.69446248039E+03  0.69446248039E+03  0.25500000000E-02 0. -1.
    8880022    1    1    2    0    0  0.34377549412E+03 -0.11652014134E+03  0.13665911270E+03  0.41692433341E+03  0.15294330000E+03 0.  0.
    8880022    1    1    2    0    0 -0.34377549412E+03  0.11652014134E+03 -0.48435791151E+03  0.62430182857E+03  0.15294330000E+03 0.  0.
<mgrwt>
<rscale>  0 0.39389108E+03</rscale>
<asrwt>0</asrwt>
<pdfrwt beam="1">  1        2 0.10684038E+00 0.39389108E+03</pdfrwt>
<pdfrwt beam="2">  1       -2 0.53348259E-01 0.39389108E+03</pdfrwt>
<totfact> 0.14222596E+02</totfact>
</mgrwt>
</event>
<event>
 4    1  0.2908042E-008  0.1046815E+04  0.7818608E-02  0.9258638E-01
         -2   -1    0    0    0  501 -0.00000000000E+00  0.00000000000E+00  0.15483842956E+04  0.15483842956E+04  0.25500000000E-02 0.  1.
          2   -1    0    0  501    0  0.00000000000E+00 -0.00000000000E+00 -0.25296359155E+04  0.25296359155E+04  0.25500000000E-02 0. -1.
    8880022    1    1    2    0    0 -0.91786928768E+03 -0.47952773343E+03 -0.22210577953E+04  0.24553859695E+04  0.15294330000E+03 0.  0.
    8880022    1    1    2    0    0  0.91786928768E+03  0.47952773343E+03  0.12398061754E+04  0.16226342416E+04  0.15294330000E+03 0.  0.
<mgrwt>
<rscale>  0 0.10468154E+04</rscale>
<asrwt>0</asrwt>
<pdfrwt beam="1">  1        2 0.38917475E+00 0.10468154E+04</pdfrwt>
<pdfrwt beam="2">  1       -2 0.23821297E+00 0.10468154E+04</pdfrwt>
<totfact> 0.25474009E-01</totfact>
</mgrwt>
</event>
<event>
 4    1  0.1726795E-008  0.3515307E+03  0.7818608E-02  0.1061989E+00
         -2   -1    0    0    0  501 -0.00000000000E+00  0.00000000000E+00  0.27322729724E+03  0.27322729725E+03  0.25500000000E-02 0.  1.
          2   -1    0    0  501    0  0.00000000000E+00 -0.00000000000E+00 -0.12812947529E+04  0.12812947529E+04  0.25500000000E-02 0. -1.
    8880022    1    1    2    0    0  0.21497425823E+03 -0.23231073568E+03  0.12117469346E+03  0.37182948910E+03  0.15294330000E+03 0.  0.
    8880022    1    1    2    0    0 -0.21497425823E+03  0.23231073568E+03 -0.11292421492E+04  0.11826925611E+04  0.15294330000E+03 0.  0.
<mgrwt>
<rscale>  0 0.35153074E+03</rscale>
<asrwt>0</asrwt>
<pdfrwt beam="1">  1        2 0.19712227E+00 0.35153074E+03</pdfrwt>
<pdfrwt beam="2">  1       -2 0.42034970E-01 0.35153074E+03</pdfrwt>
<totfact> 0.96960019E+01</totfact>
</mgrwt>
</event>
<event>
 4    1  0.1726795E-008  0.5767887E+03  0.7818608E-02  0.9954768E-01
          2   -1    0    0  501    0  0.00000000000E+00  0.00000000000E+00  0.19622693220E+04  0.19622693220E+04  0.25500000000E-02 0. -1.
         -2   -1    0    0    0  501 -0.00000000000E+00 -0.00000000000E+00 -0.33167445613E+03  0.33167445614E+03  0.25500000000E-02 0.  1.
    8880022    1    1    2    0    0  0.53386280972E+03 -0.15583322905E+03  0.13373729132E+02  0.57694367535E+03  0.15294330000E+03 0.  0.
    8880022    1    1    2    0    0 -0.53386280972E+03  0.15583322905E+03  0.16172211368E+04  0.17170001028E+04  0.15294330000E+03 0.  0.
<mgrwt>
<rscale>  0 0.57678865E+03</rscale>
<asrwt>0</asrwt>
<pdfrwt beam="1">  1        2 0.30188759E+00 0.57678865E+03</pdfrwt>
<pdfrwt beam="2">  1       -2 0.51026839E-01 0.57678865E+03</pdfrwt>
<totfact> 0.26970518E+01</totfact>
</mgrwt>
</event>
<event>
 4    1  0.1726795E-008  0.7004822E+03  0.7818608E-02  0.9716408E-01
         -2   -1    0    0    0  501 -0.00000000000E+00  0.00000000000E+00  0.56087063027E+03  0.56087063028E+03  0.25500000000E-02 0.  1.
          2   -1    0    0  501    0  0.00000000000E+00 -0.00000000000E+00 -0.25127322891E+04  0.25127322891E+04  0.25500000000E-02 0. -1.
    8880022    1    1    2    0    0  0.62783119986E+02  0.68069227736E+03 -0.22166872927E+04  0.23247317917E+04  0.15294330000E+03 0.  0.
    8880022    1    1    2    0    0 -0.62783119986E+02 -0.68069227736E+03  0.26482563383E+03  0.74887112774E+03  0.15294330000E+03 0.  0.
<mgrwt>
<rscale>  0 0.70048223E+03</rscale>
<asrwt>0</asrwt>
<pdfrwt beam="1">  1        2 0.38657419E+00 0.70048223E+03</pdfrwt>
<pdfrwt beam="2">  1       -2 0.86287791E-01 0.70048223E+03</pdfrwt>
<totfact> 0.42249074E+00</totfact>
</mgrwt>
</event>
<event>
 4    1  0.1726795E-008  0.3046824E+03  0.7818608E-02  0.1082923E+00
          2   -1    0    0  501    0  0.00000000000E+00  0.00000000000E+00  0.52031110073E+03  0.52031110073E+03  0.25500000000E-02 0. -1.
         -2   -1    0    0    0  501 -0.00000000000E+00 -0.00000000000E+00 -0.31371439757E+03  0.31371439758E+03  0.25500000000E-02 0.  1.
    8880022    1    1    2    0    0 -0.56326103487E+02  0.25742391918E+03  0.37715915517E+03  0.48485088991E+03  0.15294330000E+03 0.  0.
    8880022    1    1    2    0    0  0.56326103487E+02 -0.25742391918E+03 -0.17056245202E+03  0.34917460841E+03  0.15294330000E+03 0.  1.
<mgrwt>
<rscale>  0 0.30468239E+03</rscale>
<asrwt>0</asrwt>
<pdfrwt beam="1">  1        2 0.80047862E-01 0.30468239E+03</pdfrwt>
<pdfrwt beam="2">  1       -2 0.48263754E-01 0.30468239E+03</pdfrwt>
<totfact> 0.24673120E+02</totfact>
</mgrwt>
</event>
<event>
 4    1  0.1726795E-008  0.1615931E+04  0.7818608E-02  0.8810820E-01
         -2   -1    0    0    0  501 -0.00000000000E+00  0.00000000000E+00  0.13202867473E+04  0.13202867473E+04  0.25500000000E-02 0.  1.
          2   -1    0    0  501    0  0.00000000000E+00 -0.00000000000E+00 -0.23874606558E+04  0.23874606558E+04  0.25500000000E-02 0. -1.
    8880022    1    1    2    0    0  0.26130055148E+03  0.15873131617E+04  0.23436911024E+03  0.16328385053E+04  0.15294330000E+03 0.  0.
    8880022    1    1    2    0    0 -0.26130055148E+03 -0.15873131617E+04 -0.13015430187E+04  0.20749088978E+04  0.15294330000E+03 0.  0.
<mgrwt>
<rscale>  0 0.16159309E+04</rscale>
<asrwt>0</asrwt>
<pdfrwt beam="1">  1        2 0.36730164E+00 0.16159309E+04</pdfrwt>
<pdfrwt beam="2">  1       -2 0.20312104E+00 0.16159309E+04</pdfrwt>
<totfact> 0.47582374E-01</totfact>
</mgrwt>
</event>
<event>
 4    1  0.1726795E-008  0.8580333E+03  0.7818608E-02  0.9479618E-01
          2   -1    0    0  501    0  0.00000000000E+00  0.00000000000E+00  0.20300524129E+04  0.20300524129E+04  0.25500000000E-02 0. -1.
         -2   -1    0    0    0  501 -0.00000000000E+00 -0.00000000000E+00 -0.51001894262E+03  0.51001894263E+03  0.25500000000E-02 0.  1.
    8880022    1    1    2    0    0  0.20054892577E+03  0.82012783979E+03  0.77349150904E+02  0.86151267512E+03  0.15294330000E+03 0.  0.
    8880022    1    1    2    0    0 -0.20054892577E+03 -0.82012783979E+03  0.14426843194E+04  0.16785586805E+04  0.15294330000E+03 0.  0.
<mgrwt>
<rscale>  0 0.85803333E+03</rscale>
<asrwt>0</asrwt>
<pdfrwt beam="1">  1        2 0.31231577E+00 0.85803333E+03</pdfrwt>
<pdfrwt beam="2">  1       -2 0.78464450E-01 0.85803333E+03</pdfrwt>
<totfact> 0.94699789E+00</totfact>
</mgrwt>
</event>
<event>
 4    1  0.1726795E-008  0.8871808E+03  0.7818608E-02  0.9441749E-01
         -2   -1    0    0    0  501 -0.00000000000E+00  0.00000000000E+00  0.14259284519E+04  0.14259284519E+04  0.25500000000E-02 0.  1.
          2   -1    0    0  501    0  0.00000000000E+00 -0.00000000000E+00 -0.83424253373E+03  0.83424253374E+03  0.25500000000E-02 0. -1.
    8880022    1    1    2    0    0 -0.18377007606E+03 -0.85435748755E+03 -0.36149484776E+03  0.95800226271E+03  0.15294330000E+03 0.  0.
    8880022    1    1    2    0    0  0.18377007606E+03  0.85435748755E+03  0.95318076588E+03  0.13021687229E+04  0.15294330000E+03 0.  0.
<mgrwt>
<rscale>  0 0.88718082E+03</rscale>
<asrwt>0</asrwt>
<pdfrwt beam="1">  1        2 0.12834501E+00 0.88718082E+03</pdfrwt>
<pdfrwt beam="2">  1       -2 0.21937361E+00 0.88718082E+03</pdfrwt>
<totfact> 0.32703359E+00</totfact>
</mgrwt>
</event>
<event>
 4    1  0.1726795E-008  0.6868719E+03  0.7818608E-02  0.9739950E-01
          2   -1    0    0  501    0  0.00000000000E+00  0.00000000000E+00  0.19300437688E+04  0.19300437688E+04  0.25500000000E-02 0. -1.
         -2   -1    0    0    0  501 -0.00000000000E+00 -0.00000000000E+00 -0.53337122300E+03  0.53337122301E+03  0.25500000000E-02 0.  1.
    8880022    1    1    2    0    0 -0.48493081109E+03 -0.46178289074E+03  0.16048720265E+04  0.17456824465E+04  0.15294330000E+03 0.  0.
    8880022    1    1    2    0    0  0.48493081109E+03  0.46178289074E+03 -0.20819948071E+03  0.71773254525E+03  0.15294330000E+03 0.  0.
<mgrwt>
<rscale>  0 0.68687188E+03</rscale>
<asrwt>0</asrwt>
<pdfrwt beam="1">  1        2 0.29692982E+00 0.68687188E+03</pdfrwt>
<pdfrwt beam="2">  1       -2 0.82057109E-01 0.68687188E+03</pdfrwt>
<totfact> 0.99580877E+00</totfact>
</mgrwt>
</event>
<event>
 4    1  0.1726795E-008  0.6546186E+03  0.7818608E-02  0.9798151E-01
         -2   -1    0    0    0  501 -0.00000000000E+00  0.00000000000E+00  0.35395780070E+03  0.35395780071E+03  0.25500000000E-02 0.  1.
          2   -1    0    0  501    0  0.00000000000E+00 -0.00000000000E+00 -0.25276968419E+04  0.25276968419E+04  0.25500000000E-02 0. -1.
    8880022    1    1    2    0    0  0.81832922227E+02  0.63121884526E+03 -0.46836746209E+02  0.65629200177E+03  0.15294330000E+03 0.  0.
    8880022    1    1    2    0    0 -0.81832922227E+02 -0.63121884526E+03 -0.21269022950E+04  0.22253626408E+04  0.15294330000E+03 0.  0.
<mgrwt>
<rscale>  0 0.65461860E+03</rscale>
<asrwt>0</asrwt>
<pdfrwt beam="1">  1        2 0.38887643E+00 0.65461860E+03</pdfrwt>
<pdfrwt beam="2">  1       -2 0.54455048E-01 0.65461860E+03</pdfrwt>
<totfact> 0.11359226E+01</totfact>
</mgrwt>
</event>
<event>
 4    1  0.1726795E-008  0.1047469E+04  0.7818608E-02  0.9257961E-01
          2   -1    0    0  501    0  0.00000000000E+00  0.00000000000E+00  0.17346853096E+04  0.17346853096E+04  0.25500000000E-02 0. -1.
         -2   -1    0    0    0  501 -0.00000000000E+00 -0.00000000000E+00 -0.75731322671E+03  0.75731322671E+03  0.25500000000E-02 0.  1.
    8880022    1    1    2    0    0  0.76002269710E+03 -0.70438980336E+03 -0.17147500180E+02  0.10476092711E+04  0.15294330000E+03 0.  0.
    8880022    1    1    2    0    0 -0.76002269710E+03  0.70438980336E+03  0.99451958303E+03  0.14443892651E+04  0.15294330000E+03 0.  0.
<mgrwt>
<rscale>  0 0.10474689E+04</rscale>
<asrwt>0</asrwt>
<pdfrwt beam="1">  1        2 0.26687466E+00 0.10474689E+04</pdfrwt>
<pdfrwt beam="2">  1       -2 0.11650973E+00 0.10474689E+04</pdfrwt>
<totfact> 0.53086465E+00</totfact>
</mgrwt>
</event>
<event>
 4    1  0.2066768E-008  0.1140638E+04  0.7818608E-02  0.9166464E-01
         -2   -1    0    0    0  501 -0.00000000000E+00  0.00000000000E+00  0.13435014555E+04  0.13435014555E+04  0.25500000000E-02 0.  1.
          2   -1    0    0  501    0  0.00000000000E+00 -0.00000000000E+00 -0.18800629674E+04  0.18800629674E+04  0.25500000000E-02 0. -1.
    8880022    1    1    2    0    0  0.11287587392E+04 -0.59731419204E+02  0.85408840740E+03  0.14249641380E+04  0.15294330000E+03 0.  0.
    8880022    1    1    2    0    0 -0.11287587392E+04  0.59731419204E+02 -0.13906499194E+04  0.17986002850E+04  0.15294330000E+03 0.  0.
<mgrwt>
<rscale>  0 0.11406383E+04</rscale>
<asrwt>0</asrwt>
<pdfrwt beam="1">  1        2 0.28924046E+00 0.11406383E+04</pdfrwt>
<pdfrwt beam="2">  1       -2 0.20669253E+00 0.11406383E+04</pdfrwt>
<totfact> 0.91645113E-01</totfact>
</mgrwt>
</event>
<event>
 4    1  0.1726795E-008  0.1059199E+04  0.7818608E-02  0.9245898E-01
          2   -1    0    0  501    0  0.00000000000E+00  0.00000000000E+00  0.13630925661E+04  0.13630925661E+04  0.25500000000E-02 0. -1.
         -2   -1    0    0    0  501 -0.00000000000E+00 -0.00000000000E+00 -0.32577070869E+04  0.32577070869E+04  0.25500000000E-02 0.  1.
    8880022    1    1    2    0    0  0.10158886354E+04  0.25783915351E+03 -0.29446354627E+04  0.31293418493E+04  0.15294330000E+03 0.  0.
    8880022    1    1    2    0    0 -0.10158886354E+04 -0.25783915351E+03  0.10500209420E+04  0.14914578037E+04  0.15294330000E+03 0.  0.
<mgrwt>
<rscale>  0 0.10591989E+04</rscale>
<asrwt>0</asrwt>
<pdfrwt beam="1">  1        2 0.20970655E+00 0.10591989E+04</pdfrwt>
<pdfrwt beam="2">  1       -2 0.50118570E+00 0.10591989E+04</pdfrwt>
<totfact> 0.24610319E-02</totfact>
</mgrwt>
</event>
<event>
 4    1  0.1726795E-008  0.4137101E+03  0.7818608E-02  0.1039133E+00
         -2   -1    0    0    0  501 -0.00000000000E+00  0.00000000000E+00  0.26716261795E+03  0.26716261796E+03  0.25500000000E-02 0.  1.
          2   -1    0    0  501    0  0.00000000000E+00 -0.00000000000E+00 -0.13235747906E+04  0.13235747906E+04  0.25500000000E-02 0. -1.
    8880022    1    1    2    0    0  0.19888569450E+03  0.32895117254E+03  0.43118217966E+02  0.41595099125E+03  0.15294330000E+03 0.  0.
    8880022    1    1    2    0    0 -0.19888569450E+03 -0.32895117254E+03 -0.10995303906E+04  0.11747864173E+04  0.15294330000E+03 0.  0.
<mgrwt>
<rscale>  0 0.41371010E+03</rscale>
<asrwt>0</asrwt>
<pdfrwt beam="1">  1        2 0.20362689E+00 0.41371010E+03</pdfrwt>
<pdfrwt beam="2">  1       -2 0.41101942E-01 0.41371010E+03</pdfrwt>
<totfact> 0.94893452E+01</totfact>
</mgrwt>
</event>
<event>
 4    1  0.1726795E-008  0.7835492E+03  0.7818608E-02  0.9584139E-01
         -2   -1    0    0    0  501 -0.00000000000E+00  0.00000000000E+00  0.19952383433E+03  0.19952383434E+03  0.25500000000E-02 0.  1.
          2   -1    0    0  501    0  0.00000000000E+00 -0.00000000000E+00 -0.35215079105E+04  0.35215079105E+04  0.25500000000E-02 0. -1.
    8880022    1    1    2    0    0 -0.21143884864E+03  0.73881754255E+03 -0.10000351477E+04  0.12704407494E+04  0.15294330000E+03 0.  0.
    8880022    1    1    2    0    0  0.21143884864E+03 -0.73881754255E+03 -0.23219489285E+04  0.24505909955E+04  0.15294330000E+03 0.  0.
<mgrwt>
<rscale>  0 0.78354923E+03</rscale>
<asrwt>0</asrwt>
<pdfrwt beam="1">  1        2 0.54177040E+00 0.78354923E+03</pdfrwt>
<pdfrwt beam="2">  1       -2 0.30695977E-01 0.78354923E+03</pdfrwt>
<totfact> 0.82878873E+00</totfact>
</mgrwt>
</event>
<event>
 4    1  0.1726795E-008  0.7389568E+03  0.7818608E-02  0.9652836E-01
          2   -1    0    0  501    0  0.00000000000E+00  0.00000000000E+00  0.29694704074E+04  0.29694704074E+04  0.25500000000E-02 0. -1.
         -2   -1    0    0    0  501 -0.00000000000E+00 -0.00000000000E+00 -0.13107421623E+04  0.13107421623E+04  0.25500000000E-02 0.  1.
    8880022    1    1    2    0    0 -0.51952027747E+03 -0.50275664729E+03  0.28136767412E+04  0.29090950521E+04  0.15294330000E+03 0.  0.
    8880022    1    1    2    0    0  0.51952027747E+03  0.50275664729E+03 -0.11549484962E+04  0.13711175175E+04  0.15294330000E+03 0.  0.
<mgrwt>
<rscale>  0 0.73895684E+03</rscale>
<asrwt>0</asrwt>
<pdfrwt beam="1">  1        2 0.45684160E+00 0.73895684E+03</pdfrwt>
<pdfrwt beam="2">  1       -2 0.20165264E+00 0.73895684E+03</pdfrwt>
<totfact> 0.25445044E-01</totfact>
</mgrwt>
</event>
<event>
 4    1  0.1726795E-008  0.6437185E+03  0.7818608E-02  0.9818638E-01
          2   -1    0    0  501    0  0.00000000000E+00  0.00000000000E+00  0.21025597209E+04  0.21025597209E+04  0.25500000000E-02 0. -1.
         -2   -1    0    0    0  501 -0.00000000000E+00 -0.00000000000E+00 -0.34355926826E+03  0.34355926827E+03  0.25500000000E-02 0.  1.
    8880022    1    1    2    0    0  0.41732761671E+02  0.62389123867E+03  0.16781089782E+04  0.17973378360E+04  0.15294330000E+03 0.  0.
    8880022    1    1    2    0    0 -0.41732761671E+02 -0.62389123867E+03  0.80891474484E+02  0.64878115319E+03  0.15294330000E+03 0.  0.
<mgrwt>
<rscale>  0 0.64371854E+03</rscale>
<asrwt>0</asrwt>
<pdfrwt beam="1">  1        2 0.32347072E+00 0.64371854E+03</pdfrwt>
<pdfrwt beam="2">  1       -2 0.52855273E-01 0.64371854E+03</pdfrwt>
<totfact> 0.20824513E+01</totfact>
</mgrwt>
</event>
<event>
 4    1  0.1726795E-008  0.1469227E+04  0.7818608E-02  0.8905178E-01
         -2   -1    0    0    0  501 -0.00000000000E+00  0.00000000000E+00  0.10168225028E+04  0.10168225028E+04  0.25500000000E-02 0.  1.
          2   -1    0    0  501    0  0.00000000000E+00 -0.00000000000E+00 -0.24496463661E+04  0.24496463661E+04  0.25500000000E-02 0. -1.
    8880022    1    1    2    0    0  0.14507090121E+04  0.17515641285E+03 -0.83416144779E+02  0.14715931207E+04  0.15294330000E+03 0.  0.
    8880022    1    1    2    0    0 -0.14507090121E+04 -0.17515641285E+03 -0.13494077185E+04  0.19948757481E+04  0.15294330000E+03 0.  0.
<mgrwt>
<rscale>  0 0.14692270E+04</rscale>
<asrwt>0</asrwt>
<pdfrwt beam="1">  1        2 0.37686867E+00 0.14692270E+04</pdfrwt>
<pdfrwt beam="2">  1       -2 0.15643423E+00 0.14692270E+04</pdfrwt>
<totfact> 0.94386650E-01</totfact>
</mgrwt>
</event>
<event>
 4    1  0.1726795E-008  0.7516974E+03  0.7818608E-02  0.9632691E-01
          2   -1    0    0  501    0  0.00000000000E+00  0.00000000000E+00  0.14653447498E+04  0.14653447498E+04  0.25500000000E-02 0. -1.
         -2   -1    0    0    0  501 -0.00000000000E+00 -0.00000000000E+00 -0.62006260901E+03  0.62006260901E+03  0.25500000000E-02 0.  1.
    8880022    1    1    2    0    0 -0.64578950896E+03  0.35300609972E+03  0.10638097134E+04  0.13025897879E+04  0.15294330000E+03 0.  0.
    8880022    1    1    2    0    0  0.64578950896E+03 -0.35300609972E+03 -0.21852757257E+03  0.78281757090E+03  0.15294330000E+03 0.  0.
<mgrwt>
<rscale>  0 0.75169745E+03</rscale>
<asrwt>0</asrwt>
<pdfrwt beam="1">  1        2 0.22543765E+00 0.75169745E+03</pdfrwt>
<pdfrwt beam="2">  1       -2 0.95394248E-01 0.75169745E+03</pdfrwt>
<totfact> 0.12547750E+01</totfact>
</mgrwt>
</event>
<event>
 4    1  0.1726795E-008  0.7084053E+03  0.7818608E-02  0.9702965E-01
         -2   -1    0    0    0  501 -0.00000000000E+00  0.00000000000E+00  0.11133988991E+04  0.11133988991E+04  0.25500000000E-02 0.  1.
          2   -1    0    0  501    0  0.00000000000E+00 -0.00000000000E+00 -0.10153234071E+04  0.10153234071E+04  0.25500000000E-02 0. -1.
    8880022    1    1    2    0    0 -0.27381131063E+03 -0.63519583996E+03  0.84273738607E+03  0.11009288550E+04  0.15294330000E+03 0.  0.
    8880022    1    1    2    0    0  0.27381131063E+03  0.63519583996E+03 -0.74466189406E+03  0.10277934512E+04  0.15294330000E+03 0.  0.
<mgrwt>
<rscale>  0 0.70840528E+03</rscale>
<asrwt>0</asrwt>
<pdfrwt beam="1">  1        2 0.15620360E+00 0.70840528E+03</pdfrwt>
<pdfrwt beam="2">  1       -2 0.17129214E+00 0.70840528E+03</pdfrwt>
<totfact> 0.52748415E+00</totfact>
</mgrwt>
</event>
<event>
 4    1  0.1726795E-008  0.8799035E+03  0.7818608E-02  0.9451058E-01
         -2   -1    0    0    0  501 -0.00000000000E+00  0.00000000000E+00  0.79185865868E+03  0.79185865869E+03  0.25500000000E-02 0.  1.
          2   -1    0    0  501    0  0.00000000000E+00 -0.00000000000E+00 -0.25528729277E+04  0.25528729277E+04  0.25500000000E-02 0. -1.
    8880022    1    1    2    0    0 -0.26288025092E+03 -0.82567092513E+03  0.43313050321E+03  0.98073043633E+03  0.15294330000E+03 0.  0.
    8880022    1    1    2    0    0  0.26288025092E+03  0.82567092513E+03 -0.21941447722E+04  0.23640011500E+04  0.15294330000E+03 0.  0.
<mgrwt>
<rscale>  0 0.87990349E+03</rscale>
<asrwt>0</asrwt>
<pdfrwt beam="1">  1        2 0.39274968E+00 0.87990349E+03</pdfrwt>
<pdfrwt beam="2">  1       -2 0.12182441E+00 0.87990349E+03</pdfrwt>
<totfact> 0.17040286E+00</totfact>
</mgrwt>
</event>
<event>
 4    1  0.1726795E-008  0.6191907E+03  0.7818608E-02  0.9866372E-01
          2   -1    0    0  501    0  0.00000000000E+00  0.00000000000E+00  0.17179298068E+04  0.17179298068E+04  0.25500000000E-02 0. -1.
         -2   -1    0    0    0  501 -0.00000000000E+00 -0.00000000000E+00 -0.25718664816E+03  0.25718664818E+03  0.25500000000E-02 0.  1.
    8880022    1    1    2    0    0 -0.20518957340E+03 -0.56382857748E+03  0.10895079784E+04  0.12531658764E+04  0.15294330000E+03 0.  0.
    8880022    1    1    2    0    0  0.20518957340E+03  0.56382857748E+03  0.37123518023E+03  0.72195057855E+03  0.15294330000E+03 0.  0.
<mgrwt>
<rscale>  0 0.61919066E+03</rscale>
<asrwt>0</asrwt>
<pdfrwt beam="1">  1        2 0.26429690E+00 0.61919066E+03</pdfrwt>
<pdfrwt beam="2">  1       -2 0.39567176E-01 0.61919066E+03</pdfrwt>
<totfact> 0.60232781E+01</totfact>
</mgrwt>
</event>
<event>
 4    1  0.1726795E-008  0.9347314E+03  0.7818608E-02  0.9383177E-01
         -2   -1    0    0    0  501 -0.00000000000E+00  0.00000000000E+00  0.96775791508E+03  0.96775791509E+03  0.25500000000E-02 0.  1.
          2   -1    0    0  501    0  0.00000000000E+00 -0.00000000000E+00 -0.29961662299E+04  0.29961662299E+04  0.25500000000E-02 0. -1.
    8880022    1    1    2    0    0  0.84637318980E+03 -0.36603757917E+03  0.64244934360E+03  0.11342239188E+04  0.15294330000E+03 0.  0.
    8880022    1    1    2    0    0 -0.84637318980E+03  0.36603757917E+03 -0.26708576585E+04  0.28297002263E+04  0.15294330000E+03 0.  0.
<mgrwt>
<rscale>  0 0.93473137E+03</rscale>
<asrwt>0</asrwt>
<pdfrwt beam="1">  1        2 0.46094865E+00 0.93473137E+03</pdfrwt>
<pdfrwt beam="2">  1       -2 0.14888583E+00 0.93473137E+03</pdfrwt>
<totfact> 0.55044886E-01</totfact>
</mgrwt>
</event>
<event>
 4    1  0.1726795E-008  0.8377300E+03  0.7818608E-02  0.9506955E-01
          2   -1    0    0  501    0  0.00000000000E+00  0.00000000000E+00  0.21520597149E+04  0.21520597150E+04  0.25500000000E-02 0. -1.
         -2   -1    0    0    0  501 -0.00000000000E+00 -0.00000000000E+00 -0.44247969915E+03  0.44247969916E+03  0.25500000000E-02 0.  1.
    8880022    1    1    2    0    0  0.75792526412E+03  0.32241159852E+03  0.18948935910E+03  0.85889336654E+03  0.15294330000E+03 0.  1.
    8880022    1    1    2    0    0 -0.75792526412E+03 -0.32241159852E+03  0.15200906567E+04  0.17356460476E+04  0.15294330000E+03 0.  0.
<mgrwt>
<rscale>  0 0.83773003E+03</rscale>
<asrwt>0</asrwt>
<pdfrwt beam="1">  1        2 0.33108611E+00 0.83773003E+03</pdfrwt>
<pdfrwt beam="2">  1       -2 0.68073800E-01 0.83773003E+03</pdfrwt>
<totfact> 0.11134276E+01</totfact>
</mgrwt>
</event>
<event>
 4    1  0.1726795E-008  0.9241817E+03  0.7818608E-02  0.9395848E-01
          2   -1    0    0  501    0  0.00000000000E+00  0.00000000000E+00  0.24474653624E+04  0.24474653624E+04  0.25500000000E-02 0. -1.
         -2   -1    0    0    0  501 -0.00000000000E+00 -0.00000000000E+00 -0.38252088975E+03  0.38252088976E+03  0.25500000000E-02 0.  1.
    8880022    1    1    2    0    0  0.50123547663E+02 -0.91005918976E+03  0.14514842746E+04  0.17207319231E+04  0.15294330000E+03 0.  0.
    8880022    1    1    2    0    0 -0.50123547663E+02  0.91005918976E+03  0.61346019812E+03  0.11092543291E+04  0.15294330000E+03 0.  0.
<mgrwt>
<rscale>  0 0.92418167E+03</rscale>
<asrwt>0</asrwt>
<pdfrwt beam="1">  1        2 0.37653313E+00 0.92418167E+03</pdfrwt>
<pdfrwt beam="2">  1       -2 0.58849368E-01 0.92418167E+03</pdfrwt>
<totfact> 0.10280100E+01</totfact>
</mgrwt>
</event>
<event>
 4    1  0.1726795E-008  0.4955038E+03  0.7818608E-02  0.1014959E+00
          2   -1    0    0  501    0  0.00000000000E+00  0.00000000000E+00  0.47126143345E+04  0.47126143345E+04  0.25500000000E-02 0. -1.
         -2   -1    0    0    0  501 -0.00000000000E+00 -0.00000000000E+00 -0.94895361458E+02  0.94895361492E+02  0.25500000000E-02 0.  1.
    8880022    1    1    2    0    0  0.25150211769E+03  0.39859629918E+03  0.39231046987E+04  0.39542729363E+04  0.15294330000E+03 0.  0.
    8880022    1    1    2    0    0 -0.25150211769E+03 -0.39859629918E+03  0.69461427434E+03  0.85323675967E+03  0.15294330000E+03 0.  1.
<mgrwt>
<rscale>  0 0.49550376E+03</rscale>
<asrwt>0</asrwt>
<pdfrwt beam="1">  1        2 0.72501750E+00 0.49550376E+03</pdfrwt>
<pdfrwt beam="2">  1       -2 0.14599288E-01 0.49550376E+03</pdfrwt>
<totfact> 0.33788257E+00</totfact>
</mgrwt>
</event>
<event>
 4    1  0.1726795E-008  0.7599704E+03  0.7818608E-02  0.9619837E-01
          2   -1    0    0  501    0  0.00000000000E+00  0.00000000000E+00  0.13749566546E+04  0.13749566546E+04  0.25500000000E-02 0. -1.
         -2   -1    0    0    0  501 -0.00000000000E+00 -0.00000000000E+00 -0.12320868089E+04  0.12320868089E+04  0.25500000000E-02 0.  1.
    8880022    1    1    2    0    0 -0.12153327057E+02 -0.74432230741E+03  0.11296759691E+04  0.13615149095E+04  0.15294330000E+03 0.  0.
    8880022    1    1    2    0    0  0.12153327057E+02  0.74432230741E+03 -0.98680612341E+03  0.12455285540E+04  0.15294330000E+03 0.  0.
<mgrwt>
<rscale>  0 0.75997043E+03</rscale>
<asrwt>0</asrwt>
<pdfrwt beam="1">  1        2 0.21153179E+00 0.75997043E+03</pdfrwt>
<pdfrwt beam="2">  1       -2 0.18955182E+00 0.75997043E+03</pdfrwt>
<totfact> 0.23970928E+00</totfact>
</mgrwt>
</event>
<event>
 4    1  0.1726795E-008  0.3891810E+03  0.7818608E-02  0.1047592E+00
         -2   -1    0    0    0  501 -0.00000000000E+00  0.00000000000E+00  0.32951441654E+03  0.32951441655E+03  0.25500000000E-02 0.  1.
          2   -1    0    0  501    0  0.00000000000E+00 -0.00000000000E+00 -0.15381571680E+04  0.15381571680E+04  0.25500000000E-02 0. -1.
    8880022    1    1    2    0    0 -0.14212537262E+03 -0.32843653140E+03  0.17763289157E+03  0.42780284464E+03  0.15294330000E+03 0.  0.
    8880022    1    1    2    0    0  0.14212537262E+03  0.32843653140E+03 -0.13862756431E+04  0.14398687399E+04  0.15294330000E+03 0.  0.
<mgrwt>
<rscale>  0 0.38918097E+03</rscale>
<asrwt>0</asrwt>
<pdfrwt beam="1">  1        2 0.23663956E+00 0.38918097E+03</pdfrwt>
<pdfrwt beam="2">  1       -2 0.50694527E-01 0.38918097E+03</pdfrwt>
<totfact> 0.47936496E+01</totfact>
</mgrwt>
</event>
<event>
 4    1  0.1726795E-008  0.1166654E+04  0.7818608E-02  0.9142555E-01
         -2   -1    0    0    0  501 -0.00000000000E+00  0.00000000000E+00  0.10014954036E+04  0.10014954036E+04  0.25500000000E-02 0.  1.
          2   -1    0    0  501    0  0.00000000000E+00 -0.00000000000E+00 -0.20646250240E+04  0.20646250240E+04  0.25500000000E-02 0. -1.
    8880022    1    1    2    0    0  0.51673578797E+03  0.10347341045E+04  0.36464616931E+03  0.12223129810E+04  0.15294330000E+03 0.  0.
    8880022    1    1    2    0    0 -0.51673578797E+03 -0.10347341045E+04 -0.14277757897E+04  0.18438074466E+04  0.15294330000E+03 0.  0.
<mgrwt>
<rscale>  0 0.11666543E+04</rscale>
<asrwt>0</asrwt>
<pdfrwt beam="1">  1        2 0.31763462E+00 0.11666543E+04</pdfrwt>
<pdfrwt beam="2">  1       -2 0.15407622E+00 0.11666543E+04</pdfrwt>
<totfact> 0.16764457E+00</totfact>
</mgrwt>
</event>
<event>
 4    1  0.1726795E-008  0.5063289E+03  0.7818608E-02  0.1012140E+00
         -2   -1    0    0    0  501 -0.00000000000E+00  0.00000000000E+00  0.72373651748E+03  0.72373651749E+03  0.25500000000E-02 0.  1.
          2   -1    0    0  501    0  0.00000000000E+00 -0.00000000000E+00 -0.27632809604E+04  0.27632809604E+04  0.25500000000E-02 0. -1.
    8880022    1    1    2    0    0 -0.35025059445E+03 -0.33211725334E+03  0.60815364087E+03  0.79134054161E+03  0.15294330000E+03 0.  0.
    8880022    1    1    2    0    0  0.35025059445E+03  0.33211725334E+03 -0.26476980837E+04  0.26956769362E+04  0.15294330000E+03 0.  0.
<mgrwt>
<rscale>  0 0.50632895E+03</rscale>
<asrwt>0</asrwt>
<pdfrwt beam="1">  1        2 0.42512014E+00 0.50632895E+03</pdfrwt>
<pdfrwt beam="2">  1       -2 0.11134408E+00 0.50632895E+03</pdfrwt>
<totfact> 0.17504427E+00</totfact>
</mgrwt>
</event>
<event>
 4    1  0.1726795E-008  0.4623041E+03  0.7818608E-02  0.1024115E+00
         -2   -1    0    0    0  501 -0.00000000000E+00  0.00000000000E+00  0.89077081347E+03  0.89077081348E+03  0.25500000000E-02 0.  1.
          2   -1    0    0  501    0  0.00000000000E+00 -0.00000000000E+00 -0.41180109407E+03  0.41180109407E+03  0.25500000000E-02 0. -1.
    8880022    1    1    2    0    0  0.86386389955E+02 -0.42763393433E+03  0.66023665509E+03  0.80600092054E+03  0.15294330000E+03 0.  0.
    8880022    1    1    2    0    0 -0.86386389955E+02  0.42763393433E+03 -0.18126693569E+03  0.49657098702E+03  0.15294330000E+03 0.  0.
<mgrwt>
<rscale>  0 0.46230406E+03</rscale>
<asrwt>0</asrwt>
<pdfrwt beam="1">  1        2 0.63354015E-01 0.46230406E+03</pdfrwt>
<pdfrwt beam="2">  1       -2 0.13704166E+00 0.46230406E+03</pdfrwt>
<totfact> 0.30368542E+01</totfact>
</mgrwt>
</event>
<event>
 4    1  0.1726795E-008  0.1089624E+04  0.7818608E-02  0.9215364E-01
         -2   -1    0    0    0  501 -0.00000000000E+00  0.00000000000E+00  0.61834294402E+03  0.61834294403E+03  0.25500000000E-02 0.  1.
          2   -1    0    0  501    0  0.00000000000E+00 -0.00000000000E+00 -0.27019110220E+04  0.27019110220E+04  0.25500000000E-02 0. -1.
    8880022    1    1    2    0    0 -0.10492499119E+04  0.25092482704E+03 -0.19347947660E+04  0.22205204538E+04  0.15294330000E+03 0.  0.
    8880022    1    1    2    0    0  0.10492499119E+04 -0.25092482704E+03 -0.14877331204E+03  0.10997335122E+04  0.15294330000E+03 0.  0.
<mgrwt>
<rscale>  0 0.10896239E+04</rscale>
<asrwt>0</asrwt>
<pdfrwt beam="1">  1        2 0.41567861E+00 0.10896239E+04</pdfrwt>
<pdfrwt beam="2">  1       -2 0.95129685E-01 0.10896239E+04</pdfrwt>
<totfact> 0.24618441E+00</totfact>
</mgrwt>
</event>
<event>
 4    1  0.1726795E-008  0.1317398E+04  0.7818608E-02  0.9015881E-01
          2   -1    0    0  501    0  0.00000000000E+00  0.00000000000E+00  0.15281020733E+04  0.15281020733E+04  0.25500000000E-02 0. -1.
         -2   -1    0    0    0  501 -0.00000000000E+00 -0.00000000000E+00 -0.14109140735E+04  0.14109140735E+04  0.25500000000E-02 0.  1.
    8880022    1    1    2    0    0  0.10987215572E+04 -0.71060345488E+03  0.70755649207E+03  0.14953842893E+04  0.15294330000E+03 0.  0.
    8880022    1    1    2    0    0 -0.10987215572E+04  0.71060345488E+03 -0.59036849222E+03  0.14436318575E+04  0.15294330000E+03 0.  0.
<mgrwt>
<rscale>  0 0.13173982E+04</rscale>
<asrwt>0</asrwt>
<pdfrwt beam="1">  1        2 0.23509263E+00 0.13173982E+04</pdfrwt>
<pdfrwt beam="2">  1       -2 0.21706370E+00 0.13173982E+04</pdfrwt>
<totfact> 0.12095535E+00</totfact>
</mgrwt>
</event>
<event>
 4    1  0.1864764E-008  0.7913803E+03  0.7818608E-02  0.9572578E-01
         -2   -1    0    0    0  501 -0.00000000000E+00  0.00000000000E+00  0.13409839232E+04  0.13409839232E+04  0.25500000000E-02 0.  1.
          2   -1    0    0  501    0  0.00000000000E+00 -0.00000000000E+00 -0.16165359037E+04  0.16165359037E+04  0.25500000000E-02 0. -1.
    8880022    1    1    2    0    0  0.23636765343E+03 -0.73960894434E+03 -0.13847579588E+04  0.15949411636E+04  0.15294330000E+03 0.  0.
    8880022    1    1    2    0    0 -0.23636765343E+03  0.73960894434E+03  0.11092059783E+04  0.13625786632E+04  0.15294330000E+03 0.  0.
<mgrwt>
<rscale>  0 0.79138026E+03</rscale>
<asrwt>0</asrwt>
<pdfrwt beam="1">  1        2 0.24869783E+00 0.79138026E+03</pdfrwt>
<pdfrwt beam="2">  1       -2 0.20630522E+00 0.79138026E+03</pdfrwt>
<totfact> 0.13576896E+00</totfact>
</mgrwt>
</event>
<event>
 4    1  0.1726795E-008  0.8509863E+03  0.7818608E-02  0.9489014E-01
         -2   -1    0    0    0  501 -0.00000000000E+00  0.00000000000E+00  0.10797153397E+04  0.10797153397E+04  0.25500000000E-02 0.  1.
          2   -1    0    0  501    0  0.00000000000E+00 -0.00000000000E+00 -0.22079259385E+04  0.22079259385E+04  0.25500000000E-02 0. -1.
    8880022    1    1    2    0    0 -0.68902064280E+03 -0.47543302301E+03  0.80750072602E+03  0.11731304621E+04  0.15294330000E+03 0.  0.
    8880022    1    1    2    0    0  0.68902064280E+03  0.47543302301E+03 -0.19357113248E+04  0.21145108162E+04  0.15294330000E+03 0.  0.
<mgrwt>
<rscale>  0 0.85098629E+03</rscale>
<asrwt>0</asrwt>
<pdfrwt beam="1">  1        2 0.33968091E+00 0.85098629E+03</pdfrwt>
<pdfrwt beam="2">  1       -2 0.16611005E+00 0.85098629E+03</pdfrwt>
<totfact> 0.11908017E+00</totfact>
</mgrwt>
</event>
<event>
 4    1  0.1726795E-008  0.6635837E+03  0.7818608E-02  0.9781619E-01
         -2   -1    0    0    0  501 -0.00000000000E+00  0.00000000000E+00  0.30343620852E+03  0.30343620853E+03  0.25500000000E-02 0.  1.
          2   -1    0    0  501    0  0.00000000000E+00 -0.00000000000E+00 -0.17879549775E+04  0.17879549775E+04  0.25500000000E-02 0. -1.
    8880022    1    1    2    0    0  0.64515974916E+03  0.26844079742E+02 -0.11960870228E+04  0.13678331498E+04  0.15294330000E+03 0.  0.
    8880022    1    1    2    0    0 -0.64515974916E+03 -0.26844079742E+02 -0.28843174614E+03  0.72355803620E+03  0.15294330000E+03 0.  0.
<mgrwt>
<rscale>  0 0.66358372E+03</rscale>
<asrwt>0</asrwt>
<pdfrwt beam="1">  1        2 0.27506999E+00 0.66358372E+03</pdfrwt>
<pdfrwt beam="2">  1       -2 0.46682495E-01 0.66358372E+03</pdfrwt>
<totfact> 0.39591826E+01</totfact>
</mgrwt>
</event>
<event>
 4    1  0.1726795E-008  0.4815379E+03  0.7818608E-02  0.1018713E+00
          2   -1    0    0  501    0  0.00000000000E+00  0.00000000000E+00  0.22889238464E+04  0.22889238464E+04  0.25500000000E-02 0. -1.
         -2   -1    0    0    0  501 -0.00000000000E+00 -0.00000000000E+00 -0.50017493390E+03  0.50017493391E+03  0.25500000000E-02 0.  1.
    8880022    1    1    2    0    0  0.45490787472E+03  0.39318735683E+02 -0.35096784753E+03  0.59586678081E+03  0.15294330000E+03 0.  0.
    8880022    1    1    2    0    0 -0.45490787472E+03 -0.39318735683E+02  0.21397167600E+04  0.21932319995E+04  0.15294330000E+03 0.  0.
<mgrwt>
<rscale>  0 0.48153794E+03</rscale>
<asrwt>0</asrwt>
<pdfrwt beam="1">  1        2 0.35214213E+00 0.48153794E+03</pdfrwt>
<pdfrwt beam="2">  1       -2 0.76949990E-01 0.48153794E+03</pdfrwt>
<totfact> 0.76539845E+00</totfact>
</mgrwt>
</event>
<event>
 4    1  0.1726795E-008  0.4664490E+03  0.7818608E-02  0.1022927E+00
          2   -1    0    0  501    0  0.00000000000E+00  0.00000000000E+00  0.17878045364E+04  0.17878045364E+04  0.25500000000E-02 0. -1.
         -2   -1    0    0    0  501 -0.00000000000E+00 -0.00000000000E+00 -0.62254069519E+03  0.62254069519E+03  0.25500000000E-02 0.  1.
    8880022    1    1    2    0    0 -0.16887195328E+02 -0.44033827487E+03 -0.49834264160E+03  0.68258333933E+03  0.15294330000E+03 0.  0.
    8880022    1    1    2    0    0  0.16887195328E+02  0.44033827487E+03  0.16636064828E+04  0.17277618923E+04  0.15294330000E+03 0.  0.
<mgrwt>
<rscale>  0 0.46644895E+03</rscale>
<asrwt>0</asrwt>
<pdfrwt beam="1">  1        2 0.27504685E+00 0.46644895E+03</pdfrwt>
<pdfrwt beam="2">  1       -2 0.95775491E-01 0.46644895E+03</pdfrwt>
<totfact> 0.87150114E+00</totfact>
</mgrwt>
</event>
<event>
 4    1  0.1726795E-008  0.7368909E+03  0.7818608E-02  0.9656144E-01
          2   -1    0    0  501    0  0.00000000000E+00  0.00000000000E+00  0.26082065906E+04  0.26082065906E+04  0.25500000000E-02 0. -1.
         -2   -1    0    0    0  501 -0.00000000000E+00 -0.00000000000E+00 -0.37149381193E+03  0.37149381194E+03  0.25500000000E-02 0.  1.
    8880022    1    1    2    0    0  0.33408859649E+03  0.63874989132E+03  0.21061405284E+04  0.22313305879E+04  0.15294330000E+03 0.  0.
    8880022    1    1    2    0    0 -0.33408859649E+03 -0.63874989132E+03  0.13057225028E+03  0.74836981468E+03  0.15294330000E+03 0.  0.
<mgrwt>
<rscale>  0 0.73689095E+03</rscale>
<asrwt>0</asrwt>
<pdfrwt beam="1">  1        2 0.40126253E+00 0.73689095E+03</pdfrwt>
<pdfrwt beam="2">  1       -2 0.57152897E-01 0.73689095E+03</pdfrwt>
<totfact> 0.91040605E+00</totfact>
</mgrwt>
</event>
<event>
 4    1  0.1726795E-008  0.8350188E+03  0.7818608E-02  0.9510668E-01
         -2   -1    0    0    0  501 -0.00000000000E+00  0.00000000000E+00  0.13355398243E+04  0.13355398243E+04  0.25500000000E-02 0.  1.
          2   -1    0    0  501    0  0.00000000000E+00 -0.00000000000E+00 -0.15562530369E+04  0.15562530369E+04  0.25500000000E-02 0. -1.
    8880022    1    1    2    0    0  0.26480673310E+03 -0.77700846887E+03 -0.12890314993E+04  0.15358576190E+04  0.15294330000E+03 0.  0.
    8880022    1    1    2    0    0 -0.26480673310E+03  0.77700846887E+03  0.10683182867E+04  0.13559352423E+04  0.15294330000E+03 0.  0.
<mgrwt>
<rscale>  0 0.83501881E+03</rscale>
<asrwt>0</asrwt>
<pdfrwt beam="1">  1        2 0.23942354E+00 0.83501881E+03</pdfrwt>
<pdfrwt beam="2">  1       -2 0.20546767E+00 0.83501881E+03</pdfrwt>
<totfact> 0.14732745E+00</totfact>
</mgrwt>
</event>
<event>
 4    1  0.1726795E-008  0.3178232E+03  0.7818608E-02  0.1076655E+00
         -2   -1    0    0    0  501 -0.00000000000E+00  0.00000000000E+00  0.98079887813E+03  0.98079887813E+03  0.25500000000E-02 0.  1.
          2   -1    0    0  501    0  0.00000000000E+00 -0.00000000000E+00 -0.90566003221E+03  0.90566003222E+03  0.25500000000E-02 0. -1.
    8880022    1    1    2    0    0  0.12552788098E+03  0.24872216050E+03  0.92555009990E+03  0.97859828451E+03  0.15294330000E+03 0.  1.
    8880022    1    1    2    0    0 -0.12552788098E+03 -0.24872216050E+03 -0.85041125398E+03  0.90786062583E+03  0.15294330000E+03 0.  0.
<mgrwt>
<rscale>  0 0.31782324E+03</rscale>
<asrwt>0</asrwt>
<pdfrwt beam="1">  1        2 0.13933231E+00 0.31782324E+03</pdfrwt>
<pdfrwt beam="2">  1       -2 0.15089214E+00 0.31782324E+03</pdfrwt>
<totfact> 0.94274275E+00</totfact>
</mgrwt>
</event>
<event>
 4    1  0.2891899E-008  0.7544223E+03  0.7818608E-02  0.9628438E-01
          2   -1    0    0  501    0  0.00000000000E+00  0.00000000000E+00  0.20724558506E+04  0.20724558506E+04  0.25500000000E-02 0. -1.
         -2   -1    0    0    0  501 -0.00000000000E+00 -0.00000000000E+00 -0.21093058775E+04  0.21093058775E+04  0.25500000000E-02 0.  1.
    8880022    1    1    2    0    0  0.13188163973E+03  0.72688969443E+03  0.19315969197E+04  0.20736971110E+04  0.15294330000E+03 0.  0.
    8880022    1    1    2    0    0 -0.13188163973E+03 -0.72688969443E+03 -0.19684469467E+04  0.21080646170E+04  0.15294330000E+03 0.  0.
<mgrwt>
<rscale>  0 0.75442233E+03</rscale>
<asrwt>0</asrwt>
<pdfrwt beam="1">  1        2 0.31883936E+00 0.75442233E+03</pdfrwt>
<pdfrwt beam="2">  1       -2 0.32450860E+00 0.75442233E+03</pdfrwt>
<totfact> 0.14676163E-01</totfact>
</mgrwt>
</event>
<event>
 4    1  0.1726795E-008  0.7184585E+03  0.7818608E-02  0.9686176E-01
          2   -1    0    0  501    0  0.00000000000E+00  0.00000000000E+00  0.26963320692E+04  0.26963320692E+04  0.25500000000E-02 0. -1.
         -2   -1    0    0    0  501 -0.00000000000E+00 -0.00000000000E+00 -0.21308074793E+03  0.21308074795E+03  0.25500000000E-02 0.  1.
    8880022    1    1    2    0    0  0.57232563966E+03 -0.40649028471E+03  0.17052339278E+04  0.18504068177E+04  0.15294330000E+03 0.  0.
    8880022    1    1    2    0    0 -0.57232563966E+03  0.40649028471E+03  0.77801739352E+03  0.10590059995E+04  0.15294330000E+03 0.  0.
<mgrwt>
<rscale>  0 0.71845852E+03</rscale>
<asrwt>0</asrwt>
<pdfrwt beam="1">  1        2 0.41482032E+00 0.71845852E+03</pdfrwt>
<pdfrwt beam="2">  1       -2 0.32781653E-01 0.71845852E+03</pdfrwt>
<totfact> 0.24428528E+01</totfact>
</mgrwt>
</event>
<event>
 4    1  0.1726795E-008  0.1109481E+04  0.7818608E-02  0.9196000E-01
         -2   -1    0    0    0  501 -0.00000000000E+00  0.00000000000E+00  0.32961250808E+04  0.32961250808E+04  0.25500000000E-02 0.  1.
          2   -1    0    0  501    0  0.00000000000E+00 -0.00000000000E+00 -0.13053209246E+04  0.13053209246E+04  0.25500000000E-02 0. -1.
    8880022    1    1    2    0    0 -0.67025098351E+03  0.87081571563E+03  0.29393420458E+04  0.31417637891E+04  0.15294330000E+03 0.  0.
    8880022    1    1    2    0    0  0.67025098351E+03 -0.87081571563E+03 -0.94853788955E+03  0.14596822162E+04  0.15294330000E+03 0.  0.
<mgrwt>
<rscale>  0 0.11094810E+04</rscale>
<asrwt>0</asrwt>
<pdfrwt beam="1">  1        2 0.20081860E+00 0.11094810E+04</pdfrwt>
<pdfrwt beam="2">  1       -2 0.50709617E+00 0.11094810E+04</pdfrwt>
<totfact> 0.24200578E-02</totfact>
</mgrwt>
</event>
<event>
 4    1  0.1726795E-008  0.1181842E+04  0.7818608E-02  0.9128900E-01
         -2   -1    0    0    0  501 -0.00000000000E+00  0.00000000000E+00  0.16949198603E+04  0.16949198603E+04  0.25500000000E-02 0.  1.
          2   -1    0    0  501    0  0.00000000000E+00 -0.00000000000E+00 -0.89408940101E+03  0.89408940101E+03  0.25500000000E-02 0. -1.
    8880022    1    1    2    0    0  0.63578287017E+03  0.98444892639E+03  0.38181979545E+02  0.11824589055E+04  0.15294330000E+03 0.  0.
    8880022    1    1    2    0    0 -0.63578287017E+03 -0.98444892639E+03  0.76264847974E+03  0.14065503558E+04  0.15294330000E+03 0.  0.
<mgrwt>
<rscale>  0 0.11818423E+04</rscale>
<asrwt>0</asrwt>
<pdfrwt beam="1">  1        2 0.13755222E+00 0.11818423E+04</pdfrwt>
<pdfrwt beam="2">  1       -2 0.26075690E+00 0.11818423E+04</pdfrwt>
<totfact> 0.15975862E+00</totfact>
</mgrwt>
</event>
<event>
 4    1  0.1726795E-008  0.8399071E+03  0.7818608E-02  0.9503984E-01
          2   -1    0    0  501    0  0.00000000000E+00  0.00000000000E+00  0.35297887392E+04  0.35297887392E+04  0.25500000000E-02 0. -1.
         -2   -1    0    0    0  501 -0.00000000000E+00 -0.00000000000E+00 -0.63722098225E+03  0.63722098226E+03  0.25500000000E-02 0.  1.
    8880022    1    1    2    0    0 -0.82397460727E+03  0.55839888819E+02  0.31724089877E+04  0.32817103292E+04  0.15294330000E+03 0.  0.
    8880022    1    1    2    0    0  0.82397460727E+03 -0.55839888819E+02 -0.27984123069E+03  0.88529939231E+03  0.15294330000E+03 0.  0.
<mgrwt>
<rscale>  0 0.83990708E+03</rscale>
<asrwt>0</asrwt>
<pdfrwt beam="1">  1        2 0.54304442E+00 0.83990708E+03</pdfrwt>
<pdfrwt beam="2">  1       -2 0.98033997E-01 0.83990708E+03</pdfrwt>
<totfact> 0.71608758E-01</totfact>
</mgrwt>
</event>
<event>
 4    1  0.1726795E-008  0.5672286E+03  0.7818608E-02  0.9975830E-01
          2   -1    0    0  501    0  0.00000000000E+00  0.00000000000E+00  0.79807723863E+03  0.79807723863E+03  0.25500000000E-02 0. -1.
         -2   -1    0    0    0  501 -0.00000000000E+00 -0.00000000000E+00 -0.97794792681E+03  0.97794792681E+03  0.25500000000E-02 0.  1.
    8880022    1    1    2    0    0  0.53579498530E+03 -0.10620895230E+03 -0.77073171346E+03  0.95696166850E+03  0.15294330000E+03 0.  0.
    8880022    1    1    2    0    0 -0.53579498530E+03  0.10620895230E+03  0.59086102528E+03  0.81906349695E+03  0.15294330000E+03 0.  0.
<mgrwt>
<rscale>  0 0.56722858E+03</rscale>
<asrwt>0</asrwt>
<pdfrwt beam="1">  1        2 0.12278111E+00 0.56722858E+03</pdfrwt>
<pdfrwt beam="2">  1       -2 0.15045353E+00 0.56722858E+03</pdfrwt>
<totfact> 0.10686247E+01</totfact>
</mgrwt>
</event>
<event>
 4    1  0.1726795E-008  0.6914037E+03  0.7818608E-02  0.9732047E-01
         -2   -1    0    0    0  501 -0.00000000000E+00  0.00000000000E+00  0.10642145686E+04  0.10642145686E+04  0.25500000000E-02 0.  1.
          2   -1    0    0  501    0  0.00000000000E+00 -0.00000000000E+00 -0.60111110784E+03  0.60111110784E+03  0.25500000000E-02 0. -1.
    8880022    1    1    2    0    0 -0.74060304641E+02  0.67019587119E+03 -0.18704396712E+03  0.71625730931E+03  0.15294330000E+03 0.  0.
    8880022    1    1    2    0    0  0.74060304641E+02 -0.67019587119E+03  0.65014742785E+03  0.94906836711E+03  0.15294330000E+03 0.  0.
<mgrwt>
<rscale>  0 0.69140371E+03</rscale>
<asrwt>0</asrwt>
<pdfrwt beam="1">  1        2 0.92478633E-01 0.69140371E+03</pdfrwt>
<pdfrwt beam="2">  1       -2 0.16372532E+00 0.69140371E+03</pdfrwt>
<totfact> 0.11961244E+01</totfact>
</mgrwt>
</event>
<event>
 4    1  0.1726795E-008  0.1894473E+03  0.7818608E-02  0.1158961E+00
         -2   -1    0    0    0  501 -0.00000000000E+00  0.00000000000E+00  0.85522091422E+02  0.85522091460E+02  0.25500000000E-02 0.  1.
          2   -1    0    0  501    0  0.00000000000E+00 -0.00000000000E+00 -0.35232145742E+04  0.35232145742E+04  0.25500000000E-02 0. -1.
    8880022    1    1    2    0    0  0.98167087517E+00 -0.11179297785E+03 -0.25345961361E+02  0.19113530377E+03  0.15294330000E+03 0.  0.
    8880022    1    1    2    0    0 -0.98167087517E+00  0.11179297785E+03 -0.34123465214E+04  0.34176013619E+04  0.15294330000E+03 0. -1.
<mgrwt>
<rscale>  0 0.18944732E+03</rscale>
<asrwt>0</asrwt>
<pdfrwt beam="1">  1        2 0.54203290E+00 0.18944732E+03</pdfrwt>
<pdfrwt beam="2">  1       -2 0.13157248E-01 0.18944732E+03</pdfrwt>
<totfact> 0.43766057E+01</totfact>
</mgrwt>
</event>
<event>
 4    1  0.1726795E-008  0.7718421E+03  0.7818608E-02  0.9601693E-01
         -2   -1    0    0    0  501 -0.00000000000E+00  0.00000000000E+00  0.17115008852E+04  0.17115008852E+04  0.25500000000E-02 0.  1.
          2   -1    0    0  501    0  0.00000000000E+00 -0.00000000000E+00 -0.13205063682E+04  0.13205063682E+04  0.25500000000E-02 0. -1.
    8880022    1    1    2    0    0  0.61472612480E+03  0.44097666475E+03 -0.11054455847E+04  0.13482396749E+04  0.15294330000E+03 0.  0.
    8880022    1    1    2    0    0 -0.61472612480E+03 -0.44097666475E+03  0.14964401017E+04  0.16837675785E+04  0.15294330000E+03 0.  0.
<mgrwt>
<rscale>  0 0.77184213E+03</rscale>
<asrwt>0</asrwt>
<pdfrwt beam="1">  1        2 0.20315483E+00 0.77184213E+03</pdfrwt>
<pdfrwt beam="2">  1       -2 0.26330783E+00 0.77184213E+03</pdfrwt>
<totfact> 0.88875118E-01</totfact>
</mgrwt>
</event>
<event>
 4    1  0.1726795E-008  0.8142480E+03  0.7818608E-02  0.9539620E-01
          2   -1    0    0  501    0  0.00000000000E+00  0.00000000000E+00  0.22669640811E+04  0.22669640811E+04  0.25500000000E-02 0. -1.
         -2   -1    0    0    0  501 -0.00000000000E+00 -0.00000000000E+00 -0.52959574011E+03  0.52959574012E+03  0.25500000000E-02 0.  1.
    8880022    1    1    2    0    0 -0.69168795877E+03 -0.40146716650E+03 -0.66977820201E+02  0.81699804130E+03  0.15294330000E+03 0.  0.
    8880022    1    1    2    0    0  0.69168795877E+03  0.40146716650E+03  0.18043461611E+04  0.19795617799E+04  0.15294330000E+03 0.  0.
<mgrwt>
<rscale>  0 0.81424798E+03</rscale>
<asrwt>0</asrwt>
<pdfrwt beam="1">  1        2 0.34876371E+00 0.81424798E+03</pdfrwt>
<pdfrwt beam="2">  1       -2 0.81476266E-01 0.81424798E+03</pdfrwt>
<totfact> 0.64801183E+00</totfact>
</mgrwt>
</event>
<event>
 4    1  0.1726795E-008  0.2235557E+03  0.7818608E-02  0.1131260E+00
          2   -1    0    0  501    0  0.00000000000E+00  0.00000000000E+00  0.15280652811E+04  0.15280652811E+04  0.25500000000E-02 0. -1.
         -2   -1    0    0    0  501 -0.00000000000E+00 -0.00000000000E+00 -0.53645451347E+03  0.53645451347E+03  0.25500000000E-02 0.  1.
    8880022    1    1    2    0    0 -0.12148737127E+03 -0.10874893162E+03 -0.50449265843E+03  0.55180613165E+03  0.15294330000E+03 0.  0.
    8880022    1    1    2    0    0  0.12148737127E+03  0.10874893162E+03  0.14961034260E+04  0.15127136629E+04  0.15294330000E+03 0.  0.
<mgrwt>
<rscale>  0 0.22355573E+03</rscale>
<asrwt>0</asrwt>
<pdfrwt beam="1">  1        2 0.23508696E+00 0.22355573E+03</pdfrwt>
<pdfrwt beam="2">  1       -2 0.82531466E-01 0.22355573E+03</pdfrwt>
<totfact> 0.18179078E+01</totfact>
</mgrwt>
</event>
<event>
 4    1  0.1726795E-008  0.2603852E+03  0.7818608E-02  0.1106912E+00
         -2   -1    0    0    0  501 -0.00000000000E+00  0.00000000000E+00  0.74122292557E+02  0.74122292601E+02  0.25500000000E-02 0.  1.
          2   -1    0    0  501    0  0.00000000000E+00 -0.00000000000E+00 -0.26970662519E+04  0.26970662519E+04  0.25500000000E-02 0. -1.
    8880022    1    1    2    0    0  0.15765222148E+03 -0.13983767197E+03 -0.24378585133E+04  0.24517248176E+04  0.15294330000E+03 0.  0.
    8880022    1    1    2    0    0 -0.15765222148E+03  0.13983767197E+03 -0.18508544603E+03  0.31946372687E+03  0.15294330000E+03 0.  0.
<mgrwt>
<rscale>  0 0.26038520E+03</rscale>
<asrwt>0</asrwt>
<pdfrwt beam="1">  1        2 0.41493319E+00 0.26038520E+03</pdfrwt>
<pdfrwt beam="2">  1       -2 0.11403432E-01 0.26038520E+03</pdfrwt>
<totfact> 0.16847269E+02</totfact>
</mgrwt>
</event>
<event>
 4    1  0.1726795E-008  0.6190131E+03  0.7818608E-02  0.9866727E-01
         -2   -1    0    0    0  501 -0.00000000000E+00  0.00000000000E+00  0.69865900184E+03  0.69865900184E+03  0.25500000000E-02 0.  1.
          2   -1    0    0  501    0  0.00000000000E+00 -0.00000000000E+00 -0.75504281462E+03  0.75504281462E+03  0.25500000000E-02 0. -1.
    8880022    1    1    2    0    0 -0.52445403359E+03 -0.29109019613E+03 -0.40839940326E+03  0.74159777591E+03  0.15294330000E+03 0.  0.
    8880022    1    1    2    0    0  0.52445403359E+03  0.29109019613E+03  0.35201559048E+03  0.71210404056E+03  0.15294330000E+03 0.  1.
<mgrwt>
<rscale>  0 0.61901308E+03</rscale>
<asrwt>0</asrwt>
<pdfrwt beam="1">  1        2 0.11616043E+00 0.61901308E+03</pdfrwt>
<pdfrwt beam="2">  1       -2 0.10748600E+00 0.61901308E+03</pdfrwt>
<totfact> 0.26531202E+01</totfact>
</mgrwt>
</event>
<event>
 4    1  0.1726795E-008  0.1005850E+04  0.7818608E-02  0.9302152E-01
          2   -1    0    0  501    0  0.00000000000E+00  0.00000000000E+00  0.15623152322E+04  0.15623152322E+04  0.25500000000E-02 0. -1.
         -2   -1    0    0    0  501 -0.00000000000E+00 -0.00000000000E+00 -0.72954071156E+03  0.72954071157E+03  0.25500000000E-02 0.  1.
    8880022    1    1    2    0    0 -0.14475351503E+02 -0.99404844142E+03  0.80046530522E+03  0.12854875330E+04  0.15294330000E+03 0.  0.
    8880022    1    1    2    0    0  0.14475351503E+02  0.99404844142E+03  0.32309215396E+02  0.10063684107E+04  0.15294330000E+03 0.  0.
<mgrwt>
<rscale>  0 0.10058496E+04</rscale>
<asrwt>0</asrwt>
<pdfrwt beam="1">  1        2 0.24035619E+00 0.10058496E+04</pdfrwt>
<pdfrwt beam="2">  1       -2 0.11223703E+00 0.10058496E+04</pdfrwt>
<totfact> 0.72842420E+00</totfact>
</mgrwt>
</event>
<event>
 4    1  0.1726795E-008  0.9691994E+03  0.7818608E-02  0.9342987E-01
         -2   -1    0    0    0  501 -0.00000000000E+00  0.00000000000E+00  0.15579329073E+04  0.15579329073E+04  0.25500000000E-02 0.  1.
          2   -1    0    0  501    0  0.00000000000E+00 -0.00000000000E+00 -0.98343292121E+03  0.98343292121E+03  0.25500000000E-02 0. -1.
    8880022    1    1    2    0    0 -0.90738052715E+03  0.30432933316E+03  0.10776290379E+04  0.14493556363E+04  0.15294330000E+03 0.  0.
    8880022    1    1    2    0    0  0.90738052715E+03 -0.30432933316E+03 -0.50312905183E+03  0.10920101922E+04  0.15294330000E+03 0.  0.
<mgrwt>
<rscale>  0 0.96919937E+03</rscale>
<asrwt>0</asrwt>
<pdfrwt beam="1">  1        2 0.15129737E+00 0.96919937E+03</pdfrwt>
<pdfrwt beam="2">  1       -2 0.23968198E+00 0.96919937E+03</pdfrwt>
<totfact> 0.19201006E+00</totfact>
</mgrwt>
</event>
<event>
 4    1  0.1726795E-008  0.1756090E+04  0.7818608E-02  0.8730005E-01
         -2   -1    0    0    0  501 -0.00000000000E+00  0.00000000000E+00  0.15654449484E+04  0.15654449484E+04  0.25500000000E-02 0.  1.
          2   -1    0    0  501    0  0.00000000000E+00 -0.00000000000E+00 -0.19820288832E+04  0.19820288832E+04  0.25500000000E-02 0. -1.
    8880022    1    1    2    0    0  0.17121878115E+04 -0.35899020110E+03 -0.69840815543E+02  0.17574784377E+04  0.15294330000E+03 0.  0.
    8880022    1    1    2    0    0 -0.17121878115E+04  0.35899020110E+03 -0.34674311920E+03  0.17899953939E+04  0.15294330000E+03 0.  0.
<mgrwt>
<rscale>  0 0.17560902E+04</rscale>
<asrwt>0</asrwt>
<pdfrwt beam="1">  1        2 0.30492752E+00 0.17560902E+04</pdfrwt>
<pdfrwt beam="2">  1       -2 0.24083769E+00 0.17560902E+04</pdfrwt>
<totfact> 0.45757231E-01</totfact>
</mgrwt>
</event>
<event>
 4    1  0.1726795E-008  0.1532220E+04  0.7818608E-02  0.8863305E-01
         -2   -1    0    0    0  501 -0.00000000000E+00  0.00000000000E+00  0.97870416596E+03  0.97870416597E+03  0.25500000000E-02 0.  1.
          2   -1    0    0  501    0  0.00000000000E+00 -0.00000000000E+00 -0.25864505229E+04  0.25864505229E+04  0.25500000000E-02 0. -1.
    8880022    1    1    2    0    0  0.15226028190E+04 -0.77382058989E+02 -0.12840384863E+04  0.19991132571E+04  0.15294330000E+03 0.  0.
    8880022    1    1    2    0    0 -0.15226028190E+04  0.77382058989E+02 -0.32370787066E+03  0.15660414318E+04  0.15294330000E+03 0.  0.
<mgrwt>
<rscale>  0 0.15322203E+04</rscale>
<asrwt>0</asrwt>
<pdfrwt beam="1">  1        2 0.39791546E+00 0.15322203E+04</pdfrwt>
<pdfrwt beam="2">  1       -2 0.15056987E+00 0.15322203E+04</pdfrwt>
<totfact> 0.86601139E-01</totfact>
</mgrwt>
</event>
<event>
 4    1  0.2624867E-008  0.1380491E+04  0.7818608E-02  0.8968062E-01
         -2   -1    0    0    0  501 -0.00000000000E+00  0.00000000000E+00  0.15435156348E+04  0.15435156348E+04  0.25500000000E-02 0.  1.
          2   -1    0    0  501    0  0.00000000000E+00 -0.00000000000E+00 -0.25674799191E+04  0.25674799191E+04  0.25500000000E-02 0. -1.
    8880022    1    1    2    0    0 -0.59521938936E+02 -0.13707010330E+04 -0.19929482615E+04  0.24243759216E+04  0.15294330000E+03 0.  0.
    8880022    1    1    2    0    0  0.59521938936E+02  0.13707010330E+04  0.96898397723E+03  0.16866196323E+04  0.15294330000E+03 0.  0.
<mgrwt>
<rscale>  0 0.13804912E+04</rscale>
<asrwt>0</asrwt>
<pdfrwt beam="1">  1        2 0.39499691E+00 0.13804912E+04</pdfrwt>
<pdfrwt beam="2">  1       -2 0.23746394E+00 0.13804912E+04</pdfrwt>
<totfact> 0.23267862E-01</totfact>
</mgrwt>
</event>
<event>
 4    1  0.1726795E-008  0.6017655E+03  0.7818608E-02  0.9901750E-01
          2   -1    0    0  501    0  0.00000000000E+00  0.00000000000E+00  0.23137929737E+04  0.23137929737E+04  0.25500000000E-02 0. -1.
         -2   -1    0    0    0  501 -0.00000000000E+00 -0.00000000000E+00 -0.48525922889E+03  0.48525922889E+03  0.25500000000E-02 0.  1.
    8880022    1    1    2    0    0  0.57966750016E+03  0.52112393815E+02  0.20662054402E+04  0.21520517388E+04  0.15294330000E+03 0.  0.
    8880022    1    1    2    0    0 -0.57966750016E+03 -0.52112393815E+02 -0.23767169540E+03  0.64700046379E+03  0.15294330000E+03 0.  0.
<mgrwt>
<rscale>  0 0.60176554E+03</rscale>
<asrwt>0</asrwt>
<pdfrwt beam="1">  1        2 0.35596815E+00 0.60176554E+03</pdfrwt>
<pdfrwt beam="2">  1       -2 0.74655266E-01 0.60176554E+03</pdfrwt>
<totfact> 0.77084812E+00</totfact>
</mgrwt>
</event>
<event>
 4    1  0.1726795E-008  0.7195860E+03  0.7818608E-02  0.9684312E-01
         -2   -1    0    0    0  501 -0.00000000000E+00  0.00000000000E+00  0.10130920460E+04  0.10130920460E+04  0.25500000000E-02 0.  1.
          2   -1    0    0  501    0  0.00000000000E+00 -0.00000000000E+00 -0.19859296823E+04  0.19859296823E+04  0.25500000000E-02 0. -1.
    8880022    1    1    2    0    0  0.66320438707E+03  0.23360708916E+03 -0.17786397780E+04  0.19186879485E+04  0.15294330000E+03 0.  0.
    8880022    1    1    2    0    0 -0.66320438707E+03 -0.23360708916E+03  0.80580214162E+03  0.10803337797E+04  0.15294330000E+03 0.  1.
<mgrwt>
<rscale>  0 0.71958598E+03</rscale>
<asrwt>0</asrwt>
<pdfrwt beam="1">  1        2 0.30552764E+00 0.71958598E+03</pdfrwt>
<pdfrwt beam="2">  1       -2 0.15586032E+00 0.71958598E+03</pdfrwt>
<totfact> 0.19209149E+00</totfact>
</mgrwt>
</event>
<event>
 4    1  0.1726795E-008  0.1050767E+04  0.7818608E-02  0.9254553E-01
         -2   -1    0    0    0  501 -0.00000000000E+00  0.00000000000E+00  0.13016307398E+04  0.13016307398E+04  0.25500000000E-02 0.  1.
          2   -1    0    0  501    0  0.00000000000E+00 -0.00000000000E+00 -0.14138625359E+04  0.14138625359E+04  0.25500000000E-02 0. -1.
    8880022    1    1    2    0    0  0.45561912609E+03 -0.93441435368E+03 -0.91488015975E+03  0.13932395100E+04  0.15294330000E+03 0. -1.
    8880022    1    1    2    0    0 -0.45561912609E+03  0.93441435368E+03  0.80264836358E+03  0.13222537657E+04  0.15294330000E+03 0.  0.
<mgrwt>
<rscale>  0 0.10507667E+04</rscale>
<asrwt>0</asrwt>
<pdfrwt beam="1">  1        2 0.21751731E+00 0.10507667E+04</pdfrwt>
<pdfrwt beam="2">  1       -2 0.20025088E+00 0.10507667E+04</pdfrwt>
<totfact> 0.18576741E+00</totfact>
</mgrwt>
</event>
<event>
 4    1  0.1726795E-008  0.8498326E+03  0.7818608E-02  0.9490562E-01
          2   -1    0    0  501    0  0.00000000000E+00  0.00000000000E+00  0.11832495721E+04  0.11832495721E+04  0.25500000000E-02 0. -1.
         -2   -1    0    0    0  501 -0.00000000000E+00 -0.00000000000E+00 -0.10706288870E+04  0.10706288870E+04  0.25500000000E-02 0.  1.
    8880022    1    1    2    0    0  0.50057236934E+03  0.66951552639E+03  0.79520744721E+03  0.11638600750E+04  0.15294330000E+03 0.  0.
    8880022    1    1    2    0    0 -0.50057236934E+03 -0.66951552639E+03 -0.68258676202E+03  0.10900183841E+04  0.15294330000E+03 0.  0.
<mgrwt>
<rscale>  0 0.84983257E+03</rscale>
<asrwt>0</asrwt>
<pdfrwt beam="1">  1        2 0.18203840E+00 0.84983257E+03</pdfrwt>
<pdfrwt beam="2">  1       -2 0.16471214E+00 0.84983257E+03</pdfrwt>
<totfact> 0.45482812E+00</totfact>
</mgrwt>
</event>
<event>
 4    1  0.1726795E-008  0.6822465E+03  0.7818608E-02  0.9748084E-01
          2   -1    0    0  501    0  0.00000000000E+00  0.00000000000E+00  0.32134350484E+04  0.32134350484E+04  0.25500000000E-02 0. -1.
         -2   -1    0    0    0  501 -0.00000000000E+00 -0.00000000000E+00 -0.38724627629E+03  0.38724627630E+03  0.25500000000E-02 0.  1.
    8880022    1    1    2    0    0  0.40672920213E+03  0.52596580839E+03 -0.11284859560E+02  0.68233985413E+03  0.15294330000E+03 0.  0.
    8880022    1    1    2    0    0 -0.40672920213E+03 -0.52596580839E+03  0.28374736317E+04  0.29183414706E+04  0.15294330000E+03 0. -1.
<mgrwt>
<rscale>  0 0.68224653E+03</rscale>
<asrwt>0</asrwt>
<pdfrwt beam="1">  1        2 0.49437460E+00 0.68224653E+03</pdfrwt>
<pdfrwt beam="2">  1       -2 0.59576353E-01 0.68224653E+03</pdfrwt>
<totfact> 0.36430529E+00</totfact>
</mgrwt>
</event>
<event>
 4    1  0.1726795E-008  0.5264130E+03  0.7818608E-02  0.1007106E+00
         -2   -1    0    0    0  501 -0.00000000000E+00  0.00000000000E+00  0.33114845683E+03  0.33114845684E+03  0.25500000000E-02 0.  1.
          2   -1    0    0  501    0  0.00000000000E+00 -0.00000000000E+00 -0.26535174871E+04  0.26535174871E+04  0.25500000000E-02 0. -1.
    8880022    1    1    2    0    0 -0.10954761679E+03 -0.49164859922E+03  0.73614903902E+02  0.53153535400E+03  0.15294330000E+03 0.  0.
    8880022    1    1    2    0    0  0.10954761679E+03  0.49164859922E+03 -0.23959839341E+04  0.24531305899E+04  0.15294330000E+03 0.  0.
<mgrwt>
<rscale>  0 0.52641303E+03</rscale>
<asrwt>0</asrwt>
<pdfrwt beam="1">  1        2 0.40823344E+00 0.52641303E+03</pdfrwt>
<pdfrwt beam="2">  1       -2 0.50945918E-01 0.52641303E+03</pdfrwt>
<totfact> 0.11351180E+01</totfact>
</mgrwt>
</event>
<event>
 4    1  0.1726795E-008  0.8559229E+03  0.7818608E-02  0.9482422E-01
          2   -1    0    0  501    0  0.00000000000E+00  0.00000000000E+00  0.89728968392E+03  0.89728968392E+03  0.25500000000E-02 0. -1.
         -2   -1    0    0    0  501 -0.00000000000E+00 -0.00000000000E+00 -0.13454960198E+04  0.13454960198E+04  0.25500000000E-02 0.  1.
    8880022    1    1    2    0    0  0.79440453641E+03 -0.27952425183E+03 -0.92726918331E+03  0.12619160694E+04  0.15294330000E+03 0.  0.
    8880022    1    1    2    0    0 -0.79440453641E+03  0.27952425183E+03  0.47906284742E+03  0.98086963436E+03  0.15294330000E+03 0.  0.
<mgrwt>
<rscale>  0 0.85592291E+03</rscale>
<asrwt>0</asrwt>
<pdfrwt beam="1">  1        2 0.13804457E+00 0.85592291E+03</pdfrwt>
<pdfrwt beam="2">  1       -2 0.20699939E+00 0.85592291E+03</pdfrwt>
<totfact> 0.35593318E+00</totfact>
</mgrwt>
</event>
<event>
 4    1  0.1726795E-008  0.7736316E+03  0.7818608E-02  0.9598988E-01
          2   -1    0    0  501    0  0.00000000000E+00  0.00000000000E+00  0.33112792176E+04  0.33112792176E+04  0.25500000000E-02 0. -1.
         -2   -1    0    0    0  501 -0.00000000000E+00 -0.00000000000E+00 -0.40683359057E+03  0.40683359058E+03  0.25500000000E-02 0.  1.
    8880022    1    1    2    0    0 -0.47294080912E+03 -0.59282481971E+03  0.28380878720E+04  0.29416404774E+04  0.15294330000E+03 0.  0.
    8880022    1    1    2    0    0  0.47294080912E+03  0.59282481971E+03  0.66357754968E+02  0.77647233077E+03  0.15294330000E+03 0.  0.
<mgrwt>
<rscale>  0 0.77363165E+03</rscale>
<asrwt>0</asrwt>
<pdfrwt beam="1">  1        2 0.50942757E+00 0.77363165E+03</pdfrwt>
<pdfrwt beam="2">  1       -2 0.62589783E-01 0.77363165E+03</pdfrwt>
<totfact> 0.27823376E+00</totfact>
</mgrwt>
</event>
<event>
 4    1  0.2117638E-008  0.1458326E+04  0.7818608E-02  0.8912648E-01
          2   -1    0    0  501    0  0.00000000000E+00  0.00000000000E+00  0.21472394553E+04  0.21472394553E+04  0.25500000000E-02 0. -1.
         -2   -1    0    0    0  501 -0.00000000000E+00 -0.00000000000E+00 -0.24117017959E+04  0.24117017959E+04  0.25500000000E-02 0.  1.
    8880022    1    1    2    0    0  0.36838237146E+02 -0.14498160108E+04 -0.18821141256E+04  0.23809806290E+04  0.15294330000E+03 0.  0.
    8880022    1    1    2    0    0 -0.36838237146E+02  0.14498160108E+04  0.16176517851E+04  0.21779606221E+04  0.15294330000E+03 0.  0.
<mgrwt>
<rscale>  0 0.14583262E+04</rscale>
<asrwt>0</asrwt>
<pdfrwt beam="1">  1        2 0.33034453E+00 0.14583262E+04</pdfrwt>
<pdfrwt beam="2">  1       -2 0.37103105E+00 0.14583262E+04</pdfrwt>
<totfact> 0.59741235E-02</totfact>
</mgrwt>
</event>
<event>
 4    1  0.1726795E-008  0.8050142E+03  0.7818608E-02  0.9552787E-01
         -2   -1    0    0    0  501 -0.00000000000E+00  0.00000000000E+00  0.15984653224E+04  0.15984653224E+04  0.25500000000E-02 0.  1.
          2   -1    0    0  501    0  0.00000000000E+00 -0.00000000000E+00 -0.79840353415E+03  0.79840353415E+03  0.25500000000E-02 0. -1.
    8880022    1    1    2    0    0  0.57917855054E+03 -0.53778106761E+03 -0.44076557859E+03  0.91778113860E+03  0.15294330000E+03 0.  0.
    8880022    1    1    2    0    0 -0.57917855054E+03  0.53778106761E+03  0.12408273668E+04  0.14790877180E+04  0.15294330000E+03 0.  0.
<mgrwt>
<rscale>  0 0.80501424E+03</rscale>
<asrwt>0</asrwt>
<pdfrwt beam="1">  1        2 0.12283131E+00 0.80501424E+03</pdfrwt>
<pdfrwt beam="2">  1       -2 0.24591774E+00 0.80501424E+03</pdfrwt>
<totfact> 0.24043748E+00</totfact>
</mgrwt>
</event>
<event>
 4    1  0.1726795E-008  0.3693003E+03  0.7818608E-02  0.1054961E+00
         -2   -1    0    0    0  501 -0.00000000000E+00  0.00000000000E+00  0.36148971195E+03  0.36148971196E+03  0.25500000000E-02 0.  1.
          2   -1    0    0  501    0  0.00000000000E+00 -0.00000000000E+00 -0.63386945459E+03  0.63386945460E+03  0.25500000000E-02 0. -1.
    8880022    1    1    2    0    0  0.33583273721E+03  0.14402667506E+02  0.18045291494E+03  0.41103037812E+03  0.15294330000E+03 0.  0.
    8880022    1    1    2    0    0 -0.33583273721E+03 -0.14402667506E+02 -0.45283265758E+03  0.58432878844E+03  0.15294330000E+03 0.  0.
<mgrwt>
<rscale>  0 0.36930031E+03</rscale>
<asrwt>0</asrwt>
<pdfrwt beam="1">  1        2 0.97518378E-01 0.36930031E+03</pdfrwt>
<pdfrwt beam="2">  1       -2 0.55613802E-01 0.36930031E+03</pdfrwt>
<totfact> 0.14627923E+02</totfact>
</mgrwt>
</event>
<event>
 4    1  0.1726795E-008  0.7591707E+03  0.7818608E-02  0.9621072E-01
          2   -1    0    0  501    0  0.00000000000E+00  0.00000000000E+00  0.15402181530E+04  0.15402181530E+04  0.25500000000E-02 0. -1.
         -2   -1    0    0    0  501 -0.00000000000E+00 -0.00000000000E+00 -0.76256724530E+03  0.76256724531E+03  0.25500000000E-02 0.  1.
    8880022    1    1    2    0    0 -0.25270930919E+02  0.74317554024E+03 -0.43286669081E+03  0.87390716246E+03  0.15294330000E+03 0.  0.
    8880022    1    1    2    0    0  0.25270930919E+02 -0.74317554024E+03  0.12105175985E+04  0.14288782358E+04  0.15294330000E+03 0.  0.
<mgrwt>
<rscale>  0 0.75917070E+03</rscale>
<asrwt>0</asrwt>
<pdfrwt beam="1">  1        2 0.23695664E+00 0.75917070E+03</pdfrwt>
<pdfrwt beam="2">  1       -2 0.11731804E+00 0.75917070E+03</pdfrwt>
<totfact> 0.69306140E+00</totfact>
</mgrwt>
</event>
<event>
 4    1  0.1726795E-008  0.8169661E+03  0.7818608E-02  0.9535779E-01
          2   -1    0    0  501    0  0.00000000000E+00  0.00000000000E+00  0.86953097038E+03  0.86953097038E+03  0.25500000000E-02 0. -1.
         -2   -1    0    0    0  501 -0.00000000000E+00 -0.00000000000E+00 -0.19014223350E+04  0.19014223350E+04  0.25500000000E-02 0.  1.
    8880022    1    1    2    0    0  0.35121136778E+02 -0.80175335713E+03 -0.15858291294E+04  0.17838967517E+04  0.15294330000E+03 0.  0.
    8880022    1    1    2    0    0 -0.35121136778E+02  0.80175335713E+03  0.55393776480E+03  0.98705655371E+03  0.15294330000E+03 0.  0.
<mgrwt>
<rscale>  0 0.81696609E+03</rscale>
<asrwt>0</asrwt>
<pdfrwt beam="1">  1        2 0.13377400E+00 0.81696609E+03</pdfrwt>
<pdfrwt beam="2">  1       -2 0.29252651E+00 0.81696609E+03</pdfrwt>
<totfact> 0.11198028E+00</totfact>
</mgrwt>
</event>
<event>
 4    1  0.1726795E-008  0.1255750E+04  0.7818608E-02  0.9065411E-01
         -2   -1    0    0    0  501 -0.00000000000E+00  0.00000000000E+00  0.93733851625E+03  0.93733851626E+03  0.25500000000E-02 0.  1.
          2   -1    0    0  501    0  0.00000000000E+00 -0.00000000000E+00 -0.23044131443E+04  0.23044131443E+04  0.25500000000E-02 0. -1.
    8880022    1    1    2    0    0  0.13135319309E+03  0.12394610493E+04  0.15862376996E+03  0.12657292394E+04  0.15294330000E+03 0.  0.
    8880022    1    1    2    0    0 -0.13135319309E+03 -0.12394610493E+04 -0.15256983980E+04  0.19760224211E+04  0.15294330000E+03 0.  0.
<mgrwt>
<rscale>  0 0.12557504E+04</rscale>
<asrwt>0</asrwt>
<pdfrwt beam="1">  1        2 0.35452510E+00 0.12557504E+04</pdfrwt>
<pdfrwt beam="2">  1       -2 0.14420593E+00 0.12557504E+04</pdfrwt>
<totfact> 0.14530771E+00</totfact>
</mgrwt>
</event>
<event>
 4    1  0.1726795E-008  0.1218508E+04  0.7818608E-02  0.9096809E-01
         -2   -1    0    0    0  501 -0.00000000000E+00  0.00000000000E+00  0.60122745232E+03  0.60122745233E+03  0.25500000000E-02 0.  1.
          2   -1    0    0  501    0  0.00000000000E+00 -0.00000000000E+00 -0.35237062566E+04  0.35237062566E+04  0.25500000000E-02 0. -1.
    8880022    1    1    2    0    0  0.10069426242E+04  0.66890681763E+03 -0.25893185296E+04  0.28617008719E+04  0.15294330000E+03 0.  0.
    8880022    1    1    2    0    0 -0.10069426242E+04 -0.66890681763E+03 -0.33316027467E+03  0.12632328371E+04  0.15294330000E+03 0.  0.
<mgrwt>
<rscale>  0 0.12185079E+04</rscale>
<asrwt>0</asrwt>
<pdfrwt beam="1">  1        2 0.54210864E+00 0.12185079E+04</pdfrwt>
<pdfrwt beam="2">  1       -2 0.92496533E-01 0.12185079E+04</pdfrwt>
<totfact> 0.77558449E-01</totfact>
</mgrwt>
</event>
<event>
 4    1  0.1726795E-008  0.7548135E+03  0.7818608E-02  0.9627829E-01
         -2   -1    0    0    0  501 -0.00000000000E+00  0.00000000000E+00  0.77090681933E+03  0.77090681933E+03  0.25500000000E-02 0.  1.
          2   -1    0    0  501    0  0.00000000000E+00 -0.00000000000E+00 -0.10905588169E+04  0.10905588170E+04  0.25500000000E-02 0. -1.
    8880022    1    1    2    0    0 -0.52736992593E+03  0.51791188719E+03  0.36857642640E+03  0.83999523617E+03  0.15294330000E+03 0.  0.
    8880022    1    1    2    0    0  0.52736992593E+03 -0.51791188719E+03 -0.68822842402E+03  0.10214704001E+04  0.15294330000E+03 0.  0.
<mgrwt>
<rscale>  0 0.75481350E+03</rscale>
<asrwt>0</asrwt>
<pdfrwt beam="1">  1        2 0.16777828E+00 0.75481350E+03</pdfrwt>
<pdfrwt beam="2">  1       -2 0.11860105E+00 0.75481350E+03</pdfrwt>
<totfact> 0.12283550E+01</totfact>
</mgrwt>
</event>
<event>
 4    1  0.1726795E-008  0.2180851E+04  0.7818608E-02  0.8526441E-01
          2   -1    0    0  501    0  0.00000000000E+00  0.00000000000E+00  0.31184186936E+04  0.31184186936E+04  0.25500000000E-02 0. -1.
         -2   -1    0    0    0  501 -0.00000000000E+00 -0.00000000000E+00 -0.16069628786E+04  0.16069628786E+04  0.25500000000E-02 0.  1.
    8880022    1    1    2    0    0  0.36660277492E+03 -0.21443698871E+04  0.12887777548E+04  0.25331915762E+04  0.15294330000E+03 0.  0.
    8880022    1    1    2    0    0 -0.36660277492E+03  0.21443698871E+04  0.22267806009E+03  0.21921899960E+04  0.15294330000E+03 0.  0.
<mgrwt>
<rscale>  0 0.21808511E+04</rscale>
<asrwt>0</asrwt>
<pdfrwt beam="1">  1        2 0.47975672E+00 0.21808511E+04</pdfrwt>
<pdfrwt beam="2">  1       -2 0.24722506E+00 0.21808511E+04</pdfrwt>
<totfact> 0.85444030E-02</totfact>
</mgrwt>
</event>
<event>
 4    1  0.1726795E-008  0.8870905E+03  0.7818608E-02  0.9441864E-01
         -2   -1    0    0    0  501 -0.00000000000E+00  0.00000000000E+00  0.32432474253E+03  0.32432474254E+03  0.25500000000E-02 0.  1.
          2   -1    0    0  501    0  0.00000000000E+00 -0.00000000000E+00 -0.30631160770E+04  0.30631160770E+04  0.25500000000E-02 0. -1.
    8880022    1    1    2    0    0 -0.85485028921E+03 -0.18102180236E+03 -0.21416236088E+04  0.23180770575E+04  0.15294330000E+03 0.  0.
    8880022    1    1    2    0    0  0.85485028921E+03  0.18102180236E+03 -0.59716772571E+03  0.10693637620E+04  0.15294330000E+03 0.  0.
<mgrwt>
<rscale>  0 0.88709050E+03</rscale>
<asrwt>0</asrwt>
<pdfrwt beam="1">  1        2 0.47124861E+00 0.88709050E+03</pdfrwt>
<pdfrwt beam="2">  1       -2 0.49896117E-01 0.88709050E+03</pdfrwt>
<totfact> 0.62913126E+00</totfact>
</mgrwt>
</event>
<event>
 4    1  0.1726795E-008  0.8799011E+03  0.7818608E-02  0.9451061E-01
          2   -1    0    0  501    0  0.00000000000E+00  0.00000000000E+00  0.10999511517E+04  0.10999511517E+04  0.25500000000E-02 0. -1.
         -2   -1    0    0    0  501 -0.00000000000E+00 -0.00000000000E+00 -0.11373232713E+04  0.11373232713E+04  0.25500000000E-02 0.  1.
    8880022    1    1    2    0    0  0.12535120511E+03 -0.85739220854E+03 -0.70927069506E+03  0.11301729495E+04  0.15294330000E+03 0.  0.
    8880022    1    1    2    0    0 -0.12535120511E+03  0.85739220854E+03  0.67189857547E+03  0.11071014735E+04  0.15294330000E+03 0.  0.
<mgrwt>
<rscale>  0 0.87990112E+03</rscale>
<asrwt>0</asrwt>
<pdfrwt beam="1">  1        2 0.16922325E+00 0.87990112E+03</pdfrwt>
<pdfrwt beam="2">  1       -2 0.17497281E+00 0.87990112E+03</pdfrwt>
<totfact> 0.43031387E+00</totfact>
</mgrwt>
</event>
<event>
 4    1  0.1726795E-008  0.5958227E+03  0.7818608E-02  0.9914111E-01
          2   -1    0    0  501    0  0.00000000000E+00  0.00000000000E+00  0.14338317977E+04  0.14338317977E+04  0.25500000000E-02 0. -1.
         -2   -1    0    0    0  501 -0.00000000000E+00 -0.00000000000E+00 -0.36359423891E+03  0.36359423892E+03  0.25500000000E-02 0.  1.
    8880022    1    1    2    0    0  0.15825452034E+03  0.55368632077E+03  0.10427478650E+04  0.12009695242E+04  0.15294330000E+03 0.  0.
    8880022    1    1    2    0    0 -0.15825452034E+03 -0.55368632077E+03  0.27489693838E+02  0.59645651250E+03  0.15294330000E+03 0.  0.
<mgrwt>
<rscale>  0 0.59582270E+03</rscale>
<asrwt>0</asrwt>
<pdfrwt beam="1">  1        2 0.22058951E+00 0.59582270E+03</pdfrwt>
<pdfrwt beam="2">  1       -2 0.55937574E-01 0.59582270E+03</pdfrwt>
<totfact> 0.43205755E+01</totfact>
</mgrwt>
</event>
<event>
 4    1  0.1726795E-008  0.1572742E+04  0.7818608E-02  0.8837471E-01
          2   -1    0    0  501    0  0.00000000000E+00  0.00000000000E+00  0.30084975029E+04  0.30084975029E+04  0.25500000000E-02 0. -1.
         -2   -1    0    0    0  501 -0.00000000000E+00 -0.00000000000E+00 -0.14856658365E+04  0.14856658365E+04  0.25500000000E-02 0.  1.
    8880022    1    1    2    0    0 -0.14583347997E+04  0.56867031764E+03  0.22630876920E+04  0.27559179728E+04  0.15294330000E+03 0.  0.
    8880022    1    1    2    0    0  0.14583347997E+04 -0.56867031764E+03 -0.74025602560E+03  0.17382453667E+04  0.15294330000E+03 0.  0.
<mgrwt>
<rscale>  0 0.15727422E+04</rscale>
<asrwt>0</asrwt>
<pdfrwt beam="1">  1        2 0.46284577E+00 0.15727422E+04</pdfrwt>
<pdfrwt beam="2">  1       -2 0.22856397E+00 0.15727422E+04</pdfrwt>
<totfact> 0.14000356E-01</totfact>
</mgrwt>
</event>
<event>
 4    1  0.1726795E-008  0.7511409E+03  0.7818608E-02  0.9633562E-01
          2   -1    0    0  501    0  0.00000000000E+00  0.00000000000E+00  0.27531787455E+04  0.27531787455E+04  0.25500000000E-02 0. -1.
         -2   -1    0    0    0  501 -0.00000000000E+00 -0.00000000000E+00 -0.39086494328E+03  0.39086494329E+03  0.25500000000E-02 0.  1.
    8880022    1    1    2    0    0  0.70590033833E+03  0.20621745762E+03  0.96920030920E+02  0.75736785837E+03  0.15294330000E+03 0.  0.
    8880022    1    1    2    0    0 -0.70590033833E+03 -0.20621745762E+03  0.22653937713E+04  0.23866758305E+04  0.15294330000E+03 0. -1.
<mgrwt>
<rscale>  0 0.75114085E+03</rscale>
<asrwt>0</asrwt>
<pdfrwt beam="1">  1        2 0.42356596E+00 0.75114085E+03</pdfrwt>
<pdfrwt beam="2">  1       -2 0.60133068E-01 0.75114085E+03</pdfrwt>
<totfact> 0.67236924E+00</totfact>
</mgrwt>
</event>
<event>
 4    1  0.1726795E-008  0.7485475E+03  0.7818608E-02  0.9637632E-01
          2   -1    0    0  501    0  0.00000000000E+00  0.00000000000E+00  0.31384593031E+03  0.31384593032E+03  0.25500000000E-02 0. -1.
         -2   -1    0    0    0  501 -0.00000000000E+00 -0.00000000000E+00 -0.20818022607E+04  0.20818022607E+04  0.25500000000E-02 0.  1.
    8880022    1    1    2    0    0 -0.67315448315E+03  0.28947325632E+03 -0.43196187686E+03  0.86424211907E+03  0.15294330000E+03 0.  0.
    8880022    1    1    2    0    0  0.67315448315E+03 -0.28947325632E+03 -0.13359944535E+04  0.15314060719E+04  0.15294330000E+03 0.  0.
<mgrwt>
<rscale>  0 0.74854751E+03</rscale>
<asrwt>0</asrwt>
<pdfrwt beam="1">  1        2 0.48283991E-01 0.74854751E+03</pdfrwt>
<pdfrwt beam="2">  1       -2 0.32027726E+00 0.74854751E+03</pdfrwt>
<totfact> 0.26023437E+00</totfact>
</mgrwt>
</event>
<event>
 4    1  0.1726795E-008  0.5998902E+03  0.7818608E-02  0.9905634E-01
          2   -1    0    0  501    0  0.00000000000E+00  0.00000000000E+00  0.20123441301E+04  0.20123441301E+04  0.25500000000E-02 0. -1.
         -2   -1    0    0    0  501 -0.00000000000E+00 -0.00000000000E+00 -0.37372404138E+03  0.37372404139E+03  0.25500000000E-02 0.  1.
    8880022    1    1    2    0    0 -0.49155895269E+03 -0.30797147395E+03  0.16808515001E+04  0.17846932653E+04  0.15294330000E+03 0.  0.
    8880022    1    1    2    0    0  0.49155895269E+03  0.30797147395E+03 -0.42231411357E+02  0.60137490624E+03  0.15294330000E+03 0.  0.
<mgrwt>
<rscale>  0 0.59989023E+03</rscale>
<asrwt>0</asrwt>
<pdfrwt beam="1">  1        2 0.30959141E+00 0.59989023E+03</pdfrwt>
<pdfrwt beam="2">  1       -2 0.57496006E-01 0.59989023E+03</pdfrwt>
<totfact> 0.19731841E+01</totfact>
</mgrwt>
</event>
<event>
 4    1  0.1726795E-008  0.1142189E+04  0.7818608E-02  0.9165020E-01
         -2   -1    0    0    0  501 -0.00000000000E+00  0.00000000000E+00  0.11973250290E+04  0.11973250290E+04  0.25500000000E-02 0.  1.
          2   -1    0    0  501    0  0.00000000000E+00 -0.00000000000E+00 -0.16219071211E+04  0.16219071211E+04  0.25500000000E-02 0. -1.
    8880022    1    1    2    0    0  0.70244877422E+03 -0.88756400182E+03  0.59526421142E+03  0.12879966119E+04  0.15294330000E+03 0.  0.
    8880022    1    1    2    0    0 -0.70244877422E+03  0.88756400182E+03 -0.10198463035E+04  0.15312355382E+04  0.15294330000E+03 0.  0.
<mgrwt>
<rscale>  0 0.11421890E+04</rscale>
<asrwt>0</asrwt>
<pdfrwt beam="1">  1        2 0.24952417E+00 0.11421890E+04</pdfrwt>
<pdfrwt beam="2">  1       -2 0.18420385E+00 0.11421890E+04</pdfrwt>
<totfact> 0.17963336E+00</totfact>
</mgrwt>
</event>
<event>
 4    1  0.1726795E-008  0.1225291E+04  0.7818608E-02  0.9091003E-01
         -2   -1    0    0    0  501 -0.00000000000E+00  0.00000000000E+00  0.72308681398E+03  0.72308681399E+03  0.25500000000E-02 0.  1.
          2   -1    0    0  501    0  0.00000000000E+00 -0.00000000000E+00 -0.31103856669E+04  0.31103856669E+04  0.25500000000E-02 0. -1.
    8880022    1    1    2    0    0  0.71553996490E+03 -0.98282727064E+03 -0.88463328767E+02  0.12284804837E+04  0.15294330000E+03 0.  0.
    8880022    1    1    2    0    0 -0.71553996490E+03  0.98282727064E+03 -0.22988355241E+04  0.26049919972E+04  0.15294330000E+03 0.  0.
<mgrwt>
<rscale>  0 0.12252912E+04</rscale>
<asrwt>0</asrwt>
<pdfrwt beam="1">  1        2 0.47852086E+00 0.12252912E+04</pdfrwt>
<pdfrwt beam="2">  1       -2 0.11124413E+00 0.12252912E+04</pdfrwt>
<totfact> 0.93567421E-01</totfact>
</mgrwt>
</event>
<event>
 4    1  0.1726795E-008  0.7882052E+03  0.7818608E-02  0.9577248E-01
          2   -1    0    0  501    0  0.00000000000E+00  0.00000000000E+00  0.12975111152E+04  0.12975111152E+04  0.25500000000E-02 0. -1.
         -2   -1    0    0    0  501 -0.00000000000E+00 -0.00000000000E+00 -0.16825760532E+04  0.16825760532E+04  0.25500000000E-02 0.  1.
    8880022    1    1    2    0    0 -0.75390320803E+03 -0.17177215817E+03 -0.14528553504E+04  0.16528932342E+04  0.15294330000E+03 0.  0.
    8880022    1    1    2    0    0  0.75390320803E+03  0.17177215817E+03  0.10677904124E+04  0.13271939343E+04  0.15294330000E+03 0.  0.
<mgrwt>
<rscale>  0 0.78820516E+03</rscale>
<asrwt>0</asrwt>
<pdfrwt beam="1">  1        2 0.19961709E+00 0.78820516E+03</pdfrwt>
<pdfrwt beam="2">  1       -2 0.25885786E+00 0.78820516E+03</pdfrwt>
<totfact> 0.97164446E-01</totfact>
</mgrwt>
</event>
<event>
 4    1  0.1726795E-008  0.3262483E+03  0.7818608E-02  0.1072809E+00
         -2   -1    0    0    0  501 -0.00000000000E+00  0.00000000000E+00  0.11565075872E+04  0.11565075873E+04  0.25500000000E-02 0.  1.
          2   -1    0    0  501    0  0.00000000000E+00 -0.00000000000E+00 -0.31631956442E+03  0.31631956443E+03  0.25500000000E-02 0. -1.
    8880022    1    1    2    0    0 -0.27116709952E+03 -0.97543194708E+02  0.10401908259E+04  0.10901536029E+04  0.15294330000E+03 0.  1.
    8880022    1    1    2    0    0  0.27116709952E+03  0.97543194708E+02 -0.20000280304E+03  0.38267354878E+03  0.15294330000E+03 0.  0.
<mgrwt>
<rscale>  0 0.32624825E+03</rscale>
<asrwt>0</asrwt>
<pdfrwt beam="1">  1        2 0.48664548E-01 0.32624825E+03</pdfrwt>
<pdfrwt beam="2">  1       -2 0.17792425E+00 0.32624825E+03</pdfrwt>
<totfact> 0.20706975E+01</totfact>
</mgrwt>
</event>
<event>
 4    1  0.1726795E-008  0.3470230E+03  0.7818608E-02  0.1063844E+00
          2   -1    0    0  501    0  0.00000000000E+00  0.00000000000E+00  0.61607254625E+03  0.61607254626E+03  0.25500000000E-02 0. -1.
         -2   -1    0    0    0  501 -0.00000000000E+00 -0.00000000000E+00 -0.39736660494E+03  0.39736660495E+03  0.25500000000E-02 0.  1.
    8880022    1    1    2    0    0 -0.13066486301E+03 -0.28277201957E+03 -0.25183583642E+03  0.42877297373E+03  0.15294330000E+03 0.  1.
    8880022    1    1    2    0    0  0.13066486301E+03  0.28277201957E+03  0.47054177773E+03  0.58466617748E+03  0.15294330000E+03 0.  0.
<mgrwt>
<rscale>  0 0.34702302E+03</rscale>
<asrwt>0</asrwt>
<pdfrwt beam="1">  1        2 0.94780391E-01 0.34702302E+03</pdfrwt>
<pdfrwt beam="2">  1       -2 0.61133324E-01 0.34702302E+03</pdfrwt>
<totfact> 0.12462963E+02</totfact>
</mgrwt>
</event>
<event>
 4    1  0.1726795E-008  0.3550704E+03  0.7818608E-02  0.1060553E+00
          2   -1    0    0  501    0  0.00000000000E+00  0.00000000000E+00  0.31448389148E+03  0.31448389149E+03  0.25500000000E-02 0. -1.
         -2   -1    0    0    0  501 -0.00000000000E+00 -0.00000000000E+00 -0.66724016346E+03  0.66724016346E+03  0.25500000000E-02 0.  1.
    8880022    1    1    2    0    0  0.32044036192E+03 -0.11369130553E+01 -0.48650606580E+03  0.60229820122E+03  0.15294330000E+03 0.  0.
    8880022    1    1    2    0    0 -0.32044036192E+03  0.11369130553E+01  0.13374979382E+03  0.37942585373E+03  0.15294330000E+03 0.  0.
<mgrwt>
<rscale>  0 0.35507037E+03</rscale>
<asrwt>0</asrwt>
<pdfrwt beam="1">  1        2 0.48382137E-01 0.35507037E+03</pdfrwt>
<pdfrwt beam="2">  1       -2 0.10265233E+00 0.35507037E+03</pdfrwt>
<totfact> 0.83814649E+01</totfact>
</mgrwt>
</event>
<event>
 4    1  0.1726795E-008  0.1070315E+04  0.7818608E-02  0.9234618E-01
          2   -1    0    0  501    0  0.00000000000E+00  0.00000000000E+00  0.34577673269E+04  0.34577673269E+04  0.25500000000E-02 0. -1.
         -2   -1    0    0    0  501 -0.00000000000E+00 -0.00000000000E+00 -0.62296685927E+03  0.62296685928E+03  0.25500000000E-02 0.  1.
    8880022    1    1    2    0    0  0.10259475514E+04 -0.26384550539E+03  0.21302248109E+02  0.10705270981E+04  0.15294330000E+03 0.  0.
    8880022    1    1    2    0    0 -0.10259475514E+04  0.26384550539E+03  0.28134982195E+04  0.30102070881E+04  0.15294330000E+03 0.  0.
<mgrwt>
<rscale>  0 0.10703151E+04</rscale>
<asrwt>0</asrwt>
<pdfrwt beam="1">  1        2 0.53196419E+00 0.10703151E+04</pdfrwt>
<pdfrwt beam="2">  1       -2 0.95841058E-01 0.10703151E+04</pdfrwt>
<totfact> 0.81034732E-01</totfact>
</mgrwt>
</event>
<event>
 4    1  0.1726795E-008  0.5358475E+03  0.7818608E-02  0.1004824E+00
         -2   -1    0    0    0  501 -0.00000000000E+00  0.00000000000E+00  0.73761875807E+03  0.73761875808E+03  0.25500000000E-02 0.  1.
          2   -1    0    0  501    0  0.00000000000E+00 -0.00000000000E+00 -0.49285906986E+03  0.49285906987E+03  0.25500000000E-02 0. -1.
    8880022    1    1    2    0    0  0.77817112465E+02  0.50762718273E+03 -0.15967941256E+03  0.55913328237E+03  0.15294330000E+03 0.  0.
    8880022    1    1    2    0    0 -0.77817112465E+02 -0.50762718273E+03  0.40443910076E+03  0.67134454558E+03  0.15294330000E+03 0.  0.
<mgrwt>
<rscale>  0 0.53584747E+03</rscale>
<asrwt>0</asrwt>
<pdfrwt beam="1">  1        2 0.75824473E-01 0.53584747E+03</pdfrwt>
<pdfrwt beam="2">  1       -2 0.11347981E+00 0.53584747E+03</pdfrwt>
<totfact> 0.39299503E+01</totfact>
</mgrwt>
</event>
<event>
 4    1  0.1726795E-008  0.1461976E+04  0.7818608E-02  0.8910140E-01
          2   -1    0    0  501    0  0.00000000000E+00  0.00000000000E+00  0.17019189776E+04  0.17019189776E+04  0.25500000000E-02 0. -1.
         -2   -1    0    0    0  501 -0.00000000000E+00 -0.00000000000E+00 -0.13801881879E+04  0.13801881879E+04  0.25500000000E-02 0.  1.
    8880022    1    1    2    0    0 -0.11776122651E+04  0.85276703942E+03 -0.30165552520E+03  0.14927725812E+04  0.15294330000E+03 0.  0.
    8880022    1    1    2    0    0  0.11776122651E+04 -0.85276703942E+03  0.62338631489E+03  0.15893345843E+04  0.15294330000E+03 0.  0.
<mgrwt>
<rscale>  0 0.14619760E+04</rscale>
<asrwt>0</asrwt>
<pdfrwt beam="1">  1        2 0.26183369E+00 0.14619760E+04</pdfrwt>
<pdfrwt beam="2">  1       -2 0.21233665E+00 0.14619760E+04</pdfrwt>
<totfact> 0.10208730E+00</totfact>
</mgrwt>
</event>
<event>
 4    1  0.1726795E-008  0.8753657E+03  0.7818608E-02  0.9456910E-01
         -2   -1    0    0    0  501 -0.00000000000E+00  0.00000000000E+00  0.46118267990E+03  0.46118267991E+03  0.25500000000E-02 0.  1.
          2   -1    0    0  501    0  0.00000000000E+00 -0.00000000000E+00 -0.17885830216E+04  0.17885830216E+04  0.25500000000E-02 0. -1.
    8880022    1    1    2    0    0  0.75237591395E+03  0.42048057529E+03 -0.36388111481E+03  0.94798446655E+03  0.15294330000E+03 0.  0.
    8880022    1    1    2    0    0 -0.75237591395E+03 -0.42048057529E+03 -0.96351922685E+03  0.13017812349E+04  0.15294330000E+03 0.  0.
<mgrwt>
<rscale>  0 0.87536569E+03</rscale>
<asrwt>0</asrwt>
<pdfrwt beam="1">  1        2 0.27516662E+00 0.87536569E+03</pdfrwt>
<pdfrwt beam="2">  1       -2 0.70951182E-01 0.87536569E+03</pdfrwt>
<totfact> 0.16021091E+01</totfact>
</mgrwt>
</event>
<event>
 4    1  0.1726795E-008  0.3304222E+03  0.7818608E-02  0.1070950E+00
         -2   -1    0    0    0  501 -0.00000000000E+00  0.00000000000E+00  0.16572375760E+03  0.16572375762E+03  0.25500000000E-02 0.  1.
          2   -1    0    0  501    0  0.00000000000E+00 -0.00000000000E+00 -0.12614793794E+04  0.12614793794E+04  0.25500000000E-02 0. -1.
    8880022    1    1    2    0    0  0.20004405872E+03 -0.21393817619E+03 -0.54637160027E+02  0.33490900396E+03  0.15294330000E+03 0.  0.
    8880022    1    1    2    0    0 -0.20004405872E+03  0.21393817619E+03 -0.10411184618E+04  0.10922941331E+04  0.15294330000E+03 0.  0.
<mgrwt>
<rscale>  0 0.33042219E+03</rscale>
<asrwt>0</asrwt>
<pdfrwt beam="1">  1        2 0.19407374E+00 0.33042219E+03</pdfrwt>
<pdfrwt beam="2">  1       -2 0.25495964E-01 0.33042219E+03</pdfrwt>
<totfact> 0.25297916E+02</totfact>
</mgrwt>
</event>
<event>
 4    1  0.1726795E-008  0.1292791E+04  0.7818608E-02  0.9035302E-01
          2   -1    0    0  501    0  0.00000000000E+00  0.00000000000E+00  0.32307093896E+04  0.32307093896E+04  0.25500000000E-02 0. -1.
         -2   -1    0    0    0  501 -0.00000000000E+00 -0.00000000000E+00 -0.75227710176E+03  0.75227710176E+03  0.25500000000E-02 0.  1.
    8880022    1    1    2    0    0  0.18187124692E+03 -0.12707632962E+04  0.12624245442E+03  0.12989400739E+04  0.15294330000E+03 0.  0.
    8880022    1    1    2    0    0 -0.18187124692E+03  0.12707632962E+04  0.23521898334E+04  0.26840464174E+04  0.15294330000E+03 0.  0.
<mgrwt>
<rscale>  0 0.12927908E+04</rscale>
<asrwt>0</asrwt>
<pdfrwt beam="1">  1        2 0.49703223E+00 0.12927908E+04</pdfrwt>
<pdfrwt beam="2">  1       -2 0.11573493E+00 0.12927908E+04</pdfrwt>
<totfact> 0.70438695E-01</totfact>
</mgrwt>
</event>
<event>
 4    1  0.1726795E-008  0.1088297E+04  0.7818608E-02  0.9216674E-01
          2   -1    0    0  501    0  0.00000000000E+00  0.00000000000E+00  0.13994039244E+04  0.13994039244E+04  0.25500000000E-02 0. -1.
         -2   -1    0    0    0  501 -0.00000000000E+00 -0.00000000000E+00 -0.99410039337E+03  0.99410039337E+03  0.25500000000E-02 0.  1.
    8880022    1    1    2    0    0  0.98662852162E+03  0.43308493546E+03  0.66402101891E+03  0.12748780207E+04  0.15294330000E+03 0.  0.
    8880022    1    1    2    0    0 -0.98662852162E+03 -0.43308493546E+03 -0.25871748789E+03  0.11186262971E+04  0.15294330000E+03 0.  0.
<mgrwt>
<rscale>  0 0.10882969E+04</rscale>
<asrwt>0</asrwt>
<pdfrwt beam="1">  1        2 0.21529291E+00 0.10882969E+04</pdfrwt>
<pdfrwt beam="2">  1       -2 0.15293852E+00 0.10882969E+04</pdfrwt>
<totfact> 0.40492530E+00</totfact>
</mgrwt>
</event>
<event>
 4    1  0.1726795E-008  0.8782206E+03  0.7818608E-02  0.9453224E-01
         -2   -1    0    0    0  501 -0.00000000000E+00  0.00000000000E+00  0.17443890790E+04  0.17443890790E+04  0.25500000000E-02 0.  1.
          2   -1    0    0  501    0  0.00000000000E+00 -0.00000000000E+00 -0.87273412288E+03  0.87273412288E+03  0.25500000000E-02 0. -1.
    8880022    1    1    2    0    0  0.84943654689E+03  0.16228753355E+03  0.13549749007E+04  0.16146914025E+04  0.15294330000E+03 0.  0.
    8880022    1    1    2    0    0 -0.84943654689E+03 -0.16228753355E+03 -0.48331994453E+03  0.10024317994E+04  0.15294330000E+03 0.  0.
<mgrwt>
<rscale>  0 0.87822056E+03</rscale>
<asrwt>0</asrwt>
<pdfrwt beam="1">  1        2 0.13426679E+00 0.87822056E+03</pdfrwt>
<pdfrwt beam="2">  1       -2 0.26836755E+00 0.87822056E+03</pdfrwt>
<totfact> 0.15423515E+00</totfact>
</mgrwt>
</event>
<event>
 4    1  0.1726795E-008  0.6805469E+03  0.7818608E-02  0.9751090E-01
         -2   -1    0    0    0  501 -0.00000000000E+00  0.00000000000E+00  0.16224066669E+04  0.16224066669E+04  0.25500000000E-02 0.  1.
          2   -1    0    0  501    0  0.00000000000E+00 -0.00000000000E+00 -0.18597082000E+04  0.18597082000E+04  0.25500000000E-02 0. -1.
    8880022    1    1    2    0    0  0.66295248229E+03 -0.15700400472E+02 -0.17205171303E+04  0.18502225123E+04  0.15294330000E+03 0.  0.
    8880022    1    1    2    0    0 -0.66295248229E+03  0.15700400472E+02  0.14832155972E+04  0.16318923547E+04  0.15294330000E+03 0.  0.
<mgrwt>
<rscale>  0 0.68054695E+03</rscale>
<asrwt>0</asrwt>
<pdfrwt beam="1">  1        2 0.28610895E+00 0.68054695E+03</pdfrwt>
<pdfrwt beam="2">  1       -2 0.24960103E+00 0.68054695E+03</pdfrwt>
<totfact> 0.55151385E-01</totfact>
</mgrwt>
</event>
<event>
 4    1  0.1726795E-008  0.4514036E+03  0.7818608E-02  0.1027304E+00
         -2   -1    0    0    0  501 -0.00000000000E+00  0.00000000000E+00  0.76536392763E+03  0.76536392764E+03  0.25500000000E-02 0.  1.
          2   -1    0    0  501    0  0.00000000000E+00 -0.00000000000E+00 -0.45634970539E+03  0.45634970540E+03  0.25500000000E-02 0. -1.
    8880022    1    1    2    0    0  0.31313454834E+03  0.28691519879E+03  0.54878328653E+03  0.71058308821E+03  0.15294330000E+03 0.  0.
    8880022    1    1    2    0    0 -0.31313454834E+03 -0.28691519879E+03 -0.23976906429E+03  0.51113054483E+03  0.15294330000E+03 0.  0.
<mgrwt>
<rscale>  0 0.45140362E+03</rscale>
<asrwt>0</asrwt>
<pdfrwt beam="1">  1        2 0.70207647E-01 0.45140362E+03</pdfrwt>
<pdfrwt beam="2">  1       -2 0.11774830E+00 0.45140362E+03</pdfrwt>
<totfact> 0.39570551E+01</totfact>
</mgrwt>
</event>
<event>
 4    1  0.1726795E-008  0.1380727E+04  0.7818608E-02  0.8967889E-01
         -2   -1    0    0    0  501 -0.00000000000E+00  0.00000000000E+00  0.12252034051E+04  0.12252034051E+04  0.25500000000E-02 0.  1.
          2   -1    0    0  501    0  0.00000000000E+00 -0.00000000000E+00 -0.16424248075E+04  0.16424248075E+04  0.25500000000E-02 0. -1.
    8880022    1    1    2    0    0  0.57095242216E+03 -0.12478094396E+04  0.12030860487E+03  0.13859584695E+04  0.15294330000E+03 0.  0.
    8880022    1    1    2    0    0 -0.57095242216E+03  0.12478094396E+04 -0.53753000720E+03  0.14816697431E+04  0.15294330000E+03 0.  0.
<mgrwt>
<rscale>  0 0.13807269E+04</rscale>
<asrwt>0</asrwt>
<pdfrwt beam="1">  1        2 0.25268074E+00 0.13807269E+04</pdfrwt>
<pdfrwt beam="2">  1       -2 0.18849283E+00 0.13807269E+04</pdfrwt>
<totfact> 0.15955580E+00</totfact>
</mgrwt>
</event>
<event>
 4    1  0.1726795E-008  0.8857772E+03  0.7818608E-02  0.9443537E-01
         -2   -1    0    0    0  501 -0.00000000000E+00  0.00000000000E+00  0.48583953807E+03  0.48583953807E+03  0.25500000000E-02 0.  1.
          2   -1    0    0  501    0  0.00000000000E+00 -0.00000000000E+00 -0.17985908402E+04  0.17985908402E+04  0.25500000000E-02 0. -1.
    8880022    1    1    2    0    0  0.12315410623E+03 -0.86373764239E+03 -0.29138715176E+03  0.93247400714E+03  0.15294330000E+03 0.  0.
    8880022    1    1    2    0    0 -0.12315410623E+03  0.86373764239E+03 -0.10213641504E+04  0.13519563711E+04  0.15294330000E+03 0.  0.
<mgrwt>
<rscale>  0 0.88577723E+03</rscale>
<asrwt>0</asrwt>
<pdfrwt beam="1">  1        2 0.27670628E+00 0.88577723E+03</pdfrwt>
<pdfrwt beam="2">  1       -2 0.74744545E-01 0.88577723E+03</pdfrwt>
<totfact> 0.14085035E+01</totfact>
</mgrwt>
</event>
<event>
 4    1  0.1726795E-008  0.3897227E+03  0.7818608E-02  0.1047398E+00
          2   -1    0    0  501    0  0.00000000000E+00  0.00000000000E+00  0.68695669126E+03  0.68695669127E+03  0.25500000000E-02 0. -1.
         -2   -1    0    0    0  501 -0.00000000000E+00 -0.00000000000E+00 -0.67471484857E+03  0.67471484858E+03  0.25500000000E-02 0.  1.
    8880022    1    1    2    0    0  0.24888220268E+03 -0.25797251138E+03 -0.55212745354E+03  0.67581694667E+03  0.15294330000E+03 0.  0.
    8880022    1    1    2    0    0 -0.24888220268E+03  0.25797251138E+03  0.56436929623E+03  0.68585459317E+03  0.15294330000E+03 0.  0.
<mgrwt>
<rscale>  0 0.38972275E+03</rscale>
<asrwt>0</asrwt>
<pdfrwt beam="1">  1        2 0.10568564E+00 0.38972275E+03</pdfrwt>
<pdfrwt beam="2">  1       -2 0.10380228E+00 0.38972275E+03</pdfrwt>
<totfact> 0.33459981E+01</totfact>
</mgrwt>
</event>
<event>
 4    1  0.1726795E-008  0.9548640E+03  0.7818608E-02  0.9359483E-01
         -2   -1    0    0    0  501 -0.00000000000E+00  0.00000000000E+00  0.28671325900E+03  0.28671325901E+03  0.25500000000E-02 0.  1.
          2   -1    0    0  501    0  0.00000000000E+00 -0.00000000000E+00 -0.32753139947E+04  0.32753139947E+04  0.25500000000E-02 0. -1.
    8880022    1    1    2    0    0 -0.74422202826E+03 -0.57836595473E+03 -0.17980272510E+04  0.20358455868E+04  0.15294330000E+03 0.  0.
    8880022    1    1    2    0    0  0.74422202826E+03  0.57836595473E+03 -0.11905734847E+04  0.15261816669E+04  0.15294330000E+03 0.  0.
<mgrwt>
<rscale>  0 0.95486400E+03</rscale>
<asrwt>0</asrwt>
<pdfrwt beam="1">  1        2 0.50389443E+00 0.95486400E+03</pdfrwt>
<pdfrwt beam="2">  1       -2 0.44109735E-01 0.95486400E+03</pdfrwt>
<totfact> 0.58494668E+00</totfact>
</mgrwt>
</event>
<event>
 4    1  0.1726795E-008  0.9118263E+03  0.7818608E-02  0.9410918E-01
         -2   -1    0    0    0  501 -0.00000000000E+00  0.00000000000E+00  0.39883211026E+03  0.39883211027E+03  0.25500000000E-02 0.  1.
          2   -1    0    0  501    0  0.00000000000E+00 -0.00000000000E+00 -0.35963716277E+04  0.35963716277E+04  0.25500000000E-02 0. -1.
    8880022    1    1    2    0    0  0.31294693600E+03  0.84267417655E+03 -0.30364411578E+03  0.96105512571E+03  0.15294330000E+03 0.  0.
    8880022    1    1    2    0    0 -0.31294693600E+03 -0.84267417655E+03 -0.28938954016E+04  0.30341486122E+04  0.15294330000E+03 0.  0.
<mgrwt>
<rscale>  0 0.91182630E+03</rscale>
<asrwt>0</asrwt>
<pdfrwt beam="1">  1        2 0.55328792E+00 0.91182630E+03</pdfrwt>
<pdfrwt beam="2">  1       -2 0.61358789E-01 0.91182630E+03</pdfrwt>
<totfact> 0.18115154E+00</totfact>
</mgrwt>
</event>
<event>
 4    1  0.1726795E-008  0.5894830E+03  0.7818608E-02  0.9927469E-01
          2   -1    0    0  501    0  0.00000000000E+00  0.00000000000E+00  0.15416009034E+04  0.15416009034E+04  0.25500000000E-02 0. -1.
         -2   -1    0    0    0  501 -0.00000000000E+00 -0.00000000000E+00 -0.11697335175E+04  0.11697335175E+04  0.25500000000E-02 0.  1.
    8880022    1    1    2    0    0 -0.12998124423E+03 -0.55425935598E+03 -0.10321309391E+04  0.11886061105E+04  0.15294330000E+03 0.  0.
    8880022    1    1    2    0    0  0.12998124423E+03  0.55425935598E+03  0.14039983250E+04  0.15227283104E+04  0.15294330000E+03 0.  0.
<mgrwt>
<rscale>  0 0.58948300E+03</rscale>
<asrwt>0</asrwt>
<pdfrwt beam="1">  1        2 0.23716937E+00 0.58948300E+03</pdfrwt>
<pdfrwt beam="2">  1       -2 0.17995900E+00 0.58948300E+03</pdfrwt>
<totfact> 0.23198179E+00</totfact>
</mgrwt>
</event>
<event>
 4    1  0.1726795E-008  0.1362079E+04  0.7818608E-02  0.8981735E-01
         -2   -1    0    0    0  501 -0.00000000000E+00  0.00000000000E+00  0.94157970976E+03  0.94157970976E+03  0.25500000000E-02 0.  1.
          2   -1    0    0  501    0  0.00000000000E+00 -0.00000000000E+00 -0.27708522624E+04  0.27708522624E+04  0.25500000000E-02 0. -1.
    8880022    1    1    2    0    0  0.13290806409E+04  0.25575680674E+03  0.83059692086E+02  0.13646089036E+04  0.15294330000E+03 0.  0.
    8880022    1    1    2    0    0 -0.13290806409E+04 -0.25575680674E+03 -0.19123322447E+04  0.23478230686E+04  0.15294330000E+03 0.  0.
<mgrwt>
<rscale>  0 0.13620788E+04</rscale>
<asrwt>0</asrwt>
<pdfrwt beam="1">  1        2 0.42628496E+00 0.13620788E+04</pdfrwt>
<pdfrwt beam="2">  1       -2 0.14485842E+00 0.13620788E+04</pdfrwt>
<totfact> 0.76086745E-01</totfact>
</mgrwt>
</event>
<event>
 4    1  0.1726795E-008  0.9541689E+03  0.7818608E-02  0.9360291E-01
         -2   -1    0    0    0  501 -0.00000000000E+00  0.00000000000E+00  0.11303386750E+04  0.11303386750E+04  0.25500000000E-02 0.  1.
          2   -1    0    0  501    0  0.00000000000E+00 -0.00000000000E+00 -0.10220809201E+04  0.10220809201E+04  0.25500000000E-02 0. -1.
    8880022    1    1    2    0    0 -0.88614931009E+03 -0.31903920376E+03  0.54958857439E+03  0.11011293600E+04  0.15294330000E+03 0.  0.
    8880022    1    1    2    0    0  0.88614931009E+03  0.31903920376E+03 -0.44133081943E+03  0.10512902351E+04  0.15294330000E+03 0.  0.
<mgrwt>
<rscale>  0 0.95416889E+03</rscale>
<asrwt>0</asrwt>
<pdfrwt beam="1">  1        2 0.15724322E+00 0.95416889E+03</pdfrwt>
<pdfrwt beam="2">  1       -2 0.17389826E+00 0.95416889E+03</pdfrwt>
<totfact> 0.48571170E+00</totfact>
</mgrwt>
</event>
<event>
 4    1  0.1726795E-008  0.2159442E+03  0.7818608E-02  0.1136943E+00
          2   -1    0    0  501    0  0.00000000000E+00  0.00000000000E+00  0.17897936959E+04  0.17897936959E+04  0.25500000000E-02 0. -1.
         -2   -1    0    0    0  501 -0.00000000000E+00 -0.00000000000E+00 -0.42055413476E+03  0.42055413477E+03  0.25500000000E-02 0.  1.
    8880022    1    1    2    0    0 -0.87787917640E+02  0.12463363766E+03 -0.38577271728E+03  0.44210010692E+03  0.15294330000E+03 0.  1.
    8880022    1    1    2    0    0  0.87787917640E+02 -0.12463363766E+03  0.17550122784E+04  0.17682477238E+04  0.15294330000E+03 0.  0.
<mgrwt>
<rscale>  0 0.21594424E+03</rscale>
<asrwt>0</asrwt>
<pdfrwt beam="1">  1        2 0.27535287E+00 0.21594424E+03</pdfrwt>
<pdfrwt beam="2">  1       -2 0.64700637E-01 0.21594424E+03</pdfrwt>
<totfact> 0.22511195E+01</totfact>
</mgrwt>
</event>
<event>
 4    1  0.1726795E-008  0.7317622E+03  0.7818608E-02  0.9664405E-01
         -2   -1    0    0    0  501 -0.00000000000E+00  0.00000000000E+00  0.21674118912E+03  0.21674118913E+03  0.25500000000E-02 0.  1.
          2   -1    0    0  501    0  0.00000000000E+00 -0.00000000000E+00 -0.26721989859E+04  0.26721989859E+04  0.25500000000E-02 0. -1.
    8880022    1    1    2    0    0 -0.46634319518E+03 -0.54277834032E+03 -0.16245020811E+04  0.17817078793E+04  0.15294330000E+03 0.  0.
    8880022    1    1    2    0    0  0.46634319518E+03  0.54277834032E+03 -0.83095571563E+03  0.11072322958E+04  0.15294330000E+03 0.  0.
<mgrwt>
<rscale>  0 0.73176223E+03</rscale>
<asrwt>0</asrwt>
<pdfrwt beam="1">  1        2 0.41110751E+00 0.73176223E+03</pdfrwt>
<pdfrwt beam="2">  1       -2 0.33344800E-01 0.73176223E+03</pdfrwt>
<totfact> 0.24380858E+01</totfact>
</mgrwt>
</event>
<event>
 4    1  0.1726795E-008  0.2756507E+03  0.7818608E-02  0.1098088E+00
          2   -1    0    0  501    0  0.00000000000E+00  0.00000000000E+00  0.36731129951E+04  0.36731129951E+04  0.25500000000E-02 0. -1.
         -2   -1    0    0    0  501 -0.00000000000E+00 -0.00000000000E+00 -0.13855620552E+03  0.13855620554E+03  0.25500000000E-02 0.  1.
    8880022    1    1    2    0    0  0.22456144893E+03  0.46516596145E+02  0.35250951396E+04  0.35358561953E+04  0.15294330000E+03 0.  0.
    8880022    1    1    2    0    0 -0.22456144893E+03 -0.46516596145E+02  0.94616500169E+01  0.27581300531E+03  0.15294330000E+03 0.  1.
<mgrwt>
<rscale>  0 0.27565067E+03</rscale>
<asrwt>0</asrwt>
<pdfrwt beam="1">  1        2 0.56509419E+00 0.27565067E+03</pdfrwt>
<pdfrwt beam="2">  1       -2 0.21316344E-01 0.27565067E+03</pdfrwt>
<totfact> 0.14650638E+01</totfact>
</mgrwt>
</event>
<event>
 4    1  0.1726795E-008  0.9389901E+03  0.7818608E-02  0.9378113E-01
          2   -1    0    0  501    0  0.00000000000E+00  0.00000000000E+00  0.69041211813E+03  0.69041211814E+03  0.25500000000E-02 0. -1.
         -2   -1    0    0    0  501 -0.00000000000E+00 -0.00000000000E+00 -0.18215543204E+04  0.18215543204E+04  0.25500000000E-02 0.  1.
    8880022    1    1    2    0    0 -0.83483468205E+03 -0.40169853936E+03  0.12111267079E+03  0.94676850123E+03  0.15294330000E+03 0.  0.
    8880022    1    1    2    0    0  0.83483468205E+03  0.40169853936E+03 -0.12522548731E+04  0.15651979373E+04  0.15294330000E+03 0.  0.
<mgrwt>
<rscale>  0 0.93899005E+03</rscale>
<asrwt>0</asrwt>
<pdfrwt beam="1">  1        2 0.10621725E+00 0.93899005E+03</pdfrwt>
<pdfrwt beam="2">  1       -2 0.28023913E+00 0.93899005E+03</pdfrwt>
<totfact> 0.17674662E+00</totfact>
</mgrwt>
</event>
<event>
 4    1  0.1726795E-008  0.6166097E+03  0.7818608E-02  0.9871533E-01
          2   -1    0    0  501    0  0.00000000000E+00  0.00000000000E+00  0.21135922164E+04  0.21135922164E+04  0.25500000000E-02 0. -1.
         -2   -1    0    0    0  501 -0.00000000000E+00 -0.00000000000E+00 -0.39588358513E+03  0.39588358514E+03  0.25500000000E-02 0.  1.
    8880022    1    1    2    0    0  0.55969779085E+03  0.20869651182E+03 -0.67960216872E+02  0.62034353000E+03  0.15294330000E+03 0.  0.
    8880022    1    1    2    0    0 -0.55969779085E+03 -0.20869651182E+03  0.17856688481E+04  0.18891322715E+04  0.15294330000E+03 0. -1.
<mgrwt>
<rscale>  0 0.61660969E+03</rscale>
<asrwt>0</asrwt>
<pdfrwt beam="1">  1        2 0.32516803E+00 0.61660969E+03</pdfrwt>
<pdfrwt beam="2">  1       -2 0.60905168E-01 0.61660969E+03</pdfrwt>
<totfact> 0.15358749E+01</totfact>
</mgrwt>
</event>
<event>
 4    1  0.1726795E-008  0.1429753E+04  0.7818608E-02  0.8932559E-01
          2   -1    0    0  501    0  0.00000000000E+00  0.00000000000E+00  0.26275108001E+04  0.26275108001E+04  0.25500000000E-02 0. -1.
         -2   -1    0    0    0  501 -0.00000000000E+00 -0.00000000000E+00 -0.85617808464E+03  0.85617808464E+03  0.25500000000E-02 0.  1.
    8880022    1    1    2    0    0 -0.13488530762E+04 -0.44877337027E+03  0.14120228264E+04  0.20094781100E+04  0.15294330000E+03 0.  0.
    8880022    1    1    2    0    0  0.13488530762E+04  0.44877337027E+03  0.35930988903E+03  0.14742107748E+04  0.15294330000E+03 0.  0.
<mgrwt>
<rscale>  0 0.14297531E+04</rscale>
<asrwt>0</asrwt>
<pdfrwt beam="1">  1        2 0.40423243E+00 0.14297531E+04</pdfrwt>
<pdfrwt beam="2">  1       -2 0.13171971E+00 0.14297531E+04</pdfrwt>
<totfact> 0.11762917E+00</totfact>
</mgrwt>
</event>
<event>
 4    1  0.1726795E-008  0.1683272E+04  0.7818608E-02  0.8770963E-01
          2   -1    0    0  501    0  0.00000000000E+00  0.00000000000E+00  0.18858472971E+04  0.18858472971E+04  0.25500000000E-02 0. -1.
         -2   -1    0    0    0  501 -0.00000000000E+00 -0.00000000000E+00 -0.21552651507E+04  0.21552651507E+04  0.25500000000E-02 0.  1.
    8880022    1    1    2    0    0 -0.53765976304E+03 -0.15877455801E+04  0.97731249531E+03  0.19464186124E+04  0.15294330000E+03 0.  0.
    8880022    1    1    2    0    0  0.53765976304E+03  0.15877455801E+04 -0.12467303489E+04  0.20946938354E+04  0.15294330000E+03 0.  0.
<mgrwt>
<rscale>  0 0.16832723E+04</rscale>
<asrwt>0</asrwt>
<pdfrwt beam="1">  1        2 0.29013036E+00 0.16832723E+04</pdfrwt>
<pdfrwt beam="2">  1       -2 0.33157925E+00 0.16832723E+04</pdfrwt>
<totfact> 0.14427774E-01</totfact>
</mgrwt>
</event>
<event>
 4    1  0.1726795E-008  0.1303859E+04  0.7818608E-02  0.9026511E-01
          2   -1    0    0  501    0  0.00000000000E+00  0.00000000000E+00  0.25157497009E+04  0.25157497009E+04  0.25500000000E-02 0. -1.
         -2   -1    0    0    0  501 -0.00000000000E+00 -0.00000000000E+00 -0.76827264328E+03  0.76827264328E+03  0.25500000000E-02 0.  1.
    8880022    1    1    2    0    0 -0.12419975253E+04 -0.36619455704E+03  0.14435279182E+04  0.19452045677E+04  0.15294330000E+03 0.  0.
    8880022    1    1    2    0    0  0.12419975253E+04  0.36619455704E+03  0.30394913947E+03  0.13388177766E+04  0.15294330000E+03 0.  0.
<mgrwt>
<rscale>  0 0.13038589E+04</rscale>
<asrwt>0</asrwt>
<pdfrwt beam="1">  1        2 0.38703842E+00 0.13038589E+04</pdfrwt>
<pdfrwt beam="2">  1       -2 0.11819579E+00 0.13038589E+04</pdfrwt>
<totfact> 0.18218436E+00</totfact>
</mgrwt>
</event>
<event>
 4    1  0.1726795E-008  0.1898798E+03  0.7818608E-02  0.1158570E+00
         -2   -1    0    0    0  501 -0.00000000000E+00  0.00000000000E+00  0.17334623978E+03  0.17334623980E+03  0.25500000000E-02 0.  1.
          2   -1    0    0  501    0  0.00000000000E+00 -0.00000000000E+00 -0.95319732532E+03  0.95319732532E+03  0.25500000000E-02 0. -1.
    8880022    1    1    2    0    0 -0.11217178208E+03  0.89551588891E+01 -0.88796646009E+03  0.90804118345E+03  0.15294330000E+03 0.  0.
    8880022    1    1    2    0    0  0.11217178208E+03 -0.89551588891E+01  0.10811537456E+03  0.21850238167E+03  0.15294330000E+03 0.  0.
<mgrwt>
<rscale>  0 0.18987985E+03</rscale>
<asrwt>0</asrwt>
<pdfrwt beam="1">  1        2 0.14664574E+00 0.18987985E+03</pdfrwt>
<pdfrwt beam="2">  1       -2 0.26668653E-01 0.18987985E+03</pdfrwt>
<totfact> 0.36170896E+02</totfact>
</mgrwt>
</event>
<event>
 4    1  0.1726795E-008  0.8326411E+03  0.7818608E-02  0.9513936E-01
         -2   -1    0    0    0  501 -0.00000000000E+00  0.00000000000E+00  0.60093742572E+03  0.60093742572E+03  0.25500000000E-02 0.  1.
          2   -1    0    0  501    0  0.00000000000E+00 -0.00000000000E+00 -0.16555131227E+04  0.16555131227E+04  0.25500000000E-02 0. -1.
    8880022    1    1    2    0    0  0.15536349299E+03 -0.80359305131E+03 -0.11484541643E+04  0.14185338302E+04  0.15294330000E+03 0.  0.
    8880022    1    1    2    0    0 -0.15536349299E+03  0.80359305131E+03  0.93878467250E+02  0.83791671823E+03  0.15294330000E+03 0.  0.
<mgrwt>
<rscale>  0 0.83264114E+03</rscale>
<asrwt>0</asrwt>
<pdfrwt beam="1">  1        2 0.25469432E+00 0.83264114E+03</pdfrwt>
<pdfrwt beam="2">  1       -2 0.92451912E-01 0.83264114E+03</pdfrwt>
<totfact> 0.10480172E+01</totfact>
</mgrwt>
</event>
<event>
 4    1  0.1726795E-008  0.7855942E+03  0.7818608E-02  0.9581106E-01
         -2   -1    0    0    0  501 -0.00000000000E+00  0.00000000000E+00  0.60221847434E+03  0.60221847435E+03  0.25500000000E-02 0.  1.
          2   -1    0    0  501    0  0.00000000000E+00 -0.00000000000E+00 -0.26304029449E+04  0.26304029449E+04  0.25500000000E-02 0. -1.
    8880022    1    1    2    0    0 -0.26746594902E+03  0.72265385941E+03  0.24869944144E+03  0.82402044853E+03  0.15294330000E+03 0.  0.
    8880022    1    1    2    0    0  0.26746594902E+03 -0.72265385941E+03 -0.22768839120E+04  0.24086009707E+04  0.15294330000E+03 0.  0.
<mgrwt>
<rscale>  0 0.78559423E+03</rscale>
<asrwt>0</asrwt>
<pdfrwt beam="1">  1        2 0.40467737E+00 0.78559423E+03</pdfrwt>
<pdfrwt beam="2">  1       -2 0.92648997E-01 0.78559423E+03</pdfrwt>
<totfact> 0.30223943E+00</totfact>
</mgrwt>
</event>
<event>
 4    1  0.1726795E-008  0.1483142E+04  0.7818608E-02  0.8895741E-01
          2   -1    0    0  501    0  0.00000000000E+00  0.00000000000E+00  0.22721173131E+04  0.22721173131E+04  0.25500000000E-02 0. -1.
         -2   -1    0    0    0  501 -0.00000000000E+00 -0.00000000000E+00 -0.12078495342E+04  0.12078495342E+04  0.25500000000E-02 0.  1.
    8880022    1    1    2    0    0 -0.44244324642E+03 -0.14073247991E+04  0.13072880440E+04  0.19770464839E+04  0.15294330000E+03 0.  0.
    8880022    1    1    2    0    0  0.44244324642E+03  0.14073247991E+04 -0.24302026506E+03  0.15029203634E+04  0.15294330000E+03 0.  0.
<mgrwt>
<rscale>  0 0.14831422E+04</rscale>
<asrwt>0</asrwt>
<pdfrwt beam="1">  1        2 0.34955651E+00 0.14831422E+04</pdfrwt>
<pdfrwt beam="2">  1       -2 0.18582301E+00 0.14831422E+04</pdfrwt>
<totfact> 0.73254844E-01</totfact>
</mgrwt>
</event>
<event>
 4    1  0.1726795E-008  0.1102654E+04  0.7818608E-02  0.9202609E-01
         -2   -1    0    0    0  501 -0.00000000000E+00  0.00000000000E+00  0.19641188948E+04  0.19641188948E+04  0.25500000000E-02 0.  1.
          2   -1    0    0  501    0  0.00000000000E+00 -0.00000000000E+00 -0.91674352074E+03  0.91674352074E+03  0.25500000000E-02 0. -1.
    8880022    1    1    2    0    0  0.10907266909E+04 -0.52626941910E+02 -0.29717180851E+03  0.11419969554E+04  0.15294330000E+03 0.  0.
    8880022    1    1    2    0    0 -0.10907266909E+04  0.52626941910E+02  0.13445471825E+04  0.17388654601E+04  0.15294330000E+03 0.  0.
<mgrwt>
<rscale>  0 0.11026541E+04</rscale>
<asrwt>0</asrwt>
<pdfrwt beam="1">  1        2 0.14103746E+00 0.11026541E+04</pdfrwt>
<pdfrwt beam="2">  1       -2 0.30217214E+00 0.11026541E+04</pdfrwt>
<totfact> 0.87254438E-01</totfact>
</mgrwt>
</event>
<event>
 4    1  0.1726795E-008  0.1230527E+04  0.7818608E-02  0.9086548E-01
          2   -1    0    0  501    0  0.00000000000E+00  0.00000000000E+00  0.19706898906E+04  0.19706898906E+04  0.25500000000E-02 0. -1.
         -2   -1    0    0    0  501 -0.00000000000E+00 -0.00000000000E+00 -0.22418335952E+04  0.22418335952E+04  0.25500000000E-02 0.  1.
    8880022    1    1    2    0    0 -0.61296938775E+03 -0.10559707257E+04 -0.18431554734E+04  0.22161722397E+04  0.15294330000E+03 0.  0.
    8880022    1    1    2    0    0  0.61296938775E+03  0.10559707257E+04  0.15720117687E+04  0.19963512461E+04  0.15294330000E+03 0.  0.
<mgrwt>
<rscale>  0 0.12305272E+04</rscale>
<asrwt>0</asrwt>
<pdfrwt beam="1">  1        2 0.30318306E+00 0.12305272E+04</pdfrwt>
<pdfrwt beam="2">  1       -2 0.34489748E+00 0.12305272E+04</pdfrwt>
<totfact> 0.11342815E-01</totfact>
</mgrwt>
</event>
<event>
 4    1  0.1726795E-008  0.1760755E+04  0.7818608E-02  0.8727453E-01
         -2   -1    0    0    0  501 -0.00000000000E+00  0.00000000000E+00  0.21849766561E+04  0.21849766561E+04  0.25500000000E-02 0.  1.
          2   -1    0    0  501    0  0.00000000000E+00 -0.00000000000E+00 -0.20154872966E+04  0.20154872966E+04  0.25500000000E-02 0. -1.
    8880022    1    1    2    0    0 -0.27645115394E+03 -0.17321778718E+04 -0.10579107422E+04  0.20541256562E+04  0.15294330000E+03 0.  0.
    8880022    1    1    2    0    0  0.27645115394E+03  0.17321778718E+04  0.12274001017E+04  0.21463382964E+04  0.15294330000E+03 0.  0.
<mgrwt>
<rscale>  0 0.17607547E+04</rscale>
<asrwt>0</asrwt>
<pdfrwt beam="1">  1        2 0.31007497E+00 0.17607547E+04</pdfrwt>
<pdfrwt beam="2">  1       -2 0.33615025E+00 0.17607547E+04</pdfrwt>
<totfact> 0.11336453E-01</totfact>
</mgrwt>
</event>
<event>
 4    1  0.1726795E-008  0.1003733E+04  0.7818608E-02  0.9304460E-01
          2   -1    0    0  501    0  0.00000000000E+00  0.00000000000E+00  0.14830538263E+04  0.14830538263E+04  0.25500000000E-02 0. -1.
         -2   -1    0    0    0  501 -0.00000000000E+00 -0.00000000000E+00 -0.15144666451E+04  0.15144666451E+04  0.25500000000E-02 0.  1.
    8880022    1    1    2    0    0  0.19462393805E+02  0.99182086235E+03 -0.11286720548E+04  0.15104236717E+04  0.15294330000E+03 0.  0.
    8880022    1    1    2    0    0 -0.19462393805E+02 -0.99182086235E+03  0.10972592360E+04  0.14870967997E+04  0.15294330000E+03 0.  0.
<mgrwt>
<rscale>  0 0.10037326E+04</rscale>
<asrwt>0</asrwt>
<pdfrwt beam="1">  1        2 0.22816213E+00 0.10037326E+04</pdfrwt>
<pdfrwt beam="2">  1       -2 0.23299487E+00 0.10037326E+04</pdfrwt>
<totfact> 0.10581165E+00</totfact>
</mgrwt>
</event>
<event>
 4    1  0.1726795E-008  0.1804611E+04  0.7818608E-02  0.8703851E-01
         -2   -1    0    0    0  501 -0.00000000000E+00  0.00000000000E+00  0.10359165679E+04  0.10359165679E+04  0.25500000000E-02 0.  1.
          2   -1    0    0  501    0  0.00000000000E+00 -0.00000000000E+00 -0.48218065992E+04  0.48218065992E+04  0.25500000000E-02 0. -1.
    8880022    1    1    2    0    0 -0.17942591136E+04 -0.11774977312E+03 -0.36207801007E+04  0.40455742443E+04  0.15294330000E+03 0.  0.
    8880022    1    1    2    0    0  0.17942591136E+04  0.11774977312E+03 -0.16510993059E+03  0.18121489227E+04  0.15294330000E+03 0.  0.
<mgrwt>
<rscale>  0 0.18046114E+04</rscale>
<asrwt>0</asrwt>
<pdfrwt beam="1">  1        2 0.74181639E+00 0.18046114E+04</pdfrwt>
<pdfrwt beam="2">  1       -2 0.15937178E+00 0.18046114E+04</pdfrwt>
<totfact> 0.13372578E-02</totfact>
</mgrwt>
</event>
<event>
 4    1  0.1726795E-008  0.8260383E+03  0.7818608E-02  0.9523074E-01
         -2   -1    0    0    0  501 -0.00000000000E+00  0.00000000000E+00  0.72897774366E+03  0.72897774367E+03  0.25500000000E-02 0.  1.
          2   -1    0    0  501    0  0.00000000000E+00 -0.00000000000E+00 -0.13956967066E+04  0.13956967066E+04  0.25500000000E-02 0. -1.
    8880022    1    1    2    0    0 -0.80551749803E+03  0.10044497229E+03 -0.94302569107E+03  0.12536493685E+04  0.15294330000E+03 0.  0.
    8880022    1    1    2    0    0  0.80551749803E+03 -0.10044497229E+03  0.27630672812E+03  0.87102508179E+03  0.15294330000E+03 0.  0.
<mgrwt>
<rscale>  0 0.82603831E+03</rscale>
<asrwt>0</asrwt>
<pdfrwt beam="1">  1        2 0.21472257E+00 0.82603831E+03</pdfrwt>
<pdfrwt beam="2">  1       -2 0.11215042E+00 0.82603831E+03</pdfrwt>
<totfact> 0.92417852E+00</totfact>
</mgrwt>
</event>
<event>
 4    1  0.1726795E-008  0.1091300E+04  0.7818608E-02  0.9213713E-01
          2   -1    0    0  501    0  0.00000000000E+00  0.00000000000E+00  0.24285732447E+04  0.24285732447E+04  0.25500000000E-02 0. -1.
         -2   -1    0    0    0  501 -0.00000000000E+00 -0.00000000000E+00 -0.96432192053E+03  0.96432192054E+03  0.25500000000E-02 0.  1.
    8880022    1    1    2    0    0  0.77107847637E+02  0.10777750536E+04 -0.45716939041E+03  0.11831906824E+04  0.15294330000E+03 0.  0.
    8880022    1    1    2    0    0 -0.77107847637E+02 -0.10777750536E+04  0.19214207146E+04  0.22097044829E+04  0.15294330000E+03 0.  0.
<mgrwt>
<rscale>  0 0.10913003E+04</rscale>
<asrwt>0</asrwt>
<pdfrwt beam="1">  1        2 0.37362665E+00 0.10913003E+04</pdfrwt>
<pdfrwt beam="2">  1       -2 0.14835722E+00 0.10913003E+04</pdfrwt>
<totfact> 0.11705574E+00</totfact>
</mgrwt>
</event>
<event>
 4    1  0.1726795E-008  0.5838788E+03  0.7818608E-02  0.9939429E-01
          2   -1    0    0  501    0  0.00000000000E+00  0.00000000000E+00  0.19166239249E+04  0.19166239249E+04  0.25500000000E-02 0. -1.
         -2   -1    0    0    0  501 -0.00000000000E+00 -0.00000000000E+00 -0.29626940624E+03  0.29626940626E+03  0.25500000000E-02 0.  1.
    8880022    1    1    2    0    0 -0.97004039797E+02 -0.55507932719E+03  0.15096284961E+04  0.16186082579E+04  0.15294330000E+03 0.  0.
    8880022    1    1    2    0    0  0.97004039797E+02  0.55507932719E+03  0.11072602251E+03  0.59428507325E+03  0.15294330000E+03 0.  0.
<mgrwt>
<rscale>  0 0.58387884E+03</rscale>
<asrwt>0</asrwt>
<pdfrwt beam="1">  1        2 0.29486521E+00 0.58387884E+03</pdfrwt>
<pdfrwt beam="2">  1       -2 0.45579909E-01 0.58387884E+03</pdfrwt>
<totfact> 0.35788206E+01</totfact>
</mgrwt>
</event>
<event>
 4    1  0.1726795E-008  0.7036731E+03  0.7818608E-02  0.9710971E-01
          2   -1    0    0  501    0  0.00000000000E+00  0.00000000000E+00  0.61610949714E+03  0.61610949715E+03  0.25500000000E-02 0. -1.
         -2   -1    0    0    0  501 -0.00000000000E+00 -0.00000000000E+00 -0.21299844455E+04  0.21299844456E+04  0.25500000000E-02 0.  1.
    8880022    1    1    2    0    0  0.67430991737E+03  0.13065330227E+03 -0.18404116039E+04  0.19703478563E+04  0.15294330000E+03 0.  0.
    8880022    1    1    2    0    0 -0.67430991737E+03 -0.13065330227E+03  0.32653665554E+03  0.77574608635E+03  0.15294330000E+03 0.  0.
<mgrwt>
<rscale>  0 0.70367308E+03</rscale>
<asrwt>0</asrwt>
<pdfrwt beam="1">  1        2 0.94786078E-01 0.70367308E+03</pdfrwt>
<pdfrwt beam="2">  1       -2 0.32768991E+00 0.70367308E+03</pdfrwt>
<totfact> 0.10907048E+00</totfact>
</mgrwt>
</event>
<event>
 4    1  0.1726795E-008  0.1052303E+04  0.7818608E-02  0.9252969E-01
          2   -1    0    0  501    0  0.00000000000E+00  0.00000000000E+00  0.15630432286E+04  0.15630432286E+04  0.25500000000E-02 0. -1.
         -2   -1    0    0    0  501 -0.00000000000E+00 -0.00000000000E+00 -0.10824943889E+04  0.10824943889E+04  0.25500000000E-02 0.  1.
    8880022    1    1    2    0    0 -0.96666601987E+03  0.38666157156E+03 -0.53728070703E+03  0.11815297610E+04  0.15294330000E+03 0.  0.
    8880022    1    1    2    0    0  0.96666601987E+03 -0.38666157156E+03  0.10178295467E+04  0.14640078566E+04  0.15294330000E+03 0.  0.
<mgrwt>
<rscale>  0 0.10523032E+04</rscale>
<asrwt>0</asrwt>
<pdfrwt beam="1">  1        2 0.24046819E+00 0.10523032E+04</pdfrwt>
<pdfrwt beam="2">  1       -2 0.16653760E+00 0.10523032E+04</pdfrwt>
<totfact> 0.26045797E+00</totfact>
</mgrwt>
</event>
<event>
 4    1  0.1726795E-008  0.5345176E+03  0.7818608E-02  0.1005142E+00
          2   -1    0    0  501    0  0.00000000000E+00  0.00000000000E+00  0.11511915036E+04  0.11511915036E+04  0.25500000000E-02 0. -1.
         -2   -1    0    0    0  501 -0.00000000000E+00 -0.00000000000E+00 -0.62805789305E+03  0.62805789306E+03  0.25500000000E-02 0.  1.
    8880022    1    1    2    0    0 -0.89667705876E+02 -0.50425900071E+03  0.95343893006E+03  0.10930484361E+04  0.15294330000E+03 0.  0.
    8880022    1    1    2    0    0  0.89667705876E+02  0.50425900071E+03 -0.43030531951E+03  0.68620096057E+03  0.15294330000E+03 0.  1.
<mgrwt>
<rscale>  0 0.53451762E+03</rscale>
<asrwt>0</asrwt>
<pdfrwt beam="1">  1        2 0.17710638E+00 0.53451762E+03</pdfrwt>
<pdfrwt beam="2">  1       -2 0.96624292E-01 0.53451762E+03</pdfrwt>
<totfact> 0.19024510E+01</totfact>
</mgrwt>
</event>
<event>
 4    1  0.1726795E-008  0.9480129E+03  0.7818608E-02  0.9367476E-01
          2   -1    0    0  501    0  0.00000000000E+00  0.00000000000E+00  0.60651114649E+03  0.60651114650E+03  0.25500000000E-02 0. -1.
         -2   -1    0    0    0  501 -0.00000000000E+00 -0.00000000000E+00 -0.23834525062E+04  0.23834525062E+04  0.25500000000E-02 0.  1.
    8880022    1    1    2    0    0  0.51760515341E+03 -0.77937262189E+03 -0.18079716120E+04  0.20414430635E+04  0.15294330000E+03 0.  0.
    8880022    1    1    2    0    0 -0.51760515341E+03  0.77937262189E+03  0.31030252296E+02  0.94852058922E+03  0.15294330000E+03 0.  0.
<mgrwt>
<rscale>  0 0.94801289E+03</rscale>
<asrwt>0</asrwt>
<pdfrwt beam="1">  1        2 0.93309409E-01 0.94801289E+03</pdfrwt>
<pdfrwt beam="2">  1       -2 0.36668499E+00 0.94801289E+03</pdfrwt>
<totfact> 0.61079424E-01</totfact>
</mgrwt>
</event>
<event>
 4    1  0.1726795E-008  0.8606290E+03  0.7818608E-02  0.9476181E-01
          2   -1    0    0  501    0  0.00000000000E+00  0.00000000000E+00  0.22735835187E+04  0.22735835187E+04  0.25500000000E-02 0. -1.
         -2   -1    0    0    0  501 -0.00000000000E+00 -0.00000000000E+00 -0.10039051978E+04  0.10039051978E+04  0.25500000000E-02 0.  1.
    8880022    1    1    2    0    0  0.82874826978E+03 -0.17454792583E+03 -0.71201509812E+03  0.11169815692E+04  0.15294330000E+03 0.  0.
    8880022    1    1    2    0    0 -0.82874826978E+03  0.17454792583E+03  0.19816934190E+04  0.21605071472E+04  0.15294330000E+03 0.  0.
<mgrwt>
<rscale>  0 0.86062903E+03</rscale>
<asrwt>0</asrwt>
<pdfrwt beam="1">  1        2 0.34978207E+00 0.86062903E+03</pdfrwt>
<pdfrwt beam="2">  1       -2 0.15444696E+00 0.86062903E+03</pdfrwt>
<totfact> 0.13323150E+00</totfact>
</mgrwt>
</event>
<event>
 4    1  0.1726795E-008  0.7565422E+03  0.7818608E-02  0.9625142E-01
         -2   -1    0    0    0  501 -0.00000000000E+00  0.00000000000E+00  0.81287741529E+03  0.81287741529E+03  0.25500000000E-02 0.  1.
          2   -1    0    0  501    0  0.00000000000E+00 -0.00000000000E+00 -0.12467591551E+04  0.12467591551E+04  0.25500000000E-02 0. -1.
    8880022    1    1    2    0    0  0.56703177995E+03  0.47690610443E+03  0.46246357700E+03  0.88669537328E+03  0.15294330000E+03 0.  0.
    8880022    1    1    2    0    0 -0.56703177995E+03 -0.47690610443E+03 -0.89634531681E+03  0.11729411971E+04  0.15294330000E+03 0.  0.
<mgrwt>
<rscale>  0 0.75654222E+03</rscale>
<asrwt>0</asrwt>
<pdfrwt beam="1">  1        2 0.19180910E+00 0.75654222E+03</pdfrwt>
<pdfrwt beam="2">  1       -2 0.12505806E+00 0.75654222E+03</pdfrwt>
<totfact> 0.86774309E+00</totfact>
</mgrwt>
</event>
<event>
 4    1  0.1726795E-008  0.8731374E+03  0.7818608E-02  0.9459798E-01
         -2   -1    0    0    0  501 -0.00000000000E+00  0.00000000000E+00  0.11186691629E+04  0.11186691629E+04  0.25500000000E-02 0.  1.
          2   -1    0    0  501    0  0.00000000000E+00 -0.00000000000E+00 -0.28131858562E+04  0.28131858562E+04  0.25500000000E-02 0. -1.
    8880022    1    1    2    0    0  0.85622005478E+03  0.76580028293E+02  0.86405785617E+03  0.12283993303E+04  0.15294330000E+03 0.  0.
    8880022    1    1    2    0    0 -0.85622005478E+03 -0.76580028293E+02 -0.25585745494E+04  0.27034556887E+04  0.15294330000E+03 0.  0.
<mgrwt>
<rscale>  0 0.87313741E+03</rscale>
<asrwt>0</asrwt>
<pdfrwt beam="1">  1        2 0.43279782E+00 0.87313741E+03</pdfrwt>
<pdfrwt beam="2">  1       -2 0.17210295E+00 0.87313741E+03</pdfrwt>
<totfact> 0.48462850E-01</totfact>
</mgrwt>
</event>
<event>
 4    1  0.1726795E-008  0.4950651E+03  0.7818608E-02  0.1015075E+00
          2   -1    0    0  501    0  0.00000000000E+00  0.00000000000E+00  0.12670323123E+04  0.12670323123E+04  0.25500000000E-02 0. -1.
         -2   -1    0    0    0  501 -0.00000000000E+00 -0.00000000000E+00 -0.27987892157E+03  0.27987892158E+03  0.25500000000E-02 0.  1.
    8880022    1    1    2    0    0 -0.45730407233E+03  0.11211948868E+03  0.92342522598E+03  0.10477612301E+04  0.15294330000E+03 0.  0.
    8880022    1    1    2    0    0  0.45730407233E+03 -0.11211948868E+03  0.63728164784E+02  0.49915000382E+03  0.15294330000E+03 0.  0.
<mgrwt>
<rscale>  0 0.49506509E+03</rscale>
<asrwt>0</asrwt>
<pdfrwt beam="1">  1        2 0.19492805E+00 0.49506509E+03</pdfrwt>
<pdfrwt beam="2">  1       -2 0.43058295E-01 0.49506509E+03</pdfrwt>
<totfact> 0.92229541E+01</totfact>
</mgrwt>
</event>
<event>
 4    1  0.1726795E-008  0.5871872E+03  0.7818608E-02  0.9932351E-01
          2   -1    0    0  501    0  0.00000000000E+00  0.00000000000E+00  0.39286316857E+04  0.39286316857E+04  0.25500000000E-02 0. -1.
         -2   -1    0    0    0  501 -0.00000000000E+00 -0.00000000000E+00 -0.44620525994E+03  0.44620525995E+03  0.25500000000E-02 0.  1.
    8880022    1    1    2    0    0  0.52946828730E+03 -0.20263399440E+03 -0.21931944763E+03  0.62680928205E+03  0.15294330000E+03 0.  0.
    8880022    1    1    2    0    0 -0.52946828730E+03  0.20263399440E+03  0.37017458734E+04  0.37480276636E+04  0.15294330000E+03 0.  0.
<mgrwt>
<rscale>  0 0.58718724E+03</rscale>
<asrwt>0</asrwt>
<pdfrwt beam="1">  1        2 0.60440485E+00 0.58718724E+03</pdfrwt>
<pdfrwt beam="2">  1       -2 0.68646966E-01 0.58718724E+03</pdfrwt>
<totfact> 0.87989891E-01</totfact>
</mgrwt>
</event>
<event>
 4    1  0.1726795E-008  0.1417801E+04  0.7818608E-02  0.8941033E-01
         -2   -1    0    0    0  501 -0.00000000000E+00  0.00000000000E+00  0.88813987510E+03  0.88813987511E+03  0.25500000000E-02 0.  1.
          2   -1    0    0  501    0  0.00000000000E+00 -0.00000000000E+00 -0.26354642451E+04  0.26354642451E+04  0.25500000000E-02 0. -1.
    8880022    1    1    2    0    0 -0.13001717087E+04 -0.54435341438E+03 -0.21163627074E+03  0.14335092173E+04  0.15294330000E+03 0.  0.
    8880022    1    1    2    0    0  0.13001717087E+04  0.54435341438E+03 -0.15356880993E+04  0.20900949029E+04  0.15294330000E+03 0.  0.
<mgrwt>
<rscale>  0 0.14178007E+04</rscale>
<asrwt>0</asrwt>
<pdfrwt beam="1">  1        2 0.40545604E+00 0.14178007E+04</pdfrwt>
<pdfrwt beam="2">  1       -2 0.13663690E+00 0.14178007E+04</pdfrwt>
<totfact> 0.10602670E+00</totfact>
</mgrwt>
</event>
<event>
 4    1  0.2844383E-008  0.1636575E+04  0.7818608E-02  0.8798388E-01
          2   -1    0    0  501    0  0.00000000000E+00  0.00000000000E+00  0.24900572025E+04  0.24900572025E+04  0.25500000000E-02 0. -1.
         -2   -1    0    0    0  501 -0.00000000000E+00 -0.00000000000E+00 -0.15490072929E+04  0.15490072929E+04  0.25500000000E-02 0.  1.
    8880022    1    1    2    0    0 -0.75752724373E+03  0.14426156480E+04 -0.64589600793E+03  0.17594205691E+04  0.15294330000E+03 0.  0.
    8880022    1    1    2    0    0  0.75752724373E+03 -0.14426156480E+04  0.15869459175E+04  0.22796439263E+04  0.15294330000E+03 0.  0.
<mgrwt>
<rscale>  0 0.16365754E+04</rscale>
<asrwt>0</asrwt>
<pdfrwt beam="1">  1        2 0.38308572E+00 0.16365754E+04</pdfrwt>
<pdfrwt beam="2">  1       -2 0.23830882E+00 0.16365754E+04</pdfrwt>
<totfact> 0.24722493E-01</totfact>
</mgrwt>
</event>
<event>
 4    1  0.1726795E-008  0.8115259E+03  0.7818608E-02  0.9543482E-01
         -2   -1    0    0    0  501 -0.00000000000E+00  0.00000000000E+00  0.55653856211E+03  0.55653856211E+03  0.25500000000E-02 0.  1.
          2   -1    0    0  501    0  0.00000000000E+00 -0.00000000000E+00 -0.13595106598E+04  0.13595106598E+04  0.25500000000E-02 0. -1.
    8880022    1    1    2    0    0  0.66020327523E+03 -0.44644622387E+03 -0.74635361746E+03  0.11025506658E+04  0.15294330000E+03 0.  0.
    8880022    1    1    2    0    0 -0.66020327523E+03  0.44644622387E+03 -0.56618480245E+02  0.81349855609E+03  0.15294330000E+03 0.  0.
<mgrwt>
<rscale>  0 0.81152588E+03</rscale>
<asrwt>0</asrwt>
<pdfrwt beam="1">  1        2 0.20915548E+00 0.81152588E+03</pdfrwt>
<pdfrwt beam="2">  1       -2 0.85621318E-01 0.81152588E+03</pdfrwt>
<totfact> 0.18355116E+01</totfact>
</mgrwt>
</event>
<event>
 4    1  0.1726795E-008  0.6310368E+03  0.7818608E-02  0.9843028E-01
         -2   -1    0    0    0  501 -0.00000000000E+00  0.00000000000E+00  0.22229872698E+04  0.22229872698E+04  0.25500000000E-02 0.  1.
          2   -1    0    0  501    0  0.00000000000E+00 -0.00000000000E+00 -0.20141405963E+03  0.20141405965E+03  0.25500000000E-02 0. -1.
    8880022    1    1    2    0    0 -0.61155389536E+03  0.28594027357E+02  0.14139772408E+04  0.15483988749E+04  0.15294330000E+03 0.  0.
    8880022    1    1    2    0    0  0.61155389536E+03 -0.28594027357E+02  0.60759596937E+03  0.87600245453E+03  0.15294330000E+03 0.  0.
<mgrwt>
<rscale>  0 0.63103680E+03</rscale>
<asrwt>0</asrwt>
<pdfrwt beam="1">  1        2 0.30986775E-01 0.63103680E+03</pdfrwt>
<pdfrwt beam="2">  1       -2 0.34199807E+00 0.63103680E+03</pdfrwt>
<totfact> 0.32028004E+00</totfact>
</mgrwt>
</event>
<event>
 4    1  0.1726795E-008  0.6792604E+03  0.7818608E-02  0.9753372E-01
         -2   -1    0    0    0  501 -0.00000000000E+00  0.00000000000E+00  0.18874208774E+04  0.18874208774E+04  0.25500000000E-02 0.  1.
          2   -1    0    0  501    0  0.00000000000E+00 -0.00000000000E+00 -0.15776865121E+04  0.15776865122E+04  0.25500000000E-02 0. -1.
    8880022    1    1    2    0    0  0.65175783443E+03 -0.11495538465E+03 -0.14378133920E+04  0.15901893027E+04  0.15294330000E+03 0.  0.
    8880022    1    1    2    0    0 -0.65175783443E+03  0.11495538465E+03  0.17475477573E+04  0.18749180868E+04  0.15294330000E+03 0.  0.
<mgrwt>
<rscale>  0 0.67926038E+03</rscale>
<asrwt>0</asrwt>
<pdfrwt beam="1">  1        2 0.24272100E+00 0.67926038E+03</pdfrwt>
<pdfrwt beam="2">  1       -2 0.29037244E+00 0.67926038E+03</pdfrwt>
<totfact> 0.44774987E-01</totfact>
</mgrwt>
</event>
<event>
 4    1  0.1726795E-008  0.6740009E+03  0.7818608E-02  0.9762757E-01
          2   -1    0    0  501    0  0.00000000000E+00  0.00000000000E+00  0.88732206608E+03  0.88732206609E+03  0.25500000000E-02 0. -1.
         -2   -1    0    0    0  501 -0.00000000000E+00 -0.00000000000E+00 -0.13058530958E+04  0.13058530958E+04  0.25500000000E-02 0.  1.
    8880022    1    1    2    0    0 -0.33525699606E+03  0.56434767233E+03 -0.10642849838E+04  0.12597538364E+04  0.15294330000E+03 0.  0.
    8880022    1    1    2    0    0  0.33525699606E+03 -0.56434767233E+03  0.64575395405E+03  0.93342132548E+03  0.15294330000E+03 0.  0.
<mgrwt>
<rscale>  0 0.67400089E+03</rscale>
<asrwt>0</asrwt>
<pdfrwt beam="1">  1        2 0.13651109E+00 0.67400089E+03</pdfrwt>
<pdfrwt beam="2">  1       -2 0.20090048E+00 0.67400089E+03</pdfrwt>
<totfact> 0.40600208E+00</totfact>
</mgrwt>
</event>
<event>
 4    1  0.1726795E-008  0.1181126E+04  0.7818608E-02  0.9129540E-01
          2   -1    0    0  501    0  0.00000000000E+00  0.00000000000E+00  0.15696883708E+04  0.15696883708E+04  0.25500000000E-02 0. -1.
         -2   -1    0    0    0  501 -0.00000000000E+00 -0.00000000000E+00 -0.13028792482E+04  0.13028792482E+04  0.25500000000E-02 0.  1.
    8880022    1    1    2    0    0  0.10821306851E+04  0.44795008020E+03 -0.67635683034E+03  0.13610717501E+04  0.15294330000E+03 0.  0.
    8880022    1    1    2    0    0 -0.10821306851E+04 -0.44795008020E+03  0.94316595291E+03  0.15114958689E+04  0.15294330000E+03 0.  0.
<mgrwt>
<rscale>  0 0.11811256E+04</rscale>
<asrwt>0</asrwt>
<pdfrwt beam="1">  1        2 0.24149052E+00 0.11811256E+04</pdfrwt>
<pdfrwt beam="2">  1       -2 0.20044296E+00 0.11811256E+04</pdfrwt>
<totfact> 0.14893888E+00</totfact>
</mgrwt>
</event>
<event>
 4    1  0.1726795E-008  0.1618843E+04  0.7818608E-02  0.8809055E-01
          2   -1    0    0  501    0  0.00000000000E+00  0.00000000000E+00  0.27001836839E+04  0.27001836839E+04  0.25500000000E-02 0. -1.
         -2   -1    0    0    0  501 -0.00000000000E+00 -0.00000000000E+00 -0.21218439914E+04  0.21218439914E+04  0.25500000000E-02 0.  1.
    8880022    1    1    2    0    0  0.14678355509E+04  0.66537136681E+03  0.20651450218E+04  0.26240190309E+04  0.15294330000E+03 0.  0.
    8880022    1    1    2    0    0 -0.14678355509E+04 -0.66537136681E+03 -0.14868053294E+04  0.21980086444E+04  0.15294330000E+03 0.  0.
<mgrwt>
<rscale>  0 0.16188428E+04</rscale>
<asrwt>0</asrwt>
<pdfrwt beam="1">  1        2 0.41541288E+00 0.16188428E+04</pdfrwt>
<pdfrwt beam="2">  1       -2 0.32643754E+00 0.16188428E+04</pdfrwt>
<totfact> 0.53622608E-02</totfact>
</mgrwt>
</event>
<event>
 4    1  0.1726795E-008  0.6947144E+03  0.7818608E-02  0.9726314E-01
          2   -1    0    0  501    0  0.00000000000E+00  0.00000000000E+00  0.21242941679E+04  0.21242941679E+04  0.25500000000E-02 0. -1.
         -2   -1    0    0    0  501 -0.00000000000E+00 -0.00000000000E+00 -0.34961114269E+03  0.34961114270E+03  0.25500000000E-02 0.  1.
    8880022    1    1    2    0    0  0.63109842037E+03 -0.24688316375E+03  0.15539305904E+03  0.71188142872E+03  0.15294330000E+03 0.  0.
    8880022    1    1    2    0    0 -0.63109842037E+03  0.24688316375E+03  0.16192899661E+04  0.17620238818E+04  0.15294330000E+03 0.  0.
<mgrwt>
<rscale>  0 0.69471445E+03</rscale>
<asrwt>0</asrwt>
<pdfrwt beam="1">  1        2 0.32681448E+00 0.69471445E+03</pdfrwt>
<pdfrwt beam="2">  1       -2 0.53786331E-01 0.69471445E+03</pdfrwt>
<totfact> 0.19388315E+01</totfact>
</mgrwt>
</event>
<event>
 4    1  0.1726795E-008  0.2037496E+03  0.7818608E-02  0.1146613E+00
          2   -1    0    0  501    0  0.00000000000E+00  0.00000000000E+00  0.81189566595E+03  0.81189566595E+03  0.25500000000E-02 0. -1.
         -2   -1    0    0    0  501 -0.00000000000E+00 -0.00000000000E+00 -0.87390665111E+02  0.87390665148E+02  0.25500000000E-02 0.  1.
    8880022    1    1    2    0    0 -0.66396224070E+02 -0.11710594060E+03  0.72624257221E+02  0.21630579199E+03  0.15294330000E+03 0.  1.
    8880022    1    1    2    0    0  0.66396224070E+02  0.11710594060E+03  0.65188074362E+03  0.68298053912E+03  0.15294330000E+03 0.  0.
<mgrwt>
<rscale>  0 0.20374963E+03</rscale>
<asrwt>0</asrwt>
<pdfrwt beam="1">  1        2 0.12490703E+00 0.20374963E+03</pdfrwt>
<pdfrwt beam="2">  1       -2 0.13444718E-01 0.20374963E+03</pdfrwt>
<totfact> 0.14270417E+03</totfact>
</mgrwt>
</event>
<event>
 4    1  0.1726795E-008  0.7994823E+03  0.7818608E-02  0.9560767E-01
         -2   -1    0    0    0  501 -0.00000000000E+00  0.00000000000E+00  0.19520851475E+04  0.19520851475E+04  0.25500000000E-02 0.  1.
          2   -1    0    0  501    0  0.00000000000E+00 -0.00000000000E+00 -0.70098612206E+03  0.70098612207E+03  0.25500000000E-02 0. -1.
    8880022    1    1    2    0    0 -0.61492830610E+03 -0.48748686012E+03  0.15939208794E+04  0.17831869457E+04  0.15294330000E+03 0.  0.
    8880022    1    1    2    0    0  0.61492830610E+03  0.48748686012E+03 -0.34282185394E+03  0.86988432391E+03  0.15294330000E+03 0.  0.
<mgrwt>
<rscale>  0 0.79948228E+03</rscale>
<asrwt>0</asrwt>
<pdfrwt beam="1">  1        2 0.10784402E+00 0.79948228E+03</pdfrwt>
<pdfrwt beam="2">  1       -2 0.30032079E+00 0.79948228E+03</pdfrwt>
<totfact> 0.13389112E+00</totfact>
</mgrwt>
</event>
<event>
 4    1  0.1726795E-008  0.4471506E+03  0.7818608E-02  0.1028575E+00
         -2   -1    0    0    0  501 -0.00000000000E+00  0.00000000000E+00  0.23377844579E+03  0.23377844580E+03  0.25500000000E-02 0.  1.
          2   -1    0    0  501    0  0.00000000000E+00 -0.00000000000E+00 -0.16032144362E+04  0.16032144362E+04  0.25500000000E-02 0. -1.
    8880022    1    1    2    0    0 -0.23749159940E+03  0.34662623466E+03 -0.57358640716E+02  0.45081445520E+03  0.15294330000E+03 0.  0.
    8880022    1    1    2    0    0  0.23749159940E+03 -0.34662623466E+03 -0.13120773497E+04  0.13861784268E+04  0.15294330000E+03 0.  0.
<mgrwt>
<rscale>  0 0.44715060E+03</rscale>
<asrwt>0</asrwt>
<pdfrwt beam="1">  1        2 0.24664837E+00 0.44715060E+03</pdfrwt>
<pdfrwt beam="2">  1       -2 0.35965916E-01 0.44715060E+03</pdfrwt>
<totfact> 0.85600554E+01</totfact>
</mgrwt>
</event>
<event>
 4    1  0.1726795E-008  0.8846595E+03  0.7818608E-02  0.9444964E-01
          2   -1    0    0  501    0  0.00000000000E+00  0.00000000000E+00  0.44821401443E+04  0.44821401443E+04  0.25500000000E-02 0. -1.
         -2   -1    0    0    0  501 -0.00000000000E+00 -0.00000000000E+00 -0.43897471237E+03  0.43897471238E+03  0.25500000000E-02 0.  1.
    8880022    1    1    2    0    0 -0.86021176819E+03 -0.13880348089E+03  0.39310677385E+04  0.40293815791E+04  0.15294330000E+03 0.  0.
    8880022    1    1    2    0    0  0.86021176819E+03  0.13880348089E+03  0.11209769343E+03  0.89173327757E+03  0.15294330000E+03 0.  0.
<mgrwt>
<rscale>  0 0.88465945E+03</rscale>
<asrwt>0</asrwt>
<pdfrwt beam="1">  1        2 0.68956006E+00 0.88465945E+03</pdfrwt>
<pdfrwt beam="2">  1       -2 0.67534568E-01 0.88465945E+03</pdfrwt>
<totfact> 0.28399171E-01</totfact>
</mgrwt>
</event>
<event>
 4    1  0.1726795E-008  0.5981252E+03  0.7818608E-02  0.9909303E-01
         -2   -1    0    0    0  501 -0.00000000000E+00  0.00000000000E+00  0.71501261198E+03  0.71501261199E+03  0.25500000000E-02 0.  1.
          2   -1    0    0  501    0  0.00000000000E+00 -0.00000000000E+00 -0.19716520064E+04  0.19716520064E+04  0.25500000000E-02 0. -1.
    8880022    1    1    2    0    0  0.54576805123E+03  0.19104801244E+03  0.53211263064E+03  0.80056081187E+03  0.15294330000E+03 0.  0.
    8880022    1    1    2    0    0 -0.54576805123E+03 -0.19104801244E+03 -0.17887520251E+04  0.18861038066E+04  0.15294330000E+03 0.  0.
<mgrwt>
<rscale>  0 0.59812521E+03</rscale>
<asrwt>0</asrwt>
<pdfrwt beam="1">  1        2 0.30333108E+00 0.59812521E+03</pdfrwt>
<pdfrwt beam="2">  1       -2 0.11000194E+00 0.59812521E+03</pdfrwt>
<totfact> 0.48483445E+00</totfact>
</mgrwt>
</event>
<event>
 4    1  0.1726795E-008  0.5792597E+03  0.7818608E-02  0.9949395E-01
         -2   -1    0    0    0  501 -0.00000000000E+00  0.00000000000E+00  0.49402224087E+03  0.49402224088E+03  0.25500000000E-02 0.  1.
          2   -1    0    0  501    0  0.00000000000E+00 -0.00000000000E+00 -0.92968786214E+03  0.92968786215E+03  0.25500000000E-02 0. -1.
    8880022    1    1    2    0    0  0.50606377196E+03  0.23674809343E+03  0.15166588997E+03  0.59878576823E+03  0.15294330000E+03 0.  0.
    8880022    1    1    2    0    0 -0.50606377196E+03 -0.23674809343E+03 -0.58733151124E+03  0.82492433480E+03  0.15294330000E+03 0.  0.
<mgrwt>
<rscale>  0 0.57925975E+03</rscale>
<asrwt>0</asrwt>
<pdfrwt beam="1">  1        2 0.14302890E+00 0.57925975E+03</pdfrwt>
<pdfrwt beam="2">  1       -2 0.76003421E-01 0.57925975E+03</pdfrwt>
<totfact> 0.44811772E+01</totfact>
</mgrwt>
</event>
<event>
 4    1  0.1726795E-008  0.4939745E+03  0.7818608E-02  0.1015364E+00
          2   -1    0    0  501    0  0.00000000000E+00  0.00000000000E+00  0.22109707493E+04  0.22109707493E+04  0.25500000000E-02 0. -1.
         -2   -1    0    0    0  501 -0.00000000000E+00 -0.00000000000E+00 -0.16938850178E+04  0.16938850178E+04  0.25500000000E-02 0.  1.
    8880022    1    1    2    0    0 -0.87126442137E+02  0.46154968842E+03 -0.16292094126E+04  0.17024494398E+04  0.15294330000E+03 0.  0.
    8880022    1    1    2    0    0  0.87126442137E+02 -0.46154968842E+03  0.21462951442E+04  0.22024063273E+04  0.15294330000E+03 0. -1.
<mgrwt>
<rscale>  0 0.49397448E+03</rscale>
<asrwt>0</asrwt>
<pdfrwt beam="1">  1        2 0.34014934E+00 0.49397448E+03</pdfrwt>
<pdfrwt beam="2">  1       -2 0.26059770E+00 0.49397448E+03</pdfrwt>
<totfact> 0.32352796E-01</totfact>
</mgrwt>
</event>
<event>
 4    1  0.1726795E-008  0.1237381E+04  0.7818608E-02  0.9080752E-01
         -2   -1    0    0    0  501 -0.00000000000E+00  0.00000000000E+00  0.46681496203E+03  0.46681496204E+03  0.25500000000E-02 0.  1.
          2   -1    0    0  501    0  0.00000000000E+00 -0.00000000000E+00 -0.35965008646E+04  0.35965008646E+04  0.25500000000E-02 0. -1.
    8880022    1    1    2    0    0 -0.11743859883E+04 -0.35852179708E+03 -0.96206363951E+03  0.15673794779E+04  0.15294330000E+03 0.  0.
    8880022    1    1    2    0    0  0.11743859883E+04  0.35852179708E+03 -0.21676222630E+04  0.24959363487E+04  0.15294330000E+03 0.  0.
<mgrwt>
<rscale>  0 0.12373811E+04</rscale>
<asrwt>0</asrwt>
<pdfrwt beam="1">  1        2 0.55330781E+00 0.12373811E+04</pdfrwt>
<pdfrwt beam="2">  1       -2 0.71817689E-01 0.12373811E+04</pdfrwt>
<totfact> 0.12223788E+00</totfact>
</mgrwt>
</event>
<event>
 4    1  0.1726795E-008  0.9201196E+03  0.7818608E-02  0.9400775E-01
          2   -1    0    0  501    0  0.00000000000E+00  0.00000000000E+00  0.16315861683E+04  0.16315861683E+04  0.25500000000E-02 0. -1.
         -2   -1    0    0    0  501 -0.00000000000E+00 -0.00000000000E+00 -0.79178326831E+03  0.79178326832E+03  0.25500000000E-02 0.  1.
    8880022    1    1    2    0    0  0.77909372583E+03  0.46501761999E+03  0.11312456526E+04  0.14581964203E+04  0.15294330000E+03 0.  0.
    8880022    1    1    2    0    0 -0.77909372583E+03 -0.46501761999E+03 -0.29144275258E+03  0.96517301639E+03  0.15294330000E+03 0.  0.
<mgrwt>
<rscale>  0 0.92011960E+03</rscale>
<asrwt>0</asrwt>
<pdfrwt beam="1">  1        2 0.25101325E+00 0.92011960E+03</pdfrwt>
<pdfrwt beam="2">  1       -2 0.12181281E+00 0.92011960E+03</pdfrwt>
<totfact> 0.55005637E+00</totfact>
</mgrwt>
</event>
<event>
 4    1  0.1726795E-008  0.1252568E+04  0.7818608E-02  0.9068048E-01
          2   -1    0    0  501    0  0.00000000000E+00  0.00000000000E+00  0.11317183228E+04  0.11317183228E+04  0.25500000000E-02 0. -1.
         -2   -1    0    0    0  501 -0.00000000000E+00 -0.00000000000E+00 -0.21205327907E+04  0.21205327907E+04  0.25500000000E-02 0.  1.
    8880022    1    1    2    0    0  0.12223667541E+04 -0.22661730815E+03  0.46243769762E+03  0.13352064121E+04  0.15294330000E+03 0.  0.
    8880022    1    1    2    0    0 -0.12223667541E+04  0.22661730815E+03 -0.14512521655E+04  0.19170447013E+04  0.15294330000E+03 0.  1.
<mgrwt>
<rscale>  0 0.12525684E+04</rscale>
<asrwt>0</asrwt>
<pdfrwt beam="1">  1        2 0.17411051E+00 0.12525684E+04</pdfrwt>
<pdfrwt beam="2">  1       -2 0.32623581E+00 0.12525684E+04</pdfrwt>
<totfact> 0.44397483E-01</totfact>
</mgrwt>
</event>
<event>
 4    1  0.1726795E-008  0.7944929E+03  0.7818608E-02  0.9568023E-01
          2   -1    0    0  501    0  0.00000000000E+00  0.00000000000E+00  0.22185242543E+04  0.22185242543E+04  0.25500000000E-02 0. -1.
         -2   -1    0    0    0  501 -0.00000000000E+00 -0.00000000000E+00 -0.81842139963E+03  0.81842139964E+03  0.25500000000E-02 0.  1.
    8880022    1    1    2    0    0  0.13383677789E+03 -0.76805929002E+03  0.19264968967E+04  0.20838928240E+04  0.15294330000E+03 0.  0.
    8880022    1    1    2    0    0 -0.13383677789E+03  0.76805929002E+03 -0.52639404202E+03  0.95305282991E+03  0.15294330000E+03 0.  1.
<mgrwt>
<rscale>  0 0.79449293E+03</rscale>
<asrwt>0</asrwt>
<pdfrwt beam="1">  1        2 0.34131142E+00 0.79449293E+03</pdfrwt>
<pdfrwt beam="2">  1       -2 0.12591099E+00 0.79449293E+03</pdfrwt>
<totfact> 0.24547601E+00</totfact>
</mgrwt>
</event>
<event>
 4    1  0.1726795E-008  0.5060904E+03  0.7818608E-02  0.1012201E+00
          2   -1    0    0  501    0  0.00000000000E+00  0.00000000000E+00  0.11109624160E+04  0.11109624160E+04  0.25500000000E-02 0. -1.
         -2   -1    0    0    0  501 -0.00000000000E+00 -0.00000000000E+00 -0.36578338177E+03  0.36578338178E+03  0.25500000000E-02 0.  1.
    8880022    1    1    2    0    0  0.16413868343E+03  0.45364563924E+03  0.82155477879E+03  0.96492475404E+03  0.15294330000E+03 0.  0.
    8880022    1    1    2    0    0 -0.16413868343E+03 -0.45364563924E+03 -0.76375744593E+02  0.51182104370E+03  0.15294330000E+03 0.  1.
<mgrwt>
<rscale>  0 0.50609043E+03</rscale>
<asrwt>0</asrwt>
<pdfrwt beam="1">  1        2 0.17091729E+00 0.50609043E+03</pdfrwt>
<pdfrwt beam="2">  1       -2 0.56274367E-01 0.50609043E+03</pdfrwt>
<totfact> 0.66250643E+01</totfact>
</mgrwt>
</event>
<event>
 4    1  0.1726795E-008  0.1150265E+04  0.7818608E-02  0.9157539E-01
          2   -1    0    0  501    0  0.00000000000E+00  0.00000000000E+00  0.13688286164E+04  0.13688286164E+04  0.25500000000E-02 0. -1.
         -2   -1    0    0    0  501 -0.00000000000E+00 -0.00000000000E+00 -0.13224273243E+04  0.13224273243E+04  0.25500000000E-02 0.  1.
    8880022    1    1    2    0    0  0.70878414362E+03  0.89294073611E+03 -0.67480467206E+03  0.13335933109E+04  0.15294330000E+03 0.  0.
    8880022    1    1    2    0    0 -0.70878414362E+03 -0.89294073611E+03  0.72120596420E+03  0.13576626298E+04  0.15294330000E+03 0.  0.
<mgrwt>
<rscale>  0 0.11502651E+04</rscale>
<asrwt>0</asrwt>
<pdfrwt beam="1">  1        2 0.21058902E+00 0.11502651E+04</pdfrwt>
<pdfrwt beam="2">  1       -2 0.20345036E+00 0.11502651E+04</pdfrwt>
<totfact> 0.18574491E+00</totfact>
</mgrwt>
</event>
<event>
 4    1  0.1726795E-008  0.5929636E+03  0.7818608E-02  0.9920113E-01
          2   -1    0    0  501    0  0.00000000000E+00  0.00000000000E+00  0.79199802760E+03  0.79199802761E+03  0.25500000000E-02 0. -1.
         -2   -1    0    0    0  501 -0.00000000000E+00 -0.00000000000E+00 -0.75875031056E+03  0.75875031057E+03  0.25500000000E-02 0.  1.
    8880022    1    1    2    0    0  0.32434542270E+03  0.47224377162E+03 -0.48281344582E+03  0.76466633870E+03  0.15294330000E+03 0.  0.
    8880022    1    1    2    0    0 -0.32434542270E+03 -0.47224377162E+03  0.51606116286E+03  0.78608199947E+03  0.15294330000E+03 0.  0.
<mgrwt>
<rscale>  0 0.59296356E+03</rscale>
<asrwt>0</asrwt>
<pdfrwt beam="1">  1        2 0.12184585E+00 0.59296356E+03</pdfrwt>
<pdfrwt beam="2">  1       -2 0.11673082E+00 0.59296356E+03</pdfrwt>
<totfact> 0.20480297E+01</totfact>
</mgrwt>
</event>
<event>
 4    1  0.1726795E-008  0.1362451E+04  0.7818608E-02  0.8981456E-01
          2   -1    0    0  501    0  0.00000000000E+00  0.00000000000E+00  0.11822982241E+04  0.11822982241E+04  0.25500000000E-02 0. -1.
         -2   -1    0    0    0  501 -0.00000000000E+00 -0.00000000000E+00 -0.18998373546E+04  0.18998373546E+04  0.25500000000E-02 0.  1.
    8880022    1    1    2    0    0  0.10171314056E+04 -0.89349064922E+03 -0.10008317602E+04  0.16905436113E+04  0.15294330000E+03 0.  0.
    8880022    1    1    2    0    0 -0.10171314056E+04  0.89349064922E+03  0.28329262970E+03  0.13915919674E+04  0.15294330000E+03 0.  0.
<mgrwt>
<rscale>  0 0.13624513E+04</rscale>
<asrwt>0</asrwt>
<pdfrwt beam="1">  1        2 0.18189203E+00 0.13624513E+04</pdfrwt>
<pdfrwt beam="2">  1       -2 0.29228267E+00 0.13624513E+04</pdfrwt>
<totfact> 0.65889237E-01</totfact>
</mgrwt>
</event>
<event>
 4    1  0.1726795E-008  0.9879690E+03  0.7818608E-02  0.9321839E-01
         -2   -1    0    0    0  501 -0.00000000000E+00  0.00000000000E+00  0.82296794601E+03  0.82296794602E+03  0.25500000000E-02 0.  1.
          2   -1    0    0  501    0  0.00000000000E+00 -0.00000000000E+00 -0.30768019067E+04  0.30768019067E+04  0.25500000000E-02 0. -1.
    8880022    1    1    2    0    0  0.89451221046E+01  0.97601800591E+03 -0.26554550247E+04  0.28332885847E+04  0.15294330000E+03 0.  0.
    8880022    1    1    2    0    0 -0.89451221046E+01 -0.97601800591E+03  0.40162106397E+03  0.10664812680E+04  0.15294330000E+03 0.  0.
<mgrwt>
<rscale>  0 0.98796904E+03</rscale>
<asrwt>0</asrwt>
<pdfrwt beam="1">  1        2 0.47335413E+00 0.98796904E+03</pdfrwt>
<pdfrwt beam="2">  1       -2 0.12661045E+00 0.98796904E+03</pdfrwt>
<totfact> 0.73861701E-01</totfact>
</mgrwt>
</event>
<event>
 4    1  0.1726795E-008  0.7099603E+03  0.7818608E-02  0.9700349E-01
          2   -1    0    0  501    0  0.00000000000E+00  0.00000000000E+00  0.27223687461E+04  0.27223687461E+04  0.25500000000E-02 0. -1.
         -2   -1    0    0    0  501 -0.00000000000E+00 -0.00000000000E+00 -0.43716718628E+03  0.43716718629E+03  0.25500000000E-02 0.  1.
    8880022    1    1    2    0    0  0.22829353512E+03  0.65462512049E+03  0.23420601259E+04  0.24473024482E+04  0.15294330000E+03 0.  0.
    8880022    1    1    2    0    0 -0.22829353512E+03 -0.65462512049E+03 -0.56858566034E+02  0.71223348426E+03  0.15294330000E+03 0.  0.
<mgrwt>
<rscale>  0 0.70996031E+03</rscale>
<asrwt>0</asrwt>
<pdfrwt beam="1">  1        2 0.41882598E+00 0.70996031E+03</pdfrwt>
<pdfrwt beam="2">  1       -2 0.67256488E-01 0.70996031E+03</pdfrwt>
<totfact> 0.55596758E+00</totfact>
</mgrwt>
</event>
<event>
 4    1  0.1726795E-008  0.7266871E+03  0.7818608E-02  0.9672652E-01
          2   -1    0    0  501    0  0.00000000000E+00  0.00000000000E+00  0.25831719565E+04  0.25831719565E+04  0.25500000000E-02 0. -1.
         -2   -1    0    0    0  501 -0.00000000000E+00 -0.00000000000E+00 -0.25753579216E+03  0.25753579218E+03  0.25500000000E-02 0.  1.
    8880022    1    1    2    0    0 -0.61514548542E+03  0.35535688905E+03  0.51782572268E+03  0.89231027054E+03  0.15294330000E+03 0.  0.
    8880022    1    1    2    0    0  0.61514548542E+03 -0.35535688905E+03  0.18078104417E+04  0.19483974782E+04  0.15294330000E+03 0.  0.
<mgrwt>
<rscale>  0 0.72668710E+03</rscale>
<asrwt>0</asrwt>
<pdfrwt beam="1">  1        2 0.39741107E+00 0.72668710E+03</pdfrwt>
<pdfrwt beam="2">  1       -2 0.39620892E-01 0.72668710E+03</pdfrwt>
<totfact> 0.19729933E+01</totfact>
</mgrwt>
</event>
<event>
 4    1  0.1726795E-008  0.1400575E+04  0.7818608E-02  0.8953402E-01
         -2   -1    0    0    0  501 -0.00000000000E+00  0.00000000000E+00  0.11346370178E+04  0.11346370178E+04  0.25500000000E-02 0.  1.
          2   -1    0    0  501    0  0.00000000000E+00 -0.00000000000E+00 -0.19841773020E+04  0.19841773020E+04  0.25500000000E-02 0. -1.
    8880022    1    1    2    0    0  0.13040897357E+04  0.48741005635E+03  0.13463071211E+03  0.14070308041E+04  0.15294330000E+03 0.  0.
    8880022    1    1    2    0    0 -0.13040897357E+04 -0.48741005635E+03 -0.98417099627E+03  0.17117835158E+04  0.15294330000E+03 0.  0.
<mgrwt>
<rscale>  0 0.14005750E+04</rscale>
<asrwt>0</asrwt>
<pdfrwt beam="1">  1        2 0.30525805E+00 0.14005750E+04</pdfrwt>
<pdfrwt beam="2">  1       -2 0.17455954E+00 0.14005750E+04</pdfrwt>
<totfact> 0.12828188E+00</totfact>
</mgrwt>
</event>
<event>
 4    1  0.1726795E-008  0.1631710E+04  0.7818608E-02  0.8801301E-01
          2   -1    0    0  501    0  0.00000000000E+00  0.00000000000E+00  0.21960212990E+04  0.21960212990E+04  0.25500000000E-02 0. -1.
         -2   -1    0    0    0  501 -0.00000000000E+00 -0.00000000000E+00 -0.16816502122E+04  0.16816502122E+04  0.25500000000E-02 0.  1.
    8880022    1    1    2    0    0 -0.11526248951E+04  0.11447890171E+04  0.12813528332E+04  0.20746910080E+04  0.15294330000E+03 0.  0.
    8880022    1    1    2    0    0  0.11526248951E+04 -0.11447890171E+04 -0.76698174638E+03  0.18029805032E+04  0.15294330000E+03 0.  0.
<mgrwt>
<rscale>  0 0.16317101E+04</rscale>
<asrwt>0</asrwt>
<pdfrwt beam="1">  1        2 0.33784943E+00 0.16317101E+04</pdfrwt>
<pdfrwt beam="2">  1       -2 0.25871542E+00 0.16317101E+04</pdfrwt>
<totfact> 0.27237385E-01</totfact>
</mgrwt>
</event>
<event>
 4    1  0.1726795E-008  0.4433648E+03  0.7818608E-02  0.1029719E+00
          2   -1    0    0  501    0  0.00000000000E+00  0.00000000000E+00  0.37835860177E+03  0.37835860178E+03  0.25500000000E-02 0. -1.
         -2   -1    0    0    0  501 -0.00000000000E+00 -0.00000000000E+00 -0.76052391920E+03  0.76052391920E+03  0.25500000000E-02 0.  1.
    8880022    1    1    2    0    0  0.33719942736E+02  0.41478142883E+03  0.12946069683E+03  0.46187919771E+03  0.15294330000E+03 0.  0.
    8880022    1    1    2    0    0 -0.33719942736E+02 -0.41478142883E+03 -0.51162601426E+03  0.67700332327E+03  0.15294330000E+03 0.  1.
<mgrwt>
<rscale>  0 0.44336477E+03</rscale>
<asrwt>0</asrwt>
<pdfrwt beam="1">  1        2 0.58209016E-01 0.44336477E+03</pdfrwt>
<pdfrwt beam="2">  1       -2 0.11700368E+00 0.44336477E+03</pdfrwt>
<totfact> 0.49571463E+01</totfact>
</mgrwt>
</event>
<event>
 4    1  0.1726795E-008  0.1814944E+04  0.7818608E-02  0.8698393E-01
          2   -1    0    0  501    0  0.00000000000E+00  0.00000000000E+00  0.97160385616E+03  0.97160385616E+03  0.25500000000E-02 0. -1.
         -2   -1    0    0    0  501 -0.00000000000E+00 -0.00000000000E+00 -0.41810222204E+04  0.41810222204E+04  0.25500000000E-02 0.  1.
    8880022    1    1    2    0    0 -0.22065022064E+03  0.17949768623E+04 -0.27251057042E+04  0.32741748896E+04  0.15294330000E+03 0.  0.
    8880022    1    1    2    0    0  0.22065022064E+03 -0.17949768623E+04 -0.48431266003E+03  0.18784511869E+04  0.15294330000E+03 0.  0.
<mgrwt>
<rscale>  0 0.18149436E+04</rscale>
<asrwt>0</asrwt>
<pdfrwt beam="1">  1        2 0.14947752E+00 0.18149436E+04</pdfrwt>
<pdfrwt beam="2">  1       -2 0.64323418E+00 0.18149436E+04</pdfrwt>
<totfact> 0.82958871E-03</totfact>
</mgrwt>
</event>
<event>
 4    1  0.1726795E-008  0.8446392E+03  0.7818608E-02  0.9497560E-01
         -2   -1    0    0    0  501 -0.00000000000E+00  0.00000000000E+00  0.59981540352E+03  0.59981540352E+03  0.25500000000E-02 0.  1.
          2   -1    0    0  501    0  0.00000000000E+00 -0.00000000000E+00 -0.18055309825E+04  0.18055309825E+04  0.25500000000E-02 0. -1.
    8880022    1    1    2    0    0 -0.62488204350E+03 -0.54730815291E+03 -0.13054197365E+04  0.15548427972E+04  0.15294330000E+03 0.  0.
    8880022    1    1    2    0    0  0.62488204350E+03  0.54730815291E+03  0.99704157550E+02  0.85050358881E+03  0.15294330000E+03 0.  0.
<mgrwt>
<rscale>  0 0.84463923E+03</rscale>
<asrwt>0</asrwt>
<pdfrwt beam="1">  1        2 0.27777400E+00 0.84463923E+03</pdfrwt>
<pdfrwt beam="2">  1       -2 0.92279293E-01 0.84463923E+03</pdfrwt>
<totfact> 0.86947422E+00</totfact>
</mgrwt>
</event>
<event>
 4    1  0.1726795E-008  0.8253957E+03  0.7818608E-02  0.9523968E-01
          2   -1    0    0  501    0  0.00000000000E+00  0.00000000000E+00  0.25361928918E+04  0.25361928918E+04  0.25500000000E-02 0. -1.
         -2   -1    0    0    0  501 -0.00000000000E+00 -0.00000000000E+00 -0.84867327443E+03  0.84867327444E+03  0.25500000000E-02 0.  1.
    8880022    1    1    2    0    0 -0.58580562505E+03  0.56099754934E+03 -0.55542247994E+03  0.99487298935E+03  0.15294330000E+03 0.  0.
    8880022    1    1    2    0    0  0.58580562505E+03 -0.56099754934E+03  0.22429420973E+04  0.23899931768E+04  0.15294330000E+03 0.  0.
<mgrwt>
<rscale>  0 0.82539574E+03</rscale>
<asrwt>0</asrwt>
<pdfrwt beam="1">  1        2 0.39018352E+00 0.82539574E+03</pdfrwt>
<pdfrwt beam="2">  1       -2 0.13056512E+00 0.82539574E+03</pdfrwt>
<totfact> 0.14773911E+00</totfact>
</mgrwt>
</event>
<event>
 4    1  0.1726795E-008  0.1668234E+04  0.7818608E-02  0.8779692E-01
          2   -1    0    0  501    0  0.00000000000E+00  0.00000000000E+00  0.16101824140E+04  0.16101824140E+04  0.25500000000E-02 0. -1.
         -2   -1    0    0    0  501 -0.00000000000E+00 -0.00000000000E+00 -0.21287899020E+04  0.21287899020E+04  0.25500000000E-02 0.  1.
    8880022    1    1    2    0    0 -0.97074928642E+03 -0.13480576718E+04 -0.10700946181E+04  0.19819454604E+04  0.15294330000E+03 0.  0.
    8880022    1    1    2    0    0  0.97074928642E+03  0.13480576718E+04  0.55148713006E+03  0.17570268555E+04  0.15294330000E+03 0.  0.
<mgrwt>
<rscale>  0 0.16682342E+04</rscale>
<asrwt>0</asrwt>
<pdfrwt beam="1">  1        2 0.24772037E+00 0.16682342E+04</pdfrwt>
<pdfrwt beam="2">  1       -2 0.32750614E+00 0.16682342E+04</pdfrwt>
<totfact> 0.21868749E-01</totfact>
</mgrwt>
</event>
<event>
 4    1  0.1726795E-008  0.3334789E+03  0.7818608E-02  0.1069608E+00
         -2   -1    0    0    0  501 -0.00000000000E+00  0.00000000000E+00  0.50186752890E+02  0.50186752955E+02  0.25500000000E-02 0.  1.
          2   -1    0    0  501    0  0.00000000000E+00 -0.00000000000E+00 -0.35935299544E+04  0.35935299544E+04  0.25500000000E-02 0. -1.
    8880022    1    1    2    0    0  0.20182285643E+03 -0.21698855949E+03 -0.28997060797E+04  0.29188188540E+04  0.15294330000E+03 0.  0.
    8880022    1    1    2    0    0 -0.20182285643E+03  0.21698855949E+03 -0.64363712179E+03  0.72489785342E+03  0.15294330000E+03 0.  0.
<mgrwt>
<rscale>  0 0.33347886E+03</rscale>
<asrwt>0</asrwt>
<pdfrwt beam="1">  1        2 0.55285056E+00 0.33347886E+03</pdfrwt>
<pdfrwt beam="2">  1       -2 0.77210417E-02 0.33347886E+03</pdfrwt>
<totfact> 0.85867315E+01</totfact>
</mgrwt>
</event>
<event>
 4    1  0.1726795E-008  0.4065945E+03  0.7818608E-02  0.1041520E+00
          2   -1    0    0  501    0  0.00000000000E+00  0.00000000000E+00  0.25700266581E+04  0.25700266581E+04  0.25500000000E-02 0. -1.
         -2   -1    0    0    0  501 -0.00000000000E+00 -0.00000000000E+00 -0.72413269506E+03  0.72413269506E+03  0.25500000000E-02 0.  1.
    8880022    1    1    2    0    0  0.34136854063E+03  0.15935794761E+03 -0.64927529794E+03  0.76607930499E+03  0.15294330000E+03 0.  0.
    8880022    1    1    2    0    0 -0.34136854063E+03 -0.15935794761E+03  0.24951692610E+04  0.25280800481E+04  0.15294330000E+03 0.  0.
<mgrwt>
<rscale>  0 0.40659450E+03</rscale>
<asrwt>0</asrwt>
<pdfrwt beam="1">  1        2 0.39538872E+00 0.40659450E+03</pdfrwt>
<pdfrwt beam="2">  1       -2 0.11140503E+00 0.40659450E+03</pdfrwt>
<totfact> 0.23325968E+00</totfact>
</mgrwt>
</event>
<event>
 4    1  0.1726795E-008  0.4601885E+03  0.7818608E-02  0.1024727E+00
         -2   -1    0    0    0  501 -0.00000000000E+00  0.00000000000E+00  0.56680440488E+03  0.56680440489E+03  0.25500000000E-02 0.  1.
          2   -1    0    0  501    0  0.00000000000E+00 -0.00000000000E+00 -0.16681220522E+04  0.16681220522E+04  0.25500000000E-02 0. -1.
    8880022    1    1    2    0    0 -0.11177839311E+03  0.41938929372E+03 -0.15350541042E+04  0.16025493892E+04  0.15294330000E+03 0.  0.
    8880022    1    1    2    0    0  0.11177839311E+03 -0.41938929372E+03  0.43373645696E+03  0.63237706786E+03  0.15294330000E+03 0.  0.
<mgrwt>
<rscale>  0 0.46018849E+03</rscale>
<asrwt>0</asrwt>
<pdfrwt beam="1">  1        2 0.25663416E+00 0.46018849E+03</pdfrwt>
<pdfrwt beam="2">  1       -2 0.87200678E-01 0.46018849E+03</pdfrwt>
<totfact> 0.12557743E+01</totfact>
</mgrwt>
</event>
<event>
 4    1  0.1726795E-008  0.8659787E+03  0.7818608E-02  0.9469138E-01
          2   -1    0    0  501    0  0.00000000000E+00  0.00000000000E+00  0.12626909020E+04  0.12626909020E+04  0.25500000000E-02 0. -1.
         -2   -1    0    0    0  501 -0.00000000000E+00 -0.00000000000E+00 -0.12098726793E+04  0.12098726794E+04  0.25500000000E-02 0.  1.
    8880022    1    1    2    0    0 -0.54317008612E+03  0.65688178376E+03  0.90852658131E+03  0.12551253412E+04  0.15294330000E+03 0.  0.
    8880022    1    1    2    0    0  0.54317008612E+03 -0.65688178376E+03 -0.85570835868E+03  0.12174382401E+04  0.15294330000E+03 0.  0.
<mgrwt>
<rscale>  0 0.86597868E+03</rscale>
<asrwt>0</asrwt>
<pdfrwt beam="1">  1        2 0.19426014E+00 0.86597868E+03</pdfrwt>
<pdfrwt beam="2">  1       -2 0.18613426E+00 0.86597868E+03</pdfrwt>
<totfact> 0.28865453E+00</totfact>
</mgrwt>
</event>
<event>
 4    1  0.1726795E-008  0.7805331E+03  0.7818608E-02  0.9588630E-01
          2   -1    0    0  501    0  0.00000000000E+00  0.00000000000E+00  0.81913497350E+03  0.81913497350E+03  0.25500000000E-02 0. -1.
         -2   -1    0    0    0  501 -0.00000000000E+00 -0.00000000000E+00 -0.89202707834E+03  0.89202707834E+03  0.25500000000E-02 0.  1.
    8880022    1    1    2    0    0  0.59873652604E+03  0.47681734819E+03 -0.38527195676E+03  0.87044031664E+03  0.15294330000E+03 0.  0.
    8880022    1    1    2    0    0 -0.59873652604E+03 -0.47681734819E+03  0.31237985192E+03  0.84072173521E+03  0.15294330000E+03 0.  0.
<mgrwt>
<rscale>  0 0.78053306E+03</rscale>
<asrwt>0</asrwt>
<pdfrwt beam="1">  1        2 0.12602077E+00 0.78053306E+03</pdfrwt>
<pdfrwt beam="2">  1       -2 0.13723493E+00 0.78053306E+03</pdfrwt>
<totfact> 0.12777739E+01</totfact>
</mgrwt>
</event>
<event>
 4    1  0.1726795E-008  0.1286826E+04  0.7818608E-02  0.9040078E-01
         -2   -1    0    0    0  501 -0.00000000000E+00  0.00000000000E+00  0.12094526627E+04  0.12094526627E+04  0.25500000000E-02 0.  1.
          2   -1    0    0  501    0  0.00000000000E+00 -0.00000000000E+00 -0.21369613785E+04  0.21369613785E+04  0.25500000000E-02 0. -1.
    8880022    1    1    2    0    0  0.21905688928E+03 -0.12587870111E+04 -0.14667027044E+04  0.19511891595E+04  0.15294330000E+03 0.  0.
    8880022    1    1    2    0    0 -0.21905688928E+03  0.12587870111E+04  0.53919398868E+03  0.13952248817E+04  0.15294330000E+03 0.  0.
<mgrwt>
<rscale>  0 0.12868265E+04</rscale>
<asrwt>0</asrwt>
<pdfrwt beam="1">  1        2 0.32876329E+00 0.12868265E+04</pdfrwt>
<pdfrwt beam="2">  1       -2 0.18606964E+00 0.12868265E+04</pdfrwt>
<totfact> 0.88821136E-01</totfact>
</mgrwt>
</event>
<event>
 4    1  0.1726795E-008  0.4993034E+03  0.7818608E-02  0.1013961E+00
          2   -1    0    0  501    0  0.00000000000E+00  0.00000000000E+00  0.11368677826E+04  0.11368677826E+04  0.25500000000E-02 0. -1.
         -2   -1    0    0    0  501 -0.00000000000E+00 -0.00000000000E+00 -0.92324267924E+03  0.92324267925E+03  0.25500000000E-02 0.  1.
    8880022    1    1    2    0    0 -0.32191712847E+03  0.34968783678E+03  0.10062568464E+04  0.11233239580E+04  0.15294330000E+03 0.  0.
    8880022    1    1    2    0    0  0.32191712847E+03 -0.34968783678E+03 -0.79263174298E+03  0.93678650385E+03  0.15294330000E+03 0.  0.
<mgrwt>
<rscale>  0 0.49930339E+03</rscale>
<asrwt>0</asrwt>
<pdfrwt beam="1">  1        2 0.17490274E+00 0.49930339E+03</pdfrwt>
<pdfrwt beam="2">  1       -2 0.14203734E+00 0.49930339E+03</pdfrwt>
<totfact> 0.75942694E+00</totfact>
</mgrwt>
</event>
<event>
 4    1  0.1726795E-008  0.7928446E+03  0.7818608E-02  0.9570432E-01
         -2   -1    0    0    0  501 -0.00000000000E+00  0.00000000000E+00  0.30992141644E+03  0.30992141645E+03  0.25500000000E-02 0.  1.
          2   -1    0    0  501    0  0.00000000000E+00 -0.00000000000E+00 -0.44278863445E+04  0.44278863445E+04  0.25500000000E-02 0. -1.
    8880022    1    1    2    0    0  0.44544910036E+03 -0.63779780865E+03 -0.31508633895E+03  0.85316000828E+03  0.15294330000E+03 0.  0.
    8880022    1    1    2    0    0 -0.44544910036E+03  0.63779780865E+03 -0.38028785891E+04  0.38846477527E+04  0.15294330000E+03 0.  0.
<mgrwt>
<rscale>  0 0.79284462E+03</rscale>
<asrwt>0</asrwt>
<pdfrwt beam="1">  1        2 0.68121324E+00 0.79284462E+03</pdfrwt>
<pdfrwt beam="2">  1       -2 0.47680221E-01 0.79284462E+03</pdfrwt>
<totfact> 0.67681101E-01</totfact>
</mgrwt>
</event>
<event>
 4    1  0.1726795E-008  0.2610366E+03  0.7818608E-02  0.1106522E+00
          2   -1    0    0  501    0  0.00000000000E+00  0.00000000000E+00  0.30191099055E+04  0.30191099055E+04  0.25500000000E-02 0. -1.
         -2   -1    0    0    0  501 -0.00000000000E+00 -0.00000000000E+00 -0.13944508264E+03  0.13944508266E+03  0.25500000000E-02 0.  1.
    8880022    1    1    2    0    0 -0.16493370246E+03 -0.13245878206E+03 -0.60019763660E+01  0.26110559528E+03  0.15294330000E+03 0.  1.
    8880022    1    1    2    0    0  0.16493370246E+03  0.13245878206E+03  0.28856667993E+04  0.28974493929E+04  0.15294330000E+03 0.  0.
<mgrwt>
<rscale>  0 0.26103660E+03</rscale>
<asrwt>0</asrwt>
<pdfrwt beam="1">  1        2 0.46447847E+00 0.26103660E+03</pdfrwt>
<pdfrwt beam="2">  1       -2 0.21453089E-01 0.26103660E+03</pdfrwt>
<totfact> 0.38257668E+01</totfact>
</mgrwt>
</event>
<event>
 4    1  0.1726795E-008  0.3919626E+03  0.7818608E-02  0.1046599E+00
         -2   -1    0    0    0  501 -0.00000000000E+00  0.00000000000E+00  0.10685551975E+03  0.10685551978E+03  0.25500000000E-02 0.  1.
          2   -1    0    0  501    0  0.00000000000E+00 -0.00000000000E+00 -0.29865403371E+04  0.29865403371E+04  0.25500000000E-02 0. -1.
    8880022    1    1    2    0    0  0.45393080179E+02  0.35802588081E+03 -0.32602644596E+03  0.50983130498E+03  0.15294330000E+03 0.  0.
    8880022    1    1    2    0    0 -0.45393080179E+02 -0.35802588081E+03 -0.25536583714E+04  0.25835645519E+04  0.15294330000E+03 0.  0.
<mgrwt>
<rscale>  0 0.39196265E+03</rscale>
<asrwt>0</asrwt>
<pdfrwt beam="1">  1        2 0.45946768E+00 0.39196265E+03</pdfrwt>
<pdfrwt beam="2">  1       -2 0.16439313E-01 0.39196265E+03</pdfrwt>
<totfact> 0.60189119E+01</totfact>
</mgrwt>
</event>
<event>
 4    1  0.1726795E-008  0.7700708E+03  0.7818608E-02  0.9604378E-01
          2   -1    0    0  501    0  0.00000000000E+00  0.00000000000E+00  0.10555678663E+04  0.10555678663E+04  0.25500000000E-02 0. -1.
         -2   -1    0    0    0  501 -0.00000000000E+00 -0.00000000000E+00 -0.97763802001E+03  0.97763802001E+03  0.25500000000E-02 0.  1.
    8880022    1    1    2    0    0 -0.55880312834E+03  0.50730310463E+03  0.70198834386E+03  0.10420156737E+04  0.15294330000E+03 0.  0.
    8880022    1    1    2    0    0  0.55880312834E+03 -0.50730310463E+03 -0.62405849758E+03  0.99119021264E+03  0.15294330000E+03 0.  0.
<mgrwt>
<rscale>  0 0.77007079E+03</rscale>
<asrwt>0</asrwt>
<pdfrwt beam="1">  1        2 0.16239506E+00 0.77007079E+03</pdfrwt>
<pdfrwt beam="2">  1       -2 0.15040585E+00 0.77007079E+03</pdfrwt>
<totfact> 0.70222448E+00</totfact>
</mgrwt>
</event>
<event>
 4    1  0.1726795E-008  0.9020377E+03  0.7818608E-02  0.9423038E-01
          2   -1    0    0  501    0  0.00000000000E+00  0.00000000000E+00  0.16737000935E+04  0.16737000935E+04  0.25500000000E-02 0. -1.
         -2   -1    0    0    0  501 -0.00000000000E+00 -0.00000000000E+00 -0.53724468333E+03  0.53724468333E+03  0.25500000000E-02 0.  1.
    8880022    1    1    2    0    0  0.56672695554E+03 -0.68490942936E+03  0.22731531719E+03  0.93023882686E+03  0.15294330000E+03 0.  0.
    8880022    1    1    2    0    0 -0.56672695554E+03  0.68490942936E+03  0.90914009294E+03  0.12807059499E+04  0.15294330000E+03 0.  0.
<mgrwt>
<rscale>  0 0.90203771E+03</rscale>
<asrwt>0</asrwt>
<pdfrwt beam="1">  1        2 0.25749232E+00 0.90203771E+03</pdfrwt>
<pdfrwt beam="2">  1       -2 0.82653028E-01 0.90203771E+03</pdfrwt>
<totfact> 0.13138223E+01</totfact>
</mgrwt>
</event>
<event>
 4    1  0.1726795E-008  0.2281063E+03  0.7818608E-02  0.1127980E+00
          2   -1    0    0  501    0  0.00000000000E+00  0.00000000000E+00  0.96483386082E+03  0.96483386082E+03  0.25500000000E-02 0. -1.
         -2   -1    0    0    0  501 -0.00000000000E+00 -0.00000000000E+00 -0.57945992241E+03  0.57945992242E+03  0.25500000000E-02 0.  1.
    8880022    1    1    2    0    0 -0.73959577384E+02 -0.15221966940E+03 -0.54265164783E+03  0.58864531829E+03  0.15294330000E+03 0.  1.
    8880022    1    1    2    0    0  0.73959577384E+02  0.15221966940E+03  0.92802558624E+03  0.95564846495E+03  0.15294330000E+03 0.  0.
<mgrwt>
<rscale>  0 0.22810633E+03</rscale>
<asrwt>0</asrwt>
<pdfrwt beam="1">  1        2 0.14843598E+00 0.22810633E+03</pdfrwt>
<pdfrwt beam="2">  1       -2 0.89147680E-01 0.22810633E+03</pdfrwt>
<totfact> 0.31737282E+01</totfact>
</mgrwt>
</event>
<event>
 4    1  0.1726795E-008  0.6100261E+03  0.7818608E-02  0.9884821E-01
         -2   -1    0    0    0  501 -0.00000000000E+00  0.00000000000E+00  0.35397272897E+03  0.35397272898E+03  0.25500000000E-02 0.  1.
          2   -1    0    0  501    0  0.00000000000E+00 -0.00000000000E+00 -0.15873161061E+04  0.15873161061E+04  0.25500000000E-02 0. -1.
    8880022    1    1    2    0    0  0.59010446929E+03  0.22734592881E+02 -0.52622393166E+02  0.61229152833E+03  0.15294330000E+03 0.  1.
    8880022    1    1    2    0    0 -0.59010446929E+03 -0.22734592881E+02 -0.11807209840E+04  0.13289973068E+04  0.15294330000E+03 0.  1.
<mgrwt>
<rscale>  0 0.61002606E+03</rscale>
<asrwt>0</asrwt>
<pdfrwt beam="1">  1        2 0.24420247E+00 0.61002606E+03</pdfrwt>
<pdfrwt beam="2">  1       -2 0.54457344E-01 0.61002606E+03</pdfrwt>
<totfact> 0.37501047E+01</totfact>
</mgrwt>
</event>
<event>
 4    1  0.1726795E-008  0.5266461E+03  0.7818608E-02  0.1007049E+00
          2   -1    0    0  501    0  0.00000000000E+00  0.00000000000E+00  0.14797510799E+04  0.14797510799E+04  0.25500000000E-02 0. -1.
         -2   -1    0    0    0  501 -0.00000000000E+00 -0.00000000000E+00 -0.32360619210E+03  0.32360619211E+03  0.25500000000E-02 0.  1.
    8880022    1    1    2    0    0  0.50109785976E+03  0.53529317301E+02 -0.68349432520E+01  0.52669044261E+03  0.15294330000E+03 0.  0.
    8880022    1    1    2    0    0 -0.50109785976E+03 -0.53529317301E+02  0.11629798311E+04  0.12766668294E+04  0.15294330000E+03 0.  0.
<mgrwt>
<rscale>  0 0.52664609E+03</rscale>
<asrwt>0</asrwt>
<pdfrwt beam="1">  1        2 0.22765401E+00 0.52664609E+03</pdfrwt>
<pdfrwt beam="2">  1       -2 0.49785568E-01 0.52664609E+03</pdfrwt>
<totfact> 0.52237225E+01</totfact>
</mgrwt>
</event>
<event>
 4    1  0.1726795E-008  0.1561073E+04  0.7818608E-02  0.8844826E-01
         -2   -1    0    0    0  501 -0.00000000000E+00  0.00000000000E+00  0.70311197850E+03  0.70311197850E+03  0.25500000000E-02 0.  1.
          2   -1    0    0  501    0  0.00000000000E+00 -0.00000000000E+00 -0.45466247359E+04  0.45466247359E+04  0.25500000000E-02 0. -1.
    8880022    1    1    2    0    0  0.15119811740E+04  0.35702818809E+03 -0.32014657807E+04  0.35617876124E+04  0.15294330000E+03 0.  0.
    8880022    1    1    2    0    0 -0.15119811740E+04 -0.35702818809E+03 -0.64204697671E+03  0.16879491020E+04  0.15294330000E+03 0.  1.
<mgrwt>
<rscale>  0 0.15610727E+04</rscale>
<asrwt>0</asrwt>
<pdfrwt beam="1">  1        2 0.69948071E+00 0.15610727E+04</pdfrwt>
<pdfrwt beam="2">  1       -2 0.10817108E+00 0.15610727E+04</pdfrwt>
<totfact> 0.73543806E-02</totfact>
</mgrwt>
</event>
<event>
 4    1  0.1726795E-008  0.8907838E+03  0.7818608E-02  0.9437176E-01
         -2   -1    0    0    0  501 -0.00000000000E+00  0.00000000000E+00  0.38537855681E+03  0.38537855682E+03  0.25500000000E-02 0.  1.
          2   -1    0    0  501    0  0.00000000000E+00 -0.00000000000E+00 -0.22882872906E+04  0.22882872906E+04  0.25500000000E-02 0. -1.
    8880022    1    1    2    0    0  0.82654296695E+03  0.29484042793E+03 -0.52829056445E+03  0.10356576305E+04  0.15294330000E+03 0.  0.
    8880022    1    1    2    0    0 -0.82654296695E+03 -0.29484042793E+03 -0.13746181694E+04  0.16380082169E+04  0.15294330000E+03 0.  0.
<mgrwt>
<rscale>  0 0.89078382E+03</rscale>
<asrwt>0</asrwt>
<pdfrwt beam="1">  1        2 0.35204419E+00 0.89078382E+03</pdfrwt>
<pdfrwt beam="2">  1       -2 0.59289010E-01 0.89078382E+03</pdfrwt>
<totfact> 0.12490381E+01</totfact>
</mgrwt>
</event>
<event>
 4    1  0.1726795E-008  0.7279635E+03  0.7818608E-02  0.9670571E-01
         -2   -1    0    0    0  501 -0.00000000000E+00  0.00000000000E+00  0.11895371058E+04  0.11895371058E+04  0.25500000000E-02 0.  1.
          2   -1    0    0  501    0  0.00000000000E+00 -0.00000000000E+00 -0.82049777834E+03  0.82049777834E+03  0.25500000000E-02 0. -1.
    8880022    1    1    2    0    0 -0.61460989650E+03 -0.35887865267E+03 -0.49492343977E+03  0.88027272846E+03  0.15294330000E+03 0.  0.
    8880022    1    1    2    0    0  0.61460989650E+03  0.35887865267E+03  0.86396276718E+03  0.11297621556E+04  0.15294330000E+03 0.  0.
<mgrwt>
<rscale>  0 0.72796351E+03</rscale>
<asrwt>0</asrwt>
<pdfrwt beam="1">  1        2 0.12623043E+00 0.72796351E+03</pdfrwt>
<pdfrwt beam="2">  1       -2 0.18300571E+00 0.72796351E+03</pdfrwt>
<totfact> 0.58869724E+00</totfact>
</mgrwt>
</event>
<event>
 4    1  0.1726795E-008  0.3798658E+03  0.7818608E-02  0.1050983E+00
          2   -1    0    0  501    0  0.00000000000E+00  0.00000000000E+00  0.16809546693E+03  0.16809546695E+03  0.25500000000E-02 0. -1.
         -2   -1    0    0    0  501 -0.00000000000E+00 -0.00000000000E+00 -0.11709201853E+04  0.11709201853E+04  0.25500000000E-02 0.  1.
    8880022    1    1    2    0    0 -0.19283502278E+03  0.28934580717E+03 -0.84728086267E+03  0.92853802044E+03  0.15294330000E+03 0.  1.
    8880022    1    1    2    0    0  0.19283502278E+03 -0.28934580717E+03 -0.15554385566E+03  0.41047763178E+03  0.15294330000E+03 0.  0.
<mgrwt>
<rscale>  0 0.37986576E+03</rscale>
<asrwt>0</asrwt>
<pdfrwt beam="1">  1        2 0.25860842E-01 0.37986576E+03</pdfrwt>
<pdfrwt beam="2">  1       -2 0.18014156E+00 0.37986576E+03</pdfrwt>
<totfact> 0.39852774E+01</totfact>
</mgrwt>
</event>
<event>
 4    1  0.1726795E-008  0.4166583E+03  0.7818608E-02  0.1038159E+00
         -2   -1    0    0    0  501 -0.00000000000E+00  0.00000000000E+00  0.46512959718E+03  0.46512959719E+03  0.25500000000E-02 0.  1.
          2   -1    0    0  501    0  0.00000000000E+00 -0.00000000000E+00 -0.15648586195E+04  0.15648586195E+04  0.25500000000E-02 0. -1.
    8880022    1    1    2    0    0  0.19653434831E+03  0.33404596287E+03  0.33585241944E+03  0.53516441962E+03  0.15294330000E+03 0.  0.
    8880022    1    1    2    0    0 -0.19653434831E+03 -0.33404596287E+03 -0.14355814418E+04  0.14948237971E+04  0.15294330000E+03 0.  0.
<mgrwt>
<rscale>  0 0.41665826E+03</rscale>
<asrwt>0</asrwt>
<pdfrwt beam="1">  1        2 0.24074748E+00 0.41665826E+03</pdfrwt>
<pdfrwt beam="2">  1       -2 0.71558400E-01 0.41665826E+03</pdfrwt>
<totfact> 0.22384247E+01</totfact>
</mgrwt>
</event>
<event>
 4    1  0.1726795E-008  0.1349496E+04  0.7818608E-02  0.8991210E-01
         -2   -1    0    0    0  501 -0.00000000000E+00  0.00000000000E+00  0.97421549817E+03  0.97421549817E+03  0.25500000000E-02 0.  1.
          2   -1    0    0  501    0  0.00000000000E+00 -0.00000000000E+00 -0.26593052229E+04  0.26593052229E+04  0.25500000000E-02 0. -1.
    8880022    1    1    2    0    0  0.11660073044E+04 -0.66194785541E+03  0.14764308800E+03  0.13575485743E+04  0.15294330000E+03 0.  0.
    8880022    1    1    2    0    0 -0.11660073044E+04  0.66194785541E+03 -0.18327328127E+04  0.22759721468E+04  0.15294330000E+03 0.  0.
<mgrwt>
<rscale>  0 0.13494961E+04</rscale>
<asrwt>0</asrwt>
<pdfrwt beam="1">  1        2 0.40912388E+00 0.13494961E+04</pdfrwt>
<pdfrwt beam="2">  1       -2 0.14987931E+00 0.13494961E+04</pdfrwt>
<totfact> 0.81062277E-01</totfact>
</mgrwt>
</event>
<event>
 4    1  0.1726795E-008  0.2579693E+03  0.7818608E-02  0.1108369E+00
          2   -1    0    0  501    0  0.00000000000E+00  0.00000000000E+00  0.30862140688E+03  0.30862140689E+03  0.25500000000E-02 0. -1.
         -2   -1    0    0    0  501 -0.00000000000E+00 -0.00000000000E+00 -0.62261030701E+03  0.62261030702E+03  0.25500000000E-02 0.  1.
    8880022    1    1    2    0    0 -0.17868352900E+03  0.10596563232E+03  0.21945448116E+03  0.33868634617E+03  0.15294330000E+03 0.  0.
    8880022    1    1    2    0    0  0.17868352900E+03 -0.10596563232E+03 -0.53344338129E+03  0.59254536773E+03  0.15294330000E+03 0.  1.
<mgrwt>
<rscale>  0 0.25796932E+03</rscale>
<asrwt>0</asrwt>
<pdfrwt beam="1">  1        2 0.47480216E-01 0.25796932E+03</pdfrwt>
<pdfrwt beam="2">  1       -2 0.95786201E-01 0.25796932E+03</pdfrwt>
<totfact> 0.10151285E+02</totfact>
</mgrwt>
</event>
<event>
 4    1  0.1726795E-008  0.4233349E+03  0.7818608E-02  0.1035986E+00
         -2   -1    0    0    0  501 -0.00000000000E+00  0.00000000000E+00  0.10391460589E+04  0.10391460589E+04  0.25500000000E-02 0.  1.
          2   -1    0    0  501    0  0.00000000000E+00 -0.00000000000E+00 -0.14735559867E+04  0.14735559867E+04  0.25500000000E-02 0. -1.
    8880022    1    1    2    0    0 -0.37176911429E+03 -0.13269715148E+03 -0.13977488374E+04  0.14604500244E+04  0.15294330000E+03 0. -1.
    8880022    1    1    2    0    0  0.37176911429E+03  0.13269715148E+03  0.96333890959E+03  0.10522520212E+04  0.15294330000E+03 0.  0.
<mgrwt>
<rscale>  0 0.42333493E+03</rscale>
<asrwt>0</asrwt>
<pdfrwt beam="1">  1        2 0.22670092E+00 0.42333493E+03</pdfrwt>
<pdfrwt beam="2">  1       -2 0.15986863E+00 0.42333493E+03</pdfrwt>
<totfact> 0.36505239E+00</totfact>
</mgrwt>
</event>
<event>
 4    1  0.1726795E-008  0.5727802E+03  0.7818608E-02  0.9963545E-01
          2   -1    0    0  501    0  0.00000000000E+00  0.00000000000E+00  0.20356289307E+04  0.20356289307E+04  0.25500000000E-02 0. -1.
         -2   -1    0    0    0  501 -0.00000000000E+00 -0.00000000000E+00 -0.93012339333E+03  0.93012339334E+03  0.25500000000E-02 0.  1.
    8880022    1    1    2    0    0 -0.23832213955E+02 -0.55146852147E+03  0.19010490117E+04  0.19854632967E+04  0.15294330000E+03 0.  0.
    8880022    1    1    2    0    0  0.23832213955E+02  0.55146852147E+03 -0.79554347433E+03  0.98028902736E+03  0.15294330000E+03 0.  0.
<mgrwt>
<rscale>  0 0.57278020E+03</rscale>
<asrwt>0</asrwt>
<pdfrwt beam="1">  1        2 0.31317368E+00 0.57278020E+03</pdfrwt>
<pdfrwt beam="2">  1       -2 0.14309591E+00 0.57278020E+03</pdfrwt>
<totfact> 0.23342711E+00</totfact>
</mgrwt>
</event>
<event>
 4    1  0.1726795E-008  0.1243209E+04  0.7818608E-02  0.9075854E-01
         -2   -1    0    0    0  501 -0.00000000000E+00  0.00000000000E+00  0.13224202271E+04  0.13224202271E+04  0.25500000000E-02 0.  1.
          2   -1    0    0  501    0  0.00000000000E+00 -0.00000000000E+00 -0.12173987317E+04  0.12173987317E+04  0.25500000000E-02 0. -1.
    8880022    1    1    2    0    0  0.11557769865E+04 -0.43169125737E+03  0.30638763522E+03  0.12804072868E+04  0.15294330000E+03 0.  0.
    8880022    1    1    2    0    0 -0.11557769865E+04  0.43169125737E+03 -0.20136613980E+03  0.12594116720E+04  0.15294330000E+03 0.  0.
<mgrwt>
<rscale>  0 0.12432093E+04</rscale>
<asrwt>0</asrwt>
<pdfrwt beam="1">  1        2 0.18729211E+00 0.12432093E+04</pdfrwt>
<pdfrwt beam="2">  1       -2 0.20344926E+00 0.12432093E+04</pdfrwt>
<totfact> 0.22575724E+00</totfact>
</mgrwt>
</event>
<event>
 4    1  0.1726795E-008  0.3352451E+03  0.7818608E-02  0.1068839E+00
         -2   -1    0    0    0  501 -0.00000000000E+00  0.00000000000E+00  0.29398118550E+03  0.29398118552E+03  0.25500000000E-02 0.  1.
          2   -1    0    0  501    0  0.00000000000E+00 -0.00000000000E+00 -0.16526536196E+04  0.16526536196E+04  0.25500000000E-02 0. -1.
    8880022    1    1    2    0    0 -0.16975865505E+03 -0.24531532547E+03 -0.15326833524E+04  0.15689192208E+04  0.15294330000E+03 0.  0.
    8880022    1    1    2    0    0  0.16975865505E+03  0.24531532547E+03  0.17401091831E+03  0.37771558424E+03  0.15294330000E+03 0.  0.
<mgrwt>
<rscale>  0 0.33524508E+03</rscale>
<asrwt>0</asrwt>
<pdfrwt beam="1">  1        2 0.25425440E+00 0.33524508E+03</pdfrwt>
<pdfrwt beam="2">  1       -2 0.45227876E-01 0.33524508E+03</pdfrwt>
<totfact> 0.52889473E+01</totfact>
</mgrwt>
</event>
<event>
 4    1  0.1726795E-008  0.1056149E+04  0.7818608E-02  0.9249018E-01
         -2   -1    0    0    0  501 -0.00000000000E+00  0.00000000000E+00  0.12413733006E+04  0.12413733006E+04  0.25500000000E-02 0.  1.
          2   -1    0    0  501    0  0.00000000000E+00 -0.00000000000E+00 -0.15207658030E+04  0.15207658030E+04  0.25500000000E-02 0. -1.
    8880022    1    1    2    0    0  0.45332093448E+03 -0.94157308835E+03 -0.10230823561E+04  0.14704247382E+04  0.15294330000E+03 0.  0.
    8880022    1    1    2    0    0 -0.45332093448E+03  0.94157308835E+03  0.74368985371E+03  0.12917143654E+04  0.15294330000E+03 0.  0.
<mgrwt>
<rscale>  0 0.10561493E+04</rscale>
<asrwt>0</asrwt>
<pdfrwt beam="1">  1        2 0.23396397E+00 0.10561493E+04</pdfrwt>
<pdfrwt beam="2">  1       -2 0.19098051E+00 0.10561493E+04</pdfrwt>
<totfact> 0.18603864E+00</totfact>
</mgrwt>
</event>
<event>
 4    1  0.1726795E-008  0.2083072E+04  0.7818608E-02  0.8568737E-01
          2   -1    0    0  501    0  0.00000000000E+00  0.00000000000E+00  0.27039929720E+04  0.27039929720E+04  0.25500000000E-02 0. -1.
         -2   -1    0    0    0  501 -0.00000000000E+00 -0.00000000000E+00 -0.26320787969E+04  0.26320787969E+04  0.25500000000E-02 0.  1.
    8880022    1    1    2    0    0 -0.20196019547E+04  0.48683298480E+03  0.17028215543E+04  0.26905001968E+04  0.15294330000E+03 0.  0.
    8880022    1    1    2    0    0  0.20196019547E+04 -0.48683298480E+03 -0.16309073792E+04  0.26455715721E+04  0.15294330000E+03 0.  0.
<mgrwt>
<rscale>  0 0.20830723E+04</rscale>
<asrwt>0</asrwt>
<pdfrwt beam="1">  1        2 0.41599892E+00 0.20830723E+04</pdfrwt>
<pdfrwt beam="2">  1       -2 0.40493520E+00 0.20830723E+04</pdfrwt>
<totfact> 0.15872079E-02</totfact>
</mgrwt>
</event>
<event>
 4    1  0.1726795E-008  0.8215131E+03  0.7818608E-02  0.9529389E-01
          2   -1    0    0  501    0  0.00000000000E+00  0.00000000000E+00  0.98129907343E+03  0.98129907343E+03  0.25500000000E-02 0. -1.
         -2   -1    0    0    0  501 -0.00000000000E+00 -0.00000000000E+00 -0.14832789767E+04  0.14832789767E+04  0.25500000000E-02 0.  1.
    8880022    1    1    2    0    0  0.50784668060E+03  0.62736259128E+03  0.65147526590E+03  0.10484768701E+04  0.15294330000E+03 0.  0.
    8880022    1    1    2    0    0 -0.50784668060E+03 -0.62736259128E+03 -0.11534551692E+04  0.14161011801E+04  0.15294330000E+03 0.  0.
<mgrwt>
<rscale>  0 0.82151307E+03</rscale>
<asrwt>0</asrwt>
<pdfrwt beam="1">  1        2 0.15096909E+00 0.82151307E+03</pdfrwt>
<pdfrwt beam="2">  1       -2 0.22819677E+00 0.82151307E+03</pdfrwt>
<totfact> 0.23135058E+00</totfact>
</mgrwt>
</event>
<event>
 4    1  0.1726795E-008  0.7233923E+03  0.7818608E-02  0.9678044E-01
         -2   -1    0    0    0  501 -0.00000000000E+00  0.00000000000E+00  0.51371841276E+03  0.51371841276E+03  0.25500000000E-02 0.  1.
          2   -1    0    0  501    0  0.00000000000E+00 -0.00000000000E+00 -0.12532351390E+04  0.12532351390E+04  0.25500000000E-02 0. -1.
    8880022    1    1    2    0    0  0.98178917277E+02  0.70018971499E+03  0.12480004542E+02  0.72349992419E+03  0.15294330000E+03 0.  1.
    8880022    1    1    2    0    0 -0.98178917277E+02 -0.70018971499E+03 -0.75199673081E+03  0.10434536276E+04  0.15294330000E+03 0.  0.
<mgrwt>
<rscale>  0 0.72339228E+03</rscale>
<asrwt>0</asrwt>
<pdfrwt beam="1">  1        2 0.19280540E+00 0.72339228E+03</pdfrwt>
<pdfrwt beam="2">  1       -2 0.79033603E-01 0.72339228E+03</pdfrwt>
<totfact> 0.25582907E+01</totfact>
</mgrwt>
</event>
<event>
 4    1  0.1726795E-008  0.9337474E+03  0.7818608E-02  0.9384352E-01
          2   -1    0    0  501    0  0.00000000000E+00  0.00000000000E+00  0.25546247053E+04  0.25546247053E+04  0.25500000000E-02 0. -1.
         -2   -1    0    0    0  501 -0.00000000000E+00 -0.00000000000E+00 -0.85449268198E+03  0.85449268198E+03  0.25500000000E-02 0.  1.
    8880022    1    1    2    0    0 -0.54733345977E+03 -0.74089037304E+03 -0.47092406019E+03  0.10457789367E+04  0.15294330000E+03 0.  0.
    8880022    1    1    2    0    0  0.54733345977E+03  0.74089037304E+03  0.21710560835E+04  0.23633384505E+04  0.15294330000E+03 0.  0.
<mgrwt>
<rscale>  0 0.93374735E+03</rscale>
<asrwt>0</asrwt>
<pdfrwt beam="1">  1        2 0.39301918E+00 0.93374735E+03</pdfrwt>
<pdfrwt beam="2">  1       -2 0.13146041E+00 0.93374735E+03</pdfrwt>
<totfact> 0.13906276E+00</totfact>
</mgrwt>
</event>
<event>
 4    1  0.1726795E-008  0.2700526E+03  0.7818608E-02  0.1101249E+00
          2   -1    0    0  501    0  0.00000000000E+00  0.00000000000E+00  0.84991684987E+03  0.84991684988E+03  0.25500000000E-02 0. -1.
         -2   -1    0    0    0  501 -0.00000000000E+00 -0.00000000000E+00 -0.62080634877E+03  0.62080634878E+03  0.25500000000E-02 0.  1.
    8880022    1    1    2    0    0 -0.97279427431E+02 -0.20018364318E+03  0.79720774660E+03  0.84170578128E+03  0.15294330000E+03 0.  0.
    8880022    1    1    2    0    0  0.97279427431E+02  0.20018364318E+03 -0.56809724550E+03  0.62901741737E+03  0.15294330000E+03 0.  1.
<mgrwt>
<rscale>  0 0.27005264E+03</rscale>
<asrwt>0</asrwt>
<pdfrwt beam="1">  1        2 0.13075644E+00 0.27005264E+03</pdfrwt>
<pdfrwt beam="2">  1       -2 0.95508669E-01 0.27005264E+03</pdfrwt>
<totfact> 0.31784782E+01</totfact>
</mgrwt>
</event>
<event>
 4    1  0.1726795E-008  0.7829105E+03  0.7818608E-02  0.9585088E-01
          2   -1    0    0  501    0  0.00000000000E+00  0.00000000000E+00  0.97759174735E+03  0.97759174735E+03  0.25500000000E-02 0. -1.
         -2   -1    0    0    0  501 -0.00000000000E+00 -0.00000000000E+00 -0.14305581104E+04  0.14305581104E+04  0.25500000000E-02 0.  1.
    8880022    1    1    2    0    0  0.34988181597E+03 -0.68347634634E+03 -0.11289052970E+04  0.13738180461E+04  0.15294330000E+03 0.  0.
    8880022    1    1    2    0    0 -0.34988181597E+03  0.68347634634E+03  0.67593893395E+03  0.10343318117E+04  0.15294330000E+03 0. -1.
<mgrwt>
<rscale>  0 0.78291050E+03</rscale>
<asrwt>0</asrwt>
<pdfrwt beam="1">  1        2 0.15039873E+00 0.78291050E+03</pdfrwt>
<pdfrwt beam="2">  1       -2 0.22008586E+00 0.78291050E+03</pdfrwt>
<totfact> 0.26281249E+00</totfact>
</mgrwt>
</event>
<event>
 4    1  0.1726795E-008  0.5452311E+03  0.7818608E-02  0.1002604E+00
         -2   -1    0    0    0  501 -0.00000000000E+00  0.00000000000E+00  0.57377248909E+03  0.57377248910E+03  0.25500000000E-02 0.  1.
          2   -1    0    0  501    0  0.00000000000E+00 -0.00000000000E+00 -0.88445780809E+03  0.88445780810E+03  0.25500000000E-02 0. -1.
    8880022    1    1    2    0    0 -0.32143777308E+03  0.41299279561E+03  0.31390778299E+03  0.62913833170E+03  0.15294330000E+03 0.  0.
    8880022    1    1    2    0    0  0.32143777308E+03 -0.41299279561E+03 -0.62459310198E+03  0.82909196549E+03  0.15294330000E+03 0.  0.
<mgrwt>
<rscale>  0 0.54523109E+03</rscale>
<asrwt>0</asrwt>
<pdfrwt beam="1">  1        2 0.13607043E+00 0.54523109E+03</pdfrwt>
<pdfrwt beam="2">  1       -2 0.88272691E-01 0.54523109E+03</pdfrwt>
<totfact> 0.34427128E+01</totfact>
</mgrwt>
</event>
<event>
 4    1  0.1726795E-008  0.9440260E+03  0.7818608E-02  0.9372161E-01
          2   -1    0    0  501    0  0.00000000000E+00  0.00000000000E+00  0.11237439779E+04  0.11237439779E+04  0.25500000000E-02 0. -1.
         -2   -1    0    0    0  501 -0.00000000000E+00 -0.00000000000E+00 -0.14292052659E+04  0.14292052659E+04  0.25500000000E-02 0.  1.
    8880022    1    1    2    0    0  0.65016211786E+03  0.66714515543E+03 -0.10043518473E+04  0.13783714028E+04  0.15294330000E+03 0.  0.
    8880022    1    1    2    0    0 -0.65016211786E+03 -0.66714515543E+03  0.69889055926E+03  0.11745778411E+04  0.15294330000E+03 0.  0.
<mgrwt>
<rscale>  0 0.94402600E+03</rscale>
<asrwt>0</asrwt>
<pdfrwt beam="1">  1        2 0.17288369E+00 0.94402600E+03</pdfrwt>
<pdfrwt beam="2">  1       -2 0.21987773E+00 0.94402600E+03</pdfrwt>
<totfact> 0.20870691E+00</totfact>
</mgrwt>
</event>
<event>
 4    1  0.1726795E-008  0.9852878E+03  0.7818608E-02  0.9324830E-01
          2   -1    0    0  501    0  0.00000000000E+00  0.00000000000E+00  0.19472817856E+04  0.19472817856E+04  0.25500000000E-02 0. -1.
         -2   -1    0    0    0  501 -0.00000000000E+00 -0.00000000000E+00 -0.77201524929E+03  0.77201524929E+03  0.25500000000E-02 0.  1.
    8880022    1    1    2    0    0 -0.45268944833E+03  0.86166848750E+03 -0.22160260929E+03  0.10099008310E+04  0.15294330000E+03 0.  0.
    8880022    1    1    2    0    0  0.45268944833E+03 -0.86166848750E+03  0.13968691456E+04  0.17093962039E+04  0.15294330000E+03 0.  0.
<mgrwt>
<rscale>  0 0.98528776E+03</rscale>
<asrwt>0</asrwt>
<pdfrwt beam="1">  1        2 0.29958181E+00 0.98528776E+03</pdfrwt>
<pdfrwt beam="2">  1       -2 0.11877158E+00 0.98528776E+03</pdfrwt>
<totfact> 0.38949194E+00</totfact>
</mgrwt>
</event>
<event>
 4    1  0.1726795E-008  0.3922122E+03  0.7818608E-02  0.1046510E+00
         -2   -1    0    0    0  501 -0.00000000000E+00  0.00000000000E+00  0.42526547475E+03  0.42526547475E+03  0.25500000000E-02 0.  1.
          2   -1    0    0  501    0  0.00000000000E+00 -0.00000000000E+00 -0.75051919603E+03  0.75051919603E+03  0.25500000000E-02 0. -1.
    8880022    1    1    2    0    0 -0.31827915708E+03  0.17069607388E+03 -0.58575812294E+03  0.70494184375E+03  0.15294330000E+03 0.  0.
    8880022    1    1    2    0    0  0.31827915708E+03 -0.17069607388E+03  0.26050440166E+03  0.47084282703E+03  0.15294330000E+03 0.  0.
<mgrwt>
<rscale>  0 0.39221222E+03</rscale>
<asrwt>0</asrwt>
<pdfrwt beam="1">  1        2 0.11546449E+00 0.39221222E+03</pdfrwt>
<pdfrwt beam="2">  1       -2 0.65425458E-01 0.39221222E+03</pdfrwt>
<totfact> 0.84363662E+01</totfact>
</mgrwt>
</event>
<event>
 4    1  0.1726795E-008  0.8842850E+03  0.7818608E-02  0.9445442E-01
         -2   -1    0    0    0  501 -0.00000000000E+00  0.00000000000E+00  0.18795214194E+04  0.18795214194E+04  0.25500000000E-02 0.  1.
          2   -1    0    0  501    0  0.00000000000E+00 -0.00000000000E+00 -0.13255071107E+04  0.13255071107E+04  0.25500000000E-02 0. -1.
    8880022    1    1    2    0    0 -0.83658159787E+03  0.24227995615E+03 -0.10503991495E+04  0.13730616786E+04  0.15294330000E+03 0. -1.
    8880022    1    1    2    0    0  0.83658159787E+03 -0.24227995615E+03  0.16044134582E+04  0.18319668514E+04  0.15294330000E+03 0.  0.
<mgrwt>
<rscale>  0 0.88428502E+03</rscale>
<asrwt>0</asrwt>
<pdfrwt beam="1">  1        2 0.20392417E+00 0.88428502E+03</pdfrwt>
<pdfrwt beam="2">  1       -2 0.28915714E+00 0.88428502E+03</pdfrwt>
<totfact> 0.60451012E-01</totfact>
</mgrwt>
</event>
<event>
 4    1  0.1726795E-008  0.1021200E+04  0.7818608E-02  0.9285593E-01
          2   -1    0    0  501    0  0.00000000000E+00  0.00000000000E+00  0.10044727033E+04  0.10044727033E+04  0.25500000000E-02 0. -1.
         -2   -1    0    0    0  501 -0.00000000000E+00 -0.00000000000E+00 -0.14963601443E+04  0.14963601443E+04  0.25500000000E-02 0.  1.
    8880022    1    1    2    0    0  0.72427355375E+03  0.70348157964E+03 -0.93784182320E+03  0.13865054821E+04  0.15294330000E+03 0.  0.
    8880022    1    1    2    0    0 -0.72427355375E+03 -0.70348157964E+03  0.44595438218E+03  0.11143273655E+04  0.15294330000E+03 0.  0.
<mgrwt>
<rscale>  0 0.10212004E+04</rscale>
<asrwt>0</asrwt>
<pdfrwt beam="1">  1        2 0.15453426E+00 0.10212004E+04</pdfrwt>
<pdfrwt beam="2">  1       -2 0.23020925E+00 0.10212004E+04</pdfrwt>
<totfact> 0.21160541E+00</totfact>
</mgrwt>
</event>
<event>
 4    1  0.1726795E-008  0.8938889E+03  0.7818608E-02  0.9433253E-01
         -2   -1    0    0    0  501 -0.00000000000E+00  0.00000000000E+00  0.99468604655E+03  0.99468604656E+03  0.25500000000E-02 0.  1.
          2   -1    0    0  501    0  0.00000000000E+00 -0.00000000000E+00 -0.10200194583E+04  0.10200194583E+04  0.25500000000E-02 0. -1.
    8880022    1    1    2    0    0 -0.85782261755E+02 -0.87651985971E+03 -0.47698975801E+03  0.10131912668E+04  0.15294330000E+03 0.  0.
    8880022    1    1    2    0    0  0.85782261755E+02  0.87651985971E+03  0.45165634625E+03  0.10015142381E+04  0.15294330000E+03 0.  0.
<mgrwt>
<rscale>  0 0.89388887E+03</rscale>
<asrwt>0</asrwt>
<pdfrwt beam="1">  1        2 0.15692607E+00 0.89388887E+03</pdfrwt>
<pdfrwt beam="2">  1       -2 0.15302862E+00 0.89388887E+03</pdfrwt>
<totfact> 0.69606933E+00</totfact>
</mgrwt>
</event>
<event>
 4    1  0.1726795E-008  0.8905347E+03  0.7818608E-02  0.9437491E-01
         -2   -1    0    0    0  501 -0.00000000000E+00  0.00000000000E+00  0.19837215038E+04  0.19837215038E+04  0.25500000000E-02 0.  1.
          2   -1    0    0  501    0  0.00000000000E+00 -0.00000000000E+00 -0.55683330909E+03  0.55683330910E+03  0.25500000000E-02 0. -1.
    8880022    1    1    2    0    0 -0.26278178531E+03  0.83702216633E+03  0.38823456232E+02  0.89138055139E+03  0.15294330000E+03 0.  0.
    8880022    1    1    2    0    0  0.26278178531E+03 -0.83702216633E+03  0.13880647385E+04  0.16491742616E+04  0.15294330000E+03 0.  0.
<mgrwt>
<rscale>  0 0.89053469E+03</rscale>
<asrwt>0</asrwt>
<pdfrwt beam="1">  1        2 0.85666662E-01 0.89053469E+03</pdfrwt>
<pdfrwt beam="2">  1       -2 0.30518793E+00 0.89053469E+03</pdfrwt>
<totfact> 0.16370223E+00</totfact>
</mgrwt>
</event>
<event>
 4    1  0.1726795E-008  0.4201446E+03  0.7818608E-02  0.1037019E+00
          2   -1    0    0  501    0  0.00000000000E+00  0.00000000000E+00  0.22424191409E+04  0.22424191409E+04  0.25500000000E-02 0. -1.
         -2   -1    0    0    0  501 -0.00000000000E+00 -0.00000000000E+00 -0.93157968101E+02  0.93157968136E+02  0.25500000000E-02 0.  1.
    8880022    1    1    2    0    0  0.18915717572E+03 -0.34256296484E+03  0.15343777434E+04  0.15908603127E+04  0.15294330000E+03 0.  0.
    8880022    1    1    2    0    0 -0.18915717572E+03  0.34256296484E+03  0.61488342940E+03  0.74471679635E+03  0.15294330000E+03 0.  1.
<mgrwt>
<rscale>  0 0.42014459E+03</rscale>
<asrwt>0</asrwt>
<pdfrwt beam="1">  1        2 0.34498753E+00 0.42014459E+03</pdfrwt>
<pdfrwt beam="2">  1       -2 0.14331996E-01 0.42014459E+03</pdfrwt>
<totfact> 0.19862327E+02</totfact>
</mgrwt>
</event>
<event>
 4    1  0.1726795E-008  0.9726950E+03  0.7818608E-02  0.9339010E-01
          2   -1    0    0  501    0  0.00000000000E+00  0.00000000000E+00  0.42226041971E+04  0.42226041971E+04  0.25500000000E-02 0. -1.
         -2   -1    0    0    0  501 -0.00000000000E+00 -0.00000000000E+00 -0.32470923455E+03  0.32470923456E+03  0.25500000000E-02 0.  1.
    8880022    1    1    2    0    0  0.81918287188E+03  0.50168042450E+03  0.32147711603E+04  0.33587034838E+04  0.15294330000E+03 0.  0.
    8880022    1    1    2    0    0 -0.81918287188E+03 -0.50168042450E+03  0.68312380220E+03  0.11886099478E+04  0.15294330000E+03 0.  0.
<mgrwt>
<rscale>  0 0.97269496E+03</rscale>
<asrwt>0</asrwt>
<pdfrwt beam="1">  1        2 0.64963140E+00 0.97269496E+03</pdfrwt>
<pdfrwt beam="2">  1       -2 0.49955268E-01 0.97269496E+03</pdfrwt>
<totfact> 0.90103387E-01</totfact>
</mgrwt>
</event>
<event>
 4    1  0.1726795E-008  0.5712975E+03  0.7818608E-02  0.9966812E-01
         -2   -1    0    0    0  501 -0.00000000000E+00  0.00000000000E+00  0.60281810458E+03  0.60281810458E+03  0.25500000000E-02 0.  1.
          2   -1    0    0  501    0  0.00000000000E+00 -0.00000000000E+00 -0.14492512425E+04  0.14492512425E+04  0.25500000000E-02 0. -1.
    8880022    1    1    2    0    0  0.18238092417E+03  0.51935187327E+03 -0.12352829867E+04  0.13609940779E+04  0.15294330000E+03 0.  0.
    8880022    1    1    2    0    0 -0.18238092417E+03 -0.51935187327E+03  0.38884984880E+03  0.69107526919E+03  0.15294330000E+03 0.  0.
<mgrwt>
<rscale>  0 0.57129749E+03</rscale>
<asrwt>0</asrwt>
<pdfrwt beam="1">  1        2 0.22296173E+00 0.57129749E+03</pdfrwt>
<pdfrwt beam="2">  1       -2 0.92741247E-01 0.57129749E+03</pdfrwt>
<totfact> 0.14048516E+01</totfact>
</mgrwt>
</event>
<event>
 4    1  0.1726795E-008  0.1644113E+04  0.7818608E-02  0.8793897E-01
         -2   -1    0    0    0  501 -0.00000000000E+00  0.00000000000E+00  0.13639201270E+04  0.13639201270E+04  0.25500000000E-02 0.  1.
          2   -1    0    0  501    0  0.00000000000E+00 -0.00000000000E+00 -0.22724955720E+04  0.22724955720E+04  0.25500000000E-02 0. -1.
    8880022    1    1    2    0    0 -0.37259035772E+03  0.15940181038E+04  0.19593299354E+03  0.16557471670E+04  0.15294330000E+03 0.  0.
    8880022    1    1    2    0    0  0.37259035772E+03 -0.15940181038E+04 -0.11045084386E+04  0.19806685321E+04  0.15294330000E+03 0.  0.
<mgrwt>
<rscale>  0 0.16441134E+04</rscale>
<asrwt>0</asrwt>
<pdfrwt beam="1">  1        2 0.34961470E+00 0.16441134E+04</pdfrwt>
<pdfrwt beam="2">  1       -2 0.20983387E+00 0.16441134E+04</pdfrwt>
<totfact> 0.49889034E-01</totfact>
</mgrwt>
</event>
<event>
 4    1  0.1726795E-008  0.7423546E+03  0.7818608E-02  0.9647422E-01
          2   -1    0    0  501    0  0.00000000000E+00  0.00000000000E+00  0.31540183259E+04  0.31540183259E+04  0.25500000000E-02 0. -1.
         -2   -1    0    0    0  501 -0.00000000000E+00 -0.00000000000E+00 -0.19752576268E+03  0.19752576270E+03  0.25500000000E-02 0.  1.
    8880022    1    1    2    0    0  0.58097549742E+03  0.43608047820E+03  0.20475763576E+04  0.21779943308E+04  0.15294330000E+03 0.  0.
    8880022    1    1    2    0    0 -0.58097549742E+03 -0.43608047820E+03  0.90891620569E+03  0.11735497578E+04  0.15294330000E+03 0.  0.
<mgrwt>
<rscale>  0 0.74235461E+03</rscale>
<asrwt>0</asrwt>
<pdfrwt beam="1">  1        2 0.48523354E+00 0.74235461E+03</pdfrwt>
<pdfrwt beam="2">  1       -2 0.30388582E-01 0.74235461E+03</pdfrwt>
<totfact> 0.14835979E+01</totfact>
</mgrwt>
</event>
<event>
 4    1  0.1726795E-008  0.1110111E+04  0.7818608E-02  0.9195393E-01
          2   -1    0    0  501    0  0.00000000000E+00  0.00000000000E+00  0.14206752575E+04  0.14206752575E+04  0.25500000000E-02 0. -1.
         -2   -1    0    0    0  501 -0.00000000000E+00 -0.00000000000E+00 -0.10882509308E+04  0.10882509308E+04  0.25500000000E-02 0.  1.
    8880022    1    1    2    0    0  0.10921025330E+04 -0.12754135077E+03  0.73128772434E+03  0.13293337156E+04  0.15294330000E+03 0.  0.
    8880022    1    1    2    0    0 -0.10921025330E+04  0.12754135077E+03 -0.39886339765E+03  0.11795924727E+04  0.15294330000E+03 0.  0.
<mgrwt>
<rscale>  0 0.11101110E+04</rscale>
<asrwt>0</asrwt>
<pdfrwt beam="1">  1        2 0.21856542E+00 0.11101110E+04</pdfrwt>
<pdfrwt beam="2">  1       -2 0.16742322E+00 0.11101110E+04</pdfrwt>
<totfact> 0.30686921E+00</totfact>
</mgrwt>
</event>
<event>
 4    1  0.1726795E-008  0.4489981E+03  0.7818608E-02  0.1028021E+00
          2   -1    0    0  501    0  0.00000000000E+00  0.00000000000E+00  0.19466884716E+04  0.19466884716E+04  0.25500000000E-02 0. -1.
         -2   -1    0    0    0  501 -0.00000000000E+00 -0.00000000000E+00 -0.13511975967E+03  0.13511975970E+03  0.25500000000E-02 0.  1.
    8880022    1    1    2    0    0 -0.21578347266E+03 -0.36282932292E+03  0.40272716493E+03  0.60314877686E+03  0.15294330000E+03 0.  0.
    8880022    1    1    2    0    0  0.21578347266E+03  0.36282932292E+03  0.14088415470E+04  0.14786594545E+04  0.15294330000E+03 0.  0.
<mgrwt>
<rscale>  0 0.44899808E+03</rscale>
<asrwt>0</asrwt>
<pdfrwt beam="1">  1        2 0.29949053E+00 0.44899808E+03</pdfrwt>
<pdfrwt beam="2">  1       -2 0.20787656E-01 0.44899808E+03</pdfrwt>
<totfact> 0.15142554E+02</totfact>
</mgrwt>
</event>
<event>
 4    1  0.1726795E-008  0.8832911E+03  0.7818608E-02  0.9446713E-01
          2   -1    0    0  501    0  0.00000000000E+00  0.00000000000E+00  0.12868462155E+04  0.12868462155E+04  0.25500000000E-02 0. -1.
         -2   -1    0    0    0  501 -0.00000000000E+00 -0.00000000000E+00 -0.86431747918E+03  0.86431747918E+03  0.25500000000E-02 0.  1.
    8880022    1    1    2    0    0 -0.21938422743E+03  0.84183254274E+03  0.79894185893E+03  0.11910126852E+04  0.15294330000E+03 0.  0.
    8880022    1    1    2    0    0  0.21938422743E+03 -0.84183254274E+03 -0.37641312257E+03  0.96015100954E+03  0.15294330000E+03 0.  0.
<mgrwt>
<rscale>  0 0.88329107E+03</rscale>
<asrwt>0</asrwt>
<pdfrwt beam="1">  1        2 0.19797634E+00 0.88329107E+03</pdfrwt>
<pdfrwt beam="2">  1       -2 0.13297192E+00 0.88329107E+03</pdfrwt>
<totfact> 0.69329237E+00</totfact>
</mgrwt>
</event>
<event>
 4    1  0.1726795E-008  0.5125003E+03  0.7818608E-02  0.1010567E+00
         -2   -1    0    0    0  501 -0.00000000000E+00  0.00000000000E+00  0.15538162457E+04  0.15538162457E+04  0.25500000000E-02 0.  1.
          2   -1    0    0  501    0  0.00000000000E+00 -0.00000000000E+00 -0.71763066627E+03  0.71763066628E+03  0.25500000000E-02 0. -1.
    8880022    1    1    2    0    0  0.47694283781E+03 -0.10858353465E+03 -0.57490083085E+03  0.77017366409E+03  0.15294330000E+03 0.  0.
    8880022    1    1    2    0    0 -0.47694283781E+03  0.10858353465E+03  0.14110864103E+04  0.15012732479E+04  0.15294330000E+03 0.  0.
<mgrwt>
<rscale>  0 0.51250025E+03</rscale>
<asrwt>0</asrwt>
<pdfrwt beam="1">  1        2 0.11040472E+00 0.51250025E+03</pdfrwt>
<pdfrwt beam="2">  1       -2 0.23904865E+00 0.51250025E+03</pdfrwt>
<totfact> 0.31973411E+00</totfact>
</mgrwt>
</event>
<event>
 4    1  0.1726795E-008  0.1633082E+04  0.7818608E-02  0.8800478E-01
          2   -1    0    0  501    0  0.00000000000E+00  0.00000000000E+00  0.17305453210E+04  0.17305453210E+04  0.25500000000E-02 0. -1.
         -2   -1    0    0    0  501 -0.00000000000E+00 -0.00000000000E+00 -0.17798684895E+04  0.17798684895E+04  0.25500000000E-02 0.  1.
    8880022    1    1    2    0    0  0.11171657335E+04 -0.11813159143E+04 -0.66751961971E+03  0.17642394002E+04  0.15294330000E+03 0.  0.
    8880022    1    1    2    0    0 -0.11171657335E+04  0.11813159143E+04  0.61819645123E+03  0.17461744102E+04  0.15294330000E+03 0.  0.
<mgrwt>
<rscale>  0 0.16330824E+04</rscale>
<asrwt>0</asrwt>
<pdfrwt beam="1">  1        2 0.26623774E+00 0.16330824E+04</pdfrwt>
<pdfrwt beam="2">  1       -2 0.27382592E+00 0.16330824E+04</pdfrwt>
<totfact> 0.40105605E-01</totfact>
</mgrwt>
</event>
<event>
 4    1  0.1726795E-008  0.1276301E+04  0.7818608E-02  0.9048572E-01
         -2   -1    0    0    0  501 -0.00000000000E+00  0.00000000000E+00  0.15758869560E+04  0.15758869560E+04  0.25500000000E-02 0.  1.
          2   -1    0    0  501    0  0.00000000000E+00 -0.00000000000E+00 -0.21014333556E+04  0.21014333556E+04  0.25500000000E-02 0. -1.
    8880022    1    1    2    0    0  0.10043615219E+04 -0.77253553302E+03 -0.15734072427E+04  0.20259701925E+04  0.15294330000E+03 0.  0.
    8880022    1    1    2    0    0 -0.10043615219E+04  0.77253553302E+03  0.10478608431E+04  0.16513501191E+04  0.15294330000E+03 0.  0.
<mgrwt>
<rscale>  0 0.12763012E+04</rscale>
<asrwt>0</asrwt>
<pdfrwt beam="1">  1        2 0.32329744E+00 0.12763012E+04</pdfrwt>
<pdfrwt beam="2">  1       -2 0.24244415E+00 0.12763012E+04</pdfrwt>
<totfact> 0.40410140E-01</totfact>
</mgrwt>
</event>
<event>
 4    1  0.1726795E-008  0.1107051E+04  0.7818608E-02  0.9198347E-01
          2   -1    0    0  501    0  0.00000000000E+00  0.00000000000E+00  0.41735058116E+04  0.41735058116E+04  0.25500000000E-02 0. -1.
         -2   -1    0    0    0  501 -0.00000000000E+00 -0.00000000000E+00 -0.44999977410E+03  0.44999977410E+03  0.25500000000E-02 0.  1.
    8880022    1    1    2    0    0  0.10790227389E+04  0.19462868422E+03  0.49911702548E+03  0.12143639709E+04  0.15294330000E+03 0.  0.
    8880022    1    1    2    0    0 -0.10790227389E+04 -0.19462868422E+03  0.32243890121E+04  0.34091416148E+04  0.15294330000E+03 0.  0.
<mgrwt>
<rscale>  0 0.11070511E+04</rscale>
<asrwt>0</asrwt>
<pdfrwt beam="1">  1        2 0.64207783E+00 0.11070511E+04</pdfrwt>
<pdfrwt beam="2">  1       -2 0.69230734E-01 0.11070511E+04</pdfrwt>
<totfact> 0.48536863E-01</totfact>
</mgrwt>
</event>
<event>
 4    1  0.1726795E-008  0.5523751E+03  0.7818608E-02  0.1000946E+00
         -2   -1    0    0    0  501 -0.00000000000E+00  0.00000000000E+00  0.25413745046E+03  0.25413745047E+03  0.25500000000E-02 0.  1.
          2   -1    0    0  501    0  0.00000000000E+00 -0.00000000000E+00 -0.24267444043E+04  0.24267444043E+04  0.25500000000E-02 0. -1.
    8880022    1    1    2    0    0 -0.46387437839E+03  0.25796743693E+03 -0.20391125124E+04  0.21126045841E+04  0.15294330000E+03 0.  0.
    8880022    1    1    2    0    0  0.46387437839E+03 -0.25796743693E+03 -0.13349444140E+03  0.56827727065E+03  0.15294330000E+03 0.  0.
<mgrwt>
<rscale>  0 0.55237514E+03</rscale>
<asrwt>0</asrwt>
<pdfrwt beam="1">  1        2 0.37334528E+00 0.55237514E+03</pdfrwt>
<pdfrwt beam="2">  1       -2 0.39098071E-01 0.55237514E+03</pdfrwt>
<totfact> 0.25597492E+01</totfact>
</mgrwt>
</event>
<event>
 4    1  0.1726795E-008  0.2441057E+03  0.7818608E-02  0.1117088E+00
         -2   -1    0    0    0  501 -0.00000000000E+00  0.00000000000E+00  0.20377239250E+03  0.20377239251E+03  0.25500000000E-02 0.  1.
          2   -1    0    0  501    0  0.00000000000E+00 -0.00000000000E+00 -0.75284171095E+03  0.75284171096E+03  0.25500000000E-02 0. -1.
    8880022    1    1    2    0    0 -0.49130063208E+02 -0.18379931064E+03 -0.64858644648E+03  0.69300215099E+03  0.15294330000E+03 0.  0.
    8880022    1    1    2    0    0  0.49130063208E+02  0.18379931064E+03  0.99517128025E+02  0.26361195248E+03  0.15294330000E+03 0.  1.
<mgrwt>
<rscale>  0 0.24410572E+03</rscale>
<asrwt>0</asrwt>
<pdfrwt beam="1">  1        2 0.11582180E+00 0.24410572E+03</pdfrwt>
<pdfrwt beam="2">  1       -2 0.31349599E-01 0.24410572E+03</pdfrwt>
<totfact> 0.36487806E+02</totfact>
</mgrwt>
</event>
<event>
 4    1  0.1726795E-008  0.1548021E+04  0.7818608E-02  0.8853133E-01
         -2   -1    0    0    0  501 -0.00000000000E+00  0.00000000000E+00  0.14946553391E+04  0.14946553391E+04  0.25500000000E-02 0.  1.
          2   -1    0    0  501    0  0.00000000000E+00 -0.00000000000E+00 -0.19465035570E+04  0.19465035570E+04  0.25500000000E-02 0. -1.
    8880022    1    1    2    0    0 -0.13697071045E+03  0.15343454855E+04 -0.94840803288E+03  0.18154466376E+04  0.15294330000E+03 0.  0.
    8880022    1    1    2    0    0  0.13697071045E+03 -0.15343454855E+04  0.49655981495E+03  0.16257122584E+04  0.15294330000E+03 0.  0.
<mgrwt>
<rscale>  0 0.15480209E+04</rscale>
<asrwt>0</asrwt>
<pdfrwt beam="1">  1        2 0.29946209E+00 0.15480209E+04</pdfrwt>
<pdfrwt beam="2">  1       -2 0.22994698E+00 0.15480209E+04</pdfrwt>
<totfact> 0.57148664E-01</totfact>
</mgrwt>
</event>
<event>
 4    1  0.1726795E-008  0.1289696E+04  0.7818608E-02  0.9037777E-01
         -2   -1    0    0    0  501 -0.00000000000E+00  0.00000000000E+00  0.20269507136E+04  0.20269507136E+04  0.25500000000E-02 0.  1.
          2   -1    0    0  501    0  0.00000000000E+00 -0.00000000000E+00 -0.11100241205E+04  0.11100241205E+04  0.25500000000E-02 0. -1.
    8880022    1    1    2    0    0  0.10450429059E+04  0.74014123947E+03  0.12593707404E+04  0.18025898159E+04  0.15294330000E+03 0.  0.
    8880022    1    1    2    0    0 -0.10450429059E+04 -0.74014123947E+03 -0.34244414735E+03  0.13343850181E+04  0.15294330000E+03 0.  0.
<mgrwt>
<rscale>  0 0.12896958E+04</rscale>
<asrwt>0</asrwt>
<pdfrwt beam="1">  1        2 0.17077294E+00 0.12896958E+04</pdfrwt>
<pdfrwt beam="2">  1       -2 0.31183857E+00 0.12896958E+04</pdfrwt>
<totfact> 0.55884786E-01</totfact>
</mgrwt>
</event>
<event>
 4    1  0.1726795E-008  0.6396603E+03  0.7818608E-02  0.9826377E-01
          2   -1    0    0  501    0  0.00000000000E+00  0.00000000000E+00  0.33356905416E+04  0.33356905416E+04  0.25500000000E-02 0. -1.
         -2   -1    0    0    0  501 -0.00000000000E+00 -0.00000000000E+00 -0.37182382538E+03  0.37182382539E+03  0.25500000000E-02 0.  1.
    8880022    1    1    2    0    0  0.78506080368E+02  0.61612530162E+03 -0.35551154678E+02  0.64064743000E+03  0.15294330000E+03 0.  0.
    8880022    1    1    2    0    0 -0.78506080368E+02 -0.61612530162E+03  0.29994178709E+04  0.30668669370E+04  0.15294330000E+03 0.  0.
<mgrwt>
<rscale>  0 0.63966026E+03</rscale>
<asrwt>0</asrwt>
<pdfrwt beam="1">  1        2 0.51318315E+00 0.63966026E+03</pdfrwt>
<pdfrwt beam="2">  1       -2 0.57203666E-01 0.63966026E+03</pdfrwt>
<totfact> 0.33424017E+00</totfact>
</mgrwt>
</event>
<event>
 4    1  0.1881342E-008  0.1376127E+04  0.7818608E-02  0.8971282E-01
          2   -1    0    0  501    0  0.00000000000E+00  0.00000000000E+00  0.22540287495E+04  0.22540287495E+04  0.25500000000E-02 0. -1.
         -2   -1    0    0    0  501 -0.00000000000E+00 -0.00000000000E+00 -0.16612293384E+04  0.16612293384E+04  0.25500000000E-02 0.  1.
    8880022    1    1    2    0    0  0.12434497531E+04 -0.56935691935E+03  0.16726825529E+04  0.21660085793E+04  0.15294330000E+03 0.  0.
    8880022    1    1    2    0    0 -0.12434497531E+04  0.56935691935E+03 -0.10798831418E+04  0.17492495085E+04  0.15294330000E+03 0.  1.
<mgrwt>
<rscale>  0 0.13761273E+04</rscale>
<asrwt>0</asrwt>
<pdfrwt beam="1">  1        2 0.34677365E+00 0.13761273E+04</pdfrwt>
<pdfrwt beam="2">  1       -2 0.25557374E+00 0.13761273E+04</pdfrwt>
<totfact> 0.27209075E-01</totfact>
</mgrwt>
</event>
<event>
 4    1  0.1726795E-008  0.5259146E+03  0.7818608E-02  0.1007228E+00
          2   -1    0    0  501    0  0.00000000000E+00  0.00000000000E+00  0.98997442704E+03  0.98997442705E+03  0.25500000000E-02 0. -1.
         -2   -1    0    0    0  501 -0.00000000000E+00 -0.00000000000E+00 -0.10732353657E+04  0.10732353657E+04  0.25500000000E-02 0.  1.
    8880022    1    1    2    0    0 -0.41319885373E+02  0.50148500048E+03  0.84559628121E+03  0.99580081464E+03  0.15294330000E+03 0.  0.
    8880022    1    1    2    0    0  0.41319885373E+02 -0.50148500048E+03 -0.92885721989E+03  0.10674089781E+04  0.15294330000E+03 0.  0.
<mgrwt>
<rscale>  0 0.52591462E+03</rscale>
<asrwt>0</asrwt>
<pdfrwt beam="1">  1        2 0.15230376E+00 0.52591462E+03</pdfrwt>
<pdfrwt beam="2">  1       -2 0.16511313E+00 0.52591462E+03</pdfrwt>
<totfact> 0.62400046E+00</totfact>
</mgrwt>
</event>
<event>
 4    1  0.1726795E-008  0.6200322E+03  0.7818608E-02  0.9864696E-01
         -2   -1    0    0    0  501 -0.00000000000E+00  0.00000000000E+00  0.41806621387E+03  0.41806621388E+03  0.25500000000E-02 0.  1.
          2   -1    0    0  501    0  0.00000000000E+00 -0.00000000000E+00 -0.18236653403E+04  0.18236653403E+04  0.25500000000E-02 0. -1.
    8880022    1    1    2    0    0  0.59887716537E+03  0.48932715595E+02 -0.14920027979E+04  0.16157079785E+04  0.15294330000E+03 0.  0.
    8880022    1    1    2    0    0 -0.59887716537E+03 -0.48932715595E+02  0.86403671447E+02  0.62602357569E+03  0.15294330000E+03 0.  0.
<mgrwt>
<rscale>  0 0.62003220E+03</rscale>
<asrwt>0</asrwt>
<pdfrwt beam="1">  1        2 0.28056389E+00 0.62003220E+03</pdfrwt>
<pdfrwt beam="2">  1       -2 0.64317880E-01 0.62003220E+03</pdfrwt>
<totfact> 0.19635323E+01</totfact>
</mgrwt>
</event>
<event>
 4    1  0.3896356E-008  0.1140609E+04  0.7818608E-02  0.9166491E-01
         -2   -1    0    0    0  501 -0.00000000000E+00  0.00000000000E+00  0.14929789858E+04  0.14929789858E+04  0.25500000000E-02 0.  1.
          2   -1    0    0  501    0  0.00000000000E+00 -0.00000000000E+00 -0.23439853818E+04  0.23439853818E+04  0.25500000000E-02 0. -1.
    8880022    1    1    2    0    0  0.10564652196E+04 -0.40184288216E+03 -0.19461205726E+04  0.22557423165E+04  0.15294330000E+03 0.  0.
    8880022    1    1    2    0    0 -0.10564652196E+04  0.40184288216E+03  0.10951141766E+04  0.15812220511E+04  0.15294330000E+03 0.  0.
<mgrwt>
<rscale>  0 0.11406087E+04</rscale>
<asrwt>0</asrwt>
<pdfrwt beam="1">  1        2 0.36061313E+00 0.11406087E+04</pdfrwt>
<pdfrwt beam="2">  1       -2 0.22968908E+00 0.11406087E+04</pdfrwt>
<totfact> 0.36144611E-01</totfact>
</mgrwt>
</event>
<event>
 4    1  0.1726795E-008  0.6999928E+03  0.7818608E-02  0.9717245E-01
          2   -1    0    0  501    0  0.00000000000E+00  0.00000000000E+00  0.54837878149E+03  0.54837878150E+03  0.25500000000E-02 0. -1.
         -2   -1    0    0    0  501 -0.00000000000E+00 -0.00000000000E+00 -0.16098923173E+04  0.16098923173E+04  0.25500000000E-02 0.  1.
    8880022    1    1    2    0    0  0.52666887927E+03  0.43499213314E+03  0.18909917859E+03  0.72508510993E+03  0.15294330000E+03 0.  0.
    8880022    1    1    2    0    0 -0.52666887927E+03 -0.43499213314E+03 -0.12506127144E+04  0.14331859889E+04  0.15294330000E+03 0.  0.
<mgrwt>
<rscale>  0 0.69999280E+03</rscale>
<asrwt>0</asrwt>
<pdfrwt beam="1">  1        2 0.84365967E-01 0.69999280E+03</pdfrwt>
<pdfrwt beam="2">  1       -2 0.24767574E+00 0.69999280E+03</pdfrwt>
<totfact> 0.38024158E+00</totfact>
</mgrwt>
</event>
<event>
 4    1  0.1726795E-008  0.1099457E+04  0.7818608E-02  0.9205721E-01
          2   -1    0    0  501    0  0.00000000000E+00  0.00000000000E+00  0.35784369474E+04  0.35784369474E+04  0.25500000000E-02 0. -1.
         -2   -1    0    0    0  501 -0.00000000000E+00 -0.00000000000E+00 -0.62298414068E+03  0.62298414068E+03  0.25500000000E-02 0.  1.
    8880022    1    1    2    0    0  0.10550569980E+04  0.26882873270E+03  0.56418019315E+02  0.11009036300E+04  0.15294330000E+03 0.  0.
    8880022    1    1    2    0    0 -0.10550569980E+04 -0.26882873270E+03  0.28990347874E+04  0.31005174582E+04  0.15294330000E+03 0.  0.
<mgrwt>
<rscale>  0 0.10994571E+04</rscale>
<asrwt>0</asrwt>
<pdfrwt beam="1">  1        2 0.55052877E+00 0.10994571E+04</pdfrwt>
<pdfrwt beam="2">  1       -2 0.95843712E-01 0.10994571E+04</pdfrwt>
<totfact> 0.66537762E-01</totfact>
</mgrwt>
</event>
<event>
 4    1  0.1726795E-008  0.6715302E+03  0.7818608E-02  0.9767198E-01
          2   -1    0    0  501    0  0.00000000000E+00  0.00000000000E+00  0.20190228055E+04  0.20190228055E+04  0.25500000000E-02 0. -1.
         -2   -1    0    0    0  501 -0.00000000000E+00 -0.00000000000E+00 -0.43142796923E+03  0.43142796924E+03  0.25500000000E-02 0.  1.
    8880022    1    1    2    0    0  0.41754882198E+02 -0.65254704022E+03 -0.57091390325E+02  0.67395266136E+03  0.15294330000E+03 0.  0.
    8880022    1    1    2    0    0 -0.41754882198E+02  0.65254704022E+03  0.16446862266E+04  0.17764981134E+04  0.15294330000E+03 0. -1.
<mgrwt>
<rscale>  0 0.67153017E+03</rscale>
<asrwt>0</asrwt>
<pdfrwt beam="1">  1        2 0.31061889E+00 0.67153017E+03</pdfrwt>
<pdfrwt beam="2">  1       -2 0.66373535E-01 0.67153017E+03</pdfrwt>
<totfact> 0.14259141E+01</totfact>
</mgrwt>
</event>
<event>
 4    1  0.1726795E-008  0.4085365E+03  0.7818608E-02  0.1040863E+00
         -2   -1    0    0    0  501 -0.00000000000E+00  0.00000000000E+00  0.36518331242E+03  0.36518331243E+03  0.25500000000E-02 0.  1.
          2   -1    0    0  501    0  0.00000000000E+00 -0.00000000000E+00 -0.59907427801E+03  0.59907427801E+03  0.25500000000E-02 0. -1.
    8880022    1    1    2    0    0 -0.90315303192E+02  0.36790424382E+03 -0.35170593323E+03  0.53907244698E+03  0.15294330000E+03 0.  0.
    8880022    1    1    2    0    0  0.90315303192E+02 -0.36790424382E+03  0.11781496764E+03  0.42518514346E+03  0.15294330000E+03 0.  0.
<mgrwt>
<rscale>  0 0.40853646E+03</rscale>
<asrwt>0</asrwt>
<pdfrwt beam="1">  1        2 0.92165274E-01 0.40853646E+03</pdfrwt>
<pdfrwt beam="2">  1       -2 0.56182048E-01 0.40853646E+03</pdfrwt>
<totfact> 0.15265667E+02</totfact>
</mgrwt>
</event>
<event>
 4    1  0.1726795E-008  0.6090630E+03  0.7818608E-02  0.9886780E-01
         -2   -1    0    0    0  501 -0.00000000000E+00  0.00000000000E+00  0.78111446560E+03  0.78111446560E+03  0.25500000000E-02 0.  1.
          2   -1    0    0  501    0  0.00000000000E+00 -0.00000000000E+00 -0.13120817416E+04  0.13120817416E+04  0.25500000000E-02 0. -1.
    8880022    1    1    2    0    0 -0.48371262100E+03  0.33702846039E+03 -0.11014854543E+04  0.12586611704E+04  0.15294330000E+03 0.  0.
    8880022    1    1    2    0    0  0.48371262100E+03 -0.33702846039E+03  0.57051817831E+03  0.83453503679E+03  0.15294330000E+03 0.  0.
<mgrwt>
<rscale>  0 0.60906300E+03</rscale>
<asrwt>0</asrwt>
<pdfrwt beam="1">  1        2 0.20185873E+00 0.60906300E+03</pdfrwt>
<pdfrwt beam="2">  1       -2 0.12017146E+00 0.60906300E+03</pdfrwt>
<totfact> 0.89767032E+00</totfact>
</mgrwt>
</event>
<event>
 4    1  0.1726795E-008  0.1106461E+04  0.7818608E-02  0.9198917E-01
          2   -1    0    0  501    0  0.00000000000E+00  0.00000000000E+00  0.15372707718E+04  0.15372707718E+04  0.25500000000E-02 0. -1.
         -2   -1    0    0    0  501 -0.00000000000E+00 -0.00000000000E+00 -0.97931741512E+03  0.97931741513E+03  0.25500000000E-02 0.  1.
    8880022    1    1    2    0    0  0.24296729588E+03  0.10685650571E+04 -0.26485979895E+03  0.11377199806E+04  0.15294330000E+03 0.  0.
    8880022    1    1    2    0    0 -0.24296729588E+03 -0.10685650571E+04  0.82281315559E+03  0.13788682063E+04  0.15294330000E+03 0.  0.
<mgrwt>
<rscale>  0 0.11064610E+04</rscale>
<asrwt>0</asrwt>
<pdfrwt beam="1">  1        2 0.23650320E+00 0.11064610E+04</pdfrwt>
<pdfrwt beam="2">  1       -2 0.15066422E+00 0.11064610E+04</pdfrwt>
<totfact> 0.35140879E+00</totfact>
</mgrwt>
</event>
<event>
 4    1  0.1726795E-008  0.5254377E+03  0.7818608E-02  0.1007345E+00
         -2   -1    0    0    0  501 -0.00000000000E+00  0.00000000000E+00  0.95010985977E+03  0.95010985978E+03  0.25500000000E-02 0.  1.
          2   -1    0    0  501    0  0.00000000000E+00 -0.00000000000E+00 -0.52184881931E+03  0.52184881932E+03  0.25500000000E-02 0. -1.
    8880022    1    1    2    0    0 -0.50037758512E+03 -0.48118140834E+02 -0.27581751471E+03  0.59343073530E+03  0.15294330000E+03 0.  0.
    8880022    1    1    2    0    0  0.50037758512E+03  0.48118140834E+02  0.70407855517E+03  0.87852794380E+03  0.15294330000E+03 0.  0.
<mgrwt>
<rscale>  0 0.52543766E+03</rscale>
<asrwt>0</asrwt>
<pdfrwt beam="1">  1        2 0.80284435E-01 0.52543766E+03</pdfrwt>
<pdfrwt beam="2">  1       -2 0.14617074E+00 0.52543766E+03</pdfrwt>
<totfact> 0.19502459E+01</totfact>
</mgrwt>
</event>
<event>
 4    1  0.1726795E-008  0.3434525E+03  0.7818608E-02  0.1065335E+00
         -2   -1    0    0    0  501 -0.00000000000E+00  0.00000000000E+00  0.10713391609E+03  0.10713391612E+03  0.25500000000E-02 0.  1.
          2   -1    0    0  501    0  0.00000000000E+00 -0.00000000000E+00 -0.13109980895E+04  0.13109980895E+04  0.25500000000E-02 0. -1.
    8880022    1    1    2    0    0  0.52381433641E+02  0.30302495076E+03 -0.31817702068E+03  0.46818394342E+03  0.15294330000E+03 0.  0.
    8880022    1    1    2    0    0 -0.52381433641E+02 -0.30302495076E+03 -0.88568715271E+03  0.94994806220E+03  0.15294330000E+03 0. -1.
<mgrwt>
<rscale>  0 0.34345245E+03</rscale>
<asrwt>0</asrwt>
<pdfrwt beam="1">  1        2 0.20169200E+00 0.34345245E+03</pdfrwt>
<pdfrwt beam="2">  1       -2 0.16482142E-01 0.34345245E+03</pdfrwt>
<totfact> 0.50427090E+02</totfact>
</mgrwt>
</event>
<event>
 4    1  0.1726795E-008  0.4986712E+03  0.7818608E-02  0.1014126E+00
          2   -1    0    0  501    0  0.00000000000E+00  0.00000000000E+00  0.10177677337E+04  0.10177677337E+04  0.25500000000E-02 0. -1.
         -2   -1    0    0    0  501 -0.00000000000E+00 -0.00000000000E+00 -0.33651431034E+03  0.33651431035E+03  0.25500000000E-02 0.  1.
    8880022    1    1    2    0    0 -0.20939245594E+03 -0.42595320747E+03  0.69503322885E+03  0.85542046842E+03  0.15294330000E+03 0.  0.
    8880022    1    1    2    0    0  0.20939245594E+03  0.42595320747E+03 -0.13779805514E+02  0.49886157561E+03  0.15294330000E+03 0.  0.
<mgrwt>
<rscale>  0 0.49867122E+03</rscale>
<asrwt>0</asrwt>
<pdfrwt beam="1">  1        2 0.15657965E+00 0.49867122E+03</pdfrwt>
<pdfrwt beam="2">  1       -2 0.51771432E-01 0.49867122E+03</pdfrwt>
<totfact> 0.89752262E+01</totfact>
</mgrwt>
</event>
<event>
 4    1  0.1726795E-008  0.5232612E+03  0.7818608E-02  0.1007880E+00
          2   -1    0    0  501    0  0.00000000000E+00  0.00000000000E+00  0.43238323256E+03  0.43238323257E+03  0.25500000000E-02 0. -1.
         -2   -1    0    0    0  501 -0.00000000000E+00 -0.00000000000E+00 -0.14950589944E+04  0.14950589944E+04  0.25500000000E-02 0.  1.
    8880022    1    1    2    0    0  0.24986675596E+03  0.43356341378E+03 -0.12630332117E+04  0.13671339277E+04  0.15294330000E+03 0.  0.
    8880022    1    1    2    0    0 -0.24986675596E+03 -0.43356341378E+03  0.20035744984E+03  0.56030829926E+03  0.15294330000E+03 0.  0.
<mgrwt>
<rscale>  0 0.52326120E+03</rscale>
<asrwt>0</asrwt>
<pdfrwt beam="1">  1        2 0.66520498E-01 0.52326120E+03</pdfrwt>
<pdfrwt beam="2">  1       -2 0.23000907E+00 0.52326120E+03</pdfrwt>
<totfact> 0.65819811E+00</totfact>
</mgrwt>
</event>
<event>
 4    1  0.1726795E-008  0.4778207E+03  0.7818608E-02  0.1019736E+00
         -2   -1    0    0    0  501 -0.00000000000E+00  0.00000000000E+00  0.53888365496E+03  0.53888365497E+03  0.25500000000E-02 0.  1.
          2   -1    0    0  501    0  0.00000000000E+00 -0.00000000000E+00 -0.32429258088E+04  0.32429258088E+04  0.25500000000E-02 0. -1.
    8880022    1    1    2    0    0  0.35646437057E+03  0.27902353668E+03 -0.31150841180E+04  0.31515173642E+04  0.15294330000E+03 0.  0.
    8880022    1    1    2    0    0 -0.35646437057E+03 -0.27902353668E+03  0.41104196415E+03  0.63029209960E+03  0.15294330000E+03 0.  0.
<mgrwt>
<rscale>  0 0.47782071E+03</rscale>
<asrwt>0</asrwt>
<pdfrwt beam="1">  1        2 0.49891165E+00 0.47782071E+03</pdfrwt>
<pdfrwt beam="2">  1       -2 0.82905179E-01 0.47782071E+03</pdfrwt>
<totfact> 0.18008942E+00</totfact>
</mgrwt>
</event>
<event>
 4    1  0.1726795E-008  0.1873553E+04  0.7818608E-02  0.8668134E-01
          2   -1    0    0  501    0  0.00000000000E+00  0.00000000000E+00  0.31225270491E+04  0.31225270491E+04  0.25500000000E-02 0. -1.
         -2   -1    0    0    0  501 -0.00000000000E+00 -0.00000000000E+00 -0.24907166467E+04  0.24907166467E+04  0.25500000000E-02 0.  1.
    8880022    1    1    2    0    0 -0.13561407127E+04  0.12836242161E+04 -0.17630089544E+04  0.25726253103E+04  0.15294330000E+03 0.  0.
    8880022    1    1    2    0    0  0.13561407127E+04 -0.12836242161E+04  0.23948193569E+04  0.30406183854E+04  0.15294330000E+03 0.  0.
<mgrwt>
<rscale>  0 0.18735529E+04</rscale>
<asrwt>0</asrwt>
<pdfrwt beam="1">  1        2 0.48038878E+00 0.18735529E+04</pdfrwt>
<pdfrwt beam="2">  1       -2 0.38318718E+00 0.18735529E+04</pdfrwt>
<totfact> 0.12430703E-02</totfact>
</mgrwt>
</event>
<event>
 4    1  0.1726795E-008  0.5946011E+03  0.7818608E-02  0.9916671E-01
          2   -1    0    0  501    0  0.00000000000E+00  0.00000000000E+00  0.21629161581E+04  0.21629161581E+04  0.25500000000E-02 0. -1.
         -2   -1    0    0    0  501 -0.00000000000E+00 -0.00000000000E+00 -0.36102651106E+03  0.36102651107E+03  0.25500000000E-02 0.  1.
    8880022    1    1    2    0    0  0.54256051268E+03 -0.18917421851E+03 -0.32602891744E+02  0.59549424550E+03  0.15294330000E+03 0.  0.
    8880022    1    1    2    0    0 -0.54256051268E+03  0.18917421851E+03  0.18344925388E+04  0.19284484236E+04  0.15294330000E+03 0.  0.
<mgrwt>
<rscale>  0 0.59460108E+03</rscale>
<asrwt>0</asrwt>
<pdfrwt beam="1">  1        2 0.33275634E+00 0.59460108E+03</pdfrwt>
<pdfrwt beam="2">  1       -2 0.55542539E-01 0.59460108E+03</pdfrwt>
<totfact> 0.17576778E+01</totfact>
</mgrwt>
</event>
<event>
 4    1  0.1726795E-008  0.2880566E+03  0.7818608E-02  0.1091368E+00
         -2   -1    0    0    0  501 -0.00000000000E+00  0.00000000000E+00  0.87068236266E+03  0.87068236266E+03  0.25500000000E-02 0.  1.
          2   -1    0    0  501    0  0.00000000000E+00 -0.00000000000E+00 -0.16374798752E+04  0.16374798753E+04  0.25500000000E-02 0. -1.
    8880022    1    1    2    0    0 -0.23848649902E+03 -0.52049338122E+02 -0.16004393599E+04  0.16261558171E+04  0.15294330000E+03 0.  0.
    8880022    1    1    2    0    0  0.23848649902E+03  0.52049338122E+02  0.83364184728E+03  0.88200642082E+03  0.15294330000E+03 0.  0.
<mgrwt>
<rscale>  0 0.28805659E+03</rscale>
<asrwt>0</asrwt>
<pdfrwt beam="1">  1        2 0.25191998E+00 0.28805659E+03</pdfrwt>
<pdfrwt beam="2">  1       -2 0.13395113E+00 0.28805659E+03</pdfrwt>
<totfact> 0.49372682E+00</totfact>
</mgrwt>
</event>
<event>
 4    1  0.1726795E-008  0.3436643E+03  0.7818608E-02  0.1065246E+00
         -2   -1    0    0    0  501 -0.00000000000E+00  0.00000000000E+00  0.16855043996E+03  0.16855043997E+03  0.25500000000E-02 0.  1.
          2   -1    0    0  501    0  0.00000000000E+00 -0.00000000000E+00 -0.10073373881E+04  0.10073373881E+04  0.25500000000E-02 0. -1.
    8880022    1    1    2    0    0 -0.23569720590E+03 -0.19788960469E+03 -0.74377289531E+03  0.81933097178E+03  0.15294330000E+03 0.  0.
    8880022    1    1    2    0    0  0.23569720590E+03  0.19788960469E+03 -0.95014052823E+02  0.35655685628E+03  0.15294330000E+03 0.  0.
<mgrwt>
<rscale>  0 0.34366426E+03</rscale>
<asrwt>0</asrwt>
<pdfrwt beam="1">  1        2 0.15497498E+00 0.34366426E+03</pdfrwt>
<pdfrwt beam="2">  1       -2 0.25930837E-01 0.34366426E+03</pdfrwt>
<totfact> 0.34585646E+02</totfact>
</mgrwt>
</event>
<event>
 4    1  0.1726795E-008  0.1350169E+04  0.7818608E-02  0.8990701E-01
         -2   -1    0    0    0  501 -0.00000000000E+00  0.00000000000E+00  0.19157228954E+04  0.19157228954E+04  0.25500000000E-02 0.  1.
          2   -1    0    0  501    0  0.00000000000E+00 -0.00000000000E+00 -0.20674345315E+04  0.20674345315E+04  0.25500000000E-02 0. -1.
    8880022    1    1    2    0    0  0.74600531743E+03  0.11149168214E+04  0.13872854026E+04  0.19358501733E+04  0.15294330000E+03 0.  0.
    8880022    1    1    2    0    0 -0.74600531743E+03 -0.11149168214E+04 -0.15389970388E+04  0.20473072536E+04  0.15294330000E+03 0.  0.
<mgrwt>
<rscale>  0 0.13501685E+04</rscale>
<asrwt>0</asrwt>
<pdfrwt beam="1">  1        2 0.31806685E+00 0.13501685E+04</pdfrwt>
<pdfrwt beam="2">  1       -2 0.29472660E+00 0.13501685E+04</pdfrwt>
<totfact> 0.20053054E-01</totfact>
</mgrwt>
</event>
<event>
 4    1  0.1726795E-008  0.6626334E+03  0.7818608E-02  0.9783358E-01
          2   -1    0    0  501    0  0.00000000000E+00  0.00000000000E+00  0.14044559467E+04  0.14044559467E+04  0.25500000000E-02 0. -1.
         -2   -1    0    0    0  501 -0.00000000000E+00 -0.00000000000E+00 -0.12280860414E+04  0.12280860414E+04  0.25500000000E-02 0.  1.
    8880022    1    1    2    0    0  0.48997592059E+03 -0.41906443824E+03 -0.10482597550E+04  0.12401336916E+04  0.15294330000E+03 0.  0.
    8880022    1    1    2    0    0 -0.48997592059E+03  0.41906443824E+03  0.12246296604E+04  0.13924082965E+04  0.15294330000E+03 0. -1.
<mgrwt>
<rscale>  0 0.66263343E+03</rscale>
<asrwt>0</asrwt>
<pdfrwt beam="1">  1        2 0.21607014E+00 0.66263343E+03</pdfrwt>
<pdfrwt beam="2">  1       -2 0.18893631E+00 0.66263343E+03</pdfrwt>
<totfact> 0.23692591E+00</totfact>
</mgrwt>
</event>
<event>
 4    1  0.1726795E-008  0.9311708E+03  0.7818608E-02  0.9387434E-01
          2   -1    0    0  501    0  0.00000000000E+00  0.00000000000E+00  0.13274438887E+04  0.13274438887E+04  0.25500000000E-02 0. -1.
         -2   -1    0    0    0  501 -0.00000000000E+00 -0.00000000000E+00 -0.92327784505E+03  0.92327784505E+03  0.25500000000E-02 0.  1.
    8880022    1    1    2    0    0  0.91769192024E+03 -0.39101170860E+02 -0.40657664393E+03  0.10160627847E+04  0.15294330000E+03 0.  0.
    8880022    1    1    2    0    0 -0.91769192024E+03  0.39101170860E+02  0.81074268760E+03  0.12346589491E+04  0.15294330000E+03 0.  0.
<mgrwt>
<rscale>  0 0.93117078E+03</rscale>
<asrwt>0</asrwt>
<pdfrwt beam="1">  1        2 0.20422214E+00 0.93117078E+03</pdfrwt>
<pdfrwt beam="2">  1       -2 0.14204275E+00 0.93117078E+03</pdfrwt>
<totfact> 0.55083743E+00</totfact>
</mgrwt>
</event>
<event>
 4    1  0.1726795E-008  0.6215994E+03  0.7818608E-02  0.9861580E-01
         -2   -1    0    0    0  501 -0.00000000000E+00  0.00000000000E+00  0.27162835387E+03  0.27162835388E+03  0.25500000000E-02 0.  1.
          2   -1    0    0  501    0  0.00000000000E+00 -0.00000000000E+00 -0.26474889299E+04  0.26474889299E+04  0.25500000000E-02 0. -1.
    8880022    1    1    2    0    0  0.47820501215E+03 -0.36648894147E+03 -0.19510199439E+03  0.65149874834E+03  0.15294330000E+03 0.  0.
    8880022    1    1    2    0    0 -0.47820501215E+03  0.36648894147E+03 -0.21807585817E+04  0.22676185355E+04  0.15294330000E+03 0.  0.
<mgrwt>
<rscale>  0 0.62159941E+03</rscale>
<asrwt>0</asrwt>
<pdfrwt beam="1">  1        2 0.40730597E+00 0.62159941E+03</pdfrwt>
<pdfrwt beam="2">  1       -2 0.41788979E-01 0.62159941E+03</pdfrwt>
<totfact> 0.16639971E+01</totfact>
</mgrwt>
</event>
<event>
 4    1  0.1726795E-008  0.5639837E+03  0.7818608E-02  0.9983081E-01
          2   -1    0    0  501    0  0.00000000000E+00  0.00000000000E+00  0.18963141253E+04  0.18963141253E+04  0.25500000000E-02 0. -1.
         -2   -1    0    0    0  501 -0.00000000000E+00 -0.00000000000E+00 -0.13618908268E+04  0.13618908268E+04  0.25500000000E-02 0.  1.
    8880022    1    1    2    0    0 -0.41463865535E+03  0.35037235474E+03 -0.12582729045E+04  0.13788866366E+04  0.15294330000E+03 0.  0.
    8880022    1    1    2    0    0  0.41463865535E+03 -0.35037235474E+03  0.17926962030E+04  0.18793183154E+04  0.15294330000E+03 0.  0.
<mgrwt>
<rscale>  0 0.56398374E+03</rscale>
<asrwt>0</asrwt>
<pdfrwt beam="1">  1        2 0.29174064E+00 0.56398374E+03</pdfrwt>
<pdfrwt beam="2">  1       -2 0.20952167E+00 0.56398374E+03</pdfrwt>
<totfact> 0.95913503E-01</totfact>
</mgrwt>
</event>
<event>
 4    1  0.1726795E-008  0.1167229E+04  0.7818608E-02  0.9142035E-01
         -2   -1    0    0    0  501 -0.00000000000E+00  0.00000000000E+00  0.52095548521E+04  0.52095548521E+04  0.25500000000E-02 0.  1.
          2   -1    0    0  501    0  0.00000000000E+00 -0.00000000000E+00 -0.53482211487E+03  0.53482211487E+03  0.25500000000E-02 0. -1.
    8880022    1    1    2    0    0 -0.26355407949E+03  0.11267525361E+04  0.28418853543E+03  0.12013271025E+04  0.15294330000E+03 0.  0.
    8880022    1    1    2    0    0  0.26355407949E+03 -0.11267525361E+04  0.43905442018E+04  0.45430498645E+04  0.15294330000E+03 0.  0.
<mgrwt>
<rscale>  0 0.11672291E+04</rscale>
<asrwt>0</asrwt>
<pdfrwt beam="1">  1        2 0.82280325E-01 0.11672291E+04</pdfrwt>
<pdfrwt beam="2">  1       -2 0.80146998E+00 0.11672291E+04</pdfrwt>
<totfact> 0.45490423E-03</totfact>
</mgrwt>
</event>
<event>
 4    1  0.1726795E-008  0.1311794E+04  0.7818608E-02  0.9020264E-01
         -2   -1    0    0    0  501 -0.00000000000E+00  0.00000000000E+00  0.86707472298E+03  0.86707472298E+03  0.25500000000E-02 0.  1.
          2   -1    0    0  501    0  0.00000000000E+00 -0.00000000000E+00 -0.30366656513E+04  0.30366656513E+04  0.25500000000E-02 0. -1.
    8880022    1    1    2    0    0 -0.12961771455E+04  0.13166975689E+03  0.64077821864E+02  0.13133581909E+04  0.15294330000E+03 0.  0.
    8880022    1    1    2    0    0  0.12961771455E+04 -0.13166975689E+03 -0.22336687502E+04  0.25903821834E+04  0.15294330000E+03 0.  0.
<mgrwt>
<rscale>  0 0.13117941E+04</rscale>
<asrwt>0</asrwt>
<pdfrwt beam="1">  1        2 0.46717932E+00 0.13117941E+04</pdfrwt>
<pdfrwt beam="2">  1       -2 0.13339611E+00 0.13117941E+04</pdfrwt>
<totfact> 0.65292194E-01</totfact>
</mgrwt>
</event>
<event>
 4    1  0.1726795E-008  0.1070378E+04  0.7818608E-02  0.9234554E-01
          2   -1    0    0  501    0  0.00000000000E+00  0.00000000000E+00  0.21192197764E+04  0.21192197764E+04  0.25500000000E-02 0. -1.
         -2   -1    0    0    0  501 -0.00000000000E+00 -0.00000000000E+00 -0.64173658228E+03  0.64173658228E+03  0.25500000000E-02 0.  1.
    8880022    1    1    2    0    0 -0.10390115016E+04  0.20681532476E+03  0.19078573045E+03  0.10872480522E+04  0.15294330000E+03 0.  0.
    8880022    1    1    2    0    0  0.10390115016E+04 -0.20681532476E+03  0.12866974637E+04  0.16737083065E+04  0.15294330000E+03 0.  0.
<mgrwt>
<rscale>  0 0.10703780E+04</rscale>
<asrwt>0</asrwt>
<pdfrwt beam="1">  1        2 0.32603381E+00 0.10703780E+04</pdfrwt>
<pdfrwt beam="2">  1       -2 0.98728706E-01 0.10703780E+04</pdfrwt>
<totfact> 0.48500898E+00</totfact>
</mgrwt>
</event>
<event>
 4    1  0.1726795E-008  0.1873541E+04  0.7818608E-02  0.8668140E-01
         -2   -1    0    0    0  501 -0.00000000000E+00  0.00000000000E+00  0.21083342393E+04  0.21083342393E+04  0.25500000000E-02 0.  1.
          2   -1    0    0  501    0  0.00000000000E+00 -0.00000000000E+00 -0.29023252328E+04  0.29023252328E+04  0.25500000000E-02 0. -1.
    8880022    1    1    2    0    0  0.86756410554E+03 -0.16535108302E+04  0.12388867673E+04  0.22461072143E+04  0.15294330000E+03 0.  0.
    8880022    1    1    2    0    0 -0.86756410554E+03  0.16535108302E+04 -0.20328777608E+04  0.27645522578E+04  0.15294330000E+03 0.  0.
<mgrwt>
<rscale>  0 0.18735414E+04</rscale>
<asrwt>0</asrwt>
<pdfrwt beam="1">  1        2 0.44651157E+00 0.18735414E+04</pdfrwt>
<pdfrwt beam="2">  1       -2 0.32435911E+00 0.18735414E+04</pdfrwt>
<totfact> 0.40378264E-02</totfact>
</mgrwt>
</event>
<event>
 4    1  0.1726795E-008  0.7446930E+03  0.7818608E-02  0.9643713E-01
          2   -1    0    0  501    0  0.00000000000E+00  0.00000000000E+00  0.59993382267E+03  0.59993382267E+03  0.25500000000E-02 0. -1.
         -2   -1    0    0    0  501 -0.00000000000E+00 -0.00000000000E+00 -0.18390911229E+04  0.18390911229E+04  0.25500000000E-02 0.  1.
    8880022    1    1    2    0    0  0.49486710129E+03 -0.53505381869E+03 -0.14796337216E+04  0.16564672167E+04  0.15294330000E+03 0.  0.
    8880022    1    1    2    0    0 -0.49486710129E+03  0.53505381869E+03  0.24047642136E+03  0.78255772891E+03  0.15294330000E+03 0.  0.
<mgrwt>
<rscale>  0 0.74469302E+03</rscale>
<asrwt>0</asrwt>
<pdfrwt beam="1">  1        2 0.92297512E-01 0.74469302E+03</pdfrwt>
<pdfrwt beam="2">  1       -2 0.28293709E+00 0.74469302E+03</pdfrwt>
<totfact> 0.20822340E+00</totfact>
</mgrwt>
</event>
<event>
 4    1  0.1726795E-008  0.4051574E+03  0.7818608E-02  0.1042008E+00
         -2   -1    0    0    0  501 -0.00000000000E+00  0.00000000000E+00  0.35564580737E+03  0.35564580738E+03  0.25500000000E-02 0.  1.
          2   -1    0    0  501    0  0.00000000000E+00 -0.00000000000E+00 -0.11814664246E+04  0.11814664247E+04  0.25500000000E-02 0. -1.
    8880022    1    1    2    0    0 -0.30671350795E+03  0.21607330038E+03 -0.10128428074E+04  0.10908726106E+04  0.15294330000E+03 0.  0.
    8880022    1    1    2    0    0  0.30671350795E+03 -0.21607330038E+03  0.18702219013E+03  0.44623962141E+03  0.15294330000E+03 0.  1.
<mgrwt>
<rscale>  0 0.40515738E+03</rscale>
<asrwt>0</asrwt>
<pdfrwt beam="1">  1        2 0.18176406E+00 0.40515738E+03</pdfrwt>
<pdfrwt beam="2">  1       -2 0.54714740E-01 0.40515738E+03</pdfrwt>
<totfact> 0.64716495E+01</totfact>
</mgrwt>
</event>
<event>
 4    1  0.1726795E-008  0.3744748E+03  0.7818608E-02  0.1052995E+00
         -2   -1    0    0    0  501 -0.00000000000E+00  0.00000000000E+00  0.20945881016E+03  0.20945881017E+03  0.25500000000E-02 0.  1.
          2   -1    0    0  501    0  0.00000000000E+00 -0.00000000000E+00 -0.13323565166E+04  0.13323565166E+04  0.25500000000E-02 0. -1.
    8880022    1    1    2    0    0  0.10821597564E+03  0.32423600970E+03 -0.11052047599E+04  0.11669228345E+04  0.15294330000E+03 0. -1.
    8880022    1    1    2    0    0 -0.10821597564E+03 -0.32423600970E+03 -0.17692946516E+02  0.37489249225E+03  0.15294330000E+03 0.  0.
<mgrwt>
<rscale>  0 0.37447475E+03</rscale>
<asrwt>0</asrwt>
<pdfrwt beam="1">  1        2 0.20497792E+00 0.37447475E+03</pdfrwt>
<pdfrwt beam="2">  1       -2 0.32224433E-01 0.37447475E+03</pdfrwt>
<totfact> 0.14979206E+02</totfact>
</mgrwt>
</event>
<event>
 4    1  0.1726795E-008  0.1370279E+04  0.7818608E-02  0.8975617E-01
         -2   -1    0    0    0  501 -0.00000000000E+00  0.00000000000E+00  0.15288459901E+04  0.15288459901E+04  0.25500000000E-02 0.  1.
          2   -1    0    0  501    0  0.00000000000E+00 -0.00000000000E+00 -0.17563123620E+04  0.17563123620E+04  0.25500000000E-02 0. -1.
    8880022    1    1    2    0    0  0.10655142536E+03  0.13575422662E+04  0.78701933123E+03  0.15802105213E+04  0.15294330000E+03 0.  0.
    8880022    1    1    2    0    0 -0.10655142536E+03 -0.13575422662E+04 -0.10144857031E+04  0.17049478308E+04  0.15294330000E+03 0.  0.
<mgrwt>
<rscale>  0 0.13702795E+04</rscale>
<asrwt>0</asrwt>
<pdfrwt beam="1">  1        2 0.27020190E+00 0.13702795E+04</pdfrwt>
<pdfrwt beam="2">  1       -2 0.23520707E+00 0.13702795E+04</pdfrwt>
<totfact> 0.68894115E-01</totfact>
</mgrwt>
</event>
<event>
 4    1  0.1726795E-008  0.1830862E+03  0.7818608E-02  0.1164849E+00
          2   -1    0    0  501    0  0.00000000000E+00  0.00000000000E+00  0.50234455184E+04  0.50234455184E+04  0.25500000000E-02 0. -1.
         -2   -1    0    0    0  501 -0.00000000000E+00 -0.00000000000E+00 -0.54484676888E+02  0.54484676947E+02  0.25500000000E-02 0.  1.
    8880022    1    1    2    0    0 -0.19576483391E+02 -0.98720041673E+02  0.48628938857E+04  0.48663392280E+04  0.15294330000E+03 0.  0.
    8880022    1    1    2    0    0  0.19576483391E+02  0.98720041673E+02  0.10606695579E+03  0.21159096733E+03  0.15294330000E+03 0.  1.
<mgrwt>
<rscale>  0 0.18308615E+03</rscale>
<asrwt>0</asrwt>
<pdfrwt beam="1">  1        2 0.77283794E+00 0.18308615E+03</pdfrwt>
<pdfrwt beam="2">  1       -2 0.83822561E-02 0.18308615E+03</pdfrwt>
<totfact> 0.45222956E+00</totfact>
</mgrwt>
</event>
<event>
 4    1  0.2575427E-008  0.8033135E+03  0.7818608E-02  0.9555233E-01
          2   -1    0    0  501    0  0.00000000000E+00  0.00000000000E+00  0.23713331600E+04  0.23713331600E+04  0.25500000000E-02 0. -1.
         -2   -1    0    0    0  501 -0.00000000000E+00 -0.00000000000E+00 -0.14180327644E+04  0.14180327644E+04  0.25500000000E-02 0.  1.
    8880022    1    1    2    0    0 -0.26817460250E+03 -0.74162203343E+03  0.21798561700E+04  0.23231628080E+04  0.15294330000E+03 0.  0.
    8880022    1    1    2    0    0  0.26817460250E+03  0.74162203343E+03 -0.12265557743E+04  0.14662031163E+04  0.15294330000E+03 0.  0.
<mgrwt>
<rscale>  0 0.80331346E+03</rscale>
<asrwt>0</asrwt>
<pdfrwt beam="1">  1        2 0.36482048E+00 0.80331346E+03</pdfrwt>
<pdfrwt beam="2">  1       -2 0.21815889E+00 0.80331346E+03</pdfrwt>
<totfact> 0.43799487E-01</totfact>
</mgrwt>
</event>
<event>
 4    1  0.1726795E-008  0.3236339E+03  0.7818608E-02  0.1073989E+00
         -2   -1    0    0    0  501 -0.00000000000E+00  0.00000000000E+00  0.52575464339E+02  0.52575464401E+02  0.25500000000E-02 0.  1.
          2   -1    0    0  501    0  0.00000000000E+00 -0.00000000000E+00 -0.32853829142E+04  0.32853829142E+04  0.25500000000E-02 0. -1.
    8880022    1    1    2    0    0  0.12320730295E+03 -0.25722982906E+03 -0.56928922972E+03  0.65485044441E+03  0.15294330000E+03 0.  0.
    8880022    1    1    2    0    0 -0.12320730295E+03  0.25722982906E+03 -0.26635182201E+04  0.26831079342E+04  0.15294330000E+03 0. -1.
<mgrwt>
<rscale>  0 0.32363386E+03</rscale>
<asrwt>0</asrwt>
<pdfrwt beam="1">  1        2 0.50544336E+00 0.32363386E+03</pdfrwt>
<pdfrwt beam="2">  1       -2 0.80885356E-02 0.32363386E+03</pdfrwt>
<totfact> 0.12758951E+02</totfact>
</mgrwt>
</event>
<event>
 4    1  0.1726795E-008  0.1425299E+04  0.7818608E-02  0.8935707E-01
         -2   -1    0    0    0  501 -0.00000000000E+00  0.00000000000E+00  0.23862587976E+04  0.23862587976E+04  0.25500000000E-02 0.  1.
          2   -1    0    0  501    0  0.00000000000E+00 -0.00000000000E+00 -0.97401381254E+03  0.97401381254E+03  0.25500000000E-02 0. -1.
    8880022    1    1    2    0    0  0.11420514476E+04  0.83893040475E+03  0.10981853421E+03  0.14295235208E+04  0.15294330000E+03 0.  0.
    8880022    1    1    2    0    0 -0.11420514476E+04 -0.83893040475E+03  0.13024264508E+04  0.19307490893E+04  0.15294330000E+03 0.  0.
<mgrwt>
<rscale>  0 0.14252991E+04</rscale>
<asrwt>0</asrwt>
<pdfrwt beam="1">  1        2 0.14984828E+00 0.14252991E+04</pdfrwt>
<pdfrwt beam="2">  1       -2 0.36711674E+00 0.14252991E+04</pdfrwt>
<totfact> 0.30381751E-01</totfact>
</mgrwt>
</event>
<event>
 4    1  0.1726795E-008  0.4139978E+03  0.7818608E-02  0.1039038E+00
         -2   -1    0    0    0  501 -0.00000000000E+00  0.00000000000E+00  0.16936136360E+04  0.16936136360E+04  0.25500000000E-02 0.  1.
          2   -1    0    0  501    0  0.00000000000E+00 -0.00000000000E+00 -0.12000539316E+04  0.12000539316E+04  0.25500000000E-02 0. -1.
    8880022    1    1    2    0    0 -0.28227895418E+03 -0.26138313413E+03  0.16312646245E+04  0.16829790489E+04  0.15294330000E+03 0.  0.
    8880022    1    1    2    0    0  0.28227895418E+03  0.26138313413E+03 -0.11377049202E+04  0.12106885186E+04  0.15294330000E+03 0.  0.
<mgrwt>
<rscale>  0 0.41399783E+03</rscale>
<asrwt>0</asrwt>
<pdfrwt beam="1">  1        2 0.18462368E+00 0.41399783E+03</pdfrwt>
<pdfrwt beam="2">  1       -2 0.26055594E+00 0.41399783E+03</pdfrwt>
<totfact> 0.11870798E+00</totfact>
</mgrwt>
</event>
<event>
 4    1  0.1726795E-008  0.2395494E+03  0.7818608E-02  0.1120093E+00
         -2   -1    0    0    0  501 -0.00000000000E+00  0.00000000000E+00  0.19704604841E+03  0.19704604842E+03  0.25500000000E-02 0.  1.
          2   -1    0    0  501    0  0.00000000000E+00 -0.00000000000E+00 -0.64702652884E+03  0.64702652884E+03  0.25500000000E-02 0. -1.
    8880022    1    1    2    0    0  0.92877248047E+02  0.15926735222E+03 -0.53795480264E+03  0.58887969517E+03  0.15294330000E+03 0.  0.
    8880022    1    1    2    0    0 -0.92877248047E+02 -0.15926735222E+03  0.87974322210E+02  0.25519288209E+03  0.15294330000E+03 0.  0.
<mgrwt>
<rscale>  0 0.23954942E+03</rscale>
<asrwt>0</asrwt>
<pdfrwt beam="1">  1        2 0.99542542E-01 0.23954942E+03</pdfrwt>
<pdfrwt beam="2">  1       -2 0.30314777E-01 0.23954942E+03</pdfrwt>
<totfact> 0.46645342E+02</totfact>
</mgrwt>
</event>
<event>
 4    1  0.1726795E-008  0.4043917E+03  0.7818608E-02  0.1042270E+00
         -2   -1    0    0    0  501 -0.00000000000E+00  0.00000000000E+00  0.49917805174E+03  0.49917805175E+03  0.25500000000E-02 0.  1.
          2   -1    0    0  501    0  0.00000000000E+00 -0.00000000000E+00 -0.75272559404E+03  0.75272559404E+03  0.25500000000E-02 0. -1.
    8880022    1    1    2    0    0  0.16467335819E+03 -0.33618989963E+03  0.34363917159E+03  0.53067927864E+03  0.15294330000E+03 0.  0.
    8880022    1    1    2    0    0 -0.16467335819E+03  0.33618989963E+03 -0.59718671389E+03  0.72122436715E+03  0.15294330000E+03 0.  0.
<mgrwt>
<rscale>  0 0.40439166E+03</rscale>
<asrwt>0</asrwt>
<pdfrwt beam="1">  1        2 0.11580394E+00 0.40439166E+03</pdfrwt>
<pdfrwt beam="2">  1       -2 0.76796623E-01 0.40439166E+03</pdfrwt>
<totfact> 0.59281398E+01</totfact>
</mgrwt>
</event>
<event>
 4    1  0.1726795E-008  0.1033320E+04  0.7818608E-02  0.9272736E-01
          2   -1    0    0  501    0  0.00000000000E+00  0.00000000000E+00  0.28672672462E+04  0.28672672462E+04  0.25500000000E-02 0. -1.
         -2   -1    0    0    0  501 -0.00000000000E+00 -0.00000000000E+00 -0.48437689248E+03  0.48437689249E+03  0.25500000000E-02 0.  1.
    8880022    1    1    2    0    0 -0.92291161801E+03 -0.43885478811E+03  0.38567080830E+03  0.11029474172E+04  0.15294330000E+03 0.  0.
    8880022    1    1    2    0    0  0.92291161801E+03  0.43885478811E+03  0.19972195455E+04  0.22486967215E+04  0.15294330000E+03 0.  0.
<mgrwt>
<rscale>  0 0.10333204E+04</rscale>
<asrwt>0</asrwt>
<pdfrwt beam="1">  1        2 0.44111803E+00 0.10333204E+04</pdfrwt>
<pdfrwt beam="2">  1       -2 0.74519523E-01 0.10333204E+04</pdfrwt>
<totfact> 0.34548507E+00</totfact>
</mgrwt>
</event>
<event>
 4    1  0.1726795E-008  0.5310935E+03  0.7818608E-02  0.1005967E+00
         -2   -1    0    0    0  501 -0.00000000000E+00  0.00000000000E+00  0.16477001642E+03  0.16477001644E+03  0.25500000000E-02 0.  1.
          2   -1    0    0  501    0  0.00000000000E+00 -0.00000000000E+00 -0.31383125906E+04  0.31383125906E+04  0.25500000000E-02 0. -1.
    8880022    1    1    2    0    0  0.50855723966E+03 -0.61832858852E+01 -0.26002262167E+04  0.26539097065E+04  0.15294330000E+03 0.  0.
    8880022    1    1    2    0    0 -0.50855723966E+03  0.61832858852E+01 -0.37331635743E+03  0.64917290053E+03  0.15294330000E+03 0.  0.
<mgrwt>
<rscale>  0 0.53109354E+03</rscale>
<asrwt>0</asrwt>
<pdfrwt beam="1">  1        2 0.48281728E+00 0.53109354E+03</pdfrwt>
<pdfrwt beam="2">  1       -2 0.25349236E-01 0.53109354E+03</pdfrwt>
<totfact> 0.22078461E+01</totfact>
</mgrwt>
</event>
<event>
 4    1  0.1726795E-008  0.8701353E+03  0.7818608E-02  0.9463704E-01
          2   -1    0    0  501    0  0.00000000000E+00  0.00000000000E+00  0.29426382364E+04  0.29426382364E+04  0.25500000000E-02 0. -1.
         -2   -1    0    0    0  501 -0.00000000000E+00 -0.00000000000E+00 -0.89121924408E+03  0.89121924408E+03  0.25500000000E-02 0.  1.
    8880022    1    1    2    0    0 -0.42350372499E+03  0.74457262414E+03  0.26424163659E+04  0.27819956329E+04  0.15294330000E+03 0.  0.
    8880022    1    1    2    0    0  0.42350372499E+03 -0.74457262414E+03 -0.59099737361E+03  0.10518618475E+04  0.15294330000E+03 0.  0.
<mgrwt>
<rscale>  0 0.87013531E+03</rscale>
<asrwt>0</asrwt>
<pdfrwt beam="1">  1        2 0.45271357E+00 0.87013531E+03</pdfrwt>
<pdfrwt beam="2">  1       -2 0.13711065E+00 0.87013531E+03</pdfrwt>
<totfact> 0.74542751E-01</totfact>
</mgrwt>
</event>
<event>
 4    1  0.1726795E-008  0.3968049E+03  0.7818608E-02  0.1044892E+00
         -2   -1    0    0    0  501 -0.00000000000E+00  0.00000000000E+00  0.23557709798E+03  0.23557709799E+03  0.25500000000E-02 0.  1.
          2   -1    0    0  501    0  0.00000000000E+00 -0.00000000000E+00 -0.11131702634E+04  0.11131702634E+04  0.25500000000E-02 0. -1.
    8880022    1    1    2    0    0 -0.94858474830E+02  0.35364432572E+03 -0.86508091822E+03  0.95174528496E+03  0.15294330000E+03 0.  0.
    8880022    1    1    2    0    0  0.94858474830E+02 -0.35364432572E+03 -0.12512247217E+02  0.39700207645E+03  0.15294330000E+03 0.  0.
<mgrwt>
<rscale>  0 0.39680485E+03</rscale>
<asrwt>0</asrwt>
<pdfrwt beam="1">  1        2 0.17125696E+00 0.39680485E+03</pdfrwt>
<pdfrwt beam="2">  1       -2 0.36242631E-01 0.39680485E+03</pdfrwt>
<totfact> 0.16012214E+02</totfact>
</mgrwt>
</event>
<event>
 4    1  0.1726795E-008  0.6129565E+03  0.7818608E-02  0.9878884E-01
          2   -1    0    0  501    0  0.00000000000E+00  0.00000000000E+00  0.57603893720E+03  0.57603893720E+03  0.25500000000E-02 0. -1.
         -2   -1    0    0    0  501 -0.00000000000E+00 -0.00000000000E+00 -0.83905382436E+03  0.83905382436E+03  0.25500000000E-02 0.  1.
    8880022    1    1    2    0    0 -0.95799427464E+02 -0.58578702545E+03  0.20235267004E+03  0.64549378431E+03  0.15294330000E+03 0.  0.
    8880022    1    1    2    0    0  0.95799427464E+02  0.58578702545E+03 -0.46536755720E+03  0.76959897726E+03  0.15294330000E+03 0.  1.
<mgrwt>
<rscale>  0 0.61295646E+03</rscale>
<asrwt>0</asrwt>
<pdfrwt beam="1">  1        2 0.88621375E-01 0.61295646E+03</pdfrwt>
<pdfrwt beam="2">  1       -2 0.12908520E+00 0.61295646E+03</pdfrwt>
<totfact> 0.23639171E+01</totfact>
</mgrwt>
</event>
<event>
 4    1  0.1726795E-008  0.5085996E+03  0.7818608E-02  0.1011558E+00
          2   -1    0    0  501    0  0.00000000000E+00  0.00000000000E+00  0.15774898695E+04  0.15774898695E+04  0.25500000000E-02 0. -1.
         -2   -1    0    0    0  501 -0.00000000000E+00 -0.00000000000E+00 -0.88514662829E+03  0.88514662829E+03  0.25500000000E-02 0.  1.
    8880022    1    1    2    0    0  0.33725448938E+03 -0.34862781021E+03  0.14575990918E+04  0.15437838923E+04  0.15294330000E+03 0.  0.
    8880022    1    1    2    0    0 -0.33725448938E+03  0.34862781021E+03 -0.76525585062E+03  0.91885260547E+03  0.15294330000E+03 0.  0.
<mgrwt>
<rscale>  0 0.50859964E+03</rscale>
<asrwt>0</asrwt>
<pdfrwt beam="1">  1        2 0.24269075E+00 0.50859964E+03</pdfrwt>
<pdfrwt beam="2">  1       -2 0.13617640E+00 0.50859964E+03</pdfrwt>
<totfact> 0.47628167E+00</totfact>
</mgrwt>
</event>
<event>
 4    1  0.1726795E-008  0.1839529E+03  0.7818608E-02  0.1164031E+00
          2   -1    0    0  501    0  0.00000000000E+00  0.00000000000E+00  0.62520310103E+03  0.62520310104E+03  0.25500000000E-02 0. -1.
         -2   -1    0    0    0  501 -0.00000000000E+00 -0.00000000000E+00 -0.17066137224E+03  0.17066137226E+03  0.25500000000E-02 0.  1.
    8880022    1    1    2    0    0  0.88591521007E+02  0.50976136657E+02 -0.10156075180E+03  0.21012677941E+03  0.15294330000E+03 0.  0.
    8880022    1    1    2    0    0 -0.88591521007E+02 -0.50976136657E+02  0.55610248059E+03  0.58573769388E+03  0.15294330000E+03 0.  0.
<mgrwt>
<rscale>  0 0.18395292E+03</rscale>
<asrwt>0</asrwt>
<pdfrwt beam="1">  1        2 0.96185094E-01 0.18395292E+03</pdfrwt>
<pdfrwt beam="2">  1       -2 0.26255595E-01 0.18395292E+03</pdfrwt>
<totfact> 0.63025778E+02</totfact>
</mgrwt>
</event>
<event>
 4    1  0.1726795E-008  0.8809810E+03  0.7818608E-02  0.9449673E-01
          2   -1    0    0  501    0  0.00000000000E+00  0.00000000000E+00  0.19018025622E+04  0.19018025622E+04  0.25500000000E-02 0. -1.
         -2   -1    0    0    0  501 -0.00000000000E+00 -0.00000000000E+00 -0.11258102042E+04  0.11258102042E+04  0.25500000000E-02 0.  1.
    8880022    1    1    2    0    0 -0.70432228622E+03 -0.50662215482E+03 -0.82068566132E+03  0.12040151570E+04  0.15294330000E+03 0.  0.
    8880022    1    1    2    0    0  0.70432228622E+03  0.50662215482E+03  0.15966780193E+04  0.18235976094E+04  0.15294330000E+03 0.  0.
<mgrwt>
<rscale>  0 0.88098101E+03</rscale>
<asrwt>0</asrwt>
<pdfrwt beam="1">  1        2 0.29258501E+00 0.88098101E+03</pdfrwt>
<pdfrwt beam="2">  1       -2 0.17320157E+00 0.88098101E+03</pdfrwt>
<totfact> 0.15544098E+00</totfact>
</mgrwt>
</event>
<event>
 4    1  0.1726795E-008  0.5562733E+03  0.7818608E-02  0.1000052E+00
          2   -1    0    0  501    0  0.00000000000E+00  0.00000000000E+00  0.15206599464E+04  0.15206599464E+04  0.25500000000E-02 0. -1.
         -2   -1    0    0    0  501 -0.00000000000E+00 -0.00000000000E+00 -0.94329033628E+03  0.94329033628E+03  0.25500000000E-02 0.  1.
    8880022    1    1    2    0    0 -0.37195367153E+03 -0.38431599236E+03  0.13797139326E+04  0.14876325166E+04  0.15294330000E+03 0.  0.
    8880022    1    1    2    0    0  0.37195367153E+03  0.38431599236E+03 -0.80234432240E+03  0.97631776612E+03  0.15294330000E+03 0.  0.
<mgrwt>
<rscale>  0 0.55627329E+03</rscale>
<asrwt>0</asrwt>
<pdfrwt beam="1">  1        2 0.23394768E+00 0.55627329E+03</pdfrwt>
<pdfrwt beam="2">  1       -2 0.14512159E+00 0.55627329E+03</pdfrwt>
<totfact> 0.42965113E+00</totfact>
</mgrwt>
</event>
<event>
 4    1  0.1726795E-008  0.3917879E+03  0.7818608E-02  0.1046661E+00
         -2   -1    0    0    0  501 -0.00000000000E+00  0.00000000000E+00  0.13607131879E+04  0.13607131879E+04  0.25500000000E-02 0.  1.
          2   -1    0    0  501    0  0.00000000000E+00 -0.00000000000E+00 -0.84376679386E+03  0.84376679387E+03  0.25500000000E-02 0. -1.
    8880022    1    1    2    0    0 -0.34995124603E+03  0.87408274409E+02 -0.76744266744E+03  0.86166465743E+03  0.15294330000E+03 0.  0.
    8880022    1    1    2    0    0  0.34995124603E+03 -0.87408274409E+02  0.12843890615E+04  0.13428153244E+04  0.15294330000E+03 0.  1.
<mgrwt>
<rscale>  0 0.39178787E+03</rscale>
<asrwt>0</asrwt>
<pdfrwt beam="1">  1        2 0.12981028E+00 0.39178787E+03</pdfrwt>
<pdfrwt beam="2">  1       -2 0.20934049E+00 0.39178787E+03</pdfrwt>
<totfact> 0.40700830E+00</totfact>
</mgrwt>
</event>
<event>
 4    1  0.1726795E-008  0.2103312E+03  0.7818608E-02  0.1141304E+00
          2   -1    0    0  501    0  0.00000000000E+00  0.00000000000E+00  0.67464575148E+03  0.67464575149E+03  0.25500000000E-02 0. -1.
         -2   -1    0    0    0  501 -0.00000000000E+00 -0.00000000000E+00 -0.29713515865E+03  0.29713515866E+03  0.25500000000E-02 0.  1.
    8880022    1    1    2    0    0 -0.53362438815E+02 -0.13416419013E+03 -0.24018237145E+03  0.31925977567E+03  0.15294330000E+03 0.  1.
    8880022    1    1    2    0    0  0.53362438815E+02  0.13416419013E+03  0.61769296429E+03  0.65252113448E+03  0.15294330000E+03 0.  0.
<mgrwt>
<rscale>  0 0.21033125E+03</rscale>
<asrwt>0</asrwt>
<pdfrwt beam="1">  1        2 0.10379165E+00 0.21033125E+03</pdfrwt>
<pdfrwt beam="2">  1       -2 0.45713101E-01 0.21033125E+03</pdfrwt>
<totfact> 0.20500124E+02</totfact>
</mgrwt>
</event>
<event>
 4    1  0.1726795E-008  0.6133254E+03  0.7818608E-02  0.9878139E-01
         -2   -1    0    0    0  501 -0.00000000000E+00  0.00000000000E+00  0.24805635884E+03  0.24805635885E+03  0.25500000000E-02 0.  1.
          2   -1    0    0  501    0  0.00000000000E+00 -0.00000000000E+00 -0.17264794715E+04  0.17264794715E+04  0.25500000000E-02 0. -1.
    8880022    1    1    2    0    0 -0.35806149080E+03 -0.47388645751E+03 -0.39487593170E+03  0.72944846305E+03  0.15294330000E+03 0.  0.
    8880022    1    1    2    0    0  0.35806149080E+03  0.47388645751E+03 -0.10835471810E+04  0.12450873673E+04  0.15294330000E+03 0.  0.
<mgrwt>
<rscale>  0 0.61332541E+03</rscale>
<asrwt>0</asrwt>
<pdfrwt beam="1">  1        2 0.26561222E+00 0.61332541E+03</pdfrwt>
<pdfrwt beam="2">  1       -2 0.38162518E-01 0.61332541E+03</pdfrwt>
<totfact> 0.63955842E+01</totfact>
</mgrwt>
</event>
<event>
 4    1  0.1726795E-008  0.4332556E+03  0.7818608E-02  0.1032836E+00
         -2   -1    0    0    0  501 -0.00000000000E+00  0.00000000000E+00  0.52874130230E+03  0.52874130231E+03  0.25500000000E-02 0.  1.
          2   -1    0    0  501    0  0.00000000000E+00 -0.00000000000E+00 -0.81968374251E+03  0.81968374252E+03  0.25500000000E-02 0. -1.
    8880022    1    1    2    0    0 -0.40333927523E+03  0.40450310610E+02  0.36215722597E+03  0.56468425506E+03  0.15294330000E+03 0.  1.
    8880022    1    1    2    0    0  0.40333927523E+03 -0.40450310610E+02 -0.65309966618E+03  0.78374078977E+03  0.15294330000E+03 0. -1.
<mgrwt>
<rscale>  0 0.43325564E+03</rscale>
<asrwt>0</asrwt>
<pdfrwt beam="1">  1        2 0.12610519E+00 0.43325564E+03</pdfrwt>
<pdfrwt beam="2">  1       -2 0.81344816E-01 0.43325564E+03</pdfrwt>
<totfact> 0.46544676E+01</totfact>
</mgrwt>
</event>
<event>
 4    1  0.1726795E-008  0.3656459E+03  0.7818608E-02  0.1056370E+00
         -2   -1    0    0    0  501 -0.00000000000E+00  0.00000000000E+00  0.76886873355E+02  0.76886873397E+02  0.25500000000E-02 0.  1.
          2   -1    0    0  501    0  0.00000000000E+00 -0.00000000000E+00 -0.39581985377E+04  0.39581985377E+04  0.25500000000E-02 0. -1.
    8880022    1    1    2    0    0 -0.15608856624E+03  0.29315807666E+03 -0.42993613932E+03  0.56439528287E+03  0.15294330000E+03 0.  0.
    8880022    1    1    2    0    0  0.15608856624E+03 -0.29315807666E+03 -0.34513755250E+04  0.34706901282E+04  0.15294330000E+03 0.  0.
<mgrwt>
<rscale>  0 0.36564594E+03</rscale>
<asrwt>0</asrwt>
<pdfrwt beam="1">  1        2 0.60895346E+00 0.36564594E+03</pdfrwt>
<pdfrwt beam="2">  1       -2 0.11828753E-01 0.36564594E+03</pdfrwt>
<totfact> 0.23417369E+01</totfact>
</mgrwt>
</event>
<event>
 4    1  0.1726795E-008  0.8493082E+03  0.7818608E-02  0.9491266E-01
         -2   -1    0    0    0  501 -0.00000000000E+00  0.00000000000E+00  0.82455024623E+03  0.82455024623E+03  0.25500000000E-02 0.  1.
          2   -1    0    0  501    0  0.00000000000E+00 -0.00000000000E+00 -0.98244322684E+03  0.98244322684E+03  0.25500000000E-02 0. -1.
    8880022    1    1    2    0    0 -0.26317561933E+03 -0.79288796361E+03 -0.37799873109E+03  0.92962757229E+03  0.15294330000E+03 0.  0.
    8880022    1    1    2    0    0  0.26317561933E+03  0.79288796361E+03  0.22010575048E+03  0.87736590078E+03  0.15294330000E+03 0.  0.
<mgrwt>
<rscale>  0 0.84930818E+03</rscale>
<asrwt>0</asrwt>
<pdfrwt beam="1">  1        2 0.15114511E+00 0.84930818E+03</pdfrwt>
<pdfrwt beam="2">  1       -2 0.12685388E+00 0.84930818E+03</pdfrwt>
<totfact> 0.12019973E+01</totfact>
</mgrwt>
</event>
<event>
 4    1  0.1726795E-008  0.1153256E+04  0.7818608E-02  0.9154785E-01
          2   -1    0    0  501    0  0.00000000000E+00  0.00000000000E+00  0.14678167732E+04  0.14678167732E+04  0.25500000000E-02 0. -1.
         -2   -1    0    0    0  501 -0.00000000000E+00 -0.00000000000E+00 -0.15717755142E+04  0.15717755142E+04  0.25500000000E-02 0.  1.
    8880022    1    1    2    0    0  0.58958936823E+03 -0.97928167749E+03 -0.10410308632E+04  0.15536232292E+04  0.15294330000E+03 0.  0.
    8880022    1    1    2    0    0 -0.58958936823E+03  0.97928167749E+03  0.93707212224E+03  0.14859690583E+04  0.15294330000E+03 0.  0.
<mgrwt>
<rscale>  0 0.11532562E+04</rscale>
<asrwt>0</asrwt>
<pdfrwt beam="1">  1        2 0.22581797E+00 0.11532562E+04</pdfrwt>
<pdfrwt beam="2">  1       -2 0.24181162E+00 0.11532562E+04</pdfrwt>
<totfact> 0.93345862E-01</totfact>
</mgrwt>
</event>
<event>
 4    1  0.1726795E-008  0.1254014E+04  0.7818608E-02  0.9066849E-01
         -2   -1    0    0    0  501 -0.00000000000E+00  0.00000000000E+00  0.18230566888E+04  0.18230566888E+04  0.25500000000E-02 0.  1.
          2   -1    0    0  501    0  0.00000000000E+00 -0.00000000000E+00 -0.10298786192E+04  0.10298786192E+04  0.25500000000E-02 0. -1.
    8880022    1    1    2    0    0 -0.80575023562E+03 -0.94864448293E+03 -0.17832300932E+03  0.12666296009E+04  0.15294330000E+03 0.  0.
    8880022    1    1    2    0    0  0.80575023562E+03  0.94864448293E+03  0.97150107883E+03  0.15863057071E+04  0.15294330000E+03 0.  0.
<mgrwt>
<rscale>  0 0.12540141E+04</rscale>
<asrwt>0</asrwt>
<pdfrwt beam="1">  1        2 0.15844287E+00 0.12540141E+04</pdfrwt>
<pdfrwt beam="2">  1       -2 0.28047026E+00 0.12540141E+04</pdfrwt>
<totfact> 0.97845460E-01</totfact>
</mgrwt>
</event>
<event>
 4    1  0.1726795E-008  0.5417607E+03  0.7818608E-02  0.1003419E+00
          2   -1    0    0  501    0  0.00000000000E+00  0.00000000000E+00  0.66705117086E+03  0.66705117087E+03  0.25500000000E-02 0. -1.
         -2   -1    0    0    0  501 -0.00000000000E+00 -0.00000000000E+00 -0.23728585141E+04  0.23728585141E+04  0.25500000000E-02 0.  1.
    8880022    1    1    2    0    0 -0.44832194247E+03 -0.26290775137E+03 -0.22247151345E+04  0.22897297074E+04  0.15294330000E+03 0.  0.
    8880022    1    1    2    0    0  0.44832194247E+03  0.26290775137E+03  0.51890779135E+03  0.75017997758E+03  0.15294330000E+03 0.  0.
<mgrwt>
<rscale>  0 0.54176074E+03</rscale>
<asrwt>0</asrwt>
<pdfrwt beam="1">  1        2 0.10262326E+00 0.54176074E+03</pdfrwt>
<pdfrwt beam="2">  1       -2 0.36505515E+00 0.54176074E+03</pdfrwt>
<totfact> 0.60439646E-01</totfact>
</mgrwt>
</event>
<event>
 4    1  0.1726795E-008  0.1096845E+04  0.7818608E-02  0.9208272E-01
          2   -1    0    0  501    0  0.00000000000E+00  0.00000000000E+00  0.37472581700E+04  0.37472581700E+04  0.25500000000E-02 0. -1.
         -2   -1    0    0    0  501 -0.00000000000E+00 -0.00000000000E+00 -0.10098828628E+04  0.10098828628E+04  0.25500000000E-02 0.  1.
    8880022    1    1    2    0    0  0.47821175670E+02  0.10850764537E+04 -0.59574178348E+03  0.12481897695E+04  0.15294330000E+03 0.  0.
    8880022    1    1    2    0    0 -0.47821175670E+02 -0.10850764537E+04  0.33331170906E+04  0.35089512633E+04  0.15294330000E+03 0.  0.
<mgrwt>
<rscale>  0 0.10968452E+04</rscale>
<asrwt>0</asrwt>
<pdfrwt beam="1">  1        2 0.57650125E+00 0.10968452E+04</pdfrwt>
<pdfrwt beam="2">  1       -2 0.15536660E+00 0.10968452E+04</pdfrwt>
<totfact> 0.14963172E-01</totfact>
</mgrwt>
</event>
<event>
 4    1  0.1726795E-008  0.1595147E+04  0.7818608E-02  0.8823535E-01
          2   -1    0    0  501    0  0.00000000000E+00  0.00000000000E+00  0.35991622181E+04  0.35991622181E+04  0.25500000000E-02 0. -1.
         -2   -1    0    0    0  501 -0.00000000000E+00 -0.00000000000E+00 -0.79206177057E+03  0.79206177057E+03  0.25500000000E-02 0.  1.
    8880022    1    1    2    0    0  0.15867186312E+04  0.58532463519E+02  0.21232048147E+04  0.26556529145E+04  0.15294330000E+03 0.  0.
    8880022    1    1    2    0    0 -0.15867186312E+04 -0.58532463519E+02  0.68389563288E+03  0.17355710742E+04  0.15294330000E+03 0.  0.
<mgrwt>
<rscale>  0 0.15951469E+04</rscale>
<asrwt>0</asrwt>
<pdfrwt beam="1">  1        2 0.55371727E+00 0.15951469E+04</pdfrwt>
<pdfrwt beam="2">  1       -2 0.12185565E+00 0.15951469E+04</pdfrwt>
<totfact> 0.33505225E-01</totfact>
</mgrwt>
</event>
<event>
 4    1  0.1726795E-008  0.2446774E+03  0.7818608E-02  0.1116716E+00
          2   -1    0    0  501    0  0.00000000000E+00  0.00000000000E+00  0.73682267706E+03  0.73682267707E+03  0.25500000000E-02 0. -1.
         -2   -1    0    0    0  501 -0.00000000000E+00 -0.00000000000E+00 -0.62126712483E+03  0.62126712484E+03  0.25500000000E-02 0.  1.
    8880022    1    1    2    0    0 -0.21625252737E+02  0.18975697599E+03  0.69086416748E+03  0.73291221331E+03  0.15294330000E+03 0.  0.
    8880022    1    1    2    0    0  0.21625252737E+02 -0.18975697599E+03 -0.57530861525E+03  0.62517758860E+03  0.15294330000E+03 0.  1.
<mgrwt>
<rscale>  0 0.24467737E+03</rscale>
<asrwt>0</asrwt>
<pdfrwt beam="1">  1        2 0.11335733E+00 0.24467737E+03</pdfrwt>
<pdfrwt beam="2">  1       -2 0.95579558E-01 0.24467737E+03</pdfrwt>
<totfact> 0.38290550E+01</totfact>
</mgrwt>
</event>
<event>
 4    1  0.1726795E-008  0.5062088E+03  0.7818608E-02  0.1012171E+00
          2   -1    0    0  501    0  0.00000000000E+00  0.00000000000E+00  0.23269237610E+04  0.23269237610E+04  0.25500000000E-02 0. -1.
         -2   -1    0    0    0  501 -0.00000000000E+00 -0.00000000000E+00 -0.56188769026E+03  0.56188769026E+03  0.25500000000E-02 0.  1.
    8880022    1    1    2    0    0  0.45892560242E+03 -0.14914095345E+03 -0.41263376946E+03  0.65308040337E+03  0.15294330000E+03 0.  1.
    8880022    1    1    2    0    0 -0.45892560242E+03  0.14914095345E+03  0.21776698402E+04  0.22357310478E+04  0.15294330000E+03 0.  0.
<mgrwt>
<rscale>  0 0.50620884E+03</rscale>
<asrwt>0</asrwt>
<pdfrwt beam="1">  1        2 0.35798827E+00 0.50620884E+03</pdfrwt>
<pdfrwt beam="2">  1       -2 0.86444260E-01 0.50620884E+03</pdfrwt>
<totfact> 0.55826653E+00</totfact>
</mgrwt>
</event>
<event>
 4    1  0.1726795E-008  0.5637803E+03  0.7818608E-02  0.9983537E-01
         -2   -1    0    0    0  501 -0.00000000000E+00  0.00000000000E+00  0.21610017419E+04  0.21610017419E+04  0.25500000000E-02 0.  1.
          2   -1    0    0  501    0  0.00000000000E+00 -0.00000000000E+00 -0.10035230313E+04  0.10035230313E+04  0.25500000000E-02 0. -1.
    8880022    1    1    2    0    0 -0.10106856934E+03 -0.53314323992E+03 -0.88297705688E+03  0.10476147698E+04  0.15294330000E+03 0.  0.
    8880022    1    1    2    0    0  0.10106856934E+03  0.53314323992E+03  0.20404557675E+04  0.21169100033E+04  0.15294330000E+03 0.  0.
<mgrwt>
<rscale>  0 0.56378030E+03</rscale>
<asrwt>0</asrwt>
<pdfrwt beam="1">  1        2 0.15438816E+00 0.56378030E+03</pdfrwt>
<pdfrwt beam="2">  1       -2 0.33246181E+00 0.56378030E+03</pdfrwt>
<totfact> 0.55407317E-01</totfact>
</mgrwt>
</event>
<event>
 4    1  0.1726795E-008  0.3018404E+03  0.7818608E-02  0.1084324E+00
         -2   -1    0    0    0  501 -0.00000000000E+00  0.00000000000E+00  0.47228021930E+03  0.47228021931E+03  0.25500000000E-02 0.  1.
          2   -1    0    0  501    0  0.00000000000E+00 -0.00000000000E+00 -0.37288416954E+04  0.37288416954E+04  0.25500000000E-02 0. -1.
    8880022    1    1    2    0    0 -0.85254311342E+02  0.24586110329E+03  0.41722283423E+03  0.51495876158E+03  0.15294330000E+03 0.  0.
    8880022    1    1    2    0    0  0.85254311342E+02 -0.24586110329E+03 -0.36737843103E+04  0.36861631531E+04  0.15294330000E+03 0.  0.
<mgrwt>
<rscale>  0 0.30184041E+03</rscale>
<asrwt>0</asrwt>
<pdfrwt beam="1">  1        2 0.57366793E+00 0.30184041E+03</pdfrwt>
<pdfrwt beam="2">  1       -2 0.72658498E-01 0.30184041E+03</pdfrwt>
<totfact> 0.12416845E+00</totfact>
</mgrwt>
</event>
<event>
 4    1  0.1726795E-008  0.4732004E+03  0.7818608E-02  0.1021021E+00
         -2   -1    0    0    0  501 -0.00000000000E+00  0.00000000000E+00  0.16994115912E+03  0.16994115914E+03  0.25500000000E-02 0.  1.
          2   -1    0    0  501    0  0.00000000000E+00 -0.00000000000E+00 -0.28377898080E+04  0.28377898080E+04  0.25500000000E-02 0. -1.
    8880022    1    1    2    0    0 -0.16477547448E+03  0.41638441830E+03 -0.23323609463E+03  0.52755821446E+03  0.15294330000E+03 0.  0.
    8880022    1    1    2    0    0  0.16477547448E+03 -0.41638441830E+03 -0.24346125542E+04  0.24801727527E+04  0.15294330000E+03 0.  0.
<mgrwt>
<rscale>  0 0.47320037E+03</rscale>
<asrwt>0</asrwt>
<pdfrwt beam="1">  1        2 0.43658301E+00 0.47320037E+03</pdfrwt>
<pdfrwt beam="2">  1       -2 0.26144796E-01 0.47320037E+03</pdfrwt>
<totfact> 0.32159568E+01</totfact>
</mgrwt>
</event>
<event>
 4    1  0.1726795E-008  0.6320284E+03  0.7818608E-02  0.9841099E-01
          2   -1    0    0  501    0  0.00000000000E+00  0.00000000000E+00  0.18093275934E+04  0.18093275934E+04  0.25500000000E-02 0. -1.
         -2   -1    0    0    0  501 -0.00000000000E+00 -0.00000000000E+00 -0.39245874584E+03  0.39245874584E+03  0.25500000000E-02 0.  1.
    8880022    1    1    2    0    0 -0.11562173889E+02 -0.61313498377E+03 -0.19695508691E+02  0.63233516292E+03  0.15294330000E+03 0.  0.
    8880022    1    1    2    0    0  0.11562173889E+02  0.61313498377E+03  0.14365643563E+04  0.15694511764E+04  0.15294330000E+03 0. -1.
<mgrwt>
<rscale>  0 0.63202836E+03</rscale>
<asrwt>0</asrwt>
<pdfrwt beam="1">  1        2 0.27835809E+00 0.63202836E+03</pdfrwt>
<pdfrwt beam="2">  1       -2 0.60378268E-01 0.63202836E+03</pdfrwt>
<totfact> 0.22817479E+01</totfact>
</mgrwt>
</event>
<event>
 4    1  0.1726795E-008  0.8178245E+03  0.7818608E-02  0.9534569E-01
         -2   -1    0    0    0  501 -0.00000000000E+00  0.00000000000E+00  0.46993858272E+03  0.46993858272E+03  0.25500000000E-02 0.  1.
          2   -1    0    0  501    0  0.00000000000E+00 -0.00000000000E+00 -0.15710828486E+04  0.15710828486E+04  0.25500000000E-02 0. -1.
    8880022    1    1    2    0    0  0.80080118162E+03 -0.64519415706E+02 -0.23752240141E+03  0.85161836034E+03  0.15294330000E+03 0.  0.
    8880022    1    1    2    0    0 -0.80080118162E+03  0.64519415706E+02 -0.86362186451E+03  0.11894030710E+04  0.15294330000E+03 0.  0.
<mgrwt>
<rscale>  0 0.81782452E+03</rscale>
<asrwt>0</asrwt>
<pdfrwt beam="1">  1        2 0.24170505E+00 0.81782452E+03</pdfrwt>
<pdfrwt beam="2">  1       -2 0.72298244E-01 0.81782452E+03</pdfrwt>
<totfact> 0.20387488E+01</totfact>
</mgrwt>
</event>
<event>
 4    1  0.1726795E-008  0.2155860E+03  0.7818608E-02  0.1137217E+00
         -2   -1    0    0    0  501 -0.00000000000E+00  0.00000000000E+00  0.14488160769E+04  0.14488160769E+04  0.25500000000E-02 0.  1.
          2   -1    0    0  501    0  0.00000000000E+00 -0.00000000000E+00 -0.12696692827E+03  0.12696692830E+03  0.25500000000E-02 0. -1.
    8880022    1    1    2    0    0  0.11490322879E+03  0.99412814088E+02  0.13420473789E+04  0.13592529124E+04  0.15294330000E+03 0.  0.
    8880022    1    1    2    0    0 -0.11490322879E+03 -0.99412814088E+02 -0.20198230240E+02  0.21653009285E+03  0.15294330000E+03 0. -1.
<mgrwt>
<rscale>  0 0.21558597E+03</rscale>
<asrwt>0</asrwt>
<pdfrwt beam="1">  1        2 0.19533374E-01 0.21558597E+03</pdfrwt>
<pdfrwt beam="2">  1       -2 0.22289478E+00 0.21558597E+03</pdfrwt>
<totfact> 0.30125245E+01</totfact>
</mgrwt>
</event>
<event>
 4    1  0.1726795E-008  0.3105629E+03  0.7818608E-02  0.1080076E+00
         -2   -1    0    0    0  501 -0.00000000000E+00  0.00000000000E+00  0.14581423687E+03  0.14581423689E+03  0.25500000000E-02 0.  1.
          2   -1    0    0  501    0  0.00000000000E+00 -0.00000000000E+00 -0.21305494054E+04  0.21305494054E+04  0.25500000000E-02 0. -1.
    8880022    1    1    2    0    0 -0.25715607050E+03 -0.83237054741E+02 -0.19374962752E+04  0.19622286109E+04  0.15294330000E+03 0.  0.
    8880022    1    1    2    0    0  0.25715607050E+03  0.83237054741E+02 -0.47238893257E+02  0.31413503136E+03  0.15294330000E+03 0.  0.
<mgrwt>
<rscale>  0 0.31056288E+03</rscale>
<asrwt>0</asrwt>
<pdfrwt beam="1">  1        2 0.32777681E+00 0.31056288E+03</pdfrwt>
<pdfrwt beam="2">  1       -2 0.22432961E-01 0.31056288E+03</pdfrwt>
<totfact> 0.10877708E+02</totfact>
</mgrwt>
</event>
<event>
 4    1  0.1726795E-008  0.6767453E+03  0.7818608E-02  0.9757849E-01
         -2   -1    0    0    0  501 -0.00000000000E+00  0.00000000000E+00  0.17917742187E+04  0.17917742187E+04  0.25500000000E-02 0.  1.
          2   -1    0    0  501    0  0.00000000000E+00 -0.00000000000E+00 -0.38272254791E+03  0.38272254792E+03  0.25500000000E-02 0. -1.
    8880022    1    1    2    0    0 -0.11452687418E+03  0.64921193207E+03  0.77924014582E+02  0.68121681036E+03  0.15294330000E+03 0.  0.
    8880022    1    1    2    0    0  0.11452687418E+03 -0.64921193207E+03  0.13311276562E+04  0.14932799563E+04  0.15294330000E+03 0.  0.
<mgrwt>
<rscale>  0 0.67674529E+03</rscale>
<asrwt>0</asrwt>
<pdfrwt beam="1">  1        2 0.58880392E-01 0.67674529E+03</pdfrwt>
<pdfrwt beam="2">  1       -2 0.27565757E+00 0.67674529E+03</pdfrwt>
<totfact> 0.39100814E+00</totfact>
</mgrwt>
</event>
<event>
 4    1  0.1726795E-008  0.8597417E+03  0.7818608E-02  0.9477354E-01
          2   -1    0    0  501    0  0.00000000000E+00  0.00000000000E+00  0.10948298924E+04  0.10948298924E+04  0.25500000000E-02 0. -1.
         -2   -1    0    0    0  501 -0.00000000000E+00 -0.00000000000E+00 -0.22240135040E+04  0.22240135040E+04  0.25500000000E-02 0.  1.
    8880022    1    1    2    0    0  0.20033454023E+03  0.82196732826E+03 -0.19494235204E+04  0.21305886350E+04  0.15294330000E+03 0.  0.
    8880022    1    1    2    0    0 -0.20033454023E+03 -0.82196732826E+03  0.82023990880E+03  0.11882547613E+04  0.15294330000E+03 0.  0.
<mgrwt>
<rscale>  0 0.85974175E+03</rscale>
<asrwt>0</asrwt>
<pdfrwt beam="1">  1        2 0.16843537E+00 0.85974175E+03</pdfrwt>
<pdfrwt beam="2">  1       -2 0.34215592E+00 0.85974175E+03</pdfrwt>
<totfact> 0.39597027E-01</totfact>
</mgrwt>
</event>
<event>
 4    1  0.1726795E-008  0.2558097E+03  0.7818608E-02  0.1109687E+00
         -2   -1    0    0    0  501 -0.00000000000E+00  0.00000000000E+00  0.11226040808E+03  0.11226040811E+03  0.25500000000E-02 0.  1.
          2   -1    0    0  501    0  0.00000000000E+00 -0.00000000000E+00 -0.20439884986E+04  0.20439884986E+04  0.25500000000E-02 0. -1.
    8880022    1    1    2    0    0 -0.13382483457E+03 -0.15536365838E+03 -0.18773820840E+04  0.18947300850E+04  0.15294330000E+03 0. -1.
    8880022    1    1    2    0    0  0.13382483457E+03  0.15536365838E+03 -0.54346006586E+02  0.26151882177E+03  0.15294330000E+03 0.  0.
<mgrwt>
<rscale>  0 0.25580971E+03</rscale>
<asrwt>0</asrwt>
<pdfrwt beam="1">  1        2 0.31445974E+00 0.25580971E+03</pdfrwt>
<pdfrwt beam="2">  1       -2 0.17270833E-01 0.25580971E+03</pdfrwt>
<totfact> 0.19210462E+02</totfact>
</mgrwt>
</event>
<event>
 4    1  0.1726795E-008  0.9359963E+03  0.7818608E-02  0.9381670E-01
          2   -1    0    0  501    0  0.00000000000E+00  0.00000000000E+00  0.21479459360E+04  0.21479459360E+04  0.25500000000E-02 0. -1.
         -2   -1    0    0    0  501 -0.00000000000E+00 -0.00000000000E+00 -0.92144584496E+03  0.92144584496E+03  0.25500000000E-02 0.  1.
    8880022    1    1    2    0    0  0.83584948846E+03 -0.39249589174E+03  0.17589963616E+04  0.19925253437E+04  0.15294330000E+03 0.  0.
    8880022    1    1    2    0    0 -0.83584948846E+03  0.39249589174E+03 -0.53249627056E+03  0.10768664372E+04  0.15294330000E+03 0.  0.
<mgrwt>
<rscale>  0 0.93599628E+03</rscale>
<asrwt>0</asrwt>
<pdfrwt beam="1">  1        2 0.33045321E+00 0.93599628E+03</pdfrwt>
<pdfrwt beam="2">  1       -2 0.14176090E+00 0.93599628E+03</pdfrwt>
<totfact> 0.19382390E+00</totfact>
</mgrwt>
</event>
<event>
 4    1  0.1726795E-008  0.7603534E+03  0.7818608E-02  0.9619246E-01
         -2   -1    0    0    0  501 -0.00000000000E+00  0.00000000000E+00  0.66726079712E+03  0.66726079713E+03  0.25500000000E-02 0.  1.
          2   -1    0    0  501    0  0.00000000000E+00 -0.00000000000E+00 -0.10530120472E+04  0.10530120472E+04  0.25500000000E-02 0. -1.
    8880022    1    1    2    0    0  0.53195445508E+02 -0.74291041298E+03  0.16918492243E+03  0.77894854010E+03  0.15294330000E+03 0.  0.
    8880022    1    1    2    0    0 -0.53195445508E+02  0.74291041298E+03 -0.55493617250E+03  0.94132430421E+03  0.15294330000E+03 0.  0.
<mgrwt>
<rscale>  0 0.76035340E+03</rscale>
<asrwt>0</asrwt>
<pdfrwt beam="1">  1        2 0.16200185E+00 0.76035340E+03</pdfrwt>
<pdfrwt beam="2">  1       -2 0.10265551E+00 0.76035340E+03</pdfrwt>
<totfact> 0.18376302E+01</totfact>
</mgrwt>
</event>
<event>
 4    1  0.1726795E-008  0.2412563E+03  0.7818608E-02  0.1118959E+00
          2   -1    0    0  501    0  0.00000000000E+00  0.00000000000E+00  0.26476165583E+03  0.26476165584E+03  0.25500000000E-02 0. -1.
         -2   -1    0    0    0  501 -0.00000000000E+00 -0.00000000000E+00 -0.70278979243E+03  0.70278979243E+03  0.25500000000E-02 0.  1.
    8880022    1    1    2    0    0 -0.14464033027E+03  0.11786495602E+03  0.18202189478E+03  0.30221945038E+03  0.15294330000E+03 0. -1.
    8880022    1    1    2    0    0  0.14464033027E+03 -0.11786495602E+03 -0.62005003137E+03  0.66533199789E+03  0.15294330000E+03 0.  0.
<mgrwt>
<rscale>  0 0.24125635E+03</rscale>
<asrwt>0</asrwt>
<pdfrwt beam="1">  1        2 0.40732563E-01 0.24125635E+03</pdfrwt>
<pdfrwt beam="2">  1       -2 0.10812151E+00 0.24125635E+03</pdfrwt>
<totfact> 0.90408199E+01</totfact>
</mgrwt>
</event>
<event>
 4    1  0.1726795E-008  0.4212905E+03  0.7818608E-02  0.1036647E+00
         -2   -1    0    0    0  501 -0.00000000000E+00  0.00000000000E+00  0.33505831146E+03  0.33505831147E+03  0.25500000000E-02 0.  1.
          2   -1    0    0  501    0  0.00000000000E+00 -0.00000000000E+00 -0.17188699127E+04  0.17188699127E+04  0.25500000000E-02 0. -1.
    8880022    1    1    2    0    0  0.31322787988E+03  0.23660580651E+03  0.16228097248E+03  0.45146514755E+03  0.15294330000E+03 0.  0.
    8880022    1    1    2    0    0 -0.31322787988E+03 -0.23660580651E+03 -0.15460925737E+04  0.16024630766E+04  0.15294330000E+03 0.  0.
<mgrwt>
<rscale>  0 0.42129048E+03</rscale>
<asrwt>0</asrwt>
<pdfrwt beam="1">  1        2 0.26444152E+00 0.42129048E+03</pdfrwt>
<pdfrwt beam="2">  1       -2 0.51547433E-01 0.42129048E+03</pdfrwt>
<totfact> 0.36792750E+01</totfact>
</mgrwt>
</event>
<event>
 4    1  0.1726795E-008  0.7502256E+03  0.7818608E-02  0.9634996E-01
         -2   -1    0    0    0  501 -0.00000000000E+00  0.00000000000E+00  0.28017332238E+03  0.28017332239E+03  0.25500000000E-02 0.  1.
          2   -1    0    0  501    0  0.00000000000E+00 -0.00000000000E+00 -0.42250266628E+04  0.42250266628E+04  0.25500000000E-02 0. -1.
    8880022    1    1    2    0    0 -0.41886077360E+03 -0.60332615408E+03 -0.36038521797E+04  0.36811124653E+04  0.15294330000E+03 0.  0.
    8880022    1    1    2    0    0  0.41886077360E+03  0.60332615408E+03 -0.34100116072E+03  0.82408751992E+03  0.15294330000E+03 0.  0.
<mgrwt>
<rscale>  0 0.75022560E+03</rscale>
<asrwt>0</asrwt>
<pdfrwt beam="1">  1        2 0.65000406E+00 0.75022560E+03</pdfrwt>
<pdfrwt beam="2">  1       -2 0.43103591E-01 0.75022560E+03</pdfrwt>
<totfact> 0.12670954E+00</totfact>
</mgrwt>
</event>
<event>
 4    1  0.1726795E-008  0.9452385E+03  0.7818608E-02  0.9370733E-01
         -2   -1    0    0    0  501 -0.00000000000E+00  0.00000000000E+00  0.15108229225E+04  0.15108229225E+04  0.25500000000E-02 0.  1.
          2   -1    0    0  501    0  0.00000000000E+00 -0.00000000000E+00 -0.14786505714E+04  0.14786505714E+04  0.25500000000E-02 0. -1.
    8880022    1    1    2    0    0 -0.85743287532E+03  0.36727774488E+03 -0.11417820032E+04  0.14822759101E+04  0.15294330000E+03 0.  0.
    8880022    1    1    2    0    0  0.85743287532E+03 -0.36727774488E+03  0.11739543543E+04  0.15071975838E+04  0.15294330000E+03 0.  0.
<mgrwt>
<rscale>  0 0.94523845E+03</rscale>
<asrwt>0</asrwt>
<pdfrwt beam="1">  1        2 0.22748470E+00 0.94523845E+03</pdfrwt>
<pdfrwt beam="2">  1       -2 0.23243430E+00 0.94523845E+03</pdfrwt>
<totfact> 0.10819554E+00</totfact>
</mgrwt>
</event>
<event>
 4    1  0.1726795E-008  0.8167601E+03  0.7818608E-02  0.9536070E-01
         -2   -1    0    0    0  501 -0.00000000000E+00  0.00000000000E+00  0.61567800064E+03  0.61567800064E+03  0.25500000000E-02 0.  1.
          2   -1    0    0  501    0  0.00000000000E+00 -0.00000000000E+00 -0.18325194004E+04  0.18325194004E+04  0.25500000000E-02 0. -1.
    8880022    1    1    2    0    0  0.34398385311E+03  0.72483131735E+03  0.17416882848E+03  0.83512380139E+03  0.15294330000E+03 0.  0.
    8880022    1    1    2    0    0 -0.34398385311E+03 -0.72483131735E+03 -0.13910102282E+04  0.16130735997E+04  0.15294330000E+03 0.  0.
<mgrwt>
<rscale>  0 0.81676005E+03</rscale>
<asrwt>0</asrwt>
<pdfrwt beam="1">  1        2 0.28192606E+00 0.81676005E+03</pdfrwt>
<pdfrwt beam="2">  1       -2 0.94719693E-01 0.81676005E+03</pdfrwt>
<totfact> 0.79377121E+00</totfact>
</mgrwt>
</event>
<event>
 4    1  0.1726795E-008  0.1234431E+04  0.7818608E-02  0.9083242E-01
         -2   -1    0    0    0  501 -0.00000000000E+00  0.00000000000E+00  0.13870144222E+04  0.13870144222E+04  0.25500000000E-02 0.  1.
          2   -1    0    0  501    0  0.00000000000E+00 -0.00000000000E+00 -0.18327230345E+04  0.18327230345E+04  0.25500000000E-02 0. -1.
    8880022    1    1    2    0    0 -0.68365239563E+03  0.10163890331E+04  0.79601129738E+03  0.14688270501E+04  0.15294330000E+03 0.  0.
    8880022    1    1    2    0    0  0.68365239563E+03 -0.10163890331E+04 -0.12417199096E+04  0.17509104065E+04  0.15294330000E+03 0.  0.
<mgrwt>
<rscale>  0 0.12344306E+04</rscale>
<asrwt>0</asrwt>
<pdfrwt beam="1">  1        2 0.28195739E+00 0.12344306E+04</pdfrwt>
<pdfrwt beam="2">  1       -2 0.21338683E+00 0.12344306E+04</pdfrwt>
<totfact> 0.87115535E-01</totfact>
</mgrwt>
</event>
<event>
 4    1  0.1726795E-008  0.8485494E+03  0.7818608E-02  0.9492286E-01
         -2   -1    0    0    0  501 -0.00000000000E+00  0.00000000000E+00  0.15622516891E+04  0.15622516891E+04  0.25500000000E-02 0.  1.
          2   -1    0    0  501    0  0.00000000000E+00 -0.00000000000E+00 -0.16222238671E+04  0.16222238671E+04  0.25500000000E-02 0. -1.
    8880022    1    1    2    0    0 -0.63808831771E+03  0.53804056666E+03 -0.13771793457E+04  0.16176090244E+04  0.15294330000E+03 0.  0.
    8880022    1    1    2    0    0  0.63808831771E+03 -0.53804056666E+03  0.13172071677E+04  0.15668665318E+04  0.15294330000E+03 0.  0.
<mgrwt>
<rscale>  0 0.84854935E+03</rscale>
<asrwt>0</asrwt>
<pdfrwt beam="1">  1        2 0.24957290E+00 0.84854935E+03</pdfrwt>
<pdfrwt beam="2">  1       -2 0.24034641E+00 0.84854935E+03</pdfrwt>
<totfact> 0.81730461E-01</totfact>
</mgrwt>
</event>
<event>
 4    1  0.1726795E-008  0.1302520E+04  0.7818608E-02  0.9027569E-01
         -2   -1    0    0    0  501 -0.00000000000E+00  0.00000000000E+00  0.18208008464E+04  0.18208008464E+04  0.25500000000E-02 0.  1.
          2   -1    0    0  501    0  0.00000000000E+00 -0.00000000000E+00 -0.12178988145E+04  0.12178988145E+04  0.25500000000E-02 0. -1.
    8880022    1    1    2    0    0 -0.81636911666E+03  0.10033481592E+04  0.10378905543E+04  0.16654652560E+04  0.15294330000E+03 0.  0.
    8880022    1    1    2    0    0  0.81636911666E+03 -0.10033481592E+04 -0.43498852251E+03  0.13732344049E+04  0.15294330000E+03 0.  0.
<mgrwt>
<rscale>  0 0.13025198E+04</rscale>
<asrwt>0</asrwt>
<pdfrwt beam="1">  1        2 0.18736905E+00 0.13025198E+04</pdfrwt>
<pdfrwt beam="2">  1       -2 0.28012321E+00 0.13025198E+04</pdfrwt>
<totfact> 0.74837352E-01</totfact>
</mgrwt>
</event>
<event>
 4    1  0.1726795E-008  0.1519347E+04  0.7818608E-02  0.8871688E-01
         -2   -1    0    0    0  501 -0.00000000000E+00  0.00000000000E+00  0.14403744881E+04  0.14403744881E+04  0.25500000000E-02 0.  1.
          2   -1    0    0  501    0  0.00000000000E+00 -0.00000000000E+00 -0.25494680081E+04  0.25494680081E+04  0.25500000000E-02 0. -1.
    8880022    1    1    2    0    0  0.34759346368E+03 -0.14711228280E+04  0.66117551871E+03  0.16569756518E+04  0.15294330000E+03 0.  0.
    8880022    1    1    2    0    0 -0.34759346368E+03  0.14711228280E+04 -0.17702690387E+04  0.23328668443E+04  0.15294330000E+03 0.  0.
<mgrwt>
<rscale>  0 0.15193470E+04</rscale>
<asrwt>0</asrwt>
<pdfrwt beam="1">  1        2 0.39222585E+00 0.15193470E+04</pdfrwt>
<pdfrwt beam="2">  1       -2 0.22159607E+00 0.15193470E+04</pdfrwt>
<totfact> 0.29461867E-01</totfact>
</mgrwt>
</event>
<event>
 4    1  0.1726795E-008  0.3811106E+03  0.7818608E-02  0.1050524E+00
         -2   -1    0    0    0  501 -0.00000000000E+00  0.00000000000E+00  0.85553254630E+03  0.85553254630E+03  0.25500000000E-02 0.  1.
          2   -1    0    0  501    0  0.00000000000E+00 -0.00000000000E+00 -0.73742898692E+03  0.73742898693E+03  0.25500000000E-02 0. -1.
    8880022    1    1    2    0    0  0.33016668949E+03  0.11332971027E+03  0.75786039802E+03  0.84829104792E+03  0.15294330000E+03 0.  0.
    8880022    1    1    2    0    0 -0.33016668949E+03 -0.11332971027E+03 -0.63975683864E+03  0.74467048531E+03  0.15294330000E+03 0.  0.
<mgrwt>
<rscale>  0 0.38111064E+03</rscale>
<asrwt>0</asrwt>
<pdfrwt beam="1">  1        2 0.11345061E+00 0.38111064E+03</pdfrwt>
<pdfrwt beam="2">  1       -2 0.13162039E+00 0.38111064E+03</pdfrwt>
<totfact> 0.17215543E+01</totfact>
</mgrwt>
</event>
<event>
 4    1  0.1726795E-008  0.1214195E+04  0.7818608E-02  0.9100521E-01
         -2   -1    0    0    0  501 -0.00000000000E+00  0.00000000000E+00  0.24050769539E+04  0.24050769539E+04  0.25500000000E-02 0.  1.
          2   -1    0    0  501    0  0.00000000000E+00 -0.00000000000E+00 -0.74221990872E+03  0.74221990872E+03  0.25500000000E-02 0. -1.
    8880022    1    1    2    0    0 -0.34340736190E+03  0.11545344114E+04  0.17477601146E+03  0.12267096766E+04  0.15294330000E+03 0.  0.
    8880022    1    1    2    0    0  0.34340736190E+03 -0.11545344114E+04  0.14880810337E+04  0.19205871861E+04  0.15294330000E+03 0.  0.
<mgrwt>
<rscale>  0 0.12141952E+04</rscale>
<asrwt>0</asrwt>
<pdfrwt beam="1">  1        2 0.11418768E+00 0.12141952E+04</pdfrwt>
<pdfrwt beam="2">  1       -2 0.37001184E+00 0.12141952E+04</pdfrwt>
<totfact> 0.43501210E-01</totfact>
</mgrwt>
</event>
<event>
 4    1  0.1726795E-008  0.8310635E+03  0.7818608E-02  0.9516111E-01
         -2   -1    0    0    0  501 -0.00000000000E+00  0.00000000000E+00  0.18623772844E+04  0.18623772844E+04  0.25500000000E-02 0.  1.
          2   -1    0    0  501    0  0.00000000000E+00 -0.00000000000E+00 -0.15240101206E+04  0.15240101206E+04  0.25500000000E-02 0. -1.
    8880022    1    1    2    0    0 -0.65084766274E+02  0.81427199668E+03 -0.13036616977E+04  0.15460272917E+04  0.15294330000E+03 0.  0.
    8880022    1    1    2    0    0  0.65084766274E+02 -0.81427199668E+03  0.16420288616E+04  0.18403601133E+04  0.15294330000E+03 0.  0.
<mgrwt>
<rscale>  0 0.83106351E+03</rscale>
<asrwt>0</asrwt>
<pdfrwt beam="1">  1        2 0.23446310E+00 0.83106351E+03</pdfrwt>
<pdfrwt beam="2">  1       -2 0.28651958E+00 0.83106351E+03</pdfrwt>
<totfact> 0.48893729E-01</totfact>
</mgrwt>
</event>
<event>
 4    1  0.1726795E-008  0.7684649E+03  0.7818608E-02  0.9606819E-01
          2   -1    0    0  501    0  0.00000000000E+00  0.00000000000E+00  0.12516992139E+04  0.12516992139E+04  0.25500000000E-02 0. -1.
         -2   -1    0    0    0  501 -0.00000000000E+00 -0.00000000000E+00 -0.10134716989E+04  0.10134716989E+04  0.25500000000E-02 0.  1.
    8880022    1    1    2    0    0 -0.26541457480E+03  0.70477070998E+03  0.94712746699E+03  0.12196674719E+04  0.15294330000E+03 0.  0.
    8880022    1    1    2    0    0  0.26541457480E+03 -0.70477070998E+03 -0.70889995199E+03  0.10455034410E+04  0.15294330000E+03 0.  0.
<mgrwt>
<rscale>  0 0.76846490E+03</rscale>
<asrwt>0</asrwt>
<pdfrwt beam="1">  1        2 0.19256911E+00 0.76846490E+03</pdfrwt>
<pdfrwt beam="2">  1       -2 0.15591872E+00 0.76846490E+03</pdfrwt>
<totfact> 0.48628220E+00</totfact>
</mgrwt>
</event>
<event>
 4    1  0.1726795E-008  0.1377101E+04  0.7818608E-02  0.8970563E-01
         -2   -1    0    0    0  501 -0.00000000000E+00  0.00000000000E+00  0.15297272949E+04  0.15297272949E+04  0.25500000000E-02 0.  1.
          2   -1    0    0  501    0  0.00000000000E+00 -0.00000000000E+00 -0.28376159183E+04  0.28376159183E+04  0.25500000000E-02 0. -1.
    8880022    1    1    2    0    0 -0.15300551738E+03 -0.13600017348E+04  0.98470913495E+03  0.16929439271E+04  0.15294330000E+03 0.  0.
    8880022    1    1    2    0    0  0.15300551738E+03  0.13600017348E+04 -0.22925977583E+04  0.26743992861E+04  0.15294330000E+03 0.  0.
<mgrwt>
<rscale>  0 0.13771010E+04</rscale>
<asrwt>0</asrwt>
<pdfrwt beam="1">  1        2 0.43655629E+00 0.13771010E+04</pdfrwt>
<pdfrwt beam="2">  1       -2 0.23534266E+00 0.13771010E+04</pdfrwt>
<totfact> 0.16595473E-01</totfact>
</mgrwt>
</event>
<event>
 4    1  0.1726795E-008  0.5168761E+03  0.7818608E-02  0.1009466E+00
         -2   -1    0    0    0  501 -0.00000000000E+00  0.00000000000E+00  0.41274988754E+03  0.41274988755E+03  0.25500000000E-02 0.  1.
          2   -1    0    0  501    0  0.00000000000E+00 -0.00000000000E+00 -0.13221243198E+04  0.13221243198E+04  0.25500000000E-02 0. -1.
    8880022    1    1    2    0    0 -0.48613680524E+03  0.86257200724E+02  0.16504861369E+03  0.54258823797E+03  0.15294330000E+03 0.  0.
    8880022    1    1    2    0    0  0.48613680524E+03 -0.86257200724E+02 -0.10744230459E+04  0.11922859694E+04  0.15294330000E+03 0.  0.
<mgrwt>
<rscale>  0 0.51687615E+03</rscale>
<asrwt>0</asrwt>
<pdfrwt beam="1">  1        2 0.20340374E+00 0.51687615E+03</pdfrwt>
<pdfrwt beam="2">  1       -2 0.63499983E-01 0.51687615E+03</pdfrwt>
<totfact> 0.38684793E+01</totfact>
</mgrwt>
</event>
<event>
 4    1  0.1726795E-008  0.9596517E+03  0.7818608E-02  0.9353940E-01
          2   -1    0    0  501    0  0.00000000000E+00  0.00000000000E+00  0.17812414370E+04  0.17812414370E+04  0.25500000000E-02 0. -1.
         -2   -1    0    0    0  501 -0.00000000000E+00 -0.00000000000E+00 -0.11095787895E+04  0.11095787895E+04  0.25500000000E-02 0.  1.
    8880022    1    1    2    0    0  0.72093693814E+03 -0.61464595659E+03 -0.72044850846E+03  0.11999905946E+04  0.15294330000E+03 0.  0.
    8880022    1    1    2    0    0 -0.72093693814E+03  0.61464595659E+03  0.13921111559E+04  0.16908296319E+04  0.15294330000E+03 0.  0.
<mgrwt>
<rscale>  0 0.95965169E+03</rscale>
<asrwt>0</asrwt>
<pdfrwt beam="1">  1        2 0.27403714E+00 0.95965169E+03</pdfrwt>
<pdfrwt beam="2">  1       -2 0.17070443E+00 0.95965169E+03</pdfrwt>
<totfact> 0.18631648E+00</totfact>
</mgrwt>
</event>
<event>
 4    1  0.1726795E-008  0.9503275E+03  0.7818608E-02  0.9364768E-01
          2   -1    0    0  501    0  0.00000000000E+00  0.00000000000E+00  0.16338239663E+04  0.16338239663E+04  0.25500000000E-02 0. -1.
         -2   -1    0    0    0  501 -0.00000000000E+00 -0.00000000000E+00 -0.10077424647E+04  0.10077424647E+04  0.25500000000E-02 0.  1.
    8880022    1    1    2    0    0 -0.21951558081E+03 -0.91189015236E+03  0.12005057042E+04  0.15311225748E+04  0.15294330000E+03 0.  0.
    8880022    1    1    2    0    0  0.21951558081E+03  0.91189015236E+03 -0.57442420265E+03  0.11104438562E+04  0.15294330000E+03 0.  0.
<mgrwt>
<rscale>  0 0.95032752E+03</rscale>
<asrwt>0</asrwt>
<pdfrwt beam="1">  1        2 0.25135753E+00 0.95032752E+03</pdfrwt>
<pdfrwt beam="2">  1       -2 0.15503730E+00 0.95032752E+03</pdfrwt>
<totfact> 0.29288323E+00</totfact>
</mgrwt>
</event>
<event>
 4    1  0.1726795E-008  0.7415482E+03  0.7818608E-02  0.9648704E-01
          2   -1    0    0  501    0  0.00000000000E+00  0.00000000000E+00  0.14620267128E+04  0.14620267128E+04  0.25500000000E-02 0. -1.
         -2   -1    0    0    0  501 -0.00000000000E+00 -0.00000000000E+00 -0.43978401198E+03  0.43978401198E+03  0.25500000000E-02 0.  1.
    8880022    1    1    2    0    0  0.59483227574E+03 -0.41554376016E+03  0.14931731934E+03  0.75643199810E+03  0.15294330000E+03 0.  0.
    8880022    1    1    2    0    0 -0.59483227574E+03  0.41554376016E+03  0.87292538145E+03  0.11453787267E+04  0.15294330000E+03 0.  0.
<mgrwt>
<rscale>  0 0.74154818E+03</rscale>
<asrwt>0</asrwt>
<pdfrwt beam="1">  1        2 0.22492718E+00 0.74154818E+03</pdfrwt>
<pdfrwt beam="2">  1       -2 0.67659080E-01 0.74154818E+03</pdfrwt>
<totfact> 0.27338514E+01</totfact>
</mgrwt>
</event>
<event>
 4    1  0.1726795E-008  0.6151790E+03  0.7818608E-02  0.9874405E-01
         -2   -1    0    0    0  501 -0.00000000000E+00  0.00000000000E+00  0.15418365842E+04  0.15418365842E+04  0.25500000000E-02 0.  1.
          2   -1    0    0  501    0  0.00000000000E+00 -0.00000000000E+00 -0.91020085790E+03  0.91020085790E+03  0.25500000000E-02 0. -1.
    8880022    1    1    2    0    0 -0.57896913599E+03 -0.14088411791E+03  0.13635677577E+04  0.14959151974E+04  0.15294330000E+03 0.  0.
    8880022    1    1    2    0    0  0.57896913599E+03  0.14088411791E+03 -0.73193203140E+03  0.95612224465E+03  0.15294330000E+03 0.  0.
<mgrwt>
<rscale>  0 0.61517904E+03</rscale>
<asrwt>0</asrwt>
<pdfrwt beam="1">  1        2 0.14003090E+00 0.61517904E+03</pdfrwt>
<pdfrwt beam="2">  1       -2 0.23720562E+00 0.61517904E+03</pdfrwt>
<totfact> 0.23468801E+00</totfact>
</mgrwt>
</event>
<event>
 4    1  0.1726795E-008  0.7204531E+03  0.7818608E-02  0.9682880E-01
         -2   -1    0    0    0  501 -0.00000000000E+00  0.00000000000E+00  0.70891008684E+03  0.70891008684E+03  0.25500000000E-02 0.  1.
          2   -1    0    0  501    0  0.00000000000E+00 -0.00000000000E+00 -0.16294082990E+04  0.16294082990E+04  0.25500000000E-02 0. -1.
    8880022    1    1    2    0    0 -0.67879377637E+03 -0.18681553310E+03 -0.13278283999E+04  0.15106888981E+04  0.15294330000E+03 0.  0.
    8880022    1    1    2    0    0  0.67879377637E+03  0.18681553310E+03  0.40733018769E+03  0.82762948779E+03  0.15294330000E+03 0.  0.
<mgrwt>
<rscale>  0 0.72045311E+03</rscale>
<asrwt>0</asrwt>
<pdfrwt beam="1">  1        2 0.25067820E+00 0.72045311E+03</pdfrwt>
<pdfrwt beam="2">  1       -2 0.10906309E+00 0.72045311E+03</pdfrwt>
<totfact> 0.74326394E+00</totfact>
</mgrwt>
</event>
<event>
 4    1  0.1726795E-008  0.9466303E+03  0.7818608E-02  0.9369098E-01
          2   -1    0    0  501    0  0.00000000000E+00  0.00000000000E+00  0.56055917604E+03  0.56055917605E+03  0.25500000000E-02 0. -1.
         -2   -1    0    0    0  501 -0.00000000000E+00 -0.00000000000E+00 -0.37452327833E+04  0.37452327833E+04  0.25500000000E-02 0.  1.
    8880022    1    1    2    0    0  0.58530246154E+03 -0.72810594977E+03  0.37569719732E+02  0.94737552345E+03  0.15294330000E+03 0.  0.
    8880022    1    1    2    0    0 -0.58530246154E+03  0.72810594977E+03 -0.32222433270E+04  0.33584164359E+04  0.15294330000E+03 0.  0.
<mgrwt>
<rscale>  0 0.94663029E+03</rscale>
<asrwt>0</asrwt>
<pdfrwt beam="1">  1        2 0.86239876E-01 0.94663029E+03</pdfrwt>
<pdfrwt beam="2">  1       -2 0.57618964E+00 0.94663029E+03</pdfrwt>
<totfact> 0.34186623E-02</totfact>
</mgrwt>
</event>
<event>
 4    1  0.1726795E-008  0.8533004E+03  0.7818608E-02  0.9485918E-01
         -2   -1    0    0    0  501 -0.00000000000E+00  0.00000000000E+00  0.72281444874E+03  0.72281444874E+03  0.25500000000E-02 0.  1.
          2   -1    0    0  501    0  0.00000000000E+00 -0.00000000000E+00 -0.16729874124E+04  0.16729874124E+04  0.25500000000E-02 0. -1.
    8880022    1    1    2    0    0  0.39799508275E+03 -0.73914129335E+03  0.28052044371E+03  0.89822787186E+03  0.15294330000E+03 0.  0.
    8880022    1    1    2    0    0 -0.39799508275E+03  0.73914129335E+03 -0.12306934074E+04  0.14975739893E+04  0.15294330000E+03 0.  0.
<mgrwt>
<rscale>  0 0.85330041E+03</rscale>
<asrwt>0</asrwt>
<pdfrwt beam="1">  1        2 0.25738268E+00 0.85330041E+03</pdfrwt>
<pdfrwt beam="2">  1       -2 0.11120222E+00 0.85330041E+03</pdfrwt>
<totfact> 0.65858572E+00</totfact>
</mgrwt>
</event>
<event>
 4    1  0.1726795E-008  0.1021032E+04  0.7818608E-02  0.9285774E-01
         -2   -1    0    0    0  501 -0.00000000000E+00  0.00000000000E+00  0.57464008186E+03  0.57464008186E+03  0.25500000000E-02 0.  1.
          2   -1    0    0  501    0  0.00000000000E+00 -0.00000000000E+00 -0.26575131953E+04  0.26575131953E+04  0.25500000000E-02 0. -1.
    8880022    1    1    2    0    0  0.45816697438E+03 -0.89955394819E+03 -0.19518138550E+04  0.22027444836E+04  0.15294330000E+03 0.  0.
    8880022    1    1    2    0    0 -0.45816697438E+03  0.89955394819E+03 -0.13105925840E+03  0.10294087936E+04  0.15294330000E+03 0.  0.
<mgrwt>
<rscale>  0 0.10210318E+04</rscale>
<asrwt>0</asrwt>
<pdfrwt beam="1">  1        2 0.40884818E+00 0.10210318E+04</pdfrwt>
<pdfrwt beam="2">  1       -2 0.88406168E-01 0.10210318E+04</pdfrwt>
<totfact> 0.31295069E+00</totfact>
</mgrwt>
</event>
<event>
 4    1  0.1726795E-008  0.1064633E+04  0.7818608E-02  0.9240366E-01
          2   -1    0    0  501    0  0.00000000000E+00  0.00000000000E+00  0.23399104108E+04  0.23399104109E+04  0.25500000000E-02 0. -1.
         -2   -1    0    0    0  501 -0.00000000000E+00 -0.00000000000E+00 -0.99220515319E+03  0.99220515319E+03  0.25500000000E-02 0.  1.
    8880022    1    1    2    0    0 -0.19491277057E+03  0.10354032320E+04  0.18657523541E+04  0.21481327567E+04  0.15294330000E+03 0.  0.
    8880022    1    1    2    0    0  0.19491277057E+03 -0.10354032320E+04 -0.51804709639E+03  0.11839828073E+04  0.15294330000E+03 0.  0.
<mgrwt>
<rscale>  0 0.10646326E+04</rscale>
<asrwt>0</asrwt>
<pdfrwt beam="1">  1        2 0.35998622E+00 0.10646326E+04</pdfrwt>
<pdfrwt beam="2">  1       -2 0.15264695E+00 0.10646326E+04</pdfrwt>
<totfact> 0.12224202E+00</totfact>
</mgrwt>
</event>
<event>
 4    1  0.1726795E-008  0.3271378E+03  0.7818608E-02  0.1072410E+00
          2   -1    0    0  501    0  0.00000000000E+00  0.00000000000E+00  0.13751331334E+04  0.13751331335E+04  0.25500000000E-02 0. -1.
         -2   -1    0    0    0  501 -0.00000000000E+00 -0.00000000000E+00 -0.17289678486E+03  0.17289678488E+03  0.25500000000E-02 0.  1.
    8880022    1    1    2    0    0 -0.14603967322E+03 -0.24959951535E+03  0.11750795671E+04  0.12197668409E+04  0.15294330000E+03 0.  0.
    8880022    1    1    2    0    0  0.14603967322E+03  0.24959951535E+03  0.27156781535E+02  0.32826307745E+03  0.15294330000E+03 0.  0.
<mgrwt>
<rscale>  0 0.32713783E+03</rscale>
<asrwt>0</asrwt>
<pdfrwt beam="1">  1        2 0.21155894E+00 0.32713783E+03</pdfrwt>
<pdfrwt beam="2">  1       -2 0.26599505E-01 0.32713783E+03</pdfrwt>
<totfact> 0.20277452E+02</totfact>
</mgrwt>
</event>
<event>
 4    1  0.1726795E-008  0.1465226E+04  0.7818608E-02  0.8907912E-01
          2   -1    0    0  501    0  0.00000000000E+00  0.00000000000E+00  0.11355869080E+04  0.11355869080E+04  0.25500000000E-02 0. -1.
         -2   -1    0    0    0  501 -0.00000000000E+00 -0.00000000000E+00 -0.37814239629E+04  0.37814239629E+04  0.25500000000E-02 0.  1.
    8880022    1    1    2    0    0  0.12558577292E+04  0.73913346735E+03  0.41557988338E+03  0.15230217369E+04  0.15294330000E+03 0.  0.
    8880022    1    1    2    0    0 -0.12558577292E+04 -0.73913346735E+03 -0.30614169383E+04  0.33939891340E+04  0.15294330000E+03 0.  0.
<mgrwt>
<rscale>  0 0.14652265E+04</rscale>
<asrwt>0</asrwt>
<pdfrwt beam="1">  1        2 0.17470568E+00 0.14652265E+04</pdfrwt>
<pdfrwt beam="2">  1       -2 0.58175753E+00 0.14652265E+04</pdfrwt>
<totfact> 0.11524036E-02</totfact>
</mgrwt>
</event>
<event>
 4    1  0.1726795E-008  0.7553008E+03  0.7818608E-02  0.9627071E-01
         -2   -1    0    0    0  501 -0.00000000000E+00  0.00000000000E+00  0.37242785724E+03  0.37242785725E+03  0.25500000000E-02 0.  1.
          2   -1    0    0  501    0  0.00000000000E+00 -0.00000000000E+00 -0.34543699028E+04  0.34543699028E+04  0.25500000000E-02 0. -1.
    8880022    1    1    2    0    0 -0.78852076606E+02 -0.73543865812E+03 -0.11351123202E+03  0.76378277190E+03  0.15294330000E+03 0.  0.
    8880022    1    1    2    0    0  0.78852076606E+02  0.73543865812E+03 -0.29684308135E+04  0.30630149882E+04  0.15294330000E+03 0. -1.
<mgrwt>
<rscale>  0 0.75530082E+03</rscale>
<asrwt>0</asrwt>
<pdfrwt beam="1">  1        2 0.53144150E+00 0.75530082E+03</pdfrwt>
<pdfrwt beam="2">  1       -2 0.57296596E-01 0.75530082E+03</pdfrwt>
<totfact> 0.27050009E+00</totfact>
</mgrwt>
</event>
<event>
 4    1  0.1726795E-008  0.5271192E+03  0.7818608E-02  0.1006933E+00
         -2   -1    0    0    0  501 -0.00000000000E+00  0.00000000000E+00  0.36930641733E+03  0.36930641734E+03  0.25500000000E-02 0.  1.
          2   -1    0    0  501    0  0.00000000000E+00 -0.00000000000E+00 -0.30307514019E+04  0.30307514019E+04  0.25500000000E-02 0. -1.
    8880022    1    1    2    0    0 -0.22803985954E+02 -0.50392756876E+03 -0.28047122510E+04  0.28538159506E+04  0.15294330000E+03 0.  0.
    8880022    1    1    2    0    0  0.22803985954E+02  0.50392756876E+03  0.14326726643E+03  0.54624186857E+03  0.15294330000E+03 0.  0.
<mgrwt>
<rscale>  0 0.52711922E+03</rscale>
<asrwt>0</asrwt>
<pdfrwt beam="1">  1        2 0.46626943E+00 0.52711922E+03</pdfrwt>
<pdfrwt beam="2">  1       -2 0.56816374E-01 0.52711922E+03</pdfrwt>
<totfact> 0.54361872E+00</totfact>
</mgrwt>
</event>
<event>
 4    1  0.1726795E-008  0.5407582E+03  0.7818608E-02  0.1003656E+00
          2   -1    0    0  501    0  0.00000000000E+00  0.00000000000E+00  0.21000295369E+04  0.21000295369E+04  0.25500000000E-02 0. -1.
         -2   -1    0    0    0  501 -0.00000000000E+00 -0.00000000000E+00 -0.15391834395E+03  0.15391834397E+03  0.25500000000E-02 0.  1.
    8880022    1    1    2    0    0 -0.32813245500E+03  0.40169249812E+03  0.62509704437E+03  0.82653840743E+03  0.15294330000E+03 0.  0.
    8880022    1    1    2    0    0  0.32813245500E+03 -0.40169249812E+03  0.13210141485E+04  0.14274094734E+04  0.15294330000E+03 0.  0.
<mgrwt>
<rscale>  0 0.54075819E+03</rscale>
<asrwt>0</asrwt>
<pdfrwt beam="1">  1        2 0.32308144E+00 0.54075819E+03</pdfrwt>
<pdfrwt beam="2">  1       -2 0.23679747E-01 0.54075819E+03</pdfrwt>
<totfact> 0.98121871E+01</totfact>
</mgrwt>
</event>
<event>
 4    1  0.1726795E-008  0.9375280E+03  0.7818608E-02  0.9379848E-01
          2   -1    0    0  501    0  0.00000000000E+00  0.00000000000E+00  0.78008909289E+03  0.78008909289E+03  0.25500000000E-02 0. -1.
         -2   -1    0    0    0  501 -0.00000000000E+00 -0.00000000000E+00 -0.12041815386E+04  0.12041815386E+04  0.25500000000E-02 0.  1.
    8880022    1    1    2    0    0  0.83816946162E+03 -0.39120202089E+03  0.39552150877E+02  0.93836192015E+03  0.15294330000E+03 0.  0.
    8880022    1    1    2    0    0 -0.83816946162E+03  0.39120202089E+03 -0.46364459662E+03  0.10459087114E+04  0.15294330000E+03 0.  0.
<mgrwt>
<rscale>  0 0.93752798E+03</rscale>
<asrwt>0</asrwt>
<pdfrwt beam="1">  1        2 0.12001371E+00 0.93752798E+03</pdfrwt>
<pdfrwt beam="2">  1       -2 0.18525870E+00 0.93752798E+03</pdfrwt>
<totfact> 0.59336918E+00</totfact>
</mgrwt>
</event>
<event>
 4    1  0.1726795E-008  0.4090426E+03  0.7818608E-02  0.1040693E+00
         -2   -1    0    0    0  501 -0.00000000000E+00  0.00000000000E+00  0.19689165740E+04  0.19689165740E+04  0.25500000000E-02 0.  1.
          2   -1    0    0  501    0  0.00000000000E+00 -0.00000000000E+00 -0.80502238776E+03  0.80502238776E+03  0.25500000000E-02 0. -1.
    8880022    1    1    2    0    0 -0.34626027883E+03  0.15500970037E+03 -0.72977661901E+03  0.83659413970E+03  0.15294330000E+03 0.  0.
    8880022    1    1    2    0    0  0.34626027883E+03 -0.15500970037E+03  0.18936708052E+04  0.19373448220E+04  0.15294330000E+03 0.  0.
<mgrwt>
<rscale>  0 0.40904259E+03</rscale>
<asrwt>0</asrwt>
<pdfrwt beam="1">  1        2 0.12384960E+00 0.40904259E+03</pdfrwt>
<pdfrwt beam="2">  1       -2 0.30291024E+00 0.40904259E+03</pdfrwt>
<totfact> 0.11844409E+00</totfact>
</mgrwt>
</event>
<event>
 4    1  0.1726795E-008  0.6938738E+03  0.7818608E-02  0.9727766E-01
          2   -1    0    0  501    0  0.00000000000E+00  0.00000000000E+00  0.13384424326E+04  0.13384424326E+04  0.25500000000E-02 0. -1.
         -2   -1    0    0    0  501 -0.00000000000E+00 -0.00000000000E+00 -0.14102913311E+04  0.14102913311E+04  0.25500000000E-02 0.  1.
    8880022    1    1    2    0    0  0.54181268606E+03 -0.40559616542E+03 -0.12221344885E+04  0.14053731168E+04  0.15294330000E+03 0.  0.
    8880022    1    1    2    0    0 -0.54181268606E+03  0.40559616542E+03  0.11502855901E+04  0.13433606470E+04  0.15294330000E+03 0.  0.
<mgrwt>
<rscale>  0 0.69387383E+03</rscale>
<asrwt>0</asrwt>
<pdfrwt beam="1">  1        2 0.20591422E+00 0.69387383E+03</pdfrwt>
<pdfrwt beam="2">  1       -2 0.21696790E+00 0.69387383E+03</pdfrwt>
<totfact> 0.16921452E+00</totfact>
</mgrwt>
</event>
<event>
 4    1  0.1726795E-008  0.5174715E+03  0.7818608E-02  0.1009317E+00
          2   -1    0    0  501    0  0.00000000000E+00  0.00000000000E+00  0.36220038832E+04  0.36220038832E+04  0.25500000000E-02 0. -1.
         -2   -1    0    0    0  501 -0.00000000000E+00 -0.00000000000E+00 -0.10015298431E+03  0.10015298434E+03  0.25500000000E-02 0.  1.
    8880022    1    1    2    0    0 -0.47595568160E+03 -0.13360868904E+03  0.27132154357E+04  0.27621214213E+04  0.15294330000E+03 0.  0.
    8880022    1    1    2    0    0  0.47595568160E+03  0.13360868904E+03  0.80863546314E+03  0.96003544617E+03  0.15294330000E+03 0.  1.
<mgrwt>
<rscale>  0 0.51747149E+03</rscale>
<asrwt>0</asrwt>
<pdfrwt beam="1">  1        2 0.55723143E+00 0.51747149E+03</pdfrwt>
<pdfrwt beam="2">  1       -2 0.15408150E-01 0.51747149E+03</pdfrwt>
<totfact> 0.25311448E+01</totfact>
</mgrwt>
</event>
<event>
 4    1  0.1726795E-008  0.5548624E+03  0.7818608E-02  0.1000375E+00
          2   -1    0    0  501    0  0.00000000000E+00  0.00000000000E+00  0.84204048582E+03  0.84204048582E+03  0.25500000000E-02 0. -1.
         -2   -1    0    0    0  501 -0.00000000000E+00 -0.00000000000E+00 -0.23919873122E+04  0.23919873122E+04  0.25500000000E-02 0.  1.
    8880022    1    1    2    0    0  0.45634058811E+03 -0.27610493950E+03  0.71333420621E+03  0.90372452259E+03  0.15294330000E+03 0.  0.
    8880022    1    1    2    0    0 -0.45634058811E+03  0.27610493950E+03 -0.22632810326E+04  0.23303032755E+04  0.15294330000E+03 0.  1.
<mgrwt>
<rscale>  0 0.55486244E+03</rscale>
<asrwt>0</asrwt>
<pdfrwt beam="1">  1        2 0.12954469E+00 0.55486244E+03</pdfrwt>
<pdfrwt beam="2">  1       -2 0.36799805E+00 0.55486244E+03</pdfrwt>
<totfact> 0.42815984E-01</totfact>
</mgrwt>
</event>
<event>
 4    1  0.1726795E-008  0.5427816E+03  0.7818608E-02  0.1003179E+00
          2   -1    0    0  501    0  0.00000000000E+00  0.00000000000E+00  0.19591658245E+04  0.19591658245E+04  0.25500000000E-02 0. -1.
         -2   -1    0    0    0  501 -0.00000000000E+00 -0.00000000000E+00 -0.63158492141E+03  0.63158492141E+03  0.25500000000E-02 0.  1.
    8880022    1    1    2    0    0  0.30541495156E+03 -0.42183156188E+03 -0.46690729745E+03  0.71597083506E+03  0.15294330000E+03 0.  0.
    8880022    1    1    2    0    0 -0.30541495156E+03  0.42183156188E+03  0.17944882005E+04  0.18747799108E+04  0.15294330000E+03 0.  0.
<mgrwt>
<rscale>  0 0.54278155E+03</rscale>
<asrwt>0</asrwt>
<pdfrwt beam="1">  1        2 0.30141012E+00 0.54278155E+03</pdfrwt>
<pdfrwt beam="2">  1       -2 0.97166914E-01 0.54278155E+03</pdfrwt>
<totfact> 0.66955422E+00</totfact>
</mgrwt>
</event>
<event>
 4    1  0.1726795E-008  0.9455568E+03  0.7818608E-02  0.9370359E-01
         -2   -1    0    0    0  501 -0.00000000000E+00  0.00000000000E+00  0.18621983568E+04  0.18621983568E+04  0.25500000000E-02 0.  1.
          2   -1    0    0  501    0  0.00000000000E+00 -0.00000000000E+00 -0.59482962930E+03  0.59482962930E+03  0.25500000000E-02 0. -1.
    8880022    1    1    2    0    0 -0.46105572151E+03  0.81124206101E+03  0.94192713862E+02  0.95023680220E+03  0.15294330000E+03 0.  0.
    8880022    1    1    2    0    0  0.46105572151E+03 -0.81124206101E+03  0.11731760136E+04  0.15067911839E+04  0.15294330000E+03 0.  0.
<mgrwt>
<rscale>  0 0.94555683E+03</rscale>
<asrwt>0</asrwt>
<pdfrwt beam="1">  1        2 0.91512253E-01 0.94555683E+03</pdfrwt>
<pdfrwt beam="2">  1       -2 0.28649205E+00 0.94555683E+03</pdfrwt>
<totfact> 0.19472323E+00</totfact>
</mgrwt>
</event>
<event>
 4    1  0.1726795E-008  0.1357022E+04  0.7818608E-02  0.8985530E-01
         -2   -1    0    0    0  501 -0.00000000000E+00  0.00000000000E+00  0.75491082289E+03  0.75491082290E+03  0.25500000000E-02 0.  1.
          2   -1    0    0  501    0  0.00000000000E+00 -0.00000000000E+00 -0.33726483764E+04  0.33726483764E+04  0.25500000000E-02 0. -1.
    8880022    1    1    2    0    0 -0.10820087157E+04 -0.80459515981E+03 -0.22323573132E+03  0.13752607305E+04  0.15294330000E+03 0.  0.
    8880022    1    1    2    0    0  0.10820087157E+04  0.80459515981E+03 -0.23945018222E+04  0.27522984689E+04  0.15294330000E+03 0.  0.
<mgrwt>
<rscale>  0 0.13570217E+04</rscale>
<asrwt>0</asrwt>
<pdfrwt beam="1">  1        2 0.51886897E+00 0.13570217E+04</pdfrwt>
<pdfrwt beam="2">  1       -2 0.11614013E+00 0.13570217E+04</pdfrwt>
<totfact> 0.55802137E-01</totfact>
</mgrwt>
</event>
<event>
 4    1  0.1726795E-008  0.6745801E+03  0.7818608E-02  0.9761719E-01
         -2   -1    0    0    0  501 -0.00000000000E+00  0.00000000000E+00  0.10686431521E+04  0.10686431521E+04  0.25500000000E-02 0.  1.
          2   -1    0    0  501    0  0.00000000000E+00 -0.00000000000E+00 -0.10176015016E+04  0.10176015016E+04  0.25500000000E-02 0. -1.
    8880022    1    1    2    0    0  0.51493202194E+03  0.40805841101E+03 -0.76994968445E+03  0.10236605021E+04  0.15294330000E+03 0.  0.
    8880022    1    1    2    0    0 -0.51493202194E+03 -0.40805841101E+03  0.82099133501E+03  0.10625841516E+04  0.15294330000E+03 0.  0.
<mgrwt>
<rscale>  0 0.67458010E+03</rscale>
<asrwt>0</asrwt>
<pdfrwt beam="1">  1        2 0.15655408E+00 0.67458010E+03</pdfrwt>
<pdfrwt beam="2">  1       -2 0.16440664E+00 0.67458010E+03</pdfrwt>
<totfact> 0.59153180E+00</totfact>
</mgrwt>
</event>
<event>
 4    1  0.1726795E-008  0.6999556E+03  0.7818608E-02  0.9717308E-01
          2   -1    0    0  501    0  0.00000000000E+00  0.00000000000E+00  0.20395399309E+04  0.20395399309E+04  0.25500000000E-02 0. -1.
         -2   -1    0    0    0  501 -0.00000000000E+00 -0.00000000000E+00 -0.10163628198E+04  0.10163628198E+04  0.25500000000E-02 0.  1.
    8880022    1    1    2    0    0 -0.16241452843E+03  0.66345136795E+03  0.18468183983E+04  0.19750129230E+04  0.15294330000E+03 0.  0.
    8880022    1    1    2    0    0  0.16241452843E+03 -0.66345136795E+03 -0.82364128723E+03  0.10808898277E+04  0.15294330000E+03 0.  0.
<mgrwt>
<rscale>  0 0.69995561E+03</rscale>
<asrwt>0</asrwt>
<pdfrwt beam="1">  1        2 0.31377537E+00 0.69995561E+03</pdfrwt>
<pdfrwt beam="2">  1       -2 0.15636351E+00 0.69995561E+03</pdfrwt>
<totfact> 0.17874969E+00</totfact>
</mgrwt>
</event>
<event>
 4    1  0.1726795E-008  0.6889214E+03  0.7818608E-02  0.9736368E-01
          2   -1    0    0  501    0  0.00000000000E+00  0.00000000000E+00  0.19941970406E+04  0.19941970406E+04  0.25500000000E-02 0. -1.
         -2   -1    0    0    0  501 -0.00000000000E+00 -0.00000000000E+00 -0.41374072466E+03  0.41374072467E+03  0.25500000000E-02 0.  1.
    8880022    1    1    2    0    0 -0.49861990708E+02 -0.66987670546E+03  0.15749056401E+04  0.17189940218E+04  0.15294330000E+03 0.  0.
    8880022    1    1    2    0    0  0.49861990708E+02  0.66987670546E+03  0.55506757801E+01  0.68894374346E+03  0.15294330000E+03 0.  0.
<mgrwt>
<rscale>  0 0.68892138E+03</rscale>
<asrwt>0</asrwt>
<pdfrwt beam="1">  1        2 0.30679955E+00 0.68892138E+03</pdfrwt>
<pdfrwt beam="2">  1       -2 0.63652419E-01 0.68892138E+03</pdfrwt>
<totfact> 0.16046834E+01</totfact>
</mgrwt>
</event>
<event>
 4    1  0.1726795E-008  0.6971046E+03  0.7818608E-02  0.9722197E-01
         -2   -1    0    0    0  501 -0.00000000000E+00  0.00000000000E+00  0.12358856613E+04  0.12358856613E+04  0.25500000000E-02 0.  1.
          2   -1    0    0  501    0  0.00000000000E+00 -0.00000000000E+00 -0.80630968179E+03  0.80630968179E+03  0.25500000000E-02 0. -1.
    8880022    1    1    2    0    0  0.67214710285E+03  0.10383367227E+03  0.94566969532E+03  0.11748387060E+04  0.15294330000E+03 0.  0.
    8880022    1    1    2    0    0 -0.67214710285E+03 -0.10383367227E+03 -0.51609371584E+03  0.86735663710E+03  0.15294330000E+03 0.  0.
<mgrwt>
<rscale>  0 0.69710459E+03</rscale>
<asrwt>0</asrwt>
<pdfrwt beam="1">  1        2 0.12404764E+00 0.69710459E+03</pdfrwt>
<pdfrwt beam="2">  1       -2 0.19013625E+00 0.69710459E+03</pdfrwt>
<totfact> 0.54189723E+00</totfact>
</mgrwt>
</event>
<event>
 4    1  0.2072058E-008  0.8922002E+03  0.7818608E-02  0.9435384E-01
         -2   -1    0    0    0  501 -0.00000000000E+00  0.00000000000E+00  0.26608714143E+04  0.26608714143E+04  0.25500000000E-02 0.  1.
          2   -1    0    0  501    0  0.00000000000E+00 -0.00000000000E+00 -0.13125701338E+04  0.13125701338E+04  0.25500000000E-02 0. -1.
    8880022    1    1    2    0    0 -0.12371209115E+03  0.87024410177E+03  0.24198466167E+04  0.25790848725E+04  0.15294330000E+03 0.  0.
    8880022    1    1    2    0    0  0.12371209115E+03 -0.87024410177E+03 -0.10715453362E+04  0.13943566755E+04  0.15294330000E+03 0.  0.
<mgrwt>
<rscale>  0 0.89220016E+03</rscale>
<asrwt>0</asrwt>
<pdfrwt beam="1">  1        2 0.20193387E+00 0.89220016E+03</pdfrwt>
<pdfrwt beam="2">  1       -2 0.40936483E+00 0.89220016E+03</pdfrwt>
<totfact> 0.10892646E-01</totfact>
</mgrwt>
</event>
<event>
 4    1  0.1726795E-008  0.1214704E+04  0.7818608E-02  0.9100083E-01
          2   -1    0    0  501    0  0.00000000000E+00  0.00000000000E+00  0.88002076899E+03  0.88002076900E+03  0.25500000000E-02 0. -1.
         -2   -1    0    0    0  501 -0.00000000000E+00 -0.00000000000E+00 -0.23268932042E+04  0.23268932042E+04  0.25500000000E-02 0.  1.
    8880022    1    1    2    0    0  0.10475307614E+04 -0.59564543523E+03 -0.15710534651E+04  0.19858788543E+04  0.15294330000E+03 0.  0.
    8880022    1    1    2    0    0 -0.10475307614E+04  0.59564543523E+03  0.12418102990E+03  0.12210351190E+04  0.15294330000E+03 0.  0.
<mgrwt>
<rscale>  0 0.12147040E+04</rscale>
<asrwt>0</asrwt>
<pdfrwt beam="1">  1        2 0.13538781E+00 0.12147040E+04</pdfrwt>
<pdfrwt beam="2">  1       -2 0.35798357E+00 0.12147040E+04</pdfrwt>
<totfact> 0.41189340E-01</totfact>
</mgrwt>
</event>
<event>
 4    1  0.1726795E-008  0.2524058E+03  0.7818608E-02  0.1111794E+00
          2   -1    0    0  501    0  0.00000000000E+00  0.00000000000E+00  0.12415295729E+04  0.12415295729E+04  0.25500000000E-02 0. -1.
         -2   -1    0    0    0  501 -0.00000000000E+00 -0.00000000000E+00 -0.25340097823E+03  0.25340097824E+03  0.25500000000E-02 0.  1.
    8880022    1    1    2    0    0  0.20078744971E+03 -0.11908152217E+01 -0.17344194485E+03  0.30625280284E+03  0.15294330000E+03 0.  1.
    8880022    1    1    2    0    0 -0.20078744971E+03  0.11908152217E+01  0.11615705395E+04  0.11886777483E+04  0.15294330000E+03 0.  0.
<mgrwt>
<rscale>  0 0.25240577E+03</rscale>
<asrwt>0</asrwt>
<pdfrwt beam="1">  1        2 0.19100455E+00 0.25240577E+03</pdfrwt>
<pdfrwt beam="2">  1       -2 0.38984766E-01 0.25240577E+03</pdfrwt>
<totfact> 0.12040228E+02</totfact>
</mgrwt>
</event>
<event>
 4    1  0.1726795E-008  0.1388327E+04  0.7818608E-02  0.8962312E-01
          2   -1    0    0  501    0  0.00000000000E+00  0.00000000000E+00  0.15494956284E+04  0.15494956284E+04  0.25500000000E-02 0. -1.
         -2   -1    0    0    0  501 -0.00000000000E+00 -0.00000000000E+00 -0.17977079251E+04  0.17977079251E+04  0.25500000000E-02 0.  1.
    8880022    1    1    2    0    0  0.13707210231E+04  0.15869646476E+03 -0.10529941557E+04  0.17424835827E+04  0.15294330000E+03 0.  0.
    8880022    1    1    2    0    0 -0.13707210231E+04 -0.15869646476E+03  0.80478185901E+03  0.16047199708E+04  0.15294330000E+03 0.  0.
<mgrwt>
<rscale>  0 0.13883272E+04</rscale>
<asrwt>0</asrwt>
<pdfrwt beam="1">  1        2 0.23838394E+00 0.13883272E+04</pdfrwt>
<pdfrwt beam="2">  1       -2 0.27657045E+00 0.13883272E+04</pdfrwt>
<totfact> 0.50054591E-01</totfact>
</mgrwt>
</event>
<event>
 4    1  0.1726795E-008  0.1885802E+04  0.7818608E-02  0.8661956E-01
          2   -1    0    0  501    0  0.00000000000E+00  0.00000000000E+00  0.23905607625E+04  0.23905607625E+04  0.25500000000E-02 0. -1.
         -2   -1    0    0    0  501 -0.00000000000E+00 -0.00000000000E+00 -0.17314114303E+04  0.17314114303E+04  0.25500000000E-02 0.  1.
    8880022    1    1    2    0    0 -0.18565379776E+04 -0.29347247826E+03  0.11029356767E+04  0.21846551484E+04  0.15294330000E+03 0.  0.
    8880022    1    1    2    0    0  0.18565379776E+04  0.29347247826E+03 -0.44378634453E+03  0.19373170444E+04  0.15294330000E+03 0.  0.
<mgrwt>
<rscale>  0 0.18858025E+04</rscale>
<asrwt>0</asrwt>
<pdfrwt beam="1">  1        2 0.36777858E+00 0.18858025E+04</pdfrwt>
<pdfrwt beam="2">  1       -2 0.26637099E+00 0.18858025E+04</pdfrwt>
<totfact> 0.18457541E-01</totfact>
</mgrwt>
</event>
<event>
 4    1  0.1726795E-008  0.3834711E+03  0.7818608E-02  0.1049658E+00
          2   -1    0    0  501    0  0.00000000000E+00  0.00000000000E+00  0.99649749150E+03  0.99649749150E+03  0.25500000000E-02 0. -1.
         -2   -1    0    0    0  501 -0.00000000000E+00 -0.00000000000E+00 -0.18656510523E+03  0.18656510525E+03  0.25500000000E-02 0.  1.
    8880022    1    1    2    0    0 -0.19005422642E+03 -0.29586789833E+03  0.67541474774E+03  0.77668214652E+03  0.15294330000E+03 0.  0.
    8880022    1    1    2    0    0  0.19005422642E+03  0.29586789833E+03  0.13451763852E+03  0.40638045023E+03  0.15294330000E+03 0.  0.
<mgrwt>
<rscale>  0 0.38347109E+03</rscale>
<asrwt>0</asrwt>
<pdfrwt beam="1">  1        2 0.15330731E+00 0.38347109E+03</pdfrwt>
<pdfrwt beam="2">  1       -2 0.28702323E-01 0.38347109E+03</pdfrwt>
<totfact> 0.29131999E+02</totfact>
</mgrwt>
</event>
<event>
 4    1  0.1726795E-008  0.9553677E+03  0.7818608E-02  0.9358898E-01
          2   -1    0    0  501    0  0.00000000000E+00  0.00000000000E+00  0.15619590136E+04  0.15619590136E+04  0.25500000000E-02 0. -1.
         -2   -1    0    0    0  501 -0.00000000000E+00 -0.00000000000E+00 -0.71762850861E+03  0.71762850861E+03  0.25500000000E-02 0.  1.
    8880022    1    1    2    0    0 -0.87934922181E+03 -0.34070623807E+03 -0.69036536996E+02  0.95785880536E+03  0.15294330000E+03 0.  0.
    8880022    1    1    2    0    0  0.87934922181E+03  0.34070623807E+03  0.91336704198E+03  0.13217287168E+04  0.15294330000E+03 0.  0.
<mgrwt>
<rscale>  0 0.95536770E+03</rscale>
<asrwt>0</asrwt>
<pdfrwt beam="1">  1        2 0.24030138E+00 0.95536770E+03</pdfrwt>
<pdfrwt beam="2">  1       -2 0.11040439E+00 0.95536770E+03</pdfrwt>
<totfact> 0.76275866E+00</totfact>
</mgrwt>
</event>
<event>
 4    1  0.1726795E-008  0.1188127E+04  0.7818608E-02  0.9123313E-01
          2   -1    0    0  501    0  0.00000000000E+00  0.00000000000E+00  0.24829412816E+04  0.24829412816E+04  0.25500000000E-02 0. -1.
         -2   -1    0    0    0  501 -0.00000000000E+00 -0.00000000000E+00 -0.12491531016E+04  0.12491531016E+04  0.25500000000E-02 0.  1.
    8880022    1    1    2    0    0 -0.11767749813E+04  0.58778750682E+02 -0.76052356306E+03  0.14106884989E+04  0.15294330000E+03 0.  0.
    8880022    1    1    2    0    0  0.11767749813E+04 -0.58778750682E+02  0.19943117430E+04  0.23214058843E+04  0.15294330000E+03 0.  0.
<mgrwt>
<rscale>  0 0.11881271E+04</rscale>
<asrwt>0</asrwt>
<pdfrwt beam="1">  1        2 0.38199096E+00 0.11881271E+04</pdfrwt>
<pdfrwt beam="2">  1       -2 0.19217740E+00 0.11881271E+04</pdfrwt>
<totfact> 0.52163860E-01</totfact>
</mgrwt>
</event>
<event>
 4    1  0.1726795E-008  0.2996008E+03  0.7818608E-02  0.1085440E+00
         -2   -1    0    0    0  501 -0.00000000000E+00  0.00000000000E+00  0.19737893968E+03  0.19737893970E+03  0.25500000000E-02 0.  1.
          2   -1    0    0  501    0  0.00000000000E+00 -0.00000000000E+00 -0.45022059966E+04  0.45022059967E+04  0.25500000000E-02 0. -1.
    8880022    1    1    2    0    0  0.41196667747E+02  0.25430659653E+03 -0.43803725062E+04  0.43906063313E+04  0.15294330000E+03 0.  0.
    8880022    1    1    2    0    0 -0.41196667747E+02 -0.25430659653E+03  0.75545449204E+02  0.30897860506E+03  0.15294330000E+03 0.  0.
<mgrwt>
<rscale>  0 0.29960084E+03</rscale>
<asrwt>0</asrwt>
<pdfrwt beam="1">  1        2 0.69264700E+00 0.29960084E+03</pdfrwt>
<pdfrwt beam="2">  1       -2 0.30365994E-01 0.29960084E+03</pdfrwt>
<totfact> 0.16758724E+00</totfact>
</mgrwt>
</event>
<event>
 4    1  0.1726795E-008  0.7430781E+03  0.7818608E-02  0.9646273E-01
          2   -1    0    0  501    0  0.00000000000E+00  0.00000000000E+00  0.60815948436E+03  0.60815948436E+03  0.25500000000E-02 0. -1.
         -2   -1    0    0    0  501 -0.00000000000E+00 -0.00000000000E+00 -0.10899439557E+04  0.10899439557E+04  0.25500000000E-02 0.  1.
    8880022    1    1    2    0    0  0.72459017570E+03 -0.61175631534E+02 -0.58785811988E+03  0.94749258717E+03  0.15294330000E+03 0.  0.
    8880022    1    1    2    0    0 -0.72459017570E+03  0.61175631534E+02  0.10607364850E+03  0.75061085293E+03  0.15294330000E+03 0. -1.
<mgrwt>
<rscale>  0 0.74307808E+03</rscale>
<asrwt>0</asrwt>
<pdfrwt beam="1">  1        2 0.93562998E-01 0.74307808E+03</pdfrwt>
<pdfrwt beam="2">  1       -2 0.16768368E+00 0.74307808E+03</pdfrwt>
<totfact> 0.10984061E+01</totfact>
</mgrwt>
</event>
<event>
 4    1  0.1726795E-008  0.1725012E+04  0.7818608E-02  0.8747226E-01
         -2   -1    0    0    0  501 -0.00000000000E+00  0.00000000000E+00  0.95782747895E+03  0.95782747895E+03  0.25500000000E-02 0.  1.
          2   -1    0    0  501    0  0.00000000000E+00 -0.00000000000E+00 -0.38617924627E+04  0.38617924627E+04  0.25500000000E-02 0. -1.
    8880022    1    1    2    0    0 -0.14261503099E+04  0.95831715115E+03 -0.38638606673E+03  0.17677562938E+04  0.15294330000E+03 0.  0.
    8880022    1    1    2    0    0  0.14261503099E+04 -0.95831715115E+03 -0.25175789170E+04  0.30518636478E+04  0.15294330000E+03 0.  0.
<mgrwt>
<rscale>  0 0.17250125E+04</rscale>
<asrwt>0</asrwt>
<pdfrwt beam="1">  1        2 0.59412191E+00 0.17250125E+04</pdfrwt>
<pdfrwt beam="2">  1       -2 0.14735808E+00 0.17250125E+04</pdfrwt>
<totfact> 0.12890267E-01</totfact>
</mgrwt>
</event>
<event>
 4    1  0.1726795E-008  0.6417831E+03  0.7818608E-02  0.9822321E-01
         -2   -1    0    0    0  501 -0.00000000000E+00  0.00000000000E+00  0.37734384826E+03  0.37734384827E+03  0.25500000000E-02 0.  1.
          2   -1    0    0  501    0  0.00000000000E+00 -0.00000000000E+00 -0.14745377265E+04  0.14745377265E+04  0.25500000000E-02 0. -1.
    8880022    1    1    2    0    0  0.60429910782E+03  0.15269748005E+03 -0.10205011451E+04  0.12055323190E+04  0.15294330000E+03 0.  0.
    8880022    1    1    2    0    0 -0.60429910782E+03 -0.15269748005E+03 -0.76692733223E+02  0.64634925580E+03  0.15294330000E+03 0.  0.
<mgrwt>
<rscale>  0 0.64178313E+03</rscale>
<asrwt>0</asrwt>
<pdfrwt beam="1">  1        2 0.22685196E+00 0.64178313E+03</pdfrwt>
<pdfrwt beam="2">  1       -2 0.58052900E-01 0.64178313E+03</pdfrwt>
<totfact> 0.37729574E+01</totfact>
</mgrwt>
</event>
<event>
 4    1  0.1726795E-008  0.1377002E+04  0.7818608E-02  0.8970636E-01
          2   -1    0    0  501    0  0.00000000000E+00  0.00000000000E+00  0.18006647587E+04  0.18006647587E+04  0.25500000000E-02 0. -1.
         -2   -1    0    0    0  501 -0.00000000000E+00 -0.00000000000E+00 -0.17596490310E+04  0.17596490310E+04  0.25500000000E-02 0.  1.
    8880022    1    1    2    0    0  0.53317354799E+03 -0.12603443553E+04 -0.11075760469E+04  0.17671610789E+04  0.15294330000E+03 0.  0.
    8880022    1    1    2    0    0 -0.53317354799E+03  0.12603443553E+04  0.11485917746E+04  0.17931527107E+04  0.15294330000E+03 0.  0.
<mgrwt>
<rscale>  0 0.13770017E+04</rscale>
<asrwt>0</asrwt>
<pdfrwt beam="1">  1        2 0.27702535E+00 0.13770017E+04</pdfrwt>
<pdfrwt beam="2">  1       -2 0.27071524E+00 0.13770017E+04</pdfrwt>
<totfact> 0.39365984E-01</totfact>
</mgrwt>
</event>
<event>
 4    1  0.1726795E-008  0.1113457E+04  0.7818608E-02  0.9192174E-01
          2   -1    0    0  501    0  0.00000000000E+00  0.00000000000E+00  0.34875184986E+04  0.34875184986E+04  0.25500000000E-02 0. -1.
         -2   -1    0    0    0  501 -0.00000000000E+00 -0.00000000000E+00 -0.77310811015E+03  0.77310811015E+03  0.25500000000E-02 0.  1.
    8880022    1    1    2    0    0  0.34762539471E+03 -0.10466860812E+04 -0.20850617271E+03  0.11328113898E+04  0.15294330000E+03 0.  0.
    8880022    1    1    2    0    0 -0.34762539471E+03  0.10466860812E+04  0.29229165612E+04  0.31278152190E+04  0.15294330000E+03 0.  0.
<mgrwt>
<rscale>  0 0.11134571E+04</rscale>
<asrwt>0</asrwt>
<pdfrwt beam="1">  1        2 0.53654131E+00 0.11134571E+04</pdfrwt>
<pdfrwt beam="2">  1       -2 0.11893971E+00 0.11134571E+04</pdfrwt>
<totfact> 0.45543890E-01</totfact>
</mgrwt>
</event>
<event>
 4    1  0.1726795E-008  0.1062156E+04  0.7818608E-02  0.9242883E-01
         -2   -1    0    0    0  501 -0.00000000000E+00  0.00000000000E+00  0.13004743461E+04  0.13004743461E+04  0.25500000000E-02 0.  1.
          2   -1    0    0  501    0  0.00000000000E+00 -0.00000000000E+00 -0.15747992218E+04  0.15747992218E+04  0.25500000000E-02 0. -1.
    8880022    1    1    2    0    0 -0.10499373576E+04  0.49145160631E+02 -0.11006251223E+04  0.15295590915E+04  0.15294330000E+03 0.  0.
    8880022    1    1    2    0    0  0.10499373576E+04 -0.49145160631E+02  0.82630024654E+03  0.13457144765E+04  0.15294330000E+03 0.  0.
<mgrwt>
<rscale>  0 0.10621560E+04</rscale>
<asrwt>0</asrwt>
<pdfrwt beam="1">  1        2 0.24227680E+00 0.10621560E+04</pdfrwt>
<pdfrwt beam="2">  1       -2 0.20007298E+00 0.10621560E+04</pdfrwt>
<totfact> 0.15092037E+00</totfact>
</mgrwt>
</event>
<event>
 4    1  0.1726795E-008  0.5439549E+03  0.7818608E-02  0.1002903E+00
         -2   -1    0    0    0  501 -0.00000000000E+00  0.00000000000E+00  0.15941873229E+03  0.15941873231E+03  0.25500000000E-02 0.  1.
          2   -1    0    0  501    0  0.00000000000E+00 -0.00000000000E+00 -0.37370894652E+04  0.37370894652E+04  0.25500000000E-02 0. -1.
    8880022    1    1    2    0    0  0.42058363136E+03  0.30920015920E+03 -0.31710623464E+04  0.32173783407E+04  0.15294330000E+03 0. -1.
    8880022    1    1    2    0    0 -0.42058363136E+03 -0.30920015920E+03 -0.40660838650E+03  0.67912985680E+03  0.15294330000E+03 0.  0.
<mgrwt>
<rscale>  0 0.54395495E+03</rscale>
<asrwt>0</asrwt>
<pdfrwt beam="1">  1        2 0.57493677E+00 0.54395495E+03</pdfrwt>
<pdfrwt beam="2">  1       -2 0.24525962E-01 0.54395495E+03</pdfrwt>
<totfact> 0.93005863E+00</totfact>
</mgrwt>
</event>
<event>
 4    1  0.1726795E-008  0.1362800E+04  0.7818608E-02  0.8981195E-01
          2   -1    0    0  501    0  0.00000000000E+00  0.00000000000E+00  0.13197077884E+04  0.13197077884E+04  0.25500000000E-02 0. -1.
         -2   -1    0    0    0  501 -0.00000000000E+00 -0.00000000000E+00 -0.25915777328E+04  0.25915777328E+04  0.25500000000E-02 0.  1.
    8880022    1    1    2    0    0 -0.11557855490E+04  0.70568577372E+03  0.68607354161E+03  0.15257526680E+04  0.15294330000E+03 0.  0.
    8880022    1    1    2    0    0  0.11557855490E+04 -0.70568577372E+03 -0.19579434860E+04  0.23855328533E+04  0.15294330000E+03 0.  0.
<mgrwt>
<rscale>  0 0.13628002E+04</rscale>
<asrwt>0</asrwt>
<pdfrwt beam="1">  1        2 0.20303197E+00 0.13628002E+04</pdfrwt>
<pdfrwt beam="2">  1       -2 0.39870427E+00 0.13628002E+04</pdfrwt>
<totfact> 0.11713681E-01</totfact>
</mgrwt>
</event>
<event>
 4    1  0.1726795E-008  0.2149644E+04  0.7818608E-02  0.8539685E-01
         -2   -1    0    0    0  501 -0.00000000000E+00  0.00000000000E+00  0.25668003055E+04  0.25668003055E+04  0.25500000000E-02 0.  1.
          2   -1    0    0  501    0  0.00000000000E+00 -0.00000000000E+00 -0.29662054599E+04  0.29662054599E+04  0.25500000000E-02 0. -1.
    8880022    1    1    2    0    0  0.98432877739E+03 -0.19049081356E+04 -0.19341659768E+04  0.28917067324E+04  0.15294330000E+03 0.  0.
    8880022    1    1    2    0    0 -0.98432877739E+03  0.19049081356E+04  0.15347608225E+04  0.26412990331E+04  0.15294330000E+03 0.  0.
<mgrwt>
<rscale>  0 0.21496441E+04</rscale>
<asrwt>0</asrwt>
<pdfrwt beam="1">  1        2 0.45633930E+00 0.21496441E+04</pdfrwt>
<pdfrwt beam="2">  1       -2 0.39489236E+00 0.21496441E+04</pdfrwt>
<totfact> 0.12677412E-02</totfact>
</mgrwt>
</event>
<event>
 4    1  0.1726795E-008  0.1147059E+04  0.7818608E-02  0.9160501E-01
          2   -1    0    0  501    0  0.00000000000E+00  0.00000000000E+00  0.27371271396E+04  0.27371271396E+04  0.25500000000E-02 0. -1.
         -2   -1    0    0    0  501 -0.00000000000E+00 -0.00000000000E+00 -0.16275648091E+04  0.16275648091E+04  0.25500000000E-02 0.  1.
    8880022    1    1    2    0    0  0.74170545809E+03 -0.86152565066E+03 -0.12771536294E+04  0.17166439583E+04  0.15294330000E+03 0.  0.
    8880022    1    1    2    0    0 -0.74170545809E+03  0.86152565066E+03  0.23867159599E+04  0.26480479904E+04  0.15294330000E+03 0.  0.
<mgrwt>
<rscale>  0 0.11470593E+04</rscale>
<asrwt>0</asrwt>
<pdfrwt beam="1">  1        2 0.42109648E+00 0.11470593E+04</pdfrwt>
<pdfrwt beam="2">  1       -2 0.25039459E+00 0.11470593E+04</pdfrwt>
<totfact> 0.15950372E-01</totfact>
</mgrwt>
</event>
<event>
 4    1  0.1726795E-008  0.8771022E+03  0.7818608E-02  0.9454666E-01
          2   -1    0    0  501    0  0.00000000000E+00  0.00000000000E+00  0.10878916363E+04  0.10878916363E+04  0.25500000000E-02 0. -1.
         -2   -1    0    0    0  501 -0.00000000000E+00 -0.00000000000E+00 -0.87639119400E+03  0.87639119401E+03  0.25500000000E-02 0.  1.
    8880022    1    1    2    0    0 -0.76483283790E+03  0.40118237746E+03 -0.32583980140E+03  0.93567077496E+03  0.15294330000E+03 0.  0.
    8880022    1    1    2    0    0  0.76483283790E+03 -0.40118237746E+03  0.53734024371E+03  0.10286120554E+04  0.15294330000E+03 0.  0.
<mgrwt>
<rscale>  0 0.87710217E+03</rscale>
<asrwt>0</asrwt>
<pdfrwt beam="1">  1        2 0.16736794E+00 0.87710217E+03</pdfrwt>
<pdfrwt beam="2">  1       -2 0.13482941E+00 0.87710217E+03</pdfrwt>
<totfact> 0.88072104E+00</totfact>
</mgrwt>
</event>
<event>
 4    1  0.2435927E-008  0.1390316E+04  0.7818608E-02  0.8960858E-01
         -2   -1    0    0    0  501 -0.00000000000E+00  0.00000000000E+00  0.22565370833E+04  0.22565370833E+04  0.25500000000E-02 0.  1.
          2   -1    0    0  501    0  0.00000000000E+00 -0.00000000000E+00 -0.26297091664E+04  0.26297091664E+04  0.25500000000E-02 0. -1.
    8880022    1    1    2    0    0 -0.11984872092E+04 -0.68790630508E+03  0.18195375089E+04  0.22899115866E+04  0.15294330000E+03 0.  0.
    8880022    1    1    2    0    0  0.11984872092E+04  0.68790630508E+03 -0.21927095919E+04  0.25963346631E+04  0.15294330000E+03 0.  0.
<mgrwt>
<rscale>  0 0.13903159E+04</rscale>
<asrwt>0</asrwt>
<pdfrwt beam="1">  1        2 0.40457064E+00 0.13903159E+04</pdfrwt>
<pdfrwt beam="2">  1       -2 0.34715955E+00 0.13903159E+04</pdfrwt>
<totfact> 0.45298125E-02</totfact>
</mgrwt>
</event>
<event>
 4    1  0.1726795E-008  0.1002057E+04  0.7818608E-02  0.9306292E-01
          2   -1    0    0  501    0  0.00000000000E+00  0.00000000000E+00  0.30378747335E+04  0.30378747335E+04  0.25500000000E-02 0. -1.
         -2   -1    0    0    0  501 -0.00000000000E+00 -0.00000000000E+00 -0.45708448107E+03  0.45708448108E+03  0.25500000000E-02 0.  1.
    8880022    1    1    2    0    0 -0.89027256218E+03  0.43375158109E+03  0.22098867811E+04  0.24264618084E+04  0.15294330000E+03 0.  0.
    8880022    1    1    2    0    0  0.89027256218E+03 -0.43375158109E+03  0.37090347131E+03  0.10684974062E+04  0.15294330000E+03 0.  0.
<mgrwt>
<rscale>  0 0.10020565E+04</rscale>
<asrwt>0</asrwt>
<pdfrwt beam="1">  1        2 0.46736535E+00 0.10020565E+04</pdfrwt>
<pdfrwt beam="2">  1       -2 0.70320689E-01 0.10020565E+04</pdfrwt>
<totfact> 0.31019895E+00</totfact>
</mgrwt>
</event>
<event>
 4    1  0.1726795E-008  0.6723396E+03  0.7818608E-02  0.9765741E-01
          2   -1    0    0  501    0  0.00000000000E+00  0.00000000000E+00  0.23404478655E+04  0.23404478655E+04  0.25500000000E-02 0. -1.
         -2   -1    0    0    0  501 -0.00000000000E+00 -0.00000000000E+00 -0.38628315386E+03  0.38628315387E+03  0.25500000000E-02 0.  1.
    8880022    1    1    2    0    0 -0.45329537023E+03  0.47241102898E+03  0.19411244370E+04  0.20542649795E+04  0.15294330000E+03 0.  0.
    8880022    1    1    2    0    0  0.45329537023E+03 -0.47241102898E+03  0.13040274595E+02  0.67246603985E+03  0.15294330000E+03 0.  0.
<mgrwt>
<rscale>  0 0.67233959E+03</rscale>
<asrwt>0</asrwt>
<pdfrwt beam="1">  1        2 0.36006890E+00 0.67233959E+03</pdfrwt>
<pdfrwt beam="2">  1       -2 0.59428177E-01 0.67233959E+03</pdfrwt>
<totfact> 0.12016504E+01</totfact>
</mgrwt>
</event>
<event>
 4    1  0.1726795E-008  0.1141782E+04  0.7818608E-02  0.9165399E-01
         -2   -1    0    0    0  501 -0.00000000000E+00  0.00000000000E+00  0.18531001833E+04  0.18531001833E+04  0.25500000000E-02 0.  1.
          2   -1    0    0  501    0  0.00000000000E+00 -0.00000000000E+00 -0.95406402998E+03  0.95406402998E+03  0.25500000000E-02 0. -1.
    8880022    1    1    2    0    0 -0.42782837576E+03 -0.10474910801E+04  0.11688073459E+04  0.16339452093E+04  0.15294330000E+03 0.  0.
    8880022    1    1    2    0    0  0.42782837576E+03  0.10474910801E+04 -0.26977119263E+03  0.11732190040E+04  0.15294330000E+03 0.  0.
<mgrwt>
<rscale>  0 0.11417821E+04</rscale>
<asrwt>0</asrwt>
<pdfrwt beam="1">  1        2 0.14677908E+00 0.11417821E+04</pdfrwt>
<pdfrwt beam="2">  1       -2 0.28509234E+00 0.11417821E+04</pdfrwt>
<totfact> 0.10408453E+00</totfact>
</mgrwt>
</event>
<event>
 4    1  0.1726795E-008  0.5642538E+03  0.7818608E-02  0.9982475E-01
          2   -1    0    0  501    0  0.00000000000E+00  0.00000000000E+00  0.61254244968E+03  0.61254244969E+03  0.25500000000E-02 0. -1.
         -2   -1    0    0    0  501 -0.00000000000E+00 -0.00000000000E+00 -0.71305435986E+03  0.71305435987E+03  0.25500000000E-02 0.  1.
    8880022    1    1    2    0    0 -0.40743618000E+03 -0.35914679818E+03 -0.39533328076E+03  0.68896351087E+03  0.15294330000E+03 0.  0.
    8880022    1    1    2    0    0  0.40743618000E+03  0.35914679818E+03  0.29482137058E+03  0.63663329868E+03  0.15294330000E+03 0.  0.
<mgrwt>
<rscale>  0 0.56425377E+03</rscale>
<asrwt>0</asrwt>
<pdfrwt beam="1">  1        2 0.94237300E-01 0.56425377E+03</pdfrwt>
<pdfrwt beam="2">  1       -2 0.10970067E+00 0.56425377E+03</pdfrwt>
<totfact> 0.32954130E+01</totfact>
</mgrwt>
</event>
<event>
 4    1  0.1726795E-008  0.1000631E+04  0.7818608E-02  0.9307853E-01
          2   -1    0    0  501    0  0.00000000000E+00  0.00000000000E+00  0.20721397196E+04  0.20721397196E+04  0.25500000000E-02 0. -1.
         -2   -1    0    0    0  501 -0.00000000000E+00 -0.00000000000E+00 -0.70486439423E+03  0.70486439423E+03  0.25500000000E-02 0.  1.
    8880022    1    1    2    0    0  0.95890089044E+03  0.24161949681E+03 -0.95007368900E+02  0.10051313109E+04  0.15294330000E+03 0.  0.
    8880022    1    1    2    0    0 -0.95890089044E+03 -0.24161949681E+03  0.14622826943E+04  0.17718728030E+04  0.15294330000E+03 0.  0.
<mgrwt>
<rscale>  0 0.10006311E+04</rscale>
<asrwt>0</asrwt>
<pdfrwt beam="1">  1        2 0.31879073E+00 0.10006311E+04</pdfrwt>
<pdfrwt beam="2">  1       -2 0.10844068E+00 0.10006311E+04</pdfrwt>
<totfact> 0.41453637E+00</totfact>
</mgrwt>
</event>
<event>
 4    1  0.1726795E-008  0.1027124E+04  0.7818608E-02  0.9279286E-01
         -2   -1    0    0    0  501 -0.00000000000E+00  0.00000000000E+00  0.70347841660E+03  0.70347841661E+03  0.25500000000E-02 0.  1.
          2   -1    0    0  501    0  0.00000000000E+00 -0.00000000000E+00 -0.18863297062E+04  0.18863297062E+04  0.25500000000E-02 0. -1.
    8880022    1    1    2    0    0 -0.48284257252E+03  0.89356286589E+03 -0.51591586270E+01  0.10271367071E+04  0.15294330000E+03 0.  0.
    8880022    1    1    2    0    0  0.48284257252E+03 -0.89356286589E+03 -0.11776921310E+04  0.15626714157E+04  0.15294330000E+03 0.  0.
<mgrwt>
<rscale>  0 0.10271238E+04</rscale>
<asrwt>0</asrwt>
<pdfrwt beam="1">  1        2 0.29020457E+00 0.10271238E+04</pdfrwt>
<pdfrwt beam="2">  1       -2 0.10822745E+00 0.10271238E+04</pdfrwt>
<totfact> 0.52556645E+00</totfact>
</mgrwt>
</event>
<event>
 4    1  0.1726795E-008  0.9894842E+03  0.7818608E-02  0.9320154E-01
          2   -1    0    0  501    0  0.00000000000E+00  0.00000000000E+00  0.20509708142E+04  0.20509708142E+04  0.25500000000E-02 0. -1.
         -2   -1    0    0    0  501 -0.00000000000E+00 -0.00000000000E+00 -0.14026859381E+04  0.14026859381E+04  0.25500000000E-02 0.  1.
    8880022    1    1    2    0    0 -0.44096313061E+03 -0.87249005012E+03 -0.10783908110E+04  0.14635592794E+04  0.15294330000E+03 0.  0.
    8880022    1    1    2    0    0  0.44096313061E+03  0.87249005012E+03  0.17266756872E+04  0.19900974729E+04  0.15294330000E+03 0.  0.
<mgrwt>
<rscale>  0 0.98948422E+03</rscale>
<asrwt>0</asrwt>
<pdfrwt beam="1">  1        2 0.31553397E+00 0.98948422E+03</pdfrwt>
<pdfrwt beam="2">  1       -2 0.21579784E+00 0.98948422E+03</pdfrwt>
<totfact> 0.65920817E-01</totfact>
</mgrwt>
</event>
<event>
 4    1  0.1726795E-008  0.1048570E+04  0.7818608E-02  0.9256822E-01
          2   -1    0    0  501    0  0.00000000000E+00  0.00000000000E+00  0.27927519114E+04  0.27927519114E+04  0.25500000000E-02 0. -1.
         -2   -1    0    0    0  501 -0.00000000000E+00 -0.00000000000E+00 -0.56938230774E+03  0.56938230774E+03  0.25500000000E-02 0.  1.
    8880022    1    1    2    0    0 -0.55994643487E+03  0.87325118810E+03  0.17789261645E+03  0.10635530468E+04  0.15294330000E+03 0.  0.
    8880022    1    1    2    0    0  0.55994643487E+03 -0.87325118810E+03  0.20454769872E+04  0.22985811723E+04  0.15294330000E+03 0.  0.
<mgrwt>
<rscale>  0 0.10485701E+04</rscale>
<asrwt>0</asrwt>
<pdfrwt beam="1">  1        2 0.42965415E+00 0.10485701E+04</pdfrwt>
<pdfrwt beam="2">  1       -2 0.87597276E-01 0.10485701E+04</pdfrwt>
<totfact> 0.26498596E+00</totfact>
</mgrwt>
</event>
<event>
 4    1  0.1726795E-008  0.5822579E+03  0.7818608E-02  0.9942915E-01
         -2   -1    0    0    0  501 -0.00000000000E+00  0.00000000000E+00  0.30936390662E+03  0.30936390663E+03  0.25500000000E-02 0.  1.
          2   -1    0    0  501    0  0.00000000000E+00 -0.00000000000E+00 -0.15572117576E+04  0.15572117576E+04  0.25500000000E-02 0. -1.
    8880022    1    1    2    0    0  0.51403979149E+03  0.22670609061E+03 -0.11593910574E+03  0.59368854461E+03  0.15294330000E+03 0.  0.
    8880022    1    1    2    0    0 -0.51403979149E+03 -0.22670609061E+03 -0.11319087452E+04  0.12728871196E+04  0.15294330000E+03 0.  0.
<mgrwt>
<rscale>  0 0.58225786E+03</rscale>
<asrwt>0</asrwt>
<pdfrwt beam="1">  1        2 0.23957103E+00 0.58225786E+03</pdfrwt>
<pdfrwt beam="2">  1       -2 0.47594448E-01 0.58225786E+03</pdfrwt>
<totfact> 0.51442981E+01</totfact>
</mgrwt>
</event>
<event>
 4    1  0.1726795E-008  0.1145369E+04  0.7818608E-02  0.9162066E-01
          2   -1    0    0  501    0  0.00000000000E+00  0.00000000000E+00  0.95938534989E+03  0.95938534990E+03  0.25500000000E-02 0. -1.
         -2   -1    0    0    0  501 -0.00000000000E+00 -0.00000000000E+00 -0.14251773664E+04  0.14251773664E+04  0.25500000000E-02 0.  1.
    8880022    1    1    2    0    0 -0.68121819708E+03  0.90797591161E+03 -0.47294354625E+03  0.12391713921E+04  0.15294330000E+03 0.  0.
    8880022    1    1    2    0    0  0.68121819708E+03 -0.90797591161E+03  0.71515297556E+01  0.11453913242E+04  0.15294330000E+03 0.  0.
<mgrwt>
<rscale>  0 0.11453690E+04</rscale>
<asrwt>0</asrwt>
<pdfrwt beam="1">  1        2 0.14759775E+00 0.11453690E+04</pdfrwt>
<pdfrwt beam="2">  1       -2 0.21925806E+00 0.11453690E+04</pdfrwt>
<totfact> 0.26166752E+00</totfact>
</mgrwt>
</event>
<event>
 4    1  0.1726795E-008  0.9457652E+03  0.7818608E-02  0.9370114E-01
         -2   -1    0    0    0  501 -0.00000000000E+00  0.00000000000E+00  0.11201626828E+04  0.11201626828E+04  0.25500000000E-02 0.  1.
          2   -1    0    0  501    0  0.00000000000E+00 -0.00000000000E+00 -0.11397438155E+04  0.11397438155E+04  0.25500000000E-02 0. -1.
    8880022    1    1    2    0    0  0.18499537726E+03 -0.91479878797E+03  0.60847751687E+03  0.11245962180E+04  0.15294330000E+03 0.  0.
    8880022    1    1    2    0    0 -0.18499537726E+03  0.91479878797E+03 -0.62805864957E+03  0.11353102802E+04  0.15294330000E+03 0.  0.
<mgrwt>
<rscale>  0 0.94576517E+03</rscale>
<asrwt>0</asrwt>
<pdfrwt beam="1">  1        2 0.17534520E+00 0.94576517E+03</pdfrwt>
<pdfrwt beam="2">  1       -2 0.17233272E+00 0.94576517E+03</pdfrwt>
<totfact> 0.42136391E+00</totfact>
</mgrwt>
</event>
<event>
 4    1  0.1726795E-008  0.1123476E+04  0.7818608E-02  0.9182608E-01
         -2   -1    0    0    0  501 -0.00000000000E+00  0.00000000000E+00  0.15337082467E+04  0.15337082467E+04  0.25500000000E-02 0.  1.
          2   -1    0    0  501    0  0.00000000000E+00 -0.00000000000E+00 -0.34444797154E+04  0.34444797154E+04  0.25500000000E-02 0. -1.
    8880022    1    1    2    0    0 -0.79655419104E+03  0.77737225461E+03 -0.31268621046E+04  0.33225689573E+04  0.15294330000E+03 0.  0.
    8880022    1    1    2    0    0  0.79655419104E+03 -0.77737225461E+03  0.12160906359E+04  0.16556190049E+04  0.15294330000E+03 0.  0.
<mgrwt>
<rscale>  0 0.11234758E+04</rscale>
<asrwt>0</asrwt>
<pdfrwt beam="1">  1        2 0.52991995E+00 0.11234758E+04</pdfrwt>
<pdfrwt beam="2">  1       -2 0.23595512E+00 0.11234758E+04</pdfrwt>
<totfact> 0.70220393E-02</totfact>
</mgrwt>
</event>
<event>
 4    1  0.1755711E-008  0.9178227E+03  0.7818608E-02  0.9403572E-01
         -2   -1    0    0    0  501 -0.00000000000E+00  0.00000000000E+00  0.10796480179E+04  0.10796480179E+04  0.25500000000E-02 0.  1.
          2   -1    0    0  501    0  0.00000000000E+00 -0.00000000000E+00 -0.20440543291E+04  0.20440543291E+04  0.25500000000E-02 0. -1.
    8880022    1    1    2    0    0 -0.16114490759E+03 -0.89052743065E+03  0.74589438354E+03  0.11826905218E+04  0.15294330000E+03 0.  0.
    8880022    1    1    2    0    0  0.16114490759E+03  0.89052743065E+03 -0.17103006947E+04  0.19410118252E+04  0.15294330000E+03 0.  0.
<mgrwt>
<rscale>  0 0.91782266E+03</rscale>
<asrwt>0</asrwt>
<pdfrwt beam="1">  1        2 0.31446990E+00 0.91782266E+03</pdfrwt>
<pdfrwt beam="2">  1       -2 0.16609969E+00 0.91782266E+03</pdfrwt>
<totfact> 0.14504237E+00</totfact>
</mgrwt>
</event>
<event>
 4    1  0.1726795E-008  0.1677228E+04  0.7818608E-02  0.8774459E-01
         -2   -1    0    0    0  501 -0.00000000000E+00  0.00000000000E+00  0.18125763174E+04  0.18125763174E+04  0.25500000000E-02 0.  1.
          2   -1    0    0  501    0  0.00000000000E+00 -0.00000000000E+00 -0.24474146507E+04  0.24474146507E+04  0.25500000000E-02 0. -1.
    8880022    1    1    2    0    0  0.12414790488E+04  0.11173330965E+04  0.97094940524E+03  0.19379984205E+04  0.15294330000E+03 0.  0.
    8880022    1    1    2    0    0 -0.12414790488E+04 -0.11173330965E+04 -0.16057877385E+04  0.23219925476E+04  0.15294330000E+03 0.  0.
<mgrwt>
<rscale>  0 0.16772284E+04</rscale>
<asrwt>0</asrwt>
<pdfrwt beam="1">  1        2 0.37652533E+00 0.16772284E+04</pdfrwt>
<pdfrwt beam="2">  1       -2 0.27885790E+00 0.16772284E+04</pdfrwt>
<totfact> 0.14669077E-01</totfact>
</mgrwt>
</event>
<event>
 4    1  0.1726795E-008  0.7412601E+03  0.7818608E-02  0.9649162E-01
          2   -1    0    0  501    0  0.00000000000E+00  0.00000000000E+00  0.18645789746E+04  0.18645789746E+04  0.25500000000E-02 0. -1.
         -2   -1    0    0    0  501 -0.00000000000E+00 -0.00000000000E+00 -0.12809950662E+04  0.12809950662E+04  0.25500000000E-02 0.  1.
    8880022    1    1    2    0    0  0.44559971005E+03  0.57228996336E+03 -0.10882826191E+04  0.13167481216E+04  0.15294330000E+03 0.  0.
    8880022    1    1    2    0    0 -0.44559971005E+03 -0.57228996336E+03  0.16718665275E+04  0.18288259191E+04  0.15294330000E+03 0.  0.
<mgrwt>
<rscale>  0 0.74126011E+03</rscale>
<asrwt>0</asrwt>
<pdfrwt beam="1">  1        2 0.28685830E+00 0.74126011E+03</pdfrwt>
<pdfrwt beam="2">  1       -2 0.19707616E+00 0.74126011E+03</pdfrwt>
<totfact> 0.11508151E+00</totfact>
</mgrwt>
</event>
<event>
 4    1  0.1726795E-008  0.1057797E+04  0.7818608E-02  0.9247331E-01
          2   -1    0    0  501    0  0.00000000000E+00  0.00000000000E+00  0.14153710983E+04  0.14153710983E+04  0.25500000000E-02 0. -1.
         -2   -1    0    0    0  501 -0.00000000000E+00 -0.00000000000E+00 -0.84042534999E+03  0.84042535000E+03  0.25500000000E-02 0.  1.
    8880022    1    1    2    0    0  0.10321901802E+04 -0.17356884271E+03  0.12731466597E+02  0.10578735531E+04  0.15294330000E+03 0.  0.
    8880022    1    1    2    0    0 -0.10321901802E+04  0.17356884271E+03  0.56221428170E+03  0.11979228952E+04  0.15294330000E+03 0.  0.
<mgrwt>
<rscale>  0 0.10577969E+04</rscale>
<asrwt>0</asrwt>
<pdfrwt beam="1">  1        2 0.21774940E+00 0.10577969E+04</pdfrwt>
<pdfrwt beam="2">  1       -2 0.12929621E+00 0.10577969E+04</pdfrwt>
<totfact> 0.61631717E+00</totfact>
</mgrwt>
</event>
<event>
 4    1  0.1726795E-008  0.8652561E+03  0.7818608E-02  0.9470086E-01
         -2   -1    0    0    0  501 -0.00000000000E+00  0.00000000000E+00  0.71411906208E+03  0.71411906209E+03  0.25500000000E-02 0.  1.
          2   -1    0    0  501    0  0.00000000000E+00 -0.00000000000E+00 -0.15372009406E+04  0.15372009406E+04  0.25500000000E-02 0. -1.
    8880022    1    1    2    0    0 -0.76423190786E+03  0.37580056071E+03  0.22322969395E+03  0.89358805929E+03  0.15294330000E+03 0.  0.
    8880022    1    1    2    0    0  0.76423190786E+03 -0.37580056071E+03 -0.10463115725E+04  0.13577319434E+04  0.15294330000E+03 0.  0.
<mgrwt>
<rscale>  0 0.86525610E+03</rscale>
<asrwt>0</asrwt>
<pdfrwt beam="1">  1        2 0.23649245E+00 0.86525610E+03</pdfrwt>
<pdfrwt beam="2">  1       -2 0.10986447E+00 0.86525610E+03</pdfrwt>
<totfact> 0.80516717E+00</totfact>
</mgrwt>
</event>
<event>
 4    1  0.1726795E-008  0.6537626E+03  0.7818608E-02  0.9799744E-01
          2   -1    0    0  501    0  0.00000000000E+00  0.00000000000E+00  0.74172762840E+03  0.74172762840E+03  0.25500000000E-02 0. -1.
         -2   -1    0    0    0  501 -0.00000000000E+00 -0.00000000000E+00 -0.13279246133E+04  0.13279246133E+04  0.25500000000E-02 0.  1.
    8880022    1    1    2    0    0  0.61518646186E+03  0.15987339135E+03  0.48547830860E+03  0.81430628467E+03  0.15294330000E+03 0.  0.
    8880022    1    1    2    0    0 -0.61518646186E+03 -0.15987339135E+03 -0.10716752935E+04  0.12553459571E+04  0.15294330000E+03 0.  0.
<mgrwt>
<rscale>  0 0.65376260E+03</rscale>
<asrwt>0</asrwt>
<pdfrwt beam="1">  1        2 0.11411194E+00 0.65376260E+03</pdfrwt>
<pdfrwt beam="2">  1       -2 0.20429609E+00 0.65376260E+03</pdfrwt>
<totfact> 0.49138463E+00</totfact>
</mgrwt>
</event>
<event>
 4    1  0.1726795E-008  0.4139171E+03  0.7818608E-02  0.1039064E+00
          2   -1    0    0  501    0  0.00000000000E+00  0.00000000000E+00  0.39644700868E+03  0.39644700869E+03  0.25500000000E-02 0. -1.
         -2   -1    0    0    0  501 -0.00000000000E+00 -0.00000000000E+00 -0.49813881341E+03  0.49813881342E+03  0.25500000000E-02 0.  1.
    8880022    1    1    2    0    0  0.37621116586E+03  0.80005623821E+02  0.11194441909E+03  0.42878776468E+03  0.15294330000E+03 0.  0.
    8880022    1    1    2    0    0 -0.37621116586E+03 -0.80005623821E+02 -0.21363622382E+03  0.46579805743E+03  0.15294330000E+03 0.  0.
<mgrwt>
<rscale>  0 0.41391713E+03</rscale>
<asrwt>0</asrwt>
<pdfrwt beam="1">  1        2 0.60991847E-01 0.41391713E+03</pdfrwt>
<pdfrwt beam="2">  1       -2 0.76636741E-01 0.41391713E+03</pdfrwt>
<totfact> 0.12588837E+02</totfact>
</mgrwt>
</event>
<event>
 4    1  0.1726795E-008  0.1402167E+04  0.7818608E-02  0.8952251E-01
          2   -1    0    0  501    0  0.00000000000E+00  0.00000000000E+00  0.33517881630E+04  0.33517881630E+04  0.25500000000E-02 0. -1.
         -2   -1    0    0    0  501 -0.00000000000E+00 -0.00000000000E+00 -0.11668247605E+04  0.11668247605E+04  0.25500000000E-02 0.  1.
    8880022    1    1    2    0    0 -0.10164649572E+04  0.95366649115E+03 -0.50075430611E+03  0.14889013781E+04  0.15294330000E+03 0.  0.
    8880022    1    1    2    0    0  0.10164649572E+04 -0.95366649115E+03  0.26857177086E+04  0.30297115455E+04  0.15294330000E+03 0.  0.
<mgrwt>
<rscale>  0 0.14021671E+04</rscale>
<asrwt>0</asrwt>
<pdfrwt beam="1">  1        2 0.51565972E+00 0.14021671E+04</pdfrwt>
<pdfrwt beam="2">  1       -2 0.17951150E+00 0.14021671E+04</pdfrwt>
<totfact> 0.18042283E-01</totfact>
</mgrwt>
</event>
<event>
 4    1  0.1726795E-008  0.4921037E+03  0.7818608E-02  0.1015861E+00
          2   -1    0    0  501    0  0.00000000000E+00  0.00000000000E+00  0.25376034702E+04  0.25376034702E+04  0.25500000000E-02 0. -1.
         -2   -1    0    0    0  501 -0.00000000000E+00 -0.00000000000E+00 -0.96660793722E+03  0.96660793722E+03  0.25500000000E-02 0.  1.
    8880022    1    1    2    0    0 -0.44792425519E+03 -0.13467834012E+03 -0.87787010551E+03  0.10063905648E+04  0.15294330000E+03 0.  0.
    8880022    1    1    2    0    0  0.44792425519E+03  0.13467834012E+03  0.24488656385E+04  0.24978208427E+04  0.15294330000E+03 0.  0.
<mgrwt>
<rscale>  0 0.49210370E+03</rscale>
<asrwt>0</asrwt>
<pdfrwt beam="1">  1        2 0.39040054E+00 0.49210370E+03</pdfrwt>
<pdfrwt beam="2">  1       -2 0.14870891E+00 0.49210370E+03</pdfrwt>
<totfact> 0.11445878E+00</totfact>
</mgrwt>
</event>
<event>
 4    1  0.1726795E-008  0.1137434E+04  0.7818608E-02  0.9169455E-01
          2   -1    0    0  501    0  0.00000000000E+00  0.00000000000E+00  0.34108348971E+04  0.34108348971E+04  0.25500000000E-02 0. -1.
         -2   -1    0    0    0  501 -0.00000000000E+00 -0.00000000000E+00 -0.64358188730E+03  0.64358188731E+03  0.25500000000E-02 0.  1.
    8880022    1    1    2    0    0  0.21032852807E+03  0.11073059613E+04  0.84582715512E+02  0.11405746229E+04  0.15294330000E+03 0.  0.
    8880022    1    1    2    0    0 -0.21032852807E+03 -0.11073059613E+04  0.26826702943E+04  0.29138421616E+04  0.15294330000E+03 0.  0.
<mgrwt>
<rscale>  0 0.11374341E+04</rscale>
<asrwt>0</asrwt>
<pdfrwt beam="1">  1        2 0.52474384E+00 0.11374341E+04</pdfrwt>
<pdfrwt beam="2">  1       -2 0.99012597E-01 0.11374341E+04</pdfrwt>
<totfact> 0.79891099E-01</totfact>
</mgrwt>
</event>
<event>
 4    1  0.1726795E-008  0.1015180E+04  0.7818608E-02  0.9292050E-01
          2   -1    0    0  501    0  0.00000000000E+00  0.00000000000E+00  0.42269866463E+04  0.42269866463E+04  0.25500000000E-02 0. -1.
         -2   -1    0    0    0  501 -0.00000000000E+00 -0.00000000000E+00 -0.31727862301E+03  0.31727862302E+03  0.25500000000E-02 0.  1.
    8880022    1    1    2    0    0  0.89361932931E+03  0.45677568790E+03  0.30481997823E+04  0.32128045537E+04  0.15294330000E+03 0.  0.
    8880022    1    1    2    0    0 -0.89361932931E+03 -0.45677568790E+03  0.86150824099E+03  0.13314607156E+04  0.15294330000E+03 0.  0.
<mgrwt>
<rscale>  0 0.10151804E+04</rscale>
<asrwt>0</asrwt>
<pdfrwt beam="1">  1        2 0.65030562E+00 0.10151804E+04</pdfrwt>
<pdfrwt beam="2">  1       -2 0.48812097E-01 0.10151804E+04</pdfrwt>
<totfact> 0.92880218E-01</totfact>
</mgrwt>
</event>
<event>
 4    1  0.1726795E-008  0.5492903E+03  0.7818608E-02  0.1001658E+00
          2   -1    0    0  501    0  0.00000000000E+00  0.00000000000E+00  0.13976306486E+04  0.13976306486E+04  0.25500000000E-02 0. -1.
         -2   -1    0    0    0  501 -0.00000000000E+00 -0.00000000000E+00 -0.36662166631E+03  0.36662166632E+03  0.25500000000E-02 0.  1.
    8880022    1    1    2    0    0 -0.50772358194E+03 -0.14333514590E+03  0.10811429943E+04  0.12126788638E+04  0.15294330000E+03 0.  0.
    8880022    1    1    2    0    0  0.50772358194E+03  0.14333514590E+03 -0.50134012036E+02  0.55157345103E+03  0.15294330000E+03 0.  0.
<mgrwt>
<rscale>  0 0.54929032E+03</rscale>
<asrwt>0</asrwt>
<pdfrwt beam="1">  1        2 0.21502010E+00 0.54929032E+03</pdfrwt>
<pdfrwt beam="2">  1       -2 0.56403334E-01 0.54929032E+03</pdfrwt>
<totfact> 0.44779626E+01</totfact>
</mgrwt>
</event>
<event>
 4    1  0.1726795E-008  0.1212715E+04  0.7818608E-02  0.9101799E-01
          2   -1    0    0  501    0  0.00000000000E+00  0.00000000000E+00  0.22169136873E+04  0.22169136873E+04  0.25500000000E-02 0. -1.
         -2   -1    0    0    0  501 -0.00000000000E+00 -0.00000000000E+00 -0.13877151635E+04  0.13877151635E+04  0.25500000000E-02 0.  1.
    8880022    1    1    2    0    0 -0.69326712777E+03 -0.98319264757E+03  0.17167076233E+04  0.21018477132E+04  0.15294330000E+03 0.  0.
    8880022    1    1    2    0    0  0.69326712777E+03  0.98319264757E+03 -0.88750909950E+03  0.15027811376E+04  0.15294330000E+03 0.  0.
<mgrwt>
<rscale>  0 0.12127154E+04</rscale>
<asrwt>0</asrwt>
<pdfrwt beam="1">  1        2 0.34106364E+00 0.12127154E+04</pdfrwt>
<pdfrwt beam="2">  1       -2 0.21349464E+00 0.12127154E+04</pdfrwt>
<totfact> 0.53358345E-01</totfact>
</mgrwt>
</event>
<event>
 4    1  0.1726795E-008  0.1210213E+04  0.7818608E-02  0.9103964E-01
         -2   -1    0    0    0  501 -0.00000000000E+00  0.00000000000E+00  0.91772368370E+03  0.91772368370E+03  0.25500000000E-02 0.  1.
          2   -1    0    0  501    0  0.00000000000E+00 -0.00000000000E+00 -0.26629408949E+04  0.26629408949E+04  0.25500000000E-02 0. -1.
    8880022    1    1    2    0    0 -0.62941805516E+03  0.10222804416E+04 -0.20058927092E+04  0.23426953714E+04  0.15294330000E+03 0.  0.
    8880022    1    1    2    0    0  0.62941805516E+03 -0.10222804416E+04  0.26067549805E+03  0.12379692071E+04  0.15294330000E+03 0.  1.
<mgrwt>
<rscale>  0 0.12102132E+04</rscale>
<asrwt>0</asrwt>
<pdfrwt beam="1">  1        2 0.40968321E+00 0.12102132E+04</pdfrwt>
<pdfrwt beam="2">  1       -2 0.14118826E+00 0.12102132E+04</pdfrwt>
<totfact> 0.96116150E-01</totfact>
</mgrwt>
</event>
<event>
 4    1  0.1726795E-008  0.1117962E+04  0.7818608E-02  0.9187859E-01
          2   -1    0    0  501    0  0.00000000000E+00  0.00000000000E+00  0.26141759569E+04  0.26141759569E+04  0.25500000000E-02 0. -1.
         -2   -1    0    0    0  501 -0.00000000000E+00 -0.00000000000E+00 -0.10573466675E+04  0.10573466675E+04  0.25500000000E-02 0.  1.
    8880022    1    1    2    0    0  0.89478216846E+03  0.65254317371E+03 -0.58033367249E+03  0.12596136499E+04  0.15294330000E+03 0.  0.
    8880022    1    1    2    0    0 -0.89478216846E+03 -0.65254317371E+03  0.21371629619E+04  0.24119089745E+04  0.15294330000E+03 0.  0.
<mgrwt>
<rscale>  0 0.11179622E+04</rscale>
<asrwt>0</asrwt>
<pdfrwt beam="1">  1        2 0.40218092E+00 0.11179622E+04</pdfrwt>
<pdfrwt beam="2">  1       -2 0.16266872E+00 0.11179622E+04</pdfrwt>
<totfact> 0.71130931E-01</totfact>
</mgrwt>
</event>
<event>
 4    1  0.1726795E-008  0.1863897E+04  0.7818608E-02  0.8673039E-01
         -2   -1    0    0    0  501 -0.00000000000E+00  0.00000000000E+00  0.17453896140E+04  0.17453896140E+04  0.25500000000E-02 0.  1.
          2   -1    0    0  501    0  0.00000000000E+00 -0.00000000000E+00 -0.43750723431E+04  0.43750723431E+04  0.25500000000E-02 0. -1.
    8880022    1    1    2    0    0  0.18520406098E+04 -0.14375277680E+03  0.94444552976E+03  0.20895186749E+04  0.15294330000E+03 0.  0.
    8880022    1    1    2    0    0 -0.18520406098E+04  0.14375277680E+03 -0.35741282589E+04  0.40309432823E+04  0.15294330000E+03 0.  0.
<mgrwt>
<rscale>  0 0.18638967E+04</rscale>
<asrwt>0</asrwt>
<pdfrwt beam="1">  1        2 0.67308805E+00 0.18638967E+04</pdfrwt>
<pdfrwt beam="2">  1       -2 0.26852148E+00 0.18638967E+04</pdfrwt>
<totfact> 0.72752721E-03</totfact>
</mgrwt>
</event>
<event>
 4    1  0.1726795E-008  0.3945200E+03  0.7818608E-02  0.1045694E+00
          2   -1    0    0  501    0  0.00000000000E+00  0.00000000000E+00  0.65717754161E+03  0.65717754161E+03  0.25500000000E-02 0. -1.
         -2   -1    0    0    0  501 -0.00000000000E+00 -0.00000000000E+00 -0.34532869757E+03  0.34532869758E+03  0.25500000000E-02 0.  1.
    8880022    1    1    2    0    0 -0.27325417807E+03 -0.23997186853E+03  0.43687685354E+03  0.58864877618E+03  0.15294330000E+03 0. -1.
    8880022    1    1    2    0    0  0.27325417807E+03  0.23997186853E+03 -0.12502800951E+03  0.41385746302E+03  0.15294330000E+03 0.  0.
<mgrwt>
<rscale>  0 0.39451996E+03</rscale>
<asrwt>0</asrwt>
<pdfrwt beam="1">  1        2 0.10110424E+00 0.39451996E+03</pdfrwt>
<pdfrwt beam="2">  1       -2 0.53127493E-01 0.39451996E+03</pdfrwt>
<totfact> 0.15343732E+02</totfact>
</mgrwt>
</event>
<event>
 4    1  0.1726795E-008  0.1278355E+04  0.7818608E-02  0.9046908E-01
          2   -1    0    0  501    0  0.00000000000E+00  0.00000000000E+00  0.18492948260E+04  0.18492948260E+04  0.25500000000E-02 0. -1.
         -2   -1    0    0    0  501 -0.00000000000E+00 -0.00000000000E+00 -0.95845509545E+03  0.95845509545E+03  0.25500000000E-02 0.  1.
    8880022    1    1    2    0    0  0.20453541704E+03 -0.12525834703E+04  0.83753193811E+03  0.15282838372E+04  0.15294330000E+03 0.  0.
    8880022    1    1    2    0    0 -0.20453541704E+03  0.12525834703E+04  0.53307792411E+02  0.12794660842E+04  0.15294330000E+03 0.  0.
<mgrwt>
<rscale>  0 0.12783551E+04</rscale>
<asrwt>0</asrwt>
<pdfrwt beam="1">  1        2 0.28450690E+00 0.12783551E+04</pdfrwt>
<pdfrwt beam="2">  1       -2 0.14745463E+00 0.12783551E+04</pdfrwt>
<totfact> 0.24508681E+00</totfact>
</mgrwt>
</event>
<event>
 4    1  0.3079989E-008  0.1470668E+04  0.7818608E-02  0.8904196E-01
         -2   -1    0    0    0  501 -0.00000000000E+00  0.00000000000E+00  0.17861302560E+04  0.17861302560E+04  0.25500000000E-02 0.  1.
          2   -1    0    0  501    0  0.00000000000E+00 -0.00000000000E+00 -0.21747759904E+04  0.21747759905E+04  0.25500000000E-02 0. -1.
    8880022    1    1    2    0    0 -0.64374662942E+03  0.13134161401E+04  0.11241253113E+04  0.18510864508E+04  0.15294330000E+03 0.  0.
    8880022    1    1    2    0    0  0.64374662942E+03 -0.13134161401E+04 -0.15127710458E+04  0.21098197956E+04  0.15294330000E+03 0.  0.
<mgrwt>
<rscale>  0 0.14706676E+04</rscale>
<asrwt>0</asrwt>
<pdfrwt beam="1">  1        2 0.33458092E+00 0.14706676E+04</pdfrwt>
<pdfrwt beam="2">  1       -2 0.27478927E+00 0.14706676E+04</pdfrwt>
<totfact> 0.22741042E-01</totfact>
</mgrwt>
</event>
<event>
 4    1  0.1726795E-008  0.2222275E+03  0.7818608E-02  0.1132233E+00
          2   -1    0    0  501    0  0.00000000000E+00  0.00000000000E+00  0.68745960248E+03  0.68745960248E+03  0.25500000000E-02 0. -1.
         -2   -1    0    0    0  501 -0.00000000000E+00 -0.00000000000E+00 -0.13274982529E+04  0.13274982529E+04  0.25500000000E-02 0.  1.
    8880022    1    1    2    0    0  0.15466650651E+03  0.45515657998E+02 -0.12998594803E+04  0.13187189712E+04  0.15294330000E+03 0.  0.
    8880022    1    1    2    0    0 -0.15466650651E+03 -0.45515657998E+02  0.65982082988E+03  0.69623888423E+03  0.15294330000E+03 0.  0.
<mgrwt>
<rscale>  0 0.22222749E+03</rscale>
<asrwt>0</asrwt>
<pdfrwt beam="1">  1        2 0.10576302E+00 0.22222749E+03</pdfrwt>
<pdfrwt beam="2">  1       -2 0.20423050E+00 0.22222749E+03</pdfrwt>
<totfact> 0.60155758E+00</totfact>
</mgrwt>
</event>
<event>
 4    1  0.1726795E-008  0.8315285E+03  0.7818608E-02  0.9515470E-01
         -2   -1    0    0    0  501 -0.00000000000E+00  0.00000000000E+00  0.49616062204E+03  0.49616062205E+03  0.25500000000E-02 0.  1.
          2   -1    0    0  501    0  0.00000000000E+00 -0.00000000000E+00 -0.17310985410E+04  0.17310985410E+04  0.25500000000E-02 0. -1.
    8880022    1    1    2    0    0  0.64040709507E+03  0.50786493438E+03 -0.12573697517E+03  0.84098125956E+03  0.15294330000E+03 0.  0.
    8880022    1    1    2    0    0 -0.64040709507E+03 -0.50786493438E+03 -0.11092009438E+04  0.13862779035E+04  0.15294330000E+03 0.  0.
<mgrwt>
<rscale>  0 0.83152853E+03</rscale>
<asrwt>0</asrwt>
<pdfrwt beam="1">  1        2 0.26632285E+00 0.83152853E+03</pdfrwt>
<pdfrwt beam="2">  1       -2 0.76332404E-01 0.83152853E+03</pdfrwt>
<totfact> 0.14732421E+01</totfact>
</mgrwt>
</event>
<event>
 4    1  0.1726795E-008  0.1055880E+04  0.7818608E-02  0.9249295E-01
         -2   -1    0    0    0  501 -0.00000000000E+00  0.00000000000E+00  0.10691201790E+04  0.10691201790E+04  0.25500000000E-02 0.  1.
          2   -1    0    0  501    0  0.00000000000E+00 -0.00000000000E+00 -0.15225391562E+04  0.15225391562E+04  0.25500000000E-02 0. -1.
    8880022    1    1    2    0    0 -0.86291354642E+03 -0.58895720497E+03  0.50067624972E+03  0.11685712378E+04  0.15294330000E+03 0.  0.
    8880022    1    1    2    0    0  0.86291354642E+03  0.58895720497E+03 -0.95409522686E+03  0.14230880973E+04  0.15294330000E+03 0.  0.
<mgrwt>
<rscale>  0 0.10558797E+04</rscale>
<asrwt>0</asrwt>
<pdfrwt beam="1">  1        2 0.23423679E+00 0.10558797E+04</pdfrwt>
<pdfrwt beam="2">  1       -2 0.16448003E+00 0.10558797E+04</pdfrwt>
<totfact> 0.28390528E+00</totfact>
</mgrwt>
</event>
<event>
 4    1  0.1726795E-008  0.7332798E+03  0.7818608E-02  0.9661953E-01
          2   -1    0    0  501    0  0.00000000000E+00  0.00000000000E+00  0.67189974806E+03  0.67189974807E+03  0.25500000000E-02 0. -1.
         -2   -1    0    0    0  501 -0.00000000000E+00 -0.00000000000E+00 -0.11908892245E+04  0.11908892245E+04  0.25500000000E-02 0.  1.
    8880022    1    1    2    0    0 -0.10099230507E+03 -0.71000572025E+03 -0.79292350533E+03  0.10800124568E+04  0.15294330000E+03 0.  0.
    8880022    1    1    2    0    0  0.10099230507E+03  0.71000572025E+03  0.27393402890E+03  0.78277651579E+03  0.15294330000E+03 0.  0.
<mgrwt>
<rscale>  0 0.73327977E+03</rscale>
<asrwt>0</asrwt>
<pdfrwt beam="1">  1        2 0.10336919E+00 0.73327977E+03</pdfrwt>
<pdfrwt beam="2">  1       -2 0.18321373E+00 0.73327977E+03</pdfrwt>
<totfact> 0.75860885E+00</totfact>
</mgrwt>
</event>
<event>
 4    1  0.1726795E-008  0.2920144E+03  0.7818608E-02  0.1089302E+00
         -2   -1    0    0    0  501 -0.00000000000E+00  0.00000000000E+00  0.11600130330E+03  0.11600130333E+03  0.25500000000E-02 0.  1.
          2   -1    0    0  501    0  0.00000000000E+00 -0.00000000000E+00 -0.18567871008E+04  0.18567871008E+04  0.25500000000E-02 0. -1.
    8880022    1    1    2    0    0  0.14496878304E+03 -0.20215048765E+03 -0.16370577407E+04  0.16628982131E+04  0.15294330000E+03 0.  0.
    8880022    1    1    2    0    0 -0.14496878304E+03  0.20215048765E+03 -0.10372805678E+03  0.30989019103E+03  0.15294330000E+03 0.  1.
<mgrwt>
<rscale>  0 0.29201442E+03</rscale>
<asrwt>0</asrwt>
<pdfrwt beam="1">  1        2 0.28565953E+00 0.29201442E+03</pdfrwt>
<pdfrwt beam="2">  1       -2 0.17846356E-01 0.29201442E+03</pdfrwt>
<totfact> 0.22607218E+02</totfact>
</mgrwt>
</event>
<event>
 4    1  0.1726795E-008  0.5676444E+03  0.7818608E-02  0.9974905E-01
         -2   -1    0    0    0  501 -0.00000000000E+00  0.00000000000E+00  0.11207735874E+04  0.11207735874E+04  0.25500000000E-02 0.  1.
          2   -1    0    0  501    0  0.00000000000E+00 -0.00000000000E+00 -0.41644950087E+03  0.41644950087E+03  0.25500000000E-02 0. -1.
    8880022    1    1    2    0    0  0.37070103334E+03  0.40175771266E+03  0.77986172270E+03  0.96457476400E+03  0.15294330000E+03 0.  1.
    8880022    1    1    2    0    0 -0.37070103334E+03 -0.40175771266E+03 -0.75537636168E+02  0.57264832427E+03  0.15294330000E+03 0.  0.
<mgrwt>
<rscale>  0 0.56764440E+03</rscale>
<asrwt>0</asrwt>
<pdfrwt beam="1">  1        2 0.64069155E-01 0.56764440E+03</pdfrwt>
<pdfrwt beam="2">  1       -2 0.17242670E+00 0.56764440E+03</pdfrwt>
<totfact> 0.16098422E+01</totfact>
</mgrwt>
</event>
<event>
 4    1  0.1726795E-008  0.5999289E+03  0.7818608E-02  0.9905554E-01
          2   -1    0    0  501    0  0.00000000000E+00  0.00000000000E+00  0.27371934443E+04  0.27371934443E+04  0.25500000000E-02 0. -1.
         -2   -1    0    0    0  501 -0.00000000000E+00 -0.00000000000E+00 -0.15518866201E+03  0.15518866203E+03  0.25500000000E-02 0.  1.
    8880022    1    1    2    0    0  0.49049692417E+03  0.30973502571E+03  0.72586520102E+03  0.94169791432E+03  0.15294330000E+03 0.  0.
    8880022    1    1    2    0    0 -0.49049692417E+03 -0.30973502571E+03  0.18561395812E+04  0.19506841920E+04  0.15294330000E+03 0.  0.
<mgrwt>
<rscale>  0 0.59992889E+03</rscale>
<asrwt>0</asrwt>
<pdfrwt beam="1">  1        2 0.42110664E+00 0.59992889E+03</pdfrwt>
<pdfrwt beam="2">  1       -2 0.23875181E-01 0.59992889E+03</pdfrwt>
<totfact> 0.42187997E+01</totfact>
</mgrwt>
</event>
<event>
 4    1  0.1726795E-008  0.2212474E+03  0.7818608E-02  0.1132957E+00
          2   -1    0    0  501    0  0.00000000000E+00  0.00000000000E+00  0.10745791602E+04  0.10745791602E+04  0.25500000000E-02 0. -1.
         -2   -1    0    0    0  501 -0.00000000000E+00 -0.00000000000E+00 -0.30317845329E+03  0.30317845330E+03  0.25500000000E-02 0.  1.
    8880022    1    1    2    0    0 -0.37796715542E+02 -0.15533881310E+03 -0.24932047993E+03  0.33333330660E+03  0.15294330000E+03 0.  1.
    8880022    1    1    2    0    0  0.37796715542E+02  0.15533881310E+03  0.10207211869E+04  0.10444243069E+04  0.15294330000E+03 0.  0.
<mgrwt>
<rscale>  0 0.22124735E+03</rscale>
<asrwt>0</asrwt>
<pdfrwt beam="1">  1        2 0.16531987E+00 0.22124735E+03</pdfrwt>
<pdfrwt beam="2">  1       -2 0.46642839E-01 0.22124735E+03</pdfrwt>
<totfact> 0.10690641E+02</totfact>
</mgrwt>
</event>
<event>
 4    1  0.1726795E-008  0.4353135E+03  0.7818608E-02  0.1032195E+00
          2   -1    0    0  501    0  0.00000000000E+00  0.00000000000E+00  0.11621581446E+04  0.11621581446E+04  0.25500000000E-02 0. -1.
         -2   -1    0    0    0  501 -0.00000000000E+00 -0.00000000000E+00 -0.47323906810E+03  0.47323906811E+03  0.25500000000E-02 0.  1.
    8880022    1    1    2    0    0  0.39724089811E+03  0.91136266973E+02  0.10064647932E+04  0.10965715587E+04  0.15294330000E+03 0.  0.
    8880022    1    1    2    0    0 -0.39724089811E+03 -0.91136266973E+02 -0.31754571668E+03  0.53882565407E+03  0.15294330000E+03 0.  1.
<mgrwt>
<rscale>  0 0.43531345E+03</rscale>
<asrwt>0</asrwt>
<pdfrwt beam="1">  1        2 0.17879356E+00 0.43531345E+03</pdfrwt>
<pdfrwt beam="2">  1       -2 0.72806011E-01 0.43531345E+03</pdfrwt>
<totfact> 0.36094870E+01</totfact>
</mgrwt>
</event>
<event>
 4    1  0.1726795E-008  0.6276651E+03  0.7818608E-02  0.9849616E-01
          2   -1    0    0  501    0  0.00000000000E+00  0.00000000000E+00  0.12956128829E+04  0.12956128829E+04  0.25500000000E-02 0. -1.
         -2   -1    0    0    0  501 -0.00000000000E+00 -0.00000000000E+00 -0.39303681737E+03  0.39303681738E+03  0.25500000000E-02 0.  1.
    8880022    1    1    2    0    0  0.39762790115E+03  0.46093802330E+03  0.85298155211E+03  0.10590283237E+04  0.15294330000E+03 0.  0.
    8880022    1    1    2    0    0 -0.39762790115E+03 -0.46093802330E+03  0.49594513417E+02  0.62962137660E+03  0.15294330000E+03 0.  0.
<mgrwt>
<rscale>  0 0.62766509E+03</rscale>
<asrwt>0</asrwt>
<pdfrwt beam="1">  1        2 0.19932506E+00 0.62766509E+03</pdfrwt>
<pdfrwt beam="2">  1       -2 0.60467202E-01 0.62766509E+03</pdfrwt>
<totfact> 0.43768959E+01</totfact>
</mgrwt>
</event>
<event>
 4    1  0.1726795E-008  0.8644912E+03  0.7818608E-02  0.9471091E-01
          2   -1    0    0  501    0  0.00000000000E+00  0.00000000000E+00  0.23250841877E+04  0.23250841878E+04  0.25500000000E-02 0. -1.
         -2   -1    0    0    0  501 -0.00000000000E+00 -0.00000000000E+00 -0.72730887153E+03  0.72730887153E+03  0.25500000000E-02 0.  1.
    8880022    1    1    2    0    0 -0.65128283891E+03 -0.54752543789E+03  0.19390082423E+04  0.21229927127E+04  0.15294330000E+03 0.  0.
    8880022    1    1    2    0    0  0.65128283891E+03  0.54752543789E+03 -0.34123292609E+03  0.92940034659E+03  0.15294330000E+03 0.  0.
<mgrwt>
<rscale>  0 0.86449123E+03</rscale>
<asrwt>0</asrwt>
<pdfrwt beam="1">  1        2 0.35770525E+00 0.86449123E+03</pdfrwt>
<pdfrwt beam="2">  1       -2 0.11189367E+00 0.86449123E+03</pdfrwt>
<totfact> 0.28340618E+00</totfact>
</mgrwt>
</event>
<event>
 4    1  0.1726795E-008  0.1406910E+04  0.7818608E-02  0.8948832E-01
          2   -1    0    0  501    0  0.00000000000E+00  0.00000000000E+00  0.15064453302E+04  0.15064453302E+04  0.25500000000E-02 0. -1.
         -2   -1    0    0    0  501 -0.00000000000E+00 -0.00000000000E+00 -0.14560608202E+04  0.14560608202E+04  0.25500000000E-02 0.  1.
    8880022    1    1    2    0    0 -0.57732917073E+03  0.12738509840E+04  0.48794597968E+03  0.14891233102E+04  0.15294330000E+03 0.  0.
    8880022    1    1    2    0    0  0.57732917073E+03 -0.12738509840E+04 -0.43756146962E+03  0.14733828401E+04  0.15294330000E+03 0.  0.
<mgrwt>
<rscale>  0 0.14069104E+04</rscale>
<asrwt>0</asrwt>
<pdfrwt beam="1">  1        2 0.23176082E+00 0.14069104E+04</pdfrwt>
<pdfrwt beam="2">  1       -2 0.22400936E+00 0.14069104E+04</pdfrwt>
<totfact> 0.11141749E+00</totfact>
</mgrwt>
</event>
<event>
 4    1  0.1726795E-008  0.1404081E+04  0.7818608E-02  0.8950870E-01
         -2   -1    0    0    0  501 -0.00000000000E+00  0.00000000000E+00  0.97650515749E+03  0.97650515749E+03  0.25500000000E-02 0.  1.
          2   -1    0    0  501    0  0.00000000000E+00 -0.00000000000E+00 -0.24886491053E+04  0.24886491053E+04  0.25500000000E-02 0. -1.
    8880022    1    1    2    0    0  0.12839252017E+04  0.54734620863E+03 -0.33154555175E+01  0.14040849123E+04  0.15294330000E+03 0.  0.
    8880022    1    1    2    0    0 -0.12839252017E+04 -0.54734620863E+03 -0.15088284923E+04  0.20610693506E+04  0.15294330000E+03 0.  0.
<mgrwt>
<rscale>  0 0.14040810E+04</rscale>
<asrwt>0</asrwt>
<pdfrwt beam="1">  1        2 0.38286909E+00 0.14040810E+04</pdfrwt>
<pdfrwt beam="2">  1       -2 0.15023156E+00 0.14040810E+04</pdfrwt>
<totfact> 0.10065161E+00</totfact>
</mgrwt>
</event>
<event>
 4    1  0.1726795E-008  0.9285028E+03  0.7818608E-02  0.9390636E-01
          2   -1    0    0  501    0  0.00000000000E+00  0.00000000000E+00  0.40961644276E+04  0.40961644276E+04  0.25500000000E-02 0. -1.
         -2   -1    0    0    0  501 -0.00000000000E+00 -0.00000000000E+00 -0.50324421472E+03  0.50324421472E+03  0.25500000000E-02 0.  1.
    8880022    1    1    2    0    0 -0.69455194425E+03 -0.59692836346E+03  0.35505401861E+04  0.36699391194E+04  0.15294330000E+03 0.  0.
    8880022    1    1    2    0    0  0.69455194425E+03  0.59692836346E+03  0.42380026846E+02  0.92946952293E+03  0.15294330000E+03 0.  0.
<mgrwt>
<rscale>  0 0.92850284E+03</rscale>
<asrwt>0</asrwt>
<pdfrwt beam="1">  1        2 0.63017917E+00 0.92850284E+03</pdfrwt>
<pdfrwt beam="2">  1       -2 0.77422184E-01 0.92850284E+03</pdfrwt>
<totfact> 0.45489489E-01</totfact>
</mgrwt>
</event>
<event>
 4    1  0.1726795E-008  0.8348901E+03  0.7818608E-02  0.9510844E-01
          2   -1    0    0  501    0  0.00000000000E+00  0.00000000000E+00  0.22713990288E+04  0.22713990288E+04  0.25500000000E-02 0. -1.
         -2   -1    0    0    0  501 -0.00000000000E+00 -0.00000000000E+00 -0.79724954584E+03  0.79724954584E+03  0.25500000000E-02 0.  1.
    8880022    1    1    2    0    0 -0.78525609255E+03  0.23879421158E+03 -0.46624996062E+03  0.95625858697E+03  0.15294330000E+03 0.  0.
    8880022    1    1    2    0    0  0.78525609255E+03 -0.23879421158E+03  0.19403994436E+04  0.21123899877E+04  0.15294330000E+03 0.  0.
<mgrwt>
<rscale>  0 0.83489009E+03</rscale>
<asrwt>0</asrwt>
<pdfrwt beam="1">  1        2 0.34944601E+00 0.83489009E+03</pdfrwt>
<pdfrwt beam="2">  1       -2 0.12265377E+00 0.83489009E+03</pdfrwt>
<totfact> 0.24334139E+00</totfact>
</mgrwt>
</event>
<event>
 4    1  0.1726795E-008  0.7214004E+03  0.7818608E-02  0.9681319E-01
          2   -1    0    0  501    0  0.00000000000E+00  0.00000000000E+00  0.10157190770E+04  0.10157190770E+04  0.25500000000E-02 0. -1.
         -2   -1    0    0    0  501 -0.00000000000E+00 -0.00000000000E+00 -0.64714312715E+03  0.64714312715E+03  0.25500000000E-02 0.  1.
    8880022    1    1    2    0    0  0.45597237822E+03 -0.53769508929E+03 -0.19514624033E+03  0.74732892817E+03  0.15294330000E+03 0.  1.
    8880022    1    1    2    0    0 -0.45597237822E+03  0.53769508929E+03  0.56372219023E+03  0.91553327603E+03  0.15294330000E+03 0.  0.
<mgrwt>
<rscale>  0 0.72140035E+03</rscale>
<asrwt>0</asrwt>
<pdfrwt beam="1">  1        2 0.15626447E+00 0.72140035E+03</pdfrwt>
<pdfrwt beam="2">  1       -2 0.99560481E-01 0.72140035E+03</pdfrwt>
<totfact> 0.20947300E+01</totfact>
</mgrwt>
</event>
<event>
 4    1  0.1726795E-008  0.5596473E+03  0.7818608E-02  0.9992853E-01
         -2   -1    0    0    0  501 -0.00000000000E+00  0.00000000000E+00  0.28229157304E+03  0.28229157305E+03  0.25500000000E-02 0.  1.
          2   -1    0    0  501    0  0.00000000000E+00 -0.00000000000E+00 -0.23598880189E+04  0.23598880189E+04  0.25500000000E-02 0. -1.
    8880022    1    1    2    0    0 -0.23085128312E+03  0.48633443508E+03 -0.20004269125E+04  0.20772368625E+04  0.15294330000E+03 0.  0.
    8880022    1    1    2    0    0  0.23085128312E+03 -0.48633443508E+03 -0.77169533360E+02  0.56494272945E+03  0.15294330000E+03 0.  1.
<mgrwt>
<rscale>  0 0.55964734E+03</rscale>
<asrwt>0</asrwt>
<pdfrwt beam="1">  1        2 0.36305968E+00 0.55964734E+03</pdfrwt>
<pdfrwt beam="2">  1       -2 0.43429474E-01 0.55964734E+03</pdfrwt>
<totfact> 0.22678194E+01</totfact>
</mgrwt>
</event>
<event>
 4    1  0.1726795E-008  0.1384842E+04  0.7818608E-02  0.8964865E-01
          2   -1    0    0  501    0  0.00000000000E+00  0.00000000000E+00  0.25298495928E+04  0.25298495928E+04  0.25500000000E-02 0. -1.
         -2   -1    0    0    0  501 -0.00000000000E+00 -0.00000000000E+00 -0.94667546867E+03  0.94667546868E+03  0.25500000000E-02 0.  1.
    8880022    1    1    2    0    0 -0.13708343946E+04 -0.12331877967E+03  0.15674761967E+04  0.20915945446E+04  0.15294330000E+03 0.  0.
    8880022    1    1    2    0    0  0.13708343946E+04  0.12331877967E+03  0.15697927472E+02  0.13849305169E+04  0.15294330000E+03 0.  0.
<mgrwt>
<rscale>  0 0.13848415E+04</rscale>
<asrwt>0</asrwt>
<pdfrwt beam="1">  1        2 0.38920762E+00 0.13848415E+04</pdfrwt>
<pdfrwt beam="2">  1       -2 0.14564238E+00 0.13848415E+04</pdfrwt>
<totfact> 0.10370191E+00</totfact>
</mgrwt>
</event>
<event>
 4    1  0.1726795E-008  0.8147266E+03  0.7818608E-02  0.9538942E-01
          2   -1    0    0  501    0  0.00000000000E+00  0.00000000000E+00  0.10873742975E+04  0.10873742975E+04  0.25500000000E-02 0. -1.
         -2   -1    0    0    0  501 -0.00000000000E+00 -0.00000000000E+00 -0.97971042048E+03  0.97971042048E+03  0.25500000000E-02 0.  1.
    8880022    1    1    2    0    0  0.33237130857E+03  0.72795407630E+03  0.68835909146E+03  0.10665916350E+04  0.15294330000E+03 0.  0.
    8880022    1    1    2    0    0 -0.33237130857E+03 -0.72795407630E+03 -0.58069521448E+03  0.10004930830E+04  0.15294330000E+03 0.  0.
<mgrwt>
<rscale>  0 0.81472663E+03</rscale>
<asrwt>0</asrwt>
<pdfrwt beam="1">  1        2 0.16728835E+00 0.81472663E+03</pdfrwt>
<pdfrwt beam="2">  1       -2 0.15072468E+00 0.81472663E+03</pdfrwt>
<totfact> 0.66363514E+00</totfact>
</mgrwt>
</event>
<event>
 4    1  0.1726795E-008  0.9228686E+03  0.7818608E-02  0.9397438E-01
          2   -1    0    0  501    0  0.00000000000E+00  0.00000000000E+00  0.17668690452E+04  0.17668690452E+04  0.25500000000E-02 0. -1.
         -2   -1    0    0    0  501 -0.00000000000E+00 -0.00000000000E+00 -0.71227860044E+03  0.71227860045E+03  0.25500000000E-02 0.  1.
    8880022    1    1    2    0    0 -0.84598274096E+03  0.33557113276E+03  0.12320606413E+04  0.15393699555E+04  0.15294330000E+03 0.  0.
    8880022    1    1    2    0    0  0.84598274096E+03 -0.33557113276E+03 -0.17747019656E+03  0.93977769010E+03  0.15294330000E+03 0.  0.
<mgrwt>
<rscale>  0 0.92286859E+03</rscale>
<asrwt>0</asrwt>
<pdfrwt beam="1">  1        2 0.27182600E+00 0.92286859E+03</pdfrwt>
<pdfrwt beam="2">  1       -2 0.10958132E+00 0.92286859E+03</pdfrwt>
<totfact> 0.60067222E+00</totfact>
</mgrwt>
</event>
<event>
 4    1  0.1726795E-008  0.1735186E+03  0.7818608E-02  0.1174227E+00
          2   -1    0    0  501    0  0.00000000000E+00  0.00000000000E+00  0.19536614429E+04  0.19536614429E+04  0.25500000000E-02 0. -1.
         -2   -1    0    0    0  501 -0.00000000000E+00 -0.00000000000E+00 -0.19252345275E+02  0.19252345444E+02  0.25500000000E-02 0.  1.
    8880022    1    1    2    0    0 -0.59191447143E+02 -0.56687035139E+02  0.52659477412E+03  0.55444635134E+03  0.15294330000E+03 0.  1.
    8880022    1    1    2    0    0  0.59191447143E+02  0.56687035139E+02  0.14078143235E+04  0.14184674370E+04  0.15294330000E+03 0. -1.
<mgrwt>
<rscale>  0 0.17351859E+03</rscale>
<asrwt>0</asrwt>
<pdfrwt beam="1">  1        2 0.30056337E+00 0.17351859E+03</pdfrwt>
<pdfrwt beam="2">  1       -2 0.29618986E-02 0.17351859E+03</pdfrwt>
<totfact> 0.33925828E+03</totfact>
</mgrwt>
</event>
<event>
 4    1  0.1726795E-008  0.6925254E+03  0.7818608E-02  0.9730101E-01
          2   -1    0    0  501    0  0.00000000000E+00  0.00000000000E+00  0.16473517743E+04  0.16473517743E+04  0.25500000000E-02 0. -1.
         -2   -1    0    0    0  501 -0.00000000000E+00 -0.00000000000E+00 -0.41928084960E+03  0.41928084961E+03  0.25500000000E-02 0.  1.
    8880022    1    1    2    0    0 -0.43499522421E+03  0.51670008973E+03  0.11853083542E+04  0.13727881757E+04  0.15294330000E+03 0.  0.
    8880022    1    1    2    0    0  0.43499522421E+03 -0.51670008973E+03  0.42762570480E+02  0.69384444818E+03  0.15294330000E+03 0.  0.
<mgrwt>
<rscale>  0 0.69252544E+03</rscale>
<asrwt>0</asrwt>
<pdfrwt beam="1">  1        2 0.25343873E+00 0.69252544E+03</pdfrwt>
<pdfrwt beam="2">  1       -2 0.64504747E-01 0.69252544E+03</pdfrwt>
<totfact> 0.24078620E+01</totfact>
</mgrwt>
</event>
<event>
 4    1  0.1726795E-008  0.4842981E+03  0.7818608E-02  0.1017961E+00
          2   -1    0    0  501    0  0.00000000000E+00  0.00000000000E+00  0.14699276046E+04  0.14699276046E+04  0.25500000000E-02 0. -1.
         -2   -1    0    0    0  501 -0.00000000000E+00 -0.00000000000E+00 -0.92027604760E+03  0.92027604761E+03  0.25500000000E-02 0.  1.
    8880022    1    1    2    0    0  0.18950518184E+03 -0.41861772328E+03 -0.81174132876E+03  0.94523470632E+03  0.15294330000E+03 0.  0.
    8880022    1    1    2    0    0 -0.18950518184E+03  0.41861772328E+03  0.13613928857E+04  0.14449689459E+04  0.15294330000E+03 0.  0.
<mgrwt>
<rscale>  0 0.48429812E+03</rscale>
<asrwt>0</asrwt>
<pdfrwt beam="1">  1        2 0.22614271E+00 0.48429812E+03</pdfrwt>
<pdfrwt beam="2">  1       -2 0.14158093E+00 0.48429812E+03</pdfrwt>
<totfact> 0.49643375E+00</totfact>
</mgrwt>
</event>
<event>
 4    1  0.1726795E-008  0.2657617E+03  0.7818608E-02  0.1103730E+00
         -2   -1    0    0    0  501 -0.00000000000E+00  0.00000000000E+00  0.44465799197E+03  0.44465799198E+03  0.25500000000E-02 0.  1.
          2   -1    0    0  501    0  0.00000000000E+00 -0.00000000000E+00 -0.25213052029E+03  0.25213052030E+03  0.25500000000E-02 0. -1.
    8880022    1    1    2    0    0  0.14222585990E+03 -0.16434544166E+03 -0.11565926582E+03  0.28983846916E+03  0.15294330000E+03 0.  0.
    8880022    1    1    2    0    0 -0.14222585990E+03  0.16434544166E+03  0.30818673750E+03  0.40695004313E+03  0.15294330000E+03 0.  0.
<mgrwt>
<rscale>  0 0.26576168E+03</rscale>
<asrwt>0</asrwt>
<pdfrwt beam="1">  1        2 0.38789312E-01 0.26576168E+03</pdfrwt>
<pdfrwt beam="2">  1       -2 0.68408921E-01 0.26576168E+03</pdfrwt>
<totfact> 0.26645567E+02</totfact>
</mgrwt>
</event>
<event>
 4    1  0.1726795E-008  0.5855206E+03  0.7818608E-02  0.9935910E-01
         -2   -1    0    0    0  501 -0.00000000000E+00  0.00000000000E+00  0.68928708996E+03  0.68928708997E+03  0.25500000000E-02 0.  1.
          2   -1    0    0  501    0  0.00000000000E+00 -0.00000000000E+00 -0.15512089325E+04  0.15512089325E+04  0.25500000000E-02 0. -1.
    8880022    1    1    2    0    0  0.77203599508E+02 -0.55989496355E+03  0.49238630048E+03  0.76503508932E+03  0.15294330000E+03 0.  0.
    8880022    1    1    2    0    0 -0.77203599508E+02  0.55989496355E+03 -0.13543081430E+04  0.14754609332E+04  0.15294330000E+03 0.  0.
<mgrwt>
<rscale>  0 0.58552064E+03</rscale>
<asrwt>0</asrwt>
<pdfrwt beam="1">  1        2 0.23864753E+00 0.58552064E+03</pdfrwt>
<pdfrwt beam="2">  1       -2 0.10604417E+00 0.58552064E+03</pdfrwt>
<totfact> 0.89770902E+00</totfact>
</mgrwt>
</event>
<event>
 4    1  0.1726795E-008  0.1655804E+04  0.7818608E-02  0.8786980E-01
          2   -1    0    0  501    0  0.00000000000E+00  0.00000000000E+00  0.29350202692E+04  0.29350202692E+04  0.25500000000E-02 0. -1.
         -2   -1    0    0    0  501 -0.00000000000E+00 -0.00000000000E+00 -0.14627843431E+04  0.14627843431E+04  0.25500000000E-02 0.  1.
    8880022    1    1    2    0    0 -0.16343395806E+04 -0.21732250892E+03  0.20580290050E+04  0.26414333184E+04  0.15294330000E+03 0.  0.
    8880022    1    1    2    0    0  0.16343395806E+04  0.21732250892E+03 -0.58579307891E+03  0.17563712938E+04  0.15294330000E+03 0.  0.
<mgrwt>
<rscale>  0 0.16558039E+04</rscale>
<asrwt>0</asrwt>
<pdfrwt beam="1">  1        2 0.45154157E+00 0.16558039E+04</pdfrwt>
<pdfrwt beam="2">  1       -2 0.22504375E+00 0.16558039E+04</pdfrwt>
<totfact> 0.16207614E-01</totfact>
</mgrwt>
</event>
<event>
 4    1  0.1726795E-008  0.1144370E+04  0.7818608E-02  0.9162993E-01
         -2   -1    0    0    0  501 -0.00000000000E+00  0.00000000000E+00  0.10124346980E+04  0.10124346980E+04  0.25500000000E-02 0.  1.
          2   -1    0    0  501    0  0.00000000000E+00 -0.00000000000E+00 -0.19731064096E+04  0.19731064096E+04  0.25500000000E-02 0. -1.
    8880022    1    1    2    0    0 -0.75175318886E+03 -0.84915107324E+03  0.39575115579E+03  0.12108678840E+04  0.15294330000E+03 0.  0.
    8880022    1    1    2    0    0  0.75175318886E+03  0.84915107324E+03 -0.13564228674E+04  0.17746732236E+04  0.15294330000E+03 0.  0.
<mgrwt>
<rscale>  0 0.11443697E+04</rscale>
<asrwt>0</asrwt>
<pdfrwt beam="1">  1        2 0.30355483E+00 0.11443697E+04</pdfrwt>
<pdfrwt beam="2">  1       -2 0.15575918E+00 0.11443697E+04</pdfrwt>
<totfact> 0.18344153E+00</totfact>
</mgrwt>
</event>
<event>
 4    1  0.1726795E-008  0.8892530E+03  0.7818608E-02  0.9439116E-01
          2   -1    0    0  501    0  0.00000000000E+00  0.00000000000E+00  0.57708851360E+03  0.57708851360E+03  0.25500000000E-02 0. -1.
         -2   -1    0    0    0  501 -0.00000000000E+00 -0.00000000000E+00 -0.21718463684E+04  0.21718463684E+04  0.25500000000E-02 0.  1.
    8880022    1    1    2    0    0  0.61116077380E+03 -0.62758400682E+03  0.37628997010E+02  0.89004874669E+03  0.15294330000E+03 0.  0.
    8880022    1    1    2    0    0 -0.61116077380E+03  0.62758400682E+03 -0.16323868518E+04  0.18588861353E+04  0.15294330000E+03 0.  0.
<mgrwt>
<rscale>  0 0.88925296E+03</rscale>
<asrwt>0</asrwt>
<pdfrwt beam="1">  1        2 0.88782849E-01 0.88925296E+03</pdfrwt>
<pdfrwt beam="2">  1       -2 0.33413021E+00 0.88925296E+03</pdfrwt>
<totfact> 0.10447364E+00</totfact>
</mgrwt>
</event>
<event>
 4    1  0.1726795E-008  0.3533434E+03  0.7818608E-02  0.1061251E+00
         -2   -1    0    0    0  501 -0.00000000000E+00  0.00000000000E+00  0.37522781771E+03  0.37522781772E+03  0.25500000000E-02 0.  1.
          2   -1    0    0  501    0  0.00000000000E+00 -0.00000000000E+00 -0.38266057198E+04  0.38266057198E+04  0.25500000000E-02 0. -1.
    8880022    1    1    2    0    0  0.31527294460E+03  0.45419044812E+02  0.28181024943E+03  0.45196082676E+03  0.15294330000E+03 0.  0.
    8880022    1    1    2    0    0 -0.31527294460E+03 -0.45419044812E+02 -0.37331881515E+04  0.37498727107E+04  0.15294330000E+03 0.  0.
<mgrwt>
<rscale>  0 0.35334342E+03</rscale>
<asrwt>0</asrwt>
<pdfrwt beam="1">  1        2 0.58870855E+00 0.35334342E+03</pdfrwt>
<pdfrwt beam="2">  1       -2 0.57727359E-01 0.35334342E+03</pdfrwt>
<totfact> 0.16685410E+00</totfact>
</mgrwt>
</event>
<event>
 4    1  0.1726795E-008  0.6951379E+03  0.7818608E-02  0.9725583E-01
         -2   -1    0    0    0  501 -0.00000000000E+00  0.00000000000E+00  0.12897177433E+04  0.12897177433E+04  0.25500000000E-02 0.  1.
          2   -1    0    0  501    0  0.00000000000E+00 -0.00000000000E+00 -0.14360403260E+04  0.14360403260E+04  0.25500000000E-02 0. -1.
    8880022    1    1    2    0    0  0.67809508637E+03  0.34735598663E+01  0.10985153239E+04  0.12999817621E+04  0.15294330000E+03 0.  0.
    8880022    1    1    2    0    0 -0.67809508637E+03 -0.34735598663E+01 -0.12448379065E+04  0.14257763073E+04  0.15294330000E+03 0.  0.
<mgrwt>
<rscale>  0 0.69513787E+03</rscale>
<asrwt>0</asrwt>
<pdfrwt beam="1">  1        2 0.22092928E+00 0.69513787E+03</pdfrwt>
<pdfrwt beam="2">  1       -2 0.19841811E+00 0.69513787E+03</pdfrwt>
<totfact> 0.19574722E+00</totfact>
</mgrwt>
</event>
<event>
 4    1  0.1726795E-008  0.2522051E+03  0.7818608E-02  0.1111919E+00
         -2   -1    0    0    0  501 -0.00000000000E+00  0.00000000000E+00  0.51957566400E+02  0.51957566463E+02  0.25500000000E-02 0.  1.
          2   -1    0    0  501    0  0.00000000000E+00 -0.00000000000E+00 -0.22626581086E+04  0.22626581086E+04  0.25500000000E-02 0. -1.
    8880022    1    1    2    0    0  0.21679774656E+02  0.19936338655E+03 -0.32132510663E+03  0.40848163936E+03  0.15294330000E+03 0.  0.
    8880022    1    1    2    0    0 -0.21679774656E+02 -0.19936338655E+03 -0.18893754355E+04  0.19061340357E+04  0.15294330000E+03 0.  0.
<mgrwt>
<rscale>  0 0.25220513E+03</rscale>
<asrwt>0</asrwt>
<pdfrwt beam="1">  1        2 0.34810117E+00 0.25220513E+03</pdfrwt>
<pdfrwt beam="2">  1       -2 0.79934735E-02 0.25220513E+03</pdfrwt>
<totfact> 0.51286995E+02</totfact>
</mgrwt>
</event>
<event>
 4    1  0.1726795E-008  0.5085476E+03  0.7818608E-02  0.1011572E+00
          2   -1    0    0  501    0  0.00000000000E+00  0.00000000000E+00  0.14525064900E+04  0.14525064900E+04  0.25500000000E-02 0. -1.
         -2   -1    0    0    0  501 -0.00000000000E+00 -0.00000000000E+00 -0.50163965554E+03  0.50163965555E+03  0.25500000000E-02 0.  1.
    8880022    1    1    2    0    0 -0.77707018979E+02  0.47873853009E+03 -0.30930982053E+03  0.59522531791E+03  0.15294330000E+03 0.  0.
    8880022    1    1    2    0    0  0.77707018979E+02 -0.47873853009E+03  0.12601766550E+04  0.13589208277E+04  0.15294330000E+03 0.  0.
<mgrwt>
<rscale>  0 0.50854755E+03</rscale>
<asrwt>0</asrwt>
<pdfrwt beam="1">  1        2 0.22346253E+00 0.50854755E+03</pdfrwt>
<pdfrwt beam="2">  1       -2 0.77175332E-01 0.50854755E+03</pdfrwt>
<totfact> 0.21444104E+01</totfact>
</mgrwt>
</event>
<event>
 4    1  0.1726795E-008  0.6825205E+03  0.7818608E-02  0.9747600E-01
          2   -1    0    0  501    0  0.00000000000E+00  0.00000000000E+00  0.32805678621E+04  0.32805678621E+04  0.25500000000E-02 0. -1.
         -2   -1    0    0    0  501 -0.00000000000E+00 -0.00000000000E+00 -0.25463613484E+03  0.25463613485E+03  0.25500000000E-02 0.  1.
    8880022    1    1    2    0    0 -0.60095887421E+03  0.28511576054E+03  0.33734547790E+03  0.76133842007E+03  0.15294330000E+03 0.  0.
    8880022    1    1    2    0    0  0.60095887421E+03 -0.28511576054E+03  0.26885862494E+04  0.27738655769E+04  0.15294330000E+03 0.  0.
<mgrwt>
<rscale>  0 0.68252049E+03</rscale>
<asrwt>0</asrwt>
<pdfrwt beam="1">  1        2 0.50470275E+00 0.68252049E+03</pdfrwt>
<pdfrwt beam="2">  1       -2 0.39174790E-01 0.68252049E+03</pdfrwt>
<totfact> 0.76951010E+00</totfact>
</mgrwt>
</event>
<event>
 4    1  0.1726795E-008  0.1250790E+04  0.7818608E-02  0.9069526E-01
         -2   -1    0    0    0  501 -0.00000000000E+00  0.00000000000E+00  0.70415282088E+03  0.70415282089E+03  0.25500000000E-02 0.  1.
          2   -1    0    0  501    0  0.00000000000E+00 -0.00000000000E+00 -0.25786149765E+04  0.25786149765E+04  0.25500000000E-02 0. -1.
    8880022    1    1    2    0    0 -0.91078239244E+03  0.84353971969E+03 -0.15478189678E+04  0.19900299081E+04  0.15294330000E+03 0.  0.
    8880022    1    1    2    0    0  0.91078239244E+03 -0.84353971969E+03 -0.32664318775E+03  0.12927378892E+04  0.15294330000E+03 0.  0.
<mgrwt>
<rscale>  0 0.12507899E+04</rscale>
<asrwt>0</asrwt>
<pdfrwt beam="1">  1        2 0.39670999E+00 0.12507899E+04</pdfrwt>
<pdfrwt beam="2">  1       -2 0.10833120E+00 0.12507899E+04</pdfrwt>
<totfact> 0.20871775E+00</totfact>
</mgrwt>
</event>
<event>
 4    1  0.1726795E-008  0.6268154E+03  0.7818608E-02  0.9851283E-01
         -2   -1    0    0    0  501 -0.00000000000E+00  0.00000000000E+00  0.12128949061E+04  0.12128949061E+04  0.25500000000E-02 0.  1.
          2   -1    0    0  501    0  0.00000000000E+00 -0.00000000000E+00 -0.11386276235E+04  0.11386276235E+04  0.25500000000E-02 0. -1.
    8880022    1    1    2    0    0 -0.18551705271E+03 -0.57886896851E+03  0.10316811501E+04  0.12071716978E+04  0.15294330000E+03 0.  0.
    8880022    1    1    2    0    0  0.18551705271E+03  0.57886896851E+03 -0.95741386750E+03  0.11443508318E+04  0.15294330000E+03 0.  0.
<mgrwt>
<rscale>  0 0.62681537E+03</rscale>
<asrwt>0</asrwt>
<pdfrwt beam="1">  1        2 0.17517348E+00 0.62681537E+03</pdfrwt>
<pdfrwt beam="2">  1       -2 0.18659921E+00 0.62681537E+03</pdfrwt>
<totfact> 0.35234556E+00</totfact>
</mgrwt>
</event>
<event>
 4    1  0.1726795E-008  0.4495095E+03  0.7818608E-02  0.1027868E+00
          2   -1    0    0  501    0  0.00000000000E+00  0.00000000000E+00  0.10608814337E+04  0.10608814337E+04  0.25500000000E-02 0. -1.
         -2   -1    0    0    0  501 -0.00000000000E+00 -0.00000000000E+00 -0.61908456750E+03  0.61908456751E+03  0.25500000000E-02 0.  1.
    8880022    1    1    2    0    0  0.41728513999E+03 -0.67381472507E+02  0.91982644974E+03  0.10237868438E+04  0.15294330000E+03 0.  0.
    8880022    1    1    2    0    0 -0.41728513999E+03  0.67381472507E+02 -0.47802958352E+03  0.65617915742E+03  0.15294330000E+03 0.  0.
<mgrwt>
<rscale>  0 0.44950951E+03</rscale>
<asrwt>0</asrwt>
<pdfrwt beam="1">  1        2 0.16321253E+00 0.44950951E+03</pdfrwt>
<pdfrwt beam="2">  1       -2 0.95243780E-01 0.44950951E+03</pdfrwt>
<totfact> 0.22613132E+01</totfact>
</mgrwt>
</event>
<event>
 4    1  0.1726795E-008  0.4064838E+03  0.7818608E-02  0.1041557E+00
          2   -1    0    0  501    0  0.00000000000E+00  0.00000000000E+00  0.14732751340E+04  0.14732751340E+04  0.25500000000E-02 0. -1.
         -2   -1    0    0    0  501 -0.00000000000E+00 -0.00000000000E+00 -0.42938062866E+03  0.42938062867E+03  0.25500000000E-02 0.  1.
    8880022    1    1    2    0    0 -0.85861324197E+02 -0.36669504897E+03 -0.29575645324E+03  0.50269370255E+03  0.15294330000E+03 0.  1.
    8880022    1    1    2    0    0  0.85861324197E+02  0.36669504897E+03  0.13396509586E+04  0.13999620601E+04  0.15294330000E+03 0.  0.
<mgrwt>
<rscale>  0 0.40648380E+03</rscale>
<asrwt>0</asrwt>
<pdfrwt beam="1">  1        2 0.22665771E+00 0.40648380E+03</pdfrwt>
<pdfrwt beam="2">  1       -2 0.66058560E-01 0.40648380E+03</pdfrwt>
<totfact> 0.29894068E+01</totfact>
</mgrwt>
</event>
<event>
 4    1  0.1726795E-008  0.1196985E+04  0.7818608E-02  0.9115500E-01
          2   -1    0    0  501    0  0.00000000000E+00  0.00000000000E+00  0.35718364455E+04  0.35718364455E+04  0.25500000000E-02 0. -1.
         -2   -1    0    0    0  501 -0.00000000000E+00 -0.00000000000E+00 -0.74155396576E+03  0.74155396577E+03  0.25500000000E-02 0.  1.
    8880022    1    1    2    0    0 -0.11495180127E+04 -0.29663116722E+03 -0.46117053914E+02  0.11978731763E+04  0.15294330000E+03 0.  0.
    8880022    1    1    2    0    0  0.11495180127E+04  0.29663116722E+03  0.28763995337E+04  0.31155172349E+04  0.15294330000E+03 0.  0.
<mgrwt>
<rscale>  0 0.11969851E+04</rscale>
<asrwt>0</asrwt>
<pdfrwt beam="1">  1        2 0.54951331E+00 0.11969851E+04</pdfrwt>
<pdfrwt beam="2">  1       -2 0.11408522E+00 0.11969851E+04</pdfrwt>
<totfact> 0.43516412E-01</totfact>
</mgrwt>
</event>
<event>
 4    1  0.1726795E-008  0.1216911E+04  0.7818608E-02  0.9098181E-01
         -2   -1    0    0    0  501 -0.00000000000E+00  0.00000000000E+00  0.85293691830E+03  0.85293691830E+03  0.25500000000E-02 0.  1.
          2   -1    0    0  501    0  0.00000000000E+00 -0.00000000000E+00 -0.32126069269E+04  0.32126069269E+04  0.25500000000E-02 0. -1.
    8880022    1    1    2    0    0  0.12012501627E+03  0.12012709022E+04 -0.25578760082E+04  0.28325965344E+04  0.15294330000E+03 0.  0.
    8880022    1    1    2    0    0 -0.12012501627E+03 -0.12012709022E+04  0.19820599958E+03  0.12329473109E+04  0.15294330000E+03 0.  0.
<mgrwt>
<rscale>  0 0.12169114E+04</rscale>
<asrwt>0</asrwt>
<pdfrwt beam="1">  1        2 0.49424721E+00 0.12169114E+04</pdfrwt>
<pdfrwt beam="2">  1       -2 0.13122107E+00 0.12169114E+04</pdfrwt>
<totfact> 0.53319481E-01</totfact>
</mgrwt>
</event>
<event>
 4    1  0.1726795E-008  0.5563505E+03  0.7818608E-02  0.1000035E+00
         -2   -1    0    0    0  501 -0.00000000000E+00  0.00000000000E+00  0.96779674488E+03  0.96779674488E+03  0.25500000000E-02 0.  1.
          2   -1    0    0  501    0  0.00000000000E+00 -0.00000000000E+00 -0.59595545119E+03  0.59595545120E+03  0.25500000000E-02 0. -1.
    8880022    1    1    2    0    0 -0.51781566341E+03 -0.13416833550E+03 -0.34629541433E+03  0.65532157795E+03  0.15294330000E+03 0.  0.
    8880022    1    1    2    0    0  0.51781566341E+03  0.13416833550E+03  0.71813670802E+03  0.90843061812E+03  0.15294330000E+03 0.  0.
<mgrwt>
<rscale>  0 0.55635048E+03</rscale>
<asrwt>0</asrwt>
<pdfrwt beam="1">  1        2 0.91685456E-01 0.55635048E+03</pdfrwt>
<pdfrwt beam="2">  1       -2 0.14889180E+00 0.55635048E+03</pdfrwt>
<totfact> 0.15835847E+01</totfact>
</mgrwt>
</event>
<event>
 4    1  0.1726795E-008  0.8810806E+03  0.7818608E-02  0.9449546E-01
          2   -1    0    0  501    0  0.00000000000E+00  0.00000000000E+00  0.28354940813E+04  0.28354940813E+04  0.25500000000E-02 0. -1.
         -2   -1    0    0    0  501 -0.00000000000E+00 -0.00000000000E+00 -0.57763531468E+03  0.57763531468E+03  0.25500000000E-02 0.  1.
    8880022    1    1    2    0    0  0.48339436909E+03  0.72058399901E+03 -0.10880920198E+03  0.88777390768E+03  0.15294330000E+03 0.  0.
    8880022    1    1    2    0    0 -0.48339436909E+03 -0.72058399901E+03  0.23666679686E+04  0.25253554883E+04  0.15294330000E+03 0.  0.
<mgrwt>
<rscale>  0 0.88108063E+03</rscale>
<asrwt>0</asrwt>
<pdfrwt beam="1">  1        2 0.43622986E+00 0.88108063E+03</pdfrwt>
<pdfrwt beam="2">  1       -2 0.88866972E-01 0.88108063E+03</pdfrwt>
<totfact> 0.24803944E+00</totfact>
</mgrwt>
</event>
<event>
 4    1  0.1726795E-008  0.8549227E+03  0.7818608E-02  0.9483754E-01
          2   -1    0    0  501    0  0.00000000000E+00  0.00000000000E+00  0.86912408335E+03  0.86912408335E+03  0.25500000000E-02 0. -1.
         -2   -1    0    0    0  501 -0.00000000000E+00 -0.00000000000E+00 -0.15067135664E+04  0.15067135664E+04  0.25500000000E-02 0.  1.
    8880022    1    1    2    0    0  0.61798831380E+03  0.57060641486E+03 -0.11084368600E+04  0.13998304049E+04  0.15294330000E+03 0.  0.
    8880022    1    1    2    0    0 -0.61798831380E+03 -0.57060641486E+03  0.47084737698E+03  0.97600724490E+03  0.15294330000E+03 0.  0.
<mgrwt>
<rscale>  0 0.85492274E+03</rscale>
<asrwt>0</asrwt>
<pdfrwt beam="1">  1        2 0.13371140E+00 0.85492274E+03</pdfrwt>
<pdfrwt beam="2">  1       -2 0.23180209E+00 0.85492274E+03</pdfrwt>
<totfact> 0.25979770E+00</totfact>
</mgrwt>
</event>
<event>
 4    1  0.1726795E-008  0.3467473E+03  0.7818608E-02  0.1063958E+00
          2   -1    0    0  501    0  0.00000000000E+00  0.00000000000E+00  0.17376215661E+04  0.17376215661E+04  0.25500000000E-02 0. -1.
         -2   -1    0    0    0  501 -0.00000000000E+00 -0.00000000000E+00 -0.89507408840E+02  0.89507408876E+02  0.25500000000E-02 0.  1.
    8880022    1    1    2    0    0 -0.24702733192E+03  0.18926054843E+03  0.38884928324E+03  0.52099661803E+03  0.15294330000E+03 0.  0.
    8880022    1    1    2    0    0  0.24702733192E+03 -0.18926054843E+03  0.12592648740E+04  0.13061323569E+04  0.15294330000E+03 0.  0.
<mgrwt>
<rscale>  0 0.34674733E+03</rscale>
<asrwt>0</asrwt>
<pdfrwt beam="1">  1        2 0.26732640E+00 0.34674733E+03</pdfrwt>
<pdfrwt beam="2">  1       -2 0.13770370E-01 0.34674733E+03</pdfrwt>
<totfact> 0.39959086E+02</totfact>
</mgrwt>
</event>
<event>
 4    1  0.1726795E-008  0.1636082E+04  0.7818608E-02  0.8798683E-01
          2   -1    0    0  501    0  0.00000000000E+00  0.00000000000E+00  0.23416312018E+04  0.23416312019E+04  0.25500000000E-02 0. -1.
         -2   -1    0    0    0  501 -0.00000000000E+00 -0.00000000000E+00 -0.21004159559E+04  0.21004159559E+04  0.25500000000E-02 0.  1.
    8880022    1    1    2    0    0  0.58960821407E+03 -0.15184647497E+04 -0.13788137634E+04  0.21396009182E+04  0.15294330000E+03 0.  0.
    8880022    1    1    2    0    0 -0.58960821407E+03  0.15184647497E+04  0.16200290093E+04  0.23024462396E+04  0.15294330000E+03 0.  0.
<mgrwt>
<rscale>  0 0.16360821E+04</rscale>
<asrwt>0</asrwt>
<pdfrwt beam="1">  1        2 0.36025095E+00 0.16360821E+04</pdfrwt>
<pdfrwt beam="2">  1       -2 0.32314092E+00 0.16360821E+04</pdfrwt>
<totfact> 0.90665787E-02</totfact>
</mgrwt>
</event>
<event>
 4    1  0.1726795E-008  0.1427699E+04  0.7818608E-02  0.8934009E-01
          2   -1    0    0  501    0  0.00000000000E+00  0.00000000000E+00  0.19886571757E+04  0.19886571757E+04  0.25500000000E-02 0. -1.
         -2   -1    0    0    0  501 -0.00000000000E+00 -0.00000000000E+00 -0.12855937126E+04  0.12855937126E+04  0.25500000000E-02 0.  1.
    8880022    1    1    2    0    0  0.78688710286E+03  0.11814147542E+04  0.10886427933E+04  0.17954016037E+04  0.15294330000E+03 0.  0.
    8880022    1    1    2    0    0 -0.78688710286E+03 -0.11814147542E+04 -0.38557933013E+03  0.14788492847E+04  0.15294330000E+03 0.  0.
<mgrwt>
<rscale>  0 0.14276988E+04</rscale>
<asrwt>0</asrwt>
<pdfrwt beam="1">  1        2 0.30594726E+00 0.14276988E+04</pdfrwt>
<pdfrwt beam="2">  1       -2 0.19778365E+00 0.14276988E+04</pdfrwt>
<totfact> 0.88258327E-01</totfact>
</mgrwt>
</event>
<event>
 4    1  0.1726795E-008  0.9236794E+03  0.7818608E-02  0.9396456E-01
          2   -1    0    0  501    0  0.00000000000E+00  0.00000000000E+00  0.32402114864E+04  0.32402114864E+04  0.25500000000E-02 0. -1.
         -2   -1    0    0    0  501 -0.00000000000E+00 -0.00000000000E+00 -0.43344537973E+03  0.43344537974E+03  0.25500000000E-02 0.  1.
    8880022    1    1    2    0    0 -0.38369015875E+03  0.82618032659E+03  0.25258984707E+03  0.95759352223E+03  0.15294330000E+03 0.  0.
    8880022    1    1    2    0    0  0.38369015875E+03 -0.82618032659E+03  0.25541762596E+04  0.27160633439E+04  0.15294330000E+03 0.  0.
<mgrwt>
<rscale>  0 0.92367945E+03</rscale>
<asrwt>0</asrwt>
<pdfrwt beam="1">  1        2 0.49849408E+00 0.92367945E+03</pdfrwt>
<pdfrwt beam="2">  1       -2 0.66683904E-01 0.92367945E+03</pdfrwt>
<totfact> 0.26256805E+00</totfact>
</mgrwt>
</event>
<event>
 4    1  0.2169951E-008  0.1138624E+04  0.7818608E-02  0.9168343E-01
          2   -1    0    0  501    0  0.00000000000E+00  0.00000000000E+00  0.25952178097E+04  0.25952178097E+04  0.25500000000E-02 0. -1.
         -2   -1    0    0    0  501 -0.00000000000E+00 -0.00000000000E+00 -0.17630057448E+04  0.17630057448E+04  0.25500000000E-02 0.  1.
    8880022    1    1    2    0    0  0.94368821822E+03 -0.61848634047E+03  0.22608288156E+04  0.25313655195E+04  0.15294330000E+03 0.  0.
    8880022    1    1    2    0    0 -0.94368821822E+03  0.61848634047E+03 -0.14286167508E+04  0.18268580350E+04  0.15294330000E+03 0.  0.
<mgrwt>
<rscale>  0 0.11386239E+04</rscale>
<asrwt>0</asrwt>
<pdfrwt beam="1">  1        2 0.39926428E+00 0.11386239E+04</pdfrwt>
<pdfrwt beam="2">  1       -2 0.27123165E+00 0.11386239E+04</pdfrwt>
<totfact> 0.14448811E-01</totfact>
</mgrwt>
</event>
<event>
 4    1  0.1726795E-008  0.1671121E+03  0.7818608E-02  0.1180893E+00
         -2   -1    0    0    0  501 -0.00000000000E+00  0.00000000000E+00  0.15104656638E+03  0.15104656640E+03  0.25500000000E-02 0.  1.
          2   -1    0    0  501    0  0.00000000000E+00 -0.00000000000E+00 -0.87214162626E+03  0.87214162627E+03  0.25500000000E-02 0. -1.
    8880022    1    1    2    0    0 -0.57061428557E+02 -0.35760148210E+02  0.93593832921E+02  0.19153655892E+03  0.15294330000E+03 0.  1.
    8880022    1    1    2    0    0  0.57061428557E+02  0.35760148210E+02 -0.81468889281E+03  0.83165163374E+03  0.15294330000E+03 0.  0.
<mgrwt>
<rscale>  0 0.16711208E+03</rscale>
<asrwt>0</asrwt>
<pdfrwt beam="1">  1        2 0.13417563E+00 0.16711208E+03</pdfrwt>
<pdfrwt beam="2">  1       -2 0.23237934E-01 0.16711208E+03</pdfrwt>
<totfact> 0.51981489E+02</totfact>
</mgrwt>
</event>
<event>
 4    1  0.1726795E-008  0.3245340E+03  0.7818608E-02  0.1073581E+00
          2   -1    0    0  501    0  0.00000000000E+00  0.00000000000E+00  0.40683435052E+03  0.40683435053E+03  0.25500000000E-02 0. -1.
         -2   -1    0    0    0  501 -0.00000000000E+00 -0.00000000000E+00 -0.86340920556E+03  0.86340920557E+03  0.25500000000E-02 0.  1.
    8880022    1    1    2    0    0  0.19504828117E+03 -0.20949181944E+03  0.30315521736E+03  0.44410065664E+03  0.15294330000E+03 0.  0.
    8880022    1    1    2    0    0 -0.19504828117E+03  0.20949181944E+03 -0.75973007240E+03  0.82614289946E+03  0.15294330000E+03 0.  0.
<mgrwt>
<rscale>  0 0.32453398E+03</rscale>
<asrwt>0</asrwt>
<pdfrwt beam="1">  1        2 0.62589900E-01 0.32453398E+03</pdfrwt>
<pdfrwt beam="2">  1       -2 0.13283219E+00 0.32453398E+03</pdfrwt>
<totfact> 0.33936398E+01</totfact>
</mgrwt>
</event>
<event>
 4    1  0.1726795E-008  0.4779485E+03  0.7818608E-02  0.1019701E+00
         -2   -1    0    0    0  501 -0.00000000000E+00  0.00000000000E+00  0.68697839018E+03  0.68697839018E+03  0.25500000000E-02 0.  1.
          2   -1    0    0  501    0  0.00000000000E+00 -0.00000000000E+00 -0.82963107827E+03  0.82963107827E+03  0.25500000000E-02 0. -1.
    8880022    1    1    2    0    0  0.39075081439E+03 -0.22881630130E+03 -0.65831206741E+03  0.81351676676E+03  0.15294330000E+03 0. -1.
    8880022    1    1    2    0    0 -0.39075081439E+03  0.22881630130E+03  0.51565937932E+03  0.70309270170E+03  0.15294330000E+03 0.  0.
<mgrwt>
<rscale>  0 0.47794848E+03</rscale>
<asrwt>0</asrwt>
<pdfrwt beam="1">  1        2 0.12763555E+00 0.47794848E+03</pdfrwt>
<pdfrwt beam="2">  1       -2 0.10568898E+00 0.47794848E+03</pdfrwt>
<totfact> 0.24867957E+01</totfact>
</mgrwt>
</event>
<event>
 4    1  0.1726795E-008  0.1140085E+04  0.7818608E-02  0.9166980E-01
         -2   -1    0    0    0  501 -0.00000000000E+00  0.00000000000E+00  0.62316232787E+03  0.62316232787E+03  0.25500000000E-02 0.  1.
          2   -1    0    0  501    0  0.00000000000E+00 -0.00000000000E+00 -0.24774372847E+04  0.24774372848E+04  0.25500000000E-02 0. -1.
    8880022    1    1    2    0    0  0.98892821959E+03  0.54628048268E+03 -0.31074769538E+03  0.11816755784E+04  0.15294330000E+03 0.  0.
    8880022    1    1    2    0    0 -0.98892821959E+03 -0.54628048268E+03 -0.15435272615E+04  0.19189240343E+04  0.15294330000E+03 0.  0.
<mgrwt>
<rscale>  0 0.11400847E+04</rscale>
<asrwt>0</asrwt>
<pdfrwt beam="1">  1        2 0.38114419E+00 0.11400847E+04</pdfrwt>
<pdfrwt beam="2">  1       -2 0.95871129E-01 0.11400847E+04</pdfrwt>
<totfact> 0.32420731E+00</totfact>
</mgrwt>
</event>
<event>
 4    1  0.1726795E-008  0.8780883E+03  0.7818608E-02  0.9453394E-01
         -2   -1    0    0    0  501 -0.00000000000E+00  0.00000000000E+00  0.62833327583E+03  0.62833327584E+03  0.25500000000E-02 0.  1.
          2   -1    0    0  501    0  0.00000000000E+00 -0.00000000000E+00 -0.12900497923E+04  0.12900497923E+04  0.25500000000E-02 0. -1.
    8880022    1    1    2    0    0  0.59930041195E+03  0.62328682928E+03 -0.54271239828E+03  0.10322673373E+04  0.15294330000E+03 0.  0.
    8880022    1    1    2    0    0 -0.59930041195E+03 -0.62328682928E+03 -0.11900411816E+03  0.88611573086E+03  0.15294330000E+03 0.  0.
<mgrwt>
<rscale>  0 0.87808833E+03</rscale>
<asrwt>0</asrwt>
<pdfrwt beam="1">  1        2 0.19846920E+00 0.87808833E+03</pdfrwt>
<pdfrwt beam="2">  1       -2 0.96666658E-01 0.87808833E+03</pdfrwt>
<totfact> 0.15085908E+01</totfact>
</mgrwt>
</event>
<event>
 4    1  0.1726795E-008  0.1074776E+04  0.7818608E-02  0.9230132E-01
         -2   -1    0    0    0  501 -0.00000000000E+00  0.00000000000E+00  0.66885702802E+03  0.66885702803E+03  0.25500000000E-02 0.  1.
          2   -1    0    0  501    0  0.00000000000E+00 -0.00000000000E+00 -0.25367515674E+04  0.25367515674E+04  0.25500000000E-02 0. -1.
    8880022    1    1    2    0    0 -0.10068517494E+04 -0.34351268976E+03 -0.18394851270E+04  0.21304573684E+04  0.15294330000E+03 0.  0.
    8880022    1    1    2    0    0  0.10068517494E+04  0.34351268976E+03 -0.28409412378E+02  0.10751512270E+04  0.15294330000E+03 0.  0.
<mgrwt>
<rscale>  0 0.10747758E+04</rscale>
<asrwt>0</asrwt>
<pdfrwt beam="1">  1        2 0.39026947E+00 0.10747758E+04</pdfrwt>
<pdfrwt beam="2">  1       -2 0.10290108E+00 0.10747758E+04</pdfrwt>
<totfact> 0.25538108E+00</totfact>
</mgrwt>
</event>
<event>
 4    1  0.1726795E-008  0.3231528E+03  0.7818608E-02  0.1074207E+00
         -2   -1    0    0    0  501 -0.00000000000E+00  0.00000000000E+00  0.18764381724E+03  0.18764381725E+03  0.25500000000E-02 0.  1.
          2   -1    0    0  501    0  0.00000000000E+00 -0.00000000000E+00 -0.64173079693E+03  0.64173079694E+03  0.25500000000E-02 0. -1.
    8880022    1    1    2    0    0 -0.19184242395E+03  0.21031536810E+03 -0.75934919893E+02  0.33195456732E+03  0.15294330000E+03 0.  0.
    8880022    1    1    2    0    0  0.19184242395E+03 -0.21031536810E+03 -0.37815205980E+03  0.49742004688E+03  0.15294330000E+03 0.  0.
<mgrwt>
<rscale>  0 0.32315279E+03</rscale>
<asrwt>0</asrwt>
<pdfrwt beam="1">  1        2 0.98727813E-01 0.32315279E+03</pdfrwt>
<pdfrwt beam="2">  1       -2 0.28868280E-01 0.32315279E+03</pdfrwt>
<totfact> 0.51271802E+02</totfact>
</mgrwt>
</event>
<event>
 4    1  0.1726795E-008  0.3720448E+03  0.7818608E-02  0.1053914E+00
         -2   -1    0    0    0  501 -0.00000000000E+00  0.00000000000E+00  0.14130277349E+03  0.14130277351E+03  0.25500000000E-02 0.  1.
          2   -1    0    0  501    0  0.00000000000E+00 -0.00000000000E+00 -0.17619009376E+04  0.17619009376E+04  0.25500000000E-02 0. -1.
    8880022    1    1    2    0    0  0.33217176390E+03  0.68466233286E+02 -0.14443980368E+04  0.14915438470E+04  0.15294330000E+03 0.  0.
    8880022    1    1    2    0    0 -0.33217176390E+03 -0.68466233286E+02 -0.17620012731E+03  0.41165986410E+03  0.15294330000E+03 0.  0.
<mgrwt>
<rscale>  0 0.37204483E+03</rscale>
<asrwt>0</asrwt>
<pdfrwt beam="1">  1        2 0.27106167E+00 0.37204483E+03</pdfrwt>
<pdfrwt beam="2">  1       -2 0.21738889E-01 0.37204483E+03</pdfrwt>
<totfact> 0.17800846E+02</totfact>
</mgrwt>
</event>
<event>
 4    1  0.1726795E-008  0.5726273E+03  0.7818608E-02  0.9963882E-01
          2   -1    0    0  501    0  0.00000000000E+00  0.00000000000E+00  0.18557038226E+04  0.18557038226E+04  0.25500000000E-02 0. -1.
         -2   -1    0    0    0  501 -0.00000000000E+00 -0.00000000000E+00 -0.34048643844E+03  0.34048643845E+03  0.25500000000E-02 0.  1.
    8880022    1    1    2    0    0 -0.22948942456E+03 -0.50184154841E+03 -0.39960725344E+01  0.57264121168E+03  0.15294330000E+03 0.  0.
    8880022    1    1    2    0    0  0.22948942456E+03  0.50184154841E+03  0.15192134567E+04  0.16235490494E+04  0.15294330000E+03 0.  0.
<mgrwt>
<rscale>  0 0.57262727E+03</rscale>
<asrwt>0</asrwt>
<pdfrwt beam="1">  1        2 0.28549289E+00 0.57262727E+03</pdfrwt>
<pdfrwt beam="2">  1       -2 0.52382529E-01 0.57262727E+03</pdfrwt>
<totfact> 0.29209155E+01</totfact>
</mgrwt>
</event>
<event>
 4    1  0.1726795E-008  0.5347925E+03  0.7818608E-02  0.1005076E+00
         -2   -1    0    0    0  501 -0.00000000000E+00  0.00000000000E+00  0.90428864157E+03  0.90428864158E+03  0.25500000000E-02 0.  1.
          2   -1    0    0  501    0  0.00000000000E+00 -0.00000000000E+00 -0.39902565543E+03  0.39902565544E+03  0.25500000000E-02 0. -1.
    8880022    1    1    2    0    0  0.40427278725E+02  0.51085906916E+03 -0.44129652852E+02  0.53661013099E+03  0.15294330000E+03 0.  0.
    8880022    1    1    2    0    0 -0.40427278725E+02 -0.51085906916E+03  0.54939263899E+03  0.76670416602E+03  0.15294330000E+03 0.  0.
<mgrwt>
<rscale>  0 0.53479249E+03</rscale>
<asrwt>0</asrwt>
<pdfrwt beam="1">  1        2 0.61388563E-01 0.53479249E+03</pdfrwt>
<pdfrwt beam="2">  1       -2 0.13912133E+00 0.53479249E+03</pdfrwt>
<totfact> 0.30022232E+01</totfact>
</mgrwt>
</event>
<event>
 4    1  0.1726795E-008  0.5834595E+03  0.7818608E-02  0.9940329E-01
         -2   -1    0    0    0  501 -0.00000000000E+00  0.00000000000E+00  0.25230280539E+03  0.25230280540E+03  0.25500000000E-02 0.  1.
          2   -1    0    0  501    0  0.00000000000E+00 -0.00000000000E+00 -0.27221690137E+04  0.27221690137E+04  0.25500000000E-02 0. -1.
    8880022    1    1    2    0    0 -0.56301514530E+03  0.68727640485E+01 -0.17874467314E+03  0.61022504039E+03  0.15294330000E+03 0.  1.
    8880022    1    1    2    0    0  0.56301514530E+03 -0.68727640485E+01 -0.22911215351E+04  0.23642467787E+04  0.15294330000E+03 0.  0.
<mgrwt>
<rscale>  0 0.58345946E+03</rscale>
<asrwt>0</asrwt>
<pdfrwt beam="1">  1        2 0.41879521E+00 0.58345946E+03</pdfrwt>
<pdfrwt beam="2">  1       -2 0.38815818E-01 0.58345946E+03</pdfrwt>
<totfact> 0.17530401E+01</totfact>
</mgrwt>
</event>
<event>
 4    1  0.1726795E-008  0.3070827E+03  0.7818608E-02  0.1081753E+00
          2   -1    0    0  501    0  0.00000000000E+00  0.00000000000E+00  0.35002261411E+03  0.35002261412E+03  0.25500000000E-02 0. -1.
         -2   -1    0    0    0  501 -0.00000000000E+00 -0.00000000000E+00 -0.28291702893E+03  0.28291702894E+03  0.25500000000E-02 0.  1.
    8880022    1    1    2    0    0  0.46802289262E+02 -0.26214057602E+03  0.10269984174E+03  0.32380093635E+03  0.15294330000E+03 0.  0.
    8880022    1    1    2    0    0 -0.46802289262E+02  0.26214057602E+03 -0.35594256560E+02  0.30913870671E+03  0.15294330000E+03 0.  0.
<mgrwt>
<rscale>  0 0.30708271E+03</rscale>
<asrwt>0</asrwt>
<pdfrwt beam="1">  1        2 0.53849633E-01 0.30708271E+03</pdfrwt>
<pdfrwt beam="2">  1       -2 0.43525697E-01 0.30708271E+03</pdfrwt>
<totfact> 0.46932239E+02</totfact>
</mgrwt>
</event>
<event>
 4    1  0.1726795E-008  0.1604009E+03  0.7818608E-02  0.1188245E+00
          2   -1    0    0  501    0  0.00000000000E+00  0.00000000000E+00  0.24389287430E+04  0.24389287430E+04  0.25500000000E-02 0. -1.
         -2   -1    0    0    0  501 -0.00000000000E+00 -0.00000000000E+00 -0.68912531624E+03  0.68912531625E+03  0.25500000000E-02 0.  1.
    8880022    1    1    2    0    0  0.23131274992E+02  0.42446934634E+02 -0.67710814516E+03  0.69584760645E+03  0.15294330000E+03 0.  1.
    8880022    1    1    2    0    0 -0.23131274992E+02 -0.42446934634E+02  0.24269115720E+04  0.24322064528E+04  0.15294330000E+03 0.  0.
<mgrwt>
<rscale>  0 0.16040091E+03</rscale>
<asrwt>0</asrwt>
<pdfrwt beam="1">  1        2 0.37521980E+00 0.16040091E+03</pdfrwt>
<pdfrwt beam="2">  1       -2 0.10601928E+00 0.16040091E+03</pdfrwt>
<totfact> 0.35757345E+00</totfact>
</mgrwt>
</event>
<event>
 4    1  0.1726795E-008  0.5103133E+03  0.7818608E-02  0.1011121E+00
          2   -1    0    0  501    0  0.00000000000E+00  0.00000000000E+00  0.65357286721E+03  0.65357286721E+03  0.25500000000E-02 0. -1.
         -2   -1    0    0    0  501 -0.00000000000E+00 -0.00000000000E+00 -0.99446537291E+03  0.99446537292E+03  0.25500000000E-02 0.  1.
    8880022    1    1    2    0    0  0.30513236550E+03 -0.37937091044E+03 -0.80837060963E+03  0.95597214587E+03  0.15294330000E+03 0.  0.
    8880022    1    1    2    0    0 -0.30513236550E+03  0.37937091044E+03  0.46747810392E+03  0.69206609426E+03  0.15294330000E+03 0.  0.
<mgrwt>
<rscale>  0 0.51031334E+03</rscale>
<asrwt>0</asrwt>
<pdfrwt beam="1">  1        2 0.10054967E+00 0.51031334E+03</pdfrwt>
<pdfrwt beam="2">  1       -2 0.15299467E+00 0.51031334E+03</pdfrwt>
<totfact> 0.13273417E+01</totfact>
</mgrwt>
</event>
<event>
 4    1  0.1726795E-008  0.1725789E+04  0.7818608E-02  0.8746791E-01
         -2   -1    0    0    0  501 -0.00000000000E+00  0.00000000000E+00  0.21322390169E+04  0.21322390169E+04  0.25500000000E-02 0.  1.
          2   -1    0    0  501    0  0.00000000000E+00 -0.00000000000E+00 -0.26941837214E+04  0.26941837214E+04  0.25500000000E-02 0. -1.
    8880022    1    1    2    0    0 -0.16977660546E+04 -0.26934618147E+03  0.13936352792E+04  0.22182353089E+04  0.15294330000E+03 0.  0.
    8880022    1    1    2    0    0  0.16977660546E+04  0.26934618147E+03 -0.19555799837E+04  0.26081874294E+04  0.15294330000E+03 0.  0.
<mgrwt>
<rscale>  0 0.17257893E+04</rscale>
<asrwt>0</asrwt>
<pdfrwt beam="1">  1        2 0.41448980E+00 0.17257893E+04</pdfrwt>
<pdfrwt beam="2">  1       -2 0.32803677E+00 0.17257893E+04</pdfrwt>
<totfact> 0.52128428E-02</totfact>
</mgrwt>
</event>
<event>
 4    1  0.1726795E-008  0.5451771E+03  0.7818608E-02  0.1002616E+00
         -2   -1    0    0    0  501 -0.00000000000E+00  0.00000000000E+00  0.34007762410E+03  0.34007762411E+03  0.25500000000E-02 0.  1.
          2   -1    0    0  501    0  0.00000000000E+00 -0.00000000000E+00 -0.14160478184E+04  0.14160478184E+04  0.25500000000E-02 0. -1.
    8880022    1    1    2    0    0  0.43862220711E+03 -0.28537172633E+03 -0.10812564923E+04  0.12109226722E+04  0.15294330000E+03 0.  0.
    8880022    1    1    2    0    0 -0.43862220711E+03  0.28537172633E+03  0.52862980962E+01  0.54520277028E+03  0.15294330000E+03 0.  0.
<mgrwt>
<rscale>  0 0.54517714E+03</rscale>
<asrwt>0</asrwt>
<pdfrwt beam="1">  1        2 0.21785351E+00 0.54517714E+03</pdfrwt>
<pdfrwt beam="2">  1       -2 0.52319635E-01 0.54517714E+03</pdfrwt>
<totfact> 0.51085085E+01</totfact>
</mgrwt>
</event>
<event>
 4    1  0.1726795E-008  0.6720691E+03  0.7818608E-02  0.9766227E-01
          2   -1    0    0  501    0  0.00000000000E+00  0.00000000000E+00  0.65057257900E+03  0.65057257901E+03  0.25500000000E-02 0. -1.
         -2   -1    0    0    0  501 -0.00000000000E+00 -0.00000000000E+00 -0.11516539360E+04  0.11516539360E+04  0.25500000000E-02 0.  1.
    8880022    1    1    2    0    0 -0.13230421116E+03  0.64092186655E+03 -0.81841994051E+03  0.10590033500E+04  0.15294330000E+03 0.  0.
    8880022    1    1    2    0    0  0.13230421116E+03 -0.64092186655E+03  0.31733858355E+03  0.74322316496E+03  0.15294330000E+03 0.  0.
<mgrwt>
<rscale>  0 0.67206912E+03</rscale>
<asrwt>0</asrwt>
<pdfrwt beam="1">  1        2 0.10008809E+00 0.67206912E+03</pdfrwt>
<pdfrwt beam="2">  1       -2 0.17717753E+00 0.67206912E+03</pdfrwt>
<totfact> 0.87494475E+00</totfact>
</mgrwt>
</event>
<event>
 4    1  0.1726795E-008  0.7146081E+03  0.7818608E-02  0.9692571E-01
         -2   -1    0    0    0  501 -0.00000000000E+00  0.00000000000E+00  0.41695170649E+03  0.41695170649E+03  0.25500000000E-02 0.  1.
          2   -1    0    0  501    0  0.00000000000E+00 -0.00000000000E+00 -0.13632744732E+04  0.13632744732E+04  0.25500000000E-02 0. -1.
    8880022    1    1    2    0    0 -0.58932873550E+03  0.37411865670E+03 -0.18943165609E+03  0.73928961384E+03  0.15294330000E+03 0.  0.
    8880022    1    1    2    0    0  0.58932873550E+03 -0.37411865670E+03 -0.75689111061E+03  0.10409365658E+04  0.15294330000E+03 0.  0.
<mgrwt>
<rscale>  0 0.71460813E+03</rscale>
<asrwt>0</asrwt>
<pdfrwt beam="1">  1        2 0.20973453E+00 0.71460813E+03</pdfrwt>
<pdfrwt beam="2">  1       -2 0.64146417E-01 0.71460813E+03</pdfrwt>
<totfact> 0.34964818E+01</totfact>
</mgrwt>
</event>
<event>
 4    1  0.1726795E-008  0.6009531E+03  0.7818608E-02  0.9903431E-01
          2   -1    0    0  501    0  0.00000000000E+00  0.00000000000E+00  0.29422908230E+04  0.29422908230E+04  0.25500000000E-02 0. -1.
         -2   -1    0    0    0  501 -0.00000000000E+00 -0.00000000000E+00 -0.24169801025E+03  0.24169801026E+03  0.25500000000E-02 0.  1.
    8880022    1    1    2    0    0 -0.54816943992E+03 -0.19303690612E+03  0.24671518680E+04  0.25392878873E+04  0.15294330000E+03 0.  0.
    8880022    1    1    2    0    0  0.54816943992E+03  0.19303690612E+03  0.23344094476E+03  0.64470094594E+03  0.15294330000E+03 0.  0.
<mgrwt>
<rscale>  0 0.60095311E+03</rscale>
<asrwt>0</asrwt>
<pdfrwt beam="1">  1        2 0.45266012E+00 0.60095311E+03</pdfrwt>
<pdfrwt beam="2">  1       -2 0.37184310E-01 0.60095311E+03</pdfrwt>
<totfact> 0.14065012E+01</totfact>
</mgrwt>
</event>
<event>
 4    1  0.1726795E-008  0.1172129E+04  0.7818608E-02  0.9137608E-01
         -2   -1    0    0    0  501 -0.00000000000E+00  0.00000000000E+00  0.39079730476E+03  0.39079730477E+03  0.25500000000E-02 0.  1.
          2   -1    0    0  501    0  0.00000000000E+00 -0.00000000000E+00 -0.39350872977E+04  0.39350872977E+04  0.25500000000E-02 0. -1.
    8880022    1    1    2    0    0  0.64342514325E+03 -0.96772851525E+03 -0.10659438404E+04  0.15843365546E+04  0.15294330000E+03 0.  0.
    8880022    1    1    2    0    0 -0.64342514325E+03  0.96772851525E+03 -0.24783461525E+04  0.27415480479E+04  0.15294330000E+03 0.  0.
<mgrwt>
<rscale>  0 0.11721289E+04</rscale>
<asrwt>0</asrwt>
<pdfrwt beam="1">  1        2 0.60539802E+00 0.11721289E+04</pdfrwt>
<pdfrwt beam="2">  1       -2 0.60122665E-01 0.11721289E+04</pdfrwt>
<totfact> 0.10166031E+00</totfact>
</mgrwt>
</event>
<event>
 4    1  0.2753896E-008  0.1644635E+04  0.7818608E-02  0.8793587E-01
         -2   -1    0    0    0  501 -0.00000000000E+00  0.00000000000E+00  0.19951023554E+04  0.19951023554E+04  0.25500000000E-02 0.  1.
          2   -1    0    0  501    0  0.00000000000E+00 -0.00000000000E+00 -0.31191149681E+04  0.31191149681E+04  0.25500000000E-02 0. -1.
    8880022    1    1    2    0    0  0.25381634528E+03 -0.16177177824E+04 -0.24846851364E+04  0.29796787479E+04  0.15294330000E+03 0.  0.
    8880022    1    1    2    0    0 -0.25381634528E+03  0.16177177824E+04  0.13606725237E+04  0.21345385756E+04  0.15294330000E+03 0.  0.
<mgrwt>
<rscale>  0 0.16446353E+04</rscale>
<asrwt>0</asrwt>
<pdfrwt beam="1">  1        2 0.47986384E+00 0.16446353E+04</pdfrwt>
<pdfrwt beam="2">  1       -2 0.30693882E+00 0.16446353E+04</pdfrwt>
<totfact> 0.38922337E-02</totfact>
</mgrwt>
</event>
<event>
 4    1  0.1726795E-008  0.9768091E+03  0.7818608E-02  0.9334352E-01
         -2   -1    0    0    0  501 -0.00000000000E+00  0.00000000000E+00  0.10484167804E+04  0.10484167804E+04  0.25500000000E-02 0.  1.
          2   -1    0    0  501    0  0.00000000000E+00 -0.00000000000E+00 -0.12419199977E+04  0.12419199977E+04  0.25500000000E-02 0. -1.
    8880022    1    1    2    0    0 -0.49987546707E+02 -0.96346543856E+03  0.49518996886E+03  0.10951571414E+04  0.15294330000E+03 0.  0.
    8880022    1    1    2    0    0  0.49987546707E+02  0.96346543856E+03 -0.68869318624E+03  0.11951796367E+04  0.15294330000E+03 0.  0.
<mgrwt>
<rscale>  0 0.97680912E+03</rscale>
<asrwt>0</asrwt>
<pdfrwt beam="1">  1        2 0.19106461E+00 0.97680912E+03</pdfrwt>
<pdfrwt beam="2">  1       -2 0.16129489E+00 0.97680912E+03</pdfrwt>
<totfact> 0.43796338E+00</totfact>
</mgrwt>
</event>
<event>
 4    1  0.1726795E-008  0.6616016E+03  0.7818608E-02  0.9785250E-01
         -2   -1    0    0    0  501 -0.00000000000E+00  0.00000000000E+00  0.61218026419E+03  0.61218026419E+03  0.25500000000E-02 0.  1.
          2   -1    0    0  501    0  0.00000000000E+00 -0.00000000000E+00 -0.20171303172E+04  0.20171303172E+04  0.25500000000E-02 0. -1.
    8880022    1    1    2    0    0 -0.14680867779E+03  0.62671545429E+03 -0.17587330287E+04  0.18790578937E+04  0.15294330000E+03 0.  0.
    8880022    1    1    2    0    0  0.14680867779E+03 -0.62671545429E+03  0.35378297569E+03  0.75025268772E+03  0.15294330000E+03 0.  0.
<mgrwt>
<rscale>  0 0.66160162E+03</rscale>
<asrwt>0</asrwt>
<pdfrwt beam="1">  1        2 0.31032774E+00 0.66160162E+03</pdfrwt>
<pdfrwt beam="2">  1       -2 0.94181580E-01 0.66160162E+03</pdfrwt>
<totfact> 0.65401531E+00</totfact>
</mgrwt>
</event>
<event>
 4    1  0.1726795E-008  0.9829014E+03  0.7818608E-02  0.9327500E-01
          2   -1    0    0  501    0  0.00000000000E+00  0.00000000000E+00  0.21380866569E+04  0.21380866569E+04  0.25500000000E-02 0. -1.
         -2   -1    0    0    0  501 -0.00000000000E+00 -0.00000000000E+00 -0.73191616313E+03  0.73191616314E+03  0.25500000000E-02 0.  1.
    8880022    1    1    2    0    0  0.94690394220E+03  0.21465427186E+03  0.15907555997E+04  0.18699194002E+04  0.15294330000E+03 0.  0.
    8880022    1    1    2    0    0 -0.94690394220E+03 -0.21465427186E+03 -0.18458510599E+03  0.10000834198E+04  0.15294330000E+03 0.  0.
<mgrwt>
<rscale>  0 0.98290141E+03</rscale>
<asrwt>0</asrwt>
<pdfrwt beam="1">  1        2 0.32893640E+00 0.98290141E+03</pdfrwt>
<pdfrwt beam="2">  1       -2 0.11260249E+00 0.98290141E+03</pdfrwt>
<totfact> 0.34856725E+00</totfact>
</mgrwt>
</event>
<event>
 4    1  0.1726795E-008  0.1571275E+04  0.7818608E-02  0.8838392E-01
         -2   -1    0    0    0  501 -0.00000000000E+00  0.00000000000E+00  0.94125463938E+03  0.94125463938E+03  0.25500000000E-02 0.  1.
          2   -1    0    0  501    0  0.00000000000E+00 -0.00000000000E+00 -0.27601665844E+04  0.27601665844E+04  0.25500000000E-02 0. -1.
    8880022    1    1    2    0    0 -0.26204145991E+03  0.15417023704E+04 -0.49687672839E+03  0.16479654310E+04  0.15294330000E+03 0.  0.
    8880022    1    1    2    0    0  0.26204145991E+03 -0.15417023704E+04 -0.13220352166E+04  0.20534557927E+04  0.15294330000E+03 0.  0.
<mgrwt>
<rscale>  0 0.15712745E+04</rscale>
<asrwt>0</asrwt>
<pdfrwt beam="1">  1        2 0.42464101E+00 0.15712745E+04</pdfrwt>
<pdfrwt beam="2">  1       -2 0.14480841E+00 0.15712745E+04</pdfrwt>
<totfact> 0.75529782E-01</totfact>
</mgrwt>
</event>
<event>
 4    1  0.1726795E-008  0.2789779E+03  0.7818608E-02  0.1096248E+00
         -2   -1    0    0    0  501 -0.00000000000E+00  0.00000000000E+00  0.15943562710E+03  0.15943562712E+03  0.25500000000E-02 0.  1.
          2   -1    0    0  501    0  0.00000000000E+00 -0.00000000000E+00 -0.29163341424E+04  0.29163341424E+04  0.25500000000E-02 0. -1.
    8880022    1    1    2    0    0 -0.19699172913E+03  0.12502518747E+03  0.24835764221E+02  0.28008125079E+03  0.15294330000E+03 0.  1.
    8880022    1    1    2    0    0  0.19699172913E+03 -0.12502518747E+03 -0.27817342795E+04  0.27956885187E+04  0.15294330000E+03 0.  0.
<mgrwt>
<rscale>  0 0.27897794E+03</rscale>
<asrwt>0</asrwt>
<pdfrwt beam="1">  1        2 0.44866675E+00 0.27897794E+03</pdfrwt>
<pdfrwt beam="2">  1       -2 0.24528560E-01 0.27897794E+03</pdfrwt>
<totfact> 0.34510239E+01</totfact>
</mgrwt>
</event>
<event>
 4    1  0.1726795E-008  0.9108923E+03  0.7818608E-02  0.9412067E-01
         -2   -1    0    0    0  501 -0.00000000000E+00  0.00000000000E+00  0.16513532394E+04  0.16513532394E+04  0.25500000000E-02 0.  1.
          2   -1    0    0  501    0  0.00000000000E+00 -0.00000000000E+00 -0.59087849324E+03  0.59087849325E+03  0.25500000000E-02 0. -1.
    8880022    1    1    2    0    0  0.28176831304E+03  0.85260761037E+03  0.96532757381E+02  0.91599309264E+03  0.15294330000E+03 0.  0.
    8880022    1    1    2    0    0 -0.28176831304E+03 -0.85260761037E+03  0.96394198877E+03  0.13262386400E+04  0.15294330000E+03 0.  0.
<mgrwt>
<rscale>  0 0.91089229E+03</rscale>
<asrwt>0</asrwt>
<pdfrwt beam="1">  1        2 0.90904386E-01 0.91089229E+03</pdfrwt>
<pdfrwt beam="2">  1       -2 0.25405434E+00 0.91089229E+03</pdfrwt>
<totfact> 0.30950444E+00</totfact>
</mgrwt>
</event>
<event>
 4    1  0.1726795E-008  0.7016887E+03  0.7818608E-02  0.9714349E-01
          2   -1    0    0  501    0  0.00000000000E+00  0.00000000000E+00  0.64250402583E+03  0.64250402583E+03  0.25500000000E-02 0. -1.
         -2   -1    0    0    0  501 -0.00000000000E+00 -0.00000000000E+00 -0.10565243127E+04  0.10565243128E+04  0.25500000000E-02 0.  1.
    8880022    1    1    2    0    0  0.63560743936E+03 -0.25490887790E+03  0.23821424163E+03  0.74102161300E+03  0.15294330000E+03 0.  0.
    8880022    1    1    2    0    0 -0.63560743936E+03  0.25490887790E+03 -0.65223452855E+03  0.95800672558E+03  0.15294330000E+03 0.  0.
<mgrwt>
<rscale>  0 0.70168868E+03</rscale>
<asrwt>0</asrwt>
<pdfrwt beam="1">  1        2 0.98846773E-01 0.70168868E+03</pdfrwt>
<pdfrwt beam="2">  1       -2 0.16254220E+00 0.70168868E+03</pdfrwt>
<totfact> 0.11237940E+01</totfact>
</mgrwt>
</event>
<event>
 4    1  0.1726795E-008  0.1236929E+04  0.7818608E-02  0.9081133E-01
          2   -1    0    0  501    0  0.00000000000E+00  0.00000000000E+00  0.20507916448E+04  0.20507916448E+04  0.25500000000E-02 0. -1.
         -2   -1    0    0    0  501 -0.00000000000E+00 -0.00000000000E+00 -0.15466514396E+04  0.15466514396E+04  0.25500000000E-02 0.  1.
    8880022    1    1    2    0    0  0.33483779866E+03 -0.11808829108E+04 -0.10420541632E+04  0.16173649348E+04  0.15294330000E+03 0.  0.
    8880022    1    1    2    0    0 -0.33483779866E+03  0.11808829108E+04  0.15461943684E+04  0.19800781495E+04  0.15294330000E+03 0.  0.
<mgrwt>
<rscale>  0 0.12369286E+04</rscale>
<asrwt>0</asrwt>
<pdfrwt beam="1">  1        2 0.31550641E+00 0.12369286E+04</pdfrwt>
<pdfrwt beam="2">  1       -2 0.23794638E+00 0.12369286E+04</pdfrwt>
<totfact> 0.46209323E-01</totfact>
</mgrwt>
</event>
<event>
 4    1  0.1726795E-008  0.6197103E+03  0.7818608E-02  0.9865337E-01
          2   -1    0    0  501    0  0.00000000000E+00  0.00000000000E+00  0.11036664349E+04  0.11036664350E+04  0.25500000000E-02 0. -1.
         -2   -1    0    0    0  501 -0.00000000000E+00 -0.00000000000E+00 -0.63040124118E+03  0.63040124119E+03  0.25500000000E-02 0.  1.
    8880022    1    1    2    0    0 -0.25264563598E+03  0.54481130797E+03 -0.34371108731E+03  0.70864528731E+03  0.15294330000E+03 0.  0.
    8880022    1    1    2    0    0  0.25264563598E+03 -0.54481130797E+03  0.81697628107E+03  0.10254223888E+04  0.15294330000E+03 0.  0.
<mgrwt>
<rscale>  0 0.61971028E+03</rscale>
<asrwt>0</asrwt>
<pdfrwt beam="1">  1        2 0.16979484E+00 0.61971028E+03</pdfrwt>
<pdfrwt beam="2">  1       -2 0.96984806E-01 0.61971028E+03</pdfrwt>
<totfact> 0.19893914E+01</totfact>
</mgrwt>
</event>
<event>
 4    1  0.1726795E-008  0.5295275E+03  0.7818608E-02  0.1006347E+00
         -2   -1    0    0    0  501 -0.00000000000E+00  0.00000000000E+00  0.30182604790E+03  0.30182604791E+03  0.25500000000E-02 0.  1.
          2   -1    0    0  501    0  0.00000000000E+00 -0.00000000000E+00 -0.19295643772E+04  0.19295643772E+04  0.25500000000E-02 0. -1.
    8880022    1    1    2    0    0  0.35998244802E+03 -0.35695994133E+03 -0.10460923882E+02  0.52963085875E+03  0.15294330000E+03 0.  1.
    8880022    1    1    2    0    0 -0.35998244802E+03  0.35695994133E+03 -0.16172774055E+04  0.17017595664E+04  0.15294330000E+03 0.  0.
<mgrwt>
<rscale>  0 0.52952754E+03</rscale>
<asrwt>0</asrwt>
<pdfrwt beam="1">  1        2 0.29685605E+00 0.52952754E+03</pdfrwt>
<pdfrwt beam="2">  1       -2 0.46434778E-01 0.52952754E+03</pdfrwt>
<totfact> 0.34254459E+01</totfact>
</mgrwt>
</event>
<event>
 4    1  0.1726795E-008  0.6982860E+03  0.7818608E-02  0.9720168E-01
         -2   -1    0    0    0  501 -0.00000000000E+00  0.00000000000E+00  0.28136391595E+04  0.28136391595E+04  0.25500000000E-02 0.  1.
          2   -1    0    0  501    0  0.00000000000E+00 -0.00000000000E+00 -0.10498640191E+04  0.10498640191E+04  0.25500000000E-02 0. -1.
    8880022    1    1    2    0    0 -0.68320775481E+02 -0.67789675605E+03  0.26470171640E+04  0.27375725122E+04  0.15294330000E+03 0.  0.
    8880022    1    1    2    0    0  0.68320775481E+02  0.67789675605E+03 -0.88324202354E+03  0.11259306663E+04  0.15294330000E+03 0.  0.
<mgrwt>
<rscale>  0 0.69828604E+03</rscale>
<asrwt>0</asrwt>
<pdfrwt beam="1">  1        2 0.16151754E+00 0.69828604E+03</pdfrwt>
<pdfrwt beam="2">  1       -2 0.43286756E+00 0.69828604E+03</pdfrwt>
<totfact> 0.11466865E-01</totfact>
</mgrwt>
</event>
<event>
 4    1  0.1726795E-008  0.1110452E+04  0.7818608E-02  0.9195064E-01
          2   -1    0    0  501    0  0.00000000000E+00  0.00000000000E+00  0.13386997710E+04  0.13386997710E+04  0.25500000000E-02 0. -1.
         -2   -1    0    0    0  501 -0.00000000000E+00 -0.00000000000E+00 -0.18227424638E+04  0.18227424638E+04  0.25500000000E-02 0.  1.
    8880022    1    1    2    0    0  0.56347568667E+03  0.94456672868E+03 -0.13537659241E+04  0.17509383155E+04  0.15294330000E+03 0.  0.
    8880022    1    1    2    0    0 -0.56347568667E+03 -0.94456672868E+03  0.86972323122E+03  0.14105039193E+04  0.15294330000E+03 0.  0.
<mgrwt>
<rscale>  0 0.11104516E+04</rscale>
<asrwt>0</asrwt>
<pdfrwt beam="1">  1        2 0.20595381E+00 0.11104516E+04</pdfrwt>
<pdfrwt beam="2">  1       -2 0.28042192E+00 0.11104516E+04</pdfrwt>
<totfact> 0.64772684E-01</totfact>
</mgrwt>
</event>
<event>
 4    1  0.1726795E-008  0.7753843E+03  0.7818608E-02  0.9596347E-01
          2   -1    0    0  501    0  0.00000000000E+00  0.00000000000E+00  0.33073398340E+04  0.33073398340E+04  0.25500000000E-02 0. -1.
         -2   -1    0    0    0  501 -0.00000000000E+00 -0.00000000000E+00 -0.27398624078E+03  0.27398624080E+03  0.25500000000E-02 0.  1.
    8880022    1    1    2    0    0  0.74804322349E+03 -0.13513142293E+03  0.47790370791E+03  0.91083081454E+03  0.15294330000E+03 0.  0.
    8880022    1    1    2    0    0 -0.74804322349E+03  0.13513142293E+03  0.25554498853E+04  0.26704952602E+04  0.15294330000E+03 0.  0.
<mgrwt>
<rscale>  0 0.77538430E+03</rscale>
<asrwt>0</asrwt>
<pdfrwt beam="1">  1        2 0.50882152E+00 0.77538430E+03</pdfrwt>
<pdfrwt beam="2">  1       -2 0.42151729E-01 0.77538430E+03</pdfrwt>
<totfact> 0.62886231E+00</totfact>
</mgrwt>
</event>
<event>
 4    1  0.1726795E-008  0.5308671E+03  0.7818608E-02  0.1006022E+00
          2   -1    0    0  501    0  0.00000000000E+00  0.00000000000E+00  0.12635135056E+04  0.12635135056E+04  0.25500000000E-02 0. -1.
         -2   -1    0    0    0  501 -0.00000000000E+00 -0.00000000000E+00 -0.11870903937E+04  0.11870903937E+04  0.25500000000E-02 0.  1.
    8880022    1    1    2    0    0 -0.13749141445E+03  0.48941222023E+03 -0.10659943393E+04  0.11908668250E+04  0.15294330000E+03 0.  0.
    8880022    1    1    2    0    0  0.13749141445E+03 -0.48941222023E+03  0.11424174513E+04  0.12597370743E+04  0.15294330000E+03 0. -1.
<mgrwt>
<rscale>  0 0.53086709E+03</rscale>
<asrwt>0</asrwt>
<pdfrwt beam="1">  1        2 0.19438669E+00 0.53086709E+03</pdfrwt>
<pdfrwt beam="2">  1       -2 0.18262929E+00 0.53086709E+03</pdfrwt>
<totfact> 0.32272507E+00</totfact>
</mgrwt>
</event>
<event>
 4    1  0.1726795E-008  0.9326800E+03  0.7818608E-02  0.9385627E-01
          2   -1    0    0  501    0  0.00000000000E+00  0.00000000000E+00  0.96626317309E+03  0.96626317309E+03  0.25500000000E-02 0. -1.
         -2   -1    0    0    0  501 -0.00000000000E+00 -0.00000000000E+00 -0.10927499094E+04  0.10927499094E+04  0.25500000000E-02 0.  1.
    8880022    1    1    2    0    0 -0.69709207146E+03  0.60046888603E+03 -0.49532744204E+03  0.10560497938E+04  0.15294330000E+03 0.  0.
    8880022    1    1    2    0    0  0.69709207146E+03 -0.60046888603E+03  0.36884070573E+03  0.10029632887E+04  0.15294330000E+03 0.  0.
<mgrwt>
<rscale>  0 0.93267995E+03</rscale>
<asrwt>0</asrwt>
<pdfrwt beam="1">  1        2 0.14865587E+00 0.93267995E+03</pdfrwt>
<pdfrwt beam="2">  1       -2 0.16811537E+00 0.93267995E+03</pdfrwt>
<totfact> 0.58121721E+00</totfact>
</mgrwt>
</event>
<event>
 4    1  0.1726795E-008  0.8011681E+03  0.7818608E-02  0.9558328E-01
         -2   -1    0    0    0  501 -0.00000000000E+00  0.00000000000E+00  0.46224972587E+03  0.46224972588E+03  0.25500000000E-02 0.  1.
          2   -1    0    0  501    0  0.00000000000E+00 -0.00000000000E+00 -0.22916327025E+04  0.22916327025E+04  0.25500000000E-02 0. -1.
    8880022    1    1    2    0    0 -0.45137144766E+03  0.64400509859E+03 -0.17790613361E+04  0.19511354749E+04  0.15294330000E+03 0.  0.
    8880022    1    1    2    0    0  0.45137144766E+03 -0.64400509859E+03 -0.50321640506E+02  0.80274695346E+03  0.15294330000E+03 0.  0.
<mgrwt>
<rscale>  0 0.80116815E+03</rscale>
<asrwt>0</asrwt>
<pdfrwt beam="1">  1        2 0.35255887E+00 0.80116815E+03</pdfrwt>
<pdfrwt beam="2">  1       -2 0.71115344E-01 0.80116815E+03</pdfrwt>
<totfact> 0.85162581E+00</totfact>
</mgrwt>
</event>
<event>
 4    1  0.1726795E-008  0.2141805E+03  0.7818608E-02  0.1138298E+00
          2   -1    0    0  501    0  0.00000000000E+00  0.00000000000E+00  0.62639917610E+03  0.62639917611E+03  0.25500000000E-02 0. -1.
         -2   -1    0    0    0  501 -0.00000000000E+00 -0.00000000000E+00 -0.21399628809E+03  0.21399628810E+03  0.25500000000E-02 0.  1.
    8880022    1    1    2    0    0  0.40692085974E+02  0.14431144096E+03 -0.13459479469E+03  0.25296056931E+03  0.15294330000E+03 0.  1.
    8880022    1    1    2    0    0 -0.40692085974E+02 -0.14431144096E+03  0.54699768270E+03  0.58743489490E+03  0.15294330000E+03 0.  0.
<mgrwt>
<rscale>  0 0.21418051E+03</rscale>
<asrwt>0</asrwt>
<pdfrwt beam="1">  1        2 0.96369106E-01 0.21418051E+03</pdfrwt>
<pdfrwt beam="2">  1       -2 0.32922505E-01 0.21418051E+03</pdfrwt>
<totfact> 0.41723331E+02</totfact>
</mgrwt>
</event>
<event>
 4    1  0.1726795E-008  0.1498417E+04  0.7818608E-02  0.8885507E-01
          2   -1    0    0  501    0  0.00000000000E+00  0.00000000000E+00  0.27953815460E+04  0.27953815460E+04  0.25500000000E-02 0. -1.
         -2   -1    0    0    0  501 -0.00000000000E+00 -0.00000000000E+00 -0.12623623010E+04  0.12623623010E+04  0.25500000000E-02 0.  1.
    8880022    1    1    2    0    0  0.44664486105E+03 -0.14221002445E+04  0.19901263599E+04  0.24911554184E+04  0.15294330000E+03 0.  0.
    8880022    1    1    2    0    0 -0.44664486105E+03  0.14221002445E+04 -0.45710711485E+03  0.15665884287E+04  0.15294330000E+03 0.  0.
<mgrwt>
<rscale>  0 0.14984166E+04</rscale>
<asrwt>0</asrwt>
<pdfrwt beam="1">  1        2 0.43005870E+00 0.14984166E+04</pdfrwt>
<pdfrwt beam="2">  1       -2 0.19420959E+00 0.14984166E+04</pdfrwt>
<totfact> 0.31836700E-01</totfact>
</mgrwt>
</event>
<event>
 4    1  0.1726795E-008  0.1194108E+04  0.7818608E-02  0.9118029E-01
          2   -1    0    0  501    0  0.00000000000E+00  0.00000000000E+00  0.36620676358E+04  0.36620676358E+04  0.25500000000E-02 0. -1.
         -2   -1    0    0    0  501 -0.00000000000E+00 -0.00000000000E+00 -0.65164018704E+03  0.65164018705E+03  0.25500000000E-02 0.  1.
    8880022    1    1    2    0    0 -0.10302288374E+04 -0.58406487467E+03  0.28735481562E+04  0.31117798595E+04  0.15294330000E+03 0.  0.
    8880022    1    1    2    0    0  0.10302288374E+04  0.58406487467E+03  0.13687929258E+03  0.12019279633E+04  0.15294330000E+03 0.  0.
<mgrwt>
<rscale>  0 0.11941084E+04</rscale>
<asrwt>0</asrwt>
<pdfrwt beam="1">  1        2 0.56339500E+00 0.11941084E+04</pdfrwt>
<pdfrwt beam="2">  1       -2 0.10025234E+00 0.11941084E+04</pdfrwt>
<totfact> 0.51373694E-01</totfact>
</mgrwt>
</event>
<event>
 4    1  0.1726795E-008  0.4945534E+03  0.7818608E-02  0.1015210E+00
         -2   -1    0    0    0  501 -0.00000000000E+00  0.00000000000E+00  0.15817303359E+04  0.15817303360E+04  0.25500000000E-02 0.  1.
          2   -1    0    0  501    0  0.00000000000E+00 -0.00000000000E+00 -0.80965460192E+03  0.80965460192E+03  0.25500000000E-02 0. -1.
    8880022    1    1    2    0    0 -0.39283112951E+03  0.25860218502E+03  0.14615080870E+04  0.15429157229E+04  0.15294330000E+03 0.  0.
    8880022    1    1    2    0    0  0.39283112951E+03 -0.25860218502E+03 -0.68943235301E+03  0.84846921500E+03  0.15294330000E+03 0. -1.
<mgrwt>
<rscale>  0 0.49455337E+03</rscale>
<asrwt>0</asrwt>
<pdfrwt beam="1">  1        2 0.12456225E+00 0.49455337E+03</pdfrwt>
<pdfrwt beam="2">  1       -2 0.24334313E+00 0.49455337E+03</pdfrwt>
<totfact> 0.25902356E+00</totfact>
</mgrwt>
</event>
<event>
 4    1  0.1726795E-008  0.5203058E+03  0.7818608E-02  0.1008611E+00
          2   -1    0    0  501    0  0.00000000000E+00  0.00000000000E+00  0.23477476509E+04  0.23477476509E+04  0.25500000000E-02 0. -1.
         -2   -1    0    0    0  501 -0.00000000000E+00 -0.00000000000E+00 -0.28041631097E+03  0.28041631098E+03  0.25500000000E-02 0.  1.
    8880022    1    1    2    0    0 -0.10473834475E+03 -0.48616494868E+03  0.20419964526E+04  0.21072417146E+04  0.15294330000E+03 0.  0.
    8880022    1    1    2    0    0  0.10473834475E+03  0.48616494868E+03  0.25334887296E+02  0.52092224728E+03  0.15294330000E+03 0.  0.
<mgrwt>
<rscale>  0 0.52030581E+03</rscale>
<asrwt>0</asrwt>
<pdfrwt beam="1">  1        2 0.36119193E+00 0.52030581E+03</pdfrwt>
<pdfrwt beam="2">  1       -2 0.43140973E-01 0.52030581E+03</pdfrwt>
<totfact> 0.23525475E+01</totfact>
</mgrwt>
</event>
<event>
 4    1  0.1726795E-008  0.5125230E+03  0.7818608E-02  0.1010561E+00
          2   -1    0    0  501    0  0.00000000000E+00  0.00000000000E+00  0.52293908008E+03  0.52293908008E+03  0.25500000000E-02 0. -1.
         -2   -1    0    0    0  501 -0.00000000000E+00 -0.00000000000E+00 -0.81360197365E+03  0.81360197366E+03  0.25500000000E-02 0.  1.
    8880022    1    1    2    0    0  0.32115903747E+03  0.36897835585E+03  0.26802739672E+03  0.57837573673E+03  0.15294330000E+03 0.  0.
    8880022    1    1    2    0    0 -0.32115903747E+03 -0.36897835585E+03 -0.55869029030E+03  0.75816531701E+03  0.15294330000E+03 0.  0.
<mgrwt>
<rscale>  0 0.51252298E+03</rscale>
<asrwt>0</asrwt>
<pdfrwt beam="1">  1        2 0.80452166E-01 0.51252298E+03</pdfrwt>
<pdfrwt beam="2">  1       -2 0.12516954E+00 0.51252298E+03</pdfrwt>
<totfact> 0.28918695E+01</totfact>
</mgrwt>
</event>
<event>
 4    1  0.1726795E-008  0.1604021E+04  0.7818608E-02  0.8818082E-01
         -2   -1    0    0    0  501 -0.00000000000E+00  0.00000000000E+00  0.11557756967E+04  0.11557756967E+04  0.25500000000E-02 0.  1.
          2   -1    0    0  501    0  0.00000000000E+00 -0.00000000000E+00 -0.22670181025E+04  0.22670181025E+04  0.25500000000E-02 0. -1.
    8880022    1    1    2    0    0 -0.88832942654E+03  0.13267862651E+04 -0.78551831595E+03  0.17860351735E+04  0.15294330000E+03 0.  0.
    8880022    1    1    2    0    0  0.88832942654E+03 -0.13267862651E+04 -0.32572408981E+03  0.16367586257E+04  0.15294330000E+03 0.  0.
<mgrwt>
<rscale>  0 0.16040208E+04</rscale>
<asrwt>0</asrwt>
<pdfrwt beam="1">  1        2 0.34877202E+00 0.16040208E+04</pdfrwt>
<pdfrwt beam="2">  1       -2 0.17781165E+00 0.16040208E+04</pdfrwt>
<totfact> 0.82794653E-01</totfact>
</mgrwt>
</event>
<event>
 4    1  0.1726795E-008  0.2483316E+03  0.7818608E-02  0.1114364E+00
         -2   -1    0    0    0  501 -0.00000000000E+00  0.00000000000E+00  0.19094054820E+03  0.19094054821E+03  0.25500000000E-02 0.  1.
          2   -1    0    0  501    0  0.00000000000E+00 -0.00000000000E+00 -0.12668082225E+04  0.12668082225E+04  0.25500000000E-02 0. -1.
    8880022    1    1    2    0    0 -0.18990368624E+03 -0.47048154580E+02 -0.11670710899E+04  0.11931988606E+04  0.15294330000E+03 0. -1.
    8880022    1    1    2    0    0  0.18990368624E+03  0.47048154580E+02  0.91203415662E+02  0.26454991011E+03  0.15294330000E+03 0.  0.
<mgrwt>
<rscale>  0 0.24833162E+03</rscale>
<asrwt>0</asrwt>
<pdfrwt beam="1">  1        2 0.19489357E+00 0.24833162E+03</pdfrwt>
<pdfrwt beam="2">  1       -2 0.29375470E-01 0.24833162E+03</pdfrwt>
<totfact> 0.19737764E+02</totfact>
</mgrwt>
</event>
<event>
 4    1  0.1726795E-008  0.2903859E+03  0.7818608E-02  0.1090148E+00
          2   -1    0    0  501    0  0.00000000000E+00  0.00000000000E+00  0.59388764656E+03  0.59388764656E+03  0.25500000000E-02 0. -1.
         -2   -1    0    0    0  501 -0.00000000000E+00 -0.00000000000E+00 -0.10685162758E+04  0.10685162758E+04  0.25500000000E-02 0.  1.
    8880022    1    1    2    0    0 -0.23801021976E+03  0.65448059414E+02 -0.10113227669E+04  0.10521871055E+04  0.15294330000E+03 0.  0.
    8880022    1    1    2    0    0  0.23801021976E+03 -0.65448059414E+02  0.53669413763E+03  0.61021681686E+03  0.15294330000E+03 0.  0.
<mgrwt>
<rscale>  0 0.29038589E+03</rscale>
<asrwt>0</asrwt>
<pdfrwt beam="1">  1        2 0.91367330E-01 0.29038589E+03</pdfrwt>
<pdfrwt beam="2">  1       -2 0.16438712E+00 0.29038589E+03</pdfrwt>
<totfact> 0.12834531E+01</totfact>
</mgrwt>
</event>
<event>
 4    1  0.1726795E-008  0.7208355E+03  0.7818608E-02  0.9682249E-01
         -2   -1    0    0    0  501 -0.00000000000E+00  0.00000000000E+00  0.77779915673E+03  0.77779915673E+03  0.25500000000E-02 0.  1.
          2   -1    0    0  501    0  0.00000000000E+00 -0.00000000000E+00 -0.85579155232E+03  0.85579155233E+03  0.25500000000E-02 0. -1.
    8880022    1    1    2    0    0 -0.58353139713E+02  0.70200222837E+03  0.34357888848E+03  0.79853010161E+03  0.15294330000E+03 0.  0.
    8880022    1    1    2    0    0  0.58353139713E+02 -0.70200222837E+03 -0.42157128407E+03  0.83506060745E+03  0.15294330000E+03 0.  0.
<mgrwt>
<rscale>  0 0.72083554E+03</rscale>
<asrwt>0</asrwt>
<pdfrwt beam="1">  1        2 0.13166024E+00 0.72083554E+03</pdfrwt>
<pdfrwt beam="2">  1       -2 0.11966141E+00 0.72083554E+03</pdfrwt>
<totfact> 0.17123226E+01</totfact>
</mgrwt>
</event>
<event>
 4    1  0.1726795E-008  0.4504612E+03  0.7818608E-02  0.1027585E+00
          2   -1    0    0  501    0  0.00000000000E+00  0.00000000000E+00  0.19420435211E+04  0.19420435211E+04  0.25500000000E-02 0. -1.
         -2   -1    0    0    0  501 -0.00000000000E+00 -0.00000000000E+00 -0.38287239165E+03  0.38287239166E+03  0.25500000000E-02 0.  1.
    8880022    1    1    2    0    0  0.15455288804E+03 -0.39450859343E+03  0.17708160809E+04  0.18272123223E+04  0.15294330000E+03 0.  0.
    8880022    1    1    2    0    0 -0.15455288804E+03  0.39450859343E+03 -0.21164495141E+03  0.49770359047E+03  0.15294330000E+03 0.  0.
<mgrwt>
<rscale>  0 0.45046118E+03</rscale>
<asrwt>0</asrwt>
<pdfrwt beam="1">  1        2 0.29877592E+00 0.45046118E+03</pdfrwt>
<pdfrwt beam="2">  1       -2 0.58903445E-01 0.45046118E+03</pdfrwt>
<totfact> 0.21097041E+01</totfact>
</mgrwt>
</event>
<event>
 4    1  0.1726795E-008  0.4235119E+03  0.7818608E-02  0.1035929E+00
         -2   -1    0    0    0  501 -0.00000000000E+00  0.00000000000E+00  0.32635751685E+03  0.32635751686E+03  0.25500000000E-02 0.  1.
          2   -1    0    0  501    0  0.00000000000E+00 -0.00000000000E+00 -0.11698218280E+04  0.11698218280E+04  0.25500000000E-02 0. -1.
    8880022    1    1    2    0    0 -0.75710610208E+02  0.38760618508E+03 -0.96644972699E+03  0.10551717296E+04  0.15294330000E+03 0.  0.
    8880022    1    1    2    0    0  0.75710610208E+02 -0.38760618508E+03  0.12298541580E+03  0.44100761527E+03  0.15294330000E+03 0.  0.
<mgrwt>
<rscale>  0 0.42351187E+03</rscale>
<asrwt>0</asrwt>
<pdfrwt beam="1">  1        2 0.17997259E+00 0.42351187E+03</pdfrwt>
<pdfrwt beam="2">  1       -2 0.50208849E-01 0.42351187E+03</pdfrwt>
<totfact> 0.78083925E+01</totfact>
</mgrwt>
</event>
<event>
 4    1  0.1726795E-008  0.1017535E+04  0.7818608E-02  0.9289520E-01
         -2   -1    0    0    0  501 -0.00000000000E+00  0.00000000000E+00  0.10657292903E+04  0.10657292903E+04  0.25500000000E-02 0.  1.
          2   -1    0    0  501    0  0.00000000000E+00 -0.00000000000E+00 -0.11293065583E+04  0.11293065583E+04  0.25500000000E-02 0. -1.
    8880022    1    1    2    0    0  0.42882498722E+03 -0.90999670812E+03 -0.44203214146E+03  0.11094002639E+04  0.15294330000E+03 0.  0.
    8880022    1    1    2    0    0 -0.42882498722E+03  0.90999670812E+03  0.37845487350E+03  0.10856355847E+04  0.15294330000E+03 0.  0.
<mgrwt>
<rscale>  0 0.10175345E+04</rscale>
<asrwt>0</asrwt>
<pdfrwt beam="1">  1        2 0.17373947E+00 0.10175345E+04</pdfrwt>
<pdfrwt beam="2">  1       -2 0.16395835E+00 0.10175345E+04</pdfrwt>
<totfact> 0.48714461E+00</totfact>
</mgrwt>
</event>
<event>
 4    1  0.1726795E-008  0.6304425E+03  0.7818608E-02  0.9844186E-01
         -2   -1    0    0    0  501 -0.00000000000E+00  0.00000000000E+00  0.56676501640E+03  0.56676501640E+03  0.25500000000E-02 0.  1.
          2   -1    0    0  501    0  0.00000000000E+00 -0.00000000000E+00 -0.20590137757E+04  0.20590137757E+04  0.25500000000E-02 0. -1.
    8880022    1    1    2    0    0  0.60867262608E+03 -0.59863790574E+02  0.31999724048E+03  0.70700489821E+03  0.15294330000E+03 0.  0.
    8880022    1    1    2    0    0 -0.60867262608E+03  0.59863790574E+02 -0.18122459998E+04  0.19187738939E+04  0.15294330000E+03 0.  0.
<mgrwt>
<rscale>  0 0.63044246E+03</rscale>
<asrwt>0</asrwt>
<pdfrwt beam="1">  1        2 0.31677134E+00 0.63044246E+03</pdfrwt>
<pdfrwt beam="2">  1       -2 0.87194619E-01 0.63044246E+03</pdfrwt>
<totfact> 0.74566243E+00</totfact>
</mgrwt>
</event>
<event>
 4    1  0.1726795E-008  0.1020043E+04  0.7818608E-02  0.9286832E-01
         -2   -1    0    0    0  501 -0.00000000000E+00  0.00000000000E+00  0.12886480675E+04  0.12886480675E+04  0.25500000000E-02 0.  1.
          2   -1    0    0  501    0  0.00000000000E+00 -0.00000000000E+00 -0.20742954623E+04  0.20742954623E+04  0.25500000000E-02 0. -1.
    8880022    1    1    2    0    0 -0.83613113285E+03 -0.56389709303E+03 -0.17068992947E+04  0.19884647490E+04  0.15294330000E+03 0.  0.
    8880022    1    1    2    0    0  0.83613113285E+03  0.56389709303E+03  0.92125189988E+03  0.13744787808E+04  0.15294330000E+03 0.  0.
<mgrwt>
<rscale>  0 0.10200426E+04</rscale>
<asrwt>0</asrwt>
<pdfrwt beam="1">  1        2 0.31912238E+00 0.10200426E+04</pdfrwt>
<pdfrwt beam="2">  1       -2 0.19825355E+00 0.10200426E+04</pdfrwt>
<totfact> 0.82650328E-01</totfact>
</mgrwt>
</event>
<event>
 4    1  0.1844294E-008  0.1221727E+04  0.7818608E-02  0.9094049E-01
          2   -1    0    0  501    0  0.00000000000E+00  0.00000000000E+00  0.24224695535E+04  0.24224695535E+04  0.25500000000E-02 0. -1.
         -2   -1    0    0    0  501 -0.00000000000E+00 -0.00000000000E+00 -0.13351634980E+04  0.13351634980E+04  0.25500000000E-02 0.  1.
    8880022    1    1    2    0    0 -0.52394955149E+03  0.10930241622E+04 -0.83509267928E+03  0.14798636382E+04  0.15294330000E+03 0.  0.
    8880022    1    1    2    0    0  0.52394955149E+03 -0.10930241622E+04  0.19223987348E+04  0.22777694133E+04  0.15294330000E+03 0.  0.
<mgrwt>
<rscale>  0 0.12217269E+04</rscale>
<asrwt>0</asrwt>
<pdfrwt beam="1">  1        2 0.37268762E+00 0.12217269E+04</pdfrwt>
<pdfrwt beam="2">  1       -2 0.20540977E+00 0.12217269E+04</pdfrwt>
<totfact> 0.45989021E-01</totfact>
</mgrwt>
</event>
<event>
 4    1  0.1726795E-008  0.7908474E+03  0.7818608E-02  0.9573360E-01
          2   -1    0    0  501    0  0.00000000000E+00  0.00000000000E+00  0.13192646355E+04  0.13192646355E+04  0.25500000000E-02 0. -1.
         -2   -1    0    0    0  501 -0.00000000000E+00 -0.00000000000E+00 -0.65256055882E+03  0.65256055883E+03  0.25500000000E-02 0.  1.
    8880022    1    1    2    0    0  0.52134255868E+03 -0.57467370215E+03  0.84896172050E+03  0.11602480697E+04  0.15294330000E+03 0.  0.
    8880022    1    1    2    0    0 -0.52134255868E+03  0.57467370215E+03 -0.18225764381E+03  0.81157712460E+03  0.15294330000E+03 0.  0.
<mgrwt>
<rscale>  0 0.79084738E+03</rscale>
<asrwt>0</asrwt>
<pdfrwt beam="1">  1        2 0.20296379E+00 0.79084738E+03</pdfrwt>
<pdfrwt beam="2">  1       -2 0.10039393E+00 0.79084738E+03</pdfrwt>
<totfact> 0.13397525E+01</totfact>
</mgrwt>
</event>
<event>
 4    1  0.1726795E-008  0.4500536E+03  0.7818608E-02  0.1027706E+00
         -2   -1    0    0    0  501 -0.00000000000E+00  0.00000000000E+00  0.31500599123E+03  0.31500599124E+03  0.25500000000E-02 0.  1.
          2   -1    0    0  501    0  0.00000000000E+00 -0.00000000000E+00 -0.36383420559E+04  0.36383420559E+04  0.25500000000E-02 0. -1.
    8880022    1    1    2    0    0 -0.38678797287E+03 -0.17190584485E+03  0.13185373564E+03  0.46897080513E+03  0.15294330000E+03 0.  1.
    8880022    1    1    2    0    0  0.38678797287E+03  0.17190584485E+03 -0.34551898004E+04  0.34843772420E+04  0.15294330000E+03 0.  0.
<mgrwt>
<rscale>  0 0.45005356E+03</rscale>
<asrwt>0</asrwt>
<pdfrwt beam="1">  1        2 0.55974490E+00 0.45005356E+03</pdfrwt>
<pdfrwt beam="2">  1       -2 0.48462463E-01 0.45005356E+03</pdfrwt>
<totfact> 0.31094845E+00</totfact>
</mgrwt>
</event>
<event>
 4    1  0.1726795E-008  0.4876320E+03  0.7818608E-02  0.1017059E+00
          2   -1    0    0  501    0  0.00000000000E+00  0.00000000000E+00  0.63481740559E+03  0.63481740560E+03  0.25500000000E-02 0. -1.
         -2   -1    0    0    0  501 -0.00000000000E+00 -0.00000000000E+00 -0.19616767700E+04  0.19616767700E+04  0.25500000000E-02 0.  1.
    8880022    1    1    2    0    0  0.79756816900E+01 -0.46295759803E+03  0.50431095213E+03  0.70150875870E+03  0.15294330000E+03 0.  0.
    8880022    1    1    2    0    0 -0.79756816900E+01  0.46295759803E+03 -0.18311703166E+04  0.18949854169E+04  0.15294330000E+03 0.  1.
<mgrwt>
<rscale>  0 0.48763204E+03</rscale>
<asrwt>0</asrwt>
<pdfrwt beam="1">  1        2 0.97664217E-01 0.48763204E+03</pdfrwt>
<pdfrwt beam="2">  1       -2 0.30179642E+00 0.48763204E+03</pdfrwt>
<totfact> 0.15811043E+00</totfact>
</mgrwt>
</event>
<event>
 4    1  0.1726795E-008  0.7756761E+03  0.7818608E-02  0.9595908E-01
          2   -1    0    0  501    0  0.00000000000E+00  0.00000000000E+00  0.10667119328E+04  0.10667119328E+04  0.25500000000E-02 0. -1.
         -2   -1    0    0    0  501 -0.00000000000E+00 -0.00000000000E+00 -0.10644958441E+04  0.10644958441E+04  0.25500000000E-02 0.  1.
    8880022    1    1    2    0    0 -0.60200974588E+03  0.46461378542E+03 -0.72953389239E+03  0.10648441468E+04  0.15294330000E+03 0.  0.
    8880022    1    1    2    0    0  0.60200974588E+03 -0.46461378542E+03  0.73174998111E+03  0.10663636301E+04  0.15294330000E+03 0.  0.
<mgrwt>
<rscale>  0 0.77567606E+03</rscale>
<asrwt>0</asrwt>
<pdfrwt beam="1">  1        2 0.16410953E+00 0.77567606E+03</pdfrwt>
<pdfrwt beam="2">  1       -2 0.16376859E+00 0.77567606E+03</pdfrwt>
<totfact> 0.54921391E+00</totfact>
</mgrwt>
</event>
<event>
 4    1  0.1726795E-008  0.1531532E+04  0.7818608E-02  0.8863751E-01
         -2   -1    0    0    0  501 -0.00000000000E+00  0.00000000000E+00  0.22119795152E+04  0.22119795152E+04  0.25500000000E-02 0.  1.
          2   -1    0    0  501    0  0.00000000000E+00 -0.00000000000E+00 -0.20085275480E+04  0.20085275480E+04  0.25500000000E-02 0. -1.
    8880022    1    1    2    0    0 -0.15111615000E+04  0.19644212086E+03  0.15515937029E+04  0.21801452378E+04  0.15294330000E+03 0.  0.
    8880022    1    1    2    0    0  0.15111615000E+04 -0.19644212086E+03 -0.13481417356E+04  0.20403618254E+04  0.15294330000E+03 0.  0.
<mgrwt>
<rscale>  0 0.15315320E+04</rscale>
<asrwt>0</asrwt>
<pdfrwt beam="1">  1        2 0.30900424E+00 0.15315320E+04</pdfrwt>
<pdfrwt beam="2">  1       -2 0.34030454E+00 0.15315320E+04</pdfrwt>
<totfact> 0.11064414E-01</totfact>
</mgrwt>
</event>
<event>
 4    1  0.1726795E-008  0.9312120E+03  0.7818608E-02  0.9387385E-01
         -2   -1    0    0    0  501 -0.00000000000E+00  0.00000000000E+00  0.10119351676E+04  0.10119351676E+04  0.25500000000E-02 0.  1.
          2   -1    0    0  501    0  0.00000000000E+00 -0.00000000000E+00 -0.88229399897E+03  0.88229399898E+03  0.25500000000E-02 0. -1.
    8880022    1    1    2    0    0 -0.68347376583E+03  0.61369997310E+03 -0.95770280671E+02  0.93612373393E+03  0.15294330000E+03 0.  1.
    8880022    1    1    2    0    0  0.68347376583E+03 -0.61369997310E+03  0.22541144927E+03  0.95810543263E+03  0.15294330000E+03 0.  0.
<mgrwt>
<rscale>  0 0.93121195E+03</rscale>
<asrwt>0</asrwt>
<pdfrwt beam="1">  1        2 0.13573754E+00 0.93121195E+03</pdfrwt>
<pdfrwt beam="2">  1       -2 0.15568233E+00 0.93121195E+03</pdfrwt>
<totfact> 0.81612184E+00</totfact>
</mgrwt>
</event>
<event>
 4    1  0.4200237E-008  0.1069837E+04  0.7818608E-02  0.9235100E-01
         -2   -1    0    0    0  501 -0.00000000000E+00  0.00000000000E+00  0.15396499875E+04  0.15396499875E+04  0.25500000000E-02 0.  1.
          2   -1    0    0  501    0  0.00000000000E+00 -0.00000000000E+00 -0.23268513297E+04  0.23268513297E+04  0.25500000000E-02 0. -1.
    8880022    1    1    2    0    0  0.45385077157E+03  0.95665021449E+03  0.12012071082E+04  0.16085553536E+04  0.15294330000E+03 0.  0.
    8880022    1    1    2    0    0 -0.45385077157E+03 -0.95665021449E+03 -0.19884084505E+04  0.22579459636E+04  0.15294330000E+03 0.  0.
<mgrwt>
<rscale>  0 0.10698373E+04</rscale>
<asrwt>0</asrwt>
<pdfrwt beam="1">  1        2 0.35797713E+00 0.10698373E+04</pdfrwt>
<pdfrwt beam="2">  1       -2 0.23686923E+00 0.10698373E+04</pdfrwt>
<totfact> 0.33727161E-01</totfact>
</mgrwt>
</event>
<event>
 4    1  0.1726795E-008  0.3152686E+03  0.7818608E-02  0.1077848E+00
          2   -1    0    0  501    0  0.00000000000E+00  0.00000000000E+00  0.23640399008E+04  0.23640399008E+04  0.25500000000E-02 0. -1.
         -2   -1    0    0    0  501 -0.00000000000E+00 -0.00000000000E+00 -0.33183410136E+03  0.33183410137E+03  0.25500000000E-02 0.  1.
    8880022    1    1    2    0    0  0.10632757283E+02 -0.27548059264E+03  0.22757551871E+04  0.22974890505E+04  0.15294330000E+03 0.  0.
    8880022    1    1    2    0    0 -0.10632757283E+02  0.27548059264E+03 -0.24354938770E+03  0.39838495166E+03  0.15294330000E+03 0.  1.
<mgrwt>
<rscale>  0 0.31526856E+03</rscale>
<asrwt>0</asrwt>
<pdfrwt beam="1">  1        2 0.36369845E+00 0.31526856E+03</pdfrwt>
<pdfrwt beam="2">  1       -2 0.51051400E-01 0.31526856E+03</pdfrwt>
<totfact> 0.17466490E+01</totfact>
</mgrwt>
</event>
<event>
 4    1  0.1726795E-008  0.6705235E+03  0.7818608E-02  0.9769013E-01
          2   -1    0    0  501    0  0.00000000000E+00  0.00000000000E+00  0.72070906819E+03  0.72070906820E+03  0.25500000000E-02 0. -1.
         -2   -1    0    0    0  501 -0.00000000000E+00 -0.00000000000E+00 -0.18209453514E+04  0.18209453514E+04  0.25500000000E-02 0.  1.
    8880022    1    1    2    0    0 -0.37853881063E+03  0.53190086028E+03  0.48028121270E+03  0.82478594351E+03  0.15294330000E+03 0.  0.
    8880022    1    1    2    0    0  0.37853881063E+03 -0.53190086028E+03 -0.15805174959E+04  0.17168684761E+04  0.15294330000E+03 0.  0.
<mgrwt>
<rscale>  0 0.67052353E+03</rscale>
<asrwt>0</asrwt>
<pdfrwt beam="1">  1        2 0.11087832E+00 0.67052353E+03</pdfrwt>
<pdfrwt beam="2">  1       -2 0.28014544E+00 0.67052353E+03</pdfrwt>
<totfact> 0.17468139E+00</totfact>
</mgrwt>
</event>
<event>
 4    1  0.1726795E-008  0.2691052E+03  0.7818608E-02  0.1101793E+00
         -2   -1    0    0    0  501 -0.00000000000E+00  0.00000000000E+00  0.29468918930E+03  0.29468918931E+03  0.25500000000E-02 0.  1.
          2   -1    0    0  501    0  0.00000000000E+00 -0.00000000000E+00 -0.25335121000E+04  0.25335121000E+04  0.25500000000E-02 0. -1.
    8880022    1    1    2    0    0  0.21832030911E+03 -0.36908046354E+02 -0.24631815922E+04  0.24778380032E+04  0.15294330000E+03 0.  0.
    8880022    1    1    2    0    0 -0.21832030911E+03  0.36908046354E+02  0.22435868148E+03  0.35036328607E+03  0.15294330000E+03 0.  0.
<mgrwt>
<rscale>  0 0.26910521E+03</rscale>
<asrwt>0</asrwt>
<pdfrwt beam="1">  1        2 0.38977108E+00 0.26910521E+03</pdfrwt>
<pdfrwt beam="2">  1       -2 0.45336800E-01 0.26910521E+03</pdfrwt>
<totfact> 0.18222074E+01</totfact>
</mgrwt>
</event>
<event>
 4    1  0.1726795E-008  0.7094804E+03  0.7818608E-02  0.9701155E-01
          2   -1    0    0  501    0  0.00000000000E+00  0.00000000000E+00  0.10677567096E+04  0.10677567096E+04  0.25500000000E-02 0. -1.
         -2   -1    0    0    0  501 -0.00000000000E+00 -0.00000000000E+00 -0.52868668554E+03  0.52868668554E+03  0.25500000000E-02 0.  1.
    8880022    1    1    2    0    0 -0.22582041643E+02  0.69243110658E+03  0.68269875973E+01  0.70951324634E+03  0.15294330000E+03 0.  0.
    8880022    1    1    2    0    0  0.22582041643E+02 -0.69243110658E+03  0.53224303646E+03  0.88693014879E+03  0.15294330000E+03 0.  0.
<mgrwt>
<rscale>  0 0.70948040E+03</rscale>
<asrwt>0</asrwt>
<pdfrwt beam="1">  1        2 0.16427026E+00 0.70948040E+03</pdfrwt>
<pdfrwt beam="2">  1       -2 0.81336415E-01 0.70948040E+03</pdfrwt>
<totfact> 0.31021552E+01</totfact>
</mgrwt>
</event>
<event>
 4    1  0.1726795E-008  0.5854851E+03  0.7818608E-02  0.9935986E-01
          2   -1    0    0  501    0  0.00000000000E+00  0.00000000000E+00  0.74540594202E+03  0.74540594202E+03  0.25500000000E-02 0. -1.
         -2   -1    0    0    0  501 -0.00000000000E+00 -0.00000000000E+00 -0.51705407476E+03  0.51705407477E+03  0.25500000000E-02 0.  1.
    8880022    1    1    2    0    0  0.36328167463E+03 -0.43292904682E+03 -0.95738421167E+02  0.59326101592E+03  0.15294330000E+03 0.  0.
    8880022    1    1    2    0    0 -0.36328167463E+03  0.43292904682E+03  0.32409028843E+03  0.66919900087E+03  0.15294330000E+03 0.  0.
<mgrwt>
<rscale>  0 0.58548509E+03</rscale>
<asrwt>0</asrwt>
<pdfrwt beam="1">  1        2 0.11467784E+00 0.58548509E+03</pdfrwt>
<pdfrwt beam="2">  1       -2 0.79546781E-01 0.58548509E+03</pdfrwt>
<totfact> 0.54376101E+01</totfact>
</mgrwt>
</event>
<event>
 4    1  0.1726795E-008  0.1691705E+04  0.7818608E-02  0.8766110E-01
          2   -1    0    0  501    0  0.00000000000E+00  0.00000000000E+00  0.13642364949E+04  0.13642364949E+04  0.25500000000E-02 0. -1.
         -2   -1    0    0    0  501 -0.00000000000E+00 -0.00000000000E+00 -0.37474808935E+04  0.37474808935E+04  0.25500000000E-02 0.  1.
    8880022    1    1    2    0    0  0.15268816443E+04 -0.71211337359E+03  0.50415993500E+03  0.17652314028E+04  0.15294330000E+03 0.  0.
    8880022    1    1    2    0    0 -0.15268816443E+04  0.71211337359E+03 -0.28874043336E+04  0.33464859855E+04  0.15294330000E+03 0.  0.
<mgrwt>
<rscale>  0 0.16917047E+04</rscale>
<asrwt>0</asrwt>
<pdfrwt beam="1">  1        2 0.20988254E+00 0.16917047E+04</pdfrwt>
<pdfrwt beam="2">  1       -2 0.57653552E+00 0.16917047E+04</pdfrwt>
<totfact> 0.86602322E-03</totfact>
</mgrwt>
</event>
<event>
 4    1  0.1726795E-008  0.7639784E+03  0.7818608E-02  0.9613672E-01
         -2   -1    0    0    0  501 -0.00000000000E+00  0.00000000000E+00  0.71999738871E+03  0.71999738871E+03  0.25500000000E-02 0.  1.
          2   -1    0    0  501    0  0.00000000000E+00 -0.00000000000E+00 -0.12798594170E+04  0.12798594170E+04  0.25500000000E-02 0. -1.
    8880022    1    1    2    0    0 -0.57765563398E+03 -0.47600974937E+03 -0.88537365605E+03  0.11694227109E+04  0.15294330000E+03 0.  0.
    8880022    1    1    2    0    0  0.57765563398E+03  0.47600974937E+03  0.32551162777E+03  0.83043409479E+03  0.15294330000E+03 0.  0.
<mgrwt>
<rscale>  0 0.76397838E+03</rscale>
<asrwt>0</asrwt>
<pdfrwt beam="1">  1        2 0.19690145E+00 0.76397838E+03</pdfrwt>
<pdfrwt beam="2">  1       -2 0.11076883E+00 0.76397838E+03</pdfrwt>
<totfact> 0.11182792E+01</totfact>
</mgrwt>
</event>
<event>
 4    1  0.1726795E-008  0.1162329E+04  0.7818608E-02  0.9146484E-01
         -2   -1    0    0    0  501 -0.00000000000E+00  0.00000000000E+00  0.93579720804E+03  0.93579720805E+03  0.25500000000E-02 0.  1.
          2   -1    0    0  501    0  0.00000000000E+00 -0.00000000000E+00 -0.38255061258E+04  0.38255061258E+04  0.25500000000E-02 0. -1.
    8880022    1    1    2    0    0 -0.11495890511E+04  0.77859137428E+02  0.43361776541E+03  0.12405777087E+04  0.15294330000E+03 0.  0.
    8880022    1    1    2    0    0  0.11495890511E+04 -0.77859137428E+02 -0.33233266831E+04  0.35207256252E+04  0.15294330000E+03 0.  0.
<mgrwt>
<rscale>  0 0.11623290E+04</rscale>
<asrwt>0</asrwt>
<pdfrwt beam="1">  1        2 0.58853939E+00 0.11623290E+04</pdfrwt>
<pdfrwt beam="2">  1       -2 0.14396880E+00 0.11623290E+04</pdfrwt>
<totfact> 0.15834662E-01</totfact>
</mgrwt>
</event>
<event>
 4    1  0.1726795E-008  0.3859107E+03  0.7818608E-02  0.1048771E+00
         -2   -1    0    0    0  501 -0.00000000000E+00  0.00000000000E+00  0.77302286514E+03  0.77302286515E+03  0.25500000000E-02 0.  1.
          2   -1    0    0  501    0  0.00000000000E+00 -0.00000000000E+00 -0.13235825095E+04  0.13235825095E+04  0.25500000000E-02 0. -1.
    8880022    1    1    2    0    0  0.26707747084E+03  0.23281969429E+03  0.69373070326E+03  0.79384464925E+03  0.15294330000E+03 0.  0.
    8880022    1    1    2    0    0 -0.26707747084E+03 -0.23281969429E+03 -0.12442903476E+04  0.13027607254E+04  0.15294330000E+03 0.  0.
<mgrwt>
<rscale>  0 0.38591066E+03</rscale>
<asrwt>0</asrwt>
<pdfrwt beam="1">  1        2 0.20362808E+00 0.38591066E+03</pdfrwt>
<pdfrwt beam="2">  1       -2 0.11892659E+00 0.38591066E+03</pdfrwt>
<totfact> 0.95003677E+00</totfact>
</mgrwt>
</event>
<event>
 4    1  0.1726795E-008  0.4588801E+03  0.7818608E-02  0.1025107E+00
          2   -1    0    0  501    0  0.00000000000E+00  0.00000000000E+00  0.23517320355E+04  0.23517320355E+04  0.25500000000E-02 0. -1.
         -2   -1    0    0    0  501 -0.00000000000E+00 -0.00000000000E+00 -0.19355254533E+03  0.19355254535E+03  0.25500000000E-02 0.  1.
    8880022    1    1    2    0    0 -0.43264137086E+03 -0.87308233232E+00  0.20120272130E+04  0.20636919530E+04  0.15294330000E+03 0.  0.
    8880022    1    1    2    0    0  0.43264137086E+03  0.87308233232E+00  0.14615227716E+03  0.48159262784E+03  0.15294330000E+03 0.  0.
<mgrwt>
<rscale>  0 0.45888013E+03</rscale>
<asrwt>0</asrwt>
<pdfrwt beam="1">  1        2 0.36180494E+00 0.45888013E+03</pdfrwt>
<pdfrwt beam="2">  1       -2 0.29777314E-01 0.45888013E+03</pdfrwt>
<totfact> 0.47980736E+01</totfact>
</mgrwt>
</event>
<event>
 4    1  0.1726795E-008  0.4898341E+03  0.7818608E-02  0.1016467E+00
         -2   -1    0    0    0  501 -0.00000000000E+00  0.00000000000E+00  0.92411265485E+02  0.92411265520E+02  0.25500000000E-02 0.  1.
          2   -1    0    0  501    0  0.00000000000E+00 -0.00000000000E+00 -0.30866869044E+04  0.30866869044E+04  0.25500000000E-02 0. -1.
    8880022    1    1    2    0    0 -0.45331170453E+03  0.10513919220E+03 -0.86363435721E+03  0.99287547415E+03  0.15294330000E+03 0.  0.
    8880022    1    1    2    0    0  0.45331170453E+03 -0.10513919220E+03 -0.21306412817E+04  0.21862226958E+04  0.15294330000E+03 0.  0.
<mgrwt>
<rscale>  0 0.48983406E+03</rscale>
<asrwt>0</asrwt>
<pdfrwt beam="1">  1        2 0.47487483E+00 0.48983406E+03</pdfrwt>
<pdfrwt beam="2">  1       -2 0.14217120E-01 0.48983406E+03</pdfrwt>
<totfact> 0.65191316E+01</totfact>
</mgrwt>
</event>
<event>
 4    1  0.1726795E-008  0.4664818E+03  0.7818608E-02  0.1022918E+00
         -2   -1    0    0    0  501 -0.00000000000E+00  0.00000000000E+00  0.65860809630E+03  0.65860809630E+03  0.25500000000E-02 0.  1.
          2   -1    0    0  501    0  0.00000000000E+00 -0.00000000000E+00 -0.74728884663E+03  0.74728884664E+03  0.25500000000E-02 0. -1.
    8880022    1    1    2    0    0  0.42675258694E+03  0.10998090644E+03 -0.56937567371E+03  0.73606649229E+03  0.15294330000E+03 0.  0.
    8880022    1    1    2    0    0 -0.42675258694E+03 -0.10998090644E+03  0.48069492338E+03  0.66983045065E+03  0.15294330000E+03 0.  0.
<mgrwt>
<rscale>  0 0.46648175E+03</rscale>
<asrwt>0</asrwt>
<pdfrwt beam="1">  1        2 0.11496751E+00 0.46648175E+03</pdfrwt>
<pdfrwt beam="2">  1       -2 0.10132432E+00 0.46648175E+03</pdfrwt>
<totfact> 0.31532457E+01</totfact>
</mgrwt>
</event>
<event>
 4    1  0.1726795E-008  0.1500946E+04  0.7818608E-02  0.8883824E-01
         -2   -1    0    0    0  501 -0.00000000000E+00  0.00000000000E+00  0.14220696475E+04  0.14220696475E+04  0.25500000000E-02 0.  1.
          2   -1    0    0  501    0  0.00000000000E+00 -0.00000000000E+00 -0.23569143958E+04  0.23569143958E+04  0.25500000000E-02 0. -1.
    8880022    1    1    2    0    0  0.92203963741E+03  0.11744324312E+04 -0.15493124686E+04  0.21571299003E+04  0.15294330000E+03 0.  0.
    8880022    1    1    2    0    0 -0.92203963741E+03 -0.11744324312E+04  0.61446772034E+03  0.16218541429E+04  0.15294330000E+03 0.  0.
<mgrwt>
<rscale>  0 0.15009465E+04</rscale>
<asrwt>0</asrwt>
<pdfrwt beam="1">  1        2 0.36260221E+00 0.15009465E+04</pdfrwt>
<pdfrwt beam="2">  1       -2 0.21877995E+00 0.15009465E+04</pdfrwt>
<totfact> 0.39716538E-01</totfact>
</mgrwt>
</event>
<event>
 4    1  0.2328998E-008  0.9517695E+03  0.7818608E-02  0.9363085E-01
          2   -1    0    0  501    0  0.00000000000E+00  0.00000000000E+00  0.33973330082E+04  0.33973330082E+04  0.25500000000E-02 0. -1.
         -2   -1    0    0    0  501 -0.00000000000E+00 -0.00000000000E+00 -0.10482901021E+04  0.10482901021E+04  0.25500000000E-02 0.  1.
    8880022    1    1    2    0    0 -0.49411369588E+03  0.79895253976E+03 -0.74488996656E+03  0.12086050722E+04  0.15294330000E+03 0.  0.
    8880022    1    1    2    0    0  0.49411369588E+03 -0.79895253976E+03  0.30939328727E+04  0.32370180381E+04  0.15294330000E+03 0.  0.
<mgrwt>
<rscale>  0 0.95176949E+03</rscale>
<asrwt>0</asrwt>
<pdfrwt beam="1">  1        2 0.52266662E+00 0.95176949E+03</pdfrwt>
<pdfrwt beam="2">  1       -2 0.16127540E+00 0.95176949E+03</pdfrwt>
<totfact> 0.24481230E-01</totfact>
</mgrwt>
</event>
<event>
 4    1  0.1726795E-008  0.5808736E+03  0.7818608E-02  0.9945901E-01
          2   -1    0    0  501    0  0.00000000000E+00  0.00000000000E+00  0.25204384227E+04  0.25204384227E+04  0.25500000000E-02 0. -1.
         -2   -1    0    0    0  501 -0.00000000000E+00 -0.00000000000E+00 -0.14440365106E+03  0.14440365108E+03  0.25500000000E-02 0.  1.
    8880022    1    1    2    0    0  0.51179115124E+03 -0.22823743518E+03  0.82817133430E+03  0.10115739821E+04  0.15294330000E+03 0.  0.
    8880022    1    1    2    0    0 -0.51179115124E+03  0.22823743518E+03  0.15478634374E+04  0.16532680917E+04  0.15294330000E+03 0.  0.
<mgrwt>
<rscale>  0 0.58087362E+03</rscale>
<asrwt>0</asrwt>
<pdfrwt beam="1">  1        2 0.38775972E+00 0.58087362E+03</pdfrwt>
<pdfrwt beam="2">  1       -2 0.22215948E-01 0.58087362E+03</pdfrwt>
<totfact> 0.64010384E+01</totfact>
</mgrwt>
</event>
<event>
 4    1  0.1726795E-008  0.7562629E+03  0.7818608E-02  0.9625576E-01
          2   -1    0    0  501    0  0.00000000000E+00  0.00000000000E+00  0.21052331274E+04  0.21052331274E+04  0.25500000000E-02 0. -1.
         -2   -1    0    0    0  501 -0.00000000000E+00 -0.00000000000E+00 -0.39444162095E+03  0.39444162096E+03  0.25500000000E-02 0.  1.
    8880022    1    1    2    0    0  0.29061110320E+03  0.68123935830E+03  0.15811598609E+03  0.77261516597E+03  0.15294330000E+03 0.  0.
    8880022    1    1    2    0    0 -0.29061110320E+03 -0.68123935830E+03  0.15526755204E+04  0.17270595824E+04  0.15294330000E+03 0.  0.
<mgrwt>
<rscale>  0 0.75626287E+03</rscale>
<asrwt>0</asrwt>
<pdfrwt beam="1">  1        2 0.32388202E+00 0.75626287E+03</pdfrwt>
<pdfrwt beam="2">  1       -2 0.60683326E-01 0.75626287E+03</pdfrwt>
<totfact> 0.15291936E+01</totfact>
</mgrwt>
</event>
<event>
 4    1  0.1726795E-008  0.3680652E+03  0.7818608E-02  0.1055435E+00
          2   -1    0    0  501    0  0.00000000000E+00  0.00000000000E+00  0.10630021293E+04  0.10630021293E+04  0.25500000000E-02 0. -1.
         -2   -1    0    0    0  501 -0.00000000000E+00 -0.00000000000E+00 -0.47212693840E+03  0.47212693840E+03  0.25500000000E-02 0.  1.
    8880022    1    1    2    0    0 -0.20944834127E+02 -0.33412820476E+03  0.95127493830E+03  0.10199980414E+04  0.15294330000E+03 0. -1.
    8880022    1    1    2    0    0  0.20944834127E+02  0.33412820476E+03 -0.36039974739E+03  0.51513102627E+03  0.15294330000E+03 0.  0.
<mgrwt>
<rscale>  0 0.36806521E+03</rscale>
<asrwt>0</asrwt>
<pdfrwt beam="1">  1        2 0.16353879E+00 0.36806521E+03</pdfrwt>
<pdfrwt beam="2">  1       -2 0.72634914E-01 0.36806521E+03</pdfrwt>
<totfact> 0.42077916E+01</totfact>
</mgrwt>
</event>
<event>
 4    1  0.1726795E-008  0.5561643E+03  0.7818608E-02  0.1000077E+00
         -2   -1    0    0    0  501 -0.00000000000E+00  0.00000000000E+00  0.14381854947E+03  0.14381854949E+03  0.25500000000E-02 0.  1.
          2   -1    0    0  501    0  0.00000000000E+00 -0.00000000000E+00 -0.31707773039E+04  0.31707773039E+04  0.25500000000E-02 0. -1.
    8880022    1    1    2    0    0  0.47880467324E+03 -0.23806132681E+03 -0.57349181304E+03  0.79888148250E+03  0.15294330000E+03 0.  1.
    8880022    1    1    2    0    0 -0.47880467324E+03  0.23806132681E+03 -0.24534669414E+04  0.25157143709E+04  0.15294330000E+03 0.  0.
<mgrwt>
<rscale>  0 0.55616433E+03</rscale>
<asrwt>0</asrwt>
<pdfrwt beam="1">  1        2 0.48781184E+00 0.55616433E+03</pdfrwt>
<pdfrwt beam="2">  1       -2 0.22125933E-01 0.55616433E+03</pdfrwt>
<totfact> 0.26689308E+01</totfact>
</mgrwt>
</event>
<event>
 4    1  0.1726795E-008  0.8473689E+03  0.7818608E-02  0.9493875E-01
         -2   -1    0    0    0  501 -0.00000000000E+00  0.00000000000E+00  0.10797135497E+04  0.10797135497E+04  0.25500000000E-02 0.  1.
          2   -1    0    0  501    0  0.00000000000E+00 -0.00000000000E+00 -0.21207504048E+04  0.21207504048E+04  0.25500000000E-02 0. -1.
    8880022    1    1    2    0    0  0.59430697287E+03  0.58433011272E+03 -0.18463190738E+04  0.20314842441E+04  0.15294330000E+03 0.  0.
    8880022    1    1    2    0    0 -0.59430697287E+03 -0.58433011272E+03  0.80528221869E+03  0.11689797104E+04  0.15294330000E+03 0.  0.
<mgrwt>
<rscale>  0 0.84736893E+03</rscale>
<asrwt>0</asrwt>
<pdfrwt beam="1">  1        2 0.32626929E+00 0.84736893E+03</pdfrwt>
<pdfrwt beam="2">  1       -2 0.16610978E+00 0.84736893E+03</pdfrwt>
<totfact> 0.13312389E+00</totfact>
</mgrwt>
</event>
<event>
 4    1  0.1726795E-008  0.1592354E+04  0.7818608E-02  0.8825259E-01
          2   -1    0    0  501    0  0.00000000000E+00  0.00000000000E+00  0.23010412467E+04  0.23010412467E+04  0.25500000000E-02 0. -1.
         -2   -1    0    0    0  501 -0.00000000000E+00 -0.00000000000E+00 -0.16035175890E+04  0.16035175890E+04  0.25500000000E-02 0.  1.
    8880022    1    1    2    0    0  0.15608220457E+04  0.27574450843E+03 -0.74312447429E+03  0.17572211385E+04  0.15294330000E+03 0.  0.
    8880022    1    1    2    0    0 -0.15608220457E+04 -0.27574450843E+03  0.14406481321E+04  0.21473376972E+04  0.15294330000E+03 0.  0.
<mgrwt>
<rscale>  0 0.15923543E+04</rscale>
<asrwt>0</asrwt>
<pdfrwt beam="1">  1        2 0.35400634E+00 0.15923543E+04</pdfrwt>
<pdfrwt beam="2">  1       -2 0.24669502E+00 0.15923543E+04</pdfrwt>
<totfact> 0.28286635E-01</totfact>
</mgrwt>
</event>
<event>
 4    1  0.1726795E-008  0.3903468E+03  0.7818608E-02  0.1047174E+00
         -2   -1    0    0    0  501 -0.00000000000E+00  0.00000000000E+00  0.37201287279E+03  0.37201287280E+03  0.25500000000E-02 0.  1.
          2   -1    0    0  501    0  0.00000000000E+00 -0.00000000000E+00 -0.12744300351E+04  0.12744300351E+04  0.25500000000E-02 0. -1.
    8880022    1    1    2    0    0 -0.19738953642E+03 -0.30002730050E+03  0.22694488219E+03  0.45152479744E+03  0.15294330000E+03 0.  0.
    8880022    1    1    2    0    0  0.19738953642E+03  0.30002730050E+03 -0.11293620445E+04  0.11949181104E+04  0.15294330000E+03 0.  0.
<mgrwt>
<rscale>  0 0.39034685E+03</rscale>
<asrwt>0</asrwt>
<pdfrwt beam="1">  1        2 0.19606616E+00 0.39034685E+03</pdfrwt>
<pdfrwt beam="2">  1       -2 0.57232750E-01 0.39034685E+03</pdfrwt>
<totfact> 0.52296481E+01</totfact>
</mgrwt>
</event>
<event>
 4    1  0.1726795E-008  0.1131624E+04  0.7818608E-02  0.9174906E-01
         -2   -1    0    0    0  501 -0.00000000000E+00  0.00000000000E+00  0.91843932434E+03  0.91843932435E+03  0.25500000000E-02 0.  1.
          2   -1    0    0  501    0  0.00000000000E+00 -0.00000000000E+00 -0.15992009837E+04  0.15992009837E+04  0.25500000000E-02 0. -1.
    8880022    1    1    2    0    0  0.11188957486E+04  0.72473484269E+02  0.11022171563E+03  0.11369787077E+04  0.15294330000E+03 0.  0.
    8880022    1    1    2    0    0 -0.11188957486E+04 -0.72473484269E+02 -0.79098337494E+03  0.13806616003E+04  0.15294330000E+03 0.  0.
<mgrwt>
<rscale>  0 0.11316235E+04</rscale>
<asrwt>0</asrwt>
<pdfrwt beam="1">  1        2 0.24603092E+00 0.11316235E+04</pdfrwt>
<pdfrwt beam="2">  1       -2 0.14129836E+00 0.11316235E+04</pdfrwt>
<totfact> 0.38336949E+00</totfact>
</mgrwt>
</event>
<event>
 4    1  0.1726795E-008  0.1168651E+04  0.7818608E-02  0.9140748E-01
          2   -1    0    0  501    0  0.00000000000E+00  0.00000000000E+00  0.26317176366E+04  0.26317176366E+04  0.25500000000E-02 0. -1.
         -2   -1    0    0    0  501 -0.00000000000E+00 -0.00000000000E+00 -0.70364923272E+03  0.70364923273E+03  0.25500000000E-02 0.  1.
    8880022    1    1    2    0    0 -0.84319013660E+03 -0.79459675193E+03  0.18184340764E+04  0.21615845456E+04  0.15294330000E+03 0.  0.
    8880022    1    1    2    0    0  0.84319013660E+03  0.79459675193E+03  0.10963432745E+03  0.11737823237E+04  0.15294330000E+03 0.  0.
<mgrwt>
<rscale>  0 0.11686510E+04</rscale>
<asrwt>0</asrwt>
<pdfrwt beam="1">  1        2 0.40487964E+00 0.11686510E+04</pdfrwt>
<pdfrwt beam="2">  1       -2 0.10825373E+00 0.11686510E+04</pdfrwt>
<totfact> 0.19664690E+00</totfact>
</mgrwt>
</event>
<event>
 4    1  0.1726795E-008  0.3758499E+03  0.7818608E-02  0.1052478E+00
         -2   -1    0    0    0  501 -0.00000000000E+00  0.00000000000E+00  0.27067424584E+03  0.27067424586E+03  0.25500000000E-02 0.  1.
          2   -1    0    0  501    0  0.00000000000E+00 -0.00000000000E+00 -0.15880505196E+04  0.15880505196E+04  0.25500000000E-02 0. -1.
    8880022    1    1    2    0    0 -0.24632639989E+03  0.23915441593E+03  0.10280058898E+03  0.38965516043E+03  0.15294330000E+03 0.  0.
    8880022    1    1    2    0    0  0.24632639989E+03 -0.23915441593E+03 -0.14201768628E+04  0.14690696051E+04  0.15294330000E+03 0. -1.
<mgrwt>
<rscale>  0 0.37584995E+03</rscale>
<asrwt>0</asrwt>
<pdfrwt beam="1">  1        2 0.24431546E+00 0.37584995E+03</pdfrwt>
<pdfrwt beam="2">  1       -2 0.41642192E-01 0.37584995E+03</pdfrwt>
<totfact> 0.66707470E+01</totfact>
</mgrwt>
</event>
<event>
 4    1  0.1726795E-008  0.3500836E+03  0.7818608E-02  0.1062581E+00
         -2   -1    0    0    0  501 -0.00000000000E+00  0.00000000000E+00  0.16835867295E+04  0.16835867295E+04  0.25500000000E-02 0.  1.
          2   -1    0    0  501    0  0.00000000000E+00 -0.00000000000E+00 -0.19805499783E+04  0.19805499783E+04  0.25500000000E-02 0. -1.
    8880022    1    1    2    0    0  0.20605790115E+03 -0.23813240455E+03  0.16496022332E+04  0.16863410335E+04  0.15294330000E+03 0.  0.
    8880022    1    1    2    0    0 -0.20605790115E+03  0.23813240455E+03 -0.19465654820E+04  0.19777956743E+04  0.15294330000E+03 0. -1.
<mgrwt>
<rscale>  0 0.35008364E+03</rscale>
<asrwt>0</asrwt>
<pdfrwt beam="1">  1        2 0.30470000E+00 0.35008364E+03</pdfrwt>
<pdfrwt beam="2">  1       -2 0.25901334E+00 0.35008364E+03</pdfrwt>
<totfact> 0.46899499E-01</totfact>
</mgrwt>
</event>
<event>
 4    1  0.1726795E-008  0.3347871E+03  0.7818608E-02  0.1069038E+00
          2   -1    0    0  501    0  0.00000000000E+00  0.00000000000E+00  0.11568931029E+04  0.11568931029E+04  0.25500000000E-02 0. -1.
         -2   -1    0    0    0  501 -0.00000000000E+00 -0.00000000000E+00 -0.98956905578E+03  0.98956905578E+03  0.25500000000E-02 0.  1.
    8880022    1    1    2    0    0 -0.89283755051E+02 -0.28411120779E+03  0.11030036102E+04  0.11526922331E+04  0.15294330000E+03 0. -1.
    8880022    1    1    2    0    0  0.89283755051E+02  0.28411120779E+03 -0.93567956301E+03  0.99376992556E+03  0.15294330000E+03 0.  0.
<mgrwt>
<rscale>  0 0.33478713E+03</rscale>
<asrwt>0</asrwt>
<pdfrwt beam="1">  1        2 0.17798355E+00 0.33478713E+03</pdfrwt>
<pdfrwt beam="2">  1       -2 0.15224139E+00 0.33478713E+03</pdfrwt>
<totfact> 0.64296086E+00</totfact>
</mgrwt>
</event>
<event>
 4    1  0.1726795E-008  0.1085778E+04  0.7818608E-02  0.9219165E-01
         -2   -1    0    0    0  501 -0.00000000000E+00  0.00000000000E+00  0.13890704018E+04  0.13890704018E+04  0.25500000000E-02 0.  1.
          2   -1    0    0  501    0  0.00000000000E+00 -0.00000000000E+00 -0.18254287589E+04  0.18254287589E+04  0.25500000000E-02 0. -1.
    8880022    1    1    2    0    0 -0.96225055123E+03  0.47916190909E+03  0.95749312217E+03  0.14476556878E+04  0.15294330000E+03 0.  0.
    8880022    1    1    2    0    0  0.96225055123E+03 -0.47916190909E+03 -0.13938514792E+04  0.17668434729E+04  0.15294330000E+03 0.  0.
<mgrwt>
<rscale>  0 0.10857780E+04</rscale>
<asrwt>0</asrwt>
<pdfrwt beam="1">  1        2 0.28083520E+00 0.10857780E+04</pdfrwt>
<pdfrwt beam="2">  1       -2 0.21370314E+00 0.10857780E+04</pdfrwt>
<totfact> 0.89208616E-01</totfact>
</mgrwt>
</event>
<event>
 4    1  0.1726795E-008  0.8107093E+03  0.7818608E-02  0.9544644E-01
          2   -1    0    0  501    0  0.00000000000E+00  0.00000000000E+00  0.31155895009E+04  0.31155895009E+04  0.25500000000E-02 0. -1.
         -2   -1    0    0    0  501 -0.00000000000E+00 -0.00000000000E+00 -0.47383536058E+03  0.47383536059E+03  0.25500000000E-02 0.  1.
    8880022    1    1    2    0    0 -0.77741872560E+03 -0.17169159906E+03  0.26576576119E+04  0.27785596116E+04  0.15294330000E+03 0.  0.
    8880022    1    1    2    0    0  0.77741872560E+03  0.17169159906E+03 -0.15903471560E+02  0.81086524992E+03  0.15294330000E+03 0.  0.
<mgrwt>
<rscale>  0 0.81070928E+03</rscale>
<asrwt>0</asrwt>
<pdfrwt beam="1">  1        2 0.47932147E+00 0.81070928E+03</pdfrwt>
<pdfrwt beam="2">  1       -2 0.72897746E-01 0.81070928E+03</pdfrwt>
<totfact> 0.26473221E+00</totfact>
</mgrwt>
</event>
<event>
 4    1  0.1726795E-008  0.1227695E+04  0.7818608E-02  0.9088955E-01
         -2   -1    0    0    0  501 -0.00000000000E+00  0.00000000000E+00  0.11614120947E+04  0.11614120947E+04  0.25500000000E-02 0.  1.
          2   -1    0    0  501    0  0.00000000000E+00 -0.00000000000E+00 -0.24631352725E+04  0.24631352725E+04  0.25500000000E-02 0. -1.
    8880022    1    1    2    0    0  0.44004071967E+03 -0.11358730338E+04  0.59569618379E+03  0.13645838121E+04  0.15294330000E+03 0.  0.
    8880022    1    1    2    0    0 -0.44004071967E+03  0.11358730338E+04 -0.18974193615E+04  0.22599635551E+04  0.15294330000E+03 0.  0.
<mgrwt>
<rscale>  0 0.12276950E+04</rscale>
<asrwt>0</asrwt>
<pdfrwt beam="1">  1        2 0.37894389E+00 0.12276950E+04</pdfrwt>
<pdfrwt beam="2">  1       -2 0.17867879E+00 0.12276950E+04</pdfrwt>
<totfact> 0.65826113E-01</totfact>
</mgrwt>
</event>
<event>
 4    1  0.1726795E-008  0.1369564E+04  0.7818608E-02  0.8976149E-01
         -2   -1    0    0    0  501 -0.00000000000E+00  0.00000000000E+00  0.16852608448E+04  0.16852608448E+04  0.25500000000E-02 0.  1.
          2   -1    0    0  501    0  0.00000000000E+00 -0.00000000000E+00 -0.21853156160E+04  0.21853156160E+04  0.25500000000E-02 0. -1.
    8880022    1    1    2    0    0 -0.12051017966E+04 -0.63249029648E+03 -0.16056805953E+04  0.21104303216E+04  0.15294330000E+03 0.  0.
    8880022    1    1    2    0    0  0.12051017966E+04  0.63249029648E+03  0.11056258241E+04  0.17601461392E+04  0.15294330000E+03 0.  0.
<mgrwt>
<rscale>  0 0.13695642E+04</rscale>
<asrwt>0</asrwt>
<pdfrwt beam="1">  1        2 0.33620240E+00 0.13695642E+04</pdfrwt>
<pdfrwt beam="2">  1       -2 0.25927090E+00 0.13695642E+04</pdfrwt>
<totfact> 0.28255096E-01</totfact>
</mgrwt>
</event>
<event>
 4    1  0.1726795E-008  0.1191400E+04  0.7818608E-02  0.9120418E-01
         -2   -1    0    0    0  501 -0.00000000000E+00  0.00000000000E+00  0.15888184494E+04  0.15888184494E+04  0.25500000000E-02 0.  1.
          2   -1    0    0  501    0  0.00000000000E+00 -0.00000000000E+00 -0.15067033786E+04  0.15067033786E+04  0.25500000000E-02 0. -1.
    8880022    1    1    2    0    0  0.11776836552E+04  0.95408058560E+02 -0.94642976483E+03  0.15215657863E+04  0.15294330000E+03 0.  0.
    8880022    1    1    2    0    0 -0.11776836552E+04 -0.95408058560E+02  0.10285448356E+04  0.15739560417E+04  0.15294330000E+03 0.  0.
<mgrwt>
<rscale>  0 0.11913997E+04</rscale>
<asrwt>0</asrwt>
<pdfrwt beam="1">  1        2 0.23180052E+00 0.11913997E+04</pdfrwt>
<pdfrwt beam="2">  1       -2 0.24443361E+00 0.11913997E+04</pdfrwt>
<totfact> 0.85094596E-01</totfact>
</mgrwt>
</event>
<event>
 4    1  0.1726795E-008  0.7284529E+03  0.7818608E-02  0.9669774E-01
         -2   -1    0    0    0  501 -0.00000000000E+00  0.00000000000E+00  0.23784259930E+03  0.23784259932E+03  0.25500000000E-02 0.  1.
          2   -1    0    0  501    0  0.00000000000E+00 -0.00000000000E+00 -0.33454826498E+04  0.33454826498E+04  0.25500000000E-02 0. -1.
    8880022    1    1    2    0    0  0.69853501057E+03 -0.13892740290E+03 -0.25878895460E+04  0.26884597709E+04  0.15294330000E+03 0.  0.
    8880022    1    1    2    0    0 -0.69853501057E+03  0.13892740290E+03 -0.51975050456E+03  0.89486547831E+03  0.15294330000E+03 0.  0.
<mgrwt>
<rscale>  0 0.72845291E+03</rscale>
<asrwt>0</asrwt>
<pdfrwt beam="1">  1        2 0.51468960E+00 0.72845291E+03</pdfrwt>
<pdfrwt beam="2">  1       -2 0.36591172E-01 0.72845291E+03</pdfrwt>
<totfact> 0.78877060E+00</totfact>
</mgrwt>
</event>
<event>
 4    1  0.1726795E-008  0.6413084E+03  0.7818608E-02  0.9823226E-01
          2   -1    0    0  501    0  0.00000000000E+00  0.00000000000E+00  0.31352303201E+04  0.31352303201E+04  0.25500000000E-02 0. -1.
         -2   -1    0    0    0  501 -0.00000000000E+00 -0.00000000000E+00 -0.15786943325E+03  0.15786943327E+03  0.25500000000E-02 0.  1.
    8880022    1    1    2    0    0 -0.58526038144E+03  0.21296747329E+03  0.81165758690E+03  0.10344392443E+04  0.15294330000E+03 0.  0.
    8880022    1    1    2    0    0  0.58526038144E+03 -0.21296747329E+03  0.21657032999E+04  0.22586605090E+04  0.15294330000E+03 0.  0.
<mgrwt>
<rscale>  0 0.64130844E+03</rscale>
<asrwt>0</asrwt>
<pdfrwt beam="1">  1        2 0.48234314E+00 0.64130844E+03</pdfrwt>
<pdfrwt beam="2">  1       -2 0.24287604E-01 0.64130844E+03</pdfrwt>
<totfact> 0.23383109E+01</totfact>
</mgrwt>
</event>
<event>
 4    1  0.1726795E-008  0.1355899E+04  0.7818608E-02  0.8986375E-01
         -2   -1    0    0    0  501 -0.00000000000E+00  0.00000000000E+00  0.11120931423E+04  0.11120931423E+04  0.25500000000E-02 0.  1.
          2   -1    0    0  501    0  0.00000000000E+00 -0.00000000000E+00 -0.24917302303E+04  0.24917302303E+04  0.25500000000E-02 0. -1.
    8880022    1    1    2    0    0 -0.38189055338E+03 -0.12919865585E+04 -0.17351505425E+04  0.22020918964E+04  0.15294330000E+03 0.  0.
    8880022    1    1    2    0    0  0.38189055338E+03  0.12919865585E+04  0.35551345452E+03  0.14017314762E+04  0.15294330000E+03 0.  0.
<mgrwt>
<rscale>  0 0.13558987E+04</rscale>
<asrwt>0</asrwt>
<pdfrwt beam="1">  1        2 0.38334311E+00 0.13558987E+04</pdfrwt>
<pdfrwt beam="2">  1       -2 0.17109125E+00 0.13558987E+04</pdfrwt>
<totfact> 0.70558091E-01</totfact>
</mgrwt>
</event>
<event>
 4    1  0.1726795E-008  0.3996694E+03  0.7818608E-02  0.1043894E+00
         -2   -1    0    0    0  501 -0.00000000000E+00  0.00000000000E+00  0.49559024852E+03  0.49559024853E+03  0.25500000000E-02 0.  1.
          2   -1    0    0  501    0  0.00000000000E+00 -0.00000000000E+00 -0.59540824523E+03  0.59540824523E+03  0.25500000000E-02 0. -1.
    8880022    1    1    2    0    0  0.22189567969E+03  0.29513779364E+03  0.31953024608E+03  0.51169838877E+03  0.15294330000E+03 0.  0.
    8880022    1    1    2    0    0 -0.22189567969E+03 -0.29513779364E+03 -0.41934824278E+03  0.57930010499E+03  0.15294330000E+03 0.  0.
<mgrwt>
<rscale>  0 0.39966944E+03</rscale>
<asrwt>0</asrwt>
<pdfrwt beam="1">  1        2 0.91601269E-01 0.39966944E+03</pdfrwt>
<pdfrwt beam="2">  1       -2 0.76244653E-01 0.39966944E+03</pdfrwt>
<totfact> 0.80254528E+01</totfact>
</mgrwt>
</event>
<event>
 4    1  0.1726795E-008  0.7354212E+03  0.7818608E-02  0.9658504E-01
          2   -1    0    0  501    0  0.00000000000E+00  0.00000000000E+00  0.13478692270E+04  0.13478692270E+04  0.25500000000E-02 0. -1.
         -2   -1    0    0    0  501 -0.00000000000E+00 -0.00000000000E+00 -0.81991884797E+03  0.81991884797E+03  0.25500000000E-02 0.  1.
    8880022    1    1    2    0    0  0.35388103132E+03 -0.62627541210E+03 -0.51054398620E+03  0.89526503952E+03  0.15294330000E+03 0.  0.
    8880022    1    1    2    0    0 -0.35388103132E+03  0.62627541210E+03  0.10384943652E+04  0.12725230355E+04  0.15294330000E+03 0.  0.
<mgrwt>
<rscale>  0 0.73542119E+03</rscale>
<asrwt>0</asrwt>
<pdfrwt beam="1">  1        2 0.20736450E+00 0.73542119E+03</pdfrwt>
<pdfrwt beam="2">  1       -2 0.12614136E+00 0.73542119E+03</pdfrwt>
<totfact> 0.74450300E+00</totfact>
</mgrwt>
</event>
<event>
 4    1  0.1726795E-008  0.4516448E+03  0.7818608E-02  0.1027233E+00
         -2   -1    0    0    0  501 -0.00000000000E+00  0.00000000000E+00  0.13310655288E+04  0.13310655288E+04  0.25500000000E-02 0.  1.
          2   -1    0    0  501    0  0.00000000000E+00 -0.00000000000E+00 -0.55935316289E+03  0.55935316289E+03  0.25500000000E-02 0. -1.
    8880022    1    1    2    0    0 -0.42450991033E+03 -0.19562440227E+02  0.11912425302E+04  0.12739865666E+04  0.15294330000E+03 0.  1.
    8880022    1    1    2    0    0  0.42450991033E+03  0.19562440227E+02 -0.41953016433E+03  0.61643212508E+03  0.15294330000E+03 0.  0.
<mgrwt>
<rscale>  0 0.45164478E+03</rscale>
<asrwt>0</asrwt>
<pdfrwt beam="1">  1        2 0.86054333E-01 0.45164478E+03</pdfrwt>
<pdfrwt beam="2">  1       -2 0.20477931E+00 0.45164478E+03</pdfrwt>
<totfact> 0.71302504E+00</totfact>
</mgrwt>
</event>
<event>
 4    1  0.1726795E-008  0.7960109E+03  0.7818608E-02  0.9565809E-01
          2   -1    0    0  501    0  0.00000000000E+00  0.00000000000E+00  0.31841429009E+04  0.31841429009E+04  0.25500000000E-02 0. -1.
         -2   -1    0    0    0  501 -0.00000000000E+00 -0.00000000000E+00 -0.34721610948E+03  0.34721610949E+03  0.25500000000E-02 0.  1.
    8880022    1    1    2    0    0  0.29964813537E+03 -0.72142408447E+03  0.26483817881E+03  0.83891157380E+03  0.15294330000E+03 0.  0.
    8880022    1    1    2    0    0 -0.29964813537E+03  0.72142408447E+03  0.25720886126E+04  0.26924474366E+04  0.15294330000E+03 0.  0.
<mgrwt>
<rscale>  0 0.79601091E+03</rscale>
<asrwt>0</asrwt>
<pdfrwt beam="1">  1        2 0.48986813E+00 0.79601091E+03</pdfrwt>
<pdfrwt beam="2">  1       -2 0.53417864E-01 0.79601091E+03</pdfrwt>
<totfact> 0.46637086E+00</totfact>
</mgrwt>
</event>
<event>
 4    1  0.1726795E-008  0.2752313E+03  0.7818608E-02  0.1098322E+00
          2   -1    0    0  501    0  0.00000000000E+00  0.00000000000E+00  0.19479281918E+04  0.19479281918E+04  0.25500000000E-02 0. -1.
         -2   -1    0    0    0  501 -0.00000000000E+00 -0.00000000000E+00 -0.53360420662E+02  0.53360420723E+02  0.25500000000E-02 0.  1.
    8880022    1    1    2    0    0 -0.21299837219E+03  0.83620065790E+02  0.14683959374E+04  0.14939675043E+04  0.15294330000E+03 0.  1.
    8880022    1    1    2    0    0  0.21299837219E+03 -0.83620065790E+02  0.42617183380E+03  0.50732110827E+03  0.15294330000E+03 0.  0.
<mgrwt>
<rscale>  0 0.27523131E+03</rscale>
<asrwt>0</asrwt>
<pdfrwt beam="1">  1        2 0.29968125E+00 0.27523131E+03</pdfrwt>
<pdfrwt beam="2">  1       -2 0.82092959E-02 0.27523131E+03</pdfrwt>
<totfact> 0.71871662E+02</totfact>
</mgrwt>
</event>
<event>
 4    1  0.1726795E-008  0.7719920E+03  0.7818608E-02  0.9601466E-01
          2   -1    0    0  501    0  0.00000000000E+00  0.00000000000E+00  0.14536578576E+04  0.14536578576E+04  0.25500000000E-02 0. -1.
         -2   -1    0    0    0  501 -0.00000000000E+00 -0.00000000000E+00 -0.48330816509E+03  0.48330816510E+03  0.25500000000E-02 0.  1.
    8880022    1    1    2    0    0  0.51117178921E+03  0.55792770149E+03  0.10793855200E+03  0.77950131635E+03  0.15294330000E+03 0.  0.
    8880022    1    1    2    0    0 -0.51117178921E+03 -0.55792770149E+03  0.86241114053E+03  0.11574647064E+04  0.15294330000E+03 0.  0.
<mgrwt>
<rscale>  0 0.77199195E+03</rscale>
<asrwt>0</asrwt>
<pdfrwt beam="1">  1        2 0.22363967E+00 0.77199195E+03</pdfrwt>
<pdfrwt beam="2">  1       -2 0.74355103E-01 0.77199195E+03</pdfrwt>
<totfact> 0.22397297E+01</totfact>
</mgrwt>
</event>
<event>
 4    1  0.1726795E-008  0.1739537E+04  0.7818608E-02  0.8739131E-01
         -2   -1    0    0    0  501 -0.00000000000E+00  0.00000000000E+00  0.95677152131E+03  0.95677152131E+03  0.25500000000E-02 0.  1.
          2   -1    0    0  501    0  0.00000000000E+00 -0.00000000000E+00 -0.37141708758E+04  0.37141708758E+04  0.25500000000E-02 0. -1.
    8880022    1    1    2    0    0  0.75038703515E+03  0.15618949297E+04 -0.47878351236E+03  0.18042233173E+04  0.15294330000E+03 0.  0.
    8880022    1    1    2    0    0 -0.75038703515E+03 -0.15618949297E+04 -0.22786158421E+04  0.28667190799E+04  0.15294330000E+03 0.  0.
<mgrwt>
<rscale>  0 0.17395368E+04</rscale>
<asrwt>0</asrwt>
<pdfrwt beam="1">  1        2 0.57141090E+00 0.17395368E+04</pdfrwt>
<pdfrwt beam="2">  1       -2 0.14719562E+00 0.17395368E+04</pdfrwt>
<totfact> 0.16674903E-01</totfact>
</mgrwt>
</event>
<event>
 4    1  0.1726795E-008  0.7617748E+03  0.7818608E-02  0.9617056E-01
          2   -1    0    0  501    0  0.00000000000E+00  0.00000000000E+00  0.28071294357E+04  0.28071294357E+04  0.25500000000E-02 0. -1.
         -2   -1    0    0    0  501 -0.00000000000E+00 -0.00000000000E+00 -0.49176092236E+03  0.49176092237E+03  0.25500000000E-02 0.  1.
    8880022    1    1    2    0    0 -0.74586487180E+03 -0.24389233352E+02  0.24134582194E+04  0.25308262428E+04  0.15294330000E+03 0.  0.
    8880022    1    1    2    0    0  0.74586487180E+03  0.24389233352E+02 -0.98089706029E+02  0.76806411525E+03  0.15294330000E+03 0.  0.
<mgrwt>
<rscale>  0 0.76177483E+03</rscale>
<asrwt>0</asrwt>
<pdfrwt beam="1">  1        2 0.43186607E+00 0.76177483E+03</pdfrwt>
<pdfrwt beam="2">  1       -2 0.75655526E-01 0.76177483E+03</pdfrwt>
<totfact> 0.37925853E+00</totfact>
</mgrwt>
</event>
<event>
 4    1  0.1726795E-008  0.8132423E+03  0.7818608E-02  0.9541045E-01
         -2   -1    0    0    0  501 -0.00000000000E+00  0.00000000000E+00  0.71841121184E+03  0.71841121185E+03  0.25500000000E-02 0.  1.
          2   -1    0    0  501    0  0.00000000000E+00 -0.00000000000E+00 -0.23916061250E+04  0.23916061250E+04  0.25500000000E-02 0. -1.
    8880022    1    1    2    0    0  0.73863707580E+02  0.79530843380E+03  0.38294389994E+03  0.89889322819E+03  0.15294330000E+03 0.  0.
    8880022    1    1    2    0    0 -0.73863707580E+02 -0.79530843380E+03 -0.20561388131E+04  0.22111241086E+04  0.15294330000E+03 0.  0.
<mgrwt>
<rscale>  0 0.81324228E+03</rscale>
<asrwt>0</asrwt>
<pdfrwt beam="1">  1        2 0.36793940E+00 0.81324228E+03</pdfrwt>
<pdfrwt beam="2">  1       -2 0.11052480E+00 0.81324228E+03</pdfrwt>
<totfact> 0.27030611E+00</totfact>
</mgrwt>
</event>
<event>
 4    1  0.1726795E-008  0.1186202E+04  0.7818608E-02  0.9125020E-01
         -2   -1    0    0    0  501 -0.00000000000E+00  0.00000000000E+00  0.10272425497E+04  0.10272425497E+04  0.25500000000E-02 0.  1.
          2   -1    0    0  501    0  0.00000000000E+00 -0.00000000000E+00 -0.18380611010E+04  0.18380611010E+04  0.25500000000E-02 0. -1.
    8880022    1    1    2    0    0 -0.11147038678E+04  0.37565903535E+03 -0.11285505156E+04  0.16372850524E+04  0.15294330000E+03 0.  0.
    8880022    1    1    2    0    0  0.11147038678E+04 -0.37565903535E+03  0.31773196430E+03  0.12280185983E+04  0.15294330000E+03 0.  0.
<mgrwt>
<rscale>  0 0.11862024E+04</rscale>
<asrwt>0</asrwt>
<pdfrwt beam="1">  1        2 0.28277863E+00 0.11862024E+04</pdfrwt>
<pdfrwt beam="2">  1       -2 0.15803732E+00 0.11862024E+04</pdfrwt>
<totfact> 0.20841820E+00</totfact>
</mgrwt>
</event>
<event>
 4    1  0.1726795E-008  0.5820165E+03  0.7818608E-02  0.9943435E-01
         -2   -1    0    0    0  501 -0.00000000000E+00  0.00000000000E+00  0.45426699071E+03  0.45426699072E+03  0.25500000000E-02 0.  1.
          2   -1    0    0  501    0  0.00000000000E+00 -0.00000000000E+00 -0.13822791821E+04  0.13822791822E+04  0.25500000000E-02 0. -1.
    8880022    1    1    2    0    0 -0.30680045303E+03 -0.47034560491E+03 -0.10871710099E+04  0.12331601534E+04  0.15294330000E+03 0.  0.
    8880022    1    1    2    0    0  0.30680045303E+03  0.47034560491E+03  0.15915881846E+03  0.60338601952E+03  0.15294330000E+03 0.  0.
<mgrwt>
<rscale>  0 0.58201646E+03</rscale>
<asrwt>0</asrwt>
<pdfrwt beam="1">  1        2 0.21265833E+00 0.58201646E+03</pdfrwt>
<pdfrwt beam="2">  1       -2 0.69887230E-01 0.58201646E+03</pdfrwt>
<totfact> 0.28835164E+01</totfact>
</mgrwt>
</event>
<event>
 4    1  0.1726795E-008  0.2513043E+03  0.7818608E-02  0.1112483E+00
         -2   -1    0    0    0  501 -0.00000000000E+00  0.00000000000E+00  0.15315062364E+03  0.15315062366E+03  0.25500000000E-02 0.  1.
          2   -1    0    0  501    0  0.00000000000E+00 -0.00000000000E+00 -0.63187195611E+03  0.63187195611E+03  0.25500000000E-02 0. -1.
    8880022    1    1    2    0    0  0.19868490867E+03  0.16926998641E+02 -0.47070684087E+03  0.53359047899E+03  0.15294330000E+03 0.  0.
    8880022    1    1    2    0    0 -0.19868490867E+03 -0.16926998641E+02 -0.80144915996E+01  0.25143210079E+03  0.15294330000E+03 0.  1.
<mgrwt>
<rscale>  0 0.25130434E+03</rscale>
<asrwt>0</asrwt>
<pdfrwt beam="1">  1        2 0.97211069E-01 0.25130434E+03</pdfrwt>
<pdfrwt beam="2">  1       -2 0.23561635E-01 0.25130434E+03</pdfrwt>
<totfact> 0.75224455E+02</totfact>
</mgrwt>
</event>
<event>
 4    1  0.1726795E-008  0.7043137E+03  0.7818608E-02  0.9709883E-01
         -2   -1    0    0    0  501 -0.00000000000E+00  0.00000000000E+00  0.59726343292E+03  0.59726343293E+03  0.25500000000E-02 0.  1.
          2   -1    0    0  501    0  0.00000000000E+00 -0.00000000000E+00 -0.18728579376E+04  0.18728579376E+04  0.25500000000E-02 0. -1.
    8880022    1    1    2    0    0  0.24115053093E+03 -0.64382650126E+03 -0.15591664194E+04  0.17108646114E+04  0.15294330000E+03 0.  0.
    8880022    1    1    2    0    0 -0.24115053093E+03  0.64382650126E+03  0.28357191477E+03  0.75925675904E+03  0.15294330000E+03 0.  0.
<mgrwt>
<rscale>  0 0.70431371E+03</rscale>
<asrwt>0</asrwt>
<pdfrwt beam="1">  1        2 0.28813199E+00 0.70431371E+03</pdfrwt>
<pdfrwt beam="2">  1       -2 0.91886682E-01 0.70431371E+03</pdfrwt>
<totfact> 0.82352944E+00</totfact>
</mgrwt>
</event>
<event>
 4    1  0.1726795E-008  0.6073175E+03  0.7818608E-02  0.9890340E-01
         -2   -1    0    0    0  501 -0.00000000000E+00  0.00000000000E+00  0.39104148365E+03  0.39104148366E+03  0.25500000000E-02 0.  1.
          2   -1    0    0  501    0  0.00000000000E+00 -0.00000000000E+00 -0.11683161970E+04  0.11683161970E+04  0.25500000000E-02 0. -1.
    8880022    1    1    2    0    0  0.30369811390E+03  0.50320015841E+03 -0.46399230702E+02  0.60908742019E+03  0.15294330000E+03 0.  0.
    8880022    1    1    2    0    0 -0.30369811390E+03 -0.50320015841E+03 -0.73087548269E+03  0.95027026051E+03  0.15294330000E+03 0.  0.
<mgrwt>
<rscale>  0 0.60731754E+03</rscale>
<asrwt>0</asrwt>
<pdfrwt beam="1">  1        2 0.17974095E+00 0.60731754E+03</pdfrwt>
<pdfrwt beam="2">  1       -2 0.60160229E-01 0.60731754E+03</pdfrwt>
<totfact> 0.52609406E+01</totfact>
</mgrwt>
</event>
<event>
 4    1  0.1726795E-008  0.1241396E+04  0.7818608E-02  0.9077375E-01
         -2   -1    0    0    0  501 -0.00000000000E+00  0.00000000000E+00  0.13681682946E+04  0.13681682946E+04  0.25500000000E-02 0.  1.
          2   -1    0    0  501    0  0.00000000000E+00 -0.00000000000E+00 -0.20654893916E+04  0.20654893916E+04  0.25500000000E-02 0. -1.
    8880022    1    1    2    0    0  0.48508538747E+03  0.11324157249E+04  0.80898532568E+03  0.14817294346E+04  0.15294330000E+03 0.  0.
    8880022    1    1    2    0    0 -0.48508538747E+03 -0.11324157249E+04 -0.15063064228E+04  0.19519282516E+04  0.15294330000E+03 0.  0.
<mgrwt>
<rscale>  0 0.12413963E+04</rscale>
<asrwt>0</asrwt>
<pdfrwt beam="1">  1        2 0.31776760E+00 0.12413963E+04</pdfrwt>
<pdfrwt beam="2">  1       -2 0.21048743E+00 0.12413963E+04</pdfrwt>
<totfact> 0.67504545E-01</totfact>
</mgrwt>
</event>
<event>
 4    1  0.1726795E-008  0.4523035E+03  0.7818608E-02  0.1027037E+00
         -2   -1    0    0    0  501 -0.00000000000E+00  0.00000000000E+00  0.71136917104E+02  0.71136917150E+02  0.25500000000E-02 0.  1.
          2   -1    0    0  501    0  0.00000000000E+00 -0.00000000000E+00 -0.36005900884E+04  0.36005900884E+04  0.25500000000E-02 0. -1.
    8880022    1    1    2    0    0  0.39306668595E+03  0.16335667271E+03 -0.94106780127E+03  0.10441202429E+04  0.15294330000E+03 0.  0.
    8880022    1    1    2    0    0 -0.39306668595E+03 -0.16335667271E+03 -0.25883853700E+04  0.26276067626E+04  0.15294330000E+03 0.  0.
<mgrwt>
<rscale>  0 0.45230352E+03</rscale>
<asrwt>0</asrwt>
<pdfrwt beam="1">  1        2 0.55393680E+00 0.45230352E+03</pdfrwt>
<pdfrwt beam="2">  1       -2 0.10944144E-01 0.45230352E+03</pdfrwt>
<totfact> 0.46925506E+01</totfact>
</mgrwt>
</event>
<event>
 4    1  0.1726795E-008  0.1009575E+04  0.7818608E-02  0.9298105E-01
         -2   -1    0    0    0  501 -0.00000000000E+00  0.00000000000E+00  0.40162208712E+03  0.40162208713E+03  0.25500000000E-02 0.  1.
          2   -1    0    0  501    0  0.00000000000E+00 -0.00000000000E+00 -0.28958484238E+04  0.28958484238E+04  0.25500000000E-02 0. -1.
    8880022    1    1    2    0    0 -0.99787490353E+03  0.98281552258E+01 -0.18268418400E+04  0.20872454760E+04  0.15294330000E+03 0.  0.
    8880022    1    1    2    0    0  0.99787490353E+03 -0.98281552258E+01 -0.66738449671E+03  0.12102250349E+04  0.15294330000E+03 0.  0.
<mgrwt>
<rscale>  0 0.10095754E+04</rscale>
<asrwt>0</asrwt>
<pdfrwt beam="1">  1        2 0.44551513E+00 0.10095754E+04</pdfrwt>
<pdfrwt beam="2">  1       -2 0.61788015E-01 0.10095754E+04</pdfrwt>
<totfact> 0.50098260E+00</totfact>
</mgrwt>
</event>
<event>
 4    1  0.1726795E-008  0.8034090E+03  0.7818608E-02  0.9555096E-01
          2   -1    0    0  501    0  0.00000000000E+00  0.00000000000E+00  0.16269331845E+04  0.16269331845E+04  0.25500000000E-02 0. -1.
         -2   -1    0    0    0  501 -0.00000000000E+00 -0.00000000000E+00 -0.72584909870E+03  0.72584909870E+03  0.25500000000E-02 0.  1.
    8880022    1    1    2    0    0  0.74128994755E+03  0.26937638287E+03  0.12426783086E+04  0.14797687163E+04  0.15294330000E+03 0.  0.
    8880022    1    1    2    0    0 -0.74128994755E+03 -0.26937638287E+03 -0.34159422279E+03  0.87301356693E+03  0.15294330000E+03 0.  0.
<mgrwt>
<rscale>  0 0.80340903E+03</rscale>
<asrwt>0</asrwt>
<pdfrwt beam="1">  1        2 0.25029741E+00 0.80340903E+03</pdfrwt>
<pdfrwt beam="2">  1       -2 0.11166910E+00 0.80340903E+03</pdfrwt>
<totfact> 0.69577837E+00</totfact>
</mgrwt>
</event>
<event>
 4    1  0.1726795E-008  0.1929259E+03  0.7818608E-02  0.1155848E+00
         -2   -1    0    0    0  501 -0.00000000000E+00  0.00000000000E+00  0.36665242760E+03  0.36665242761E+03  0.25500000000E-02 0.  1.
          2   -1    0    0  501    0  0.00000000000E+00 -0.00000000000E+00 -0.10733293862E+04  0.10733293862E+04  0.25500000000E-02 0. -1.
    8880022    1    1    2    0    0 -0.10915699872E+03 -0.43743704839E+02  0.33175896919E+03  0.38377653489E+03  0.15294330000E+03 0.  1.
    8880022    1    1    2    0    0  0.10915699872E+03  0.43743704839E+02 -0.10384359277E+04  0.10562052789E+04  0.15294330000E+03 0.  0.
<mgrwt>
<rscale>  0 0.19292593E+03</rscale>
<asrwt>0</asrwt>
<pdfrwt beam="1">  1        2 0.16512760E+00 0.19292593E+03</pdfrwt>
<pdfrwt beam="2">  1       -2 0.56408066E-01 0.19292593E+03</pdfrwt>
<totfact> 0.73747146E+01</totfact>
</mgrwt>
</event>
<event>
 4    1  0.1726795E-008  0.1774976E+03  0.7818608E-02  0.1170247E+00
         -2   -1    0    0    0  501 -0.00000000000E+00  0.00000000000E+00  0.30251166554E+03  0.30251166555E+03  0.25500000000E-02 0.  1.
          2   -1    0    0  501    0  0.00000000000E+00 -0.00000000000E+00 -0.15742019046E+04  0.15742019046E+04  0.25500000000E-02 0. -1.
    8880022    1    1    2    0    0  0.40163401629E+02  0.80626505341E+02  0.27094066820E+03  0.32390466328E+03  0.15294330000E+03 0.  1.
    8880022    1    1    2    0    0 -0.40163401629E+02 -0.80626505341E+02 -0.15426309072E+04  0.15528089068E+04  0.15294330000E+03 0.  0.
<mgrwt>
<rscale>  0 0.17749756E+03</rscale>
<asrwt>0</asrwt>
<pdfrwt beam="1">  1        2 0.24218490E+00 0.17749756E+03</pdfrwt>
<pdfrwt beam="2">  1       -2 0.46540257E-01 0.17749756E+03</pdfrwt>
<totfact> 0.57955918E+01</totfact>
</mgrwt>
</event>
<event>
 4    1  0.3076564E-008  0.1340773E+04  0.7818608E-02  0.8997842E-01
          2   -1    0    0  501    0  0.00000000000E+00  0.00000000000E+00  0.32418378756E+04  0.32418378756E+04  0.25500000000E-02 0. -1.
         -2   -1    0    0    0  501 -0.00000000000E+00 -0.00000000000E+00 -0.17330511524E+04  0.17330511524E+04  0.25500000000E-02 0.  1.
    8880022    1    1    2    0    0  0.12383021915E+04  0.49080474890E+03 -0.12968524825E+04  0.18653416935E+04  0.15294330000E+03 0.  0.
    8880022    1    1    2    0    0 -0.12383021915E+04 -0.49080474890E+03  0.28056392058E+04  0.31095473345E+04  0.15294330000E+03 0.  0.
<mgrwt>
<rscale>  0 0.13407734E+04</rscale>
<asrwt>0</asrwt>
<pdfrwt beam="1">  1        2 0.49874428E+00 0.13407734E+04</pdfrwt>
<pdfrwt beam="2">  1       -2 0.26662326E+00 0.13407734E+04</pdfrwt>
<totfact> 0.59787218E-02</totfact>
</mgrwt>
</event>
<event>
 4    1  0.1726795E-008  0.5212442E+03  0.7818608E-02  0.1008378E+00
         -2   -1    0    0    0  501 -0.00000000000E+00  0.00000000000E+00  0.11849790926E+04  0.11849790926E+04  0.25500000000E-02 0.  1.
          2   -1    0    0  501    0  0.00000000000E+00 -0.00000000000E+00 -0.64612039442E+03  0.64612039442E+03  0.25500000000E-02 0. -1.
    8880022    1    1    2    0    0  0.39380594446E+03 -0.30532076555E+03  0.10048038456E+04  0.11319568512E+04  0.15294330000E+03 0.  0.
    8880022    1    1    2    0    0 -0.39380594446E+03  0.30532076555E+03 -0.46594514745E+03  0.69914263582E+03  0.15294330000E+03 0.  0.
<mgrwt>
<rscale>  0 0.52124423E+03</rscale>
<asrwt>0</asrwt>
<pdfrwt beam="1">  1        2 0.99403137E-01 0.52124423E+03</pdfrwt>
<pdfrwt beam="2">  1       -2 0.18230448E+00 0.52124423E+03</pdfrwt>
<totfact> 0.83187315E+00</totfact>
</mgrwt>
</event>
<event>
 4    1  0.1726795E-008  0.1018344E+04  0.7818608E-02  0.9288651E-01
         -2   -1    0    0    0  501 -0.00000000000E+00  0.00000000000E+00  0.98254437569E+03  0.98254437569E+03  0.25500000000E-02 0.  1.
          2   -1    0    0  501    0  0.00000000000E+00 -0.00000000000E+00 -0.14246506718E+04  0.14246506718E+04  0.25500000000E-02 0. -1.
    8880022    1    1    2    0    0 -0.10333584873E+03 -0.10014762123E+04 -0.83376950556E+03  0.13161292272E+04  0.15294330000E+03 0.  0.
    8880022    1    1    2    0    0  0.10333584873E+03  0.10014762123E+04  0.39166320948E+03  0.10910658202E+04  0.15294330000E+03 0.  0.
<mgrwt>
<rscale>  0 0.10183440E+04</rscale>
<asrwt>0</asrwt>
<pdfrwt beam="1">  1        2 0.21917703E+00 0.10183440E+04</pdfrwt>
<pdfrwt beam="2">  1       -2 0.15116067E+00 0.10183440E+04</pdfrwt>
<totfact> 0.40716971E+00</totfact>
</mgrwt>
</event>
<event>
 4    1  0.1726795E-008  0.5375809E+03  0.7818608E-02  0.1004410E+00
         -2   -1    0    0    0  501 -0.00000000000E+00  0.00000000000E+00  0.12261718965E+03  0.12261718968E+03  0.25500000000E-02 0.  1.
          2   -1    0    0  501    0  0.00000000000E+00 -0.00000000000E+00 -0.34499319770E+04  0.34499319770E+04  0.25500000000E-02 0. -1.
    8880022    1    1    2    0    0 -0.48422161615E+03 -0.17643974479E+03 -0.26691170345E+04  0.27227153642E+04  0.15294330000E+03 0.  0.
    8880022    1    1    2    0    0  0.48422161615E+03  0.17643974479E+03 -0.65819775275E+03  0.84983380248E+03  0.15294330000E+03 0.  0.
<mgrwt>
<rscale>  0 0.53758089E+03</rscale>
<asrwt>0</asrwt>
<pdfrwt beam="1">  1        2 0.53075869E+00 0.53758089E+03</pdfrwt>
<pdfrwt beam="2">  1       -2 0.18864186E-01 0.53758089E+03</pdfrwt>
<totfact> 0.23368088E+01</totfact>
</mgrwt>
</event>
<event>
 4    1  0.1726795E-008  0.8216912E+03  0.7818608E-02  0.9529140E-01
          2   -1    0    0  501    0  0.00000000000E+00  0.00000000000E+00  0.26749449808E+04  0.26749449808E+04  0.25500000000E-02 0. -1.
         -2   -1    0    0    0  501 -0.00000000000E+00 -0.00000000000E+00 -0.45128943529E+03  0.45128943530E+03  0.25500000000E-02 0.  1.
    8880022    1    1    2    0    0 -0.72752312527E+03 -0.34999277502E+03  0.21495031214E+04  0.23012040680E+04  0.15294330000E+03 0.  0.
    8880022    1    1    2    0    0  0.72752312527E+03  0.34999277502E+03  0.74152424098E+02  0.82503034816E+03  0.15294330000E+03 0.  0.
<mgrwt>
<rscale>  0 0.82169124E+03</rscale>
<asrwt>0</asrwt>
<pdfrwt beam="1">  1        2 0.41153000E+00 0.82169124E+03</pdfrwt>
<pdfrwt beam="2">  1       -2 0.69429144E-01 0.82169124E+03</pdfrwt>
<totfact> 0.54196752E+00</totfact>
</mgrwt>
</event>
<event>
 4    1  0.1726795E-008  0.6736149E+03  0.7818608E-02  0.9763449E-01
         -2   -1    0    0    0  501 -0.00000000000E+00  0.00000000000E+00  0.61232686597E+03  0.61232686598E+03  0.25500000000E-02 0.  1.
          2   -1    0    0  501    0  0.00000000000E+00 -0.00000000000E+00 -0.10940972802E+04  0.10940972802E+04  0.25500000000E-02 0. -1.
    8880022    1    1    2    0    0  0.30546097283E+03 -0.58056778488E+03 -0.72556320480E+03  0.99004998659E+03  0.15294330000E+03 0.  0.
    8880022    1    1    2    0    0 -0.30546097283E+03  0.58056778488E+03  0.24379279058E+03  0.71637415958E+03  0.15294330000E+03 0.  0.
<mgrwt>
<rscale>  0 0.67361488E+03</rscale>
<asrwt>0</asrwt>
<pdfrwt beam="1">  1        2 0.16832266E+00 0.67361488E+03</pdfrwt>
<pdfrwt beam="2">  1       -2 0.94204134E-01 0.67361488E+03</pdfrwt>
<totfact> 0.21434656E+01</totfact>
</mgrwt>
</event>
<event>
 4    1  0.1726795E-008  0.3447634E+03  0.7818608E-02  0.1064785E+00
          2   -1    0    0  501    0  0.00000000000E+00  0.00000000000E+00  0.15088930660E+04  0.15088930660E+04  0.25500000000E-02 0. -1.
         -2   -1    0    0    0  501 -0.00000000000E+00 -0.00000000000E+00 -0.14850382413E+03  0.14850382415E+03  0.25500000000E-02 0.  1.
    8880022    1    1    2    0    0 -0.29391010220E+03  0.95325938286E+02  0.11234101903E+03  0.36260493689E+03  0.15294330000E+03 0.  0.
    8880022    1    1    2    0    0  0.29391010220E+03 -0.95325938286E+02  0.12480482228E+04  0.12947919532E+04  0.15294330000E+03 0.  0.
<mgrwt>
<rscale>  0 0.34476345E+03</rscale>
<asrwt>0</asrwt>
<pdfrwt beam="1">  1        2 0.23213740E+00 0.34476345E+03</pdfrwt>
<pdfrwt beam="2">  1       -2 0.22846742E-01 0.34476345E+03</pdfrwt>
<totfact> 0.22392424E+02</totfact>
</mgrwt>
</event>
<event>
 4    1  0.1726795E-008  0.9189086E+03  0.7818608E-02  0.9402249E-01
          2   -1    0    0  501    0  0.00000000000E+00  0.00000000000E+00  0.77275816357E+03  0.77275816357E+03  0.25500000000E-02 0. -1.
         -2   -1    0    0    0  501 -0.00000000000E+00 -0.00000000000E+00 -0.19285425934E+04  0.19285425934E+04  0.25500000000E-02 0.  1.
    8880022    1    1    2    0    0  0.41465199643E+03 -0.80564580670E+03  0.31128943528E+03  0.97020317951E+03  0.15294330000E+03 0.  0.
    8880022    1    1    2    0    0 -0.41465199643E+03  0.80564580670E+03 -0.14670738652E+04  0.17310975775E+04  0.15294330000E+03 0.  0.
<mgrwt>
<rscale>  0 0.91890864E+03</rscale>
<asrwt>0</asrwt>
<pdfrwt beam="1">  1        2 0.11888587E+00 0.91890864E+03</pdfrwt>
<pdfrwt beam="2">  1       -2 0.29669886E+00 0.91890864E+03</pdfrwt>
<totfact> 0.12192809E+00</totfact>
</mgrwt>
</event>
<event>
 4    1  0.1726795E-008  0.7981113E+03  0.7818608E-02  0.9562755E-01
         -2   -1    0    0    0  501 -0.00000000000E+00  0.00000000000E+00  0.76458178131E+03  0.76458178132E+03  0.25500000000E-02 0.  1.
          2   -1    0    0  501    0  0.00000000000E+00 -0.00000000000E+00 -0.51263938589E+04  0.51263938589E+04  0.25500000000E-02 0. -1.
    8880022    1    1    2    0    0 -0.77377417420E+03 -0.12191599868E+03  0.51463524721E+03  0.94964786846E+03  0.15294330000E+03 0.  0.
    8880022    1    1    2    0    0  0.77377417420E+03  0.12191599868E+03 -0.48764473248E+04  0.49413277717E+04  0.15294330000E+03 0.  0.
<mgrwt>
<rscale>  0 0.79811129E+03</rscale>
<asrwt>0</asrwt>
<pdfrwt beam="1">  1        2 0.78867596E+00 0.79811129E+03</pdfrwt>
<pdfrwt beam="2">  1       -2 0.11762797E+00 0.79811129E+03</pdfrwt>
<totfact> 0.15389808E-02</totfact>
</mgrwt>
</event>
<event>
 4    1  0.1726795E-008  0.4295887E+03  0.7818608E-02  0.1033990E+00
          2   -1    0    0  501    0  0.00000000000E+00  0.00000000000E+00  0.75811382161E+03  0.75811382162E+03  0.25500000000E-02 0. -1.
         -2   -1    0    0    0  501 -0.00000000000E+00 -0.00000000000E+00 -0.50992027536E+03  0.50992027536E+03  0.25500000000E-02 0.  1.
    8880022    1    1    2    0    0 -0.30266517818E+03 -0.26372063399E+03 -0.33424746998E+03  0.54430488430E+03  0.15294330000E+03 0.  0.
    8880022    1    1    2    0    0  0.30266517818E+03  0.26372063399E+03  0.58244101623E+03  0.72372921268E+03  0.15294330000E+03 0. -1.
<mgrwt>
<rscale>  0 0.42958868E+03</rscale>
<asrwt>0</asrwt>
<pdfrwt beam="1">  1        2 0.11663289E+00 0.42958868E+03</pdfrwt>
<pdfrwt beam="2">  1       -2 0.78449274E-01 0.42958868E+03</pdfrwt>
<totfact> 0.55853292E+01</totfact>
</mgrwt>
</event>
<event>
 4    1  0.1726795E-008  0.5620818E+03  0.7818608E-02  0.9987355E-01
         -2   -1    0    0    0  501 -0.00000000000E+00  0.00000000000E+00  0.70773349286E+03  0.70773349286E+03  0.25500000000E-02 0.  1.
          2   -1    0    0  501    0  0.00000000000E+00 -0.00000000000E+00 -0.74106482821E+03  0.74106482821E+03  0.25500000000E-02 0. -1.
    8880022    1    1    2    0    0  0.49417552765E+03 -0.21985197193E+03  0.44011747602E+03  0.71389031888E+03  0.15294330000E+03 0.  0.
    8880022    1    1    2    0    0 -0.49417552765E+03  0.21985197193E+03 -0.47344881137E+03  0.73490800219E+03  0.15294330000E+03 0.  0.
<mgrwt>
<rscale>  0 0.56208184E+03</rscale>
<asrwt>0</asrwt>
<pdfrwt beam="1">  1        2 0.11400997E+00 0.56208184E+03</pdfrwt>
<pdfrwt beam="2">  1       -2 0.10888208E+00 0.56208184E+03</pdfrwt>
<totfact> 0.26515746E+01</totfact>
</mgrwt>
</event>
<event>
 4    1  0.1726795E-008  0.1022902E+04  0.7818608E-02  0.9283777E-01
          2   -1    0    0  501    0  0.00000000000E+00  0.00000000000E+00  0.13922063617E+04  0.13922063617E+04  0.25500000000E-02 0. -1.
         -2   -1    0    0    0  501 -0.00000000000E+00 -0.00000000000E+00 -0.12293715571E+04  0.12293715571E+04  0.25500000000E-02 0.  1.
    8880022    1    1    2    0    0  0.81362324718E+03 -0.60079465243E+03  0.89859951632E+03  0.13615468213E+04  0.15294330000E+03 0.  0.
    8880022    1    1    2    0    0 -0.81362324718E+03  0.60079465243E+03 -0.73576471169E+03  0.12600310975E+04  0.15294330000E+03 0.  0.
<mgrwt>
<rscale>  0 0.10229021E+04</rscale>
<asrwt>0</asrwt>
<pdfrwt beam="1">  1        2 0.21418559E+00 0.10229021E+04</pdfrwt>
<pdfrwt beam="2">  1       -2 0.18913409E+00 0.10229021E+04</pdfrwt>
<totfact> 0.22729535E+00</totfact>
</mgrwt>
</event>
<event>
 4    1  0.1726795E-008  0.6115683E+03  0.7818608E-02  0.9881692E-01
         -2   -1    0    0    0  501 -0.00000000000E+00  0.00000000000E+00  0.24610094087E+03  0.24610094088E+03  0.25500000000E-02 0.  1.
          2   -1    0    0  501    0  0.00000000000E+00 -0.00000000000E+00 -0.16935065195E+04  0.16935065195E+04  0.25500000000E-02 0. -1.
    8880022    1    1    2    0    0  0.50701309471E+03  0.30587880576E+03 -0.41307427869E+03  0.73800144630E+03  0.15294330000E+03 0.  0.
    8880022    1    1    2    0    0 -0.50701309471E+03 -0.30587880576E+03 -0.10343313000E+04  0.12016060141E+04  0.15294330000E+03 0.  0.
<mgrwt>
<rscale>  0 0.61156829E+03</rscale>
<asrwt>0</asrwt>
<pdfrwt beam="1">  1        2 0.26053946E+00 0.61156829E+03</pdfrwt>
<pdfrwt beam="2">  1       -2 0.37861684E-01 0.61156829E+03</pdfrwt>
<totfact> 0.67688440E+01</totfact>
</mgrwt>
</event>
<event>
 4    1  0.1726795E-008  0.6992048E+03  0.7818608E-02  0.9718593E-01
          2   -1    0    0  501    0  0.00000000000E+00  0.00000000000E+00  0.12294885107E+04  0.12294885107E+04  0.25500000000E-02 0. -1.
         -2   -1    0    0    0  501 -0.00000000000E+00 -0.00000000000E+00 -0.16055107785E+04  0.16055107785E+04  0.25500000000E-02 0.  1.
    8880022    1    1    2    0    0  0.31795377451E+03  0.60365638605E+03  0.10414860464E+04  0.12544243593E+04  0.15294330000E+03 0.  0.
    8880022    1    1    2    0    0 -0.31795377451E+03 -0.60365638605E+03 -0.14175083143E+04  0.15805749299E+04  0.15294330000E+03 0.  0.
<mgrwt>
<rscale>  0 0.69920475E+03</rscale>
<asrwt>0</asrwt>
<pdfrwt beam="1">  1        2 0.18915208E+00 0.69920475E+03</pdfrwt>
<pdfrwt beam="2">  1       -2 0.24700166E+00 0.69920475E+03</pdfrwt>
<totfact> 0.12767966E+00</totfact>
</mgrwt>
</event>
<event>
 4    1  0.1726795E-008  0.9572296E+03  0.7818608E-02  0.9356740E-01
          2   -1    0    0  501    0  0.00000000000E+00  0.00000000000E+00  0.10567072203E+04  0.10567072203E+04  0.25500000000E-02 0. -1.
         -2   -1    0    0    0  501 -0.00000000000E+00 -0.00000000000E+00 -0.23795779133E+04  0.23795779133E+04  0.25500000000E-02 0.  1.
    8880022    1    1    2    0    0  0.43757646129E+03  0.83751044338E+03  0.70834630812E+03  0.11908161266E+04  0.15294330000E+03 0.  0.
    8880022    1    1    2    0    0 -0.43757646129E+03 -0.83751044338E+03 -0.20312170012E+04  0.22454690070E+04  0.15294330000E+03 0.  0.
<mgrwt>
<rscale>  0 0.95722963E+03</rscale>
<asrwt>0</asrwt>
<pdfrwt beam="1">  1        2 0.16257034E+00 0.95722963E+03</pdfrwt>
<pdfrwt beam="2">  1       -2 0.36608891E+00 0.95722963E+03</pdfrwt>
<totfact> 0.29104960E-01</totfact>
</mgrwt>
</event>
<event>
 4    1  0.1726795E-008  0.4622588E+03  0.7818608E-02  0.1024128E+00
         -2   -1    0    0    0  501 -0.00000000000E+00  0.00000000000E+00  0.28888471409E+03  0.28888471410E+03  0.25500000000E-02 0.  1.
          2   -1    0    0  501    0  0.00000000000E+00 -0.00000000000E+00 -0.21884658233E+04  0.21884658233E+04  0.25500000000E-02 0. -1.
    8880022    1    1    2    0    0 -0.63816194799E+02 -0.43153099411E+03 -0.19576250110E+04  0.20114618670E+04  0.15294330000E+03 0.  0.
    8880022    1    1    2    0    0  0.63816194799E+02  0.43153099411E+03  0.58043901865E+02  0.46588867035E+03  0.15294330000E+03 0.  0.
<mgrwt>
<rscale>  0 0.46225876E+03</rscale>
<asrwt>0</asrwt>
<pdfrwt beam="1">  1        2 0.33668704E+00 0.46225876E+03</pdfrwt>
<pdfrwt beam="2">  1       -2 0.44443804E-01 0.46225876E+03</pdfrwt>
<totfact> 0.27460675E+01</totfact>
</mgrwt>
</event>
<event>
 4    1  0.1726795E-008  0.8246649E+03  0.7818608E-02  0.9524986E-01
         -2   -1    0    0    0  501 -0.00000000000E+00  0.00000000000E+00  0.17356673396E+04  0.17356673396E+04  0.25500000000E-02 0.  1.
          2   -1    0    0  501    0  0.00000000000E+00 -0.00000000000E+00 -0.75853070375E+03  0.75853070375E+03  0.25500000000E-02 0. -1.
    8880022    1    1    2    0    0  0.34552688464E+03 -0.73300187441E+03 -0.37854350579E+03  0.90739595254E+03  0.15294330000E+03 0.  0.
    8880022    1    1    2    0    0 -0.34552688464E+03  0.73300187441E+03  0.13556801416E+04  0.15868020908E+04  0.15294330000E+03 0.  0.
<mgrwt>
<rscale>  0 0.82466492E+03</rscale>
<asrwt>0</asrwt>
<pdfrwt beam="1">  1        2 0.11669703E+00 0.82466492E+03</pdfrwt>
<pdfrwt beam="2">  1       -2 0.26702574E+00 0.82466492E+03</pdfrwt>
<totfact> 0.19113392E+00</totfact>
</mgrwt>
</event>
<event>
 4    1  0.1726795E-008  0.9520311E+03  0.7818608E-02  0.9362780E-01
          2   -1    0    0  501    0  0.00000000000E+00  0.00000000000E+00  0.69095385210E+03  0.69095385210E+03  0.25500000000E-02 0. -1.
         -2   -1    0    0    0  501 -0.00000000000E+00 -0.00000000000E+00 -0.17755254082E+04  0.17755254082E+04  0.25500000000E-02 0.  1.
    8880022    1    1    2    0    0 -0.88540620958E+03 -0.31468616681E+03 -0.11725677004E+04  0.15103900836E+04  0.15294330000E+03 0.  0.
    8880022    1    1    2    0    0  0.88540620958E+03  0.31468616681E+03  0.87996144236E+02  0.95608917678E+03  0.15294330000E+03 0.  0.
<mgrwt>
<rscale>  0 0.95203109E+03</rscale>
<asrwt>0</asrwt>
<pdfrwt beam="1">  1        2 0.10630059E+00 0.95203109E+03</pdfrwt>
<pdfrwt beam="2">  1       -2 0.27315775E+00 0.95203109E+03</pdfrwt>
<totfact> 0.19449753E+00</totfact>
</mgrwt>
</event>
<event>
 4    1  0.1726795E-008  0.3886289E+03  0.7818608E-02  0.1047790E+00
          2   -1    0    0  501    0  0.00000000000E+00  0.00000000000E+00  0.68167733177E+03  0.68167733177E+03  0.25500000000E-02 0. -1.
         -2   -1    0    0    0  501 -0.00000000000E+00 -0.00000000000E+00 -0.11042470462E+04  0.11042470462E+04  0.25500000000E-02 0.  1.
    8880022    1    1    2    0    0  0.35616275352E+03 -0.28086614802E+02  0.58708352176E+03  0.70405928690E+03  0.15294330000E+03 0. -1.
    8880022    1    1    2    0    0 -0.35616275352E+03  0.28086614802E+02 -0.10096532361E+04  0.10818650910E+04  0.15294330000E+03 0.  0.
<mgrwt>
<rscale>  0 0.38862889E+03</rscale>
<asrwt>0</asrwt>
<pdfrwt beam="1">  1        2 0.10487344E+00 0.38862889E+03</pdfrwt>
<pdfrwt beam="2">  1       -2 0.16988416E+00 0.38862889E+03</pdfrwt>
<totfact> 0.97252005E+00</totfact>
</mgrwt>
</event>
<event>
 4    1  0.1726795E-008  0.1195408E+04  0.7818608E-02  0.9116885E-01
          2   -1    0    0  501    0  0.00000000000E+00  0.00000000000E+00  0.20893561621E+04  0.20893561621E+04  0.25500000000E-02 0. -1.
         -2   -1    0    0    0  501 -0.00000000000E+00 -0.00000000000E+00 -0.14017271767E+04  0.14017271767E+04  0.25500000000E-02 0.  1.
    8880022    1    1    2    0    0  0.10584195173E+04 -0.53418898464E+03  0.15929089667E+04  0.19915723374E+04  0.15294330000E+03 0.  0.
    8880022    1    1    2    0    0 -0.10584195173E+04  0.53418898464E+03 -0.90527998128E+03  0.14995110015E+04  0.15294330000E+03 0.  0.
<mgrwt>
<rscale>  0 0.11954085E+04</rscale>
<asrwt>0</asrwt>
<pdfrwt beam="1">  1        2 0.32143941E+00 0.11954085E+04</pdfrwt>
<pdfrwt beam="2">  1       -2 0.21565033E+00 0.11954085E+04</pdfrwt>
<totfact> 0.61037009E-01</totfact>
</mgrwt>
</event>
<event>
 4    1  0.1726795E-008  0.1182925E+04  0.7818608E-02  0.9127935E-01
          2   -1    0    0  501    0  0.00000000000E+00  0.00000000000E+00  0.18771018019E+04  0.18771018019E+04  0.25500000000E-02 0. -1.
         -2   -1    0    0    0  501 -0.00000000000E+00 -0.00000000000E+00 -0.95704382511E+03  0.95704382511E+03  0.25500000000E-02 0.  1.
    8880022    1    1    2    0    0  0.71407981377E+03 -0.93059591514E+03  0.11263203159E+04  0.16333731493E+04  0.15294330000E+03 0.  0.
    8880022    1    1    2    0    0 -0.71407981377E+03  0.93059591514E+03 -0.20626233913E+03  0.12007724777E+04  0.15294330000E+03 0.  0.
<mgrwt>
<rscale>  0 0.11829245E+04</rscale>
<asrwt>0</asrwt>
<pdfrwt beam="1">  1        2 0.28878489E+00 0.11829245E+04</pdfrwt>
<pdfrwt beam="2">  1       -2 0.14723751E+00 0.11829245E+04</pdfrwt>
<totfact> 0.23987194E+00</totfact>
</mgrwt>
</event>
<event>
 4    1  0.1726795E-008  0.6526317E+03  0.7818608E-02  0.9801853E-01
         -2   -1    0    0    0  501 -0.00000000000E+00  0.00000000000E+00  0.12523536563E+04  0.12523536563E+04  0.25500000000E-02 0.  1.
          2   -1    0    0  501    0  0.00000000000E+00 -0.00000000000E+00 -0.63560413165E+03  0.63560413165E+03  0.25500000000E-02 0. -1.
    8880022    1    1    2    0    0 -0.26505653578E+03  0.57643867348E+03 -0.33527428545E+03  0.73371452960E+03  0.15294330000E+03 0.  0.
    8880022    1    1    2    0    0  0.26505653578E+03 -0.57643867348E+03  0.95202381010E+03  0.11542432584E+04  0.15294330000E+03 0.  0.
<mgrwt>
<rscale>  0 0.65263172E+03</rscale>
<asrwt>0</asrwt>
<pdfrwt beam="1">  1        2 0.97785251E-01 0.65263172E+03</pdfrwt>
<pdfrwt beam="2">  1       -2 0.19266979E+00 0.65263172E+03</pdfrwt>
<totfact> 0.70959396E+00</totfact>
</mgrwt>
</event>
<event>
 4    1  0.1726795E-008  0.6171643E+03  0.7818608E-02  0.9870422E-01
          2   -1    0    0  501    0  0.00000000000E+00  0.00000000000E+00  0.27703906804E+04  0.27703906804E+04  0.25500000000E-02 0. -1.
         -2   -1    0    0    0  501 -0.00000000000E+00 -0.00000000000E+00 -0.36533264851E+03  0.36533264851E+03  0.25500000000E-02 0.  1.
    8880022    1    1    2    0    0 -0.68211962789E+02 -0.59400943653E+03 -0.35652170990E+02  0.61819318410E+03  0.15294330000E+03 0.  0.
    8880022    1    1    2    0    0  0.68211962789E+02  0.59400943653E+03  0.24407102028E+04  0.25175301448E+04  0.15294330000E+03 0.  0.
<mgrwt>
<rscale>  0 0.61716427E+03</rscale>
<asrwt>0</asrwt>
<pdfrwt beam="1">  1        2 0.42621394E+00 0.61716427E+03</pdfrwt>
<pdfrwt beam="2">  1       -2 0.56205024E-01 0.61716427E+03</pdfrwt>
<totfact> 0.77729854E+00</totfact>
</mgrwt>
</event>
<event>
 4    1  0.1726795E-008  0.5549236E+03  0.7818608E-02  0.1000361E+00
          2   -1    0    0  501    0  0.00000000000E+00  0.00000000000E+00  0.13148260041E+04  0.13148260041E+04  0.25500000000E-02 0. -1.
         -2   -1    0    0    0  501 -0.00000000000E+00 -0.00000000000E+00 -0.25928726911E+03  0.25928726912E+03  0.25500000000E-02 0.  1.
    8880022    1    1    2    0    0  0.44017248745E+03  0.30132498334E+03  0.77255708780E+03  0.95120169849E+03  0.15294330000E+03 0.  0.
    8880022    1    1    2    0    0 -0.44017248745E+03 -0.30132498334E+03  0.28298164721E+03  0.62291157476E+03  0.15294330000E+03 0.  0.
<mgrwt>
<rscale>  0 0.55492361E+03</rscale>
<asrwt>0</asrwt>
<pdfrwt beam="1">  1        2 0.20228092E+00 0.55492361E+03</pdfrwt>
<pdfrwt beam="2">  1       -2 0.39890350E-01 0.55492361E+03</pdfrwt>
<totfact> 0.99826049E+01</totfact>
</mgrwt>
</event>
<event>
 4    1  0.1726795E-008  0.1265272E+04  0.7818608E-02  0.9057568E-01
         -2   -1    0    0    0  501 -0.00000000000E+00  0.00000000000E+00  0.11752067058E+04  0.11752067058E+04  0.25500000000E-02 0.  1.
          2   -1    0    0  501    0  0.00000000000E+00 -0.00000000000E+00 -0.15323700375E+04  0.15323700375E+04  0.25500000000E-02 0. -1.
    8880022    1    1    2    0    0 -0.48249638017E+02  0.12550668688E+04  0.27250563472E+03  0.12942842990E+04  0.15294330000E+03 0.  0.
    8880022    1    1    2    0    0  0.48249638017E+02 -0.12550668688E+04 -0.62966896643E+03  0.14132924443E+04  0.15294330000E+03 0.  0.
<mgrwt>
<rscale>  0 0.12652717E+04</rscale>
<asrwt>0</asrwt>
<pdfrwt beam="1">  1        2 0.23574924E+00 0.12652717E+04</pdfrwt>
<pdfrwt beam="2">  1       -2 0.18080103E+00 0.12652717E+04</pdfrwt>
<totfact> 0.21002825E+00</totfact>
</mgrwt>
</event>
<event>
 4    1  0.1726795E-008  0.1002162E+04  0.7818608E-02  0.9306177E-01
         -2   -1    0    0    0  501 -0.00000000000E+00  0.00000000000E+00  0.58561440478E+03  0.58561440479E+03  0.25500000000E-02 0.  1.
          2   -1    0    0  501    0  0.00000000000E+00 -0.00000000000E+00 -0.32554240940E+04  0.32554240940E+04  0.25500000000E-02 0. -1.
    8880022    1    1    2    0    0  0.65693243154E+03  0.74119941060E+03 -0.26560030209E+04  0.28387815143E+04  0.15294330000E+03 0.  0.
    8880022    1    1    2    0    0 -0.65693243154E+03 -0.74119941060E+03 -0.13806668339E+02  0.10022569845E+04  0.15294330000E+03 0.  0.
<mgrwt>
<rscale>  0 0.10021619E+04</rscale>
<asrwt>0</asrwt>
<pdfrwt beam="1">  1        2 0.50083446E+00 0.10021619E+04</pdfrwt>
<pdfrwt beam="2">  1       -2 0.90094526E-01 0.10021619E+04</pdfrwt>
<totfact> 0.12907634E+00</totfact>
</mgrwt>
</event>
<event>
 4    1  0.1726795E-008  0.1594894E+04  0.7818608E-02  0.8823691E-01
          2   -1    0    0  501    0  0.00000000000E+00  0.00000000000E+00  0.34747344789E+04  0.34747344789E+04  0.25500000000E-02 0. -1.
         -2   -1    0    0    0  501 -0.00000000000E+00 -0.00000000000E+00 -0.11754242819E+04  0.11754242819E+04  0.25500000000E-02 0.  1.
    8880022    1    1    2    0    0 -0.15707641552E+04  0.23020454378E+03 -0.27833368724E+03  0.16189982883E+04  0.15294330000E+03 0.  0.
    8880022    1    1    2    0    0  0.15707641552E+04 -0.23020454378E+03  0.25776438842E+04  0.30311604725E+04  0.15294330000E+03 0.  0.
<mgrwt>
<rscale>  0 0.15948937E+04</rscale>
<asrwt>0</asrwt>
<pdfrwt beam="1">  1        2 0.53457451E+00 0.15948937E+04</pdfrwt>
<pdfrwt beam="2">  1       -2 0.18083451E+00 0.15948937E+04</pdfrwt>
<totfact> 0.14206725E-01</totfact>
</mgrwt>
</event>
<event>
 4    1  0.1726795E-008  0.1108920E+04  0.7818608E-02  0.9196541E-01
          2   -1    0    0  501    0  0.00000000000E+00  0.00000000000E+00  0.16540285476E+04  0.16540285476E+04  0.25500000000E-02 0. -1.
         -2   -1    0    0    0  501 -0.00000000000E+00 -0.00000000000E+00 -0.15803711337E+04  0.15803711337E+04  0.25500000000E-02 0.  1.
    8880022    1    1    2    0    0 -0.96017087743E+03 -0.53327688159E+03 -0.11400286551E+04  0.15903991115E+04  0.15294330000E+03 0.  0.
    8880022    1    1    2    0    0  0.96017087743E+03  0.53327688159E+03  0.12136860691E+04  0.16440005698E+04  0.15294330000E+03 0.  0.
<mgrwt>
<rscale>  0 0.11089202E+04</rscale>
<asrwt>0</asrwt>
<pdfrwt beam="1">  1        2 0.25446593E+00 0.11089202E+04</pdfrwt>
<pdfrwt beam="2">  1       -2 0.24313402E+00 0.11089202E+04</pdfrwt>
<totfact> 0.72444118E-01</totfact>
</mgrwt>
</event>
<event>
 4    1  0.1726795E-008  0.7996839E+03  0.7818608E-02  0.9560475E-01
         -2   -1    0    0    0  501 -0.00000000000E+00  0.00000000000E+00  0.12729655815E+04  0.12729655815E+04  0.25500000000E-02 0.  1.
          2   -1    0    0  501    0  0.00000000000E+00 -0.00000000000E+00 -0.71371480733E+03  0.71371480733E+03  0.25500000000E-02 0. -1.
    8880022    1    1    2    0    0  0.46718948108E+03  0.63074294513E+03  0.82017529608E+03  0.11455050604E+04  0.15294330000E+03 0.  0.
    8880022    1    1    2    0    0 -0.46718948108E+03 -0.63074294513E+03 -0.26092452189E+03  0.84117532846E+03  0.15294330000E+03 0.  0.
<mgrwt>
<rscale>  0 0.79968389E+03</rscale>
<asrwt>0</asrwt>
<pdfrwt beam="1">  1        2 0.10980228E+00 0.79968389E+03</pdfrwt>
<pdfrwt beam="2">  1       -2 0.19584086E+00 0.79968389E+03</pdfrwt>
<totfact> 0.57445675E+00</totfact>
</mgrwt>
</event>
<event>
 4    1  0.1726795E-008  0.1397250E+04  0.7818608E-02  0.8955812E-01
          2   -1    0    0  501    0  0.00000000000E+00  0.00000000000E+00  0.18866348970E+04  0.18866348970E+04  0.25500000000E-02 0. -1.
         -2   -1    0    0    0  501 -0.00000000000E+00 -0.00000000000E+00 -0.16896585856E+04  0.16896585856E+04  0.25500000000E-02 0.  1.
    8880022    1    1    2    0    0  0.13821812765E+04  0.13597881698E+03  0.12116912861E+04  0.18494601227E+04  0.15294330000E+03 0.  0.
    8880022    1    1    2    0    0 -0.13821812765E+04 -0.13597881698E+03 -0.10147149748E+04  0.17268333599E+04  0.15294330000E+03 0.  0.
<mgrwt>
<rscale>  0 0.13972498E+04</rscale>
<asrwt>0</asrwt>
<pdfrwt beam="1">  1        2 0.29025152E+00 0.13972498E+04</pdfrwt>
<pdfrwt beam="2">  1       -2 0.25994747E+00 0.13972498E+04</pdfrwt>
<totfact> 0.40924527E-01</totfact>
</mgrwt>
</event>
<event>
 4    1  0.1726795E-008  0.6080512E+03  0.7818608E-02  0.9888842E-01
         -2   -1    0    0    0  501 -0.00000000000E+00  0.00000000000E+00  0.46595376097E+03  0.46595376098E+03  0.25500000000E-02 0.  1.
          2   -1    0    0  501    0  0.00000000000E+00 -0.00000000000E+00 -0.16905671280E+04  0.16905671280E+04  0.25500000000E-02 0. -1.
    8880022    1    1    2    0    0 -0.14815418781E+03 -0.56954800740E+03 -0.13977667719E+04  0.15242959679E+04  0.15294330000E+03 0.  0.
    8880022    1    1    2    0    0  0.14815418781E+03  0.56954800740E+03  0.17315340494E+03  0.63222492102E+03  0.15294330000E+03 0.  0.
<mgrwt>
<rscale>  0 0.60805119E+03</rscale>
<asrwt>0</asrwt>
<pdfrwt beam="1">  1        2 0.26008725E+00 0.60805119E+03</pdfrwt>
<pdfrwt beam="2">  1       -2 0.71685195E-01 0.60805119E+03</pdfrwt>
<totfact> 0.18375344E+01</totfact>
</mgrwt>
</event>
<event>
 4    1  0.1726795E-008  0.3045889E+03  0.7818608E-02  0.1082969E+00
          2   -1    0    0  501    0  0.00000000000E+00  0.00000000000E+00  0.33673653911E+04  0.33673653911E+04  0.25500000000E-02 0. -1.
         -2   -1    0    0    0  501 -0.00000000000E+00 -0.00000000000E+00 -0.58833887482E+02  0.58833887537E+02  0.25500000000E-02 0.  1.
    8880022    1    1    2    0    0  0.21180614042E+03  0.15659149867E+03  0.29034371887E+04  0.29193701205E+04  0.15294330000E+03 0.  0.
    8880022    1    1    2    0    0 -0.21180614042E+03 -0.15659149867E+03  0.40509431494E+03  0.50682915819E+03  0.15294330000E+03 0.  0.
<mgrwt>
<rscale>  0 0.30458889E+03</rscale>
<asrwt>0</asrwt>
<pdfrwt beam="1">  1        2 0.51805620E+00 0.30458889E+03</pdfrwt>
<pdfrwt beam="2">  1       -2 0.90513675E-02 0.30458889E+03</pdfrwt>
<totfact> 0.95274790E+01</totfact>
</mgrwt>
</event>
<event>
 4    1  0.1726795E-008  0.2293392E+03  0.7818608E-02  0.1127106E+00
         -2   -1    0    0    0  501 -0.00000000000E+00  0.00000000000E+00  0.70583425770E+03  0.70583425771E+03  0.25500000000E-02 0.  1.
          2   -1    0    0  501    0  0.00000000000E+00 -0.00000000000E+00 -0.46296666408E+03  0.46296666409E+03  0.25500000000E-02 0. -1.
    8880022    1    1    2    0    0 -0.11188300115E+03 -0.12917812742E+03 -0.41387357716E+03  0.47316781953E+03  0.15294330000E+03 0.  0.
    8880022    1    1    2    0    0  0.11188300115E+03  0.12917812742E+03  0.65674117079E+03  0.69563310227E+03  0.15294330000E+03 0.  0.
<mgrwt>
<rscale>  0 0.22933915E+03</rscale>
<asrwt>0</asrwt>
<pdfrwt beam="1">  1        2 0.71225640E-01 0.22933915E+03</pdfrwt>
<pdfrwt beam="2">  1       -2 0.10858989E+00 0.22933915E+03</pdfrwt>
<totfact> 0.48891200E+01</totfact>
</mgrwt>
</event>
<event>
 4    1  0.1726795E-008  0.1185644E+04  0.7818608E-02  0.9125516E-01
         -2   -1    0    0    0  501 -0.00000000000E+00  0.00000000000E+00  0.64819651605E+03  0.64819651606E+03  0.25500000000E-02 0.  1.
          2   -1    0    0  501    0  0.00000000000E+00 -0.00000000000E+00 -0.30037933076E+04  0.30037933077E+04  0.25500000000E-02 0. -1.
    8880022    1    1    2    0    0 -0.11624567228E+04  0.17622576753E+03 -0.21501537485E+03  0.12049831608E+04  0.15294330000E+03 0.  0.
    8880022    1    1    2    0    0  0.11624567228E+04 -0.17622576753E+03 -0.21405814167E+04  0.24470066629E+04  0.15294330000E+03 0.  0.
<mgrwt>
<rscale>  0 0.11856445E+04</rscale>
<asrwt>0</asrwt>
<pdfrwt beam="1">  1        2 0.46212204E+00 0.11856445E+04</pdfrwt>
<pdfrwt beam="2">  1       -2 0.99722542E-01 0.11856445E+04</pdfrwt>
<totfact> 0.14290753E+00</totfact>
</mgrwt>
</event>
<event>
 4    1  0.1726795E-008  0.5906950E+03  0.7818608E-02  0.9924901E-01
         -2   -1    0    0    0  501 -0.00000000000E+00  0.00000000000E+00  0.83511493672E+03  0.83511493673E+03  0.25500000000E-02 0.  1.
          2   -1    0    0  501    0  0.00000000000E+00 -0.00000000000E+00 -0.54640924645E+03  0.54640924645E+03  0.25500000000E-02 0. -1.
    8880022    1    1    2    0    0 -0.56924170347E+03  0.38636293652E+02  0.47946203614E+03  0.76079194086E+03  0.15294330000E+03 0.  0.
    8880022    1    1    2    0    0  0.56924170347E+03 -0.38636293652E+02 -0.19075634587E+03  0.62073224232E+03  0.15294330000E+03 0.  0.
<mgrwt>
<rscale>  0 0.59069496E+03</rscale>
<asrwt>0</asrwt>
<pdfrwt beam="1">  1        2 0.84062961E-01 0.59069496E+03</pdfrwt>
<pdfrwt beam="2">  1       -2 0.12847922E+00 0.59069496E+03</pdfrwt>
<totfact> 0.25518592E+01</totfact>
</mgrwt>
</event>
<event>
 4    1  0.1726795E-008  0.2515511E+03  0.7818608E-02  0.1112328E+00
         -2   -1    0    0    0  501 -0.00000000000E+00  0.00000000000E+00  0.97234603588E+03  0.97234603588E+03  0.25500000000E-02 0.  1.
          2   -1    0    0  501    0  0.00000000000E+00 -0.00000000000E+00 -0.17328006126E+04  0.17328006126E+04  0.25500000000E-02 0. -1.
    8880022    1    1    2    0    0 -0.19546050214E+03  0.41006077497E+02  0.94670414025E+03  0.97955433156E+03  0.15294330000E+03 0.  0.
    8880022    1    1    2    0    0  0.19546050214E+03 -0.41006077497E+02 -0.17071587170E+04  0.17255923169E+04  0.15294330000E+03 0. -1.
<mgrwt>
<rscale>  0 0.25155111E+03</rscale>
<asrwt>0</asrwt>
<pdfrwt beam="1">  1        2 0.26658471E+00 0.25155111E+03</pdfrwt>
<pdfrwt beam="2">  1       -2 0.14959170E+00 0.25155111E+03</pdfrwt>
<totfact> 0.33772559E+00</totfact>
</mgrwt>
</event>
<event>
 4    1  0.1726795E-008  0.3371557E+03  0.7818608E-02  0.1068014E+00
          2   -1    0    0  501    0  0.00000000000E+00  0.00000000000E+00  0.74303962874E+03  0.74303962875E+03  0.25500000000E-02 0. -1.
         -2   -1    0    0    0  501 -0.00000000000E+00 -0.00000000000E+00 -0.27373416962E+03  0.27373416963E+03  0.25500000000E-02 0.  1.
    8880022    1    1    2    0    0  0.15735388991E+03 -0.25597282066E+03 -0.10300116118E+03  0.35253825864E+03  0.15294330000E+03 0.  1.
    8880022    1    1    2    0    0 -0.15735388991E+03  0.25597282066E+03  0.57230662031E+03  0.66423553974E+03  0.15294330000E+03 0.  0.
<mgrwt>
<rscale>  0 0.33715573E+03</rscale>
<asrwt>0</asrwt>
<pdfrwt beam="1">  1        2 0.11431379E+00 0.33715573E+03</pdfrwt>
<pdfrwt beam="2">  1       -2 0.42112949E-01 0.33715573E+03</pdfrwt>
<totfact> 0.21061926E+02</totfact>
</mgrwt>
</event>
<event>
 4    1  0.2436993E-008  0.1061844E+04  0.7818608E-02  0.9243201E-01
         -2   -1    0    0    0  501 -0.00000000000E+00  0.00000000000E+00  0.90786518534E+03  0.90786518535E+03  0.25500000000E-02 0.  1.
          2   -1    0    0  501    0  0.00000000000E+00 -0.00000000000E+00 -0.39289439569E+04  0.39289439569E+04  0.25500000000E-02 0. -1.
    8880022    1    1    2    0    0  0.41016753261E+03 -0.96741084231E+03 -0.35105177896E+04  0.36675942997E+04  0.15294330000E+03 0.  0.
    8880022    1    1    2    0    0 -0.41016753261E+03  0.96741084231E+03  0.48943901809E+03  0.11692148426E+04  0.15294330000E+03 0.  0.
<mgrwt>
<rscale>  0 0.10618441E+04</rscale>
<asrwt>0</asrwt>
<pdfrwt beam="1">  1        2 0.60445291E+00 0.10618441E+04</pdfrwt>
<pdfrwt beam="2">  1       -2 0.13967157E+00 0.10618441E+04</pdfrwt>
<totfact> 0.14553386E-01</totfact>
</mgrwt>
</event>
<event>
 4    1  0.1726795E-008  0.1153499E+04  0.7818608E-02  0.9154561E-01
         -2   -1    0    0    0  501 -0.00000000000E+00  0.00000000000E+00  0.11589270866E+04  0.11589270866E+04  0.25500000000E-02 0.  1.
          2   -1    0    0  501    0  0.00000000000E+00 -0.00000000000E+00 -0.13785322604E+04  0.13785322604E+04  0.25500000000E-02 0. -1.
    8880022    1    1    2    0    0 -0.11432899772E+04 -0.75308163661E+01 -0.62852546264E+03  0.13136226990E+04  0.15294330000E+03 0.  0.
    8880022    1    1    2    0    0  0.11432899772E+04  0.75308163661E+01  0.40892028889E+03  0.12238366479E+04  0.15294330000E+03 0. -1.
<mgrwt>
<rscale>  0 0.11534992E+04</rscale>
<asrwt>0</asrwt>
<pdfrwt beam="1">  1        2 0.21208189E+00 0.11534992E+04</pdfrwt>
<pdfrwt beam="2">  1       -2 0.17829647E+00 0.11534992E+04</pdfrwt>
<totfact> 0.27052894E+00</totfact>
</mgrwt>
</event>
<event>
 4    1  0.1726795E-008  0.4167559E+03  0.7818608E-02  0.1038127E+00
         -2   -1    0    0    0  501 -0.00000000000E+00  0.00000000000E+00  0.56313982685E+03  0.56313982686E+03  0.25500000000E-02 0.  1.
          2   -1    0    0  501    0  0.00000000000E+00 -0.00000000000E+00 -0.10536083257E+04  0.10536083257E+04  0.25500000000E-02 0. -1.
    8880022    1    1    2    0    0  0.31913011281E+03 -0.22011317506E+03  0.43460277924E+03  0.60213376211E+03  0.15294330000E+03 0.  0.
    8880022    1    1    2    0    0 -0.31913011281E+03  0.22011317506E+03 -0.92507127810E+03  0.10146143905E+04  0.15294330000E+03 0.  0.
<mgrwt>
<rscale>  0 0.41675591E+03</rscale>
<asrwt>0</asrwt>
<pdfrwt beam="1">  1        2 0.16209359E+00 0.41675591E+03</pdfrwt>
<pdfrwt beam="2">  1       -2 0.86636897E-01 0.41675591E+03</pdfrwt>
<totfact> 0.28555091E+01</totfact>
</mgrwt>
</event>
<event>
 4    1  0.1726795E-008  0.1278256E+04  0.7818608E-02  0.9046988E-01
          2   -1    0    0  501    0  0.00000000000E+00  0.00000000000E+00  0.36631392988E+04  0.36631392988E+04  0.25500000000E-02 0. -1.
         -2   -1    0    0    0  501 -0.00000000000E+00 -0.00000000000E+00 -0.73831971925E+03  0.73831971925E+03  0.25500000000E-02 0.  1.
    8880022    1    1    2    0    0 -0.12682782944E+04  0.44922630303E+02  0.77769048480E+02  0.12806199876E+04  0.15294330000E+03 0.  0.
    8880022    1    1    2    0    0  0.12682782944E+04 -0.44922630303E+02  0.28470505310E+04  0.31208390304E+04  0.15294330000E+03 0.  0.
<mgrwt>
<rscale>  0 0.12782564E+04</rscale>
<asrwt>0</asrwt>
<pdfrwt beam="1">  1        2 0.56355990E+00 0.12782564E+04</pdfrwt>
<pdfrwt beam="2">  1       -2 0.11358765E+00 0.12782564E+04</pdfrwt>
<totfact> 0.37402223E-01</totfact>
</mgrwt>
</event>
<event>
 4    1  0.1726795E-008  0.4951752E+03  0.7818608E-02  0.1015046E+00
         -2   -1    0    0    0  501 -0.00000000000E+00  0.00000000000E+00  0.39685025890E+03  0.39685025891E+03  0.25500000000E-02 0.  1.
          2   -1    0    0  501    0  0.00000000000E+00 -0.00000000000E+00 -0.75617237020E+03  0.75617237021E+03  0.25500000000E-02 0. -1.
    8880022    1    1    2    0    0 -0.46751719136E+03 -0.56873057618E+02 -0.42622268321E+03  0.65334852689E+03  0.15294330000E+03 0.  0.
    8880022    1    1    2    0    0  0.46751719136E+03  0.56873057618E+02  0.66900571908E+02  0.49967410222E+03  0.15294330000E+03 0.  0.
<mgrwt>
<rscale>  0 0.49517524E+03</rscale>
<asrwt>0</asrwt>
<pdfrwt beam="1">  1        2 0.11633421E+00 0.49517524E+03</pdfrwt>
<pdfrwt beam="2">  1       -2 0.61053886E-01 0.49517524E+03</pdfrwt>
<totfact> 0.95653674E+01</totfact>
</mgrwt>
</event>
<event>
 4    1  0.1726795E-008  0.5862918E+03  0.7818608E-02  0.9934261E-01
         -2   -1    0    0    0  501 -0.00000000000E+00  0.00000000000E+00  0.26237336745E+04  0.26237336745E+04  0.25500000000E-02 0.  1.
          2   -1    0    0  501    0  0.00000000000E+00 -0.00000000000E+00 -0.39962697605E+03  0.39962697606E+03  0.25500000000E-02 0. -1.
    8880022    1    1    2    0    0  0.53082375029E+03  0.19639903234E+03  0.23514161209E+04  0.24234058390E+04  0.15294330000E+03 0.  0.
    8880022    1    1    2    0    0 -0.53082375029E+03 -0.19639903234E+03 -0.12730942252E+03  0.59995481150E+03  0.15294330000E+03 0.  0.
<mgrwt>
<rscale>  0 0.58629181E+03</rscale>
<asrwt>0</asrwt>
<pdfrwt beam="1">  1        2 0.61481072E-01 0.58629181E+03</pdfrwt>
<pdfrwt beam="2">  1       -2 0.40365134E+00 0.58629181E+03</pdfrwt>
<totfact> 0.61577928E-01</totfact>
</mgrwt>
</event>
<event>
 4    1  0.1726795E-008  0.6546359E+03  0.7818608E-02  0.9798119E-01
          2   -1    0    0  501    0  0.00000000000E+00  0.00000000000E+00  0.82919920504E+03  0.82919920504E+03  0.25500000000E-02 0. -1.
         -2   -1    0    0    0  501 -0.00000000000E+00 -0.00000000000E+00 -0.19605504965E+04  0.19605504965E+04  0.25500000000E-02 0.  1.
    8880022    1    1    2    0    0  0.42652030425E+02  0.63508843894E+03 -0.17626615376E+04  0.18802988778E+04  0.15294330000E+03 0.  0.
    8880022    1    1    2    0    0 -0.42652030425E+02 -0.63508843894E+03  0.63131024607E+03  0.90945082373E+03  0.15294330000E+03 0.  0.
<mgrwt>
<rscale>  0 0.65463591E+03</rscale>
<asrwt>0</asrwt>
<pdfrwt beam="1">  1        2 0.12756911E+00 0.65463591E+03</pdfrwt>
<pdfrwt beam="2">  1       -2 0.30162315E+00 0.65463591E+03</pdfrwt>
<totfact> 0.10856468E+00</totfact>
</mgrwt>
</event>
<event>
 4    1  0.1726795E-008  0.1252444E+04  0.7818608E-02  0.9068151E-01
          2   -1    0    0  501    0  0.00000000000E+00  0.00000000000E+00  0.20620977725E+04  0.20620977725E+04  0.25500000000E-02 0. -1.
         -2   -1    0    0    0  501 -0.00000000000E+00 -0.00000000000E+00 -0.10268869470E+04  0.10268869470E+04  0.25500000000E-02 0.  1.
    8880022    1    1    2    0    0  0.61594433265E+03 -0.10797398122E+04 -0.26876287293E+03  0.12809569149E+04  0.15294330000E+03 0.  0.
    8880022    1    1    2    0    0 -0.61594433265E+03  0.10797398122E+04  0.13039736985E+04  0.18080278046E+04  0.15294330000E+03 0. -1.
<mgrwt>
<rscale>  0 0.12524445E+04</rscale>
<asrwt>0</asrwt>
<pdfrwt beam="1">  1        2 0.31724581E+00 0.12524445E+04</pdfrwt>
<pdfrwt beam="2">  1       -2 0.15798261E+00 0.12524445E+04</pdfrwt>
<totfact> 0.15560197E+00</totfact>
</mgrwt>
</event>
<event>
 4    1  0.1726795E-008  0.3376498E+03  0.7818608E-02  0.1067801E+00
         -2   -1    0    0    0  501 -0.00000000000E+00  0.00000000000E+00  0.45665090280E+03  0.45665090281E+03  0.25500000000E-02 0.  1.
          2   -1    0    0  501    0  0.00000000000E+00 -0.00000000000E+00 -0.45033058518E+03  0.45033058519E+03  0.25500000000E-02 0. -1.
    8880022    1    1    2    0    0  0.29671722783E+03  0.50740737887E+02 -0.29956237026E+03  0.45138121634E+03  0.15294330000E+03 0.  0.
    8880022    1    1    2    0    0 -0.29671722783E+03 -0.50740737887E+02  0.30588268788E+03  0.45560027166E+03  0.15294330000E+03 0.  0.
<mgrwt>
<rscale>  0 0.33764980E+03</rscale>
<asrwt>0</asrwt>
<pdfrwt beam="1">  1        2 0.69281628E-01 0.33764980E+03</pdfrwt>
<pdfrwt beam="2">  1       -2 0.70253985E-01 0.33764980E+03</pdfrwt>
<totfact> 0.13294436E+02</totfact>
</mgrwt>
</event>
<event>
 4    1  0.1726795E-008  0.8982454E+03  0.7818608E-02  0.9427777E-01
          2   -1    0    0  501    0  0.00000000000E+00  0.00000000000E+00  0.17189124741E+04  0.17189124741E+04  0.25500000000E-02 0. -1.
         -2   -1    0    0    0  501 -0.00000000000E+00 -0.00000000000E+00 -0.69087853179E+03  0.69087853179E+03  0.25500000000E-02 0.  1.
    8880022    1    1    2    0    0  0.16356564027E+02 -0.88497774945E+03  0.11962325003E+04  0.14959334885E+04  0.15294330000E+03 0.  0.
    8880022    1    1    2    0    0 -0.16356564027E+02  0.88497774945E+03 -0.16819855799E+03  0.91385751741E+03  0.15294330000E+03 0.  0.
<mgrwt>
<rscale>  0 0.89824540E+03</rscale>
<asrwt>0</asrwt>
<pdfrwt beam="1">  1        2 0.26444807E+00 0.89824540E+03</pdfrwt>
<pdfrwt beam="2">  1       -2 0.10628900E+00 0.89824540E+03</pdfrwt>
<totfact> 0.68926567E+00</totfact>
</mgrwt>
</event>
<event>
 4    1  0.1726795E-008  0.3185349E+03  0.7818608E-02  0.1076326E+00
          2   -1    0    0  501    0  0.00000000000E+00  0.00000000000E+00  0.52409874726E+03  0.52409874727E+03  0.25500000000E-02 0. -1.
         -2   -1    0    0    0  501 -0.00000000000E+00 -0.00000000000E+00 -0.79181831564E+03  0.79181831564E+03  0.25500000000E-02 0.  1.
    8880022    1    1    2    0    0  0.26312450533E+03 -0.94012202297E+02  0.43803527089E+03  0.54160811575E+03  0.15294330000E+03 0.  0.
    8880022    1    1    2    0    0 -0.26312450533E+03  0.94012202297E+02 -0.70575483927E+03  0.77430894716E+03  0.15294330000E+03 0.  0.
<mgrwt>
<rscale>  0 0.31853485E+03</rscale>
<asrwt>0</asrwt>
<pdfrwt beam="1">  1        2 0.80630576E-01 0.31853485E+03</pdfrwt>
<pdfrwt beam="2">  1       -2 0.12181820E+00 0.31853485E+03</pdfrwt>
<totfact> 0.31713486E+01</totfact>
</mgrwt>
</event>
<event>
 4    1  0.1726795E-008  0.4453904E+03  0.7818608E-02  0.1029106E+00
         -2   -1    0    0    0  501 -0.00000000000E+00  0.00000000000E+00  0.86971636540E+03  0.86971636541E+03  0.25500000000E-02 0.  1.
          2   -1    0    0  501    0  0.00000000000E+00 -0.00000000000E+00 -0.82801714099E+03  0.82801714100E+03  0.25500000000E-02 0. -1.
    8880022    1    1    2    0    0 -0.40767076093E+03 -0.93731038224E+02  0.74340231541E+03  0.86661387735E+03  0.15294330000E+03 0.  0.
    8880022    1    1    2    0    0  0.40767076093E+03  0.93731038224E+02 -0.70170309100E+03  0.83111962905E+03  0.15294330000E+03 0. -1.
<mgrwt>
<rscale>  0 0.44539040E+03</rscale>
<asrwt>0</asrwt>
<pdfrwt beam="1">  1        2 0.12738725E+00 0.44539040E+03</pdfrwt>
<pdfrwt beam="2">  1       -2 0.13380252E+00 0.44539040E+03</pdfrwt>
<totfact> 0.14057945E+01</totfact>
</mgrwt>
</event>
<event>
 4    1  0.1726795E-008  0.1014974E+04  0.7818608E-02  0.9292272E-01
         -2   -1    0    0    0  501 -0.00000000000E+00  0.00000000000E+00  0.17678542176E+04  0.17678542176E+04  0.25500000000E-02 0.  1.
          2   -1    0    0  501    0  0.00000000000E+00 -0.00000000000E+00 -0.90663669985E+03  0.90663669985E+03  0.25500000000E-02 0. -1.
    8880022    1    1    2    0    0 -0.94308771494E+03 -0.34258749413E+03 -0.36868793529E+03  0.10798625264E+04  0.15294330000E+03 0.  0.
    8880022    1    1    2    0    0  0.94308771494E+03  0.34258749413E+03  0.12299054530E+04  0.15946283911E+04  0.15294330000E+03 0.  0.
<mgrwt>
<rscale>  0 0.10149740E+04</rscale>
<asrwt>0</asrwt>
<pdfrwt beam="1">  1        2 0.13948257E+00 0.10149740E+04</pdfrwt>
<pdfrwt beam="2">  1       -2 0.27197757E+00 0.10149740E+04</pdfrwt>
<totfact> 0.13652335E+00</totfact>
</mgrwt>
</event>
<event>
 4    1  0.1726795E-008  0.5577447E+03  0.7818608E-02  0.9997171E-01
          2   -1    0    0  501    0  0.00000000000E+00  0.00000000000E+00  0.18377094750E+04  0.18377094750E+04  0.25500000000E-02 0. -1.
         -2   -1    0    0    0  501 -0.00000000000E+00 -0.00000000000E+00 -0.20271504485E+03  0.20271504486E+03  0.25500000000E-02 0.  1.
    8880022    1    1    2    0    0  0.19673223214E+03 -0.49898286942E+03  0.40313709958E+03  0.68818503995E+03  0.15294330000E+03 0.  0.
    8880022    1    1    2    0    0 -0.19673223214E+03  0.49898286942E+03  0.12318573306E+04  0.13522394799E+04  0.15294330000E+03 0.  0.
<mgrwt>
<rscale>  0 0.55774468E+03</rscale>
<asrwt>0</asrwt>
<pdfrwt beam="1">  1        2 0.28272455E+00 0.55774468E+03</pdfrwt>
<pdfrwt beam="2">  1       -2 0.31186929E-01 0.55774468E+03</pdfrwt>
<totfact> 0.82204448E+01</totfact>
</mgrwt>
</event>
<event>
 4    1  0.1726795E-008  0.6850442E+03  0.7818608E-02  0.9743156E-01
         -2   -1    0    0    0  501 -0.00000000000E+00  0.00000000000E+00  0.54526810664E+03  0.54526810665E+03  0.25500000000E-02 0.  1.
          2   -1    0    0  501    0  0.00000000000E+00 -0.00000000000E+00 -0.13554330788E+04  0.13554330788E+04  0.25500000000E-02 0. -1.
    8880022    1    1    2    0    0 -0.66052129217E+03  0.98007572655E+02  0.16910247270E+03  0.70560694512E+03  0.15294330000E+03 0.  0.
    8880022    1    1    2    0    0  0.66052129217E+03 -0.98007572655E+02 -0.97926744486E+03  0.11950942403E+04  0.15294330000E+03 0.  0.
<mgrwt>
<rscale>  0 0.68504417E+03</rscale>
<asrwt>0</asrwt>
<pdfrwt beam="1">  1        2 0.20852816E+00 0.68504417E+03</pdfrwt>
<pdfrwt beam="2">  1       -2 0.83887402E-01 0.68504417E+03</pdfrwt>
<totfact> 0.19625999E+01</totfact>
</mgrwt>
</event>
<event>
 4    1  0.1726795E-008  0.6666908E+03  0.7818608E-02  0.9775954E-01
          2   -1    0    0  501    0  0.00000000000E+00  0.00000000000E+00  0.13899752117E+04  0.13899752117E+04  0.25500000000E-02 0. -1.
         -2   -1    0    0    0  501 -0.00000000000E+00 -0.00000000000E+00 -0.49657258734E+03  0.49657258734E+03  0.25500000000E-02 0.  1.
    8880022    1    1    2    0    0 -0.64064611403E+03 -0.10323538119E+03 -0.11614131928E+03  0.67673144335E+03  0.15294330000E+03 0.  0.
    8880022    1    1    2    0    0  0.64064611403E+03  0.10323538119E+03  0.10095439436E+04  0.12098163557E+04  0.15294330000E+03 0. -1.
<mgrwt>
<rscale>  0 0.66669081E+03</rscale>
<asrwt>0</asrwt>
<pdfrwt beam="1">  1        2 0.21384234E+00 0.66669081E+03</pdfrwt>
<pdfrwt beam="2">  1       -2 0.76395784E-01 0.66669081E+03</pdfrwt>
<totfact> 0.23202921E+01</totfact>
</mgrwt>
</event>
<event>
 4    1  0.1726795E-008  0.7954487E+03  0.7818608E-02  0.9566628E-01
          2   -1    0    0  501    0  0.00000000000E+00  0.00000000000E+00  0.34960925534E+04  0.34960925534E+04  0.25500000000E-02 0. -1.
         -2   -1    0    0    0  501 -0.00000000000E+00 -0.00000000000E+00 -0.30246497942E+03  0.30246497943E+03  0.25500000000E-02 0.  1.
    8880022    1    1    2    0    0 -0.68215208065E+03  0.37949385518E+03  0.28004752119E+04  0.29112540447E+04  0.15294330000E+03 0.  0.
    8880022    1    1    2    0    0  0.68215208065E+03 -0.37949385518E+03  0.39315236210E+03  0.88730348816E+03  0.15294330000E+03 0.  0.
<mgrwt>
<rscale>  0 0.79544874E+03</rscale>
<asrwt>0</asrwt>
<pdfrwt beam="1">  1        2 0.53786039E+00 0.79544874E+03</pdfrwt>
<pdfrwt beam="2">  1       -2 0.46533074E-01 0.79544874E+03</pdfrwt>
<totfact> 0.38505206E+00</totfact>
</mgrwt>
</event>
<event>
 4    1  0.1726795E-008  0.5259994E+03  0.7818608E-02  0.1007207E+00
          2   -1    0    0  501    0  0.00000000000E+00  0.00000000000E+00  0.42760400514E+03  0.42760400514E+03  0.25500000000E-02 0. -1.
         -2   -1    0    0    0  501 -0.00000000000E+00 -0.00000000000E+00 -0.15787209646E+04  0.15787209646E+04  0.25500000000E-02 0.  1.
    8880022    1    1    2    0    0 -0.16814028237E+03 -0.47435492199E+03  0.19508413533E+03  0.56101089066E+03  0.15294330000E+03 0. -1.
    8880022    1    1    2    0    0  0.16814028237E+03  0.47435492199E+03 -0.13462010948E+04  0.14453140791E+04  0.15294330000E+03 0.  0.
<mgrwt>
<rscale>  0 0.52599943E+03</rscale>
<asrwt>0</asrwt>
<pdfrwt beam="1">  1        2 0.65785232E-01 0.52599943E+03</pdfrwt>
<pdfrwt beam="2">  1       -2 0.24288015E+00 0.52599943E+03</pdfrwt>
<totfact> 0.55641701E+00</totfact>
</mgrwt>
</event>
<event>
 4    1  0.1972958E-008  0.1225610E+04  0.7818608E-02  0.9090731E-01
          2   -1    0    0  501    0  0.00000000000E+00  0.00000000000E+00  0.18436169640E+04  0.18436169640E+04  0.25500000000E-02 0. -1.
         -2   -1    0    0    0  501 -0.00000000000E+00 -0.00000000000E+00 -0.18277215406E+04  0.18277215406E+04  0.25500000000E-02 0.  1.
    8880022    1    1    2    0    0 -0.37256098446E+03 -0.11575521374E+04 -0.13586294557E+04  0.18297525212E+04  0.15294330000E+03 0.  0.
    8880022    1    1    2    0    0  0.37256098446E+03  0.11575521374E+04  0.13745248790E+04  0.18415859834E+04  0.15294330000E+03 0.  0.
<mgrwt>
<rscale>  0 0.12256102E+04</rscale>
<asrwt>0</asrwt>
<pdfrwt beam="1">  1        2 0.28363338E+00 0.12256102E+04</pdfrwt>
<pdfrwt beam="2">  1       -2 0.28118793E+00 0.12256102E+04</pdfrwt>
<totfact> 0.32817576E-01</totfact>
</mgrwt>
</event>
<event>
 4    1  0.1726795E-008  0.7820016E+03  0.7818608E-02  0.9586441E-01
         -2   -1    0    0    0  501 -0.00000000000E+00  0.00000000000E+00  0.66852252994E+03  0.66852252995E+03  0.25500000000E-02 0.  1.
          2   -1    0    0  501    0  0.00000000000E+00 -0.00000000000E+00 -0.12651882520E+04  0.12651882520E+04  0.25500000000E-02 0. -1.
    8880022    1    1    2    0    0 -0.33815105607E+03 -0.68832317304E+03  0.21052182991E+03  0.80984320776E+03  0.15294330000E+03 0.  0.
    8880022    1    1    2    0    0  0.33815105607E+03  0.68832317304E+03 -0.80718755198E+03  0.11238675742E+04  0.15294330000E+03 0.  0.
<mgrwt>
<rscale>  0 0.78200165E+03</rscale>
<asrwt>0</asrwt>
<pdfrwt beam="1">  1        2 0.19464435E+00 0.78200165E+03</pdfrwt>
<pdfrwt beam="2">  1       -2 0.10284962E+00 0.78200165E+03</pdfrwt>
<totfact> 0.13606082E+01</totfact>
</mgrwt>
</event>
<event>
 4    1  0.1726795E-008  0.1716707E+04  0.7818608E-02  0.8751893E-01
          2   -1    0    0  501    0  0.00000000000E+00  0.00000000000E+00  0.77525856503E+03  0.77525856503E+03  0.25500000000E-02 0. -1.
         -2   -1    0    0    0  501 -0.00000000000E+00 -0.00000000000E+00 -0.46649670472E+04  0.46649670472E+04  0.25500000000E-02 0.  1.
    8880022    1    1    2    0    0  0.11981081017E+03 -0.17056776444E+04 -0.77453075635E+03  0.18833428797E+04  0.15294330000E+03 0.  0.
    8880022    1    1    2    0    0 -0.11981081017E+03  0.17056776444E+04 -0.31151777258E+04  0.35568827326E+04  0.15294330000E+03 0.  0.
<mgrwt>
<rscale>  0 0.17167069E+04</rscale>
<asrwt>0</asrwt>
<pdfrwt beam="1">  1        2 0.11927055E+00 0.17167069E+04</pdfrwt>
<pdfrwt beam="2">  1       -2 0.71768722E+00 0.17167069E+04</pdfrwt>
<totfact> 0.64796898E-03</totfact>
</mgrwt>
</event>
<event>
 4    1  0.1726795E-008  0.6339525E+03  0.7818608E-02  0.9837366E-01
         -2   -1    0    0    0  501 -0.00000000000E+00  0.00000000000E+00  0.27158158426E+04  0.27158158426E+04  0.25500000000E-02 0.  1.
          2   -1    0    0  501    0  0.00000000000E+00 -0.00000000000E+00 -0.36027742110E+03  0.36027742111E+03  0.25500000000E-02 0. -1.
    8880022    1    1    2    0    0  0.36731729034E+03 -0.49354036167E+03 -0.28771562322E+01  0.63395899822E+03  0.15294330000E+03 0.  0.
    8880022    1    1    2    0    0 -0.36731729034E+03  0.49354036167E+03  0.23584155777E+04  0.24421342655E+04  0.15294330000E+03 0.  0.
<mgrwt>
<rscale>  0 0.63395247E+03</rscale>
<asrwt>0</asrwt>
<pdfrwt beam="1">  1        2 0.55427298E-01 0.63395247E+03</pdfrwt>
<pdfrwt beam="2">  1       -2 0.41781780E+00 0.63395247E+03</pdfrwt>
<totfact> 0.55278291E-01</totfact>
</mgrwt>
</event>
<event>
 4    1  0.1726795E-008  0.3506083E+03  0.7818608E-02  0.1062366E+00
          2   -1    0    0  501    0  0.00000000000E+00  0.00000000000E+00  0.15649435425E+04  0.15649435425E+04  0.25500000000E-02 0. -1.
         -2   -1    0    0    0  501 -0.00000000000E+00 -0.00000000000E+00 -0.22314390207E+03  0.22314390208E+03  0.25500000000E-02 0.  1.
    8880022    1    1    2    0    0  0.27445178156E+03  0.15559795969E+03  0.13905830551E+04  0.14341015974E+04  0.15294330000E+03 0.  0.
    8880022    1    1    2    0    0 -0.27445178156E+03 -0.15559795969E+03 -0.48783414668E+02  0.35398584721E+03  0.15294330000E+03 0.  0.
<mgrwt>
<rscale>  0 0.35060827E+03</rscale>
<asrwt>0</asrwt>
<pdfrwt beam="1">  1        2 0.24076053E+00 0.35060827E+03</pdfrwt>
<pdfrwt beam="2">  1       -2 0.34329834E-01 0.35060827E+03</pdfrwt>
<totfact> 0.99729994E+01</totfact>
</mgrwt>
</event>
<event>
 4    1  0.1726795E-008  0.1165771E+04  0.7818608E-02  0.9143356E-01
          2   -1    0    0  501    0  0.00000000000E+00  0.00000000000E+00  0.27006966971E+04  0.27006966971E+04  0.25500000000E-02 0. -1.
         -2   -1    0    0    0  501 -0.00000000000E+00 -0.00000000000E+00 -0.11313639660E+04  0.11313639660E+04  0.25500000000E-02 0.  1.
    8880022    1    1    2    0    0  0.72574832453E+03 -0.89940022679E+03 -0.64302246560E+03  0.13313530496E+04  0.15294330000E+03 0.  0.
    8880022    1    1    2    0    0 -0.72574832453E+03  0.89940022679E+03  0.22123551967E+04  0.25007076134E+04  0.15294330000E+03 0.  0.
<mgrwt>
<rscale>  0 0.11657714E+04</rscale>
<asrwt>0</asrwt>
<pdfrwt beam="1">  1        2 0.41549179E+00 0.11657714E+04</pdfrwt>
<pdfrwt beam="2">  1       -2 0.17405600E+00 0.11657714E+04</pdfrwt>
<totfact> 0.52067043E-01</totfact>
</mgrwt>
</event>
<event>
 4    1  0.1726795E-008  0.5039113E+03  0.7818608E-02  0.1012763E+00
         -2   -1    0    0    0  501 -0.00000000000E+00  0.00000000000E+00  0.69522329761E+03  0.69522329762E+03  0.25500000000E-02 0.  1.
          2   -1    0    0  501    0  0.00000000000E+00 -0.00000000000E+00 -0.10342395122E+04  0.10342395122E+04  0.25500000000E-02 0. -1.
    8880022    1    1    2    0    0  0.41561038288E+03  0.24042236738E+03  0.52596777654E+03  0.72840144156E+03  0.15294330000E+03 0.  0.
    8880022    1    1    2    0    0 -0.41561038288E+03 -0.24042236738E+03 -0.86498399114E+03  0.10010613683E+04  0.15294330000E+03 0.  0.
<mgrwt>
<rscale>  0 0.50391126E+03</rscale>
<asrwt>0</asrwt>
<pdfrwt beam="1">  1        2 0.15911377E+00 0.50391126E+03</pdfrwt>
<pdfrwt beam="2">  1       -2 0.10695743E+00 0.50391126E+03</pdfrwt>
<totfact> 0.17696730E+01</totfact>
</mgrwt>
</event>
<event>
 4    1  0.1726795E-008  0.7463117E+03  0.7818608E-02  0.9641155E-01
         -2   -1    0    0    0  501 -0.00000000000E+00  0.00000000000E+00  0.48687716318E+03  0.48687716319E+03  0.25500000000E-02 0.  1.
          2   -1    0    0  501    0  0.00000000000E+00 -0.00000000000E+00 -0.18678228052E+04  0.18678228052E+04  0.25500000000E-02 0. -1.
    8880022    1    1    2    0    0  0.46452944521E+03 -0.56373915281E+03 -0.14233949088E+04  0.16071820548E+04  0.15294330000E+03 0.  0.
    8880022    1    1    2    0    0 -0.46452944521E+03  0.56373915281E+03  0.42449266772E+02  0.74751791359E+03  0.15294330000E+03 0.  0.
<mgrwt>
<rscale>  0 0.74631166E+03</rscale>
<asrwt>0</asrwt>
<pdfrwt beam="1">  1        2 0.28735735E+00 0.74631166E+03</pdfrwt>
<pdfrwt beam="2">  1       -2 0.74904180E-01 0.74631166E+03</pdfrwt>
<totfact> 0.13082198E+01</totfact>
</mgrwt>
</event>
<event>
 4    1  0.1726795E-008  0.5286031E+03  0.7818608E-02  0.1006571E+00
         -2   -1    0    0    0  501 -0.00000000000E+00  0.00000000000E+00  0.18559676266E+04  0.18559676266E+04  0.25500000000E-02 0.  1.
          2   -1    0    0  501    0  0.00000000000E+00 -0.00000000000E+00 -0.50201062344E+03  0.50201062344E+03  0.25500000000E-02 0. -1.
    8880022    1    1    2    0    0 -0.27822957171E+03 -0.42263213690E+03  0.16634621790E+04  0.17454305175E+04  0.15294330000E+03 0.  0.
    8880022    1    1    2    0    0  0.27822957171E+03  0.42263213690E+03 -0.30950517581E+03  0.61254773249E+03  0.15294330000E+03 0.  0.
<mgrwt>
<rscale>  0 0.52860313E+03</rscale>
<asrwt>0</asrwt>
<pdfrwt beam="1">  1        2 0.77232404E-01 0.52860313E+03</pdfrwt>
<pdfrwt beam="2">  1       -2 0.28553348E+00 0.52860313E+03</pdfrwt>
<totfact> 0.25789650E+00</totfact>
</mgrwt>
</event>
<event>
 4    1  0.1726795E-008  0.4534120E+03  0.7818608E-02  0.1026709E+00
          2   -1    0    0  501    0  0.00000000000E+00  0.00000000000E+00  0.83289379218E+03  0.83289379219E+03  0.25500000000E-02 0. -1.
         -2   -1    0    0    0  501 -0.00000000000E+00 -0.00000000000E+00 -0.43326793120E+03  0.43326793120E+03  0.25500000000E-02 0.  1.
    8880022    1    1    2    0    0  0.42660068633E+03  0.14236372033E+02 -0.21547473391E+03  0.50200780256E+03  0.15294330000E+03 0.  0.
    8880022    1    1    2    0    0 -0.42660068633E+03 -0.14236372033E+02  0.61510059489E+03  0.76415392083E+03  0.15294330000E+03 0.  0.
<mgrwt>
<rscale>  0 0.45341203E+03</rscale>
<asrwt>0</asrwt>
<pdfrwt beam="1">  1        2 0.12813751E+00 0.45341203E+03</pdfrwt>
<pdfrwt beam="2">  1       -2 0.66656606E-01 0.45341203E+03</pdfrwt>
<totfact> 0.70312403E+01</totfact>
</mgrwt>
</event>
<event>
 4    1  0.2369649E-008  0.1114894E+04  0.7818608E-02  0.9190796E-01
         -2   -1    0    0    0  501 -0.00000000000E+00  0.00000000000E+00  0.13944153395E+04  0.13944153395E+04  0.25500000000E-02 0.  1.
          2   -1    0    0  501    0  0.00000000000E+00 -0.00000000000E+00 -0.26737376003E+04  0.26737376003E+04  0.25500000000E-02 0. -1.
    8880022    1    1    2    0    0 -0.88415021420E+03  0.66172077771E+03  0.10210816045E+04  0.15118185358E+04  0.15294330000E+03 0.  0.
    8880022    1    1    2    0    0  0.88415021420E+03 -0.66172077771E+03 -0.23004038653E+04  0.25563344041E+04  0.15294330000E+03 0.  0.
<mgrwt>
<rscale>  0 0.11148936E+04</rscale>
<asrwt>0</asrwt>
<pdfrwt beam="1">  1        2 0.41134425E+00 0.11148936E+04</pdfrwt>
<pdfrwt beam="2">  1       -2 0.21452544E+00 0.11148936E+04</pdfrwt>
<totfact> 0.29224947E-01</totfact>
</mgrwt>
</event>
<event>
 4    1  0.1726795E-008  0.1106864E+04  0.7818608E-02  0.9198528E-01
          2   -1    0    0  501    0  0.00000000000E+00  0.00000000000E+00  0.13087771699E+04  0.13087771699E+04  0.25500000000E-02 0. -1.
         -2   -1    0    0    0  501 -0.00000000000E+00 -0.00000000000E+00 -0.96868371138E+03  0.96868371138E+03  0.25500000000E-02 0.  1.
    8880022    1    1    2    0    0 -0.10928549356E+04 -0.86159621318E+02 -0.38799416342E+02  0.11075434251E+04  0.15294330000E+03 0.  0.
    8880022    1    1    2    0    0  0.10928549356E+04  0.86159621318E+02  0.37889287482E+03  0.11699174562E+04  0.15294330000E+03 0.  0.
<mgrwt>
<rscale>  0 0.11068636E+04</rscale>
<asrwt>0</asrwt>
<pdfrwt beam="1">  1        2 0.20135033E+00 0.11068636E+04</pdfrwt>
<pdfrwt beam="2">  1       -2 0.14902826E+00 0.11068636E+04</pdfrwt>
<totfact> 0.48855381E+00</totfact>
</mgrwt>
</event>
<event>
 4    1  0.1726795E-008  0.6940913E+03  0.7818608E-02  0.9727390E-01
          2   -1    0    0  501    0  0.00000000000E+00  0.00000000000E+00  0.16283146629E+04  0.16283146629E+04  0.25500000000E-02 0. -1.
         -2   -1    0    0    0  501 -0.00000000000E+00 -0.00000000000E+00 -0.48722171195E+03  0.48722171196E+03  0.25500000000E-02 0.  1.
    8880022    1    1    2    0    0  0.67304252545E+03 -0.73381813042E+02 -0.92353514480E+02  0.70020850909E+03  0.15294330000E+03 0.  0.
    8880022    1    1    2    0    0 -0.67304252545E+03  0.73381813042E+02  0.12334464655E+04  0.14153278658E+04  0.15294330000E+03 0.  0.
<mgrwt>
<rscale>  0 0.69409134E+03</rscale>
<asrwt>0</asrwt>
<pdfrwt beam="1">  1        2 0.25050995E+00 0.69409134E+03</pdfrwt>
<pdfrwt beam="2">  1       -2 0.74957187E-01 0.69409134E+03</pdfrwt>
<totfact> 0.17780577E+01</totfact>
</mgrwt>
</event>
<event>
 4    1  0.1726795E-008  0.5981874E+03  0.7818608E-02  0.9909174E-01
         -2   -1    0    0    0  501 -0.00000000000E+00  0.00000000000E+00  0.34772628754E+03  0.34772628755E+03  0.25500000000E-02 0.  1.
          2   -1    0    0  501    0  0.00000000000E+00 -0.00000000000E+00 -0.15378657628E+04  0.15378657628E+04  0.25500000000E-02 0. -1.
    8880022    1    1    2    0    0 -0.48419488658E+03 -0.31621475989E+03 -0.11373681606E+04  0.12850814949E+04  0.15294330000E+03 0.  0.
    8880022    1    1    2    0    0  0.48419488658E+03  0.31621475989E+03 -0.52771314572E+02  0.60051055546E+03  0.15294330000E+03 0.  0.
<mgrwt>
<rscale>  0 0.59818736E+03</rscale>
<asrwt>0</asrwt>
<pdfrwt beam="1">  1        2 0.23659473E+00 0.59818736E+03</pdfrwt>
<pdfrwt beam="2">  1       -2 0.53496353E-01 0.59818736E+03</pdfrwt>
<totfact> 0.41479551E+01</totfact>
</mgrwt>
</event>
<event>
 4    1  0.1726795E-008  0.1462143E+04  0.7818608E-02  0.8910025E-01
          2   -1    0    0  501    0  0.00000000000E+00  0.00000000000E+00  0.34997019465E+04  0.34997019465E+04  0.25500000000E-02 0. -1.
         -2   -1    0    0    0  501 -0.00000000000E+00 -0.00000000000E+00 -0.94905257552E+03  0.94905257552E+03  0.25500000000E-02 0.  1.
    8880022    1    1    2    0    0  0.81325751462E+02 -0.14518456720E+04 -0.52495318919E+02  0.14630848044E+04  0.15294330000E+03 0.  0.
    8880022    1    1    2    0    0 -0.81325751462E+02  0.14518456720E+04  0.26031446899E+04  0.29856697176E+04  0.15294330000E+03 0.  0.
<mgrwt>
<rscale>  0 0.14621427E+04</rscale>
<asrwt>0</asrwt>
<pdfrwt beam="1">  1        2 0.53841569E+00 0.14621427E+04</pdfrwt>
<pdfrwt beam="2">  1       -2 0.14600809E+00 0.14621427E+04</pdfrwt>
<totfact> 0.25081116E-01</totfact>
</mgrwt>
</event>
<event>
 4    1  0.1726795E-008  0.7514316E+03  0.7818608E-02  0.9633107E-01
         -2   -1    0    0    0  501 -0.00000000000E+00  0.00000000000E+00  0.28866225939E+03  0.28866225940E+03  0.25500000000E-02 0.  1.
          2   -1    0    0  501    0  0.00000000000E+00 -0.00000000000E+00 -0.21479611409E+04  0.21479611409E+04  0.25500000000E-02 0. -1.
    8880022    1    1    2    0    0 -0.19387586774E+03  0.70969707718E+03 -0.56552511709E+03  0.94046164437E+03  0.15294330000E+03 0.  0.
    8880022    1    1    2    0    0  0.19387586774E+03 -0.70969707718E+03 -0.12937737644E+04  0.14961617560E+04  0.15294330000E+03 0.  0.
<mgrwt>
<rscale>  0 0.75143160E+03</rscale>
<asrwt>0</asrwt>
<pdfrwt beam="1">  1        2 0.33045555E+00 0.75143160E+03</pdfrwt>
<pdfrwt beam="2">  1       -2 0.44409580E-01 0.75143160E+03</pdfrwt>
<totfact> 0.27510906E+01</totfact>
</mgrwt>
</event>
<event>
 4    1  0.1726795E-008  0.4045212E+03  0.7818608E-02  0.1042225E+00
          2   -1    0    0  501    0  0.00000000000E+00  0.00000000000E+00  0.10628122080E+04  0.10628122080E+04  0.25500000000E-02 0. -1.
         -2   -1    0    0    0  501 -0.00000000000E+00 -0.00000000000E+00 -0.15046338027E+04  0.15046338027E+04  0.25500000000E-02 0.  1.
    8880022    1    1    2    0    0 -0.95964197626E+02 -0.36198982714E+03 -0.14371811465E+04  0.14930261428E+04  0.15294330000E+03 0.  0.
    8880022    1    1    2    0    0  0.95964197626E+02  0.36198982714E+03  0.99535955180E+03  0.10744198679E+04  0.15294330000E+03 0.  0.
<mgrwt>
<rscale>  0 0.40452122E+03</rscale>
<asrwt>0</asrwt>
<pdfrwt beam="1">  1        2 0.16350957E+00 0.40452122E+03</pdfrwt>
<pdfrwt beam="2">  1       -2 0.23148212E+00 0.40452122E+03</pdfrwt>
<totfact> 0.21437448E+00</totfact>
</mgrwt>
</event>
<event>
 4    1  0.1726795E-008  0.1456641E+04  0.7818608E-02  0.8913810E-01
         -2   -1    0    0    0  501 -0.00000000000E+00  0.00000000000E+00  0.15733783687E+04  0.15733783687E+04  0.25500000000E-02 0.  1.
          2   -1    0    0  501    0  0.00000000000E+00 -0.00000000000E+00 -0.20517800805E+04  0.20517800805E+04  0.25500000000E-02 0. -1.
    8880022    1    1    2    0    0  0.12952903738E+04  0.64856218976E+03  0.82194707706E+03  0.16725425905E+04  0.15294330000E+03 0.  0.
    8880022    1    1    2    0    0 -0.12952903738E+04 -0.64856218976E+03 -0.13003487889E+04  0.19526158588E+04  0.15294330000E+03 0.  0.
<mgrwt>
<rscale>  0 0.14566406E+04</rscale>
<asrwt>0</asrwt>
<pdfrwt beam="1">  1        2 0.31565848E+00 0.14566406E+04</pdfrwt>
<pdfrwt beam="2">  1       -2 0.24205821E+00 0.14566406E+04</pdfrwt>
<totfact> 0.42368840E-01</totfact>
</mgrwt>
</event>
<event>
 4    1  0.1726795E-008  0.5423371E+03  0.7818608E-02  0.1003283E+00
         -2   -1    0    0    0  501 -0.00000000000E+00  0.00000000000E+00  0.38386653769E+03  0.38386653770E+03  0.25500000000E-02 0.  1.
          2   -1    0    0  501    0  0.00000000000E+00 -0.00000000000E+00 -0.26852930999E+04  0.26852930999E+04  0.25500000000E-02 0. -1.
    8880022    1    1    2    0    0  0.88401617305E+02 -0.51276025286E+03  0.14658070210E+03  0.56179665192E+03  0.15294330000E+03 0.  0.
    8880022    1    1    2    0    0 -0.88401617305E+02  0.51276025286E+03 -0.24480072643E+04  0.25073629857E+04  0.15294330000E+03 0.  0.
<mgrwt>
<rscale>  0 0.54233714E+03</rscale>
<asrwt>0</asrwt>
<pdfrwt beam="1">  1        2 0.41312200E+00 0.54233714E+03</pdfrwt>
<pdfrwt beam="2">  1       -2 0.59056392E-01 0.54233714E+03</pdfrwt>
<totfact> 0.79932780E+00</totfact>
</mgrwt>
</event>
<event>
 4    1  0.1726795E-008  0.3965112E+03  0.7818608E-02  0.1044994E+00
          2   -1    0    0  501    0  0.00000000000E+00  0.00000000000E+00  0.26895524831E+04  0.26895524831E+04  0.25500000000E-02 0. -1.
         -2   -1    0    0    0  501 -0.00000000000E+00 -0.00000000000E+00 -0.22472820159E+03  0.22472820160E+03  0.25500000000E-02 0.  1.
    8880022    1    1    2    0    0  0.90067555954E+02 -0.35456637656E+03 -0.20965954858E+02  0.39706511343E+03  0.15294330000E+03 0.  0.
    8880022    1    1    2    0    0 -0.90067555954E+02  0.35456637656E+03  0.24857902364E+04  0.25172155713E+04  0.15294330000E+03 0. -1.
<mgrwt>
<rscale>  0 0.39651120E+03</rscale>
<asrwt>0</asrwt>
<pdfrwt beam="1">  1        2 0.41377730E+00 0.39651120E+03</pdfrwt>
<pdfrwt beam="2">  1       -2 0.34573570E-01 0.39651120E+03</pdfrwt>
<totfact> 0.23918041E+01</totfact>
</mgrwt>
</event>
<event>
 4    1  0.1726795E-008  0.7991254E+03  0.7818608E-02  0.9561284E-01
         -2   -1    0    0    0  501 -0.00000000000E+00  0.00000000000E+00  0.72230512384E+03  0.72230512384E+03  0.25500000000E-02 0.  1.
          2   -1    0    0  501    0  0.00000000000E+00 -0.00000000000E+00 -0.15424299124E+04  0.15424299124E+04  0.25500000000E-02 0. -1.
    8880022    1    1    2    0    0 -0.76073564110E+03  0.19102614449E+03 -0.11498401587E+04  0.14002620280E+04  0.15294330000E+03 0.  0.
    8880022    1    1    2    0    0  0.76073564110E+03 -0.19102614449E+03  0.32971537019E+03  0.86447300818E+03  0.15294330000E+03 0.  0.
<mgrwt>
<rscale>  0 0.79912537E+03</rscale>
<asrwt>0</asrwt>
<pdfrwt beam="1">  1        2 0.23729691E+00 0.79912537E+03</pdfrwt>
<pdfrwt beam="2">  1       -2 0.11112387E+00 0.79912537E+03</pdfrwt>
<totfact> 0.78457031E+00</totfact>
</mgrwt>
</event>
<event>
 4    1  0.1726795E-008  0.1132736E+04  0.7818608E-02  0.9173860E-01
          2   -1    0    0  501    0  0.00000000000E+00  0.00000000000E+00  0.83104765634E+03  0.83104765635E+03  0.25500000000E-02 0. -1.
         -2   -1    0    0    0  501 -0.00000000000E+00 -0.00000000000E+00 -0.24980015349E+04  0.24980015349E+04  0.25500000000E-02 0.  1.
    8880022    1    1    2    0    0  0.51345680594E+03  0.99802849427E+03  0.19520548543E+03  0.11494327303E+04  0.15294330000E+03 0.  0.
    8880022    1    1    2    0    0 -0.51345680594E+03 -0.99802849427E+03 -0.18621593640E+04  0.21796164610E+04  0.15294330000E+03 0.  0.
<mgrwt>
<rscale>  0 0.11327358E+04</rscale>
<asrwt>0</asrwt>
<pdfrwt beam="1">  1        2 0.12785349E+00 0.11327358E+04</pdfrwt>
<pdfrwt beam="2">  1       -2 0.38430793E+00 0.11327358E+04</pdfrwt>
<totfact> 0.30617885E-01</totfact>
</mgrwt>
</event>
<event>
 4    1  0.1726795E-008  0.8360459E+03  0.7818608E-02  0.9509259E-01
         -2   -1    0    0    0  501 -0.00000000000E+00  0.00000000000E+00  0.11332134090E+04  0.11332134090E+04  0.25500000000E-02 0.  1.
          2   -1    0    0  501    0  0.00000000000E+00 -0.00000000000E+00 -0.22265365816E+04  0.22265365816E+04  0.25500000000E-02 0. -1.
    8880022    1    1    2    0    0 -0.61081488397E+03 -0.54998750385E+03  0.88170163011E+03  0.12150598728E+04  0.15294330000E+03 0.  0.
    8880022    1    1    2    0    0  0.61081488397E+03  0.54998750385E+03 -0.19750248027E+04  0.21446901177E+04  0.15294330000E+03 0.  0.
<mgrwt>
<rscale>  0 0.83604589E+03</rscale>
<asrwt>0</asrwt>
<pdfrwt beam="1">  1        2 0.34254409E+00 0.83604589E+03</pdfrwt>
<pdfrwt beam="2">  1       -2 0.17434053E+00 0.83604589E+03</pdfrwt>
<totfact> 0.10194225E+00</totfact>
</mgrwt>
</event>
<event>
 4    1  0.1726795E-008  0.8227868E+03  0.7818608E-02  0.9527607E-01
          2   -1    0    0  501    0  0.00000000000E+00  0.00000000000E+00  0.74270667737E+03  0.74270667737E+03  0.25500000000E-02 0. -1.
         -2   -1    0    0    0  501 -0.00000000000E+00 -0.00000000000E+00 -0.16449309089E+04  0.16449309089E+04  0.25500000000E-02 0.  1.
    8880022    1    1    2    0    0  0.78976367506E+03  0.17279992708E+03 -0.12482689774E+04  0.14950429994E+04  0.15294330000E+03 0.  0.
    8880022    1    1    2    0    0 -0.78976367506E+03 -0.17279992708E+03  0.34604474588E+03  0.89259458681E+03  0.15294330000E+03 0.  0.
<mgrwt>
<rscale>  0 0.82278681E+03</rscale>
<asrwt>0</asrwt>
<pdfrwt beam="1">  1        2 0.11426257E+00 0.82278681E+03</pdfrwt>
<pdfrwt beam="2">  1       -2 0.25306629E+00 0.82278681E+03</pdfrwt>
<totfact> 0.23856603E+00</totfact>
</mgrwt>
</event>
<event>
 4    1  0.1726795E-008  0.3657379E+03  0.7818608E-02  0.1056335E+00
         -2   -1    0    0    0  501 -0.00000000000E+00  0.00000000000E+00  0.12400028414E+03  0.12400028417E+03  0.25500000000E-02 0.  1.
          2   -1    0    0  501    0  0.00000000000E+00 -0.00000000000E+00 -0.16959270650E+04  0.16959270650E+04  0.25500000000E-02 0. -1.
    8880022    1    1    2    0    0 -0.19111399364E+03  0.27174995067E+03 -0.23701898260E+03  0.43582364023E+03  0.15294330000E+03 0.  0.
    8880022    1    1    2    0    0  0.19111399364E+03 -0.27174995067E+03 -0.13349077982E+04  0.13841037089E+04  0.15294330000E+03 0.  0.
<mgrwt>
<rscale>  0 0.36573795E+03</rscale>
<asrwt>0</asrwt>
<pdfrwt beam="1">  1        2 0.26091184E+00 0.36573795E+03</pdfrwt>
<pdfrwt beam="2">  1       -2 0.19076968E-01 0.36573795E+03</pdfrwt>
<totfact> 0.24228128E+02</totfact>
</mgrwt>
</event>
<event>
 4    1  0.1726795E-008  0.1282715E+04  0.7818608E-02  0.9043386E-01
         -2   -1    0    0    0  501 -0.00000000000E+00  0.00000000000E+00  0.80933161536E+03  0.80933161537E+03  0.25500000000E-02 0.  1.
          2   -1    0    0  501    0  0.00000000000E+00 -0.00000000000E+00 -0.31386019071E+04  0.31386019071E+04  0.25500000000E-02 0. -1.
    8880022    1    1    2    0    0  0.60559969129E+03 -0.11203636126E+04 -0.23362219829E+04  0.26651998831E+04  0.15294330000E+03 0.  0.
    8880022    1    1    2    0    0 -0.60559969129E+03  0.11203636126E+04  0.69516912033E+01  0.12827336393E+04  0.15294330000E+03 0.  0.
<mgrwt>
<rscale>  0 0.12827148E+04</rscale>
<asrwt>0</asrwt>
<pdfrwt beam="1">  1        2 0.48286182E+00 0.12827148E+04</pdfrwt>
<pdfrwt beam="2">  1       -2 0.12451256E+00 0.12827148E+04</pdfrwt>
<totfact> 0.67350904E-01</totfact>
</mgrwt>
</event>
<event>
 4    1  0.1726795E-008  0.9168344E+03  0.7818608E-02  0.9404779E-01
         -2   -1    0    0    0  501 -0.00000000000E+00  0.00000000000E+00  0.85562921621E+03  0.85562921622E+03  0.25500000000E-02 0.  1.
          2   -1    0    0  501    0  0.00000000000E+00 -0.00000000000E+00 -0.32091934486E+04  0.32091934486E+04  0.25500000000E-02 0. -1.
    8880022    1    1    2    0    0 -0.30228868214E+03  0.85194788456E+03 -0.28697623962E+04  0.30126602047E+04  0.15294330000E+03 0.  0.
    8880022    1    1    2    0    0  0.30228868214E+03 -0.85194788456E+03  0.51619816374E+03  0.10521624602E+04  0.15294330000E+03 0.  0.
<mgrwt>
<rscale>  0 0.91683439E+03</rscale>
<asrwt>0</asrwt>
<pdfrwt beam="1">  1        2 0.49372206E+00 0.91683439E+03</pdfrwt>
<pdfrwt beam="2">  1       -2 0.13163527E+00 0.91683439E+03</pdfrwt>
<totfact> 0.55898123E-01</totfact>
</mgrwt>
</event>
<event>
 4    1  0.1726795E-008  0.3193632E+03  0.7818608E-02  0.1075943E+00
         -2   -1    0    0    0  501 -0.00000000000E+00  0.00000000000E+00  0.14112672296E+03  0.14112672298E+03  0.25500000000E-02 0.  1.
          2   -1    0    0  501    0  0.00000000000E+00 -0.00000000000E+00 -0.10595105214E+04  0.10595105214E+04  0.25500000000E-02 0. -1.
    8880022    1    1    2    0    0  0.51430584715E+02 -0.27560138103E+03 -0.12072260323E+03  0.34141884279E+03  0.15294330000E+03 0.  0.
    8880022    1    1    2    0    0 -0.51430584715E+02  0.27560138103E+03 -0.79766119517E+03  0.85921840155E+03  0.15294330000E+03 0.  0.
<mgrwt>
<rscale>  0 0.31936324E+03</rscale>
<asrwt>0</asrwt>
<pdfrwt beam="1">  1        2 0.16300161E+00 0.31936324E+03</pdfrwt>
<pdfrwt beam="2">  1       -2 0.21711804E-01 0.31936324E+03</pdfrwt>
<totfact> 0.44071497E+02</totfact>
</mgrwt>
</event>
<event>
 4    1  0.1726795E-008  0.6371732E+03  0.7818608E-02  0.9831150E-01
          2   -1    0    0  501    0  0.00000000000E+00  0.00000000000E+00  0.33092597330E+04  0.33092597330E+04  0.25500000000E-02 0. -1.
         -2   -1    0    0    0  501 -0.00000000000E+00 -0.00000000000E+00 -0.94213033579E+03  0.94213033579E+03  0.25500000000E-02 0.  1.
    8880022    1    1    2    0    0  0.61544335705E+03 -0.61866709141E+02 -0.79890248642E+03  0.10218781000E+04  0.15294330000E+03 0.  0.
    8880022    1    1    2    0    0 -0.61544335705E+03  0.61866709141E+02  0.31660318836E+04  0.32295119688E+04  0.15294330000E+03 0.  0.
<mgrwt>
<rscale>  0 0.63717319E+03</rscale>
<asrwt>0</asrwt>
<pdfrwt beam="1">  1        2 0.50911689E+00 0.63717319E+03</pdfrwt>
<pdfrwt beam="2">  1       -2 0.14494313E+00 0.63717319E+03</pdfrwt>
<totfact> 0.40209179E-01</totfact>
</mgrwt>
</event>
<event>
 4    1  0.1726795E-008  0.7268803E+03  0.7818608E-02  0.9672336E-01
         -2   -1    0    0    0  501 -0.00000000000E+00  0.00000000000E+00  0.56518606929E+03  0.56518606929E+03  0.25500000000E-02 0.  1.
          2   -1    0    0  501    0  0.00000000000E+00 -0.00000000000E+00 -0.13474242947E+04  0.13474242947E+04  0.25500000000E-02 0. -1.
    8880022    1    1    2    0    0  0.66562060684E+03  0.24882222019E+03  0.13806161977E+03  0.73987563373E+03  0.15294330000E+03 0.  0.
    8880022    1    1    2    0    0 -0.66562060684E+03 -0.24882222019E+03 -0.92029984519E+03  0.11727347303E+04  0.15294330000E+03 0.  0.
<mgrwt>
<rscale>  0 0.72688028E+03</rscale>
<asrwt>0</asrwt>
<pdfrwt beam="1">  1        2 0.20729604E+00 0.72688028E+03</pdfrwt>
<pdfrwt beam="2">  1       -2 0.86951703E-01 0.72688028E+03</pdfrwt>
<totfact> 0.18180434E+01</totfact>
</mgrwt>
</event>
<event>
 4    1  0.1726795E-008  0.5378214E+03  0.7818608E-02  0.1004353E+00
          2   -1    0    0  501    0  0.00000000000E+00  0.00000000000E+00  0.19437549899E+04  0.19437549899E+04  0.25500000000E-02 0. -1.
         -2   -1    0    0    0  501 -0.00000000000E+00 -0.00000000000E+00 -0.16929508497E+03  0.16929508499E+03  0.25500000000E-02 0.  1.
    8880022    1    1    2    0    0  0.31464532878E+03  0.40848316377E+03  0.12547385468E+04  0.13651449198E+04  0.15294330000E+03 0. -1.
    8880022    1    1    2    0    0 -0.31464532878E+03 -0.40848316377E+03  0.51972135811E+03  0.74790515515E+03  0.15294330000E+03 0.  1.
<mgrwt>
<rscale>  0 0.53782137E+03</rscale>
<asrwt>0</asrwt>
<pdfrwt beam="1">  1        2 0.29903924E+00 0.53782137E+03</pdfrwt>
<pdfrwt beam="2">  1       -2 0.26045397E-01 0.53782137E+03</pdfrwt>
<totfact> 0.10052353E+02</totfact>
</mgrwt>
</event>
<event>
 4    1  0.1726795E-008  0.9913950E+03  0.7818608E-02  0.9318033E-01
         -2   -1    0    0    0  501 -0.00000000000E+00  0.00000000000E+00  0.11616405983E+04  0.11616405983E+04  0.25500000000E-02 0.  1.
          2   -1    0    0  501    0  0.00000000000E+00 -0.00000000000E+00 -0.18942898897E+04  0.18942898898E+04  0.25500000000E-02 0. -1.
    8880022    1    1    2    0    0 -0.13693615974E+03 -0.96990764185E+03  0.77028217553E+03  0.12554674940E+04  0.15294330000E+03 0.  0.
    8880022    1    1    2    0    0  0.13693615974E+03  0.96990764185E+03 -0.15029314670E+04  0.18004629941E+04  0.15294330000E+03 0.  0.
<mgrwt>
<rscale>  0 0.99139498E+03</rscale>
<asrwt>0</asrwt>
<pdfrwt beam="1">  1        2 0.29142921E+00 0.99139498E+03</pdfrwt>
<pdfrwt beam="2">  1       -2 0.17871394E+00 0.99139498E+03</pdfrwt>
<totfact> 0.14124213E+00</totfact>
</mgrwt>
</event>
<event>
 4    1  0.2019538E-008  0.1445500E+04  0.7818608E-02  0.8921526E-01
         -2   -1    0    0    0  501 -0.00000000000E+00  0.00000000000E+00  0.15066115247E+04  0.15066115247E+04  0.25500000000E-02 0.  1.
          2   -1    0    0  501    0  0.00000000000E+00 -0.00000000000E+00 -0.26270803888E+04  0.26270803888E+04  0.25500000000E-02 0. -1.
    8880022    1    1    2    0    0 -0.58786058411E+03 -0.13116779469E+04 -0.19803363884E+04  0.24517754724E+04  0.15294330000E+03 0.  0.
    8880022    1    1    2    0    0  0.58786058411E+03  0.13116779469E+04  0.85986752430E+03  0.16819164412E+04  0.15294330000E+03 0.  1.
<mgrwt>
<rscale>  0 0.14455002E+04</rscale>
<asrwt>0</asrwt>
<pdfrwt beam="1">  1        2 0.40416621E+00 0.14455002E+04</pdfrwt>
<pdfrwt beam="2">  1       -2 0.23178639E+00 0.14455002E+04</pdfrwt>
<totfact> 0.23101672E-01</totfact>
</mgrwt>
</event>
<event>
 4    1  0.1726795E-008  0.8318822E+03  0.7818608E-02  0.9514982E-01
         -2   -1    0    0    0  501 -0.00000000000E+00  0.00000000000E+00  0.12216536124E+04  0.12216536125E+04  0.25500000000E-02 0.  1.
          2   -1    0    0  501    0  0.00000000000E+00 -0.00000000000E+00 -0.68899799187E+03  0.68899799188E+03  0.25500000000E-02 0. -1.
    8880022    1    1    2    0    0  0.70061316837E+03  0.42163668408E+03  0.66919632412E+03  0.10676383649E+04  0.15294330000E+03 0.  0.
    8880022    1    1    2    0    0 -0.70061316837E+03 -0.42163668408E+03 -0.13654070354E+03  0.84301323939E+03  0.15294330000E+03 0.  0.
<mgrwt>
<rscale>  0 0.83188218E+03</rscale>
<asrwt>0</asrwt>
<pdfrwt beam="1">  1        2 0.10599969E+00 0.83188218E+03</pdfrwt>
<pdfrwt beam="2">  1       -2 0.18794671E+00 0.83188218E+03</pdfrwt>
<totfact> 0.67533195E+00</totfact>
</mgrwt>
</event>
<event>
 4    1  0.1726795E-008  0.8271471E+03  0.7818608E-02  0.9521533E-01
         -2   -1    0    0    0  501 -0.00000000000E+00  0.00000000000E+00  0.78321691490E+03  0.78321691490E+03  0.25500000000E-02 0.  1.
          2   -1    0    0  501    0  0.00000000000E+00 -0.00000000000E+00 -0.26635406485E+04  0.26635406485E+04  0.25500000000E-02 0. -1.
    8880022    1    1    2    0    0 -0.78162974340E+03 -0.22323888309E+03  0.47262781946E+03  0.95265385290E+03  0.15294330000E+03 0.  0.
    8880022    1    1    2    0    0  0.78162974340E+03  0.22323888309E+03 -0.23529515530E+04  0.24941037105E+04  0.15294330000E+03 0.  0.
<mgrwt>
<rscale>  0 0.82714709E+03</rscale>
<asrwt>0</asrwt>
<pdfrwt beam="1">  1        2 0.40977548E+00 0.82714709E+03</pdfrwt>
<pdfrwt beam="2">  1       -2 0.12049491E+00 0.82714709E+03</pdfrwt>
<totfact> 0.15262631E+00</totfact>
</mgrwt>
</event>
<event>
 4    1  0.1726795E-008  0.1353565E+04  0.7818608E-02  0.8988134E-01
          2   -1    0    0  501    0  0.00000000000E+00  0.00000000000E+00  0.37264592940E+04  0.37264592940E+04  0.25500000000E-02 0. -1.
         -2   -1    0    0    0  501 -0.00000000000E+00 -0.00000000000E+00 -0.11097765307E+04  0.11097765307E+04  0.25500000000E-02 0.  1.
    8880022    1    1    2    0    0  0.13294864134E+04  0.20300535059E+03 -0.49632200611E+03  0.14416908415E+04  0.15294330000E+03 0.  0.
    8880022    1    1    2    0    0 -0.13294864134E+04 -0.20300535059E+03  0.31130047693E+04  0.33945449832E+04  0.15294330000E+03 0.  0.
<mgrwt>
<rscale>  0 0.13535645E+04</rscale>
<asrwt>0</asrwt>
<pdfrwt beam="1">  1        2 0.57330143E+00 0.13535645E+04</pdfrwt>
<pdfrwt beam="2">  1       -2 0.17073485E+00 0.13535645E+04</pdfrwt>
<totfact> 0.11446224E-01</totfact>
</mgrwt>
</event>
<event>
 4    1  0.1726795E-008  0.1056161E+04  0.7818608E-02  0.9249006E-01
          2   -1    0    0  501    0  0.00000000000E+00  0.00000000000E+00  0.20392588466E+04  0.20392588466E+04  0.25500000000E-02 0. -1.
         -2   -1    0    0    0  501 -0.00000000000E+00 -0.00000000000E+00 -0.83775204706E+03  0.83775204707E+03  0.25500000000E-02 0.  1.
    8880022    1    1    2    0    0  0.10448628051E+04 -0.18593996370E+02 -0.24669791154E+03  0.10845900289E+04  0.15294330000E+03 0.  0.
    8880022    1    1    2    0    0 -0.10448628051E+04  0.18593996370E+02  0.14482047111E+04  0.17924208648E+04  0.15294330000E+03 0.  0.
<mgrwt>
<rscale>  0 0.10561608E+04</rscale>
<asrwt>0</asrwt>
<pdfrwt beam="1">  1        2 0.31373213E+00 0.10561608E+04</pdfrwt>
<pdfrwt beam="2">  1       -2 0.12888493E+00 0.10561608E+04</pdfrwt>
<totfact> 0.27971262E+00</totfact>
</mgrwt>
</event>
<event>
 4    1  0.1726795E-008  0.5013540E+03  0.7818608E-02  0.1013426E+00
          2   -1    0    0  501    0  0.00000000000E+00  0.00000000000E+00  0.28435931807E+04  0.28435931807E+04  0.25500000000E-02 0. -1.
         -2   -1    0    0    0  501 -0.00000000000E+00 -0.00000000000E+00 -0.10707480270E+03  0.10707480273E+03  0.25500000000E-02 0.  1.
    8880022    1    1    2    0    0 -0.47716577062E+03  0.16642551528E+02  0.75202236863E+03  0.90382157703E+03  0.15294330000E+03 0.  0.
    8880022    1    1    2    0    0  0.47716577062E+03 -0.16642551528E+02  0.19844960094E+04  0.20468464064E+04  0.15294330000E+03 0. -1.
<mgrwt>
<rscale>  0 0.50135397E+03</rscale>
<asrwt>0</asrwt>
<pdfrwt beam="1">  1        2 0.43747587E+00 0.50135397E+03</pdfrwt>
<pdfrwt beam="2">  1       -2 0.16473047E-01 0.50135397E+03</pdfrwt>
<totfact> 0.71044706E+01</totfact>
</mgrwt>
</event>
<event>
 4    1  0.1726795E-008  0.2411845E+03  0.7818608E-02  0.1119006E+00
         -2   -1    0    0    0  501 -0.00000000000E+00  0.00000000000E+00  0.16731558769E+03  0.16731558771E+03  0.25500000000E-02 0.  1.
          2   -1    0    0  501    0  0.00000000000E+00 -0.00000000000E+00 -0.27268913424E+04  0.27268913424E+04  0.25500000000E-02 0. -1.
    8880022    1    1    2    0    0 -0.18596964385E+03 -0.13913679481E+02 -0.26314976371E+04  0.26425271552E+04  0.15294330000E+03 0.  0.
    8880022    1    1    2    0    0  0.18596964385E+03  0.13913679481E+02  0.71921882400E+02  0.25167977490E+03  0.15294330000E+03 0.  0.
<mgrwt>
<rscale>  0 0.24118448E+03</rscale>
<asrwt>0</asrwt>
<pdfrwt beam="1">  1        2 0.41952171E+00 0.24118448E+03</pdfrwt>
<pdfrwt beam="2">  1       -2 0.25740862E-01 0.24118448E+03</pdfrwt>
<totfact> 0.41393376E+01</totfact>
</mgrwt>
</event>
<event>
 4    1  0.1726795E-008  0.2998039E+03  0.7818608E-02  0.1085339E+00
          2   -1    0    0  501    0  0.00000000000E+00  0.00000000000E+00  0.13090226748E+04  0.13090226748E+04  0.25500000000E-02 0. -1.
         -2   -1    0    0    0  501 -0.00000000000E+00 -0.00000000000E+00 -0.23460616995E+03  0.23460616997E+03  0.25500000000E-02 0.  1.
    8880022    1    1    2    0    0 -0.69205285733E+02 -0.24839757780E+03 -0.11190714193E+03  0.32000873373E+03  0.15294330000E+03 0.  1.
    8880022    1    1    2    0    0  0.69205285733E+02  0.24839757780E+03  0.11863236468E+04  0.12236201111E+04  0.15294330000E+03 0.  0.
<mgrwt>
<rscale>  0 0.29980390E+03</rscale>
<asrwt>0</asrwt>
<pdfrwt beam="1">  1        2 0.20138811E+00 0.29980390E+03</pdfrwt>
<pdfrwt beam="2">  1       -2 0.36093256E-01 0.29980390E+03</pdfrwt>
<totfact> 0.12646910E+02</totfact>
</mgrwt>
</event>
<event>
 4    1  0.1726795E-008  0.8934295E+03  0.7818608E-02  0.9433832E-01
          2   -1    0    0  501    0  0.00000000000E+00  0.00000000000E+00  0.30195639063E+04  0.30195639063E+04  0.25500000000E-02 0. -1.
         -2   -1    0    0    0  501 -0.00000000000E+00 -0.00000000000E+00 -0.56128479992E+03  0.56128479993E+03  0.25500000000E-02 0.  1.
    8880022    1    1    2    0    0 -0.87528302015E+03  0.93296269672E+02  0.25313951082E+04  0.26844324179E+04  0.15294330000E+03 0.  0.
    8880022    1    1    2    0    0  0.87528302015E+03 -0.93296269672E+02 -0.73116001820E+02  0.89641628836E+03  0.15294330000E+03 0.  0.
<mgrwt>
<rscale>  0 0.89342947E+03</rscale>
<asrwt>0</asrwt>
<pdfrwt beam="1">  1        2 0.46454830E+00 0.89342947E+03</pdfrwt>
<pdfrwt beam="2">  1       -2 0.86351506E-01 0.89342947E+03</pdfrwt>
<totfact> 0.20443592E+00</totfact>
</mgrwt>
</event>
<event>
 4    1  0.1726795E-008  0.2272997E+03  0.7818608E-02  0.1128555E+00
          2   -1    0    0  501    0  0.00000000000E+00  0.00000000000E+00  0.68143727468E+03  0.68143727469E+03  0.25500000000E-02 0. -1.
         -2   -1    0    0    0  501 -0.00000000000E+00 -0.00000000000E+00 -0.13594349685E+04  0.13594349685E+04  0.25500000000E-02 0.  1.
    8880022    1    1    2    0    0 -0.78462509422E+02  0.14871825260E+03 -0.13305710604E+04  0.13498460963E+04  0.15294330000E+03 0.  1.
    8880022    1    1    2    0    0  0.78462509422E+02 -0.14871825260E+03  0.65257336650E+03  0.69102614692E+03  0.15294330000E+03 0.  0.
<mgrwt>
<rscale>  0 0.22729966E+03</rscale>
<asrwt>0</asrwt>
<pdfrwt beam="1">  1        2 0.10483650E+00 0.22729966E+03</pdfrwt>
<pdfrwt beam="2">  1       -2 0.20914384E+00 0.22729966E+03</pdfrwt>
<totfact> 0.56541779E+00</totfact>
</mgrwt>
</event>
<event>
 4    1  0.1726795E-008  0.4138460E+03  0.7818608E-02  0.1039088E+00
          2   -1    0    0  501    0  0.00000000000E+00  0.00000000000E+00  0.94741355645E+03  0.94741355646E+03  0.25500000000E-02 0. -1.
         -2   -1    0    0    0  501 -0.00000000000E+00 -0.00000000000E+00 -0.89872304849E+03  0.89872304850E+03  0.25500000000E-02 0.  1.
    8880022    1    1    2    0    0 -0.21019724241E+03 -0.32201552511E+03 -0.80068040695E+03  0.90130885174E+03  0.15294330000E+03 0.  1.
    8880022    1    1    2    0    0  0.21019724241E+03  0.32201552511E+03  0.84937091491E+03  0.94482775321E+03  0.15294330000E+03 0.  0.
<mgrwt>
<rscale>  0 0.41384602E+03</rscale>
<asrwt>0</asrwt>
<pdfrwt beam="1">  1        2 0.14575593E+00 0.41384602E+03</pdfrwt>
<pdfrwt beam="2">  1       -2 0.13826509E+00 0.41384602E+03</pdfrwt>
<totfact> 0.10839159E+01</totfact>
</mgrwt>
</event>
<event>
 4    1  0.1726795E-008  0.6923762E+03  0.7818608E-02  0.9730359E-01
          2   -1    0    0  501    0  0.00000000000E+00  0.00000000000E+00  0.17495782886E+04  0.17495782886E+04  0.25500000000E-02 0. -1.
         -2   -1    0    0    0  501 -0.00000000000E+00 -0.00000000000E+00 -0.81611706457E+03  0.81611706457E+03  0.25500000000E-02 0.  1.
    8880022    1    1    2    0    0  0.12730525020E+03  0.66316404610E+03  0.15122818351E+04  0.16632441735E+04  0.15294330000E+03 0.  0.
    8880022    1    1    2    0    0 -0.12730525020E+03 -0.66316404610E+03 -0.57882061113E+03  0.90245117965E+03  0.15294330000E+03 0.  0.
<mgrwt>
<rscale>  0 0.69237622E+03</rscale>
<asrwt>0</asrwt>
<pdfrwt beam="1">  1        2 0.26916589E+00 0.69237622E+03</pdfrwt>
<pdfrwt beam="2">  1       -2 0.12555647E+00 0.69237622E+03</pdfrwt>
<totfact> 0.45408819E+00</totfact>
</mgrwt>
</event>
<event>
 4    1  0.1726795E-008  0.1423625E+04  0.7818608E-02  0.8936893E-01
          2   -1    0    0  501    0  0.00000000000E+00  0.00000000000E+00  0.32149451953E+04  0.32149451953E+04  0.25500000000E-02 0. -1.
         -2   -1    0    0    0  501 -0.00000000000E+00 -0.00000000000E+00 -0.12333160876E+04  0.12333160876E+04  0.25500000000E-02 0.  1.
    8880022    1    1    2    0    0 -0.29807536786E+03  0.13836432440E+04  0.25458871300E+04  0.29168905504E+04  0.15294330000E+03 0.  0.
    8880022    1    1    2    0    0  0.29807536786E+03 -0.13836432440E+04 -0.56425802235E+03  0.15313707325E+04  0.15294330000E+03 0.  0.
<mgrwt>
<rscale>  0 0.14236254E+04</rscale>
<asrwt>0</asrwt>
<pdfrwt beam="1">  1        2 0.49460695E+00 0.14236254E+04</pdfrwt>
<pdfrwt beam="2">  1       -2 0.18974094E+00 0.14236254E+04</pdfrwt>
<totfact> 0.18841545E-01</totfact>
</mgrwt>
</event>
<event>
 4    1  0.1726795E-008  0.3107140E+03  0.7818608E-02  0.1080004E+00
          2   -1    0    0  501    0  0.00000000000E+00  0.00000000000E+00  0.48166460778E+03  0.48166460778E+03  0.25500000000E-02 0. -1.
         -2   -1    0    0    0  501 -0.00000000000E+00 -0.00000000000E+00 -0.46075961628E+03  0.46075961629E+03  0.25500000000E-02 0.  1.
    8880022    1    1    2    0    0 -0.68281848355E+02 -0.26170425205E+03 -0.34373692806E+03  0.46335543062E+03  0.15294330000E+03 0.  0.
    8880022    1    1    2    0    0  0.68281848355E+02  0.26170425205E+03  0.36464191955E+03  0.47906879346E+03  0.15294330000E+03 0.  0.
<mgrwt>
<rscale>  0 0.31071398E+03</rscale>
<asrwt>0</asrwt>
<pdfrwt beam="1">  1        2 0.74102247E-01 0.31071398E+03</pdfrwt>
<pdfrwt beam="2">  1       -2 0.70886095E-01 0.31071398E+03</pdfrwt>
<totfact> 0.12125851E+02</totfact>
</mgrwt>
</event>
<event>
 4    1  0.1726795E-008  0.2711882E+03  0.7818608E-02  0.1100601E+00
          2   -1    0    0  501    0  0.00000000000E+00  0.00000000000E+00  0.18951061028E+04  0.18951061028E+04  0.25500000000E-02 0. -1.
         -2   -1    0    0    0  501 -0.00000000000E+00 -0.00000000000E+00 -0.86911467672E+02  0.86911467709E+02  0.25500000000E-02 0.  1.
    8880022    1    1    2    0    0 -0.21960800523E+03  0.43860276756E+02  0.16413773198E+04  0.16636293334E+04  0.15294330000E+03 0.  0.
    8880022    1    1    2    0    0  0.21960800523E+03 -0.43860276756E+02  0.16681731529E+03  0.31838823712E+03  0.15294330000E+03 0.  0.
<mgrwt>
<rscale>  0 0.27118822E+03</rscale>
<asrwt>0</asrwt>
<pdfrwt beam="1">  1        2 0.29155475E+00 0.27118822E+03</pdfrwt>
<pdfrwt beam="2">  1       -2 0.13370997E-01 0.27118822E+03</pdfrwt>
<totfact> 0.35062856E+02</totfact>
</mgrwt>
</event>
<event>
 4    1  0.1726795E-008  0.6085585E+03  0.7818608E-02  0.9887807E-01
         -2   -1    0    0    0  501 -0.00000000000E+00  0.00000000000E+00  0.68281615130E+03  0.68281615130E+03  0.25500000000E-02 0.  1.
          2   -1    0    0  501    0  0.00000000000E+00 -0.00000000000E+00 -0.85681488163E+03  0.85681488163E+03  0.25500000000E-02 0. -1.
    8880022    1    1    2    0    0 -0.26094184643E+03  0.52807301044E+03  0.37934954510E+03  0.71711190337E+03  0.15294330000E+03 0.  0.
    8880022    1    1    2    0    0  0.26094184643E+03 -0.52807301044E+03 -0.55334827543E+03  0.82251912957E+03  0.15294330000E+03 0.  0.
<mgrwt>
<rscale>  0 0.60855846E+03</rscale>
<asrwt>0</asrwt>
<pdfrwt beam="1">  1        2 0.13181767E+00 0.60855846E+03</pdfrwt>
<pdfrwt beam="2">  1       -2 0.10504864E+00 0.60855846E+03</pdfrwt>
<totfact> 0.23750414E+01</totfact>
</mgrwt>
</event>
<event>
 4    1  0.1726795E-008  0.3130841E+03  0.7818608E-02  0.1078877E+00
         -2   -1    0    0    0  501 -0.00000000000E+00  0.00000000000E+00  0.41311945195E+03  0.41311945195E+03  0.25500000000E-02 0.  1.
          2   -1    0    0  501    0  0.00000000000E+00 -0.00000000000E+00 -0.92133883297E+03  0.92133883297E+03  0.25500000000E-02 0. -1.
    8880022    1    1    2    0    0 -0.22661493454E+03 -0.15256364571E+03 -0.82903921202E+03  0.88618714876E+03  0.15294330000E+03 0.  0.
    8880022    1    1    2    0    0  0.22661493454E+03  0.15256364571E+03  0.32081983099E+03  0.44827113617E+03  0.15294330000E+03 0.  0.
<mgrwt>
<rscale>  0 0.31308409E+03</rscale>
<asrwt>0</asrwt>
<pdfrwt beam="1">  1        2 0.14174443E+00 0.31308409E+03</pdfrwt>
<pdfrwt beam="2">  1       -2 0.63556839E-01 0.31308409E+03</pdfrwt>
<totfact> 0.69361463E+01</totfact>
</mgrwt>
</event>
<event>
 4    1  0.1726795E-008  0.5253516E+03  0.7818608E-02  0.1007366E+00
         -2   -1    0    0    0  501 -0.00000000000E+00  0.00000000000E+00  0.75866651955E+03  0.75866651956E+03  0.25500000000E-02 0.  1.
          2   -1    0    0  501    0  0.00000000000E+00 -0.00000000000E+00 -0.44262229201E+03  0.44262229202E+03  0.25500000000E-02 0. -1.
    8880022    1    1    2    0    0  0.59642588558E+02 -0.49904446911E+03  0.41150962881E+03  0.66733383560E+03  0.15294330000E+03 0.  0.
    8880022    1    1    2    0    0 -0.59642588558E+02  0.49904446911E+03 -0.95465401268E+02  0.53395497598E+03  0.15294330000E+03 0.  0.
<mgrwt>
<rscale>  0 0.52535157E+03</rscale>
<asrwt>0</asrwt>
<pdfrwt beam="1">  1        2 0.68095737E-01 0.52535157E+03</pdfrwt>
<pdfrwt beam="2">  1       -2 0.11671793E+00 0.52535157E+03</pdfrwt>
<totfact> 0.41520041E+01</totfact>
</mgrwt>
</event>
<event>
 4    1  0.1726795E-008  0.2084372E+03  0.7818608E-02  0.1142810E+00
          2   -1    0    0  501    0  0.00000000000E+00  0.00000000000E+00  0.37647226717E+04  0.37647226717E+04  0.25500000000E-02 0. -1.
         -2   -1    0    0    0  501 -0.00000000000E+00 -0.00000000000E+00 -0.35199563513E+02  0.35199563606E+02  0.25500000000E-02 0.  1.
    8880022    1    1    2    0    0  0.13816095199E+03  0.31079717427E+02  0.34224357759E+04  0.34287771422E+04  0.15294330000E+03 0.  0.
    8880022    1    1    2    0    0 -0.13816095199E+03 -0.31079717427E+02  0.30708733227E+03  0.37114509312E+03  0.15294330000E+03 0.  1.
<mgrwt>
<rscale>  0 0.20843716E+03</rscale>
<asrwt>0</asrwt>
<pdfrwt beam="1">  1        2 0.57918854E+00 0.20843716E+03</pdfrwt>
<pdfrwt beam="2">  1       -2 0.54153134E-02 0.20843716E+03</pdfrwt>
<totfact> 0.11910821E+02</totfact>
</mgrwt>
</event>
<event>
 4    1  0.1726795E-008  0.7404028E+03  0.7818608E-02  0.9650528E-01
         -2   -1    0    0    0  501 -0.00000000000E+00  0.00000000000E+00  0.60890231837E+03  0.60890231838E+03  0.25500000000E-02 0.  1.
          2   -1    0    0  501    0  0.00000000000E+00 -0.00000000000E+00 -0.23982479812E+04  0.23982479812E+04  0.25500000000E-02 0. -1.
    8880022    1    1    2    0    0  0.57886225021E+03  0.43557226893E+03  0.29362712221E+03  0.79650062530E+03  0.15294330000E+03 0.  0.
    8880022    1    1    2    0    0 -0.57886225021E+03 -0.43557226893E+03 -0.20829727851E+04  0.22106496743E+04  0.15294330000E+03 0. -1.
<mgrwt>
<rscale>  0 0.74040284E+03</rscale>
<asrwt>0</asrwt>
<pdfrwt beam="1">  1        2 0.36896122E+00 0.74040284E+03</pdfrwt>
<pdfrwt beam="2">  1       -2 0.93677281E-01 0.74040284E+03</pdfrwt>
<totfact> 0.40248367E+00</totfact>
</mgrwt>
</event>
<event>
 4    1  0.1726795E-008  0.5976858E+03  0.7818608E-02  0.9910219E-01
         -2   -1    0    0    0  501 -0.00000000000E+00  0.00000000000E+00  0.59236797070E+03  0.59236797071E+03  0.25500000000E-02 0.  1.
          2   -1    0    0  501    0  0.00000000000E+00 -0.00000000000E+00 -0.19238243643E+04  0.19238243643E+04  0.25500000000E-02 0. -1.
    8880022    1    1    2    0    0 -0.57159928299E+03  0.84326308116E+02  0.37669776345E+03  0.70649099396E+03  0.15294330000E+03 0.  0.
    8880022    1    1    2    0    0  0.57159928299E+03 -0.84326308116E+02 -0.17081541571E+04  0.18097013411E+04  0.15294330000E+03 0.  0.
<mgrwt>
<rscale>  0 0.59768580E+03</rscale>
<asrwt>0</asrwt>
<pdfrwt beam="1">  1        2 0.29597298E+00 0.59768580E+03</pdfrwt>
<pdfrwt beam="2">  1       -2 0.91133534E-01 0.59768580E+03</pdfrwt>
<totfact> 0.80264441E+00</totfact>
</mgrwt>
</event>
<event>
 4    1  0.1726795E-008  0.1286826E+04  0.7818608E-02  0.9040078E-01
          2   -1    0    0  501    0  0.00000000000E+00  0.00000000000E+00  0.18041083581E+04  0.18041083581E+04  0.25500000000E-02 0. -1.
         -2   -1    0    0    0  501 -0.00000000000E+00 -0.00000000000E+00 -0.23045550378E+04  0.23045550378E+04  0.25500000000E-02 0.  1.
    8880022    1    1    2    0    0 -0.59686673219E+03 -0.11297250177E+04  0.13433329021E+04  0.18602320958E+04  0.15294330000E+03 0.  0.
    8880022    1    1    2    0    0  0.59686673219E+03  0.11297250177E+04 -0.18437795818E+04  0.22484313000E+04  0.15294330000E+03 0.  0.
<mgrwt>
<rscale>  0 0.12868256E+04</rscale>
<asrwt>0</asrwt>
<pdfrwt beam="1">  1        2 0.27755513E+00 0.12868256E+04</pdfrwt>
<pdfrwt beam="2">  1       -2 0.35454693E+00 0.12868256E+04</pdfrwt>
<totfact> 0.12098191E-01</totfact>
</mgrwt>
</event>
<event>
 4    1  0.1726795E-008  0.6533705E+03  0.7818608E-02  0.9800475E-01
         -2   -1    0    0    0  501 -0.00000000000E+00  0.00000000000E+00  0.40264334165E+03  0.40264334166E+03  0.25500000000E-02 0.  1.
          2   -1    0    0  501    0  0.00000000000E+00 -0.00000000000E+00 -0.13378373570E+04  0.13378373570E+04  0.25500000000E-02 0. -1.
    8880022    1    1    2    0    0 -0.61347451884E+03  0.16477383996E+03 -0.86401736025E+03  0.10832446886E+04  0.15294330000E+03 0.  0.
    8880022    1    1    2    0    0  0.61347451884E+03 -0.16477383996E+03 -0.71176655065E+02  0.65723601000E+03  0.15294330000E+03 0.  0.
<mgrwt>
<rscale>  0 0.65337054E+03</rscale>
<asrwt>0</asrwt>
<pdfrwt beam="1">  1        2 0.20582113E+00 0.65337054E+03</pdfrwt>
<pdfrwt beam="2">  1       -2 0.61945130E-01 0.65337054E+03</pdfrwt>
<totfact> 0.39220260E+01</totfact>
</mgrwt>
</event>
<event>
 4    1  0.1726795E-008  0.1035315E+04  0.7818608E-02  0.9270638E-01
          2   -1    0    0  501    0  0.00000000000E+00  0.00000000000E+00  0.12974350652E+04  0.12974350652E+04  0.25500000000E-02 0. -1.
         -2   -1    0    0    0  501 -0.00000000000E+00 -0.00000000000E+00 -0.24035222559E+04  0.24035222559E+04  0.25500000000E-02 0.  1.
    8880022    1    1    2    0    0  0.65342976376E+03  0.78836194182E+03 -0.20521312715E+04  0.22985037342E+04  0.15294330000E+03 0.  0.
    8880022    1    1    2    0    0 -0.65342976376E+03 -0.78836194182E+03  0.94604408089E+03  0.14024535869E+04  0.15294330000E+03 0.  0.
<mgrwt>
<rscale>  0 0.10353148E+04</rscale>
<asrwt>0</asrwt>
<pdfrwt beam="1">  1        2 0.19960540E+00 0.10353148E+04</pdfrwt>
<pdfrwt beam="2">  1       -2 0.36977265E+00 0.10353148E+04</pdfrwt>
<totfact> 0.19479389E-01</totfact>
</mgrwt>
</event>
<event>
 4    1  0.1726795E-008  0.1531425E+04  0.7818608E-02  0.8863820E-01
         -2   -1    0    0    0  501 -0.00000000000E+00  0.00000000000E+00  0.44303406723E+04  0.44303406723E+04  0.25500000000E-02 0.  1.
          2   -1    0    0  501    0  0.00000000000E+00 -0.00000000000E+00 -0.82103090463E+03  0.82103090463E+03  0.25500000000E-02 0. -1.
    8880022    1    1    2    0    0  0.40325948123E+03 -0.14694395391E+04  0.33696271701E+04  0.37013037820E+04  0.15294330000E+03 0.  0.
    8880022    1    1    2    0    0 -0.40325948123E+03  0.14694395391E+04  0.23968259753E+03  0.15500677949E+04  0.15294330000E+03 0.  0.
<mgrwt>
<rscale>  0 0.15314250E+04</rscale>
<asrwt>0</asrwt>
<pdfrwt beam="1">  1        2 0.12631244E+00 0.15314250E+04</pdfrwt>
<pdfrwt beam="2">  1       -2 0.68159090E+00 0.15314250E+04</pdfrwt>
<totfact> 0.81402037E-03</totfact>
</mgrwt>
</event>
<event>
 4    1  0.1726795E-008  0.8732330E+03  0.7818608E-02  0.9459674E-01
          2   -1    0    0  501    0  0.00000000000E+00  0.00000000000E+00  0.31471916004E+04  0.31471916004E+04  0.25500000000E-02 0. -1.
         -2   -1    0    0    0  501 -0.00000000000E+00 -0.00000000000E+00 -0.98690350424E+03  0.98690350424E+03  0.25500000000E-02 0.  1.
    8880022    1    1    2    0    0 -0.79438482748E+03  0.32878101033E+03 -0.71532662644E+03  0.11288170987E+04  0.15294330000E+03 0.  0.
    8880022    1    1    2    0    0  0.79438482748E+03 -0.32878101033E+03  0.28756147226E+04  0.30052780059E+04  0.15294330000E+03 0.  0.
<mgrwt>
<rscale>  0 0.87323299E+03</rscale>
<asrwt>0</asrwt>
<pdfrwt beam="1">  1        2 0.48418332E+00 0.87323299E+03</pdfrwt>
<pdfrwt beam="2">  1       -2 0.15183131E+00 0.87323299E+03</pdfrwt>
<totfact> 0.42581480E-01</totfact>
</mgrwt>
</event>
<event>
 4    1  0.1726795E-008  0.7456821E+03  0.7818608E-02  0.9642149E-01
         -2   -1    0    0    0  501 -0.00000000000E+00  0.00000000000E+00  0.53563119859E+03  0.53563119860E+03  0.25500000000E-02 0.  1.
          2   -1    0    0  501    0  0.00000000000E+00 -0.00000000000E+00 -0.13586544764E+04  0.13586544764E+04  0.25500000000E-02 0. -1.
    8880022    1    1    2    0    0 -0.49028525678E+03 -0.54062046452E+03 -0.87156484762E+03  0.11470253076E+04  0.15294330000E+03 0.  0.
    8880022    1    1    2    0    0  0.49028525678E+03  0.54062046452E+03  0.48541569806E+02  0.74726036740E+03  0.15294330000E+03 0.  0.
<mgrwt>
<rscale>  0 0.74568209E+03</rscale>
<asrwt>0</asrwt>
<pdfrwt beam="1">  1        2 0.20902376E+00 0.74568209E+03</pdfrwt>
<pdfrwt beam="2">  1       -2 0.82404800E-01 0.74568209E+03</pdfrwt>
<totfact> 0.20197007E+01</totfact>
</mgrwt>
</event>
<event>
 4    1  0.1726795E-008  0.6167062E+03  0.7818608E-02  0.9871340E-01
          2   -1    0    0  501    0  0.00000000000E+00  0.00000000000E+00  0.16300060538E+04  0.16300060538E+04  0.25500000000E-02 0. -1.
         -2   -1    0    0    0  501 -0.00000000000E+00 -0.00000000000E+00 -0.56171535518E+03  0.56171535518E+03  0.25500000000E-02 0.  1.
    8880022    1    1    2    0    0 -0.59064590339E+03  0.89845735243E+02 -0.30375088913E+03  0.68745261291E+03  0.15294330000E+03 0.  0.
    8880022    1    1    2    0    0  0.59064590339E+03 -0.89845735243E+02  0.13720415877E+04  0.15042687961E+04  0.15294330000E+03 0.  0.
<mgrwt>
<rscale>  0 0.61670616E+03</rscale>
<asrwt>0</asrwt>
<pdfrwt beam="1">  1        2 0.25077016E+00 0.61670616E+03</pdfrwt>
<pdfrwt beam="2">  1       -2 0.86417748E-01 0.61670616E+03</pdfrwt>
<totfact> 0.13040916E+01</totfact>
</mgrwt>
</event>
<event>
 4    1  0.1726795E-008  0.8484381E+03  0.7818608E-02  0.9492436E-01
         -2   -1    0    0    0  501 -0.00000000000E+00  0.00000000000E+00  0.38852633331E+03  0.38852633332E+03  0.25500000000E-02 0.  1.
          2   -1    0    0  501    0  0.00000000000E+00 -0.00000000000E+00 -0.36212965443E+04  0.36212965443E+04  0.25500000000E-02 0. -1.
    8880022    1    1    2    0    0 -0.47990242448E+03  0.68275125481E+03 -0.21528300798E+03  0.87532510503E+03  0.15294330000E+03 0.  0.
    8880022    1    1    2    0    0  0.47990242448E+03 -0.68275125481E+03 -0.30174872031E+04  0.31344977726E+04  0.15294330000E+03 0.  0.
<mgrwt>
<rscale>  0 0.84843813E+03</rscale>
<asrwt>0</asrwt>
<pdfrwt beam="1">  1        2 0.55712252E+00 0.84843813E+03</pdfrwt>
<pdfrwt beam="2">  1       -2 0.59773284E-01 0.84843813E+03</pdfrwt>
<totfact> 0.18615320E+00</totfact>
</mgrwt>
</event>
<event>
 4    1  0.1726795E-008  0.6198713E+03  0.7818608E-02  0.9865016E-01
         -2   -1    0    0    0  501 -0.00000000000E+00  0.00000000000E+00  0.80944078087E+03  0.80944078087E+03  0.25500000000E-02 0.  1.
          2   -1    0    0  501    0  0.00000000000E+00 -0.00000000000E+00 -0.12859997409E+04  0.12859997409E+04  0.25500000000E-02 0. -1.
    8880022    1    1    2    0    0 -0.57809174001E+03 -0.16327493101E+03  0.59389796703E+03  0.85846095498E+03  0.15294330000E+03 0.  0.
    8880022    1    1    2    0    0  0.57809174001E+03  0.16327493101E+03 -0.10704569271E+04  0.12369795668E+04  0.15294330000E+03 0.  0.
<mgrwt>
<rscale>  0 0.61987129E+03</rscale>
<asrwt>0</asrwt>
<pdfrwt beam="1">  1        2 0.19784611E+00 0.61987129E+03</pdfrwt>
<pdfrwt beam="2">  1       -2 0.12452935E+00 0.61987129E+03</pdfrwt>
<totfact> 0.84883824E+00</totfact>
</mgrwt>
</event>
<event>
 4    1  0.1726795E-008  0.1340557E+04  0.7818608E-02  0.8998007E-01
          2   -1    0    0  501    0  0.00000000000E+00  0.00000000000E+00  0.17630005931E+04  0.17630005931E+04  0.25500000000E-02 0. -1.
         -2   -1    0    0    0  501 -0.00000000000E+00 -0.00000000000E+00 -0.13510406385E+04  0.13510406385E+04  0.25500000000E-02 0.  1.
    8880022    1    1    2    0    0  0.11612744434E+04  0.65202986044E+03  0.97747802734E+03  0.16590829451E+04  0.15294330000E+03 0.  0.
    8880022    1    1    2    0    0 -0.11612744434E+04 -0.65202986044E+03 -0.56551807270E+03  0.14549582865E+04  0.15294330000E+03 0.  0.
<mgrwt>
<rscale>  0 0.13405569E+04</rscale>
<asrwt>0</asrwt>
<pdfrwt beam="1">  1        2 0.27123086E+00 0.13405569E+04</pdfrwt>
<pdfrwt beam="2">  1       -2 0.20785241E+00 0.13405569E+04</pdfrwt>
<totfact> 0.10214708E+00</totfact>
</mgrwt>
</event>
<event>
 4    1  0.1726795E-008  0.9830044E+03  0.7818608E-02  0.9327384E-01
         -2   -1    0    0    0  501 -0.00000000000E+00  0.00000000000E+00  0.65873834271E+03  0.65873834271E+03  0.25500000000E-02 0.  1.
          2   -1    0    0  501    0  0.00000000000E+00 -0.00000000000E+00 -0.16257710997E+04  0.16257710997E+04  0.25500000000E-02 0. -1.
    8880022    1    1    2    0    0  0.97078312133E+03 -0.22049697091E+02 -0.84059780225E+03  0.12934072738E+04  0.15294330000E+03 0.  0.
    8880022    1    1    2    0    0 -0.97078312133E+03  0.22049697091E+02 -0.12643495475E+03  0.99110216860E+03  0.15294330000E+03 0.  0.
<mgrwt>
<rscale>  0 0.98300443E+03</rscale>
<asrwt>0</asrwt>
<pdfrwt beam="1">  1        2 0.25011863E+00 0.98300443E+03</pdfrwt>
<pdfrwt beam="2">  1       -2 0.10134436E+00 0.98300443E+03</pdfrwt>
<totfact> 0.86159209E+00</totfact>
</mgrwt>
</event>
<event>
 4    1  0.1726795E-008  0.1607117E+04  0.7818608E-02  0.8816187E-01
         -2   -1    0    0    0  501 -0.00000000000E+00  0.00000000000E+00  0.11127206578E+04  0.11127206578E+04  0.25500000000E-02 0.  1.
          2   -1    0    0  501    0  0.00000000000E+00 -0.00000000000E+00 -0.39237645925E+04  0.39237645925E+04  0.25500000000E-02 0. -1.
    8880022    1    1    2    0    0  0.15893086258E+04  0.18311913730E+03 -0.30148939223E+04  0.34164911155E+04  0.15294330000E+03 0.  0.
    8880022    1    1    2    0    0 -0.15893086258E+04 -0.18311913730E+03  0.20384998756E+03  0.16199941348E+04  0.15294330000E+03 0.  0.
<mgrwt>
<rscale>  0 0.16071174E+04</rscale>
<asrwt>0</asrwt>
<pdfrwt beam="1">  1        2 0.60365609E+00 0.16071174E+04</pdfrwt>
<pdfrwt beam="2">  1       -2 0.17118779E+00 0.16071174E+04</pdfrwt>
<totfact> 0.77620045E-02</totfact>
</mgrwt>
</event>
<event>
 4    1  0.1726795E-008  0.5286592E+03  0.7818608E-02  0.1006558E+00
          2   -1    0    0  501    0  0.00000000000E+00  0.00000000000E+00  0.18844511059E+04  0.18844511059E+04  0.25500000000E-02 0. -1.
         -2   -1    0    0    0  501 -0.00000000000E+00 -0.00000000000E+00 -0.10343539318E+04  0.10343539318E+04  0.25500000000E-02 0.  1.
    8880022    1    1    2    0    0 -0.50078789946E+03 -0.72803582936E+02  0.17757782822E+04  0.18528003245E+04  0.15294330000E+03 0. -1.
    8880022    1    1    2    0    0  0.50078789946E+03  0.72803582936E+02 -0.92568110805E+03  0.10660047133E+04  0.15294330000E+03 0.  0.
<mgrwt>
<rscale>  0 0.52865919E+03</rscale>
<asrwt>0</asrwt>
<pdfrwt beam="1">  1        2 0.28991555E+00 0.52865919E+03</pdfrwt>
<pdfrwt beam="2">  1       -2 0.15913138E+00 0.52865919E+03</pdfrwt>
<totfact> 0.21527861E+00</totfact>
</mgrwt>
</event>
<event>
 4    1  0.1726795E-008  0.1233991E+04  0.7818608E-02  0.9083614E-01
         -2   -1    0    0    0  501 -0.00000000000E+00  0.00000000000E+00  0.38880127829E+04  0.38880127829E+04  0.25500000000E-02 0.  1.
          2   -1    0    0  501    0  0.00000000000E+00 -0.00000000000E+00 -0.12825144200E+04  0.12825144200E+04  0.25500000000E-02 0. -1.
    8880022    1    1    2    0    0 -0.72618425657E+03 -0.98589972387E+03  0.34574150453E+04  0.36710287779E+04  0.15294330000E+03 0.  0.
    8880022    1    1    2    0    0  0.72618425657E+03  0.98589972387E+03 -0.85191668228E+03  0.14994984250E+04  0.15294330000E+03 0.  0.
<mgrwt>
<rscale>  0 0.12339909E+04</rscale>
<asrwt>0</asrwt>
<pdfrwt beam="1">  1        2 0.19730991E+00 0.12339909E+04</pdfrwt>
<pdfrwt beam="2">  1       -2 0.59815581E+00 0.12339909E+04</pdfrwt>
<totfact> 0.82526301E-03</totfact>
</mgrwt>
</event>
<event>
 4    1  0.1726795E-008  0.9862210E+03  0.7818608E-02  0.9323788E-01
         -2   -1    0    0    0  501 -0.00000000000E+00  0.00000000000E+00  0.10900883344E+04  0.10900883344E+04  0.25500000000E-02 0.  1.
          2   -1    0    0  501    0  0.00000000000E+00 -0.00000000000E+00 -0.16094909871E+04  0.16094909871E+04  0.25500000000E-02 0. -1.
    8880022    1    1    2    0    0  0.36579297715E+03 -0.90301482214E+03 -0.11607623488E+04  0.15231550002E+04  0.15294330000E+03 0.  0.
    8880022    1    1    2    0    0 -0.36579297715E+03  0.90301482214E+03  0.64135969606E+03  0.11764243214E+04  0.15294330000E+03 0.  0.
<mgrwt>
<rscale>  0 0.98622103E+03</rscale>
<asrwt>0</asrwt>
<pdfrwt beam="1">  1        2 0.24761400E+00 0.98622103E+03</pdfrwt>
<pdfrwt beam="2">  1       -2 0.16770590E+00 0.98622103E+03</pdfrwt>
<totfact> 0.24264747E+00</totfact>
</mgrwt>
</event>
<event>
 4    1  0.1726795E-008  0.1145492E+04  0.7818608E-02  0.9161952E-01
         -2   -1    0    0    0  501 -0.00000000000E+00  0.00000000000E+00  0.20653336089E+04  0.20653336089E+04  0.25500000000E-02 0.  1.
          2   -1    0    0  501    0  0.00000000000E+00 -0.00000000000E+00 -0.21436462331E+04  0.21436462331E+04  0.25500000000E-02 0. -1.
    8880022    1    1    2    0    0 -0.11348759073E+04 -0.28592237558E+02 -0.18044525838E+04  0.21373351682E+04  0.15294330000E+03 0. -1.
    8880022    1    1    2    0    0  0.11348759073E+04  0.28592237558E+02  0.17261399597E+04  0.20716446738E+04  0.15294330000E+03 0.  0.
<mgrwt>
<rscale>  0 0.11454922E+04</rscale>
<asrwt>0</asrwt>
<pdfrwt beam="1">  1        2 0.32979173E+00 0.11454922E+04</pdfrwt>
<pdfrwt beam="2">  1       -2 0.31774363E+00 0.11454922E+04</pdfrwt>
<totfact> 0.13575095E-01</totfact>
</mgrwt>
</event>
<event>
 4    1  0.1795043E-008  0.9242884E+03  0.7818608E-02  0.9395719E-01
         -2   -1    0    0    0  501 -0.00000000000E+00  0.00000000000E+00  0.17202166612E+04  0.17202166613E+04  0.25500000000E-02 0.  1.
          2   -1    0    0  501    0  0.00000000000E+00 -0.00000000000E+00 -0.21446062544E+04  0.21446062544E+04  0.25500000000E-02 0. -1.
    8880022    1    1    2    0    0 -0.91136858105E+03 -0.18021671852E+02 -0.19061481762E+04  0.21184215808E+04  0.15294330000E+03 0. -1.
    8880022    1    1    2    0    0  0.91136858105E+03  0.18021671852E+02  0.14817585830E+04  0.17464013349E+04  0.15294330000E+03 0.  0.
<mgrwt>
<rscale>  0 0.92428844E+03</rscale>
<asrwt>0</asrwt>
<pdfrwt beam="1">  1        2 0.32993942E+00 0.92428844E+03</pdfrwt>
<pdfrwt beam="2">  1       -2 0.26464872E+00 0.92428844E+03</pdfrwt>
<totfact> 0.29618247E-01</totfact>
</mgrwt>
</event>
<event>
 4    1  0.1726795E-008  0.7562210E+03  0.7818608E-02  0.9625641E-01
         -2   -1    0    0    0  501 -0.00000000000E+00  0.00000000000E+00  0.35641248095E+03  0.35641248096E+03  0.25500000000E-02 0.  1.
          2   -1    0    0  501    0  0.00000000000E+00 -0.00000000000E+00 -0.21481839893E+04  0.21481839893E+04  0.25500000000E-02 0. -1.
    8880022    1    1    2    0    0 -0.55444703023E+03  0.49098573692E+03 -0.15258823585E+04  0.17029935784E+04  0.15294330000E+03 0.  0.
    8880022    1    1    2    0    0  0.55444703023E+03 -0.49098573692E+03 -0.26588914988E+03  0.80160289185E+03  0.15294330000E+03 0.  0.
<mgrwt>
<rscale>  0 0.75622097E+03</rscale>
<asrwt>0</asrwt>
<pdfrwt beam="1">  1        2 0.33048984E+00 0.75622097E+03</pdfrwt>
<pdfrwt beam="2">  1       -2 0.54832690E-01 0.75622097E+03</pdfrwt>
<totfact> 0.17912254E+01</totfact>
</mgrwt>
</event>
<event>
 4    1  0.1726795E-008  0.1316126E+04  0.7818608E-02  0.9016874E-01
          2   -1    0    0  501    0  0.00000000000E+00  0.00000000000E+00  0.15997972702E+04  0.15997972702E+04  0.25500000000E-02 0. -1.
         -2   -1    0    0    0  501 -0.00000000000E+00 -0.00000000000E+00 -0.13282019383E+04  0.13282019383E+04  0.25500000000E-02 0.  1.
    8880022    1    1    2    0    0  0.70900557781E+03 -0.10982291457E+04  0.76514165271E+03  0.15223762897E+04  0.15294330000E+03 0.  0.
    8880022    1    1    2    0    0 -0.70900557781E+03  0.10982291457E+04 -0.49354632088E+03  0.14056229187E+04  0.15294330000E+03 0.  0.
<mgrwt>
<rscale>  0 0.13161261E+04</rscale>
<asrwt>0</asrwt>
<pdfrwt beam="1">  1        2 0.24612266E+00 0.13161261E+04</pdfrwt>
<pdfrwt beam="2">  1       -2 0.20433876E+00 0.13161261E+04</pdfrwt>
<totfact> 0.13313275E+00</totfact>
</mgrwt>
</event>
<event>
 4    1  0.1726795E-008  0.5236773E+03  0.7818608E-02  0.1007777E+00
          2   -1    0    0  501    0  0.00000000000E+00  0.00000000000E+00  0.10921688189E+04  0.10921688189E+04  0.25500000000E-02 0. -1.
         -2   -1    0    0    0  501 -0.00000000000E+00 -0.00000000000E+00 -0.87752075551E+03  0.87752075551E+03  0.25500000000E-02 0.  1.
    8880022    1    1    2    0    0  0.37820543697E+03 -0.32833960515E+03 -0.72477298861E+03  0.89416653197E+03  0.15294330000E+03 0.  0.
    8880022    1    1    2    0    0 -0.37820543697E+03  0.32833960515E+03  0.93942105201E+03  0.10755230424E+04  0.15294330000E+03 0.  0.
<mgrwt>
<rscale>  0 0.52367729E+03</rscale>
<asrwt>0</asrwt>
<pdfrwt beam="1">  1        2 0.16802597E+00 0.52367729E+03</pdfrwt>
<pdfrwt beam="2">  1       -2 0.13500319E+00 0.52367729E+03</pdfrwt>
<totfact> 0.91595396E+00</totfact>
</mgrwt>
</event>
<event>
 4    1  0.1726795E-008  0.3487277E+03  0.7818608E-02  0.1063138E+00
         -2   -1    0    0    0  501 -0.00000000000E+00  0.00000000000E+00  0.23284325084E+03  0.23284325086E+03  0.25500000000E-02 0.  1.
          2   -1    0    0  501    0  0.00000000000E+00 -0.00000000000E+00 -0.13321153349E+04  0.13321153349E+04  0.25500000000E-02 0. -1.
    8880022    1    1    2    0    0  0.26445217473E+03  0.16817958984E+03 -0.11597324245E+04  0.12110286027E+04  0.15294330000E+03 0.  0.
    8880022    1    1    2    0    0 -0.26445217473E+03 -0.16817958984E+03  0.60460340385E+02  0.35392998309E+03  0.15294330000E+03 0.  0.
<mgrwt>
<rscale>  0 0.34872766E+03</rscale>
<asrwt>0</asrwt>
<pdfrwt beam="1">  1        2 0.20494082E+00 0.34872766E+03</pdfrwt>
<pdfrwt beam="2">  1       -2 0.35822039E-01 0.34872766E+03</pdfrwt>
<totfact> 0.12342291E+02</totfact>
</mgrwt>
</event>
<event>
 4    1  0.1726795E-008  0.1034155E+04  0.7818608E-02  0.9271857E-01
          2   -1    0    0  501    0  0.00000000000E+00  0.00000000000E+00  0.13770960748E+04  0.13770960748E+04  0.25500000000E-02 0. -1.
         -2   -1    0    0    0  501 -0.00000000000E+00 -0.00000000000E+00 -0.13051258097E+04  0.13051258097E+04  0.25500000000E-02 0.  1.
    8880022    1    1    2    0    0 -0.91513802773E+03 -0.45673660011E+03 -0.81743763724E+03  0.13182116201E+04  0.15294330000E+03 0.  0.
    8880022    1    1    2    0    0  0.91513802773E+03  0.45673660011E+03  0.88940790227E+03  0.13640102644E+04  0.15294330000E+03 0.  0.
<mgrwt>
<rscale>  0 0.10341555E+04</rscale>
<asrwt>0</asrwt>
<pdfrwt beam="1">  1        2 0.21186093E+00 0.10341555E+04</pdfrwt>
<pdfrwt beam="2">  1       -2 0.20078859E+00 0.10341555E+04</pdfrwt>
<totfact> 0.19380758E+00</totfact>
</mgrwt>
</event>
<event>
 4    1  0.1726795E-008  0.1246112E+04  0.7818608E-02  0.9073426E-01
          2   -1    0    0  501    0  0.00000000000E+00  0.00000000000E+00  0.29215766831E+04  0.29215766831E+04  0.25500000000E-02 0. -1.
         -2   -1    0    0    0  501 -0.00000000000E+00 -0.00000000000E+00 -0.83788752459E+03  0.83788752459E+03  0.25500000000E-02 0.  1.
    8880022    1    1    2    0    0  0.11720639852E+04  0.39454927300E+03 -0.94851267467E+02  0.12497165800E+04  0.15294330000E+03 0.  0.
    8880022    1    1    2    0    0 -0.11720639852E+04 -0.39454927300E+03  0.21785404260E+04  0.25097476278E+04  0.15294330000E+03 0.  0.
<mgrwt>
<rscale>  0 0.12461119E+04</rscale>
<asrwt>0</asrwt>
<pdfrwt beam="1">  1        2 0.44947333E+00 0.12461119E+04</pdfrwt>
<pdfrwt beam="2">  1       -2 0.12890578E+00 0.12461119E+04</pdfrwt>
<totfact> 0.84676099E-01</totfact>
</mgrwt>
</event>
<event>
 4    1  0.1726795E-008  0.1051499E+04  0.7818608E-02  0.9253798E-01
         -2   -1    0    0    0  501 -0.00000000000E+00  0.00000000000E+00  0.13321989957E+04  0.13321989957E+04  0.25500000000E-02 0.  1.
          2   -1    0    0  501    0  0.00000000000E+00 -0.00000000000E+00 -0.28870083292E+04  0.28870083292E+04  0.25500000000E-02 0. -1.
    8880022    1    1    2    0    0 -0.90397074910E+03  0.51487339991E+03 -0.25581461760E+04  0.27658201756E+04  0.15294330000E+03 0.  0.
    8880022    1    1    2    0    0  0.90397074910E+03 -0.51487339991E+03  0.10033368425E+04  0.14533871493E+04  0.15294330000E+03 0.  0.
<mgrwt>
<rscale>  0 0.10514986E+04</rscale>
<asrwt>0</asrwt>
<pdfrwt beam="1">  1        2 0.44415513E+00 0.10514986E+04</pdfrwt>
<pdfrwt beam="2">  1       -2 0.20495369E+00 0.10514986E+04</pdfrwt>
<totfact> 0.25402390E-01</totfact>
</mgrwt>
</event>
<event>
 4    1  0.1726795E-008  0.7933184E+03  0.7818608E-02  0.9569739E-01
          2   -1    0    0  501    0  0.00000000000E+00  0.00000000000E+00  0.28241788240E+04  0.28241788240E+04  0.25500000000E-02 0. -1.
         -2   -1    0    0    0  501 -0.00000000000E+00 -0.00000000000E+00 -0.30897833370E+03  0.30897833371E+03  0.25500000000E-02 0.  1.
    8880022    1    1    2    0    0  0.14743311313E+03 -0.76434673400E+03  0.43047015478E+03  0.90258443361E+03  0.15294330000E+03 0.  0.
    8880022    1    1    2    0    0 -0.14743311313E+03  0.76434673400E+03  0.20847303355E+04  0.22305727241E+04  0.15294330000E+03 0.  0.
<mgrwt>
<rscale>  0 0.79331841E+03</rscale>
<asrwt>0</asrwt>
<pdfrwt beam="1">  1        2 0.43448906E+00 0.79331841E+03</pdfrwt>
<pdfrwt beam="2">  1       -2 0.47535128E-01 0.79331841E+03</pdfrwt>
<totfact> 0.98467222E+00</totfact>
</mgrwt>
</event>
<event>
 4    1  0.1726795E-008  0.1818979E+03  0.7818608E-02  0.1165979E+00
         -2   -1    0    0    0  501 -0.00000000000E+00  0.00000000000E+00  0.46132259339E+03  0.46132259340E+03  0.25500000000E-02 0.  1.
          2   -1    0    0  501    0  0.00000000000E+00 -0.00000000000E+00 -0.96039816518E+03  0.96039816518E+03  0.25500000000E-02 0. -1.
    8880022    1    1    2    0    0  0.92187500824E+02 -0.34592502434E+02  0.43426441366E+03  0.47082099626E+03  0.15294330000E+03 0.  1.
    8880022    1    1    2    0    0 -0.92187500824E+02  0.34592502434E+02 -0.93333998545E+03  0.95089976232E+03  0.15294330000E+03 0.  0.
<mgrwt>
<rscale>  0 0.18189785E+03</rscale>
<asrwt>0</asrwt>
<pdfrwt beam="1">  1        2 0.14775356E+00 0.18189785E+03</pdfrwt>
<pdfrwt beam="2">  1       -2 0.70972707E-01 0.18189785E+03</pdfrwt>
<totfact> 0.53552262E+01</totfact>
</mgrwt>
</event>
<event>
 4    1  0.1726795E-008  0.7423477E+03  0.7818608E-02  0.9647433E-01
          2   -1    0    0  501    0  0.00000000000E+00  0.00000000000E+00  0.21062265773E+04  0.21062265773E+04  0.25500000000E-02 0. -1.
         -2   -1    0    0    0  501 -0.00000000000E+00 -0.00000000000E+00 -0.72944654098E+03  0.72944654098E+03  0.25500000000E-02 0.  1.
    8880022    1    1    2    0    0 -0.10925942905E+03  0.71815798921E+03 -0.44704171243E+03  0.86656013408E+03  0.15294330000E+03 0.  0.
    8880022    1    1    2    0    0  0.10925942905E+03 -0.71815798921E+03  0.18238217487E+04  0.19691129842E+04  0.15294330000E+03 0.  0.
<mgrwt>
<rscale>  0 0.74234774E+03</rscale>
<asrwt>0</asrwt>
<pdfrwt beam="1">  1        2 0.32403485E+00 0.74234774E+03</pdfrwt>
<pdfrwt beam="2">  1       -2 0.11222255E+00 0.74234774E+03</pdfrwt>
<totfact> 0.37956653E+00</totfact>
</mgrwt>
</event>
<event>
 4    1  0.1726795E-008  0.1827379E+04  0.7818608E-02  0.8691874E-01
         -2   -1    0    0    0  501 -0.00000000000E+00  0.00000000000E+00  0.24591478563E+04  0.24591478563E+04  0.25500000000E-02 0.  1.
          2   -1    0    0  501    0  0.00000000000E+00 -0.00000000000E+00 -0.16447038856E+04  0.16447038856E+04  0.25500000000E-02 0. -1.
    8880022    1    1    2    0    0  0.17161796166E+04 -0.60880931072E+03  0.12640609926E+04  0.22219727945E+04  0.15294330000E+03 0.  0.
    8880022    1    1    2    0    0 -0.17161796166E+04  0.60880931072E+03 -0.44961702197E+03  0.18818789474E+04  0.15294330000E+03 0.  0.
<mgrwt>
<rscale>  0 0.18273787E+04</rscale>
<asrwt>0</asrwt>
<pdfrwt beam="1">  1        2 0.25303137E+00 0.18273787E+04</pdfrwt>
<pdfrwt beam="2">  1       -2 0.37833044E+00 0.18273787E+04</pdfrwt>
<totfact> 0.98045048E-02</totfact>
</mgrwt>
</event>
<event>
 4    1  0.1726795E-008  0.5454390E+03  0.7818608E-02  0.1002555E+00
         -2   -1    0    0    0  501 -0.00000000000E+00  0.00000000000E+00  0.54479070155E+03  0.54479070155E+03  0.25500000000E-02 0.  1.
          2   -1    0    0  501    0  0.00000000000E+00 -0.00000000000E+00 -0.11383274384E+04  0.11383274384E+04  0.25500000000E-02 0. -1.
    8880022    1    1    2    0    0 -0.39914969665E+03 -0.33880897814E+03  0.31024697704E+03  0.62750047313E+03  0.15294330000E+03 0.  0.
    8880022    1    1    2    0    0  0.39914969665E+03  0.33880897814E+03 -0.90378371387E+03  0.10556176668E+04  0.15294330000E+03 0.  0.
<mgrwt>
<rscale>  0 0.54543896E+03</rscale>
<asrwt>0</asrwt>
<pdfrwt beam="1">  1        2 0.17512730E+00 0.54543896E+03</pdfrwt>
<pdfrwt beam="2">  1       -2 0.83813954E-01 0.54543896E+03</pdfrwt>
<totfact> 0.26798130E+01</totfact>
</mgrwt>
</event>
<event>
 4    1  0.1726795E-008  0.7493084E+03  0.7818608E-02  0.9636436E-01
         -2   -1    0    0    0  501 -0.00000000000E+00  0.00000000000E+00  0.62891515412E+03  0.62891515413E+03  0.25500000000E-02 0.  1.
          2   -1    0    0  501    0  0.00000000000E+00 -0.00000000000E+00 -0.11710786736E+04  0.11710786736E+04  0.25500000000E-02 0. -1.
    8880022    1    1    2    0    0 -0.34700099288E+03  0.64626749589E+03 -0.70984292545E+03  0.10321530880E+04  0.15294330000E+03 0.  0.
    8880022    1    1    2    0    0  0.34700099288E+03 -0.64626749589E+03  0.16767940599E+03  0.76784073968E+03  0.15294330000E+03 0.  0.
<mgrwt>
<rscale>  0 0.74930836E+03</rscale>
<asrwt>0</asrwt>
<pdfrwt beam="1">  1        2 0.18016595E+00 0.74930836E+03</pdfrwt>
<pdfrwt beam="2">  1       -2 0.96756178E-01 0.74930836E+03</pdfrwt>
<totfact> 0.17933910E+01</totfact>
</mgrwt>
</event>
<event>
 4    1  0.1726795E-008  0.6312573E+03  0.7818608E-02  0.9842598E-01
          2   -1    0    0  501    0  0.00000000000E+00  0.00000000000E+00  0.52951458827E+04  0.52951458827E+04  0.25500000000E-02 0. -1.
         -2   -1    0    0    0  501 -0.00000000000E+00 -0.00000000000E+00 -0.14908686627E+03  0.14908686629E+03  0.25500000000E-02 0.  1.
    8880022    1    1    2    0    0 -0.35107200161E+03 -0.50183916044E+03  0.44886486673E+04  0.45328194984E+04  0.15294330000E+03 0.  0.
    8880022    1    1    2    0    0  0.35107200161E+03  0.50183916044E+03  0.65741034913E+03  0.91141325062E+03  0.15294330000E+03 0.  0.
<mgrwt>
<rscale>  0 0.63125727E+03</rscale>
<asrwt>0</asrwt>
<pdfrwt beam="1">  1        2 0.81463762E+00 0.63125727E+03</pdfrwt>
<pdfrwt beam="2">  1       -2 0.22936447E-01 0.63125727E+03</pdfrwt>
<totfact> 0.27901014E-01</totfact>
</mgrwt>
</event>
<event>
 4    1  0.1726795E-008  0.8903011E+03  0.7818608E-02  0.9437787E-01
         -2   -1    0    0    0  501 -0.00000000000E+00  0.00000000000E+00  0.68638119629E+03  0.68638119630E+03  0.25500000000E-02 0.  1.
          2   -1    0    0  501    0  0.00000000000E+00 -0.00000000000E+00 -0.14264557138E+04  0.14264557138E+04  0.25500000000E-02 0. -1.
    8880022    1    1    2    0    0  0.84216465331E+03 -0.24495542409E+03  0.90975168395E+02  0.89493720302E+03  0.15294330000E+03 0.  0.
    8880022    1    1    2    0    0 -0.84216465331E+03  0.24495542409E+03 -0.83104968592E+03  0.12178997071E+04  0.15294330000E+03 0.  0.
<mgrwt>
<rscale>  0 0.89030114E+03</rscale>
<asrwt>0</asrwt>
<pdfrwt beam="1">  1        2 0.21945473E+00 0.89030114E+03</pdfrwt>
<pdfrwt beam="2">  1       -2 0.10559711E+00 0.89030114E+03</pdfrwt>
<totfact> 0.10195275E+01</totfact>
</mgrwt>
</event>
<event>
 4    1  0.1726795E-008  0.5979131E+03  0.7818608E-02  0.9909745E-01
         -2   -1    0    0    0  501 -0.00000000000E+00  0.00000000000E+00  0.49358302395E+03  0.49358302395E+03  0.25500000000E-02 0.  1.
          2   -1    0    0  501    0  0.00000000000E+00 -0.00000000000E+00 -0.90282301382E+03  0.90282301382E+03  0.25500000000E-02 0. -1.
    8880022    1    1    2    0    0  0.34267344206E+03 -0.46549259157E+03 -0.51509930770E+03  0.78919413993E+03  0.15294330000E+03 0.  0.
    8880022    1    1    2    0    0 -0.34267344206E+03  0.46549259157E+03  0.10585931783E+03  0.60721189784E+03  0.15294330000E+03 0.  0.
<mgrwt>
<rscale>  0 0.59791312E+03</rscale>
<asrwt>0</asrwt>
<pdfrwt beam="1">  1        2 0.13889585E+00 0.59791312E+03</pdfrwt>
<pdfrwt beam="2">  1       -2 0.75935850E-01 0.59791312E+03</pdfrwt>
<totfact> 0.46679293E+01</totfact>
</mgrwt>
</event>
<event>
 4    1  0.1726795E-008  0.1275373E+04  0.7818608E-02  0.9049326E-01
         -2   -1    0    0    0  501 -0.00000000000E+00  0.00000000000E+00  0.18254399797E+04  0.18254399797E+04  0.25500000000E-02 0.  1.
          2   -1    0    0  501    0  0.00000000000E+00 -0.00000000000E+00 -0.13211281104E+04  0.13211281104E+04  0.25500000000E-02 0. -1.
    8880022    1    1    2    0    0  0.56752942857E+03  0.11318545731E+04  0.11497984657E+04  0.17171524661E+04  0.15294330000E+03 0.  0.
    8880022    1    1    2    0    0 -0.56752942857E+03 -0.11318545731E+04 -0.64548659649E+03  0.14294156240E+04  0.15294330000E+03 0.  0.
<mgrwt>
<rscale>  0 0.12753729E+04</rscale>
<asrwt>0</asrwt>
<pdfrwt beam="1">  1        2 0.20325048E+00 0.12753729E+04</pdfrwt>
<pdfrwt beam="2">  1       -2 0.28083692E+00 0.12753729E+04</pdfrwt>
<totfact> 0.64572259E-01</totfact>
</mgrwt>
</event>
<event>
 4    1  0.1726795E-008  0.1761697E+04  0.7818608E-02  0.8726938E-01
          2   -1    0    0  501    0  0.00000000000E+00  0.00000000000E+00  0.25103378069E+04  0.25103378069E+04  0.25500000000E-02 0. -1.
         -2   -1    0    0    0  501 -0.00000000000E+00 -0.00000000000E+00 -0.15104217762E+04  0.15104217762E+04  0.25500000000E-02 0.  1.
    8880022    1    1    2    0    0  0.42958849975E+03 -0.17016570641E+04  0.13563781200E+04  0.22233614867E+04  0.15294330000E+03 0.  0.
    8880022    1    1    2    0    0 -0.42958849975E+03  0.17016570641E+04 -0.35646208940E+03  0.17973980964E+04  0.15294330000E+03 0.  0.
<mgrwt>
<rscale>  0 0.17616965E+04</rscale>
<asrwt>0</asrwt>
<pdfrwt beam="1">  1        2 0.38620581E+00 0.17616965E+04</pdfrwt>
<pdfrwt beam="2">  1       -2 0.23237258E+00 0.17616965E+04</pdfrwt>
<totfact> 0.25867656E-01</totfact>
</mgrwt>
</event>
<event>
 4    1  0.1726795E-008  0.1201359E+04  0.7818608E-02  0.9111668E-01
         -2   -1    0    0    0  501 -0.00000000000E+00  0.00000000000E+00  0.20066931760E+04  0.20066931760E+04  0.25500000000E-02 0.  1.
          2   -1    0    0  501    0  0.00000000000E+00 -0.00000000000E+00 -0.20105811895E+04  0.20105811895E+04  0.25500000000E-02 0. -1.
    8880022    1    1    2    0    0  0.11783357168E+02  0.11915252640E+04 -0.16117138737E+04  0.20101951562E+04  0.15294330000E+03 0.  0.
    8880022    1    1    2    0    0 -0.11783357168E+02 -0.11915252640E+04  0.16078258603E+04  0.20070792092E+04  0.15294330000E+03 0.  0.
<mgrwt>
<rscale>  0 0.12013588E+04</rscale>
<asrwt>0</asrwt>
<pdfrwt beam="1">  1        2 0.30932019E+00 0.12013588E+04</pdfrwt>
<pdfrwt beam="2">  1       -2 0.30872202E+00 0.12013588E+04</pdfrwt>
<totfact> 0.18105744E-01</totfact>
</mgrwt>
</event>
<event>
 4    1  0.1726795E-008  0.7319875E+03  0.7818608E-02  0.9664041E-01
          2   -1    0    0  501    0  0.00000000000E+00  0.00000000000E+00  0.25502234301E+04  0.25502234301E+04  0.25500000000E-02 0. -1.
         -2   -1    0    0    0  501 -0.00000000000E+00 -0.00000000000E+00 -0.20221519822E+04  0.20221519822E+04  0.25500000000E-02 0.  1.
    8880022    1    1    2    0    0 -0.98499789360E+02  0.70902178865E+03 -0.19001281096E+04  0.20362447277E+04  0.15294330000E+03 0.  0.
    8880022    1    1    2    0    0  0.98499789360E+02 -0.70902178865E+03  0.24281995575E+04  0.25361306846E+04  0.15294330000E+03 0.  0.
<mgrwt>
<rscale>  0 0.73198754E+03</rscale>
<asrwt>0</asrwt>
<pdfrwt beam="1">  1        2 0.39234207E+00 0.73198754E+03</pdfrwt>
<pdfrwt beam="2">  1       -2 0.31110031E+00 0.73198754E+03</pdfrwt>
<totfact> 0.96519081E-02</totfact>
</mgrwt>
</event>
<event>
 4    1  0.1726795E-008  0.8344548E+03  0.7818608E-02  0.9511442E-01
          2   -1    0    0  501    0  0.00000000000E+00  0.00000000000E+00  0.21145748044E+04  0.21145748044E+04  0.25500000000E-02 0. -1.
         -2   -1    0    0    0  501 -0.00000000000E+00 -0.00000000000E+00 -0.20130074264E+04  0.20130074264E+04  0.25500000000E-02 0.  1.
    8880022    1    1    2    0    0 -0.71910033902E+03  0.39473766558E+03 -0.18366741558E+04  0.20173464576E+04  0.15294330000E+03 0.  0.
    8880022    1    1    2    0    0  0.71910033902E+03 -0.39473766558E+03  0.19382415338E+04  0.21102357732E+04  0.15294330000E+03 0.  0.
<mgrwt>
<rscale>  0 0.83445478E+03</rscale>
<asrwt>0</asrwt>
<pdfrwt beam="1">  1        2 0.32531920E+00 0.83445478E+03</pdfrwt>
<pdfrwt beam="2">  1       -2 0.30969345E+00 0.83445478E+03</pdfrwt>
<totfact> 0.16779194E-01</totfact>
</mgrwt>
</event>
<event>
 4    1  0.1726795E-008  0.9138922E+03  0.7818608E-02  0.9408380E-01
          2   -1    0    0  501    0  0.00000000000E+00  0.00000000000E+00  0.15190537516E+04  0.15190537516E+04  0.25500000000E-02 0. -1.
         -2   -1    0    0    0  501 -0.00000000000E+00 -0.00000000000E+00 -0.72033160745E+03  0.72033160746E+03  0.25500000000E-02 0.  1.
    8880022    1    1    2    0    0  0.17587436276E+03  0.88367161636E+03  0.94413408207E+03  0.13139970072E+04  0.15294330000E+03 0.  0.
    8880022    1    1    2    0    0 -0.17587436276E+03 -0.88367161636E+03 -0.14541193791E+03  0.92538835185E+03  0.15294330000E+03 0.  0.
<mgrwt>
<rscale>  0 0.91389221E+03</rscale>
<asrwt>0</asrwt>
<pdfrwt beam="1">  1        2 0.23370057E+00 0.91389221E+03</pdfrwt>
<pdfrwt beam="2">  1       -2 0.11082025E+00 0.91389221E+03</pdfrwt>
<totfact> 0.80242024E+00</totfact>
</mgrwt>
</event>
<event>
 4    1  0.1726795E-008  0.5792851E+03  0.7818608E-02  0.9949340E-01
         -2   -1    0    0    0  501 -0.00000000000E+00  0.00000000000E+00  0.30831991075E+03  0.30831991076E+03  0.25500000000E-02 0.  1.
          2   -1    0    0  501    0  0.00000000000E+00 -0.00000000000E+00 -0.22615697808E+04  0.22615697808E+04  0.25500000000E-02 0. -1.
    8880022    1    1    2    0    0 -0.52217045305E+03 -0.19879043742E+03 -0.19020950438E+04  0.19883502782E+04  0.15294330000E+03 0.  0.
    8880022    1    1    2    0    0  0.52217045305E+03  0.19879043742E+03 -0.51154826236E+02  0.58153941337E+03  0.15294330000E+03 0.  0.
<mgrwt>
<rscale>  0 0.57928514E+03</rscale>
<asrwt>0</asrwt>
<pdfrwt beam="1">  1        2 0.34793380E+00 0.57928514E+03</pdfrwt>
<pdfrwt beam="2">  1       -2 0.47433834E-01 0.57928514E+03</pdfrwt>
<totfact> 0.21475689E+01</totfact>
</mgrwt>
</event>
<event>
 4    1  0.1726795E-008  0.8314103E+03  0.7818608E-02  0.9515633E-01
         -2   -1    0    0    0  501 -0.00000000000E+00  0.00000000000E+00  0.58340818748E+03  0.58340818749E+03  0.25500000000E-02 0.  1.
          2   -1    0    0  501    0  0.00000000000E+00 -0.00000000000E+00 -0.12856365082E+04  0.12856365082E+04  0.25500000000E-02 0. -1.
    8880022    1    1    2    0    0  0.26952250794E+03  0.77149788184E+03 -0.61278900614E+03  0.10328375395E+04  0.15294330000E+03 0.  0.
    8880022    1    1    2    0    0 -0.26952250794E+03 -0.77149788184E+03 -0.89439314539E+02  0.83620715614E+03  0.15294330000E+03 0.  0.
<mgrwt>
<rscale>  0 0.83141026E+03</rscale>
<asrwt>0</asrwt>
<pdfrwt beam="1">  1        2 0.19779023E+00 0.83141026E+03</pdfrwt>
<pdfrwt beam="2">  1       -2 0.89755106E-01 0.83141026E+03</pdfrwt>
<totfact> 0.18127273E+01</totfact>
</mgrwt>
</event>
<event>
 4    1  0.1726795E-008  0.8026910E+03  0.7818608E-02  0.9556130E-01
         -2   -1    0    0    0  501 -0.00000000000E+00  0.00000000000E+00  0.87968856162E+03  0.87968856162E+03  0.25500000000E-02 0.  1.
          2   -1    0    0  501    0  0.00000000000E+00 -0.00000000000E+00 -0.78370189642E+03  0.78370189643E+03  0.25500000000E-02 0. -1.
    8880022    1    1    2    0    0 -0.60813612611E+03  0.50109046550E+03  0.26071714879E+03  0.84397054876E+03  0.15294330000E+03 0.  0.
    8880022    1    1    2    0    0  0.60813612611E+03 -0.50109046550E+03 -0.16473048359E+03  0.81941990929E+03  0.15294330000E+03 0.  0.
<mgrwt>
<rscale>  0 0.80269101E+03</rscale>
<asrwt>0</asrwt>
<pdfrwt beam="1">  1        2 0.12056952E+00 0.80269101E+03</pdfrwt>
<pdfrwt beam="2">  1       -2 0.13533670E+00 0.80269101E+03</pdfrwt>
<totfact> 0.14012432E+01</totfact>
</mgrwt>
</event>
<event>
 4    1  0.1726795E-008  0.7682620E+03  0.7818608E-02  0.9607128E-01
          2   -1    0    0  501    0  0.00000000000E+00  0.00000000000E+00  0.17345091007E+04  0.17345091007E+04  0.25500000000E-02 0. -1.
         -2   -1    0    0    0  501 -0.00000000000E+00 -0.00000000000E+00 -0.45351730140E+03  0.45351730141E+03  0.25500000000E-02 0.  1.
    8880022    1    1    2    0    0 -0.55983232098E+03 -0.50341102813E+03  0.11871489537E+04  0.14140541652E+04  0.15294330000E+03 0.  0.
    8880022    1    1    2    0    0  0.55983232098E+03  0.50341102813E+03  0.93842845620E+02  0.77397223693E+03  0.15294330000E+03 0.  0.
<mgrwt>
<rscale>  0 0.76826203E+03</rscale>
<asrwt>0</asrwt>
<pdfrwt beam="1">  1        2 0.26684756E+00 0.76826203E+03</pdfrwt>
<pdfrwt beam="2">  1       -2 0.69771891E-01 0.76826203E+03</pdfrwt>
<totfact> 0.18026722E+01</totfact>
</mgrwt>
</event>
<event>
 4    1  0.1726795E-008  0.7737270E+03  0.7818608E-02  0.9598845E-01
         -2   -1    0    0    0  501 -0.00000000000E+00  0.00000000000E+00  0.75999008590E+03  0.75999008591E+03  0.25500000000E-02 0.  1.
          2   -1    0    0  501    0  0.00000000000E+00 -0.00000000000E+00 -0.17376571064E+04  0.17376571064E+04  0.25500000000E-02 0. -1.
    8880022    1    1    2    0    0  0.73096765817E+03  0.20235619390E+03 -0.14121876141E+04  0.16102568916E+04  0.15294330000E+03 0. -1.
    8880022    1    1    2    0    0 -0.73096765817E+03 -0.20235619390E+03  0.43452059361E+03  0.88739030071E+03  0.15294330000E+03 0.  0.
<mgrwt>
<rscale>  0 0.77372695E+03</rscale>
<asrwt>0</asrwt>
<pdfrwt beam="1">  1        2 0.26733186E+00 0.77372695E+03</pdfrwt>
<pdfrwt beam="2">  1       -2 0.11692155E+00 0.77372695E+03</pdfrwt>
<totfact> 0.54303653E+00</totfact>
</mgrwt>
</event>
<event>
 4    1  0.1726795E-008  0.1207203E+04  0.7818608E-02  0.9106575E-01
          2   -1    0    0  501    0  0.00000000000E+00  0.00000000000E+00  0.15744187124E+04  0.15744187124E+04  0.25500000000E-02 0. -1.
         -2   -1    0    0    0  501 -0.00000000000E+00 -0.00000000000E+00 -0.11858448052E+04  0.11858448052E+04  0.25500000000E-02 0.  1.
    8880022    1    1    2    0    0  0.52800190897E+02 -0.11963108545E+04  0.84078517285E+03  0.14711420328E+04  0.15294330000E+03 0.  0.
    8880022    1    1    2    0    0 -0.52800190897E+02  0.11963108545E+04 -0.45221126566E+03  0.12891214848E+04  0.15294330000E+03 0.  0.
<mgrwt>
<rscale>  0 0.12072030E+04</rscale>
<asrwt>0</asrwt>
<pdfrwt beam="1">  1        2 0.24221826E+00 0.12072030E+04</pdfrwt>
<pdfrwt beam="2">  1       -2 0.18243766E+00 0.12072030E+04</pdfrwt>
<totfact> 0.19495545E+00</totfact>
</mgrwt>
</event>
<event>
 4    1  0.1944023E-008  0.1282793E+04  0.7818608E-02  0.9043323E-01
         -2   -1    0    0    0  501 -0.00000000000E+00  0.00000000000E+00  0.16646950121E+04  0.16646950121E+04  0.25500000000E-02 0.  1.
          2   -1    0    0  501    0  0.00000000000E+00 -0.00000000000E+00 -0.22925310752E+04  0.22925310752E+04  0.25500000000E-02 0. -1.
    8880022    1    1    2    0    0  0.10754276265E+04 -0.68236396043E+03 -0.18061854043E+04  0.22153696129E+04  0.15294330000E+03 0.  0.
    8880022    1    1    2    0    0 -0.10754276265E+04  0.68236396043E+03  0.11783493411E+04  0.17418564743E+04  0.15294330000E+03 0.  0.
<mgrwt>
<rscale>  0 0.12827926E+04</rscale>
<asrwt>0</asrwt>
<pdfrwt beam="1">  1        2 0.35269709E+00 0.12827926E+04</pdfrwt>
<pdfrwt beam="2">  1       -2 0.25610693E+00 0.12827926E+04</pdfrwt>
<totfact> 0.26010070E-01</totfact>
</mgrwt>
</event>
<event>
 4    1  0.1726795E-008  0.1901370E+03  0.7818608E-02  0.1158338E+00
          2   -1    0    0  501    0  0.00000000000E+00  0.00000000000E+00  0.56854425377E+03  0.56854425378E+03  0.25500000000E-02 0. -1.
         -2   -1    0    0    0  501 -0.00000000000E+00 -0.00000000000E+00 -0.19878457504E+03  0.19878457506E+03  0.25500000000E-02 0.  1.
    8880022    1    1    2    0    0 -0.68797588263E+02 -0.89595214788E+02 -0.13152601899E+03  0.23119506342E+03  0.15294330000E+03 0.  0.
    8880022    1    1    2    0    0  0.68797588263E+02  0.89595214788E+02  0.50128569772E+03  0.53613376541E+03  0.15294330000E+03 0. -1.
<mgrwt>
<rscale>  0 0.19013696E+03</rscale>
<asrwt>0</asrwt>
<pdfrwt beam="1">  1        2 0.87468346E-01 0.19013696E+03</pdfrwt>
<pdfrwt beam="2">  1       -2 0.30582243E-01 0.19013696E+03</pdfrwt>
<totfact> 0.53469395E+02</totfact>
</mgrwt>
</event>
<event>
 4    1  0.1726795E-008  0.1441878E+04  0.7818608E-02  0.8924051E-01
         -2   -1    0    0    0  501 -0.00000000000E+00  0.00000000000E+00  0.21064156451E+04  0.21064156451E+04  0.25500000000E-02 0.  1.
          2   -1    0    0  501    0  0.00000000000E+00 -0.00000000000E+00 -0.16412592870E+04  0.16412592870E+04  0.25500000000E-02 0. -1.
    8880022    1    1    2    0    0  0.13653651043E+04  0.43748995515E+03  0.14156786239E+04  0.20206822976E+04  0.15294330000E+03 0.  0.
    8880022    1    1    2    0    0 -0.13653651043E+04 -0.43748995515E+03 -0.95052226570E+03  0.17269926345E+04  0.15294330000E+03 0.  0.
<mgrwt>
<rscale>  0 0.14418776E+04</rscale>
<asrwt>0</asrwt>
<pdfrwt beam="1">  1        2 0.25250143E+00 0.14418776E+04</pdfrwt>
<pdfrwt beam="2">  1       -2 0.32406394E+00 0.14418776E+04</pdfrwt>
<totfact> 0.22626690E-01</totfact>
</mgrwt>
</event>
<event>
 4    1  0.1726795E-008  0.1317590E+04  0.7818608E-02  0.9015731E-01
         -2   -1    0    0    0  501 -0.00000000000E+00  0.00000000000E+00  0.11498444030E+04  0.11498444030E+04  0.25500000000E-02 0.  1.
          2   -1    0    0  501    0  0.00000000000E+00 -0.00000000000E+00 -0.19855830025E+04  0.19855830025E+04  0.25500000000E-02 0. -1.
    8880022    1    1    2    0    0 -0.95266841142E+03  0.89725984815E+03  0.34953398828E+03  0.13631647000E+04  0.15294330000E+03 0.  0.
    8880022    1    1    2    0    0  0.95266841142E+03 -0.89725984815E+03 -0.11852725878E+04  0.17722627056E+04  0.15294330000E+03 0.  0.
<mgrwt>
<rscale>  0 0.13175902E+04</rscale>
<asrwt>0</asrwt>
<pdfrwt beam="1">  1        2 0.30547431E+00 0.13175902E+04</pdfrwt>
<pdfrwt beam="2">  1       -2 0.17689914E+00 0.13175902E+04</pdfrwt>
<totfact> 0.12435043E+00</totfact>
</mgrwt>
</event>
<event>
 4    1  0.1726795E-008  0.4457848E+03  0.7818608E-02  0.1028987E+00
          2   -1    0    0  501    0  0.00000000000E+00  0.00000000000E+00  0.33349902003E+04  0.33349902003E+04  0.25500000000E-02 0. -1.
         -2   -1    0    0    0  501 -0.00000000000E+00 -0.00000000000E+00 -0.13343542502E+03  0.13343542504E+03  0.25500000000E-02 0.  1.
    8880022    1    1    2    0    0  0.67841168451E+02  0.41319488747E+03  0.28909138417E+04  0.29250823805E+04  0.15294330000E+03 0.  0.
    8880022    1    1    2    0    0 -0.67841168451E+02 -0.41319488747E+03  0.31064093360E+03  0.54334324493E+03  0.15294330000E+03 0.  0.
<mgrwt>
<rscale>  0 0.44578480E+03</rscale>
<asrwt>0</asrwt>
<pdfrwt beam="1">  1        2 0.51307544E+00 0.44578480E+03</pdfrwt>
<pdfrwt beam="2">  1       -2 0.20528526E-01 0.44578480E+03</pdfrwt>
<totfact> 0.24609448E+01</totfact>
</mgrwt>
</event>
<event>
 4    1  0.1726795E-008  0.1510456E+04  0.7818608E-02  0.8877529E-01
          2   -1    0    0  501    0  0.00000000000E+00  0.00000000000E+00  0.16498764485E+04  0.16498764485E+04  0.25500000000E-02 0. -1.
         -2   -1    0    0    0  501 -0.00000000000E+00 -0.00000000000E+00 -0.16940136584E+04  0.16940136584E+04  0.25500000000E-02 0.  1.
    8880022    1    1    2    0    0  0.14906102542E+04 -0.19017920586E+03 -0.73867448892E+03  0.16814037926E+04  0.15294330000E+03 0.  0.
    8880022    1    1    2    0    0 -0.14906102542E+04  0.19017920586E+03  0.69453727908E+03  0.16624863143E+04  0.15294330000E+03 0.  0.
<mgrwt>
<rscale>  0 0.15104565E+04</rscale>
<asrwt>0</asrwt>
<pdfrwt beam="1">  1        2 0.25382715E+00 0.15104565E+04</pdfrwt>
<pdfrwt beam="2">  1       -2 0.26061748E+00 0.15104565E+04</pdfrwt>
<totfact> 0.54267191E-01</totfact>
</mgrwt>
</event>
<event>
 4    1  0.1726795E-008  0.1159312E+04  0.7818608E-02  0.9149236E-01
         -2   -1    0    0    0  501 -0.00000000000E+00  0.00000000000E+00  0.62702573078E+03  0.62702573078E+03  0.25500000000E-02 0.  1.
          2   -1    0    0  501    0  0.00000000000E+00 -0.00000000000E+00 -0.24692436157E+04  0.24692436157E+04  0.25500000000E-02 0. -1.
    8880022    1    1    2    0    0  0.11462716186E+04  0.81692877815E+02 -0.14834399002E+04  0.18827102646E+04  0.15294330000E+03 0.  0.
    8880022    1    1    2    0    0 -0.11462716186E+04 -0.81692877815E+02 -0.35877798477E+03  0.12135590819E+04  0.15294330000E+03 0.  0.
<mgrwt>
<rscale>  0 0.11593119E+04</rscale>
<asrwt>0</asrwt>
<pdfrwt beam="1">  1        2 0.37988363E+00 0.11593119E+04</pdfrwt>
<pdfrwt beam="2">  1       -2 0.96465498E-01 0.11593119E+04</pdfrwt>
<totfact> 0.32225027E+00</totfact>
</mgrwt>
</event>
<event>
 4    1  0.1726795E-008  0.9962469E+03  0.7818608E-02  0.9312671E-01
          2   -1    0    0  501    0  0.00000000000E+00  0.00000000000E+00  0.89079455336E+03  0.89079455337E+03  0.25500000000E-02 0. -1.
         -2   -1    0    0    0  501 -0.00000000000E+00 -0.00000000000E+00 -0.13542090993E+04  0.13542090993E+04  0.25500000000E-02 0.  1.
    8880022    1    1    2    0    0 -0.38210739626E+02  0.98369516864E+03  0.24087092236E+03  0.10249520475E+04  0.15294330000E+03 0.  0.
    8880022    1    1    2    0    0  0.38210739626E+02 -0.98369516864E+03 -0.70428546833E+03  0.12200516052E+04  0.15294330000E+03 0.  0.
<mgrwt>
<rscale>  0 0.99624691E+03</rscale>
<asrwt>0</asrwt>
<pdfrwt beam="1">  1        2 0.13704532E+00 0.99624691E+03</pdfrwt>
<pdfrwt beam="2">  1       -2 0.20833986E+00 0.99624691E+03</pdfrwt>
<totfact> 0.34682136E+00</totfact>
</mgrwt>
</event>
<event>
 4    1  0.1726795E-008  0.6320125E+03  0.7818608E-02  0.9841129E-01
         -2   -1    0    0    0  501 -0.00000000000E+00  0.00000000000E+00  0.54260933022E+03  0.54260933022E+03  0.25500000000E-02 0.  1.
          2   -1    0    0  501    0  0.00000000000E+00 -0.00000000000E+00 -0.92140968157E+03  0.92140968157E+03  0.25500000000E-02 0. -1.
    8880022    1    1    2    0    0  0.19707298619E+03  0.58069816186E+03  0.13883513767E+03  0.64708188472E+03  0.15294330000E+03 0.  0.
    8880022    1    1    2    0    0 -0.19707298619E+03 -0.58069816186E+03 -0.51763548903E+03  0.81693712707E+03  0.15294330000E+03 0.  0.
<mgrwt>
<rscale>  0 0.63201248E+03</rscale>
<asrwt>0</asrwt>
<pdfrwt beam="1">  1        2 0.14175534E+00 0.63201248E+03</pdfrwt>
<pdfrwt beam="2">  1       -2 0.83478359E-01 0.63201248E+03</pdfrwt>
<totfact> 0.36568007E+01</totfact>
</mgrwt>
</event>
<event>
 4    1  0.1726795E-008  0.3749123E+03  0.7818608E-02  0.1052830E+00
          2   -1    0    0  501    0  0.00000000000E+00  0.00000000000E+00  0.13059398494E+04  0.13059398494E+04  0.25500000000E-02 0. -1.
         -2   -1    0    0    0  501 -0.00000000000E+00 -0.00000000000E+00 -0.29460194683E+03  0.29460194684E+03  0.25500000000E-02 0.  1.
    8880022    1    1    2    0    0 -0.32633268420E+03  0.10331786704E+03 -0.13186981620E+03  0.39742785996E+03  0.15294330000E+03 0.  0.
    8880022    1    1    2    0    0  0.32633268420E+03 -0.10331786704E+03  0.11432077188E+04  0.12031139363E+04  0.15294330000E+03 0.  0.
<mgrwt>
<rscale>  0 0.37491233E+03</rscale>
<asrwt>0</asrwt>
<pdfrwt beam="1">  1        2 0.20091382E+00 0.37491233E+03</pdfrwt>
<pdfrwt beam="2">  1       -2 0.45323377E-01 0.37491233E+03</pdfrwt>
<totfact> 0.80689765E+01</totfact>
</mgrwt>
</event>
<event>
 4    1  0.1726795E-008  0.1690897E+04  0.7818608E-02  0.8766573E-01
          2   -1    0    0  501    0  0.00000000000E+00  0.00000000000E+00  0.40733902135E+04  0.40733902135E+04  0.25500000000E-02 0. -1.
         -2   -1    0    0    0  501 -0.00000000000E+00 -0.00000000000E+00 -0.97510248980E+03  0.97510248981E+03  0.25500000000E-02 0.  1.
    8880022    1    1    2    0    0  0.26454793246E+03 -0.16630557960E+04  0.21302475492E+03  0.17042627111E+04  0.15294330000E+03 0.  0.
    8880022    1    1    2    0    0 -0.26454793246E+03  0.16630557960E+04  0.28852629688E+04  0.33442299923E+04  0.15294330000E+03 0.  0.
<mgrwt>
<rscale>  0 0.16908968E+04</rscale>
<asrwt>0</asrwt>
<pdfrwt beam="1">  1        2 0.62667541E+00 0.16908968E+04</pdfrwt>
<pdfrwt beam="2">  1       -2 0.15001577E+00 0.16908968E+04</pdfrwt>
<totfact> 0.83712476E-02</totfact>
</mgrwt>
</event>
<event>
 4    1  0.1726795E-008  0.8008298E+03  0.7818608E-02  0.9558817E-01
         -2   -1    0    0    0  501 -0.00000000000E+00  0.00000000000E+00  0.32696860051E+03  0.32696860052E+03  0.25500000000E-02 0.  1.
          2   -1    0    0  501    0  0.00000000000E+00 -0.00000000000E+00 -0.27968787668E+04  0.27968787668E+04  0.25500000000E-02 0. -1.
    8880022    1    1    2    0    0  0.31451469183E+03  0.72042846428E+03 -0.38130266183E+03  0.88697239892E+03  0.15294330000E+03 0.  0.
    8880022    1    1    2    0    0 -0.31451469183E+03 -0.72042846428E+03 -0.20886075045E+04  0.22368749684E+04  0.15294330000E+03 0.  0.
<mgrwt>
<rscale>  0 0.80082977E+03</rscale>
<asrwt>0</asrwt>
<pdfrwt beam="1">  1        2 0.43028903E+00 0.80082977E+03</pdfrwt>
<pdfrwt beam="2">  1       -2 0.50302863E-01 0.80082977E+03</pdfrwt>
<totfact> 0.91010405E+00</totfact>
</mgrwt>
</event>
<event>
 4    1  0.1726795E-008  0.8963748E+03  0.7818608E-02  0.9430125E-01
         -2   -1    0    0    0  501 -0.00000000000E+00  0.00000000000E+00  0.67541650855E+03  0.67541650856E+03  0.25500000000E-02 0.  1.
          2   -1    0    0  501    0  0.00000000000E+00 -0.00000000000E+00 -0.18386257063E+04  0.18386257063E+04  0.25500000000E-02 0. -1.
    8880022    1    1    2    0    0 -0.30302590643E+03  0.82962122773E+03 -0.13284329296E+04  0.16025672475E+04  0.15294330000E+03 0.  0.
    8880022    1    1    2    0    0  0.30302590643E+03 -0.82962122773E+03  0.16522373184E+03  0.91147496731E+03  0.15294330000E+03 0.  0.
<mgrwt>
<rscale>  0 0.89637477E+03</rscale>
<asrwt>0</asrwt>
<pdfrwt beam="1">  1        2 0.28286549E+00 0.89637477E+03</pdfrwt>
<pdfrwt beam="2">  1       -2 0.10391023E+00 0.89637477E+03</pdfrwt>
<totfact> 0.62578804E+00</totfact>
</mgrwt>
</event>
<event>
 4    1  0.1726795E-008  0.2989567E+03  0.7818608E-02  0.1085763E+00
          2   -1    0    0  501    0  0.00000000000E+00  0.00000000000E+00  0.19864777156E+04  0.19864777156E+04  0.25500000000E-02 0. -1.
         -2   -1    0    0    0  501 -0.00000000000E+00 -0.00000000000E+00 -0.78671196059E+02  0.78671196100E+02  0.25500000000E-02 0.  1.
    8880022    1    1    2    0    0 -0.17068338932E+03  0.19196514869E+03  0.16295131978E+04  0.16567100991E+04  0.15294330000E+03 0. -1.
    8880022    1    1    2    0    0  0.17068338932E+03 -0.19196514869E+03  0.27829332181E+03  0.40843881265E+03  0.15294330000E+03 0.  0.
<mgrwt>
<rscale>  0 0.29895667E+03</rscale>
<asrwt>0</asrwt>
<pdfrwt beam="1">  1        2 0.30561197E+00 0.29895667E+03</pdfrwt>
<pdfrwt beam="2">  1       -2 0.12103260E-01 0.29895667E+03</pdfrwt>
<totfact> 0.36735262E+02</totfact>
</mgrwt>
</event>
<event>
 4    1  0.1726795E-008  0.1047990E+04  0.7818608E-02  0.9257422E-01
         -2   -1    0    0    0  501 -0.00000000000E+00  0.00000000000E+00  0.70315353915E+03  0.70315353915E+03  0.25500000000E-02 0.  1.
          2   -1    0    0  501    0  0.00000000000E+00 -0.00000000000E+00 -0.33406959635E+04  0.33406959635E+04  0.25500000000E-02 0. -1.
    8880022    1    1    2    0    0 -0.32710676528E+02 -0.10362533422E+04  0.15661211787E+03  0.10596272863E+04  0.15294330000E+03 0.  0.
    8880022    1    1    2    0    0  0.32710676528E+02  0.10362533422E+04 -0.27941545423E+04  0.29842222164E+04  0.15294330000E+03 0.  0.
<mgrwt>
<rscale>  0 0.10479898E+04</rscale>
<asrwt>0</asrwt>
<pdfrwt beam="1">  1        2 0.51395321E+00 0.10479898E+04</pdfrwt>
<pdfrwt beam="2">  1       -2 0.10817747E+00 0.10479898E+04</pdfrwt>
<totfact> 0.72958101E-01</totfact>
</mgrwt>
</event>
<event>
 4    1  0.1726795E-008  0.5660706E+03  0.7818608E-02  0.9978412E-01
         -2   -1    0    0    0  501 -0.00000000000E+00  0.00000000000E+00  0.23372293774E+03  0.23372293775E+03  0.25500000000E-02 0.  1.
          2   -1    0    0  501    0  0.00000000000E+00 -0.00000000000E+00 -0.33218506786E+04  0.33218506786E+04  0.25500000000E-02 0. -1.
    8880022    1    1    2    0    0  0.16192368144E+03 -0.52040853752E+03 -0.29064517430E+04  0.29610636116E+04  0.15294330000E+03 0.  0.
    8880022    1    1    2    0    0 -0.16192368144E+03  0.52040853752E+03 -0.18167599785E+03  0.59451000475E+03  0.15294330000E+03 0.  0.
<mgrwt>
<rscale>  0 0.56607065E+03</rscale>
<asrwt>0</asrwt>
<pdfrwt beam="1">  1        2 0.51105392E+00 0.56607065E+03</pdfrwt>
<pdfrwt beam="2">  1       -2 0.35957377E-01 0.56607065E+03</pdfrwt>
<totfact> 0.87669575E+00</totfact>
</mgrwt>
</event>
<event>
 4    1  0.1726795E-008  0.1195961E+04  0.7818608E-02  0.9116399E-01
         -2   -1    0    0    0  501 -0.00000000000E+00  0.00000000000E+00  0.18303890407E+04  0.18303890407E+04  0.25500000000E-02 0.  1.
          2   -1    0    0  501    0  0.00000000000E+00 -0.00000000000E+00 -0.90995599980E+03  0.90995599980E+03  0.25500000000E-02 0. -1.
    8880022    1    1    2    0    0 -0.97850737849E+03  0.67041351161E+03  0.97515929976E+03  0.15431326188E+04  0.15294330000E+03 0.  0.
    8880022    1    1    2    0    0  0.97850737849E+03 -0.67041351161E+03 -0.54726258833E+02  0.11972124217E+04  0.15294330000E+03 0.  0.
<mgrwt>
<rscale>  0 0.11959610E+04</rscale>
<asrwt>0</asrwt>
<pdfrwt beam="1">  1        2 0.13999323E+00 0.11959610E+04</pdfrwt>
<pdfrwt beam="2">  1       -2 0.28159831E+00 0.11959610E+04</pdfrwt>
<totfact> 0.11626375E+00</totfact>
</mgrwt>
</event>
<event>
 4    1  0.1726795E-008  0.6333692E+03  0.7818608E-02  0.9838496E-01
          2   -1    0    0  501    0  0.00000000000E+00  0.00000000000E+00  0.12442938560E+04  0.12442938560E+04  0.25500000000E-02 0. -1.
         -2   -1    0    0    0  501 -0.00000000000E+00 -0.00000000000E+00 -0.81195885047E+03  0.81195885048E+03  0.25500000000E-02 0.  1.
    8880022    1    1    2    0    0 -0.61461745906E+03 -0.31995206781E+01  0.10144990641E+04  0.11959786210E+04  0.15294330000E+03 0. -1.
    8880022    1    1    2    0    0  0.61461745906E+03  0.31995206781E+01 -0.58216405859E+03  0.86027408542E+03  0.15294330000E+03 0.  0.
<mgrwt>
<rscale>  0 0.63336917E+03</rscale>
<asrwt>0</asrwt>
<pdfrwt beam="1">  1        2 0.19142982E+00 0.63336917E+03</pdfrwt>
<pdfrwt beam="2">  1       -2 0.12491675E+00 0.63336917E+03</pdfrwt>
<totfact> 0.88844750E+00</totfact>
</mgrwt>
</event>
<event>
 4    1  0.1726795E-008  0.1107097E+04  0.7818608E-02  0.9198302E-01
          2   -1    0    0  501    0  0.00000000000E+00  0.00000000000E+00  0.29316347122E+04  0.29316347122E+04  0.25500000000E-02 0. -1.
         -2   -1    0    0    0  501 -0.00000000000E+00 -0.00000000000E+00 -0.15220199568E+04  0.15220199568E+04  0.25500000000E-02 0.  1.
    8880022    1    1    2    0    0 -0.45461257933E+03  0.99779732927E+03  0.26012892656E+04  0.28270779267E+04  0.15294330000E+03 0.  0.
    8880022    1    1    2    0    0  0.45461257933E+03 -0.99779732927E+03 -0.11916745101E+04  0.16265767423E+04  0.15294330000E+03 0.  0.
<mgrwt>
<rscale>  0 0.11070970E+04</rscale>
<asrwt>0</asrwt>
<pdfrwt beam="1">  1        2 0.45102072E+00 0.11070970E+04</pdfrwt>
<pdfrwt beam="2">  1       -2 0.23415692E+00 0.11070970E+04</pdfrwt>
<totfact> 0.15443406E-01</totfact>
</mgrwt>
</event>
<event>
 4    1  0.1726795E-008  0.4853355E+03  0.7818608E-02  0.1017679E+00
         -2   -1    0    0    0  501 -0.00000000000E+00  0.00000000000E+00  0.13674176275E+04  0.13674176275E+04  0.25500000000E-02 0.  1.
          2   -1    0    0  501    0  0.00000000000E+00 -0.00000000000E+00 -0.61334983817E+03  0.61334983817E+03  0.25500000000E-02 0. -1.
    8880022    1    1    2    0    0  0.44580309629E+03 -0.11583834015E+03  0.12169060442E+04  0.13101186568E+04  0.15294330000E+03 0.  0.
    8880022    1    1    2    0    0 -0.44580309629E+03  0.11583834015E+03 -0.46283825479E+03  0.67064880886E+03  0.15294330000E+03 0.  0.
<mgrwt>
<rscale>  0 0.48533553E+03</rscale>
<asrwt>0</asrwt>
<pdfrwt beam="1">  1        2 0.94361515E-01 0.48533553E+03</pdfrwt>
<pdfrwt beam="2">  1       -2 0.21037194E+00 0.48533553E+03</pdfrwt>
<totfact> 0.58548819E+00</totfact>
</mgrwt>
</event>
<event>
 4    1  0.1726795E-008  0.1001571E+04  0.7818608E-02  0.9306823E-01
          2   -1    0    0  501    0  0.00000000000E+00  0.00000000000E+00  0.33537794821E+04  0.33537794821E+04  0.25500000000E-02 0. -1.
         -2   -1    0    0    0  501 -0.00000000000E+00 -0.00000000000E+00 -0.36833843303E+03  0.36833843304E+03  0.25500000000E-02 0.  1.
    8880022    1    1    2    0    0  0.72697657881E+00  0.98982431212E+03  0.22995526741E+04  0.25082039094E+04  0.15294330000E+03 0.  0.
    8880022    1    1    2    0    0 -0.72697657881E+00 -0.98982431212E+03  0.68588837502E+03  0.12139140057E+04  0.15294330000E+03 0.  0.
<mgrwt>
<rscale>  0 0.10015709E+04</rscale>
<asrwt>0</asrwt>
<pdfrwt beam="1">  1        2 0.51596606E+00 0.10015709E+04</pdfrwt>
<pdfrwt beam="2">  1       -2 0.56667453E-01 0.10015709E+04</pdfrwt>
<totfact> 0.30903530E+00</totfact>
</mgrwt>
</event>
<event>
 4    1  0.1726795E-008  0.1272044E+04  0.7818608E-02  0.9052033E-01
         -2   -1    0    0    0  501 -0.00000000000E+00  0.00000000000E+00  0.13644344248E+04  0.13644344248E+04  0.25500000000E-02 0.  1.
          2   -1    0    0  501    0  0.00000000000E+00 -0.00000000000E+00 -0.20487041224E+04  0.20487041224E+04  0.25500000000E-02 0. -1.
    8880022    1    1    2    0    0  0.10704635878E+04 -0.66993366339E+03 -0.14496205887E+04  0.19285992094E+04  0.15294330000E+03 0.  0.
    8880022    1    1    2    0    0 -0.10704635878E+04  0.66993366339E+03  0.76535089109E+03  0.14845393379E+04  0.15294330000E+03 0.  0.
<mgrwt>
<rscale>  0 0.12720437E+04</rscale>
<asrwt>0</asrwt>
<pdfrwt beam="1">  1        2 0.31518525E+00 0.12720437E+04</pdfrwt>
<pdfrwt beam="2">  1       -2 0.20991299E+00 0.12720437E+04</pdfrwt>
<totfact> 0.69294790E-01</totfact>
</mgrwt>
</event>
<event>
 4    1  0.1726795E-008  0.1536720E+04  0.7818608E-02  0.8860395E-01
         -2   -1    0    0    0  501 -0.00000000000E+00  0.00000000000E+00  0.31492929499E+04  0.31492929499E+04  0.25500000000E-02 0.  1.
          2   -1    0    0  501    0  0.00000000000E+00 -0.00000000000E+00 -0.13203357913E+04  0.13203357913E+04  0.25500000000E-02 0. -1.
    8880022    1    1    2    0    0  0.10087146940E+04  0.11491789048E+04 -0.55451617284E+03  0.16337066224E+04  0.15294330000E+03 0.  0.
    8880022    1    1    2    0    0 -0.10087146940E+04 -0.11491789048E+04  0.23834733315E+04  0.28359221188E+04  0.15294330000E+03 0.  0.
<mgrwt>
<rscale>  0 0.15367203E+04</rscale>
<asrwt>0</asrwt>
<pdfrwt beam="1">  1        2 0.20312859E+00 0.15367203E+04</pdfrwt>
<pdfrwt beam="2">  1       -2 0.48450660E+00 0.15367203E+04</pdfrwt>
<totfact> 0.31044314E-02</totfact>
</mgrwt>
</event>
<event>
 4    1  0.1726795E-008  0.1409378E+04  0.7818608E-02  0.8947058E-01
         -2   -1    0    0    0  501 -0.00000000000E+00  0.00000000000E+00  0.96816998255E+03  0.96816998255E+03  0.25500000000E-02 0.  1.
          2   -1    0    0  501    0  0.00000000000E+00 -0.00000000000E+00 -0.30590090550E+04  0.30590090550E+04  0.25500000000E-02 0. -1.
    8880022    1    1    2    0    0  0.70485501223E+03 -0.12108405122E+04 -0.22009262571E+04  0.26135078680E+04  0.15294330000E+03 0. -1.
    8880022    1    1    2    0    0 -0.70485501223E+03  0.12108405122E+04  0.11008718464E+03  0.14136711695E+04  0.15294330000E+03 0.  0.
<mgrwt>
<rscale>  0 0.14093782E+04</rscale>
<asrwt>0</asrwt>
<pdfrwt beam="1">  1        2 0.47061677E+00 0.14093782E+04</pdfrwt>
<pdfrwt beam="2">  1       -2 0.14894923E+00 0.14093782E+04</pdfrwt>
<totfact> 0.46772138E-01</totfact>
</mgrwt>
</event>
<event>
 4    1  0.1726795E-008  0.1383002E+04  0.7818608E-02  0.8966215E-01
         -2   -1    0    0    0  501 -0.00000000000E+00  0.00000000000E+00  0.10066422781E+04  0.10066422781E+04  0.25500000000E-02 0.  1.
          2   -1    0    0  501    0  0.00000000000E+00 -0.00000000000E+00 -0.21851646506E+04  0.21851646506E+04  0.25500000000E-02 0. -1.
    8880022    1    1    2    0    0  0.79593811332E+03 -0.11206179941E+04 -0.12817645790E+02  0.13830611389E+04  0.15294330000E+03 0.  0.
    8880022    1    1    2    0    0 -0.79593811332E+03  0.11206179941E+04 -0.11657047267E+04  0.18087457897E+04  0.15294330000E+03 0.  0.
<mgrwt>
<rscale>  0 0.13830017E+04</rscale>
<asrwt>0</asrwt>
<pdfrwt beam="1">  1        2 0.33617917E+00 0.13830017E+04</pdfrwt>
<pdfrwt beam="2">  1       -2 0.15486804E+00 0.13830017E+04</pdfrwt>
<totfact> 0.13827955E+00</totfact>
</mgrwt>
</event>
<event>
 4    1  0.1726795E-008  0.5640211E+03  0.7818608E-02  0.9982997E-01
          2   -1    0    0  501    0  0.00000000000E+00  0.00000000000E+00  0.85311576264E+03  0.85311576264E+03  0.25500000000E-02 0. -1.
         -2   -1    0    0    0  501 -0.00000000000E+00 -0.00000000000E+00 -0.76572199523E+03  0.76572199523E+03  0.25500000000E-02 0.  1.
    8880022    1    1    2    0    0  0.21759943845E+03 -0.49737178010E+03 -0.53605238615E+03  0.77812082414E+03  0.15294330000E+03 0.  0.
    8880022    1    1    2    0    0 -0.21759943845E+03  0.49737178010E+03  0.62344615356E+03  0.84071693373E+03  0.15294330000E+03 0.  0.
<mgrwt>
<rscale>  0 0.56402115E+03</rscale>
<asrwt>0</asrwt>
<pdfrwt beam="1">  1        2 0.13124858E+00 0.56402115E+03</pdfrwt>
<pdfrwt beam="2">  1       -2 0.11780338E+00 0.56402115E+03</pdfrwt>
<totfact> 0.18212511E+01</totfact>
</mgrwt>
</event>
<event>
 4    1  0.1726795E-008  0.3882931E+03  0.7818608E-02  0.1047910E+00
         -2   -1    0    0    0  501 -0.00000000000E+00  0.00000000000E+00  0.27524217564E+04  0.27524217564E+04  0.25500000000E-02 0.  1.
          2   -1    0    0  501    0  0.00000000000E+00 -0.00000000000E+00 -0.23168925398E+03  0.23168925399E+03  0.25500000000E-02 0. -1.
    8880022    1    1    2    0    0 -0.35431940749E+03 -0.42868055494E+02 -0.43430903126E+02  0.39071448536E+03  0.15294330000E+03 0.  0.
    8880022    1    1    2    0    0  0.35431940749E+03  0.42868055494E+02  0.25641634056E+04  0.25933965250E+04  0.15294330000E+03 0.  0.
<mgrwt>
<rscale>  0 0.38829314E+03</rscale>
<asrwt>0</asrwt>
<pdfrwt beam="1">  1        2 0.35644503E-01 0.38829314E+03</pdfrwt>
<pdfrwt beam="2">  1       -2 0.42344947E+00 0.38829314E+03</pdfrwt>
<totfact> 0.88460643E-01</totfact>
</mgrwt>
</event>
<event>
 4    1  0.1726795E-008  0.5904398E+03  0.7818608E-02  0.9925441E-01
         -2   -1    0    0    0  501 -0.00000000000E+00  0.00000000000E+00  0.13702942821E+03  0.13702942824E+03  0.25500000000E-02 0.  1.
          2   -1    0    0  501    0  0.00000000000E+00 -0.00000000000E+00 -0.34142037266E+04  0.34142037266E+04  0.25500000000E-02 0. -1.
    8880022    1    1    2    0    0 -0.49509527784E+03 -0.28303396417E+03 -0.25349527353E+04  0.26028070582E+04  0.15294330000E+03 0.  0.
    8880022    1    1    2    0    0  0.49509527784E+03  0.28303396417E+03 -0.74222156301E+03  0.94842609656E+03  0.15294330000E+03 0.  0.
<mgrwt>
<rscale>  0 0.59043985E+03</rscale>
<asrwt>0</asrwt>
<pdfrwt beam="1">  1        2 0.52526205E+00 0.59043985E+03</pdfrwt>
<pdfrwt beam="2">  1       -2 0.21081453E-01 0.59043985E+03</pdfrwt>
<totfact> 0.20088351E+01</totfact>
</mgrwt>
</event>
<event>
 4    1  0.1726795E-008  0.8496048E+03  0.7818608E-02  0.9490868E-01
          2   -1    0    0  501    0  0.00000000000E+00  0.00000000000E+00  0.96144079017E+03  0.96144079017E+03  0.25500000000E-02 0. -1.
         -2   -1    0    0    0  501 -0.00000000000E+00 -0.00000000000E+00 -0.10701805010E+04  0.10701805010E+04  0.25500000000E-02 0.  1.
    8880022    1    1    2    0    0  0.21082577096E+03 -0.80869596374E+03 -0.60931951883E+03  0.10455135564E+04  0.15294330000E+03 0.  0.
    8880022    1    1    2    0    0 -0.21082577096E+03  0.80869596374E+03  0.50057980801E+03  0.98610773482E+03  0.15294330000E+03 0.  0.
<mgrwt>
<rscale>  0 0.84960480E+03</rscale>
<asrwt>0</asrwt>
<pdfrwt beam="1">  1        2 0.14791397E+00 0.84960480E+03</pdfrwt>
<pdfrwt beam="2">  1       -2 0.16464315E+00 0.84960480E+03</pdfrwt>
<totfact> 0.62578077E+00</totfact>
</mgrwt>
</event>
<event>
 4    1  0.1726795E-008  0.7741989E+03  0.7818608E-02  0.9598133E-01
         -2   -1    0    0    0  501 -0.00000000000E+00  0.00000000000E+00  0.68470166787E+03  0.68470166788E+03  0.25500000000E-02 0.  1.
          2   -1    0    0  501    0  0.00000000000E+00 -0.00000000000E+00 -0.15227836628E+04  0.15227836628E+04  0.25500000000E-02 0. -1.
    8880022    1    1    2    0    0 -0.20092023524E+03  0.73186296049E+03 -0.11387078197E+04  0.13769674962E+04  0.15294330000E+03 0.  0.
    8880022    1    1    2    0    0  0.20092023524E+03 -0.73186296049E+03  0.30062582479E+03  0.83051783449E+03  0.15294330000E+03 0.  0.
<mgrwt>
<rscale>  0 0.77419893E+03</rscale>
<asrwt>0</asrwt>
<pdfrwt beam="1">  1        2 0.23427441E+00 0.77419893E+03</pdfrwt>
<pdfrwt beam="2">  1       -2 0.10533872E+00 0.77419893E+03</pdfrwt>
<totfact> 0.91850932E+00</totfact>
</mgrwt>
</event>
<event>
 4    1  0.1726795E-008  0.6024933E+03  0.7818608E-02  0.9900247E-01
          2   -1    0    0  501    0  0.00000000000E+00  0.00000000000E+00  0.13917300894E+04  0.13917300894E+04  0.25500000000E-02 0. -1.
         -2   -1    0    0    0  501 -0.00000000000E+00 -0.00000000000E+00 -0.54296178104E+03  0.54296178105E+03  0.25500000000E-02 0.  1.
    8880022    1    1    2    0    0 -0.17282264796E+03 -0.55654188252E+03 -0.27292751148E+03  0.66142846491E+03  0.15294330000E+03 0.  0.
    8880022    1    1    2    0    0  0.17282264796E+03  0.55654188252E+03  0.11216958198E+04  0.12732634055E+04  0.15294330000E+03 0.  0.
<mgrwt>
<rscale>  0 0.60249331E+03</rscale>
<asrwt>0</asrwt>
<pdfrwt beam="1">  1        2 0.21411232E+00 0.60249331E+03</pdfrwt>
<pdfrwt beam="2">  1       -2 0.83532581E-01 0.60249331E+03</pdfrwt>
<totfact> 0.19119532E+01</totfact>
</mgrwt>
</event>
<event>
 4    1  0.1726795E-008  0.7807696E+03  0.7818608E-02  0.9588277E-01
          2   -1    0    0  501    0  0.00000000000E+00  0.00000000000E+00  0.18702123590E+04  0.18702123590E+04  0.25500000000E-02 0. -1.
         -2   -1    0    0    0  501 -0.00000000000E+00 -0.00000000000E+00 -0.97729803619E+03  0.97729803619E+03  0.25500000000E-02 0.  1.
    8880022    1    1    2    0    0  0.67294878598E+03 -0.36517050663E+03 -0.71586731341E+03  0.10592767490E+04  0.15294330000E+03 0.  0.
    8880022    1    1    2    0    0 -0.67294878598E+03  0.36517050663E+03  0.16087816362E+04  0.17882336462E+04  0.15294330000E+03 0.  0.
<mgrwt>
<rscale>  0 0.78076963E+03</rscale>
<asrwt>0</asrwt>
<pdfrwt beam="1">  1        2 0.28772497E+00 0.78076963E+03</pdfrwt>
<pdfrwt beam="2">  1       -2 0.15035355E+00 0.78076963E+03</pdfrwt>
<totfact> 0.24174263E+00</totfact>
</mgrwt>
</event>
<event>
 4    1  0.1726795E-008  0.1185920E+04  0.7818608E-02  0.9125271E-01
          2   -1    0    0  501    0  0.00000000000E+00  0.00000000000E+00  0.16418883187E+04  0.16418883187E+04  0.25500000000E-02 0. -1.
         -2   -1    0    0    0  501 -0.00000000000E+00 -0.00000000000E+00 -0.98125462961E+03  0.98125462961E+03  0.25500000000E-02 0.  1.
    8880022    1    1    2    0    0 -0.10133072427E+04 -0.59684421508E+03  0.79782883472E+03  0.14293135023E+04  0.15294330000E+03 0.  0.
    8880022    1    1    2    0    0  0.10133072427E+04  0.59684421508E+03 -0.13719514565E+03  0.11938294460E+04  0.15294330000E+03 0.  0.
<mgrwt>
<rscale>  0 0.11859200E+04</rscale>
<asrwt>0</asrwt>
<pdfrwt beam="1">  1        2 0.25259820E+00 0.11859200E+04</pdfrwt>
<pdfrwt beam="2">  1       -2 0.15096225E+00 0.11859200E+04</pdfrwt>
<totfact> 0.30297327E+00</totfact>
</mgrwt>
</event>
<event>
 4    1  0.1726795E-008  0.1021898E+04  0.7818608E-02  0.9284848E-01
         -2   -1    0    0    0  501 -0.00000000000E+00  0.00000000000E+00  0.82716887989E+03  0.82716887989E+03  0.25500000000E-02 0.  1.
          2   -1    0    0  501    0  0.00000000000E+00 -0.00000000000E+00 -0.38170658753E+04  0.38170658753E+04  0.25500000000E-02 0. -1.
    8880022    1    1    2    0    0 -0.13025528210E+03  0.10019569231E+04 -0.33946285284E+04  0.35451062909E+04  0.15294330000E+03 0.  0.
    8880022    1    1    2    0    0  0.13025528210E+03 -0.10019569231E+04  0.40473153301E+03  0.10991284644E+04  0.15294330000E+03 0.  0.
<mgrwt>
<rscale>  0 0.10218981E+04</rscale>
<asrwt>0</asrwt>
<pdfrwt beam="1">  1        2 0.58724089E+00 0.10218981E+04</pdfrwt>
<pdfrwt beam="2">  1       -2 0.12725675E+00 0.10218981E+04</pdfrwt>
<totfact> 0.22668724E-01</totfact>
</mgrwt>
</event>
<event>
 4    1  0.1726795E-008  0.1847261E+04  0.7818608E-02  0.8681563E-01
          2   -1    0    0  501    0  0.00000000000E+00  0.00000000000E+00  0.50836270703E+04  0.50836270703E+04  0.25500000000E-02 0. -1.
         -2   -1    0    0    0  501 -0.00000000000E+00 -0.00000000000E+00 -0.95750160354E+03  0.95750160354E+03  0.25500000000E-02 0.  1.
    8880022    1    1    2    0    0 -0.78256392493E+03 -0.16663054656E+04  0.37146221865E+04  0.41485888978E+04  0.15294330000E+03 0.  0.
    8880022    1    1    2    0    0  0.78256392493E+03  0.16663054656E+04  0.41150328027E+03  0.18925397761E+04  0.15294330000E+03 0.  0.
<mgrwt>
<rscale>  0 0.18472606E+04</rscale>
<asrwt>0</asrwt>
<pdfrwt beam="1">  1        2 0.78209647E+00 0.18472606E+04</pdfrwt>
<pdfrwt beam="2">  1       -2 0.14730794E+00 0.18472606E+04</pdfrwt>
<totfact> 0.78687762E-03</totfact>
</mgrwt>
</event>
<event>
 4    1  0.1726795E-008  0.1104589E+04  0.7818608E-02  0.9200730E-01
         -2   -1    0    0    0  501 -0.00000000000E+00  0.00000000000E+00  0.16657793802E+04  0.16657793802E+04  0.25500000000E-02 0.  1.
          2   -1    0    0  501    0  0.00000000000E+00 -0.00000000000E+00 -0.17605097629E+04  0.17605097629E+04  0.25500000000E-02 0. -1.
    8880022    1    1    2    0    0  0.10115887093E+04  0.41643030537E+03 -0.13564921376E+04  0.17493394434E+04  0.15294330000E+03 0.  0.
    8880022    1    1    2    0    0 -0.10115887093E+04 -0.41643030537E+03  0.12617617549E+04  0.16769496997E+04  0.15294330000E+03 0.  0.
<mgrwt>
<rscale>  0 0.11045893E+04</rscale>
<asrwt>0</asrwt>
<pdfrwt beam="1">  1        2 0.27084766E+00 0.11045893E+04</pdfrwt>
<pdfrwt beam="2">  1       -2 0.25627375E+00 0.11045893E+04</pdfrwt>
<totfact> 0.52587000E-01</totfact>
</mgrwt>
</event>
<event>
 4    1  0.1726795E-008  0.4295489E+03  0.7818608E-02  0.1034003E+00
         -2   -1    0    0    0  501 -0.00000000000E+00  0.00000000000E+00  0.11402968732E+04  0.11402968732E+04  0.25500000000E-02 0.  1.
          2   -1    0    0  501    0  0.00000000000E+00 -0.00000000000E+00 -0.21199990836E+04  0.21199990836E+04  0.25500000000E-02 0. -1.
    8880022    1    1    2    0    0 -0.10194135176E+03 -0.38823778043E+03  0.10768509931E+04  0.11593620348E+04  0.15294330000E+03 0.  1.
    8880022    1    1    2    0    0  0.10194135176E+03  0.38823778043E+03 -0.20565532035E+04  0.21009339221E+04  0.15294330000E+03 0.  0.
<mgrwt>
<rscale>  0 0.42954891E+03</rscale>
<asrwt>0</asrwt>
<pdfrwt beam="1">  1        2 0.32615370E+00 0.42954891E+03</pdfrwt>
<pdfrwt beam="2">  1       -2 0.17543029E+00 0.42954891E+03</pdfrwt>
<totfact> 0.12708781E+00</totfact>
</mgrwt>
</event>
<event>
 4    1  0.1726795E-008  0.7473954E+03  0.7818608E-02  0.9639445E-01
         -2   -1    0    0    0  501 -0.00000000000E+00  0.00000000000E+00  0.44325996299E+03  0.44325996300E+03  0.25500000000E-02 0.  1.
          2   -1    0    0  501    0  0.00000000000E+00 -0.00000000000E+00 -0.15137060660E+04  0.15137060660E+04  0.25500000000E-02 0. -1.
    8880022    1    1    2    0    0  0.72738170366E+03 -0.78256663470E+02 -0.93564654582E+03  0.11975117369E+04  0.15294330000E+03 0.  0.
    8880022    1    1    2    0    0 -0.72738170366E+03  0.78256663470E+02 -0.13479955717E+03  0.75945429212E+03  0.15294330000E+03 0.  0.
<mgrwt>
<rscale>  0 0.74739541E+03</rscale>
<asrwt>0</asrwt>
<pdfrwt beam="1">  1        2 0.23287785E+00 0.74739541E+03</pdfrwt>
<pdfrwt beam="2">  1       -2 0.68193841E-01 0.74739541E+03</pdfrwt>
<totfact> 0.25132776E+01</totfact>
</mgrwt>
</event>
<event>
 4    1  0.1726795E-008  0.4264825E+03  0.7818608E-02  0.1034977E+00
         -2   -1    0    0    0  501 -0.00000000000E+00  0.00000000000E+00  0.12415135415E+04  0.12415135415E+04  0.25500000000E-02 0.  1.
          2   -1    0    0  501    0  0.00000000000E+00 -0.00000000000E+00 -0.11536076537E+04  0.11536076537E+04  0.25500000000E-02 0. -1.
    8880022    1    1    2    0    0  0.17072654351E+03 -0.35965004607E+03  0.11628893511E+04  0.12386278716E+04  0.15294330000E+03 0.  0.
    8880022    1    1    2    0    0 -0.17072654351E+03  0.35965004607E+03 -0.10749834633E+04  0.11564933237E+04  0.15294330000E+03 0.  0.
<mgrwt>
<rscale>  0 0.42648255E+03</rscale>
<asrwt>0</asrwt>
<pdfrwt beam="1">  1        2 0.17747810E+00 0.42648255E+03</pdfrwt>
<pdfrwt beam="2">  1       -2 0.19100208E+00 0.42648255E+03</pdfrwt>
<totfact> 0.33752379E+00</totfact>
</mgrwt>
</event>
<event>
 4    1  0.1726795E-008  0.9393359E+03  0.7818608E-02  0.9377703E-01
          2   -1    0    0  501    0  0.00000000000E+00  0.00000000000E+00  0.17650170080E+04  0.17650170081E+04  0.25500000000E-02 0. -1.
         -2   -1    0    0    0  501 -0.00000000000E+00 -0.00000000000E+00 -0.59836569164E+03  0.59836569164E+03  0.25500000000E-02 0.  1.
    8880022    1    1    2    0    0  0.92592884467E+03  0.40199708538E+02  0.10626597579E+04  0.14183080258E+04  0.15294330000E+03 0.  0.
    8880022    1    1    2    0    0 -0.92592884467E+03 -0.40199708538E+02  0.10399155848E+03  0.94507467388E+03  0.15294330000E+03 0.  0.
<mgrwt>
<rscale>  0 0.93933588E+03</rscale>
<asrwt>0</asrwt>
<pdfrwt beam="1">  1        2 0.27154107E+00 0.93933588E+03</pdfrwt>
<pdfrwt beam="2">  1       -2 0.92056262E-01 0.93933588E+03</pdfrwt>
<totfact> 0.90969477E+00</totfact>
</mgrwt>
</event>
<event>
 4    1  0.1726795E-008  0.1360313E+04  0.7818608E-02  0.8983058E-01
          2   -1    0    0  501    0  0.00000000000E+00  0.00000000000E+00  0.21092951418E+04  0.21092951418E+04  0.25500000000E-02 0. -1.
         -2   -1    0    0    0  501 -0.00000000000E+00 -0.00000000000E+00 -0.13089716582E+04  0.13089716582E+04  0.25500000000E-02 0.  1.
    8880022    1    1    2    0    0  0.25429798506E+03 -0.13275515820E+04  0.13816730600E+04  0.19389359880E+04  0.15294330000E+03 0.  0.
    8880022    1    1    2    0    0 -0.25429798506E+03  0.13275515820E+04 -0.58134957641E+03  0.14793308119E+04  0.15294330000E+03 0.  0.
<mgrwt>
<rscale>  0 0.13603133E+04</rscale>
<asrwt>0</asrwt>
<pdfrwt beam="1">  1        2 0.32450695E+00 0.13603133E+04</pdfrwt>
<pdfrwt beam="2">  1       -2 0.20138025E+00 0.13603133E+04</pdfrwt>
<totfact> 0.72101433E-01</totfact>
</mgrwt>
</event>
<event>
 4    1  0.1726795E-008  0.1705892E+04  0.7818608E-02  0.8758011E-01
         -2   -1    0    0    0  501 -0.00000000000E+00  0.00000000000E+00  0.11210673666E+04  0.11210673666E+04  0.25500000000E-02 0.  1.
          2   -1    0    0  501    0  0.00000000000E+00 -0.00000000000E+00 -0.29453425731E+04  0.29453425731E+04  0.25500000000E-02 0. -1.
    8880022    1    1    2    0    0 -0.12706139940E+04 -0.11279254787E+04 -0.16125645676E+04  0.23474309245E+04  0.15294330000E+03 0.  0.
    8880022    1    1    2    0    0  0.12706139940E+04  0.11279254787E+04 -0.21171063886E+03  0.17189790153E+04  0.15294330000E+03 0.  0.
<mgrwt>
<rscale>  0 0.17058920E+04</rscale>
<asrwt>0</asrwt>
<pdfrwt beam="1">  1        2 0.45312962E+00 0.17058920E+04</pdfrwt>
<pdfrwt beam="2">  1       -2 0.17247190E+00 0.17058920E+04</pdfrwt>
<totfact> 0.35609171E-01</totfact>
</mgrwt>
</event>
<event>
 4    1  0.1726795E-008  0.8401216E+03  0.7818608E-02  0.9503692E-01
          2   -1    0    0  501    0  0.00000000000E+00  0.00000000000E+00  0.17117129078E+04  0.17117129078E+04  0.25500000000E-02 0. -1.
         -2   -1    0    0    0  501 -0.00000000000E+00 -0.00000000000E+00 -0.10879092527E+04  0.10879092527E+04  0.25500000000E-02 0.  1.
    8880022    1    1    2    0    0 -0.79904902059E+03 -0.20960288397E+03  0.14149860088E+04  0.16455970844E+04  0.15294330000E+03 0.  0.
    8880022    1    1    2    0    0  0.79904902059E+03  0.20960288397E+03 -0.79118235375E+03  0.11540250761E+04  0.15294330000E+03 0.  0.
<mgrwt>
<rscale>  0 0.84012163E+03</rscale>
<asrwt>0</asrwt>
<pdfrwt beam="1">  1        2 0.26334045E+00 0.84012163E+03</pdfrwt>
<pdfrwt beam="2">  1       -2 0.16737066E+00 0.84012163E+03</pdfrwt>
<totfact> 0.21872233E+00</totfact>
</mgrwt>
</event>
<event>
 4    1  0.1726795E-008  0.1637896E+04  0.7818608E-02  0.8797599E-01
          2   -1    0    0  501    0  0.00000000000E+00  0.00000000000E+00  0.39697951290E+04  0.39697951290E+04  0.25500000000E-02 0. -1.
         -2   -1    0    0    0  501 -0.00000000000E+00 -0.00000000000E+00 -0.13100259272E+04  0.13100259272E+04  0.25500000000E-02 0.  1.
    8880022    1    1    2    0    0 -0.80956962876E+03  0.14155947938E+04 -0.50698585147E+03  0.17145663914E+04  0.15294330000E+03 0.  0.
    8880022    1    1    2    0    0  0.80956962876E+03 -0.14155947938E+04  0.31667550533E+04  0.35652546647E+04  0.15294330000E+03 0.  0.
<mgrwt>
<rscale>  0 0.16378960E+04</rscale>
<asrwt>0</asrwt>
<pdfrwt beam="1">  1        2 0.61073769E+00 0.16378960E+04</pdfrwt>
<pdfrwt beam="2">  1       -2 0.20154246E+00 0.16378960E+04</pdfrwt>
<totfact> 0.44036284E-02</totfact>
</mgrwt>
</event>
<event>
 4    1  0.1726795E-008  0.2651992E+03  0.7818608E-02  0.1104059E+00
          2   -1    0    0  501    0  0.00000000000E+00  0.00000000000E+00  0.94919929195E+03  0.94919929195E+03  0.25500000000E-02 0. -1.
         -2   -1    0    0    0  501 -0.00000000000E+00 -0.00000000000E+00 -0.97666901376E+02  0.97666901409E+02  0.25500000000E-02 0.  1.
    8880022    1    1    2    0    0  0.14151254656E+02 -0.21619131753E+03  0.68291702762E+03  0.73260239108E+03  0.15294330000E+03 0.  1.
    8880022    1    1    2    0    0 -0.14151254656E+02  0.21619131753E+03  0.16861536295E+03  0.31426380228E+03  0.15294330000E+03 0.  0.
<mgrwt>
<rscale>  0 0.26519916E+03</rscale>
<asrwt>0</asrwt>
<pdfrwt beam="1">  1        2 0.14603066E+00 0.26519916E+03</pdfrwt>
<pdfrwt beam="2">  1       -2 0.15025677E-01 0.26519916E+03</pdfrwt>
<totfact> 0.96637121E+02</totfact>
</mgrwt>
</event>
<event>
 4    1  0.1726795E-008  0.1146802E+04  0.7818608E-02  0.9160739E-01
         -2   -1    0    0    0  501 -0.00000000000E+00  0.00000000000E+00  0.79899050240E+03  0.79899050241E+03  0.25500000000E-02 0.  1.
          2   -1    0    0  501    0  0.00000000000E+00 -0.00000000000E+00 -0.28420874686E+04  0.28420874686E+04  0.25500000000E-02 0. -1.
    8880022    1    1    2    0    0 -0.52007990867E+03 -0.10105836479E+04  0.15947671793E+03  0.11578371636E+04  0.15294330000E+03 0.  0.
    8880022    1    1    2    0    0  0.52007990867E+03  0.10105836479E+04 -0.22025736841E+04  0.24832408074E+04  0.15294330000E+03 0.  0.
<mgrwt>
<rscale>  0 0.11468017E+04</rscale>
<asrwt>0</asrwt>
<pdfrwt beam="1">  1        2 0.43724422E+00 0.11468017E+04</pdfrwt>
<pdfrwt beam="2">  1       -2 0.12292162E+00 0.11468017E+04</pdfrwt>
<totfact> 0.10816937E+00</totfact>
</mgrwt>
</event>
<event>
 4    1  0.1726795E-008  0.5343175E+03  0.7818608E-02  0.1005190E+00
          2   -1    0    0  501    0  0.00000000000E+00  0.00000000000E+00  0.11119101802E+04  0.11119101802E+04  0.25500000000E-02 0. -1.
         -2   -1    0    0    0  501 -0.00000000000E+00 -0.00000000000E+00 -0.48796528140E+03  0.48796528140E+03  0.25500000000E-02 0.  1.
    8880022    1    1    2    0    0 -0.50707250670E+03 -0.70576170779E+02 -0.23865727362E+03  0.58519438668E+03  0.15294330000E+03 0.  0.
    8880022    1    1    2    0    0  0.50707250670E+03  0.70576170779E+02  0.86260217245E+03  0.10146810750E+04  0.15294330000E+03 0.  0.
<mgrwt>
<rscale>  0 0.53431749E+03</rscale>
<asrwt>0</asrwt>
<pdfrwt beam="1">  1        2 0.17106310E+00 0.53431749E+03</pdfrwt>
<pdfrwt beam="2">  1       -2 0.75071583E-01 0.53431749E+03</pdfrwt>
<totfact> 0.35601861E+01</totfact>
</mgrwt>
</event>
<event>
 4    1  0.1726795E-008  0.1197716E+04  0.7818608E-02  0.9114858E-01
          2   -1    0    0  501    0  0.00000000000E+00  0.00000000000E+00  0.12569721529E+04  0.12569721529E+04  0.25500000000E-02 0. -1.
         -2   -1    0    0    0  501 -0.00000000000E+00 -0.00000000000E+00 -0.14900030857E+04  0.14900030857E+04  0.25500000000E-02 0.  1.
    8880022    1    1    2    0    0 -0.20791153148E+02  0.11877288291E+04 -0.78100493256E+03  0.14298574759E+04  0.15294330000E+03 0.  0.
    8880022    1    1    2    0    0  0.20791153148E+02 -0.11877288291E+04  0.54797399974E+03  0.13171177628E+04  0.15294330000E+03 0.  0.
<mgrwt>
<rscale>  0 0.11977160E+04</rscale>
<asrwt>0</asrwt>
<pdfrwt beam="1">  1        2 0.19338033E+00 0.11977160E+04</pdfrwt>
<pdfrwt beam="2">  1       -2 0.22923124E+00 0.11977160E+04</pdfrwt>
<totfact> 0.14716768E+00</totfact>
</mgrwt>
</event>
<event>
 4    1  0.1726795E-008  0.5576769E+03  0.7818608E-02  0.9997325E-01
          2   -1    0    0  501    0  0.00000000000E+00  0.00000000000E+00  0.47206233138E+03  0.47206233139E+03  0.25500000000E-02 0. -1.
         -2   -1    0    0    0  501 -0.00000000000E+00 -0.00000000000E+00 -0.24079923673E+04  0.24079923673E+04  0.25500000000E-02 0.  1.
    8880022    1    1    2    0    0 -0.52771695808E+03  0.95533778732E+02  0.25936014690E+03  0.61503758385E+03  0.15294330000E+03 0.  0.
    8880022    1    1    2    0    0  0.52771695808E+03 -0.95533778732E+02 -0.21952901828E+04  0.22650171148E+04  0.15294330000E+03 0.  0.
<mgrwt>
<rscale>  0 0.55767692E+03</rscale>
<asrwt>0</asrwt>
<pdfrwt beam="1">  1        2 0.72624975E-01 0.55767692E+03</pdfrwt>
<pdfrwt beam="2">  1       -2 0.37046036E+00 0.55767692E+03</pdfrwt>
<totfact> 0.83713853E-01</totfact>
</mgrwt>
</event>
<event>
 4    1  0.1726795E-008  0.2200594E+04  0.7818608E-02  0.8518181E-01
         -2   -1    0    0    0  501 -0.00000000000E+00  0.00000000000E+00  0.54193499718E+04  0.54193499718E+04  0.25500000000E-02 0.  1.
          2   -1    0    0  501    0  0.00000000000E+00 -0.00000000000E+00 -0.11413935233E+04  0.11413935233E+04  0.25500000000E-02 0. -1.
    8880022    1    1    2    0    0  0.19053326247E+04  0.10903813207E+04  0.61046557944E+03  0.22836995669E+04  0.15294330000E+03 0.  0.
    8880022    1    1    2    0    0 -0.19053326247E+04 -0.10903813207E+04  0.36674908691E+04  0.42770439282E+04  0.15294330000E+03 0.  0.
<mgrwt>
<rscale>  0 0.22005943E+04</rscale>
<asrwt>0</asrwt>
<pdfrwt beam="1">  1        2 0.17559900E+00 0.22005943E+04</pdfrwt>
<pdfrwt beam="2">  1       -2 0.83374615E+00 0.22005943E+04</pdfrwt>
<totfact> 0.82697606E-04</totfact>
</mgrwt>
</event>
<event>
 4    1  0.1726795E-008  0.8836956E+03  0.7818608E-02  0.9446195E-01
         -2   -1    0    0    0  501 -0.00000000000E+00  0.00000000000E+00  0.54511381009E+03  0.54511381009E+03  0.25500000000E-02 0.  1.
          2   -1    0    0  501    0  0.00000000000E+00 -0.00000000000E+00 -0.32404938756E+04  0.32404938756E+04  0.25500000000E-02 0. -1.
    8880022    1    1    2    0    0 -0.77774299791E+03 -0.39069426995E+03 -0.27614938932E+04  0.28994424220E+04  0.15294330000E+03 0.  0.
    8880022    1    1    2    0    0  0.77774299791E+03  0.39069426995E+03  0.66113827666E+02  0.88616526370E+03  0.15294330000E+03 0.  0.
<mgrwt>
<rscale>  0 0.88369556E+03</rscale>
<asrwt>0</asrwt>
<pdfrwt beam="1">  1        2 0.49853751E+00 0.88369556E+03</pdfrwt>
<pdfrwt beam="2">  1       -2 0.83863665E-01 0.88369556E+03</pdfrwt>
<totfact> 0.15884677E+00</totfact>
</mgrwt>
</event>
<event>
 4    1  0.1726795E-008  0.5815410E+03  0.7818608E-02  0.9944460E-01
         -2   -1    0    0    0  501 -0.00000000000E+00  0.00000000000E+00  0.12717832387E+04  0.12717832387E+04  0.25500000000E-02 0.  1.
          2   -1    0    0  501    0  0.00000000000E+00 -0.00000000000E+00 -0.17729091460E+04  0.17729091460E+04  0.25500000000E-02 0. -1.
    8880022    1    1    2    0    0 -0.17434143586E+03 -0.53329480338E+03 -0.16541053925E+04  0.17533552367E+04  0.15294330000E+03 0.  0.
    8880022    1    1    2    0    0  0.17434143586E+03  0.53329480338E+03  0.11529794852E+04  0.12913371480E+04  0.15294330000E+03 0.  0.
<mgrwt>
<rscale>  0 0.58154100E+03</rscale>
<asrwt>0</asrwt>
<pdfrwt beam="1">  1        2 0.27275525E+00 0.58154100E+03</pdfrwt>
<pdfrwt beam="2">  1       -2 0.19565896E+00 0.58154100E+03</pdfrwt>
<totfact> 0.13664566E+00</totfact>
</mgrwt>
</event>
<event>
 4    1  0.1726795E-008  0.1646282E+03  0.7818608E-02  0.1183568E+00
          2   -1    0    0  501    0  0.00000000000E+00  0.00000000000E+00  0.12639620517E+04  0.12639620518E+04  0.25500000000E-02 0. -1.
         -2   -1    0    0    0  501 -0.00000000000E+00 -0.00000000000E+00 -0.32747604123E+02  0.32747604222E+02  0.25500000000E-02 0.  1.
    8880022    1    1    2    0    0  0.47518859947E+02 -0.38115048871E+02  0.23466326372E+03  0.28665187834E+03  0.15294330000E+03 0.  0.
    8880022    1    1    2    0    0 -0.47518859947E+02  0.38115048871E+02  0.99655118391E+03  0.10100577776E+04  0.15294330000E+03 0. -1.
<mgrwt>
<rscale>  0 0.16462822E+03</rscale>
<asrwt>0</asrwt>
<pdfrwt beam="1">  1        2 0.19445571E+00 0.16462822E+03</pdfrwt>
<pdfrwt beam="2">  1       -2 0.50380926E-02 0.16462822E+03</pdfrwt>
<totfact> 0.35280952E+03</totfact>
</mgrwt>
</event>
<event>
 4    1  0.1726795E-008  0.1556601E+04  0.7818608E-02  0.8847663E-01
          2   -1    0    0  501    0  0.00000000000E+00  0.00000000000E+00  0.23070243912E+04  0.23070243912E+04  0.25500000000E-02 0. -1.
         -2   -1    0    0    0  501 -0.00000000000E+00 -0.00000000000E+00 -0.15396348897E+04  0.15396348897E+04  0.25500000000E-02 0.  1.
    8880022    1    1    2    0    0  0.10930926199E+04 -0.10976166076E+04  0.14680209237E+04  0.21396473491E+04  0.15294330000E+03 0.  0.
    8880022    1    1    2    0    0 -0.10930926199E+04  0.10976166076E+04 -0.70063142215E+03  0.17070119319E+04  0.15294330000E+03 0.  0.
<mgrwt>
<rscale>  0 0.15566006E+04</rscale>
<asrwt>0</asrwt>
<pdfrwt beam="1">  1        2 0.35492683E+00 0.15566006E+04</pdfrwt>
<pdfrwt beam="2">  1       -2 0.23686691E+00 0.15566006E+04</pdfrwt>
<totfact> 0.32420370E-01</totfact>
</mgrwt>
</event>
<event>
 4    1  0.1726795E-008  0.1511150E+04  0.7818608E-02  0.8877072E-01
         -2   -1    0    0    0  501 -0.00000000000E+00  0.00000000000E+00  0.14600437747E+04  0.14600437747E+04  0.25500000000E-02 0.  1.
          2   -1    0    0  501    0  0.00000000000E+00 -0.00000000000E+00 -0.19691383758E+04  0.19691383758E+04  0.25500000000E-02 0. -1.
    8880022    1    1    2    0    0  0.11618868514E+04  0.95404543319E+03  0.52313024489E+03  0.15991374707E+04  0.15294330000E+03 0.  0.
    8880022    1    1    2    0    0 -0.11618868514E+04 -0.95404543319E+03 -0.10322248460E+04  0.18300446797E+04  0.15294330000E+03 0.  0.
<mgrwt>
<rscale>  0 0.15111504E+04</rscale>
<asrwt>0</asrwt>
<pdfrwt beam="1">  1        2 0.30294436E+00 0.15111504E+04</pdfrwt>
<pdfrwt beam="2">  1       -2 0.22462212E+00 0.15111504E+04</pdfrwt>
<totfact> 0.60190646E-01</totfact>
</mgrwt>
</event>
<event>
 4    1  0.1726795E-008  0.5313661E+03  0.7818608E-02  0.1005901E+00
          2   -1    0    0  501    0  0.00000000000E+00  0.00000000000E+00  0.28423614605E+04  0.28423614605E+04  0.25500000000E-02 0. -1.
         -2   -1    0    0    0  501 -0.00000000000E+00 -0.00000000000E+00 -0.15701630935E+03  0.15701630938E+03  0.25500000000E-02 0.  1.
    8880022    1    1    2    0    0  0.41179266976E+03 -0.29897342916E+03  0.22516248036E+04  0.23134744917E+04  0.15294330000E+03 0.  0.
    8880022    1    1    2    0    0 -0.41179266976E+03  0.29897342916E+03  0.43372034752E+03  0.68590327823E+03  0.15294330000E+03 0.  0.
<mgrwt>
<rscale>  0 0.53136613E+03</rscale>
<asrwt>0</asrwt>
<pdfrwt beam="1">  1        2 0.43728633E+00 0.53136613E+03</pdfrwt>
<pdfrwt beam="2">  1       -2 0.24156358E-01 0.53136613E+03</pdfrwt>
<totfact> 0.36345442E+01</totfact>
</mgrwt>
</event>
<event>
 4    1  0.1726795E-008  0.3749847E+03  0.7818608E-02  0.1052803E+00
         -2   -1    0    0    0  501 -0.00000000000E+00  0.00000000000E+00  0.32040601043E+03  0.32040601044E+03  0.25500000000E-02 0.  1.
          2   -1    0    0  501    0  0.00000000000E+00 -0.00000000000E+00 -0.62373563975E+03  0.62373563975E+03  0.25500000000E-02 0. -1.
    8880022    1    1    2    0    0  0.19131827107E+03  0.28393521535E+03 -0.40867252018E+03  0.55464111742E+03  0.15294330000E+03 0.  0.
    8880022    1    1    2    0    0 -0.19131827107E+03 -0.28393521535E+03  0.10534289086E+03  0.38950053278E+03  0.15294330000E+03 0.  0.
<mgrwt>
<rscale>  0 0.37498472E+03</rscale>
<asrwt>0</asrwt>
<pdfrwt beam="1">  1        2 0.95959329E-01 0.37498472E+03</pdfrwt>
<pdfrwt beam="2">  1       -2 0.49293233E-01 0.37498472E+03</pdfrwt>
<totfact> 0.19046137E+02</totfact>
</mgrwt>
</event>
<event>
 4    1  0.1726795E-008  0.1379659E+04  0.7818608E-02  0.8968675E-01
         -2   -1    0    0    0  501 -0.00000000000E+00  0.00000000000E+00  0.10292608279E+04  0.10292608279E+04  0.25500000000E-02 0.  1.
          2   -1    0    0  501    0  0.00000000000E+00 -0.00000000000E+00 -0.24505138655E+04  0.24505138655E+04  0.25500000000E-02 0. -1.
    8880022    1    1    2    0    0  0.13500972564E+04 -0.23938356268E+03  0.15114205938E+03  0.13879130618E+04  0.15294330000E+03 0.  0.
    8880022    1    1    2    0    0 -0.13500972564E+04  0.23938356268E+03 -0.15723950970E+04  0.20918616316E+04  0.15294330000E+03 0.  0.
<mgrwt>
<rscale>  0 0.13796589E+04</rscale>
<asrwt>0</asrwt>
<pdfrwt beam="1">  1        2 0.37700213E+00 0.13796589E+04</pdfrwt>
<pdfrwt beam="2">  1       -2 0.15834782E+00 0.13796589E+04</pdfrwt>
<totfact> 0.92087020E-01</totfact>
</mgrwt>
</event>
<event>
 4    1  0.1726795E-008  0.3674245E+03  0.7818608E-02  0.1055682E+00
          2   -1    0    0  501    0  0.00000000000E+00  0.00000000000E+00  0.20802486533E+04  0.20802486533E+04  0.25500000000E-02 0. -1.
         -2   -1    0    0    0  501 -0.00000000000E+00 -0.00000000000E+00 -0.96938653843E+02  0.96938653876E+02  0.25500000000E-02 0.  1.
    8880022    1    1    2    0    0  0.12541838635E+03  0.30964389731E+03  0.16175168018E+04  0.16587228135E+04  0.15294330000E+03 0.  0.
    8880022    1    1    2    0    0 -0.12541838635E+03 -0.30964389731E+03  0.36579319766E+03  0.51846449372E+03  0.15294330000E+03 0.  0.
<mgrwt>
<rscale>  0 0.36742451E+03</rscale>
<asrwt>0</asrwt>
<pdfrwt beam="1">  1        2 0.32003820E+00 0.36742451E+03</pdfrwt>
<pdfrwt beam="2">  1       -2 0.14913641E-01 0.36742451E+03</pdfrwt>
<totfact> 0.22936244E+02</totfact>
</mgrwt>
</event>
<event>
 4    1  0.1726795E-008  0.5254104E+03  0.7818608E-02  0.1007351E+00
         -2   -1    0    0    0  501 -0.00000000000E+00  0.00000000000E+00  0.26391192664E+03  0.26391192665E+03  0.25500000000E-02 0.  1.
          2   -1    0    0  501    0  0.00000000000E+00 -0.00000000000E+00 -0.16588085056E+04  0.16588085056E+04  0.25500000000E-02 0. -1.
    8880022    1    1    2    0    0 -0.26674918179E+03 -0.42603908396E+03 -0.12817602358E+04  0.13852672602E+04  0.15294330000E+03 0.  0.
    8880022    1    1    2    0    0  0.26674918179E+03  0.42603908396E+03 -0.11313634320E+03  0.53745317211E+03  0.15294330000E+03 0.  0.
<mgrwt>
<rscale>  0 0.52541039E+03</rscale>
<asrwt>0</asrwt>
<pdfrwt beam="1">  1        2 0.25520130E+00 0.52541039E+03</pdfrwt>
<pdfrwt beam="2">  1       -2 0.40601836E-01 0.52541039E+03</pdfrwt>
<totfact> 0.62499785E+01</totfact>
</mgrwt>
</event>
<event>
 4    1  0.1726795E-008  0.8170570E+03  0.7818608E-02  0.9535651E-01
         -2   -1    0    0    0  501 -0.00000000000E+00  0.00000000000E+00  0.86596460974E+03  0.86596460975E+03  0.25500000000E-02 0.  1.
          2   -1    0    0  501    0  0.00000000000E+00 -0.00000000000E+00 -0.17862925222E+04  0.17862925222E+04  0.25500000000E-02 0. -1.
    8880022    1    1    2    0    0  0.47837679123E+03 -0.64447347799E+03 -0.14599886584E+04  0.16730657350E+04  0.15294330000E+03 0.  0.
    8880022    1    1    2    0    0 -0.47837679123E+03  0.64447347799E+03  0.53966074586E+03  0.97919139695E+03  0.15294330000E+03 0.  0.
<mgrwt>
<rscale>  0 0.81705696E+03</rscale>
<asrwt>0</asrwt>
<pdfrwt beam="1">  1        2 0.27481423E+00 0.81705696E+03</pdfrwt>
<pdfrwt beam="2">  1       -2 0.13322532E+00 0.81705696E+03</pdfrwt>
<totfact> 0.36581527E+00</totfact>
</mgrwt>
</event>
<event>
 4    1  0.1726795E-008  0.4240892E+03  0.7818608E-02  0.1035744E+00
          2   -1    0    0  501    0  0.00000000000E+00  0.00000000000E+00  0.11679011809E+04  0.11679011809E+04  0.25500000000E-02 0. -1.
         -2   -1    0    0    0  501 -0.00000000000E+00 -0.00000000000E+00 -0.58469270019E+03  0.58469270020E+03  0.25500000000E-02 0.  1.
    8880022    1    1    2    0    0  0.80314213109E+02  0.38731072703E+03 -0.46049204067E+03  0.62602279882E+03  0.15294330000E+03 0.  0.
    8880022    1    1    2    0    0 -0.80314213109E+02 -0.38731072703E+03  0.10437005214E+04  0.11265710823E+04  0.15294330000E+03 0.  0.
<mgrwt>
<rscale>  0 0.42408917E+03</rscale>
<asrwt>0</asrwt>
<pdfrwt beam="1">  1        2 0.17967710E+00 0.42408917E+03</pdfrwt>
<pdfrwt beam="2">  1       -2 0.89952723E-01 0.42408917E+03</pdfrwt>
<totfact> 0.22369962E+01</totfact>
</mgrwt>
</event>
<event>
 4    1  0.1726795E-008  0.5297496E+03  0.7818608E-02  0.1006293E+00
         -2   -1    0    0    0  501 -0.00000000000E+00  0.00000000000E+00  0.17907654375E+04  0.17907654376E+04  0.25500000000E-02 0.  1.
          2   -1    0    0  501    0  0.00000000000E+00 -0.00000000000E+00 -0.11800499478E+04  0.11800499478E+04  0.25500000000E-02 0. -1.
    8880022    1    1    2    0    0 -0.47782450084E+03 -0.17007859135E+03  0.16886214744E+04  0.17697675321E+04  0.15294330000E+03 0.  0.
    8880022    1    1    2    0    0  0.47782450084E+03  0.17007859135E+03 -0.10779059847E+04  0.12010478532E+04  0.15294330000E+03 0.  0.
<mgrwt>
<rscale>  0 0.52974960E+03</rscale>
<asrwt>0</asrwt>
<pdfrwt beam="1">  1        2 0.18154615E+00 0.52974960E+03</pdfrwt>
<pdfrwt beam="2">  1       -2 0.27550237E+00 0.52974960E+03</pdfrwt>
<totfact> 0.95868367E-01</totfact>
</mgrwt>
</event>
<event>
 4    1  0.1726795E-008  0.5059677E+03  0.7818608E-02  0.1012233E+00
          2   -1    0    0  501    0  0.00000000000E+00  0.00000000000E+00  0.15513268446E+04  0.15513268446E+04  0.25500000000E-02 0. -1.
         -2   -1    0    0    0  501 -0.00000000000E+00 -0.00000000000E+00 -0.15783005940E+04  0.15783005940E+04  0.25500000000E-02 0.  1.
    8880022    1    1    2    0    0  0.38886090622E+03 -0.28530489796E+03  0.14672628055E+04  0.15520513789E+04  0.15294330000E+03 0.  0.
    8880022    1    1    2    0    0 -0.38886090622E+03  0.28530489796E+03 -0.14942365549E+04  0.15775760597E+04  0.15294330000E+03 0.  1.
<mgrwt>
<rscale>  0 0.50596773E+03</rscale>
<asrwt>0</asrwt>
<pdfrwt beam="1">  1        2 0.23866567E+00 0.50596773E+03</pdfrwt>
<pdfrwt beam="2">  1       -2 0.24281548E+00 0.50596773E+03</pdfrwt>
<totfact> 0.93497896E-01</totfact>
</mgrwt>
</event>
<event>
 4    1  0.1726795E-008  0.6000080E+03  0.7818608E-02  0.9905389E-01
         -2   -1    0    0    0  501 -0.00000000000E+00  0.00000000000E+00  0.87071238170E+03  0.87071238170E+03  0.25500000000E-02 0.  1.
          2   -1    0    0  501    0  0.00000000000E+00 -0.00000000000E+00 -0.53658619307E+03  0.53658619307E+03  0.25500000000E-02 0. -1.
    8880022    1    1    2    0    0  0.23470448961E+03  0.53059566199E+03  0.50411894938E+03  0.78367437249E+03  0.15294330000E+03 0.  0.
    8880022    1    1    2    0    0 -0.23470448961E+03 -0.53059566199E+03 -0.16999276075E+03  0.62362420229E+03  0.15294330000E+03 0.  0.
<mgrwt>
<rscale>  0 0.60000801E+03</rscale>
<asrwt>0</asrwt>
<pdfrwt beam="1">  1        2 0.82551723E-01 0.60000801E+03</pdfrwt>
<pdfrwt beam="2">  1       -2 0.13395575E+00 0.60000801E+03</pdfrwt>
<totfact> 0.23436317E+01</totfact>
</mgrwt>
</event>
<event>
 4    1  0.1726795E-008  0.6145240E+03  0.7818608E-02  0.9875723E-01
         -2   -1    0    0    0  501 -0.00000000000E+00  0.00000000000E+00  0.87813997530E+03  0.87813997531E+03  0.25500000000E-02 0.  1.
          2   -1    0    0  501    0  0.00000000000E+00 -0.00000000000E+00 -0.63673739942E+03  0.63673739942E+03  0.25500000000E-02 0. -1.
    8880022    1    1    2    0    0  0.18726227333E+03 -0.56496100728E+03  0.55224967946E+03  0.82620787956E+03  0.15294330000E+03 0.  0.
    8880022    1    1    2    0    0 -0.18726227333E+03  0.56496100728E+03 -0.31084710358E+03  0.68866949517E+03  0.15294330000E+03 0.  0.
<mgrwt>
<rscale>  0 0.61452400E+03</rscale>
<asrwt>0</asrwt>
<pdfrwt beam="1">  1        2 0.97959600E-01 0.61452400E+03</pdfrwt>
<pdfrwt beam="2">  1       -2 0.13509846E+00 0.61452400E+03</pdfrwt>
<totfact> 0.18671618E+01</totfact>
</mgrwt>
</event>
<event>
 4    1  0.2554560E-008  0.1354468E+04  0.7818608E-02  0.8987452E-01
         -2   -1    0    0    0  501 -0.00000000000E+00  0.00000000000E+00  0.18686436649E+04  0.18686436649E+04  0.25500000000E-02 0.  1.
          2   -1    0    0  501    0  0.00000000000E+00 -0.00000000000E+00 -0.27373474552E+04  0.27373474552E+04  0.25500000000E-02 0. -1.
    8880022    1    1    2    0    0  0.37938788280E+03 -0.12912234519E+04  0.14099741645E+04  0.19551501134E+04  0.15294330000E+03 0.  0.
    8880022    1    1    2    0    0 -0.37938788280E+03  0.12912234519E+04 -0.22786779548E+04  0.26508410067E+04  0.15294330000E+03 0.  0.
<mgrwt>
<rscale>  0 0.13544685E+04</rscale>
<asrwt>0</asrwt>
<pdfrwt beam="1">  1        2 0.42113038E+00 0.13544685E+04</pdfrwt>
<pdfrwt beam="2">  1       -2 0.28748364E+00 0.13544685E+04</pdfrwt>
<totfact> 0.91702138E-02</totfact>
</mgrwt>
</event>
<event>
 4    1  0.1726795E-008  0.5108036E+03  0.7818608E-02  0.1010997E+00
          2   -1    0    0  501    0  0.00000000000E+00  0.00000000000E+00  0.99389094034E+03  0.99389094034E+03  0.25500000000E-02 0. -1.
         -2   -1    0    0    0  501 -0.00000000000E+00 -0.00000000000E+00 -0.31334496201E+03  0.31334496202E+03  0.25500000000E-02 0.  1.
    8880022    1    1    2    0    0  0.48530350852E+02 -0.48494686217E+03  0.77044008512E+02  0.51658115175E+03  0.15294330000E+03 0.  0.
    8880022    1    1    2    0    0 -0.48530350852E+02  0.48494686217E+03  0.60350196982E+03  0.79065475061E+03  0.15294330000E+03 0.  0.
<mgrwt>
<rscale>  0 0.51080359E+03</rscale>
<asrwt>0</asrwt>
<pdfrwt beam="1">  1        2 0.15290630E+00 0.51080359E+03</pdfrwt>
<pdfrwt beam="2">  1       -2 0.48206918E-01 0.51080359E+03</pdfrwt>
<totfact> 0.10718383E+02</totfact>
</mgrwt>
</event>
<event>
 4    1  0.1726795E-008  0.9854924E+03  0.7818608E-02  0.9324601E-01
          2   -1    0    0  501    0  0.00000000000E+00  0.00000000000E+00  0.23609382151E+04  0.23609382151E+04  0.25500000000E-02 0. -1.
         -2   -1    0    0    0  501 -0.00000000000E+00 -0.00000000000E+00 -0.43758918844E+03  0.43758918845E+03  0.25500000000E-02 0.  1.
    8880022    1    1    2    0    0 -0.94704039856E+03 -0.22565058177E+03  0.13042524333E+04  0.16347078529E+04  0.15294330000E+03 0.  0.
    8880022    1    1    2    0    0  0.94704039856E+03  0.22565058177E+03  0.61909659338E+03  0.11638195507E+04  0.15294330000E+03 0.  0.
<mgrwt>
<rscale>  0 0.98549244E+03</rscale>
<asrwt>0</asrwt>
<pdfrwt beam="1">  1        2 0.36322127E+00 0.98549244E+03</pdfrwt>
<pdfrwt beam="2">  1       -2 0.67321412E-01 0.98549244E+03</pdfrwt>
<totfact> 0.85596388E+00</totfact>
</mgrwt>
</event>
<event>
 4    1  0.1726795E-008  0.5447038E+03  0.7818608E-02  0.1002727E+00
          2   -1    0    0  501    0  0.00000000000E+00  0.00000000000E+00  0.44275503524E+03  0.44275503525E+03  0.25500000000E-02 0. -1.
         -2   -1    0    0    0  501 -0.00000000000E+00 -0.00000000000E+00 -0.19225588686E+04  0.19225588686E+04  0.25500000000E-02 0.  1.
    8880022    1    1    2    0    0  0.27726033877E+03 -0.44321246931E+03  0.21464211507E+03  0.58546859778E+03  0.15294330000E+03 0. -1.
    8880022    1    1    2    0    0 -0.27726033877E+03  0.44321246931E+03 -0.16944459484E+04  0.17798453061E+04  0.15294330000E+03 0.  0.
<mgrwt>
<rscale>  0 0.54470381E+03</rscale>
<asrwt>0</asrwt>
<pdfrwt beam="1">  1        2 0.68116161E-01 0.54470381E+03</pdfrwt>
<pdfrwt beam="2">  1       -2 0.29577828E+00 0.54470381E+03</pdfrwt>
<totfact> 0.25770428E+00</totfact>
</mgrwt>
</event>
<event>
 4    1  0.1726795E-008  0.1442531E+04  0.7818608E-02  0.8923595E-01
          2   -1    0    0  501    0  0.00000000000E+00  0.00000000000E+00  0.28902562067E+04  0.28902562067E+04  0.25500000000E-02 0. -1.
         -2   -1    0    0    0  501 -0.00000000000E+00 -0.00000000000E+00 -0.83948287901E+03  0.83948287901E+03  0.25500000000E-02 0.  1.
    8880022    1    1    2    0    0  0.12849227506E+04  0.63755660253E+03  0.32174645232E+03  0.14779774453E+04  0.15294330000E+03 0.  0.
    8880022    1    1    2    0    0 -0.12849227506E+04 -0.63755660253E+03  0.17290268754E+04  0.22517616404E+04  0.15294330000E+03 0.  0.
<mgrwt>
<rscale>  0 0.14425313E+04</rscale>
<asrwt>0</asrwt>
<pdfrwt beam="1">  1        2 0.44465480E+00 0.14425313E+04</pdfrwt>
<pdfrwt beam="2">  1       -2 0.12915121E+00 0.14425313E+04</pdfrwt>
<totfact> 0.86007867E-01</totfact>
</mgrwt>
</event>
<event>
 4    1  0.1726795E-008  0.4810379E+03  0.7818608E-02  0.1018850E+00
         -2   -1    0    0    0  501 -0.00000000000E+00  0.00000000000E+00  0.35478483700E+03  0.35478483701E+03  0.25500000000E-02 0.  1.
          2   -1    0    0  501    0  0.00000000000E+00 -0.00000000000E+00 -0.15660074439E+04  0.15660074439E+04  0.25500000000E-02 0. -1.
    8880022    1    1    2    0    0 -0.24978591424E+03  0.38159242986E+03 -0.13392399949E+04  0.14230113149E+04  0.15294330000E+03 0.  0.
    8880022    1    1    2    0    0  0.24978591424E+03 -0.38159242986E+03  0.12801738796E+03  0.49778096601E+03  0.15294330000E+03 0.  0.
<mgrwt>
<rscale>  0 0.48103788E+03</rscale>
<asrwt>0</asrwt>
<pdfrwt beam="1">  1        2 0.24092422E+00 0.48103788E+03</pdfrwt>
<pdfrwt beam="2">  1       -2 0.54582283E-01 0.48103788E+03</pdfrwt>
<totfact> 0.39122742E+01</totfact>
</mgrwt>
</event>
<event>
 4    1  0.1726795E-008  0.5792988E+03  0.7818608E-02  0.9949310E-01
          2   -1    0    0  501    0  0.00000000000E+00  0.00000000000E+00  0.19329726105E+04  0.19329726105E+04  0.25500000000E-02 0. -1.
         -2   -1    0    0    0  501 -0.00000000000E+00 -0.00000000000E+00 -0.21615943822E+03  0.21615943824E+03  0.25500000000E-02 0.  1.
    8880022    1    1    2    0    0 -0.88430453399E+02  0.55170232309E+03  0.13351483641E+04  0.14554065431E+04  0.15294330000E+03 0.  0.
    8880022    1    1    2    0    0  0.88430453399E+02 -0.55170232309E+03  0.38166480813E+03  0.69372550564E+03  0.15294330000E+03 0.  0.
<mgrwt>
<rscale>  0 0.57929876E+03</rscale>
<asrwt>0</asrwt>
<pdfrwt beam="1">  1        2 0.29738039E+00 0.57929876E+03</pdfrwt>
<pdfrwt beam="2">  1       -2 0.33255300E-01 0.57929876E+03</pdfrwt>
<totfact> 0.64561332E+01</totfact>
</mgrwt>
</event>
<event>
 4    1  0.1726795E-008  0.8643247E+03  0.7818608E-02  0.9471310E-01
         -2   -1    0    0    0  501 -0.00000000000E+00  0.00000000000E+00  0.16588312649E+04  0.16588312649E+04  0.25500000000E-02 0.  1.
          2   -1    0    0  501    0  0.00000000000E+00 -0.00000000000E+00 -0.95063522487E+03  0.95063522487E+03  0.25500000000E-02 0. -1.
    8880022    1    1    2    0    0 -0.82450856921E+03 -0.20940683079E+03 -0.59240703280E+03  0.10478565489E+04  0.15294330000E+03 0.  0.
    8880022    1    1    2    0    0  0.82450856921E+03  0.20940683079E+03  0.13006030729E+04  0.15616099409E+04  0.15294330000E+03 0.  0.
<mgrwt>
<rscale>  0 0.86432474E+03</rscale>
<asrwt>0</asrwt>
<pdfrwt beam="1">  1        2 0.14625158E+00 0.86432474E+03</pdfrwt>
<pdfrwt beam="2">  1       -2 0.25520481E+00 0.86432474E+03</pdfrwt>
<totfact> 0.16452752E+00</totfact>
</mgrwt>
</event>
<event>
 4    1  0.1726795E-008  0.1400157E+04  0.7818608E-02  0.8953705E-01
         -2   -1    0    0    0  501 -0.00000000000E+00  0.00000000000E+00  0.92254959273E+03  0.92254959273E+03  0.25500000000E-02 0.  1.
          2   -1    0    0  501    0  0.00000000000E+00 -0.00000000000E+00 -0.30166741294E+04  0.30166741294E+04  0.25500000000E-02 0. -1.
    8880022    1    1    2    0    0  0.13701602340E+04  0.24435559326E+03 -0.21178751760E+04  0.25388650292E+04  0.15294330000E+03 0.  0.
    8880022    1    1    2    0    0 -0.13701602340E+04 -0.24435559326E+03  0.23750639284E+02  0.14003586929E+04  0.15294330000E+03 0.  0.
<mgrwt>
<rscale>  0 0.14001573E+04</rscale>
<asrwt>0</asrwt>
<pdfrwt beam="1">  1        2 0.46410371E+00 0.14001573E+04</pdfrwt>
<pdfrwt beam="2">  1       -2 0.14193071E+00 0.14001573E+04</pdfrwt>
<totfact> 0.56565457E-01</totfact>
</mgrwt>
</event>
<event>
 4    1  0.1726795E-008  0.2981880E+03  0.7818608E-02  0.1086150E+00
          2   -1    0    0  501    0  0.00000000000E+00  0.00000000000E+00  0.12142071967E+04  0.12142071967E+04  0.25500000000E-02 0. -1.
         -2   -1    0    0    0  501 -0.00000000000E+00 -0.00000000000E+00 -0.93254244765E+02  0.93254244800E+02  0.25500000000E-02 0.  1.
    8880022    1    1    2    0    0  0.16822072228E+03  0.19294095847E+03  0.86340870256E+03  0.91344987029E+03  0.15294330000E+03 0.  0.
    8880022    1    1    2    0    0 -0.16822072228E+03 -0.19294095847E+03  0.25754424941E+03  0.39401157125E+03  0.15294330000E+03 0.  0.
<mgrwt>
<rscale>  0 0.29818799E+03</rscale>
<asrwt>0</asrwt>
<pdfrwt beam="1">  1        2 0.18680109E+00 0.29818799E+03</pdfrwt>
<pdfrwt beam="2">  1       -2 0.14346808E-01 0.29818799E+03</pdfrwt>
<totfact> 0.72373623E+02</totfact>
</mgrwt>
</event>
<event>
 4    1  0.1726795E-008  0.1216361E+04  0.7818608E-02  0.9098655E-01
         -2   -1    0    0    0  501 -0.00000000000E+00  0.00000000000E+00  0.28271312033E+04  0.28271312033E+04  0.25500000000E-02 0.  1.
          2   -1    0    0  501    0  0.00000000000E+00 -0.00000000000E+00 -0.14575236597E+04  0.14575236597E+04  0.25500000000E-02 0. -1.
    8880022    1    1    2    0    0  0.10528997942E+04 -0.58952892549E+03 -0.10303203763E+04  0.15940809457E+04  0.15294330000E+03 0.  0.
    8880022    1    1    2    0    0 -0.10528997942E+04  0.58952892549E+03  0.23999279199E+04  0.26905739173E+04  0.15294330000E+03 0.  0.
<mgrwt>
<rscale>  0 0.12163610E+04</rscale>
<asrwt>0</asrwt>
<pdfrwt beam="1">  1        2 0.22423441E+00 0.12163610E+04</pdfrwt>
<pdfrwt beam="2">  1       -2 0.43494326E+00 0.12163610E+04</pdfrwt>
<totfact> 0.57468448E-02</totfact>
</mgrwt>
</event>
<event>
 4    1  0.1726795E-008  0.3360425E+03  0.7818608E-02  0.1068494E+00
          2   -1    0    0  501    0  0.00000000000E+00  0.00000000000E+00  0.86888382810E+03  0.86888382810E+03  0.25500000000E-02 0. -1.
         -2   -1    0    0    0  501 -0.00000000000E+00 -0.00000000000E+00 -0.37349825232E+03  0.37349825233E+03  0.25500000000E-02 0.  1.
    8880022    1    1    2    0    0  0.25584811557E+03  0.15516009416E+03  0.74929558423E+03  0.82119939030E+03  0.15294330000E+03 0.  0.
    8880022    1    1    2    0    0 -0.25584811557E+03 -0.15516009416E+03 -0.25391000845E+03  0.42118269013E+03  0.15294330000E+03 0.  0.
<mgrwt>
<rscale>  0 0.33604251E+03</rscale>
<asrwt>0</asrwt>
<pdfrwt beam="1">  1        2 0.13367443E+00 0.33604251E+03</pdfrwt>
<pdfrwt beam="2">  1       -2 0.57461270E-01 0.33604251E+03</pdfrwt>
<totfact> 0.92309785E+01</totfact>
</mgrwt>
</event>
<event>
 4    1  0.1726795E-008  0.7177354E+03  0.7818608E-02  0.9687374E-01
         -2   -1    0    0    0  501 -0.00000000000E+00  0.00000000000E+00  0.50628690607E+03  0.50628690608E+03  0.25500000000E-02 0.  1.
          2   -1    0    0  501    0  0.00000000000E+00 -0.00000000000E+00 -0.12135823060E+04  0.12135823060E+04  0.25500000000E-02 0. -1.
    8880022    1    1    2    0    0 -0.59992785881E+03  0.36309648096E+03 -0.69931325109E+03  0.10020894004E+04  0.15294330000E+03 0.  0.
    8880022    1    1    2    0    0  0.59992785881E+03 -0.36309648096E+03 -0.79821487930E+01  0.71777981162E+03  0.15294330000E+03 0.  0.
<mgrwt>
<rscale>  0 0.71773543E+03</rscale>
<asrwt>0</asrwt>
<pdfrwt beam="1">  1        2 0.18670497E+00 0.71773543E+03</pdfrwt>
<pdfrwt beam="2">  1       -2 0.77890294E-01 0.71773543E+03</pdfrwt>
<totfact> 0.27900106E+01</totfact>
</mgrwt>
</event>
<event>
 4    1  0.1726795E-008  0.1471540E+04  0.7818608E-02  0.8903602E-01
          2   -1    0    0  501    0  0.00000000000E+00  0.00000000000E+00  0.31746427757E+04  0.31746427757E+04  0.25500000000E-02 0. -1.
         -2   -1    0    0    0  501 -0.00000000000E+00 -0.00000000000E+00 -0.73112445980E+03  0.73112445980E+03  0.25500000000E-02 0.  1.
    8880022    1    1    2    0    0  0.13343479556E+04  0.60129452079E+03  0.71607795232E+03  0.16365203494E+04  0.15294330000E+03 0.  0.
    8880022    1    1    2    0    0 -0.13343479556E+04 -0.60129452079E+03  0.17274403636E+04  0.22692468861E+04  0.15294330000E+03 0.  0.
<mgrwt>
<rscale>  0 0.14715404E+04</rscale>
<asrwt>0</asrwt>
<pdfrwt beam="1">  1        2 0.48840659E+00 0.14715404E+04</pdfrwt>
<pdfrwt beam="2">  1       -2 0.11248069E+00 0.14715404E+04</pdfrwt>
<totfact> 0.80377337E-01</totfact>
</mgrwt>
</event>
<event>
 4    1  0.1726795E-008  0.7169976E+03  0.7818608E-02  0.9688598E-01
         -2   -1    0    0    0  501 -0.00000000000E+00  0.00000000000E+00  0.81723386188E+03  0.81723386188E+03  0.25500000000E-02 0.  1.
          2   -1    0    0  501    0  0.00000000000E+00 -0.00000000000E+00 -0.12019986202E+04  0.12019986202E+04  0.25500000000E-02 0. -1.
    8880022    1    1    2    0    0 -0.43946855317E+03  0.54549184167E+03 -0.88942611030E+03  0.11424379271E+04  0.15294330000E+03 0.  0.
    8880022    1    1    2    0    0  0.43946855317E+03 -0.54549184167E+03  0.50466135195E+03  0.87679455502E+03  0.15294330000E+03 0.  0.
<mgrwt>
<rscale>  0 0.71699764E+03</rscale>
<asrwt>0</asrwt>
<pdfrwt beam="1">  1        2 0.18492286E+00 0.71699764E+03</pdfrwt>
<pdfrwt beam="2">  1       -2 0.12572829E+00 0.71699764E+03</pdfrwt>
<totfact> 0.91436027E+00</totfact>
</mgrwt>
</event>
<event>
 4    1  0.1726795E-008  0.5058745E+03  0.7818608E-02  0.1012257E+00
          2   -1    0    0  501    0  0.00000000000E+00  0.00000000000E+00  0.17618474374E+04  0.17618474374E+04  0.25500000000E-02 0. -1.
         -2   -1    0    0    0  501 -0.00000000000E+00 -0.00000000000E+00 -0.83799517691E+03  0.83799517691E+03  0.25500000000E-02 0.  1.
    8880022    1    1    2    0    0  0.63512873787E+02 -0.47799945817E+03 -0.71997986953E+03  0.87993183412E+03  0.15294330000E+03 0.  0.
    8880022    1    1    2    0    0 -0.63512873787E+02  0.47799945817E+03  0.16438321301E+04  0.17199107802E+04  0.15294330000E+03 0.  0.
<mgrwt>
<rscale>  0 0.50587451E+03</rscale>
<asrwt>0</asrwt>
<pdfrwt beam="1">  1        2 0.27105345E+00 0.50587451E+03</pdfrwt>
<pdfrwt beam="2">  1       -2 0.12892233E+00 0.50587451E+03</pdfrwt>
<totfact> 0.43487923E+00</totfact>
</mgrwt>
</event>
<event>
 4    1  0.1726795E-008  0.9133872E+03  0.7818608E-02  0.9409000E-01
         -2   -1    0    0    0  501 -0.00000000000E+00  0.00000000000E+00  0.10510248725E+04  0.10510248725E+04  0.25500000000E-02 0.  1.
          2   -1    0    0  501    0  0.00000000000E+00 -0.00000000000E+00 -0.26415221937E+04  0.26415221937E+04  0.25500000000E-02 0. -1.
    8880022    1    1    2    0    0  0.73332065878E+03 -0.52261385947E+03 -0.23394016257E+04  0.25113892677E+04  0.15294330000E+03 0.  0.
    8880022    1    1    2    0    0 -0.73332065878E+03  0.52261385947E+03  0.74890430449E+03  0.11811577985E+04  0.15294330000E+03 0.  0.
<mgrwt>
<rscale>  0 0.91338715E+03</rscale>
<asrwt>0</asrwt>
<pdfrwt beam="1">  1        2 0.40638803E+00 0.91338715E+03</pdfrwt>
<pdfrwt beam="2">  1       -2 0.16169614E+00 0.91338715E+03</pdfrwt>
<totfact> 0.72069406E-01</totfact>
</mgrwt>
</event>
<event>
 4    1  0.1726795E-008  0.3283248E+03  0.7818608E-02  0.1071880E+00
          2   -1    0    0  501    0  0.00000000000E+00  0.00000000000E+00  0.44841480929E+03  0.44841480930E+03  0.25500000000E-02 0. -1.
         -2   -1    0    0    0  501 -0.00000000000E+00 -0.00000000000E+00 -0.67600499739E+03  0.67600499740E+03  0.25500000000E-02 0.  1.
    8880022    1    1    2    0    0  0.27397931323E+03  0.96648233762E+02  0.33751170801E+03  0.47086234849E+03  0.15294330000E+03 0.  0.
    8880022    1    1    2    0    0 -0.27397931323E+03 -0.96648233762E+02 -0.56510189611E+03  0.65355745820E+03  0.15294330000E+03 0.  0.
<mgrwt>
<rscale>  0 0.32832484E+03</rscale>
<asrwt>0</asrwt>
<pdfrwt beam="1">  1        2 0.68986894E-01 0.32832484E+03</pdfrwt>
<pdfrwt beam="2">  1       -2 0.10400077E+00 0.32832484E+03</pdfrwt>
<totfact> 0.55196450E+01</totfact>
</mgrwt>
</event>
<event>
 4    1  0.1726795E-008  0.1333426E+04  0.7818608E-02  0.9003470E-01
          2   -1    0    0  501    0  0.00000000000E+00  0.00000000000E+00  0.17617129828E+04  0.17617129828E+04  0.25500000000E-02 0. -1.
         -2   -1    0    0    0  501 -0.00000000000E+00 -0.00000000000E+00 -0.12690262623E+04  0.12690262623E+04  0.25500000000E-02 0.  1.
    8880022    1    1    2    0    0 -0.12175549477E+04 -0.52172122681E+03  0.93195069146E+03  0.16268241557E+04  0.15294330000E+03 0.  0.
    8880022    1    1    2    0    0  0.12175549477E+04  0.52172122681E+03 -0.43926397093E+03  0.14039150894E+04  0.15294330000E+03 0.  0.
<mgrwt>
<rscale>  0 0.13334259E+04</rscale>
<asrwt>0</asrwt>
<pdfrwt beam="1">  1        2 0.27103276E+00 0.13334259E+04</pdfrwt>
<pdfrwt beam="2">  1       -2 0.19523481E+00 0.13334259E+04</pdfrwt>
<totfact> 0.12391061E+00</totfact>
</mgrwt>
</event>
<event>
 4    1  0.1726795E-008  0.1223657E+04  0.7818608E-02  0.9092398E-01
         -2   -1    0    0    0  501 -0.00000000000E+00  0.00000000000E+00  0.15079372172E+04  0.15079372173E+04  0.25500000000E-02 0.  1.
          2   -1    0    0  501    0  0.00000000000E+00 -0.00000000000E+00 -0.28630395155E+04  0.28630395155E+04  0.25500000000E-02 0. -1.
    8880022    1    1    2    0    0  0.12128950231E+04  0.53203625483E+02  0.10887456753E+04  0.16378961387E+04  0.15294330000E+03 0.  0.
    8880022    1    1    2    0    0 -0.12128950231E+04 -0.53203625483E+02 -0.24438479735E+04  0.27330805940E+04  0.15294330000E+03 0.  0.
<mgrwt>
<rscale>  0 0.12236571E+04</rscale>
<asrwt>0</asrwt>
<pdfrwt beam="1">  1        2 0.44046762E+00 0.12236571E+04</pdfrwt>
<pdfrwt beam="2">  1       -2 0.23199034E+00 0.12236571E+04</pdfrwt>
<totfact> 0.17194032E-01</totfact>
</mgrwt>
</event>
<event>
 4    1  0.1726795E-008  0.1208936E+04  0.7818608E-02  0.9105071E-01
          2   -1    0    0  501    0  0.00000000000E+00  0.00000000000E+00  0.99444601732E+03  0.99444601732E+03  0.25500000000E-02 0. -1.
         -2   -1    0    0    0  501 -0.00000000000E+00 -0.00000000000E+00 -0.20258194274E+04  0.20258194274E+04  0.25500000000E-02 0.  1.
    8880022    1    1    2    0    0 -0.68676667384E+03  0.98309972999E+03 -0.13069181577E+04  0.17803258879E+04  0.15294330000E+03 0.  0.
    8880022    1    1    2    0    0  0.68676667384E+03 -0.98309972999E+03  0.27554474763E+03  0.12399395567E+04  0.15294330000E+03 0.  0.
<mgrwt>
<rscale>  0 0.12089356E+04</rscale>
<asrwt>0</asrwt>
<pdfrwt beam="1">  1        2 0.15299170E+00 0.12089356E+04</pdfrwt>
<pdfrwt beam="2">  1       -2 0.31166453E+00 0.12089356E+04</pdfrwt>
<totfact> 0.66962268E-01</totfact>
</mgrwt>
</event>
<event>
 4    1  0.1726795E-008  0.7992224E+03  0.7818608E-02  0.9561143E-01
         -2   -1    0    0    0  501 -0.00000000000E+00  0.00000000000E+00  0.68739767971E+03  0.68739767971E+03  0.25500000000E-02 0.  1.
          2   -1    0    0  501    0  0.00000000000E+00 -0.00000000000E+00 -0.26027973468E+04  0.26027973468E+04  0.25500000000E-02 0. -1.
    8880022    1    1    2    0    0  0.40977971935E+03  0.66891359753E+03  0.36144337651E+03  0.87715322879E+03  0.15294330000E+03 0.  0.
    8880022    1    1    2    0    0 -0.40977971935E+03 -0.66891359753E+03 -0.22768430436E+04  0.24130417978E+04  0.15294330000E+03 0.  0.
<mgrwt>
<rscale>  0 0.79922242E+03</rscale>
<asrwt>0</asrwt>
<pdfrwt beam="1">  1        2 0.40043035E+00 0.79922242E+03</pdfrwt>
<pdfrwt beam="2">  1       -2 0.10575349E+00 0.79922242E+03</pdfrwt>
<totfact> 0.22869505E+00</totfact>
</mgrwt>
</event>
<event>
 4    1  0.1726795E-008  0.3293217E+03  0.7818608E-02  0.1071437E+00
          2   -1    0    0  501    0  0.00000000000E+00  0.00000000000E+00  0.38398304326E+03  0.38398304327E+03  0.25500000000E-02 0. -1.
         -2   -1    0    0    0  501 -0.00000000000E+00 -0.00000000000E+00 -0.56034301031E+03  0.56034301032E+03  0.25500000000E-02 0.  1.
    8880022    1    1    2    0    0  0.18411986747E+03 -0.22618796799E+03 -0.42069433296E+03  0.53426257333E+03  0.15294330000E+03 0.  0.
    8880022    1    1    2    0    0 -0.18411986747E+03  0.22618796799E+03  0.24433436591E+03  0.41006348026E+03  0.15294330000E+03 0.  0.
<mgrwt>
<rscale>  0 0.32932169E+03</rscale>
<asrwt>0</asrwt>
<pdfrwt beam="1">  1        2 0.59074314E-01 0.32932169E+03</pdfrwt>
<pdfrwt beam="2">  1       -2 0.86206617E-01 0.32932169E+03</pdfrwt>
<totfact> 0.10100676E+02</totfact>
</mgrwt>
</event>
<event>
 4    1  0.1726795E-008  0.4765805E+03  0.7818608E-02  0.1020079E+00
          2   -1    0    0  501    0  0.00000000000E+00  0.00000000000E+00  0.23062400523E+03  0.23062400525E+03  0.25500000000E-02 0. -1.
         -2   -1    0    0    0  501 -0.00000000000E+00 -0.00000000000E+00 -0.10448909215E+04  0.10448909215E+04  0.25500000000E-02 0.  1.
    8880022    1    1    2    0    0 -0.41515853242E+03 -0.17714593627E+03 -0.25424977616E+03  0.54015913532E+03  0.15294330000E+03 0.  0.
    8880022    1    1    2    0    0  0.41515853242E+03  0.17714593627E+03 -0.56001714015E+03  0.73535579147E+03  0.15294330000E+03 0.  0.
<mgrwt>
<rscale>  0 0.47658047E+03</rscale>
<asrwt>0</asrwt>
<pdfrwt beam="1">  1        2 0.35480617E-01 0.47658047E+03</pdfrwt>
<pdfrwt beam="2">  1       -2 0.16075245E+00 0.47658047E+03</pdfrwt>
<totfact> 0.37864596E+01</totfact>
</mgrwt>
</event>
<event>
 4    1  0.1726795E-008  0.3001459E+03  0.7818608E-02  0.1085168E+00
         -2   -1    0    0    0  501 -0.00000000000E+00  0.00000000000E+00  0.54672236244E+03  0.54672236245E+03  0.25500000000E-02 0.  1.
          2   -1    0    0  501    0  0.00000000000E+00 -0.00000000000E+00 -0.60647699972E+03  0.60647699973E+03  0.25500000000E-02 0. -1.
    8880022    1    1    2    0    0 -0.12971482043E+03 -0.22331588656E+03 -0.52195159002E+03  0.60209719744E+03  0.15294330000E+03 0.  0.
    8880022    1    1    2    0    0  0.12971482043E+03  0.22331588656E+03  0.46219695275E+03  0.55110216473E+03  0.15294330000E+03 0.  0.
<mgrwt>
<rscale>  0 0.30014592E+03</rscale>
<asrwt>0</asrwt>
<pdfrwt beam="1">  1        2 0.93304154E-01 0.30014592E+03</pdfrwt>
<pdfrwt beam="2">  1       -2 0.84111132E-01 0.30014592E+03</pdfrwt>
<totfact> 0.63977195E+01</totfact>
</mgrwt>
</event>
<event>
 4    1  0.1726795E-008  0.5197744E+03  0.7818608E-02  0.1008743E+00
          2   -1    0    0  501    0  0.00000000000E+00  0.00000000000E+00  0.87979840573E+03  0.87979840574E+03  0.25500000000E-02 0. -1.
         -2   -1    0    0    0  501 -0.00000000000E+00 -0.00000000000E+00 -0.43989787794E+03  0.43989787795E+03  0.25500000000E-02 0.  1.
    8880022    1    1    2    0    0  0.42262335503E+03 -0.26108095850E+03  0.58252876232E+03  0.78070812667E+03  0.15294330000E+03 0.  0.
    8880022    1    1    2    0    0 -0.42262335503E+03  0.26108095850E+03 -0.14262823453E+03  0.53898815702E+03  0.15294330000E+03 0.  0.
<mgrwt>
<rscale>  0 0.51977439E+03</rscale>
<asrwt>0</asrwt>
<pdfrwt beam="1">  1        2 0.13535360E+00 0.51977439E+03</pdfrwt>
<pdfrwt beam="2">  1       -2 0.67676596E-01 0.51977439E+03</pdfrwt>
<totfact> 0.62737247E+01</totfact>
</mgrwt>
</event>
<event>
 4    1  0.1726795E-008  0.4415707E+03  0.7818608E-02  0.1030266E+00
          2   -1    0    0  501    0  0.00000000000E+00  0.00000000000E+00  0.18077978494E+04  0.18077978494E+04  0.25500000000E-02 0. -1.
         -2   -1    0    0    0  501 -0.00000000000E+00 -0.00000000000E+00 -0.14545150083E+04  0.14545150083E+04  0.25500000000E-02 0.  1.
    8880022    1    1    2    0    0  0.97027627766E+02  0.40271416231E+03  0.17461549851E+04  0.18011224117E+04  0.15294330000E+03 0.  0.
    8880022    1    1    2    0    0 -0.97027627766E+02 -0.40271416231E+03 -0.13928721439E+04  0.14611904460E+04  0.15294330000E+03 0.  0.
<mgrwt>
<rscale>  0 0.44157073E+03</rscale>
<asrwt>0</asrwt>
<pdfrwt beam="1">  1        2 0.27812275E+00 0.44157073E+03</pdfrwt>
<pdfrwt beam="2">  1       -2 0.22377154E+00 0.44157073E+03</pdfrwt>
<totfact> 0.90676370E-01</totfact>
</mgrwt>
</event>
<event>
 4    1  0.1726795E-008  0.1182827E+04  0.7818608E-02  0.9128022E-01
         -2   -1    0    0    0  501 -0.00000000000E+00  0.00000000000E+00  0.90249483365E+03  0.90249483366E+03  0.25500000000E-02 0.  1.
          2   -1    0    0  501    0  0.00000000000E+00 -0.00000000000E+00 -0.19533215597E+04  0.19533215597E+04  0.25500000000E-02 0. -1.
    8880022    1    1    2    0    0  0.11490333247E+04  0.23539475075E+03 -0.11740658231E+04  0.16665864753E+04  0.15294330000E+03 0.  0.
    8880022    1    1    2    0    0 -0.11490333247E+04 -0.23539475075E+03  0.12323909699E+03  0.11892299180E+04  0.15294330000E+03 0.  0.
<mgrwt>
<rscale>  0 0.11828271E+04</rscale>
<asrwt>0</asrwt>
<pdfrwt beam="1">  1        2 0.30051101E+00 0.11828271E+04</pdfrwt>
<pdfrwt beam="2">  1       -2 0.13884536E+00 0.11828271E+04</pdfrwt>
<totfact> 0.25400518E+00</totfact>
</mgrwt>
</event>
<event>
 4    1  0.1726795E-008  0.5618695E+03  0.7818608E-02  0.9987833E-01
          2   -1    0    0  501    0  0.00000000000E+00  0.00000000000E+00  0.12607618592E+04  0.12607618592E+04  0.25500000000E-02 0. -1.
         -2   -1    0    0    0  501 -0.00000000000E+00 -0.00000000000E+00 -0.42910462482E+03  0.42910462483E+03  0.25500000000E-02 0.  1.
    8880022    1    1    2    0    0 -0.44280232827E+03  0.31021255244E+03 -0.12943456861E+03  0.57658537111E+03  0.15294330000E+03 0.  1.
    8880022    1    1    2    0    0  0.44280232827E+03 -0.31021255244E+03  0.96109180301E+03  0.11132811129E+04  0.15294330000E+03 0.  0.
<mgrwt>
<rscale>  0 0.56186954E+03</rscale>
<asrwt>0</asrwt>
<pdfrwt beam="1">  1        2 0.19396336E+00 0.56186954E+03</pdfrwt>
<pdfrwt beam="2">  1       -2 0.66016096E-01 0.56186954E+03</pdfrwt>
<totfact> 0.38347117E+01</totfact>
</mgrwt>
</event>
<event>
 4    1  0.1726795E-008  0.5730740E+03  0.7818608E-02  0.9962899E-01
         -2   -1    0    0    0  501 -0.00000000000E+00  0.00000000000E+00  0.58683340336E+03  0.58683340337E+03  0.25500000000E-02 0.  1.
          2   -1    0    0  501    0  0.00000000000E+00 -0.00000000000E+00 -0.22356833507E+04  0.22356833507E+04  0.25500000000E-02 0. -1.
    8880022    1    1    2    0    0  0.12265558338E+03  0.53849582807E+03  0.39749952787E+03  0.69743793749E+03  0.15294330000E+03 0.  0.
    8880022    1    1    2    0    0 -0.12265558338E+03 -0.53849582807E+03 -0.20463494752E+04  0.21250788166E+04  0.15294330000E+03 0.  0.
<mgrwt>
<rscale>  0 0.57307399E+03</rscale>
<asrwt>0</asrwt>
<pdfrwt beam="1">  1        2 0.34395128E+00 0.57307399E+03</pdfrwt>
<pdfrwt beam="2">  1       -2 0.90282063E-01 0.57307399E+03</pdfrwt>
<totfact> 0.55808995E+00</totfact>
</mgrwt>
</event>
<event>
 4    1  0.1726795E-008  0.2229738E+03  0.7818608E-02  0.1131685E+00
         -2   -1    0    0    0  501 -0.00000000000E+00  0.00000000000E+00  0.54314561562E+03  0.54314561562E+03  0.25500000000E-02 0.  1.
          2   -1    0    0  501    0  0.00000000000E+00 -0.00000000000E+00 -0.10879019107E+04  0.10879019107E+04  0.25500000000E-02 0. -1.
    8880022    1    1    2    0    0  0.14710474379E+03  0.68453238008E+02 -0.10528391543E+04  0.10761912419E+04  0.15294330000E+03 0.  0.
    8880022    1    1    2    0    0 -0.14710474379E+03 -0.68453238008E+02  0.50808285922E+03  0.55485628436E+03  0.15294330000E+03 0.  0.
<mgrwt>
<rscale>  0 0.22297378E+03</rscale>
<asrwt>0</asrwt>
<pdfrwt beam="1">  1        2 0.16736952E+00 0.22297378E+03</pdfrwt>
<pdfrwt beam="2">  1       -2 0.83560864E-01 0.22297378E+03</pdfrwt>
<totfact> 0.30978936E+01</totfact>
</mgrwt>
</event>
<event>
 4    1  0.1726795E-008  0.4831419E+03  0.7818608E-02  0.1018275E+00
         -2   -1    0    0    0  501 -0.00000000000E+00  0.00000000000E+00  0.41637991506E+03  0.41637991507E+03  0.25500000000E-02 0.  1.
          2   -1    0    0  501    0  0.00000000000E+00 -0.00000000000E+00 -0.16989323262E+04  0.16989323262E+04  0.25500000000E-02 0. -1.
    8880022    1    1    2    0    0  0.45672695352E+03  0.37881130272E+02  0.22446751330E+03  0.53273990619E+03  0.15294330000E+03 0.  0.
    8880022    1    1    2    0    0 -0.45672695352E+03 -0.37881130272E+02 -0.15070199244E+04  0.15825723350E+04  0.15294330000E+03 0. -1.
<mgrwt>
<rscale>  0 0.48314195E+03</rscale>
<asrwt>0</asrwt>
<pdfrwt beam="1">  1        2 0.26137420E+00 0.48314195E+03</pdfrwt>
<pdfrwt beam="2">  1       -2 0.64058449E-01 0.48314195E+03</pdfrwt>
<totfact> 0.23705027E+01</totfact>
</mgrwt>
</event>
<event>
 4    1  0.1726795E-008  0.1381404E+04  0.7818608E-02  0.8967390E-01
         -2   -1    0    0    0  501 -0.00000000000E+00  0.00000000000E+00  0.11400943546E+04  0.11400943546E+04  0.25500000000E-02 0.  1.
          2   -1    0    0  501    0  0.00000000000E+00 -0.00000000000E+00 -0.35603123514E+04  0.35603123514E+04  0.25500000000E-02 0. -1.
    8880022    1    1    2    0    0 -0.13481753201E+04  0.25944018930E+03  0.50066431359E+03  0.14693339693E+04  0.15294330000E+03 0.  0.
    8880022    1    1    2    0    0  0.13481753201E+04 -0.25944018930E+03 -0.29208823104E+04  0.32310727367E+04  0.15294330000E+03 0.  0.
<mgrwt>
<rscale>  0 0.13814042E+04</rscale>
<asrwt>0</asrwt>
<pdfrwt beam="1">  1        2 0.54774036E+00 0.13814042E+04</pdfrwt>
<pdfrwt beam="2">  1       -2 0.17539913E+00 0.13814042E+04</pdfrwt>
<totfact> 0.13909889E-01</totfact>
</mgrwt>
</event>
<event>
 4    1  0.1726795E-008  0.9895997E+03  0.7818608E-02  0.9320026E-01
          2   -1    0    0  501    0  0.00000000000E+00  0.00000000000E+00  0.10376105733E+04  0.10376105733E+04  0.25500000000E-02 0. -1.
         -2   -1    0    0    0  501 -0.00000000000E+00 -0.00000000000E+00 -0.27300926836E+04  0.27300926836E+04  0.25500000000E-02 0.  1.
    8880022    1    1    2    0    0  0.32650919098E+02  0.97716417709E+03  0.67757678870E+03  0.11993405976E+04  0.15294330000E+03 0.  0.
    8880022    1    1    2    0    0 -0.32650919098E+02 -0.97716417709E+03 -0.23700588990E+04  0.25683626593E+04  0.15294330000E+03 0.  0.
<mgrwt>
<rscale>  0 0.98959970E+03</rscale>
<asrwt>0</asrwt>
<pdfrwt beam="1">  1        2 0.15963240E+00 0.98959970E+03</pdfrwt>
<pdfrwt beam="2">  1       -2 0.42001426E+00 0.98959970E+03</pdfrwt>
<totfact> 0.13324458E-01</totfact>
</mgrwt>
</event>
<event>
 4    1  0.1726795E-008  0.6956051E+03  0.7818608E-02  0.9724778E-01
         -2   -1    0    0    0  501 -0.00000000000E+00  0.00000000000E+00  0.10765189830E+04  0.10765189831E+04  0.25500000000E-02 0.  1.
          2   -1    0    0  501    0  0.00000000000E+00 -0.00000000000E+00 -0.76547439415E+03  0.76547439415E+03  0.25500000000E-02 0. -1.
    8880022    1    1    2    0    0  0.61005600463E+03  0.29716413272E+03 -0.43622604947E+03  0.82107226833E+03  0.15294330000E+03 0.  0.
    8880022    1    1    2    0    0 -0.61005600463E+03 -0.29716413272E+03  0.74727063837E+03  0.10209211089E+04  0.15294330000E+03 0.  0.
<mgrwt>
<rscale>  0 0.69560513E+03</rscale>
<asrwt>0</asrwt>
<pdfrwt beam="1">  1        2 0.11776529E+00 0.69560513E+03</pdfrwt>
<pdfrwt beam="2">  1       -2 0.16561830E+00 0.69560513E+03</pdfrwt>
<totfact> 0.85667354E+00</totfact>
</mgrwt>
</event>
<event>
 4    1  0.1726795E-008  0.5119529E+03  0.7818608E-02  0.1010705E+00
          2   -1    0    0  501    0  0.00000000000E+00  0.00000000000E+00  0.24575156159E+04  0.24575156159E+04  0.25500000000E-02 0. -1.
         -2   -1    0    0    0  501 -0.00000000000E+00 -0.00000000000E+00 -0.45453056538E+03  0.45453056539E+03  0.25500000000E-02 0.  1.
    8880022    1    1    2    0    0 -0.31583030870E+02  0.48755164285E+03  0.22752928826E+04  0.23321778335E+04  0.15294330000E+03 0.  0.
    8880022    1    1    2    0    0  0.31583030870E+02 -0.48755164285E+03 -0.27230783213E+03  0.57986834777E+03  0.15294330000E+03 0.  1.
<mgrwt>
<rscale>  0 0.51195287E+03</rscale>
<asrwt>0</asrwt>
<pdfrwt beam="1">  1        2 0.37807933E+00 0.51195287E+03</pdfrwt>
<pdfrwt beam="2">  1       -2 0.69927779E-01 0.51195287E+03</pdfrwt>
<totfact> 0.75594895E+00</totfact>
</mgrwt>
</event>
<event>
 4    1  0.1726795E-008  0.7483175E+03  0.7818608E-02  0.9637994E-01
          2   -1    0    0  501    0  0.00000000000E+00  0.00000000000E+00  0.12322992800E+04  0.12322992800E+04  0.25500000000E-02 0. -1.
         -2   -1    0    0    0  501 -0.00000000000E+00 -0.00000000000E+00 -0.10313175208E+04  0.10313175208E+04  0.25500000000E-02 0.  1.
    8880022    1    1    2    0    0  0.47620003108E+03 -0.55661569246E+03  0.94699046536E+03  0.12069673124E+04  0.15294330000E+03 0.  0.
    8880022    1    1    2    0    0 -0.47620003108E+03  0.55661569246E+03 -0.74600870614E+03  0.10566494884E+04  0.15294330000E+03 0.  0.
<mgrwt>
<rscale>  0 0.74831755E+03</rscale>
<asrwt>0</asrwt>
<pdfrwt beam="1">  1        2 0.18958450E+00 0.74831755E+03</pdfrwt>
<pdfrwt beam="2">  1       -2 0.15866423E+00 0.74831755E+03</pdfrwt>
<totfact> 0.47757910E+00</totfact>
</mgrwt>
</event>
<event>
 4    1  0.1726795E-008  0.2035764E+03  0.7818608E-02  0.1146756E+00
         -2   -1    0    0    0  501 -0.00000000000E+00  0.00000000000E+00  0.23717674075E+04  0.23717674075E+04  0.25500000000E-02 0.  1.
          2   -1    0    0  501    0  0.00000000000E+00 -0.00000000000E+00 -0.10519962826E+04  0.10519962826E+04  0.25500000000E-02 0. -1.
    8880022    1    1    2    0    0  0.12076943121E+03  0.58876515889E+02  0.23574907313E+04  0.23662641232E+04  0.15294330000E+03 0.  1.
    8880022    1    1    2    0    0 -0.12076943121E+03 -0.58876515889E+02 -0.10377196064E+04  0.10574995670E+04  0.15294330000E+03 0.  0.
<mgrwt>
<rscale>  0 0.20357640E+03</rscale>
<asrwt>0</asrwt>
<pdfrwt beam="1">  1        2 0.16184558E+00 0.20357640E+03</pdfrwt>
<pdfrwt beam="2">  1       -2 0.36488729E+00 0.20357640E+03</pdfrwt>
<totfact> 0.39121181E-01</totfact>
</mgrwt>
</event>
<event>
 4    1  0.1726795E-008  0.2213289E+04  0.7818608E-02  0.8512917E-01
         -2   -1    0    0    0  501 -0.00000000000E+00  0.00000000000E+00  0.27552301210E+04  0.27552301210E+04  0.25500000000E-02 0.  1.
          2   -1    0    0  501    0  0.00000000000E+00 -0.00000000000E+00 -0.21600996283E+04  0.21600996283E+04  0.25500000000E-02 0. -1.
    8880022    1    1    2    0    0 -0.20247252786E+04  0.88076268145E+03 -0.73616079969E+03  0.23325050334E+04  0.15294330000E+03 0.  0.
    8880022    1    1    2    0    0  0.20247252786E+04 -0.88076268145E+03  0.13312912923E+04  0.25828247159E+04  0.15294330000E+03 0.  0.
<mgrwt>
<rscale>  0 0.22132887E+04</rscale>
<asrwt>0</asrwt>
<pdfrwt beam="1">  1        2 0.33232302E+00 0.22132887E+04</pdfrwt>
<pdfrwt beam="2">  1       -2 0.42388156E+00 0.22132887E+04</pdfrwt>
<totfact> 0.24287211E-02</totfact>
</mgrwt>
</event>
<event>
 4    1  0.1726795E-008  0.8701551E+03  0.7818608E-02  0.9463678E-01
         -2   -1    0    0    0  501 -0.00000000000E+00  0.00000000000E+00  0.10668133164E+04  0.10668133164E+04  0.25500000000E-02 0.  1.
          2   -1    0    0  501    0  0.00000000000E+00 -0.00000000000E+00 -0.39137318041E+04  0.39137318041E+04  0.25500000000E-02 0. -1.
    8880022    1    1    2    0    0 -0.78744026556E+03 -0.33721822693E+03 -0.36766420235E+04  0.37782094339E+04  0.15294330000E+03 0.  0.
    8880022    1    1    2    0    0  0.78744026556E+03  0.33721822693E+03  0.82972353582E+03  0.12023356866E+04  0.15294330000E+03 0.  1.
<mgrwt>
<rscale>  0 0.87015513E+03</rscale>
<asrwt>0</asrwt>
<pdfrwt beam="1">  1        2 0.60211258E+00 0.87015513E+03</pdfrwt>
<pdfrwt beam="2">  1       -2 0.16412513E+00 0.87015513E+03</pdfrwt>
<totfact> 0.10144192E-01</totfact>
</mgrwt>
</event>
<event>
 4    1  0.1726795E-008  0.7761737E+03  0.7818608E-02  0.9595160E-01
         -2   -1    0    0    0  501 -0.00000000000E+00  0.00000000000E+00  0.13253036401E+04  0.13253036401E+04  0.25500000000E-02 0.  1.
          2   -1    0    0  501    0  0.00000000000E+00 -0.00000000000E+00 -0.15186236222E+04  0.15186236222E+04  0.25500000000E-02 0. -1.
    8880022    1    1    2    0    0 -0.38936408949E+03 -0.65379623695E+03 -0.12869281551E+04  0.15028737948E+04  0.15294330000E+03 0.  0.
    8880022    1    1    2    0    0  0.38936408949E+03  0.65379623695E+03  0.10936081730E+04  0.13410534675E+04  0.15294330000E+03 0.  0.
<mgrwt>
<rscale>  0 0.77617367E+03</rscale>
<asrwt>0</asrwt>
<pdfrwt beam="1">  1        2 0.23363440E+00 0.77617367E+03</pdfrwt>
<pdfrwt beam="2">  1       -2 0.20389287E+00 0.77617367E+03</pdfrwt>
<totfact> 0.15984561E+00</totfact>
</mgrwt>
</event>
<event>
 4    1  0.1726795E-008  0.8966514E+03  0.7818608E-02  0.9429777E-01
         -2   -1    0    0    0  501 -0.00000000000E+00  0.00000000000E+00  0.50362155773E+03  0.50362155774E+03  0.25500000000E-02 0.  1.
          2   -1    0    0  501    0  0.00000000000E+00 -0.00000000000E+00 -0.19502996064E+04  0.19502996064E+04  0.25500000000E-02 0. -1.
    8880022    1    1    2    0    0 -0.48029590389E+03  0.74155779693E+03 -0.12459964893E+04  0.15350866509E+04  0.15294330000E+03 0.  0.
    8880022    1    1    2    0    0  0.48029590389E+03 -0.74155779693E+03 -0.20068155944E+03  0.91883451328E+03  0.15294330000E+03 0.  0.
<mgrwt>
<rscale>  0 0.89665142E+03</rscale>
<asrwt>0</asrwt>
<pdfrwt beam="1">  1        2 0.30004609E+00 0.89665142E+03</pdfrwt>
<pdfrwt beam="2">  1       -2 0.77480241E-01 0.89665142E+03</pdfrwt>
<totfact> 0.10721068E+01</totfact>
</mgrwt>
</event>
<event>
 4    1  0.1726795E-008  0.6082601E+03  0.7818608E-02  0.9888416E-01
          2   -1    0    0  501    0  0.00000000000E+00  0.00000000000E+00  0.52347456397E+03  0.52347456398E+03  0.25500000000E-02 0. -1.
         -2   -1    0    0    0  501 -0.00000000000E+00 -0.00000000000E+00 -0.85425814379E+03  0.85425814379E+03  0.25500000000E-02 0.  1.
    8880022    1    1    2    0    0  0.44481609699E+03  0.38565189352E+03  0.12083279236E+03  0.62014591819E+03  0.15294330000E+03 0.  0.
    8880022    1    1    2    0    0 -0.44481609699E+03 -0.38565189352E+03 -0.45161637217E+03  0.75758678958E+03  0.15294330000E+03 0.  0.
<mgrwt>
<rscale>  0 0.60826014E+03</rscale>
<asrwt>0</asrwt>
<pdfrwt beam="1">  1        2 0.80534548E-01 0.60826014E+03</pdfrwt>
<pdfrwt beam="2">  1       -2 0.13142433E+00 0.60826014E+03</pdfrwt>
<totfact> 0.25294893E+01</totfact>
</mgrwt>
</event>
<event>
 4    1  0.1726795E-008  0.1055768E+04  0.7818608E-02  0.9249409E-01
         -2   -1    0    0    0  501 -0.00000000000E+00  0.00000000000E+00  0.15926774915E+04  0.15926774915E+04  0.25500000000E-02 0.  1.
          2   -1    0    0  501    0  0.00000000000E+00 -0.00000000000E+00 -0.18239125947E+04  0.18239125947E+04  0.25500000000E-02 0. -1.
    8880022    1    1    2    0    0  0.56385705584E+03 -0.87938640760E+03 -0.14566976493E+04  0.17990594564E+04  0.15294330000E+03 0.  0.
    8880022    1    1    2    0    0 -0.56385705584E+03  0.87938640760E+03  0.12254625461E+04  0.16175306297E+04  0.15294330000E+03 0.  0.
<mgrwt>
<rscale>  0 0.10557684E+04</rscale>
<asrwt>0</asrwt>
<pdfrwt beam="1">  1        2 0.28060194E+00 0.10557684E+04</pdfrwt>
<pdfrwt beam="2">  1       -2 0.24502731E+00 0.10557684E+04</pdfrwt>
<totfact> 0.57241249E-01</totfact>
</mgrwt>
</event>
<event>
 4    1  0.1726795E-008  0.9646971E+03  0.7818608E-02  0.9348135E-01
         -2   -1    0    0    0  501 -0.00000000000E+00  0.00000000000E+00  0.11836452561E+04  0.11836452561E+04  0.25500000000E-02 0.  1.
          2   -1    0    0  501    0  0.00000000000E+00 -0.00000000000E+00 -0.94048585911E+03  0.94048585911E+03  0.25500000000E-02 0. -1.
    8880022    1    1    2    0    0 -0.32256106629E+03  0.89621606436E+03  0.55167879231E+03  0.11113010476E+04  0.15294330000E+03 0.  0.
    8880022    1    1    2    0    0  0.32256106629E+03 -0.89621606436E+03 -0.30851939535E+03  0.10128300676E+04  0.15294330000E+03 0.  0.
<mgrwt>
<rscale>  0 0.96469712E+03</rscale>
<asrwt>0</asrwt>
<pdfrwt beam="1">  1        2 0.14469013E+00 0.96469712E+03</pdfrwt>
<pdfrwt beam="2">  1       -2 0.18209927E+00 0.96469712E+03</pdfrwt>
<totfact> 0.48077140E+00</totfact>
</mgrwt>
</event>
<event>
 4    1  0.1726795E-008  0.7524573E+03  0.7818608E-02  0.9631503E-01
         -2   -1    0    0    0  501 -0.00000000000E+00  0.00000000000E+00  0.10779467233E+04  0.10779467233E+04  0.25500000000E-02 0.  1.
          2   -1    0    0  501    0  0.00000000000E+00 -0.00000000000E+00 -0.94995482740E+03  0.94995482741E+03  0.25500000000E-02 0. -1.
    8880022    1    1    2    0    0 -0.68743052463E+03 -0.26502756917E+03 -0.61397138427E+03  0.97116056980E+03  0.15294330000E+03 0.  0.
    8880022    1    1    2    0    0  0.68743052463E+03  0.26502756917E+03  0.74196328017E+03  0.10567409809E+04  0.15294330000E+03 0.  0.
<mgrwt>
<rscale>  0 0.75245730E+03</rscale>
<asrwt>0</asrwt>
<pdfrwt beam="1">  1        2 0.14614690E+00 0.75245730E+03</pdfrwt>
<pdfrwt beam="2">  1       -2 0.16583796E+00 0.75245730E+03</pdfrwt>
<totfact> 0.63157824E+00</totfact>
</mgrwt>
</event>
<event>
 4    1  0.1726795E-008  0.2292709E+04  0.7818608E-02  0.8480801E-01
         -2   -1    0    0    0  501 -0.00000000000E+00  0.00000000000E+00  0.28030973377E+04  0.28030973377E+04  0.25500000000E-02 0.  1.
          2   -1    0    0  501    0  0.00000000000E+00 -0.00000000000E+00 -0.24546905602E+04  0.24546905602E+04  0.25500000000E-02 0. -1.
    8880022    1    1    2    0    0  0.17584566391E+04 -0.14631998251E+04 -0.11030534029E+04  0.25442566582E+04  0.15294330000E+03 0.  0.
    8880022    1    1    2    0    0 -0.17584566391E+04  0.14631998251E+04  0.14514601805E+04  0.27135312396E+04  0.15294330000E+03 0.  0.
<mgrwt>
<rscale>  0 0.22927091E+04</rscale>
<asrwt>0</asrwt>
<pdfrwt beam="1">  1        2 0.37764470E+00 0.22927091E+04</pdfrwt>
<pdfrwt beam="2">  1       -2 0.43124574E+00 0.22927091E+04</pdfrwt>
<totfact> 0.14583849E-02</totfact>
</mgrwt>
</event>
<event>
 4    1  0.1726795E-008  0.5855687E+03  0.7818608E-02  0.9935807E-01
          2   -1    0    0  501    0  0.00000000000E+00  0.00000000000E+00  0.19470097350E+04  0.19470097350E+04  0.25500000000E-02 0. -1.
         -2   -1    0    0    0  501 -0.00000000000E+00 -0.00000000000E+00 -0.42264959414E+03  0.42264959415E+03  0.25500000000E-02 0.  1.
    8880022    1    1    2    0    0 -0.53807193862E+03 -0.17314036676E+03  0.16670950510E+04  0.17669455452E+04  0.15294330000E+03 0. -1.
    8880022    1    1    2    0    0  0.53807193862E+03  0.17314036676E+03 -0.14273491015E+03  0.60271378391E+03  0.15294330000E+03 0.  0.
<mgrwt>
<rscale>  0 0.58556866E+03</rscale>
<asrwt>0</asrwt>
<pdfrwt beam="1">  1        2 0.29953995E+00 0.58556866E+03</pdfrwt>
<pdfrwt beam="2">  1       -2 0.65023016E-01 0.58556866E+03</pdfrwt>
<totfact> 0.16548303E+01</totfact>
</mgrwt>
</event>
<event>
 4    1  0.1726795E-008  0.3959311E+03  0.7818608E-02  0.1045198E+00
         -2   -1    0    0    0  501 -0.00000000000E+00  0.00000000000E+00  0.22278369703E+03  0.22278369704E+03  0.25500000000E-02 0.  1.
          2   -1    0    0  501    0  0.00000000000E+00 -0.00000000000E+00 -0.24418529260E+04  0.24418529260E+04  0.25500000000E-02 0. -1.
    8880022    1    1    2    0    0  0.58963983137E+02  0.36040677096E+03  0.14549095521E+02  0.39619833550E+03  0.15294330000E+03 0.  0.
    8880022    1    1    2    0    0 -0.58963983137E+02 -0.36040677096E+03 -0.22336183245E+04  0.22684382876E+04  0.15294330000E+03 0.  0.
<mgrwt>
<rscale>  0 0.39593111E+03</rscale>
<asrwt>0</asrwt>
<pdfrwt beam="1">  1        2 0.37566966E+00 0.39593111E+03</pdfrwt>
<pdfrwt beam="2">  1       -2 0.34274417E-01 0.39593111E+03</pdfrwt>
<totfact> 0.33470997E+01</totfact>
</mgrwt>
</event>
<event>
 4    1  0.1726795E-008  0.1151414E+04  0.7818608E-02  0.9156480E-01
          2   -1    0    0  501    0  0.00000000000E+00  0.00000000000E+00  0.10950588935E+04  0.10950588935E+04  0.25500000000E-02 0. -1.
         -2   -1    0    0    0  501 -0.00000000000E+00 -0.00000000000E+00 -0.12918936742E+04  0.12918936742E+04  0.25500000000E-02 0.  1.
    8880022    1    1    2    0    0 -0.11056721060E+04 -0.28258241982E+03  0.20083726239E+03  0.11687989087E+04  0.15294330000E+03 0.  0.
    8880022    1    1    2    0    0  0.11056721060E+04  0.28258241982E+03 -0.39767204317E+03  0.12181536590E+04  0.15294330000E+03 0.  0.
<mgrwt>
<rscale>  0 0.11514145E+04</rscale>
<asrwt>0</asrwt>
<pdfrwt beam="1">  1        2 0.16847060E+00 0.11514145E+04</pdfrwt>
<pdfrwt beam="2">  1       -2 0.19875287E+00 0.11514145E+04</pdfrwt>
<totfact> 0.29033748E+00</totfact>
</mgrwt>
</event>
<event>
 4    1  0.1726795E-008  0.9932649E+03  0.7818608E-02  0.9315963E-01
          2   -1    0    0  501    0  0.00000000000E+00  0.00000000000E+00  0.27462700879E+04  0.27462700879E+04  0.25500000000E-02 0. -1.
         -2   -1    0    0    0  501 -0.00000000000E+00 -0.00000000000E+00 -0.48033834642E+03  0.48033834643E+03  0.25500000000E-02 0.  1.
    8880022    1    1    2    0    0  0.46871356062E+03  0.86225929280E+03  0.19430095386E+04  0.21821689234E+04  0.15294330000E+03 0.  0.
    8880022    1    1    2    0    0 -0.46871356062E+03 -0.86225929280E+03  0.32292220284E+03  0.10444395109E+04  0.15294330000E+03 0.  0.
<mgrwt>
<rscale>  0 0.99326489E+03</rscale>
<asrwt>0</asrwt>
<pdfrwt beam="1">  1        2 0.42250309E+00 0.99326489E+03</pdfrwt>
<pdfrwt beam="2">  1       -2 0.73898207E-01 0.99326489E+03</pdfrwt>
<totfact> 0.41801513E+00</totfact>
</mgrwt>
</event>
<event>
 4    1  0.1726795E-008  0.1510840E+04  0.7818608E-02  0.8877276E-01
         -2   -1    0    0    0  501 -0.00000000000E+00  0.00000000000E+00  0.93795203120E+03  0.93795203120E+03  0.25500000000E-02 0.  1.
          2   -1    0    0  501    0  0.00000000000E+00 -0.00000000000E+00 -0.27433902077E+04  0.27433902077E+04  0.25500000000E-02 0. -1.
    8880022    1    1    2    0    0  0.14912547158E+04 -0.18816438313E+03 -0.15212163909E+04  0.21440003320E+04  0.15294330000E+03 0.  0.
    8880022    1    1    2    0    0 -0.14912547158E+04  0.18816438313E+03 -0.28422178563E+03  0.15373419070E+04  0.15294330000E+03 0.  0.
<mgrwt>
<rscale>  0 0.15108402E+04</rscale>
<asrwt>0</asrwt>
<pdfrwt beam="1">  1        2 0.42206003E+00 0.15108402E+04</pdfrwt>
<pdfrwt beam="2">  1       -2 0.14430031E+00 0.15108402E+04</pdfrwt>
<totfact> 0.78507090E-01</totfact>
</mgrwt>
</event>
<event>
 4    1  0.1726795E-008  0.1470508E+04  0.7818608E-02  0.8904305E-01
          2   -1    0    0  501    0  0.00000000000E+00  0.00000000000E+00  0.15370024486E+04  0.15370024486E+04  0.25500000000E-02 0. -1.
         -2   -1    0    0    0  501 -0.00000000000E+00 -0.00000000000E+00 -0.27185895749E+04  0.27185895749E+04  0.25500000000E-02 0.  1.
    8880022    1    1    2    0    0 -0.11779096569E+04  0.86690929377E+03  0.88720914821E+03  0.17174209178E+04  0.15294330000E+03 0.  0.
    8880022    1    1    2    0    0  0.11779096569E+04 -0.86690929377E+03 -0.20687962744E+04  0.25381711056E+04  0.15294330000E+03 0.  0.
<mgrwt>
<rscale>  0 0.14705083E+04</rscale>
<asrwt>0</asrwt>
<pdfrwt beam="1">  1        2 0.23646192E+00 0.14705083E+04</pdfrwt>
<pdfrwt beam="2">  1       -2 0.41824455E+00 0.14705083E+04</pdfrwt>
<totfact> 0.64426810E-02</totfact>
</mgrwt>
</event>
<event>
 4    1  0.1726795E-008  0.1213359E+04  0.7818608E-02  0.9101243E-01
         -2   -1    0    0    0  501 -0.00000000000E+00  0.00000000000E+00  0.19177574762E+04  0.19177574762E+04  0.25500000000E-02 0.  1.
          2   -1    0    0  501    0  0.00000000000E+00 -0.00000000000E+00 -0.79720866115E+03  0.79720866116E+03  0.25500000000E-02 0. -1.
    8880022    1    1    2    0    0  0.11640983566E+04 -0.30614409515E+03  0.82149410632E+03  0.14652963559E+04  0.15294330000E+03 0.  0.
    8880022    1    1    2    0    0 -0.11640983566E+04  0.30614409515E+03  0.29905470876E+03  0.12496697815E+04  0.15294330000E+03 0.  0.
<mgrwt>
<rscale>  0 0.12133593E+04</rscale>
<asrwt>0</asrwt>
<pdfrwt beam="1">  1        2 0.12264749E+00 0.12133593E+04</pdfrwt>
<pdfrwt beam="2">  1       -2 0.29503961E+00 0.12133593E+04</pdfrwt>
<totfact> 0.11545257E+00</totfact>
</mgrwt>
</event>
<event>
 4    1  0.1726795E-008  0.5825037E+03  0.7818608E-02  0.9942385E-01
          2   -1    0    0  501    0  0.00000000000E+00  0.00000000000E+00  0.15808014546E+04  0.15808014546E+04  0.25500000000E-02 0. -1.
         -2   -1    0    0    0  501 -0.00000000000E+00 -0.00000000000E+00 -0.59206205729E+03  0.59206205729E+03  0.25500000000E-02 0.  1.
    8880022    1    1    2    0    0  0.29163561103E+03 -0.48048680957E+03 -0.37305105043E+03  0.69172078401E+03  0.15294330000E+03 0.  0.
    8880022    1    1    2    0    0 -0.29163561103E+03  0.48048680957E+03  0.13617904477E+04  0.14811427279E+04  0.15294330000E+03 0.  0.
<mgrwt>
<rscale>  0 0.58250370E+03</rscale>
<asrwt>0</asrwt>
<pdfrwt beam="1">  1        2 0.24320022E+00 0.58250370E+03</pdfrwt>
<pdfrwt beam="2">  1       -2 0.91086473E-01 0.58250370E+03</pdfrwt>
<totfact> 0.12369570E+01</totfact>
</mgrwt>
</event>
<event>
 4    1  0.1726795E-008  0.7501602E+03  0.7818608E-02  0.9635099E-01
          2   -1    0    0  501    0  0.00000000000E+00  0.00000000000E+00  0.57602086258E+03  0.57602086259E+03  0.25500000000E-02 0. -1.
         -2   -1    0    0    0  501 -0.00000000000E+00 -0.00000000000E+00 -0.15929792012E+04  0.15929792012E+04  0.25500000000E-02 0.  1.
    8880022    1    1    2    0    0 -0.69377517678E+03 -0.24088322751E+03  0.16593568359E+03  0.76829358276E+03  0.15294330000E+03 0.  0.
    8880022    1    1    2    0    0  0.69377517678E+03  0.24088322751E+03 -0.11828940223E+04  0.14007064811E+04  0.15294330000E+03 0.  0.
<mgrwt>
<rscale>  0 0.75016024E+03</rscale>
<asrwt>0</asrwt>
<pdfrwt beam="1">  1        2 0.88618595E-01 0.75016024E+03</pdfrwt>
<pdfrwt beam="2">  1       -2 0.24507372E+00 0.75016024E+03</pdfrwt>
<totfact> 0.36929980E+00</totfact>
</mgrwt>
</event>
<event>
 4    1  0.1726795E-008  0.7111492E+03  0.7818608E-02  0.9698353E-01
          2   -1    0    0  501    0  0.00000000000E+00  0.00000000000E+00  0.33848911772E+04  0.33848911772E+04  0.25500000000E-02 0. -1.
         -2   -1    0    0    0  501 -0.00000000000E+00 -0.00000000000E+00 -0.67245569905E+03  0.67245569906E+03  0.25500000000E-02 0.  1.
    8880022    1    1    2    0    0 -0.55301642202E+03 -0.42013615475E+03 -0.43294784912E+03  0.83257254616E+03  0.15294330000E+03 0.  0.
    8880022    1    1    2    0    0  0.55301642202E+03  0.42013615475E+03  0.31453833273E+04  0.32247743301E+04  0.15294330000E+03 0.  0.
<mgrwt>
<rscale>  0 0.71114921E+03</rscale>
<asrwt>0</asrwt>
<pdfrwt beam="1">  1        2 0.52075250E+00 0.71114921E+03</pdfrwt>
<pdfrwt beam="2">  1       -2 0.10345472E+00 0.71114921E+03</pdfrwt>
<totfact> 0.81356282E-01</totfact>
</mgrwt>
</event>
<event>
 4    1  0.1726795E-008  0.1873831E+04  0.7818608E-02  0.8667993E-01
         -2   -1    0    0    0  501 -0.00000000000E+00  0.00000000000E+00  0.20905632976E+04  0.20905632976E+04  0.25500000000E-02 0.  1.
          2   -1    0    0  501    0  0.00000000000E+00 -0.00000000000E+00 -0.25051879962E+04  0.25051879962E+04  0.25500000000E-02 0. -1.
    8880022    1    1    2    0    0  0.18430094253E+04 -0.30193996873E+03  0.11118446088E+04  0.21788624494E+04  0.15294330000E+03 0.  0.
    8880022    1    1    2    0    0 -0.18430094253E+04  0.30193996873E+03 -0.15264693074E+04  0.24168888443E+04  0.15294330000E+03 0.  0.
<mgrwt>
<rscale>  0 0.18738311E+04</rscale>
<asrwt>0</asrwt>
<pdfrwt beam="1">  1        2 0.38541354E+00 0.18738311E+04</pdfrwt>
<pdfrwt beam="2">  1       -2 0.32162512E+00 0.18738311E+04</pdfrwt>
<totfact> 0.72559359E-02</totfact>
</mgrwt>
</event>
<event>
 4    1  0.1726795E-008  0.7596393E+03  0.7818608E-02  0.9620348E-01
         -2   -1    0    0    0  501 -0.00000000000E+00  0.00000000000E+00  0.10630103072E+04  0.10630103072E+04  0.25500000000E-02 0.  1.
          2   -1    0    0  501    0  0.00000000000E+00 -0.00000000000E+00 -0.19640098430E+04  0.19640098430E+04  0.25500000000E-02 0. -1.
    8880022    1    1    2    0    0  0.73407483357E+03 -0.12163230499E+03  0.83696517388E+03  0.11302931629E+04  0.15294330000E+03 0.  0.
    8880022    1    1    2    0    0 -0.73407483357E+03  0.12163230499E+03 -0.17379647097E+04  0.18967269872E+04  0.15294330000E+03 0.  0.
<mgrwt>
<rscale>  0 0.75963934E+03</rscale>
<asrwt>0</asrwt>
<pdfrwt beam="1">  1        2 0.30215536E+00 0.75963934E+03</pdfrwt>
<pdfrwt beam="2">  1       -2 0.16354005E+00 0.75963934E+03</pdfrwt>
<totfact> 0.17202401E+00</totfact>
</mgrwt>
</event>
<event>
 4    1  0.1726795E-008  0.7070658E+03  0.7818608E-02  0.9705224E-01
         -2   -1    0    0    0  501 -0.00000000000E+00  0.00000000000E+00  0.11069487818E+04  0.11069487818E+04  0.25500000000E-02 0.  1.
          2   -1    0    0  501    0  0.00000000000E+00 -0.00000000000E+00 -0.53485020634E+03  0.53485020635E+03  0.25500000000E-02 0. -1.
    8880022    1    1    2    0    0  0.42594002666E+03 -0.54325456326E+03  0.60983884312E+03  0.93372667007E+03  0.15294330000E+03 0.  0.
    8880022    1    1    2    0    0 -0.42594002666E+03  0.54325456326E+03 -0.37740267667E+02  0.70807231808E+03  0.15294330000E+03 0.  0.
<mgrwt>
<rscale>  0 0.70706582E+03</rscale>
<asrwt>0</asrwt>
<pdfrwt beam="1">  1        2 0.82284649E-01 0.70706582E+03</pdfrwt>
<pdfrwt beam="2">  1       -2 0.17029981E+00 0.70706582E+03</pdfrwt>
<totfact> 0.12312552E+01</totfact>
</mgrwt>
</event>
<event>
 4    1  0.1726795E-008  0.4510970E+03  0.7818608E-02  0.1027395E+00
          2   -1    0    0  501    0  0.00000000000E+00  0.00000000000E+00  0.20497494502E+04  0.20497494502E+04  0.25500000000E-02 0. -1.
         -2   -1    0    0    0  501 -0.00000000000E+00 -0.00000000000E+00 -0.45291937768E+03  0.45291937769E+03  0.25500000000E-02 0.  1.
    8880022    1    1    2    0    0  0.23312627015E+03  0.35461109917E+03  0.19041382230E+04  0.19568420771E+04  0.15294330000E+03 0.  0.
    8880022    1    1    2    0    0 -0.23312627015E+03 -0.35461109917E+03 -0.30730815048E+03  0.54582675077E+03  0.15294330000E+03 0.  1.
<mgrwt>
<rscale>  0 0.45109704E+03</rscale>
<asrwt>0</asrwt>
<pdfrwt beam="1">  1        2 0.31534607E+00 0.45109704E+03</pdfrwt>
<pdfrwt beam="2">  1       -2 0.69679904E-01 0.45109704E+03</pdfrwt>
<totfact> 0.12920626E+01</totfact>
</mgrwt>
</event>
<event>
 4    1  0.1726795E-008  0.3744268E+03  0.7818608E-02  0.1053013E+00
          2   -1    0    0  501    0  0.00000000000E+00  0.00000000000E+00  0.19217341291E+03  0.19217341293E+03  0.25500000000E-02 0. -1.
         -2   -1    0    0    0  501 -0.00000000000E+00 -0.00000000000E+00 -0.11570695633E+04  0.11570695633E+04  0.25500000000E-02 0.  1.
    8880022    1    1    2    0    0  0.19056436484E+03  0.28370585255E+03 -0.89253014516E+03  0.96788713234E+03  0.15294330000E+03 0.  0.
    8880022    1    1    2    0    0 -0.19056436484E+03 -0.28370585255E+03 -0.72366005191E+02  0.38135584385E+03  0.15294330000E+03 0.  0.
<mgrwt>
<rscale>  0 0.37442682E+03</rscale>
<asrwt>0</asrwt>
<pdfrwt beam="1">  1        2 0.29565141E-01 0.37442682E+03</pdfrwt>
<pdfrwt beam="2">  1       -2 0.17801070E+00 0.37442682E+03</pdfrwt>
<totfact> 0.35475620E+01</totfact>
</mgrwt>
</event>
<event>
 4    1  0.1726795E-008  0.3593977E+03  0.7818608E-02  0.1058823E+00
          2   -1    0    0  501    0  0.00000000000E+00  0.00000000000E+00  0.12395157165E+04  0.12395157165E+04  0.25500000000E-02 0. -1.
         -2   -1    0    0    0  501 -0.00000000000E+00 -0.00000000000E+00 -0.21505006779E+03  0.21505006781E+03  0.25500000000E-02 0.  1.
    8880022    1    1    2    0    0  0.28846743396E+03 -0.15020527004E+03  0.10343728942E+04  0.10950315159E+04  0.15294330000E+03 0.  0.
    8880022    1    1    2    0    0 -0.28846743396E+03  0.15020527004E+03 -0.99072455097E+01  0.35953426837E+03  0.15294330000E+03 0.  1.
<mgrwt>
<rscale>  0 0.35939774E+03</rscale>
<asrwt>0</asrwt>
<pdfrwt beam="1">  1        2 0.19069473E+00 0.35939774E+03</pdfrwt>
<pdfrwt beam="2">  1       -2 0.33084625E-01 0.35939774E+03</pdfrwt>
<totfact> 0.16126827E+02</totfact>
</mgrwt>
</event>
<event>
 4    1  0.1726795E-008  0.8612011E+03  0.7818608E-02  0.9475425E-01
          2   -1    0    0  501    0  0.00000000000E+00  0.00000000000E+00  0.86054443035E+03  0.86054443035E+03  0.25500000000E-02 0. -1.
         -2   -1    0    0    0  501 -0.00000000000E+00 -0.00000000000E+00 -0.15157070160E+04  0.15157070160E+04  0.25500000000E-02 0.  1.
    8880022    1    1    2    0    0  0.77301061583E+03  0.34746256688E+03 -0.11079384691E+04  0.14032800689E+04  0.15294330000E+03 0.  0.
    8880022    1    1    2    0    0 -0.77301061583E+03 -0.34746256688E+03  0.45277588346E+03  0.97297137739E+03  0.15294330000E+03 0.  0.
<mgrwt>
<rscale>  0 0.86120108E+03</rscale>
<asrwt>0</asrwt>
<pdfrwt beam="1">  1        2 0.13239145E+00 0.86120108E+03</pdfrwt>
<pdfrwt beam="2">  1       -2 0.23318570E+00 0.86120108E+03</pdfrwt>
<totfact> 0.25801591E+00</totfact>
</mgrwt>
</event>
<event>
 4    1  0.1726795E-008  0.5850520E+03  0.7818608E-02  0.9936913E-01
          2   -1    0    0  501    0  0.00000000000E+00  0.00000000000E+00  0.33125786392E+04  0.33125786392E+04  0.25500000000E-02 0. -1.
         -2   -1    0    0    0  501 -0.00000000000E+00 -0.00000000000E+00 -0.20863919236E+03  0.20863919237E+03  0.25500000000E-02 0.  1.
    8880022    1    1    2    0    0 -0.56467124075E+03 -0.63737830427E+01  0.30113516012E+03  0.65800324689E+03  0.15294330000E+03 0.  0.
    8880022    1    1    2    0    0  0.56467124075E+03  0.63737830427E+01  0.28028042867E+04  0.28632145847E+04  0.15294330000E+03 0.  0.
<mgrwt>
<rscale>  0 0.58505204E+03</rscale>
<asrwt>0</asrwt>
<pdfrwt beam="1">  1        2 0.50962743E+00 0.58505204E+03</pdfrwt>
<pdfrwt beam="2">  1       -2 0.32098340E-01 0.58505204E+03</pdfrwt>
<totfact> 0.10959765E+01</totfact>
</mgrwt>
</event>
<event>
 4    1  0.1726795E-008  0.4806548E+03  0.7818608E-02  0.1018955E+00
         -2   -1    0    0    0  501 -0.00000000000E+00  0.00000000000E+00  0.45967465006E+03  0.45967465006E+03  0.25500000000E-02 0.  1.
          2   -1    0    0  501    0  0.00000000000E+00 -0.00000000000E+00 -0.11841728872E+04  0.11841728872E+04  0.25500000000E-02 0. -1.
    8880022    1    1    2    0    0  0.44150448262E+03  0.11274379039E+03  0.26131703063E+03  0.54709744466E+03  0.15294330000E+03 0.  0.
    8880022    1    1    2    0    0 -0.44150448262E+03 -0.11274379039E+03 -0.98581526777E+03  0.10967500926E+04  0.15294330000E+03 0.  0.
<mgrwt>
<rscale>  0 0.48065479E+03</rscale>
<asrwt>0</asrwt>
<pdfrwt beam="1">  1        2 0.18218044E+00 0.48065479E+03</pdfrwt>
<pdfrwt beam="2">  1       -2 0.70719177E-01 0.48065479E+03</pdfrwt>
<totfact> 0.37051919E+01</totfact>
</mgrwt>
</event>
<event>
 4    1  0.1726795E-008  0.9837959E+03  0.7818608E-02  0.9326498E-01
         -2   -1    0    0    0  501 -0.00000000000E+00  0.00000000000E+00  0.63112753840E+03  0.63112753840E+03  0.25500000000E-02 0.  1.
          2   -1    0    0  501    0  0.00000000000E+00 -0.00000000000E+00 -0.35584209059E+04  0.35584209059E+04  0.25500000000E-02 0. -1.
    8880022    1    1    2    0    0  0.51209614488E+03 -0.82596620528E+03 -0.30438361451E+04  0.31988736713E+04  0.15294330000E+03 0.  0.
    8880022    1    1    2    0    0 -0.51209614488E+03  0.82596620528E+03  0.11654277757E+03  0.99067477301E+03  0.15294330000E+03 0.  0.
<mgrwt>
<rscale>  0 0.98379586E+03</rscale>
<asrwt>0</asrwt>
<pdfrwt beam="1">  1        2 0.54744936E+00 0.98379586E+03</pdfrwt>
<pdfrwt beam="2">  1       -2 0.97096547E-01 0.98379586E+03</pdfrwt>
<totfact> 0.68000328E-01</totfact>
</mgrwt>
</event>
<event>
 4    1  0.1726795E-008  0.1102118E+04  0.7818608E-02  0.9203130E-01
          2   -1    0    0  501    0  0.00000000000E+00  0.00000000000E+00  0.29660789760E+04  0.29660789760E+04  0.25500000000E-02 0. -1.
         -2   -1    0    0    0  501 -0.00000000000E+00 -0.00000000000E+00 -0.56656619525E+03  0.56656619525E+03  0.25500000000E-02 0.  1.
    8880022    1    1    2    0    0 -0.59519211292E+03 -0.91488741446E+03  0.26980458263E+03  0.11346624160E+04  0.15294330000E+03 0.  0.
    8880022    1    1    2    0    0  0.59519211292E+03  0.91488741446E+03  0.21297081982E+04  0.23979827553E+04  0.15294330000E+03 0.  0.
<mgrwt>
<rscale>  0 0.11021181E+04</rscale>
<asrwt>0</asrwt>
<pdfrwt beam="1">  1        2 0.45631985E+00 0.11021181E+04</pdfrwt>
<pdfrwt beam="2">  1       -2 0.87164029E-01 0.11021181E+04</pdfrwt>
<totfact> 0.20897875E+00</totfact>
</mgrwt>
</event>
<event>
 4    1  0.1726795E-008  0.1980195E+04  0.7818608E-02  0.8615936E-01
         -2   -1    0    0    0  501 -0.00000000000E+00  0.00000000000E+00  0.11691811356E+04  0.11691811356E+04  0.25500000000E-02 0.  1.
          2   -1    0    0  501    0  0.00000000000E+00 -0.00000000000E+00 -0.41323993299E+04  0.41323993299E+04  0.25500000000E-02 0. -1.
    8880022    1    1    2    0    0 -0.66571475464E+03  0.18586567996E+04 -0.26322442223E+04  0.32939159874E+04  0.15294330000E+03 0.  0.
    8880022    1    1    2    0    0  0.66571475464E+03 -0.18586567996E+04 -0.33097397197E+03  0.20076644780E+04  0.15294330000E+03 0.  0.
<mgrwt>
<rscale>  0 0.19801952E+04</rscale>
<asrwt>0</asrwt>
<pdfrwt beam="1">  1        2 0.63575373E+00 0.19801952E+04</pdfrwt>
<pdfrwt beam="2">  1       -2 0.17987402E+00 0.19801952E+04</pdfrwt>
<totfact> 0.43570063E-02</totfact>
</mgrwt>
</event>
<event>
 4    1  0.1726795E-008  0.1064446E+04  0.7818608E-02  0.9240555E-01
         -2   -1    0    0    0  501 -0.00000000000E+00  0.00000000000E+00  0.12576450482E+04  0.12576450482E+04  0.25500000000E-02 0.  1.
          2   -1    0    0  501    0  0.00000000000E+00 -0.00000000000E+00 -0.19518063317E+04  0.19518063317E+04  0.25500000000E-02 0. -1.
    8880022    1    1    2    0    0 -0.32781614648E+03  0.10010946460E+04 -0.15245754544E+04  0.18594020236E+04  0.15294330000E+03 0.  0.
    8880022    1    1    2    0    0  0.32781614648E+03 -0.10010946460E+04  0.83041417099E+03  0.13500493563E+04  0.15294330000E+03 0.  0.
<mgrwt>
<rscale>  0 0.10644461E+04</rscale>
<asrwt>0</asrwt>
<pdfrwt beam="1">  1        2 0.30027790E+00 0.10644461E+04</pdfrwt>
<pdfrwt beam="2">  1       -2 0.19348385E+00 0.10644461E+04</pdfrwt>
<totfact> 0.10318421E+00</totfact>
</mgrwt>
</event>
<event>
 4    1  0.1726795E-008  0.3976394E+03  0.7818608E-02  0.1044600E+00
         -2   -1    0    0    0  501 -0.00000000000E+00  0.00000000000E+00  0.35617048734E+03  0.35617048735E+03  0.25500000000E-02 0.  1.
          2   -1    0    0  501    0  0.00000000000E+00 -0.00000000000E+00 -0.24866164120E+04  0.24866164120E+04  0.25500000000E-02 0. -1.
    8880022    1    1    2    0    0  0.35038048510E+03 -0.10935717209E+03 -0.23535023443E+04  0.23868578535E+04  0.15294330000E+03 0.  0.
    8880022    1    1    2    0    0 -0.35038048510E+03  0.10935717209E+03  0.22305641965E+03  0.45592904579E+03  0.15294330000E+03 0.  0.
<mgrwt>
<rscale>  0 0.39763945E+03</rscale>
<asrwt>0</asrwt>
<pdfrwt beam="1">  1        2 0.38255636E+00 0.39763945E+03</pdfrwt>
<pdfrwt beam="2">  1       -2 0.54795461E-01 0.39763945E+03</pdfrwt>
<totfact> 0.12588286E+01</totfact>
</mgrwt>
</event>
<event>
 4    1  0.1726795E-008  0.3410806E+03  0.7818608E-02  0.1066337E+00
         -2   -1    0    0    0  501 -0.00000000000E+00  0.00000000000E+00  0.39211347529E+03  0.39211347530E+03  0.25500000000E-02 0.  1.
          2   -1    0    0  501    0  0.00000000000E+00 -0.00000000000E+00 -0.27256792383E+04  0.27256792383E+04  0.25500000000E-02 0. -1.
    8880022    1    1    2    0    0  0.21345690831E+03  0.21767058942E+03  0.30482701606E+03  0.45744453209E+03  0.15294330000E+03 0.  0.
    8880022    1    1    2    0    0 -0.21345690831E+03 -0.21767058942E+03 -0.26383927791E+04  0.26603481815E+04  0.15294330000E+03 0.  0.
<mgrwt>
<rscale>  0 0.34108062E+03</rscale>
<asrwt>0</asrwt>
<pdfrwt beam="1">  1        2 0.41933526E+00 0.34108062E+03</pdfrwt>
<pdfrwt beam="2">  1       -2 0.60325152E-01 0.34108062E+03</pdfrwt>
<totfact> 0.77278534E+00</totfact>
</mgrwt>
</event>
<event>
 4    1  0.1726795E-008  0.4700532E+03  0.7818608E-02  0.1021905E+00
         -2   -1    0    0    0  501 -0.00000000000E+00  0.00000000000E+00  0.92533080600E+02  0.92533080635E+02  0.25500000000E-02 0.  1.
          2   -1    0    0  501    0  0.00000000000E+00 -0.00000000000E+00 -0.36599438156E+04  0.36599438156E+04  0.25500000000E-02 0. -1.
    8880022    1    1    2    0    0  0.30268421701E+03 -0.32548526682E+03 -0.28898699381E+04  0.29278487505E+04  0.15294330000E+03 0.  0.
    8880022    1    1    2    0    0 -0.30268421701E+03  0.32548526682E+03 -0.67754079698E+03  0.82462814573E+03  0.15294330000E+03 0.  0.
<mgrwt>
<rscale>  0 0.47005324E+03</rscale>
<asrwt>0</asrwt>
<pdfrwt beam="1">  1        2 0.56306817E+00 0.47005324E+03</pdfrwt>
<pdfrwt beam="2">  1       -2 0.14235861E-01 0.47005324E+03</pdfrwt>
<totfact> 0.27539208E+01</totfact>
</mgrwt>
</event>
<event>
 4    1  0.1726795E-008  0.9402103E+03  0.7818608E-02  0.9376667E-01
         -2   -1    0    0    0  501 -0.00000000000E+00  0.00000000000E+00  0.30217896175E+03  0.30217896176E+03  0.25500000000E-02 0.  1.
          2   -1    0    0  501    0  0.00000000000E+00 -0.00000000000E+00 -0.44050480505E+04  0.44050480505E+04  0.25500000000E-02 0. -1.
    8880022    1    1    2    0    0 -0.37526504409E+03 -0.84839843771E+03 -0.34155103652E+04  0.35425564879E+04  0.15294330000E+03 0.  0.
    8880022    1    1    2    0    0  0.37526504409E+03  0.84839843771E+03 -0.68735872360E+03  0.11646705244E+04  0.15294330000E+03 0.  0.
<mgrwt>
<rscale>  0 0.94021030E+03</rscale>
<asrwt>0</asrwt>
<pdfrwt beam="1">  1        2 0.67769965E+00 0.94021030E+03</pdfrwt>
<pdfrwt beam="2">  1       -2 0.46489074E-01 0.94021030E+03</pdfrwt>
<totfact> 0.72262156E-01</totfact>
</mgrwt>
</event>
<event>
 4    1  0.1726795E-008  0.1198696E+04  0.7818608E-02  0.9113999E-01
         -2   -1    0    0    0  501 -0.00000000000E+00  0.00000000000E+00  0.15001395301E+04  0.15001395301E+04  0.25500000000E-02 0.  1.
          2   -1    0    0  501    0  0.00000000000E+00 -0.00000000000E+00 -0.14371678585E+04  0.14371678585E+04  0.25500000000E-02 0. -1.
    8880022    1    1    2    0    0  0.68322413862E+03 -0.97297737410E+03 -0.81669522916E+03  0.14504699047E+04  0.15294330000E+03 0.  0.
    8880022    1    1    2    0    0 -0.68322413862E+03  0.97297737410E+03  0.87966690076E+03  0.14868374839E+04  0.15294330000E+03 0.  0.
<mgrwt>
<rscale>  0 0.11986959E+04</rscale>
<asrwt>0</asrwt>
<pdfrwt beam="1">  1        2 0.22110275E+00 0.11986959E+04</pdfrwt>
<pdfrwt beam="2">  1       -2 0.23079070E+00 0.11986959E+04</pdfrwt>
<totfact> 0.11309740E+00</totfact>
</mgrwt>
</event>
<event>
 4    1  0.1726795E-008  0.8751793E+03  0.7818608E-02  0.9457152E-01
         -2   -1    0    0    0  501 -0.00000000000E+00  0.00000000000E+00  0.74689127614E+03  0.74689127614E+03  0.25500000000E-02 0.  1.
          2   -1    0    0  501    0  0.00000000000E+00 -0.00000000000E+00 -0.32451596789E+04  0.32451596789E+04  0.25500000000E-02 0. -1.
    8880022    1    1    2    0    0  0.64924466837E+03 -0.56659375020E+03 -0.28999210863E+04  0.30291056563E+04  0.15294330000E+03 0.  0.
    8880022    1    1    2    0    0 -0.64924466837E+03  0.56659375020E+03  0.40165268354E+03  0.96294529875E+03  0.15294330000E+03 0.  0.
<mgrwt>
<rscale>  0 0.87517928E+03</rscale>
<asrwt>0</asrwt>
<pdfrwt beam="1">  1        2 0.49925533E+00 0.87517928E+03</pdfrwt>
<pdfrwt beam="2">  1       -2 0.11490635E+00 0.87517928E+03</pdfrwt>
<totfact> 0.75061696E-01</totfact>
</mgrwt>
</event>
<event>
 4    1  0.1726795E-008  0.1791113E+04  0.7818608E-02  0.8711040E-01
         -2   -1    0    0    0  501 -0.00000000000E+00  0.00000000000E+00  0.29814249528E+04  0.29814249528E+04  0.25500000000E-02 0.  1.
          2   -1    0    0  501    0  0.00000000000E+00 -0.00000000000E+00 -0.12006722064E+04  0.12006722064E+04  0.25500000000E-02 0. -1.
    8880022    1    1    2    0    0 -0.68664238900E+03  0.16471841127E+04  0.15641202632E+04  0.23779312695E+04  0.15294330000E+03 0.  0.
    8880022    1    1    2    0    0  0.68664238900E+03 -0.16471841127E+04  0.21663248316E+03  0.18041658897E+04  0.15294330000E+03 0.  0.
<mgrwt>
<rscale>  0 0.17911128E+04</rscale>
<asrwt>0</asrwt>
<pdfrwt beam="1">  1        2 0.18471880E+00 0.17911128E+04</pdfrwt>
<pdfrwt beam="2">  1       -2 0.45868075E+00 0.17911128E+04</pdfrwt>
<totfact> 0.52597984E-02</totfact>
</mgrwt>
</event>
<event>
 4    1  0.1726795E-008  0.3441746E+03  0.7818608E-02  0.1065032E+00
         -2   -1    0    0    0  501 -0.00000000000E+00  0.00000000000E+00  0.11378445273E+03  0.11378445276E+03  0.25500000000E-02 0.  1.
          2   -1    0    0  501    0  0.00000000000E+00 -0.00000000000E+00 -0.21672807219E+04  0.21672807219E+04  0.25500000000E-02 0. -1.
    8880022    1    1    2    0    0  0.20337313339E+03 -0.23174100713E+03 -0.18489194451E+04  0.18806805400E+04  0.15294330000E+03 0. -1.
    8880022    1    1    2    0    0 -0.20337313339E+03  0.23174100713E+03 -0.20457682406E+03  0.40038463473E+03  0.15294330000E+03 0.  0.
<mgrwt>
<rscale>  0 0.34417463E+03</rscale>
<asrwt>0</asrwt>
<pdfrwt beam="1">  1        2 0.33342777E+00 0.34417463E+03</pdfrwt>
<pdfrwt beam="2">  1       -2 0.17505302E-01 0.34417463E+03</pdfrwt>
<totfact> 0.15809037E+02</totfact>
</mgrwt>
</event>
<event>
 4    1  0.1726795E-008  0.1642480E+04  0.7818608E-02  0.8794868E-01
          2   -1    0    0  501    0  0.00000000000E+00  0.00000000000E+00  0.20687890088E+04  0.20687890088E+04  0.25500000000E-02 0. -1.
         -2   -1    0    0    0  501 -0.00000000000E+00 -0.00000000000E+00 -0.17921567161E+04  0.17921567161E+04  0.25500000000E-02 0.  1.
    8880022    1    1    2    0    0 -0.16273847135E+04  0.16114647549E+03 -0.86918777931E+03  0.18582863722E+04  0.15294330000E+03 0.  0.
    8880022    1    1    2    0    0  0.16273847135E+04 -0.16114647549E+03  0.11458200720E+04  0.20026593527E+04  0.15294330000E+03 0.  0.
<mgrwt>
<rscale>  0 0.16424801E+04</rscale>
<asrwt>0</asrwt>
<pdfrwt beam="1">  1        2 0.31827523E+00 0.16424801E+04</pdfrwt>
<pdfrwt beam="2">  1       -2 0.27571642E+00 0.16424801E+04</pdfrwt>
<totfact> 0.25242574E-01</totfact>
</mgrwt>
</event>
<event>
 4    1  0.1726795E-008  0.4656223E+03  0.7818608E-02  0.1023163E+00
          2   -1    0    0  501    0  0.00000000000E+00  0.00000000000E+00  0.74084064307E+03  0.74084064307E+03  0.25500000000E-02 0. -1.
         -2   -1    0    0    0  501 -0.00000000000E+00 -0.00000000000E+00 -0.45220793156E+03  0.45220793157E+03  0.25500000000E-02 0.  1.
    8880022    1    1    2    0    0  0.34821901403E+03  0.26861872794E+03  0.49865905782E+03  0.68224996276E+03  0.15294330000E+03 0.  0.
    8880022    1    1    2    0    0 -0.34821901403E+03 -0.26861872794E+03 -0.21002634632E+03  0.51079861188E+03  0.15294330000E+03 0. -1.
<mgrwt>
<rscale>  0 0.46562233E+03</rscale>
<asrwt>0</asrwt>
<pdfrwt beam="1">  1        2 0.11397548E+00 0.46562233E+03</pdfrwt>
<pdfrwt beam="2">  1       -2 0.69570451E-01 0.46562233E+03</pdfrwt>
<totfact> 0.74516754E+01</totfact>
</mgrwt>
</event>
<event>
 4    1  0.1726795E-008  0.9057866E+03  0.7818608E-02  0.9418377E-01
         -2   -1    0    0    0  501 -0.00000000000E+00  0.00000000000E+00  0.30204940923E+03  0.30204940925E+03  0.25500000000E-02 0.  1.
          2   -1    0    0  501    0  0.00000000000E+00 -0.00000000000E+00 -0.39273319469E+04  0.39273319469E+04  0.25500000000E-02 0. -1.
    8880022    1    1    2    0    0  0.66787569928E+03  0.59245232538E+03 -0.63833800475E+03  0.11081176692E+04  0.15294330000E+03 0.  0.
    8880022    1    1    2    0    0 -0.66787569928E+03 -0.59245232538E+03 -0.29869445330E+04  0.31212636870E+04  0.15294330000E+03 0.  0.
<mgrwt>
<rscale>  0 0.90578660E+03</rscale>
<asrwt>0</asrwt>
<pdfrwt beam="1">  1        2 0.60420488E+00 0.90578660E+03</pdfrwt>
<pdfrwt beam="2">  1       -2 0.46469143E-01 0.90578660E+03</pdfrwt>
<totfact> 0.18382983E+00</totfact>
</mgrwt>
</event>
<event>
 4    1  0.1726795E-008  0.1004262E+04  0.7818608E-02  0.9303882E-01
         -2   -1    0    0    0  501 -0.00000000000E+00  0.00000000000E+00  0.17944263882E+04  0.17944263882E+04  0.25500000000E-02 0.  1.
          2   -1    0    0  501    0  0.00000000000E+00 -0.00000000000E+00 -0.98216272731E+03  0.98216272732E+03  0.25500000000E-02 0. -1.
    8880022    1    1    2    0    0  0.98949352483E+03 -0.77806685347E+02  0.13141132447E+04  0.16539155326E+04  0.15294330000E+03 0.  0.
    8880022    1    1    2    0    0 -0.98949352483E+03  0.77806685347E+02 -0.50184958384E+03  0.11226735829E+04  0.15294330000E+03 0.  0.
<mgrwt>
<rscale>  0 0.10042624E+04</rscale>
<asrwt>0</asrwt>
<pdfrwt beam="1">  1        2 0.15110196E+00 0.10042624E+04</pdfrwt>
<pdfrwt beam="2">  1       -2 0.27606560E+00 0.10042624E+04</pdfrwt>
<totfact> 0.11509219E+00</totfact>
</mgrwt>
</event>
<event>
 4    1  0.1726795E-008  0.7835559E+03  0.7818608E-02  0.9584129E-01
          2   -1    0    0  501    0  0.00000000000E+00  0.00000000000E+00  0.22317351176E+04  0.22317351176E+04  0.25500000000E-02 0. -1.
         -2   -1    0    0    0  501 -0.00000000000E+00 -0.00000000000E+00 -0.57958653022E+03  0.57958653022E+03  0.25500000000E-02 0.  1.
    8880022    1    1    2    0    0 -0.72249191836E+03  0.26186570030E+03  0.18449058631E+04  0.20044045285E+04  0.15294330000E+03 0.  0.
    8880022    1    1    2    0    0  0.72249191836E+03 -0.26186570030E+03 -0.19275727574E+03  0.80691711932E+03  0.15294330000E+03 0.  0.
<mgrwt>
<rscale>  0 0.78355591E+03</rscale>
<asrwt>0</asrwt>
<pdfrwt beam="1">  1        2 0.34334387E+00 0.78355591E+03</pdfrwt>
<pdfrwt beam="2">  1       -2 0.89167158E-01 0.78355591E+03</pdfrwt>
<totfact> 0.55443749E+00</totfact>
</mgrwt>
</event>
<event>
 4    1  0.1726795E-008  0.5707650E+03  0.7818608E-02  0.9967987E-01
         -2   -1    0    0    0  501 -0.00000000000E+00  0.00000000000E+00  0.53448904295E+03  0.53448904296E+03  0.25500000000E-02 0.  1.
          2   -1    0    0  501    0  0.00000000000E+00 -0.00000000000E+00 -0.11103680044E+04  0.11103680044E+04  0.25500000000E-02 0. -1.
    8880022    1    1    2    0    0  0.96020630067E+02 -0.54144350150E+03  0.26442409870E+03  0.62904116217E+03  0.15294330000E+03 0.  0.
    8880022    1    1    2    0    0 -0.96020630067E+02  0.54144350150E+03 -0.84030306013E+03  0.10158158852E+04  0.15294330000E+03 0.  0.
<mgrwt>
<rscale>  0 0.57076500E+03</rscale>
<asrwt>0</asrwt>
<pdfrwt beam="1">  1        2 0.17082585E+00 0.57076500E+03</pdfrwt>
<pdfrwt beam="2">  1       -2 0.82229083E-01 0.57076500E+03</pdfrwt>
<totfact> 0.28977574E+01</totfact>
</mgrwt>
</event>
<event>
 4    1  0.1726795E-008  0.5234559E+03  0.7818608E-02  0.1007832E+00
          2   -1    0    0  501    0  0.00000000000E+00  0.00000000000E+00  0.35731532979E+03  0.35731532980E+03  0.25500000000E-02 0. -1.
         -2   -1    0    0    0  501 -0.00000000000E+00 -0.00000000000E+00 -0.12168392247E+04  0.12168392247E+04  0.25500000000E-02 0.  1.
    8880022    1    1    2    0    0 -0.49919040486E+03 -0.37727043971E+02  0.48871975381E+02  0.52573235885E+03  0.15294330000E+03 0.  0.
    8880022    1    1    2    0    0  0.49919040486E+03  0.37727043971E+02 -0.90839587025E+03  0.10484221956E+04  0.15294330000E+03 0.  0.
<mgrwt>
<rscale>  0 0.52345587E+03</rscale>
<asrwt>0</asrwt>
<pdfrwt beam="1">  1        2 0.54971590E-01 0.52345587E+03</pdfrwt>
<pdfrwt beam="2">  1       -2 0.18720603E+00 0.52345587E+03</pdfrwt>
<totfact> 0.15222214E+01</totfact>
</mgrwt>
</event>
<event>
 4    1  0.1726795E-008  0.9814249E+03  0.7818608E-02  0.9329156E-01
         -2   -1    0    0    0  501 -0.00000000000E+00  0.00000000000E+00  0.92462410691E+03  0.92462410692E+03  0.25500000000E-02 0.  1.
          2   -1    0    0  501    0  0.00000000000E+00 -0.00000000000E+00 -0.13273945687E+04  0.13273945687E+04  0.25500000000E-02 0. -1.
    8880022    1    1    2    0    0  0.16552844612E+03 -0.95519812693E+03  0.32098880352E+03  0.10325834558E+04  0.15294330000E+03 0.  0.
    8880022    1    1    2    0    0 -0.16552844612E+03  0.95519812693E+03 -0.72375926526E+03  0.12194352198E+04  0.15294330000E+03 0.  0.
<mgrwt>
<rscale>  0 0.98142487E+03</rscale>
<asrwt>0</asrwt>
<pdfrwt beam="1">  1        2 0.20421455E+00 0.98142487E+03</pdfrwt>
<pdfrwt beam="2">  1       -2 0.14224986E+00 0.98142487E+03</pdfrwt>
<totfact> 0.54572378E+00</totfact>
</mgrwt>
</event>
<event>
 4    1  0.1726795E-008  0.1065194E+04  0.7818608E-02  0.9239796E-01
          2   -1    0    0  501    0  0.00000000000E+00  0.00000000000E+00  0.23077742989E+04  0.23077742989E+04  0.25500000000E-02 0. -1.
         -2   -1    0    0    0  501 -0.00000000000E+00 -0.00000000000E+00 -0.57818303193E+03  0.57818303193E+03  0.25500000000E-02 0.  1.
    8880022    1    1    2    0    0 -0.99268977337E+03 -0.35470262780E+03  0.30658902645E+03  0.11084382818E+04  0.15294330000E+03 0.  0.
    8880022    1    1    2    0    0  0.99268977337E+03  0.35470262780E+03  0.14230022406E+04  0.17775190491E+04  0.15294330000E+03 0.  0.
<mgrwt>
<rscale>  0 0.10651942E+04</rscale>
<asrwt>0</asrwt>
<pdfrwt beam="1">  1        2 0.35504219E+00 0.10651942E+04</pdfrwt>
<pdfrwt beam="2">  1       -2 0.88951238E-01 0.10651942E+04</pdfrwt>
<totfact> 0.48624766E+00</totfact>
</mgrwt>
</event>
<event>
 4    1  0.1726795E-008  0.1767724E+04  0.7818608E-02  0.8723654E-01
         -2   -1    0    0    0  501 -0.00000000000E+00  0.00000000000E+00  0.14749863471E+04  0.14749863471E+04  0.25500000000E-02 0.  1.
          2   -1    0    0  501    0  0.00000000000E+00 -0.00000000000E+00 -0.32482627484E+04  0.32482627484E+04  0.25500000000E-02 0. -1.
    8880022    1    1    2    0    0 -0.12826293462E+04  0.12067806385E+04 -0.22793687251E+04  0.28845053280E+04  0.15294330000E+03 0.  0.
    8880022    1    1    2    0    0  0.12826293462E+04 -0.12067806385E+04  0.50609232373E+03  0.18387437675E+04  0.15294330000E+03 0.  0.
<mgrwt>
<rscale>  0 0.17677243E+04</rscale>
<asrwt>0</asrwt>
<pdfrwt beam="1">  1        2 0.49973273E+00 0.17677243E+04</pdfrwt>
<pdfrwt beam="2">  1       -2 0.22692098E+00 0.17677243E+04</pdfrwt>
<totfact> 0.98339057E-02</totfact>
</mgrwt>
</event>
<event>
 4    1  0.1726795E-008  0.9348948E+03  0.7818608E-02  0.9382983E-01
          2   -1    0    0  501    0  0.00000000000E+00  0.00000000000E+00  0.12216959703E+04  0.12216959703E+04  0.25500000000E-02 0. -1.
         -2   -1    0    0    0  501 -0.00000000000E+00 -0.00000000000E+00 -0.14389010640E+04  0.14389010640E+04  0.25500000000E-02 0.  1.
    8880022    1    1    2    0    0 -0.67454656952E+03 -0.62898612269E+03  0.83469042937E+03  0.12532902229E+04  0.15294330000E+03 0.  0.
    8880022    1    1    2    0    0  0.67454656952E+03  0.62898612269E+03 -0.10518955231E+04  0.14073068114E+04  0.15294330000E+03 0.  0.
<mgrwt>
<rscale>  0 0.93489479E+03</rscale>
<asrwt>0</asrwt>
<pdfrwt beam="1">  1        2 0.18795323E+00 0.93489479E+03</pdfrwt>
<pdfrwt beam="2">  1       -2 0.22136939E+00 0.93489479E+03</pdfrwt>
<totfact> 0.17855153E+00</totfact>
</mgrwt>
</event>
<event>
 4    1  0.1726795E-008  0.6804898E+03  0.7818608E-02  0.9751191E-01
          2   -1    0    0  501    0  0.00000000000E+00  0.00000000000E+00  0.37974994512E+04  0.37974994512E+04  0.25500000000E-02 0. -1.
         -2   -1    0    0    0  501 -0.00000000000E+00 -0.00000000000E+00 -0.39662280543E+03  0.39662280544E+03  0.25500000000E-02 0.  1.
    8880022    1    1    2    0    0 -0.62438981982E+03  0.22318618163E+03  0.34456099126E+04  0.35121637265E+04  0.15294330000E+03 0.  0.
    8880022    1    1    2    0    0  0.62438981982E+03 -0.22318618163E+03 -0.44733266775E+02  0.68195853021E+03  0.15294330000E+03 0.  0.
<mgrwt>
<rscale>  0 0.68048980E+03</rscale>
<asrwt>0</asrwt>
<pdfrwt beam="1">  1        2 0.58423069E+00 0.68048980E+03</pdfrwt>
<pdfrwt beam="2">  1       -2 0.61018893E-01 0.68048980E+03</pdfrwt>
<totfact> 0.13822068E+00</totfact>
</mgrwt>
</event>
<event>
 4    1  0.1726795E-008  0.1661068E+04  0.7818608E-02  0.8783885E-01
         -2   -1    0    0    0  501 -0.00000000000E+00  0.00000000000E+00  0.14723185994E+04  0.14723185994E+04  0.25500000000E-02 0.  1.
          2   -1    0    0  501    0  0.00000000000E+00 -0.00000000000E+00 -0.20129250778E+04  0.20129250778E+04  0.25500000000E-02 0. -1.
    8880022    1    1    2    0    0 -0.10359246613E+04 -0.12894250221E+04  0.18747467835E+03  0.16716145488E+04  0.15294330000E+03 0.  0.
    8880022    1    1    2    0    0  0.10359246613E+04  0.12894250221E+04 -0.72808115672E+03  0.18136291284E+04  0.15294330000E+03 0.  0.
<mgrwt>
<rscale>  0 0.16610685E+04</rscale>
<asrwt>0</asrwt>
<pdfrwt beam="1">  1        2 0.30968078E+00 0.16610685E+04</pdfrwt>
<pdfrwt beam="2">  1       -2 0.22651055E+00 0.16610685E+04</pdfrwt>
<totfact> 0.54547536E-01</totfact>
</mgrwt>
</event>
<event>
 4    1  0.1726795E-008  0.1457511E+04  0.7818608E-02  0.8913210E-01
         -2   -1    0    0    0  501 -0.00000000000E+00  0.00000000000E+00  0.82662971437E+03  0.82662971437E+03  0.25500000000E-02 0.  1.
          2   -1    0    0  501    0  0.00000000000E+00 -0.00000000000E+00 -0.32416145577E+04  0.32416145577E+04  0.25500000000E-02 0. -1.
    8880022    1    1    2    0    0 -0.72209630257E+03  0.12567914815E+04 -0.28152643163E+03  0.14844516438E+04  0.15294330000E+03 0.  0.
    8880022    1    1    2    0    0  0.72209630257E+03 -0.12567914815E+04 -0.21334584117E+04  0.25837926282E+04  0.15294330000E+03 0.  0.
<mgrwt>
<rscale>  0 0.14575114E+04</rscale>
<asrwt>0</asrwt>
<pdfrwt beam="1">  1        2 0.49870993E+00 0.14575114E+04</pdfrwt>
<pdfrwt beam="2">  1       -2 0.12717380E+00 0.14575114E+04</pdfrwt>
<totfact> 0.53586411E-01</totfact>
</mgrwt>
</event>
<event>
 4    1  0.1726795E-008  0.4496756E+03  0.7818608E-02  0.1027819E+00
         -2   -1    0    0    0  501 -0.00000000000E+00  0.00000000000E+00  0.11079103157E+04  0.11079103157E+04  0.25500000000E-02 0.  1.
          2   -1    0    0  501    0  0.00000000000E+00 -0.00000000000E+00 -0.18214367222E+04  0.18214367222E+04  0.25500000000E-02 0. -1.
    8880022    1    1    2    0    0 -0.32475999664E+03  0.27082738960E+03 -0.17461179160E+04  0.18030906688E+04  0.15294330000E+03 0.  0.
    8880022    1    1    2    0    0  0.32475999664E+03 -0.27082738960E+03  0.10325915095E+04  0.11262563691E+04  0.15294330000E+03 0.  0.
<mgrwt>
<rscale>  0 0.44967564E+03</rscale>
<asrwt>0</asrwt>
<pdfrwt beam="1">  1        2 0.28022104E+00 0.44967564E+03</pdfrwt>
<pdfrwt beam="2">  1       -2 0.17044774E+00 0.44967564E+03</pdfrwt>
<totfact> 0.19757060E+00</totfact>
</mgrwt>
</event>
<event>
 4    1  0.1726795E-008  0.1274404E+04  0.7818608E-02  0.9050113E-01
         -2   -1    0    0    0  501 -0.00000000000E+00  0.00000000000E+00  0.13720109415E+04  0.13720109415E+04  0.25500000000E-02 0.  1.
          2   -1    0    0  501    0  0.00000000000E+00 -0.00000000000E+00 -0.15678809437E+04  0.15678809437E+04  0.25500000000E-02 0. -1.
    8880022    1    1    2    0    0 -0.41564563039E+03 -0.11949697968E+04 -0.82552964520E+03  0.15184218628E+04  0.15294330000E+03 0.  0.
    8880022    1    1    2    0    0  0.41564563039E+03  0.11949697968E+04  0.62965964308E+03  0.14214700224E+04  0.15294330000E+03 0.  0.
<mgrwt>
<rscale>  0 0.12744041E+04</rscale>
<asrwt>0</asrwt>
<pdfrwt beam="1">  1        2 0.24121245E+00 0.12744041E+04</pdfrwt>
<pdfrwt beam="2">  1       -2 0.21107861E+00 0.12744041E+04</pdfrwt>
<totfact> 0.12603273E+00</totfact>
</mgrwt>
</event>
<event>
 4    1  0.1726795E-008  0.1033572E+04  0.7818608E-02  0.9272471E-01
         -2   -1    0    0    0  501 -0.00000000000E+00  0.00000000000E+00  0.66387692567E+03  0.66387692567E+03  0.25500000000E-02 0.  1.
          2   -1    0    0  501    0  0.00000000000E+00 -0.00000000000E+00 -0.30737754601E+04  0.30737754601E+04  0.25500000000E-02 0. -1.
    8880022    1    1    2    0    0 -0.98632427917E+03  0.26841127488E+03  0.85073594243E+02  0.10370676765E+04  0.15294330000E+03 0.  0.
    8880022    1    1    2    0    0  0.98632427917E+03 -0.26841127488E+03 -0.24949721287E+04  0.27005847093E+04  0.15294330000E+03 0.  0.
<mgrwt>
<rscale>  0 0.10335724E+04</rscale>
<asrwt>0</asrwt>
<pdfrwt beam="1">  1        2 0.47288852E+00 0.10335724E+04</pdfrwt>
<pdfrwt beam="2">  1       -2 0.10213491E+00 0.10335724E+04</pdfrwt>
<totfact> 0.12477280E+00</totfact>
</mgrwt>
</event>
<event>
 4    1  0.1726795E-008  0.1740280E+04  0.7818608E-02  0.8738719E-01
          2   -1    0    0  501    0  0.00000000000E+00  0.00000000000E+00  0.15939509531E+04  0.15939509531E+04  0.25500000000E-02 0. -1.
         -2   -1    0    0    0  501 -0.00000000000E+00 -0.00000000000E+00 -0.20631493822E+04  0.20631493822E+04  0.25500000000E-02 0.  1.
    8880022    1    1    2    0    0  0.15463889085E+04  0.78349491173E+03 -0.74873479376E+03  0.18945127019E+04  0.15294330000E+03 0.  0.
    8880022    1    1    2    0    0 -0.15463889085E+04 -0.78349491173E+03  0.27953636466E+03  0.17625876334E+04  0.15294330000E+03 0.  0.
<mgrwt>
<rscale>  0 0.17402800E+04</rscale>
<asrwt>0</asrwt>
<pdfrwt beam="1">  1        2 0.24522322E+00 0.17402800E+04</pdfrwt>
<pdfrwt beam="2">  1       -2 0.31740760E+00 0.17402800E+04</pdfrwt>
<totfact> 0.25610516E-01</totfact>
</mgrwt>
</event>
<event>
 4    1  0.1726795E-008  0.7433292E+03  0.7818608E-02  0.9645874E-01
          2   -1    0    0  501    0  0.00000000000E+00  0.00000000000E+00  0.13129203973E+04  0.13129203973E+04  0.25500000000E-02 0. -1.
         -2   -1    0    0    0  501 -0.00000000000E+00 -0.00000000000E+00 -0.88683450107E+03  0.88683450107E+03  0.25500000000E-02 0.  1.
    8880022    1    1    2    0    0 -0.60945274549E+03  0.39713215350E+03  0.10103218465E+04  0.12543079697E+04  0.15294330000E+03 0.  0.
    8880022    1    1    2    0    0  0.60945274549E+03 -0.39713215350E+03 -0.58423595027E+03  0.94544692867E+03  0.15294330000E+03 0.  0.
<mgrwt>
<rscale>  0 0.74332917E+03</rscale>
<asrwt>0</asrwt>
<pdfrwt beam="1">  1        2 0.20198775E+00 0.74332917E+03</pdfrwt>
<pdfrwt beam="2">  1       -2 0.13643608E+00 0.74332917E+03</pdfrwt>
<totfact> 0.63834222E+00</totfact>
</mgrwt>
</event>
<event>
 4    1  0.1726795E-008  0.3012814E+03  0.7818608E-02  0.1084602E+00
         -2   -1    0    0    0  501 -0.00000000000E+00  0.00000000000E+00  0.37819056676E+03  0.37819056677E+03  0.25500000000E-02 0.  1.
          2   -1    0    0  501    0  0.00000000000E+00 -0.00000000000E+00 -0.47608825507E+03  0.47608825508E+03  0.25500000000E-02 0. -1.
    8880022    1    1    2    0    0  0.24230772473E+03 -0.93090210561E+02 -0.34973066148E+03  0.46160806899E+03  0.15294330000E+03 0.  0.
    8880022    1    1    2    0    0 -0.24230772473E+03  0.93090210561E+02  0.25183297317E+03  0.39267075286E+03  0.15294330000E+03 0.  0.
<mgrwt>
<rscale>  0 0.30128139E+03</rscale>
<asrwt>0</asrwt>
<pdfrwt beam="1">  1        2 0.73244347E-01 0.30128139E+03</pdfrwt>
<pdfrwt beam="2">  1       -2 0.58183164E-01 0.30128139E+03</pdfrwt>
<totfact> 0.18666503E+02</totfact>
</mgrwt>
</event>
<event>
 4    1  0.1726795E-008  0.1217175E+04  0.7818608E-02  0.9097955E-01
         -2   -1    0    0    0  501 -0.00000000000E+00  0.00000000000E+00  0.19763680576E+04  0.19763680577E+04  0.25500000000E-02 0.  1.
          2   -1    0    0  501    0  0.00000000000E+00 -0.00000000000E+00 -0.12248406325E+04  0.12248406325E+04  0.25500000000E-02 0. -1.
    8880022    1    1    2    0    0 -0.98076647742E+03  0.70442950890E+03  0.13727611726E+04  0.18346631043E+04  0.15294330000E+03 0.  0.
    8880022    1    1    2    0    0  0.98076647742E+03 -0.70442950890E+03 -0.62123374739E+03  0.13665455858E+04  0.15294330000E+03 0.  0.
<mgrwt>
<rscale>  0 0.12171752E+04</rscale>
<asrwt>0</asrwt>
<pdfrwt beam="1">  1        2 0.18843702E+00 0.12171752E+04</pdfrwt>
<pdfrwt beam="2">  1       -2 0.30405663E+00 0.12171752E+04</pdfrwt>
<totfact> 0.53555516E-01</totfact>
</mgrwt>
</event>
<event>
 4    1  0.1726795E-008  0.6410055E+03  0.7818608E-02  0.9823805E-01
         -2   -1    0    0    0  501 -0.00000000000E+00  0.00000000000E+00  0.36359631560E+03  0.36359631561E+03  0.25500000000E-02 0.  1.
          2   -1    0    0  501    0  0.00000000000E+00 -0.00000000000E+00 -0.17566825652E+04  0.17566825652E+04  0.25500000000E-02 0. -1.
    8880022    1    1    2    0    0 -0.60212665325E+03 -0.15792386321E+03 -0.13297083039E+04  0.14761477838E+04  0.15294330000E+03 0.  0.
    8880022    1    1    2    0    0  0.60212665325E+03  0.15792386321E+03 -0.63377945707E+02  0.64413109702E+03  0.15294330000E+03 0.  0.
<mgrwt>
<rscale>  0 0.64100554E+03</rscale>
<asrwt>0</asrwt>
<pdfrwt beam="1">  1        2 0.27025885E+00 0.64100554E+03</pdfrwt>
<pdfrwt beam="2">  1       -2 0.55937896E-01 0.64100554E+03</pdfrwt>
<totfact> 0.28555202E+01</totfact>
</mgrwt>
</event>
<event>
 4    1  0.1726795E-008  0.5434619E+03  0.7818608E-02  0.1003019E+00
         -2   -1    0    0    0  501 -0.00000000000E+00  0.00000000000E+00  0.76032981086E+03  0.76032981087E+03  0.25500000000E-02 0.  1.
          2   -1    0    0  501    0  0.00000000000E+00 -0.00000000000E+00 -0.84083979035E+03  0.84083979036E+03  0.25500000000E-02 0. -1.
    8880022    1    1    2    0    0  0.16595917803E+03 -0.49438518904E+03 -0.62748287095E+03  0.83011178179E+03  0.15294330000E+03 0.  0.
    8880022    1    1    2    0    0 -0.16595917803E+03  0.49438518904E+03  0.54697289146E+03  0.77105781944E+03  0.15294330000E+03 0.  0.
<mgrwt>
<rscale>  0 0.54346188E+03</rscale>
<asrwt>0</asrwt>
<pdfrwt beam="1">  1        2 0.12935997E+00 0.54346188E+03</pdfrwt>
<pdfrwt beam="2">  1       -2 0.11697382E+00 0.54346188E+03</pdfrwt>
<totfact> 0.18947015E+01</totfact>
</mgrwt>
</event>
<event>
 4    1  0.1726795E-008  0.1035147E+04  0.7818608E-02  0.9270815E-01
         -2   -1    0    0    0  501 -0.00000000000E+00  0.00000000000E+00  0.45755755074E+03  0.45755755075E+03  0.25500000000E-02 0.  1.
          2   -1    0    0  501    0  0.00000000000E+00 -0.00000000000E+00 -0.26824693041E+04  0.26824693041E+04  0.25500000000E-02 0. -1.
    8880022    1    1    2    0    0 -0.97740015526E+03 -0.30467418038E+03 -0.16719216329E+04  0.19664310360E+04  0.15294330000E+03 0.  0.
    8880022    1    1    2    0    0  0.97740015526E+03  0.30467418038E+03 -0.55299012044E+03  0.11735958188E+04  0.15294330000E+03 0.  0.
<mgrwt>
<rscale>  0 0.10351469E+04</rscale>
<asrwt>0</asrwt>
<pdfrwt beam="1">  1        2 0.41268757E+00 0.10351469E+04</pdfrwt>
<pdfrwt beam="2">  1       -2 0.70393471E-01 0.10351469E+04</pdfrwt>
<totfact> 0.50445073E+00</totfact>
</mgrwt>
</event>
<event>
 4    1  0.1726795E-008  0.8114813E+03  0.7818608E-02  0.9543545E-01
          2   -1    0    0  501    0  0.00000000000E+00  0.00000000000E+00  0.11830308864E+04  0.11830308864E+04  0.25500000000E-02 0. -1.
         -2   -1    0    0    0  501 -0.00000000000E+00 -0.00000000000E+00 -0.90770307738E+03  0.90770307739E+03  0.25500000000E-02 0.  1.
    8880022    1    1    2    0    0 -0.30757883856E+03  0.73519081883E+03  0.78779375439E+03  0.11309822874E+04  0.15294330000E+03 0.  0.
    8880022    1    1    2    0    0  0.30757883856E+03 -0.73519081883E+03 -0.51246594540E+03  0.95975167633E+03  0.15294330000E+03 0.  0.
<mgrwt>
<rscale>  0 0.81148132E+03</rscale>
<asrwt>0</asrwt>
<pdfrwt beam="1">  1        2 0.18200475E+00 0.81148132E+03</pdfrwt>
<pdfrwt beam="2">  1       -2 0.13964663E+00 0.81148132E+03</pdfrwt>
<totfact> 0.70970320E+00</totfact>
</mgrwt>
</event>
<event>
 4    1  0.1726795E-008  0.1344015E+04  0.7818608E-02  0.8995371E-01
         -2   -1    0    0    0  501 -0.00000000000E+00  0.00000000000E+00  0.11209485017E+04  0.11209485017E+04  0.25500000000E-02 0.  1.
          2   -1    0    0  501    0  0.00000000000E+00 -0.00000000000E+00 -0.18681427587E+04  0.18681427587E+04  0.25500000000E-02 0. -1.
    8880022    1    1    2    0    0 -0.60789817756E+03 -0.11888841658E+04  0.18038037936E+03  0.13560658127E+04  0.15294330000E+03 0.  0.
    8880022    1    1    2    0    0  0.60789817756E+03  0.11888841658E+04 -0.92757463634E+03  0.16330254478E+04  0.15294330000E+03 0.  0.
<mgrwt>
<rscale>  0 0.13440154E+04</rscale>
<asrwt>0</asrwt>
<pdfrwt beam="1">  1        2 0.28740658E+00 0.13440154E+04</pdfrwt>
<pdfrwt beam="2">  1       -2 0.17245362E+00 0.13440154E+04</pdfrwt>
<totfact> 0.15489246E+00</totfact>
</mgrwt>
</event>
<event>
 4    1  0.1726795E-008  0.1614830E+03  0.7818608E-02  0.1187033E+00
         -2   -1    0    0    0  501 -0.00000000000E+00  0.00000000000E+00  0.76005628206E+02  0.76005628249E+02  0.25500000000E-02 0.  1.
          2   -1    0    0  501    0  0.00000000000E+00 -0.00000000000E+00 -0.95911426252E+03  0.95911426252E+03  0.25500000000E-02 0. -1.
    8880022    1    1    2    0    0  0.42575873476E+02 -0.29536630668E+02 -0.85634060840E+03  0.87143330678E+03  0.15294330000E+03 0. -1.
    8880022    1    1    2    0    0 -0.42575873476E+02  0.29536630668E+02 -0.26768025915E+02  0.16368658399E+03  0.15294330000E+03 0.  0.
<mgrwt>
<rscale>  0 0.16148303E+03</rscale>
<asrwt>0</asrwt>
<pdfrwt beam="1">  1        2 0.14755603E+00 0.16148303E+03</pdfrwt>
<pdfrwt beam="2">  1       -2 0.11693174E-01 0.16148303E+03</pdfrwt>
<totfact> 0.14346700E+03</totfact>
</mgrwt>
</event>
<event>
 4    1  0.1726795E-008  0.9770399E+03  0.7818608E-02  0.9334092E-01
         -2   -1    0    0    0  501 -0.00000000000E+00  0.00000000000E+00  0.11366420437E+04  0.11366420437E+04  0.25500000000E-02 0.  1.
          2   -1    0    0  501    0  0.00000000000E+00 -0.00000000000E+00 -0.11936811182E+04  0.11936811182E+04  0.25500000000E-02 0. -1.
    8880022    1    1    2    0    0  0.90820011874E+03 -0.32617146445E+03  0.60584810963E+03  0.11496342309E+04  0.15294330000E+03 0.  0.
    8880022    1    1    2    0    0 -0.90820011874E+03  0.32617146445E+03 -0.66288718409E+03  0.11806889310E+04  0.15294330000E+03 0.  0.
<mgrwt>
<rscale>  0 0.97703988E+03</rscale>
<asrwt>0</asrwt>
<pdfrwt beam="1">  1        2 0.18364325E+00 0.97703988E+03</pdfrwt>
<pdfrwt beam="2">  1       -2 0.17486801E+00 0.97703988E+03</pdfrwt>
<totfact> 0.37390123E+00</totfact>
</mgrwt>
</event>
<event>
 4    1  0.3116875E-008  0.6724685E+03  0.7818608E-02  0.9765509E-01
          2   -1    0    0  501    0  0.00000000000E+00  0.00000000000E+00  0.23010269818E+04  0.23010269818E+04  0.25500000000E-02 0. -1.
         -2   -1    0    0    0  501 -0.00000000000E+00 -0.00000000000E+00 -0.19694179464E+04  0.19694179464E+04  0.25500000000E-02 0.  1.
    8880022    1    1    2    0    0 -0.40298226620E+03  0.51616613775E+03  0.21916914362E+04  0.22925368466E+04  0.15294330000E+03 0.  0.
    8880022    1    1    2    0    0  0.40298226620E+03 -0.51616613775E+03 -0.18600824008E+04  0.19779080816E+04  0.15294330000E+03 0.  0.
<mgrwt>
<rscale>  0 0.67246847E+03</rscale>
<asrwt>0</asrwt>
<pdfrwt beam="1">  1        2 0.35400415E+00 0.67246847E+03</pdfrwt>
<pdfrwt beam="2">  1       -2 0.30298738E+00 0.67246847E+03</pdfrwt>
<totfact> 0.15176921E-01</totfact>
</mgrwt>
</event>
<event>
 4    1  0.2184114E-008  0.1096769E+04  0.7818608E-02  0.9208347E-01
          2   -1    0    0  501    0  0.00000000000E+00  0.00000000000E+00  0.30757720268E+04  0.30757720268E+04  0.25500000000E-02 0. -1.
         -2   -1    0    0    0  501 -0.00000000000E+00 -0.00000000000E+00 -0.14999836736E+04  0.14999836736E+04  0.25500000000E-02 0.  1.
    8880022    1    1    2    0    0  0.24134949537E+03  0.10588961391E+04 -0.11792428400E+04  0.16104396732E+04  0.15294330000E+03 0.  0.
    8880022    1    1    2    0    0 -0.24134949537E+03 -0.10588961391E+04  0.27550311932E+04  0.29653160271E+04  0.15294330000E+03 0.  0.
<mgrwt>
<rscale>  0 0.10967690E+04</rscale>
<asrwt>0</asrwt>
<pdfrwt beam="1">  1        2 0.47319569E+00 0.10967690E+04</pdfrwt>
<pdfrwt beam="2">  1       -2 0.23076672E+00 0.10967690E+04</pdfrwt>
<totfact> 0.13225485E-01</totfact>
</mgrwt>
</event>
<event>
 4    1  0.1726795E-008  0.1162534E+04  0.7818608E-02  0.9146298E-01
          2   -1    0    0  501    0  0.00000000000E+00  0.00000000000E+00  0.22345988191E+04  0.22345988191E+04  0.25500000000E-02 0. -1.
         -2   -1    0    0    0  501 -0.00000000000E+00 -0.00000000000E+00 -0.81903729447E+03  0.81903729448E+03  0.25500000000E-02 0.  1.
    8880022    1    1    2    0    0  0.51929899822E+03  0.10287963532E+04  0.14886586672E+04  0.18888064131E+04  0.15294330000E+03 0.  0.
    8880022    1    1    2    0    0 -0.51929899822E+03 -0.10287963532E+04 -0.73097142541E+02  0.11648297005E+04  0.15294330000E+03 0.  0.
<mgrwt>
<rscale>  0 0.11625339E+04</rscale>
<asrwt>0</asrwt>
<pdfrwt beam="1">  1        2 0.34378442E+00 0.11625339E+04</pdfrwt>
<pdfrwt beam="2">  1       -2 0.12600574E+00 0.11625339E+04</pdfrwt>
<totfact> 0.22773196E+00</totfact>
</mgrwt>
</event>
<event>
 4    1  0.1726795E-008  0.1642277E+03  0.7818608E-02  0.1184005E+00
         -2   -1    0    0    0  501 -0.00000000000E+00  0.00000000000E+00  0.11824453872E+03  0.11824453874E+03  0.25500000000E-02 0.  1.
          2   -1    0    0  501    0  0.00000000000E+00 -0.00000000000E+00 -0.12027885048E+04  0.12027885048E+04  0.25500000000E-02 0. -1.
    8880022    1    1    2    0    0  0.59533534719E+02  0.59041432389E+01  0.52326132496E+02  0.17236234455E+03  0.15294330000E+03 0.  1.
    8880022    1    1    2    0    0 -0.59533534719E+02 -0.59041432389E+01 -0.11368700985E+04  0.11486706990E+04  0.15294330000E+03 0.  0.
<mgrwt>
<rscale>  0 0.16422775E+03</rscale>
<asrwt>0</asrwt>
<pdfrwt beam="1">  1        2 0.18504438E+00 0.16422775E+03</pdfrwt>
<pdfrwt beam="2">  1       -2 0.18191468E-01 0.16422775E+03</pdfrwt>
<totfact> 0.50174927E+02</totfact>
</mgrwt>
</event>
<event>
 4    1  0.1726795E-008  0.7238440E+03  0.7818608E-02  0.9677303E-01
          2   -1    0    0  501    0  0.00000000000E+00  0.00000000000E+00  0.14791225475E+04  0.14791225475E+04  0.25500000000E-02 0. -1.
         -2   -1    0    0    0  501 -0.00000000000E+00 -0.00000000000E+00 -0.12116266545E+04  0.12116266545E+04  0.25500000000E-02 0.  1.
    8880022    1    1    2    0    0 -0.43081378890E+03 -0.56121121502E+03 -0.99799970244E+03  0.12328639859E+04  0.15294330000E+03 0.  1.
    8880022    1    1    2    0    0  0.43081378890E+03  0.56121121502E+03  0.12654955954E+04  0.14578852162E+04  0.15294330000E+03 0.  0.
<mgrwt>
<rscale>  0 0.72384405E+03</rscale>
<asrwt>0</asrwt>
<pdfrwt beam="1">  1        2 0.22755732E+00 0.72384405E+03</pdfrwt>
<pdfrwt beam="2">  1       -2 0.18640410E+00 0.72384405E+03</pdfrwt>
<totfact> 0.22121135E+00</totfact>
</mgrwt>
</event>
<event>
 4    1  0.1726795E-008  0.1783864E+04  0.7818608E-02  0.8714928E-01
         -2   -1    0    0    0  501 -0.00000000000E+00  0.00000000000E+00  0.91349418525E+03  0.91349418525E+03  0.25500000000E-02 0.  1.
          2   -1    0    0  501    0  0.00000000000E+00 -0.00000000000E+00 -0.48675858733E+04  0.48675858733E+04  0.25500000000E-02 0. -1.
    8880022    1    1    2    0    0  0.12881241131E+04 -0.12245471658E+04 -0.35183958368E+04  0.39447788796E+04  0.15294330000E+03 0.  0.
    8880022    1    1    2    0    0 -0.12881241131E+04  0.12245471658E+04 -0.43569585128E+03  0.18363011789E+04  0.15294330000E+03 0.  0.
<mgrwt>
<rscale>  0 0.17838641E+04</rscale>
<asrwt>0</asrwt>
<pdfrwt beam="1">  1        2 0.74885935E+00 0.17838641E+04</pdfrwt>
<pdfrwt beam="2">  1       -2 0.14053757E+00 0.17838641E+04</pdfrwt>
<totfact> 0.16658359E-02</totfact>
</mgrwt>
</event>
<event>
 4    1  0.1726795E-008  0.5313290E+03  0.7818608E-02  0.1005910E+00
          2   -1    0    0  501    0  0.00000000000E+00  0.00000000000E+00  0.23697974046E+04  0.23697974046E+04  0.25500000000E-02 0. -1.
         -2   -1    0    0    0  501 -0.00000000000E+00 -0.00000000000E+00 -0.46770593390E+03  0.46770593391E+03  0.25500000000E-02 0.  1.
    8880022    1    1    2    0    0  0.15987596879E+03 -0.48307194515E+03  0.21758580965E+04  0.22397921642E+04  0.15294330000E+03 0.  0.
    8880022    1    1    2    0    0 -0.15987596879E+03  0.48307194515E+03 -0.27376662576E+03  0.59771117438E+03  0.15294330000E+03 0.  0.
<mgrwt>
<rscale>  0 0.53132898E+03</rscale>
<asrwt>0</asrwt>
<pdfrwt beam="1">  1        2 0.36458422E+00 0.53132898E+03</pdfrwt>
<pdfrwt beam="2">  1       -2 0.71954759E-01 0.53132898E+03</pdfrwt>
<totfact> 0.79082232E+00</totfact>
</mgrwt>
</event>
<event>
 4    1  0.1726795E-008  0.5136487E+03  0.7818608E-02  0.1010277E+00
          2   -1    0    0  501    0  0.00000000000E+00  0.00000000000E+00  0.15667429832E+04  0.15667429832E+04  0.25500000000E-02 0. -1.
         -2   -1    0    0    0  501 -0.00000000000E+00 -0.00000000000E+00 -0.21771619857E+03  0.21771619859E+03  0.25500000000E-02 0.  1.
    8880022    1    1    2    0    0  0.44384573500E+03  0.20843285991E+03  0.10991709872E+04  0.12132649363E+04  0.15294330000E+03 0.  0.
    8880022    1    1    2    0    0 -0.44384573500E+03 -0.20843285991E+03  0.24985579748E+03  0.57119424553E+03  0.15294330000E+03 0.  1.
<mgrwt>
<rscale>  0 0.51364866E+03</rscale>
<asrwt>0</asrwt>
<pdfrwt beam="1">  1        2 0.24103738E+00 0.51364866E+03</pdfrwt>
<pdfrwt beam="2">  1       -2 0.33494800E-01 0.51364866E+03</pdfrwt>
<totfact> 0.10147135E+02</totfact>
</mgrwt>
</event>
<event>
 4    1  0.1726795E-008  0.1707059E+04  0.7818608E-02  0.8757348E-01
         -2   -1    0    0    0  501 -0.00000000000E+00  0.00000000000E+00  0.19525005453E+04  0.19525005453E+04  0.25500000000E-02 0.  1.
          2   -1    0    0  501    0  0.00000000000E+00 -0.00000000000E+00 -0.18489455774E+04  0.18489455774E+04  0.25500000000E-02 0. -1.
    8880022    1    1    2    0    0  0.13148076756E+04  0.10779337491E+04 -0.78280748992E+03  0.18779881817E+04  0.15294330000E+03 0.  0.
    8880022    1    1    2    0    0 -0.13148076756E+04 -0.10779337491E+04  0.88636245774E+03  0.19234579410E+04  0.15294330000E+03 0.  0.
<mgrwt>
<rscale>  0 0.17070595E+04</rscale>
<asrwt>0</asrwt>
<pdfrwt beam="1">  1        2 0.28445317E+00 0.17070595E+04</pdfrwt>
<pdfrwt beam="2">  1       -2 0.30038470E+00 0.17070595E+04</pdfrwt>
<totfact> 0.23513922E-01</totfact>
</mgrwt>
</event>
<event>
 4    1  0.1726795E-008  0.1358479E+04  0.7818608E-02  0.8984434E-01
         -2   -1    0    0    0  501 -0.00000000000E+00  0.00000000000E+00  0.78183563719E+03  0.78183563720E+03  0.25500000000E-02 0.  1.
          2   -1    0    0  501    0  0.00000000000E+00 -0.00000000000E+00 -0.24551257252E+04  0.24551257252E+04  0.25500000000E-02 0. -1.
    8880022    1    1    2    0    0  0.57938346572E+03 -0.12191757497E+04 -0.51878092823E+03  0.14541664325E+04  0.15294330000E+03 0.  0.
    8880022    1    1    2    0    0 -0.57938346572E+03  0.12191757497E+04 -0.11545091598E+04  0.17827949299E+04  0.15294330000E+03 0.  0.
<mgrwt>
<rscale>  0 0.13584794E+04</rscale>
<asrwt>0</asrwt>
<pdfrwt beam="1">  1        2 0.37771165E+00 0.13584794E+04</pdfrwt>
<pdfrwt beam="2">  1       -2 0.12028241E+00 0.13584794E+04</pdfrwt>
<totfact> 0.18787631E+00</totfact>
</mgrwt>
</event>
<event>
 4    1  0.1726795E-008  0.8706306E+03  0.7818608E-02  0.9463058E-01
         -2   -1    0    0    0  501 -0.00000000000E+00  0.00000000000E+00  0.38054351529E+03  0.38054351530E+03  0.25500000000E-02 0.  1.
          2   -1    0    0  501    0  0.00000000000E+00 -0.00000000000E+00 -0.22210064568E+04  0.22210064568E+04  0.25500000000E-02 0. -1.
    8880022    1    1    2    0    0  0.80309211483E+03 -0.29941451077E+03 -0.50243639485E+03  0.10052064355E+04  0.15294330000E+03 0.  0.
    8880022    1    1    2    0    0 -0.80309211483E+03  0.29941451077E+03 -0.13380265467E+04  0.15963435366E+04  0.15294330000E+03 0.  0.
<mgrwt>
<rscale>  0 0.87063060E+03</rscale>
<asrwt>0</asrwt>
<pdfrwt beam="1">  1        2 0.34169329E+00 0.87063060E+03</pdfrwt>
<pdfrwt beam="2">  1       -2 0.58545157E-01 0.87063060E+03</pdfrwt>
<totfact> 0.14018041E+01</totfact>
</mgrwt>
</event>
<event>
 4    1  0.1726795E-008  0.2734979E+03  0.7818608E-02  0.1099294E+00
          2   -1    0    0  501    0  0.00000000000E+00  0.00000000000E+00  0.32841544248E+04  0.32841544248E+04  0.25500000000E-02 0. -1.
         -2   -1    0    0    0  501 -0.00000000000E+00 -0.00000000000E+00 -0.24239468628E+03  0.24239468629E+03  0.25500000000E-02 0.  1.
    8880022    1    1    2    0    0 -0.10159265523E+02  0.22650877123E+03  0.31992690862E+04  0.32109381453E+04  0.15294330000E+03 0.  0.
    8880022    1    1    2    0    0  0.10159265523E+02 -0.22650877123E+03 -0.15750934765E+03  0.31561096580E+03  0.15294330000E+03 0.  0.
<mgrwt>
<rscale>  0 0.27349787E+03</rscale>
<asrwt>0</asrwt>
<pdfrwt beam="1">  1        2 0.50525448E+00 0.27349787E+03</pdfrwt>
<pdfrwt beam="2">  1       -2 0.37291494E-01 0.27349787E+03</pdfrwt>
<totfact> 0.96360594E+00</totfact>
</mgrwt>
</event>
<event>
 4    1  0.1726795E-008  0.6003149E+03  0.7818608E-02  0.9904753E-01
          2   -1    0    0  501    0  0.00000000000E+00  0.00000000000E+00  0.42691716685E+04  0.42691716685E+04  0.25500000000E-02 0. -1.
         -2   -1    0    0    0  501 -0.00000000000E+00 -0.00000000000E+00 -0.47079684308E+03  0.47079684308E+03  0.25500000000E-02 0.  1.
    8880022    1    1    2    0    0 -0.51626234319E+03  0.26544209745E+03 -0.24784001437E+03  0.64946334757E+03  0.15294330000E+03 0.  0.
    8880022    1    1    2    0    0  0.51626234319E+03 -0.26544209745E+03  0.40462148398E+04  0.40905051640E+04  0.15294330000E+03 0.  0.
<mgrwt>
<rscale>  0 0.60031489E+03</rscale>
<asrwt>0</asrwt>
<pdfrwt beam="1">  1        2 0.65679561E+00 0.60031489E+03</pdfrwt>
<pdfrwt beam="2">  1       -2 0.72430287E-01 0.60031489E+03</pdfrwt>
<totfact> 0.41241765E-01</totfact>
</mgrwt>
</event>
<event>
 4    1  0.1726795E-008  0.9172479E+03  0.7818608E-02  0.9404274E-01
         -2   -1    0    0    0  501 -0.00000000000E+00  0.00000000000E+00  0.49716336060E+03  0.49716336061E+03  0.25500000000E-02 0.  1.
          2   -1    0    0  501    0  0.00000000000E+00 -0.00000000000E+00 -0.25525805642E+04  0.25525805642E+04  0.25500000000E-02 0. -1.
    8880022    1    1    2    0    0  0.48679768945E+03 -0.76222042746E+03 -0.19129601955E+04  0.21214995482E+04  0.15294330000E+03 0.  0.
    8880022    1    1    2    0    0 -0.48679768945E+03  0.76222042746E+03 -0.14245700809E+03  0.92824437658E+03  0.15294330000E+03 0.  0.
<mgrwt>
<rscale>  0 0.91724785E+03</rscale>
<asrwt>0</asrwt>
<pdfrwt beam="1">  1        2 0.39270469E+00 0.91724785E+03</pdfrwt>
<pdfrwt beam="2">  1       -2 0.76486672E-01 0.91724785E+03</pdfrwt>
<totfact> 0.50747727E+00</totfact>
</mgrwt>
</event>
<event>
 4    1  0.1726795E-008  0.9908316E+03  0.7818608E-02  0.9318658E-01
         -2   -1    0    0    0  501 -0.00000000000E+00  0.00000000000E+00  0.34319340925E+03  0.34319340926E+03  0.25500000000E-02 0.  1.
          2   -1    0    0  501    0  0.00000000000E+00 -0.00000000000E+00 -0.33065107493E+04  0.33065107493E+04  0.25500000000E-02 0. -1.
    8880022    1    1    2    0    0  0.93553024855E+03 -0.28833779591E+03 -0.81153470387E+03  0.12807559327E+04  0.15294330000E+03 0.  0.
    8880022    1    1    2    0    0 -0.93553024855E+03  0.28833779591E+03 -0.21517826362E+04  0.23689482259E+04  0.15294330000E+03 0.  0.
<mgrwt>
<rscale>  0 0.99083156E+03</rscale>
<asrwt>0</asrwt>
<pdfrwt beam="1">  1        2 0.50869394E+00 0.99083156E+03</pdfrwt>
<pdfrwt beam="2">  1       -2 0.52798988E-01 0.99083156E+03</pdfrwt>
<totfact> 0.38534683E+00</totfact>
</mgrwt>
</event>
<event>
 4    1  0.1726795E-008  0.6525455E+03  0.7818608E-02  0.9802014E-01
          2   -1    0    0  501    0  0.00000000000E+00  0.00000000000E+00  0.33443431994E+03  0.33443431995E+03  0.25500000000E-02 0. -1.
         -2   -1    0    0    0  501 -0.00000000000E+00 -0.00000000000E+00 -0.22153219609E+04  0.22153219609E+04  0.25500000000E-02 0.  1.
    8880022    1    1    2    0    0  0.47821981046E+02 -0.63256388716E+03 -0.10907403125E+03  0.66159867784E+03  0.15294330000E+03 0.  0.
    8880022    1    1    2    0    0 -0.47821981046E+02  0.63256388716E+03 -0.17718136098E+04  0.18881576030E+04  0.15294330000E+03 0.  0.
<mgrwt>
<rscale>  0 0.65254553E+03</rscale>
<asrwt>0</asrwt>
<pdfrwt beam="1">  1        2 0.51451435E-01 0.65254553E+03</pdfrwt>
<pdfrwt beam="2">  1       -2 0.34081875E+00 0.65254553E+03</pdfrwt>
<totfact> 0.18452963E+00</totfact>
</mgrwt>
</event>
<event>
 4    1  0.1726795E-008  0.8493272E+03  0.7818608E-02  0.9491240E-01
          2   -1    0    0  501    0  0.00000000000E+00  0.00000000000E+00  0.35871750848E+04  0.35871750848E+04  0.25500000000E-02 0. -1.
         -2   -1    0    0    0  501 -0.00000000000E+00 -0.00000000000E+00 -0.23430309907E+03  0.23430309908E+03  0.25500000000E-02 0.  1.
    8880022    1    1    2    0    0 -0.70629617645E+03  0.44621829296E+03  0.23957951956E+04  0.25418873551E+04  0.15294330000E+03 0.  0.
    8880022    1    1    2    0    0  0.70629617645E+03 -0.44621829296E+03  0.95707679016E+03  0.12795908288E+04  0.15294330000E+03 0.  0.
<mgrwt>
<rscale>  0 0.84932721E+03</rscale>
<asrwt>0</asrwt>
<pdfrwt beam="1">  1        2 0.55187306E+00 0.84932721E+03</pdfrwt>
<pdfrwt beam="2">  1       -2 0.36046633E-01 0.84932721E+03</pdfrwt>
<totfact> 0.54410490E+00</totfact>
</mgrwt>
</event>
<event>
 4    1  0.1726795E-008  0.8967099E+03  0.7818608E-02  0.9429704E-01
         -2   -1    0    0    0  501 -0.00000000000E+00  0.00000000000E+00  0.72090578202E+03  0.72090578203E+03  0.25500000000E-02 0.  1.
          2   -1    0    0  501    0  0.00000000000E+00 -0.00000000000E+00 -0.18076766181E+04  0.18076766181E+04  0.25500000000E-02 0. -1.
    8880022    1    1    2    0    0  0.84860289951E+03 -0.24611007416E+03 -0.13257888673E+04  0.16005639079E+04  0.15294330000E+03 0.  0.
    8880022    1    1    2    0    0 -0.84860289951E+03  0.24611007416E+03  0.23901803121E+03  0.92801849223E+03  0.15294330000E+03 0.  0.
<mgrwt>
<rscale>  0 0.89670993E+03</rscale>
<asrwt>0</asrwt>
<pdfrwt beam="1">  1        2 0.27810409E+00 0.89670993E+03</pdfrwt>
<pdfrwt beam="2">  1       -2 0.11090858E+00 0.89670993E+03</pdfrwt>
<totfact> 0.55585991E+00</totfact>
</mgrwt>
</event>
<event>
 4    1  0.1726795E-008  0.5516010E+03  0.7818608E-02  0.1001124E+00
          2   -1    0    0  501    0  0.00000000000E+00  0.00000000000E+00  0.86429454542E+03  0.86429454542E+03  0.25500000000E-02 0. -1.
         -2   -1    0    0    0  501 -0.00000000000E+00 -0.00000000000E+00 -0.14675634670E+04  0.14675634670E+04  0.25500000000E-02 0.  1.
    8880022    1    1    2    0    0 -0.35241002851E+03 -0.39582721958E+03 -0.13181490076E+04  0.14289088408E+04  0.15294330000E+03 0.  0.
    8880022    1    1    2    0    0  0.35241002851E+03  0.39582721958E+03  0.71488008610E+03  0.90294917159E+03  0.15294330000E+03 0.  0.
<mgrwt>
<rscale>  0 0.55160101E+03</rscale>
<asrwt>0</asrwt>
<pdfrwt beam="1">  1        2 0.13296839E+00 0.55160101E+03</pdfrwt>
<pdfrwt beam="2">  1       -2 0.22577899E+00 0.55160101E+03</pdfrwt>
<totfact> 0.29985502E+00</totfact>
</mgrwt>
</event>
<event>
 4    1  0.1726795E-008  0.6822622E+03  0.7818608E-02  0.9748056E-01
          2   -1    0    0  501    0  0.00000000000E+00  0.00000000000E+00  0.15533796137E+04  0.15533796137E+04  0.25500000000E-02 0. -1.
         -2   -1    0    0    0  501 -0.00000000000E+00 -0.00000000000E+00 -0.83207189418E+03  0.83207189419E+03  0.25500000000E-02 0.  1.
    8880022    1    1    2    0    0  0.44333102269E+03 -0.49552759438E+03 -0.59342685834E+03  0.90423286917E+03  0.15294330000E+03 0.  0.
    8880022    1    1    2    0    0 -0.44333102269E+03  0.49552759438E+03  0.13147345779E+04  0.14812186388E+04  0.15294330000E+03 0.  0.
<mgrwt>
<rscale>  0 0.68226215E+03</rscale>
<asrwt>0</asrwt>
<pdfrwt beam="1">  1        2 0.23898147E+00 0.68226215E+03</pdfrwt>
<pdfrwt beam="2">  1       -2 0.12801106E+00 0.68226215E+03</pdfrwt>
<totfact> 0.55490248E+00</totfact>
</mgrwt>
</event>
<event>
 4    1  0.1726795E-008  0.1941974E+03  0.7818608E-02  0.1154729E+00
         -2   -1    0    0    0  501 -0.00000000000E+00  0.00000000000E+00  0.10911813855E+03  0.10911813858E+03  0.25500000000E-02 0.  1.
          2   -1    0    0  501    0  0.00000000000E+00 -0.00000000000E+00 -0.83622269855E+03  0.83622269855E+03  0.25500000000E-02 0. -1.
    8880022    1    1    2    0    0 -0.10048998657E+03 -0.64982657363E+02 -0.72559978330E+03  0.75113759173E+03  0.15294330000E+03 0.  0.
    8880022    1    1    2    0    0  0.10048998657E+03  0.64982657363E+02 -0.15047766959E+01  0.19420324541E+03  0.15294330000E+03 0.  1.
<mgrwt>
<rscale>  0 0.19419742E+03</rscale>
<asrwt>0</asrwt>
<pdfrwt beam="1">  1        2 0.12864964E+00 0.19419742E+03</pdfrwt>
<pdfrwt beam="2">  1       -2 0.16787407E-01 0.19419742E+03</pdfrwt>
<totfact> 0.95285007E+02</totfact>
</mgrwt>
</event>
<event>
 4    1  0.1790536E-008  0.8069642E+03  0.7818608E-02  0.9549991E-01
         -2   -1    0    0    0  501 -0.00000000000E+00  0.00000000000E+00  0.17316906513E+04  0.17316906513E+04  0.25500000000E-02 0.  1.
          2   -1    0    0  501    0  0.00000000000E+00 -0.00000000000E+00 -0.22120251227E+04  0.22120251227E+04  0.25500000000E-02 0. -1.
    8880022    1    1    2    0    0  0.77593106951E+03 -0.16040761712E+03 -0.20366155679E+04  0.21906606886E+04  0.15294330000E+03 0.  0.
    8880022    1    1    2    0    0 -0.77593106951E+03  0.16040761712E+03  0.15562810965E+04  0.17530550854E+04  0.15294330000E+03 0.  0.
<mgrwt>
<rscale>  0 0.80696424E+03</rscale>
<asrwt>0</asrwt>
<pdfrwt beam="1">  1        2 0.34031156E+00 0.80696424E+03</pdfrwt>
<pdfrwt beam="2">  1       -2 0.26641394E+00 0.80696424E+03</pdfrwt>
<totfact> 0.27192793E-01</totfact>
</mgrwt>
</event>
<event>
 4    1  0.1726795E-008  0.9462503E+03  0.7818608E-02  0.9369544E-01
         -2   -1    0    0    0  501 -0.00000000000E+00  0.00000000000E+00  0.10135470177E+04  0.10135470177E+04  0.25500000000E-02 0.  1.
          2   -1    0    0  501    0  0.00000000000E+00 -0.00000000000E+00 -0.17491800414E+04  0.17491800414E+04  0.25500000000E-02 0. -1.
    8880022    1    1    2    0    0  0.27864851037E+03 -0.89126482016E+03  0.60401062716E+03  0.11225945228E+04  0.15294330000E+03 0.  0.
    8880022    1    1    2    0    0 -0.27864851037E+03  0.89126482016E+03 -0.13396436509E+04  0.16401325363E+04  0.15294330000E+03 0.  0.
<mgrwt>
<rscale>  0 0.94625030E+03</rscale>
<asrwt>0</asrwt>
<pdfrwt beam="1">  1        2 0.26910462E+00 0.94625030E+03</pdfrwt>
<pdfrwt beam="2">  1       -2 0.15593031E+00 0.94625030E+03</pdfrwt>
<totfact> 0.24918955E+00</totfact>
</mgrwt>
</event>
<event>
 4    1  0.1726795E-008  0.1175354E+04  0.7818608E-02  0.9134707E-01
         -2   -1    0    0    0  501 -0.00000000000E+00  0.00000000000E+00  0.73384210726E+03  0.73384210726E+03  0.25500000000E-02 0.  1.
          2   -1    0    0  501    0  0.00000000000E+00 -0.00000000000E+00 -0.34501327649E+04  0.34501327649E+04  0.25500000000E-02 0. -1.
    8880022    1    1    2    0    0 -0.10500373704E+04  0.50545692190E+03 -0.27682894808E+04  0.30074712769E+04  0.15294330000E+03 0.  0.
    8880022    1    1    2    0    0  0.10500373704E+04 -0.50545692190E+03  0.51998823119E+02  0.11765035953E+04  0.15294330000E+03 0.  0.
<mgrwt>
<rscale>  0 0.11753539E+04</rscale>
<asrwt>0</asrwt>
<pdfrwt beam="1">  1        2 0.53078965E+00 0.11753539E+04</pdfrwt>
<pdfrwt beam="2">  1       -2 0.11289879E+00 0.11753539E+04</pdfrwt>
<totfact> 0.54390156E-01</totfact>
</mgrwt>
</event>
<event>
 4    1  0.1726795E-008  0.7438187E+03  0.7818608E-02  0.9645098E-01
         -2   -1    0    0    0  501 -0.00000000000E+00  0.00000000000E+00  0.49759844418E+03  0.49759844419E+03  0.25500000000E-02 0.  1.
          2   -1    0    0  501    0  0.00000000000E+00 -0.00000000000E+00 -0.17741417932E+04  0.17741417932E+04  0.25500000000E-02 0. -1.
    8880022    1    1    2    0    0 -0.70245788714E+03 -0.19085989042E+03  0.55715882817E+02  0.74590246922E+03  0.15294330000E+03 0.  0.
    8880022    1    1    2    0    0  0.70245788714E+03  0.19085989042E+03 -0.13322592319E+04  0.15258377682E+04  0.15294330000E+03 0.  0.
<mgrwt>
<rscale>  0 0.74381868E+03</rscale>
<asrwt>0</asrwt>
<pdfrwt beam="1">  1        2 0.27294489E+00 0.74381868E+03</pdfrwt>
<pdfrwt beam="2">  1       -2 0.76553608E-01 0.74381868E+03</pdfrwt>
<totfact> 0.14024514E+01</totfact>
</mgrwt>
</event>
<event>
 4    1  0.1726795E-008  0.1895012E+04  0.7818608E-02  0.8657343E-01
          2   -1    0    0  501    0  0.00000000000E+00  0.00000000000E+00  0.17053439401E+04  0.17053439401E+04  0.25500000000E-02 0. -1.
         -2   -1    0    0    0  501 -0.00000000000E+00 -0.00000000000E+00 -0.28540152590E+04  0.28540152590E+04  0.25500000000E-02 0.  1.
    8880022    1    1    2    0    0 -0.18847497941E+04 -0.12408632411E+03 -0.17415917963E+04  0.25737546192E+04  0.15294330000E+03 0.  0.
    8880022    1    1    2    0    0  0.18847497941E+04  0.12408632411E+03  0.59292047740E+03  0.19856045799E+04  0.15294330000E+03 0.  0.
<mgrwt>
<rscale>  0 0.18950121E+04</rscale>
<asrwt>0</asrwt>
<pdfrwt beam="1">  1        2 0.26236061E+00 0.18950121E+04</pdfrwt>
<pdfrwt beam="2">  1       -2 0.43907927E+00 0.18950121E+04</pdfrwt>
<totfact> 0.35818062E-02</totfact>
</mgrwt>
</event>
<event>
 4    1  0.1726795E-008  0.1465353E+04  0.7818608E-02  0.8907825E-01
         -2   -1    0    0    0  501 -0.00000000000E+00  0.00000000000E+00  0.21856248006E+04  0.21856248006E+04  0.25500000000E-02 0.  1.
          2   -1    0    0  501    0  0.00000000000E+00 -0.00000000000E+00 -0.14916617185E+04  0.14916617185E+04  0.25500000000E-02 0. -1.
    8880022    1    1    2    0    0 -0.84199185341E+03 -0.11895031980E+04  0.14212502344E+04  0.20413750319E+04  0.15294330000E+03 0.  0.
    8880022    1    1    2    0    0  0.84199185341E+03  0.11895031980E+04 -0.72728715221E+03  0.16359114872E+04  0.15294330000E+03 0.  0.
<mgrwt>
<rscale>  0 0.14653531E+04</rscale>
<asrwt>0</asrwt>
<pdfrwt beam="1">  1        2 0.22948642E+00 0.14653531E+04</pdfrwt>
<pdfrwt beam="2">  1       -2 0.33624997E+00 0.14653531E+04</pdfrwt>
<totfact> 0.23032459E-01</totfact>
</mgrwt>
</event>
<event>
 4    1  0.1726795E-008  0.3558746E+03  0.7818608E-02  0.1060229E+00
          2   -1    0    0  501    0  0.00000000000E+00  0.00000000000E+00  0.18252557046E+04  0.18252557046E+04  0.25500000000E-02 0. -1.
         -2   -1    0    0    0  501 -0.00000000000E+00 -0.00000000000E+00 -0.28178148713E+03  0.28178148714E+03  0.25500000000E-02 0.  1.
    8880022    1    1    2    0    0  0.73488036446E+02  0.31281719299E+03 -0.14292117667E+03  0.38350124313E+03  0.15294330000E+03 0.  0.
    8880022    1    1    2    0    0 -0.73488036446E+02 -0.31281719299E+03  0.16863953941E+04  0.17235359486E+04  0.15294330000E+03 0.  0.
<mgrwt>
<rscale>  0 0.35587461E+03</rscale>
<asrwt>0</asrwt>
<pdfrwt beam="1">  1        2 0.28080857E+00 0.35587461E+03</pdfrwt>
<pdfrwt beam="2">  1       -2 0.43350999E-01 0.35587461E+03</pdfrwt>
<totfact> 0.46290598E+01</totfact>
</mgrwt>
</event>
<event>
 4    1  0.1726795E-008  0.7430522E+03  0.7818608E-02  0.9646314E-01
          2   -1    0    0  501    0  0.00000000000E+00  0.00000000000E+00  0.14820677510E+04  0.14820677510E+04  0.25500000000E-02 0. -1.
         -2   -1    0    0    0  501 -0.00000000000E+00 -0.00000000000E+00 -0.90351226838E+03  0.90351226838E+03  0.25500000000E-02 0.  1.
    8880022    1    1    2    0    0 -0.70975335233E+03  0.15806653927E+03 -0.62511699544E+03  0.97102922869E+03  0.15294330000E+03 0.  0.
    8880022    1    1    2    0    0  0.70975335233E+03 -0.15806653927E+03  0.12036724781E+04  0.14145507907E+04  0.15294330000E+03 0.  0.
<mgrwt>
<rscale>  0 0.74305215E+03</rscale>
<asrwt>0</asrwt>
<pdfrwt beam="1">  1        2 0.22801042E+00 0.74305215E+03</pdfrwt>
<pdfrwt beam="2">  1       -2 0.13900189E+00 0.74305215E+03</pdfrwt>
<totfact> 0.48810083E+00</totfact>
</mgrwt>
</event>
<event>
 4    1  0.1726795E-008  0.8429417E+03  0.7818608E-02  0.9499860E-01
          2   -1    0    0  501    0  0.00000000000E+00  0.00000000000E+00  0.26816585567E+04  0.26816585567E+04  0.25500000000E-02 0. -1.
         -2   -1    0    0    0  501 -0.00000000000E+00 -0.00000000000E+00 -0.33295594340E+03  0.33295594341E+03  0.25500000000E-02 0.  1.
    8880022    1    1    2    0    0 -0.13815458327E+03  0.81735697611E+03  0.18554779228E+04  0.20379767148E+04  0.15294330000E+03 0.  0.
    8880022    1    1    2    0    0  0.13815458327E+03 -0.81735697611E+03  0.49322469051E+03  0.97663778527E+03  0.15294330000E+03 0.  0.
<mgrwt>
<rscale>  0 0.84294173E+03</rscale>
<asrwt>0</asrwt>
<pdfrwt beam="1">  1        2 0.41256288E+00 0.84294173E+03</pdfrwt>
<pdfrwt beam="2">  1       -2 0.51223989E-01 0.84294173E+03</pdfrwt>
<totfact> 0.10179653E+01</totfact>
</mgrwt>
</event>
<event>
 4    1  0.1726795E-008  0.1575055E+04  0.7818608E-02  0.8836021E-01
         -2   -1    0    0    0  501 -0.00000000000E+00  0.00000000000E+00  0.18187908283E+04  0.18187908283E+04  0.25500000000E-02 0.  1.
          2   -1    0    0  501    0  0.00000000000E+00 -0.00000000000E+00 -0.14488359243E+04  0.14488359243E+04  0.25500000000E-02 0. -1.
    8880022    1    1    2    0    0  0.14595062751E+04  0.57205460249E+03  0.58037191936E+03  0.16785792364E+04  0.15294330000E+03 0.  0.
    8880022    1    1    2    0    0 -0.14595062751E+04 -0.57205460249E+03 -0.21041701533E+03  0.15890475162E+04  0.15294330000E+03 0.  0.
<mgrwt>
<rscale>  0 0.15750545E+04</rscale>
<asrwt>0</asrwt>
<pdfrwt beam="1">  1        2 0.22289783E+00 0.15750545E+04</pdfrwt>
<pdfrwt beam="2">  1       -2 0.27981398E+00 0.15750545E+04</pdfrwt>
<totfact> 0.53522915E-01</totfact>
</mgrwt>
</event>
<event>
 4    1  0.1726795E-008  0.1084820E+04  0.7818608E-02  0.9220115E-01
         -2   -1    0    0    0  501 -0.00000000000E+00  0.00000000000E+00  0.46482165078E+03  0.46482165079E+03  0.25500000000E-02 0.  1.
          2   -1    0    0  501    0  0.00000000000E+00 -0.00000000000E+00 -0.34132313070E+04  0.34132313070E+04  0.25500000000E-02 0. -1.
    8880022    1    1    2    0    0 -0.16841567155E+03 -0.10606974251E+04 -0.48884327767E+03  0.11898748964E+04  0.15294330000E+03 0.  0.
    8880022    1    1    2    0    0  0.16841567155E+03  0.10606974251E+04 -0.24595663786E+04  0.26881780614E+04  0.15294330000E+03 0.  0.
<mgrwt>
<rscale>  0 0.10848200E+04</rscale>
<asrwt>0</asrwt>
<pdfrwt beam="1">  1        2 0.52511249E+00 0.10848200E+04</pdfrwt>
<pdfrwt beam="2">  1       -2 0.71511025E-01 0.10848200E+04</pdfrwt>
<totfact> 0.16886376E+00</totfact>
</mgrwt>
</event>
<event>
 4    1  0.1726795E-008  0.2471200E+03  0.7818608E-02  0.1115139E+00
         -2   -1    0    0    0  501 -0.00000000000E+00  0.00000000000E+00  0.27354095011E+03  0.27354095012E+03  0.25500000000E-02 0.  1.
          2   -1    0    0  501    0  0.00000000000E+00 -0.00000000000E+00 -0.32936157101E+04  0.32936157101E+04  0.25500000000E-02 0. -1.
    8880022    1    1    2    0    0 -0.44720349778E+02  0.18888289683E+03 -0.32321069871E+04  0.32415403572E+04  0.15294330000E+03 0.  0.
    8880022    1    1    2    0    0  0.44720349778E+02 -0.18888289683E+03  0.21203222714E+03  0.32561630297E+03  0.15294330000E+03 0.  0.
<mgrwt>
<rscale>  0 0.24712003E+03</rscale>
<asrwt>0</asrwt>
<pdfrwt beam="1">  1        2 0.50671008E+00 0.24712003E+03</pdfrwt>
<pdfrwt beam="2">  1       -2 0.42083225E-01 0.24712003E+03</pdfrwt>
<totfact> 0.76626512E+00</totfact>
</mgrwt>
</event>
<event>
 4    1  0.1726795E-008  0.6782376E+03  0.7818608E-02  0.9755190E-01
          2   -1    0    0  501    0  0.00000000000E+00  0.00000000000E+00  0.14947804649E+04  0.14947804649E+04  0.25500000000E-02 0. -1.
         -2   -1    0    0    0  501 -0.00000000000E+00 -0.00000000000E+00 -0.33910315818E+03  0.33910315819E+03  0.25500000000E-02 0.  1.
    8880022    1    1    2    0    0 -0.63721518671E+03 -0.17484676314E+03  0.29898638283E+03  0.74121460785E+03  0.15294330000E+03 0.  1.
    8880022    1    1    2    0    0  0.63721518671E+03  0.17484676314E+03  0.85669092387E+03  0.10926690152E+04  0.15294330000E+03 0.  0.
<mgrwt>
<rscale>  0 0.67823760E+03</rscale>
<asrwt>0</asrwt>
<pdfrwt beam="1">  1        2 0.22996623E+00 0.67823760E+03</pdfrwt>
<pdfrwt beam="2">  1       -2 0.52169715E-01 0.67823760E+03</pdfrwt>
<totfact> 0.45668255E+01</totfact>
</mgrwt>
</event>
<event>
 4    1  0.1726795E-008  0.4260179E+03  0.7818608E-02  0.1035125E+00
         -2   -1    0    0    0  501 -0.00000000000E+00  0.00000000000E+00  0.72963024480E+03  0.72963024480E+03  0.25500000000E-02 0.  1.
          2   -1    0    0  501    0  0.00000000000E+00 -0.00000000000E+00 -0.20333879354E+04  0.20333879354E+04  0.25500000000E-02 0. -1.
    8880022    1    1    2    0    0 -0.28403331896E+03 -0.27825285230E+03  0.64237481516E+03  0.77080258969E+03  0.15294330000E+03 0.  1.
    8880022    1    1    2    0    0  0.28403331896E+03  0.27825285230E+03 -0.19461325057E+04  0.19922155905E+04  0.15294330000E+03 0.  0.
<mgrwt>
<rscale>  0 0.42601787E+03</rscale>
<asrwt>0</asrwt>
<pdfrwt beam="1">  1        2 0.31282891E+00 0.42601787E+03</pdfrwt>
<pdfrwt beam="2">  1       -2 0.11225081E+00 0.42601787E+03</pdfrwt>
<totfact> 0.44679982E+00</totfact>
</mgrwt>
</event>
<event>
 4    1  0.1726795E-008  0.9062502E+03  0.7818608E-02  0.9417802E-01
         -2   -1    0    0    0  501 -0.00000000000E+00  0.00000000000E+00  0.37429288219E+03  0.37429288220E+03  0.25500000000E-02 0.  1.
          2   -1    0    0  501    0  0.00000000000E+00 -0.00000000000E+00 -0.31359209520E+04  0.31359209520E+04  0.25500000000E-02 0. -1.
    8880022    1    1    2    0    0 -0.86215727542E+03 -0.23362911373E+03 -0.41904161261E+03  0.99844141363E+03  0.15294330000E+03 0.  0.
    8880022    1    1    2    0    0  0.86215727542E+03  0.23362911373E+03 -0.23425864572E+04  0.25117724206E+04  0.15294330000E+03 0.  0.
<mgrwt>
<rscale>  0 0.90625018E+03</rscale>
<asrwt>0</asrwt>
<pdfrwt beam="1">  1        2 0.48244936E+00 0.90625018E+03</pdfrwt>
<pdfrwt beam="2">  1       -2 0.57583522E-01 0.90625018E+03</pdfrwt>
<totfact> 0.41973434E+00</totfact>
</mgrwt>
</event>
<event>
 4    1  0.1726795E-008  0.7157388E+03  0.7818608E-02  0.9690689E-01
         -2   -1    0    0    0  501 -0.00000000000E+00  0.00000000000E+00  0.66717927431E+03  0.66717927432E+03  0.25500000000E-02 0.  1.
          2   -1    0    0  501    0  0.00000000000E+00 -0.00000000000E+00 -0.10466260064E+04  0.10466260064E+04  0.25500000000E-02 0. -1.
    8880022    1    1    2    0    0 -0.73973960291E+02  0.69528286594E+03  0.25253584972E+03  0.75898380673E+03  0.15294330000E+03 0.  0.
    8880022    1    1    2    0    0  0.73973960291E+02 -0.69528286594E+03 -0.63198258184E+03  0.95482147401E+03  0.15294330000E+03 0.  0.
<mgrwt>
<rscale>  0 0.71573882E+03</rscale>
<asrwt>0</asrwt>
<pdfrwt beam="1">  1        2 0.16101938E+00 0.71573882E+03</pdfrwt>
<pdfrwt beam="2">  1       -2 0.10264297E+00 0.71573882E+03</pdfrwt>
<totfact> 0.18641938E+01</totfact>
</mgrwt>
</event>
<event>
 4    1  0.1726795E-008  0.4082651E+03  0.7818608E-02  0.1040955E+00
          2   -1    0    0  501    0  0.00000000000E+00  0.00000000000E+00  0.10727249392E+04  0.10727249392E+04  0.25500000000E-02 0. -1.
         -2   -1    0    0    0  501 -0.00000000000E+00 -0.00000000000E+00 -0.98282576938E+03  0.98282576939E+03  0.25500000000E-02 0.  1.
    8880022    1    1    2    0    0  0.35653038601E+03 -0.12718033564E+03  0.98798847353E+03  0.10690190039E+04  0.15294330000E+03 0. -1.
    8880022    1    1    2    0    0 -0.35653038601E+03  0.12718033564E+03 -0.89808930369E+03  0.98653170468E+03  0.15294330000E+03 0.  0.
<mgrwt>
<rscale>  0 0.40826512E+03</rscale>
<asrwt>0</asrwt>
<pdfrwt beam="1">  1        2 0.16503461E+00 0.40826512E+03</pdfrwt>
<pdfrwt beam="2">  1       -2 0.15120396E+00 0.40826512E+03</pdfrwt>
<totfact> 0.71953419E+00</totfact>
</mgrwt>
</event>
<event>
 4    1  0.1726795E-008  0.1474214E+04  0.7818608E-02  0.8901784E-01
         -2   -1    0    0    0  501 -0.00000000000E+00  0.00000000000E+00  0.70992752079E+03  0.70992752080E+03  0.25500000000E-02 0.  1.
          2   -1    0    0  501    0  0.00000000000E+00 -0.00000000000E+00 -0.35861174084E+04  0.35861174084E+04  0.25500000000E-02 0. -1.
    8880022    1    1    2    0    0  0.13843533470E+03 -0.14597091861E+04 -0.22598214809E+04  0.26981660491E+04  0.15294330000E+03 0.  0.
    8880022    1    1    2    0    0 -0.13843533470E+03  0.14597091861E+04 -0.61636840672E+03  0.15978788801E+04  0.15294330000E+03 0.  0.
<mgrwt>
<rscale>  0 0.14742140E+04</rscale>
<asrwt>0</asrwt>
<pdfrwt beam="1">  1        2 0.55171036E+00 0.14742140E+04</pdfrwt>
<pdfrwt beam="2">  1       -2 0.10921962E+00 0.14742140E+04</pdfrwt>
<totfact> 0.45536704E-01</totfact>
</mgrwt>
</event>
<event>
 4    1  0.1726795E-008  0.2470236E+03  0.7818608E-02  0.1115200E+00
          2   -1    0    0  501    0  0.00000000000E+00  0.00000000000E+00  0.14816008629E+04  0.14816008629E+04  0.25500000000E-02 0. -1.
         -2   -1    0    0    0  501 -0.00000000000E+00 -0.00000000000E+00 -0.79302047469E+03  0.79302047470E+03  0.25500000000E-02 0.  1.
    8880022    1    1    2    0    0 -0.29330207949E+02  0.19175174183E+03 -0.76309354453E+03  0.80208004732E+03  0.15294330000E+03 0.  1.
    8880022    1    1    2    0    0  0.29330207949E+02 -0.19175174183E+03  0.14516739327E+04  0.14725412902E+04  0.15294330000E+03 0.  0.
<mgrwt>
<rscale>  0 0.24702357E+03</rscale>
<asrwt>0</asrwt>
<pdfrwt beam="1">  1        2 0.22793859E+00 0.24702357E+03</pdfrwt>
<pdfrwt beam="2">  1       -2 0.12200315E+00 0.24702357E+03</pdfrwt>
<totfact> 0.76698969E+00</totfact>
</mgrwt>
</event>
<event>
 4    1  0.1726795E-008  0.5750998E+03  0.7818608E-02  0.9958457E-01
          2   -1    0    0  501    0  0.00000000000E+00  0.00000000000E+00  0.14784153300E+04  0.14784153300E+04  0.25500000000E-02 0. -1.
         -2   -1    0    0    0  501 -0.00000000000E+00 -0.00000000000E+00 -0.77953159710E+03  0.77953159710E+03  0.25500000000E-02 0.  1.
    8880022    1    1    2    0    0 -0.38063724687E+03 -0.40306746532E+03  0.13027508119E+04  0.14240433372E+04  0.15294330000E+03 0.  0.
    8880022    1    1    2    0    0  0.38063724687E+03  0.40306746532E+03 -0.60386707894E+03  0.83390358996E+03  0.15294330000E+03 0.  0.
<mgrwt>
<rscale>  0 0.57509977E+03</rscale>
<asrwt>0</asrwt>
<pdfrwt beam="1">  1        2 0.22744851E+00 0.57509977E+03</pdfrwt>
<pdfrwt beam="2">  1       -2 0.11992794E+00 0.57509977E+03</pdfrwt>
<totfact> 0.73197424E+00</totfact>
</mgrwt>
</event>
<event>
 4    1  0.1726795E-008  0.7467552E+03  0.7818608E-02  0.9640455E-01
          2   -1    0    0  501    0  0.00000000000E+00  0.00000000000E+00  0.52117843865E+03  0.52117843865E+03  0.25500000000E-02 0. -1.
         -2   -1    0    0    0  501 -0.00000000000E+00 -0.00000000000E+00 -0.28304912492E+04  0.28304912492E+04  0.25500000000E-02 0.  1.
    8880022    1    1    2    0    0 -0.69935084443E+03 -0.21250904182E+03 -0.24763214488E+04  0.25864669469E+04  0.15294330000E+03 0.  0.
    8880022    1    1    2    0    0  0.69935084443E+03  0.21250904182E+03  0.16700863829E+03  0.76520274094E+03  0.15294330000E+03 0.  0.
<mgrwt>
<rscale>  0 0.74675521E+03</rscale>
<asrwt>0</asrwt>
<pdfrwt beam="1">  1        2 0.80181300E-01 0.74675521E+03</pdfrwt>
<pdfrwt beam="2">  1       -2 0.43546018E+00 0.74675521E+03</pdfrwt>
<totfact> 0.27135698E-01</totfact>
</mgrwt>
</event>
<event>
 4    1  0.1726795E-008  0.3726873E+03  0.7818608E-02  0.1053670E+00
          2   -1    0    0  501    0  0.00000000000E+00  0.00000000000E+00  0.13944581552E+04  0.13944581552E+04  0.25500000000E-02 0. -1.
         -2   -1    0    0    0  501 -0.00000000000E+00 -0.00000000000E+00 -0.16645291907E+03  0.16645291909E+03  0.25500000000E-02 0.  1.
    8880022    1    1    2    0    0  0.33948801316E+03 -0.15877317643E+02  0.11941364736E+03  0.39135083044E+03  0.15294330000E+03 0.  0.
    8880022    1    1    2    0    0 -0.33948801316E+03  0.15877317643E+02  0.11085915888E+04  0.11695602438E+04  0.15294330000E+03 0.  0.
<mgrwt>
<rscale>  0 0.37268734E+03</rscale>
<asrwt>0</asrwt>
<pdfrwt beam="1">  1        2 0.21453202E+00 0.37268734E+03</pdfrwt>
<pdfrwt beam="2">  1       -2 0.25608142E-01 0.37268734E+03</pdfrwt>
<totfact> 0.21035714E+02</totfact>
</mgrwt>
</event>
<event>
 4    1  0.1726795E-008  0.2354746E+03  0.7818608E-02  0.1122845E+00
          2   -1    0    0  501    0  0.00000000000E+00  0.00000000000E+00  0.10271512366E+04  0.10271512366E+04  0.25500000000E-02 0. -1.
         -2   -1    0    0    0  501 -0.00000000000E+00 -0.00000000000E+00 -0.15051565838E+03  0.15051565841E+03  0.25500000000E-02 0.  1.
    8880022    1    1    2    0    0 -0.13433836259E+03 -0.11836317734E+03  0.90988073424E+03  0.93985703220E+03  0.15294330000E+03 0.  0.
    8880022    1    1    2    0    0  0.13433836259E+03  0.11836317734E+03 -0.33245156070E+02  0.23780986277E+03  0.15294330000E+03 0.  1.
<mgrwt>
<rscale>  0 0.23547461E+03</rscale>
<asrwt>0</asrwt>
<pdfrwt beam="1">  1        2 0.15802326E+00 0.23547461E+03</pdfrwt>
<pdfrwt beam="2">  1       -2 0.23156256E-01 0.23547461E+03</pdfrwt>
<totfact> 0.41554287E+02</totfact>
</mgrwt>
</event>
<event>
 4    1  0.1726795E-008  0.5316162E+03  0.7818608E-02  0.1005841E+00
         -2   -1    0    0    0  501 -0.00000000000E+00  0.00000000000E+00  0.78162644671E+03  0.78162644671E+03  0.25500000000E-02 0.  1.
          2   -1    0    0  501    0  0.00000000000E+00 -0.00000000000E+00 -0.12948087619E+04  0.12948087619E+04  0.25500000000E-02 0. -1.
    8880022    1    1    2    0    0  0.33932332676E+03 -0.37958372386E+03  0.62482505539E+03  0.82037925764E+03  0.15294330000E+03 0.  0.
    8880022    1    1    2    0    0 -0.33932332676E+03  0.37958372386E+03 -0.11380073706E+04  0.12560559510E+04  0.15294330000E+03 0.  0.
<mgrwt>
<rscale>  0 0.53161619E+03</rscale>
<asrwt>0</asrwt>
<pdfrwt beam="1">  1        2 0.19920135E+00 0.53161619E+03</pdfrwt>
<pdfrwt beam="2">  1       -2 0.12025022E+00 0.53161619E+03</pdfrwt>
<totfact> 0.92934602E+00</totfact>
</mgrwt>
</event>
<event>
 4    1  0.1726795E-008  0.4796354E+03  0.7818608E-02  0.1019235E+00
          2   -1    0    0  501    0  0.00000000000E+00  0.00000000000E+00  0.31719369900E+04  0.31719369900E+04  0.25500000000E-02 0. -1.
         -2   -1    0    0    0  501 -0.00000000000E+00 -0.00000000000E+00 -0.50882708147E+03  0.50882708147E+03  0.25500000000E-02 0.  1.
    8880022    1    1    2    0    0  0.80355068143E+02 -0.44743881609E+03  0.30357357966E+04  0.30733925735E+04  0.15294330000E+03 0.  0.
    8880022    1    1    2    0    0 -0.80355068143E+02  0.44743881609E+03 -0.37262588804E+03  0.60737149799E+03  0.15294330000E+03 0.  0.
<mgrwt>
<rscale>  0 0.47963537E+03</rscale>
<asrwt>0</asrwt>
<pdfrwt beam="1">  1        2 0.48799030E+00 0.47963537E+03</pdfrwt>
<pdfrwt beam="2">  1       -2 0.78281091E-01 0.47963537E+03</pdfrwt>
<totfact> 0.22680251E+00</totfact>
</mgrwt>
</event>
<event>
 4    1  0.1726795E-008  0.1138920E+04  0.7818608E-02  0.9168067E-01
          2   -1    0    0  501    0  0.00000000000E+00  0.00000000000E+00  0.32346481276E+04  0.32346481276E+04  0.25500000000E-02 0. -1.
         -2   -1    0    0    0  501 -0.00000000000E+00 -0.00000000000E+00 -0.76910107303E+03  0.76910107303E+03  0.25500000000E-02 0.  1.
    8880022    1    1    2    0    0 -0.10965663025E+04  0.26700097416E+03  0.26176802016E+04  0.28547133773E+04  0.15294330000E+03 0.  0.
    8880022    1    1    2    0    0  0.10965663025E+04 -0.26700097416E+03 -0.15213314697E+03  0.11490358233E+04  0.15294330000E+03 0.  0.
<mgrwt>
<rscale>  0 0.11389200E+04</rscale>
<asrwt>0</asrwt>
<pdfrwt beam="1">  1        2 0.49763817E+00 0.11389200E+04</pdfrwt>
<pdfrwt beam="2">  1       -2 0.11832324E+00 0.11389200E+04</pdfrwt>
<totfact> 0.67770041E-01</totfact>
</mgrwt>
</event>
<event>
 4    1  0.1726795E-008  0.3568490E+03  0.7818608E-02  0.1059839E+00
         -2   -1    0    0    0  501 -0.00000000000E+00  0.00000000000E+00  0.25966171529E+03  0.25966171530E+03  0.25500000000E-02 0.  1.
          2   -1    0    0  501    0  0.00000000000E+00 -0.00000000000E+00 -0.18551353975E+04  0.18551353975E+04  0.25500000000E-02 0. -1.
    8880022    1    1    2    0    0 -0.52177803361E+02  0.31816200147E+03  0.10919200829E+03  0.37318109549E+03  0.15294330000E+03 0.  0.
    8880022    1    1    2    0    0  0.52177803361E+02 -0.31816200147E+03 -0.17046656906E+04  0.17416160174E+04  0.15294330000E+03 0. -1.
<mgrwt>
<rscale>  0 0.35684904E+03</rscale>
<asrwt>0</asrwt>
<pdfrwt beam="1">  1        2 0.28540544E+00 0.35684904E+03</pdfrwt>
<pdfrwt beam="2">  1       -2 0.39947957E-01 0.35684904E+03</pdfrwt>
<totfact> 0.52292963E+01</totfact>
</mgrwt>
</event>
<event>
 4    1  0.1726795E-008  0.3336584E+03  0.7818608E-02  0.1069530E+00
         -2   -1    0    0    0  501 -0.00000000000E+00  0.00000000000E+00  0.92869112396E+02  0.92869112431E+02  0.25500000000E-02 0.  1.
          2   -1    0    0  501    0  0.00000000000E+00 -0.00000000000E+00 -0.32127634913E+04  0.32127634913E+04  0.25500000000E-02 0. -1.
    8880022    1    1    2    0    0  0.16853587899E+03  0.24399167361E+03 -0.25132241146E+03  0.41772106341E+03  0.15294330000E+03 0.  1.
    8880022    1    1    2    0    0 -0.16853587899E+03 -0.24399167361E+03 -0.28685719674E+04  0.28879115403E+04  0.15294330000E+03 0.  0.
<mgrwt>
<rscale>  0 0.33365841E+03</rscale>
<asrwt>0</asrwt>
<pdfrwt beam="1">  1        2 0.49427122E+00 0.33365841E+03</pdfrwt>
<pdfrwt beam="2">  1       -2 0.14287558E-01 0.33365841E+03</pdfrwt>
<totfact> 0.56383901E+01</totfact>
</mgrwt>
</event>
<event>
 4    1  0.1726795E-008  0.8595202E+03  0.7818608E-02  0.9477648E-01
          2   -1    0    0  501    0  0.00000000000E+00  0.00000000000E+00  0.23496239333E+04  0.23496239333E+04  0.25500000000E-02 0. -1.
         -2   -1    0    0    0  501 -0.00000000000E+00 -0.00000000000E+00 -0.49193135590E+03  0.49193135591E+03  0.25500000000E-02 0.  1.
    8880022    1    1    2    0    0 -0.72730064190E+03  0.43176042574E+03  0.17823073528E+04  0.19787355665E+04  0.15294330000E+03 0.  0.
    8880022    1    1    2    0    0  0.72730064190E+03 -0.43176042574E+03  0.75385224604E+02  0.86281972280E+03  0.15294330000E+03 0.  0.
<mgrwt>
<rscale>  0 0.85952018E+03</rscale>
<asrwt>0</asrwt>
<pdfrwt beam="1">  1        2 0.36148059E+00 0.85952018E+03</pdfrwt>
<pdfrwt beam="2">  1       -2 0.75681749E-01 0.85952018E+03</pdfrwt>
<totfact> 0.68290137E+00</totfact>
</mgrwt>
</event>
<event>
 4    1  0.1726795E-008  0.1340733E+04  0.7818608E-02  0.8997873E-01
         -2   -1    0    0    0  501 -0.00000000000E+00  0.00000000000E+00  0.16707209986E+04  0.16707209986E+04  0.25500000000E-02 0.  1.
          2   -1    0    0  501    0  0.00000000000E+00 -0.00000000000E+00 -0.13348117003E+04  0.13348117003E+04  0.25500000000E-02 0. -1.
    8880022    1    1    2    0    0  0.11145470102E+04 -0.72935477400E+03  0.82977336842E+03  0.15767336238E+04  0.15294330000E+03 0.  0.
    8880022    1    1    2    0    0 -0.11145470102E+04  0.72935477400E+03 -0.49386407006E+03  0.14287990751E+04  0.15294330000E+03 0.  0.
<mgrwt>
<rscale>  0 0.13407330E+04</rscale>
<asrwt>0</asrwt>
<pdfrwt beam="1">  1        2 0.20535565E+00 0.13407330E+04</pdfrwt>
<pdfrwt beam="2">  1       -2 0.25703400E+00 0.13407330E+04</pdfrwt>
<totfact> 0.87872649E-01</totfact>
</mgrwt>
</event>
<event>
 4    1  0.1726795E-008  0.6154184E+03  0.7818608E-02  0.9873924E-01
         -2   -1    0    0    0  501 -0.00000000000E+00  0.00000000000E+00  0.65038702537E+03  0.65038702538E+03  0.25500000000E-02 0.  1.
          2   -1    0    0  501    0  0.00000000000E+00 -0.00000000000E+00 -0.12191932163E+04  0.12191932163E+04  0.25500000000E-02 0. -1.
    8880022    1    1    2    0    0  0.43751676328E+03  0.40487932825E+03 -0.96002068282E+03  0.11403418580E+04  0.15294330000E+03 0.  0.
    8880022    1    1    2    0    0 -0.43751676328E+03 -0.40487932825E+03  0.39121449189E+03  0.72923838371E+03  0.15294330000E+03 0.  1.
<mgrwt>
<rscale>  0 0.61541843E+03</rscale>
<asrwt>0</asrwt>
<pdfrwt beam="1">  1        2 0.18756819E+00 0.61541843E+03</pdfrwt>
<pdfrwt beam="2">  1       -2 0.10005954E+00 0.61541843E+03</pdfrwt>
<totfact> 0.15788620E+01</totfact>
</mgrwt>
</event>
<event>
 4    1  0.1726795E-008  0.1275317E+04  0.7818608E-02  0.9049371E-01
          2   -1    0    0  501    0  0.00000000000E+00  0.00000000000E+00  0.94942080049E+03  0.94942080049E+03  0.25500000000E-02 0. -1.
         -2   -1    0    0    0  501 -0.00000000000E+00 -0.00000000000E+00 -0.23779383479E+04  0.23779383479E+04  0.25500000000E-02 0.  1.
    8880022    1    1    2    0    0  0.51755350141E+03 -0.11555003995E+04  0.16543946500E+03  0.12860033708E+04  0.15294330000E+03 0.  0.
    8880022    1    1    2    0    0 -0.51755350141E+03  0.11555003995E+04 -0.15939570124E+04  0.20413557775E+04  0.15294330000E+03 0.  0.
<mgrwt>
<rscale>  0 0.12753174E+04</rscale>
<asrwt>0</asrwt>
<pdfrwt beam="1">  1        2 0.14606474E+00 0.12753174E+04</pdfrwt>
<pdfrwt beam="2">  1       -2 0.36583667E+00 0.12753174E+04</pdfrwt>
<totfact> 0.32707020E-01</totfact>
</mgrwt>
</event>
<event>
 4    1  0.1726795E-008  0.8922302E+03  0.7818608E-02  0.9435346E-01
         -2   -1    0    0    0  501 -0.00000000000E+00  0.00000000000E+00  0.11156458913E+04  0.11156458913E+04  0.25500000000E-02 0.  1.
          2   -1    0    0  501    0  0.00000000000E+00 -0.00000000000E+00 -0.14821229476E+04  0.14821229476E+04  0.25500000000E-02 0. -1.
    8880022    1    1    2    0    0  0.74404786788E+03  0.46805540288E+03  0.75210149045E+03  0.11669324723E+04  0.15294330000E+03 0.  0.
    8880022    1    1    2    0    0 -0.74404786788E+03 -0.46805540288E+03 -0.11185785468E+04  0.14308363667E+04  0.15294330000E+03 0.  0.
<mgrwt>
<rscale>  0 0.89223021E+03</rscale>
<asrwt>0</asrwt>
<pdfrwt beam="1">  1        2 0.22801892E+00 0.89223021E+03</pdfrwt>
<pdfrwt beam="2">  1       -2 0.17163783E+00 0.89223021E+03</pdfrwt>
<totfact> 0.27133956E+00</totfact>
</mgrwt>
</event>
<event>
 4    1  0.1726795E-008  0.9038890E+03  0.7818608E-02  0.9420733E-01
         -2   -1    0    0    0  501 -0.00000000000E+00  0.00000000000E+00  0.54704098868E+03  0.54704098869E+03  0.25500000000E-02 0.  1.
          2   -1    0    0  501    0  0.00000000000E+00 -0.00000000000E+00 -0.36771367523E+04  0.36771367523E+04  0.25500000000E-02 0. -1.
    8880022    1    1    2    0    0  0.13639470466E+03  0.88035233800E+03  0.62544818047E+02  0.90605036381E+03  0.15294330000E+03 0.  0.
    8880022    1    1    2    0    0 -0.13639470466E+03 -0.88035233800E+03 -0.31926405817E+04  0.33181273772E+04  0.15294330000E+03 0.  0.
<mgrwt>
<rscale>  0 0.90388905E+03</rscale>
<asrwt>0</asrwt>
<pdfrwt beam="1">  1        2 0.56571333E+00 0.90388905E+03</pdfrwt>
<pdfrwt beam="2">  1       -2 0.84160155E-01 0.90388905E+03</pdfrwt>
<totfact> 0.79263949E-01</totfact>
</mgrwt>
</event>
<event>
 4    1  0.1726795E-008  0.1001077E+04  0.7818608E-02  0.9307365E-01
          2   -1    0    0  501    0  0.00000000000E+00  0.00000000000E+00  0.24851673761E+04  0.24851673761E+04  0.25500000000E-02 0. -1.
         -2   -1    0    0    0  501 -0.00000000000E+00 -0.00000000000E+00 -0.87391763734E+03  0.87391763735E+03  0.25500000000E-02 0.  1.
    8880022    1    1    2    0    0 -0.67331432203E+02  0.98703049687E+03 -0.42694328431E+03  0.10883174833E+04  0.15294330000E+03 0.  0.
    8880022    1    1    2    0    0  0.67331432203E+02 -0.98703049687E+03  0.20381930231E+04  0.22707675301E+04  0.15294330000E+03 0.  0.
<mgrwt>
<rscale>  0 0.10010766E+04</rscale>
<asrwt>0</asrwt>
<pdfrwt beam="1">  1        2 0.38233344E+00 0.10010766E+04</pdfrwt>
<pdfrwt beam="2">  1       -2 0.13444887E+00 0.10010766E+04</pdfrwt>
<totfact> 0.14238670E+00</totfact>
</mgrwt>
</event>
<event>
 4    1  0.1726795E-008  0.1322046E+04  0.7818608E-02  0.9012263E-01
         -2   -1    0    0    0  501 -0.00000000000E+00  0.00000000000E+00  0.99547296989E+03  0.99547296990E+03  0.25500000000E-02 0.  1.
          2   -1    0    0  501    0  0.00000000000E+00 -0.00000000000E+00 -0.30482888037E+04  0.30482888037E+04  0.25500000000E-02 0. -1.
    8880022    1    1    2    0    0 -0.12426983365E+04  0.42440000238E+03  0.29017600229E+03  0.13535170051E+04  0.15294330000E+03 0.  0.
    8880022    1    1    2    0    0  0.12426983365E+04 -0.42440000238E+03 -0.23429918361E+04  0.26902447685E+04  0.15294330000E+03 0.  0.
<mgrwt>
<rscale>  0 0.13220462E+04</rscale>
<asrwt>0</asrwt>
<pdfrwt beam="1">  1        2 0.46896750E+00 0.13220462E+04</pdfrwt>
<pdfrwt beam="2">  1       -2 0.15314969E+00 0.13220462E+04</pdfrwt>
<totfact> 0.44586974E-01</totfact>
</mgrwt>
</event>
<event>
 4    1  0.1726795E-008  0.6325546E+03  0.7818608E-02  0.9840076E-01
         -2   -1    0    0    0  501 -0.00000000000E+00  0.00000000000E+00  0.92516746332E+03  0.92516746333E+03  0.25500000000E-02 0.  1.
          2   -1    0    0  501    0  0.00000000000E+00 -0.00000000000E+00 -0.89084109373E+03  0.89084109374E+03  0.25500000000E-02 0. -1.
    8880022    1    1    2    0    0  0.57243673454E+03  0.22147213876E+03 -0.63414579098E+03  0.89569317320E+03  0.15294330000E+03 0.  0.
    8880022    1    1    2    0    0 -0.57243673454E+03 -0.22147213876E+03  0.66847216057E+03  0.92031538386E+03  0.15294330000E+03 0.  0.
<mgrwt>
<rscale>  0 0.63255464E+03</rscale>
<asrwt>0</asrwt>
<pdfrwt beam="1">  1        2 0.13705248E+00 0.63255464E+03</pdfrwt>
<pdfrwt beam="2">  1       -2 0.14233345E+00 0.63255464E+03</pdfrwt>
<totfact> 0.10557060E+01</totfact>
</mgrwt>
</event>
<event>
 4    1  0.1726795E-008  0.4285340E+03  0.7818608E-02  0.1034324E+00
         -2   -1    0    0    0  501 -0.00000000000E+00  0.00000000000E+00  0.67229103550E+03  0.67229103551E+03  0.25500000000E-02 0.  1.
          2   -1    0    0  501    0  0.00000000000E+00 -0.00000000000E+00 -0.51421822723E+03  0.51421822724E+03  0.25500000000E-02 0. -1.
    8880022    1    1    2    0    0 -0.24101670176E+03  0.31962585196E+03 -0.32715484962E+03  0.53913976334E+03  0.15294330000E+03 0.  0.
    8880022    1    1    2    0    0  0.24101670176E+03 -0.31962585196E+03  0.48522765789E+03  0.64736949941E+03  0.15294330000E+03 0.  0.
<mgrwt>
<rscale>  0 0.42853400E+03</rscale>
<asrwt>0</asrwt>
<pdfrwt beam="1">  1        2 0.79110496E-01 0.42853400E+03</pdfrwt>
<pdfrwt beam="2">  1       -2 0.10342939E+00 0.42853400E+03</pdfrwt>
<totfact> 0.47297163E+01</totfact>
</mgrwt>
</event>
<event>
 4    1  0.1726795E-008  0.1776366E+03  0.7818608E-02  0.1170110E+00
          2   -1    0    0  501    0  0.00000000000E+00  0.00000000000E+00  0.38931411268E+04  0.38931411268E+04  0.25500000000E-02 0. -1.
         -2   -1    0    0    0  501 -0.00000000000E+00 -0.00000000000E+00 -0.29281921887E+03  0.29281921888E+03  0.25500000000E-02 0.  1.
    8880022    1    1    2    0    0  0.36723811107E+02  0.82549761535E+02 -0.26364916757E+03  0.31790822262E+03  0.15294330000E+03 0.  1.
    8880022    1    1    2    0    0 -0.36723811107E+02 -0.82549761535E+02  0.38639710755E+04  0.38680521231E+04  0.15294330000E+03 0.  0.
<mgrwt>
<rscale>  0 0.17763658E+03</rscale>
<asrwt>0</asrwt>
<pdfrwt beam="1">  1        2 0.59894475E+00 0.17763658E+03</pdfrwt>
<pdfrwt beam="2">  1       -2 0.45049113E-01 0.17763658E+03</pdfrwt>
<totfact> 0.28012578E+00</totfact>
</mgrwt>
</event>
<event>
 4    1  0.1726795E-008  0.4280154E+03  0.7818608E-02  0.1034489E+00
          2   -1    0    0  501    0  0.00000000000E+00  0.00000000000E+00  0.23332427377E+04  0.23332427377E+04  0.25500000000E-02 0. -1.
         -2   -1    0    0    0  501 -0.00000000000E+00 -0.00000000000E+00 -0.65623460541E+03  0.65623460541E+03  0.25500000000E-02 0.  1.
    8880022    1    1    2    0    0 -0.30295214295E+03  0.26081698094E+03 -0.56396677599E+03  0.70799412138E+03  0.15294330000E+03 0.  0.
    8880022    1    1    2    0    0  0.30295214295E+03 -0.26081698094E+03  0.22409749083E+04  0.22814832217E+04  0.15294330000E+03 0. -1.
<mgrwt>
<rscale>  0 0.42801536E+03</rscale>
<asrwt>0</asrwt>
<pdfrwt beam="1">  1        2 0.35896042E+00 0.42801536E+03</pdfrwt>
<pdfrwt beam="2">  1       -2 0.10095917E+00 0.42801536E+03</pdfrwt>
<totfact> 0.39582229E+00</totfact>
</mgrwt>
</event>
<event>
 4    1  0.1726795E-008  0.8262913E+03  0.7818608E-02  0.9522722E-01
          2   -1    0    0  501    0  0.00000000000E+00  0.00000000000E+00  0.24444777202E+04  0.24444777202E+04  0.25500000000E-02 0. -1.
         -2   -1    0    0    0  501 -0.00000000000E+00 -0.00000000000E+00 -0.88101101489E+03  0.88101101490E+03  0.25500000000E-02 0.  1.
    8880022    1    1    2    0    0  0.23293325450E+03  0.77788667399E+03 -0.59239291312E+03  0.10167037893E+04  0.15294330000E+03 0.  0.
    8880022    1    1    2    0    0 -0.23293325450E+03 -0.77788667399E+03  0.21558596184E+04  0.23087849458E+04  0.15294330000E+03 0. -1.
<mgrwt>
<rscale>  0 0.82629125E+03</rscale>
<asrwt>0</asrwt>
<pdfrwt beam="1">  1        2 0.37607350E+00 0.82629125E+03</pdfrwt>
<pdfrwt beam="2">  1       -2 0.13554016E+00 0.82629125E+03</pdfrwt>
<totfact> 0.15141037E+00</totfact>
</mgrwt>
</event>
<event>
 4    1  0.1726795E-008  0.5711302E+03  0.7818608E-02  0.9967181E-01
          2   -1    0    0  501    0  0.00000000000E+00  0.00000000000E+00  0.10018322176E+04  0.10018322176E+04  0.25500000000E-02 0. -1.
         -2   -1    0    0    0  501 -0.00000000000E+00 -0.00000000000E+00 -0.63094508344E+03  0.63094508344E+03  0.25500000000E-02 0.  1.
    8880022    1    1    2    0    0  0.23121652838E+03 -0.49933656454E+03  0.75338230467E+03  0.94539655049E+03  0.15294330000E+03 0.  0.
    8880022    1    1    2    0    0 -0.23121652838E+03  0.49933656454E+03 -0.38249517054E+03  0.68738075052E+03  0.15294330000E+03 0.  0.
<mgrwt>
<rscale>  0 0.57113023E+03</rscale>
<asrwt>0</asrwt>
<pdfrwt beam="1">  1        2 0.15412803E+00 0.57113023E+03</pdfrwt>
<pdfrwt beam="2">  1       -2 0.97068475E-01 0.57113023E+03</pdfrwt>
<totfact> 0.23103161E+01</totfact>
</mgrwt>
</event>
<event>
 4    1  0.1726795E-008  0.1091340E+04  0.7818608E-02  0.9213673E-01
          2   -1    0    0  501    0  0.00000000000E+00  0.00000000000E+00  0.21564731149E+04  0.21564731149E+04  0.25500000000E-02 0. -1.
         -2   -1    0    0    0  501 -0.00000000000E+00 -0.00000000000E+00 -0.69630858187E+03  0.69630858188E+03  0.25500000000E-02 0.  1.
    8880022    1    1    2    0    0  0.10083032851E+04 -0.38853132247E+03  0.81404069345E+02  0.10943721391E+04  0.15294330000E+03 0.  0.
    8880022    1    1    2    0    0 -0.10083032851E+04  0.38853132247E+03  0.13787604637E+04  0.17584095577E+04  0.15294330000E+03 0.  0.
<mgrwt>
<rscale>  0 0.10913403E+04</rscale>
<asrwt>0</asrwt>
<pdfrwt beam="1">  1        2 0.33176509E+00 0.10913403E+04</pdfrwt>
<pdfrwt beam="2">  1       -2 0.10712440E+00 0.10913403E+04</pdfrwt>
<totfact> 0.37922447E+00</totfact>
</mgrwt>
</event>
<event>
 4    1  0.1726795E-008  0.3121885E+03  0.7818608E-02  0.1079302E+00
          2   -1    0    0  501    0  0.00000000000E+00  0.00000000000E+00  0.44892703290E+03  0.44892703291E+03  0.25500000000E-02 0. -1.
         -2   -1    0    0    0  501 -0.00000000000E+00 -0.00000000000E+00 -0.10591705523E+04  0.10591705523E+04  0.25500000000E-02 0.  1.
    8880022    1    1    2    0    0  0.23159816674E+03 -0.14294157246E+03  0.36722136918E+03  0.48198878719E+03  0.15294330000E+03 0.  0.
    8880022    1    1    2    0    0 -0.23159816674E+03  0.14294157246E+03 -0.97746488861E+03  0.10261087981E+04  0.15294330000E+03 0.  0.
<mgrwt>
<rscale>  0 0.31218850E+03</rscale>
<asrwt>0</asrwt>
<pdfrwt beam="1">  1        2 0.69065698E-01 0.31218850E+03</pdfrwt>
<pdfrwt beam="2">  1       -2 0.16294931E+00 0.31218850E+03</pdfrwt>
<totfact> 0.17970731E+01</totfact>
</mgrwt>
</event>
<event>
 4    1  0.1726795E-008  0.1018923E+04  0.7818608E-02  0.9288030E-01
         -2   -1    0    0    0  501 -0.00000000000E+00  0.00000000000E+00  0.15256274453E+04  0.15256274453E+04  0.25500000000E-02 0.  1.
          2   -1    0    0  501    0  0.00000000000E+00 -0.00000000000E+00 -0.13874123290E+04  0.13874123291E+04  0.25500000000E-02 0. -1.
    8880022    1    1    2    0    0  0.77474910568E+03 -0.64387642428E+03 -0.97055729166E+03  0.14071908669E+04  0.15294330000E+03 0.  0.
    8880022    1    1    2    0    0 -0.77474910568E+03  0.64387642428E+03  0.11087724079E+04  0.15058489074E+04  0.15294330000E+03 0.  0.
<mgrwt>
<rscale>  0 0.10189233E+04</rscale>
<asrwt>0</asrwt>
<pdfrwt beam="1">  1        2 0.21344805E+00 0.10189233E+04</pdfrwt>
<pdfrwt beam="2">  1       -2 0.23471191E+00 0.10189233E+04</pdfrwt>
<totfact> 0.11675818E+00</totfact>
</mgrwt>
</event>
<event>
 4    1  0.1726795E-008  0.2114038E+04  0.7818608E-02  0.8555084E-01
         -2   -1    0    0    0  501 -0.00000000000E+00  0.00000000000E+00  0.18642204735E+04  0.18642204735E+04  0.25500000000E-02 0.  1.
          2   -1    0    0  501    0  0.00000000000E+00 -0.00000000000E+00 -0.25190185518E+04  0.25190185518E+04  0.25500000000E-02 0. -1.
    8880022    1    1    2    0    0 -0.17122535972E+04 -0.12304284785E+04 -0.80908946296E+03  0.22635777066E+04  0.15294330000E+03 0.  0.
    8880022    1    1    2    0    0  0.17122535972E+04  0.12304284785E+04  0.15429138470E+03  0.21196613187E+04  0.15294330000E+03 0.  0.
<mgrwt>
<rscale>  0 0.21140384E+04</rscale>
<asrwt>0</asrwt>
<pdfrwt beam="1">  1        2 0.38754131E+00 0.21140384E+04</pdfrwt>
<pdfrwt beam="2">  1       -2 0.28680315E+00 0.21140384E+04</pdfrwt>
<totfact> 0.11401969E-01</totfact>
</mgrwt>
</event>
<event>
 4    1  0.1726795E-008  0.4263556E+03  0.7818608E-02  0.1035017E+00
         -2   -1    0    0    0  501 -0.00000000000E+00  0.00000000000E+00  0.31532316296E+03  0.31532316297E+03  0.25500000000E-02 0.  1.
          2   -1    0    0  501    0  0.00000000000E+00 -0.00000000000E+00 -0.16773892990E+04  0.16773892990E+04  0.25500000000E-02 0. -1.
    8880022    1    1    2    0    0 -0.12507664444E+03 -0.37781381298E+03  0.12615080441E+03  0.44462694782E+03  0.15294330000E+03 0.  0.
    8880022    1    1    2    0    0  0.12507664444E+03  0.37781381298E+03 -0.14882169405E+04  0.15480855142E+04  0.15294330000E+03 0. -1.
<mgrwt>
<rscale>  0 0.42635560E+03</rscale>
<asrwt>0</asrwt>
<pdfrwt beam="1">  1        2 0.25805989E+00 0.42635560E+03</pdfrwt>
<pdfrwt beam="2">  1       -2 0.48511257E-01 0.42635560E+03</pdfrwt>
<totfact> 0.43727752E+01</totfact>
</mgrwt>
</event>
<event>
 4    1  0.1726795E-008  0.1620768E+04  0.7818608E-02  0.8807890E-01
         -2   -1    0    0    0  501 -0.00000000000E+00  0.00000000000E+00  0.19257885506E+04  0.19257885506E+04  0.25500000000E-02 0.  1.
          2   -1    0    0  501    0  0.00000000000E+00 -0.00000000000E+00 -0.17274351458E+04  0.17274351458E+04  0.25500000000E-02 0. -1.
    8880022    1    1    2    0    0 -0.52428779201E+03  0.15259813510E+04 -0.73859144380E+03  0.17811248543E+04  0.15294330000E+03 0.  0.
    8880022    1    1    2    0    0  0.52428779201E+03 -0.15259813510E+04  0.93694484863E+03  0.18720988422E+04  0.15294330000E+03 0.  0.
<mgrwt>
<rscale>  0 0.16207679E+04</rscale>
<asrwt>0</asrwt>
<pdfrwt beam="1">  1        2 0.26575925E+00 0.16207679E+04</pdfrwt>
<pdfrwt beam="2">  1       -2 0.29627516E+00 0.16207679E+04</pdfrwt>
<totfact> 0.29398102E-01</totfact>
</mgrwt>
</event>
<event>
 4    1  0.1726795E-008  0.3996302E+03  0.7818608E-02  0.1043908E+00
          2   -1    0    0  501    0  0.00000000000E+00  0.00000000000E+00  0.22990629945E+04  0.22990629945E+04  0.25500000000E-02 0. -1.
         -2   -1    0    0    0  501 -0.00000000000E+00 -0.00000000000E+00 -0.39594345804E+03  0.39594345805E+03  0.25500000000E-02 0.  1.
    8880022    1    1    2    0    0 -0.35334607051E+03  0.10704751637E+03 -0.27204323446E+03  0.48343747345E+03  0.15294330000E+03 0.  0.
    8880022    1    1    2    0    0  0.35334607051E+03 -0.10704751637E+03  0.21751627710E+04  0.22115689791E+04  0.15294330000E+03 0.  0.
<mgrwt>
<rscale>  0 0.39963017E+03</rscale>
<asrwt>0</asrwt>
<pdfrwt beam="1">  1        2 0.35370200E+00 0.39963017E+03</pdfrwt>
<pdfrwt beam="2">  1       -2 0.60914378E-01 0.39963017E+03</pdfrwt>
<totfact> 0.12800938E+01</totfact>
</mgrwt>
</event>
<event>
 4    1  0.1726795E-008  0.6336417E+03  0.7818608E-02  0.9837968E-01
         -2   -1    0    0    0  501 -0.00000000000E+00  0.00000000000E+00  0.94187013859E+03  0.94187013859E+03  0.25500000000E-02 0.  1.
          2   -1    0    0  501    0  0.00000000000E+00 -0.00000000000E+00 -0.10193107133E+04  0.10193107133E+04  0.25500000000E-02 0. -1.
    8880022    1    1    2    0    0  0.61489941430E+03  0.29769732009E+01 -0.78667000430E+03  0.10101244976E+04  0.15294330000E+03 0.  0.
    8880022    1    1    2    0    0 -0.61489941430E+03 -0.29769732009E+01  0.70922942961E+03  0.95105635422E+03  0.15294330000E+03 0.  0.
<mgrwt>
<rscale>  0 0.63364170E+03</rscale>
<asrwt>0</asrwt>
<pdfrwt beam="1">  1        2 0.15681703E+00 0.63364170E+03</pdfrwt>
<pdfrwt beam="2">  1       -2 0.14490310E+00 0.63364170E+03</pdfrwt>
<totfact> 0.83139829E+00</totfact>
</mgrwt>
</event>
<event>
 4    1  0.1726795E-008  0.1984514E+03  0.7818608E-02  0.1151052E+00
         -2   -1    0    0    0  501 -0.00000000000E+00  0.00000000000E+00  0.11434111212E+03  0.11434111215E+03  0.25500000000E-02 0.  1.
          2   -1    0    0  501    0  0.00000000000E+00 -0.00000000000E+00 -0.74329785363E+03  0.74329785363E+03  0.25500000000E-02 0. -1.
    8880022    1    1    2    0    0 -0.79807074262E+02 -0.98092445978E+02 -0.35121022943E+00  0.19845169040E+03  0.15294330000E+03 0.  0.
    8880022    1    1    2    0    0  0.79807074262E+02  0.98092445978E+02 -0.62860553128E+03  0.65918727538E+03  0.15294330000E+03 0. -1.
<mgrwt>
<rscale>  0 0.19845138E+03</rscale>
<asrwt>0</asrwt>
<pdfrwt beam="1">  1        2 0.11435351E+00 0.19845138E+03</pdfrwt>
<pdfrwt beam="2">  1       -2 0.17590941E-01 0.19845138E+03</pdfrwt>
<totfact> 0.10216592E+03</totfact>
</mgrwt>
</event>
<event>
 4    1  0.1726795E-008  0.1285412E+04  0.7818608E-02  0.9041214E-01
         -2   -1    0    0    0  501 -0.00000000000E+00  0.00000000000E+00  0.12659384945E+04  0.12659384945E+04  0.25500000000E-02 0.  1.
          2   -1    0    0  501    0  0.00000000000E+00 -0.00000000000E+00 -0.13810944888E+04  0.13810944888E+04  0.25500000000E-02 0. -1.
    8880022    1    1    2    0    0  0.43134952739E+03  0.12011786345E+04  0.25271011649E+03  0.13100177795E+04  0.15294330000E+03 0.  0.
    8880022    1    1    2    0    0 -0.43134952739E+03 -0.12011786345E+04 -0.36786611078E+03  0.13370152038E+04  0.15294330000E+03 0.  0.
<mgrwt>
<rscale>  0 0.12854121E+04</rscale>
<asrwt>0</asrwt>
<pdfrwt beam="1">  1        2 0.21247608E+00 0.12854121E+04</pdfrwt>
<pdfrwt beam="2">  1       -2 0.19475977E+00 0.12854121E+04</pdfrwt>
<totfact> 0.20561252E+00</totfact>
</mgrwt>
</event>
<event>
 4    1  0.1726795E-008  0.5203419E+03  0.7818608E-02  0.1008602E+00
          2   -1    0    0  501    0  0.00000000000E+00  0.00000000000E+00  0.19106427030E+04  0.19106427030E+04  0.25500000000E-02 0. -1.
         -2   -1    0    0    0  501 -0.00000000000E+00 -0.00000000000E+00 -0.34739092452E+03  0.34739092453E+03  0.25500000000E-02 0.  1.
    8880022    1    1    2    0    0 -0.45865072880E+03 -0.19236297756E+03 -0.87112517999E+02  0.52758340570E+03  0.15294330000E+03 0.  0.
    8880022    1    1    2    0    0  0.45865072880E+03  0.19236297756E+03  0.16503642965E+04  0.17304502219E+04  0.15294330000E+03 0. -1.
<mgrwt>
<rscale>  0 0.52034187E+03</rscale>
<asrwt>0</asrwt>
<pdfrwt beam="1">  1        2 0.29394502E+00 0.52034187E+03</pdfrwt>
<pdfrwt beam="2">  1       -2 0.53444759E-01 0.52034187E+03</pdfrwt>
<totfact> 0.26430670E+01</totfact>
</mgrwt>
</event>
<event>
 4    1  0.1726795E-008  0.5112748E+03  0.7818608E-02  0.1010877E+00
          2   -1    0    0  501    0  0.00000000000E+00  0.00000000000E+00  0.12379624035E+04  0.12379624035E+04  0.25500000000E-02 0. -1.
         -2   -1    0    0    0  501 -0.00000000000E+00 -0.00000000000E+00 -0.81536948584E+03  0.81536948584E+03  0.25500000000E-02 0.  1.
    8880022    1    1    2    0    0 -0.32626116517E+03 -0.36271740517E+03  0.10950832484E+04  0.12085566755E+04  0.15294330000E+03 0.  0.
    8880022    1    1    2    0    0  0.32626116517E+03  0.36271740517E+03 -0.67249033077E+03  0.84477521383E+03  0.15294330000E+03 0.  0.
<mgrwt>
<rscale>  0 0.51127480E+03</rscale>
<asrwt>0</asrwt>
<pdfrwt beam="1">  1        2 0.19045575E+00 0.51127480E+03</pdfrwt>
<pdfrwt beam="2">  1       -2 0.12544146E+00 0.51127480E+03</pdfrwt>
<totfact> 0.90557030E+00</totfact>
</mgrwt>
</event>
<event>
 4    1  0.1726795E-008  0.3937888E+03  0.7818608E-02  0.1045952E+00
         -2   -1    0    0    0  501 -0.00000000000E+00  0.00000000000E+00  0.13946128255E+03  0.13946128258E+03  0.25500000000E-02 0.  1.
          2   -1    0    0  501    0  0.00000000000E+00 -0.00000000000E+00 -0.16044932205E+04  0.16044932205E+04  0.25500000000E-02 0. -1.
    8880022    1    1    2    0    0 -0.21830939449E+03 -0.28986029640E+03 -0.24937697075E+03  0.46610997598E+03  0.15294330000E+03 0.  1.
    8880022    1    1    2    0    0  0.21830939449E+03  0.28986029640E+03 -0.12156549672E+04  0.12778445271E+04  0.15294330000E+03 0.  0.
<mgrwt>
<rscale>  0 0.39378882E+03</rscale>
<asrwt>0</asrwt>
<pdfrwt beam="1">  1        2 0.24684510E+00 0.39378882E+03</pdfrwt>
<pdfrwt beam="2">  1       -2 0.21455583E-01 0.39378882E+03</pdfrwt>
<totfact> 0.22035876E+02</totfact>
</mgrwt>
</event>
<event>
 4    1  0.1726795E-008  0.2924599E+03  0.7818608E-02  0.1089072E+00
         -2   -1    0    0    0  501 -0.00000000000E+00  0.00000000000E+00  0.24601769582E+03  0.24601769583E+03  0.25500000000E-02 0.  1.
          2   -1    0    0  501    0  0.00000000000E+00 -0.00000000000E+00 -0.27648129212E+04  0.27648129212E+04  0.25500000000E-02 0. -1.
    8880022    1    1    2    0    0 -0.16768394725E+03  0.18445380250E+03  0.14818759382E+03  0.32786022540E+03  0.15294330000E+03 0.  1.
    8880022    1    1    2    0    0  0.16768394725E+03 -0.18445380250E+03 -0.26669828192E+04  0.26829703917E+04  0.15294330000E+03 0.  0.
<mgrwt>
<rscale>  0 0.29245985E+03</rscale>
<asrwt>0</asrwt>
<pdfrwt beam="1">  1        2 0.42535581E+00 0.29245985E+03</pdfrwt>
<pdfrwt beam="2">  1       -2 0.37848878E-01 0.29245985E+03</pdfrwt>
<totfact> 0.18963899E+01</totfact>
</mgrwt>
</event>
<event>
 4    1  0.1726795E-008  0.9429487E+03  0.7818608E-02  0.9373431E-01
         -2   -1    0    0    0  501 -0.00000000000E+00  0.00000000000E+00  0.55809798252E+03  0.55809798253E+03  0.25500000000E-02 0.  1.
          2   -1    0    0  501    0  0.00000000000E+00 -0.00000000000E+00 -0.31359291188E+04  0.31359291188E+04  0.25500000000E-02 0. -1.
    8880022    1    1    2    0    0 -0.92148966811E+03 -0.12890871414E+03  0.65747416007E+01  0.94297165666E+03  0.15294330000E+03 0.  0.
    8880022    1    1    2    0    0  0.92148966811E+03  0.12890871414E+03 -0.25844058778E+04  0.27510554446E+04  0.15294330000E+03 0.  0.
<mgrwt>
<rscale>  0 0.94294874E+03</rscale>
<asrwt>0</asrwt>
<pdfrwt beam="1">  1        2 0.48245062E+00 0.94294874E+03</pdfrwt>
<pdfrwt beam="2">  1       -2 0.85861230E-01 0.94294874E+03</pdfrwt>
<totfact> 0.17372810E+00</totfact>
</mgrwt>
</event>
<event>
 4    1  0.1726795E-008  0.5348742E+03  0.7818608E-02  0.1005057E+00
         -2   -1    0    0    0  501 -0.00000000000E+00  0.00000000000E+00  0.28493632923E+03  0.28493632924E+03  0.25500000000E-02 0.  1.
          2   -1    0    0  501    0  0.00000000000E+00 -0.00000000000E+00 -0.20906087614E+04  0.20906087614E+04  0.25500000000E-02 0. -1.
    8880022    1    1    2    0    0  0.51157936777E+03 -0.31389231193E+02 -0.46541107986E+02  0.53689520496E+03  0.15294330000E+03 0.  0.
    8880022    1    1    2    0    0 -0.51157936777E+03  0.31389231193E+02 -0.17591313242E+04  0.18386498857E+04  0.15294330000E+03 0.  0.
<mgrwt>
<rscale>  0 0.53487418E+03</rscale>
<asrwt>0</asrwt>
<pdfrwt beam="1">  1        2 0.32163211E+00 0.53487418E+03</pdfrwt>
<pdfrwt beam="2">  1       -2 0.43836360E-01 0.53487418E+03</pdfrwt>
<totfact> 0.31402945E+01</totfact>
</mgrwt>
</event>
<event>
 4    1  0.1726795E-008  0.6268757E+03  0.7818608E-02  0.9851165E-01
         -2   -1    0    0    0  501 -0.00000000000E+00  0.00000000000E+00  0.68235142633E+03  0.68235142634E+03  0.25500000000E-02 0.  1.
          2   -1    0    0  501    0  0.00000000000E+00 -0.00000000000E+00 -0.63398096568E+03  0.63398096568E+03  0.25500000000E-02 0. -1.
    8880022    1    1    2    0    0  0.24135123178E+03 -0.55797048141E+03 -0.17500880931E+03  0.65084653456E+03  0.15294330000E+03 0.  1.
    8880022    1    1    2    0    0 -0.24135123178E+03  0.55797048141E+03  0.22337926996E+03  0.66548585745E+03  0.15294330000E+03 0.  0.
<mgrwt>
<rscale>  0 0.62687569E+03</rscale>
<asrwt>0</asrwt>
<pdfrwt beam="1">  1        2 0.97535533E-01 0.62687569E+03</pdfrwt>
<pdfrwt beam="2">  1       -2 0.10497714E+00 0.62687569E+03</pdfrwt>
<totfact> 0.34913448E+01</totfact>
</mgrwt>
</event>
<event>
 4    1  0.1726795E-008  0.7371587E+03  0.7818608E-02  0.9655714E-01
         -2   -1    0    0    0  501 -0.00000000000E+00  0.00000000000E+00  0.20693343576E+04  0.20693343576E+04  0.25500000000E-02 0.  1.
          2   -1    0    0  501    0  0.00000000000E+00 -0.00000000000E+00 -0.52207469919E+03  0.52207469920E+03  0.25500000000E-02 0. -1.
    8880022    1    1    2    0    0 -0.61612940514E+03 -0.37469440803E+03  0.16870884161E+04  0.18411057330E+04  0.15294330000E+03 0.  1.
    8880022    1    1    2    0    0  0.61612940514E+03  0.37469440803E+03 -0.13982875766E+03  0.75030332384E+03  0.15294330000E+03 0.  0.
<mgrwt>
<rscale>  0 0.73715873E+03</rscale>
<asrwt>0</asrwt>
<pdfrwt beam="1">  1        2 0.80319184E-01 0.73715873E+03</pdfrwt>
<pdfrwt beam="2">  1       -2 0.31835913E+00 0.73715873E+03</pdfrwt>
<totfact> 0.15047080E+00</totfact>
</mgrwt>
</event>
<event>
 4    1  0.1726795E-008  0.2565380E+03  0.7818608E-02  0.1109241E+00
          2   -1    0    0  501    0  0.00000000000E+00  0.00000000000E+00  0.14387270053E+04  0.14387270053E+04  0.25500000000E-02 0. -1.
         -2   -1    0    0    0  501 -0.00000000000E+00 -0.00000000000E+00 -0.91556686036E+02  0.91556686071E+02  0.25500000000E-02 0.  1.
    8880022    1    1    2    0    0 -0.18409347755E+03  0.92356388878E+02  0.12148306534E+04  0.12416220361E+04  0.15294330000E+03 0.  0.
    8880022    1    1    2    0    0  0.18409347755E+03 -0.92356388878E+02  0.13233966581E+03  0.28866165524E+03  0.15294330000E+03 0.  1.
<mgrwt>
<rscale>  0 0.25653804E+03</rscale>
<asrwt>0</asrwt>
<pdfrwt beam="1">  1        2 0.22134261E+00 0.25653804E+03</pdfrwt>
<pdfrwt beam="2">  1       -2 0.14085645E-01 0.25653804E+03</pdfrwt>
<totfact> 0.56276021E+02</totfact>
</mgrwt>
</event>
<event>
 4    1  0.1876345E-008  0.1567274E+04  0.7818608E-02  0.8840909E-01
          2   -1    0    0  501    0  0.00000000000E+00  0.00000000000E+00  0.18361576611E+04  0.18361576611E+04  0.25500000000E-02 0. -1.
         -2   -1    0    0    0  501 -0.00000000000E+00 -0.00000000000E+00 -0.21824428762E+04  0.21824428762E+04  0.25500000000E-02 0.  1.
    8880022    1    1    2    0    0  0.15317142887E+04 -0.29463160367E+03  0.10768828829E+04  0.19015848234E+04  0.15294330000E+03 0.  0.
    8880022    1    1    2    0    0 -0.15317142887E+04  0.29463160367E+03 -0.14231680981E+04  0.21170157138E+04  0.15294330000E+03 0.  0.
<mgrwt>
<rscale>  0 0.15672741E+04</rscale>
<asrwt>0</asrwt>
<pdfrwt beam="1">  1        2 0.28248580E+00 0.15672741E+04</pdfrwt>
<pdfrwt beam="2">  1       -2 0.33576044E+00 0.15672741E+04</pdfrwt>
<totfact> 0.14674870E-01</totfact>
</mgrwt>
</event>
<event>
 4    1  0.1726795E-008  0.4045296E+03  0.7818608E-02  0.1042222E+00
         -2   -1    0    0    0  501 -0.00000000000E+00  0.00000000000E+00  0.24134302821E+03  0.24134302823E+03  0.25500000000E-02 0.  1.
          2   -1    0    0  501    0  0.00000000000E+00 -0.00000000000E+00 -0.99738487563E+03  0.99738487564E+03  0.25500000000E-02 0. -1.
    8880022    1    1    2    0    0  0.83804320658E+02 -0.36500603278E+03 -0.72847672836E+03  0.83326020240E+03  0.15294330000E+03 0.  0.
    8880022    1    1    2    0    0 -0.83804320658E+02  0.36500603278E+03 -0.27565119062E+02  0.40546770146E+03  0.15294330000E+03 0.  0.
<mgrwt>
<rscale>  0 0.40452963E+03</rscale>
<asrwt>0</asrwt>
<pdfrwt beam="1">  1        2 0.15344382E+00 0.40452963E+03</pdfrwt>
<pdfrwt beam="2">  1       -2 0.37129697E-01 0.40452963E+03</pdfrwt>
<totfact> 0.17974713E+02</totfact>
</mgrwt>
</event>
<event>
 4    1  0.1726795E-008  0.7147643E+03  0.7818608E-02  0.9692311E-01
          2   -1    0    0  501    0  0.00000000000E+00  0.00000000000E+00  0.90314765414E+03  0.90314765415E+03  0.25500000000E-02 0. -1.
         -2   -1    0    0    0  501 -0.00000000000E+00 -0.00000000000E+00 -0.91578624243E+03  0.91578624244E+03  0.25500000000E-02 0.  1.
    8880022    1    1    2    0    0 -0.66529861201E+03 -0.21183493795E+03  0.55601292643E+03  0.90555966753E+03  0.15294330000E+03 0.  0.
    8880022    1    1    2    0    0  0.66529861201E+03  0.21183493795E+03 -0.56865151473E+03  0.91337422905E+03  0.15294330000E+03 0.  0.
<mgrwt>
<rscale>  0 0.71476425E+03</rscale>
<asrwt>0</asrwt>
<pdfrwt beam="1">  1        2 0.13894579E+00 0.71476425E+03</pdfrwt>
<pdfrwt beam="2">  1       -2 0.14089019E+00 0.71476425E+03</pdfrwt>
<totfact> 0.10523610E+01</totfact>
</mgrwt>
</event>
<event>
 4    1  0.1726795E-008  0.4353343E+03  0.7818608E-02  0.1032188E+00
         -2   -1    0    0    0  501 -0.00000000000E+00  0.00000000000E+00  0.26042636706E+03  0.26042636707E+03  0.25500000000E-02 0.  1.
          2   -1    0    0  501    0  0.00000000000E+00 -0.00000000000E+00 -0.21411542510E+04  0.21411542510E+04  0.25500000000E-02 0. -1.
    8880022    1    1    2    0    0  0.40705453499E+03  0.20757469680E+02  0.35258810501E+02  0.43675977807E+03  0.15294330000E+03 0.  0.
    8880022    1    1    2    0    0 -0.40705453499E+03 -0.20757469680E+02 -0.19159866944E+04  0.19648208400E+04  0.15294330000E+03 0. -1.
<mgrwt>
<rscale>  0 0.43533426E+03</rscale>
<asrwt>0</asrwt>
<pdfrwt beam="1">  1        2 0.32940833E+00 0.43533426E+03</pdfrwt>
<pdfrwt beam="2">  1       -2 0.40065596E-01 0.43533426E+03</pdfrwt>
<totfact> 0.35890860E+01</totfact>
</mgrwt>
</event>
<event>
 4    1  0.1726795E-008  0.6366840E+03  0.7818608E-02  0.9832092E-01
          2   -1    0    0  501    0  0.00000000000E+00  0.00000000000E+00  0.15035352455E+04  0.15035352455E+04  0.25500000000E-02 0. -1.
         -2   -1    0    0    0  501 -0.00000000000E+00 -0.00000000000E+00 -0.74905104479E+03  0.74905104480E+03  0.25500000000E-02 0.  1.
    8880022    1    1    2    0    0  0.38305599900E+03 -0.48501854399E+03  0.12783230764E+04  0.14281023868E+04  0.15294330000E+03 0.  0.
    8880022    1    1    2    0    0 -0.38305599900E+03  0.48501854399E+03 -0.52383887574E+03  0.82448390350E+03  0.15294330000E+03 0.  0.
<mgrwt>
<rscale>  0 0.63668402E+03</rscale>
<asrwt>0</asrwt>
<pdfrwt beam="1">  1        2 0.23131311E+00 0.63668402E+03</pdfrwt>
<pdfrwt beam="2">  1       -2 0.11523862E+00 0.63668402E+03</pdfrwt>
<totfact> 0.77322794E+00</totfact>
</mgrwt>
</event>
<event>
 4    1  0.1726795E-008  0.5220796E+03  0.7818608E-02  0.1008171E+00
         -2   -1    0    0    0  501 -0.00000000000E+00  0.00000000000E+00  0.13264564770E+04  0.13264564770E+04  0.25500000000E-02 0.  1.
          2   -1    0    0  501    0  0.00000000000E+00 -0.00000000000E+00 -0.24232647514E+04  0.24232647514E+04  0.25500000000E-02 0. -1.
    8880022    1    1    2    0    0 -0.45959109019E+03 -0.19481146231E+03  0.12452047370E+04  0.13502229320E+04  0.15294330000E+03 0.  0.
    8880022    1    1    2    0    0  0.45959109019E+03  0.19481146231E+03 -0.23420130113E+04  0.23994982964E+04  0.15294330000E+03 0.  0.
<mgrwt>
<rscale>  0 0.52207962E+03</rscale>
<asrwt>0</asrwt>
<pdfrwt beam="1">  1        2 0.37280996E+00 0.52207962E+03</pdfrwt>
<pdfrwt beam="2">  1       -2 0.20407023E+00 0.52207962E+03</pdfrwt>
<totfact> 0.54305840E-01</totfact>
</mgrwt>
</event>
<event>
 4    1  0.1726795E-008  0.1337286E+04  0.7818608E-02  0.9000509E-01
         -2   -1    0    0    0  501 -0.00000000000E+00  0.00000000000E+00  0.19863153914E+04  0.19863153914E+04  0.25500000000E-02 0.  1.
          2   -1    0    0  501    0  0.00000000000E+00 -0.00000000000E+00 -0.15803482038E+04  0.15803482038E+04  0.25500000000E-02 0. -1.
    8880022    1    1    2    0    0  0.81666448149E+03  0.10478557667E+04 -0.96683049905E+03  0.16501804295E+04  0.15294330000E+03 0.  0.
    8880022    1    1    2    0    0 -0.81666448149E+03 -0.10478557667E+04  0.13727976866E+04  0.19164831657E+04  0.15294330000E+03 0.  0.
<mgrwt>
<rscale>  0 0.13372861E+04</rscale>
<asrwt>0</asrwt>
<pdfrwt beam="1">  1        2 0.24313050E+00 0.13372861E+04</pdfrwt>
<pdfrwt beam="2">  1       -2 0.30558698E+00 0.13372861E+04</pdfrwt>
<totfact> 0.32204518E-01</totfact>
</mgrwt>
</event>
<event>
 4    1  0.1726795E-008  0.7417284E+03  0.7818608E-02  0.9648417E-01
          2   -1    0    0  501    0  0.00000000000E+00  0.00000000000E+00  0.34505842971E+03  0.34505842972E+03  0.25500000000E-02 0. -1.
         -2   -1    0    0    0  501 -0.00000000000E+00 -0.00000000000E+00 -0.19502019196E+04  0.19502019196E+04  0.25500000000E-02 0.  1.
    8880022    1    1    2    0    0  0.67048928358E+03  0.27787305287E+03 -0.31237925183E+03  0.80482405711E+03  0.15294330000E+03 0.  0.
    8880022    1    1    2    0    0 -0.67048928358E+03 -0.27787305287E+03 -0.12927642380E+04  0.14904362922E+04  0.15294330000E+03 0.  0.
<mgrwt>
<rscale>  0 0.74172836E+03</rscale>
<asrwt>0</asrwt>
<pdfrwt beam="1">  1        2 0.53085913E-01 0.74172836E+03</pdfrwt>
<pdfrwt beam="2">  1       -2 0.30003106E+00 0.74172836E+03</pdfrwt>
<totfact> 0.31063339E+00</totfact>
</mgrwt>
</event>
<event>
 4    1  0.1726795E-008  0.6443192E+03  0.7818608E-02  0.9817498E-01
         -2   -1    0    0    0  501 -0.00000000000E+00  0.00000000000E+00  0.35389155252E+03  0.35389155253E+03  0.25500000000E-02 0.  1.
          2   -1    0    0  501    0  0.00000000000E+00 -0.00000000000E+00 -0.36273404610E+04  0.36273404610E+04  0.25500000000E-02 0. -1.
    8880022    1    1    2    0    0  0.58957873677E+03 -0.21012493705E+03  0.66740007744E+00  0.64431954375E+03  0.15294330000E+03 0.  0.
    8880022    1    1    2    0    0 -0.58957873677E+03  0.21012493705E+03 -0.32741163086E+04  0.33369124698E+04  0.15294330000E+03 0.  0.
<mgrwt>
<rscale>  0 0.64431920E+03</rscale>
<asrwt>0</asrwt>
<pdfrwt beam="1">  1        2 0.55805235E+00 0.64431920E+03</pdfrwt>
<pdfrwt beam="2">  1       -2 0.54444857E-01 0.64431920E+03</pdfrwt>
<totfact> 0.23483369E+00</totfact>
</mgrwt>
</event>
<event>
 4    1  0.1726795E-008  0.1704370E+03  0.7818608E-02  0.1177393E+00
          2   -1    0    0  501    0  0.00000000000E+00  0.00000000000E+00  0.25264069356E+04  0.25264069356E+04  0.25500000000E-02 0. -1.
         -2   -1    0    0    0  501 -0.00000000000E+00 -0.00000000000E+00 -0.20406555027E+03  0.20406555028E+03  0.25500000000E-02 0.  1.
    8880022    1    1    2    0    0 -0.72119867989E+02  0.21350703917E+02  0.24873872504E+04  0.24932196282E+04  0.15294330000E+03 0.  0.
    8880022    1    1    2    0    0  0.72119867989E+02 -0.21350703917E+02 -0.16504586504E+03  0.23725285772E+03  0.15294330000E+03 0.  1.
<mgrwt>
<rscale>  0 0.17043703E+03</rscale>
<asrwt>0</asrwt>
<pdfrwt beam="1">  1        2 0.38867800E+00 0.17043703E+03</pdfrwt>
<pdfrwt beam="2">  1       -2 0.31394699E-01 0.17043703E+03</pdfrwt>
<totfact> 0.38878326E+01</totfact>
</mgrwt>
</event>
<event>
 4    1  0.1726795E-008  0.6175701E+03  0.7818608E-02  0.9869610E-01
          2   -1    0    0  501    0  0.00000000000E+00  0.00000000000E+00  0.61130085504E+03  0.61130085504E+03  0.25500000000E-02 0. -1.
         -2   -1    0    0    0  501 -0.00000000000E+00 -0.00000000000E+00 -0.69617472516E+03  0.69617472517E+03  0.25500000000E-02 0.  1.
    8880022    1    1    2    0    0  0.51200900868E+03 -0.30959324205E+03  0.16819617003E+03  0.64006468823E+03  0.15294330000E+03 0.  0.
    8880022    1    1    2    0    0 -0.51200900868E+03  0.30959324205E+03 -0.25307004016E+03  0.66741089198E+03  0.15294330000E+03 0.  0.
<mgrwt>
<rscale>  0 0.61757012E+03</rscale>
<asrwt>0</asrwt>
<pdfrwt beam="1">  1        2 0.94046286E-01 0.61757012E+03</pdfrwt>
<pdfrwt beam="2">  1       -2 0.10710380E+00 0.61757012E+03</pdfrwt>
<totfact> 0.34807490E+01</totfact>
</mgrwt>
</event>
<event>
 4    1  0.1726795E-008  0.7206621E+03  0.7818608E-02  0.9682535E-01
          2   -1    0    0  501    0  0.00000000000E+00  0.00000000000E+00  0.20235813806E+04  0.20235813806E+04  0.25500000000E-02 0. -1.
         -2   -1    0    0    0  501 -0.00000000000E+00 -0.00000000000E+00 -0.42785021901E+03  0.42785021902E+03  0.25500000000E-02 0.  1.
    8880022    1    1    2    0    0 -0.29743350208E+03  0.63835377089E+03  0.22520587273E+02  0.72101390752E+03  0.15294330000E+03 0.  0.
    8880022    1    1    2    0    0  0.29743350208E+03 -0.63835377089E+03  0.15732105744E+04  0.17304176921E+04  0.15294330000E+03 0.  0.
<mgrwt>
<rscale>  0 0.72066211E+03</rscale>
<asrwt>0</asrwt>
<pdfrwt beam="1">  1        2 0.31132022E+00 0.72066211E+03</pdfrwt>
<pdfrwt beam="2">  1       -2 0.65823110E-01 0.72066211E+03</pdfrwt>
<totfact> 0.14322304E+01</totfact>
</mgrwt>
</event>
<event>
 4    1  0.1726795E-008  0.4729570E+03  0.7818608E-02  0.1021089E+00
          2   -1    0    0  501    0  0.00000000000E+00  0.00000000000E+00  0.19777754726E+04  0.19777754726E+04  0.25500000000E-02 0. -1.
         -2   -1    0    0    0  501 -0.00000000000E+00 -0.00000000000E+00 -0.15361057431E+03  0.15361057433E+03  0.25500000000E-02 0.  1.
    8880022    1    1    2    0    0  0.29447914589E+03  0.33701446271E+03  0.14593509440E+04  0.15340774251E+04  0.15294330000E+03 0.  0.
    8880022    1    1    2    0    0 -0.29447914589E+03 -0.33701446271E+03  0.36481395428E+03  0.59730862182E+03  0.15294330000E+03 0.  0.
<mgrwt>
<rscale>  0 0.47295705E+03</rscale>
<asrwt>0</asrwt>
<pdfrwt beam="1">  1        2 0.30427313E+00 0.47295705E+03</pdfrwt>
<pdfrwt beam="2">  1       -2 0.23632398E-01 0.47295705E+03</pdfrwt>
<totfact> 0.11584111E+02</totfact>
</mgrwt>
</event>
<event>
 4    1  0.1726795E-008  0.6762336E+03  0.7818608E-02  0.9758762E-01
         -2   -1    0    0    0  501 -0.00000000000E+00  0.00000000000E+00  0.26832383714E+03  0.26832383715E+03  0.25500000000E-02 0.  1.
          2   -1    0    0  501    0  0.00000000000E+00 -0.00000000000E+00 -0.26459517819E+04  0.26459517819E+04  0.25500000000E-02 0. -1.
    8880022    1    1    2    0    0  0.64511709426E+03  0.13313230125E+03 -0.31952238497E+03  0.74792144137E+03  0.15294330000E+03 0.  0.
    8880022    1    1    2    0    0 -0.64511709426E+03 -0.13313230125E+03 -0.20581055598E+04  0.21663541777E+04  0.15294330000E+03 0.  0.
<mgrwt>
<rscale>  0 0.67623363E+03</rscale>
<asrwt>0</asrwt>
<pdfrwt beam="1">  1        2 0.40706949E+00 0.67623363E+03</pdfrwt>
<pdfrwt beam="2">  1       -2 0.41280592E-01 0.67623363E+03</pdfrwt>
<totfact> 0.16905451E+01</totfact>
</mgrwt>
</event>
<event>
 4    1  0.1726795E-008  0.6169928E+03  0.7818608E-02  0.9870765E-01
         -2   -1    0    0    0  501 -0.00000000000E+00  0.00000000000E+00  0.18244243709E+03  0.18244243711E+03  0.25500000000E-02 0.  1.
          2   -1    0    0  501    0  0.00000000000E+00 -0.00000000000E+00 -0.23008042309E+04  0.23008042309E+04  0.25500000000E-02 0. -1.
    8880022    1    1    2    0    0  0.33796913106E+03  0.49301657252E+03 -0.68031306350E+03  0.91842582265E+03  0.15294330000E+03 0.  0.
    8880022    1    1    2    0    0 -0.33796913106E+03 -0.49301657252E+03 -0.14380487303E+04  0.15648208454E+04  0.15294330000E+03 0.  0.
<mgrwt>
<rscale>  0 0.61699281E+03</rscale>
<asrwt>0</asrwt>
<pdfrwt beam="1">  1        2 0.35396986E+00 0.61699281E+03</pdfrwt>
<pdfrwt beam="2">  1       -2 0.28068069E-01 0.61699281E+03</pdfrwt>
<totfact> 0.55417872E+01</totfact>
</mgrwt>
</event>
<event>
 4    1  0.1726795E-008  0.8435309E+03  0.7818608E-02  0.9499061E-01
          2   -1    0    0  501    0  0.00000000000E+00  0.00000000000E+00  0.40195019419E+04  0.40195019419E+04  0.25500000000E-02 0. -1.
         -2   -1    0    0    0  501 -0.00000000000E+00 -0.00000000000E+00 -0.22447843150E+03  0.22447843152E+03  0.25500000000E-02 0.  1.
    8880022    1    1    2    0    0 -0.55329015399E+03 -0.61807990087E+03  0.28731726294E+04  0.29944390743E+04  0.15294330000E+03 0.  0.
    8880022    1    1    2    0    0  0.55329015399E+03  0.61807990087E+03  0.92185088098E+03  0.12495412991E+04  0.15294330000E+03 0.  0.
<mgrwt>
<rscale>  0 0.84353092E+03</rscale>
<asrwt>0</asrwt>
<pdfrwt beam="1">  1        2 0.61838484E+00 0.84353092E+03</pdfrwt>
<pdfrwt beam="2">  1       -2 0.34535147E-01 0.84353092E+03</pdfrwt>
<totfact> 0.28157530E+00</totfact>
</mgrwt>
</event>
<event>
 4    1  0.1726795E-008  0.5992442E+03  0.7818608E-02  0.9906975E-01
          2   -1    0    0  501    0  0.00000000000E+00  0.00000000000E+00  0.92812217587E+03  0.92812217587E+03  0.25500000000E-02 0. -1.
         -2   -1    0    0    0  501 -0.00000000000E+00 -0.00000000000E+00 -0.66860383943E+03  0.66860383944E+03  0.25500000000E-02 0.  1.
    8880022    1    1    2    0    0  0.36889919953E+03  0.44678326953E+03 -0.38845560201E+03  0.71413676358E+03  0.15294330000E+03 0.  0.
    8880022    1    1    2    0    0 -0.36889919953E+03 -0.44678326953E+03  0.64797393846E+03  0.88258925173E+03  0.15294330000E+03 0.  0.
<mgrwt>
<rscale>  0 0.59924416E+03</rscale>
<asrwt>0</asrwt>
<pdfrwt beam="1">  1        2 0.14278803E+00 0.59924416E+03</pdfrwt>
<pdfrwt beam="2">  1       -2 0.10286213E+00 0.59924416E+03</pdfrwt>
<totfact> 0.22392553E+01</totfact>
</mgrwt>
</event>
<event>
 4    1  0.1726795E-008  0.6960354E+03  0.7818608E-02  0.9724036E-01
          2   -1    0    0  501    0  0.00000000000E+00  0.00000000000E+00  0.31582556899E+04  0.31582556899E+04  0.25500000000E-02 0. -1.
         -2   -1    0    0    0  501 -0.00000000000E+00 -0.00000000000E+00 -0.37283813258E+03  0.37283813259E+03  0.25500000000E-02 0.  1.
    8880022    1    1    2    0    0 -0.37541080596E+03 -0.56580942261E+03  0.38209880597E+02  0.69708336943E+03  0.15294330000E+03 0.  0.
    8880022    1    1    2    0    0  0.37541080596E+03  0.56580942261E+03  0.27472076768E+04  0.28340104531E+04  0.15294330000E+03 0.  0.
<mgrwt>
<rscale>  0 0.69603536E+03</rscale>
<asrwt>0</asrwt>
<pdfrwt beam="1">  1        2 0.48588547E+00 0.69603536E+03</pdfrwt>
<pdfrwt beam="2">  1       -2 0.57359715E-01 0.69603536E+03</pdfrwt>
<totfact> 0.42618686E+00</totfact>
</mgrwt>
</event>
<event>
 4    1  0.1726795E-008  0.6307287E+03  0.7818608E-02  0.9843628E-01
          2   -1    0    0  501    0  0.00000000000E+00  0.00000000000E+00  0.18894011598E+04  0.18894011598E+04  0.25500000000E-02 0. -1.
         -2   -1    0    0    0  501 -0.00000000000E+00 -0.00000000000E+00 -0.26621659398E+03  0.26621659399E+03  0.25500000000E-02 0.  1.
    8880022    1    1    2    0    0  0.16858539741E+03  0.58822272551E+03  0.13044376523E+04  0.14489224454E+04  0.15294330000E+03 0.  0.
    8880022    1    1    2    0    0 -0.16858539741E+03 -0.58822272551E+03  0.31874691355E+03  0.70669530842E+03  0.15294330000E+03 0.  0.
<mgrwt>
<rscale>  0 0.63072868E+03</rscale>
<asrwt>0</asrwt>
<pdfrwt beam="1">  1        2 0.29067711E+00 0.63072868E+03</pdfrwt>
<pdfrwt beam="2">  1       -2 0.40956398E-01 0.63072868E+03</pdfrwt>
<totfact> 0.45394755E+01</totfact>
</mgrwt>
</event>
<event>
 4    1  0.1726795E-008  0.7966430E+03  0.7818608E-02  0.9564889E-01
         -2   -1    0    0    0  501 -0.00000000000E+00  0.00000000000E+00  0.53007840777E+03  0.53007840777E+03  0.25500000000E-02 0.  1.
          2   -1    0    0  501    0  0.00000000000E+00 -0.00000000000E+00 -0.32179955913E+04  0.32179955913E+04  0.25500000000E-02 0. -1.
    8880022    1    1    2    0    0 -0.77720476247E+03 -0.84860197257E+02 -0.28290065988E+04  0.29390335971E+04  0.15294330000E+03 0. -1.
    8880022    1    1    2    0    0  0.77720476247E+03  0.84860197257E+02  0.14108941527E+03  0.80904040196E+03  0.15294330000E+03 0.  0.
<mgrwt>
<rscale>  0 0.79664305E+03</rscale>
<asrwt>0</asrwt>
<pdfrwt beam="1">  1        2 0.49507623E+00 0.79664305E+03</pdfrwt>
<pdfrwt beam="2">  1       -2 0.81550526E-01 0.79664305E+03</pdfrwt>
<totfact> 0.17799506E+00</totfact>
</mgrwt>
</event>
<event>
 4    1  0.1726795E-008  0.1373007E+04  0.7818608E-02  0.8973593E-01
          2   -1    0    0  501    0  0.00000000000E+00  0.00000000000E+00  0.12749973738E+04  0.12749973738E+04  0.25500000000E-02 0. -1.
         -2   -1    0    0    0  501 -0.00000000000E+00 -0.00000000000E+00 -0.17383199121E+04  0.17383199121E+04  0.25500000000E-02 0.  1.
    8880022    1    1    2    0    0  0.11265591356E+04  0.76981845111E+03  0.35076947885E+03  0.14171050822E+04  0.15294330000E+03 0.  0.
    8880022    1    1    2    0    0 -0.11265591356E+04 -0.76981845111E+03 -0.81409201719E+03  0.15962122037E+04  0.15294330000E+03 0.  0.
<mgrwt>
<rscale>  0 0.13730068E+04</rscale>
<asrwt>0</asrwt>
<pdfrwt beam="1">  1        2 0.19615344E+00 0.13730068E+04</pdfrwt>
<pdfrwt beam="2">  1       -2 0.26743383E+00 0.13730068E+04</pdfrwt>
<totfact> 0.82046544E-01</totfact>
</mgrwt>
</event>
<event>
 4    1  0.1726795E-008  0.6173005E+03  0.7818608E-02  0.9870149E-01
         -2   -1    0    0    0  501 -0.00000000000E+00  0.00000000000E+00  0.51925351352E+03  0.51925351353E+03  0.25500000000E-02 0.  1.
          2   -1    0    0  501    0  0.00000000000E+00 -0.00000000000E+00 -0.32089310063E+04  0.32089310063E+04  0.25500000000E-02 0. -1.
    8880022    1    1    2    0    0  0.14234369180E+03  0.58086702071E+03  0.29228294047E+03  0.68300014103E+03  0.15294330000E+03 0.  0.
    8880022    1    1    2    0    0 -0.14234369180E+03 -0.58086702071E+03 -0.29819604332E+04  0.30451843788E+04  0.15294330000E+03 0.  0.
<mgrwt>
<rscale>  0 0.61730047E+03</rscale>
<asrwt>0</asrwt>
<pdfrwt beam="1">  1        2 0.49368168E+00 0.61730047E+03</pdfrwt>
<pdfrwt beam="2">  1       -2 0.79885158E-01 0.61730047E+03</pdfrwt>
<totfact> 0.19703671E+00</totfact>
</mgrwt>
</event>
<event>
 4    1  0.1726795E-008  0.2061144E+04  0.7818608E-02  0.8578555E-01
         -2   -1    0    0    0  501 -0.00000000000E+00  0.00000000000E+00  0.23031977112E+04  0.23031977112E+04  0.25500000000E-02 0.  1.
          2   -1    0    0  501    0  0.00000000000E+00 -0.00000000000E+00 -0.23180286790E+04  0.23180286790E+04  0.25500000000E-02 0. -1.
    8880022    1    1    2    0    0 -0.98278075108E+03 -0.18052884262E+04 -0.10517208132E+04  0.23139646991E+04  0.15294330000E+03 0.  0.
    8880022    1    1    2    0    0  0.98278075108E+03  0.18052884262E+04  0.10368898454E+04  0.23072616911E+04  0.15294330000E+03 0.  0.
<mgrwt>
<rscale>  0 0.20611443E+04</rscale>
<asrwt>0</asrwt>
<pdfrwt beam="1">  1        2 0.35661980E+00 0.20611443E+04</pdfrwt>
<pdfrwt beam="2">  1       -2 0.35433811E+00 0.20611443E+04</pdfrwt>
<totfact> 0.56908011E-02</totfact>
</mgrwt>
</event>
<event>
 4    1  0.1726795E-008  0.9413417E+03  0.7818608E-02  0.9375328E-01
         -2   -1    0    0    0  501 -0.00000000000E+00  0.00000000000E+00  0.60207297055E+03  0.60207297056E+03  0.25500000000E-02 0.  1.
          2   -1    0    0  501    0  0.00000000000E+00 -0.00000000000E+00 -0.24702325910E+04  0.24702325910E+04  0.25500000000E-02 0. -1.
    8880022    1    1    2    0    0  0.69153503302E+03  0.62009017921E+03 -0.19107036540E+04  0.21300029668E+04  0.15294330000E+03 0.  0.
    8880022    1    1    2    0    0 -0.69153503302E+03 -0.62009017921E+03  0.42544033552E+02  0.94230259474E+03  0.15294330000E+03 0.  0.
<mgrwt>
<rscale>  0 0.94134169E+03</rscale>
<asrwt>0</asrwt>
<pdfrwt beam="1">  1        2 0.38003578E+00 0.94134169E+03</pdfrwt>
<pdfrwt beam="2">  1       -2 0.92626612E-01 0.94134169E+03</pdfrwt>
<totfact> 0.36418967E+00</totfact>
</mgrwt>
</event>
<event>
 4    1  0.1726795E-008  0.2908711E+03  0.7818608E-02  0.1089895E+00
         -2   -1    0    0    0  501 -0.00000000000E+00  0.00000000000E+00  0.16882614129E+03  0.16882614131E+03  0.25500000000E-02 0.  1.
          2   -1    0    0  501    0  0.00000000000E+00 -0.00000000000E+00 -0.30378721918E+04  0.30378721918E+04  0.25500000000E-02 0. -1.
    8880022    1    1    2    0    0  0.24710356311E+03  0.12416603735E+02  0.30621397579E+02  0.29247848802E+03  0.15294330000E+03 0.  1.
    8880022    1    1    2    0    0 -0.24710356311E+03 -0.12416603735E+02 -0.28996674481E+04  0.29142198450E+04  0.15294330000E+03 0.  0.
<mgrwt>
<rscale>  0 0.29087110E+03</rscale>
<asrwt>0</asrwt>
<pdfrwt beam="1">  1        2 0.46736491E+00 0.29087110E+03</pdfrwt>
<pdfrwt beam="2">  1       -2 0.25973255E-01 0.29087110E+03</pdfrwt>
<totfact> 0.26285616E+01</totfact>
</mgrwt>
</event>
<event>
 4    1  0.2075475E-008  0.1197404E+04  0.7818608E-02  0.9115132E-01
          2   -1    0    0  501    0  0.00000000000E+00  0.00000000000E+00  0.21052251095E+04  0.21052251095E+04  0.25500000000E-02 0. -1.
         -2   -1    0    0    0  501 -0.00000000000E+00 -0.00000000000E+00 -0.15503273326E+04  0.15503273326E+04  0.25500000000E-02 0.  1.
    8880022    1    1    2    0    0 -0.32756523829E+03  0.11415274901E+04 -0.10911905935E+04  0.16200223950E+04  0.15294330000E+03 0.  0.
    8880022    1    1    2    0    0  0.32756523829E+03 -0.11415274901E+04  0.16460883705E+04  0.20355300471E+04  0.15294330000E+03 0.  0.
<mgrwt>
<rscale>  0 0.11974037E+04</rscale>
<asrwt>0</asrwt>
<pdfrwt beam="1">  1        2 0.32388079E+00 0.11974037E+04</pdfrwt>
<pdfrwt beam="2">  1       -2 0.23851190E+00 0.11974037E+04</pdfrwt>
<totfact> 0.42987462E-01</totfact>
</mgrwt>
</event>
<event>
 4    1  0.1726795E-008  0.7481967E+03  0.7818608E-02  0.9638184E-01
         -2   -1    0    0    0  501 -0.00000000000E+00  0.00000000000E+00  0.24397626862E+03  0.24397626864E+03  0.25500000000E-02 0.  1.
          2   -1    0    0  501    0  0.00000000000E+00 -0.00000000000E+00 -0.28153511663E+04  0.28153511663E+04  0.25500000000E-02 0. -1.
    8880022    1    1    2    0    0 -0.32614198655E+03  0.65577283984E+03 -0.19436414406E+04  0.20826762387E+04  0.15294330000E+03 0.  0.
    8880022    1    1    2    0    0  0.32614198655E+03 -0.65577283984E+03 -0.62773345711E+03  0.97665119621E+03  0.15294330000E+03 0.  0.
<mgrwt>
<rscale>  0 0.74819668E+03</rscale>
<asrwt>0</asrwt>
<pdfrwt beam="1">  1        2 0.43313093E+00 0.74819668E+03</pdfrwt>
<pdfrwt beam="2">  1       -2 0.37534812E-01 0.74819668E+03</pdfrwt>
<totfact> 0.15995176E+01</totfact>
</mgrwt>
</event>
<event>
 4    1  0.1726795E-008  0.5100046E+03  0.7818608E-02  0.1011200E+00
         -2   -1    0    0    0  501 -0.00000000000E+00  0.00000000000E+00  0.27574902108E+03  0.27574902109E+03  0.25500000000E-02 0.  1.
          2   -1    0    0  501    0  0.00000000000E+00 -0.00000000000E+00 -0.32462819165E+04  0.32462819165E+04  0.25500000000E-02 0. -1.
    8880022    1    1    2    0    0  0.47527029422E+03  0.10407286723E+03 -0.29685306907E+04  0.30120224317E+04  0.15294330000E+03 0.  0.
    8880022    1    1    2    0    0 -0.47527029422E+03 -0.10407286723E+03 -0.20022047188E+01  0.51000850592E+03  0.15294330000E+03 0.  0.
<mgrwt>
<rscale>  0 0.51000458E+03</rscale>
<asrwt>0</asrwt>
<pdfrwt beam="1">  1        2 0.49942796E+00 0.51000458E+03</pdfrwt>
<pdfrwt beam="2">  1       -2 0.42422929E-01 0.51000458E+03</pdfrwt>
<totfact> 0.72328320E+00</totfact>
</mgrwt>
</event>
<event>
 4    1  0.1726795E-008  0.8192432E+03  0.7818608E-02  0.9532574E-01
         -2   -1    0    0    0  501 -0.00000000000E+00  0.00000000000E+00  0.11340447115E+04  0.11340447115E+04  0.25500000000E-02 0.  1.
          2   -1    0    0  501    0  0.00000000000E+00 -0.00000000000E+00 -0.73953781913E+03  0.73953781913E+03  0.25500000000E-02 0. -1.
    8880022    1    1    2    0    0 -0.58211775561E+03 -0.55579367285E+03  0.61591917862E+03  0.10249467185E+04  0.15294330000E+03 0.  0.
    8880022    1    1    2    0    0  0.58211775561E+03  0.55579367285E+03 -0.22141228622E+03  0.84863581216E+03  0.15294330000E+03 0.  0.
<mgrwt>
<rscale>  0 0.81924315E+03</rscale>
<asrwt>0</asrwt>
<pdfrwt beam="1">  1        2 0.11377505E+00 0.81924315E+03</pdfrwt>
<pdfrwt beam="2">  1       -2 0.17446842E+00 0.81924315E+03</pdfrwt>
<totfact> 0.76432822E+00</totfact>
</mgrwt>
</event>
<event>
 4    1  0.1726795E-008  0.4755669E+03  0.7818608E-02  0.1020361E+00
          2   -1    0    0  501    0  0.00000000000E+00  0.00000000000E+00  0.75358022289E+03  0.75358022290E+03  0.25500000000E-02 0. -1.
         -2   -1    0    0    0  501 -0.00000000000E+00 -0.00000000000E+00 -0.59317675428E+03  0.59317675429E+03  0.25500000000E-02 0.  1.
    8880022    1    1    2    0    0  0.35953661064E+03 -0.27111926133E+03 -0.39310605246E+03  0.61700587497E+03  0.15294330000E+03 0.  0.
    8880022    1    1    2    0    0 -0.35953661064E+03  0.27111926133E+03  0.55350952107E+03  0.72975110222E+03  0.15294330000E+03 0.  0.
<mgrwt>
<rscale>  0 0.47556691E+03</rscale>
<asrwt>0</asrwt>
<pdfrwt beam="1">  1        2 0.11593542E+00 0.47556691E+03</pdfrwt>
<pdfrwt beam="2">  1       -2 0.91257962E-01 0.47556691E+03</pdfrwt>
<totfact> 0.39756820E+01</totfact>
</mgrwt>
</event>
<event>
 4    1  0.1726795E-008  0.4595755E+03  0.7818608E-02  0.1024904E+00
          2   -1    0    0  501    0  0.00000000000E+00  0.00000000000E+00  0.19081985113E+04  0.19081985113E+04  0.25500000000E-02 0. -1.
         -2   -1    0    0    0  501 -0.00000000000E+00 -0.00000000000E+00 -0.20021965850E+03  0.20021965851E+03  0.25500000000E-02 0.  1.
    8880022    1    1    2    0    0 -0.37348938785E+03  0.21982648641E+03  0.15589552898E+04  0.16252849767E+04  0.15294330000E+03 0.  0.
    8880022    1    1    2    0    0  0.37348938785E+03 -0.21982648641E+03  0.14902356308E+03  0.48313319316E+03  0.15294330000E+03 0.  0.
<mgrwt>
<rscale>  0 0.45957552E+03</rscale>
<asrwt>0</asrwt>
<pdfrwt beam="1">  1        2 0.29356900E+00 0.45957552E+03</pdfrwt>
<pdfrwt beam="2">  1       -2 0.30803024E-01 0.45957552E+03</pdfrwt>
<totfact> 0.78297679E+01</totfact>
</mgrwt>
</event>
<event>
 4    1  0.1726795E-008  0.2368916E+04  0.7818608E-02  0.8451234E-01
          2   -1    0    0  501    0  0.00000000000E+00  0.00000000000E+00  0.15711004763E+04  0.15711004763E+04  0.25500000000E-02 0. -1.
         -2   -1    0    0    0  501 -0.00000000000E+00 -0.00000000000E+00 -0.41462254073E+04  0.41462254073E+04  0.25500000000E-02 0.  1.
    8880022    1    1    2    0    0  0.23634809113E+04 -0.48243930247E+02 -0.23515295206E+04  0.33378813990E+04  0.15294330000E+03 0.  0.
    8880022    1    1    2    0    0 -0.23634809113E+04  0.48243930247E+02 -0.22359541037E+03  0.23794444846E+04  0.15294330000E+03 0.  0.
<mgrwt>
<rscale>  0 0.23689156E+04</rscale>
<asrwt>0</asrwt>
<pdfrwt beam="1">  1        2 0.24170777E+00 0.23689156E+04</pdfrwt>
<pdfrwt beam="2">  1       -2 0.63788083E+00 0.23689156E+04</pdfrwt>
<totfact> 0.35778869E-03</totfact>
</mgrwt>
</event>
<event>
 4    1  0.1726795E-008  0.1235089E+04  0.7818608E-02  0.9082686E-01
          2   -1    0    0  501    0  0.00000000000E+00  0.00000000000E+00  0.22513985191E+04  0.22513985191E+04  0.25500000000E-02 0. -1.
         -2   -1    0    0    0  501 -0.00000000000E+00 -0.00000000000E+00 -0.13167294314E+04  0.13167294314E+04  0.25500000000E-02 0.  1.
    8880022    1    1    2    0    0 -0.22604899006E+03 -0.12045557508E+04  0.17103374560E+04  0.21096678813E+04  0.15294330000E+03 0.  0.
    8880022    1    1    2    0    0  0.22604899006E+03  0.12045557508E+04 -0.77566836842E+03  0.14584600692E+04  0.15294330000E+03 0.  0.
<mgrwt>
<rscale>  0 0.12350888E+04</rscale>
<asrwt>0</asrwt>
<pdfrwt beam="1">  1        2 0.34636900E+00 0.12350888E+04</pdfrwt>
<pdfrwt beam="2">  1       -2 0.20257376E+00 0.12350888E+04</pdfrwt>
<totfact> 0.59861465E-01</totfact>
</mgrwt>
</event>
<event>
 4    1  0.1726795E-008  0.2401133E+03  0.7818608E-02  0.1119717E+00
          2   -1    0    0  501    0  0.00000000000E+00  0.00000000000E+00  0.12328790575E+04  0.12328790575E+04  0.25500000000E-02 0. -1.
         -2   -1    0    0    0  501 -0.00000000000E+00 -0.00000000000E+00 -0.75809706171E+02  0.75809706214E+02  0.25500000000E-02 0.  1.
    8880022    1    1    2    0    0  0.10405682112E+02  0.18480922895E+03  0.17350692235E+03  0.29624151371E+03  0.15294330000E+03 0.  0.
    8880022    1    1    2    0    0 -0.10405682112E+02 -0.18480922895E+03  0.98356242895E+03  0.10124472500E+04  0.15294330000E+03 0.  0.
<mgrwt>
<rscale>  0 0.24011327E+03</rscale>
<asrwt>0</asrwt>
<pdfrwt beam="1">  1        2 0.18967369E+00 0.24011327E+03</pdfrwt>
<pdfrwt beam="2">  1       -2 0.11663033E-01 0.24011327E+03</pdfrwt>
<totfact> 0.99471671E+02</totfact>
</mgrwt>
</event>
<event>
 4    1  0.1726795E-008  0.5589251E+03  0.7818608E-02  0.9994490E-01
         -2   -1    0    0    0  501 -0.00000000000E+00  0.00000000000E+00  0.51957992930E+03  0.51957992931E+03  0.25500000000E-02 0.  1.
          2   -1    0    0  501    0  0.00000000000E+00 -0.00000000000E+00 -0.12000981152E+04  0.12000981152E+04  0.25500000000E-02 0. -1.
    8880022    1    1    2    0    0  0.28860583791E+02  0.53681720291E+03  0.26713031352E+03  0.61948034678E+03  0.15294330000E+03 0.  0.
    8880022    1    1    2    0    0 -0.28860583791E+02 -0.53681720291E+03 -0.94764849944E+03  0.11001976978E+04  0.15294330000E+03 0.  0.
<mgrwt>
<rscale>  0 0.55892513E+03</rscale>
<asrwt>0</asrwt>
<pdfrwt beam="1">  1        2 0.18463048E+00 0.55892513E+03</pdfrwt>
<pdfrwt beam="2">  1       -2 0.79935374E-01 0.55892513E+03</pdfrwt>
<totfact> 0.27354818E+01</totfact>
</mgrwt>
</event>
<event>
 4    1  0.1726795E-008  0.9464924E+03  0.7818608E-02  0.9369260E-01
         -2   -1    0    0    0  501 -0.00000000000E+00  0.00000000000E+00  0.43228981049E+03  0.43228981049E+03  0.25500000000E-02 0.  1.
          2   -1    0    0  501    0  0.00000000000E+00 -0.00000000000E+00 -0.29093409416E+04  0.29093409416E+04  0.25500000000E-02 0. -1.
    8880022    1    1    2    0    0 -0.44030114726E+03  0.82376637673E+03 -0.21347077977E+04  0.23351285143E+04  0.15294330000E+03 0.  0.
    8880022    1    1    2    0    0  0.44030114726E+03 -0.82376637673E+03 -0.34234333338E+03  0.10065022378E+04  0.15294330000E+03 0.  0.
<mgrwt>
<rscale>  0 0.94649236E+03</rscale>
<asrwt>0</asrwt>
<pdfrwt beam="1">  1        2 0.44759090E+00 0.94649236E+03</pdfrwt>
<pdfrwt beam="2">  1       -2 0.66506127E-01 0.94649236E+03</pdfrwt>
<totfact> 0.42357095E+00</totfact>
</mgrwt>
</event>
<event>
 4    1  0.1726795E-008  0.7884355E+03  0.7818608E-02  0.9576909E-01
         -2   -1    0    0    0  501 -0.00000000000E+00  0.00000000000E+00  0.93486114458E+03  0.93486114458E+03  0.25500000000E-02 0.  1.
          2   -1    0    0  501    0  0.00000000000E+00 -0.00000000000E+00 -0.21657389152E+04  0.21657389152E+04  0.25500000000E-02 0. -1.
    8880022    1    1    2    0    0 -0.76610823415E+03 -0.10638192735E+03 -0.19059844304E+04  0.20626214493E+04  0.15294330000E+03 0.  0.
    8880022    1    1    2    0    0  0.76610823415E+03  0.10638192735E+03  0.67510665977E+03  0.10379786106E+04  0.15294330000E+03 0.  0.
<mgrwt>
<rscale>  0 0.78843554E+03</rscale>
<asrwt>0</asrwt>
<pdfrwt beam="1">  1        2 0.33319060E+00 0.78843554E+03</pdfrwt>
<pdfrwt beam="2">  1       -2 0.14382479E+00 0.78843554E+03</pdfrwt>
<totfact> 0.18695089E+00</totfact>
</mgrwt>
</event>
<event>
 4    1  0.1726795E-008  0.6208427E+03  0.7818608E-02  0.9863083E-01
          2   -1    0    0  501    0  0.00000000000E+00  0.00000000000E+00  0.10931401790E+04  0.10931401790E+04  0.25500000000E-02 0. -1.
         -2   -1    0    0    0  501 -0.00000000000E+00 -0.00000000000E+00 -0.69262732626E+03  0.69262732626E+03  0.25500000000E-02 0.  1.
    8880022    1    1    2    0    0  0.59703479246E+03 -0.74856425931E+02 -0.42534743090E+03  0.75257299839E+03  0.15294330000E+03 0.  0.
    8880022    1    1    2    0    0 -0.59703479246E+03  0.74856425931E+02  0.82586028362E+03  0.10331945069E+04  0.15294330000E+03 0.  0.
<mgrwt>
<rscale>  0 0.62084272E+03</rscale>
<asrwt>0</asrwt>
<pdfrwt beam="1">  1        2 0.16817541E+00 0.62084272E+03</pdfrwt>
<pdfrwt beam="2">  1       -2 0.10655805E+00 0.62084272E+03</pdfrwt>
<totfact> 0.16144344E+01</totfact>
</mgrwt>
</event>
<event>
 4    1  0.1726795E-008  0.9312328E+03  0.7818608E-02  0.9387360E-01
         -2   -1    0    0    0  501 -0.00000000000E+00  0.00000000000E+00  0.10078469028E+04  0.10078469028E+04  0.25500000000E-02 0.  1.
          2   -1    0    0  501    0  0.00000000000E+00 -0.00000000000E+00 -0.21082599731E+04  0.21082599731E+04  0.25500000000E-02 0. -1.
    8880022    1    1    2    0    0  0.41429242631E+01 -0.91857811351E+03 -0.17488658205E+04  0.19813445499E+04  0.15294330000E+03 0.  0.
    8880022    1    1    2    0    0 -0.41429242631E+01  0.91857811351E+03  0.64845275010E+03  0.11347623260E+04  0.15294330000E+03 0.  0.
<mgrwt>
<rscale>  0 0.93123282E+03</rscale>
<asrwt>0</asrwt>
<pdfrwt beam="1">  1        2 0.32434769E+00 0.93123282E+03</pdfrwt>
<pdfrwt beam="2">  1       -2 0.15505337E+00 0.93123282E+03</pdfrwt>
<totfact> 0.16094232E+00</totfact>
</mgrwt>
</event>
<event>
 4    1  0.1726795E-008  0.1284864E+04  0.7818608E-02  0.9041655E-01
         -2   -1    0    0    0  501 -0.00000000000E+00  0.00000000000E+00  0.59865036779E+03  0.59865036780E+03  0.25500000000E-02 0.  1.
          2   -1    0    0  501    0  0.00000000000E+00 -0.00000000000E+00 -0.28990777831E+04  0.28990777831E+04  0.25500000000E-02 0. -1.
    8880022    1    1    2    0    0 -0.11342227422E+04  0.58397070737E+03 -0.15364711530E+04  0.20029024621E+04  0.15294330000E+03 0.  0.
    8880022    1    1    2    0    0  0.11342227422E+04 -0.58397070737E+03 -0.76395626236E+03  0.14948256888E+04  0.15294330000E+03 0.  0.
<mgrwt>
<rscale>  0 0.12848637E+04</rscale>
<asrwt>0</asrwt>
<pdfrwt beam="1">  1        2 0.44601196E+00 0.12848637E+04</pdfrwt>
<pdfrwt beam="2">  1       -2 0.92100059E-01 0.12848637E+04</pdfrwt>
<totfact> 0.19747843E+00</totfact>
</mgrwt>
</event>
<event>
 4    1  0.1726795E-008  0.1323204E+04  0.7818608E-02  0.9011364E-01
          2   -1    0    0  501    0  0.00000000000E+00  0.00000000000E+00  0.26528083513E+04  0.26528083513E+04  0.25500000000E-02 0. -1.
         -2   -1    0    0    0  501 -0.00000000000E+00 -0.00000000000E+00 -0.68960738245E+03  0.68960738245E+03  0.25500000000E-02 0.  1.
    8880022    1    1    2    0    0 -0.58286627365E+03  0.11780257724E+04  0.63535396746E+03  0.14678365475E+04  0.15294330000E+03 0.  0.
    8880022    1    1    2    0    0  0.58286627365E+03 -0.11780257724E+04  0.13278470014E+04  0.18745791862E+04  0.15294330000E+03 0.  0.
<mgrwt>
<rscale>  0 0.13232042E+04</rscale>
<asrwt>0</asrwt>
<pdfrwt beam="1">  1        2 0.40812437E+00 0.13232042E+04</pdfrwt>
<pdfrwt beam="2">  1       -2 0.10609344E+00 0.13232042E+04</pdfrwt>
<totfact> 0.19711052E+00</totfact>
</mgrwt>
</event>
<event>
 4    1  0.1726795E-008  0.7710309E+03  0.7818608E-02  0.9602922E-01
         -2   -1    0    0    0  501 -0.00000000000E+00  0.00000000000E+00  0.14253021708E+04  0.14253021708E+04  0.25500000000E-02 0.  1.
          2   -1    0    0  501    0  0.00000000000E+00 -0.00000000000E+00 -0.61547973190E+03  0.61547973191E+03  0.25500000000E-02 0. -1.
    8880022    1    1    2    0    0  0.75312853918E+03  0.62404990668E+02  0.98422270058E+03  0.12502731529E+04  0.15294330000E+03 0.  0.
    8880022    1    1    2    0    0 -0.75312853918E+03 -0.62404990668E+02 -0.17440026164E+03  0.79050874990E+03  0.15294330000E+03 0.  0.
<mgrwt>
<rscale>  0 0.77103089E+03</rscale>
<asrwt>0</asrwt>
<pdfrwt beam="1">  1        2 0.94689189E-01 0.77103089E+03</pdfrwt>
<pdfrwt beam="2">  1       -2 0.21927726E+00 0.77103089E+03</pdfrwt>
<totfact> 0.49030981E+00</totfact>
</mgrwt>
</event>
<event>
 4    1  0.1767169E-008  0.1007200E+04  0.7818608E-02  0.9300683E-01
          2   -1    0    0  501    0  0.00000000000E+00  0.00000000000E+00  0.17299803483E+04  0.17299803483E+04  0.25500000000E-02 0. -1.
         -2   -1    0    0    0  501 -0.00000000000E+00 -0.00000000000E+00 -0.14413654049E+04  0.14413654049E+04  0.25500000000E-02 0.  1.
    8880022    1    1    2    0    0 -0.54396740904E+03  0.83376202634E+03 -0.10769357518E+04  0.14745310865E+04  0.15294330000E+03 0.  0.
    8880022    1    1    2    0    0  0.54396740904E+03 -0.83376202634E+03  0.13655506953E+04  0.16968146667E+04  0.15294330000E+03 0.  0.
<mgrwt>
<rscale>  0 0.10071997E+04</rscale>
<asrwt>0</asrwt>
<pdfrwt beam="1">  1        2 0.26615082E+00 0.10071997E+04</pdfrwt>
<pdfrwt beam="2">  1       -2 0.22174852E+00 0.10071997E+04</pdfrwt>
<totfact> 0.90568866E-01</totfact>
</mgrwt>
</event>
<event>
 4    1  0.1726795E-008  0.5025422E+03  0.7818608E-02  0.1013117E+00
         -2   -1    0    0    0  501 -0.00000000000E+00  0.00000000000E+00  0.69809456680E+03  0.69809456681E+03  0.25500000000E-02 0.  1.
          2   -1    0    0  501    0  0.00000000000E+00 -0.00000000000E+00 -0.96518099856E+03  0.96518099856E+03  0.25500000000E-02 0. -1.
    8880022    1    1    2    0    0  0.42574924162E+03 -0.21884833935E+03 -0.79110559742E+03  0.93722821749E+03  0.15294330000E+03 0.  0.
    8880022    1    1    2    0    0 -0.42574924162E+03  0.21884833935E+03  0.52401916565E+03  0.72604734788E+03  0.15294330000E+03 0.  0.
<mgrwt>
<rscale>  0 0.50254220E+03</rscale>
<asrwt>0</asrwt>
<pdfrwt beam="1">  1        2 0.14848938E+00 0.50254220E+03</pdfrwt>
<pdfrwt beam="2">  1       -2 0.10739916E+00 0.50254220E+03</pdfrwt>
<totfact> 0.19372396E+01</totfact>
</mgrwt>
</event>
<event>
 4    1  0.1726795E-008  0.8283400E+03  0.7818608E-02  0.9519878E-01
         -2   -1    0    0    0  501 -0.00000000000E+00  0.00000000000E+00  0.37306421141E+03  0.37306421142E+03  0.25500000000E-02 0.  1.
          2   -1    0    0  501    0  0.00000000000E+00 -0.00000000000E+00 -0.29942316348E+04  0.29942316348E+04  0.25500000000E-02 0. -1.
    8880022    1    1    2    0    0 -0.42322244101E+03  0.69544109301E+03 -0.26489663726E+03  0.86966512513E+03  0.15294330000E+03 0.  0.
    8880022    1    1    2    0    0  0.42322244101E+03 -0.69544109301E+03 -0.23562707861E+04  0.24976307211E+04  0.15294330000E+03 0.  0.
<mgrwt>
<rscale>  0 0.82834003E+03</rscale>
<asrwt>0</asrwt>
<pdfrwt beam="1">  1        2 0.46065100E+00 0.82834003E+03</pdfrwt>
<pdfrwt beam="2">  1       -2 0.57394496E-01 0.82834003E+03</pdfrwt>
<totfact> 0.52455875E+00</totfact>
</mgrwt>
</event>
<event>
 4    1  0.1726795E-008  0.1168703E+04  0.7818608E-02  0.9140700E-01
          2   -1    0    0  501    0  0.00000000000E+00  0.00000000000E+00  0.83420865182E+03  0.83420865183E+03  0.25500000000E-02 0. -1.
         -2   -1    0    0    0  501 -0.00000000000E+00 -0.00000000000E+00 -0.24403215469E+04  0.24403215469E+04  0.25500000000E-02 0.  1.
    8880022    1    1    2    0    0 -0.97849410377E+03 -0.62050356849E+03 -0.17422465243E+04  0.20979251640E+04  0.15294330000E+03 0.  0.
    8880022    1    1    2    0    0  0.97849410377E+03  0.62050356849E+03  0.13613362919E+03  0.11766050347E+04  0.15294330000E+03 0.  0.
<mgrwt>
<rscale>  0 0.11687031E+04</rscale>
<asrwt>0</asrwt>
<pdfrwt beam="1">  1        2 0.12833979E+00 0.11687031E+04</pdfrwt>
<pdfrwt beam="2">  1       -2 0.37543408E+00 0.11687031E+04</pdfrwt>
<totfact> 0.34561866E-01</totfact>
</mgrwt>
</event>
<event>
 4    1  0.1726795E-008  0.7217848E+03  0.7818608E-02  0.9680686E-01
          2   -1    0    0  501    0  0.00000000000E+00  0.00000000000E+00  0.53897443713E+03  0.53897443713E+03  0.25500000000E-02 0. -1.
         -2   -1    0    0    0  501 -0.00000000000E+00 -0.00000000000E+00 -0.17536334398E+04  0.17536334398E+04  0.25500000000E-02 0.  1.
    8880022    1    1    2    0    0  0.64340398301E+03  0.28915894008E+03  0.16060944137E+03  0.73943804585E+03  0.15294330000E+03 0.  0.
    8880022    1    1    2    0    0 -0.64340398301E+03 -0.28915894008E+03 -0.13752684441E+04  0.15531698311E+04  0.15294330000E+03 0.  1.
<mgrwt>
<rscale>  0 0.72178475E+03</rscale>
<asrwt>0</asrwt>
<pdfrwt beam="1">  1        2 0.82919145E-01 0.72178475E+03</pdfrwt>
<pdfrwt beam="2">  1       -2 0.26978976E+00 0.72178475E+03</pdfrwt>
<totfact> 0.28465656E+00</totfact>
</mgrwt>
</event>
<event>
 4    1  0.1726795E-008  0.7321023E+03  0.7818608E-02  0.9663855E-01
         -2   -1    0    0    0  501 -0.00000000000E+00  0.00000000000E+00  0.18213546300E+04  0.18213546300E+04  0.25500000000E-02 0.  1.
          2   -1    0    0  501    0  0.00000000000E+00 -0.00000000000E+00 -0.13407872340E+04  0.13407872340E+04  0.25500000000E-02 0. -1.
    8880022    1    1    2    0    0 -0.69840850737E+03  0.15750451299E+03  0.16371157351E+04  0.17933548723E+04  0.15294330000E+03 0.  0.
    8880022    1    1    2    0    0  0.69840850737E+03 -0.15750451299E+03 -0.11565483392E+04  0.13687869917E+04  0.15294330000E+03 0. -1.
<mgrwt>
<rscale>  0 0.73210229E+03</rscale>
<asrwt>0</asrwt>
<pdfrwt beam="1">  1        2 0.20627496E+00 0.73210229E+03</pdfrwt>
<pdfrwt beam="2">  1       -2 0.28020840E+00 0.73210229E+03</pdfrwt>
<totfact> 0.69047688E-01</totfact>
</mgrwt>
</event>
<event>
 4    1  0.1726795E-008  0.1127448E+04  0.7818608E-02  0.9178844E-01
          2   -1    0    0  501    0  0.00000000000E+00  0.00000000000E+00  0.24697354594E+04  0.24697354594E+04  0.25500000000E-02 0. -1.
         -2   -1    0    0    0  501 -0.00000000000E+00 -0.00000000000E+00 -0.12275638517E+04  0.12275638517E+04  0.25500000000E-02 0.  1.
    8880022    1    1    2    0    0 -0.10991876138E+04  0.19883348528E+03  0.20298552955E+04  0.23219501155E+04  0.15294330000E+03 0.  0.
    8880022    1    1    2    0    0  0.10991876138E+04 -0.19883348528E+03 -0.78768368773E+03  0.13753491957E+04  0.15294330000E+03 0.  0.
<mgrwt>
<rscale>  0 0.11274484E+04</rscale>
<asrwt>0</asrwt>
<pdfrwt beam="1">  1        2 0.37995930E+00 0.11274484E+04</pdfrwt>
<pdfrwt beam="2">  1       -2 0.18885598E+00 0.11274484E+04</pdfrwt>
<totfact> 0.56366319E-01</totfact>
</mgrwt>
</event>
<event>
 4    1  0.1726795E-008  0.6894702E+03  0.7818608E-02  0.9735411E-01
          2   -1    0    0  501    0  0.00000000000E+00  0.00000000000E+00  0.25973851676E+04  0.25973851676E+04  0.25500000000E-02 0. -1.
         -2   -1    0    0    0  501 -0.00000000000E+00 -0.00000000000E+00 -0.38671971005E+03  0.38671971006E+03  0.25500000000E-02 0.  1.
    8880022    1    1    2    0    0  0.12426130524E+03 -0.66070917694E+03  0.22446327291E+02  0.68983547248E+03  0.15294330000E+03 0.  0.
    8880022    1    1    2    0    0 -0.12426130524E+03  0.66070917694E+03  0.21882191302E+04  0.22942694051E+04  0.15294330000E+03 0.  0.
<mgrwt>
<rscale>  0 0.68947019E+03</rscale>
<asrwt>0</asrwt>
<pdfrwt beam="1">  1        2 0.39959772E+00 0.68947019E+03</pdfrwt>
<pdfrwt beam="2">  1       -2 0.59495340E-01 0.68947019E+03</pdfrwt>
<totfact> 0.85622746E+00</totfact>
</mgrwt>
</event>
<event>
 4    1  0.1726795E-008  0.1061966E+04  0.7818608E-02  0.9243077E-01
          2   -1    0    0  501    0  0.00000000000E+00  0.00000000000E+00  0.64972812553E+03  0.64972812553E+03  0.25500000000E-02 0. -1.
         -2   -1    0    0    0  501 -0.00000000000E+00 -0.00000000000E+00 -0.18325654957E+04  0.18325654957E+04  0.25500000000E-02 0.  1.
    8880022    1    1    2    0    0 -0.63478605741E+03 -0.83751179137E+03 -0.30615453046E+03  0.11052156301E+04  0.15294330000E+03 0.  0.
    8880022    1    1    2    0    0  0.63478605741E+03  0.83751179137E+03 -0.87668283976E+03  0.13770779912E+04  0.15294330000E+03 0.  0.
<mgrwt>
<rscale>  0 0.10619656E+04</rscale>
<asrwt>0</asrwt>
<pdfrwt beam="1">  1        2 0.99958174E-01 0.10619656E+04</pdfrwt>
<pdfrwt beam="2">  1       -2 0.28193315E+00 0.10619656E+04</pdfrwt>
<totfact> 0.18358367E+00</totfact>
</mgrwt>
</event>
<event>
 4    1  0.1726795E-008  0.1146494E+04  0.7818608E-02  0.9161024E-01
         -2   -1    0    0    0  501 -0.00000000000E+00  0.00000000000E+00  0.17778654663E+04  0.17778654664E+04  0.25500000000E-02 0.  1.
          2   -1    0    0  501    0  0.00000000000E+00 -0.00000000000E+00 -0.18363063891E+04  0.18363063891E+04  0.25500000000E-02 0. -1.
    8880022    1    1    2    0    0  0.26576401833E+03 -0.11047294761E+04 -0.14259188517E+04  0.18296704494E+04  0.15294330000E+03 0.  0.
    8880022    1    1    2    0    0 -0.26576401833E+03  0.11047294761E+04  0.13674779290E+04  0.17845014060E+04  0.15294330000E+03 0.  0.
<mgrwt>
<rscale>  0 0.11464944E+04</rscale>
<asrwt>0</asrwt>
<pdfrwt beam="1">  1        2 0.28250868E+00 0.11464944E+04</pdfrwt>
<pdfrwt beam="2">  1       -2 0.27351776E+00 0.11464944E+04</pdfrwt>
<totfact> 0.37291383E-01</totfact>
</mgrwt>
</event>
<event>
 4    1  0.1726795E-008  0.5492828E+03  0.7818608E-02  0.1001660E+00
          2   -1    0    0  501    0  0.00000000000E+00  0.00000000000E+00  0.17407732894E+04  0.17407732894E+04  0.25500000000E-02 0. -1.
         -2   -1    0    0    0  501 -0.00000000000E+00 -0.00000000000E+00 -0.73592383252E+03  0.73592383253E+03  0.25500000000E-02 0.  1.
    8880022    1    1    2    0    0  0.31589350171E+03  0.42252958099E+03 -0.58032389620E+03  0.79905408375E+03  0.15294330000E+03 0.  0.
    8880022    1    1    2    0    0 -0.31589350171E+03 -0.42252958099E+03  0.15851733531E+04  0.16776430382E+04  0.15294330000E+03 0.  0.
<mgrwt>
<rscale>  0 0.54928281E+03</rscale>
<asrwt>0</asrwt>
<pdfrwt beam="1">  1        2 0.26781128E+00 0.54928281E+03</pdfrwt>
<pdfrwt beam="2">  1       -2 0.11321905E+00 0.54928281E+03</pdfrwt>
<totfact> 0.60897534E+00</totfact>
</mgrwt>
</event>
<event>
 4    1  0.1726795E-008  0.8472402E+03  0.7818608E-02  0.9494049E-01
         -2   -1    0    0    0  501 -0.00000000000E+00  0.00000000000E+00  0.10141222956E+04  0.10141222956E+04  0.25500000000E-02 0.  1.
          2   -1    0    0  501    0  0.00000000000E+00 -0.00000000000E+00 -0.13314170442E+04  0.13314170442E+04  0.25500000000E-02 0. -1.
    8880022    1    1    2    0    0 -0.21213000353E+03  0.80586919109E+03  0.64396846759E+03  0.10641951568E+04  0.15294330000E+03 0.  0.
    8880022    1    1    2    0    0  0.21213000353E+03 -0.80586919109E+03 -0.96126321618E+03  0.12813441830E+04  0.15294330000E+03 0.  0.
<mgrwt>
<rscale>  0 0.84724019E+03</rscale>
<asrwt>0</asrwt>
<pdfrwt beam="1">  1        2 0.20483339E+00 0.84724019E+03</pdfrwt>
<pdfrwt beam="2">  1       -2 0.15601881E+00 0.84724019E+03</pdfrwt>
<totfact> 0.43180785E+00</totfact>
</mgrwt>
</event>
<event>
 4    1  0.1726795E-008  0.2596159E+03  0.7818608E-02  0.1107374E+00
          2   -1    0    0  501    0  0.00000000000E+00  0.00000000000E+00  0.14234327315E+04  0.14234327315E+04  0.25500000000E-02 0. -1.
         -2   -1    0    0    0  501 -0.00000000000E+00 -0.00000000000E+00 -0.67175659500E+03  0.67175659501E+03  0.25500000000E-02 0.  1.
    8880022    1    1    2    0    0 -0.56303013558E+02 -0.20208591534E+03  0.13858368236E+04  0.14099447157E+04  0.15294330000E+03 0.  0.
    8880022    1    1    2    0    0  0.56303013558E+02  0.20208591534E+03 -0.63416068715E+03  0.68524461082E+03  0.15294330000E+03 0.  0.
<mgrwt>
<rscale>  0 0.25961587E+03</rscale>
<asrwt>0</asrwt>
<pdfrwt beam="1">  1        2 0.21898965E+00 0.25961587E+03</pdfrwt>
<pdfrwt beam="2">  1       -2 0.10334717E+00 0.25961587E+03</pdfrwt>
<totfact> 0.12194617E+01</totfact>
</mgrwt>
</event>
<event>
 4    1  0.1726795E-008  0.9611095E+03  0.7818608E-02  0.9352259E-01
         -2   -1    0    0    0  501 -0.00000000000E+00  0.00000000000E+00  0.99518503628E+03  0.99518503628E+03  0.25500000000E-02 0.  1.
          2   -1    0    0  501    0  0.00000000000E+00 -0.00000000000E+00 -0.18722135042E+04  0.18722135042E+04  0.25500000000E-02 0. -1.
    8880022    1    1    2    0    0  0.84651700257E+03  0.42865929442E+03 -0.14565647128E+04  0.17450823023E+04  0.15294330000E+03 0.  0.
    8880022    1    1    2    0    0 -0.84651700257E+03 -0.42865929442E+03  0.57953624486E+03  0.11223162382E+04  0.15294330000E+03 0.  0.
<mgrwt>
<rscale>  0 0.96110950E+03</rscale>
<asrwt>0</asrwt>
<pdfrwt beam="1">  1        2 0.28803285E+00 0.96110950E+03</pdfrwt>
<pdfrwt beam="2">  1       -2 0.15310539E+00 0.96110950E+03</pdfrwt>
<totfact> 0.22352322E+00</totfact>
</mgrwt>
</event>
<event>
 4    1  0.1726795E-008  0.1704997E+04  0.7818608E-02  0.8758519E-01
          2   -1    0    0  501    0  0.00000000000E+00  0.00000000000E+00  0.17980301820E+04  0.17980301820E+04  0.25500000000E-02 0. -1.
         -2   -1    0    0    0  501 -0.00000000000E+00 -0.00000000000E+00 -0.18319844355E+04  0.18319844355E+04  0.25500000000E-02 0.  1.
    8880022    1    1    2    0    0 -0.15686710082E+04 -0.65030348265E+03  0.60510177628E+03  0.18091885375E+04  0.15294330000E+03 0.  0.
    8880022    1    1    2    0    0  0.15686710082E+04  0.65030348265E+03 -0.63905602980E+03  0.18208260800E+04  0.15294330000E+03 0.  0.
<mgrwt>
<rscale>  0 0.17049971E+04</rscale>
<asrwt>0</asrwt>
<pdfrwt beam="1">  1        2 0.27662003E+00 0.17049971E+04</pdfrwt>
<pdfrwt beam="2">  1       -2 0.28184376E+00 0.17049971E+04</pdfrwt>
<totfact> 0.32611523E-01</totfact>
</mgrwt>
</event>
<event>
 4    1  0.1726795E-008  0.9249217E+03  0.7818608E-02  0.9394953E-01
          2   -1    0    0  501    0  0.00000000000E+00  0.00000000000E+00  0.16376067700E+04  0.16376067700E+04  0.25500000000E-02 0. -1.
         -2   -1    0    0    0  501 -0.00000000000E+00 -0.00000000000E+00 -0.11023544177E+04  0.11023544177E+04  0.25500000000E-02 0.  1.
    8880022    1    1    2    0    0  0.59549382385E+03 -0.69099604137E+03  0.12613187074E+04  0.15640987686E+04  0.15294330000E+03 0.  0.
    8880022    1    1    2    0    0 -0.59549382385E+03  0.69099604137E+03 -0.72606635510E+03  0.11758624190E+04  0.15294330000E+03 0.  0.
<mgrwt>
<rscale>  0 0.92492166E+03</rscale>
<asrwt>0</asrwt>
<pdfrwt beam="1">  1        2 0.25193950E+00 0.92492166E+03</pdfrwt>
<pdfrwt beam="2">  1       -2 0.16959299E+00 0.92492166E+03</pdfrwt>
<totfact> 0.22879684E+00</totfact>
</mgrwt>
</event>
<event>
 4    1  0.1726795E-008  0.5613760E+03  0.7818608E-02  0.9988946E-01
          2   -1    0    0  501    0  0.00000000000E+00  0.00000000000E+00  0.10068930990E+04  0.10068930990E+04  0.25500000000E-02 0. -1.
         -2   -1    0    0    0  501 -0.00000000000E+00 -0.00000000000E+00 -0.58206205609E+03  0.58206205610E+03  0.25500000000E-02 0.  1.
    8880022    1    1    2    0    0 -0.54005073594E+03 -0.98267238990E+01  0.75259100629E+03  0.93890161234E+03  0.15294330000E+03 0. -1.
    8880022    1    1    2    0    0  0.54005073594E+03  0.98267238990E+01 -0.32775996336E+03  0.65005354279E+03  0.15294330000E+03 0.  0.
<mgrwt>
<rscale>  0 0.56137600E+03</rscale>
<asrwt>0</asrwt>
<pdfrwt beam="1">  1        2 0.15490663E+00 0.56137600E+03</pdfrwt>
<pdfrwt beam="2">  1       -2 0.89548009E-01 0.56137600E+03</pdfrwt>
<totfact> 0.27681833E+01</totfact>
</mgrwt>
</event>
<event>
 4    1  0.1726795E-008  0.1094251E+04  0.7818608E-02  0.9210813E-01
          2   -1    0    0  501    0  0.00000000000E+00  0.00000000000E+00  0.73408306550E+03  0.73408306551E+03  0.25500000000E-02 0. -1.
         -2   -1    0    0    0  501 -0.00000000000E+00 -0.00000000000E+00 -0.29252978893E+04  0.29252978893E+04  0.25500000000E-02 0.  1.
    8880022    1    1    2    0    0 -0.67453380382E+03  0.84793783597E+03  0.12138430348E+03  0.11009633183E+04  0.15294330000E+03 0.  0.
    8880022    1    1    2    0    0  0.67453380382E+03 -0.84793783597E+03 -0.23125991272E+04  0.25584176364E+04  0.15294330000E+03 0.  0.
<mgrwt>
<rscale>  0 0.10942514E+04</rscale>
<asrwt>0</asrwt>
<pdfrwt beam="1">  1        2 0.11293586E+00 0.10942514E+04</pdfrwt>
<pdfrwt beam="2">  1       -2 0.45004582E+00 0.10942514E+04</pdfrwt>
<totfact> 0.13422020E-01</totfact>
</mgrwt>
</event>
<event>
 4    1  0.1726795E-008  0.5269292E+03  0.7818608E-02  0.1006980E+00
          2   -1    0    0  501    0  0.00000000000E+00  0.00000000000E+00  0.38762564080E+04  0.38762564080E+04  0.25500000000E-02 0. -1.
         -2   -1    0    0    0  501 -0.00000000000E+00 -0.00000000000E+00 -0.12401885566E+03  0.12401885569E+03  0.25500000000E-02 0.  1.
    8880022    1    1    2    0    0 -0.43426934767E+03  0.25626712696E+03  0.57613630955E+03  0.78076078723E+03  0.15294330000E+03 0.  0.
    8880022    1    1    2    0    0  0.43426934767E+03 -0.25626712696E+03  0.31761012428E+04  0.32195144764E+04  0.15294330000E+03 0.  0.
<mgrwt>
<rscale>  0 0.52692918E+03</rscale>
<asrwt>0</asrwt>
<pdfrwt beam="1">  1        2 0.59634709E+00 0.52692918E+03</pdfrwt>
<pdfrwt beam="2">  1       -2 0.19079826E-01 0.52692918E+03</pdfrwt>
<totfact> 0.11481743E+01</totfact>
</mgrwt>
</event>
<event>
 4    1  0.1726795E-008  0.1065505E+04  0.7818608E-02  0.9239480E-01
         -2   -1    0    0    0  501 -0.00000000000E+00  0.00000000000E+00  0.39281948960E+03  0.39281948961E+03  0.25500000000E-02 0.  1.
          2   -1    0    0  501    0  0.00000000000E+00 -0.00000000000E+00 -0.30464944200E+04  0.30464944200E+04  0.25500000000E-02 0. -1.
    8880022    1    1    2    0    0  0.43262686016E+03  0.96163622481E+03 -0.93725285621E+03  0.14190647619E+04  0.15294330000E+03 0.  0.
    8880022    1    1    2    0    0 -0.43262686016E+03 -0.96163622481E+03 -0.17164220742E+04  0.20202491477E+04  0.15294330000E+03 0.  0.
<mgrwt>
<rscale>  0 0.10655055E+04</rscale>
<asrwt>0</asrwt>
<pdfrwt beam="1">  1        2 0.46869143E+00 0.10655055E+04</pdfrwt>
<pdfrwt beam="2">  1       -2 0.60433770E-01 0.10655055E+04</pdfrwt>
<totfact> 0.42115044E+00</totfact>
</mgrwt>
</event>
<event>
 4    1  0.1726795E-008  0.8978461E+03  0.7818608E-02  0.9428278E-01
         -2   -1    0    0    0  501 -0.00000000000E+00  0.00000000000E+00  0.13087208059E+04  0.13087208059E+04  0.25500000000E-02 0.  1.
          2   -1    0    0  501    0  0.00000000000E+00 -0.00000000000E+00 -0.10322910387E+04  0.10322910387E+04  0.25500000000E-02 0. -1.
    8880022    1    1    2    0    0  0.71729939897E+03 -0.51789714913E+03 -0.60512732752E+03  0.10827310933E+04  0.15294330000E+03 0.  0.
    8880022    1    1    2    0    0 -0.71729939897E+03  0.51789714913E+03  0.88155709468E+03  0.12582807513E+04  0.15294330000E+03 0.  1.
<mgrwt>
<rscale>  0 0.89784605E+03</rscale>
<asrwt>0</asrwt>
<pdfrwt beam="1">  1        2 0.15881401E+00 0.89784605E+03</pdfrwt>
<pdfrwt beam="2">  1       -2 0.20134166E+00 0.89784605E+03</pdfrwt>
<totfact> 0.31438595E+00</totfact>
</mgrwt>
</event>
<event>
 4    1  0.1726795E-008  0.4134834E+03  0.7818608E-02  0.1039208E+00
          2   -1    0    0  501    0  0.00000000000E+00  0.00000000000E+00  0.59274178371E+03  0.59274178372E+03  0.25500000000E-02 0. -1.
         -2   -1    0    0    0  501 -0.00000000000E+00 -0.00000000000E+00 -0.93941604800E+03  0.93941604800E+03  0.25500000000E-02 0.  1.
    8880022    1    1    2    0    0 -0.30447964417E+03  0.23424133805E+03  0.46438004137E+03  0.62178560131E+03  0.15294330000E+03 0.  0.
    8880022    1    1    2    0    0  0.30447964417E+03 -0.23424133805E+03 -0.81105430565E+03  0.91037223041E+03  0.15294330000E+03 0.  0.
<mgrwt>
<rscale>  0 0.41348339E+03</rscale>
<asrwt>0</asrwt>
<pdfrwt beam="1">  1        2 0.91191044E-01 0.41348339E+03</pdfrwt>
<pdfrwt beam="2">  1       -2 0.14452555E+00 0.41348339E+03</pdfrwt>
<totfact> 0.17590258E+01</totfact>
</mgrwt>
</event>
<event>
 4    1  0.1726795E-008  0.4891271E+03  0.7818608E-02  0.1016657E+00
         -2   -1    0    0    0  501 -0.00000000000E+00  0.00000000000E+00  0.56816510408E+03  0.56816510409E+03  0.25500000000E-02 0.  1.
          2   -1    0    0  501    0  0.00000000000E+00 -0.00000000000E+00 -0.19548055336E+04  0.19548055336E+04  0.25500000000E-02 0. -1.
    8880022    1    1    2    0    0 -0.34855037123E+03  0.30719103013E+03  0.42406688009E+03  0.64736238852E+03  0.15294330000E+03 0.  0.
    8880022    1    1    2    0    0  0.34855037123E+03 -0.30719103013E+03 -0.18107073096E+04  0.18756082492E+04  0.15294330000E+03 0.  0.
<mgrwt>
<rscale>  0 0.48912712E+03</rscale>
<asrwt>0</asrwt>
<pdfrwt beam="1">  1        2 0.30073931E+00 0.48912712E+03</pdfrwt>
<pdfrwt beam="2">  1       -2 0.87410017E-01 0.48912712E+03</pdfrwt>
<totfact> 0.87007716E+00</totfact>
</mgrwt>
</event>
<event>
 4    1  0.1726795E-008  0.3909521E+03  0.7818608E-02  0.1046958E+00
          2   -1    0    0  501    0  0.00000000000E+00  0.00000000000E+00  0.10261203339E+04  0.10261203339E+04  0.25500000000E-02 0. -1.
         -2   -1    0    0    0  501 -0.00000000000E+00 -0.00000000000E+00 -0.82328263605E+03  0.82328263605E+03  0.25500000000E-02 0.  1.
    8880022    1    1    2    0    0  0.33070748648E+03  0.14171963912E+03 -0.73546126482E+03  0.83291465517E+03  0.15294330000E+03 0.  0.
    8880022    1    1    2    0    0 -0.33070748648E+03 -0.14171963912E+03  0.93829896272E+03  0.10164883148E+04  0.15294330000E+03 0.  0.
<mgrwt>
<rscale>  0 0.39095211E+03</rscale>
<asrwt>0</asrwt>
<pdfrwt beam="1">  1        2 0.15786467E+00 0.39095211E+03</pdfrwt>
<pdfrwt beam="2">  1       -2 0.12665887E+00 0.39095211E+03</pdfrwt>
<totfact> 0.12119331E+01</totfact>
</mgrwt>
</event>
<event>
 4    1  0.1726795E-008  0.1258792E+04  0.7818608E-02  0.9062898E-01
          2   -1    0    0  501    0  0.00000000000E+00  0.00000000000E+00  0.16357146844E+04  0.16357146844E+04  0.25500000000E-02 0. -1.
         -2   -1    0    0    0  501 -0.00000000000E+00 -0.00000000000E+00 -0.10351286874E+04  0.10351286874E+04  0.25500000000E-02 0.  1.
    8880022    1    1    2    0    0  0.10808794272E+04 -0.62678869902E+03  0.63852962924E+03  0.14114801273E+04  0.15294330000E+03 0.  0.
    8880022    1    1    2    0    0 -0.10808794272E+04  0.62678869902E+03 -0.37943632248E+02  0.12593632445E+04  0.15294330000E+03 0.  0.
<mgrwt>
<rscale>  0 0.12587915E+04</rscale>
<asrwt>0</asrwt>
<pdfrwt beam="1">  1        2 0.25164841E+00 0.12587915E+04</pdfrwt>
<pdfrwt beam="2">  1       -2 0.15925057E+00 0.12587915E+04</pdfrwt>
<totfact> 0.26240036E+00</totfact>
</mgrwt>
</event>
<event>
 4    1  0.1726795E-008  0.4710948E+03  0.7818608E-02  0.1021612E+00
          2   -1    0    0  501    0  0.00000000000E+00  0.00000000000E+00  0.62635413766E+03  0.62635413767E+03  0.25500000000E-02 0. -1.
         -2   -1    0    0    0  501 -0.00000000000E+00 -0.00000000000E+00 -0.80535334473E+03  0.80535334473E+03  0.25500000000E-02 0.  1.
    8880022    1    1    2    0    0 -0.44556655837E+03  0.30184947620E+01 -0.62521606047E+03  0.78283168340E+03  0.15294330000E+03 0.  0.
    8880022    1    1    2    0    0  0.44556655837E+03 -0.30184947620E+01  0.44621685340E+03  0.64887579900E+03  0.15294330000E+03 0. -1.
<mgrwt>
<rscale>  0 0.47109481E+03</rscale>
<asrwt>0</asrwt>
<pdfrwt beam="1">  1        2 0.96362175E-01 0.47109481E+03</pdfrwt>
<pdfrwt beam="2">  1       -2 0.12390051E+00 0.47109481E+03</pdfrwt>
<totfact> 0.24102630E+01</totfact>
</mgrwt>
</event>
<event>
 4    1  0.1726795E-008  0.3936541E+03  0.7818608E-02  0.1045999E+00
          2   -1    0    0  501    0  0.00000000000E+00  0.00000000000E+00  0.12325602091E+04  0.12325602091E+04  0.25500000000E-02 0. -1.
         -2   -1    0    0    0  501 -0.00000000000E+00 -0.00000000000E+00 -0.14654215311E+03  0.14654215313E+03  0.25500000000E-02 0.  1.
    8880022    1    1    2    0    0  0.35986067078E+03  0.45521442798E+02  0.28311486429E+03  0.48488924872E+03  0.15294330000E+03 0.  0.
    8880022    1    1    2    0    0 -0.35986067078E+03 -0.45521442798E+02  0.80290319167E+03  0.89421311349E+03  0.15294330000E+03 0.  0.
<mgrwt>
<rscale>  0 0.39365411E+03</rscale>
<asrwt>0</asrwt>
<pdfrwt beam="1">  1        2 0.18962465E+00 0.39365411E+03</pdfrwt>
<pdfrwt beam="2">  1       -2 0.22544946E-01 0.39365411E+03</pdfrwt>
<totfact> 0.32424787E+02</totfact>
</mgrwt>
</event>
<event>
 4    1  0.1726795E-008  0.7272706E+03  0.7818608E-02  0.9671700E-01
          2   -1    0    0  501    0  0.00000000000E+00  0.00000000000E+00  0.91715063757E+03  0.91715063758E+03  0.25500000000E-02 0. -1.
         -2   -1    0    0    0  501 -0.00000000000E+00 -0.00000000000E+00 -0.63720018340E+03  0.63720018341E+03  0.25500000000E-02 0.  1.
    8880022    1    1    2    0    0 -0.63788121223E+03  0.31406764203E+03  0.37944592886E+03  0.82030591283E+03  0.15294330000E+03 0.  0.
    8880022    1    1    2    0    0  0.63788121223E+03 -0.31406764203E+03 -0.99495474692E+02  0.73404490815E+03  0.15294330000E+03 0.  1.
<mgrwt>
<rscale>  0 0.72727064E+03</rscale>
<asrwt>0</asrwt>
<pdfrwt beam="1">  1        2 0.14110010E+00 0.72727064E+03</pdfrwt>
<pdfrwt beam="2">  1       -2 0.98030798E-01 0.72727064E+03</pdfrwt>
<totfact> 0.25155181E+01</totfact>
</mgrwt>
</event>
<event>
 4    1  0.1726795E-008  0.7392395E+03  0.7818608E-02  0.9652385E-01
         -2   -1    0    0    0  501 -0.00000000000E+00  0.00000000000E+00  0.65519853151E+03  0.65519853151E+03  0.25500000000E-02 0.  1.
          2   -1    0    0  501    0  0.00000000000E+00 -0.00000000000E+00 -0.12838057958E+04  0.12838057958E+04  0.25500000000E-02 0. -1.
    8880022    1    1    2    0    0 -0.64843811460E+03  0.32033020010E+03  0.25952541943E+03  0.78347209389E+03  0.15294330000E+03 0.  0.
    8880022    1    1    2    0    0  0.64843811460E+03 -0.32033020010E+03 -0.88813268370E+03  0.11555322334E+04  0.15294330000E+03 0.  0.
<mgrwt>
<rscale>  0 0.73923953E+03</rscale>
<asrwt>0</asrwt>
<pdfrwt beam="1">  1        2 0.19750858E+00 0.73923953E+03</pdfrwt>
<pdfrwt beam="2">  1       -2 0.10079977E+00 0.73923953E+03</pdfrwt>
<totfact> 0.13996014E+01</totfact>
</mgrwt>
</event>
<event>
 4    1  0.1726795E-008  0.2597252E+03  0.7818608E-02  0.1107308E+00
         -2   -1    0    0    0  501 -0.00000000000E+00  0.00000000000E+00  0.78016439053E+02  0.78016439095E+02  0.25500000000E-02 0.  1.
          2   -1    0    0  501    0  0.00000000000E+00 -0.00000000000E+00 -0.22864588616E+04  0.22864588616E+04  0.25500000000E-02 0. -1.
    8880022    1    1    2    0    0  0.14661464524E+03  0.15023206706E+03 -0.20364943592E+04  0.20529896386E+04  0.15294330000E+03 0. -1.
    8880022    1    1    2    0    0 -0.14661464524E+03 -0.15023206706E+03 -0.17194806330E+03  0.31148566204E+03  0.15294330000E+03 0.  0.
<mgrwt>
<rscale>  0 0.25972520E+03</rscale>
<asrwt>0</asrwt>
<pdfrwt beam="1">  1        2 0.35176285E+00 0.25972520E+03</pdfrwt>
<pdfrwt beam="2">  1       -2 0.12002531E-01 0.25972520E+03</pdfrwt>
<totfact> 0.26027756E+02</totfact>
</mgrwt>
</event>
<event>
 4    1  0.1726795E-008  0.3697562E+03  0.7818608E-02  0.1054786E+00
         -2   -1    0    0    0  501 -0.00000000000E+00  0.00000000000E+00  0.35603009744E+03  0.35603009745E+03  0.25500000000E-02 0.  1.
          2   -1    0    0  501    0  0.00000000000E+00 -0.00000000000E+00 -0.61807454802E+03  0.61807454803E+03  0.25500000000E-02 0. -1.
    8880022    1    1    2    0    0  0.33617829813E+03 -0.17666776958E+02 -0.43074635633E+03  0.56768128351E+03  0.15294330000E+03 0.  0.
    8880022    1    1    2    0    0 -0.33617829813E+03  0.17666776958E+02  0.16870190575E+03  0.40642336197E+03  0.15294330000E+03 0.  0.
<mgrwt>
<rscale>  0 0.36975616E+03</rscale>
<asrwt>0</asrwt>
<pdfrwt beam="1">  1        2 0.95088392E-01 0.36975616E+03</pdfrwt>
<pdfrwt beam="2">  1       -2 0.54773861E-01 0.36975616E+03</pdfrwt>
<totfact> 0.15553206E+02</totfact>
</mgrwt>
</event>
<event>
 4    1  0.1726795E-008  0.1409996E+04  0.7818608E-02  0.8946615E-01
          2   -1    0    0  501    0  0.00000000000E+00  0.00000000000E+00  0.16412549334E+04  0.16412549334E+04  0.25500000000E-02 0. -1.
         -2   -1    0    0    0  501 -0.00000000000E+00 -0.00000000000E+00 -0.15740328104E+04  0.15740328104E+04  0.25500000000E-02 0.  1.
    8880022    1    1    2    0    0 -0.92386996885E+03  0.10541163389E+04  0.80533692539E+03  0.16237783691E+04  0.15294330000E+03 0.  0.
    8880022    1    1    2    0    0  0.92386996885E+03 -0.10541163389E+04 -0.73811480238E+03  0.15915093747E+04  0.15294330000E+03 0.  0.
<mgrwt>
<rscale>  0 0.14099960E+04</rscale>
<asrwt>0</asrwt>
<pdfrwt beam="1">  1        2 0.25250076E+00 0.14099960E+04</pdfrwt>
<pdfrwt beam="2">  1       -2 0.24215889E+00 0.14099960E+04</pdfrwt>
<totfact> 0.72020320E-01</totfact>
</mgrwt>
</event>
<event>
 4    1  0.1726795E-008  0.9163229E+03  0.7818608E-02  0.9405404E-01
          2   -1    0    0  501    0  0.00000000000E+00  0.00000000000E+00  0.24811878251E+04  0.24811878251E+04  0.25500000000E-02 0. -1.
         -2   -1    0    0    0  501 -0.00000000000E+00 -0.00000000000E+00 -0.57423390389E+03  0.57423390390E+03  0.25500000000E-02 0.  1.
    8880022    1    1    2    0    0 -0.26473466791E+03  0.86381223526E+03 -0.25550294489E+02  0.91667905656E+03  0.15294330000E+03 0.  0.
    8880022    1    1    2    0    0  0.26473466791E+03 -0.86381223526E+03  0.19325042157E+04  0.21387426724E+04  0.15294330000E+03 0.  0.
<mgrwt>
<rscale>  0 0.91632291E+03</rscale>
<asrwt>0</asrwt>
<pdfrwt beam="1">  1        2 0.38172120E+00 0.91632291E+03</pdfrwt>
<pdfrwt beam="2">  1       -2 0.88343677E-01 0.91632291E+03</pdfrwt>
<totfact> 0.40209208E+00</totfact>
</mgrwt>
</event>
<event>
 4    1  0.1726795E-008  0.7185093E+03  0.7818608E-02  0.9686092E-01
         -2   -1    0    0    0  501 -0.00000000000E+00  0.00000000000E+00  0.14275431478E+04  0.14275431478E+04  0.25500000000E-02 0.  1.
          2   -1    0    0  501    0  0.00000000000E+00 -0.00000000000E+00 -0.39144052653E+03  0.39144052654E+03  0.25500000000E-02 0. -1.
    8880022    1    1    2    0    0  0.29617506259E+03 -0.63650950238E+03  0.76899898314E+03  0.10524329449E+04  0.15294330000E+03 0.  0.
    8880022    1    1    2    0    0 -0.29617506259E+03  0.63650950238E+03  0.26710363808E+03  0.76655072944E+03  0.15294330000E+03 0.  0.
<mgrwt>
<rscale>  0 0.71850934E+03</rscale>
<asrwt>0</asrwt>
<pdfrwt beam="1">  1        2 0.60221620E-01 0.71850934E+03</pdfrwt>
<pdfrwt beam="2">  1       -2 0.21962202E+00 0.71850934E+03</pdfrwt>
<totfact> 0.83045973E+00</totfact>
</mgrwt>
</event>
<event>
 4    1  0.1726795E-008  0.6228229E+03  0.7818608E-02  0.9859155E-01
         -2   -1    0    0    0  501 -0.00000000000E+00  0.00000000000E+00  0.51905409226E+03  0.51905409227E+03  0.25500000000E-02 0.  1.
          2   -1    0    0  501    0  0.00000000000E+00 -0.00000000000E+00 -0.13693355825E+04  0.13693355825E+04  0.25500000000E-02 0. -1.
    8880022    1    1    2    0    0 -0.59117929590E+03  0.12257127752E+03  0.21121705276E+03  0.65766326822E+03  0.15294330000E+03 0.  0.
    8880022    1    1    2    0    0  0.59117929590E+03 -0.12257127752E+03 -0.10614985430E+04  0.12307264066E+04  0.15294330000E+03 0.  0.
<mgrwt>
<rscale>  0 0.62282287E+03</rscale>
<asrwt>0</asrwt>
<pdfrwt beam="1">  1        2 0.21066701E+00 0.62282287E+03</pdfrwt>
<pdfrwt beam="2">  1       -2 0.79854476E-01 0.62282287E+03</pdfrwt>
<totfact> 0.21719899E+01</totfact>
</mgrwt>
</event>
<event>
 4    1  0.1726795E-008  0.6341195E+03  0.7818608E-02  0.9837043E-01
         -2   -1    0    0    0  501 -0.00000000000E+00  0.00000000000E+00  0.29159810838E+03  0.29159810839E+03  0.25500000000E-02 0.  1.
          2   -1    0    0  501    0  0.00000000000E+00 -0.00000000000E+00 -0.23435346292E+04  0.23435346292E+04  0.25500000000E-02 0. -1.
    8880022    1    1    2    0    0  0.57631265110E+03  0.21582305146E+03 -0.18068830251E+03  0.65936012697E+03  0.15294330000E+03 0.  0.
    8880022    1    1    2    0    0 -0.57631265110E+03 -0.21582305146E+03 -0.18712482183E+04  0.19757726106E+04  0.15294330000E+03 0.  0.
<mgrwt>
<rscale>  0 0.63411948E+03</rscale>
<asrwt>0</asrwt>
<pdfrwt beam="1">  1        2 0.36054378E+00 0.63411948E+03</pdfrwt>
<pdfrwt beam="2">  1       -2 0.44861249E-01 0.63411948E+03</pdfrwt>
<totfact> 0.21415783E+01</totfact>
</mgrwt>
</event>
<event>
 4    1  0.1726795E-008  0.5329360E+03  0.7818608E-02  0.1005523E+00
         -2   -1    0    0    0  501 -0.00000000000E+00  0.00000000000E+00  0.24402182580E+03  0.24402182581E+03  0.25500000000E-02 0.  1.
          2   -1    0    0  501    0  0.00000000000E+00 -0.00000000000E+00 -0.23904664266E+04  0.23904664266E+04  0.25500000000E-02 0. -1.
    8880022    1    1    2    0    0 -0.40345261751E+03 -0.31281806977E+03 -0.20167783843E+04  0.20860047612E+04  0.15294330000E+03 0.  0.
    8880022    1    1    2    0    0  0.40345261751E+03  0.31281806977E+03 -0.12966621642E+03  0.54848349114E+03  0.15294330000E+03 0.  0.
<mgrwt>
<rscale>  0 0.53293603E+03</rscale>
<asrwt>0</asrwt>
<pdfrwt beam="1">  1        2 0.36776405E+00 0.53293603E+03</pdfrwt>
<pdfrwt beam="2">  1       -2 0.37541821E-01 0.53293603E+03</pdfrwt>
<totfact> 0.29108272E+01</totfact>
</mgrwt>
</event>
<event>
 4    1  0.1726795E-008  0.2619507E+03  0.7818608E-02  0.1105977E+00
          2   -1    0    0  501    0  0.00000000000E+00  0.00000000000E+00  0.76438325895E+03  0.76438325895E+03  0.25500000000E-02 0. -1.
         -2   -1    0    0    0  501 -0.00000000000E+00 -0.00000000000E+00 -0.56346380694E+03  0.56346380694E+03  0.25500000000E-02 0.  1.
    8880022    1    1    2    0    0  0.19101858436E+03  0.93479377238E+02  0.70920307107E+03  0.75603382369E+03  0.15294330000E+03 0.  0.
    8880022    1    1    2    0    0 -0.19101858436E+03 -0.93479377238E+02 -0.50828361906E+03  0.57181324220E+03  0.15294330000E+03 0.  0.
<mgrwt>
<rscale>  0 0.26195066E+03</rscale>
<asrwt>0</asrwt>
<pdfrwt beam="1">  1        2 0.11759742E+00 0.26195066E+03</pdfrwt>
<pdfrwt beam="2">  1       -2 0.86686739E-01 0.26195066E+03</pdfrwt>
<totfact> 0.45492251E+01</totfact>
</mgrwt>
</event>
<event>
 4    1  0.1726795E-008  0.4450528E+03  0.7818608E-02  0.1029208E+00
          2   -1    0    0  501    0  0.00000000000E+00  0.00000000000E+00  0.78448953027E+03  0.78448953028E+03  0.25500000000E-02 0. -1.
         -2   -1    0    0    0  501 -0.00000000000E+00 -0.00000000000E+00 -0.10374263171E+04  0.10374263171E+04  0.25500000000E-02 0.  1.
    8880022    1    1    2    0    0 -0.30563570869E+03 -0.28507389753E+03 -0.91885702722E+03  0.10209653290E+04  0.15294330000E+03 0.  0.
    8880022    1    1    2    0    0  0.30563570869E+03  0.28507389753E+03  0.66592024035E+03  0.80095051845E+03  0.15294330000E+03 0.  0.
<mgrwt>
<rscale>  0 0.44505277E+03</rscale>
<asrwt>0</asrwt>
<pdfrwt beam="1">  1        2 0.12069070E+00 0.44505277E+03</pdfrwt>
<pdfrwt beam="2">  1       -2 0.15960405E+00 0.44505277E+03</pdfrwt>
<totfact> 0.95386164E+00</totfact>
</mgrwt>
</event>
<event>
 4    1  0.1726795E-008  0.4911610E+03  0.7818608E-02  0.1016112E+00
          2   -1    0    0  501    0  0.00000000000E+00  0.00000000000E+00  0.15848075025E+04  0.15848075025E+04  0.25500000000E-02 0. -1.
         -2   -1    0    0    0  501 -0.00000000000E+00 -0.00000000000E+00 -0.92505542471E+03  0.92505542471E+03  0.25500000000E-02 0.  1.
    8880022    1    1    2    0    0 -0.32684585754E+03 -0.33319556064E+03 -0.81716692545E+03  0.95341540437E+03  0.15294330000E+03 0.  0.
    8880022    1    1    2    0    0  0.32684585754E+03  0.33319556064E+03  0.14769190033E+04  0.15564475229E+04  0.15294330000E+03 0.  0.
<mgrwt>
<rscale>  0 0.49116102E+03</rscale>
<asrwt>0</asrwt>
<pdfrwt beam="1">  1        2 0.24381653E+00 0.49116102E+03</pdfrwt>
<pdfrwt beam="2">  1       -2 0.14231622E+00 0.49116102E+03</pdfrwt>
<totfact> 0.42314774E+00</totfact>
</mgrwt>
</event>
<event>
 4    1  0.1726795E-008  0.8963530E+03  0.7818608E-02  0.9430152E-01
         -2   -1    0    0    0  501 -0.00000000000E+00  0.00000000000E+00  0.70614277924E+03  0.70614277924E+03  0.25500000000E-02 0.  1.
          2   -1    0    0  501    0  0.00000000000E+00 -0.00000000000E+00 -0.14523872393E+04  0.14523872393E+04  0.25500000000E-02 0. -1.
    8880022    1    1    2    0    0  0.12452372074E+03  0.87438596294E+03  0.12917184309E+03  0.90561249289E+03  0.15294330000E+03 0.  0.
    8880022    1    1    2    0    0 -0.12452372074E+03 -0.87438596294E+03 -0.87541630313E+03  0.12529175256E+04  0.15294330000E+03 0.  0.
<mgrwt>
<rscale>  0 0.89635296E+03</rscale>
<asrwt>0</asrwt>
<pdfrwt beam="1">  1        2 0.22344419E+00 0.89635296E+03</pdfrwt>
<pdfrwt beam="2">  1       -2 0.10863735E+00 0.89635296E+03</pdfrwt>
<totfact> 0.91975845E+00</totfact>
</mgrwt>
</event>
<event>
 4    1  0.1726795E-008  0.6746112E+03  0.7818608E-02  0.9761663E-01
          2   -1    0    0  501    0  0.00000000000E+00  0.00000000000E+00  0.90973488513E+03  0.90973488513E+03  0.25500000000E-02 0. -1.
         -2   -1    0    0    0  501 -0.00000000000E+00 -0.00000000000E+00 -0.21091982245E+04  0.21091982245E+04  0.25500000000E-02 0.  1.
    8880022    1    1    2    0    0 -0.65693610847E+03 -0.11983130565E+02 -0.19180947310E+04  0.20332701976E+04  0.15294330000E+03 0.  0.
    8880022    1    1    2    0    0  0.65693610847E+03  0.11983130565E+02  0.71863139170E+03  0.98566291205E+03  0.15294330000E+03 0.  0.
<mgrwt>
<rscale>  0 0.67461122E+03</rscale>
<asrwt>0</asrwt>
<pdfrwt beam="1">  1        2 0.13995921E+00 0.67461122E+03</pdfrwt>
<pdfrwt beam="2">  1       -2 0.32449203E+00 0.67461122E+03</pdfrwt>
<totfact> 0.69302394E-01</totfact>
</mgrwt>
</event>
<event>
 4    1  0.1726795E-008  0.8163527E+03  0.7818608E-02  0.9536644E-01
          2   -1    0    0  501    0  0.00000000000E+00  0.00000000000E+00  0.16884185668E+04  0.16884185668E+04  0.25500000000E-02 0. -1.
         -2   -1    0    0    0  501 -0.00000000000E+00 -0.00000000000E+00 -0.44606287454E+03  0.44606287455E+03  0.25500000000E-02 0.  1.
    8880022    1    1    2    0    0  0.21248250987E+03 -0.77323428494E+03  0.25905439347E+03  0.85647002761E+03  0.15294330000E+03 0.  0.
    8880022    1    1    2    0    0 -0.21248250987E+03  0.77323428494E+03  0.98330129879E+03  0.12780114137E+04  0.15294330000E+03 0.  0.
<mgrwt>
<rscale>  0 0.81635270E+03</rscale>
<asrwt>0</asrwt>
<pdfrwt beam="1">  1        2 0.25975671E+00 0.81635270E+03</pdfrwt>
<pdfrwt beam="2">  1       -2 0.68625056E-01 0.81635270E+03</pdfrwt>
<totfact> 0.19692015E+01</totfact>
</mgrwt>
</event>
<event>
 4    1  0.1726795E-008  0.6409167E+03  0.7818608E-02  0.9823974E-01
          2   -1    0    0  501    0  0.00000000000E+00  0.00000000000E+00  0.18987462450E+04  0.18987462450E+04  0.25500000000E-02 0. -1.
         -2   -1    0    0    0  501 -0.00000000000E+00 -0.00000000000E+00 -0.32486441425E+03  0.32486441426E+03  0.25500000000E-02 0.  1.
    8880022    1    1    2    0    0 -0.59844919697E+03  0.17100017667E+03  0.14433895403E+03  0.65696871192E+03  0.15294330000E+03 0.  0.
    8880022    1    1    2    0    0  0.59844919697E+03 -0.17100017667E+03  0.14295428767E+04  0.15666419474E+04  0.15294330000E+03 0.  0.
<mgrwt>
<rscale>  0 0.64091665E+03</rscale>
<asrwt>0</asrwt>
<pdfrwt beam="1">  1        2 0.29211480E+00 0.64091665E+03</pdfrwt>
<pdfrwt beam="2">  1       -2 0.49979141E-01 0.64091665E+03</pdfrwt>
<totfact> 0.30137873E+01</totfact>
</mgrwt>
</event>
<event>
 4    1  0.1726795E-008  0.8714834E+03  0.7818608E-02  0.9461948E-01
         -2   -1    0    0    0  501 -0.00000000000E+00  0.00000000000E+00  0.12201417783E+04  0.12201417783E+04  0.25500000000E-02 0.  1.
          2   -1    0    0  501    0  0.00000000000E+00 -0.00000000000E+00 -0.17234330941E+04  0.17234330941E+04  0.25500000000E-02 0. -1.
    8880022    1    1    2    0    0  0.79345835721E+03  0.32636708369E+03  0.92470615421E+03  0.12706552493E+04  0.15294330000E+03 0.  0.
    8880022    1    1    2    0    0 -0.79345835721E+03 -0.32636708369E+03 -0.14279974700E+04  0.16729196231E+04  0.15294330000E+03 0. -1.
<mgrwt>
<rscale>  0 0.87148339E+03</rscale>
<asrwt>0</asrwt>
<pdfrwt beam="1">  1        2 0.26514355E+00 0.87148339E+03</pdfrwt>
<pdfrwt beam="2">  1       -2 0.18771412E+00 0.87148339E+03</pdfrwt>
<totfact> 0.15495389E+00</totfact>
</mgrwt>
</event>
<event>
 4    1  0.1726795E-008  0.8389058E+03  0.7818608E-02  0.9505349E-01
          2   -1    0    0  501    0  0.00000000000E+00  0.00000000000E+00  0.10397645356E+04  0.10397645356E+04  0.25500000000E-02 0. -1.
         -2   -1    0    0    0  501 -0.00000000000E+00 -0.00000000000E+00 -0.83496617065E+03  0.83496617065E+03  0.25500000000E-02 0.  1.
    8880022    1    1    2    0    0  0.81596817432E+03 -0.12069449763E+03 -0.30551134321E+03  0.89280460186E+03  0.15294330000E+03 0.  0.
    8880022    1    1    2    0    0 -0.81596817432E+03  0.12069449763E+03  0.51030970817E+03  0.98192610441E+03  0.15294330000E+03 0.  0.
<mgrwt>
<rscale>  0 0.83890576E+03</rscale>
<asrwt>0</asrwt>
<pdfrwt beam="1">  1        2 0.15996377E+00 0.83890576E+03</pdfrwt>
<pdfrwt beam="2">  1       -2 0.12845633E+00 0.83890576E+03</pdfrwt>
<totfact> 0.10716941E+01</totfact>
</mgrwt>
</event>
<event>
 4    1  0.1726795E-008  0.5730878E+03  0.7818608E-02  0.9962869E-01
         -2   -1    0    0    0  501 -0.00000000000E+00  0.00000000000E+00  0.48683034928E+03  0.48683034928E+03  0.25500000000E-02 0.  1.
          2   -1    0    0  501    0  0.00000000000E+00 -0.00000000000E+00 -0.39260967535E+04  0.39260967535E+04  0.25500000000E-02 0. -1.
    8880022    1    1    2    0    0 -0.31793901653E+03 -0.45161133671E+03 -0.37275976167E+04  0.37713941272E+04  0.15294330000E+03 0.  0.
    8880022    1    1    2    0    0  0.31793901653E+03  0.45161133671E+03  0.28833121246E+03  0.64153297559E+03  0.15294330000E+03 0.  0.
<mgrwt>
<rscale>  0 0.57308784E+03</rscale>
<asrwt>0</asrwt>
<pdfrwt beam="1">  1        2 0.60401486E+00 0.57308784E+03</pdfrwt>
<pdfrwt beam="2">  1       -2 0.74896979E-01 0.57308784E+03</pdfrwt>
<totfact> 0.73402879E-01</totfact>
</mgrwt>
</event>
<event>
 4    1  0.1726795E-008  0.2392197E+03  0.7818608E-02  0.1120314E+00
         -2   -1    0    0    0  501 -0.00000000000E+00  0.00000000000E+00  0.20155938481E+03  0.20155938483E+03  0.25500000000E-02 0.  1.
          2   -1    0    0  501    0  0.00000000000E+00 -0.00000000000E+00 -0.75848619378E+03  0.75848619378E+03  0.25500000000E-02 0. -1.
    8880022    1    1    2    0    0 -0.18390450181E+03 -0.36775893837E+01 -0.65816113158E+03  0.70028716866E+03  0.15294330000E+03 0.  0.
    8880022    1    1    2    0    0  0.18390450181E+03  0.36775893837E+01  0.10123432262E+03  0.25975840995E+03  0.15294330000E+03 0.  1.
<mgrwt>
<rscale>  0 0.23921966E+03</rscale>
<asrwt>0</asrwt>
<pdfrwt beam="1">  1        2 0.11669018E+00 0.23921966E+03</pdfrwt>
<pdfrwt beam="2">  1       -2 0.31009136E-01 0.23921966E+03</pdfrwt>
<totfact> 0.36896412E+02</totfact>
</mgrwt>
</event>
<event>
 4    1  0.1726795E-008  0.3716792E+03  0.7818608E-02  0.1054053E+00
          2   -1    0    0  501    0  0.00000000000E+00  0.00000000000E+00  0.14144603486E+04  0.14144603486E+04  0.25500000000E-02 0. -1.
         -2   -1    0    0    0  501 -0.00000000000E+00 -0.00000000000E+00 -0.35135215412E+03  0.35135215413E+03  0.25500000000E-02 0.  1.
    8880022    1    1    2    0    0 -0.33864099204E+03 -0.87224787212E+01  0.12817785179E+04  0.13345791941E+04  0.15294330000E+03 0. -1.
    8880022    1    1    2    0    0  0.33864099204E+03  0.87224787212E+01 -0.21867032347E+03  0.43123330867E+03  0.15294330000E+03 0.  0.
<mgrwt>
<rscale>  0 0.37167924E+03</rscale>
<asrwt>0</asrwt>
<pdfrwt beam="1">  1        2 0.21760928E+00 0.37167924E+03</pdfrwt>
<pdfrwt beam="2">  1       -2 0.54054179E-01 0.37167924E+03</pdfrwt>
<totfact> 0.49325336E+01</totfact>
</mgrwt>
</event>
<event>
 4    1  0.1726795E-008  0.7674395E+03  0.7818608E-02  0.9608381E-01
          2   -1    0    0  501    0  0.00000000000E+00  0.00000000000E+00  0.19656364099E+04  0.19656364099E+04  0.25500000000E-02 0. -1.
         -2   -1    0    0    0  501 -0.00000000000E+00 -0.00000000000E+00 -0.94694997924E+03  0.94694997924E+03  0.25500000000E-02 0.  1.
    8880022    1    1    2    0    0 -0.97573193652E+02 -0.74568842428E+03  0.17133941125E+04  0.18774138574E+04  0.15294330000E+03 0.  0.
    8880022    1    1    2    0    0  0.97573193652E+02  0.74568842428E+03 -0.69470768185E+03  0.10351725317E+04  0.15294330000E+03 0.  0.
<mgrwt>
<rscale>  0 0.76743951E+03</rscale>
<asrwt>0</asrwt>
<pdfrwt beam="1">  1        2 0.30240560E+00 0.76743951E+03</pdfrwt>
<pdfrwt beam="2">  1       -2 0.14568461E+00 0.76743951E+03</pdfrwt>
<totfact> 0.23355458E+00</totfact>
</mgrwt>
</event>
<event>
 4    1  0.1726795E-008  0.7400044E+03  0.7818608E-02  0.9651164E-01
          2   -1    0    0  501    0  0.00000000000E+00  0.00000000000E+00  0.24350968561E+04  0.24350968561E+04  0.25500000000E-02 0. -1.
         -2   -1    0    0    0  501 -0.00000000000E+00 -0.00000000000E+00 -0.26280575806E+03  0.26280575807E+03  0.25500000000E-02 0.  1.
    8880022    1    1    2    0    0  0.70631643134E+03  0.15916027300E+03  0.15985835736E+04  0.17615549916E+04  0.15294330000E+03 0.  0.
    8880022    1    1    2    0    0 -0.70631643134E+03 -0.15916027300E+03  0.57370752445E+03  0.93634762257E+03  0.15294330000E+03 0.  0.
<mgrwt>
<rscale>  0 0.74000442E+03</rscale>
<asrwt>0</asrwt>
<pdfrwt beam="1">  1        2 0.37463027E+00 0.74000442E+03</pdfrwt>
<pdfrwt beam="2">  1       -2 0.40431657E-01 0.74000442E+03</pdfrwt>
<totfact> 0.22966023E+01</totfact>
</mgrwt>
</event>
<event>
 4    1  0.1726795E-008  0.6629714E+03  0.7818608E-02  0.9782739E-01
          2   -1    0    0  501    0  0.00000000000E+00  0.00000000000E+00  0.31807658563E+04  0.31807658563E+04  0.25500000000E-02 0. -1.
         -2   -1    0    0    0  501 -0.00000000000E+00 -0.00000000000E+00 -0.33248502985E+03  0.33248502986E+03  0.25500000000E-02 0.  1.
    8880022    1    1    2    0    0  0.60042775822E+03 -0.23585137705E+03  0.27670001358E+04  0.28453155834E+04  0.15294330000E+03 0. -1.
    8880022    1    1    2    0    0 -0.60042775822E+03  0.23585137705E+03  0.81280690632E+02  0.66793530269E+03  0.15294330000E+03 0.  0.
<mgrwt>
<rscale>  0 0.66297136E+03</rscale>
<asrwt>0</asrwt>
<pdfrwt beam="1">  1        2 0.48934857E+00 0.66297136E+03</pdfrwt>
<pdfrwt beam="2">  1       -2 0.51151545E-01 0.66297136E+03</pdfrwt>
<totfact> 0.52646992E+00</totfact>
</mgrwt>
</event>
<event>
 4    1  0.1726795E-008  0.1990476E+04  0.7818608E-02  0.8611087E-01
         -2   -1    0    0    0  501 -0.00000000000E+00  0.00000000000E+00  0.11806338734E+04  0.11806338734E+04  0.25500000000E-02 0.  1.
          2   -1    0    0  501    0  0.00000000000E+00 -0.00000000000E+00 -0.48281855621E+04  0.48281855621E+04  0.25500000000E-02 0. -1.
    8880022    1    1    2    0    0  0.19445398757E+04  0.39669471221E+03 -0.34828856995E+04  0.40115441505E+04  0.15294330000E+03 0.  0.
    8880022    1    1    2    0    0 -0.19445398757E+04 -0.39669471221E+03 -0.16466598924E+03  0.19972752849E+04  0.15294330000E+03 0.  0.
<mgrwt>
<rscale>  0 0.19904757E+04</rscale>
<asrwt>0</asrwt>
<pdfrwt beam="1">  1        2 0.74279777E+00 0.19904757E+04</pdfrwt>
<pdfrwt beam="2">  1       -2 0.18163598E+00 0.19904757E+04</pdfrwt>
<totfact> 0.88663170E-03</totfact>
</mgrwt>
</event>
<event>
 4    1  0.1726795E-008  0.5100642E+03  0.7818608E-02  0.1011185E+00
         -2   -1    0    0    0  501 -0.00000000000E+00  0.00000000000E+00  0.19378307816E+03  0.19378307817E+03  0.25500000000E-02 0.  1.
          2   -1    0    0  501    0  0.00000000000E+00 -0.00000000000E+00 -0.23537274415E+04  0.23537274415E+04  0.25500000000E-02 0. -1.
    8880022    1    1    2    0    0  0.11919589107E+02  0.48644806808E+03 -0.24510114281E+03  0.56589753734E+03  0.15294330000E+03 0.  0.
    8880022    1    1    2    0    0 -0.11919589107E+02 -0.48644806808E+03 -0.19148432206E+04  0.19816129824E+04  0.15294330000E+03 0.  0.
<mgrwt>
<rscale>  0 0.51006417E+03</rscale>
<asrwt>0</asrwt>
<pdfrwt beam="1">  1        2 0.36211189E+00 0.51006417E+03</pdfrwt>
<pdfrwt beam="2">  1       -2 0.29812783E-01 0.51006417E+03</pdfrwt>
<totfact> 0.47251137E+01</totfact>
</mgrwt>
</event>
<event>
 4    1  0.1726795E-008  0.2096128E+03  0.7818608E-02  0.1141873E+00
          2   -1    0    0  501    0  0.00000000000E+00  0.00000000000E+00  0.44813806163E+03  0.44813806164E+03  0.25500000000E-02 0. -1.
         -2   -1    0    0    0  501 -0.00000000000E+00 -0.00000000000E+00 -0.44169334507E+03  0.44169334508E+03  0.25500000000E-02 0.  1.
    8880022    1    1    2    0    0 -0.18927320448E+02 -0.14208324558E+03 -0.38921888962E+03  0.44207339797E+03  0.15294330000E+03 0.  0.
    8880022    1    1    2    0    0  0.18927320448E+02  0.14208324558E+03  0.39566360618E+03  0.44775800876E+03  0.15294330000E+03 0. -1.
<mgrwt>
<rscale>  0 0.20961285E+03</rscale>
<asrwt>0</asrwt>
<pdfrwt beam="1">  1        2 0.68944317E-01 0.20961285E+03</pdfrwt>
<pdfrwt beam="2">  1       -2 0.67952823E-01 0.20961285E+03</pdfrwt>
<totfact> 0.14553476E+02</totfact>
</mgrwt>
</event>
<event>
 4    1  0.1726795E-008  0.1271180E+04  0.7818608E-02  0.9052737E-01
         -2   -1    0    0    0  501 -0.00000000000E+00  0.00000000000E+00  0.85327801261E+03  0.85327801261E+03  0.25500000000E-02 0.  1.
          2   -1    0    0  501    0  0.00000000000E+00 -0.00000000000E+00 -0.23255678941E+04  0.23255678941E+04  0.25500000000E-02 0. -1.
    8880022    1    1    2    0    0 -0.51455111000E+03  0.11522781161E+04 -0.51251732723E+02  0.12722130698E+04  0.15294330000E+03 0.  0.
    8880022    1    1    2    0    0  0.51455111000E+03 -0.11522781161E+04 -0.14210381488E+04  0.19066328370E+04  0.15294330000E+03 0.  0.
<mgrwt>
<rscale>  0 0.12711803E+04</rscale>
<asrwt>0</asrwt>
<pdfrwt beam="1">  1        2 0.35777967E+00 0.12711803E+04</pdfrwt>
<pdfrwt beam="2">  1       -2 0.13127354E+00 0.12711803E+04</pdfrwt>
<totfact> 0.18011781E+00</totfact>
</mgrwt>
</event>
<event>
 4    1  0.1726795E-008  0.8883594E+03  0.7818608E-02  0.9440251E-01
          2   -1    0    0  501    0  0.00000000000E+00  0.00000000000E+00  0.12496061374E+04  0.12496061374E+04  0.25500000000E-02 0. -1.
         -2   -1    0    0    0  501 -0.00000000000E+00 -0.00000000000E+00 -0.11118929905E+04  0.11118929905E+04  0.25500000000E-02 0.  1.
    8880022    1    1    2    0    0  0.42799720019E+03  0.76328835411E+03 -0.70721957717E+03  0.11354919191E+04  0.15294330000E+03 0.  0.
    8880022    1    1    2    0    0 -0.42799720019E+03 -0.76328835411E+03  0.84493272410E+03  0.12260072089E+04  0.15294330000E+03 0.  0.
<mgrwt>
<rscale>  0 0.88835937E+03</rscale>
<asrwt>0</asrwt>
<pdfrwt beam="1">  1        2 0.19224710E+00 0.88835937E+03</pdfrwt>
<pdfrwt beam="2">  1       -2 0.17106046E+00 0.88835937E+03</pdfrwt>
<totfact> 0.37240823E+00</totfact>
</mgrwt>
</event>
<event>
 4    1  0.1726795E-008  0.4908322E+03  0.7818608E-02  0.1016200E+00
         -2   -1    0    0    0  501 -0.00000000000E+00  0.00000000000E+00  0.38582143527E+03  0.38582143528E+03  0.25500000000E-02 0.  1.
          2   -1    0    0  501    0  0.00000000000E+00 -0.00000000000E+00 -0.14172834850E+04  0.14172834850E+04  0.25500000000E-02 0. -1.
    8880022    1    1    2    0    0  0.12449209562E+03 -0.44947342152E+03  0.15858062355E+03  0.51581402240E+03  0.15294330000E+03 0.  0.
    8880022    1    1    2    0    0 -0.12449209562E+03  0.44947342152E+03 -0.11900426733E+04  0.12872908979E+04  0.15294330000E+03 0.  0.
<mgrwt>
<rscale>  0 0.49083224E+03</rscale>
<asrwt>0</asrwt>
<pdfrwt beam="1">  1        2 0.21804361E+00 0.49083224E+03</pdfrwt>
<pdfrwt beam="2">  1       -2 0.59357145E-01 0.49083224E+03</pdfrwt>
<totfact> 0.39608627E+01</totfact>
</mgrwt>
</event>
<event>
 4    1  0.1726795E-008  0.8089692E+03  0.7818608E-02  0.9547124E-01
          2   -1    0    0  501    0  0.00000000000E+00  0.00000000000E+00  0.27828128105E+04  0.27828128105E+04  0.25500000000E-02 0. -1.
         -2   -1    0    0    0  501 -0.00000000000E+00 -0.00000000000E+00 -0.47561281165E+03  0.47561281165E+03  0.25500000000E-02 0.  1.
    8880022    1    1    2    0    0 -0.55189309694E+03  0.57136116081E+03  0.23119981996E+04  0.24494421599E+04  0.15294330000E+03 0.  0.
    8880022    1    1    2    0    0  0.55189309694E+03 -0.57136116081E+03 -0.47982007386E+01  0.80898346230E+03  0.15294330000E+03 0.  0.
<mgrwt>
<rscale>  0 0.80896923E+03</rscale>
<asrwt>0</asrwt>
<pdfrwt beam="1">  1        2 0.42812505E+00 0.80896923E+03</pdfrwt>
<pdfrwt beam="2">  1       -2 0.73171202E-01 0.80896923E+03</pdfrwt>
<totfact> 0.41847912E+00</totfact>
</mgrwt>
</event>
<event>
 4    1  0.1726795E-008  0.2171103E+03  0.7818608E-02  0.1136056E+00
         -2   -1    0    0    0  501 -0.00000000000E+00  0.00000000000E+00  0.36163596443E+02  0.36163596532E+02  0.25500000000E-02 0.  1.
          2   -1    0    0  501    0  0.00000000000E+00 -0.00000000000E+00 -0.20563429743E+04  0.20563429743E+04  0.25500000000E-02 0. -1.
    8880022    1    1    2    0    0 -0.14915632505E+03 -0.38699145904E+02 -0.37700749817E+03  0.43505349084E+03  0.15294330000E+03 0.  1.
    8880022    1    1    2    0    0  0.14915632505E+03  0.38699145904E+02 -0.16431718797E+04  0.16574530800E+04  0.15294330000E+03 0. -1.
<mgrwt>
<rscale>  0 0.21711031E+03</rscale>
<asrwt>0</asrwt>
<pdfrwt beam="1">  1        2 0.31636037E+00 0.21711031E+03</pdfrwt>
<pdfrwt beam="2">  1       -2 0.55636318E-02 0.21711031E+03</pdfrwt>
<totfact> 0.11611130E+03</totfact>
</mgrwt>
</event>
<event>
 4    1  0.1726795E-008  0.1131769E+04  0.7818608E-02  0.9174769E-01
          2   -1    0    0  501    0  0.00000000000E+00  0.00000000000E+00  0.14169201801E+04  0.14169201801E+04  0.25500000000E-02 0. -1.
         -2   -1    0    0    0  501 -0.00000000000E+00 -0.00000000000E+00 -0.10564306400E+04  0.10564306400E+04  0.25500000000E-02 0.  1.
    8880022    1    1    2    0    0 -0.61141279121E+03 -0.94004475021E+03  0.64999369379E+03  0.13051410608E+04  0.15294330000E+03 0.  0.
    8880022    1    1    2    0    0  0.61141279121E+03  0.94004475021E+03 -0.28950415377E+03  0.11682097593E+04  0.15294330000E+03 0.  0.
<mgrwt>
<rscale>  0 0.11317691E+04</rscale>
<asrwt>0</asrwt>
<pdfrwt beam="1">  1        2 0.21798772E+00 0.11317691E+04</pdfrwt>
<pdfrwt beam="2">  1       -2 0.16252779E+00 0.11317691E+04</pdfrwt>
<totfact> 0.33397581E+00</totfact>
</mgrwt>
</event>
<event>
 4    1  0.1726795E-008  0.1227935E+04  0.7818608E-02  0.9088750E-01
          2   -1    0    0  501    0  0.00000000000E+00  0.00000000000E+00  0.23808256998E+04  0.23808256998E+04  0.25500000000E-02 0. -1.
         -2   -1    0    0    0  501 -0.00000000000E+00 -0.00000000000E+00 -0.80967101446E+03  0.80967101446E+03  0.25500000000E-02 0.  1.
    8880022    1    1    2    0    0  0.54301203205E+03  0.10906746574E+04  0.41080626870E+02  0.12286222146E+04  0.15294330000E+03 0.  0.
    8880022    1    1    2    0    0 -0.54301203205E+03 -0.10906746574E+04  0.15300740585E+04  0.19618744997E+04  0.15294330000E+03 0.  0.
<mgrwt>
<rscale>  0 0.12279352E+04</rscale>
<asrwt>0</asrwt>
<pdfrwt beam="1">  1        2 0.36628087E+00 0.12279352E+04</pdfrwt>
<pdfrwt beam="2">  1       -2 0.12456477E+00 0.12279352E+04</pdfrwt>
<totfact> 0.19242664E+00</totfact>
</mgrwt>
</event>
<event>
 4    1  0.1726795E-008  0.1269770E+04  0.7818608E-02  0.9053888E-01
          2   -1    0    0  501    0  0.00000000000E+00  0.00000000000E+00  0.85182456479E+03  0.85182456480E+03  0.25500000000E-02 0. -1.
         -2   -1    0    0    0  501 -0.00000000000E+00 -0.00000000000E+00 -0.25102386133E+04  0.25102386133E+04  0.25500000000E-02 0.  1.
    8880022    1    1    2    0    0 -0.95122079677E+03  0.82710455662E+03 -0.16629325161E+04  0.20922856301E+04  0.15294330000E+03 0.  0.
    8880022    1    1    2    0    0  0.95122079677E+03 -0.82710455662E+03  0.45184676186E+01  0.12697775480E+04  0.15294330000E+03 0.  0.
<mgrwt>
<rscale>  0 0.12697695E+04</rscale>
<asrwt>0</asrwt>
<pdfrwt beam="1">  1        2 0.13104993E+00 0.12697695E+04</pdfrwt>
<pdfrwt beam="2">  1       -2 0.38619055E+00 0.12697695E+04</pdfrwt>
<totfact> 0.28263273E-01</totfact>
</mgrwt>
</event>
<event>
 4    1  0.1726795E-008  0.1362717E+04  0.7818608E-02  0.8981257E-01
         -2   -1    0    0    0  501 -0.00000000000E+00  0.00000000000E+00  0.65305870460E+03  0.65305870460E+03  0.25500000000E-02 0.  1.
          2   -1    0    0  501    0  0.00000000000E+00 -0.00000000000E+00 -0.30432933199E+04  0.30432933199E+04  0.25500000000E-02 0. -1.
    8880022    1    1    2    0    0 -0.10347935665E+04 -0.87338858743E+03 -0.16686184153E+04  0.21543640405E+04  0.15294330000E+03 0.  0.
    8880022    1    1    2    0    0  0.10347935665E+04  0.87338858743E+03 -0.72161619997E+03  0.15419879840E+04  0.15294330000E+03 0.  0.
<mgrwt>
<rscale>  0 0.13627168E+04</rscale>
<asrwt>0</asrwt>
<pdfrwt beam="1">  1        2 0.46819897E+00 0.13627168E+04</pdfrwt>
<pdfrwt beam="2">  1       -2 0.10047057E+00 0.13627168E+04</pdfrwt>
<totfact> 0.12975835E+00</totfact>
</mgrwt>
</event>
<event>
 4    1  0.1726795E-008  0.1879106E+04  0.7818608E-02  0.8665327E-01
         -2   -1    0    0    0  501 -0.00000000000E+00  0.00000000000E+00  0.14438016493E+04  0.14438016493E+04  0.25500000000E-02 0.  1.
          2   -1    0    0  501    0  0.00000000000E+00 -0.00000000000E+00 -0.34286867566E+04  0.34286867566E+04  0.25500000000E-02 0. -1.
    8880022    1    1    2    0    0 -0.18674427061E+04  0.14250256894E+03  0.31204716687E+03  0.19048397124E+04  0.15294330000E+03 0.  0.
    8880022    1    1    2    0    0  0.18674427061E+04 -0.14250256894E+03 -0.22969322741E+04  0.29676486934E+04  0.15294330000E+03 0.  0.
<mgrwt>
<rscale>  0 0.18791064E+04</rscale>
<asrwt>0</asrwt>
<pdfrwt beam="1">  1        2 0.52749027E+00 0.18791064E+04</pdfrwt>
<pdfrwt beam="2">  1       -2 0.22212333E+00 0.18791064E+04</pdfrwt>
<totfact> 0.78795531E-02</totfact>
</mgrwt>
</event>
<event>
 4    1  0.1726795E-008  0.6399013E+03  0.7818608E-02  0.9825915E-01
          2   -1    0    0  501    0  0.00000000000E+00  0.00000000000E+00  0.12308411628E+04  0.12308411628E+04  0.25500000000E-02 0. -1.
         -2   -1    0    0    0  501 -0.00000000000E+00 -0.00000000000E+00 -0.54144209875E+03  0.54144209876E+03  0.25500000000E-02 0.  1.
    8880022    1    1    2    0    0 -0.56694743967E+03 -0.25426886329E+03  0.89494325355E+03  0.11001805008E+04  0.15294330000E+03 0.  0.
    8880022    1    1    2    0    0  0.56694743967E+03  0.25426886329E+03 -0.20554418951E+03  0.67210276078E+03  0.15294330000E+03 0.  0.
<mgrwt>
<rscale>  0 0.63990133E+03</rscale>
<asrwt>0</asrwt>
<pdfrwt beam="1">  1        2 0.18936018E+00 0.63990133E+03</pdfrwt>
<pdfrwt beam="2">  1       -2 0.83298784E-01 0.63990133E+03</pdfrwt>
<totfact> 0.23658254E+01</totfact>
</mgrwt>
</event>
<event>
 4    1  0.1726795E-008  0.8536288E+03  0.7818608E-02  0.9485479E-01
          2   -1    0    0  501    0  0.00000000000E+00  0.00000000000E+00  0.90838271891E+03  0.90838271891E+03  0.25500000000E-02 0. -1.
         -2   -1    0    0    0  501 -0.00000000000E+00 -0.00000000000E+00 -0.87820077352E+03  0.87820077352E+03  0.25500000000E-02 0.  1.
    8880022    1    1    2    0    0  0.83170723131E+03 -0.11641975623E+03  0.27792169821E+03  0.89773192079E+03  0.15294330000E+03 0.  0.
    8880022    1    1    2    0    0 -0.83170723131E+03  0.11641975623E+03 -0.24773975282E+03  0.88885157164E+03  0.15294330000E+03 0.  0.
<mgrwt>
<rscale>  0 0.85362880E+03</rscale>
<asrwt>0</asrwt>
<pdfrwt beam="1">  1        2 0.13975119E+00 0.85362880E+03</pdfrwt>
<pdfrwt beam="2">  1       -2 0.13510781E+00 0.85362880E+03</pdfrwt>
<totfact> 0.11455249E+01</totfact>
</mgrwt>
</event>
<event>
 4    1  0.2076179E-008  0.6756278E+03  0.7818608E-02  0.9759844E-01
          2   -1    0    0  501    0  0.00000000000E+00  0.00000000000E+00  0.26202434246E+04  0.26202434246E+04  0.25500000000E-02 0. -1.
         -2   -1    0    0    0  501 -0.00000000000E+00 -0.00000000000E+00 -0.12172212333E+04  0.12172212333E+04  0.25500000000E-02 0.  1.
    8880022    1    1    2    0    0 -0.37979866880E+03 -0.53743297620E+03  0.24776384546E+04  0.25681053711E+04  0.15294330000E+03 0.  0.
    8880022    1    1    2    0    0  0.37979866880E+03  0.53743297620E+03 -0.10746162632E+04  0.12693592868E+04  0.15294330000E+03 0.  0.
<mgrwt>
<rscale>  0 0.67562777E+03</rscale>
<asrwt>0</asrwt>
<pdfrwt beam="1">  1        2 0.40311437E+00 0.67562777E+03</pdfrwt>
<pdfrwt beam="2">  1       -2 0.18726481E+00 0.67562777E+03</pdfrwt>
<totfact> 0.51719706E-01</totfact>
</mgrwt>
</event>
<event>
 4    1  0.1726795E-008  0.8876494E+03  0.7818608E-02  0.9441153E-01
         -2   -1    0    0    0  501 -0.00000000000E+00  0.00000000000E+00  0.37784987134E+04  0.37784987134E+04  0.25500000000E-02 0.  1.
          2   -1    0    0  501    0  0.00000000000E+00 -0.00000000000E+00 -0.89368529953E+03  0.89368529954E+03  0.25500000000E-02 0. -1.
    8880022    1    1    2    0    0  0.60495500007E+02 -0.87227865137E+03 -0.60306226572E+03  0.10731288369E+04  0.15294330000E+03 0.  0.
    8880022    1    1    2    0    0 -0.60495500007E+02  0.87227865137E+03  0.34878756796E+04  0.35990551761E+04  0.15294330000E+03 0.  0.
<mgrwt>
<rscale>  0 0.88764937E+03</rscale>
<asrwt>0</asrwt>
<pdfrwt beam="1">  1        2 0.13749005E+00 0.88764937E+03</pdfrwt>
<pdfrwt beam="2">  1       -2 0.58130748E+00 0.88764937E+03</pdfrwt>
<totfact> 0.17993922E-02</totfact>
</mgrwt>
</event>
<event>
 4    1  0.1726795E-008  0.4776765E+03  0.7818608E-02  0.1019776E+00
          2   -1    0    0  501    0  0.00000000000E+00  0.00000000000E+00  0.27170986165E+04  0.27170986165E+04  0.25500000000E-02 0. -1.
         -2   -1    0    0    0  501 -0.00000000000E+00 -0.00000000000E+00 -0.21560253182E+03  0.21560253184E+03  0.25500000000E-02 0.  1.
    8880022    1    1    2    0    0 -0.45239486780E+03 -0.11049625000E+02  0.10502327019E+03  0.48908562739E+03  0.15294330000E+03 0.  0.
    8880022    1    1    2    0    0  0.45239486780E+03  0.11049625000E+02  0.23964728145E+04  0.24436155210E+04  0.15294330000E+03 0.  0.
<mgrwt>
<rscale>  0 0.47767653E+03</rscale>
<asrwt>0</asrwt>
<pdfrwt beam="1">  1        2 0.41801515E+00 0.47767653E+03</pdfrwt>
<pdfrwt beam="2">  1       -2 0.33169622E-01 0.47767653E+03</pdfrwt>
<totfact> 0.24382452E+01</totfact>
</mgrwt>
</event>
<event>
 4    1  0.1726795E-008  0.1026803E+04  0.7818608E-02  0.9279627E-01
          2   -1    0    0  501    0  0.00000000000E+00  0.00000000000E+00  0.32114741118E+04  0.32114741118E+04  0.25500000000E-02 0. -1.
         -2   -1    0    0    0  501 -0.00000000000E+00 -0.00000000000E+00 -0.64689553419E+03  0.64689553420E+03  0.25500000000E-02 0.  1.
    8880022    1    1    2    0    0 -0.41431436287E+03  0.92697135245E+03  0.26361601547E+04  0.28290748123E+04  0.15294330000E+03 0.  0.
    8880022    1    1    2    0    0  0.41431436287E+03 -0.92697135245E+03 -0.71581577035E+02  0.10292948337E+04  0.15294330000E+03 0.  0.
<mgrwt>
<rscale>  0 0.10268028E+04</rscale>
<asrwt>0</asrwt>
<pdfrwt beam="1">  1        2 0.49407294E+00 0.10268028E+04</pdfrwt>
<pdfrwt beam="2">  1       -2 0.99522390E-01 0.10268028E+04</pdfrwt>
<totfact> 0.10866570E+00</totfact>
</mgrwt>
</event>
<event>
 4    1  0.1726795E-008  0.5383852E+03  0.7818608E-02  0.1004219E+00
          2   -1    0    0  501    0  0.00000000000E+00  0.00000000000E+00  0.73266731158E+03  0.73266731158E+03  0.25500000000E-02 0. -1.
         -2   -1    0    0    0  501 -0.00000000000E+00 -0.00000000000E+00 -0.10325321126E+04  0.10325321126E+04  0.25500000000E-02 0.  1.
    8880022    1    1    2    0    0 -0.46661148091E+03 -0.22077288197E+03 -0.84312098568E+03  0.10003557312E+04  0.15294330000E+03 0.  0.
    8880022    1    1    2    0    0  0.46661148091E+03  0.22077288197E+03  0.54325618463E+03  0.76484369297E+03  0.15294330000E+03 0.  0.
<mgrwt>
<rscale>  0 0.53838517E+03</rscale>
<asrwt>0</asrwt>
<pdfrwt beam="1">  1        2 0.11271805E+00 0.53838517E+03</pdfrwt>
<pdfrwt beam="2">  1       -2 0.15885110E+00 0.53838517E+03</pdfrwt>
<totfact> 0.10373577E+01</totfact>
</mgrwt>
</event>
<event>
 4    1  0.1726795E-008  0.8235601E+03  0.7818608E-02  0.9526527E-01
          2   -1    0    0  501    0  0.00000000000E+00  0.00000000000E+00  0.17805560402E+04  0.17805560402E+04  0.25500000000E-02 0. -1.
         -2   -1    0    0    0  501 -0.00000000000E+00 -0.00000000000E+00 -0.70668036061E+03  0.70668036061E+03  0.25500000000E-02 0.  1.
    8880022    1    1    2    0    0  0.77233248159E+03 -0.24158237539E+03 -0.30741510201E+03  0.87906496015E+03  0.15294330000E+03 0.  0.
    8880022    1    1    2    0    0 -0.77233248159E+03  0.24158237539E+03  0.13812907816E+04  0.16081714407E+04  0.15294330000E+03 0.  0.
<mgrwt>
<rscale>  0 0.82356005E+03</rscale>
<asrwt>0</asrwt>
<pdfrwt beam="1">  1        2 0.27393170E+00 0.82356005E+03</pdfrwt>
<pdfrwt beam="2">  1       -2 0.10872006E+00 0.82356005E+03</pdfrwt>
<totfact> 0.60970147E+00</totfact>
</mgrwt>
</event>
<event>
 4    1  0.1726795E-008  0.7592692E+03  0.7818608E-02  0.9620920E-01
          2   -1    0    0  501    0  0.00000000000E+00  0.00000000000E+00  0.72934923168E+03  0.72934923168E+03  0.25500000000E-02 0. -1.
         -2   -1    0    0    0  501 -0.00000000000E+00 -0.00000000000E+00 -0.11829243217E+04  0.11829243217E+04  0.25500000000E-02 0.  1.
    8880022    1    1    2    0    0 -0.68050044041E+03 -0.30002867705E+03  0.32397661058E+03  0.82550018393E+03  0.15294330000E+03 0.  0.
    8880022    1    1    2    0    0  0.68050044041E+03  0.30002867705E+03 -0.77755170063E+03  0.10867733695E+04  0.15294330000E+03 0.  0.
<mgrwt>
<rscale>  0 0.75926919E+03</rscale>
<asrwt>0</asrwt>
<pdfrwt beam="1">  1        2 0.11220757E+00 0.75926919E+03</pdfrwt>
<pdfrwt beam="2">  1       -2 0.18198836E+00 0.75926919E+03</pdfrwt>
<totfact> 0.69505567E+00</totfact>
</mgrwt>
</event>
<event>
 4    1  0.1726795E-008  0.7294686E+03  0.7818608E-02  0.9668123E-01
         -2   -1    0    0    0  501 -0.00000000000E+00  0.00000000000E+00  0.11666781747E+04  0.11666781747E+04  0.25500000000E-02 0.  1.
          2   -1    0    0  501    0  0.00000000000E+00 -0.00000000000E+00 -0.13817915083E+04  0.13817915083E+04  0.25500000000E-02 0. -1.
    8880022    1    1    2    0    0  0.78935575919E+02  0.70887372515E+03 -0.11505003286E+04  0.13622684914E+04  0.15294330000E+03 0.  0.
    8880022    1    1    2    0    0 -0.78935575919E+02 -0.70887372515E+03  0.93538699509E+03  0.11862011916E+04  0.15294330000E+03 0.  0.
<mgrwt>
<rscale>  0 0.72946860E+03</rscale>
<asrwt>0</asrwt>
<pdfrwt beam="1">  1        2 0.21258331E+00 0.72946860E+03</pdfrwt>
<pdfrwt beam="2">  1       -2 0.17948895E+00 0.72946860E+03</pdfrwt>
<totfact> 0.27930331E+00</totfact>
</mgrwt>
</event>
<event>
 4    1  0.1726795E-008  0.7290030E+03  0.7818608E-02  0.9668880E-01
         -2   -1    0    0    0  501 -0.00000000000E+00  0.00000000000E+00  0.23644223180E+03  0.23644223181E+03  0.25500000000E-02 0.  1.
          2   -1    0    0  501    0  0.00000000000E+00 -0.00000000000E+00 -0.27728682280E+04  0.27728682280E+04  0.25500000000E-02 0. -1.
    8880022    1    1    2    0    0  0.70349779509E+03 -0.11464978925E+03 -0.61337812526E+03  0.95272141753E+03  0.15294330000E+03 0.  0.
    8880022    1    1    2    0    0 -0.70349779509E+03  0.11464978925E+03 -0.19230478710E+04  0.20565890423E+04  0.15294330000E+03 0.  0.
<mgrwt>
<rscale>  0 0.72900300E+03</rscale>
<asrwt>0</asrwt>
<pdfrwt beam="1">  1        2 0.42659509E+00 0.72900300E+03</pdfrwt>
<pdfrwt beam="2">  1       -2 0.36375730E-01 0.72900300E+03</pdfrwt>
<totfact> 0.18055869E+01</totfact>
</mgrwt>
</event>
<event>
 4    1  0.1726795E-008  0.7518291E+03  0.7818608E-02  0.9632485E-01
         -2   -1    0    0    0  501 -0.00000000000E+00  0.00000000000E+00  0.21378207058E+04  0.21378207058E+04  0.25500000000E-02 0.  1.
          2   -1    0    0  501    0  0.00000000000E+00 -0.00000000000E+00 -0.63996275134E+03  0.63996275135E+03  0.25500000000E-02 0. -1.
    8880022    1    1    2    0    0 -0.22936069413E+03 -0.69946342328E+03 -0.31504335270E+03  0.81516831122E+03  0.15294330000E+03 0.  0.
    8880022    1    1    2    0    0  0.22936069413E+03  0.69946342328E+03  0.18129013071E+04  0.19626151459E+04  0.15294330000E+03 0.  0.
<mgrwt>
<rscale>  0 0.75182914E+03</rscale>
<asrwt>0</asrwt>
<pdfrwt beam="1">  1        2 0.98455808E-01 0.75182914E+03</pdfrwt>
<pdfrwt beam="2">  1       -2 0.32889549E+00 0.75182914E+03</pdfrwt>
<totfact> 0.10146828E+00</totfact>
</mgrwt>
</event>
<event>
 4    1  0.1726795E-008  0.1372809E+04  0.7818608E-02  0.8973739E-01
         -2   -1    0    0    0  501 -0.00000000000E+00  0.00000000000E+00  0.17128622594E+04  0.17128622594E+04  0.25500000000E-02 0.  1.
          2   -1    0    0  501    0  0.00000000000E+00 -0.00000000000E+00 -0.13606361241E+04  0.13606361241E+04  0.25500000000E-02 0. -1.
    8880022    1    1    2    0    0 -0.13640976189E+04  0.21219093778E+02  0.84835796801E+03  0.16137891618E+04  0.15294330000E+03 0.  0.
    8880022    1    1    2    0    0  0.13640976189E+04 -0.21219093778E+02 -0.49613183271E+03  0.14597092218E+04  0.15294330000E+03 0.  0.
<mgrwt>
<rscale>  0 0.13728089E+04</rscale>
<asrwt>0</asrwt>
<pdfrwt beam="1">  1        2 0.20932863E+00 0.13728089E+04</pdfrwt>
<pdfrwt beam="2">  1       -2 0.26351727E+00 0.13728089E+04</pdfrwt>
<totfact> 0.77226091E-01</totfact>
</mgrwt>
</event>
<event>
 4    1  0.1726795E-008  0.7757748E+03  0.7818608E-02  0.9595760E-01
         -2   -1    0    0    0  501 -0.00000000000E+00  0.00000000000E+00  0.17202873326E+04  0.17202873326E+04  0.25500000000E-02 0.  1.
          2   -1    0    0  501    0  0.00000000000E+00 -0.00000000000E+00 -0.49589119401E+03  0.49589119402E+03  0.25500000000E-02 0. -1.
    8880022    1    1    2    0    0  0.70275947831E+03 -0.29079892173E+03  0.12135559986E+04  0.14403279877E+04  0.15294330000E+03 0.  0.
    8880022    1    1    2    0    0 -0.70275947831E+03  0.29079892173E+03  0.10840140026E+02  0.77585053901E+03  0.15294330000E+03 0.  0.
<mgrwt>
<rscale>  0 0.77577481E+03</rscale>
<asrwt>0</asrwt>
<pdfrwt beam="1">  1        2 0.76290952E-01 0.77577481E+03</pdfrwt>
<pdfrwt beam="2">  1       -2 0.26465959E+00 0.77577481E+03</pdfrwt>
<totfact> 0.33426192E+00</totfact>
</mgrwt>
</event>
<event>
 4    1  0.1726795E-008  0.4406058E+03  0.7818608E-02  0.1030561E+00
          2   -1    0    0  501    0  0.00000000000E+00  0.00000000000E+00  0.41849256957E+03  0.41849256958E+03  0.25500000000E-02 0. -1.
         -2   -1    0    0    0  501 -0.00000000000E+00 -0.00000000000E+00 -0.46580533650E+03  0.46580533650E+03  0.25500000000E-02 0.  1.
    8880022    1    1    2    0    0 -0.31691511342E+03  0.26515397872E+03  0.47144067349E+01  0.44063102500E+03  0.15294330000E+03 0.  0.
    8880022    1    1    2    0    0  0.31691511342E+03 -0.26515397872E+03 -0.52027173662E+02  0.44366688108E+03  0.15294330000E+03 0.  0.
<mgrwt>
<rscale>  0 0.44060580E+03</rscale>
<asrwt>0</asrwt>
<pdfrwt beam="1">  1        2 0.64383472E-01 0.44060580E+03</pdfrwt>
<pdfrwt beam="2">  1       -2 0.71662360E-01 0.44060580E+03</pdfrwt>
<totfact> 0.13706630E+02</totfact>
</mgrwt>
</event>
<event>
 4    1  0.1726795E-008  0.1390814E+04  0.7818608E-02  0.8960495E-01
         -2   -1    0    0    0  501 -0.00000000000E+00  0.00000000000E+00  0.84268863419E+03  0.84268863419E+03  0.25500000000E-02 0.  1.
          2   -1    0    0  501    0  0.00000000000E+00 -0.00000000000E+00 -0.28276420427E+04  0.28276420427E+04  0.25500000000E-02 0. -1.
    8880022    1    1    2    0    0  0.27048612444E+03  0.13556582843E+04 -0.17886183042E+04  0.22657270838E+04  0.15294330000E+03 0.  0.
    8880022    1    1    2    0    0 -0.27048612444E+03 -0.13556582843E+04 -0.19633510431E+03  0.14046035930E+04  0.15294330000E+03 0.  0.
<mgrwt>
<rscale>  0 0.13908141E+04</rscale>
<asrwt>0</asrwt>
<pdfrwt beam="1">  1        2 0.43502185E+00 0.13908141E+04</pdfrwt>
<pdfrwt beam="2">  1       -2 0.12964441E+00 0.13908141E+04</pdfrwt>
<totfact> 0.93517522E-01</totfact>
</mgrwt>
</event>
<event>
 4    1  0.1726795E-008  0.1090106E+04  0.7818608E-02  0.9214889E-01
          2   -1    0    0  501    0  0.00000000000E+00  0.00000000000E+00  0.90511751939E+03  0.90511751939E+03  0.25500000000E-02 0. -1.
         -2   -1    0    0    0  501 -0.00000000000E+00 -0.00000000000E+00 -0.13745305364E+04  0.13745305364E+04  0.25500000000E-02 0.  1.
    8880022    1    1    2    0    0  0.29396869654E+03 -0.10385194016E+04 -0.47605628012E+03  0.11895214907E+04  0.15294330000E+03 0.  0.
    8880022    1    1    2    0    0 -0.29396869654E+03  0.10385194016E+04  0.66432631177E+01  0.10901265651E+04  0.15294330000E+03 0.  0.
<mgrwt>
<rscale>  0 0.10901063E+04</rscale>
<asrwt>0</asrwt>
<pdfrwt beam="1">  1        2 0.13924885E+00 0.10901063E+04</pdfrwt>
<pdfrwt beam="2">  1       -2 0.21146624E+00 0.10901063E+04</pdfrwt>
<totfact> 0.32068301E+00</totfact>
</mgrwt>
</event>
<event>
 4    1  0.1726795E-008  0.8327602E+03  0.7818608E-02  0.9513772E-01
         -2   -1    0    0    0  501 -0.00000000000E+00  0.00000000000E+00  0.44670203857E+03  0.44670203858E+03  0.25500000000E-02 0.  1.
          2   -1    0    0  501    0  0.00000000000E+00 -0.00000000000E+00 -0.22699877669E+04  0.22699877669E+04  0.25500000000E-02 0. -1.
    8880022    1    1    2    0    0 -0.43117666828E+03 -0.69583370961E+03 -0.14795484573E+03  0.84580148976E+03  0.15294330000E+03 0.  0.
    8880022    1    1    2    0    0  0.43117666828E+03  0.69583370961E+03 -0.16753308826E+04  0.18708883157E+04  0.15294330000E+03 0.  0.
<mgrwt>
<rscale>  0 0.83276018E+03</rscale>
<asrwt>0</asrwt>
<pdfrwt beam="1">  1        2 0.34922888E+00 0.83276018E+03</pdfrwt>
<pdfrwt beam="2">  1       -2 0.68723392E-01 0.83276018E+03</pdfrwt>
<totfact> 0.93909928E+00</totfact>
</mgrwt>
</event>
<event>
 4    1  0.1726795E-008  0.7539455E+03  0.7818608E-02  0.9629181E-01
          2   -1    0    0  501    0  0.00000000000E+00  0.00000000000E+00  0.23454773301E+04  0.23454773301E+04  0.25500000000E-02 0. -1.
         -2   -1    0    0    0  501 -0.00000000000E+00 -0.00000000000E+00 -0.27373360105E+03  0.27373360107E+03  0.25500000000E-02 0.  1.
    8880022    1    1    2    0    0  0.44197360266E+03  0.59135563485E+03  0.59246128045E+03  0.95887651664E+03  0.15294330000E+03 0.  0.
    8880022    1    1    2    0    0 -0.44197360266E+03 -0.59135563485E+03  0.14792824486E+04  0.16603344145E+04  0.15294330000E+03 0.  0.
<mgrwt>
<rscale>  0 0.75394549E+03</rscale>
<asrwt>0</asrwt>
<pdfrwt beam="1">  1        2 0.36084268E+00 0.75394549E+03</pdfrwt>
<pdfrwt beam="2">  1       -2 0.42112860E-01 0.75394549E+03</pdfrwt>
<totfact> 0.23752080E+01</totfact>
</mgrwt>
</event>
<event>
 4    1  0.1726795E-008  0.7436441E+03  0.7818608E-02  0.9645375E-01
         -2   -1    0    0    0  501 -0.00000000000E+00  0.00000000000E+00  0.12325918588E+04  0.12325918588E+04  0.25500000000E-02 0.  1.
          2   -1    0    0  501    0  0.00000000000E+00 -0.00000000000E+00 -0.15210946767E+04  0.15210946767E+04  0.25500000000E-02 0. -1.
    8880022    1    1    2    0    0 -0.45782612798E+03  0.56569432593E+03 -0.13003454148E+04  0.14979668503E+04  0.15294330000E+03 0.  0.
    8880022    1    1    2    0    0  0.45782612798E+03 -0.56569432593E+03  0.10118425969E+04  0.12557196852E+04  0.15294330000E+03 0.  0.
<mgrwt>
<rscale>  0 0.74364406E+03</rscale>
<asrwt>0</asrwt>
<pdfrwt beam="1">  1        2 0.23401456E+00 0.74364406E+03</pdfrwt>
<pdfrwt beam="2">  1       -2 0.18962952E+00 0.74364406E+03</pdfrwt>
<totfact> 0.19876940E+00</totfact>
</mgrwt>
</event>
<event>
 4    1  0.1726795E-008  0.8093315E+03  0.7818608E-02  0.9546608E-01
         -2   -1    0    0    0  501 -0.00000000000E+00  0.00000000000E+00  0.15267143770E+04  0.15267143770E+04  0.25500000000E-02 0.  1.
          2   -1    0    0  501    0  0.00000000000E+00 -0.00000000000E+00 -0.11114985828E+04  0.11114985828E+04  0.25500000000E-02 0. -1.
    8880022    1    1    2    0    0 -0.78226147257E+03  0.14033092547E+03  0.12412362227E+04  0.14817843276E+04  0.15294330000E+03 0.  0.
    8880022    1    1    2    0    0  0.78226147257E+03 -0.14033092547E+03 -0.82602042846E+03  0.11564286322E+04  0.15294330000E+03 0.  0.
<mgrwt>
<rscale>  0 0.80933147E+03</rscale>
<asrwt>0</asrwt>
<pdfrwt beam="1">  1        2 0.17099978E+00 0.80933147E+03</pdfrwt>
<pdfrwt beam="2">  1       -2 0.23487914E+00 0.80933147E+03</pdfrwt>
<totfact> 0.17463083E+00</totfact>
</mgrwt>
</event>
<event>
 4    1  0.1726795E-008  0.1048213E+04  0.7818608E-02  0.9257191E-01
         -2   -1    0    0    0  501 -0.00000000000E+00  0.00000000000E+00  0.14554503409E+04  0.14554503409E+04  0.25500000000E-02 0.  1.
          2   -1    0    0  501    0  0.00000000000E+00 -0.00000000000E+00 -0.93264283261E+03  0.93264283261E+03  0.25500000000E-02 0. -1.
    8880022    1    1    2    0    0 -0.42509146594E+03  0.94586271129E+03 -0.25983108898E+03  0.10799365124E+04  0.15294330000E+03 0.  0.
    8880022    1    1    2    0    0  0.42509146594E+03 -0.94586271129E+03  0.78263859727E+03  0.13081566611E+04  0.15294330000E+03 0.  0.
<mgrwt>
<rscale>  0 0.10482131E+04</rscale>
<asrwt>0</asrwt>
<pdfrwt beam="1">  1        2 0.14348351E+00 0.10482131E+04</pdfrwt>
<pdfrwt beam="2">  1       -2 0.22391544E+00 0.10482131E+04</pdfrwt>
<totfact> 0.25735037E+00</totfact>
</mgrwt>
</event>
<event>
 4    1  0.1726795E-008  0.7154418E+03  0.7818608E-02  0.9691183E-01
          2   -1    0    0  501    0  0.00000000000E+00  0.00000000000E+00  0.99127476180E+03  0.99127476180E+03  0.25500000000E-02 0. -1.
         -2   -1    0    0    0  501 -0.00000000000E+00 -0.00000000000E+00 -0.80932217455E+03  0.80932217455E+03  0.25500000000E-02 0.  1.
    8880022    1    1    2    0    0  0.69843149024E+03 -0.25666203045E+02 -0.45068753323E+03  0.84556265656E+03  0.15294330000E+03 0.  0.
    8880022    1    1    2    0    0 -0.69843149024E+03  0.25666203045E+02  0.63264012048E+03  0.95503427980E+03  0.15294330000E+03 0.  0.
<mgrwt>
<rscale>  0 0.71544179E+03</rscale>
<asrwt>0</asrwt>
<pdfrwt beam="1">  1        2 0.15250381E+00 0.71544179E+03</pdfrwt>
<pdfrwt beam="2">  1       -2 0.12451110E+00 0.71544179E+03</pdfrwt>
<totfact> 0.12616488E+01</totfact>
</mgrwt>
</event>
<event>
 4    1  0.1726795E-008  0.8750452E+03  0.7818608E-02  0.9457325E-01
          2   -1    0    0  501    0  0.00000000000E+00  0.00000000000E+00  0.92607959711E+03  0.92607959711E+03  0.25500000000E-02 0. -1.
         -2   -1    0    0    0  501 -0.00000000000E+00 -0.00000000000E+00 -0.14727883794E+04  0.14727883794E+04  0.25500000000E-02 0.  1.
    8880022    1    1    2    0    0  0.85625560997E+03 -0.95596933157E+02  0.52099347046E+03  0.10183998687E+04  0.15294330000E+03 0.  0.
    8880022    1    1    2    0    0 -0.85625560997E+03  0.95596933157E+02 -0.10677022528E+04  0.13804681079E+04  0.15294330000E+03 0.  0.
<mgrwt>
<rscale>  0 0.87504520E+03</rscale>
<asrwt>0</asrwt>
<pdfrwt beam="1">  1        2 0.14247378E+00 0.87504520E+03</pdfrwt>
<pdfrwt beam="2">  1       -2 0.22658283E+00 0.87504520E+03</pdfrwt>
<totfact> 0.25542433E+00</totfact>
</mgrwt>
</event>
<event>
 4    1  0.1726795E-008  0.1436408E+04  0.7818608E-02  0.8927878E-01
         -2   -1    0    0    0  501 -0.00000000000E+00  0.00000000000E+00  0.16471229416E+04  0.16471229416E+04  0.25500000000E-02 0.  1.
          2   -1    0    0  501    0  0.00000000000E+00 -0.00000000000E+00 -0.16004861418E+04  0.16004861418E+04  0.25500000000E-02 0. -1.
    8880022    1    1    2    0    0  0.35829598249E+03 -0.13825697125E+04  0.78031836152E+03  0.16346753253E+04  0.15294330000E+03 0.  0.
    8880022    1    1    2    0    0 -0.35829598249E+03  0.13825697125E+04 -0.73368156168E+03  0.16129337581E+04  0.15294330000E+03 0.  0.
<mgrwt>
<rscale>  0 0.14364076E+04</rscale>
<asrwt>0</asrwt>
<pdfrwt beam="1">  1        2 0.24622864E+00 0.14364076E+04</pdfrwt>
<pdfrwt beam="2">  1       -2 0.25340353E+00 0.14364076E+04</pdfrwt>
<totfact> 0.64547387E-01</totfact>
</mgrwt>
</event>
<event>
 4    1  0.1726795E-008  0.5408273E+03  0.7818608E-02  0.1003640E+00
          2   -1    0    0  501    0  0.00000000000E+00  0.00000000000E+00  0.33912654660E+04  0.33912654660E+04  0.25500000000E-02 0. -1.
         -2   -1    0    0    0  501 -0.00000000000E+00 -0.00000000000E+00 -0.12479677314E+03  0.12479677316E+03  0.25500000000E-02 0.  1.
    8880022    1    1    2    0    0 -0.13828029112E+03 -0.49998103884E+03  0.26102984829E+04  0.26657367276E+04  0.15294330000E+03 0.  0.
    8880022    1    1    2    0    0  0.13828029112E+03  0.49998103884E+03  0.65617020993E+03  0.85032551151E+03  0.15294330000E+03 0.  0.
<mgrwt>
<rscale>  0 0.54082727E+03</rscale>
<asrwt>0</asrwt>
<pdfrwt beam="1">  1        2 0.52173319E+00 0.54082727E+03</pdfrwt>
<pdfrwt beam="2">  1       -2 0.19199502E-01 0.54082727E+03</pdfrwt>
<totfact> 0.24770799E+01</totfact>
</mgrwt>
</event>
<event>
 4    1  0.1726795E-008  0.6506215E+03  0.7818608E-02  0.9805614E-01
          2   -1    0    0  501    0  0.00000000000E+00  0.00000000000E+00  0.22635382681E+04  0.22635382681E+04  0.25500000000E-02 0. -1.
         -2   -1    0    0    0  501 -0.00000000000E+00 -0.00000000000E+00 -0.33530516319E+03  0.33530516320E+03  0.25500000000E-02 0.  1.
    8880022    1    1    2    0    0  0.42893697029E+03  0.46468244333E+03  0.99963104516E+02  0.65825600864E+03  0.15294330000E+03 0.  0.
    8880022    1    1    2    0    0 -0.42893697029E+03 -0.46468244333E+03  0.18282700004E+04  0.19405874226E+04  0.15294330000E+03 0. -1.
<mgrwt>
<rscale>  0 0.65062151E+03</rscale>
<asrwt>0</asrwt>
<pdfrwt beam="1">  1        2 0.34823665E+00 0.65062151E+03</pdfrwt>
<pdfrwt beam="2">  1       -2 0.51585410E-01 0.65062151E+03</pdfrwt>
<totfact> 0.17843430E+01</totfact>
</mgrwt>
</event>
<event>
 4    1  0.1726795E-008  0.9229347E+03  0.7818608E-02  0.9397357E-01
         -2   -1    0    0    0  501 -0.00000000000E+00  0.00000000000E+00  0.34039074881E+03  0.34039074882E+03  0.25500000000E-02 0.  1.
          2   -1    0    0  501    0  0.00000000000E+00 -0.00000000000E+00 -0.34334162012E+04  0.34334162012E+04  0.25500000000E-02 0. -1.
    8880022    1    1    2    0    0 -0.22640476152E+03 -0.88156548416E+03 -0.25290635650E+04  0.26922055991E+04  0.15294330000E+03 0.  0.
    8880022    1    1    2    0    0  0.22640476152E+03  0.88156548416E+03 -0.56396188738E+03  0.10816013509E+04  0.15294330000E+03 0.  0.
<mgrwt>
<rscale>  0 0.92293471E+03</rscale>
<asrwt>0</asrwt>
<pdfrwt beam="1">  1        2 0.52821785E+00 0.92293471E+03</pdfrwt>
<pdfrwt beam="2">  1       -2 0.52367810E-01 0.92293471E+03</pdfrwt>
<totfact> 0.32621649E+00</totfact>
</mgrwt>
</event>
<event>
 4    1  0.1726795E-008  0.8670926E+03  0.7818608E-02  0.9467679E-01
         -2   -1    0    0    0  501 -0.00000000000E+00  0.00000000000E+00  0.42386235423E+03  0.42386235424E+03  0.25500000000E-02 0.  1.
          2   -1    0    0  501    0  0.00000000000E+00 -0.00000000000E+00 -0.27523670051E+04  0.27523670051E+04  0.25500000000E-02 0. -1.
    8880022    1    1    2    0    0 -0.19986845124E+03 -0.82976537188E+03 -0.21731197566E+03  0.89390945735E+03  0.15294330000E+03 0.  0.
    8880022    1    1    2    0    0  0.19986845124E+03  0.82976537188E+03 -0.21111926753E+04  0.22823199020E+04  0.15294330000E+03 0.  0.
<mgrwt>
<rscale>  0 0.86709263E+03</rscale>
<asrwt>0</asrwt>
<pdfrwt beam="1">  1        2 0.42344107E+00 0.86709263E+03</pdfrwt>
<pdfrwt beam="2">  1       -2 0.65209594E-01 0.86709263E+03</pdfrwt>
<totfact> 0.55521221E+00</totfact>
</mgrwt>
</event>
<event>
 4    1  0.1726795E-008  0.1142499E+04  0.7818608E-02  0.9164731E-01
          2   -1    0    0  501    0  0.00000000000E+00  0.00000000000E+00  0.38995022069E+04  0.38995022069E+04  0.25500000000E-02 0. -1.
         -2   -1    0    0    0  501 -0.00000000000E+00 -0.00000000000E+00 -0.53381209040E+03  0.53381209041E+03  0.25500000000E-02 0.  1.
    8880022    1    1    2    0    0  0.78874792195E+03  0.81227465453E+03  0.30365172771E+04  0.32443400293E+04  0.15294330000E+03 0.  0.
    8880022    1    1    2    0    0 -0.78874792195E+03 -0.81227465453E+03  0.32917283944E+03  0.11889742680E+04  0.15294330000E+03 0.  0.
<mgrwt>
<rscale>  0 0.11424995E+04</rscale>
<asrwt>0</asrwt>
<pdfrwt beam="1">  1        2 0.59992342E+00 0.11424995E+04</pdfrwt>
<pdfrwt beam="2">  1       -2 0.82124937E-01 0.11424995E+04</pdfrwt>
<totfact> 0.54826118E-01</totfact>
</mgrwt>
</event>
<event>
 4    1  0.1726795E-008  0.1550413E+04  0.7818608E-02  0.8851604E-01
          2   -1    0    0  501    0  0.00000000000E+00  0.00000000000E+00  0.16052605596E+04  0.16052605596E+04  0.25500000000E-02 0. -1.
         -2   -1    0    0    0  501 -0.00000000000E+00 -0.00000000000E+00 -0.20182743416E+04  0.20182743416E+04  0.25500000000E-02 0.  1.
    8880022    1    1    2    0    0  0.56277186885E+03 -0.14365502771E+04 -0.11268767314E+04  0.19166720366E+04  0.15294330000E+03 0.  0.
    8880022    1    1    2    0    0 -0.56277186885E+03  0.14365502771E+04  0.71386294944E+03  0.17068628646E+04  0.15294330000E+03 0.  0.
<mgrwt>
<rscale>  0 0.15504130E+04</rscale>
<asrwt>0</asrwt>
<pdfrwt beam="1">  1        2 0.24696317E+00 0.15504130E+04</pdfrwt>
<pdfrwt beam="2">  1       -2 0.31050374E+00 0.15504130E+04</pdfrwt>
<totfact> 0.28376684E-01</totfact>
</mgrwt>
</event>
<event>
 4    1  0.1726795E-008  0.7285599E+03  0.7818608E-02  0.9669600E-01
          2   -1    0    0  501    0  0.00000000000E+00  0.00000000000E+00  0.87906468147E+03  0.87906468147E+03  0.25500000000E-02 0. -1.
         -2   -1    0    0    0  501 -0.00000000000E+00 -0.00000000000E+00 -0.10751760110E+04  0.10751760110E+04  0.25500000000E-02 0.  1.
    8880022    1    1    2    0    0 -0.68016859688E+03 -0.21160932651E+03  0.54891026803E+03  0.91219623032E+03  0.15294330000E+03 0.  0.
    8880022    1    1    2    0    0  0.68016859688E+03  0.21160932651E+03 -0.74502159755E+03  0.10420444621E+04  0.15294330000E+03 0.  1.
<mgrwt>
<rscale>  0 0.72855987E+03</rscale>
<asrwt>0</asrwt>
<pdfrwt beam="1">  1        2 0.13524072E+00 0.72855987E+03</pdfrwt>
<pdfrwt beam="2">  1       -2 0.16541170E+00 0.72855987E+03</pdfrwt>
<totfact> 0.71140394E+00</totfact>
</mgrwt>
</event>
<event>
 4    1  0.1726795E-008  0.4878574E+03  0.7818608E-02  0.1016998E+00
          2   -1    0    0  501    0  0.00000000000E+00  0.00000000000E+00  0.83855054508E+03  0.83855054509E+03  0.25500000000E-02 0. -1.
         -2   -1    0    0    0  501 -0.00000000000E+00 -0.00000000000E+00 -0.17431116250E+04  0.17431116250E+04  0.25500000000E-02 0.  1.
    8880022    1    1    2    0    0  0.45754777695E+03  0.72548293472E+02  0.72879190361E+03  0.87700770513E+03  0.15294330000E+03 0.  0.
    8880022    1    1    2    0    0 -0.45754777695E+03 -0.72548293472E+02 -0.16333529835E+04  0.17046544649E+04  0.15294330000E+03 0.  0.
<mgrwt>
<rscale>  0 0.48785743E+03</rscale>
<asrwt>0</asrwt>
<pdfrwt beam="1">  1        2 0.12900778E+00 0.48785743E+03</pdfrwt>
<pdfrwt beam="2">  1       -2 0.26817102E+00 0.48785743E+03</pdfrwt>
<totfact> 0.17605147E+00</totfact>
</mgrwt>
</event>
<event>
 4    1  0.2063029E-008  0.9445796E+03  0.7818608E-02  0.9371509E-01
         -2   -1    0    0    0  501 -0.00000000000E+00  0.00000000000E+00  0.25444746506E+04  0.25444746506E+04  0.25500000000E-02 0.  1.
          2   -1    0    0  501    0  0.00000000000E+00 -0.00000000000E+00 -0.18510220182E+04  0.18510220182E+04  0.25500000000E-02 0. -1.
    8880022    1    1    2    0    0  0.13301053492E+03 -0.92257636730E+03 -0.16319330894E+04  0.18855864385E+04  0.15294330000E+03 0.  0.
    8880022    1    1    2    0    0 -0.13301053492E+03  0.92257636730E+03  0.23253857218E+04  0.25099102303E+04  0.15294330000E+03 0.  0.
<mgrwt>
<rscale>  0 0.94457959E+03</rscale>
<asrwt>0</asrwt>
<pdfrwt beam="1">  1        2 0.28477262E+00 0.94457959E+03</pdfrwt>
<pdfrwt beam="2">  1       -2 0.39145764E+00 0.94457959E+03</pdfrwt>
<totfact> 0.70477607E-02</totfact>
</mgrwt>
</event>
<event>
 4    1  0.1726795E-008  0.1497257E+04  0.7818608E-02  0.8886279E-01
          2   -1    0    0  501    0  0.00000000000E+00  0.00000000000E+00  0.26839798970E+04  0.26839798970E+04  0.25500000000E-02 0. -1.
         -2   -1    0    0    0  501 -0.00000000000E+00 -0.00000000000E+00 -0.11221157811E+04  0.11221157811E+04  0.25500000000E-02 0.  1.
    8880022    1    1    2    0    0  0.13386655408E+04  0.65296458426E+03  0.17431518788E+04  0.22979030232E+04  0.15294330000E+03 0.  0.
    8880022    1    1    2    0    0 -0.13386655408E+04 -0.65296458426E+03 -0.18128776287E+03  0.15081926550E+04  0.15294330000E+03 0.  0.
<mgrwt>
<rscale>  0 0.14972574E+04</rscale>
<asrwt>0</asrwt>
<pdfrwt beam="1">  1        2 0.41291998E+00 0.14972574E+04</pdfrwt>
<pdfrwt beam="2">  1       -2 0.17263320E+00 0.14972574E+04</pdfrwt>
<totfact> 0.52269319E-01</totfact>
</mgrwt>
</event>
<event>
 4    1  0.1726795E-008  0.6783742E+03  0.7818608E-02  0.9754947E-01
          2   -1    0    0  501    0  0.00000000000E+00  0.00000000000E+00  0.11341894497E+04  0.11341894497E+04  0.25500000000E-02 0. -1.
         -2   -1    0    0    0  501 -0.00000000000E+00 -0.00000000000E+00 -0.11592321588E+04  0.11592321588E+04  0.25500000000E-02 0.  1.
    8880022    1    1    2    0    0 -0.46530341628E+03  0.46935342919E+03  0.91197809298E+03  0.11366158567E+04  0.15294330000E+03 0.  0.
    8880022    1    1    2    0    0  0.46530341628E+03 -0.46935342919E+03 -0.93702080209E+03  0.11568057517E+04  0.15294330000E+03 0.  0.
<mgrwt>
<rscale>  0 0.67837421E+03</rscale>
<asrwt>0</asrwt>
<pdfrwt beam="1">  1        2 0.17449068E+00 0.67837421E+03</pdfrwt>
<pdfrwt beam="2">  1       -2 0.17834341E+00 0.67837421E+03</pdfrwt>
<totfact> 0.39979082E+00</totfact>
</mgrwt>
</event>
<event>
 4    1  0.1726795E-008  0.2100989E+03  0.7818608E-02  0.1141488E+00
          2   -1    0    0  501    0  0.00000000000E+00  0.00000000000E+00  0.26961847796E+04  0.26961847796E+04  0.25500000000E-02 0. -1.
         -2   -1    0    0    0  501 -0.00000000000E+00 -0.00000000000E+00 -0.19035431449E+03  0.19035431450E+03  0.25500000000E-02 0.  1.
    8880022    1    1    2    0    0  0.30376071565E+02  0.14080906457E+03  0.26327237335E+04  0.26410936766E+04  0.15294330000E+03 0. -1.
    8880022    1    1    2    0    0 -0.30376071565E+02 -0.14080906457E+03 -0.12689326843E+03  0.24544541751E+03  0.15294330000E+03 0.  0.
<mgrwt>
<rscale>  0 0.21009891E+03</rscale>
<asrwt>0</asrwt>
<pdfrwt beam="1">  1        2 0.41479766E+00 0.21009891E+03</pdfrwt>
<pdfrwt beam="2">  1       -2 0.29285279E-01 0.21009891E+03</pdfrwt>
<totfact> 0.34735520E+01</totfact>
</mgrwt>
</event>
<event>
 4    1  0.1726795E-008  0.1484281E+04  0.7818608E-02  0.8894973E-01
         -2   -1    0    0    0  501 -0.00000000000E+00  0.00000000000E+00  0.13247639894E+04  0.13247639894E+04  0.25500000000E-02 0.  1.
          2   -1    0    0  501    0  0.00000000000E+00 -0.00000000000E+00 -0.20530814916E+04  0.20530814916E+04  0.25500000000E-02 0. -1.
    8880022    1    1    2    0    0 -0.14532917028E+04 -0.26008157214E+03  0.37201589910E+03  0.15301917134E+04  0.15294330000E+03 0.  0.
    8880022    1    1    2    0    0  0.14532917028E+04  0.26008157214E+03 -0.11003334013E+04  0.18476537675E+04  0.15294330000E+03 0.  0.
<mgrwt>
<rscale>  0 0.14842813E+04</rscale>
<asrwt>0</asrwt>
<pdfrwt beam="1">  1        2 0.31585869E+00 0.14842813E+04</pdfrwt>
<pdfrwt beam="2">  1       -2 0.20380984E+00 0.14842813E+04</pdfrwt>
<totfact> 0.73719754E-01</totfact>
</mgrwt>
</event>
<event>
 4    1  0.1726795E-008  0.6368783E+03  0.7818608E-02  0.9831718E-01
          2   -1    0    0  501    0  0.00000000000E+00  0.00000000000E+00  0.29623391255E+04  0.29623391255E+04  0.25500000000E-02 0. -1.
         -2   -1    0    0    0  501 -0.00000000000E+00 -0.00000000000E+00 -0.78346516862E+03  0.78346516863E+03  0.25500000000E-02 0.  1.
    8880022    1    1    2    0    0  0.43168275188E+03  0.44257458784E+03 -0.61195151813E+03  0.88323189346E+03  0.15294330000E+03 0.  0.
    8880022    1    1    2    0    0 -0.43168275188E+03 -0.44257458784E+03  0.27908254750E+04  0.28625724007E+04  0.15294330000E+03 0.  0.
<mgrwt>
<rscale>  0 0.63687826E+03</rscale>
<asrwt>0</asrwt>
<pdfrwt beam="1">  1        2 0.45574449E+00 0.63687826E+03</pdfrwt>
<pdfrwt beam="2">  1       -2 0.12053310E+00 0.63687826E+03</pdfrwt>
<totfact> 0.10587406E+00</totfact>
</mgrwt>
</event>
<event>
 4    1  0.1726795E-008  0.1381927E+04  0.7818608E-02  0.8967005E-01
          2   -1    0    0  501    0  0.00000000000E+00  0.00000000000E+00  0.16643584579E+04  0.16643584579E+04  0.25500000000E-02 0. -1.
         -2   -1    0    0    0  501 -0.00000000000E+00 -0.00000000000E+00 -0.15269735683E+04  0.15269735683E+04  0.25500000000E-02 0.  1.
    8880022    1    1    2    0    0 -0.12495728221E+04  0.56999975109E+03  0.86423040888E+03  0.16299134353E+04  0.15294330000E+03 0.  0.
    8880022    1    1    2    0    0  0.12495728221E+04 -0.56999975109E+03 -0.72684551923E+03  0.15614185908E+04  0.15294330000E+03 0.  0.
<mgrwt>
<rscale>  0 0.13819275E+04</rscale>
<asrwt>0</asrwt>
<pdfrwt beam="1">  1        2 0.25605514E+00 0.13819275E+04</pdfrwt>
<pdfrwt beam="2">  1       -2 0.23491901E+00 0.13819275E+04</pdfrwt>
<totfact> 0.77755853E-01</totfact>
</mgrwt>
</event>
<event>
 4    1  0.1726795E-008  0.9250722E+03  0.7818608E-02  0.9394771E-01
          2   -1    0    0  501    0  0.00000000000E+00  0.00000000000E+00  0.86280155162E+03  0.86280155163E+03  0.25500000000E-02 0. -1.
         -2   -1    0    0    0  501 -0.00000000000E+00 -0.00000000000E+00 -0.20738007966E+04  0.20738007966E+04  0.25500000000E-02 0.  1.
    8880022    1    1    2    0    0  0.91214118064E+03  0.19114969839E+02  0.45506705296E+03  0.10309435441E+04  0.15294330000E+03 0.  0.
    8880022    1    1    2    0    0 -0.91214118064E+03 -0.19114969839E+02 -0.16660662980E+04  0.19056588041E+04  0.15294330000E+03 0.  0.
<mgrwt>
<rscale>  0 0.92507220E+03</rscale>
<asrwt>0</asrwt>
<pdfrwt beam="1">  1        2 0.13273870E+00 0.92507220E+03</pdfrwt>
<pdfrwt beam="2">  1       -2 0.31904628E+00 0.92507220E+03</pdfrwt>
<totfact> 0.76861665E-01</totfact>
</mgrwt>
</event>
<event>
 4    1  0.1726795E-008  0.9392944E+03  0.7818608E-02  0.9377752E-01
          2   -1    0    0  501    0  0.00000000000E+00  0.00000000000E+00  0.79166911513E+03  0.79166911514E+03  0.25500000000E-02 0. -1.
         -2   -1    0    0    0  501 -0.00000000000E+00 -0.00000000000E+00 -0.17721376281E+04  0.17721376281E+04  0.25500000000E-02 0.  1.
    8880022    1    1    2    0    0 -0.90564370710E+03  0.19670244949E+03  0.29070467834E+03  0.98325136199E+03  0.15294330000E+03 0.  0.
    8880022    1    1    2    0    0  0.90564370710E+03 -0.19670244949E+03 -0.12711731913E+04  0.15805553812E+04  0.15294330000E+03 0.  0.
<mgrwt>
<rscale>  0 0.93929443E+03</rscale>
<asrwt>0</asrwt>
<pdfrwt beam="1">  1        2 0.12179525E+00 0.93929443E+03</pdfrwt>
<pdfrwt beam="2">  1       -2 0.27263656E+00 0.93929443E+03</pdfrwt>
<totfact> 0.16449378E+00</totfact>
</mgrwt>
</event>
<event>
 4    1  0.1726795E-008  0.1552286E+04  0.7818608E-02  0.8850409E-01
         -2   -1    0    0    0  501 -0.00000000000E+00  0.00000000000E+00  0.21060944263E+04  0.21060944263E+04  0.25500000000E-02 0.  1.
          2   -1    0    0  501    0  0.00000000000E+00 -0.00000000000E+00 -0.32418141397E+04  0.32418141397E+04  0.25500000000E-02 0. -1.
    8880022    1    1    2    0    0 -0.90539875100E+03  0.12515798392E+04 -0.27188215730E+04  0.31307477367E+04  0.15294330000E+03 0.  0.
    8880022    1    1    2    0    0  0.90539875100E+03 -0.12515798392E+04  0.15831018596E+04  0.22171608293E+04  0.15294330000E+03 0.  0.
<mgrwt>
<rscale>  0 0.15522856E+04</rscale>
<asrwt>0</asrwt>
<pdfrwt beam="1">  1        2 0.49874064E+00 0.15522856E+04</pdfrwt>
<pdfrwt beam="2">  1       -2 0.32401453E+00 0.15522856E+04</pdfrwt>
<totfact> 0.25779184E-02</totfact>
</mgrwt>
</event>
<event>
 4    1  0.1726795E-008  0.1081939E+04  0.7818608E-02  0.9222976E-01
         -2   -1    0    0    0  501 -0.00000000000E+00  0.00000000000E+00  0.93748574130E+03  0.93748574131E+03  0.25500000000E-02 0.  1.
          2   -1    0    0  501    0  0.00000000000E+00 -0.00000000000E+00 -0.16561294405E+04  0.16561294405E+04  0.25500000000E-02 0. -1.
    8880022    1    1    2    0    0 -0.39494489453E+03  0.99559981255E+03 -0.10025735600E+04  0.14750409664E+04  0.15294330000E+03 0.  0.
    8880022    1    1    2    0    0  0.39494489453E+03 -0.99559981255E+03  0.28392986077E+03  0.11185742154E+04  0.15294330000E+03 0.  0.
<mgrwt>
<rscale>  0 0.10819391E+04</rscale>
<asrwt>0</asrwt>
<pdfrwt beam="1">  1        2 0.25478914E+00 0.10819391E+04</pdfrwt>
<pdfrwt beam="2">  1       -2 0.14422858E+00 0.10819391E+04</pdfrwt>
<totfact> 0.33947456E+00</totfact>
</mgrwt>
</event>
<event>
 4    1  0.1726795E-008  0.5450434E+03  0.7818608E-02  0.1002648E+00
         -2   -1    0    0    0  501 -0.00000000000E+00  0.00000000000E+00  0.33148786715E+03  0.33148786716E+03  0.25500000000E-02 0.  1.
          2   -1    0    0  501    0  0.00000000000E+00 -0.00000000000E+00 -0.26241565788E+04  0.26241565788E+04  0.25500000000E-02 0. -1.
    8880022    1    1    2    0    0 -0.86242814208E+02 -0.51598719682E+03  0.52878977732E+02  0.54760245579E+03  0.15294330000E+03 0.  0.
    8880022    1    1    2    0    0  0.86242814208E+02  0.51598719682E+03 -0.23455476894E+04  0.24080419902E+04  0.15294330000E+03 0.  0.
<mgrwt>
<rscale>  0 0.54504336E+03</rscale>
<asrwt>0</asrwt>
<pdfrwt beam="1">  1        2 0.40371638E+00 0.54504336E+03</pdfrwt>
<pdfrwt beam="2">  1       -2 0.50998135E-01 0.54504336E+03</pdfrwt>
<totfact> 0.11721119E+01</totfact>
</mgrwt>
</event>
<event>
 4    1  0.1726795E-008  0.7160043E+03  0.7818608E-02  0.9690247E-01
         -2   -1    0    0    0  501 -0.00000000000E+00  0.00000000000E+00  0.27892008376E+03  0.27892008377E+03  0.25500000000E-02 0.  1.
          2   -1    0    0  501    0  0.00000000000E+00 -0.00000000000E+00 -0.26441393294E+04  0.26441393294E+04  0.25500000000E-02 0. -1.
    8880022    1    1    2    0    0 -0.67763495297E+03 -0.17343991368E+03 -0.19895913556E+04  0.21145060767E+04  0.15294330000E+03 0.  0.
    8880022    1    1    2    0    0  0.67763495297E+03  0.17343991368E+03 -0.37562789008E+03  0.80855333650E+03  0.15294330000E+03 0.  0.
<mgrwt>
<rscale>  0 0.71600432E+03</rscale>
<asrwt>0</asrwt>
<pdfrwt beam="1">  1        2 0.40679065E+00 0.71600432E+03</pdfrwt>
<pdfrwt beam="2">  1       -2 0.42910784E-01 0.71600432E+03</pdfrwt>
<totfact> 0.15593990E+01</totfact>
</mgrwt>
</event>
<event>
 4    1  0.1726795E-008  0.8774862E+03  0.7818608E-02  0.9454171E-01
          2   -1    0    0  501    0  0.00000000000E+00  0.00000000000E+00  0.14742025111E+04  0.14742025111E+04  0.25500000000E-02 0. -1.
         -2   -1    0    0    0  501 -0.00000000000E+00 -0.00000000000E+00 -0.10455562817E+04  0.10455562817E+04  0.25500000000E-02 0.  1.
    8880022    1    1    2    0    0  0.19133971567E+03  0.84260277648E+03  0.11055962171E+04  0.14114974226E+04  0.15294330000E+03 0.  0.
    8880022    1    1    2    0    0 -0.19133971567E+03 -0.84260277648E+03 -0.67694998769E+03  0.11082613701E+04  0.15294330000E+03 0.  0.
<mgrwt>
<rscale>  0 0.87748617E+03</rscale>
<asrwt>0</asrwt>
<pdfrwt beam="1">  1        2 0.22680039E+00 0.87748617E+03</pdfrwt>
<pdfrwt beam="2">  1       -2 0.16085481E+00 0.87748617E+03</pdfrwt>
<totfact> 0.32847830E+00</totfact>
</mgrwt>
</event>
<event>
 4    1  0.1726795E-008  0.1590686E+03  0.7818608E-02  0.1189752E+00
          2   -1    0    0  501    0  0.00000000000E+00  0.00000000000E+00  0.97656577151E+03  0.97656577152E+03  0.25500000000E-02 0. -1.
         -2   -1    0    0    0  501 -0.00000000000E+00 -0.00000000000E+00 -0.36019201524E+02  0.36019201615E+02  0.25500000000E-02 0.  1.
    8880022    1    1    2    0    0  0.27050795651E+02 -0.34342739411E+02  0.20205227101E+03  0.25715353882E+03  0.15294330000E+03 0.  1.
    8880022    1    1    2    0    0 -0.27050795651E+02  0.34342739411E+02  0.73849429899E+03  0.75543143431E+03  0.15294330000E+03 0. -1.
<mgrwt>
<rscale>  0 0.15906861E+03</rscale>
<asrwt>0</asrwt>
<pdfrwt beam="1">  1        2 0.15024087E+00 0.15906861E+03</pdfrwt>
<pdfrwt beam="2">  1       -2 0.55414164E-02 0.15906861E+03</pdfrwt>
<totfact> 0.44641982E+03</totfact>
</mgrwt>
</event>
<event>
 4    1  0.1726795E-008  0.2043813E+04  0.7818608E-02  0.8586406E-01
          2   -1    0    0  501    0  0.00000000000E+00  0.00000000000E+00  0.23818135768E+04  0.23818135768E+04  0.25500000000E-02 0. -1.
         -2   -1    0    0    0  501 -0.00000000000E+00 -0.00000000000E+00 -0.29383114551E+04  0.29383114551E+04  0.25500000000E-02 0.  1.
    8880022    1    1    2    0    0  0.13587246136E+04  0.15190941265E+04 -0.19671984858E+04  0.28367307021E+04  0.15294330000E+03 0.  0.
    8880022    1    1    2    0    0 -0.13587246136E+04 -0.15190941265E+04  0.14107006075E+04  0.24833943299E+04  0.15294330000E+03 0.  0.
<mgrwt>
<rscale>  0 0.20438129E+04</rscale>
<asrwt>0</asrwt>
<pdfrwt beam="1">  1        2 0.36643286E+00 0.20438129E+04</pdfrwt>
<pdfrwt beam="2">  1       -2 0.45204791E+00 0.20438129E+04</pdfrwt>
<totfact> 0.11981650E-02</totfact>
</mgrwt>
</event>
<event>
 4    1  0.1726795E-008  0.6712857E+03  0.7818608E-02  0.9767638E-01
          2   -1    0    0  501    0  0.00000000000E+00  0.00000000000E+00  0.19845962692E+04  0.19845962692E+04  0.25500000000E-02 0. -1.
         -2   -1    0    0    0  501 -0.00000000000E+00 -0.00000000000E+00 -0.38399885788E+03  0.38399885789E+03  0.25500000000E-02 0.  1.
    8880022    1    1    2    0    0 -0.65351519141E+03  0.12279935808E+02  0.15574098361E+04  0.16959215644E+04  0.15294330000E+03 0.  0.
    8880022    1    1    2    0    0  0.65351519141E+03 -0.12279935808E+02  0.43187575257E+02  0.67267356266E+03  0.15294330000E+03 0.  0.
<mgrwt>
<rscale>  0 0.67128575E+03</rscale>
<asrwt>0</asrwt>
<pdfrwt beam="1">  1        2 0.30532251E+00 0.67128575E+03</pdfrwt>
<pdfrwt beam="2">  1       -2 0.59076746E-01 0.67128575E+03</pdfrwt>
<totfact> 0.19074355E+01</totfact>
</mgrwt>
</event>
<event>
 4    1  0.1726795E-008  0.9921131E+03  0.7818608E-02  0.9317238E-01
         -2   -1    0    0    0  501 -0.00000000000E+00  0.00000000000E+00  0.13647965219E+04  0.13647965219E+04  0.25500000000E-02 0.  1.
          2   -1    0    0  501    0  0.00000000000E+00 -0.00000000000E+00 -0.22027075133E+04  0.22027075133E+04  0.25500000000E-02 0. -1.
    8880022    1    1    2    0    0 -0.54159497438E+03  0.81705058593E+03  0.10439231253E+04  0.14401610746E+04  0.15294330000E+03 0.  0.
    8880022    1    1    2    0    0  0.54159497438E+03 -0.81705058593E+03 -0.18818341167E+04  0.21273429606E+04  0.15294330000E+03 0.  0.
<mgrwt>
<rscale>  0 0.99211311E+03</rscale>
<asrwt>0</asrwt>
<pdfrwt beam="1">  1        2 0.33887808E+00 0.99211311E+03</pdfrwt>
<pdfrwt beam="2">  1       -2 0.20996870E+00 0.99211311E+03</pdfrwt>
<totfact> 0.59157754E-01</totfact>
</mgrwt>
</event>
<event>
 4    1  0.1726795E-008  0.4511392E+03  0.7818608E-02  0.1027383E+00
          2   -1    0    0  501    0  0.00000000000E+00  0.00000000000E+00  0.16087959028E+04  0.16087959028E+04  0.25500000000E-02 0. -1.
         -2   -1    0    0    0  501 -0.00000000000E+00 -0.00000000000E+00 -0.62122376933E+03  0.62122376934E+03  0.25500000000E-02 0.  1.
    8880022    1    1    2    0    0  0.42341355563E+03 -0.29255415098E+02  0.14888071092E+04  0.15556584394E+04  0.15294330000E+03 0.  0.
    8880022    1    1    2    0    0 -0.42341355563E+03  0.29255415098E+02 -0.50123497574E+03  0.67436123281E+03  0.15294330000E+03 0.  0.
<mgrwt>
<rscale>  0 0.45113919E+03</rscale>
<asrwt>0</asrwt>
<pdfrwt beam="1">  1        2 0.24750706E+00 0.45113919E+03</pdfrwt>
<pdfrwt beam="2">  1       -2 0.95572888E-01 0.45113919E+03</pdfrwt>
<totfact> 0.10973961E+01</totfact>
</mgrwt>
</event>
<event>
 4    1  0.1726795E-008  0.1467833E+04  0.7818608E-02  0.8906130E-01
          2   -1    0    0  501    0  0.00000000000E+00  0.00000000000E+00  0.38742717760E+04  0.38742717760E+04  0.25500000000E-02 0. -1.
         -2   -1    0    0    0  501 -0.00000000000E+00 -0.00000000000E+00 -0.67928955943E+03  0.67928955944E+03  0.25500000000E-02 0.  1.
    8880022    1    1    2    0    0  0.14594081996E+04 -0.35624298306E+02  0.62796904239E+03  0.15965206403E+04  0.15294330000E+03 0.  0.
    8880022    1    1    2    0    0 -0.14594081996E+04  0.35624298306E+02  0.25670131742E+04  0.29570406952E+04  0.15294330000E+03 0.  0.
<mgrwt>
<rscale>  0 0.14678328E+04</rscale>
<asrwt>0</asrwt>
<pdfrwt beam="1">  1        2 0.59604181E+00 0.14678328E+04</pdfrwt>
<pdfrwt beam="2">  1       -2 0.10450609E+00 0.14678328E+04</pdfrwt>
<totfact> 0.31077272E-01</totfact>
</mgrwt>
</event>
<event>
 4    1  0.1726795E-008  0.8816221E+03  0.7818608E-02  0.9448851E-01
         -2   -1    0    0    0  501 -0.00000000000E+00  0.00000000000E+00  0.17561023466E+04  0.17561023466E+04  0.25500000000E-02 0.  1.
          2   -1    0    0  501    0  0.00000000000E+00 -0.00000000000E+00 -0.74687933051E+03  0.74687933051E+03  0.25500000000E-02 0. -1.
    8880022    1    1    2    0    0  0.86753614199E+03  0.35312082304E+02  0.13034076816E+04  0.15735720950E+04  0.15294330000E+03 0.  0.
    8880022    1    1    2    0    0 -0.86753614199E+03 -0.35312082304E+02 -0.29418466551E+03  0.92940958207E+03  0.15294330000E+03 0.  0.
<mgrwt>
<rscale>  0 0.88162212E+03</rscale>
<asrwt>0</asrwt>
<pdfrwt beam="1">  1        2 0.11490451E+00 0.88162212E+03</pdfrwt>
<pdfrwt beam="2">  1       -2 0.27016959E+00 0.88162212E+03</pdfrwt>
<totfact> 0.18518207E+00</totfact>
</mgrwt>
</event>
<event>
 4    1  0.1726795E-008  0.2676714E+03  0.7818608E-02  0.1102620E+00
         -2   -1    0    0    0  501 -0.00000000000E+00  0.00000000000E+00  0.11029534683E+03  0.11029534686E+03  0.25500000000E-02 0.  1.
          2   -1    0    0  501    0  0.00000000000E+00 -0.00000000000E+00 -0.20175110978E+04  0.20175110978E+04  0.25500000000E-02 0. -1.
    8880022    1    1    2    0    0 -0.66483296849E+02  0.20937115121E+03 -0.18296458770E+04  0.18491219527E+04  0.15294330000E+03 0. -1.
    8880022    1    1    2    0    0  0.66483296849E+02 -0.20937115121E+03 -0.77569874032E+02  0.27868449201E+03  0.15294330000E+03 0.  0.
<mgrwt>
<rscale>  0 0.26767137E+03</rscale>
<asrwt>0</asrwt>
<pdfrwt beam="1">  1        2 0.31038630E+00 0.26767137E+03</pdfrwt>
<pdfrwt beam="2">  1       -2 0.16968516E-01 0.26767137E+03</pdfrwt>
<totfact> 0.20372439E+02</totfact>
</mgrwt>
</event>
<event>
 4    1  0.1726795E-008  0.5802545E+03  0.7818608E-02  0.9947240E-01
          2   -1    0    0  501    0  0.00000000000E+00  0.00000000000E+00  0.11895453148E+04  0.11895453148E+04  0.25500000000E-02 0. -1.
         -2   -1    0    0    0  501 -0.00000000000E+00 -0.00000000000E+00 -0.27710430241E+04  0.27710430241E+04  0.25500000000E-02 0.  1.
    8880022    1    1    2    0    0 -0.38168861910E+03 -0.40941107212E+03  0.10856841301E+04  0.12310179980E+04  0.15294330000E+03 0.  0.
    8880022    1    1    2    0    0  0.38168861910E+03  0.40941107212E+03 -0.26671818394E+04  0.27295703408E+04  0.15294330000E+03 0.  0.
<mgrwt>
<rscale>  0 0.58025450E+03</rscale>
<asrwt>0</asrwt>
<pdfrwt beam="1">  1        2 0.18300697E+00 0.58025450E+03</pdfrwt>
<pdfrwt beam="2">  1       -2 0.42631431E+00 0.58025450E+03</pdfrwt>
<totfact> 0.10798622E-01</totfact>
</mgrwt>
</event>
<event>
 4    1  0.1726795E-008  0.2225989E+04  0.7818608E-02  0.8507688E-01
         -2   -1    0    0    0  501 -0.00000000000E+00  0.00000000000E+00  0.18975176121E+04  0.18975176121E+04  0.25500000000E-02 0.  1.
          2   -1    0    0  501    0  0.00000000000E+00 -0.00000000000E+00 -0.30054916238E+04  0.30054916238E+04  0.25500000000E-02 0. -1.
    8880022    1    1    2    0    0 -0.22156829491E+03  0.22096478790E+04  0.33381677089E+03  0.22508801719E+04  0.15294330000E+03 0.  0.
    8880022    1    1    2    0    0  0.22156829491E+03 -0.22096478790E+04 -0.14417907825E+04  0.26521290640E+04  0.15294330000E+03 0.  0.
<mgrwt>
<rscale>  0 0.22259892E+04</rscale>
<asrwt>0</asrwt>
<pdfrwt beam="1">  1        2 0.46238333E+00 0.22259892E+04</pdfrwt>
<pdfrwt beam="2">  1       -2 0.29192579E+00 0.22259892E+04</pdfrwt>
<totfact> 0.53225587E-02</totfact>
</mgrwt>
</event>
<event>
 4    1  0.1726795E-008  0.1612352E+04  0.7818608E-02  0.8812996E-01
          2   -1    0    0  501    0  0.00000000000E+00  0.00000000000E+00  0.28356303774E+04  0.28356303774E+04  0.25500000000E-02 0. -1.
         -2   -1    0    0    0  501 -0.00000000000E+00 -0.00000000000E+00 -0.11565400806E+04  0.11565400806E+04  0.25500000000E-02 0.  1.
    8880022    1    1    2    0    0 -0.88955826726E+03  0.13360288370E+04 -0.69274660529E+02  0.16138393959E+04  0.15294330000E+03 0.  0.
    8880022    1    1    2    0    0  0.88955826726E+03 -0.13360288370E+04  0.17483649573E+04  0.23783310621E+04  0.15294330000E+03 0.  0.
<mgrwt>
<rscale>  0 0.16123519E+04</rscale>
<asrwt>0</asrwt>
<pdfrwt beam="1">  1        2 0.43625082E+00 0.16123519E+04</pdfrwt>
<pdfrwt beam="2">  1       -2 0.17792924E+00 0.16123519E+04</pdfrwt>
<totfact> 0.38411183E-01</totfact>
</mgrwt>
</event>
<event>
 4    1  0.1726795E-008  0.1634005E+04  0.7818608E-02  0.8799926E-01
          2   -1    0    0  501    0  0.00000000000E+00  0.00000000000E+00  0.27408352898E+04  0.27408352898E+04  0.25500000000E-02 0. -1.
         -2   -1    0    0    0  501 -0.00000000000E+00 -0.00000000000E+00 -0.14672498485E+04  0.14672498485E+04  0.25500000000E-02 0.  1.
    8880022    1    1    2    0    0 -0.16227779927E+04  0.11477010586E+03  0.18565457941E+04  0.24732032932E+04  0.15294330000E+03 0.  0.
    8880022    1    1    2    0    0  0.16227779927E+04 -0.11477010586E+03 -0.58296035276E+03  0.17348818452E+04  0.15294330000E+03 0.  0.
<mgrwt>
<rscale>  0 0.16340050E+04</rscale>
<asrwt>0</asrwt>
<pdfrwt beam="1">  1        2 0.42166697E+00 0.16340050E+04</pdfrwt>
<pdfrwt beam="2">  1       -2 0.22573075E+00 0.16340050E+04</pdfrwt>
<totfact> 0.21111411E-01</totfact>
</mgrwt>
</event>
<event>
 4    1  0.1726795E-008  0.1272510E+04  0.7818608E-02  0.9051654E-01
          2   -1    0    0  501    0  0.00000000000E+00  0.00000000000E+00  0.22746694848E+04  0.22746694848E+04  0.25500000000E-02 0. -1.
         -2   -1    0    0    0  501 -0.00000000000E+00 -0.00000000000E+00 -0.11438524093E+04  0.11438524093E+04  0.25500000000E-02 0.  1.
    8880022    1    1    2    0    0  0.56085083058E+03  0.11319612023E+04 -0.48498887216E+03  0.13617986917E+04  0.15294330000E+03 0.  0.
    8880022    1    1    2    0    0 -0.56085083058E+03 -0.11319612023E+04  0.16158059477E+04  0.20567232024E+04  0.15294330000E+03 0.  0.
<mgrwt>
<rscale>  0 0.12725099E+04</rscale>
<asrwt>0</asrwt>
<pdfrwt beam="1">  1        2 0.34994915E+00 0.12725099E+04</pdfrwt>
<pdfrwt beam="2">  1       -2 0.17597730E+00 0.12725099E+04</pdfrwt>
<totfact> 0.87467740E-01</totfact>
</mgrwt>
</event>
<event>
 4    1  0.1726795E-008  0.2863640E+03  0.7818608E-02  0.1092263E+00
         -2   -1    0    0    0  501 -0.00000000000E+00  0.00000000000E+00  0.96167256518E+03  0.96167256518E+03  0.25500000000E-02 0.  1.
          2   -1    0    0  501    0  0.00000000000E+00 -0.00000000000E+00 -0.50251053955E+03  0.50251053956E+03  0.25500000000E-02 0. -1.
    8880022    1    1    2    0    0 -0.24016672250E+03  0.30539034856E+02  0.89667141630E+03  0.94128846220E+03  0.15294330000E+03 0.  1.
    8880022    1    1    2    0    0  0.24016672250E+03 -0.30539034856E+02 -0.43750939068E+03  0.52289464254E+03  0.15294330000E+03 0.  0.
<mgrwt>
<rscale>  0 0.28636400E+03</rscale>
<asrwt>0</asrwt>
<pdfrwt beam="1">  1        2 0.77309314E-01 0.28636400E+03</pdfrwt>
<pdfrwt beam="2">  1       -2 0.14794963E+00 0.28636400E+03</pdfrwt>
<totfact> 0.20533268E+01</totfact>
</mgrwt>
</event>
<event>
 4    1  0.1726795E-008  0.5122222E+03  0.7818608E-02  0.1010637E+00
         -2   -1    0    0    0  501 -0.00000000000E+00  0.00000000000E+00  0.41900424910E+03  0.41900424911E+03  0.25500000000E-02 0.  1.
          2   -1    0    0  501    0  0.00000000000E+00 -0.00000000000E+00 -0.16332705643E+04  0.16332705643E+04  0.25500000000E-02 0. -1.
    8880022    1    1    2    0    0 -0.40879351164E+03  0.26808176579E+03 -0.14129028943E+04  0.15028859604E+04  0.15294330000E+03 0.  0.
    8880022    1    1    2    0    0  0.40879351164E+03 -0.26808176579E+03  0.19863657904E+03  0.54938885305E+03  0.15294330000E+03 0.  0.
<mgrwt>
<rscale>  0 0.51222224E+03</rscale>
<asrwt>0</asrwt>
<pdfrwt beam="1">  1        2 0.25127239E+00 0.51222224E+03</pdfrwt>
<pdfrwt beam="2">  1       -2 0.64462193E-01 0.51222224E+03</pdfrwt>
<totfact> 0.25242233E+01</totfact>
</mgrwt>
</event>
<event>
 4    1  0.1726795E-008  0.1196300E+04  0.7818608E-02  0.9116102E-01
         -2   -1    0    0    0  501 -0.00000000000E+00  0.00000000000E+00  0.13016830681E+04  0.13016830681E+04  0.25500000000E-02 0.  1.
          2   -1    0    0  501    0  0.00000000000E+00 -0.00000000000E+00 -0.23951508253E+04  0.23951508253E+04  0.25500000000E-02 0. -1.
    8880022    1    1    2    0    0  0.47516990378E+03 -0.10871773912E+04 -0.19062558192E+04  0.22505430498E+04  0.15294330000E+03 0.  0.
    8880022    1    1    2    0    0 -0.47516990378E+03  0.10871773912E+04  0.81278806208E+03  0.14462908436E+04  0.15294330000E+03 0.  0.
<mgrwt>
<rscale>  0 0.11962996E+04</rscale>
<asrwt>0</asrwt>
<pdfrwt beam="1">  1        2 0.36848474E+00 0.11962996E+04</pdfrwt>
<pdfrwt beam="2">  1       -2 0.20025893E+00 0.11962996E+04</pdfrwt>
<totfact> 0.51687757E-01</totfact>
</mgrwt>
</event>
<event>
 4    1  0.1726795E-008  0.9865893E+03  0.7818608E-02  0.9323377E-01
          2   -1    0    0  501    0  0.00000000000E+00  0.00000000000E+00  0.33152821254E+04  0.33152821254E+04  0.25500000000E-02 0. -1.
         -2   -1    0    0    0  501 -0.00000000000E+00 -0.00000000000E+00 -0.42664967125E+03  0.42664967125E+03  0.25500000000E-02 0.  1.
    8880022    1    1    2    0    0 -0.58306087533E+03  0.78102926521E+03  0.39949679230E+03  0.10644040762E+04  0.15294330000E+03 0.  0.
    8880022    1    1    2    0    0  0.58306087533E+03 -0.78102926521E+03  0.24891356618E+04  0.26775277204E+04  0.15294330000E+03 0.  0.
<mgrwt>
<rscale>  0 0.98658925E+03</rscale>
<asrwt>0</asrwt>
<pdfrwt beam="1">  1        2 0.51004339E+00 0.98658925E+03</pdfrwt>
<pdfrwt beam="2">  1       -2 0.65638413E-01 0.98658925E+03</pdfrwt>
<totfact> 0.24025011E+00</totfact>
</mgrwt>
</event>
<event>
 4    1  0.1726795E-008  0.7426355E+03  0.7818608E-02  0.9646975E-01
         -2   -1    0    0    0  501 -0.00000000000E+00  0.00000000000E+00  0.81811401758E+03  0.81811401759E+03  0.25500000000E-02 0.  1.
          2   -1    0    0  501    0  0.00000000000E+00 -0.00000000000E+00 -0.22330646885E+04  0.22330646885E+04  0.25500000000E-02 0. -1.
    8880022    1    1    2    0    0  0.66316658786E+03 -0.29719677942E+03 -0.19821585551E+04  0.21167097202E+04  0.15294330000E+03 0.  0.
    8880022    1    1    2    0    0 -0.66316658786E+03  0.29719677942E+03  0.56720788411E+03  0.93446898598E+03  0.15294330000E+03 0.  0.
<mgrwt>
<rscale>  0 0.74263551E+03</rscale>
<asrwt>0</asrwt>
<pdfrwt beam="1">  1        2 0.34354841E+00 0.74263551E+03</pdfrwt>
<pdfrwt beam="2">  1       -2 0.12586370E+00 0.74263551E+03</pdfrwt>
<totfact> 0.24347997E+00</totfact>
</mgrwt>
</event>
<event>
 4    1  0.1726795E-008  0.9273261E+03  0.7818608E-02  0.9392053E-01
          2   -1    0    0  501    0  0.00000000000E+00  0.00000000000E+00  0.10625613970E+04  0.10625613970E+04  0.25500000000E-02 0. -1.
         -2   -1    0    0    0  501 -0.00000000000E+00 -0.00000000000E+00 -0.16225936631E+04  0.16225936631E+04  0.25500000000E-02 0.  1.
    8880022    1    1    2    0    0 -0.66136228353E+03  0.63177690652E+03  0.67049556508E+03  0.11443330309E+04  0.15294330000E+03 0.  0.
    8880022    1    1    2    0    0  0.66136228353E+03 -0.63177690652E+03 -0.12305278312E+04  0.15408220293E+04  0.15294330000E+03 0.  0.
<mgrwt>
<rscale>  0 0.92732615E+03</rscale>
<asrwt>0</asrwt>
<pdfrwt beam="1">  1        2 0.16347098E+00 0.92732615E+03</pdfrwt>
<pdfrwt beam="2">  1       -2 0.24962979E+00 0.92732615E+03</pdfrwt>
<totfact> 0.14946537E+00</totfact>
</mgrwt>
</event>
<event>
 4    1  0.1726795E-008  0.8992034E+03  0.7818608E-02  0.9426578E-01
          2   -1    0    0  501    0  0.00000000000E+00  0.00000000000E+00  0.20098531985E+04  0.20098531985E+04  0.25500000000E-02 0. -1.
         -2   -1    0    0    0  501 -0.00000000000E+00 -0.00000000000E+00 -0.78262561846E+03  0.78262561846E+03  0.25500000000E-02 0.  1.
    8880022    1    1    2    0    0  0.63203141587E+03 -0.62105670342E+03 -0.35971561052E+03  0.96848444127E+03  0.15294330000E+03 0.  1.
    8880022    1    1    2    0    0 -0.63203141587E+03  0.62105670342E+03  0.15869431906E+04  0.18239943757E+04  0.15294330000E+03 0.  0.
<mgrwt>
<rscale>  0 0.89920342E+03</rscale>
<asrwt>0</asrwt>
<pdfrwt beam="1">  1        2 0.30920818E+00 0.89920342E+03</pdfrwt>
<pdfrwt beam="2">  1       -2 0.12040394E+00 0.89920342E+03</pdfrwt>
<totfact> 0.35184289E+00</totfact>
</mgrwt>
</event>
<event>
 4    1  0.1726795E-008  0.8130003E+03  0.7818608E-02  0.9541388E-01
          2   -1    0    0  501    0  0.00000000000E+00  0.00000000000E+00  0.24596866949E+04  0.24596866949E+04  0.25500000000E-02 0. -1.
         -2   -1    0    0    0  501 -0.00000000000E+00 -0.00000000000E+00 -0.77274161777E+03  0.77274161777E+03  0.25500000000E-02 0.  1.
    8880022    1    1    2    0    0  0.44122056387E+03 -0.66550897635E+03  0.21487592351E+04  0.22974193538E+04  0.15294330000E+03 0.  0.
    8880022    1    1    2    0    0 -0.44122056387E+03  0.66550897635E+03 -0.46181415803E+03  0.93500895886E+03  0.15294330000E+03 0.  0.
<mgrwt>
<rscale>  0 0.81300027E+03</rscale>
<asrwt>0</asrwt>
<pdfrwt beam="1">  1        2 0.37841334E+00 0.81300027E+03</pdfrwt>
<pdfrwt beam="2">  1       -2 0.11888332E+00 0.81300027E+03</pdfrwt>
<totfact> 0.20706157E+00</totfact>
</mgrwt>
</event>
<event>
 4    1  0.1726795E-008  0.2789334E+03  0.7818608E-02  0.1096273E+00
          2   -1    0    0  501    0  0.00000000000E+00  0.00000000000E+00  0.22132949132E+04  0.22132949132E+04  0.25500000000E-02 0. -1.
         -2   -1    0    0    0  501 -0.00000000000E+00 -0.00000000000E+00 -0.83252873836E+03  0.83252873837E+03  0.25500000000E-02 0.  1.
    8880022    1    1    2    0    0 -0.15094905095E+03  0.17783856324E+03  0.21807962146E+04  0.21985622468E+04  0.15294330000E+03 0. -1.
    8880022    1    1    2    0    0  0.15094905095E+03 -0.17783856324E+03 -0.80003003972E+03  0.84726140478E+03  0.15294330000E+03 0.  0.
<mgrwt>
<rscale>  0 0.27893337E+03</rscale>
<asrwt>0</asrwt>
<pdfrwt beam="1">  1        2 0.34050690E+00 0.27893337E+03</pdfrwt>
<pdfrwt beam="2">  1       -2 0.12808135E+00 0.27893337E+03</pdfrwt>
<totfact> 0.27518461E+00</totfact>
</mgrwt>
</event>
<event>
 4    1  0.1726795E-008  0.9764535E+03  0.7818608E-02  0.9334754E-01
         -2   -1    0    0    0  501 -0.00000000000E+00  0.00000000000E+00  0.65854987534E+03  0.65854987534E+03  0.25500000000E-02 0.  1.
          2   -1    0    0  501    0  0.00000000000E+00 -0.00000000000E+00 -0.15104353541E+04  0.15104353541E+04  0.25500000000E-02 0. -1.
    8880022    1    1    2    0    0 -0.91679427621E+03  0.29926256660E+03 -0.64675185348E+03  0.11712170771E+04  0.15294330000E+03 0.  0.
    8880022    1    1    2    0    0  0.91679427621E+03 -0.29926256660E+03 -0.20513362531E+03  0.99776815238E+03  0.15294330000E+03 0.  0.
<mgrwt>
<rscale>  0 0.97645352E+03</rscale>
<asrwt>0</asrwt>
<pdfrwt beam="1">  1        2 0.23237467E+00 0.97645352E+03</pdfrwt>
<pdfrwt beam="2">  1       -2 0.10131537E+00 0.97645352E+03</pdfrwt>
<totfact> 0.10005425E+01</totfact>
</mgrwt>
</event>
<event>
 4    1  0.1726795E-008  0.3206475E+03  0.7818608E-02  0.1075352E+00
         -2   -1    0    0    0  501 -0.00000000000E+00  0.00000000000E+00  0.65134826683E+03  0.65134826683E+03  0.25500000000E-02 0.  1.
          2   -1    0    0  501    0  0.00000000000E+00 -0.00000000000E+00 -0.92831316696E+03  0.92831316696E+03  0.25500000000E-02 0. -1.
    8880022    1    1    2    0    0 -0.13284115424E+03  0.24854854714E+03 -0.85803568414E+03  0.91599128862E+03  0.15294330000E+03 0.  0.
    8880022    1    1    2    0    0  0.13284115424E+03 -0.24854854714E+03  0.58107078401E+03  0.66367014518E+03  0.15294330000E+03 0.  0.
<mgrwt>
<rscale>  0 0.32064748E+03</rscale>
<asrwt>0</asrwt>
<pdfrwt beam="1">  1        2 0.14281741E+00 0.32064748E+03</pdfrwt>
<pdfrwt beam="2">  1       -2 0.10020743E+00 0.32064748E+03</pdfrwt>
<totfact> 0.24954523E+01</totfact>
</mgrwt>
</event>
<event>
 4    1  0.1726795E-008  0.1209418E+04  0.7818608E-02  0.9104652E-01
          2   -1    0    0  501    0  0.00000000000E+00  0.00000000000E+00  0.94355802797E+03  0.94355802797E+03  0.25500000000E-02 0. -1.
         -2   -1    0    0    0  501 -0.00000000000E+00 -0.00000000000E+00 -0.20545139999E+04  0.20545139999E+04  0.25500000000E-02 0.  1.
    8880022    1    1    2    0    0  0.38068552409E+03 -0.11377080746E+04 -0.12981772390E+04  0.17742482713E+04  0.15294330000E+03 0.  0.
    8880022    1    1    2    0    0 -0.38068552409E+03  0.11377080746E+04  0.18722126706E+03  0.12238237566E+04  0.15294330000E+03 0.  0.
<mgrwt>
<rscale>  0 0.12094184E+04</rscale>
<asrwt>0</asrwt>
<pdfrwt beam="1">  1        2 0.14516277E+00 0.12094184E+04</pdfrwt>
<pdfrwt beam="2">  1       -2 0.31607908E+00 0.12094184E+04</pdfrwt>
<totfact> 0.67964051E-01</totfact>
</mgrwt>
</event>
<event>
 4    1  0.1726795E-008  0.1634369E+04  0.7818608E-02  0.8799708E-01
          2   -1    0    0  501    0  0.00000000000E+00  0.00000000000E+00  0.45464487803E+04  0.45464487803E+04  0.25500000000E-02 0. -1.
         -2   -1    0    0    0  501 -0.00000000000E+00 -0.00000000000E+00 -0.15931941383E+04  0.15931941383E+04  0.25500000000E-02 0.  1.
    8880022    1    1    2    0    0  0.47341682041E+03  0.15568068540E+04  0.39155938212E+04  0.42429986674E+04  0.15294330000E+03 0.  0.
    8880022    1    1    2    0    0 -0.47341682041E+03 -0.15568068540E+04 -0.96233917917E+03  0.18966442511E+04  0.15294330000E+03 0.  0.
<mgrwt>
<rscale>  0 0.16343692E+04</rscale>
<asrwt>0</asrwt>
<pdfrwt beam="1">  1        2 0.69945366E+00 0.16343692E+04</pdfrwt>
<pdfrwt beam="2">  1       -2 0.24510679E+00 0.16343692E+04</pdfrwt>
<totfact> 0.71974913E-03</totfact>
</mgrwt>
</event>
<event>
 4    1  0.1726795E-008  0.1098265E+04  0.7818608E-02  0.9206885E-01
          2   -1    0    0  501    0  0.00000000000E+00  0.00000000000E+00  0.14772059544E+04  0.14772059544E+04  0.25500000000E-02 0. -1.
         -2   -1    0    0    0  501 -0.00000000000E+00 -0.00000000000E+00 -0.13391985840E+04  0.13391985840E+04  0.25500000000E-02 0.  1.
    8880022    1    1    2    0    0 -0.16210545328E+03 -0.10754144253E+04  0.94874480700E+03  0.14513106924E+04  0.15294330000E+03 0.  0.
    8880022    1    1    2    0    0  0.16210545328E+03  0.10754144253E+04 -0.81073743662E+03  0.13650938460E+04  0.15294330000E+03 0.  0.
<mgrwt>
<rscale>  0 0.10982650E+04</rscale>
<asrwt>0</asrwt>
<pdfrwt beam="1">  1        2 0.22726245E+00 0.10982650E+04</pdfrwt>
<pdfrwt beam="2">  1       -2 0.20603055E+00 0.10982650E+04</pdfrwt>
<totfact> 0.15591494E+00</totfact>
</mgrwt>
</event>
<event>
 4    1  0.1726795E-008  0.7648342E+03  0.7818608E-02  0.9612361E-01
          2   -1    0    0  501    0  0.00000000000E+00  0.00000000000E+00  0.14753312010E+04  0.14753312010E+04  0.25500000000E-02 0. -1.
         -2   -1    0    0    0  501 -0.00000000000E+00 -0.00000000000E+00 -0.45386515055E+03  0.45386515056E+03  0.25500000000E-02 0.  1.
    8880022    1    1    2    0    0 -0.28778888284E+03  0.69192286558E+03  0.16780687157E+03  0.78302649518E+03  0.15294330000E+03 0.  0.
    8880022    1    1    2    0    0  0.28778888284E+03 -0.69192286558E+03  0.85365917890E+03  0.11461698564E+04  0.15294330000E+03 0.  0.
<mgrwt>
<rscale>  0 0.76483420E+03</rscale>
<asrwt>0</asrwt>
<pdfrwt beam="1">  1        2 0.22697403E+00 0.76483420E+03</pdfrwt>
<pdfrwt beam="2">  1       -2 0.69825408E-01 0.76483420E+03</pdfrwt>
<totfact> 0.25026816E+01</totfact>
</mgrwt>
</event>
<event>
 4    1  0.1726795E-008  0.6139647E+03  0.7818608E-02  0.9876850E-01
          2   -1    0    0  501    0  0.00000000000E+00  0.00000000000E+00  0.90728054874E+03  0.90728054874E+03  0.25500000000E-02 0. -1.
         -2   -1    0    0    0  501 -0.00000000000E+00 -0.00000000000E+00 -0.57905383060E+03  0.57905383060E+03  0.25500000000E-02 0.  1.
    8880022    1    1    2    0    0 -0.47173532056E+03 -0.36197627439E+03  0.55910705513E+03  0.83039351394E+03  0.15294330000E+03 0.  0.
    8880022    1    1    2    0    0  0.47173532056E+03  0.36197627439E+03 -0.23088033699E+03  0.65594086540E+03  0.15294330000E+03 0.  1.
<mgrwt>
<rscale>  0 0.61396473E+03</rscale>
<asrwt>0</asrwt>
<pdfrwt beam="1">  1        2 0.13958162E+00 0.61396473E+03</pdfrwt>
<pdfrwt beam="2">  1       -2 0.89085205E-01 0.61396473E+03</pdfrwt>
<totfact> 0.32285067E+01</totfact>
</mgrwt>
</event>
<event>
 4    1  0.1726795E-008  0.4255083E+03  0.7818608E-02  0.1035288E+00
         -2   -1    0    0    0  501 -0.00000000000E+00  0.00000000000E+00  0.10516113217E+03  0.10516113220E+03  0.25500000000E-02 0.  1.
          2   -1    0    0  501    0  0.00000000000E+00 -0.00000000000E+00 -0.27182361725E+04  0.27182361725E+04  0.25500000000E-02 0. -1.
    8880022    1    1    2    0    0  0.27460213548E+03  0.28680886814E+03 -0.21612933214E+04  0.22027814539E+04  0.15294330000E+03 0.  0.
    8880022    1    1    2    0    0 -0.27460213548E+03 -0.28680886814E+03 -0.45178171893E+03  0.62061585077E+03  0.15294330000E+03 0.  0.
<mgrwt>
<rscale>  0 0.42550830E+03</rscale>
<asrwt>0</asrwt>
<pdfrwt beam="1">  1        2 0.41819013E+00 0.42550830E+03</pdfrwt>
<pdfrwt beam="2">  1       -2 0.16178638E-01 0.42550830E+03</pdfrwt>
<totfact> 0.88033763E+01</totfact>
</mgrwt>
</event>
<event>
 4    1  0.1726795E-008  0.2796322E+03  0.7818608E-02  0.1095890E+00
         -2   -1    0    0    0  501 -0.00000000000E+00  0.00000000000E+00  0.85192048119E+03  0.85192048120E+03  0.25500000000E-02 0.  1.
          2   -1    0    0  501    0  0.00000000000E+00 -0.00000000000E+00 -0.88588415186E+03  0.88588415187E+03  0.25500000000E-02 0. -1.
    8880022    1    1    2    0    0  0.18795823887E+03  0.13955003548E+03  0.80567677648E+03  0.85282426861E+03  0.15294330000E+03 0.  0.
    8880022    1    1    2    0    0 -0.18795823887E+03 -0.13955003548E+03 -0.83964044715E+03  0.88498036445E+03  0.15294330000E+03 0.  0.
<mgrwt>
<rscale>  0 0.27963220E+03</rscale>
<asrwt>0</asrwt>
<pdfrwt beam="1">  1        2 0.13628987E+00 0.27963220E+03</pdfrwt>
<pdfrwt beam="2">  1       -2 0.13106469E+00 0.27963220E+03</pdfrwt>
<totfact> 0.14061215E+01</totfact>
</mgrwt>
</event>
<event>
 4    1  0.1726795E-008  0.3342244E+03  0.7818608E-02  0.1069283E+00
          2   -1    0    0  501    0  0.00000000000E+00  0.00000000000E+00  0.18507474658E+04  0.18507474658E+04  0.25500000000E-02 0. -1.
         -2   -1    0    0    0  501 -0.00000000000E+00 -0.00000000000E+00 -0.26513243968E+03  0.26513243969E+03  0.25500000000E-02 0.  1.
    8880022    1    1    2    0    0 -0.28341378792E+03  0.89391910167E+02  0.17225620407E+04  0.17546868455E+04  0.15294330000E+03 0.  0.
    8880022    1    1    2    0    0  0.28341378792E+03 -0.89391910167E+02 -0.13694701454E+03  0.36119306000E+03  0.15294330000E+03 0.  1.
<mgrwt>
<rscale>  0 0.33422439E+03</rscale>
<asrwt>0</asrwt>
<pdfrwt beam="1">  1        2 0.28473037E+00 0.33422439E+03</pdfrwt>
<pdfrwt beam="2">  1       -2 0.40789608E-01 0.33422439E+03</pdfrwt>
<totfact> 0.50795075E+01</totfact>
</mgrwt>
</event>
<event>
 4    1  0.1726795E-008  0.9390925E+03  0.7818608E-02  0.9377991E-01
         -2   -1    0    0    0  501 -0.00000000000E+00  0.00000000000E+00  0.50160047641E+03  0.50160047642E+03  0.25500000000E-02 0.  1.
          2   -1    0    0  501    0  0.00000000000E+00 -0.00000000000E+00 -0.33545160277E+04  0.33545160277E+04  0.25500000000E-02 0. -1.
    8880022    1    1    2    0    0  0.89342909262E+03 -0.24553512589E+03 -0.27565136217E+04  0.29120889481E+04  0.15294330000E+03 0.  0.
    8880022    1    1    2    0    0 -0.89342909262E+03  0.24553512589E+03 -0.96401929574E+02  0.94402755608E+03  0.15294330000E+03 0.  0.
<mgrwt>
<rscale>  0 0.93909248E+03</rscale>
<asrwt>0</asrwt>
<pdfrwt beam="1">  1        2 0.51607938E+00 0.93909248E+03</pdfrwt>
<pdfrwt beam="2">  1       -2 0.77169306E-01 0.93909248E+03</pdfrwt>
<totfact> 0.15983875E+00</totfact>
</mgrwt>
</event>
<event>
 4    1  0.1726795E-008  0.8340534E+03  0.7818608E-02  0.9511993E-01
         -2   -1    0    0    0  501 -0.00000000000E+00  0.00000000000E+00  0.66238264433E+03  0.66238264433E+03  0.25500000000E-02 0.  1.
          2   -1    0    0  501    0  0.00000000000E+00 -0.00000000000E+00 -0.22264472521E+04  0.22264472521E+04  0.25500000000E-02 0. -1.
    8880022    1    1    2    0    0 -0.79998114591E+03  0.17967650968E+03  0.26782928631E+03  0.87600094838E+03  0.15294330000E+03 0.  0.
    8880022    1    1    2    0    0  0.79998114591E+03 -0.17967650968E+03 -0.18318938941E+04  0.20128289480E+04  0.15294330000E+03 0.  0.
<mgrwt>
<rscale>  0 0.83405344E+03</rscale>
<asrwt>0</asrwt>
<pdfrwt beam="1">  1        2 0.34253034E+00 0.83405344E+03</pdfrwt>
<pdfrwt beam="2">  1       -2 0.10190502E+00 0.83405344E+03</pdfrwt>
<totfact> 0.40493941E+00</totfact>
</mgrwt>
</event>
<event>
 4    1  0.1726795E-008  0.8697532E+03  0.7818608E-02  0.9464202E-01
         -2   -1    0    0    0  501 -0.00000000000E+00  0.00000000000E+00  0.24614035575E+03  0.24614035576E+03  0.25500000000E-02 0.  1.
          2   -1    0    0  501    0  0.00000000000E+00 -0.00000000000E+00 -0.34176279570E+04  0.34176279570E+04  0.25500000000E-02 0. -1.
    8880022    1    1    2    0    0  0.77327801429E+03 -0.36758685668E+03 -0.10043069057E+04  0.13285717890E+04  0.15294330000E+03 0.  0.
    8880022    1    1    2    0    0 -0.77327801429E+03  0.36758685668E+03 -0.21671806955E+04  0.23351965238E+04  0.15294330000E+03 0.  0.
<mgrwt>
<rscale>  0 0.86975320E+03</rscale>
<asrwt>0</asrwt>
<pdfrwt beam="1">  1        2 0.52578888E+00 0.86975320E+03</pdfrwt>
<pdfrwt beam="2">  1       -2 0.37867750E-01 0.86975320E+03</pdfrwt>
<totfact> 0.64427223E+00</totfact>
</mgrwt>
</event>
<event>
 4    1  0.1726795E-008  0.8601471E+03  0.7818608E-02  0.9476818E-01
          2   -1    0    0  501    0  0.00000000000E+00  0.00000000000E+00  0.24594003899E+04  0.24594003899E+04  0.25500000000E-02 0. -1.
         -2   -1    0    0    0  501 -0.00000000000E+00 -0.00000000000E+00 -0.39249439201E+03  0.39249439202E+03  0.25500000000E-02 0.  1.
    8880022    1    1    2    0    0 -0.58852048817E+03  0.60836253450E+03  0.17225735852E+04  0.19253863892E+04  0.15294330000E+03 0.  0.
    8880022    1    1    2    0    0  0.58852048817E+03 -0.60836253450E+03  0.34433241278E+03  0.92650839278E+03  0.15294330000E+03 0.  0.
<mgrwt>
<rscale>  0 0.86014708E+03</rscale>
<asrwt>0</asrwt>
<pdfrwt beam="1">  1        2 0.37836929E+00 0.86014708E+03</pdfrwt>
<pdfrwt beam="2">  1       -2 0.60383753E-01 0.86014708E+03</pdfrwt>
<totfact> 0.96692186E+00</totfact>
</mgrwt>
</event>
<event>
 4    1  0.1726795E-008  0.5397660E+03  0.7818608E-02  0.1003891E+00
         -2   -1    0    0    0  501 -0.00000000000E+00  0.00000000000E+00  0.79847743664E+03  0.79847743665E+03  0.25500000000E-02 0.  1.
          2   -1    0    0  501    0  0.00000000000E+00 -0.00000000000E+00 -0.44909803746E+03  0.44909803746E+03  0.25500000000E-02 0. -1.
    8880022    1    1    2    0    0 -0.56216196110E+02 -0.51458279839E+03  0.44481937096E+03  0.69943666110E+03  0.15294330000E+03 0.  1.
    8880022    1    1    2    0    0  0.56216196110E+02  0.51458279839E+03 -0.95439971772E+02  0.54813881301E+03  0.15294330000E+03 0.  0.
<mgrwt>
<rscale>  0 0.53976603E+03</rscale>
<asrwt>0</asrwt>
<pdfrwt beam="1">  1        2 0.69092006E-01 0.53976603E+03</pdfrwt>
<pdfrwt beam="2">  1       -2 0.12284268E+00 0.53976603E+03</pdfrwt>
<totfact> 0.35958724E+01</totfact>
</mgrwt>
</event>
<event>
 4    1  0.1726795E-008  0.4832027E+03  0.7818608E-02  0.1018259E+00
          2   -1    0    0  501    0  0.00000000000E+00  0.00000000000E+00  0.16889037158E+04  0.16889037158E+04  0.25500000000E-02 0. -1.
         -2   -1    0    0    0  501 -0.00000000000E+00 -0.00000000000E+00 -0.26010681250E+03  0.26010681251E+03  0.25500000000E-02 0.  1.
    8880022    1    1    2    0    0 -0.29367490107E+03 -0.35192079200E+03  0.47377212320E+02  0.48551976749E+03  0.15294330000E+03 0.  0.
    8880022    1    1    2    0    0  0.29367490107E+03  0.35192079200E+03  0.13814196910E+04  0.14634907608E+04  0.15294330000E+03 0. -1.
<mgrwt>
<rscale>  0 0.48320269E+03</rscale>
<asrwt>0</asrwt>
<pdfrwt beam="1">  1        2 0.25983133E+00 0.48320269E+03</pdfrwt>
<pdfrwt beam="2">  1       -2 0.40016435E-01 0.48320269E+03</pdfrwt>
<totfact> 0.62338912E+01</totfact>
</mgrwt>
</event>
<event>
 4    1  0.1726795E-008  0.1803139E+04  0.7818608E-02  0.8704632E-01
         -2   -1    0    0    0  501 -0.00000000000E+00  0.00000000000E+00  0.14499360923E+04  0.14499360923E+04  0.25500000000E-02 0.  1.
          2   -1    0    0  501    0  0.00000000000E+00 -0.00000000000E+00 -0.23309906162E+04  0.23309906162E+04  0.25500000000E-02 0. -1.
    8880022    1    1    2    0    0 -0.11783893141E+04  0.13562140636E+04 -0.80911224186E+03  0.19763532667E+04  0.15294330000E+03 0.  0.
    8880022    1    1    2    0    0  0.11783893141E+04 -0.13562140636E+04 -0.71942282104E+02  0.18045734418E+04  0.15294330000E+03 0.  0.
<mgrwt>
<rscale>  0 0.18031388E+04</rscale>
<asrwt>0</asrwt>
<pdfrwt beam="1">  1        2 0.35861394E+00 0.18031388E+04</pdfrwt>
<pdfrwt beam="2">  1       -2 0.22306709E+00 0.18031388E+04</pdfrwt>
<totfact> 0.37424791E-01</totfact>
</mgrwt>
</event>
<event>
 4    1  0.1726795E-008  0.6188745E+03  0.7818608E-02  0.9867003E-01
         -2   -1    0    0    0  501 -0.00000000000E+00  0.00000000000E+00  0.81844466344E+03  0.81844466344E+03  0.25500000000E-02 0.  1.
          2   -1    0    0  501    0  0.00000000000E+00 -0.00000000000E+00 -0.69434941557E+03  0.69434941557E+03  0.25500000000E-02 0. -1.
    8880022    1    1    2    0    0 -0.46216969430E+03 -0.38211662343E+03 -0.36985072391E+03  0.72096820403E+03  0.15294330000E+03 0.  0.
    8880022    1    1    2    0    0  0.46216969430E+03  0.38211662343E+03  0.49394597178E+03  0.79182587498E+03  0.15294330000E+03 0.  0.
<mgrwt>
<rscale>  0 0.61887446E+03</rscale>
<asrwt>0</asrwt>
<pdfrwt beam="1">  1        2 0.10682299E+00 0.61887446E+03</pdfrwt>
<pdfrwt beam="2">  1       -2 0.12591456E+00 0.61887446E+03</pdfrwt>
<totfact> 0.20028271E+01</totfact>
</mgrwt>
</event>
<event>
 4    1  0.1726795E-008  0.1032390E+04  0.7818608E-02  0.9273716E-01
          2   -1    0    0  501    0  0.00000000000E+00  0.00000000000E+00  0.15136721874E+04  0.15136721874E+04  0.25500000000E-02 0. -1.
         -2   -1    0    0    0  501 -0.00000000000E+00 -0.00000000000E+00 -0.11885712678E+04  0.11885712678E+04  0.25500000000E-02 0.  1.
    8880022    1    1    2    0    0 -0.60704033390E+03  0.82093816362E+03  0.10251323388E+04  0.14548970412E+04  0.15294330000E+03 0.  0.
    8880022    1    1    2    0    0  0.60704033390E+03 -0.82093816362E+03 -0.70003141929E+03  0.12473464140E+04  0.15294330000E+03 0.  0.
<mgrwt>
<rscale>  0 0.10323900E+04</rscale>
<asrwt>0</asrwt>
<pdfrwt beam="1">  1        2 0.23287264E+00 0.10323900E+04</pdfrwt>
<pdfrwt beam="2">  1       -2 0.18285712E+00 0.10323900E+04</pdfrwt>
<totfact> 0.21370634E+00</totfact>
</mgrwt>
</event>
<event>
 4    1  0.1726795E-008  0.6122099E+03  0.7818608E-02  0.9880393E-01
         -2   -1    0    0    0  501 -0.00000000000E+00  0.00000000000E+00  0.10755382149E+03  0.10755382153E+03  0.25500000000E-02 0.  1.
          2   -1    0    0  501    0  0.00000000000E+00 -0.00000000000E+00 -0.42196919069E+04  0.42196919069E+04  0.25500000000E-02 0. -1.
    8880022    1    1    2    0    0 -0.25703170034E+03  0.53417599482E+03 -0.29590115724E+04  0.30216800669E+04  0.15294330000E+03 0.  0.
    8880022    1    1    2    0    0  0.25703170034E+03 -0.53417599482E+03 -0.11531265131E+04  0.13055656615E+04  0.15294330000E+03 0.  0.
<mgrwt>
<rscale>  0 0.61220988E+03</rscale>
<asrwt>0</asrwt>
<pdfrwt beam="1">  1        2 0.64918324E+00 0.61220988E+03</pdfrwt>
<pdfrwt beam="2">  1       -2 0.16546745E-01 0.61220988E+03</pdfrwt>
<totfact> 0.76268327E+00</totfact>
</mgrwt>
</event>
<event>
 4    1  0.1726795E-008  0.4899074E+03  0.7818608E-02  0.1016447E+00
          2   -1    0    0  501    0  0.00000000000E+00  0.00000000000E+00  0.89152887034E+03  0.89152887035E+03  0.25500000000E-02 0. -1.
         -2   -1    0    0    0  501 -0.00000000000E+00 -0.00000000000E+00 -0.29107236120E+03  0.29107236121E+03  0.25500000000E-02 0.  1.
    8880022    1    1    2    0    0  0.41963342623E+03  0.20130930793E+03  0.46227760395E+03  0.67357990320E+03  0.15294330000E+03 0.  0.
    8880022    1    1    2    0    0 -0.41963342623E+03 -0.20130930793E+03  0.13817890519E+03  0.50902132836E+03  0.15294330000E+03 0.  0.
<mgrwt>
<rscale>  0 0.48990744E+03</rscale>
<asrwt>0</asrwt>
<pdfrwt beam="1">  1        2 0.13715829E+00 0.48990744E+03</pdfrwt>
<pdfrwt beam="2">  1       -2 0.44780363E-01 0.48990744E+03</pdfrwt>
<totfact> 0.14495180E+02</totfact>
</mgrwt>
</event>
<event>
 4    1  0.1726795E-008  0.1200809E+04  0.7818608E-02  0.9112148E-01
          2   -1    0    0  501    0  0.00000000000E+00  0.00000000000E+00  0.79894559217E+03  0.79894559217E+03  0.25500000000E-02 0. -1.
         -2   -1    0    0    0  501 -0.00000000000E+00 -0.00000000000E+00 -0.18964137004E+04  0.18964137004E+04  0.25500000000E-02 0.  1.
    8880022    1    1    2    0    0 -0.10558642174E+04  0.55109192698E+03 -0.25253618629E+03  0.12270769072E+04  0.15294330000E+03 0.  0.
    8880022    1    1    2    0    0  0.10558642174E+04 -0.55109192698E+03 -0.84493192199E+03  0.14682823855E+04  0.15294330000E+03 0.  0.
<mgrwt>
<rscale>  0 0.12008094E+04</rscale>
<asrwt>0</asrwt>
<pdfrwt beam="1">  1        2 0.12291471E+00 0.12008094E+04</pdfrwt>
<pdfrwt beam="2">  1       -2 0.29175595E+00 0.12008094E+04</pdfrwt>
<totfact> 0.12068907E+00</totfact>
</mgrwt>
</event>
<event>
 4    1  0.1726795E-008  0.1665168E+04  0.7818608E-02  0.8781484E-01
         -2   -1    0    0    0  501 -0.00000000000E+00  0.00000000000E+00  0.85688694442E+03  0.85688694442E+03  0.25500000000E-02 0.  1.
          2   -1    0    0  501    0  0.00000000000E+00 -0.00000000000E+00 -0.32854031691E+04  0.32854031691E+04  0.25500000000E-02 0. -1.
    8880022    1    1    2    0    0 -0.16266383304E+04 -0.32162086724E+03 -0.14685412089E+04  0.22202245777E+04  0.15294330000E+03 0.  0.
    8880022    1    1    2    0    0  0.16266383304E+04  0.32162086724E+03 -0.95997501582E+03  0.19220655359E+04  0.15294330000E+03 0.  0.
<mgrwt>
<rscale>  0 0.16651678E+04</rscale>
<asrwt>0</asrwt>
<pdfrwt beam="1">  1        2 0.50544663E+00 0.16651678E+04</pdfrwt>
<pdfrwt beam="2">  1       -2 0.13182876E+00 0.16651678E+04</pdfrwt>
<totfact> 0.44696078E-01</totfact>
</mgrwt>
</event>
<event>
 4    1  0.1726795E-008  0.1439179E+04  0.7818608E-02  0.8925937E-01
          2   -1    0    0  501    0  0.00000000000E+00  0.00000000000E+00  0.23085000985E+04  0.23085000985E+04  0.25500000000E-02 0. -1.
         -2   -1    0    0    0  501 -0.00000000000E+00 -0.00000000000E+00 -0.10231734269E+04  0.10231734269E+04  0.25500000000E-02 0.  1.
    8880022    1    1    2    0    0 -0.14038626177E+04 -0.27751369310E+03  0.58195858427E+02  0.14403549945E+04  0.15294330000E+03 0.  0.
    8880022    1    1    2    0    0  0.14038626177E+04  0.27751369310E+03  0.12271308132E+04  0.18913185308E+04  0.15294330000E+03 0.  0.
<mgrwt>
<rscale>  0 0.14391788E+04</rscale>
<asrwt>0</asrwt>
<pdfrwt beam="1">  1        2 0.35515386E+00 0.14391788E+04</pdfrwt>
<pdfrwt beam="2">  1       -2 0.15741130E+00 0.14391788E+04</pdfrwt>
<totfact> 0.11206262E+00</totfact>
</mgrwt>
</event>
<event>
 4    1  0.1726795E-008  0.1643616E+04  0.7818608E-02  0.8794192E-01
          2   -1    0    0  501    0  0.00000000000E+00  0.00000000000E+00  0.15097812806E+04  0.15097812806E+04  0.25500000000E-02 0. -1.
         -2   -1    0    0    0  501 -0.00000000000E+00 -0.00000000000E+00 -0.20623234480E+04  0.20623234480E+04  0.25500000000E-02 0.  1.
    8880022    1    1    2    0    0  0.16325124813E+04 -0.11395095521E+03  0.37356567095E+03  0.16855339763E+04  0.15294330000E+03 0.  0.
    8880022    1    1    2    0    0 -0.16325124813E+04  0.11395095521E+03 -0.92610783831E+03  0.18865707522E+04  0.15294330000E+03 0.  0.
<mgrwt>
<rscale>  0 0.16436160E+04</rscale>
<asrwt>0</asrwt>
<pdfrwt beam="1">  1        2 0.23227404E+00 0.16436160E+04</pdfrwt>
<pdfrwt beam="2">  1       -2 0.31728053E+00 0.16436160E+04</pdfrwt>
<totfact> 0.28919609E-01</totfact>
</mgrwt>
</event>
<event>
 4    1  0.1726795E-008  0.8641716E+03  0.7818608E-02  0.9471511E-01
         -2   -1    0    0    0  501 -0.00000000000E+00  0.00000000000E+00  0.98081816850E+03  0.98081816850E+03  0.25500000000E-02 0.  1.
          2   -1    0    0  501    0  0.00000000000E+00 -0.00000000000E+00 -0.11583832951E+04  0.11583832951E+04  0.25500000000E-02 0. -1.
    8880022    1    1    2    0    0 -0.79854458320E+03  0.29279249863E+03 -0.71493922302E+03  0.11215750729E+04  0.15294330000E+03 0.  0.
    8880022    1    1    2    0    0  0.79854458320E+03 -0.29279249863E+03  0.53737409637E+03  0.10176263907E+04  0.15294330000E+03 0.  0.
<mgrwt>
<rscale>  0 0.86417160E+03</rscale>
<asrwt>0</asrwt>
<pdfrwt beam="1">  1        2 0.17821281E+00 0.86417160E+03</pdfrwt>
<pdfrwt beam="2">  1       -2 0.15089510E+00 0.86417160E+03</pdfrwt>
<totfact> 0.59537215E+00</totfact>
</mgrwt>
</event>
<event>
 4    1  0.1726795E-008  0.5705973E+03  0.7818608E-02  0.9968358E-01
          2   -1    0    0  501    0  0.00000000000E+00  0.00000000000E+00  0.92973361617E+03  0.92973361617E+03  0.25500000000E-02 0. -1.
         -2   -1    0    0    0  501 -0.00000000000E+00 -0.00000000000E+00 -0.78444791008E+03  0.78444791009E+03  0.25500000000E-02 0.  1.
    8880022    1    1    2    0    0 -0.53596725107E+03 -0.12218316409E+03  0.71034779221E+03  0.91113953856E+03  0.15294330000E+03 0.  0.
    8880022    1    1    2    0    0  0.53596725107E+03  0.12218316409E+03 -0.56506208613E+03  0.80304198770E+03  0.15294330000E+03 0.  0.
<mgrwt>
<rscale>  0 0.57059729E+03</rscale>
<asrwt>0</asrwt>
<pdfrwt beam="1">  1        2 0.14303594E+00 0.57059729E+03</pdfrwt>
<pdfrwt beam="2">  1       -2 0.12068429E+00 0.57059729E+03</pdfrwt>
<totfact> 0.15231787E+01</totfact>
</mgrwt>
</event>
<event>
 4    1  0.1726795E-008  0.6224418E+03  0.7818608E-02  0.9859910E-01
          2   -1    0    0  501    0  0.00000000000E+00  0.00000000000E+00  0.93254382016E+03  0.93254382016E+03  0.25500000000E-02 0. -1.
         -2   -1    0    0    0  501 -0.00000000000E+00 -0.00000000000E+00 -0.11914780023E+04  0.11914780023E+04  0.25500000000E-02 0.  1.
    8880022    1    1    2    0    0  0.58506253887E+03  0.14745821783E+03  0.72761443318E+03  0.95752624862E+03  0.15294330000E+03 0.  0.
    8880022    1    1    2    0    0 -0.58506253887E+03 -0.14745821783E+03 -0.98654861531E+03  0.11664955738E+04  0.15294330000E+03 0.  0.
<mgrwt>
<rscale>  0 0.62244177E+03</rscale>
<asrwt>0</asrwt>
<pdfrwt beam="1">  1        2 0.14346828E+00 0.62244177E+03</pdfrwt>
<pdfrwt beam="2">  1       -2 0.18330431E+00 0.62244177E+03</pdfrwt>
<totfact> 0.49928819E+00</totfact>
</mgrwt>
</event>
<event>
 4    1  0.1726795E-008  0.5387937E+03  0.7818608E-02  0.1004122E+00
          2   -1    0    0  501    0  0.00000000000E+00  0.00000000000E+00  0.63964912973E+03  0.63964912974E+03  0.25500000000E-02 0. -1.
         -2   -1    0    0    0  501 -0.00000000000E+00 -0.00000000000E+00 -0.12289736810E+04  0.12289736811E+04  0.25500000000E-02 0.  1.
    8880022    1    1    2    0    0  0.51564114365E+03 -0.31956792195E+02 -0.10366701673E+04  0.11683251749E+04  0.15294330000E+03 0.  0.
    8880022    1    1    2    0    0 -0.51564114365E+03  0.31956792195E+02  0.44734561601E+03  0.70029763584E+03  0.15294330000E+03 0.  0.
<mgrwt>
<rscale>  0 0.53879373E+03</rscale>
<asrwt>0</asrwt>
<pdfrwt beam="1">  1        2 0.98407559E-01 0.53879373E+03</pdfrwt>
<pdfrwt beam="2">  1       -2 0.18907287E+00 0.53879373E+03</pdfrwt>
<totfact> 0.75654225E+00</totfact>
</mgrwt>
</event>
<event>
 4    1  0.1726795E-008  0.8912669E+03  0.7818608E-02  0.9436565E-01
         -2   -1    0    0    0  501 -0.00000000000E+00  0.00000000000E+00  0.51944397641E+03  0.51944397642E+03  0.25500000000E-02 0.  1.
          2   -1    0    0  501    0  0.00000000000E+00 -0.00000000000E+00 -0.20130304216E+04  0.20130304216E+04  0.25500000000E-02 0. -1.
    8880022    1    1    2    0    0 -0.52958096145E+03 -0.70036344416E+03 -0.13675432126E+04  0.16323391314E+04  0.15294330000E+03 0.  0.
    8880022    1    1    2    0    0  0.52958096145E+03  0.70036344416E+03 -0.12604323257E+03  0.90013526658E+03  0.15294330000E+03 0.  0.
<mgrwt>
<rscale>  0 0.89126685E+03</rscale>
<asrwt>0</asrwt>
<pdfrwt beam="1">  1        2 0.30969698E+00 0.89126685E+03</pdfrwt>
<pdfrwt beam="2">  1       -2 0.79914459E-01 0.89126685E+03</pdfrwt>
<totfact> 0.92456013E+00</totfact>
</mgrwt>
</event>
<event>
 4    1  0.1726795E-008  0.1193822E+04  0.7818608E-02  0.9118282E-01
          2   -1    0    0  501    0  0.00000000000E+00  0.00000000000E+00  0.22362289637E+04  0.22362289637E+04  0.25500000000E-02 0. -1.
         -2   -1    0    0    0  501 -0.00000000000E+00 -0.00000000000E+00 -0.86667812513E+03  0.86667812514E+03  0.25500000000E-02 0.  1.
    8880022    1    1    2    0    0 -0.14014391321E+02  0.11839013030E+04  0.14828799286E+04  0.19037182655E+04  0.15294330000E+03 0.  0.
    8880022    1    1    2    0    0  0.14014391321E+02 -0.11839013030E+04 -0.11332909004E+03  0.11991888234E+04  0.15294330000E+03 0.  0.
<mgrwt>
<rscale>  0 0.11938217E+04</rscale>
<asrwt>0</asrwt>
<pdfrwt beam="1">  1        2 0.34403523E+00 0.11938217E+04</pdfrwt>
<pdfrwt beam="2">  1       -2 0.13333510E+00 0.11938217E+04</pdfrwt>
<totfact> 0.19605927E+00</totfact>
</mgrwt>
</event>
<event>
 4    1  0.1726795E-008  0.2509596E+04  0.7818608E-02  0.8399575E-01
          2   -1    0    0  501    0  0.00000000000E+00  0.00000000000E+00  0.31157317663E+04  0.31157317663E+04  0.25500000000E-02 0. -1.
         -2   -1    0    0    0  501 -0.00000000000E+00 -0.00000000000E+00 -0.22352877105E+04  0.22352877105E+04  0.25500000000E-02 0.  1.
    8880022    1    1    2    0    0  0.17462747132E+04  0.17958861928E+04 -0.38744227480E+03  0.25393278167E+04  0.15294330000E+03 0.  0.
    8880022    1    1    2    0    0 -0.17462747132E+04 -0.17958861928E+04  0.12678863306E+04  0.28116916601E+04  0.15294330000E+03 0.  0.
<mgrwt>
<rscale>  0 0.25095964E+04</rscale>
<asrwt>0</asrwt>
<pdfrwt beam="1">  1        2 0.47934335E+00 0.25095964E+04</pdfrwt>
<pdfrwt beam="2">  1       -2 0.34389041E+00 0.25095964E+04</pdfrwt>
<totfact> 0.20941463E-02</totfact>
</mgrwt>
</event>
<event>
 4    1  0.1726795E-008  0.1112136E+04  0.7818608E-02  0.9193443E-01
          2   -1    0    0  501    0  0.00000000000E+00  0.00000000000E+00  0.20119520274E+04  0.20119520274E+04  0.25500000000E-02 0. -1.
         -2   -1    0    0    0  501 -0.00000000000E+00 -0.00000000000E+00 -0.94581047350E+03  0.94581047350E+03  0.25500000000E-02 0.  1.
    8880022    1    1    2    0    0  0.44088929913E+03 -0.10094908887E+04 -0.34188300746E+03  0.11634994079E+04  0.15294330000E+03 0.  0.
    8880022    1    1    2    0    0 -0.44088929913E+03  0.10094908887E+04  0.14080245614E+04  0.17942630930E+04  0.15294330000E+03 0.  0.
<mgrwt>
<rscale>  0 0.11121362E+04</rscale>
<asrwt>0</asrwt>
<pdfrwt beam="1">  1        2 0.30953108E+00 0.11121362E+04</pdfrwt>
<pdfrwt beam="2">  1       -2 0.14550930E+00 0.11121362E+04</pdfrwt>
<totfact> 0.21015783E+00</totfact>
</mgrwt>
</event>
<event>
 4    1  0.1726795E-008  0.4197680E+03  0.7818608E-02  0.1037142E+00
          2   -1    0    0  501    0  0.00000000000E+00  0.00000000000E+00  0.20343643470E+04  0.20343643470E+04  0.25500000000E-02 0. -1.
         -2   -1    0    0    0  501 -0.00000000000E+00 -0.00000000000E+00 -0.64631231149E+03  0.64631231150E+03  0.25500000000E-02 0.  1.
    8880022    1    1    2    0    0  0.28936045253E+03 -0.26283840884E+03 -0.55327157389E+03  0.69448872427E+03  0.15294330000E+03 0.  0.
    8880022    1    1    2    0    0 -0.28936045253E+03  0.26283840884E+03  0.19413236094E+04  0.19861879342E+04  0.15294330000E+03 0.  0.
<mgrwt>
<rscale>  0 0.41976798E+03</rscale>
<asrwt>0</asrwt>
<pdfrwt beam="1">  1        2 0.31297913E+00 0.41976798E+03</pdfrwt>
<pdfrwt beam="2">  1       -2 0.99432663E-01 0.41976798E+03</pdfrwt>
<totfact> 0.59670789E+00</totfact>
</mgrwt>
</event>
<event>
 4    1  0.1726795E-008  0.7204639E+03  0.7818608E-02  0.9682862E-01
         -2   -1    0    0    0  501 -0.00000000000E+00  0.00000000000E+00  0.30971289032E+03  0.30971289033E+03  0.25500000000E-02 0.  1.
          2   -1    0    0  501    0  0.00000000000E+00 -0.00000000000E+00 -0.18614824816E+04  0.18614824816E+04  0.25500000000E-02 0. -1.
    8880022    1    1    2    0    0 -0.14582005862E+03  0.68877646385E+03 -0.43317137343E+03  0.84065783671E+03  0.15294330000E+03 0.  0.
    8880022    1    1    2    0    0  0.14582005862E+03 -0.68877646385E+03 -0.11185982179E+04  0.13305375353E+04  0.15294330000E+03 0.  0.
<mgrwt>
<rscale>  0 0.72046385E+03</rscale>
<asrwt>0</asrwt>
<pdfrwt beam="1">  1        2 0.28638191E+00 0.72046385E+03</pdfrwt>
<pdfrwt beam="2">  1       -2 0.47648138E-01 0.72046385E+03</pdfrwt>
<totfact> 0.34394669E+01</totfact>
</mgrwt>
</event>
<event>
 4    1  0.1726795E-008  0.9480855E+03  0.7818608E-02  0.9367391E-01
         -2   -1    0    0    0  501 -0.00000000000E+00  0.00000000000E+00  0.76105126342E+03  0.76105126343E+03  0.25500000000E-02 0.  1.
          2   -1    0    0  501    0  0.00000000000E+00 -0.00000000000E+00 -0.27707256112E+04  0.27707256112E+04  0.25500000000E-02 0. -1.
    8880022    1    1    2    0    0  0.32497132567E+03 -0.87742128998E+03  0.33273121125E+03  0.10047766889E+04  0.15294330000E+03 0.  0.
    8880022    1    1    2    0    0 -0.32497132567E+03  0.87742128998E+03 -0.23424055591E+04  0.25270001858E+04  0.15294330000E+03 0.  0.
<mgrwt>
<rscale>  0 0.94808551E+03</rscale>
<asrwt>0</asrwt>
<pdfrwt beam="1">  1        2 0.42626547E+00 0.94808551E+03</pdfrwt>
<pdfrwt beam="2">  1       -2 0.11708481E+00 0.94808551E+03</pdfrwt>
<totfact> 0.13881444E+00</totfact>
</mgrwt>
</event>
<event>
 4    1  0.1726795E-008  0.2258964E+04  0.7818608E-02  0.8494279E-01
         -2   -1    0    0    0  501 -0.00000000000E+00  0.00000000000E+00  0.22840612168E+04  0.22840612168E+04  0.25500000000E-02 0.  1.
          2   -1    0    0  501    0  0.00000000000E+00 -0.00000000000E+00 -0.28652021189E+04  0.28652021189E+04  0.25500000000E-02 0. -1.
    8880022    1    1    2    0    0  0.71015351071E+03  0.21389734197E+04  0.91772423065E+03  0.24382646935E+04  0.15294330000E+03 0.  0.
    8880022    1    1    2    0    0 -0.71015351071E+03 -0.21389734197E+04 -0.14988651327E+04  0.27109986422E+04  0.15294330000E+03 0.  0.
<mgrwt>
<rscale>  0 0.22589637E+04</rscale>
<asrwt>0</asrwt>
<pdfrwt beam="1">  1        2 0.44080032E+00 0.22589637E+04</pdfrwt>
<pdfrwt beam="2">  1       -2 0.35139403E+00 0.22589637E+04</pdfrwt>
<totfact> 0.27634891E-02</totfact>
</mgrwt>
</event>
<event>
 4    1  0.1726795E-008  0.1086718E+04  0.7818608E-02  0.9218235E-01
         -2   -1    0    0    0  501 -0.00000000000E+00  0.00000000000E+00  0.15479635193E+04  0.15479635193E+04  0.25500000000E-02 0.  1.
          2   -1    0    0  501    0  0.00000000000E+00 -0.00000000000E+00 -0.84230196081E+03  0.84230196081E+03  0.25500000000E-02 0. -1.
    8880022    1    1    2    0    0  0.24641614639E+03 -0.10473027329E+04 -0.14090361783E+02  0.10868091474E+04  0.15294330000E+03 0.  0.
    8880022    1    1    2    0    0 -0.24641614639E+03  0.10473027329E+04  0.71975192025E+03  0.13034563327E+04  0.15294330000E+03 0.  0.
<mgrwt>
<rscale>  0 0.10867178E+04</rscale>
<asrwt>0</asrwt>
<pdfrwt beam="1">  1        2 0.12958492E+00 0.10867178E+04</pdfrwt>
<pdfrwt beam="2">  1       -2 0.23814823E+00 0.10867178E+04</pdfrwt>
<totfact> 0.24111835E+00</totfact>
</mgrwt>
</event>
<event>
 4    1  0.2409283E-008  0.1018674E+04  0.7818608E-02  0.9288297E-01
         -2   -1    0    0    0  501 -0.00000000000E+00  0.00000000000E+00  0.11983673587E+04  0.11983673587E+04  0.25500000000E-02 0.  1.
          2   -1    0    0  501    0  0.00000000000E+00 -0.00000000000E+00 -0.19751458496E+04  0.19751458496E+04  0.25500000000E-02 0. -1.
    8880022    1    1    2    0    0 -0.52972537566E+03 -0.85656082119E+03 -0.15774926123E+04  0.18778125596E+04  0.15294330000E+03 0.  0.
    8880022    1    1    2    0    0  0.52972537566E+03  0.85656082119E+03  0.80071412141E+03  0.12957006488E+04  0.15294330000E+03 0.  0.
<mgrwt>
<rscale>  0 0.10186742E+04</rscale>
<asrwt>0</asrwt>
<pdfrwt beam="1">  1        2 0.30386859E+00 0.10186742E+04</pdfrwt>
<pdfrwt beam="2">  1       -2 0.18436421E+00 0.10186742E+04</pdfrwt>
<totfact> 0.11612773E+00</totfact>
</mgrwt>
</event>
<event>
 4    1  0.1726795E-008  0.9912412E+03  0.7818608E-02  0.9318204E-01
         -2   -1    0    0    0  501 -0.00000000000E+00  0.00000000000E+00  0.96993717135E+03  0.96993717135E+03  0.25500000000E-02 0.  1.
          2   -1    0    0  501    0  0.00000000000E+00 -0.00000000000E+00 -0.36218303081E+04  0.36218303081E+04  0.25500000000E-02 0. -1.
    8880022    1    1    2    0    0 -0.54998628928E+03  0.81035957000E+03  0.62258594039E+03  0.11705436588E+04  0.15294330000E+03 0.  0.
    8880022    1    1    2    0    0  0.54998628928E+03 -0.81035957000E+03 -0.32744790772E+04  0.34212238206E+04  0.15294330000E+03 0.  0.
<mgrwt>
<rscale>  0 0.99124124E+03</rscale>
<asrwt>0</asrwt>
<pdfrwt beam="1">  1        2 0.55720466E+00 0.99124124E+03</pdfrwt>
<pdfrwt beam="2">  1       -2 0.14922110E+00 0.99124124E+03</pdfrwt>
<totfact> 0.20962803E-01</totfact>
</mgrwt>
</event>
<event>
 4    1  0.1726795E-008  0.6283650E+03  0.7818608E-02  0.9848245E-01
         -2   -1    0    0    0  501 -0.00000000000E+00  0.00000000000E+00  0.61593249584E+03  0.61593249585E+03  0.25500000000E-02 0.  1.
          2   -1    0    0  501    0  0.00000000000E+00 -0.00000000000E+00 -0.97398132310E+03  0.97398132310E+03  0.25500000000E-02 0. -1.
    8880022    1    1    2    0    0 -0.58756041490E+03 -0.16193717234E+03  0.28575474433E+03  0.69028857434E+03  0.15294330000E+03 0.  0.
    8880022    1    1    2    0    0  0.58756041490E+03  0.16193717234E+03 -0.64380357158E+03  0.89962524461E+03  0.15294330000E+03 0.  0.
<mgrwt>
<rscale>  0 0.62836498E+03</rscale>
<asrwt>0</asrwt>
<pdfrwt beam="1">  1        2 0.14984328E+00 0.62836498E+03</pdfrwt>
<pdfrwt beam="2">  1       -2 0.94758846E-01 0.62836498E+03</pdfrwt>
<totfact> 0.25274615E+01</totfact>
</mgrwt>
</event>
<event>
 4    1  0.1726795E-008  0.1211666E+04  0.7818608E-02  0.9102706E-01
         -2   -1    0    0    0  501 -0.00000000000E+00  0.00000000000E+00  0.87814510203E+03  0.87814510203E+03  0.25500000000E-02 0.  1.
          2   -1    0    0  501    0  0.00000000000E+00 -0.00000000000E+00 -0.24948655255E+04  0.24948655255E+04  0.25500000000E-02 0. -1.
    8880022    1    1    2    0    0 -0.29928589897E+03 -0.11641176454E+04 -0.17770085595E+04  0.21507889286E+04  0.15294330000E+03 0. -1.
    8880022    1    1    2    0    0  0.29928589897E+03  0.11641176454E+04  0.16028813612E+03  0.12222216989E+04  0.15294330000E+03 0.  0.
<mgrwt>
<rscale>  0 0.12116656E+04</rscale>
<asrwt>0</asrwt>
<pdfrwt beam="1">  1        2 0.38382546E+00 0.12116656E+04</pdfrwt>
<pdfrwt beam="2">  1       -2 0.13509925E+00 0.12116656E+04</pdfrwt>
<totfact> 0.13492912E+00</totfact>
</mgrwt>
</event>
<event>
 4    1  0.1726795E-008  0.1807728E+04  0.7818608E-02  0.8702201E-01
         -2   -1    0    0    0  501 -0.00000000000E+00  0.00000000000E+00  0.25596808676E+04  0.25596808676E+04  0.25500000000E-02 0.  1.
          2   -1    0    0  501    0  0.00000000000E+00 -0.00000000000E+00 -0.20634495450E+04  0.20634495450E+04  0.25500000000E-02 0. -1.
    8880022    1    1    2    0    0 -0.96724794875E+03  0.15195126484E+04 -0.11792477120E+04  0.21583568061E+04  0.15294330000E+03 0.  0.
    8880022    1    1    2    0    0  0.96724794875E+03 -0.15195126484E+04  0.16754790346E+04  0.24647736065E+04  0.15294330000E+03 0.  0.
<mgrwt>
<rscale>  0 0.18077276E+04</rscale>
<asrwt>0</asrwt>
<pdfrwt beam="1">  1        2 0.31745378E+00 0.18077276E+04</pdfrwt>
<pdfrwt beam="2">  1       -2 0.39379706E+00 0.18077276E+04</pdfrwt>
<totfact> 0.45373825E-02</totfact>
</mgrwt>
</event>
<event>
 4    1  0.1726795E-008  0.4395459E+03  0.7818608E-02  0.1030886E+00
         -2   -1    0    0    0  501 -0.00000000000E+00  0.00000000000E+00  0.50656644279E+03  0.50656644279E+03  0.25500000000E-02 0.  1.
          2   -1    0    0  501    0  0.00000000000E+00 -0.00000000000E+00 -0.69321431990E+03  0.69321431990E+03  0.25500000000E-02 0. -1.
    8880022    1    1    2    0    0  0.32802160622E+03 -0.24942090323E+03  0.30901440640E+03  0.53729928112E+03  0.15294330000E+03 0.  0.
    8880022    1    1    2    0    0 -0.32802160622E+03  0.24942090323E+03 -0.49566228351E+03  0.66248148157E+03  0.15294330000E+03 0.  0.
<mgrwt>
<rscale>  0 0.43954592E+03</rscale>
<asrwt>0</asrwt>
<pdfrwt beam="1">  1        2 0.10664836E+00 0.43954592E+03</pdfrwt>
<pdfrwt beam="2">  1       -2 0.77933299E-01 0.43954592E+03</pdfrwt>
<totfact> 0.63335500E+01</totfact>
</mgrwt>
</event>
<event>
 4    1  0.1726795E-008  0.8062257E+03  0.7818608E-02  0.9551049E-01
         -2   -1    0    0    0  501 -0.00000000000E+00  0.00000000000E+00  0.88646652907E+03  0.88646652907E+03  0.25500000000E-02 0.  1.
          2   -1    0    0  501    0  0.00000000000E+00 -0.00000000000E+00 -0.26150356964E+04  0.26150356964E+04  0.25500000000E-02 0. -1.
    8880022    1    1    2    0    0  0.78037454524E+03 -0.13275457407E+03 -0.23494365889E+04  0.24839187076E+04  0.15294330000E+03 0.  0.
    8880022    1    1    2    0    0 -0.78037454524E+03  0.13275457407E+03  0.62086742152E+03  0.10175835179E+04  0.15294330000E+03 0.  0.
<mgrwt>
<rscale>  0 0.80622569E+03</rscale>
<asrwt>0</asrwt>
<pdfrwt beam="1">  1        2 0.40231318E+00 0.80622569E+03</pdfrwt>
<pdfrwt beam="2">  1       -2 0.13637947E+00 0.80622569E+03</pdfrwt>
<totfact> 0.11957380E+00</totfact>
</mgrwt>
</event>
<event>
 4    1  0.1726795E-008  0.5038124E+03  0.7818608E-02  0.1012789E+00
         -2   -1    0    0    0  501 -0.00000000000E+00  0.00000000000E+00  0.10687130812E+04  0.10687130812E+04  0.25500000000E-02 0.  1.
          2   -1    0    0  501    0  0.00000000000E+00 -0.00000000000E+00 -0.10106029007E+04  0.10106029007E+04  0.25500000000E-02 0. -1.
    8880022    1    1    2    0    0  0.19337140714E+03 -0.43936639178E+03 -0.88026518239E+03  0.10142454198E+04  0.15294330000E+03 0.  0.
    8880022    1    1    2    0    0 -0.19337140714E+03  0.43936639178E+03  0.93837536293E+03  0.10650705620E+04  0.15294330000E+03 0.  0.
<mgrwt>
<rscale>  0 0.50381245E+03</rscale>
<asrwt>0</asrwt>
<pdfrwt beam="1">  1        2 0.15547737E+00 0.50381245E+03</pdfrwt>
<pdfrwt beam="2">  1       -2 0.16441740E+00 0.50381245E+03</pdfrwt>
<totfact> 0.61523530E+00</totfact>
</mgrwt>
</event>
<event>
 4    1  0.1726795E-008  0.7728293E+03  0.7818608E-02  0.9600200E-01
          2   -1    0    0  501    0  0.00000000000E+00  0.00000000000E+00  0.12475396819E+04  0.12475396819E+04  0.25500000000E-02 0. -1.
         -2   -1    0    0    0  501 -0.00000000000E+00 -0.00000000000E+00 -0.11806264557E+04  0.11806264557E+04  0.25500000000E-02 0.  1.
    8880022    1    1    2    0    0  0.73539697885E+03  0.18183699050E+03  0.96955422182E+03  0.12398792077E+04  0.15294330000E+03 0.  0.
    8880022    1    1    2    0    0 -0.73539697885E+03 -0.18183699050E+03 -0.90264099568E+03  0.11882869299E+04  0.15294330000E+03 0.  0.
<mgrwt>
<rscale>  0 0.77282926E+03</rscale>
<asrwt>0</asrwt>
<pdfrwt beam="1">  1        2 0.19192918E+00 0.77282926E+03</pdfrwt>
<pdfrwt beam="2">  1       -2 0.18163484E+00 0.77282926E+03</pdfrwt>
<totfact> 0.32034003E+00</totfact>
</mgrwt>
</event>
<event>
 4    1  0.1726795E-008  0.7297075E+03  0.7818608E-02  0.9667735E-01
         -2   -1    0    0    0  501 -0.00000000000E+00  0.00000000000E+00  0.12616370130E+04  0.12616370130E+04  0.25500000000E-02 0.  1.
          2   -1    0    0  501    0  0.00000000000E+00 -0.00000000000E+00 -0.10202337674E+04  0.10202337674E+04  0.25500000000E-02 0. -1.
    8880022    1    1    2    0    0 -0.43211503467E+03  0.56776583708E+03  0.99433405180E+03  0.12333585482E+04  0.15294330000E+03 0.  0.
    8880022    1    1    2    0    0  0.43211503467E+03 -0.56776583708E+03 -0.75293080625E+03  0.10485122321E+04  0.15294330000E+03 0.  0.
<mgrwt>
<rscale>  0 0.72970755E+03</rscale>
<asrwt>0</asrwt>
<pdfrwt beam="1">  1        2 0.15695904E+00 0.72970755E+03</pdfrwt>
<pdfrwt beam="2">  1       -2 0.19409800E+00 0.72970755E+03</pdfrwt>
<totfact> 0.36522361E+00</totfact>
</mgrwt>
</event>
<event>
 4    1  0.1726795E-008  0.7589866E+03  0.7818608E-02  0.9621356E-01
         -2   -1    0    0    0  501 -0.00000000000E+00  0.00000000000E+00  0.13737834994E+04  0.13737834994E+04  0.25500000000E-02 0.  1.
          2   -1    0    0  501    0  0.00000000000E+00 -0.00000000000E+00 -0.50583265353E+03  0.50583265354E+03  0.25500000000E-02 0. -1.
    8880022    1    1    2    0    0 -0.74318056215E+03 -0.18754207626E+02  0.82263101160E+03  0.11192776700E+04  0.15294330000E+03 0.  0.
    8880022    1    1    2    0    0  0.74318056215E+03  0.18754207626E+02  0.45319834267E+02  0.76033848295E+03  0.15294330000E+03 0. -1.
<mgrwt>
<rscale>  0 0.75898664E+03</rscale>
<asrwt>0</asrwt>
<pdfrwt beam="1">  1        2 0.77820409E-01 0.75898664E+03</pdfrwt>
<pdfrwt beam="2">  1       -2 0.21135131E+00 0.75898664E+03</pdfrwt>
<totfact> 0.69568764E+00</totfact>
</mgrwt>
</event>
<event>
 4    1  0.1726795E-008  0.4676309E+03  0.7818608E-02  0.1022591E+00
         -2   -1    0    0    0  501 -0.00000000000E+00  0.00000000000E+00  0.16754983133E+04  0.16754983133E+04  0.25500000000E-02 0.  1.
          2   -1    0    0  501    0  0.00000000000E+00 -0.00000000000E+00 -0.10025918160E+04  0.10025918160E+04  0.25500000000E-02 0. -1.
    8880022    1    1    2    0    0 -0.35375826707E+03 -0.26484358129E+03  0.15853034084E+04  0.16528356191E+04  0.15294330000E+03 0.  0.
    8880022    1    1    2    0    0  0.35375826707E+03  0.26484358129E+03 -0.91239691120E+03  0.10252545102E+04  0.15294330000E+03 0.  0.
<mgrwt>
<rscale>  0 0.46763093E+03</rscale>
<asrwt>0</asrwt>
<pdfrwt beam="1">  1        2 0.15424490E+00 0.46763093E+03</pdfrwt>
<pdfrwt beam="2">  1       -2 0.25776897E+00 0.46763093E+03</pdfrwt>
<totfact> 0.15934257E+00</totfact>
</mgrwt>
</event>
<event>
 4    1  0.1726795E-008  0.7687771E+03  0.7818608E-02  0.9606344E-01
         -2   -1    0    0    0  501 -0.00000000000E+00  0.00000000000E+00  0.86734211377E+03  0.86734211377E+03  0.25500000000E-02 0.  1.
          2   -1    0    0  501    0  0.00000000000E+00 -0.00000000000E+00 -0.11565413714E+04  0.11565413714E+04  0.25500000000E-02 0. -1.
    8880022    1    1    2    0    0  0.64583661419E+03 -0.38797112141E+03 -0.79320481179E+03  0.11046230351E+04  0.15294330000E+03 0.  0.
    8880022    1    1    2    0    0 -0.64583661419E+03  0.38797112141E+03  0.50400555419E+03  0.91926045001E+03  0.15294330000E+03 0.  0.
<mgrwt>
<rscale>  0 0.76877707E+03</rscale>
<asrwt>0</asrwt>
<pdfrwt beam="1">  1        2 0.17792944E+00 0.76877707E+03</pdfrwt>
<pdfrwt beam="2">  1       -2 0.13343725E+00 0.76877707E+03</pdfrwt>
<totfact> 0.83171402E+00</totfact>
</mgrwt>
</event>
<event>
 4    1  0.1726795E-008  0.4444080E+03  0.7818608E-02  0.1029403E+00
          2   -1    0    0  501    0  0.00000000000E+00  0.00000000000E+00  0.30210591157E+04  0.30210591157E+04  0.25500000000E-02 0. -1.
         -2   -1    0    0    0  501 -0.00000000000E+00 -0.00000000000E+00 -0.19608092496E+03  0.19608092498E+03  0.25500000000E-02 0.  1.
    8880022    1    1    2    0    0  0.20885678155E+03 -0.36122800932E+03  0.99165565743E+02  0.45533755870E+03  0.15294330000E+03 0.  0.
    8880022    1    1    2    0    0 -0.20885678155E+03  0.36122800932E+03  0.27258126250E+04  0.27618024820E+04  0.15294330000E+03 0.  0.
<mgrwt>
<rscale>  0 0.44440801E+03</rscale>
<asrwt>0</asrwt>
<pdfrwt beam="1">  1        2 0.46477830E+00 0.44440801E+03</pdfrwt>
<pdfrwt beam="2">  1       -2 0.30166298E-01 0.44440801E+03</pdfrwt>
<totfact> 0.19425799E+01</totfact>
</mgrwt>
</event>
<event>
 4    1  0.1726795E-008  0.6212192E+03  0.7818608E-02  0.9862335E-01
          2   -1    0    0  501    0  0.00000000000E+00  0.00000000000E+00  0.13801476778E+04  0.13801476778E+04  0.25500000000E-02 0. -1.
         -2   -1    0    0    0  501 -0.00000000000E+00 -0.00000000000E+00 -0.39322621504E+03  0.39322621505E+03  0.25500000000E-02 0.  1.
    8880022    1    1    2    0    0 -0.28073971797E+03 -0.53264139415E+03  0.16859555057E+02  0.62144793959E+03  0.15294330000E+03 0.  0.
    8880022    1    1    2    0    0  0.28073971797E+03  0.53264139415E+03  0.97006190774E+03  0.11519259533E+04  0.15294330000E+03 0.  0.
<mgrwt>
<rscale>  0 0.62121920E+03</rscale>
<asrwt>0</asrwt>
<pdfrwt beam="1">  1        2 0.21233041E+00 0.62121920E+03</pdfrwt>
<pdfrwt beam="2">  1       -2 0.60496341E-01 0.62121920E+03</pdfrwt>
<totfact> 0.39175607E+01</totfact>
</mgrwt>
</event>
<event>
 4    1  0.1726795E-008  0.1346241E+04  0.7818608E-02  0.8993678E-01
         -2   -1    0    0    0  501 -0.00000000000E+00  0.00000000000E+00  0.12244175943E+04  0.12244175943E+04  0.25500000000E-02 0.  1.
          2   -1    0    0  501    0  0.00000000000E+00 -0.00000000000E+00 -0.15901007577E+04  0.15901007577E+04  0.25500000000E-02 0. -1.
    8880022    1    1    2    0    0  0.77179835247E+03  0.10923831582E+04 -0.55283203972E+03  0.14553310889E+04  0.15294330000E+03 0.  0.
    8880022    1    1    2    0    0 -0.77179835247E+03 -0.10923831582E+04  0.18714887631E+03  0.13591872631E+04  0.15294330000E+03 0.  0.
<mgrwt>
<rscale>  0 0.13462412E+04</rscale>
<asrwt>0</asrwt>
<pdfrwt beam="1">  1        2 0.24463089E+00 0.13462412E+04</pdfrwt>
<pdfrwt beam="2">  1       -2 0.18837194E+00 0.13462412E+04</pdfrwt>
<totfact> 0.17160517E+00</totfact>
</mgrwt>
</event>
<event>
 4    1  0.1726795E-008  0.5073869E+03  0.7818608E-02  0.1011869E+00
          2   -1    0    0  501    0  0.00000000000E+00  0.00000000000E+00  0.37641049511E+03  0.37641049511E+03  0.25500000000E-02 0. -1.
         -2   -1    0    0    0  501 -0.00000000000E+00 -0.00000000000E+00 -0.29992333854E+04  0.29992333854E+04  0.25500000000E-02 0.  1.
    8880022    1    1    2    0    0 -0.21162038690E+03  0.43504789632E+03  0.17153231970E+03  0.53559765679E+03  0.15294330000E+03 0.  0.
    8880022    1    1    2    0    0  0.21162038690E+03 -0.43504789632E+03 -0.27943552100E+04  0.28400462238E+04  0.15294330000E+03 0.  0.
<mgrwt>
<rscale>  0 0.50738695E+03</rscale>
<asrwt>0</asrwt>
<pdfrwt beam="1">  1        2 0.57909309E-01 0.50738695E+03</pdfrwt>
<pdfrwt beam="2">  1       -2 0.46142051E+00 0.50738695E+03</pdfrwt>
<totfact> 0.28048245E-01</totfact>
</mgrwt>
</event>
<event>
 4    1  0.1726795E-008  0.8771017E+03  0.7818608E-02  0.9454667E-01
          2   -1    0    0  501    0  0.00000000000E+00  0.00000000000E+00  0.12425376512E+04  0.12425376512E+04  0.25500000000E-02 0. -1.
         -2   -1    0    0    0  501 -0.00000000000E+00 -0.00000000000E+00 -0.14011412143E+04  0.14011412143E+04  0.25500000000E-02 0.  1.
    8880022    1    1    2    0    0  0.43183399367E+03  0.74795391963E+03 -0.10668103943E+04  0.13810835363E+04  0.15294330000E+03 0.  0.
    8880022    1    1    2    0    0 -0.43183399367E+03 -0.74795391963E+03  0.90820683118E+03  0.12625953292E+04  0.15294330000E+03 0.  0.
<mgrwt>
<rscale>  0 0.87710166E+03</rscale>
<asrwt>0</asrwt>
<pdfrwt beam="1">  1        2 0.19115964E+00 0.87710166E+03</pdfrwt>
<pdfrwt beam="2">  1       -2 0.21556019E+00 0.87710166E+03</pdfrwt>
<totfact> 0.19036378E+00</totfact>
</mgrwt>
</event>
<event>
 4    1  0.1726795E-008  0.1515531E+04  0.7818608E-02  0.8874190E-01
         -2   -1    0    0    0  501 -0.00000000000E+00  0.00000000000E+00  0.59619817023E+03  0.59619817023E+03  0.25500000000E-02 0.  1.
          2   -1    0    0  501    0  0.00000000000E+00 -0.00000000000E+00 -0.45824018309E+04  0.45824018309E+04  0.25500000000E-02 0. -1.
    8880022    1    1    2    0    0  0.13063096146E+04 -0.75299319898E+03 -0.95968124067E+03  0.17938292292E+04  0.15294330000E+03 0.  0.
    8880022    1    1    2    0    0 -0.13063096146E+04  0.75299319898E+03 -0.30265224200E+04  0.33847707719E+04  0.15294330000E+03 0.  0.
<mgrwt>
<rscale>  0 0.15155313E+04</rscale>
<asrwt>0</asrwt>
<pdfrwt beam="1">  1        2 0.70498487E+00 0.15155313E+04</pdfrwt>
<pdfrwt beam="2">  1       -2 0.91722798E-01 0.15155313E+04</pdfrwt>
<totfact> 0.10116323E-01</totfact>
</mgrwt>
</event>
<event>
 4    1  0.1726795E-008  0.9556708E+03  0.7818608E-02  0.9358547E-01
         -2   -1    0    0    0  501 -0.00000000000E+00  0.00000000000E+00  0.18272838056E+04  0.18272838056E+04  0.25500000000E-02 0.  1.
          2   -1    0    0  501    0  0.00000000000E+00 -0.00000000000E+00 -0.83449249627E+03  0.83449249628E+03  0.25500000000E-02 0. -1.
    8880022    1    1    2    0    0  0.71328738306E+03  0.61736217332E+03 -0.34643946318E+03  0.10165268804E+04  0.15294330000E+03 0.  0.
    8880022    1    1    2    0    0 -0.71328738306E+03 -0.61736217332E+03  0.13392307725E+04  0.16452494215E+04  0.15294330000E+03 0.  0.
<mgrwt>
<rscale>  0 0.95567076E+03</rscale>
<asrwt>0</asrwt>
<pdfrwt beam="1">  1        2 0.12838346E+00 0.95567076E+03</pdfrwt>
<pdfrwt beam="2">  1       -2 0.28112059E+00 0.95567076E+03</pdfrwt>
<totfact> 0.13591852E+00</totfact>
</mgrwt>
</event>
<event>
 4    1  0.1726795E-008  0.7483318E+03  0.7818608E-02  0.9637971E-01
         -2   -1    0    0    0  501 -0.00000000000E+00  0.00000000000E+00  0.28435154467E+03  0.28435154468E+03  0.25500000000E-02 0.  1.
          2   -1    0    0  501    0  0.00000000000E+00 -0.00000000000E+00 -0.24658318188E+04  0.24658318188E+04  0.25500000000E-02 0. -1.
    8880022    1    1    2    0    0  0.59095723825E+03 -0.43287218440E+03 -0.17077356863E+04  0.18645003655E+04  0.15294330000E+03 0.  0.
    8880022    1    1    2    0    0 -0.59095723825E+03  0.43287218440E+03 -0.47374458780E+03  0.88568299800E+03  0.15294330000E+03 0.  0.
<mgrwt>
<rscale>  0 0.74833177E+03</rscale>
<asrwt>0</asrwt>
<pdfrwt beam="1">  1        2 0.37935873E+00 0.74833177E+03</pdfrwt>
<pdfrwt beam="2">  1       -2 0.43746393E-01 0.74833177E+03</pdfrwt>
<totfact> 0.18873803E+01</totfact>
</mgrwt>
</event>
<event>
 4    1  0.1726795E-008  0.3434306E+03  0.7818608E-02  0.1065344E+00
          2   -1    0    0  501    0  0.00000000000E+00  0.00000000000E+00  0.24403136891E+04  0.24403136891E+04  0.25500000000E-02 0. -1.
         -2   -1    0    0    0  501 -0.00000000000E+00 -0.00000000000E+00 -0.47927344403E+03  0.47927344403E+03  0.25500000000E-02 0.  1.
    8880022    1    1    2    0    0  0.15016307641E+03 -0.26833553836E+03 -0.40371235160E+03  0.53002662812E+03  0.15294330000E+03 0.  0.
    8880022    1    1    2    0    0 -0.15016307641E+03  0.26833553836E+03  0.23647525967E+04  0.23895605050E+04  0.15294330000E+03 0.  0.
<mgrwt>
<rscale>  0 0.34343058E+03</rscale>
<asrwt>0</asrwt>
<pdfrwt beam="1">  1        2 0.37543288E+00 0.34343058E+03</pdfrwt>
<pdfrwt beam="2">  1       -2 0.73734374E-01 0.34343058E+03</pdfrwt>
<totfact> 0.72614206E+00</totfact>
</mgrwt>
</event>
<event>
 4    1  0.1726795E-008  0.1697051E+03  0.7818608E-02  0.1178156E+00
         -2   -1    0    0    0  501 -0.00000000000E+00  0.00000000000E+00  0.50728497216E+03  0.50728497217E+03  0.25500000000E-02 0.  1.
          2   -1    0    0  501    0  0.00000000000E+00 -0.00000000000E+00 -0.21594949820E+03  0.21594949821E+03  0.25500000000E-02 0. -1.
    8880022    1    1    2    0    0  0.60534495787E+02  0.41758052285E+02 -0.16479768569E+03  0.23655462442E+03  0.15294330000E+03 0.  0.
    8880022    1    1    2    0    0 -0.60534495787E+02 -0.41758052285E+02  0.45613315966E+03  0.48667984596E+03  0.15294330000E+03 0.  1.
<mgrwt>
<rscale>  0 0.16970508E+03</rscale>
<asrwt>0</asrwt>
<pdfrwt beam="1">  1        2 0.33223000E-01 0.16970508E+03</pdfrwt>
<pdfrwt beam="2">  1       -2 0.78043841E-01 0.16970508E+03</pdfrwt>
<totfact> 0.23785310E+02</totfact>
</mgrwt>
</event>
<event>
 4    1  0.1726795E-008  0.1386181E+04  0.7818608E-02  0.8963883E-01
          2   -1    0    0  501    0  0.00000000000E+00  0.00000000000E+00  0.11982748343E+04  0.11982748343E+04  0.25500000000E-02 0. -1.
         -2   -1    0    0    0  501 -0.00000000000E+00 -0.00000000000E+00 -0.20911193804E+04  0.20911193804E+04  0.25500000000E-02 0.  1.
    8880022    1    1    2    0    0 -0.26074793176E+03 -0.13528180355E+04 -0.12405917283E+04  0.18602595546E+04  0.15294330000E+03 0.  0.
    8880022    1    1    2    0    0  0.26074793176E+03  0.13528180355E+04  0.34774718219E+03  0.14291346601E+04  0.15294330000E+03 0.  0.
<mgrwt>
<rscale>  0 0.13861810E+04</rscale>
<asrwt>0</asrwt>
<pdfrwt beam="1">  1        2 0.18434997E+00 0.13861810E+04</pdfrwt>
<pdfrwt beam="2">  1       -2 0.32171067E+00 0.13861810E+04</pdfrwt>
<totfact> 0.42451412E-01</totfact>
</mgrwt>
</event>
<event>
 4    1  0.1726795E-008  0.8323325E+03  0.7818608E-02  0.9514361E-01
         -2   -1    0    0    0  501 -0.00000000000E+00  0.00000000000E+00  0.72588754787E+03  0.72588754788E+03  0.25500000000E-02 0.  1.
          2   -1    0    0  501    0  0.00000000000E+00 -0.00000000000E+00 -0.25242874677E+04  0.25242874677E+04  0.25500000000E-02 0. -1.
    8880022    1    1    2    0    0  0.11544868469E+03  0.80997362439E+03 -0.21807733039E+04  0.23342128281E+04  0.15294330000E+03 0.  0.
    8880022    1    1    2    0    0 -0.11544868469E+03 -0.80997362439E+03  0.38237338406E+03  0.91596218746E+03  0.15294330000E+03 0.  0.
<mgrwt>
<rscale>  0 0.83233246E+03</rscale>
<asrwt>0</asrwt>
<pdfrwt beam="1">  1        2 0.38835191E+00 0.83233246E+03</pdfrwt>
<pdfrwt beam="2">  1       -2 0.11167501E+00 0.83233246E+03</pdfrwt>
<totfact> 0.22099884E+00</totfact>
</mgrwt>
</event>
<event>
 4    1  0.1726795E-008  0.2097826E+04  0.7818608E-02  0.8562202E-01
         -2   -1    0    0    0  501 -0.00000000000E+00  0.00000000000E+00  0.19615877646E+04  0.19615877646E+04  0.25500000000E-02 0.  1.
          2   -1    0    0  501    0  0.00000000000E+00 -0.00000000000E+00 -0.25206551371E+04  0.25206551371E+04  0.25500000000E-02 0. -1.
    8880022    1    1    2    0    0  0.16880297893E+04 -0.12361376853E+04  0.46357098535E+03  0.21484344668E+04  0.15294330000E+03 0.  0.
    8880022    1    1    2    0    0 -0.16880297893E+04  0.12361376853E+04 -0.10226383578E+04  0.23338084349E+04  0.15294330000E+03 0.  0.
<mgrwt>
<rscale>  0 0.20978257E+04</rscale>
<asrwt>0</asrwt>
<pdfrwt beam="1">  1        2 0.38779310E+00 0.20978257E+04</pdfrwt>
<pdfrwt beam="2">  1       -2 0.30178273E+00 0.20978257E+04</pdfrwt>
<totfact> 0.92159948E-02</totfact>
</mgrwt>
</event>
<event>
 4    1  0.1726795E-008  0.8463919E+03  0.7818608E-02  0.9495192E-01
          2   -1    0    0  501    0  0.00000000000E+00  0.00000000000E+00  0.19256760625E+04  0.19256760625E+04  0.25500000000E-02 0. -1.
         -2   -1    0    0    0  501 -0.00000000000E+00 -0.00000000000E+00 -0.88253768451E+03  0.88253768451E+03  0.25500000000E-02 0.  1.
    8880022    1    1    2    0    0 -0.74136383250E+03  0.37863874196E+03  0.15894955345E+04  0.18007985274E+04  0.15294330000E+03 0.  0.
    8880022    1    1    2    0    0  0.74136383250E+03 -0.37863874196E+03 -0.54635715657E+03  0.10074152196E+04  0.15294330000E+03 0.  0.
<mgrwt>
<rscale>  0 0.84639192E+03</rscale>
<asrwt>0</asrwt>
<pdfrwt beam="1">  1        2 0.29625785E+00 0.84639192E+03</pdfrwt>
<pdfrwt beam="2">  1       -2 0.13577503E+00 0.84639192E+03</pdfrwt>
<totfact> 0.29110302E+00</totfact>
</mgrwt>
</event>
<event>
 4    1  0.1726795E-008  0.1088564E+04  0.7818608E-02  0.9216410E-01
         -2   -1    0    0    0  501 -0.00000000000E+00  0.00000000000E+00  0.91395960989E+03  0.91395960989E+03  0.25500000000E-02 0.  1.
          2   -1    0    0  501    0  0.00000000000E+00 -0.00000000000E+00 -0.17126443654E+04  0.17126443654E+04  0.25500000000E-02 0. -1.
    8880022    1    1    2    0    0 -0.54625049341E+03  0.92908075606E+03 -0.10466928968E+04  0.15101451341E+04  0.15294330000E+03 0.  0.
    8880022    1    1    2    0    0  0.54625049341E+03 -0.92908075606E+03  0.24800814132E+03  0.11164588412E+04  0.15294330000E+03 0.  0.
<mgrwt>
<rscale>  0 0.10885643E+04</rscale>
<asrwt>0</asrwt>
<pdfrwt beam="1">  1        2 0.26348375E+00 0.10885643E+04</pdfrwt>
<pdfrwt beam="2">  1       -2 0.14060917E+00 0.10885643E+04</pdfrwt>
<totfact> 0.33735910E+00</totfact>
</mgrwt>
</event>
<event>
 4    1  0.1726795E-008  0.8554446E+03  0.7818608E-02  0.9483058E-01
          2   -1    0    0  501    0  0.00000000000E+00  0.00000000000E+00  0.10845410190E+04  0.10845410190E+04  0.25500000000E-02 0. -1.
         -2   -1    0    0    0  501 -0.00000000000E+00 -0.00000000000E+00 -0.11286227489E+04  0.11286227489E+04  0.25500000000E-02 0.  1.
    8880022    1    1    2    0    0 -0.48524515690E+03 -0.68769970115E+03 -0.72378700034E+03  0.11205592426E+04  0.15294330000E+03 0.  0.
    8880022    1    1    2    0    0  0.48524515690E+03  0.68769970115E+03  0.67970527045E+03  0.10926045254E+04  0.15294330000E+03 0.  0.
<mgrwt>
<rscale>  0 0.85544456E+03</rscale>
<asrwt>0</asrwt>
<pdfrwt beam="1">  1        2 0.16685246E+00 0.85544456E+03</pdfrwt>
<pdfrwt beam="2">  1       -2 0.17363427E+00 0.85544456E+03</pdfrwt>
<totfact> 0.45079489E+00</totfact>
</mgrwt>
</event>
<event>
 4    1  0.1726795E-008  0.1323413E+04  0.7818608E-02  0.9011202E-01
         -2   -1    0    0    0  501 -0.00000000000E+00  0.00000000000E+00  0.63349852683E+03  0.63349852684E+03  0.25500000000E-02 0.  1.
          2   -1    0    0  501    0  0.00000000000E+00 -0.00000000000E+00 -0.36725104115E+04  0.36725104115E+04  0.25500000000E-02 0. -1.
    8880022    1    1    2    0    0  0.12511176325E+04  0.40340483744E+03 -0.25899528217E+04  0.29084838086E+04  0.15294330000E+03 0.  0.
    8880022    1    1    2    0    0 -0.12511176325E+04 -0.40340483744E+03 -0.44905906294E+03  0.13975251297E+04  0.15294330000E+03 0.  0.
<mgrwt>
<rscale>  0 0.13234132E+04</rscale>
<asrwt>0</asrwt>
<pdfrwt beam="1">  1        2 0.56500159E+00 0.13234132E+04</pdfrwt>
<pdfrwt beam="2">  1       -2 0.97461314E-01 0.13234132E+04</pdfrwt>
<totfact> 0.52988514E-01</totfact>
</mgrwt>
</event>
<event>
 4    1  0.1726795E-008  0.6025618E+03  0.7818608E-02  0.9900105E-01
          2   -1    0    0  501    0  0.00000000000E+00  0.00000000000E+00  0.13867344722E+04  0.13867344722E+04  0.25500000000E-02 0. -1.
         -2   -1    0    0    0  501 -0.00000000000E+00 -0.00000000000E+00 -0.27497194668E+03  0.27497194669E+03  0.25500000000E-02 0.  1.
    8880022    1    1    2    0    0 -0.67747709408E+02  0.57887768719E+03  0.73756001026E+03  0.95240513995E+03  0.15294330000E+03 0.  0.
    8880022    1    1    2    0    0  0.67747709408E+02 -0.57887768719E+03  0.37420251523E+03  0.70930127892E+03  0.15294330000E+03 0.  0.
<mgrwt>
<rscale>  0 0.60256185E+03</rscale>
<asrwt>0</asrwt>
<pdfrwt beam="1">  1        2 0.21334376E+00 0.60256185E+03</pdfrwt>
<pdfrwt beam="2">  1       -2 0.42303376E-01 0.60256185E+03</pdfrwt>
<totfact> 0.80617321E+01</totfact>
</mgrwt>
</event>
<event>
 4    1  0.1726795E-008  0.7156549E+03  0.7818608E-02  0.9690828E-01
         -2   -1    0    0    0  501 -0.00000000000E+00  0.00000000000E+00  0.48269277758E+03  0.48269277759E+03  0.25500000000E-02 0.  1.
          2   -1    0    0  501    0  0.00000000000E+00 -0.00000000000E+00 -0.15352967045E+04  0.15352967045E+04  0.25500000000E-02 0. -1.
    8880022    1    1    2    0    0  0.23427488221E+03 -0.65869995468E+03  0.34480101321E+02  0.71648508787E+03  0.15294330000E+03 0.  0.
    8880022    1    1    2    0    0 -0.23427488221E+03  0.65869995468E+03 -0.10870840283E+04  0.13015043942E+04  0.15294330000E+03 0.  0.
<mgrwt>
<rscale>  0 0.71565495E+03</rscale>
<asrwt>0</asrwt>
<pdfrwt beam="1">  1        2 0.23619949E+00 0.71565495E+03</pdfrwt>
<pdfrwt beam="2">  1       -2 0.74260428E-01 0.71565495E+03</pdfrwt>
<totfact> 0.20365576E+01</totfact>
</mgrwt>
</event>
<event>
 4    1  0.1726795E-008  0.1164437E+04  0.7818608E-02  0.9144568E-01
         -2   -1    0    0    0  501 -0.00000000000E+00  0.00000000000E+00  0.11006016417E+04  0.11006016417E+04  0.25500000000E-02 0.  1.
          2   -1    0    0  501    0  0.00000000000E+00 -0.00000000000E+00 -0.14143976160E+04  0.14143976160E+04  0.25500000000E-02 0. -1.
    8880022    1    1    2    0    0 -0.81561617854E+03  0.81687890029E+03  0.29471113786E+03  0.12011524450E+04  0.15294330000E+03 0.  0.
    8880022    1    1    2    0    0  0.81561617854E+03 -0.81687890029E+03 -0.60850711223E+03  0.13138468126E+04  0.15294330000E+03 0.  0.
<mgrwt>
<rscale>  0 0.11644366E+04</rscale>
<asrwt>0</asrwt>
<pdfrwt beam="1">  1        2 0.21759963E+00 0.11644366E+04</pdfrwt>
<pdfrwt beam="2">  1       -2 0.16932333E+00 0.11644366E+04</pdfrwt>
<totfact> 0.29817162E+00</totfact>
</mgrwt>
</event>
<event>
 4    1  0.1726795E-008  0.5159704E+03  0.7818608E-02  0.1009692E+00
          2   -1    0    0  501    0  0.00000000000E+00  0.00000000000E+00  0.16937461020E+03  0.16937461022E+03  0.25500000000E-02 0. -1.
         -2   -1    0    0    0  501 -0.00000000000E+00 -0.00000000000E+00 -0.23031626487E+04  0.23031626487E+04  0.25500000000E-02 0.  1.
    8880022    1    1    2    0    0 -0.20998088503E+03 -0.44580474123E+03 -0.37024731708E+03  0.63506579832E+03  0.15294330000E+03 0.  0.
    8880022    1    1    2    0    0  0.20998088503E+03  0.44580474123E+03 -0.17635407214E+04  0.18374714606E+04  0.15294330000E+03 0.  0.
<mgrwt>
<rscale>  0 0.51597044E+03</rscale>
<asrwt>0</asrwt>
<pdfrwt beam="1">  1        2 0.26057634E-01 0.51597044E+03</pdfrwt>
<pdfrwt beam="2">  1       -2 0.35433269E+00 0.51597044E+03</pdfrwt>
<totfact> 0.33409395E+00</totfact>
</mgrwt>
</event>
<event>
 4    1  0.1726795E-008  0.1988076E+03  0.7818608E-02  0.1150749E+00
         -2   -1    0    0    0  501 -0.00000000000E+00  0.00000000000E+00  0.31522969481E+03  0.31522969482E+03  0.25500000000E-02 0.  1.
          2   -1    0    0  501    0  0.00000000000E+00 -0.00000000000E+00 -0.10942953286E+04  0.10942953286E+04  0.25500000000E-02 0. -1.
    8880022    1    1    2    0    0  0.12172916760E+03  0.36260219460E+02  0.27362632611E+03  0.33822450106E+03  0.15294330000E+03 0.  1.
    8880022    1    1    2    0    0 -0.12172916760E+03 -0.36260219460E+02 -0.10526919599E+04  0.10713005224E+04  0.15294330000E+03 0.  0.
<mgrwt>
<rscale>  0 0.19880756E+03</rscale>
<asrwt>0</asrwt>
<pdfrwt beam="1">  1        2 0.16835313E+00 0.19880756E+03</pdfrwt>
<pdfrwt beam="2">  1       -2 0.48496877E-01 0.19880756E+03</pdfrwt>
<totfact> 0.96963058E+01</totfact>
</mgrwt>
</event>
<event>
 4    1  0.1726795E-008  0.7414593E+03  0.7818608E-02  0.9648845E-01
          2   -1    0    0  501    0  0.00000000000E+00  0.00000000000E+00  0.14846014806E+04  0.14846014806E+04  0.25500000000E-02 0. -1.
         -2   -1    0    0    0  501 -0.00000000000E+00 -0.00000000000E+00 -0.91690362091E+03  0.91690362092E+03  0.25500000000E-02 0.  1.
    8880022    1    1    2    0    0 -0.63102386574E+03 -0.35802105798E+03 -0.64324598881E+03  0.98159424011E+03  0.15294330000E+03 0.  0.
    8880022    1    1    2    0    0  0.63102386574E+03  0.35802105798E+03  0.12109438485E+04  0.14199108614E+04  0.15294330000E+03 0.  0.
<mgrwt>
<rscale>  0 0.74145927E+03</rscale>
<asrwt>0</asrwt>
<pdfrwt beam="1">  1        2 0.22840023E+00 0.74145927E+03</pdfrwt>
<pdfrwt beam="2">  1       -2 0.14106210E+00 0.74145927E+03</pdfrwt>
<totfact> 0.46841932E+00</totfact>
</mgrwt>
</event>
<event>
 4    1  0.1726795E-008  0.6593140E+03  0.7818608E-02  0.9789457E-01
          2   -1    0    0  501    0  0.00000000000E+00  0.00000000000E+00  0.38980684506E+03  0.38980684507E+03  0.25500000000E-02 0. -1.
         -2   -1    0    0    0  501 -0.00000000000E+00 -0.00000000000E+00 -0.15018142864E+04  0.15018142864E+04  0.25500000000E-02 0.  1.
    8880022    1    1    2    0    0  0.48557779890E+03 -0.41894805132E+03 -0.10359144467E+04  0.12279306423E+04  0.15294330000E+03 0.  0.
    8880022    1    1    2    0    0 -0.48557779890E+03  0.41894805132E+03 -0.76092994625E+02  0.66369048911E+03  0.15294330000E+03 0.  0.
<mgrwt>
<rscale>  0 0.65931398E+03</rscale>
<asrwt>0</asrwt>
<pdfrwt beam="1">  1        2 0.59970285E-01 0.65931398E+03</pdfrwt>
<pdfrwt beam="2">  1       -2 0.23104835E+00 0.65931398E+03</pdfrwt>
<totfact> 0.71400999E+00</totfact>
</mgrwt>
</event>
<event>
 4    1  0.1726795E-008  0.7345428E+03  0.7818608E-02  0.9659917E-01
          2   -1    0    0  501    0  0.00000000000E+00  0.00000000000E+00  0.28107530484E+04  0.28107530484E+04  0.25500000000E-02 0. -1.
         -2   -1    0    0    0  501 -0.00000000000E+00 -0.00000000000E+00 -0.40071308851E+03  0.40071308851E+03  0.25500000000E-02 0.  1.
    8880022    1    1    2    0    0  0.56194957810E+03  0.44763168467E+03  0.23639913027E+04  0.24754813645E+04  0.15294330000E+03 0.  0.
    8880022    1    1    2    0    0 -0.56194957810E+03 -0.44763168467E+03  0.46048657176E+02  0.73598477246E+03  0.15294330000E+03 0.  0.
<mgrwt>
<rscale>  0 0.73454279E+03</rscale>
<asrwt>0</asrwt>
<pdfrwt beam="1">  1        2 0.43242354E+00 0.73454279E+03</pdfrwt>
<pdfrwt beam="2">  1       -2 0.61648169E-01 0.73454279E+03</pdfrwt>
<totfact> 0.59171460E+00</totfact>
</mgrwt>
</event>
<event>
 4    1  0.1726795E-008  0.3783292E+03  0.7818608E-02  0.1051553E+00
         -2   -1    0    0    0  501 -0.00000000000E+00  0.00000000000E+00  0.28855682437E+03  0.28855682438E+03  0.25500000000E-02 0.  1.
          2   -1    0    0  501    0  0.00000000000E+00 -0.00000000000E+00 -0.16018569949E+04  0.16018569949E+04  0.25500000000E-02 0. -1.
    8880022    1    1    2    0    0  0.33402765872E+03  0.90370650879E+02  0.12869135281E+03  0.39961787827E+03  0.15294330000E+03 0.  0.
    8880022    1    1    2    0    0 -0.33402765872E+03 -0.90370650879E+02 -0.14419915234E+04  0.14907959410E+04  0.15294330000E+03 0. -1.
<mgrwt>
<rscale>  0 0.37832920E+03</rscale>
<asrwt>0</asrwt>
<pdfrwt beam="1">  1        2 0.24643953E+00 0.37832920E+03</pdfrwt>
<pdfrwt beam="2">  1       -2 0.44393359E-01 0.37832920E+03</pdfrwt>
<totfact> 0.57836408E+01</totfact>
</mgrwt>
</event>
<event>
 4    1  0.1726795E-008  0.4946480E+03  0.7818608E-02  0.1015185E+00
         -2   -1    0    0    0  501 -0.00000000000E+00  0.00000000000E+00  0.83556937783E+03  0.83556937784E+03  0.25500000000E-02 0.  1.
          2   -1    0    0  501    0  0.00000000000E+00 -0.00000000000E+00 -0.22183737409E+04  0.22183737409E+04  0.25500000000E-02 0. -1.
    8880022    1    1    2    0    0 -0.42936596014E+03  0.19217156241E+03 -0.21140280507E+04  0.21711267326E+04  0.15294330000E+03 0.  0.
    8880022    1    1    2    0    0  0.42936596014E+03 -0.19217156241E+03  0.73122368764E+03  0.88281638607E+03  0.15294330000E+03 0.  0.
<mgrwt>
<rscale>  0 0.49464805E+03</rscale>
<asrwt>0</asrwt>
<pdfrwt beam="1">  1        2 0.34128827E+00 0.49464805E+03</pdfrwt>
<pdfrwt beam="2">  1       -2 0.12854914E+00 0.49464805E+03</pdfrwt>
<totfact> 0.24921981E+00</totfact>
</mgrwt>
</event>
<event>
 4    1  0.1726795E-008  0.1858227E+04  0.7818608E-02  0.8675933E-01
          2   -1    0    0  501    0  0.00000000000E+00  0.00000000000E+00  0.18610542438E+04  0.18610542438E+04  0.25500000000E-02 0. -1.
         -2   -1    0    0    0  501 -0.00000000000E+00 -0.00000000000E+00 -0.19808541068E+04  0.19808541068E+04  0.25500000000E-02 0.  1.
    8880022    1    1    2    0    0  0.18254797233E+04  0.31183326232E+03 -0.54332140147E+03  0.19360284094E+04  0.15294330000E+03 0.  0.
    8880022    1    1    2    0    0 -0.18254797233E+04 -0.31183326232E+03  0.42352153847E+03  0.19058799412E+04  0.15294330000E+03 0.  0.
<mgrwt>
<rscale>  0 0.18582271E+04</rscale>
<asrwt>0</asrwt>
<pdfrwt beam="1">  1        2 0.28631604E+00 0.18582271E+04</pdfrwt>
<pdfrwt beam="2">  1       -2 0.30474678E+00 0.18582271E+04</pdfrwt>
<totfact> 0.21444186E-01</totfact>
</mgrwt>
</event>
<event>
 4    1  0.1726795E-008  0.7723450E+03  0.7818608E-02  0.9600932E-01
          2   -1    0    0  501    0  0.00000000000E+00  0.00000000000E+00  0.22244417869E+04  0.22244417869E+04  0.25500000000E-02 0. -1.
         -2   -1    0    0    0  501 -0.00000000000E+00 -0.00000000000E+00 -0.27251542625E+03  0.27251542626E+03  0.25500000000E-02 0.  1.
    8880022    1    1    2    0    0  0.62313042895E+03  0.42992288010E+03  0.11337112779E+04  0.13717937633E+04  0.15294330000E+03 0.  0.
    8880022    1    1    2    0    0 -0.62313042895E+03 -0.42992288010E+03  0.81821508277E+03  0.11251634499E+04  0.15294330000E+03 0.  0.
<mgrwt>
<rscale>  0 0.77234504E+03</rscale>
<asrwt>0</asrwt>
<pdfrwt beam="1">  1        2 0.34222181E+00 0.77234504E+03</pdfrwt>
<pdfrwt beam="2">  1       -2 0.41925450E-01 0.77234504E+03</pdfrwt>
<totfact> 0.27900017E+01</totfact>
</mgrwt>
</event>
<event>
 4    1  0.1726795E-008  0.1114727E+04  0.7818608E-02  0.9190955E-01
          2   -1    0    0  501    0  0.00000000000E+00  0.00000000000E+00  0.21678831769E+04  0.21678831769E+04  0.25500000000E-02 0. -1.
         -2   -1    0    0    0  501 -0.00000000000E+00 -0.00000000000E+00 -0.82843860841E+03  0.82843860842E+03  0.25500000000E-02 0.  1.
    8880022    1    1    2    0    0  0.10873740401E+04  0.19194525181E+03 -0.16186310804E+03  0.11264175965E+04  0.15294330000E+03 0.  0.
    8880022    1    1    2    0    0 -0.10873740401E+04 -0.19194525181E+03  0.15013076765E+04  0.18699041888E+04  0.15294330000E+03 0.  0.
<mgrwt>
<rscale>  0 0.11147273E+04</rscale>
<asrwt>0</asrwt>
<pdfrwt beam="1">  1        2 0.33352049E+00 0.11147273E+04</pdfrwt>
<pdfrwt beam="2">  1       -2 0.12745209E+00 0.11147273E+04</pdfrwt>
<totfact> 0.24244103E+00</totfact>
</mgrwt>
</event>
<event>
 4    1  0.1726795E-008  0.6137548E+03  0.7818608E-02  0.9877273E-01
          2   -1    0    0  501    0  0.00000000000E+00  0.00000000000E+00  0.17841811271E+04  0.17841811271E+04  0.25500000000E-02 0. -1.
         -2   -1    0    0    0  501 -0.00000000000E+00 -0.00000000000E+00 -0.91360046135E+03  0.91360046135E+03  0.25500000000E-02 0.  1.
    8880022    1    1    2    0    0  0.38253640772E+03 -0.45493863168E+03  0.16180936630E+04  0.17305842993E+04  0.15294330000E+03 0.  0.
    8880022    1    1    2    0    0 -0.38253640772E+03  0.45493863168E+03 -0.74751299731E+03  0.96719728907E+03  0.15294330000E+03 0.  0.
<mgrwt>
<rscale>  0 0.61375477E+03</rscale>
<asrwt>0</asrwt>
<pdfrwt beam="1">  1        2 0.27448940E+00 0.61375477E+03</pdfrwt>
<pdfrwt beam="2">  1       -2 0.14055392E+00 0.61375477E+03</pdfrwt>
<totfact> 0.33139018E+00</totfact>
</mgrwt>
</event>
<event>
 4    1  0.1726795E-008  0.8625891E+03  0.7818608E-02  0.9473594E-01
          2   -1    0    0  501    0  0.00000000000E+00  0.00000000000E+00  0.12846889952E+04  0.12846889952E+04  0.25500000000E-02 0. -1.
         -2   -1    0    0    0  501 -0.00000000000E+00 -0.00000000000E+00 -0.86608738619E+03  0.86608738619E+03  0.25500000000E-02 0.  1.
    8880022    1    1    2    0    0  0.60212556449E+02  0.84678374637E+03  0.82825563300E+03  0.11958542184E+04  0.15294330000E+03 0.  0.
    8880022    1    1    2    0    0 -0.60212556449E+02 -0.84678374637E+03 -0.40965402396E+03  0.95492216302E+03  0.15294330000E+03 0.  0.
<mgrwt>
<rscale>  0 0.86258908E+03</rscale>
<asrwt>0</asrwt>
<pdfrwt beam="1">  1        2 0.19764446E+00 0.86258908E+03</pdfrwt>
<pdfrwt beam="2">  1       -2 0.13324421E+00 0.86258908E+03</pdfrwt>
<totfact> 0.69334789E+00</totfact>
</mgrwt>
</event>
<event>
 4    1  0.1726795E-008  0.1557266E+04  0.7818608E-02  0.8847240E-01
          2   -1    0    0  501    0  0.00000000000E+00  0.00000000000E+00  0.47961390177E+04  0.47961390177E+04  0.25500000000E-02 0. -1.
         -2   -1    0    0    0  501 -0.00000000000E+00 -0.00000000000E+00 -0.67791878597E+03  0.67791878598E+03  0.25500000000E-02 0.  1.
    8880022    1    1    2    0    0  0.14711616504E+04  0.48720476520E+03  0.67930500510E+03  0.16989797020E+04  0.15294330000E+03 0.  0.
    8880022    1    1    2    0    0 -0.14711616504E+04 -0.48720476520E+03  0.34389152267E+04  0.37750781017E+04  0.15294330000E+03 0.  0.
<mgrwt>
<rscale>  0 0.15572658E+04</rscale>
<asrwt>0</asrwt>
<pdfrwt beam="1">  1        2 0.73786754E+00 0.15572658E+04</pdfrwt>
<pdfrwt beam="2">  1       -2 0.10429520E+00 0.15572658E+04</pdfrwt>
<totfact> 0.43969364E-02</totfact>
</mgrwt>
</event>
<event>
 4    1  0.1726795E-008  0.5658328E+03  0.7818608E-02  0.9978943E-01
         -2   -1    0    0    0  501 -0.00000000000E+00  0.00000000000E+00  0.10937397589E+04  0.10937397589E+04  0.25500000000E-02 0.  1.
          2   -1    0    0  501    0  0.00000000000E+00 -0.00000000000E+00 -0.59235424083E+03  0.59235424083E+03  0.25500000000E-02 0. -1.
    8880022    1    1    2    0    0 -0.51587655091E+03  0.17506141442E+03  0.85027939257E+03  0.10213431417E+04  0.15294330000E+03 0.  0.
    8880022    1    1    2    0    0  0.51587655091E+03 -0.17506141442E+03 -0.34889387451E+03  0.66475085805E+03  0.15294330000E+03 0.  0.
<mgrwt>
<rscale>  0 0.56583281E+03</rscale>
<asrwt>0</asrwt>
<pdfrwt beam="1">  1        2 0.91131422E-01 0.56583281E+03</pdfrwt>
<pdfrwt beam="2">  1       -2 0.16826765E+00 0.56583281E+03</pdfrwt>
<totfact> 0.11473065E+01</totfact>
</mgrwt>
</event>
<event>
 4    1  0.1726795E-008  0.6543053E+03  0.7818608E-02  0.9798734E-01
          2   -1    0    0  501    0  0.00000000000E+00  0.00000000000E+00  0.26069821161E+04  0.26069821161E+04  0.25500000000E-02 0. -1.
         -2   -1    0    0    0  501 -0.00000000000E+00 -0.00000000000E+00 -0.58380964305E+03  0.58380964306E+03  0.25500000000E-02 0.  1.
    8880022    1    1    2    0    0  0.15440758733E+03 -0.61715646196E+03 -0.34094043759E+03  0.73780474149E+03  0.15294330000E+03 0.  0.
    8880022    1    1    2    0    0 -0.15440758733E+03  0.61715646196E+03  0.23641129106E+04  0.24529870176E+04  0.15294330000E+03 0.  0.
<mgrwt>
<rscale>  0 0.65430532E+03</rscale>
<asrwt>0</asrwt>
<pdfrwt beam="1">  1        2 0.40107417E+00 0.65430532E+03</pdfrwt>
<pdfrwt beam="2">  1       -2 0.89816868E-01 0.65430532E+03</pdfrwt>
<totfact> 0.34391312E+00</totfact>
</mgrwt>
</event>
<event>
 4    1  0.1726795E-008  0.4092688E+03  0.7818608E-02  0.1040617E+00
          2   -1    0    0  501    0  0.00000000000E+00  0.00000000000E+00  0.95051758780E+03  0.95051758780E+03  0.25500000000E-02 0. -1.
         -2   -1    0    0    0  501 -0.00000000000E+00 -0.00000000000E+00 -0.36876823690E+03  0.36876823690E+03  0.25500000000E-02 0.  1.
    8880022    1    1    2    0    0 -0.23024198368E+03 -0.30182431002E+03  0.76752627566E+03  0.86982614470E+03  0.15294330000E+03 0.  0.
    8880022    1    1    2    0    0  0.23024198368E+03  0.30182431002E+03 -0.18577692475E+03  0.44945968001E+03  0.15294330000E+03 0.  0.
<mgrwt>
<rscale>  0 0.40926878E+03</rscale>
<asrwt>0</asrwt>
<pdfrwt beam="1">  1        2 0.14623347E+00 0.40926878E+03</pdfrwt>
<pdfrwt beam="2">  1       -2 0.56733575E-01 0.40926878E+03</pdfrwt>
<totfact> 0.82943149E+01</totfact>
</mgrwt>
</event>
<event>
 4    1  0.1726795E-008  0.6065792E+03  0.7818608E-02  0.9891850E-01
         -2   -1    0    0    0  501 -0.00000000000E+00  0.00000000000E+00  0.52498838926E+03  0.52498838926E+03  0.25500000000E-02 0.  1.
          2   -1    0    0  501    0  0.00000000000E+00 -0.00000000000E+00 -0.90566723617E+03  0.90566723617E+03  0.25500000000E-02 0. -1.
    8880022    1    1    2    0    0  0.53037722315E+03 -0.25148889615E+03 -0.53051538521E+03  0.80584420993E+03  0.15294330000E+03 0.  0.
    8880022    1    1    2    0    0 -0.53037722315E+03  0.25148889615E+03  0.14983653830E+03  0.62481141550E+03  0.15294330000E+03 0.  1.
<mgrwt>
<rscale>  0 0.60657919E+03</rscale>
<asrwt>0</asrwt>
<pdfrwt beam="1">  1        2 0.13933342E+00 0.60657919E+03</pdfrwt>
<pdfrwt beam="2">  1       -2 0.80767445E-01 0.60657919E+03</pdfrwt>
<totfact> 0.40463357E+01</totfact>
</mgrwt>
</event>
<event>
 4    1  0.1726795E-008  0.1480743E+04  0.7818608E-02  0.8897361E-01
         -2   -1    0    0    0  501 -0.00000000000E+00  0.00000000000E+00  0.12502783540E+04  0.12502783540E+04  0.25500000000E-02 0.  1.
          2   -1    0    0  501    0  0.00000000000E+00 -0.00000000000E+00 -0.27131372212E+04  0.27131372212E+04  0.25500000000E-02 0. -1.
    8880022    1    1    2    0    0 -0.97052954879E+03  0.11078264062E+04 -0.19098889036E+04  0.24166659323E+04  0.15294330000E+03 0.  0.
    8880022    1    1    2    0    0  0.97052954879E+03 -0.11078264062E+04  0.44703003642E+03  0.15467496429E+04  0.15294330000E+03 0.  0.
<mgrwt>
<rscale>  0 0.14807426E+04</rscale>
<asrwt>0</asrwt>
<pdfrwt beam="1">  1        2 0.41740573E+00 0.14807426E+04</pdfrwt>
<pdfrwt beam="2">  1       -2 0.19235052E+00 0.14807426E+04</pdfrwt>
<totfact> 0.36773792E-01</totfact>
</mgrwt>
</event>
<event>
 4    1  0.1726795E-008  0.3836445E+03  0.7818608E-02  0.1049595E+00
         -2   -1    0    0    0  501 -0.00000000000E+00  0.00000000000E+00  0.79691465168E+03  0.79691465168E+03  0.25500000000E-02 0.  1.
          2   -1    0    0  501    0  0.00000000000E+00 -0.00000000000E+00 -0.32426293913E+03  0.32426293915E+03  0.25500000000E-02 0. -1.
    8880022    1    1    2    0    0 -0.24140968522E+03 -0.25595465670E+03  0.60411134882E+03  0.71563510059E+03  0.15294330000E+03 0.  0.
    8880022    1    1    2    0    0  0.24140968522E+03  0.25595465670E+03 -0.13145963628E+03  0.40554249024E+03  0.15294330000E+03 0.  0.
<mgrwt>
<rscale>  0 0.38364446E+03</rscale>
<asrwt>0</asrwt>
<pdfrwt beam="1">  1        2 0.49886606E-01 0.38364446E+03</pdfrwt>
<pdfrwt beam="2">  1       -2 0.12260225E+00 0.38364446E+03</pdfrwt>
<totfact> 0.52706466E+01</totfact>
</mgrwt>
</event>
<event>
 4    1  0.1726795E-008  0.3447084E+03  0.7818608E-02  0.1064808E+00
         -2   -1    0    0    0  501 -0.00000000000E+00  0.00000000000E+00  0.19339766821E+04  0.19339766821E+04  0.25500000000E-02 0.  1.
          2   -1    0    0  501    0  0.00000000000E+00 -0.00000000000E+00 -0.79513572953E+03  0.79513572954E+03  0.25500000000E-02 0. -1.
    8880022    1    1    2    0    0  0.29304538523E+03  0.97757983046E+02 -0.74135629643E+03  0.81757753903E+03  0.15294330000E+03 0.  0.
    8880022    1    1    2    0    0 -0.29304538523E+03 -0.97757983046E+02  0.18801972490E+04  0.19115348726E+04  0.15294330000E+03 0.  0.
<mgrwt>
<rscale>  0 0.34470839E+03</rscale>
<asrwt>0</asrwt>
<pdfrwt beam="1">  1        2 0.12232857E+00 0.34470839E+03</pdfrwt>
<pdfrwt beam="2">  1       -2 0.29753487E+00 0.34470839E+03</pdfrwt>
<totfact> 0.13264745E+00</totfact>
</mgrwt>
</event>
<event>
 4    1  0.1726795E-008  0.1435651E+04  0.7818608E-02  0.8928409E-01
          2   -1    0    0  501    0  0.00000000000E+00  0.00000000000E+00  0.14770930257E+04  0.14770930257E+04  0.25500000000E-02 0. -1.
         -2   -1    0    0    0  501 -0.00000000000E+00 -0.00000000000E+00 -0.18502426315E+04  0.18502426315E+04  0.25500000000E-02 0.  1.
    8880022    1    1    2    0    0 -0.72981046696E+03 -0.12268169234E+04  0.63831525437E+03  0.15711591575E+04  0.15294330000E+03 0.  0.
    8880022    1    1    2    0    0  0.72981046696E+03  0.12268169234E+04 -0.10114648602E+04  0.17561764996E+04  0.15294330000E+03 0.  0.
<mgrwt>
<rscale>  0 0.14356513E+04</rscale>
<asrwt>0</asrwt>
<pdfrwt beam="1">  1        2 0.22724508E+00 0.14356513E+04</pdfrwt>
<pdfrwt beam="2">  1       -2 0.28465271E+00 0.14356513E+04</pdfrwt>
<totfact> 0.48873835E-01</totfact>
</mgrwt>
</event>
<event>
 4    1  0.1726795E-008  0.5315690E+03  0.7818608E-02  0.1005852E+00
         -2   -1    0    0    0  501 -0.00000000000E+00  0.00000000000E+00  0.60131524434E+03  0.60131524435E+03  0.25500000000E-02 0.  1.
          2   -1    0    0  501    0  0.00000000000E+00 -0.00000000000E+00 -0.17085340812E+04  0.17085340812E+04  0.25500000000E-02 0. -1.
    8880022    1    1    2    0    0 -0.15207261181E+03  0.48584759959E+03 -0.15369662349E+04  0.16262935865E+04  0.15294330000E+03 0.  0.
    8880022    1    1    2    0    0  0.15207261181E+03 -0.48584759959E+03  0.42974739802E+03  0.68355573906E+03  0.15294330000E+03 0.  0.
<mgrwt>
<rscale>  0 0.53156902E+03</rscale>
<asrwt>0</asrwt>
<pdfrwt beam="1">  1        2 0.26285140E+00 0.53156902E+03</pdfrwt>
<pdfrwt beam="2">  1       -2 0.92510038E-01 0.53156902E+03</pdfrwt>
<totfact> 0.10269750E+01</totfact>
</mgrwt>
</event>
<event>
 4    1  0.1726795E-008  0.4789370E+03  0.7818608E-02  0.1019428E+00
         -2   -1    0    0    0  501 -0.00000000000E+00  0.00000000000E+00  0.23325720000E+03  0.23325720001E+03  0.25500000000E-02 0.  1.
          2   -1    0    0  501    0  0.00000000000E+00 -0.00000000000E+00 -0.24138748158E+04  0.24138748158E+04  0.25500000000E-02 0. -1.
    8880022    1    1    2    0    0 -0.45356949589E+03  0.16240154367E+02 -0.21092080412E+04  0.21629006552E+04  0.15294330000E+03 0.  0.
    8880022    1    1    2    0    0  0.45356949589E+03 -0.16240154367E+02 -0.71409574572E+02  0.48423136058E+03  0.15294330000E+03 0.  0.
<mgrwt>
<rscale>  0 0.47893703E+03</rscale>
<asrwt>0</asrwt>
<pdfrwt beam="1">  1        2 0.37136534E+00 0.47893703E+03</pdfrwt>
<pdfrwt beam="2">  1       -2 0.35885725E-01 0.47893703E+03</pdfrwt>
<totfact> 0.31150234E+01</totfact>
</mgrwt>
</event>
<event>
 4    1  0.1726795E-008  0.3437672E+03  0.7818608E-02  0.1065203E+00
         -2   -1    0    0    0  501 -0.00000000000E+00  0.00000000000E+00  0.54228171508E+03  0.54228171509E+03  0.25500000000E-02 0.  1.
          2   -1    0    0  501    0  0.00000000000E+00 -0.00000000000E+00 -0.26352309214E+04  0.26352309214E+04  0.25500000000E-02 0. -1.
    8880022    1    1    2    0    0  0.30666051770E+03 -0.27268809306E+02  0.47517233691E+03  0.58648500736E+03  0.15294330000E+03 0.  0.
    8880022    1    1    2    0    0 -0.30666051770E+03  0.27268809306E+02 -0.25681215432E+04  0.25910276291E+04  0.15294330000E+03 0. -1.
<mgrwt>
<rscale>  0 0.34376724E+03</rscale>
<asrwt>0</asrwt>
<pdfrwt beam="1">  1        2 0.40542013E+00 0.34376724E+03</pdfrwt>
<pdfrwt beam="2">  1       -2 0.83427958E-01 0.34376724E+03</pdfrwt>
<totfact> 0.43052498E+00</totfact>
</mgrwt>
</event>
<event>
 4    1  0.1726795E-008  0.4946082E+03  0.7818608E-02  0.1015196E+00
          2   -1    0    0  501    0  0.00000000000E+00  0.00000000000E+00  0.18923245360E+03  0.18923245362E+03  0.25500000000E-02 0. -1.
         -2   -1    0    0    0  501 -0.00000000000E+00 -0.00000000000E+00 -0.26372330581E+04  0.26372330581E+04  0.25500000000E-02 0.  1.
    8880022    1    1    2    0    0 -0.47034445201E+03 -0.46593465718E+01 -0.22330466665E+04  0.22871673924E+04  0.15294330000E+03 0.  0.
    8880022    1    1    2    0    0  0.47034445201E+03  0.46593465718E+01 -0.21495393803E+03  0.53929811935E+03  0.15294330000E+03 0.  0.
<mgrwt>
<rscale>  0 0.49460819E+03</rscale>
<asrwt>0</asrwt>
<pdfrwt beam="1">  1        2 0.29112687E-01 0.49460819E+03</pdfrwt>
<pdfrwt beam="2">  1       -2 0.40572814E+00 0.49460819E+03</pdfrwt>
<totfact> 0.14001306E+00</totfact>
</mgrwt>
</event>
<event>
 4    1  0.1726795E-008  0.2795479E+03  0.7818608E-02  0.1095936E+00
         -2   -1    0    0    0  501 -0.00000000000E+00  0.00000000000E+00  0.19182976739E+03  0.19182976741E+03  0.25500000000E-02 0.  1.
          2   -1    0    0  501    0  0.00000000000E+00 -0.00000000000E+00 -0.33630142199E+04  0.33630142199E+04  0.25500000000E-02 0. -1.
    8880022    1    1    2    0    0  0.19895560446E+03  0.12317478515E+03 -0.32518867607E+04  0.32638802855E+04  0.15294330000E+03 0.  0.
    8880022    1    1    2    0    0 -0.19895560446E+03 -0.12317478515E+03  0.80702308196E+02  0.29096370187E+03  0.15294330000E+03 0.  0.
<mgrwt>
<rscale>  0 0.27954787E+03</rscale>
<asrwt>0</asrwt>
<pdfrwt beam="1">  1        2 0.51738676E+00 0.27954787E+03</pdfrwt>
<pdfrwt beam="2">  1       -2 0.29512274E-01 0.27954787E+03</pdfrwt>
<totfact> 0.13210118E+01</totfact>
</mgrwt>
</event>
<event>
 4    1  0.1726795E-008  0.7204860E+03  0.7818608E-02  0.9682826E-01
         -2   -1    0    0    0  501 -0.00000000000E+00  0.00000000000E+00  0.19585862036E+04  0.19585862036E+04  0.25500000000E-02 0.  1.
          2   -1    0    0  501    0  0.00000000000E+00 -0.00000000000E+00 -0.10608541473E+04  0.10608541473E+04  0.25500000000E-02 0. -1.
    8880022    1    1    2    0    0  0.10239747623E+03  0.69657959336E+03 -0.85873410878E+03  0.11209479451E+04  0.15294330000E+03 0.  0.
    8880022    1    1    2    0    0 -0.10239747623E+03 -0.69657959336E+03  0.17564661651E+04  0.18984924058E+04  0.15294330000E+03 0.  0.
<mgrwt>
<rscale>  0 0.72048597E+03</rscale>
<asrwt>0</asrwt>
<pdfrwt beam="1">  1        2 0.16320833E+00 0.72048597E+03</pdfrwt>
<pdfrwt beam="2">  1       -2 0.30132095E+00 0.72048597E+03</pdfrwt>
<totfact> 0.75758162E-01</totfact>
</mgrwt>
</event>
<event>
 4    1  0.1726795E-008  0.9550227E+03  0.7818608E-02  0.9359299E-01
         -2   -1    0    0    0  501 -0.00000000000E+00  0.00000000000E+00  0.95531983079E+03  0.95531983079E+03  0.25500000000E-02 0.  1.
          2   -1    0    0  501    0  0.00000000000E+00 -0.00000000000E+00 -0.20173982742E+04  0.20173982742E+04  0.25500000000E-02 0. -1.
    8880022    1    1    2    0    0  0.93568432372E+03  0.11476697502E+03 -0.16098062739E+04  0.18717757624E+04  0.15294330000E+03 0.  0.
    8880022    1    1    2    0    0 -0.93568432372E+03 -0.11476697502E+03  0.54772783055E+03  0.11009423425E+04  0.15294330000E+03 0.  0.
<mgrwt>
<rscale>  0 0.95502265E+03</rscale>
<asrwt>0</asrwt>
<pdfrwt beam="1">  1        2 0.31036896E+00 0.95502265E+03</pdfrwt>
<pdfrwt beam="2">  1       -2 0.14697228E+00 0.95502265E+03</pdfrwt>
<totfact> 0.20751307E+00</totfact>
</mgrwt>
</event>
<event>
 4    1  0.1726795E-008  0.4117664E+03  0.7818608E-02  0.1039780E+00
          2   -1    0    0  501    0  0.00000000000E+00  0.00000000000E+00  0.14764610478E+03  0.14764610480E+03  0.25500000000E-02 0. -1.
         -2   -1    0    0    0  501 -0.00000000000E+00 -0.00000000000E+00 -0.12660102302E+04  0.12660102302E+04  0.25500000000E-02 0.  1.
    8880022    1    1    2    0    0  0.38229992130E+03 -0.25795852851E+01 -0.77465038384E+03  0.87728829599E+03  0.15294330000E+03 0.  0.
    8880022    1    1    2    0    0 -0.38229992130E+03  0.25795852851E+01 -0.34371374153E+03  0.53636803896E+03  0.15294330000E+03 0.  0.
<mgrwt>
<rscale>  0 0.41176636E+03</rscale>
<asrwt>0</asrwt>
<pdfrwt beam="1">  1        2 0.22714786E-01 0.41176636E+03</pdfrwt>
<pdfrwt beam="2">  1       -2 0.19477080E+00 0.41176636E+03</pdfrwt>
<totfact> 0.36836217E+01</totfact>
</mgrwt>
</event>
<event>
 4    1  0.1726795E-008  0.4529069E+03  0.7818608E-02  0.1026859E+00
         -2   -1    0    0    0  501 -0.00000000000E+00  0.00000000000E+00  0.39476035552E+03  0.39476035553E+03  0.25500000000E-02 0.  1.
          2   -1    0    0  501    0  0.00000000000E+00 -0.00000000000E+00 -0.24084453271E+04  0.24084453271E+04  0.25500000000E-02 0. -1.
    8880022    1    1    2    0    0 -0.27713188777E+03  0.32393040286E+03  0.23438872003E+03  0.50996344400E+03  0.15294330000E+03 0.  0.
    8880022    1    1    2    0    0  0.27713188777E+03 -0.32393040286E+03 -0.22480736916E+04  0.22932422386E+04  0.15294330000E+03 0.  0.
<mgrwt>
<rscale>  0 0.45290688E+03</rscale>
<asrwt>0</asrwt>
<pdfrwt beam="1">  1        2 0.37053004E+00 0.45290688E+03</pdfrwt>
<pdfrwt beam="2">  1       -2 0.60732364E-01 0.45290688E+03</pdfrwt>
<totfact> 0.11048983E+01</totfact>
</mgrwt>
</event>
<event>
 4    1  0.1726795E-008  0.1386510E+04  0.7818608E-02  0.8963641E-01
         -2   -1    0    0    0  501 -0.00000000000E+00  0.00000000000E+00  0.26382626700E+04  0.26382626700E+04  0.25500000000E-02 0.  1.
          2   -1    0    0  501    0  0.00000000000E+00 -0.00000000000E+00 -0.13273131793E+04  0.13273131793E+04  0.25500000000E-02 0. -1.
    8880022    1    1    2    0    0 -0.84352597185E+03 -0.10897171976E+04  0.19870789942E+04  0.24229928226E+04  0.15294330000E+03 0.  0.
    8880022    1    1    2    0    0  0.84352597185E+03  0.10897171976E+04 -0.67612950348E+03  0.15425830268E+04  0.15294330000E+03 0.  0.
<mgrwt>
<rscale>  0 0.13865105E+04</rscale>
<asrwt>0</asrwt>
<pdfrwt beam="1">  1        2 0.20420203E+00 0.13865105E+04</pdfrwt>
<pdfrwt beam="2">  1       -2 0.40588656E+00 0.13865105E+04</pdfrwt>
<totfact> 0.10371706E-01</totfact>
</mgrwt>
</event>
<event>
 4    1  0.1726795E-008  0.3255058E+03  0.7818608E-02  0.1073143E+00
          2   -1    0    0  501    0  0.00000000000E+00  0.00000000000E+00  0.64043209972E+03  0.64043209973E+03  0.25500000000E-02 0. -1.
         -2   -1    0    0    0  501 -0.00000000000E+00 -0.00000000000E+00 -0.61996882526E+03  0.61996882526E+03  0.25500000000E-02 0.  1.
    8880022    1    1    2    0    0 -0.84500338321E+02 -0.27463077738E+03 -0.52937068190E+03  0.62143973395E+03  0.15294330000E+03 0.  0.
    8880022    1    1    2    0    0  0.84500338321E+02  0.27463077738E+03  0.54983395637E+03  0.63896119104E+03  0.15294330000E+03 0.  0.
<mgrwt>
<rscale>  0 0.32550580E+03</rscale>
<asrwt>0</asrwt>
<pdfrwt beam="1">  1        2 0.98528015E-01 0.32550580E+03</pdfrwt>
<pdfrwt beam="2">  1       -2 0.95379819E-01 0.32550580E+03</pdfrwt>
<totfact> 0.44872874E+01</totfact>
</mgrwt>
</event>
<event>
 4    1  0.1726795E-008  0.1286983E+04  0.7818608E-02  0.9039952E-01
         -2   -1    0    0    0  501 -0.00000000000E+00  0.00000000000E+00  0.32750747401E+04  0.32750747401E+04  0.25500000000E-02 0.  1.
          2   -1    0    0  501    0  0.00000000000E+00 -0.00000000000E+00 -0.11436124046E+04  0.11436124046E+04  0.25500000000E-02 0. -1.
    8880022    1    1    2    0    0 -0.12253112762E+04 -0.36269139231E+03  0.27157616626E+04  0.30052763318E+04  0.15294330000E+03 0.  0.
    8880022    1    1    2    0    0  0.12253112762E+04  0.36269139231E+03 -0.58429932698E+03  0.14134108129E+04  0.15294330000E+03 0.  0.
<mgrwt>
<rscale>  0 0.12869827E+04</rscale>
<asrwt>0</asrwt>
<pdfrwt beam="1">  1        2 0.17594037E+00 0.12869827E+04</pdfrwt>
<pdfrwt beam="2">  1       -2 0.50385766E+00 0.12869827E+04</pdfrwt>
<totfact> 0.30811764E-02</totfact>
</mgrwt>
</event>
<event>
 4    1  0.1726795E-008  0.3911399E+03  0.7818608E-02  0.1046892E+00
          2   -1    0    0  501    0  0.00000000000E+00  0.00000000000E+00  0.10459039454E+04  0.10459039454E+04  0.25500000000E-02 0. -1.
         -2   -1    0    0    0  501 -0.00000000000E+00 -0.00000000000E+00 -0.50280693125E+03  0.50280693126E+03  0.25500000000E-02 0.  1.
    8880022    1    1    2    0    0  0.12493864149E+03  0.33762266804E+03  0.92360989555E+03  0.10030182562E+04  0.15294330000E+03 0.  0.
    8880022    1    1    2    0    0 -0.12493864149E+03 -0.33762266804E+03 -0.38051288139E+03  0.54569262047E+03  0.15294330000E+03 0.  1.
<mgrwt>
<rscale>  0 0.39113985E+03</rscale>
<asrwt>0</asrwt>
<pdfrwt beam="1">  1        2 0.16090830E+00 0.39113985E+03</pdfrwt>
<pdfrwt beam="2">  1       -2 0.77354913E-01 0.39113985E+03</pdfrwt>
<totfact> 0.37376080E+01</totfact>
</mgrwt>
</event>
<event>
 4    1  0.1726795E-008  0.8414396E+03  0.7818608E-02  0.9501899E-01
          2   -1    0    0  501    0  0.00000000000E+00  0.00000000000E+00  0.89022647835E+03  0.89022647836E+03  0.25500000000E-02 0. -1.
         -2   -1    0    0    0  501 -0.00000000000E+00 -0.00000000000E+00 -0.11877011562E+04  0.11877011562E+04  0.25500000000E-02 0.  1.
    8880022    1    1    2    0    0  0.79209631198E+03 -0.23919100689E+03  0.44843186291E+03  0.95347348884E+03  0.15294330000E+03 0.  0.
    8880022    1    1    2    0    0 -0.79209631198E+03  0.23919100689E+03 -0.74590654074E+03  0.11244541457E+04  0.15294330000E+03 0.  0.
<mgrwt>
<rscale>  0 0.84143957E+03</rscale>
<asrwt>0</asrwt>
<pdfrwt beam="1">  1        2 0.13695792E+00 0.84143957E+03</pdfrwt>
<pdfrwt beam="2">  1       -2 0.18272326E+00 0.84143957E+03</pdfrwt>
<totfact> 0.52159997E+00</totfact>
</mgrwt>
</event>
<event>
 4    1  0.1726795E-008  0.5683756E+03  0.7818608E-02  0.9973280E-01
         -2   -1    0    0    0  501 -0.00000000000E+00  0.00000000000E+00  0.32734979708E+03  0.32734979709E+03  0.25500000000E-02 0.  1.
          2   -1    0    0  501    0  0.00000000000E+00 -0.00000000000E+00 -0.14504956142E+04  0.14504956142E+04  0.25500000000E-02 0. -1.
    8880022    1    1    2    0    0 -0.32875438489E+03  0.43769824474E+03 -0.10641361328E+04  0.12064147551E+04  0.15294330000E+03 0.  0.
    8880022    1    1    2    0    0  0.32875438489E+03 -0.43769824474E+03 -0.59009684299E+02  0.57143065624E+03  0.15294330000E+03 0.  0.
<mgrwt>
<rscale>  0 0.56837563E+03</rscale>
<asrwt>0</asrwt>
<pdfrwt beam="1">  1        2 0.22315317E+00 0.56837563E+03</pdfrwt>
<pdfrwt beam="2">  1       -2 0.50361508E-01 0.56837563E+03</pdfrwt>
<totfact> 0.52659881E+01</totfact>
</mgrwt>
</event>
<event>
 4    1  0.1726795E-008  0.1548388E+04  0.7818608E-02  0.8852898E-01
         -2   -1    0    0    0  501 -0.00000000000E+00  0.00000000000E+00  0.10973448679E+04  0.10973448679E+04  0.25500000000E-02 0.  1.
          2   -1    0    0  501    0  0.00000000000E+00 -0.00000000000E+00 -0.23913249774E+04  0.23913249774E+04  0.25500000000E-02 0. -1.
    8880022    1    1    2    0    0 -0.10717288385E+04 -0.11070285477E+04 -0.11595805180E+04  0.19344594954E+04  0.15294330000E+03 0.  0.
    8880022    1    1    2    0    0  0.10717288385E+04  0.11070285477E+04 -0.13439959147E+03  0.15542103499E+04  0.15294330000E+03 0.  0.
<mgrwt>
<rscale>  0 0.15483884E+04</rscale>
<asrwt>0</asrwt>
<pdfrwt beam="1">  1        2 0.36789615E+00 0.15483884E+04</pdfrwt>
<pdfrwt beam="2">  1       -2 0.16882229E+00 0.15483884E+04</pdfrwt>
<totfact> 0.81928291E-01</totfact>
</mgrwt>
</event>
<event>
 4    1  0.1726795E-008  0.6852637E+03  0.7818608E-02  0.9742770E-01
         -2   -1    0    0    0  501 -0.00000000000E+00  0.00000000000E+00  0.32104597827E+03  0.32104597828E+03  0.25500000000E-02 0.  1.
          2   -1    0    0  501    0  0.00000000000E+00 -0.00000000000E+00 -0.22973884944E+04  0.22973884944E+04  0.25500000000E-02 0. -1.
    8880022    1    1    2    0    0 -0.24539055302E+03 -0.62127143732E+03 -0.17773272291E+04  0.19048565444E+04  0.15294330000E+03 0.  0.
    8880022    1    1    2    0    0  0.24539055302E+03  0.62127143732E+03 -0.19901528709E+03  0.71357792837E+03  0.15294330000E+03 0.  0.
<mgrwt>
<rscale>  0 0.68526373E+03</rscale>
<asrwt>0</asrwt>
<pdfrwt beam="1">  1        2 0.35344437E+00 0.68526373E+03</pdfrwt>
<pdfrwt beam="2">  1       -2 0.49391690E-01 0.68526373E+03</pdfrwt>
<totfact> 0.18563691E+01</totfact>
</mgrwt>
</event>
<event>
 4    1  0.1877429E-008  0.1544217E+04  0.7818608E-02  0.8855570E-01
          2   -1    0    0  501    0  0.00000000000E+00  0.00000000000E+00  0.20771315032E+04  0.20771315032E+04  0.25500000000E-02 0. -1.
         -2   -1    0    0    0  501 -0.00000000000E+00 -0.00000000000E+00 -0.29783039614E+04  0.29783039614E+04  0.25500000000E-02 0.  1.
    8880022    1    1    2    0    0  0.14948781700E+04  0.35574327322E+03 -0.24321238500E+04  0.28809429176E+04  0.15294330000E+03 0.  0.
    8880022    1    1    2    0    0 -0.14948781700E+04 -0.35574327322E+03  0.15309513919E+04  0.21744925470E+04  0.15294330000E+03 0.  0.
<mgrwt>
<rscale>  0 0.15442168E+04</rscale>
<asrwt>0</asrwt>
<pdfrwt beam="1">  1        2 0.31955869E+00 0.15442168E+04</pdfrwt>
<pdfrwt beam="2">  1       -2 0.45820061E+00 0.15442168E+04</pdfrwt>
<totfact> 0.17260740E-02</totfact>
</mgrwt>
</event>
<event>
 4    1  0.1726795E-008  0.2008150E+03  0.7818608E-02  0.1149053E+00
         -2   -1    0    0    0  501 -0.00000000000E+00  0.00000000000E+00  0.82931089468E+02  0.82931089507E+02  0.25500000000E-02 0.  1.
          2   -1    0    0  501    0  0.00000000000E+00 -0.00000000000E+00 -0.21622157869E+04  0.21622157869E+04  0.25500000000E-02 0. -1.
    8880022    1    1    2    0    0 -0.91558580147E+01 -0.12981203298E+03 -0.51326806311E+02  0.20727056642E+03  0.15294330000E+03 0.  1.
    8880022    1    1    2    0    0  0.91558580147E+01  0.12981203298E+03 -0.20279578911E+04  0.20378763099E+04  0.15294330000E+03 0.  0.
<mgrwt>
<rscale>  0 0.20081496E+03</rscale>
<asrwt>0</asrwt>
<pdfrwt beam="1">  1        2 0.33264854E+00 0.20081496E+03</pdfrwt>
<pdfrwt beam="2">  1       -2 0.12758631E-01 0.20081496E+03</pdfrwt>
<totfact> 0.27895097E+02</totfact>
</mgrwt>
</event>
<event>
 4    1  0.1726795E-008  0.4616979E+03  0.7818608E-02  0.1024290E+00
          2   -1    0    0  501    0  0.00000000000E+00  0.00000000000E+00  0.66267320586E+03  0.66267320587E+03  0.25500000000E-02 0. -1.
         -2   -1    0    0    0  501 -0.00000000000E+00 -0.00000000000E+00 -0.10159093151E+04  0.10159093151E+04  0.25500000000E-02 0.  1.
    8880022    1    1    2    0    0 -0.29039285497E+03  0.32472333623E+03  0.51718866473E+03  0.69328855699E+03  0.15294330000E+03 0.  0.
    8880022    1    1    2    0    0  0.29039285497E+03 -0.32472333623E+03 -0.87042477393E+03  0.98529396395E+03  0.15294330000E+03 0.  0.
<mgrwt>
<rscale>  0 0.46169785E+03</rscale>
<asrwt>0</asrwt>
<pdfrwt beam="1">  1        2 0.10194972E+00 0.46169785E+03</pdfrwt>
<pdfrwt beam="2">  1       -2 0.15629374E+00 0.46169785E+03</pdfrwt>
<totfact> 0.12430312E+01</totfact>
</mgrwt>
</event>
<event>
 4    1  0.1726795E-008  0.8338893E+03  0.7818608E-02  0.9512219E-01
         -2   -1    0    0    0  501 -0.00000000000E+00  0.00000000000E+00  0.25404128696E+04  0.25404128696E+04  0.25500000000E-02 0.  1.
          2   -1    0    0  501    0  0.00000000000E+00 -0.00000000000E+00 -0.57009228553E+03  0.57009228554E+03  0.25500000000E-02 0. -1.
    8880022    1    1    2    0    0  0.58661266139E+03 -0.57259529851E+03 -0.13619791039E+03  0.84493864522E+03  0.15294330000E+03 0.  0.
    8880022    1    1    2    0    0 -0.58661266139E+03  0.57259529851E+03  0.21065184945E+04  0.22655665099E+04  0.15294330000E+03 0.  1.
<mgrwt>
<rscale>  0 0.83388935E+03</rscale>
<asrwt>0</asrwt>
<pdfrwt beam="1">  1        2 0.87706507E-01 0.83388935E+03</pdfrwt>
<pdfrwt beam="2">  1       -2 0.39083274E+00 0.83388935E+03</pdfrwt>
<totfact> 0.47010786E-01</totfact>
</mgrwt>
</event>
<event>
 4    1  0.1726795E-008  0.6166644E+03  0.7818608E-02  0.9871423E-01
         -2   -1    0    0    0  501 -0.00000000000E+00  0.00000000000E+00  0.10395734811E+04  0.10395734811E+04  0.25500000000E-02 0.  1.
          2   -1    0    0  501    0  0.00000000000E+00 -0.00000000000E+00 -0.84649100904E+03  0.84649100905E+03  0.25500000000E-02 0. -1.
    8880022    1    1    2    0    0  0.25622625290E+03  0.53965862896E+03  0.80717984851E+03  0.10157825995E+04  0.15294330000E+03 0.  0.
    8880022    1    1    2    0    0 -0.25622625290E+03 -0.53965862896E+03 -0.61409737646E+03  0.87028189070E+03  0.15294330000E+03 0.  0.
<mgrwt>
<rscale>  0 0.61666440E+03</rscale>
<asrwt>0</asrwt>
<pdfrwt beam="1">  1        2 0.13022939E+00 0.61666440E+03</pdfrwt>
<pdfrwt beam="2">  1       -2 0.15993438E+00 0.61666440E+03</pdfrwt>
<totfact> 0.83350433E+00</totfact>
</mgrwt>
</event>
<event>
 4    1  0.1726795E-008  0.5508755E+03  0.7818608E-02  0.1001291E+00
         -2   -1    0    0    0  501 -0.00000000000E+00  0.00000000000E+00  0.19599436530E+04  0.19599436530E+04  0.25500000000E-02 0.  1.
          2   -1    0    0  501    0  0.00000000000E+00 -0.00000000000E+00 -0.38422229276E+03  0.38422229277E+03  0.25500000000E-02 0. -1.
    8880022    1    1    2    0    0  0.48922499462E+03 -0.20181934288E+03  0.16934967801E+04  0.17808411327E+04  0.15294330000E+03 0.  0.
    8880022    1    1    2    0    0 -0.48922499462E+03  0.20181934288E+03 -0.11777541987E+03  0.56332481311E+03  0.15294330000E+03 0.  0.
<mgrwt>
<rscale>  0 0.55087548E+03</rscale>
<asrwt>0</asrwt>
<pdfrwt beam="1">  1        2 0.59111122E-01 0.55087548E+03</pdfrwt>
<pdfrwt beam="2">  1       -2 0.30152979E+00 0.55087548E+03</pdfrwt>
<totfact> 0.27878685E+00</totfact>
</mgrwt>
</event>
<event>
 4    1  0.1726795E-008  0.1001405E+04  0.7818608E-02  0.9307005E-01
         -2   -1    0    0    0  501 -0.00000000000E+00  0.00000000000E+00  0.62714088806E+03  0.62714088807E+03  0.25500000000E-02 0.  1.
          2   -1    0    0  501    0  0.00000000000E+00 -0.00000000000E+00 -0.20316045222E+04  0.20316045222E+04  0.25500000000E-02 0. -1.
    8880022    1    1    2    0    0  0.94741482913E+03 -0.28605236155E+03 -0.88806994645E+02  0.10053353407E+04  0.15294330000E+03 0.  0.
    8880022    1    1    2    0    0 -0.94741482913E+03  0.28605236155E+03 -0.13156566395E+04  0.16534100696E+04  0.15294330000E+03 0.  0.
<mgrwt>
<rscale>  0 0.10014052E+04</rscale>
<asrwt>0</asrwt>
<pdfrwt beam="1">  1        2 0.31255454E+00 0.10014052E+04</pdfrwt>
<pdfrwt beam="2">  1       -2 0.96483214E-01 0.10014052E+04</pdfrwt>
<totfact> 0.57724243E+00</totfact>
</mgrwt>
</event>
<event>
 4    1  0.1726795E-008  0.1442482E+04  0.7818608E-02  0.8923629E-01
          2   -1    0    0  501    0  0.00000000000E+00  0.00000000000E+00  0.23857888982E+04  0.23857888982E+04  0.25500000000E-02 0. -1.
         -2   -1    0    0    0  501 -0.00000000000E+00 -0.00000000000E+00 -0.91452145926E+03  0.91452145927E+03  0.25500000000E-02 0.  1.
    8880022    1    1    2    0    0  0.13742198930E+04 -0.41095398599E+03  0.38042190275E+03  0.14918029260E+04  0.15294330000E+03 0.  0.
    8880022    1    1    2    0    0 -0.13742198930E+04  0.41095398599E+03  0.10908455362E+04  0.18085074315E+04  0.15294330000E+03 0.  0.
<mgrwt>
<rscale>  0 0.14424823E+04</rscale>
<asrwt>0</asrwt>
<pdfrwt beam="1">  1        2 0.36704443E+00 0.14424823E+04</pdfrwt>
<pdfrwt beam="2">  1       -2 0.14069561E+00 0.14424823E+04</pdfrwt>
<totfact> 0.13663532E+00</totfact>
</mgrwt>
</event>
<event>
 4    1  0.1726795E-008  0.1022760E+04  0.7818608E-02  0.9283929E-01
          2   -1    0    0  501    0  0.00000000000E+00  0.00000000000E+00  0.20763958046E+04  0.20763958046E+04  0.25500000000E-02 0. -1.
         -2   -1    0    0    0  501 -0.00000000000E+00 -0.00000000000E+00 -0.68354657389E+03  0.68354657389E+03  0.25500000000E-02 0.  1.
    8880022    1    1    2    0    0  0.82682263316E+03  0.58224564734E+03  0.14041192167E+04  0.17371206315E+04  0.15294330000E+03 0.  0.
    8880022    1    1    2    0    0 -0.82682263316E+03 -0.58224564734E+03 -0.11269986009E+02  0.10228217470E+04  0.15294330000E+03 0.  0.
<mgrwt>
<rscale>  0 0.10227597E+04</rscale>
<asrwt>0</asrwt>
<pdfrwt beam="1">  1        2 0.31944551E+00 0.10227597E+04</pdfrwt>
<pdfrwt beam="2">  1       -2 0.10516101E+00 0.10227597E+04</pdfrwt>
<totfact> 0.44286728E+00</totfact>
</mgrwt>
</event>
<event>
 4    1  0.1726795E-008  0.5602597E+03  0.7818608E-02  0.9991467E-01
         -2   -1    0    0    0  501 -0.00000000000E+00  0.00000000000E+00  0.90117860552E+03  0.90117860553E+03  0.25500000000E-02 0.  1.
          2   -1    0    0  501    0  0.00000000000E+00 -0.00000000000E+00 -0.31157863507E+04  0.31157863507E+04  0.25500000000E-02 0. -1.
    8880022    1    1    2    0    0 -0.35031423788E+03 -0.40960863153E+03 -0.30001967925E+04  0.30520602456E+04  0.15294330000E+03 0.  0.
    8880022    1    1    2    0    0  0.35031423788E+03  0.40960863153E+03  0.78558904731E+03  0.96490471060E+03  0.15294330000E+03 0.  0.
<mgrwt>
<rscale>  0 0.56025972E+03</rscale>
<asrwt>0</asrwt>
<pdfrwt beam="1">  1        2 0.47935174E+00 0.56025972E+03</pdfrwt>
<pdfrwt beam="2">  1       -2 0.13864286E+00 0.56025972E+03</pdfrwt>
<totfact> 0.61313038E-01</totfact>
</mgrwt>
</event>
<event>
 4    1  0.1726795E-008  0.4128245E+03  0.7818608E-02  0.1039427E+00
          2   -1    0    0  501    0  0.00000000000E+00  0.00000000000E+00  0.16082921988E+04  0.16082921988E+04  0.25500000000E-02 0. -1.
         -2   -1    0    0    0  501 -0.00000000000E+00 -0.00000000000E+00 -0.43310738729E+03  0.43310738730E+03  0.25500000000E-02 0.  1.
    8880022    1    1    2    0    0 -0.32387626964E+03  0.20527200967E+03  0.14746831747E+04  0.15313766861E+04  0.15294330000E+03 0.  0.
    8880022    1    1    2    0    0  0.32387626964E+03 -0.20527200967E+03 -0.29949836317E+03  0.51002290002E+03  0.15294330000E+03 0.  0.
<mgrwt>
<rscale>  0 0.41282453E+03</rscale>
<asrwt>0</asrwt>
<pdfrwt beam="1">  1        2 0.24742958E+00 0.41282453E+03</pdfrwt>
<pdfrwt beam="2">  1       -2 0.66631904E-01 0.41282453E+03</pdfrwt>
<totfact> 0.24756135E+01</totfact>
</mgrwt>
</event>
<event>
 4    1  0.1726795E-008  0.3822137E+03  0.7818608E-02  0.1050119E+00
         -2   -1    0    0    0  501 -0.00000000000E+00  0.00000000000E+00  0.13793855387E+03  0.13793855390E+03  0.25500000000E-02 0.  1.
          2   -1    0    0  501    0  0.00000000000E+00 -0.00000000000E+00 -0.28949383215E+04  0.28949383215E+04  0.25500000000E-02 0. -1.
    8880022    1    1    2    0    0 -0.33131996249E+03  0.11367814699E+03 -0.17089382332E+03  0.41867886322E+03  0.15294330000E+03 0.  0.
    8880022    1    1    2    0    0  0.33131996249E+03 -0.11367814699E+03 -0.25861059443E+04  0.26141980122E+04  0.15294330000E+03 0.  0.
<mgrwt>
<rscale>  0 0.38221367E+03</rscale>
<asrwt>0</asrwt>
<pdfrwt beam="1">  1        2 0.44537508E+00 0.38221367E+03</pdfrwt>
<pdfrwt beam="2">  1       -2 0.21221318E-01 0.38221367E+03</pdfrwt>
<totfact> 0.44151119E+01</totfact>
</mgrwt>
</event>
<event>
 4    1  0.1726795E-008  0.9051247E+03  0.7818608E-02  0.9419198E-01
          2   -1    0    0  501    0  0.00000000000E+00  0.00000000000E+00  0.98565174659E+03  0.98565174659E+03  0.25500000000E-02 0. -1.
         -2   -1    0    0    0  501 -0.00000000000E+00 -0.00000000000E+00 -0.14983917523E+04  0.14983917523E+04  0.25500000000E-02 0.  1.
    8880022    1    1    2    0    0 -0.87505900745E+03 -0.17358232585E+03 -0.10851694242E+04  0.14130971031E+04  0.15294330000E+03 0.  0.
    8880022    1    1    2    0    0  0.87505900745E+03  0.17358232585E+03  0.57242941857E+03  0.10709463958E+04  0.15294330000E+03 0.  0.
<mgrwt>
<rscale>  0 0.90512471E+03</rscale>
<asrwt>0</asrwt>
<pdfrwt beam="1">  1        2 0.15163873E+00 0.90512471E+03</pdfrwt>
<pdfrwt beam="2">  1       -2 0.23052181E+00 0.90512471E+03</pdfrwt>
<totfact> 0.21978910E+00</totfact>
</mgrwt>
</event>
<event>
 4    1  0.1726795E-008  0.6416707E+03  0.7818608E-02  0.9822535E-01
          2   -1    0    0  501    0  0.00000000000E+00  0.00000000000E+00  0.10159916557E+04  0.10159916557E+04  0.25500000000E-02 0. -1.
         -2   -1    0    0    0  501 -0.00000000000E+00 -0.00000000000E+00 -0.92969835292E+03  0.92969835292E+03  0.25500000000E-02 0.  1.
    8880022    1    1    2    0    0 -0.61415034879E+03 -0.10568342075E+03 -0.68752058957E+03  0.94043917956E+03  0.15294330000E+03 0.  0.
    8880022    1    1    2    0    0  0.61415034879E+03  0.10568342075E+03  0.77381389239E+03  0.10052508291E+04  0.15294330000E+03 0.  0.
<mgrwt>
<rscale>  0 0.64167070E+03</rscale>
<asrwt>0</asrwt>
<pdfrwt beam="1">  1        2 0.15630641E+00 0.64167070E+03</pdfrwt>
<pdfrwt beam="2">  1       -2 0.14303052E+00 0.64167070E+03</pdfrwt>
<totfact> 0.86318714E+00</totfact>
</mgrwt>
</event>
<event>
 4    1  0.1726795E-008  0.1121589E+04  0.7818608E-02  0.9184402E-01
         -2   -1    0    0    0  501 -0.00000000000E+00  0.00000000000E+00  0.18701989304E+04  0.18701989304E+04  0.25500000000E-02 0.  1.
          2   -1    0    0  501    0  0.00000000000E+00 -0.00000000000E+00 -0.82640251978E+03  0.82640251978E+03  0.25500000000E-02 0. -1.
    8880022    1    1    2    0    0 -0.11093955906E+04 -0.61732626855E+02  0.11034967888E+04  0.15734250251E+04  0.15294330000E+03 0.  0.
    8880022    1    1    2    0    0  0.11093955906E+04  0.61732626855E+02 -0.59700378222E+02  0.11231764251E+04  0.15294330000E+03 0.  0.
<mgrwt>
<rscale>  0 0.11215887E+04</rscale>
<asrwt>0</asrwt>
<pdfrwt beam="1">  1        2 0.12713885E+00 0.11215887E+04</pdfrwt>
<pdfrwt beam="2">  1       -2 0.28772291E+00 0.11215887E+04</pdfrwt>
<totfact> 0.12306254E+00</totfact>
</mgrwt>
</event>
<event>
 4    1  0.1726795E-008  0.6533510E+03  0.7818608E-02  0.9800512E-01
         -2   -1    0    0    0  501 -0.00000000000E+00  0.00000000000E+00  0.13995231898E+04  0.13995231898E+04  0.25500000000E-02 0.  1.
          2   -1    0    0  501    0  0.00000000000E+00 -0.00000000000E+00 -0.13731261841E+04  0.13731261841E+04  0.25500000000E-02 0. -1.
    8880022    1    1    2    0    0  0.57552474411E+02 -0.63258482489E+03  0.12358963159E+04  0.13979653803E+04  0.15294330000E+03 0.  1.
    8880022    1    1    2    0    0 -0.57552474411E+02  0.63258482489E+03 -0.12094993101E+04  0.13746839936E+04  0.15294330000E+03 0.  0.
<mgrwt>
<rscale>  0 0.65335098E+03</rscale>
<asrwt>0</asrwt>
<pdfrwt beam="1">  1        2 0.21125018E+00 0.65335098E+03</pdfrwt>
<pdfrwt beam="2">  1       -2 0.21531126E+00 0.65335098E+03</pdfrwt>
<totfact> 0.16698163E+00</totfact>
</mgrwt>
</event>
<event>
 4    1  0.1726795E-008  0.4743768E+03  0.7818608E-02  0.1020692E+00
         -2   -1    0    0    0  501 -0.00000000000E+00  0.00000000000E+00  0.93303838815E+03  0.93303838815E+03  0.25500000000E-02 0.  1.
          2   -1    0    0  501    0  0.00000000000E+00 -0.00000000000E+00 -0.31517339355E+03  0.31517339356E+03  0.25500000000E-02 0. -1.
    8880022    1    1    2    0    0 -0.34437216974E+03 -0.28818310861E+03  0.61132434110E+03  0.77378989294E+03  0.15294330000E+03 0.  0.
    8880022    1    1    2    0    0  0.34437216974E+03  0.28818310861E+03  0.65406534994E+01  0.47442188877E+03  0.15294330000E+03 0.  0.
<mgrwt>
<rscale>  0 0.47437680E+03</rscale>
<asrwt>0</asrwt>
<pdfrwt beam="1">  1        2 0.48488215E-01 0.47437680E+03</pdfrwt>
<pdfrwt beam="2">  1       -2 0.14354437E+00 0.47437680E+03</pdfrwt>
<totfact> 0.36179660E+01</totfact>
</mgrwt>
</event>
<event>
 4    1  0.1726795E-008  0.8722880E+03  0.7818608E-02  0.9460901E-01
         -2   -1    0    0    0  501 -0.00000000000E+00  0.00000000000E+00  0.12506193284E+04  0.12506193284E+04  0.25500000000E-02 0.  1.
          2   -1    0    0  501    0  0.00000000000E+00 -0.00000000000E+00 -0.12544439310E+04  0.12544439310E+04  0.25500000000E-02 0. -1.
    8880022    1    1    2    0    0 -0.26057533753E+03 -0.81828801329E+03  0.89694657397E+03  0.12511592979E+04  0.15294330000E+03 0.  0.
    8880022    1    1    2    0    0  0.26057533753E+03  0.81828801329E+03 -0.90077117653E+03  0.12539039615E+04  0.15294330000E+03 0.  0.
<mgrwt>
<rscale>  0 0.87228804E+03</rscale>
<asrwt>0</asrwt>
<pdfrwt beam="1">  1        2 0.19299137E+00 0.87228804E+03</pdfrwt>
<pdfrwt beam="2">  1       -2 0.19240297E+00 0.87228804E+03</pdfrwt>
<totfact> 0.26476738E+00</totfact>
</mgrwt>
</event>
<event>
 4    1  0.1726795E-008  0.1357829E+04  0.7818608E-02  0.8984922E-01
          2   -1    0    0  501    0  0.00000000000E+00  0.00000000000E+00  0.20559353845E+04  0.20559353845E+04  0.25500000000E-02 0. -1.
         -2   -1    0    0    0  501 -0.00000000000E+00 -0.00000000000E+00 -0.14480593787E+04  0.14480593787E+04  0.25500000000E-02 0.  1.
    8880022    1    1    2    0    0 -0.84305194704E+01  0.13491619686E+04  0.13849491256E+04  0.19395321149E+04  0.15294330000E+03 0.  0.
    8880022    1    1    2    0    0  0.84305194704E+01 -0.13491619686E+04 -0.77707311976E+03  0.15644626483E+04  0.15294330000E+03 0.  0.
<mgrwt>
<rscale>  0 0.13578294E+04</rscale>
<asrwt>0</asrwt>
<pdfrwt beam="1">  1        2 0.31629775E+00 0.13578294E+04</pdfrwt>
<pdfrwt beam="2">  1       -2 0.22277837E+00 0.13578294E+04</pdfrwt>
<totfact> 0.56253378E-01</totfact>
</mgrwt>
</event>
<event>
 4    1  0.1726795E-008  0.7731057E+03  0.7818608E-02  0.9599783E-01
         -2   -1    0    0    0  501 -0.00000000000E+00  0.00000000000E+00  0.14976081689E+04  0.14976081689E+04  0.25500000000E-02 0.  1.
          2   -1    0    0  501    0  0.00000000000E+00 -0.00000000000E+00 -0.13357311685E+04  0.13357311685E+04  0.25500000000E-02 0. -1.
    8880022    1    1    2    0    0  0.60617808590E+03 -0.45480643590E+03 -0.11053595950E+04  0.13488929733E+04  0.15294330000E+03 0.  0.
    8880022    1    1    2    0    0 -0.60617808590E+03  0.45480643590E+03  0.12672365955E+04  0.14844463641E+04  0.15294330000E+03 0.  1.
<mgrwt>
<rscale>  0 0.77310570E+03</rscale>
<asrwt>0</asrwt>
<pdfrwt beam="1">  1        2 0.20549710E+00 0.77310570E+03</pdfrwt>
<pdfrwt beam="2">  1       -2 0.23040126E+00 0.77310570E+03</pdfrwt>
<totfact> 0.13806273E+00</totfact>
</mgrwt>
</event>
<event>
 4    1  0.1726795E-008  0.5462229E+03  0.7818608E-02  0.1002372E+00
          2   -1    0    0  501    0  0.00000000000E+00  0.00000000000E+00  0.12877679557E+04  0.12877679557E+04  0.25500000000E-02 0. -1.
         -2   -1    0    0    0  501 -0.00000000000E+00 -0.00000000000E+00 -0.36860929820E+03  0.36860929821E+03  0.25500000000E-02 0.  1.
    8880022    1    1    2    0    0 -0.38531138361E+03 -0.35567244336E+03 -0.45178228536E+02  0.54808801725E+03  0.15294330000E+03 0.  1.
    8880022    1    1    2    0    0  0.38531138361E+03  0.35567244336E+03  0.96433688606E+03  0.11082892367E+04  0.15294330000E+03 0.  0.
<mgrwt>
<rscale>  0 0.54622285E+03</rscale>
<asrwt>0</asrwt>
<pdfrwt beam="1">  1        2 0.19811815E+00 0.54622285E+03</pdfrwt>
<pdfrwt beam="2">  1       -2 0.56709121E-01 0.54622285E+03</pdfrwt>
<totfact> 0.51108667E+01</totfact>
</mgrwt>
</event>
<event>
 4    1  0.1726795E-008  0.8157654E+03  0.7818608E-02  0.9537474E-01
         -2   -1    0    0    0  501 -0.00000000000E+00  0.00000000000E+00  0.90144204528E+03  0.90144204528E+03  0.25500000000E-02 0.  1.
          2   -1    0    0  501    0  0.00000000000E+00 -0.00000000000E+00 -0.22060194565E+04  0.22060194565E+04  0.25500000000E-02 0. -1.
    8880022    1    1    2    0    0  0.12970171789E+03 -0.79073321462E+03 -0.19196566083E+04  0.20857983362E+04  0.15294330000E+03 0.  0.
    8880022    1    1    2    0    0 -0.12970171789E+03  0.79073321462E+03  0.61507919707E+03  0.10216631656E+04  0.15294330000E+03 0.  0.
<mgrwt>
<rscale>  0 0.81576541E+03</rscale>
<asrwt>0</asrwt>
<pdfrwt beam="1">  1        2 0.33938761E+00 0.81576541E+03</pdfrwt>
<pdfrwt beam="2">  1       -2 0.13868339E+00 0.81576541E+03</pdfrwt>
<totfact> 0.19432190E+00</totfact>
</mgrwt>
</event>
<event>
 4    1  0.1726795E-008  0.8986633E+03  0.7818608E-02  0.9427254E-01
         -2   -1    0    0    0  501 -0.00000000000E+00  0.00000000000E+00  0.13193931190E+04  0.13193931190E+04  0.25500000000E-02 0.  1.
          2   -1    0    0  501    0  0.00000000000E+00 -0.00000000000E+00 -0.14064167874E+04  0.14064167874E+04  0.25500000000E-02 0. -1.
    8880022    1    1    2    0    0  0.19586373305E+02  0.88533638057E+03  0.98073917906E+03  0.13302049177E+04  0.15294330000E+03 0.  0.
    8880022    1    1    2    0    0 -0.19586373305E+02 -0.88533638057E+03 -0.10677628475E+04  0.13956049886E+04  0.15294330000E+03 0. -1.
<mgrwt>
<rscale>  0 0.89866333E+03</rscale>
<asrwt>0</asrwt>
<pdfrwt beam="1">  1        2 0.21637181E+00 0.89866333E+03</pdfrwt>
<pdfrwt beam="2">  1       -2 0.20298356E+00 0.89866333E+03</pdfrwt>
<totfact> 0.18372607E+00</totfact>
</mgrwt>
</event>
<event>
 4    1  0.1726795E-008  0.1519395E+04  0.7818608E-02  0.8871657E-01
          2   -1    0    0  501    0  0.00000000000E+00  0.00000000000E+00  0.29235843133E+04  0.29235843133E+04  0.25500000000E-02 0. -1.
         -2   -1    0    0    0  501 -0.00000000000E+00 -0.00000000000E+00 -0.85492756190E+03  0.85492756191E+03  0.25500000000E-02 0.  1.
    8880022    1    1    2    0    0  0.90568880817E+03  0.12103287999E+04  0.15564401414E+04  0.21751012822E+04  0.15294330000E+03 0.  0.
    8880022    1    1    2    0    0 -0.90568880817E+03 -0.12103287999E+04  0.51221660996E+03  0.16034105930E+04  0.15294330000E+03 0.  0.
<mgrwt>
<rscale>  0 0.15193945E+04</rscale>
<asrwt>0</asrwt>
<pdfrwt beam="1">  1        2 0.44978221E+00 0.15193945E+04</pdfrwt>
<pdfrwt beam="2">  1       -2 0.13152732E+00 0.15193945E+04</pdfrwt>
<totfact> 0.77654490E-01</totfact>
</mgrwt>
</event>
<event>
 4    1  0.1726795E-008  0.3412790E+03  0.7818608E-02  0.1066253E+00
         -2   -1    0    0    0  501 -0.00000000000E+00  0.00000000000E+00  0.20349826465E+03  0.20349826467E+03  0.25500000000E-02 0.  1.
          2   -1    0    0  501    0  0.00000000000E+00 -0.00000000000E+00 -0.10273015895E+04  0.10273015895E+04  0.25500000000E-02 0. -1.
    8880022    1    1    2    0    0  0.29966257857E+03  0.57288817377E+02 -0.82143870163E+03  0.88951271106E+03  0.15294330000E+03 0.  0.
    8880022    1    1    2    0    0 -0.29966257857E+03 -0.57288817377E+02 -0.23646232120E+01  0.34128714310E+03  0.15294330000E+03 0.  0.
<mgrwt>
<rscale>  0 0.34127895E+03</rscale>
<asrwt>0</asrwt>
<pdfrwt beam="1">  1        2 0.15804640E+00 0.34127895E+03</pdfrwt>
<pdfrwt beam="2">  1       -2 0.31307426E-01 0.34127895E+03</pdfrwt>
<totfact> 0.23882742E+02</totfact>
</mgrwt>
</event>
<event>
 4    1  0.1726795E-008  0.1722673E+04  0.7818608E-02  0.8748538E-01
         -2   -1    0    0    0  501 -0.00000000000E+00  0.00000000000E+00  0.16116882609E+04  0.16116882609E+04  0.25500000000E-02 0.  1.
          2   -1    0    0  501    0  0.00000000000E+00 -0.00000000000E+00 -0.34098929859E+04  0.34098929859E+04  0.25500000000E-02 0. -1.
    8880022    1    1    2    0    0  0.11033542526E+04 -0.13140857408E+04  0.80382093075E+03  0.19009817681E+04  0.15294330000E+03 0.  0.
    8880022    1    1    2    0    0 -0.11033542526E+04  0.13140857408E+04 -0.26020256557E+04  0.31205994788E+04  0.15294330000E+03 0.  0.
<mgrwt>
<rscale>  0 0.17226734E+04</rscale>
<asrwt>0</asrwt>
<pdfrwt beam="1">  1        2 0.52459892E+00 0.17226734E+04</pdfrwt>
<pdfrwt beam="2">  1       -2 0.24795204E+00 0.17226734E+04</pdfrwt>
<totfact> 0.56951308E-02</totfact>
</mgrwt>
</event>
<event>
 4    1  0.1726795E-008  0.7216619E+03  0.7818608E-02  0.9680888E-01
          2   -1    0    0  501    0  0.00000000000E+00  0.00000000000E+00  0.28834369811E+04  0.28834369811E+04  0.25500000000E-02 0. -1.
         -2   -1    0    0    0  501 -0.00000000000E+00 -0.00000000000E+00 -0.39217261689E+03  0.39217261690E+03  0.25500000000E-02 0.  1.
    8880022    1    1    2    0    0  0.48095550941E+03  0.51583522287E+03  0.42712960355E+02  0.72292477422E+03  0.15294330000E+03 0.  0.
    8880022    1    1    2    0    0 -0.48095550941E+03 -0.51583522287E+03  0.24485514039E+04  0.25526848238E+04  0.15294330000E+03 0.  0.
<mgrwt>
<rscale>  0 0.72166185E+03</rscale>
<asrwt>0</asrwt>
<pdfrwt beam="1">  1        2 0.44360569E+00 0.72166185E+03</pdfrwt>
<pdfrwt beam="2">  1       -2 0.60334248E-01 0.72166185E+03</pdfrwt>
<totfact> 0.56200192E+00</totfact>
</mgrwt>
</event>
<event>
 4    1  0.1726795E-008  0.4080615E+03  0.7818608E-02  0.1041023E+00
         -2   -1    0    0    0  501 -0.00000000000E+00  0.00000000000E+00  0.41069322507E+03  0.41069322507E+03  0.25500000000E-02 0.  1.
          2   -1    0    0  501    0  0.00000000000E+00 -0.00000000000E+00 -0.49103094072E+03  0.49103094073E+03  0.25500000000E-02 0. -1.
    8880022    1    1    2    0    0 -0.33673690791E+03 -0.17242622710E+03 -0.22839773514E+03  0.46763204271E+03  0.15294330000E+03 0.  0.
    8880022    1    1    2    0    0  0.33673690791E+03  0.17242622710E+03  0.14806001949E+03  0.43409212309E+03  0.15294330000E+03 0.  0.
<mgrwt>
<rscale>  0 0.40806152E+03</rscale>
<asrwt>0</asrwt>
<pdfrwt beam="1">  1        2 0.75543222E-01 0.40806152E+03</pdfrwt>
<pdfrwt beam="2">  1       -2 0.63183573E-01 0.40806152E+03</pdfrwt>
<totfact> 0.15039235E+02</totfact>
</mgrwt>
</event>
<event>
 4    1  0.1726795E-008  0.5350172E+03  0.7818608E-02  0.1005023E+00
         -2   -1    0    0    0  501 -0.00000000000E+00  0.00000000000E+00  0.27779724193E+03  0.27779724194E+03  0.25500000000E-02 0.  1.
          2   -1    0    0  501    0  0.00000000000E+00 -0.00000000000E+00 -0.13300634579E+04  0.13300634579E+04  0.25500000000E-02 0. -1.
    8880022    1    1    2    0    0  0.15031404665E+03  0.49016062858E+03 -0.90772241026E+03  0.10536618915E+04  0.15294330000E+03 0.  0.
    8880022    1    1    2    0    0 -0.15031404665E+03 -0.49016062858E+03 -0.14454380573E+03  0.55419880839E+03  0.15294330000E+03 0.  0.
<mgrwt>
<rscale>  0 0.53501720E+03</rscale>
<asrwt>0</asrwt>
<pdfrwt beam="1">  1        2 0.20462514E+00 0.53501720E+03</pdfrwt>
<pdfrwt beam="2">  1       -2 0.42738038E-01 0.53501720E+03</pdfrwt>
<totfact> 0.85737410E+01</totfact>
</mgrwt>
</event>
<event>
 4    1  0.1726795E-008  0.8456135E+03  0.7818608E-02  0.9496243E-01
          2   -1    0    0  501    0  0.00000000000E+00  0.00000000000E+00  0.33456629717E+04  0.33456629717E+04  0.25500000000E-02 0. -1.
         -2   -1    0    0    0  501 -0.00000000000E+00 -0.00000000000E+00 -0.46853731862E+03  0.46853731863E+03  0.25500000000E-02 0.  1.
    8880022    1    1    2    0    0 -0.65192988401E+03  0.51638938233E+03  0.28449631756E+04  0.29679753522E+04  0.15294330000E+03 0.  0.
    8880022    1    1    2    0    0  0.65192988401E+03 -0.51638938233E+03  0.32162477452E+02  0.84622493808E+03  0.15294330000E+03 0.  0.
<mgrwt>
<rscale>  0 0.84561352E+03</rscale>
<asrwt>0</asrwt>
<pdfrwt beam="1">  1        2 0.51471738E+00 0.84561352E+03</pdfrwt>
<pdfrwt beam="2">  1       -2 0.72082664E-01 0.84561352E+03</pdfrwt>
<totfact> 0.19175052E+00</totfact>
</mgrwt>
</event>
<event>
 4    1  0.1726795E-008  0.2220135E+03  0.7818608E-02  0.1132391E+00
         -2   -1    0    0    0  501 -0.00000000000E+00  0.00000000000E+00  0.36714550367E+03  0.36714550368E+03  0.25500000000E-02 0.  1.
          2   -1    0    0  501    0  0.00000000000E+00 -0.00000000000E+00 -0.37650066631E+03  0.37650066631E+03  0.25500000000E-02 0. -1.
    8880022    1    1    2    0    0 -0.38276796082E+02  0.15631127785E+03  0.29357503472E+03  0.36807102946E+03  0.15294330000E+03 0.  0.
    8880022    1    1    2    0    0  0.38276796082E+02 -0.15631127785E+03 -0.30293019736E+03  0.37557514053E+03  0.15294330000E+03 0.  0.
<mgrwt>
<rscale>  0 0.22201347E+03</rscale>
<asrwt>0</asrwt>
<pdfrwt beam="1">  1        2 0.57923180E-01 0.22201347E+03</pdfrwt>
<pdfrwt beam="2">  1       -2 0.56483923E-01 0.22201347E+03</pdfrwt>
<totfact> 0.25837506E+02</totfact>
</mgrwt>
</event>
<event>
 4    1  0.1726795E-008  0.1298310E+04  0.7818608E-02  0.9030906E-01
         -2   -1    0    0    0  501 -0.00000000000E+00  0.00000000000E+00  0.14035863357E+04  0.14035863357E+04  0.25500000000E-02 0.  1.
          2   -1    0    0  501    0  0.00000000000E+00 -0.00000000000E+00 -0.29469826530E+04  0.29469826530E+04  0.25500000000E-02 0. -1.
    8880022    1    1    2    0    0 -0.28957901308E+03 -0.12563286914E+04 -0.24460853691E+04  0.27692856609E+04  0.15294330000E+03 0.  0.
    8880022    1    1    2    0    0  0.28957901308E+03  0.12563286914E+04  0.90268905183E+03  0.15812833279E+04  0.15294330000E+03 0.  0.
<mgrwt>
<rscale>  0 0.12983102E+04</rscale>
<asrwt>0</asrwt>
<pdfrwt beam="1">  1        2 0.45338194E+00 0.12983102E+04</pdfrwt>
<pdfrwt beam="2">  1       -2 0.21593636E+00 0.12983102E+04</pdfrwt>
<totfact> 0.19068511E-01</totfact>
</mgrwt>
</event>
<event>
 4    1  0.1726795E-008  0.3487038E+03  0.7818608E-02  0.1063148E+00
          2   -1    0    0  501    0  0.00000000000E+00  0.00000000000E+00  0.96053663361E+03  0.96053663361E+03  0.25500000000E-02 0. -1.
         -2   -1    0    0    0  501 -0.00000000000E+00 -0.00000000000E+00 -0.27955062961E+03  0.27955062962E+03  0.25500000000E-02 0.  1.
    8880022    1    1    2    0    0  0.10499208046E+03  0.29526147978E+03 -0.11815747206E+03  0.36817865177E+03  0.15294330000E+03 0.  0.
    8880022    1    1    2    0    0 -0.10499208046E+03 -0.29526147978E+03  0.79914347606E+03  0.87190861146E+03  0.15294330000E+03 0.  0.
<mgrwt>
<rscale>  0 0.34870379E+03</rscale>
<asrwt>0</asrwt>
<pdfrwt beam="1">  1        2 0.14777487E+00 0.34870379E+03</pdfrwt>
<pdfrwt beam="2">  1       -2 0.43007789E-01 0.34870379E+03</pdfrwt>
<totfact> 0.14378863E+02</totfact>
</mgrwt>
</event>
<event>
 4    1  0.1726795E-008  0.7908496E+03  0.7818608E-02  0.9573357E-01
         -2   -1    0    0    0  501 -0.00000000000E+00  0.00000000000E+00  0.44738077730E+03  0.44738077731E+03  0.25500000000E-02 0.  1.
          2   -1    0    0  501    0  0.00000000000E+00 -0.00000000000E+00 -0.34290566177E+04  0.34290566177E+04  0.25500000000E-02 0. -1.
    8880022    1    1    2    0    0  0.77396304763E+03 -0.55069065201E+02 -0.29825167840E+04  0.30855873705E+04  0.15294330000E+03 0.  0.
    8880022    1    1    2    0    0 -0.77396304763E+03  0.55069065201E+02  0.84094363779E+00  0.79085002449E+03  0.15294330000E+03 0.  0.
<mgrwt>
<rscale>  0 0.79084958E+03</rscale>
<asrwt>0</asrwt>
<pdfrwt beam="1">  1        2 0.52754715E+00 0.79084958E+03</pdfrwt>
<pdfrwt beam="2">  1       -2 0.68827814E-01 0.79084958E+03</pdfrwt>
<totfact> 0.18880641E+00</totfact>
</mgrwt>
</event>
<event>
 4    1  0.1726795E-008  0.1994344E+04  0.7818608E-02  0.8609270E-01
         -2   -1    0    0    0  501 -0.00000000000E+00  0.00000000000E+00  0.16411632240E+04  0.16411632240E+04  0.25500000000E-02 0.  1.
          2   -1    0    0  501    0  0.00000000000E+00 -0.00000000000E+00 -0.30827508137E+04  0.30827508137E+04  0.25500000000E-02 0. -1.
    8880022    1    1    2    0    0  0.19884471601E+04  0.97181886954E+01  0.37144665496E+03  0.20286401412E+04  0.15294330000E+03 0.  0.
    8880022    1    1    2    0    0 -0.19884471601E+04 -0.97181886954E+01 -0.18130342447E+04  0.26952738966E+04  0.15294330000E+03 0.  0.
<mgrwt>
<rscale>  0 0.19943441E+04</rscale>
<asrwt>0</asrwt>
<pdfrwt beam="1">  1        2 0.47426935E+00 0.19943441E+04</pdfrwt>
<pdfrwt beam="2">  1       -2 0.25248665E+00 0.19943441E+04</pdfrwt>
<totfact> 0.85062358E-02</totfact>
</mgrwt>
</event>
<event>
 4    1  0.1726795E-008  0.1374865E+04  0.7818608E-02  0.8972216E-01
          2   -1    0    0  501    0  0.00000000000E+00  0.00000000000E+00  0.13724727537E+04  0.13724727537E+04  0.25500000000E-02 0. -1.
         -2   -1    0    0    0  501 -0.00000000000E+00 -0.00000000000E+00 -0.15531894718E+04  0.15531894718E+04  0.25500000000E-02 0.  1.
    8880022    1    1    2    0    0  0.73218298502E+03 -0.11535901275E+04  0.40196396577E+03  0.14324206047E+04  0.15294330000E+03 0.  0.
    8880022    1    1    2    0    0 -0.73218298502E+03  0.11535901275E+04 -0.58268068391E+03  0.14932416209E+04  0.15294330000E+03 0.  0.
<mgrwt>
<rscale>  0 0.13748650E+04</rscale>
<asrwt>0</asrwt>
<pdfrwt beam="1">  1        2 0.21114965E+00 0.13748650E+04</pdfrwt>
<pdfrwt beam="2">  1       -2 0.23895223E+00 0.13748650E+04</pdfrwt>
<totfact> 0.10757353E+00</totfact>
</mgrwt>
</event>
<event>
 4    1  0.1726795E-008  0.7232657E+03  0.7818608E-02  0.9678252E-01
          2   -1    0    0  501    0  0.00000000000E+00  0.00000000000E+00  0.10275304520E+04  0.10275304520E+04  0.25500000000E-02 0. -1.
         -2   -1    0    0    0  501 -0.00000000000E+00 -0.00000000000E+00 -0.10896233708E+04  0.10896233708E+04  0.25500000000E-02 0.  1.
    8880022    1    1    2    0    0  0.54671056161E+03  0.44813969044E+03 -0.80371809430E+03  0.10812382015E+04  0.15294330000E+03 0.  0.
    8880022    1    1    2    0    0 -0.54671056161E+03 -0.44813969044E+03  0.74162517553E+03  0.10359156212E+04  0.15294330000E+03 0.  0.
<mgrwt>
<rscale>  0 0.72326570E+03</rscale>
<asrwt>0</asrwt>
<pdfrwt beam="1">  1        2 0.15808161E+00 0.72326570E+03</pdfrwt>
<pdfrwt beam="2">  1       -2 0.16763437E+00 0.72326570E+03</pdfrwt>
<totfact> 0.54890495E+00</totfact>
</mgrwt>
</event>
<event>
 4    1  0.1726795E-008  0.1222964E+04  0.7818608E-02  0.9092991E-01
          2   -1    0    0  501    0  0.00000000000E+00  0.00000000000E+00  0.36629844185E+04  0.36629844185E+04  0.25500000000E-02 0. -1.
         -2   -1    0    0    0  501 -0.00000000000E+00 -0.00000000000E+00 -0.10364660767E+04  0.10364660767E+04  0.25500000000E-02 0.  1.
    8880022    1    1    2    0    0 -0.11678900134E+04  0.32906135575E+03 -0.51598914791E+03  0.13273601293E+04  0.15294330000E+03 0.  0.
    8880022    1    1    2    0    0  0.11678900134E+04 -0.32906135575E+03  0.31425074898E+04  0.33720903658E+04  0.15294330000E+03 0.  0.
<mgrwt>
<rscale>  0 0.12229637E+04</rscale>
<asrwt>0</asrwt>
<pdfrwt beam="1">  1        2 0.56353607E+00 0.12229637E+04</pdfrwt>
<pdfrwt beam="2">  1       -2 0.15945632E+00 0.12229637E+04</pdfrwt>
<totfact> 0.15706931E-01</totfact>
</mgrwt>
</event>
<event>
 4    1  0.1726795E-008  0.9845278E+03  0.7818608E-02  0.9325679E-01
          2   -1    0    0  501    0  0.00000000000E+00  0.00000000000E+00  0.14042235720E+04  0.14042235720E+04  0.25500000000E-02 0. -1.
         -2   -1    0    0    0  501 -0.00000000000E+00 -0.00000000000E+00 -0.21348728476E+04  0.21348728476E+04  0.25500000000E-02 0.  1.
    8880022    1    1    2    0    0  0.94714775900E+03  0.22094002435E+03  0.10903035340E+04  0.14690326140E+04  0.15294330000E+03 0.  0.
    8880022    1    1    2    0    0 -0.94714775900E+03 -0.22094002435E+03 -0.18209528095E+04  0.20700638056E+04  0.15294330000E+03 0.  0.
<mgrwt>
<rscale>  0 0.98452782E+03</rscale>
<asrwt>0</asrwt>
<pdfrwt beam="1">  1        2 0.21603440E+00 0.98452782E+03</pdfrwt>
<pdfrwt beam="2">  1       -2 0.32844198E+00 0.98452782E+03</pdfrwt>
<totfact> 0.30905928E-01</totfact>
</mgrwt>
</event>
<event>
 4    1  0.1726795E-008  0.7184228E+03  0.7818608E-02  0.9686235E-01
         -2   -1    0    0    0  501 -0.00000000000E+00  0.00000000000E+00  0.10512826191E+04  0.10512826191E+04  0.25500000000E-02 0.  1.
          2   -1    0    0  501    0  0.00000000000E+00 -0.00000000000E+00 -0.70661572237E+03  0.70661572237E+03  0.25500000000E-02 0. -1.
    8880022    1    1    2    0    0  0.64624618408E+03 -0.27405400357E+03  0.65791108018E+03  0.97415520824E+03  0.15294330000E+03 0.  0.
    8880022    1    1    2    0    0 -0.64624618408E+03  0.27405400357E+03 -0.31324418349E+03  0.78374313319E+03  0.15294330000E+03 0.  0.
<mgrwt>
<rscale>  0 0.71842284E+03</rscale>
<asrwt>0</asrwt>
<pdfrwt beam="1">  1        2 0.10871011E+00 0.71842284E+03</pdfrwt>
<pdfrwt beam="2">  1       -2 0.16173579E+00 0.71842284E+03</pdfrwt>
<totfact> 0.10098876E+01</totfact>
</mgrwt>
</event>
<event>
 4    1  0.1726795E-008  0.1310056E+04  0.7818608E-02  0.9021628E-01
          2   -1    0    0  501    0  0.00000000000E+00  0.00000000000E+00  0.18722773844E+04  0.18722773844E+04  0.25500000000E-02 0. -1.
         -2   -1    0    0    0  501 -0.00000000000E+00 -0.00000000000E+00 -0.10621940935E+04  0.10621940935E+04  0.25500000000E-02 0.  1.
    8880022    1    1    2    0    0  0.68991369607E+03 -0.11031202939E+04 -0.13805387290E+03  0.13173100681E+04  0.15294330000E+03 0.  0.
    8880022    1    1    2    0    0 -0.68991369607E+03  0.11031202939E+04  0.94813716383E+03  0.16171614098E+04  0.15294330000E+03 0.  0.
<mgrwt>
<rscale>  0 0.13100561E+04</rscale>
<asrwt>0</asrwt>
<pdfrwt beam="1">  1        2 0.28804267E+00 0.13100561E+04</pdfrwt>
<pdfrwt beam="2">  1       -2 0.16341448E+00 0.13100561E+04</pdfrwt>
<totfact> 0.17964696E+00</totfact>
</mgrwt>
</event>
<event>
 4    1  0.1726795E-008  0.5272837E+03  0.7818608E-02  0.1006893E+00
         -2   -1    0    0    0  501 -0.00000000000E+00  0.00000000000E+00  0.19937747501E+03  0.19937747503E+03  0.25500000000E-02 0.  1.
          2   -1    0    0  501    0  0.00000000000E+00 -0.00000000000E+00 -0.18784156167E+04  0.18784156167E+04  0.25500000000E-02 0. -1.
    8880022    1    1    2    0    0 -0.43877467605E+03 -0.24922519551E+03 -0.13668337688E+04  0.14650128392E+04  0.15294330000E+03 0.  0.
    8880022    1    1    2    0    0  0.43877467605E+03  0.24922519551E+03 -0.31220437284E+03  0.61278025250E+03  0.15294330000E+03 0.  0.
<mgrwt>
<rscale>  0 0.52728367E+03</rscale>
<asrwt>0</asrwt>
<pdfrwt beam="1">  1        2 0.28898701E+00 0.52728367E+03</pdfrwt>
<pdfrwt beam="2">  1       -2 0.30673459E-01 0.52728367E+03</pdfrwt>
<totfact> 0.80961983E+01</totfact>
</mgrwt>
</event>
<event>
 4    1  0.1726795E-008  0.4322190E+03  0.7818608E-02  0.1033161E+00
          2   -1    0    0  501    0  0.00000000000E+00  0.00000000000E+00  0.54177474225E+03  0.54177474226E+03  0.25500000000E-02 0. -1.
         -2   -1    0    0    0  501 -0.00000000000E+00 -0.00000000000E+00 -0.12388023509E+04  0.12388023509E+04  0.25500000000E-02 0.  1.
    8880022    1    1    2    0    0 -0.21867130818E+03  0.34000657811E+03  0.40778762403E+03  0.59422555776E+03  0.15294330000E+03 0.  0.
    8880022    1    1    2    0    0  0.21867130818E+03 -0.34000657811E+03 -0.11048152327E+04  0.11863515354E+04  0.15294330000E+03 0.  0.
<mgrwt>
<rscale>  0 0.43221900E+03</rscale>
<asrwt>0</asrwt>
<pdfrwt beam="1">  1        2 0.83349961E-01 0.43221900E+03</pdfrwt>
<pdfrwt beam="2">  1       -2 0.19058498E+00 0.43221900E+03</pdfrwt>
<totfact> 0.91752158E+00</totfact>
</mgrwt>
</event>
<event>
 4    1  0.1726795E-008  0.1053983E+04  0.7818608E-02  0.9251242E-01
         -2   -1    0    0    0  501 -0.00000000000E+00  0.00000000000E+00  0.71256196066E+03  0.71256196066E+03  0.25500000000E-02 0.  1.
          2   -1    0    0  501    0  0.00000000000E+00 -0.00000000000E+00 -0.20740337698E+04  0.20740337698E+04  0.25500000000E-02 0. -1.
    8880022    1    1    2    0    0  0.10122530154E+04  0.25066367933E+03  0.13578663198E+02  0.10540704343E+04  0.15294330000E+03 0.  0.
    8880022    1    1    2    0    0 -0.10122530154E+04 -0.25066367933E+03 -0.13750504723E+04  0.17325252962E+04  0.15294330000E+03 0. -1.
<mgrwt>
<rscale>  0 0.10539830E+04</rscale>
<asrwt>0</asrwt>
<pdfrwt beam="1">  1        2 0.31908211E+00 0.10539830E+04</pdfrwt>
<pdfrwt beam="2">  1       -2 0.10962492E+00 0.10539830E+04</pdfrwt>
<totfact> 0.40012543E+00</totfact>
</mgrwt>
</event>
<event>
 4    1  0.1726795E-008  0.5703794E+03  0.7818608E-02  0.9968839E-01
         -2   -1    0    0    0  501 -0.00000000000E+00  0.00000000000E+00  0.52161573047E+03  0.52161573048E+03  0.25500000000E-02 0.  1.
          2   -1    0    0  501    0  0.00000000000E+00 -0.00000000000E+00 -0.32003062533E+04  0.32003062533E+04  0.25500000000E-02 0. -1.
    8880022    1    1    2    0    0  0.39536031300E+03  0.38161654054E+03 -0.30091488319E+04  0.30627290619E+04  0.15294330000E+03 0.  0.
    8880022    1    1    2    0    0 -0.39536031300E+03 -0.38161654054E+03  0.33045830911E+03  0.65919292183E+03  0.15294330000E+03 0.  0.
<mgrwt>
<rscale>  0 0.57037936E+03</rscale>
<asrwt>0</asrwt>
<pdfrwt beam="1">  1        2 0.49235479E+00 0.57037936E+03</pdfrwt>
<pdfrwt beam="2">  1       -2 0.80248576E-01 0.57037936E+03</pdfrwt>
<totfact> 0.20011741E+00</totfact>
</mgrwt>
</event>
<event>
 4    1  0.1726795E-008  0.3612679E+03  0.7818608E-02  0.1058083E+00
          2   -1    0    0  501    0  0.00000000000E+00  0.00000000000E+00  0.97597973291E+03  0.97597973291E+03  0.25500000000E-02 0. -1.
         -2   -1    0    0    0  501 -0.00000000000E+00 -0.00000000000E+00 -0.15483823337E+03  0.15483823339E+03  0.25500000000E-02 0.  1.
    8880022    1    1    2    0    0 -0.12388668695E+03 -0.30294379376E+03  0.20179313189E+03  0.41380547903E+03  0.15294330000E+03 0.  0.
    8880022    1    1    2    0    0  0.12388668695E+03  0.30294379376E+03  0.61934836764E+03  0.71701248727E+03  0.15294330000E+03 0.  0.
<mgrwt>
<rscale>  0 0.36126791E+03</rscale>
<asrwt>0</asrwt>
<pdfrwt beam="1">  1        2 0.15015073E+00 0.36126791E+03</pdfrwt>
<pdfrwt beam="2">  1       -2 0.23821266E-01 0.36126791E+03</pdfrwt>
<totfact> 0.42009376E+02</totfact>
</mgrwt>
</event>
<event>
 4    1  0.1726795E-008  0.6338111E+03  0.7818608E-02  0.9837640E-01
         -2   -1    0    0    0  501 -0.00000000000E+00  0.00000000000E+00  0.25515682734E+03  0.25515682735E+03  0.25500000000E-02 0.  1.
          2   -1    0    0  501    0  0.00000000000E+00 -0.00000000000E+00 -0.30100164400E+04  0.30100164400E+04  0.25500000000E-02 0. -1.
    8880022    1    1    2    0    0  0.60655910414E+03  0.10203364616E+03 -0.24994041787E+03  0.68131246669E+03  0.15294330000E+03 0.  0.
    8880022    1    1    2    0    0 -0.60655910414E+03 -0.10203364616E+03 -0.25049191948E+04  0.25838608007E+04  0.15294330000E+03 0.  0.
<mgrwt>
<rscale>  0 0.63381106E+03</rscale>
<asrwt>0</asrwt>
<pdfrwt beam="1">  1        2 0.46307943E+00 0.63381106E+03</pdfrwt>
<pdfrwt beam="2">  1       -2 0.39254899E-01 0.63381106E+03</pdfrwt>
<totfact> 0.11447653E+01</totfact>
</mgrwt>
</event>
<event>
 4    1  0.1726795E-008  0.1659186E+04  0.7818608E-02  0.8784991E-01
          2   -1    0    0  501    0  0.00000000000E+00  0.00000000000E+00  0.16314566257E+04  0.16314566257E+04  0.25500000000E-02 0. -1.
         -2   -1    0    0    0  501 -0.00000000000E+00 -0.00000000000E+00 -0.23971112602E+04  0.23971112602E+04  0.25500000000E-02 0.  1.
    8880022    1    1    2    0    0 -0.14669719363E+04 -0.75993432637E+03 -0.14788548370E+04  0.22225908584E+04  0.15294330000E+03 0.  0.
    8880022    1    1    2    0    0  0.14669719363E+04  0.75993432637E+03  0.71320020244E+03  0.18059770275E+04  0.15294330000E+03 0.  0.
<mgrwt>
<rscale>  0 0.16591861E+04</rscale>
<asrwt>0</asrwt>
<pdfrwt beam="1">  1        2 0.25099333E+00 0.16591861E+04</pdfrwt>
<pdfrwt beam="2">  1       -2 0.36878635E+00 0.16591861E+04</pdfrwt>
<totfact> 0.11697531E-01</totfact>
</mgrwt>
</event>
<event>
 4    1  0.1726795E-008  0.1280347E+04  0.7818608E-02  0.9045297E-01
         -2   -1    0    0    0  501 -0.00000000000E+00  0.00000000000E+00  0.11157267053E+04  0.11157267053E+04  0.25500000000E-02 0.  1.
          2   -1    0    0  501    0  0.00000000000E+00 -0.00000000000E+00 -0.31475371534E+04  0.31475371534E+04  0.25500000000E-02 0. -1.
    8880022    1    1    2    0    0  0.89254999025E+03  0.90512457221E+03 -0.25724413478E+04  0.28734547355E+04  0.15294330000E+03 0.  0.
    8880022    1    1    2    0    0 -0.89254999025E+03 -0.90512457221E+03  0.54063089961E+03  0.13898091232E+04  0.15294330000E+03 0.  0.
<mgrwt>
<rscale>  0 0.12803467E+04</rscale>
<asrwt>0</asrwt>
<pdfrwt beam="1">  1        2 0.48423648E+00 0.12803467E+04</pdfrwt>
<pdfrwt beam="2">  1       -2 0.17165026E+00 0.12803467E+04</pdfrwt>
<totfact> 0.28351587E-01</totfact>
</mgrwt>
</event>
<event>
 4    1  0.1726795E-008  0.1949087E+04  0.7818608E-02  0.8630801E-01
          2   -1    0    0  501    0  0.00000000000E+00  0.00000000000E+00  0.32391337404E+04  0.32391337404E+04  0.25500000000E-02 0. -1.
         -2   -1    0    0    0  501 -0.00000000000E+00 -0.00000000000E+00 -0.13397928399E+04  0.13397928399E+04  0.25500000000E-02 0.  1.
    8880022    1    1    2    0    0 -0.12014038271E+04  0.15271468943E+04  0.17578910224E+04  0.26247135638E+04  0.15294330000E+03 0.  0.
    8880022    1    1    2    0    0  0.12014038271E+04 -0.15271468943E+04  0.14144987812E+03  0.19542130164E+04  0.15294330000E+03 0.  0.
<mgrwt>
<rscale>  0 0.19490871E+04</rscale>
<asrwt>0</asrwt>
<pdfrwt beam="1">  1        2 0.49832827E+00 0.19490871E+04</pdfrwt>
<pdfrwt beam="2">  1       -2 0.20612197E+00 0.19490871E+04</pdfrwt>
<totfact> 0.13305642E-01</totfact>
</mgrwt>
</event>
<event>
 4    1  0.1726795E-008  0.6335576E+03  0.7818608E-02  0.9838131E-01
         -2   -1    0    0    0  501 -0.00000000000E+00  0.00000000000E+00  0.55471238002E+03  0.55471238002E+03  0.25500000000E-02 0.  1.
          2   -1    0    0  501    0  0.00000000000E+00 -0.00000000000E+00 -0.16197413648E+04  0.16197413648E+04  0.25500000000E-02 0. -1.
    8880022    1    1    2    0    0 -0.61106281483E+03  0.67866201706E+02  0.27617772245E+03  0.69113629075E+03  0.15294330000E+03 0.  0.
    8880022    1    1    2    0    0  0.61106281483E+03 -0.67866201706E+02 -0.13412067072E+04  0.14833174540E+04  0.15294330000E+03 0.  0.
<mgrwt>
<rscale>  0 0.63355760E+03</rscale>
<asrwt>0</asrwt>
<pdfrwt beam="1">  1        2 0.24919098E+00 0.63355760E+03</pdfrwt>
<pdfrwt beam="2">  1       -2 0.85340366E-01 0.63355760E+03</pdfrwt>
<totfact> 0.13556142E+01</totfact>
</mgrwt>
</event>
<event>
 4    1  0.1726795E-008  0.6871927E+03  0.7818608E-02  0.9739389E-01
         -2   -1    0    0    0  501 -0.00000000000E+00  0.00000000000E+00  0.51162495287E+03  0.51162495287E+03  0.25500000000E-02 0.  1.
          2   -1    0    0  501    0  0.00000000000E+00 -0.00000000000E+00 -0.22294196897E+04  0.22294196897E+04  0.25500000000E-02 0. -1.
    8880022    1    1    2    0    0 -0.62313576356E+03 -0.24605679849E+03  0.19023496659E+03  0.71303795371E+03  0.15294330000E+03 0.  0.
    8880022    1    1    2    0    0  0.62313576356E+03  0.24605679849E+03 -0.19080297035E+04  0.20280066889E+04  0.15294330000E+03 0.  0.
<mgrwt>
<rscale>  0 0.68719268E+03</rscale>
<asrwt>0</asrwt>
<pdfrwt beam="1">  1        2 0.34298764E+00 0.68719268E+03</pdfrwt>
<pdfrwt beam="2">  1       -2 0.78711532E-01 0.68719268E+03</pdfrwt>
<totfact> 0.75031141E+00</totfact>
</mgrwt>
</event>
<event>
 4    1  0.1726795E-008  0.4346030E+03  0.7818608E-02  0.1032416E+00
         -2   -1    0    0    0  501 -0.00000000000E+00  0.00000000000E+00  0.19366972692E+04  0.19366972692E+04  0.25500000000E-02 0.  1.
          2   -1    0    0  501    0  0.00000000000E+00 -0.00000000000E+00 -0.57355439590E+03  0.57355439591E+03  0.25500000000E-02 0. -1.
    8880022    1    1    2    0    0 -0.16541336243E+03 -0.37165373616E+03  0.18250184991E+04  0.18760523061E+04  0.15294330000E+03 0.  0.
    8880022    1    1    2    0    0  0.16541336243E+03  0.37165373616E+03 -0.46187562589E+03  0.63419935894E+03  0.15294330000E+03 0.  0.
<mgrwt>
<rscale>  0 0.43460296E+03</rscale>
<asrwt>0</asrwt>
<pdfrwt beam="1">  1        2 0.88239138E-01 0.43460296E+03</pdfrwt>
<pdfrwt beam="2">  1       -2 0.29795343E+00 0.43460296E+03</pdfrwt>
<totfact> 0.19084137E+00</totfact>
</mgrwt>
</event>
<event>
 4    1  0.1726795E-008  0.1469916E+04  0.7818608E-02  0.8904708E-01
          2   -1    0    0  501    0  0.00000000000E+00  0.00000000000E+00  0.22309105882E+04  0.22309105882E+04  0.25500000000E-02 0. -1.
         -2   -1    0    0    0  501 -0.00000000000E+00 -0.00000000000E+00 -0.15684271039E+04  0.15684271039E+04  0.25500000000E-02 0.  1.
    8880022    1    1    2    0    0  0.11487376449E+04  0.90424769337E+03  0.15061183160E+04  0.21045299006E+04  0.15294330000E+03 0.  0.
    8880022    1    1    2    0    0 -0.11487376449E+04 -0.90424769337E+03 -0.84363483168E+03  0.16948077915E+04  0.15294330000E+03 0.  0.
<mgrwt>
<rscale>  0 0.14699162E+04</rscale>
<asrwt>0</asrwt>
<pdfrwt beam="1">  1        2 0.34321701E+00 0.14699162E+04</pdfrwt>
<pdfrwt beam="2">  1       -2 0.24129648E+00 0.14699162E+04</pdfrwt>
<totfact> 0.33935574E-01</totfact>
</mgrwt>
</event>
<event>
 4    1  0.2522678E-008  0.1122986E+04  0.7818608E-02  0.9183073E-01
         -2   -1    0    0    0  501 -0.00000000000E+00  0.00000000000E+00  0.18044266021E+04  0.18044266021E+04  0.25500000000E-02 0.  1.
          2   -1    0    0  501    0  0.00000000000E+00 -0.00000000000E+00 -0.21246437974E+04  0.21246437974E+04  0.25500000000E-02 0. -1.
    8880022    1    1    2    0    0  0.43866842203E+03 -0.10223873437E+04 -0.17694154687E+04  0.20956928732E+04  0.15294330000E+03 0.  0.
    8880022    1    1    2    0    0 -0.43866842203E+03  0.10223873437E+04  0.14491982734E+04  0.18333775262E+04  0.15294330000E+03 0.  0.
<mgrwt>
<rscale>  0 0.11229860E+04</rscale>
<asrwt>0</asrwt>
<pdfrwt beam="1">  1        2 0.32686827E+00 0.11229860E+04</pdfrwt>
<pdfrwt beam="2">  1       -2 0.27760409E+00 0.11229860E+04</pdfrwt>
<totfact> 0.24485547E-01</totfact>
</mgrwt>
</event>
<event>
 4    1  0.1726795E-008  0.6534620E+03  0.7818608E-02  0.9800305E-01
         -2   -1    0    0    0  501 -0.00000000000E+00  0.00000000000E+00  0.43191827916E+03  0.43191827916E+03  0.25500000000E-02 0.  1.
          2   -1    0    0  501    0  0.00000000000E+00 -0.00000000000E+00 -0.11084180416E+04  0.11084180416E+04  0.25500000000E-02 0. -1.
    8880022    1    1    2    0    0  0.37226186350E+03 -0.51482230778E+03 -0.59142365981E+03  0.88135946243E+03  0.15294330000E+03 0.  0.
    8880022    1    1    2    0    0 -0.37226186350E+03  0.51482230778E+03 -0.85076102666E+02  0.65897685837E+03  0.15294330000E+03 0.  0.
<mgrwt>
<rscale>  0 0.65346198E+03</rscale>
<asrwt>0</asrwt>
<pdfrwt beam="1">  1        2 0.17052585E+00 0.65346198E+03</pdfrwt>
<pdfrwt beam="2">  1       -2 0.66448966E-01 0.65346198E+03</pdfrwt>
<totfact> 0.46007056E+01</totfact>
</mgrwt>
</event>
<event>
 4    1  0.1726795E-008  0.1035786E+04  0.7818608E-02  0.9270143E-01
         -2   -1    0    0    0  501 -0.00000000000E+00  0.00000000000E+00  0.86594504918E+03  0.86594504918E+03  0.25500000000E-02 0.  1.
          2   -1    0    0  501    0  0.00000000000E+00 -0.00000000000E+00 -0.25900605425E+04  0.25900605425E+04  0.25500000000E-02 0. -1.
    8880022    1    1    2    0    0 -0.41654313797E+03 -0.93592355225E+03  0.38600597306E+03  0.11053747535E+04  0.15294330000E+03 0.  0.
    8880022    1    1    2    0    0  0.41654313797E+03  0.93592355225E+03 -0.21101214664E+04  0.23506308382E+04  0.15294330000E+03 0.  0.
<mgrwt>
<rscale>  0 0.10357860E+04</rscale>
<asrwt>0</asrwt>
<pdfrwt beam="1">  1        2 0.39847085E+00 0.10357860E+04</pdfrwt>
<pdfrwt beam="2">  1       -2 0.13322232E+00 0.10357860E+04</pdfrwt>
<totfact> 0.12620792E+00</totfact>
</mgrwt>
</event>
<event>
 4    1  0.1726795E-008  0.3995748E+03  0.7818608E-02  0.1043927E+00
         -2   -1    0    0    0  501 -0.00000000000E+00  0.00000000000E+00  0.20010218528E+03  0.20010218529E+03  0.25500000000E-02 0.  1.
          2   -1    0    0  501    0  0.00000000000E+00 -0.00000000000E+00 -0.25079163725E+04  0.25079163725E+04  0.25500000000E-02 0. -1.
    8880022    1    1    2    0    0  0.36787914997E+03 -0.30549603285E+02 -0.35844230219E+02  0.40117927302E+03  0.15294330000E+03 0.  0.
    8880022    1    1    2    0    0 -0.36787914997E+03  0.30549603285E+02 -0.22719699570E+04  0.23068392847E+04  0.15294330000E+03 0. -1.
<mgrwt>
<rscale>  0 0.39957477E+03</rscale>
<asrwt>0</asrwt>
<pdfrwt beam="1">  1        2 0.38583327E+00 0.39957477E+03</pdfrwt>
<pdfrwt beam="2">  1       -2 0.30784953E-01 0.39957477E+03</pdfrwt>
<totfact> 0.37532385E+01</totfact>
</mgrwt>
</event>
<event>
 4    1  0.1726795E-008  0.1215846E+04  0.7818608E-02  0.9099098E-01
         -2   -1    0    0    0  501 -0.00000000000E+00  0.00000000000E+00  0.22578876803E+04  0.22578876803E+04  0.25500000000E-02 0.  1.
          2   -1    0    0  501    0  0.00000000000E+00 -0.00000000000E+00 -0.11757705910E+04  0.11757705910E+04  0.25500000000E-02 0. -1.
    8880022    1    1    2    0    0  0.42836081246E+03 -0.11275624507E+04 -0.60183607127E+03  0.13566460023E+04  0.15294330000E+03 0.  0.
    8880022    1    1    2    0    0 -0.42836081246E+03  0.11275624507E+04  0.16839531605E+04  0.20770122690E+04  0.15294330000E+03 0.  0.
<mgrwt>
<rscale>  0 0.12158461E+04</rscale>
<asrwt>0</asrwt>
<pdfrwt beam="1">  1        2 0.18088778E+00 0.12158461E+04</pdfrwt>
<pdfrwt beam="2">  1       -2 0.34736733E+00 0.12158461E+04</pdfrwt>
<totfact> 0.30994807E-01</totfact>
</mgrwt>
</event>
<event>
 4    1  0.1726795E-008  0.2116697E+04  0.7818608E-02  0.8553924E-01
          2   -1    0    0  501    0  0.00000000000E+00  0.00000000000E+00  0.33033510346E+04  0.33033510346E+04  0.25500000000E-02 0. -1.
         -2   -1    0    0    0  501 -0.00000000000E+00 -0.00000000000E+00 -0.15102859022E+04  0.15102859022E+04  0.25500000000E-02 0.  1.
    8880022    1    1    2    0    0 -0.20946207259E+04 -0.26377787929E+03  0.12806817179E+03  0.21205678165E+04  0.15294330000E+03 0.  0.
    8880022    1    1    2    0    0  0.20946207259E+04  0.26377787929E+03  0.16649969606E+04  0.26930691203E+04  0.15294330000E+03 0.  0.
<mgrwt>
<rscale>  0 0.21166971E+04</rscale>
<asrwt>0</asrwt>
<pdfrwt beam="1">  1        2 0.50820785E+00 0.21166971E+04</pdfrwt>
<pdfrwt beam="2">  1       -2 0.23235168E+00 0.21166971E+04</pdfrwt>
<totfact> 0.80552139E-02</totfact>
</mgrwt>
</event>
<event>
 4    1  0.1726795E-008  0.4840805E+03  0.7818608E-02  0.1018020E+00
         -2   -1    0    0    0  501 -0.00000000000E+00  0.00000000000E+00  0.82223820951E+03  0.82223820951E+03  0.25500000000E-02 0.  1.
          2   -1    0    0  501    0  0.00000000000E+00 -0.00000000000E+00 -0.12842984513E+04  0.12842984513E+04  0.25500000000E-02 0. -1.
    8880022    1    1    2    0    0 -0.41843753336E+03  0.18934715822E+03 -0.11601134984E+04  0.12570589874E+04  0.15294330000E+03 0.  0.
    8880022    1    1    2    0    0  0.41843753336E+03 -0.18934715822E+03  0.69805325657E+03  0.84947767344E+03  0.15294330000E+03 0.  0.
<mgrwt>
<rscale>  0 0.48408054E+03</rscale>
<asrwt>0</asrwt>
<pdfrwt beam="1">  1        2 0.19758438E+00 0.48408054E+03</pdfrwt>
<pdfrwt beam="2">  1       -2 0.12649819E+00 0.48408054E+03</pdfrwt>
<totfact> 0.83873725E+00</totfact>
</mgrwt>
</event>
<event>
 4    1  0.1726795E-008  0.7831257E+03  0.7818608E-02  0.9584768E-01
          2   -1    0    0  501    0  0.00000000000E+00  0.00000000000E+00  0.26284688403E+04  0.26284688403E+04  0.25500000000E-02 0. -1.
         -2   -1    0    0    0  501 -0.00000000000E+00 -0.00000000000E+00 -0.32906883240E+03  0.32906883241E+03  0.25500000000E-02 0.  1.
    8880022    1    1    2    0    0  0.45315567191E+03  0.62011629617E+03  0.19473523745E+04  0.20989204862E+04  0.15294330000E+03 0.  0.
    8880022    1    1    2    0    0 -0.45315567191E+03 -0.62011629617E+03  0.35204763334E+03  0.85861718648E+03  0.15294330000E+03 0.  0.
<mgrwt>
<rscale>  0 0.78312575E+03</rscale>
<asrwt>0</asrwt>
<pdfrwt beam="1">  1        2 0.40437982E+00 0.78312575E+03</pdfrwt>
<pdfrwt beam="2">  1       -2 0.50625974E-01 0.78312575E+03</pdfrwt>
<totfact> 0.11299483E+01</totfact>
</mgrwt>
</event>
<event>
 4    1  0.1726795E-008  0.2462227E+03  0.7818608E-02  0.1115716E+00
         -2   -1    0    0    0  501 -0.00000000000E+00  0.00000000000E+00  0.58939540973E+02  0.58939541028E+02  0.25500000000E-02 0.  1.
          2   -1    0    0  501    0  0.00000000000E+00 -0.00000000000E+00 -0.24082616684E+04  0.24082616684E+04  0.25500000000E-02 0. -1.
    8880022    1    1    2    0    0 -0.69356476980E+02 -0.18006560204E+03 -0.24095965683E+03  0.34451001607E+03  0.15294330000E+03 0.  0.
    8880022    1    1    2    0    0  0.69356476980E+02  0.18006560204E+03 -0.21083624706E+04  0.21226911933E+04  0.15294330000E+03 0.  0.
<mgrwt>
<rscale>  0 0.24622265E+03</rscale>
<asrwt>0</asrwt>
<pdfrwt beam="1">  1        2 0.37050172E+00 0.24622265E+03</pdfrwt>
<pdfrwt beam="2">  1       -2 0.90676236E-02 0.24622265E+03</pdfrwt>
<totfact> 0.35179483E+02</totfact>
</mgrwt>
</event>
<event>
 4    1  0.1726795E-008  0.7778762E+03  0.7818608E-02  0.9592604E-01
         -2   -1    0    0    0  501 -0.00000000000E+00  0.00000000000E+00  0.12902387790E+04  0.12902387790E+04  0.25500000000E-02 0.  1.
          2   -1    0    0  501    0  0.00000000000E+00 -0.00000000000E+00 -0.86569746533E+03  0.86569746533E+03  0.25500000000E-02 0. -1.
    8880022    1    1    2    0    0  0.18856303448E+03  0.73901541085E+03 -0.51746490943E+03  0.93427050738E+03  0.15294330000E+03 0.  0.
    8880022    1    1    2    0    0 -0.18856303448E+03 -0.73901541085E+03  0.94200622311E+03  0.12216657370E+04  0.15294330000E+03 0.  0.
<mgrwt>
<rscale>  0 0.77787624E+03</rscale>
<asrwt>0</asrwt>
<pdfrwt beam="1">  1        2 0.13318423E+00 0.77787624E+03</pdfrwt>
<pdfrwt beam="2">  1       -2 0.19849827E+00 0.77787624E+03</pdfrwt>
<totfact> 0.42892000E+00</totfact>
</mgrwt>
</event>
<event>
 4    1  0.1726795E-008  0.8090061E+03  0.7818608E-02  0.9547072E-01
         -2   -1    0    0    0  501 -0.00000000000E+00  0.00000000000E+00  0.57698744369E+03  0.57698744370E+03  0.25500000000E-02 0.  1.
          2   -1    0    0  501    0  0.00000000000E+00 -0.00000000000E+00 -0.22228651863E+04  0.22228651863E+04  0.25500000000E-02 0. -1.
    8880022    1    1    2    0    0 -0.79333980089E+03  0.41366007731E+02 -0.18025890040E+04  0.19758081781E+04  0.15294330000E+03 0.  0.
    8880022    1    1    2    0    0  0.79333980089E+03 -0.41366007731E+02  0.15671126139E+03  0.82404445191E+03  0.15294330000E+03 0.  0.
<mgrwt>
<rscale>  0 0.80900608E+03</rscale>
<asrwt>0</asrwt>
<pdfrwt beam="1">  1        2 0.34197926E+00 0.80900608E+03</pdfrwt>
<pdfrwt beam="2">  1       -2 0.88767300E-01 0.80900608E+03</pdfrwt>
<totfact> 0.56428044E+00</totfact>
</mgrwt>
</event>
<event>
 4    1  0.1726795E-008  0.7513988E+03  0.7818608E-02  0.9633158E-01
         -2   -1    0    0    0  501 -0.00000000000E+00  0.00000000000E+00  0.38697124839E+03  0.38697124840E+03  0.25500000000E-02 0.  1.
          2   -1    0    0  501    0  0.00000000000E+00 -0.00000000000E+00 -0.17614057921E+04  0.17614057921E+04  0.25500000000E-02 0. -1.
    8880022    1    1    2    0    0  0.29858070995E+03  0.67235263574E+03 -0.24214663156E+03  0.78945243766E+03  0.15294330000E+03 0.  0.
    8880022    1    1    2    0    0 -0.29858070995E+03 -0.67235263574E+03 -0.11322879121E+04  0.13589246028E+04  0.15294330000E+03 0.  0.
<mgrwt>
<rscale>  0 0.75139880E+03</rscale>
<asrwt>0</asrwt>
<pdfrwt beam="1">  1        2 0.27098550E+00 0.75139880E+03</pdfrwt>
<pdfrwt beam="2">  1       -2 0.59534039E-01 0.75139880E+03</pdfrwt>
<totfact> 0.24545016E+01</totfact>
</mgrwt>
</event>
<event>
 4    1  0.1726795E-008  0.8254461E+03  0.7818608E-02  0.9523898E-01
          2   -1    0    0  501    0  0.00000000000E+00  0.00000000000E+00  0.18558249523E+04  0.18558249523E+04  0.25500000000E-02 0. -1.
         -2   -1    0    0    0  501 -0.00000000000E+00 -0.00000000000E+00 -0.82804303058E+03  0.82804303059E+03  0.25500000000E-02 0.  1.
    8880022    1    1    2    0    0 -0.11306891971E+03  0.80323413076E+03 -0.48727481948E+03  0.95853954125E+03  0.15294330000E+03 0.  0.
    8880022    1    1    2    0    0  0.11306891971E+03 -0.80323413076E+03  0.15150567412E+04  0.17253284416E+04  0.15294330000E+03 0.  0.
<mgrwt>
<rscale>  0 0.82544612E+03</rscale>
<asrwt>0</asrwt>
<pdfrwt beam="1">  1        2 0.28551153E+00 0.82544612E+03</pdfrwt>
<pdfrwt beam="2">  1       -2 0.12739124E+00 0.82544612E+03</pdfrwt>
<totfact> 0.37494996E+00</totfact>
</mgrwt>
</event>
<event>
 4    1  0.1726795E-008  0.2803598E+03  0.7818608E-02  0.1095493E+00
         -2   -1    0    0    0  501 -0.00000000000E+00  0.00000000000E+00  0.12439814457E+03  0.12439814459E+03  0.25500000000E-02 0.  1.
          2   -1    0    0  501    0  0.00000000000E+00 -0.00000000000E+00 -0.37011918048E+04  0.37011918048E+04  0.25500000000E-02 0. -1.
    8880022    1    1    2    0    0 -0.20265563381E+03  0.11891447129E+03 -0.46510191224E+02  0.28419149935E+03  0.15294330000E+03 0.  0.
    8880022    1    1    2    0    0  0.20265563381E+03 -0.11891447129E+03 -0.35302834690E+04  0.35413984501E+04  0.15294330000E+03 0.  0.
<mgrwt>
<rscale>  0 0.28035979E+03</rscale>
<asrwt>0</asrwt>
<pdfrwt beam="1">  1        2 0.56941404E+00 0.28035979E+03</pdfrwt>
<pdfrwt beam="2">  1       -2 0.19138179E-01 0.28035979E+03</pdfrwt>
<totfact> 0.16815573E+01</totfact>
</mgrwt>
</event>
<event>
 4    1  0.1726795E-008  0.1299642E+04  0.7818608E-02  0.9029849E-01
          2   -1    0    0  501    0  0.00000000000E+00  0.00000000000E+00  0.12208423166E+04  0.12208423166E+04  0.25500000000E-02 0. -1.
         -2   -1    0    0    0  501 -0.00000000000E+00 -0.00000000000E+00 -0.18273471600E+04  0.18273471600E+04  0.25500000000E-02 0.  1.
    8880022    1    1    2    0    0 -0.90660829219E+02 -0.12874231414E+04  0.44785925581E+03  0.13746444256E+04  0.15294330000E+03 0.  0.
    8880022    1    1    2    0    0  0.90660829219E+02  0.12874231414E+04 -0.10543640992E+04  0.16735450509E+04  0.15294330000E+03 0.  0.
<mgrwt>
<rscale>  0 0.12996420E+04</rscale>
<asrwt>0</asrwt>
<pdfrwt beam="1">  1        2 0.18782190E+00 0.12996420E+04</pdfrwt>
<pdfrwt beam="2">  1       -2 0.28113033E+00 0.12996420E+04</pdfrwt>
<totfact> 0.73514674E-01</totfact>
</mgrwt>
</event>
<event>
 4    1  0.1726795E-008  0.6971474E+03  0.7818608E-02  0.9722123E-01
         -2   -1    0    0    0  501 -0.00000000000E+00  0.00000000000E+00  0.29246633508E+03  0.29246633509E+03  0.25500000000E-02 0.  1.
          2   -1    0    0  501    0  0.00000000000E+00 -0.00000000000E+00 -0.26148407575E+04  0.26148407575E+04  0.25500000000E-02 0. -1.
    8880022    1    1    2    0    0  0.67978768458E+03  0.22616795891E+02 -0.20387915635E+04  0.21546891906E+04  0.15294330000E+03 0.  0.
    8880022    1    1    2    0    0 -0.67978768458E+03 -0.22616795891E+02 -0.28358285894E+03  0.75261790203E+03  0.15294330000E+03 0.  0.
<mgrwt>
<rscale>  0 0.69714738E+03</rscale>
<asrwt>0</asrwt>
<pdfrwt beam="1">  1        2 0.40228318E+00 0.69714738E+03</pdfrwt>
<pdfrwt beam="2">  1       -2 0.44994822E-01 0.69714738E+03</pdfrwt>
<totfact> 0.14804637E+01</totfact>
</mgrwt>
</event>
<event>
 4    1  0.1726795E-008  0.8372477E+03  0.7818608E-02  0.9507614E-01
         -2   -1    0    0    0  501 -0.00000000000E+00  0.00000000000E+00  0.37273489038E+03  0.37273489038E+03  0.25500000000E-02 0.  1.
          2   -1    0    0  501    0  0.00000000000E+00 -0.00000000000E+00 -0.20256825185E+04  0.20256825185E+04  0.25500000000E-02 0. -1.
    8880022    1    1    2    0    0  0.41605301333E+03 -0.71027599832E+03 -0.11473535103E+04  0.14203534188E+04  0.15294330000E+03 0.  0.
    8880022    1    1    2    0    0 -0.41605301333E+03  0.71027599832E+03 -0.50559411779E+03  0.97806399006E+03  0.15294330000E+03 0.  0.
<mgrwt>
<rscale>  0 0.83724773E+03</rscale>
<asrwt>0</asrwt>
<pdfrwt beam="1">  1        2 0.31164346E+00 0.83724773E+03</pdfrwt>
<pdfrwt beam="2">  1       -2 0.57343830E-01 0.83724773E+03</pdfrwt>
<totfact> 0.18840999E+01</totfact>
</mgrwt>
</event>
<event>
 4    1  0.1726795E-008  0.6501548E+03  0.7818608E-02  0.9806489E-01
          2   -1    0    0  501    0  0.00000000000E+00  0.00000000000E+00  0.24808451225E+04  0.24808451225E+04  0.25500000000E-02 0. -1.
         -2   -1    0    0    0  501 -0.00000000000E+00 -0.00000000000E+00 -0.31634605569E+03  0.31634605570E+03  0.25500000000E-02 0.  1.
    8880022    1    1    2    0    0  0.56881754226E+03 -0.27523841758E+03  0.13223997012E+03  0.66346713981E+03  0.15294330000E+03 0.  0.
    8880022    1    1    2    0    0 -0.56881754226E+03  0.27523841758E+03  0.20322590967E+04  0.21337240384E+04  0.15294330000E+03 0.  0.
<mgrwt>
<rscale>  0 0.65015478E+03</rscale>
<asrwt>0</asrwt>
<pdfrwt beam="1">  1        2 0.38166848E+00 0.65015478E+03</pdfrwt>
<pdfrwt beam="2">  1       -2 0.48668624E-01 0.65015478E+03</pdfrwt>
<totfact> 0.15200746E+01</totfact>
</mgrwt>
</event>
<event>
 4    1  0.1726795E-008  0.1237710E+04  0.7818608E-02  0.9080475E-01
          2   -1    0    0  501    0  0.00000000000E+00  0.00000000000E+00  0.29714351436E+04  0.29714351436E+04  0.25500000000E-02 0. -1.
         -2   -1    0    0    0  501 -0.00000000000E+00 -0.00000000000E+00 -0.84490198274E+03  0.84490198274E+03  0.25500000000E-02 0.  1.
    8880022    1    1    2    0    0 -0.11950504291E+04  0.28352734826E+03  0.22546275534E+04  0.25720167851E+04  0.15294330000E+03 0.  0.
    8880022    1    1    2    0    0  0.11950504291E+04 -0.28352734826E+03 -0.12809439253E+03  0.12443203412E+04  0.15294330000E+03 0.  1.
<mgrwt>
<rscale>  0 0.12377096E+04</rscale>
<asrwt>0</asrwt>
<pdfrwt beam="1">  1        2 0.45714386E+00 0.12377096E+04</pdfrwt>
<pdfrwt beam="2">  1       -2 0.12998492E+00 0.12377096E+04</pdfrwt>
<totfact> 0.77337093E-01</totfact>
</mgrwt>
</event>
<event>
 4    1  0.1726795E-008  0.7078471E+03  0.7818608E-02  0.9703906E-01
         -2   -1    0    0    0  501 -0.00000000000E+00  0.00000000000E+00  0.12740724208E+04  0.12740724208E+04  0.25500000000E-02 0.  1.
          2   -1    0    0  501    0  0.00000000000E+00 -0.00000000000E+00 -0.68804918749E+03  0.68804918749E+03  0.25500000000E-02 0. -1.
    8880022    1    1    2    0    0 -0.68769269774E+03  0.68808057540E+02 -0.34914157432E+03  0.78927009777E+03  0.15294330000E+03 0.  0.
    8880022    1    1    2    0    0  0.68769269774E+03 -0.68808057540E+02  0.93516480767E+03  0.11728515106E+04  0.15294330000E+03 0.  0.
<mgrwt>
<rscale>  0 0.70784705E+03</rscale>
<asrwt>0</asrwt>
<pdfrwt beam="1">  1        2 0.10585372E+00 0.70784705E+03</pdfrwt>
<pdfrwt beam="2">  1       -2 0.19601114E+00 0.70784705E+03</pdfrwt>
<totfact> 0.60700691E+00</totfact>
</mgrwt>
</event>
<event>
 4    1  0.1726795E-008  0.4678498E+03  0.7818608E-02  0.1022529E+00
          2   -1    0    0  501    0  0.00000000000E+00  0.00000000000E+00  0.15284144234E+04  0.15284144234E+04  0.25500000000E-02 0. -1.
         -2   -1    0    0    0  501 -0.00000000000E+00 -0.00000000000E+00 -0.10305229725E+04  0.10305229725E+04  0.25500000000E-02 0.  1.
    8880022    1    1    2    0    0 -0.10279627029E+03  0.43002874031E+03  0.14361880428E+04  0.15104699725E+04  0.15294330000E+03 0.  0.
    8880022    1    1    2    0    0  0.10279627029E+03 -0.43002874031E+03 -0.93829659181E+03  0.10484674234E+04  0.15294330000E+03 0.  0.
<mgrwt>
<rscale>  0 0.46784981E+03</rscale>
<asrwt>0</asrwt>
<pdfrwt beam="1">  1        2 0.23514068E+00 0.46784981E+03</pdfrwt>
<pdfrwt beam="2">  1       -2 0.15854200E+00 0.46784981E+03</pdfrwt>
<totfact> 0.34411584E+00</totfact>
</mgrwt>
</event>
<event>
 4    1  0.1726795E-008  0.1112339E+04  0.7818608E-02  0.9193248E-01
         -2   -1    0    0    0  501 -0.00000000000E+00  0.00000000000E+00  0.73540742685E+03  0.73540742686E+03  0.25500000000E-02 0.  1.
          2   -1    0    0  501    0  0.00000000000E+00 -0.00000000000E+00 -0.17861945442E+04  0.17861945442E+04  0.25500000000E-02 0. -1.
    8880022    1    1    2    0    0  0.27731962006E+03  0.10663026362E+04 -0.82922173202E+03  0.13874104719E+04  0.15294330000E+03 0.  0.
    8880022    1    1    2    0    0 -0.27731962006E+03 -0.10663026362E+04 -0.22156538532E+03  0.11341914991E+04  0.15294330000E+03 0.  0.
<mgrwt>
<rscale>  0 0.11123395E+04</rscale>
<asrwt>0</asrwt>
<pdfrwt beam="1">  1        2 0.27479916E+00 0.11123395E+04</pdfrwt>
<pdfrwt beam="2">  1       -2 0.11313960E+00 0.11123395E+04</pdfrwt>
<totfact> 0.53067719E+00</totfact>
</mgrwt>
</event>
<event>
 4    1  0.1726795E-008  0.1049823E+04  0.7818608E-02  0.9255526E-01
          2   -1    0    0  501    0  0.00000000000E+00  0.00000000000E+00  0.15644238752E+04  0.15644238752E+04  0.25500000000E-02 0. -1.
         -2   -1    0    0    0  501 -0.00000000000E+00 -0.00000000000E+00 -0.10552386608E+04  0.10552386608E+04  0.25500000000E-02 0.  1.
    8880022    1    1    2    0    0  0.35382309282E+03  0.97649720451E+03 -0.50056004667E+03  0.11630518410E+04  0.15294330000E+03 0.  0.
    8880022    1    1    2    0    0 -0.35382309282E+03 -0.97649720451E+03  0.10097452611E+04  0.14566106950E+04  0.15294330000E+03 0.  0.
<mgrwt>
<rscale>  0 0.10498234E+04</rscale>
<asrwt>0</asrwt>
<pdfrwt beam="1">  1        2 0.24068060E+00 0.10498234E+04</pdfrwt>
<pdfrwt beam="2">  1       -2 0.16234441E+00 0.10498234E+04</pdfrwt>
<totfact> 0.27899996E+00</totfact>
</mgrwt>
</event>
<event>
 4    1  0.1726795E-008  0.1623577E+03  0.7818608E-02  0.1186060E+00
          2   -1    0    0  501    0  0.00000000000E+00  0.00000000000E+00  0.13062829700E+04  0.13062829700E+04  0.25500000000E-02 0. -1.
         -2   -1    0    0    0  501 -0.00000000000E+00 -0.00000000000E+00 -0.55341546903E+03  0.55341546904E+03  0.25500000000E-02 0.  1.
    8880022    1    1    2    0    0 -0.47802892732E+02  0.26139127062E+02  0.12891728132E+04  0.12993562120E+04  0.15294330000E+03 0.  0.
    8880022    1    1    2    0    0  0.47802892732E+02 -0.26139127062E+02 -0.53630531218E+03  0.56034222704E+03  0.15294330000E+03 0.  1.
<mgrwt>
<rscale>  0 0.16235770E+03</rscale>
<asrwt>0</asrwt>
<pdfrwt beam="1">  1        2 0.20096661E+00 0.16235770E+03</pdfrwt>
<pdfrwt beam="2">  1       -2 0.85140842E-01 0.16235770E+03</pdfrwt>
<totfact> 0.22980534E+01</totfact>
</mgrwt>
</event>
<event>
 4    1  0.1726795E-008  0.3671803E+03  0.7818608E-02  0.1055776E+00
         -2   -1    0    0    0  501 -0.00000000000E+00  0.00000000000E+00  0.34450440823E+03  0.34450440824E+03  0.25500000000E-02 0.  1.
          2   -1    0    0  501    0  0.00000000000E+00 -0.00000000000E+00 -0.18626796901E+04  0.18626796901E+04  0.25500000000E-02 0. -1.
    8880022    1    1    2    0    0 -0.18890124083E+03 -0.27521994673E+03  0.22174444658E+03  0.42894282891E+03  0.15294330000E+03 0.  0.
    8880022    1    1    2    0    0  0.18890124083E+03  0.27521994673E+03 -0.17399197285E+04  0.17782412695E+04  0.15294330000E+03 0.  0.
<mgrwt>
<rscale>  0 0.36718027E+03</rscale>
<asrwt>0</asrwt>
<pdfrwt beam="1">  1        2 0.28656610E+00 0.36718027E+03</pdfrwt>
<pdfrwt beam="2">  1       -2 0.53000679E-01 0.36718027E+03</pdfrwt>
<totfact> 0.29521829E+01</totfact>
</mgrwt>
</event>
<event>
 4    1  0.1726795E-008  0.1328583E+04  0.7818608E-02  0.9007201E-01
         -2   -1    0    0    0  501 -0.00000000000E+00  0.00000000000E+00  0.11107432730E+04  0.11107432730E+04  0.25500000000E-02 0.  1.
          2   -1    0    0  501    0  0.00000000000E+00 -0.00000000000E+00 -0.22219003064E+04  0.22219003064E+04  0.25500000000E-02 0. -1.
    8880022    1    1    2    0    0  0.63557520016E+03 -0.11566265697E+04  0.33365201558E+03  0.13698380114E+04  0.15294330000E+03 0.  1.
    8880022    1    1    2    0    0 -0.63557520016E+03  0.11566265697E+04 -0.14448090489E+04  0.19628055680E+04  0.15294330000E+03 0.  0.
<mgrwt>
<rscale>  0 0.13285829E+04</rscale>
<asrwt>0</asrwt>
<pdfrwt beam="1">  1        2 0.34183082E+00 0.13285829E+04</pdfrwt>
<pdfrwt beam="2">  1       -2 0.17088358E+00 0.13285829E+04</pdfrwt>
<totfact> 0.10110860E+00</totfact>
</mgrwt>
</event>
<event>
 4    1  0.1726795E-008  0.4143392E+03  0.7818608E-02  0.1038925E+00
          2   -1    0    0  501    0  0.00000000000E+00  0.00000000000E+00  0.16132768998E+04  0.16132768998E+04  0.25500000000E-02 0. -1.
         -2   -1    0    0    0  501 -0.00000000000E+00 -0.00000000000E+00 -0.81235314318E+03  0.81235314319E+03  0.25500000000E-02 0.  1.
    8880022    1    1    2    0    0 -0.38166117660E+03  0.51186334745E+02  0.15310526661E+04  0.15861271115E+04  0.15294330000E+03 0.  0.
    8880022    1    1    2    0    0  0.38166117660E+03 -0.51186334745E+02 -0.73012890943E+03  0.83950293150E+03  0.15294330000E+03 0.  0.
<mgrwt>
<rscale>  0 0.41433917E+03</rscale>
<asrwt>0</asrwt>
<pdfrwt beam="1">  1        2 0.24819645E+00 0.41433917E+03</pdfrwt>
<pdfrwt beam="2">  1       -2 0.12497741E+00 0.41433917E+03</pdfrwt>
<totfact> 0.57877094E+00</totfact>
</mgrwt>
</event>
<event>
 4    1  0.1726795E-008  0.2056212E+03  0.7818608E-02  0.1145081E+00
         -2   -1    0    0    0  501 -0.00000000000E+00  0.00000000000E+00  0.31373466088E+03  0.31373466089E+03  0.25500000000E-02 0.  1.
          2   -1    0    0  501    0  0.00000000000E+00 -0.00000000000E+00 -0.12404424489E+04  0.12404424489E+04  0.25500000000E-02 0. -1.
    8880022    1    1    2    0    0  0.13676491696E+03  0.13557036266E+02 -0.11970169591E+04  0.12145491711E+04  0.15294330000E+03 0.  0.
    8880022    1    1    2    0    0 -0.13676491696E+03 -0.13557036266E+02  0.27030917106E+03  0.33962793866E+03  0.15294330000E+03 0.  0.
<mgrwt>
<rscale>  0 0.20562123E+03</rscale>
<asrwt>0</asrwt>
<pdfrwt beam="1">  1        2 0.19083730E+00 0.20562123E+03</pdfrwt>
<pdfrwt beam="2">  1       -2 0.48266871E-01 0.20562123E+03</pdfrwt>
<totfact> 0.80649741E+01</totfact>
</mgrwt>
</event>
<event>
 4    1  0.1726795E-008  0.6000293E+03  0.7818608E-02  0.9905345E-01
          2   -1    0    0  501    0  0.00000000000E+00  0.00000000000E+00  0.78380004246E+03  0.78380004246E+03  0.25500000000E-02 0. -1.
         -2   -1    0    0    0  501 -0.00000000000E+00 -0.00000000000E+00 -0.11358650626E+04  0.11358650626E+04  0.25500000000E-02 0.  1.
    8880022    1    1    2    0    0  0.47114919260E+03  0.33861772169E+03  0.56471844625E+03  0.82397942916E+03  0.15294330000E+03 0.  0.
    8880022    1    1    2    0    0 -0.47114919260E+03 -0.33861772169E+03 -0.91678346635E+03  0.10956856759E+04  0.15294330000E+03 0.  0.
<mgrwt>
<rscale>  0 0.60002931E+03</rscale>
<asrwt>0</asrwt>
<pdfrwt beam="1">  1        2 0.12058462E+00 0.60002931E+03</pdfrwt>
<pdfrwt beam="2">  1       -2 0.17474847E+00 0.60002931E+03</pdfrwt>
<totfact> 0.72571566E+00</totfact>
</mgrwt>
</event>
<event>
 4    1  0.1726795E-008  0.3052345E+03  0.7818608E-02  0.1082653E+00
         -2   -1    0    0    0  501 -0.00000000000E+00  0.00000000000E+00  0.24096816326E+03  0.24096816327E+03  0.25500000000E-02 0.  1.
          2   -1    0    0  501    0  0.00000000000E+00 -0.00000000000E+00 -0.25065912469E+04  0.25065912469E+04  0.25500000000E-02 0. -1.
    8880022    1    1    2    0    0 -0.20679243772E+03  0.16435724833E+03 -0.23962038084E+04  0.24155663439E+04  0.15294330000E+03 0.  0.
    8880022    1    1    2    0    0  0.20679243772E+03 -0.16435724833E+03  0.13058072474E+03  0.33199306629E+03  0.15294330000E+03 0.  0.
<mgrwt>
<rscale>  0 0.30523445E+03</rscale>
<asrwt>0</asrwt>
<pdfrwt beam="1">  1        2 0.38562940E+00 0.30523445E+03</pdfrwt>
<pdfrwt beam="2">  1       -2 0.37072027E-01 0.30523445E+03</pdfrwt>
<totfact> 0.27379430E+01</totfact>
</mgrwt>
</event>
<event>
 4    1  0.1726795E-008  0.1013244E+04  0.7818608E-02  0.9294138E-01
         -2   -1    0    0    0  501 -0.00000000000E+00  0.00000000000E+00  0.55677113285E+03  0.55677113285E+03  0.25500000000E-02 0.  1.
          2   -1    0    0  501    0  0.00000000000E+00 -0.00000000000E+00 -0.35122905652E+04  0.35122905652E+04  0.25500000000E-02 0. -1.
    8880022    1    1    2    0    0 -0.90339164578E+03 -0.43261344979E+03 -0.75558335273E+02  0.10160568772E+04  0.15294330000E+03 0.  0.
    8880022    1    1    2    0    0  0.90339164578E+03  0.43261344979E+03 -0.28799610971E+04  0.30530048209E+04  0.15294330000E+03 0.  0.
<mgrwt>
<rscale>  0 0.10132436E+04</rscale>
<asrwt>0</asrwt>
<pdfrwt beam="1">  1        2 0.54035238E+00 0.10132436E+04</pdfrwt>
<pdfrwt beam="2">  1       -2 0.85657100E-01 0.10132436E+04</pdfrwt>
<totfact> 0.97444771E-01</totfact>
</mgrwt>
</event>
<event>
 4    1  0.1726795E-008  0.1123689E+04  0.7818608E-02  0.9182405E-01
         -2   -1    0    0    0  501 -0.00000000000E+00  0.00000000000E+00  0.30143527453E+04  0.30143527453E+04  0.25500000000E-02 0.  1.
          2   -1    0    0  501    0  0.00000000000E+00 -0.00000000000E+00 -0.17976143070E+04  0.17976143070E+04  0.25500000000E-02 0. -1.
    8880022    1    1    2    0    0 -0.56283081550E+03  0.96047262680E+03  0.27154604328E+04  0.29387758010E+04  0.15294330000E+03 0.  0.
    8880022    1    1    2    0    0  0.56283081550E+03 -0.96047262680E+03 -0.14987219945E+04  0.18731912512E+04  0.15294330000E+03 0.  0.
<mgrwt>
<rscale>  0 0.11236894E+04</rscale>
<asrwt>0</asrwt>
<pdfrwt beam="1">  1        2 0.27655605E+00 0.11236894E+04</pdfrwt>
<pdfrwt beam="2">  1       -2 0.46374656E+00 0.11236894E+04</pdfrwt>
<totfact> 0.24274619E-02</totfact>
</mgrwt>
</event>
<event>
 4    1  0.1726795E-008  0.7331012E+03  0.7818608E-02  0.9662241E-01
          2   -1    0    0  501    0  0.00000000000E+00  0.00000000000E+00  0.22237811985E+04  0.22237811985E+04  0.25500000000E-02 0. -1.
         -2   -1    0    0    0  501 -0.00000000000E+00 -0.00000000000E+00 -0.54783867289E+03  0.54783867290E+03  0.25500000000E-02 0.  1.
    8880022    1    1    2    0    0  0.71334359632E+03 -0.72017846390E+02  0.18739541128E+04  0.20122478293E+04  0.15294330000E+03 0.  0.
    8880022    1    1    2    0    0 -0.71334359632E+03  0.72017846390E+02 -0.19801158722E+03  0.75937204208E+03  0.15294330000E+03 0.  0.
<mgrwt>
<rscale>  0 0.73310116E+03</rscale>
<asrwt>0</asrwt>
<pdfrwt beam="1">  1        2 0.34212018E+00 0.73310116E+03</pdfrwt>
<pdfrwt beam="2">  1       -2 0.84282873E-01 0.73310116E+03</pdfrwt>
<totfact> 0.64246538E+00</totfact>
</mgrwt>
</event>
<event>
 4    1  0.2029193E-008  0.8508866E+03  0.7818608E-02  0.9489148E-01
         -2   -1    0    0    0  501 -0.00000000000E+00  0.00000000000E+00  0.10895021628E+04  0.10895021628E+04  0.25500000000E-02 0.  1.
          2   -1    0    0  501    0  0.00000000000E+00 -0.00000000000E+00 -0.31352185664E+04  0.31352185664E+04  0.25500000000E-02 0. -1.
    8880022    1    1    2    0    0 -0.77322223642E+03 -0.32053671927E+03 -0.28980383863E+04  0.30203699371E+04  0.15294330000E+03 0. -1.
    8880022    1    1    2    0    0  0.77322223642E+03  0.32053671927E+03  0.85232198267E+03  0.12043507921E+04  0.15294330000E+03 0.  0.
<mgrwt>
<rscale>  0 0.85088664E+03</rscale>
<asrwt>0</asrwt>
<pdfrwt beam="1">  1        2 0.48234131E+00 0.85088664E+03</pdfrwt>
<pdfrwt beam="2">  1       -2 0.16761572E+00 0.85088664E+03</pdfrwt>
<totfact> 0.33290684E-01</totfact>
</mgrwt>
</event>
<event>
 4    1  0.1726795E-008  0.2402968E+04  0.7818608E-02  0.8438393E-01
          2   -1    0    0  501    0  0.00000000000E+00  0.00000000000E+00  0.37891267338E+04  0.37891267338E+04  0.25500000000E-02 0. -1.
         -2   -1    0    0    0  501 -0.00000000000E+00 -0.00000000000E+00 -0.18487571225E+04  0.18487571225E+04  0.25500000000E-02 0.  1.
    8880022    1    1    2    0    0 -0.17031955962E+04  0.16881908855E+04 -0.21147235507E+03  0.24122553585E+04  0.15294330000E+03 0.  0.
    8880022    1    1    2    0    0  0.17031955962E+04 -0.16881908855E+04  0.21518419663E+04  0.32256284978E+04  0.15294330000E+03 0.  0.
<mgrwt>
<rscale>  0 0.24029680E+04</rscale>
<asrwt>0</asrwt>
<pdfrwt beam="1">  1        2 0.58294257E+00 0.24029680E+04</pdfrwt>
<pdfrwt beam="2">  1       -2 0.28442418E+00 0.24029680E+04</pdfrwt>
<totfact> 0.16818384E-02</totfact>
</mgrwt>
</event>
<event>
 4    1  0.1726795E-008  0.6961773E+03  0.7818608E-02  0.9723792E-01
          2   -1    0    0  501    0  0.00000000000E+00  0.00000000000E+00  0.24730497139E+04  0.24730497139E+04  0.25500000000E-02 0. -1.
         -2   -1    0    0    0  501 -0.00000000000E+00 -0.00000000000E+00 -0.28011899333E+03  0.28011899334E+03  0.25500000000E-02 0.  1.
    8880022    1    1    2    0    0 -0.34450156914E+03 -0.58531180345E+03  0.18509246889E+04  0.19775199355E+04  0.15294330000E+03 0.  0.
    8880022    1    1    2    0    0  0.34450156914E+03  0.58531180345E+03  0.34200603172E+03  0.77564877177E+03  0.15294330000E+03 0.  0.
<mgrwt>
<rscale>  0 0.69617734E+03</rscale>
<asrwt>0</asrwt>
<pdfrwt beam="1">  1        2 0.38046916E+00 0.69617734E+03</pdfrwt>
<pdfrwt beam="2">  1       -2 0.43095232E-01 0.69617734E+03</pdfrwt>
<totfact> 0.19421183E+01</totfact>
</mgrwt>
</event>
<event>
 4    1  0.1726795E-008  0.1683119E+04  0.7818608E-02  0.8771051E-01
         -2   -1    0    0    0  501 -0.00000000000E+00  0.00000000000E+00  0.23593055838E+04  0.23593055838E+04  0.25500000000E-02 0.  1.
          2   -1    0    0  501    0  0.00000000000E+00 -0.00000000000E+00 -0.24935043432E+04  0.24935043432E+04  0.25500000000E-02 0. -1.
    8880022    1    1    2    0    0  0.66051045848E+03 -0.15405275483E+04  0.16800074101E+04  0.23780907770E+04  0.15294330000E+03 0.  0.
    8880022    1    1    2    0    0 -0.66051045848E+03  0.15405275483E+04 -0.18142061695E+04  0.24747191500E+04  0.15294330000E+03 0.  0.
<mgrwt>
<rscale>  0 0.16831194E+04</rscale>
<asrwt>0</asrwt>
<pdfrwt beam="1">  1        2 0.38361605E+00 0.16831194E+04</pdfrwt>
<pdfrwt beam="2">  1       -2 0.36297009E+00 0.16831194E+04</pdfrwt>
<totfact> 0.41448212E-02</totfact>
</mgrwt>
</event>
<event>
 4    1  0.1726795E-008  0.3571797E+03  0.7818608E-02  0.1059706E+00
         -2   -1    0    0    0  501 -0.00000000000E+00  0.00000000000E+00  0.21507173502E+03  0.21507173504E+03  0.25500000000E-02 0.  1.
          2   -1    0    0  501    0  0.00000000000E+00 -0.00000000000E+00 -0.25805821651E+04  0.25805821651E+04  0.25500000000E-02 0. -1.
    8880022    1    1    2    0    0 -0.28481997962E+03  0.15186583228E+03 -0.24094510989E+04  0.24357815794E+04  0.15294330000E+03 0.  0.
    8880022    1    1    2    0    0  0.28481997962E+03 -0.15186583228E+03  0.43940668824E+02  0.35987232068E+03  0.15294330000E+03 0.  0.
<mgrwt>
<rscale>  0 0.35717965E+03</rscale>
<asrwt>0</asrwt>
<pdfrwt beam="1">  1        2 0.39701262E+00 0.35717965E+03</pdfrwt>
<pdfrwt beam="2">  1       -2 0.33087961E-01 0.35717965E+03</pdfrwt>
<totfact> 0.30286821E+01</totfact>
</mgrwt>
</event>
<event>
 4    1  0.1726795E-008  0.1033270E+04  0.7818608E-02  0.9272789E-01
          2   -1    0    0  501    0  0.00000000000E+00  0.00000000000E+00  0.18468575199E+04  0.18468575199E+04  0.25500000000E-02 0. -1.
         -2   -1    0    0    0  501 -0.00000000000E+00 -0.00000000000E+00 -0.82201123142E+03  0.82201123142E+03  0.25500000000E-02 0.  1.
    8880022    1    1    2    0    0  0.22370516285E+02  0.10216433238E+04  0.12393395051E+04  0.16135704456E+04  0.15294330000E+03 0.  0.
    8880022    1    1    2    0    0 -0.22370516285E+02 -0.10216433238E+04 -0.21449321663E+03  0.10552983057E+04  0.15294330000E+03 0.  0.
<mgrwt>
<rscale>  0 0.10332701E+04</rscale>
<asrwt>0</asrwt>
<pdfrwt beam="1">  1        2 0.28413193E+00 0.10332701E+04</pdfrwt>
<pdfrwt beam="2">  1       -2 0.12646327E+00 0.10332701E+04</pdfrwt>
<totfact> 0.37569936E+00</totfact>
</mgrwt>
</event>
<event>
 4    1  0.1726795E-008  0.9195347E+03  0.7818608E-02  0.9401486E-01
         -2   -1    0    0    0  501 -0.00000000000E+00  0.00000000000E+00  0.12486814981E+04  0.12486814981E+04  0.25500000000E-02 0.  1.
          2   -1    0    0  501    0  0.00000000000E+00 -0.00000000000E+00 -0.12162031278E+04  0.12162031278E+04  0.25500000000E-02 0. -1.
    8880022    1    1    2    0    0  0.90607452617E+03 -0.34369936805E+02  0.83674100403E+03  0.12432535945E+04  0.15294330000E+03 0.  0.
    8880022    1    1    2    0    0 -0.90607452617E+03  0.34369936805E+02 -0.80426263375E+03  0.12216310313E+04  0.15294330000E+03 0. -1.
<mgrwt>
<rscale>  0 0.91953466E+03</rscale>
<asrwt>0</asrwt>
<pdfrwt beam="1">  1        2 0.18710817E+00 0.91953466E+03</pdfrwt>
<pdfrwt beam="2">  1       -2 0.19210485E+00 0.91953466E+03</pdfrwt>
<totfact> 0.27841860E+00</totfact>
</mgrwt>
</event>
<event>
 4    1  0.1726795E-008  0.1206636E+04  0.7818608E-02  0.9107068E-01
          2   -1    0    0  501    0  0.00000000000E+00  0.00000000000E+00  0.24763100923E+04  0.24763100923E+04  0.25500000000E-02 0. -1.
         -2   -1    0    0    0  501 -0.00000000000E+00 -0.00000000000E+00 -0.63627882285E+03  0.63627882285E+03  0.25500000000E-02 0.  1.
    8880022    1    1    2    0    0  0.11968720226E+04  0.87451962865E+01  0.49114418288E+03  0.13027637462E+04  0.15294330000E+03 0.  0.
    8880022    1    1    2    0    0 -0.11968720226E+04 -0.87451962865E+01  0.13488870866E+04  0.18098251690E+04  0.15294330000E+03 0.  0.
<mgrwt>
<rscale>  0 0.12066361E+04</rscale>
<asrwt>0</asrwt>
<pdfrwt beam="1">  1        2 0.38097078E+00 0.12066361E+04</pdfrwt>
<pdfrwt beam="2">  1       -2 0.97889049E-01 0.12066361E+04</pdfrwt>
<totfact> 0.30670219E+00</totfact>
</mgrwt>
</event>
<event>
 4    1  0.1726795E-008  0.1862657E+04  0.7818608E-02  0.8673671E-01
         -2   -1    0    0    0  501 -0.00000000000E+00  0.00000000000E+00  0.16676953984E+04  0.16676953984E+04  0.25500000000E-02 0.  1.
          2   -1    0    0  501    0  0.00000000000E+00 -0.00000000000E+00 -0.25820855820E+04  0.25820855820E+04  0.25500000000E-02 0. -1.
    8880022    1    1    2    0    0  0.16533164221E+04 -0.84418249125E+03  0.47942296517E+03  0.19233661385E+04  0.15294330000E+03 0.  0.
    8880022    1    1    2    0    0 -0.16533164221E+04  0.84418249125E+03 -0.13938131488E+04  0.23264148420E+04  0.15294330000E+03 0.  0.
<mgrwt>
<rscale>  0 0.18626570E+04</rscale>
<asrwt>0</asrwt>
<pdfrwt beam="1">  1        2 0.39724394E+00 0.18626570E+04</pdfrwt>
<pdfrwt beam="2">  1       -2 0.25656852E+00 0.18626570E+04</pdfrwt>
<totfact> 0.16446349E-01</totfact>
</mgrwt>
</event>
<event>
 4    1  0.1726795E-008  0.2408458E+03  0.7818608E-02  0.1119231E+00
          2   -1    0    0  501    0  0.00000000000E+00  0.00000000000E+00  0.15940815590E+04  0.15940815590E+04  0.25500000000E-02 0. -1.
         -2   -1    0    0    0  501 -0.00000000000E+00 -0.00000000000E+00 -0.63490433581E+02  0.63490433632E+02  0.25500000000E-02 0.  1.
    8880022    1    1    2    0    0 -0.18530692036E+03 -0.16624368280E+02  0.13067802529E+04  0.13287894140E+04  0.15294330000E+03 0.  0.
    8880022    1    1    2    0    0  0.18530692036E+03  0.16624368280E+02  0.22381087255E+03  0.32878257867E+03  0.15294330000E+03 0.  1.
<mgrwt>
<rscale>  0 0.24084575E+03</rscale>
<asrwt>0</asrwt>
<pdfrwt beam="1">  1        2 0.24524329E+00 0.24084575E+03</pdfrwt>
<pdfrwt beam="2">  1       -2 0.97677600E-02 0.24084575E+03</pdfrwt>
<totfact> 0.84174109E+02</totfact>
</mgrwt>
</event>
<event>
 4    1  0.1726795E-008  0.1100450E+04  0.7818608E-02  0.9204754E-01
         -2   -1    0    0    0  501 -0.00000000000E+00  0.00000000000E+00  0.10689083552E+04  0.10689083552E+04  0.25500000000E-02 0.  1.
          2   -1    0    0  501    0  0.00000000000E+00 -0.00000000000E+00 -0.19843946283E+04  0.19843946283E+04  0.25500000000E-02 0. -1.
    8880022    1    1    2    0    0 -0.87090782713E+03 -0.65507082389E+03  0.54228267471E+03  0.12268090234E+04  0.15294330000E+03 0.  0.
    8880022    1    1    2    0    0  0.87090782713E+03  0.65507082389E+03 -0.14577689478E+04  0.18264939600E+04  0.15294330000E+03 0.  0.
<mgrwt>
<rscale>  0 0.11004499E+04</rscale>
<asrwt>0</asrwt>
<pdfrwt beam="1">  1        2 0.30529148E+00 0.11004499E+04</pdfrwt>
<pdfrwt beam="2">  1       -2 0.16444744E+00 0.11004499E+04</pdfrwt>
<totfact> 0.15673813E+00</totfact>
</mgrwt>
</event>
<event>
 4    1  0.1726795E-008  0.7093645E+03  0.7818608E-02  0.9701350E-01
          2   -1    0    0  501    0  0.00000000000E+00  0.00000000000E+00  0.21580998970E+04  0.21580998970E+04  0.25500000000E-02 0. -1.
         -2   -1    0    0    0  501 -0.00000000000E+00 -0.00000000000E+00 -0.29785819014E+03  0.29785819016E+03  0.25500000000E-02 0.  1.
    8880022    1    1    2    0    0  0.70054757817E+02 -0.68912888431E+03  0.35784114893E+03  0.79451131468E+03  0.15294330000E+03 0.  0.
    8880022    1    1    2    0    0 -0.70054757817E+02  0.68912888431E+03  0.15024005579E+04  0.16614467724E+04  0.15294330000E+03 0.  0.
<mgrwt>
<rscale>  0 0.70936446E+03</rscale>
<asrwt>0</asrwt>
<pdfrwt beam="1">  1        2 0.33201538E+00 0.70936446E+03</pdfrwt>
<pdfrwt beam="2">  1       -2 0.45824335E-01 0.70936446E+03</pdfrwt>
<totfact> 0.25665333E+01</totfact>
</mgrwt>
</event>
<event>
 4    1  0.1726795E-008  0.3533670E+03  0.7818608E-02  0.1061242E+00
         -2   -1    0    0    0  501 -0.00000000000E+00  0.00000000000E+00  0.41461277656E+03  0.41461277657E+03  0.25500000000E-02 0.  1.
          2   -1    0    0  501    0  0.00000000000E+00 -0.00000000000E+00 -0.11112640589E+04  0.11112640589E+04  0.25500000000E-02 0. -1.
    8880022    1    1    2    0    0  0.29963627869E+03 -0.10814182525E+03  0.30307628909E+03  0.46553565266E+03  0.15294330000E+03 0.  0.
    8880022    1    1    2    0    0 -0.29963627869E+03  0.10814182525E+03 -0.99972757141E+03  0.10603411828E+04  0.15294330000E+03 0.  0.
<mgrwt>
<rscale>  0 0.35336696E+03</rscale>
<asrwt>0</asrwt>
<pdfrwt beam="1">  1        2 0.17096370E+00 0.35336696E+03</pdfrwt>
<pdfrwt beam="2">  1       -2 0.63786581E-01 0.35336696E+03</pdfrwt>
<totfact> 0.52172526E+01</totfact>
</mgrwt>
</event>
<event>
 4    1  0.1726795E-008  0.1282617E+04  0.7818608E-02  0.9043465E-01
          2   -1    0    0  501    0  0.00000000000E+00  0.00000000000E+00  0.13503845622E+04  0.13503845622E+04  0.25500000000E-02 0. -1.
         -2   -1    0    0    0  501 -0.00000000000E+00 -0.00000000000E+00 -0.14925427085E+04  0.14925427085E+04  0.25500000000E-02 0.  1.
    8880022    1    1    2    0    0  0.81951043587E+03 -0.97473997692E+03  0.53828787374E+03  0.13909927624E+04  0.15294330000E+03 0.  0.
    8880022    1    1    2    0    0 -0.81951043587E+03  0.97473997692E+03 -0.68044602004E+03  0.14519345083E+04  0.15294330000E+03 0.  0.
<mgrwt>
<rscale>  0 0.12826173E+04</rscale>
<asrwt>0</asrwt>
<pdfrwt beam="1">  1        2 0.20775147E+00 0.12826173E+04</pdfrwt>
<pdfrwt beam="2">  1       -2 0.22962195E+00 0.12826173E+04</pdfrwt>
<totfact> 0.12784625E+00</totfact>
</mgrwt>
</event>
<event>
 4    1  0.1726795E-008  0.7169628E+03  0.7818608E-02  0.9688655E-01
          2   -1    0    0  501    0  0.00000000000E+00  0.00000000000E+00  0.11379942440E+04  0.11379942440E+04  0.25500000000E-02 0. -1.
         -2   -1    0    0    0  501 -0.00000000000E+00 -0.00000000000E+00 -0.75076855158E+03  0.75076855159E+03  0.25500000000E-02 0.  1.
    8880022    1    1    2    0    0 -0.67281878835E+03  0.19483045054E+03  0.78965560167E+03  0.10665794151E+04  0.15294330000E+03 0.  0.
    8880022    1    1    2    0    0  0.67281878835E+03 -0.19483045054E+03 -0.40242990921E+03  0.82218338055E+03  0.15294330000E+03 0.  0.
<mgrwt>
<rscale>  0 0.71696282E+03</rscale>
<asrwt>0</asrwt>
<pdfrwt beam="1">  1        2 0.17507604E+00 0.71696282E+03</pdfrwt>
<pdfrwt beam="2">  1       -2 0.11550285E+00 0.71696282E+03</pdfrwt>
<totfact> 0.12320384E+01</totfact>
</mgrwt>
</event>
<event>
 4    1  0.1726795E-008  0.5472962E+03  0.7818608E-02  0.1002122E+00
         -2   -1    0    0    0  501 -0.00000000000E+00  0.00000000000E+00  0.75095712851E+03  0.75095712851E+03  0.25500000000E-02 0.  1.
          2   -1    0    0  501    0  0.00000000000E+00 -0.00000000000E+00 -0.26929016582E+04  0.26929016582E+04  0.25500000000E-02 0. -1.
    8880022    1    1    2    0    0 -0.42508004014E+03  0.30894738955E+03 -0.25602687873E+04  0.26181118093E+04  0.15294330000E+03 0. -1.
    8880022    1    1    2    0    0  0.42508004014E+03 -0.30894738955E+03  0.61832425762E+03  0.82574697735E+03  0.15294330000E+03 0.  0.
<mgrwt>
<rscale>  0 0.54729625E+03</rscale>
<asrwt>0</asrwt>
<pdfrwt beam="1">  1        2 0.41429256E+00 0.54729625E+03</pdfrwt>
<pdfrwt beam="2">  1       -2 0.11553187E+00 0.54729625E+03</pdfrwt>
<totfact> 0.17364142E+00</totfact>
</mgrwt>
</event>
<event>
 4    1  0.1726795E-008  0.2331585E+04  0.7818608E-02  0.8465571E-01
         -2   -1    0    0    0  501 -0.00000000000E+00  0.00000000000E+00  0.21161211475E+04  0.21161211475E+04  0.25500000000E-02 0.  1.
          2   -1    0    0  501    0  0.00000000000E+00 -0.00000000000E+00 -0.35711860418E+04  0.35711860418E+04  0.25500000000E-02 0. -1.
    8880022    1    1    2    0    0  0.19156054305E+04 -0.13203616685E+04  0.77889123273E+03  0.24582437444E+04  0.15294330000E+03 0.  0.
    8880022    1    1    2    0    0 -0.19156054305E+04  0.13203616685E+04 -0.22339561270E+04  0.32290634450E+04  0.15294330000E+03 0.  0.
<mgrwt>
<rscale>  0 0.23315855E+04</rscale>
<asrwt>0</asrwt>
<pdfrwt beam="1">  1        2 0.54941324E+00 0.23315855E+04</pdfrwt>
<pdfrwt beam="2">  1       -2 0.32555710E+00 0.23315855E+04</pdfrwt>
<totfact> 0.13639062E-02</totfact>
</mgrwt>
</event>
<event>
 4    1  0.1726795E-008  0.1622477E+03  0.7818608E-02  0.1186182E+00
         -2   -1    0    0    0  501 -0.00000000000E+00  0.00000000000E+00  0.92901687992E+02  0.92901688027E+02  0.25500000000E-02 0.  1.
          2   -1    0    0  501    0  0.00000000000E+00 -0.00000000000E+00 -0.33853087691E+03  0.33853087692E+03  0.25500000000E-02 0. -1.
    8880022    1    1    2    0    0  0.37776343448E+02  0.38802099836E+02 -0.20990133573E+03  0.26529771735E+03  0.15294330000E+03 0.  1.
    8880022    1    1    2    0    0 -0.37776343448E+02 -0.38802099836E+02 -0.35727853182E+02  0.16613484759E+03  0.15294330000E+03 0.  1.
<mgrwt>
<rscale>  0 0.16224768E+03</rscale>
<asrwt>0</asrwt>
<pdfrwt beam="1">  1        2 0.52081672E-01 0.16224768E+03</pdfrwt>
<pdfrwt beam="2">  1       -2 0.14292568E-01 0.16224768E+03</pdfrwt>
<totfact> 0.34665389E+03</totfact>
</mgrwt>
</event>
<event>
 4    1  0.1726795E-008  0.1127025E+04  0.7818608E-02  0.9179245E-01
         -2   -1    0    0    0  501 -0.00000000000E+00  0.00000000000E+00  0.32189911892E+04  0.32189911892E+04  0.25500000000E-02 0.  1.
          2   -1    0    0  501    0  0.00000000000E+00 -0.00000000000E+00 -0.75223739153E+03  0.75223739154E+03  0.25500000000E-02 0. -1.
    8880022    1    1    2    0    0  0.60060212764E+03 -0.94131298496E+03  0.26025060005E+04  0.28360575077E+04  0.15294330000E+03 0.  0.
    8880022    1    1    2    0    0 -0.60060212764E+03  0.94131298496E+03 -0.13575220286E+03  0.11351710730E+04  0.15294330000E+03 0.  0.
<mgrwt>
<rscale>  0 0.11270247E+04</rscale>
<asrwt>0</asrwt>
<pdfrwt beam="1">  1        2 0.11572883E+00 0.11270247E+04</pdfrwt>
<pdfrwt beam="2">  1       -2 0.49522942E+00 0.11270247E+04</pdfrwt>
<totfact> 0.65461514E-02</totfact>
</mgrwt>
</event>
<event>
 4    1  0.1726795E-008  0.1138152E+04  0.7818608E-02  0.9168784E-01
         -2   -1    0    0    0  501 -0.00000000000E+00  0.00000000000E+00  0.12914159331E+04  0.12914159331E+04  0.25500000000E-02 0.  1.
          2   -1    0    0  501    0  0.00000000000E+00 -0.00000000000E+00 -0.23410380654E+04  0.23410380654E+04  0.25500000000E-02 0. -1.
    8880022    1    1    2    0    0 -0.10829319928E+04  0.31504895471E+03  0.84824313280E+03  0.14194737089E+04  0.15294330000E+03 0.  0.
    8880022    1    1    2    0    0  0.10829319928E+04 -0.31504895471E+03 -0.18978652651E+04  0.22129802896E+04  0.15294330000E+03 0.  0.
<mgrwt>
<rscale>  0 0.11381517E+04</rscale>
<asrwt>0</asrwt>
<pdfrwt beam="1">  1        2 0.36015970E+00 0.11381517E+04</pdfrwt>
<pdfrwt beam="2">  1       -2 0.19867937E+00 0.11381517E+04</pdfrwt>
<totfact> 0.57281533E-01</totfact>
</mgrwt>
</event>
<event>
 4    1  0.1726795E-008  0.3148452E+03  0.7818608E-02  0.1078046E+00
          2   -1    0    0  501    0  0.00000000000E+00  0.00000000000E+00  0.13652595420E+04  0.13652595420E+04  0.25500000000E-02 0. -1.
         -2   -1    0    0    0  501 -0.00000000000E+00 -0.00000000000E+00 -0.31045761215E+03  0.31045761216E+03  0.25500000000E-02 0.  1.
    8880022    1    1    2    0    0 -0.16849324755E+03  0.21759101117E+03 -0.20596651736E+03  0.37623088908E+03  0.15294330000E+03 0.  0.
    8880022    1    1    2    0    0  0.16849324755E+03 -0.21759101117E+03  0.12607684472E+04  0.12994862651E+04  0.15294330000E+03 0. -1.
<mgrwt>
<rscale>  0 0.31484516E+03</rscale>
<asrwt>0</asrwt>
<pdfrwt beam="1">  1        2 0.21003993E+00 0.31484516E+03</pdfrwt>
<pdfrwt beam="2">  1       -2 0.47762709E-01 0.31484516E+03</pdfrwt>
<totfact> 0.68223468E+01</totfact>
</mgrwt>
</event>
<event>
 4    1  0.1726795E-008  0.1544903E+04  0.7818608E-02  0.8855130E-01
          2   -1    0    0  501    0  0.00000000000E+00  0.00000000000E+00  0.39550932520E+04  0.39550932520E+04  0.25500000000E-02 0. -1.
         -2   -1    0    0    0  501 -0.00000000000E+00 -0.00000000000E+00 -0.10559597593E+04  0.10559597593E+04  0.25500000000E-02 0.  1.
    8880022    1    1    2    0    0  0.12460086806E+04  0.90044252051E+03 -0.19059341781E+03  0.15566155173E+04  0.15294330000E+03 0.  0.
    8880022    1    1    2    0    0 -0.12460086806E+04 -0.90044252051E+03  0.30897269106E+04  0.34544374940E+04  0.15294330000E+03 0.  0.
<mgrwt>
<rscale>  0 0.15449032E+04</rscale>
<asrwt>0</asrwt>
<pdfrwt beam="1">  1        2 0.60847589E+00 0.15449032E+04</pdfrwt>
<pdfrwt beam="2">  1       -2 0.16245535E+00 0.15449032E+04</pdfrwt>
<totfact> 0.85576070E-02</totfact>
</mgrwt>
</event>
<event>
 4    1  0.1726795E-008  0.2890902E+03  0.7818608E-02  0.1090825E+00
          2   -1    0    0  501    0  0.00000000000E+00  0.00000000000E+00  0.22431631896E+04  0.22431631896E+04  0.25500000000E-02 0. -1.
         -2   -1    0    0    0  501 -0.00000000000E+00 -0.00000000000E+00 -0.35870721669E+03  0.35870721670E+03  0.25500000000E-02 0.  1.
    8880022    1    1    2    0    0 -0.24510252421E+03  0.10308296868E+02  0.21737511404E+04  0.21928901436E+04  0.15294330000E+03 0.  0.
    8880022    1    1    2    0    0  0.24510252421E+03 -0.10308296868E+02 -0.28929516748E+03  0.40898026273E+03  0.15294330000E+03 0.  0.
<mgrwt>
<rscale>  0 0.28909023E+03</rscale>
<asrwt>0</asrwt>
<pdfrwt beam="1">  1        2 0.34510204E+00 0.28909023E+03</pdfrwt>
<pdfrwt beam="2">  1       -2 0.55185725E-01 0.28909023E+03</pdfrwt>
<totfact> 0.17503625E+01</totfact>
</mgrwt>
</event>
<event>
 4    1  0.1726795E-008  0.1047980E+04  0.7818608E-02  0.9257432E-01
          2   -1    0    0  501    0  0.00000000000E+00  0.00000000000E+00  0.89082291581E+03  0.89082291581E+03  0.25500000000E-02 0. -1.
         -2   -1    0    0    0  501 -0.00000000000E+00 -0.00000000000E+00 -0.23386078539E+04  0.23386078539E+04  0.25500000000E-02 0.  1.
    8880022    1    1    2    0    0 -0.81955938000E+03  0.63497446341E+03 -0.18342041886E+04  0.21124788295E+04  0.15294330000E+03 0.  0.
    8880022    1    1    2    0    0  0.81955938000E+03 -0.63497446341E+03  0.38641925053E+03  0.11169519402E+04  0.15294330000E+03 0.  0.
<mgrwt>
<rscale>  0 0.10479799E+04</rscale>
<asrwt>0</asrwt>
<pdfrwt beam="1">  1        2 0.13704968E+00 0.10479799E+04</pdfrwt>
<pdfrwt beam="2">  1       -2 0.35978582E+00 0.10479799E+04</pdfrwt>
<totfact> 0.40348349E-01</totfact>
</mgrwt>
</event>
<event>
 4    1  0.1726795E-008  0.6130411E+03  0.7818608E-02  0.9878713E-01
          2   -1    0    0  501    0  0.00000000000E+00  0.00000000000E+00  0.12382140165E+04  0.12382140165E+04  0.25500000000E-02 0. -1.
         -2   -1    0    0    0  501 -0.00000000000E+00 -0.00000000000E+00 -0.61293855152E+03  0.61293855152E+03  0.25500000000E-02 0.  1.
    8880022    1    1    2    0    0  0.39474317904E+03 -0.44340224732E+03 -0.34498802320E+03  0.70344588953E+03  0.15294330000E+03 0.  0.
    8880022    1    1    2    0    0 -0.39474317904E+03  0.44340224732E+03  0.97026348815E+03  0.11477066785E+04  0.15294330000E+03 0.  0.
<mgrwt>
<rscale>  0 0.61304109E+03</rscale>
<asrwt>0</asrwt>
<pdfrwt beam="1">  1        2 0.19049446E+00 0.61304109E+03</pdfrwt>
<pdfrwt beam="2">  1       -2 0.94298239E-01 0.61304109E+03</pdfrwt>
<totfact> 0.17690412E+01</totfact>
</mgrwt>
</event>
<event>
 4    1  0.1726795E-008  0.1169649E+04  0.7818608E-02  0.9139846E-01
          2   -1    0    0  501    0  0.00000000000E+00  0.00000000000E+00  0.14689880030E+04  0.14689880030E+04  0.25500000000E-02 0. -1.
         -2   -1    0    0    0  501 -0.00000000000E+00 -0.00000000000E+00 -0.14532539678E+04  0.14532539678E+04  0.25500000000E-02 0.  1.
    8880022    1    1    2    0    0  0.19714264075E+03 -0.11427255034E+04 -0.86777927073E+03  0.14564063007E+04  0.15294330000E+03 0.  0.
    8880022    1    1    2    0    0 -0.19714264075E+03  0.11427255034E+04  0.88351330592E+03  0.14658356701E+04  0.15294330000E+03 0.  0.
<mgrwt>
<rscale>  0 0.11696489E+04</rscale>
<asrwt>0</asrwt>
<pdfrwt beam="1">  1        2 0.22599816E+00 0.11696489E+04</pdfrwt>
<pdfrwt beam="2">  1       -2 0.22357753E+00 0.11696489E+04</pdfrwt>
<totfact> 0.12077341E+00</totfact>
</mgrwt>
</event>
<event>
 4    1  0.1726795E-008  0.6521354E+03  0.7818608E-02  0.9802780E-01
         -2   -1    0    0    0  501 -0.00000000000E+00  0.00000000000E+00  0.82215913905E+03  0.82215913906E+03  0.25500000000E-02 0.  1.
          2   -1    0    0  501    0  0.00000000000E+00 -0.00000000000E+00 -0.13317578211E+04  0.13317578211E+04  0.25500000000E-02 0. -1.
    8880022    1    1    2    0    0  0.63387622969E+03 -0.94823000599E+01 -0.10970238138E+04  0.12762217244E+04  0.15294330000E+03 0.  0.
    8880022    1    1    2    0    0 -0.63387622969E+03  0.94823000599E+01  0.58742513175E+03  0.87769523584E+03  0.15294330000E+03 0.  0.
<mgrwt>
<rscale>  0 0.65213545E+03</rscale>
<asrwt>0</asrwt>
<pdfrwt beam="1">  1        2 0.20488582E+00 0.65213545E+03</pdfrwt>
<pdfrwt beam="2">  1       -2 0.12648602E+00 0.65213545E+03</pdfrwt>
<totfact> 0.76464736E+00</totfact>
</mgrwt>
</event>
<event>
 4    1  0.1726795E-008  0.8421231E+03  0.7818608E-02  0.9500970E-01
          2   -1    0    0  501    0  0.00000000000E+00  0.00000000000E+00  0.15078080270E+04  0.15078080270E+04  0.25500000000E-02 0. -1.
         -2   -1    0    0    0  501 -0.00000000000E+00 -0.00000000000E+00 -0.83824423354E+03  0.83824423354E+03  0.25500000000E-02 0.  1.
    8880022    1    1    2    0    0  0.50145045936E+03 -0.65903493872E+03 -0.44234897324E+03  0.95123282154E+03  0.15294330000E+03 0.  0.
    8880022    1    1    2    0    0 -0.50145045936E+03  0.65903493872E+03  0.11119127667E+04  0.13948194390E+04  0.15294330000E+03 0.  0.
<mgrwt>
<rscale>  0 0.84212307E+03</rscale>
<asrwt>0</asrwt>
<pdfrwt beam="1">  1        2 0.23197047E+00 0.84212307E+03</pdfrwt>
<pdfrwt beam="2">  1       -2 0.12896065E+00 0.84212307E+03</pdfrwt>
<totfact> 0.56389291E+00</totfact>
</mgrwt>
</event>
<event>
 4    1  0.1726795E-008  0.1825193E+04  0.7818608E-02  0.8693016E-01
          2   -1    0    0  501    0  0.00000000000E+00  0.00000000000E+00  0.41648623911E+04  0.41648623911E+04  0.25500000000E-02 0. -1.
         -2   -1    0    0    0  501 -0.00000000000E+00 -0.00000000000E+00 -0.92541462866E+03  0.92541462866E+03  0.25500000000E-02 0.  1.
    8880022    1    1    2    0    0  0.16180807073E+04  0.83051428603E+03  0.25571771974E+04  0.31417329655E+04  0.15294330000E+03 0.  0.
    8880022    1    1    2    0    0 -0.16180807073E+04 -0.83051428603E+03  0.68227056512E+03  0.19485440543E+04  0.15294330000E+03 0.  0.
<mgrwt>
<rscale>  0 0.18251934E+04</rscale>
<asrwt>0</asrwt>
<pdfrwt beam="1">  1        2 0.64074806E+00 0.18251934E+04</pdfrwt>
<pdfrwt beam="2">  1       -2 0.14237148E+00 0.18251934E+04</pdfrwt>
<totfact> 0.79342473E-02</totfact>
</mgrwt>
</event>
<event>
 4    1  0.1726795E-008  0.5039938E+03  0.7818608E-02  0.1012742E+00
         -2   -1    0    0    0  501 -0.00000000000E+00  0.00000000000E+00  0.88349790072E+02  0.88349790109E+02  0.25500000000E-02 0.  1.
          2   -1    0    0  501    0  0.00000000000E+00 -0.00000000000E+00 -0.33300208314E+04  0.33300208314E+04  0.25500000000E-02 0. -1.
    8880022    1    1    2    0    0 -0.47486522696E+03 -0.71561742219E+02 -0.98906506355E+03  0.11100718083E+04  0.15294330000E+03 0.  0.
    8880022    1    1    2    0    0  0.47486522696E+03  0.71561742219E+02 -0.22526059777E+04  0.23082988131E+04  0.15294330000E+03 0.  0.
<mgrwt>
<rscale>  0 0.50399377E+03</rscale>
<asrwt>0</asrwt>
<pdfrwt beam="1">  1        2 0.51231080E+00 0.50399377E+03</pdfrwt>
<pdfrwt beam="2">  1       -2 0.13592278E-01 0.50399377E+03</pdfrwt>
<totfact> 0.49195695E+01</totfact>
</mgrwt>
</event>
<event>
 4    1  0.1726795E-008  0.2106573E+03  0.7818608E-02  0.1141047E+00
          2   -1    0    0  501    0  0.00000000000E+00  0.00000000000E+00  0.95725878850E+03  0.95725878851E+03  0.25500000000E-02 0. -1.
         -2   -1    0    0    0  501 -0.00000000000E+00 -0.00000000000E+00 -0.28784933413E+03  0.28784933414E+03  0.25500000000E-02 0.  1.
    8880022    1    1    2    0    0  0.12366714814E+03  0.75440485656E+02  0.90492853216E+03  0.92912438981E+03  0.15294330000E+03 0.  0.
    8880022    1    1    2    0    0 -0.12366714814E+03 -0.75440485656E+02 -0.23551907778E+03  0.31598373284E+03  0.15294330000E+03 0.  1.
<mgrwt>
<rscale>  0 0.21065727E+03</rscale>
<asrwt>0</asrwt>
<pdfrwt beam="1">  1        2 0.14727059E+00 0.21065727E+03</pdfrwt>
<pdfrwt beam="2">  1       -2 0.44284512E-01 0.21065727E+03</pdfrwt>
<totfact> 0.13969253E+02</totfact>
</mgrwt>
</event>
<event>
 4    1  0.1726795E-008  0.1579120E+04  0.7818608E-02  0.8833479E-01
         -2   -1    0    0    0  501 -0.00000000000E+00  0.00000000000E+00  0.14874411443E+04  0.14874411443E+04  0.25500000000E-02 0.  1.
          2   -1    0    0  501    0  0.00000000000E+00 -0.00000000000E+00 -0.21570394556E+04  0.21570394556E+04  0.25500000000E-02 0. -1.
    8880022    1    1    2    0    0  0.46801358990E+03  0.15003972726E+04 -0.11949286301E+04  0.19802713904E+04  0.15294330000E+03 0.  0.
    8880022    1    1    2    0    0 -0.46801358990E+03 -0.15003972726E+04  0.52533031877E+03  0.16642092094E+04  0.15294330000E+03 0.  0.
<mgrwt>
<rscale>  0 0.15791201E+04</rscale>
<asrwt>0</asrwt>
<pdfrwt beam="1">  1        2 0.33185222E+00 0.15791201E+04</pdfrwt>
<pdfrwt beam="2">  1       -2 0.22883710E+00 0.15791201E+04</pdfrwt>
<totfact> 0.44137765E-01</totfact>
</mgrwt>
</event>
<event>
 4    1  0.1726795E-008  0.8098232E+03  0.7818608E-02  0.9545906E-01
          2   -1    0    0  501    0  0.00000000000E+00  0.00000000000E+00  0.33030301055E+04  0.33030301055E+04  0.25500000000E-02 0. -1.
         -2   -1    0    0    0  501 -0.00000000000E+00 -0.00000000000E+00 -0.63883374753E+03  0.63883374753E+03  0.25500000000E-02 0.  1.
    8880022    1    1    2    0    0 -0.51001861639E+03 -0.61016628378E+03 -0.30413233724E+03  0.86504913994E+03  0.15294330000E+03 0.  0.
    8880022    1    1    2    0    0  0.51001861639E+03  0.61016628378E+03  0.29683286952E+04  0.30768147131E+04  0.15294330000E+03 0.  0.
<mgrwt>
<rscale>  0 0.80982315E+03</rscale>
<asrwt>0</asrwt>
<pdfrwt beam="1">  1        2 0.50815847E+00 0.80982315E+03</pdfrwt>
<pdfrwt beam="2">  1       -2 0.98282117E-01 0.80982315E+03</pdfrwt>
<totfact> 0.10167889E+00</totfact>
</mgrwt>
</event>
<event>
 4    1  0.1726795E-008  0.9593127E+03  0.7818608E-02  0.9354331E-01
         -2   -1    0    0    0  501 -0.00000000000E+00  0.00000000000E+00  0.12900011393E+04  0.12900011393E+04  0.25500000000E-02 0.  1.
          2   -1    0    0  501    0  0.00000000000E+00 -0.00000000000E+00 -0.99416842667E+03  0.99416842667E+03  0.25500000000E-02 0. -1.
    8880022    1    1    2    0    0  0.93623953129E+03  0.14263500313E+03  0.75485678436E+03  0.12206922716E+04  0.15294330000E+03 0.  0.
    8880022    1    1    2    0    0 -0.93623953129E+03 -0.14263500313E+03 -0.45902407177E+03  0.10634772943E+04  0.15294330000E+03 0.  0.
<mgrwt>
<rscale>  0 0.95931270E+03</rscale>
<asrwt>0</asrwt>
<pdfrwt beam="1">  1        2 0.15294899E+00 0.95931270E+03</pdfrwt>
<pdfrwt beam="2">  1       -2 0.19846171E+00 0.95931270E+03</pdfrwt>
<totfact> 0.34472395E+00</totfact>
</mgrwt>
</event>
<event>
 4    1  0.1726795E-008  0.1217236E+04  0.7818608E-02  0.9097903E-01
         -2   -1    0    0    0  501 -0.00000000000E+00  0.00000000000E+00  0.90434322804E+03  0.90434322804E+03  0.25500000000E-02 0.  1.
          2   -1    0    0  501    0  0.00000000000E+00 -0.00000000000E+00 -0.22522191013E+04  0.22522191013E+04  0.25500000000E-02 0. -1.
    8880022    1    1    2    0    0  0.40271622618E+03 -0.11384596764E+04 -0.14978949119E+04  0.19301169948E+04  0.15294330000E+03 0.  0.
    8880022    1    1    2    0    0 -0.40271622618E+03  0.11384596764E+04  0.15001903863E+03  0.12264453345E+04  0.15294330000E+03 0.  0.
<mgrwt>
<rscale>  0 0.12172356E+04</rscale>
<asrwt>0</asrwt>
<pdfrwt beam="1">  1        2 0.34649525E+00 0.12172356E+04</pdfrwt>
<pdfrwt beam="2">  1       -2 0.13912973E+00 0.12172356E+04</pdfrwt>
<totfact> 0.17158103E+00</totfact>
</mgrwt>
</event>
<event>
 4    1  0.1726795E-008  0.4810407E+03  0.7818608E-02  0.1018850E+00
         -2   -1    0    0    0  501 -0.00000000000E+00  0.00000000000E+00  0.14690072678E+03  0.14690072681E+03  0.25500000000E-02 0.  1.
          2   -1    0    0  501    0  0.00000000000E+00 -0.00000000000E+00 -0.34165672244E+04  0.34165672244E+04  0.25500000000E-02 0. -1.
    8880022    1    1    2    0    0  0.26082393688E+03 -0.37413813259E+03 -0.29428593122E+04  0.29819156683E+04  0.15294330000E+03 0.  0.
    8880022    1    1    2    0    0 -0.26082393688E+03  0.37413813259E+03 -0.32680718538E+03  0.58155228289E+03  0.15294330000E+03 0.  1.
<mgrwt>
<rscale>  0 0.48104066E+03</rscale>
<asrwt>0</asrwt>
<pdfrwt beam="1">  1        2 0.52562567E+00 0.48104066E+03</pdfrwt>
<pdfrwt beam="2">  1       -2 0.22600114E-01 0.48104066E+03</pdfrwt>
<totfact> 0.18206113E+01</totfact>
</mgrwt>
</event>
<event>
 4    1  0.1726795E-008  0.1063769E+04  0.7818608E-02  0.9241243E-01
          2   -1    0    0  501    0  0.00000000000E+00  0.00000000000E+00  0.29144392772E+04  0.29144392772E+04  0.25500000000E-02 0. -1.
         -2   -1    0    0    0  501 -0.00000000000E+00 -0.00000000000E+00 -0.95300440214E+03  0.95300440214E+03  0.25500000000E-02 0.  1.
    8880022    1    1    2    0    0 -0.10443842239E+04  0.13219226105E+03 -0.50784352039E+03  0.11787747432E+04  0.15294330000E+03 0.  0.
    8880022    1    1    2    0    0  0.10443842239E+04 -0.13219226105E+03  0.24692783955E+04  0.26886689362E+04  0.15294330000E+03 0.  0.
<mgrwt>
<rscale>  0 0.10637692E+04</rscale>
<asrwt>0</asrwt>
<pdfrwt beam="1">  1        2 0.44837527E+00 0.10637692E+04</pdfrwt>
<pdfrwt beam="2">  1       -2 0.14661606E+00 0.10637692E+04</pdfrwt>
<totfact> 0.62894347E-01</totfact>
</mgrwt>
</event>
<event>
 4    1  0.1726795E-008  0.2568488E+03  0.7818608E-02  0.1109051E+00
         -2   -1    0    0    0  501 -0.00000000000E+00  0.00000000000E+00  0.33885513824E+03  0.33885513825E+03  0.25500000000E-02 0.  1.
          2   -1    0    0  501    0  0.00000000000E+00 -0.00000000000E+00 -0.10572349265E+04  0.10572349265E+04  0.25500000000E-02 0. -1.
    8880022    1    1    2    0    0  0.20633341285E+03 -0.24824912640E+01 -0.98969536571E+03  0.10224813983E+04  0.15294330000E+03 0.  0.
    8880022    1    1    2    0    0 -0.20633341285E+03  0.24824912640E+01  0.27131557747E+03  0.37360866640E+03  0.15294330000E+03 0.  1.
<mgrwt>
<rscale>  0 0.25684877E+03</rscale>
<asrwt>0</asrwt>
<pdfrwt beam="1">  1        2 0.16265153E+00 0.25684877E+03</pdfrwt>
<pdfrwt beam="2">  1       -2 0.52131560E-01 0.25684877E+03</pdfrwt>
<totfact> 0.86974429E+01</totfact>
</mgrwt>
</event>
<event>
 4    1  0.1726795E-008  0.6174845E+03  0.7818608E-02  0.9869781E-01
          2   -1    0    0  501    0  0.00000000000E+00  0.00000000000E+00  0.17018728100E+04  0.17018728100E+04  0.25500000000E-02 0. -1.
         -2   -1    0    0    0  501 -0.00000000000E+00 -0.00000000000E+00 -0.51087930011E+03  0.51087930011E+03  0.25500000000E-02 0.  1.
    8880022    1    1    2    0    0 -0.58149384554E+03  0.14057145718E+03  0.14245132393E+04  0.15525865673E+04  0.15294330000E+03 0.  0.
    8880022    1    1    2    0    0  0.58149384554E+03 -0.14057145718E+03 -0.23351972936E+03  0.66016554287E+03  0.15294330000E+03 0.  0.
<mgrwt>
<rscale>  0 0.61748448E+03</rscale>
<asrwt>0</asrwt>
<pdfrwt beam="1">  1        2 0.26182658E+00 0.61748448E+03</pdfrwt>
<pdfrwt beam="2">  1       -2 0.78596817E-01 0.61748448E+03</pdfrwt>
<totfact> 0.14758911E+01</totfact>
</mgrwt>
</event>
<event>
 4    1  0.1726795E-008  0.8600169E+03  0.7818608E-02  0.9476990E-01
         -2   -1    0    0    0  501 -0.00000000000E+00  0.00000000000E+00  0.10814363193E+04  0.10814363193E+04  0.25500000000E-02 0.  1.
          2   -1    0    0  501    0  0.00000000000E+00 -0.00000000000E+00 -0.18303159119E+04  0.18303159119E+04  0.25500000000E-02 0. -1.
    8880022    1    1    2    0    0  0.53143615829E+03 -0.65864478537E+03 -0.15266359440E+04  0.17522118314E+04  0.15294330000E+03 0.  0.
    8880022    1    1    2    0    0 -0.53143615829E+03  0.65864478537E+03  0.77775635141E+03  0.11595403998E+04  0.15294330000E+03 0.  0.
<mgrwt>
<rscale>  0 0.86001686E+03</rscale>
<asrwt>0</asrwt>
<pdfrwt beam="1">  1        2 0.28158706E+00 0.86001686E+03</pdfrwt>
<pdfrwt beam="2">  1       -2 0.16637482E+00 0.86001686E+03</pdfrwt>
<totfact> 0.19083444E+00</totfact>
</mgrwt>
</event>
<event>
 4    1  0.1726795E-008  0.6676911E+03  0.7818608E-02  0.9774138E-01
          2   -1    0    0  501    0  0.00000000000E+00  0.00000000000E+00  0.56640339094E+03  0.56640339095E+03  0.25500000000E-02 0. -1.
         -2   -1    0    0    0  501 -0.00000000000E+00 -0.00000000000E+00 -0.12815854251E+04  0.12815854251E+04  0.25500000000E-02 0.  1.
    8880022    1    1    2    0    0 -0.60395186262E+03  0.24012880420E+03  0.21636154904E+03  0.70187154657E+03  0.15294330000E+03 0.  0.
    8880022    1    1    2    0    0  0.60395186262E+03 -0.24012880420E+03 -0.93154358317E+03  0.11461172694E+04  0.15294330000E+03 0.  1.
<mgrwt>
<rscale>  0 0.66769106E+03</rscale>
<asrwt>0</asrwt>
<pdfrwt beam="1">  1        2 0.87138983E-01 0.66769106E+03</pdfrwt>
<pdfrwt beam="2">  1       -2 0.19716699E+00 0.66769106E+03</pdfrwt>
<totfact> 0.76002303E+00</totfact>
</mgrwt>
</event>
<event>
 4    1  0.1726795E-008  0.5998775E+03  0.7818608E-02  0.9905660E-01
         -2   -1    0    0    0  501 -0.00000000000E+00  0.00000000000E+00  0.76062638987E+03  0.76062638987E+03  0.25500000000E-02 0.  1.
          2   -1    0    0  501    0  0.00000000000E+00 -0.00000000000E+00 -0.25510604995E+04  0.25510604995E+04  0.25500000000E-02 0. -1.
    8880022    1    1    2    0    0 -0.50462863567E+03  0.28602671728E+03 -0.23896534936E+04  0.24637972350E+04  0.15294330000E+03 0.  0.
    8880022    1    1    2    0    0  0.50462863567E+03 -0.28602671728E+03  0.59921938391E+03  0.84788965438E+03  0.15294330000E+03 0.  0.
<mgrwt>
<rscale>  0 0.59987748E+03</rscale>
<asrwt>0</asrwt>
<pdfrwt beam="1">  1        2 0.39247084E+00 0.59987748E+03</pdfrwt>
<pdfrwt beam="2">  1       -2 0.11701945E+00 0.59987748E+03</pdfrwt>
<totfact> 0.19993767E+00</totfact>
</mgrwt>
</event>
<event>
 4    1  0.1726795E-008  0.7214286E+03  0.7818608E-02  0.9681272E-01
         -2   -1    0    0    0  501 -0.00000000000E+00  0.00000000000E+00  0.36455347524E+03  0.36455347525E+03  0.25500000000E-02 0.  1.
          2   -1    0    0  501    0  0.00000000000E+00 -0.00000000000E+00 -0.37781369021E+04  0.37781369021E+04  0.25500000000E-02 0. -1.
    8880022    1    1    2    0    0  0.35686562139E+03 -0.60804151044E+03 -0.33405636376E+04  0.34175758397E+04  0.15294330000E+03 0.  0.
    8880022    1    1    2    0    0 -0.35686562139E+03  0.60804151044E+03 -0.73019789311E+02  0.72511453771E+03  0.15294330000E+03 0.  1.
<mgrwt>
<rscale>  0 0.72142858E+03</rscale>
<asrwt>0</asrwt>
<pdfrwt beam="1">  1        2 0.58125180E+00 0.72142858E+03</pdfrwt>
<pdfrwt beam="2">  1       -2 0.56085153E-01 0.72142858E+03</pdfrwt>
<totfact> 0.16868986E+00</totfact>
</mgrwt>
</event>
<event>
 4    1  0.1726795E-008  0.8137286E+03  0.7818608E-02  0.9540355E-01
          2   -1    0    0  501    0  0.00000000000E+00  0.00000000000E+00  0.19336263827E+04  0.19336263827E+04  0.25500000000E-02 0. -1.
         -2   -1    0    0    0  501 -0.00000000000E+00 -0.00000000000E+00 -0.99330778328E+03  0.99330778328E+03  0.25500000000E-02 0.  1.
    8880022    1    1    2    0    0 -0.70098256280E+03 -0.38390886948E+03 -0.71448201150E+03  0.10828844681E+04  0.15294330000E+03 0.  0.
    8880022    1    1    2    0    0  0.70098256280E+03  0.38390886948E+03  0.16548006110E+04  0.18440496979E+04  0.15294330000E+03 0.  0.
<mgrwt>
<rscale>  0 0.81372860E+03</rscale>
<asrwt>0</asrwt>
<pdfrwt beam="1">  1        2 0.29748098E+00 0.81372860E+03</pdfrwt>
<pdfrwt beam="2">  1       -2 0.15281658E+00 0.81372860E+03</pdfrwt>
<totfact> 0.21260486E+00</totfact>
</mgrwt>
</event>
<event>
 4    1  0.1726795E-008  0.8387053E+03  0.7818608E-02  0.9505623E-01
          2   -1    0    0  501    0  0.00000000000E+00  0.00000000000E+00  0.18925223400E+04  0.18925223400E+04  0.25500000000E-02 0. -1.
         -2   -1    0    0    0  501 -0.00000000000E+00 -0.00000000000E+00 -0.98436708791E+03  0.98436708791E+03  0.25500000000E-02 0.  1.
    8880022    1    1    2    0    0 -0.73295555125E+03 -0.37790354526E+03  0.15889091646E+04  0.17966799704E+04  0.15294330000E+03 0.  0.
    8880022    1    1    2    0    0  0.73295555125E+03  0.37790354526E+03 -0.68075391254E+03  0.10802094575E+04  0.15294330000E+03 0.  0.
<mgrwt>
<rscale>  0 0.83870530E+03</rscale>
<asrwt>0</asrwt>
<pdfrwt beam="1">  1        2 0.29115728E+00 0.83870530E+03</pdfrwt>
<pdfrwt beam="2">  1       -2 0.15144109E+00 0.83870530E+03</pdfrwt>
<totfact> 0.22840474E+00</totfact>
</mgrwt>
</event>
<event>
 4    1  0.1726795E-008  0.5432752E+03  0.7818608E-02  0.1003063E+00
         -2   -1    0    0    0  501 -0.00000000000E+00  0.00000000000E+00  0.36682056383E+03  0.36682056384E+03  0.25500000000E-02 0.  1.
          2   -1    0    0  501    0  0.00000000000E+00 -0.00000000000E+00 -0.20579168192E+04  0.20579168192E+04  0.25500000000E-02 0. -1.
    8880022    1    1    2    0    0  0.10428443108E+03  0.51076517537E+03 -0.17916747989E+04  0.18722303665E+04  0.15294330000E+03 0.  0.
    8880022    1    1    2    0    0 -0.10428443108E+03 -0.51076517537E+03  0.10057854357E+03  0.55250701659E+03  0.15294330000E+03 0.  0.
<mgrwt>
<rscale>  0 0.54327522E+03</rscale>
<asrwt>0</asrwt>
<pdfrwt beam="1">  1        2 0.31660258E+00 0.54327522E+03</pdfrwt>
<pdfrwt beam="2">  1       -2 0.56433934E-01 0.54327522E+03</pdfrwt>
<totfact> 0.19586121E+01</totfact>
</mgrwt>
</event>
<event>
 4    1  0.1726795E-008  0.5644603E+03  0.7818608E-02  0.9982013E-01
         -2   -1    0    0    0  501 -0.00000000000E+00  0.00000000000E+00  0.72772406637E+03  0.72772406638E+03  0.25500000000E-02 0.  1.
          2   -1    0    0  501    0  0.00000000000E+00 -0.00000000000E+00 -0.59528646090E+03  0.59528646090E+03  0.25500000000E-02 0. -1.
    8880022    1    1    2    0    0  0.47313358793E+03  0.26714860749E+03 -0.27399985996E+03  0.62744828216E+03  0.15294330000E+03 0.  0.
    8880022    1    1    2    0    0 -0.47313358793E+03 -0.26714860749E+03  0.40643746543E+03  0.69556224512E+03  0.15294330000E+03 0.  0.
<mgrwt>
<rscale>  0 0.56446029E+03</rscale>
<asrwt>0</asrwt>
<pdfrwt beam="1">  1        2 0.91582533E-01 0.56446029E+03</pdfrwt>
<pdfrwt beam="2">  1       -2 0.11195755E+00 0.56446029E+03</pdfrwt>
<totfact> 0.32466085E+01</totfact>
</mgrwt>
</event>
<event>
 4    1  0.1726795E-008  0.3918342E+03  0.7818608E-02  0.1046644E+00
         -2   -1    0    0    0  501 -0.00000000000E+00  0.00000000000E+00  0.23656145614E+04  0.23656145614E+04  0.25500000000E-02 0.  1.
          2   -1    0    0  501    0  0.00000000000E+00 -0.00000000000E+00 -0.52762506191E+03  0.52762506191E+03  0.25500000000E-02 0. -1.
    8880022    1    1    2    0    0  0.36045556855E+03 -0.14635659730E+02 -0.43573317623E+03  0.58600125710E+03  0.15294330000E+03 0.  0.
    8880022    1    1    2    0    0 -0.36045556855E+03  0.14635659730E+02  0.22737226757E+04  0.23072383662E+04  0.15294330000E+03 0.  0.
<mgrwt>
<rscale>  0 0.39183424E+03</rscale>
<asrwt>0</asrwt>
<pdfrwt beam="1">  1        2 0.81173085E-01 0.39183424E+03</pdfrwt>
<pdfrwt beam="2">  1       -2 0.36394071E+00 0.39183424E+03</pdfrwt>
<totfact> 0.85126885E-01</totfact>
</mgrwt>
</event>
<event>
 4    1  0.1726795E-008  0.3638528E+03  0.7818608E-02  0.1057069E+00
         -2   -1    0    0    0  501 -0.00000000000E+00  0.00000000000E+00  0.10513367649E+03  0.10513367652E+03  0.25500000000E-02 0.  1.
          2   -1    0    0  501    0  0.00000000000E+00 -0.00000000000E+00 -0.15392348073E+04  0.15392348073E+04  0.25500000000E-02 0. -1.
    8880022    1    1    2    0    0  0.28146033230E+03 -0.17256087736E+03 -0.10677132123E+04  0.11280072393E+04  0.15294330000E+03 0. -1.
    8880022    1    1    2    0    0 -0.28146033230E+03  0.17256087736E+03 -0.36638791851E+03  0.51636124457E+03  0.15294330000E+03 0. -1.
<mgrwt>
<rscale>  0 0.36385276E+03</rscale>
<asrwt>0</asrwt>
<pdfrwt beam="1">  1        2 0.23680534E+00 0.36385276E+03</pdfrwt>
<pdfrwt beam="2">  1       -2 0.16174413E-01 0.36385276E+03</pdfrwt>
<totfact> 0.38932430E+02</totfact>
</mgrwt>
</event>
<event>
 4    1  0.1726795E-008  0.7034467E+03  0.7818608E-02  0.9711356E-01
          2   -1    0    0  501    0  0.00000000000E+00  0.00000000000E+00  0.38329250499E+04  0.38329250499E+04  0.25500000000E-02 0. -1.
         -2   -1    0    0    0  501 -0.00000000000E+00 -0.00000000000E+00 -0.87739627978E+03  0.87739627978E+03  0.25500000000E-02 0.  1.
    8880022    1    1    2    0    0  0.53714633561E+03  0.42769075911E+03  0.36527627674E+04  0.37198807856E+04  0.15294330000E+03 0.  0.
    8880022    1    1    2    0    0 -0.53714633561E+03 -0.42769075911E+03 -0.69723399730E+03  0.99044054404E+03  0.15294330000E+03 0.  0.
<mgrwt>
<rscale>  0 0.70344667E+03</rscale>
<asrwt>0</asrwt>
<pdfrwt beam="1">  1        2 0.58968077E+00 0.70344667E+03</pdfrwt>
<pdfrwt beam="2">  1       -2 0.13498404E+00 0.70344667E+03</pdfrwt>
<totfact> 0.20507517E-01</totfact>
</mgrwt>
</event>
<event>
 4    1  0.1726795E-008  0.1175473E+04  0.7818608E-02  0.9134600E-01
          2   -1    0    0  501    0  0.00000000000E+00  0.00000000000E+00  0.19214215380E+04  0.19214215380E+04  0.25500000000E-02 0. -1.
         -2   -1    0    0    0  501 -0.00000000000E+00 -0.00000000000E+00 -0.13576294781E+04  0.13576294781E+04  0.25500000000E-02 0.  1.
    8880022    1    1    2    0    0 -0.11588727102E+04 -0.12393072546E+03  0.14062694061E+04  0.18328475329E+04  0.15294330000E+03 0.  0.
    8880022    1    1    2    0    0  0.11588727102E+04  0.12393072546E+03 -0.84247734612E+03  0.14462034832E+04  0.15294330000E+03 0.  0.
<mgrwt>
<rscale>  0 0.11754729E+04</rscale>
<asrwt>0</asrwt>
<pdfrwt beam="1">  1        2 0.29560331E+00 0.11754729E+04</pdfrwt>
<pdfrwt beam="2">  1       -2 0.20886607E+00 0.11754729E+04</pdfrwt>
<totfact> 0.83805060E-01</totfact>
</mgrwt>
</event>
<event>
 4    1  0.1726795E-008  0.8372439E+03  0.7818608E-02  0.9507619E-01
          2   -1    0    0  501    0  0.00000000000E+00  0.00000000000E+00  0.21540867347E+04  0.21540867347E+04  0.25500000000E-02 0. -1.
         -2   -1    0    0    0  501 -0.00000000000E+00 -0.00000000000E+00 -0.56906117508E+03  0.56906117509E+03  0.25500000000E-02 0.  1.
    8880022    1    1    2    0    0 -0.68142836511E+03  0.46178039571E+03 -0.98408590082E+02  0.84300750545E+03  0.15294330000E+03 0.  0.
    8880022    1    1    2    0    0  0.68142836511E+03 -0.46178039571E+03  0.16834341497E+04  0.18801404043E+04  0.15294330000E+03 0.  0.
<mgrwt>
<rscale>  0 0.83724393E+03</rscale>
<asrwt>0</asrwt>
<pdfrwt beam="1">  1        2 0.33139796E+00 0.83724393E+03</pdfrwt>
<pdfrwt beam="2">  1       -2 0.87547872E-01 0.83724393E+03</pdfrwt>
<totfact> 0.63304944E+00</totfact>
</mgrwt>
</event>
<event>
 4    1  0.1726795E-008  0.6519006E+03  0.7818608E-02  0.9803219E-01
          2   -1    0    0  501    0  0.00000000000E+00  0.00000000000E+00  0.95553893124E+03  0.95553893124E+03  0.25500000000E-02 0. -1.
         -2   -1    0    0    0  501 -0.00000000000E+00 -0.00000000000E+00 -0.98389739704E+03  0.98389739704E+03  0.25500000000E-02 0.  1.
    8880022    1    1    2    0    0 -0.56570578631E+03  0.28558651097E+03  0.70365646738E+03  0.95922196024E+03  0.15294330000E+03 0.  0.
    8880022    1    1    2    0    0  0.56570578631E+03 -0.28558651097E+03 -0.73201493318E+03  0.98021436805E+03  0.15294330000E+03 0.  0.
<mgrwt>
<rscale>  0 0.65190056E+03</rscale>
<asrwt>0</asrwt>
<pdfrwt beam="1">  1        2 0.14700599E+00 0.65190056E+03</pdfrwt>
<pdfrwt beam="2">  1       -2 0.15136883E+00 0.65190056E+03</pdfrwt>
<totfact> 0.81208256E+00</totfact>
</mgrwt>
</event>
<event>
 4    1  0.1726795E-008  0.9448575E+03  0.7818608E-02  0.9371182E-01
          2   -1    0    0  501    0  0.00000000000E+00  0.00000000000E+00  0.11891106526E+04  0.11891106526E+04  0.25500000000E-02 0. -1.
         -2   -1    0    0    0  501 -0.00000000000E+00 -0.00000000000E+00 -0.11672563862E+04  0.11672563862E+04  0.25500000000E-02 0.  1.
    8880022    1    1    2    0    0 -0.11817319037E+03  0.92487786795E+03 -0.69283701740E+03  0.11716564169E+04  0.15294330000E+03 0.  0.
    8880022    1    1    2    0    0  0.11817319037E+03 -0.92487786795E+03  0.71469128380E+03  0.11847106219E+04  0.15294330000E+03 0.  0.
<mgrwt>
<rscale>  0 0.94485746E+03</rscale>
<asrwt>0</asrwt>
<pdfrwt beam="1">  1        2 0.18294010E+00 0.94485746E+03</pdfrwt>
<pdfrwt beam="2">  1       -2 0.17957790E+00 0.94485746E+03</pdfrwt>
<totfact> 0.35020862E+00</totfact>
</mgrwt>
</event>
<event>
 4    1  0.1726795E-008  0.6259428E+03  0.7818608E-02  0.9852998E-01
          2   -1    0    0  501    0  0.00000000000E+00  0.00000000000E+00  0.16810886206E+04  0.16810886206E+04  0.25500000000E-02 0. -1.
         -2   -1    0    0    0  501 -0.00000000000E+00 -0.00000000000E+00 -0.50927651315E+03  0.50927651316E+03  0.25500000000E-02 0.  1.
    8880022    1    1    2    0    0  0.44730603040E+03 -0.41028050673E+03  0.13924534235E+04  0.15266731702E+04  0.15294330000E+03 0.  0.
    8880022    1    1    2    0    0 -0.44730603040E+03  0.41028050673E+03 -0.22064131609E+03  0.66369196350E+03  0.15294330000E+03 0.  0.
<mgrwt>
<rscale>  0 0.62594283E+03</rscale>
<asrwt>0</asrwt>
<pdfrwt beam="1">  1        2 0.25862902E+00 0.62594283E+03</pdfrwt>
<pdfrwt beam="2">  1       -2 0.78350233E-01 0.62594283E+03</pdfrwt>
<totfact> 0.15233983E+01</totfact>
</mgrwt>
</event>
<event>
 4    1  0.1726795E-008  0.1385073E+04  0.7818608E-02  0.8964695E-01
          2   -1    0    0  501    0  0.00000000000E+00  0.00000000000E+00  0.19391894253E+04  0.19391894253E+04  0.25500000000E-02 0. -1.
         -2   -1    0    0    0  501 -0.00000000000E+00 -0.00000000000E+00 -0.13945996295E+04  0.13945996295E+04  0.25500000000E-02 0.  1.
    8880022    1    1    2    0    0 -0.13763264641E+04  0.27594252063E+02 -0.62632265150E+03  0.15201012122E+04  0.15294330000E+03 0.  0.
    8880022    1    1    2    0    0  0.13763264641E+04 -0.27594252063E+02  0.11709124473E+04  0.18136878427E+04  0.15294330000E+03 0.  0.
<mgrwt>
<rscale>  0 0.13850732E+04</rscale>
<asrwt>0</asrwt>
<pdfrwt beam="1">  1        2 0.29833683E+00 0.13850732E+04</pdfrwt>
<pdfrwt beam="2">  1       -2 0.21455379E+00 0.13850732E+04</pdfrwt>
<totfact> 0.73464064E-01</totfact>
</mgrwt>
</event>
<event>
 4    1  0.1726795E-008  0.6242455E+03  0.7818608E-02  0.9856343E-01
          2   -1    0    0  501    0  0.00000000000E+00  0.00000000000E+00  0.13783201423E+04  0.13783201423E+04  0.25500000000E-02 0. -1.
         -2   -1    0    0    0  501 -0.00000000000E+00 -0.00000000000E+00 -0.12647902184E+04  0.12647902184E+04  0.25500000000E-02 0.  1.
    8880022    1    1    2    0    0  0.35540918847E+03 -0.48987256618E+03 -0.11077543967E+04  0.12715354021E+04  0.15294330000E+03 0.  0.
    8880022    1    1    2    0    0 -0.35540918847E+03  0.48987256618E+03  0.12212843206E+04  0.13715749586E+04  0.15294330000E+03 0. -1.
<mgrwt>
<rscale>  0 0.62424552E+03</rscale>
<asrwt>0</asrwt>
<pdfrwt beam="1">  1        2 0.21204925E+00 0.62424552E+03</pdfrwt>
<pdfrwt beam="2">  1       -2 0.19458311E+00 0.62424552E+03</pdfrwt>
<totfact> 0.22661751E+00</totfact>
</mgrwt>
</event>
<event>
 4    1  0.1726795E-008  0.1349921E+04  0.7818608E-02  0.8990888E-01
          2   -1    0    0  501    0  0.00000000000E+00  0.00000000000E+00  0.22033551112E+04  0.22033551112E+04  0.25500000000E-02 0. -1.
         -2   -1    0    0    0  501 -0.00000000000E+00 -0.00000000000E+00 -0.12677386798E+04  0.12677386798E+04  0.25500000000E-02 0.  1.
    8880022    1    1    2    0    0  0.26517867155E+03  0.13147533495E+04 -0.55545362758E+03  0.14597316477E+04  0.15294330000E+03 0.  1.
    8880022    1    1    2    0    0 -0.26517867155E+03 -0.13147533495E+04  0.14910700590E+04  0.20113621433E+04  0.15294330000E+03 0.  0.
<mgrwt>
<rscale>  0 0.13499214E+04</rscale>
<asrwt>0</asrwt>
<pdfrwt beam="1">  1        2 0.33897771E+00 0.13499214E+04</pdfrwt>
<pdfrwt beam="2">  1       -2 0.19503672E+00 0.13499214E+04</pdfrwt>
<totfact> 0.70435004E-01</totfact>
</mgrwt>
</event>
<event>
 4    1  0.1726795E-008  0.4041344E+03  0.7818608E-02  0.1042357E+00
         -2   -1    0    0    0  501 -0.00000000000E+00  0.00000000000E+00  0.73821150546E+03  0.73821150546E+03  0.25500000000E-02 0.  1.
          2   -1    0    0  501    0  0.00000000000E+00 -0.00000000000E+00 -0.83494189141E+03  0.83494189142E+03  0.25500000000E-02 0. -1.
    8880022    1    1    2    0    0  0.37383325276E+03  0.13478762868E+02 -0.72272298403E+03  0.82804175171E+03  0.15294330000E+03 0.  0.
    8880022    1    1    2    0    0 -0.37383325276E+03 -0.13478762868E+02  0.62599259807E+03  0.74511164517E+03  0.15294330000E+03 0.  1.
<mgrwt>
<rscale>  0 0.40413442E+03</rscale>
<asrwt>0</asrwt>
<pdfrwt beam="1">  1        2 0.12845260E+00 0.40413442E+03</pdfrwt>
<pdfrwt beam="2">  1       -2 0.11357100E+00 0.40413442E+03</pdfrwt>
<totfact> 0.21004631E+01</totfact>
</mgrwt>
</event>
<event>
 4    1  0.1726795E-008  0.5286404E+03  0.7818608E-02  0.1006562E+00
          2   -1    0    0  501    0  0.00000000000E+00  0.00000000000E+00  0.16964082538E+04  0.16964082538E+04  0.25500000000E-02 0. -1.
         -2   -1    0    0    0  501 -0.00000000000E+00 -0.00000000000E+00 -0.21715607763E+03  0.21715607765E+03  0.25500000000E-02 0.  1.
    8880022    1    1    2    0    0  0.36383760503E+03  0.35169766350E+03  0.12097074104E+04  0.13201714742E+04  0.15294330000E+03 0.  0.
    8880022    1    1    2    0    0 -0.36383760503E+03 -0.35169766350E+03  0.26954476576E+03  0.59339285731E+03  0.15294330000E+03 0.  0.
<mgrwt>
<rscale>  0 0.52864043E+03</rscale>
<asrwt>0</asrwt>
<pdfrwt beam="1">  1        2 0.26098589E+00 0.52864043E+03</pdfrwt>
<pdfrwt beam="2">  1       -2 0.33408627E-01 0.52864043E+03</pdfrwt>
<totfact> 0.86525454E+01</totfact>
</mgrwt>
</event>
<event>
 4    1  0.1726795E-008  0.2553526E+03  0.7818608E-02  0.1109968E+00
         -2   -1    0    0    0  501 -0.00000000000E+00  0.00000000000E+00  0.24612960954E+03  0.24612960955E+03  0.25500000000E-02 0.  1.
          2   -1    0    0  501    0  0.00000000000E+00 -0.00000000000E+00 -0.96768484988E+03  0.96768484988E+03  0.25500000000E-02 0. -1.
    8880022    1    1    2    0    0  0.20077343806E+03  0.38772739007E+02  0.15642412867E+03  0.29945527173E+03  0.15294330000E+03 0.  0.
    8880022    1    1    2    0    0 -0.20077343806E+03 -0.38772739007E+02 -0.87797936901E+03  0.91435918770E+03  0.15294330000E+03 0.  0.
<mgrwt>
<rscale>  0 0.25535260E+03</rscale>
<asrwt>0</asrwt>
<pdfrwt beam="1">  1        2 0.14887459E+00 0.25535260E+03</pdfrwt>
<pdfrwt beam="2">  1       -2 0.37866094E-01 0.25535260E+03</pdfrwt>
<totfact> 0.18434665E+02</totfact>
</mgrwt>
</event>
<event>
 4    1  0.1726795E-008  0.3237532E+03  0.7818608E-02  0.1073935E+00
         -2   -1    0    0    0  501 -0.00000000000E+00  0.00000000000E+00  0.15618226120E+03  0.15618226122E+03  0.25500000000E-02 0.  1.
          2   -1    0    0  501    0  0.00000000000E+00 -0.00000000000E+00 -0.18430533330E+04  0.18430533330E+04  0.25500000000E-02 0. -1.
    8880022    1    1    2    0    0 -0.27917615341E+03  0.59035386713E+02 -0.46326868905E+02  0.32705096440E+03  0.15294330000E+03 0.  0.
    8880022    1    1    2    0    0  0.27917615341E+03 -0.59035386713E+02 -0.16405442029E+04  0.16721846299E+04  0.15294330000E+03 0.  0.
<mgrwt>
<rscale>  0 0.32375323E+03</rscale>
<asrwt>0</asrwt>
<pdfrwt beam="1">  1        2 0.28354665E+00 0.32375323E+03</pdfrwt>
<pdfrwt beam="2">  1       -2 0.24028041E-01 0.32375323E+03</pdfrwt>
<totfact> 0.13647102E+02</totfact>
</mgrwt>
</event>
<event>
 4    1  0.1726795E-008  0.6289351E+03  0.7818608E-02  0.9847129E-01
         -2   -1    0    0    0  501 -0.00000000000E+00  0.00000000000E+00  0.91554171192E+03  0.91554171192E+03  0.25500000000E-02 0.  1.
          2   -1    0    0  501    0  0.00000000000E+00 -0.00000000000E+00 -0.17338458212E+04  0.17338458212E+04  0.25500000000E-02 0. -1.
    8880022    1    1    2    0    0 -0.88452674108E+02  0.60360895555E+03  0.73868907328E+03  0.97016537084E+03  0.15294330000E+03 0.  0.
    8880022    1    1    2    0    0  0.88452674108E+02 -0.60360895555E+03 -0.15569931826E+04  0.16792221623E+04  0.15294330000E+03 0.  0.
<mgrwt>
<rscale>  0 0.62893505E+03</rscale>
<asrwt>0</asrwt>
<pdfrwt beam="1">  1        2 0.26674551E+00 0.62893505E+03</pdfrwt>
<pdfrwt beam="2">  1       -2 0.14085257E+00 0.62893505E+03</pdfrwt>
<totfact> 0.34988496E+00</totfact>
</mgrwt>
</event>
<event>
 4    1  0.1726795E-008  0.3785357E+03  0.7818608E-02  0.1051476E+00
         -2   -1    0    0    0  501 -0.00000000000E+00  0.00000000000E+00  0.12167117509E+04  0.12167117509E+04  0.25500000000E-02 0.  1.
          2   -1    0    0  501    0  0.00000000000E+00 -0.00000000000E+00 -0.45409951755E+03  0.45409951756E+03  0.25500000000E-02 0. -1.
    8880022    1    1    2    0    0  0.30584255246E+03  0.16235132439E+03  0.11002680475E+04  0.11635630833E+04  0.15294330000E+03 0.  1.
    8880022    1    1    2    0    0 -0.30584255246E+03 -0.16235132439E+03 -0.33765581420E+03  0.50724818512E+03  0.15294330000E+03 0.  0.
<mgrwt>
<rscale>  0 0.37853570E+03</rscale>
<asrwt>0</asrwt>
<pdfrwt beam="1">  1        2 0.69861463E-01 0.37853570E+03</pdfrwt>
<pdfrwt beam="2">  1       -2 0.18718643E+00 0.37853570E+03</pdfrwt>
<totfact> 0.11937140E+01</totfact>
</mgrwt>
</event>
<event>
 4    1  0.1726795E-008  0.7542395E+03  0.7818608E-02  0.9628723E-01
         -2   -1    0    0    0  501 -0.00000000000E+00  0.00000000000E+00  0.91082291405E+03  0.91082291405E+03  0.25500000000E-02 0.  1.
          2   -1    0    0  501    0  0.00000000000E+00 -0.00000000000E+00 -0.22079180351E+04  0.22079180351E+04  0.25500000000E-02 0. -1.
    8880022    1    1    2    0    0 -0.17377980263E+03 -0.71783431195E+03  0.67197355132E+03  0.10101611881E+04  0.15294330000E+03 0.  0.
    8880022    1    1    2    0    0  0.17377980263E+03  0.71783431195E+03 -0.19690686724E+04  0.21085797611E+04  0.15294330000E+03 0.  0.
<mgrwt>
<rscale>  0 0.75423947E+03</rscale>
<asrwt>0</asrwt>
<pdfrwt beam="1">  1        2 0.33967970E+00 0.75423947E+03</pdfrwt>
<pdfrwt beam="2">  1       -2 0.14012660E+00 0.75423947E+03</pdfrwt>
<totfact> 0.19084968E+00</totfact>
</mgrwt>
</event>
<event>
 4    1  0.1726795E-008  0.8787316E+03  0.7818608E-02  0.9452566E-01
          2   -1    0    0  501    0  0.00000000000E+00  0.00000000000E+00  0.20526950657E+04  0.20526950657E+04  0.25500000000E-02 0. -1.
         -2   -1    0    0    0  501 -0.00000000000E+00 -0.00000000000E+00 -0.49788594879E+03  0.49788594880E+03  0.25500000000E-02 0.  1.
    8880022    1    1    2    0    0  0.19336018252E+03 -0.84343900598E+03  0.14686553768E+03  0.89092011772E+03  0.15294330000E+03 0.  0.
    8880022    1    1    2    0    0 -0.19336018252E+03  0.84343900598E+03  0.14079435792E+04  0.16596608968E+04  0.15294330000E+03 0.  0.
<mgrwt>
<rscale>  0 0.87873157E+03</rscale>
<asrwt>0</asrwt>
<pdfrwt beam="1">  1        2 0.31579925E+00 0.87873157E+03</pdfrwt>
<pdfrwt beam="2">  1       -2 0.76597837E-01 0.87873157E+03</pdfrwt>
<totfact> 0.96856346E+00</totfact>
</mgrwt>
</event>
<event>
 4    1  0.1726795E-008  0.8980224E+03  0.7818608E-02  0.9428057E-01
         -2   -1    0    0    0  501 -0.00000000000E+00  0.00000000000E+00  0.60166639403E+03  0.60166639404E+03  0.25500000000E-02 0.  1.
          2   -1    0    0  501    0  0.00000000000E+00 -0.00000000000E+00 -0.17013839496E+04  0.17013839496E+04  0.25500000000E-02 0. -1.
    8880022    1    1    2    0    0 -0.12410807504E+03  0.87615623019E+03 -0.10803102215E+04  0.14048182736E+04  0.15294330000E+03 0.  0.
    8880022    1    1    2    0    0  0.12410807504E+03 -0.87615623019E+03 -0.19407333977E+02  0.89823207002E+03  0.15294330000E+03 0.  0.
<mgrwt>
<rscale>  0 0.89802239E+03</rscale>
<asrwt>0</asrwt>
<pdfrwt beam="1">  1        2 0.26175138E+00 0.89802239E+03</pdfrwt>
<pdfrwt beam="2">  1       -2 0.92564061E-01 0.89802239E+03</pdfrwt>
<totfact> 0.97820388E+00</totfact>
</mgrwt>
</event>
<event>
 4    1  0.1726795E-008  0.1250934E+04  0.7818608E-02  0.9069406E-01
          2   -1    0    0  501    0  0.00000000000E+00  0.00000000000E+00  0.13110311946E+04  0.13110311946E+04  0.25500000000E-02 0. -1.
         -2   -1    0    0    0  501 -0.00000000000E+00 -0.00000000000E+00 -0.15622166899E+04  0.15622166899E+04  0.25500000000E-02 0.  1.
    8880022    1    1    2    0    0 -0.12393583830E+04 -0.73728267895E+02 -0.82344664577E+03  0.14976318274E+04  0.15294330000E+03 0.  0.
    8880022    1    1    2    0    0  0.12393583830E+04  0.73728267895E+02  0.57226115055E+03  0.13756160571E+04  0.15294330000E+03 0.  0.
<mgrwt>
<rscale>  0 0.12509343E+04</rscale>
<asrwt>0</asrwt>
<pdfrwt beam="1">  1        2 0.20169711E+00 0.12509343E+04</pdfrwt>
<pdfrwt beam="2">  1       -2 0.24034103E+00 0.12509343E+04</pdfrwt>
<totfact> 0.11599917E+00</totfact>
</mgrwt>
</event>
<event>
 4    1  0.1726795E-008  0.1499482E+04  0.7818608E-02  0.8884797E-01
          2   -1    0    0  501    0  0.00000000000E+00  0.00000000000E+00  0.36396340937E+04  0.36396340937E+04  0.25500000000E-02 0. -1.
         -2   -1    0    0    0  501 -0.00000000000E+00 -0.00000000000E+00 -0.14907279791E+04  0.14907279791E+04  0.25500000000E-02 0.  1.
    8880022    1    1    2    0    0  0.13594654947E+04 -0.61392933360E+03  0.30374342296E+04  0.33873963467E+04  0.15294330000E+03 0.  1.
    8880022    1    1    2    0    0 -0.13594654947E+04  0.61392933360E+03 -0.88852811496E+03  0.17429657260E+04  0.15294330000E+03 0.  0.
<mgrwt>
<rscale>  0 0.14994823E+04</rscale>
<asrwt>0</asrwt>
<pdfrwt beam="1">  1        2 0.55994370E+00 0.14994823E+04</pdfrwt>
<pdfrwt beam="2">  1       -2 0.22934277E+00 0.14994823E+04</pdfrwt>
<totfact> 0.52907900E-02</totfact>
</mgrwt>
</event>
<event>
 4    1  0.1726795E-008  0.8447278E+03  0.7818608E-02  0.9497441E-01
          2   -1    0    0  501    0  0.00000000000E+00  0.00000000000E+00  0.22574554147E+04  0.22574554147E+04  0.25500000000E-02 0. -1.
         -2   -1    0    0    0  501 -0.00000000000E+00 -0.00000000000E+00 -0.49790775577E+03  0.49790775577E+03  0.25500000000E-02 0.  1.
    8880022    1    1    2    0    0  0.84192910828E+02  0.82648956061E+03  0.17122836669E+04  0.19093141306E+04  0.15294330000E+03 0.  0.
    8880022    1    1    2    0    0 -0.84192910828E+02 -0.82648956061E+03  0.47263992010E+02  0.84604903994E+03  0.15294330000E+03 0.  0.
<mgrwt>
<rscale>  0 0.84472782E+03</rscale>
<asrwt>0</asrwt>
<pdfrwt beam="1">  1        2 0.34730083E+00 0.84472782E+03</pdfrwt>
<pdfrwt beam="2">  1       -2 0.76601194E-01 0.84472782E+03</pdfrwt>
<totfact> 0.74997233E+00</totfact>
</mgrwt>
</event>
<event>
 4    1  0.1726795E-008  0.5185608E+03  0.7818608E-02  0.1009045E+00
         -2   -1    0    0    0  501 -0.00000000000E+00  0.00000000000E+00  0.10948898625E+04  0.10948898625E+04  0.25500000000E-02 0.  1.
          2   -1    0    0  501    0  0.00000000000E+00 -0.00000000000E+00 -0.16069907118E+04  0.16069907118E+04  0.25500000000E-02 0. -1.
    8880022    1    1    2    0    0  0.49039211802E+03  0.70917362589E+02  0.98737803305E+03  0.11152671137E+04  0.15294330000E+03 0.  0.
    8880022    1    1    2    0    0 -0.49039211802E+03 -0.70917362589E+02 -0.14994788824E+04  0.15866134606E+04  0.15294330000E+03 0.  0.
<mgrwt>
<rscale>  0 0.51856085E+03</rscale>
<asrwt>0</asrwt>
<pdfrwt beam="1">  1        2 0.24722934E+00 0.51856085E+03</pdfrwt>
<pdfrwt beam="2">  1       -2 0.16844459E+00 0.51856085E+03</pdfrwt>
<totfact> 0.26118117E+00</totfact>
</mgrwt>
</event>
<event>
 4    1  0.1726795E-008  0.1515279E+04  0.7818608E-02  0.8874356E-01
         -2   -1    0    0    0  501 -0.00000000000E+00  0.00000000000E+00  0.14871869361E+04  0.14871869361E+04  0.25500000000E-02 0.  1.
          2   -1    0    0  501    0  0.00000000000E+00 -0.00000000000E+00 -0.24033055618E+04  0.24033055618E+04  0.25500000000E-02 0. -1.
    8880022    1    1    2    0    0 -0.11709375320E+04  0.94951770024E+03  0.70517921589E+03  0.16713311899E+04  0.15294330000E+03 0.  0.
    8880022    1    1    2    0    0  0.11709375320E+04 -0.94951770024E+03 -0.16212978416E+04  0.22191613080E+04  0.15294330000E+03 0.  0.
<mgrwt>
<rscale>  0 0.15152789E+04</rscale>
<asrwt>0</asrwt>
<pdfrwt beam="1">  1        2 0.36973932E+00 0.15152789E+04</pdfrwt>
<pdfrwt beam="2">  1       -2 0.22879799E+00 0.15152789E+04</pdfrwt>
<totfact> 0.32240993E-01</totfact>
</mgrwt>
</event>
<event>
 4    1  0.1726795E-008  0.1487960E+04  0.7818608E-02  0.8892499E-01
         -2   -1    0    0    0  501 -0.00000000000E+00  0.00000000000E+00  0.77865080629E+03  0.77865080630E+03  0.25500000000E-02 0.  1.
          2   -1    0    0  501    0  0.00000000000E+00 -0.00000000000E+00 -0.31002545234E+04  0.31002545234E+04  0.25500000000E-02 0. -1.
    8880022    1    1    2    0    0 -0.14553715586E+04  0.26930641769E+03 -0.17190343863E+04  0.22735661843E+04  0.15294330000E+03 0.  0.
    8880022    1    1    2    0    0  0.14553715586E+04 -0.26930641769E+03 -0.60256933082E+03  0.16053391454E+04  0.15294330000E+03 0.  0.
<mgrwt>
<rscale>  0 0.14879597E+04</rscale>
<asrwt>0</asrwt>
<pdfrwt beam="1">  1        2 0.47696223E+00 0.14879597E+04</pdfrwt>
<pdfrwt beam="2">  1       -2 0.11979243E+00 0.14879597E+04</pdfrwt>
<totfact> 0.76600180E-01</totfact>
</mgrwt>
</event>
<event>
 4    1  0.1726795E-008  0.5544075E+03  0.7818608E-02  0.1000479E+00
         -2   -1    0    0    0  501 -0.00000000000E+00  0.00000000000E+00  0.61471357084E+03  0.61471357084E+03  0.25500000000E-02 0.  1.
          2   -1    0    0  501    0  0.00000000000E+00 -0.00000000000E+00 -0.28216865708E+04  0.28216865708E+04  0.25500000000E-02 0. -1.
    8880022    1    1    2    0    0  0.19920720512E+03 -0.49425954587E+03 -0.26620320041E+04  0.27191509802E+04  0.15294330000E+03 0.  0.
    8880022    1    1    2    0    0 -0.19920720512E+03  0.49425954587E+03  0.45505900417E+03  0.71724916141E+03  0.15294330000E+03 0.  1.
<mgrwt>
<rscale>  0 0.55440749E+03</rscale>
<asrwt>0</asrwt>
<pdfrwt beam="1">  1        2 0.43410562E+00 0.55440749E+03</pdfrwt>
<pdfrwt beam="2">  1       -2 0.94571320E-01 0.55440749E+03</pdfrwt>
<totfact> 0.23494853E+00</totfact>
</mgrwt>
</event>
<event>
 4    1  0.1726795E-008  0.2357979E+04  0.7818608E-02  0.8455405E-01
          2   -1    0    0  501    0  0.00000000000E+00  0.00000000000E+00  0.38453982152E+04  0.38453982152E+04  0.25500000000E-02 0. -1.
         -2   -1    0    0    0  501 -0.00000000000E+00 -0.00000000000E+00 -0.17500511845E+04  0.17500511845E+04  0.25500000000E-02 0.  1.
    8880022    1    1    2    0    0  0.21152312916E+04  0.10307628914E+04 -0.11866134663E+03  0.23609633041E+04  0.15294330000E+03 0.  0.
    8880022    1    1    2    0    0 -0.21152312916E+04 -0.10307628914E+04  0.22140083773E+04  0.32344860957E+04  0.15294330000E+03 0.  0.
<mgrwt>
<rscale>  0 0.23579795E+04</rscale>
<asrwt>0</asrwt>
<pdfrwt beam="1">  1        2 0.59159972E+00 0.23579795E+04</pdfrwt>
<pdfrwt beam="2">  1       -2 0.26923864E+00 0.23579795E+04</pdfrwt>
<totfact> 0.18973557E-02</totfact>
</mgrwt>
</event>
<event>
 4    1  0.1726795E-008  0.4953654E+03  0.7818608E-02  0.1014996E+00
          2   -1    0    0  501    0  0.00000000000E+00  0.00000000000E+00  0.61948847755E+03  0.61948847756E+03  0.25500000000E-02 0. -1.
         -2   -1    0    0    0  501 -0.00000000000E+00 -0.00000000000E+00 -0.20329229140E+04  0.20329229140E+04  0.25500000000E-02 0.  1.
    8880022    1    1    2    0    0 -0.26002142806E+03 -0.39291737898E+03  0.48329023145E+03  0.69206669519E+03  0.15294330000E+03 0.  0.
    8880022    1    1    2    0    0  0.26002142806E+03  0.39291737898E+03 -0.18967246679E+04  0.19603446964E+04  0.15294330000E+03 0.  0.
<mgrwt>
<rscale>  0 0.49536538E+03</rscale>
<asrwt>0</asrwt>
<pdfrwt beam="1">  1        2 0.95305921E-01 0.49536538E+03</pdfrwt>
<pdfrwt beam="2">  1       -2 0.31275737E+00 0.49536538E+03</pdfrwt>
<totfact> 0.13976219E+00</totfact>
</mgrwt>
</event>
<event>
 4    1  0.1726795E-008  0.5236739E+03  0.7818608E-02  0.1007778E+00
          2   -1    0    0  501    0  0.00000000000E+00  0.00000000000E+00  0.48890756920E+03  0.48890756920E+03  0.25500000000E-02 0. -1.
         -2   -1    0    0    0  501 -0.00000000000E+00 -0.00000000000E+00 -0.11844615120E+04  0.11844615120E+04  0.25500000000E-02 0.  1.
    8880022    1    1    2    0    0  0.98059678770E+02  0.49114864429E+03 -0.95484391033E+03  0.10890184744E+04  0.15294330000E+03 0.  0.
    8880022    1    1    2    0    0 -0.98059678770E+02 -0.49114864429E+03  0.25928996756E+03  0.58435060681E+03  0.15294330000E+03 0.  0.
<mgrwt>
<rscale>  0 0.52367389E+03</rscale>
<asrwt>0</asrwt>
<pdfrwt beam="1">  1        2 0.75216550E-01 0.52367389E+03</pdfrwt>
<pdfrwt beam="2">  1       -2 0.18222485E+00 0.52367389E+03</pdfrwt>
<totfact> 0.11561907E+01</totfact>
</mgrwt>
</event>
<event>
 4    1  0.2918948E-008  0.9394917E+03  0.7818608E-02  0.9377518E-01
         -2   -1    0    0    0  501 -0.00000000000E+00  0.00000000000E+00  0.16717186476E+04  0.16717186476E+04  0.25500000000E-02 0.  1.
          2   -1    0    0  501    0  0.00000000000E+00 -0.00000000000E+00 -0.21727491924E+04  0.21727491924E+04  0.25500000000E-02 0. -1.
    8880022    1    1    2    0    0 -0.92582481948E+03 -0.45840136885E+02  0.14219345077E+04  0.17042717834E+04  0.15294330000E+03 0.  0.
    8880022    1    1    2    0    0  0.92582481948E+03  0.45840136885E+02 -0.19229650524E+04  0.21401960566E+04  0.15294330000E+03 0.  0.
<mgrwt>
<rscale>  0 0.93949165E+03</rscale>
<asrwt>0</asrwt>
<pdfrwt beam="1">  1        2 0.33426911E+00 0.93949165E+03</pdfrwt>
<pdfrwt beam="2">  1       -2 0.25718748E+00 0.93949165E+03</pdfrwt>
<totfact> 0.31612479E-01</totfact>
</mgrwt>
</event>
<event>
 4    1  0.1726795E-008  0.7643279E+03  0.7818608E-02  0.9613136E-01
          2   -1    0    0  501    0  0.00000000000E+00  0.00000000000E+00  0.96318178611E+03  0.96318178611E+03  0.25500000000E-02 0. -1.
         -2   -1    0    0    0  501 -0.00000000000E+00 -0.00000000000E+00 -0.80031321674E+03  0.80031321674E+03  0.25500000000E-02 0.  1.
    8880022    1    1    2    0    0  0.56919320291E+02 -0.74670319046E+03 -0.35245018550E+03  0.84167585800E+03  0.15294330000E+03 0.  0.
    8880022    1    1    2    0    0 -0.56919320291E+02  0.74670319046E+03  0.51531875487E+03  0.92181914485E+03  0.15294330000E+03 0.  0.
<mgrwt>
<rscale>  0 0.76432789E+03</rscale>
<asrwt>0</asrwt>
<pdfrwt beam="1">  1        2 0.14818181E+00 0.76432789E+03</pdfrwt>
<pdfrwt beam="2">  1       -2 0.12312511E+00 0.76432789E+03</pdfrwt>
<totfact> 0.13452255E+01</totfact>
</mgrwt>
</event>
<event>
 4    1  0.1726795E-008  0.6565789E+03  0.7818608E-02  0.9794512E-01
         -2   -1    0    0    0  501 -0.00000000000E+00  0.00000000000E+00  0.45554853875E+03  0.45554853876E+03  0.25500000000E-02 0.  1.
          2   -1    0    0  501    0  0.00000000000E+00 -0.00000000000E+00 -0.16736515099E+04  0.16736515099E+04  0.25500000000E-02 0. -1.
    8880022    1    1    2    0    0 -0.26964853776E+03  0.57878649689E+03 -0.13108612940E+04  0.14661013362E+04  0.15294330000E+03 0.  0.
    8880022    1    1    2    0    0  0.26964853776E+03 -0.57878649689E+03  0.92758322909E+02  0.66309871240E+03  0.15294330000E+03 0.  0.
<mgrwt>
<rscale>  0 0.65657886E+03</rscale>
<asrwt>0</asrwt>
<pdfrwt beam="1">  1        2 0.25748484E+00 0.65657886E+03</pdfrwt>
<pdfrwt beam="2">  1       -2 0.70084391E-01 0.65657886E+03</pdfrwt>
<totfact> 0.19571081E+01</totfact>
</mgrwt>
</event>
<event>
 4    1  0.1726795E-008  0.6158346E+03  0.7818608E-02  0.9873088E-01
          2   -1    0    0  501    0  0.00000000000E+00  0.00000000000E+00  0.16973916984E+04  0.16973916984E+04  0.25500000000E-02 0. -1.
         -2   -1    0    0    0  501 -0.00000000000E+00 -0.00000000000E+00 -0.32850351190E+03  0.32850351191E+03  0.25500000000E-02 0.  1.
    8880022    1    1    2    0    0  0.95694642567E+02 -0.58881503994E+03  0.11157066769E+03  0.62585963505E+03  0.15294330000E+03 0.  0.
    8880022    1    1    2    0    0 -0.95694642567E+02  0.58881503994E+03  0.12573175188E+04  0.14000355753E+04  0.15294330000E+03 0.  0.
<mgrwt>
<rscale>  0 0.61583461E+03</rscale>
<asrwt>0</asrwt>
<pdfrwt beam="1">  1        2 0.26113719E+00 0.61583461E+03</pdfrwt>
<pdfrwt beam="2">  1       -2 0.50539001E-01 0.61583461E+03</pdfrwt>
<totfact> 0.38026322E+01</totfact>
</mgrwt>
</event>
<event>
 4    1  0.1726795E-008  0.4875340E+03  0.7818608E-02  0.1017085E+00
         -2   -1    0    0    0  501 -0.00000000000E+00  0.00000000000E+00  0.27560738540E+03  0.27560738541E+03  0.25500000000E-02 0.  1.
          2   -1    0    0  501    0  0.00000000000E+00 -0.00000000000E+00 -0.16211215713E+04  0.16211215714E+04  0.25500000000E-02 0. -1.
    8880022    1    1    2    0    0  0.43443165170E+03  0.15989639465E+03 -0.13215452709E+04  0.14086061454E+04  0.15294330000E+03 0.  0.
    8880022    1    1    2    0    0 -0.43443165170E+03 -0.15989639465E+03 -0.23968915080E+02  0.48812281132E+03  0.15294330000E+03 0.  0.
<mgrwt>
<rscale>  0 0.48753397E+03</rscale>
<asrwt>0</asrwt>
<pdfrwt beam="1">  1        2 0.24940331E+00 0.48753397E+03</pdfrwt>
<pdfrwt beam="2">  1       -2 0.42401137E-01 0.48753397E+03</pdfrwt>
<totfact> 0.60552242E+01</totfact>
</mgrwt>
</event>
<event>
 4    1  0.1726795E-008  0.2386269E+03  0.7818608E-02  0.1120711E+00
          2   -1    0    0  501    0  0.00000000000E+00  0.00000000000E+00  0.10654694837E+04  0.10654694837E+04  0.25500000000E-02 0. -1.
         -2   -1    0    0    0  501 -0.00000000000E+00 -0.00000000000E+00 -0.53187660398E+03  0.53187660399E+03  0.25500000000E-02 0.  1.
    8880022    1    1    2    0    0 -0.12480204743E+03 -0.13407302972E+03 -0.49068856416E+03  0.54563545372E+03  0.15294330000E+03 0.  1.
    8880022    1    1    2    0    0  0.12480204743E+03  0.13407302972E+03  0.10242814439E+04  0.10517106340E+04  0.15294330000E+03 0.  0.
<mgrwt>
<rscale>  0 0.23862687E+03</rscale>
<asrwt>0</asrwt>
<pdfrwt beam="1">  1        2 0.16391838E+00 0.23862687E+03</pdfrwt>
<pdfrwt beam="2">  1       -2 0.81827170E-01 0.23862687E+03</pdfrwt>
<totfact> 0.33292913E+01</totfact>
</mgrwt>
</event>
<event>
 4    1  0.1726795E-008  0.1851660E+04  0.7818608E-02  0.8679300E-01
          2   -1    0    0  501    0  0.00000000000E+00  0.00000000000E+00  0.28453513805E+04  0.28453513805E+04  0.25500000000E-02 0. -1.
         -2   -1    0    0    0  501 -0.00000000000E+00 -0.00000000000E+00 -0.18867731797E+04  0.18867731797E+04  0.25500000000E-02 0.  1.
    8880022    1    1    2    0    0  0.15901946028E+04  0.93623319051E+03  0.19015749013E+04  0.26541722288E+04  0.15294330000E+03 0.  0.
    8880022    1    1    2    0    0 -0.15901946028E+04 -0.93623319051E+03 -0.94299670049E+03  0.20779523315E+04  0.15294330000E+03 0.  0.
<mgrwt>
<rscale>  0 0.18516596E+04</rscale>
<asrwt>0</asrwt>
<pdfrwt beam="1">  1        2 0.43774637E+00 0.18516596E+04</pdfrwt>
<pdfrwt beam="2">  1       -2 0.29027280E+00 0.18516596E+04</pdfrwt>
<totfact> 0.71157104E-02</totfact>
</mgrwt>
</event>
<event>
 4    1  0.1726795E-008  0.9802902E+03  0.7818608E-02  0.9330430E-01
         -2   -1    0    0    0  501 -0.00000000000E+00  0.00000000000E+00  0.77763625362E+03  0.77763625362E+03  0.25500000000E-02 0.  1.
          2   -1    0    0  501    0  0.00000000000E+00 -0.00000000000E+00 -0.21533835217E+04  0.21533835217E+04  0.25500000000E-02 0. -1.
    8880022    1    1    2    0    0  0.96651393783E+03 -0.58549455467E+02 -0.16445415504E+04  0.19145458456E+04  0.15294330000E+03 0.  0.
    8880022    1    1    2    0    0 -0.96651393783E+03  0.58549455467E+02  0.26879428227E+03  0.10164739298E+04  0.15294330000E+03 0.  0.
<mgrwt>
<rscale>  0 0.98029020E+03</rscale>
<asrwt>0</asrwt>
<pdfrwt beam="1">  1        2 0.33128977E+00 0.98029020E+03</pdfrwt>
<pdfrwt beam="2">  1       -2 0.11963635E+00 0.98029020E+03</pdfrwt>
<totfact> 0.29459802E+00</totfact>
</mgrwt>
</event>
<event>
 4    1  0.1726795E-008  0.6752924E+03  0.7818608E-02  0.9760444E-01
          2   -1    0    0  501    0  0.00000000000E+00  0.00000000000E+00  0.73108929358E+03  0.73108929358E+03  0.25500000000E-02 0. -1.
         -2   -1    0    0    0  501 -0.00000000000E+00 -0.00000000000E+00 -0.73222472139E+03  0.73222472140E+03  0.25500000000E-02 0.  1.
    8880022    1    1    2    0    0  0.10637369412E+03 -0.64908614501E+03  0.28103815000E+03  0.73143850133E+03  0.15294330000E+03 0.  0.
    8880022    1    1    2    0    0 -0.10637369412E+03  0.64908614501E+03 -0.28217357782E+03  0.73187551365E+03  0.15294330000E+03 0.  0.
<mgrwt>
<rscale>  0 0.67529241E+03</rscale>
<asrwt>0</asrwt>
<pdfrwt beam="1">  1        2 0.11247528E+00 0.67529241E+03</pdfrwt>
<pdfrwt beam="2">  1       -2 0.11264996E+00 0.67529241E+03</pdfrwt>
<totfact> 0.24542303E+01</totfact>
</mgrwt>
</event>
<event>
 4    1  0.1726795E-008  0.8796484E+03  0.7818608E-02  0.9451386E-01
          2   -1    0    0  501    0  0.00000000000E+00  0.00000000000E+00  0.74309515312E+03  0.74309515313E+03  0.25500000000E-02 0. -1.
         -2   -1    0    0    0  501 -0.00000000000E+00 -0.00000000000E+00 -0.13894642293E+04  0.13894642293E+04  0.25500000000E-02 0.  1.
    8880022    1    1    2    0    0  0.54229760395E+03 -0.67550198133E+03  0.21057130492E+03  0.90450071614E+03  0.15294330000E+03 0. -1.
    8880022    1    1    2    0    0 -0.54229760395E+03  0.67550198133E+03 -0.85694038107E+03  0.12280586663E+04  0.15294330000E+03 0.  0.
<mgrwt>
<rscale>  0 0.87964838E+03</rscale>
<asrwt>0</asrwt>
<pdfrwt beam="1">  1        2 0.11432233E+00 0.87964838E+03</pdfrwt>
<pdfrwt beam="2">  1       -2 0.21376373E+00 0.87964838E+03</pdfrwt>
<totfact> 0.41398922E+00</totfact>
</mgrwt>
</event>
<event>
 4    1  0.1726795E-008  0.8726871E+03  0.7818608E-02  0.9460383E-01
          2   -1    0    0  501    0  0.00000000000E+00  0.00000000000E+00  0.13766871270E+04  0.13766871270E+04  0.25500000000E-02 0. -1.
         -2   -1    0    0    0  501 -0.00000000000E+00 -0.00000000000E+00 -0.12047195988E+04  0.12047195988E+04  0.25500000000E-02 0.  1.
    8880022    1    1    2    0    0 -0.18228729346E+03 -0.83962047704E+03 -0.86319345896E+03  0.12274713045E+04  0.15294330000E+03 0.  0.
    8880022    1    1    2    0    0  0.18228729346E+03  0.83962047704E+03  0.10351609871E+04  0.13539354213E+04  0.15294330000E+03 0.  0.
<mgrwt>
<rscale>  0 0.87268715E+03</rscale>
<asrwt>0</asrwt>
<pdfrwt beam="1">  1        2 0.21179802E+00 0.87268715E+03</pdfrwt>
<pdfrwt beam="2">  1       -2 0.18534148E+00 0.87268715E+03</pdfrwt>
<totfact> 0.25091572E+00</totfact>
</mgrwt>
</event>
<event>
 4    1  0.1726795E-008  0.1533456E+04  0.7818608E-02  0.8862505E-01
         -2   -1    0    0    0  501 -0.00000000000E+00  0.00000000000E+00  0.21227840180E+04  0.21227840180E+04  0.25500000000E-02 0.  1.
          2   -1    0    0  501    0  0.00000000000E+00 -0.00000000000E+00 -0.17740597642E+04  0.17740597642E+04  0.25500000000E-02 0. -1.
    8880022    1    1    2    0    0 -0.11824651207E+04 -0.96429930485E+03  0.13684625999E+04  0.20552806260E+04  0.15294330000E+03 0.  0.
    8880022    1    1    2    0    0  0.11824651207E+04  0.96429930485E+03 -0.10197383461E+04  0.18415631563E+04  0.15294330000E+03 0.  0.
<mgrwt>
<rscale>  0 0.15334564E+04</rscale>
<asrwt>0</asrwt>
<pdfrwt beam="1">  1        2 0.27293227E+00 0.15334564E+04</pdfrwt>
<pdfrwt beam="2">  1       -2 0.32658215E+00 0.15334564E+04</pdfrwt>
<totfact> 0.18195805E-01</totfact>
</mgrwt>
</event>
<event>
 4    1  0.1726795E-008  0.1514123E+04  0.7818608E-02  0.8875115E-01
          2   -1    0    0  501    0  0.00000000000E+00  0.00000000000E+00  0.17327171613E+04  0.17327171613E+04  0.25500000000E-02 0. -1.
         -2   -1    0    0    0  501 -0.00000000000E+00 -0.00000000000E+00 -0.19810429778E+04  0.19810429778E+04  0.25500000000E-02 0.  1.
    8880022    1    1    2    0    0  0.29475786544E+03 -0.14772596054E+04  0.94594802721E+03  0.17853255905E+04  0.15294330000E+03 0.  0.
    8880022    1    1    2    0    0 -0.29475786544E+03  0.14772596054E+04 -0.11942738437E+04  0.19284345485E+04  0.15294330000E+03 0.  0.
<mgrwt>
<rscale>  0 0.15141234E+04</rscale>
<asrwt>0</asrwt>
<pdfrwt beam="1">  1        2 0.26657187E+00 0.15141234E+04</pdfrwt>
<pdfrwt beam="2">  1       -2 0.30477584E+00 0.15141234E+04</pdfrwt>
<totfact> 0.26200891E-01</totfact>
</mgrwt>
</event>
<event>
 4    1  0.1726795E-008  0.2283599E+03  0.7818608E-02  0.1127799E+00
         -2   -1    0    0    0  501 -0.00000000000E+00  0.00000000000E+00  0.52699048055E+02  0.52699048116E+02  0.25500000000E-02 0.  1.
          2   -1    0    0  501    0  0.00000000000E+00 -0.00000000000E+00 -0.40619943608E+04  0.40619943608E+04  0.25500000000E-02 0. -1.
    8880022    1    1    2    0    0 -0.10227751468E+03  0.13526233565E+03 -0.37939345283E+04  0.38008008956E+04  0.15294330000E+03 0.  0.
    8880022    1    1    2    0    0  0.10227751468E+03 -0.13526233565E+03 -0.21536078440E+03  0.31389251333E+03  0.15294330000E+03 0.  0.
<mgrwt>
<rscale>  0 0.22835990E+03</rscale>
<asrwt>0</asrwt>
<pdfrwt beam="1">  1        2 0.62492196E+00 0.22835990E+03</pdfrwt>
<pdfrwt beam="2">  1       -2 0.81075491E-02 0.22835990E+03</pdfrwt>
<totfact> 0.38038607E+01</totfact>
</mgrwt>
</event>
<event>
 4    1  0.1726795E-008  0.2265027E+03  0.7818608E-02  0.1129126E+00
          2   -1    0    0  501    0  0.00000000000E+00  0.00000000000E+00  0.12681004767E+04  0.12681004767E+04  0.25500000000E-02 0. -1.
         -2   -1    0    0    0  501 -0.00000000000E+00 -0.00000000000E+00 -0.18689692908E+03  0.18689692910E+03  0.25500000000E-02 0.  1.
    8880022    1    1    2    0    0  0.76326260012E+02  0.14861399304E+03  0.11845648683E+04  0.12060254546E+04  0.15294330000E+03 0. -1.
    8880022    1    1    2    0    0 -0.76326260012E+02 -0.14861399304E+03 -0.10336132063E+03  0.24897195126E+03  0.15294330000E+03 0.  0.
<mgrwt>
<rscale>  0 0.22650269E+03</rscale>
<asrwt>0</asrwt>
<pdfrwt beam="1">  1        2 0.19509237E+00 0.22650269E+03</pdfrwt>
<pdfrwt beam="2">  1       -2 0.28753375E-01 0.22650269E+03</pdfrwt>
<totfact> 0.20574896E+02</totfact>
</mgrwt>
</event>
<event>
 4    1  0.1726795E-008  0.1320380E+04  0.7818608E-02  0.9013558E-01
         -2   -1    0    0    0  501 -0.00000000000E+00  0.00000000000E+00  0.18755867011E+04  0.18755867011E+04  0.25500000000E-02 0.  1.
          2   -1    0    0  501    0  0.00000000000E+00 -0.00000000000E+00 -0.12760314397E+04  0.12760314397E+04  0.25500000000E-02 0. -1.
    8880022    1    1    2    0    0  0.11025888298E+04 -0.71014848663E+03  0.11209391480E+04  0.17320246036E+04  0.15294330000E+03 0.  0.
    8880022    1    1    2    0    0 -0.11025888298E+04  0.71014848663E+03 -0.52138388661E+03  0.14195935372E+04  0.15294330000E+03 0.  0.
<mgrwt>
<rscale>  0 0.13203805E+04</rscale>
<asrwt>0</asrwt>
<pdfrwt beam="1">  1        2 0.19631253E+00 0.13203805E+04</pdfrwt>
<pdfrwt beam="2">  1       -2 0.28855180E+00 0.13203805E+04</pdfrwt>
<totfact> 0.61294943E-01</totfact>
</mgrwt>
</event>
<event>
 4    1  0.1726795E-008  0.1082127E+04  0.7818608E-02  0.9222789E-01
          2   -1    0    0  501    0  0.00000000000E+00  0.00000000000E+00  0.19796117261E+04  0.19796117261E+04  0.25500000000E-02 0. -1.
         -2   -1    0    0    0  501 -0.00000000000E+00 -0.00000000000E+00 -0.79028275564E+03  0.79028275564E+03  0.25500000000E-02 0.  1.
    8880022    1    1    2    0    0 -0.10168809062E+04  0.33698750395E+03  0.12892071856E+04  0.16831678988E+04  0.15294330000E+03 0.  0.
    8880022    1    1    2    0    0  0.10168809062E+04 -0.33698750395E+03 -0.99878215091E+02  0.10867265830E+04  0.15294330000E+03 0.  0.
<mgrwt>
<rscale>  0 0.10821271E+04</rscale>
<asrwt>0</asrwt>
<pdfrwt beam="1">  1        2 0.30455565E+00 0.10821271E+04</pdfrwt>
<pdfrwt beam="2">  1       -2 0.12158196E+00 0.10821271E+04</pdfrwt>
<totfact> 0.34850817E+00</totfact>
</mgrwt>
</event>
<event>
 4    1  0.1726795E-008  0.1669500E+04  0.7818608E-02  0.8778953E-01
          2   -1    0    0  501    0  0.00000000000E+00  0.00000000000E+00  0.19106418106E+04  0.19106418106E+04  0.25500000000E-02 0. -1.
         -2   -1    0    0    0  501 -0.00000000000E+00 -0.00000000000E+00 -0.29079766920E+04  0.29079766920E+04  0.25500000000E-02 0.  1.
    8880022    1    1    2    0    0 -0.75384738877E+03  0.14817402074E+04 -0.21994890038E+04  0.27613372591E+04  0.15294330000E+03 0.  0.
    8880022    1    1    2    0    0  0.75384738877E+03 -0.14817402074E+04  0.12021541224E+04  0.20572812435E+04  0.15294330000E+03 0.  0.
<mgrwt>
<rscale>  0 0.16695004E+04</rscale>
<asrwt>0</asrwt>
<pdfrwt beam="1">  1        2 0.29394489E+00 0.16695004E+04</pdfrwt>
<pdfrwt beam="2">  1       -2 0.44738103E+00 0.16695004E+04</pdfrwt>
<totfact> 0.24826663E-02</totfact>
</mgrwt>
</event>
<event>
 4    1  0.1726795E-008  0.2074588E+04  0.7818608E-02  0.8572521E-01
          2   -1    0    0  501    0  0.00000000000E+00  0.00000000000E+00  0.33110347541E+04  0.33110347541E+04  0.25500000000E-02 0. -1.
         -2   -1    0    0    0  501 -0.00000000000E+00 -0.00000000000E+00 -0.16672891175E+04  0.16672891175E+04  0.25500000000E-02 0.  1.
    8880022    1    1    2    0    0 -0.16700863725E+04  0.12212018712E+04  0.19903727026E+04  0.28749778521E+04  0.15294330000E+03 0.  0.
    8880022    1    1    2    0    0  0.16700863725E+04 -0.12212018712E+04 -0.34662706603E+03  0.21033460195E+04  0.15294330000E+03 0.  0.
<mgrwt>
<rscale>  0 0.20745877E+04</rscale>
<asrwt>0</asrwt>
<pdfrwt beam="1">  1        2 0.50938995E+00 0.20745877E+04</pdfrwt>
<pdfrwt beam="2">  1       -2 0.25650602E+00 0.20745877E+04</pdfrwt>
<totfact> 0.56521888E-02</totfact>
</mgrwt>
</event>
<event>
 4    1  0.1726795E-008  0.1585454E+04  0.7818608E-02  0.8829534E-01
         -2   -1    0    0    0  501 -0.00000000000E+00  0.00000000000E+00  0.18491747072E+04  0.18491747072E+04  0.25500000000E-02 0.  1.
          2   -1    0    0  501    0  0.00000000000E+00 -0.00000000000E+00 -0.16483792810E+04  0.16483792810E+04  0.25500000000E-02 0. -1.
    8880022    1    1    2    0    0  0.11805543613E+04 -0.10471700880E+04  0.83268403102E+03  0.17908177299E+04  0.15294330000E+03 0.  0.
    8880022    1    1    2    0    0 -0.11805543613E+04  0.10471700880E+04 -0.63188860483E+03  0.17067362582E+04  0.15294330000E+03 0.  0.
<mgrwt>
<rscale>  0 0.15854543E+04</rscale>
<asrwt>0</asrwt>
<pdfrwt beam="1">  1        2 0.25359681E+00 0.15854543E+04</pdfrwt>
<pdfrwt beam="2">  1       -2 0.28448841E+00 0.15854543E+04</pdfrwt>
<totfact> 0.38573209E-01</totfact>
</mgrwt>
</event>
<event>
 4    1  0.1726795E-008  0.5362452E+03  0.7818608E-02  0.1004729E+00
         -2   -1    0    0    0  501 -0.00000000000E+00  0.00000000000E+00  0.35177849746E+03  0.35177849747E+03  0.25500000000E-02 0.  1.
          2   -1    0    0  501    0  0.00000000000E+00 -0.00000000000E+00 -0.32219367762E+04  0.32219367762E+04  0.25500000000E-02 0. -1.
    8880022    1    1    2    0    0 -0.44211478521E+02 -0.51206699994E+03  0.10855104204E+03  0.54712178626E+03  0.15294330000E+03 0.  0.
    8880022    1    1    2    0    0  0.44211478521E+02  0.51206699994E+03 -0.29787093207E+04  0.30265934874E+04  0.15294330000E+03 0. -1.
<mgrwt>
<rscale>  0 0.53624521E+03</rscale>
<asrwt>0</asrwt>
<pdfrwt beam="1">  1        2 0.49568256E+00 0.53624521E+03</pdfrwt>
<pdfrwt beam="2">  1       -2 0.54119771E-01 0.53624521E+03</pdfrwt>
<totfact> 0.45618364E+00</totfact>
</mgrwt>
</event>
<event>
 4    1  0.1726795E-008  0.1400048E+04  0.7818608E-02  0.8953783E-01
         -2   -1    0    0    0  501 -0.00000000000E+00  0.00000000000E+00  0.25962126115E+04  0.25962126115E+04  0.25500000000E-02 0.  1.
          2   -1    0    0  501    0  0.00000000000E+00 -0.00000000000E+00 -0.12500838863E+04  0.12500838863E+04  0.25500000000E-02 0. -1.
    8880022    1    1    2    0    0 -0.36606143996E+03  0.13426626445E+04 -0.53720882242E+03  0.14995762490E+04  0.15294330000E+03 0.  0.
    8880022    1    1    2    0    0  0.36606143996E+03 -0.13426626445E+04  0.18833375476E+04  0.23467202487E+04  0.15294330000E+03 0.  0.
<mgrwt>
<rscale>  0 0.14000484E+04</rscale>
<asrwt>0</asrwt>
<pdfrwt beam="1">  1        2 0.19232060E+00 0.14000484E+04</pdfrwt>
<pdfrwt beam="2">  1       -2 0.39941732E+00 0.14000484E+04</pdfrwt>
<totfact> 0.12678012E-01</totfact>
</mgrwt>
</event>
<event>
 4    1  0.1726795E-008  0.1301936E+04  0.7818608E-02  0.9028031E-01
         -2   -1    0    0    0  501 -0.00000000000E+00  0.00000000000E+00  0.12638868386E+04  0.12638868386E+04  0.25500000000E-02 0.  1.
          2   -1    0    0  501    0  0.00000000000E+00 -0.00000000000E+00 -0.14255412795E+04  0.14255412795E+04  0.25500000000E-02 0. -1.
    8880022    1    1    2    0    0 -0.11656727081E+04 -0.55933266395E+03 -0.40804604195E+03  0.13643823206E+04  0.15294330000E+03 0.  0.
    8880022    1    1    2    0    0  0.11656727081E+04  0.55933266395E+03  0.24639160101E+03  0.13250457975E+04  0.15294330000E+03 0.  0.
<mgrwt>
<rscale>  0 0.13019361E+04</rscale>
<asrwt>0</asrwt>
<pdfrwt beam="1">  1        2 0.21931404E+00 0.13019361E+04</pdfrwt>
<pdfrwt beam="2">  1       -2 0.19444413E+00 0.13019361E+04</pdfrwt>
<totfact> 0.19449210E+00</totfact>
</mgrwt>
</event>
<event>
 4    1  0.1726795E-008  0.6036470E+03  0.7818608E-02  0.9897868E-01
         -2   -1    0    0    0  501 -0.00000000000E+00  0.00000000000E+00  0.73241896006E+03  0.73241896006E+03  0.25500000000E-02 0.  1.
          2   -1    0    0  501    0  0.00000000000E+00 -0.00000000000E+00 -0.82542600879E+03  0.82542600879E+03  0.25500000000E-02 0. -1.
    8880022    1    1    2    0    0 -0.58367960747E+03 -0.17781285933E+02  0.44444154202E+03  0.74961189664E+03  0.15294330000E+03 0.  0.
    8880022    1    1    2    0    0  0.58367960747E+03  0.17781285933E+02 -0.53744859075E+03  0.80823307221E+03  0.15294330000E+03 0.  0.
<mgrwt>
<rscale>  0 0.60364701E+03</rscale>
<asrwt>0</asrwt>
<pdfrwt beam="1">  1        2 0.12698862E+00 0.60364701E+03</pdfrwt>
<pdfrwt beam="2">  1       -2 0.11267984E+00 0.60364701E+03</pdfrwt>
<totfact> 0.21103301E+01</totfact>
</mgrwt>
</event>
<event>
 4    1  0.1726795E-008  0.3491485E+03  0.7818608E-02  0.1062965E+00
          2   -1    0    0  501    0  0.00000000000E+00  0.00000000000E+00  0.19606169153E+04  0.19606169153E+04  0.25500000000E-02 0. -1.
         -2   -1    0    0    0  501 -0.00000000000E+00 -0.00000000000E+00 -0.36790714105E+03  0.36790714106E+03  0.25500000000E-02 0.  1.
    8880022    1    1    2    0    0  0.23519296792E+03  0.20783961512E+03  0.18576861709E+04  0.18902123162E+04  0.15294330000E+03 0.  0.
    8880022    1    1    2    0    0 -0.23519296792E+03 -0.20783961512E+03 -0.26497639665E+03  0.43831174016E+03  0.15294330000E+03 0.  1.
<mgrwt>
<rscale>  0 0.34914852E+03</rscale>
<asrwt>0</asrwt>
<pdfrwt beam="1">  1        2 0.30163338E+00 0.34914852E+03</pdfrwt>
<pdfrwt beam="2">  1       -2 0.56601097E-01 0.34914852E+03</pdfrwt>
<totfact> 0.23005276E+01</totfact>
</mgrwt>
</event>
<event>
 4    1  0.1726795E-008  0.1087536E+04  0.7818608E-02  0.9217426E-01
          2   -1    0    0  501    0  0.00000000000E+00  0.00000000000E+00  0.31547852244E+04  0.31547852244E+04  0.25500000000E-02 0. -1.
         -2   -1    0    0    0  501 -0.00000000000E+00 -0.00000000000E+00 -0.13569223994E+04  0.13569223994E+04  0.25500000000E-02 0.  1.
    8880022    1    1    2    0    0  0.47192728915E+03  0.96779516976E+03 -0.10201515766E+04  0.14911216413E+04  0.15294330000E+03 0.  0.
    8880022    1    1    2    0    0 -0.47192728915E+03 -0.96779516976E+03  0.28180144016E+04  0.30205859825E+04  0.15294330000E+03 0.  0.
<mgrwt>
<rscale>  0 0.10875360E+04</rscale>
<asrwt>0</asrwt>
<pdfrwt beam="1">  1        2 0.48535157E+00 0.10875360E+04</pdfrwt>
<pdfrwt beam="2">  1       -2 0.20875729E+00 0.10875360E+04</pdfrwt>
<totfact> 0.16267871E-01</totfact>
</mgrwt>
</event>
<event>
 4    1  0.1726795E-008  0.1506768E+04  0.7818608E-02  0.8879965E-01
          2   -1    0    0  501    0  0.00000000000E+00  0.00000000000E+00  0.22153022013E+04  0.22153022013E+04  0.25500000000E-02 0. -1.
         -2   -1    0    0    0  501 -0.00000000000E+00 -0.00000000000E+00 -0.20715042151E+04  0.20715042151E+04  0.25500000000E-02 0.  1.
    8880022    1    1    2    0    0 -0.14082060182E+04 -0.51372524597E+03  0.15954705598E+04  0.21945103732E+04  0.15294330000E+03 0.  0.
    8880022    1    1    2    0    0  0.14082060182E+04  0.51372524597E+03 -0.14516725736E+04  0.20922960431E+04  0.15294330000E+03 0.  0.
<mgrwt>
<rscale>  0 0.15067679E+04</rscale>
<asrwt>0</asrwt>
<pdfrwt beam="1">  1        2 0.34081572E+00 0.15067679E+04</pdfrwt>
<pdfrwt beam="2">  1       -2 0.31869296E+00 0.15067679E+04</pdfrwt>
<totfact> 0.11575528E-01</totfact>
</mgrwt>
</event>
<event>
 4    1  0.1726795E-008  0.5016507E+03  0.7818608E-02  0.1013349E+00
          2   -1    0    0  501    0  0.00000000000E+00  0.00000000000E+00  0.10421203591E+04  0.10421203591E+04  0.25500000000E-02 0. -1.
         -2   -1    0    0    0  501 -0.00000000000E+00 -0.00000000000E+00 -0.72498436740E+03  0.72498436740E+03  0.25500000000E-02 0.  1.
    8880022    1    1    2    0    0 -0.39598952067E+03  0.26730885589E+03 -0.56298335537E+03  0.75405811206E+03  0.15294330000E+03 0.  0.
    8880022    1    1    2    0    0  0.39598952067E+03 -0.26730885589E+03  0.88011934704E+03  0.10130466144E+04  0.15294330000E+03 0.  0.
<mgrwt>
<rscale>  0 0.50165065E+03</rscale>
<asrwt>0</asrwt>
<pdfrwt beam="1">  1        2 0.16032621E+00 0.50165065E+03</pdfrwt>
<pdfrwt beam="2">  1       -2 0.11153606E+00 0.50165065E+03</pdfrwt>
<totfact> 0.15828272E+01</totfact>
</mgrwt>
</event>
<event>
 4    1  0.1726795E-008  0.5300877E+03  0.7818608E-02  0.1006211E+00
          2   -1    0    0  501    0  0.00000000000E+00  0.00000000000E+00  0.18848216046E+04  0.18848216046E+04  0.25500000000E-02 0. -1.
         -2   -1    0    0    0  501 -0.00000000000E+00 -0.00000000000E+00 -0.37661764194E+03  0.37661764194E+03  0.25500000000E-02 0.  1.
    8880022    1    1    2    0    0  0.45954398390E+03 -0.21545458977E+03 -0.12477745066E+03  0.54457544803E+03  0.15294330000E+03 0.  0.
    8880022    1    1    2    0    0 -0.45954398390E+03  0.21545458977E+03  0.16329814134E+04  0.17168637985E+04  0.15294330000E+03 0.  0.
<mgrwt>
<rscale>  0 0.53008773E+03</rscale>
<asrwt>0</asrwt>
<pdfrwt beam="1">  1        2 0.28997255E+00 0.53008773E+03</pdfrwt>
<pdfrwt beam="2">  1       -2 0.57941176E-01 0.53008773E+03</pdfrwt>
<totfact> 0.23047326E+01</totfact>
</mgrwt>
</event>
<event>
 4    1  0.1726795E-008  0.2934840E+03  0.7818608E-02  0.1088544E+00
          2   -1    0    0  501    0  0.00000000000E+00  0.00000000000E+00  0.15479014867E+04  0.15479014867E+04  0.25500000000E-02 0. -1.
         -2   -1    0    0    0  501 -0.00000000000E+00 -0.00000000000E+00 -0.23927323315E+03  0.23927323316E+03  0.25500000000E-02 0.  1.
    8880022    1    1    2    0    0  0.50022461691E+02  0.24543624552E+03  0.14371302886E+04  0.14667911633E+04  0.15294330000E+03 0.  0.
    8880022    1    1    2    0    0 -0.50022461691E+02 -0.24543624552E+03 -0.12850203505E+03  0.32038355656E+03  0.15294330000E+03 0.  0.
<mgrwt>
<rscale>  0 0.29348399E+03</rscale>
<asrwt>0</asrwt>
<pdfrwt beam="1">  1        2 0.23813870E+00 0.29348399E+03</pdfrwt>
<pdfrwt beam="2">  1       -2 0.36811266E-01 0.29348399E+03</pdfrwt>
<totfact> 0.90443941E+01</totfact>
</mgrwt>
</event>
<event>
 4    1  0.1726795E-008  0.3669382E+03  0.7818608E-02  0.1055870E+00
          2   -1    0    0  501    0  0.00000000000E+00  0.00000000000E+00  0.63900611936E+03  0.63900611936E+03  0.25500000000E-02 0. -1.
         -2   -1    0    0    0  501 -0.00000000000E+00 -0.00000000000E+00 -0.31248224846E+03  0.31248224847E+03  0.25500000000E-02 0.  1.
    8880022    1    1    2    0    0  0.33304584455E+03 -0.18232513077E+02 -0.10824445894E+03  0.38257087580E+03  0.15294330000E+03 0.  0.
    8880022    1    1    2    0    0 -0.33304584455E+03  0.18232513077E+02  0.43476832984E+03  0.56891749204E+03  0.15294330000E+03 0. -1.
<mgrwt>
<rscale>  0 0.36693816E+03</rscale>
<asrwt>0</asrwt>
<pdfrwt beam="1">  1        2 0.98308633E-01 0.36693816E+03</pdfrwt>
<pdfrwt beam="2">  1       -2 0.48074193E-01 0.36693816E+03</pdfrwt>
<totfact> 0.19467796E+02</totfact>
</mgrwt>
</event>
<event>
 4    1  0.1726795E-008  0.3978463E+03  0.7818608E-02  0.1044528E+00
         -2   -1    0    0    0  501 -0.00000000000E+00  0.00000000000E+00  0.99900778541E+03  0.99900778541E+03  0.25500000000E-02 0.  1.
          2   -1    0    0  501    0  0.00000000000E+00 -0.00000000000E+00 -0.73835316213E+03  0.73835316213E+03  0.25500000000E-02 0. -1.
    8880022    1    1    2    0    0  0.35646946401E+03 -0.88428263953E+02  0.90018399908E+03  0.98418134602E+03  0.15294330000E+03 0.  0.
    8880022    1    1    2    0    0 -0.35646946401E+03  0.88428263953E+02 -0.63952937579E+03  0.75317960153E+03  0.15294330000E+03 0.  0.
<mgrwt>
<rscale>  0 0.39784631E+03</rscale>
<asrwt>0</asrwt>
<pdfrwt beam="1">  1        2 0.11359279E+00 0.39784631E+03</pdfrwt>
<pdfrwt beam="2">  1       -2 0.15369350E+00 0.39784631E+03</pdfrwt>
<totfact> 0.11501265E+01</totfact>
</mgrwt>
</event>
<event>
 4    1  0.1726795E-008  0.9656945E+03  0.7818608E-02  0.9346992E-01
          2   -1    0    0  501    0  0.00000000000E+00  0.00000000000E+00  0.16959058158E+04  0.16959058158E+04  0.25500000000E-02 0. -1.
         -2   -1    0    0    0  501 -0.00000000000E+00 -0.00000000000E+00 -0.64312706916E+03  0.64312706916E+03  0.25500000000E-02 0.  1.
    8880022    1    1    2    0    0  0.14918848020E+03  0.94176274833E+03  0.97168288304E+03  0.13699392523E+04  0.15294330000E+03 0.  0.
    8880022    1    1    2    0    0 -0.14918848020E+03 -0.94176274833E+03  0.81095863598E+02  0.96909363267E+03  0.15294330000E+03 0.  0.
<mgrwt>
<rscale>  0 0.96569453E+03</rscale>
<asrwt>0</asrwt>
<pdfrwt beam="1">  1        2 0.26090858E+00 0.96569453E+03</pdfrwt>
<pdfrwt beam="2">  1       -2 0.98942627E-01 0.96569453E+03</pdfrwt>
<totfact> 0.83582063E+00</totfact>
</mgrwt>
</event>
<event>
 4    1  0.1726795E-008  0.6261221E+03  0.7818608E-02  0.9852646E-01
         -2   -1    0    0    0  501 -0.00000000000E+00  0.00000000000E+00  0.20859043730E+03  0.20859043731E+03  0.25500000000E-02 0.  1.
          2   -1    0    0  501    0  0.00000000000E+00 -0.00000000000E+00 -0.25737776647E+04  0.25737776647E+04  0.25500000000E-02 0. -1.
    8880022    1    1    2    0    0  0.58746910263E+03 -0.15335337195E+03 -0.46000524230E+03  0.77693865857E+03  0.15294330000E+03 0.  0.
    8880022    1    1    2    0    0 -0.58746910263E+03  0.15335337195E+03 -0.19051819851E+04  0.20054294434E+04  0.15294330000E+03 0.  0.
<mgrwt>
<rscale>  0 0.62612208E+03</rscale>
<asrwt>0</asrwt>
<pdfrwt beam="1">  1        2 0.39596577E+00 0.62612208E+03</pdfrwt>
<pdfrwt beam="2">  1       -2 0.32090838E-01 0.62612208E+03</pdfrwt>
<totfact> 0.30373057E+01</totfact>
</mgrwt>
</event>
<event>
 4    1  0.1726795E-008  0.1174069E+04  0.7818608E-02  0.9135861E-01
          2   -1    0    0  501    0  0.00000000000E+00  0.00000000000E+00  0.20348555341E+04  0.20348555341E+04  0.25500000000E-02 0. -1.
         -2   -1    0    0    0  501 -0.00000000000E+00 -0.00000000000E+00 -0.82564895538E+03  0.82564895538E+03  0.25500000000E-02 0.  1.
    8880022    1    1    2    0    0  0.65263723815E+03 -0.96390452191E+03 -0.14219677257E+01  0.11740702564E+04  0.15294330000E+03 0.  0.
    8880022    1    1    2    0    0 -0.65263723815E+03  0.96390452191E+03  0.12106285464E+04  0.16864342330E+04  0.15294330000E+03 0.  0.
<mgrwt>
<rscale>  0 0.11740694E+04</rscale>
<asrwt>0</asrwt>
<pdfrwt beam="1">  1        2 0.31305469E+00 0.11740694E+04</pdfrwt>
<pdfrwt beam="2">  1       -2 0.12702292E+00 0.11740694E+04</pdfrwt>
<totfact> 0.28789043E+00</totfact>
</mgrwt>
</event>
<event>
 4    1  0.1726795E-008  0.7681621E+03  0.7818608E-02  0.9607280E-01
          2   -1    0    0  501    0  0.00000000000E+00  0.00000000000E+00  0.20971543445E+04  0.20971543445E+04  0.25500000000E-02 0. -1.
         -2   -1    0    0    0  501 -0.00000000000E+00 -0.00000000000E+00 -0.46119691763E+03  0.46119691764E+03  0.25500000000E-02 0.  1.
    8880022    1    1    2    0    0  0.36011430977E+03  0.66105901766E+03  0.19218833019E+02  0.76840247103E+03  0.15294330000E+03 0.  0.
    8880022    1    1    2    0    0 -0.36011430977E+03 -0.66105901766E+03  0.16167385938E+04  0.17899487911E+04  0.15294330000E+03 0.  0.
<mgrwt>
<rscale>  0 0.76816209E+03</rscale>
<asrwt>0</asrwt>
<pdfrwt beam="1">  1        2 0.32263914E+00 0.76816209E+03</pdfrwt>
<pdfrwt beam="2">  1       -2 0.70953370E-01 0.76816209E+03</pdfrwt>
<totfact> 0.11013411E+01</totfact>
</mgrwt>
</event>
<event>
 4    1  0.1726795E-008  0.9844636E+03  0.7818608E-02  0.9325751E-01
         -2   -1    0    0    0  501 -0.00000000000E+00  0.00000000000E+00  0.61932561067E+03  0.61932561068E+03  0.25500000000E-02 0.  1.
          2   -1    0    0  501    0  0.00000000000E+00 -0.00000000000E+00 -0.35956240624E+04  0.35956240624E+04  0.25500000000E-02 0. -1.
    8880022    1    1    2    0    0  0.24678633519E+03 -0.94067710727E+03  0.95661016343E+02  0.98910039856E+03  0.15294330000E+03 0.  0.
    8880022    1    1    2    0    0 -0.24678633519E+03  0.94067710727E+03 -0.30719594680E+04  0.32258492745E+04  0.15294330000E+03 0.  0.
<mgrwt>
<rscale>  0 0.98446359E+03</rscale>
<asrwt>0</asrwt>
<pdfrwt beam="1">  1        2 0.55317292E+00 0.98446359E+03</pdfrwt>
<pdfrwt beam="2">  1       -2 0.95280865E-01 0.98446359E+03</pdfrwt>
<totfact> 0.66938229E-01</totfact>
</mgrwt>
</event>
<event>
 4    1  0.1726795E-008  0.5310472E+03  0.7818608E-02  0.1005978E+00
         -2   -1    0    0    0  501 -0.00000000000E+00  0.00000000000E+00  0.60834725704E+03  0.60834725705E+03  0.25500000000E-02 0.  1.
          2   -1    0    0  501    0  0.00000000000E+00 -0.00000000000E+00 -0.64432952188E+03  0.64432952188E+03  0.25500000000E-02 0. -1.
    8880022    1    1    2    0    0  0.46030061039E+03 -0.21620076630E+03  0.31375549747E+03  0.61680919942E+03  0.15294330000E+03 0.  0.
    8880022    1    1    2    0    0 -0.46030061039E+03  0.21620076630E+03 -0.34973776231E+03  0.63586757951E+03  0.15294330000E+03 0.  0.
<mgrwt>
<rscale>  0 0.53104715E+03</rscale>
<asrwt>0</asrwt>
<pdfrwt beam="1">  1        2 0.99127618E-01 0.53104715E+03</pdfrwt>
<pdfrwt beam="2">  1       -2 0.93591886E-01 0.53104715E+03</pdfrwt>
<totfact> 0.45290191E+01</totfact>
</mgrwt>
</event>
<event>
 4    1  0.1726795E-008  0.3959116E+03  0.7818608E-02  0.1045205E+00
         -2   -1    0    0    0  501 -0.00000000000E+00  0.00000000000E+00  0.32674105306E+03  0.32674105307E+03  0.25500000000E-02 0.  1.
          2   -1    0    0  501    0  0.00000000000E+00 -0.00000000000E+00 -0.26966026565E+04  0.26966026565E+04  0.25500000000E-02 0. -1.
    8880022    1    1    2    0    0 -0.18919604821E+03  0.31234462490E+03 -0.25555596808E+04  0.25860454838E+04  0.15294330000E+03 0.  0.
    8880022    1    1    2    0    0  0.18919604821E+03 -0.31234462490E+03  0.18569807729E+03  0.43729822580E+03  0.15294330000E+03 0.  1.
<mgrwt>
<rscale>  0 0.39591156E+03</rscale>
<asrwt>0</asrwt>
<pdfrwt beam="1">  1        2 0.41486193E+00 0.39591156E+03</pdfrwt>
<pdfrwt beam="2">  1       -2 0.50267856E-01 0.39591156E+03</pdfrwt>
<totfact> 0.11439457E+01</totfact>
</mgrwt>
</event>
<event>
 4    1  0.1726795E-008  0.6313529E+03  0.7818608E-02  0.9842412E-01
          2   -1    0    0  501    0  0.00000000000E+00  0.00000000000E+00  0.82258940188E+03  0.82258940188E+03  0.25500000000E-02 0. -1.
         -2   -1    0    0    0  501 -0.00000000000E+00 -0.00000000000E+00 -0.11711797627E+04  0.11711797627E+04  0.25500000000E-02 0.  1.
    8880022    1    1    2    0    0  0.43892233966E+03 -0.42727273027E+03  0.58898929373E+03  0.86343201668E+03  0.15294330000E+03 0.  0.
    8880022    1    1    2    0    0 -0.43892233966E+03  0.42727273027E+03 -0.93757965457E+03  0.11303371479E+04  0.15294330000E+03 0.  0.
<mgrwt>
<rscale>  0 0.63135288E+03</rscale>
<asrwt>0</asrwt>
<pdfrwt beam="1">  1        2 0.12655222E+00 0.63135288E+03</pdfrwt>
<pdfrwt beam="2">  1       -2 0.18018150E+00 0.63135288E+03</pdfrwt>
<totfact> 0.62172469E+00</totfact>
</mgrwt>
</event>
<event>
 4    1  0.1726795E-008  0.2862244E+03  0.7818608E-02  0.1092337E+00
         -2   -1    0    0    0  501 -0.00000000000E+00  0.00000000000E+00  0.19836621225E+03  0.19836621227E+03  0.25500000000E-02 0.  1.
          2   -1    0    0  501    0  0.00000000000E+00 -0.00000000000E+00 -0.12317841445E+04  0.12317841445E+04  0.25500000000E-02 0. -1.
    8880022    1    1    2    0    0  0.19897993968E+03  0.13762176551E+03 -0.10997111943E+04  0.11363490355E+04  0.15294330000E+03 0.  0.
    8880022    1    1    2    0    0 -0.19897993968E+03 -0.13762176551E+03  0.66293262051E+02  0.29380132121E+03  0.15294330000E+03 0.  0.
<mgrwt>
<rscale>  0 0.28622442E+03</rscale>
<asrwt>0</asrwt>
<pdfrwt beam="1">  1        2 0.18950525E+00 0.28622442E+03</pdfrwt>
<pdfrwt beam="2">  1       -2 0.30517880E-01 0.28622442E+03</pdfrwt>
<totfact> 0.19131791E+02</totfact>
</mgrwt>
</event>
<event>
 4    1  0.1726795E-008  0.8185902E+03  0.7818608E-02  0.9533492E-01
         -2   -1    0    0    0  501 -0.00000000000E+00  0.00000000000E+00  0.64081006189E+03  0.64081006190E+03  0.25500000000E-02 0.  1.
          2   -1    0    0  501    0  0.00000000000E+00 -0.00000000000E+00 -0.20985563691E+04  0.20985563691E+04  0.25500000000E-02 0. -1.
    8880022    1    1    2    0    0 -0.34408879307E+03  0.72684334032E+03  0.24129277096E+03  0.85341208875E+03  0.15294330000E+03 0.  0.
    8880022    1    1    2    0    0  0.34408879307E+03 -0.72684334032E+03 -0.16990390781E+04  0.18859543422E+04  0.15294330000E+03 0.  0.
<mgrwt>
<rscale>  0 0.81859025E+03</rscale>
<asrwt>0</asrwt>
<pdfrwt beam="1">  1        2 0.32285482E+00 0.81859025E+03</pdfrwt>
<pdfrwt beam="2">  1       -2 0.98586164E-01 0.81859025E+03</pdfrwt>
<totfact> 0.51659664E+00</totfact>
</mgrwt>
</event>
<event>
 4    1  0.1726795E-008  0.5555209E+03  0.7818608E-02  0.1000224E+00
         -2   -1    0    0    0  501 -0.00000000000E+00  0.00000000000E+00  0.67918387983E+03  0.67918387984E+03  0.25500000000E-02 0.  1.
          2   -1    0    0  501    0  0.00000000000E+00 -0.00000000000E+00 -0.86518331554E+03  0.86518331555E+03  0.25500000000E-02 0. -1.
    8880022    1    1    2    0    0  0.52745980732E+03 -0.83654011716E+02  0.43909218116E+03  0.70809987896E+03  0.15294330000E+03 0.  0.
    8880022    1    1    2    0    0 -0.52745980732E+03  0.83654011716E+02 -0.62509161687E+03  0.83626731642E+03  0.15294330000E+03 0.  0.
<mgrwt>
<rscale>  0 0.55552092E+03</rscale>
<asrwt>0</asrwt>
<pdfrwt beam="1">  1        2 0.13310513E+00 0.55552092E+03</pdfrwt>
<pdfrwt beam="2">  1       -2 0.10448983E+00 0.55552092E+03</pdfrwt>
<totfact> 0.23897740E+01</totfact>
</mgrwt>
</event>
<event>
 4    1  0.1726795E-008  0.4638958E+03  0.7818608E-02  0.1023657E+00
         -2   -1    0    0    0  501 -0.00000000000E+00  0.00000000000E+00  0.16875424430E+03  0.16875424432E+03  0.25500000000E-02 0.  1.
          2   -1    0    0  501    0  0.00000000000E+00 -0.00000000000E+00 -0.18849679852E+04  0.18849679852E+04  0.25500000000E-02 0. -1.
    8880022    1    1    2    0    0  0.13489539867E+03 -0.41666641705E+03 -0.14421350094E+04  0.15149101326E+04  0.15294330000E+03 0.  0.
    8880022    1    1    2    0    0 -0.13489539867E+03  0.41666641705E+03 -0.27407873156E+03  0.53881209692E+03  0.15294330000E+03 0.  0.
<mgrwt>
<rscale>  0 0.46389581E+03</rscale>
<asrwt>0</asrwt>
<pdfrwt beam="1">  1        2 0.28999506E+00 0.46389581E+03</pdfrwt>
<pdfrwt beam="2">  1       -2 0.25962193E-01 0.46389581E+03</pdfrwt>
<totfact> 0.10997789E+02</totfact>
</mgrwt>
</event>
<event>
 4    1  0.1726795E-008  0.1089265E+04  0.7818608E-02  0.9215718E-01
         -2   -1    0    0    0  501 -0.00000000000E+00  0.00000000000E+00  0.88836887869E+03  0.88836887870E+03  0.25500000000E-02 0.  1.
          2   -1    0    0  501    0  0.00000000000E+00 -0.00000000000E+00 -0.19373425671E+04  0.19373425671E+04  0.25500000000E-02 0. -1.
    8880022    1    1    2    0    0 -0.11492105555E+03  0.10723341526E+04  0.26292616712E+03  0.11205486184E+04  0.15294330000E+03 0.  0.
    8880022    1    1    2    0    0  0.11492105555E+03 -0.10723341526E+04 -0.13118998555E+04  0.17051628274E+04  0.15294330000E+03 0.  0.
<mgrwt>
<rscale>  0 0.10892654E+04</rscale>
<asrwt>0</asrwt>
<pdfrwt beam="1">  1        2 0.29805270E+00 0.10892654E+04</pdfrwt>
<pdfrwt beam="2">  1       -2 0.13667214E+00 0.10892654E+04</pdfrwt>
<totfact> 0.27296163E+00</totfact>
</mgrwt>
</event>
<event>
 4    1  0.1726795E-008  0.1682768E+04  0.7818608E-02  0.8771254E-01
         -2   -1    0    0    0  501 -0.00000000000E+00  0.00000000000E+00  0.14132649824E+04  0.14132649824E+04  0.25500000000E-02 0.  1.
          2   -1    0    0  501    0  0.00000000000E+00 -0.00000000000E+00 -0.26804313450E+04  0.26804313450E+04  0.25500000000E-02 0. -1.
    8880022    1    1    2    0    0  0.16686979005E+04 -0.15415224738E+03  0.39491419770E+03  0.17284861802E+04  0.15294330000E+03 0.  0.
    8880022    1    1    2    0    0 -0.16686979005E+04  0.15415224738E+03 -0.16620805603E+04  0.23652101472E+04  0.15294330000E+03 0.  0.
<mgrwt>
<rscale>  0 0.16827677E+04</rscale>
<asrwt>0</asrwt>
<pdfrwt beam="1">  1        2 0.41237405E+00 0.16827677E+04</pdfrwt>
<pdfrwt beam="2">  1       -2 0.21742538E+00 0.16827677E+04</pdfrwt>
<totfact> 0.25764673E-01</totfact>
</mgrwt>
</event>
<event>
 4    1  0.1726795E-008  0.8629318E+03  0.7818608E-02  0.9473143E-01
         -2   -1    0    0    0  501 -0.00000000000E+00  0.00000000000E+00  0.46798251398E+03  0.46798251399E+03  0.25500000000E-02 0.  1.
          2   -1    0    0  501    0  0.00000000000E+00 -0.00000000000E+00 -0.45284156779E+04  0.45284156779E+04  0.25500000000E-02 0. -1.
    8880022    1    1    2    0    0 -0.61632413362E+03  0.58429802614E+03 -0.18243257730E+02  0.86312460891E+03  0.15294330000E+03 0.  0.
    8880022    1    1    2    0    0  0.61632413362E+03 -0.58429802614E+03 -0.40421899061E+04  0.41332735829E+04  0.15294330000E+03 0.  0.
<mgrwt>
<rscale>  0 0.86293179E+03</rscale>
<asrwt>0</asrwt>
<pdfrwt beam="1">  1        2 0.69667930E+00 0.86293179E+03</pdfrwt>
<pdfrwt beam="2">  1       -2 0.71997313E-01 0.86293179E+03</pdfrwt>
<totfact> 0.22412888E-01</totfact>
</mgrwt>
</event>
<event>
 4    1  0.1726795E-008  0.4872996E+03  0.7818608E-02  0.1017148E+00
         -2   -1    0    0    0  501 -0.00000000000E+00  0.00000000000E+00  0.29728682700E+03  0.29728682701E+03  0.25500000000E-02 0.  1.
          2   -1    0    0  501    0  0.00000000000E+00 -0.00000000000E+00 -0.15254831529E+04  0.15254831529E+04  0.25500000000E-02 0. -1.
    8880022    1    1    2    0    0  0.37143897839E+02  0.46118279028E+03 -0.12431444447E+04  0.13352411762E+04  0.15294330000E+03 0.  0.
    8880022    1    1    2    0    0 -0.37143897839E+02 -0.46118279028E+03  0.14948118783E+02  0.48752880373E+03  0.15294330000E+03 0.  0.
<mgrwt>
<rscale>  0 0.48729959E+03</rscale>
<asrwt>0</asrwt>
<pdfrwt beam="1">  1        2 0.23468971E+00 0.48729959E+03</pdfrwt>
<pdfrwt beam="2">  1       -2 0.45736436E-01 0.48729959E+03</pdfrwt>
<totfact> 0.58794530E+01</totfact>
</mgrwt>
</event>
<event>
 4    1  0.1726795E-008  0.1098911E+04  0.7818608E-02  0.9206254E-01
         -2   -1    0    0    0  501 -0.00000000000E+00  0.00000000000E+00  0.11891867890E+04  0.11891867890E+04  0.25500000000E-02 0.  1.
          2   -1    0    0  501    0  0.00000000000E+00 -0.00000000000E+00 -0.10744270383E+04  0.10744270383E+04  0.25500000000E-02 0. -1.
    8880022    1    1    2    0    0 -0.14209722152E+03 -0.10788981598E+04  0.32246578518E+03  0.11452461287E+04  0.15294330000E+03 0.  0.
    8880022    1    1    2    0    0  0.14209722152E+03  0.10788981598E+04 -0.20770603452E+03  0.11183676986E+04  0.15294330000E+03 0.  0.
<mgrwt>
<rscale>  0 0.10989106E+04</rscale>
<asrwt>0</asrwt>
<pdfrwt beam="1">  1        2 0.16529647E+00 0.10989106E+04</pdfrwt>
<pdfrwt beam="2">  1       -2 0.18295181E+00 0.10989106E+04</pdfrwt>
<totfact> 0.38374833E+00</totfact>
</mgrwt>
</event>
<event>
 4    1  0.1726795E-008  0.2400009E+03  0.7818608E-02  0.1119792E+00
          2   -1    0    0  501    0  0.00000000000E+00  0.00000000000E+00  0.89422506640E+03  0.89422506640E+03  0.25500000000E-02 0. -1.
         -2   -1    0    0    0  501 -0.00000000000E+00 -0.00000000000E+00 -0.95846844018E+03  0.95846844018E+03  0.25500000000E-02 0.  1.
    8880022    1    1    2    0    0 -0.38120408952E+02  0.18098507732E+03 -0.92679958889E+03  0.95737030180E+03  0.15294330000E+03 0.  0.
    8880022    1    1    2    0    0  0.38120408952E+02 -0.18098507732E+03  0.86255621511E+03  0.89532320478E+03  0.15294330000E+03 0.  0.
<mgrwt>
<rscale>  0 0.24000087E+03</rscale>
<asrwt>0</asrwt>
<pdfrwt beam="1">  1        2 0.13757309E+00 0.24000087E+03</pdfrwt>
<pdfrwt beam="2">  1       -2 0.14745668E+00 0.24000087E+03</pdfrwt>
<totfact> 0.10441113E+01</totfact>
</mgrwt>
</event>
<event>
 4    1  0.1726795E-008  0.8495470E+03  0.7818608E-02  0.9490945E-01
          2   -1    0    0  501    0  0.00000000000E+00  0.00000000000E+00  0.98354907792E+03  0.98354907793E+03  0.25500000000E-02 0. -1.
         -2   -1    0    0    0  501 -0.00000000000E+00 -0.00000000000E+00 -0.11562356320E+04  0.11562356320E+04  0.25500000000E-02 0.  1.
    8880022    1    1    2    0    0  0.82353658886E+03  0.14186575082E+03 -0.73303346244E+03  0.11220820445E+04  0.15294330000E+03 0.  0.
    8880022    1    1    2    0    0 -0.82353658886E+03 -0.14186575082E+03  0.56034690840E+03  0.10177026654E+04  0.15294330000E+03 0.  0.
<mgrwt>
<rscale>  0 0.84954697E+03</rscale>
<asrwt>0</asrwt>
<pdfrwt beam="1">  1        2 0.15131524E+00 0.84954697E+03</pdfrwt>
<pdfrwt beam="2">  1       -2 0.17788240E+00 0.84954697E+03</pdfrwt>
<totfact> 0.48799934E+00</totfact>
</mgrwt>
</event>
<event>
 4    1  0.1726795E-008  0.5680190E+03  0.7818608E-02  0.9974072E-01
         -2   -1    0    0    0  501 -0.00000000000E+00  0.00000000000E+00  0.13364687403E+04  0.13364687403E+04  0.25500000000E-02 0.  1.
          2   -1    0    0  501    0  0.00000000000E+00 -0.00000000000E+00 -0.96666262949E+03  0.96666262950E+03  0.25500000000E-02 0. -1.
    8880022    1    1    2    0    0 -0.72828116834E+01  0.54699263510E+03 -0.81255341880E+03  0.99140743068E+03  0.15294330000E+03 0.  0.
    8880022    1    1    2    0    0  0.72828116834E+01 -0.54699263510E+03  0.11823595296E+04  0.13117239391E+04  0.15294330000E+03 0.  1.
<mgrwt>
<rscale>  0 0.56801904E+03</rscale>
<asrwt>0</asrwt>
<pdfrwt beam="1">  1        2 0.14871733E+00 0.56801904E+03</pdfrwt>
<pdfrwt beam="2">  1       -2 0.20561058E+00 0.56801904E+03</pdfrwt>
<totfact> 0.34207958E+00</totfact>
</mgrwt>
</event>
<event>
 4    1  0.1726795E-008  0.6847900E+03  0.7818608E-02  0.9743603E-01
         -2   -1    0    0    0  501 -0.00000000000E+00  0.00000000000E+00  0.20168262168E+04  0.20168262168E+04  0.25500000000E-02 0.  1.
          2   -1    0    0  501    0  0.00000000000E+00 -0.00000000000E+00 -0.59838043320E+03  0.59838043320E+03  0.25500000000E-02 0. -1.
    8880022    1    1    2    0    0  0.45406454668E+03 -0.48925562024E+03 -0.31324455868E+03  0.75303351921E+03  0.15294330000E+03 0.  0.
    8880022    1    1    2    0    0 -0.45406454668E+03  0.48925562024E+03  0.17316903423E+04  0.18621731308E+04  0.15294330000E+03 0.  0.
<mgrwt>
<rscale>  0 0.68478999E+03</rscale>
<asrwt>0</asrwt>
<pdfrwt beam="1">  1        2 0.92058527E-01 0.68478999E+03</pdfrwt>
<pdfrwt beam="2">  1       -2 0.31028096E+00 0.68478999E+03</pdfrwt>
<totfact> 0.14457989E+00</totfact>
</mgrwt>
</event>
<event>
 4    1  0.1726795E-008  0.5661721E+03  0.7818608E-02  0.9978185E-01
         -2   -1    0    0    0  501 -0.00000000000E+00  0.00000000000E+00  0.30974104497E+03  0.30974104498E+03  0.25500000000E-02 0.  1.
          2   -1    0    0  501    0  0.00000000000E+00 -0.00000000000E+00 -0.12453816618E+04  0.12453816618E+04  0.25500000000E-02 0. -1.
    8880022    1    1    2    0    0 -0.45381205545E+03 -0.30201633205E+03 -0.78748224427E+03  0.96988617092E+03  0.15294330000E+03 0.  0.
    8880022    1    1    2    0    0  0.45381205545E+03  0.30201633205E+03 -0.14815837252E+03  0.58523653582E+03  0.15294330000E+03 0.  0.
<mgrwt>
<rscale>  0 0.56617215E+03</rscale>
<asrwt>0</asrwt>
<pdfrwt beam="1">  1        2 0.19159718E+00 0.56617215E+03</pdfrwt>
<pdfrwt beam="2">  1       -2 0.47652469E-01 0.56617215E+03</pdfrwt>
<totfact> 0.76938018E+01</totfact>
</mgrwt>
</event>
<event>
 4    1  0.1726795E-008  0.9939851E+03  0.7818608E-02  0.9315167E-01
         -2   -1    0    0    0  501 -0.00000000000E+00  0.00000000000E+00  0.92414292480E+03  0.92414292481E+03  0.25500000000E-02 0.  1.
          2   -1    0    0  501    0  0.00000000000E+00 -0.00000000000E+00 -0.21219445053E+04  0.21219445053E+04  0.25500000000E-02 0. -1.
    8880022    1    1    2    0    0 -0.71754734234E+03 -0.67062699387E+03 -0.16717194376E+04  0.19449041839E+04  0.15294330000E+03 0.  0.
    8880022    1    1    2    0    0  0.71754734234E+03  0.67062699387E+03  0.47391785713E+03  0.11011832462E+04  0.15294330000E+03 0.  0.
<mgrwt>
<rscale>  0 0.99398511E+03</rscale>
<asrwt>0</asrwt>
<pdfrwt beam="1">  1        2 0.32645300E+00 0.99398511E+03</pdfrwt>
<pdfrwt beam="2">  1       -2 0.14217584E+00 0.99398511E+03</pdfrwt>
<totfact> 0.19716523E+00</totfact>
</mgrwt>
</event>
<event>
 4    1  0.1726795E-008  0.1077679E+04  0.7818608E-02  0.9227225E-01
         -2   -1    0    0    0  501 -0.00000000000E+00  0.00000000000E+00  0.17514934610E+04  0.17514934610E+04  0.25500000000E-02 0.  1.
          2   -1    0    0  501    0  0.00000000000E+00 -0.00000000000E+00 -0.17609375868E+04  0.17609375868E+04  0.25500000000E-02 0. -1.
    8880022    1    1    2    0    0  0.11408360658E+03 -0.10606531556E+04  0.13819620148E+04  0.17524870468E+04  0.15294330000E+03 0.  0.
    8880022    1    1    2    0    0 -0.11408360658E+03  0.10606531556E+04 -0.13914061406E+04  0.17599440011E+04  0.15294330000E+03 0.  0.
<mgrwt>
<rscale>  0 0.10776789E+04</rscale>
<asrwt>0</asrwt>
<pdfrwt beam="1">  1        2 0.27091348E+00 0.10776789E+04</pdfrwt>
<pdfrwt beam="2">  1       -2 0.26946053E+00 0.10776789E+04</pdfrwt>
<totfact> 0.43884203E-01</totfact>
</mgrwt>
</event>
<event>
 4    1  0.1726795E-008  0.6432216E+03  0.7818608E-02  0.9819582E-01
          2   -1    0    0  501    0  0.00000000000E+00  0.00000000000E+00  0.63391903953E+03  0.63391903953E+03  0.25500000000E-02 0. -1.
         -2   -1    0    0    0  501 -0.00000000000E+00 -0.00000000000E+00 -0.10155149848E+04  0.10155149848E+04  0.25500000000E-02 0.  1.
    8880022    1    1    2    0    0 -0.57832916060E+03  0.23638489386E+03 -0.68377634951E+03  0.93876737545E+03  0.15294330000E+03 0.  0.
    8880022    1    1    2    0    0  0.57832916060E+03 -0.23638489386E+03  0.30218040428E+03  0.71066664885E+03  0.15294330000E+03 0.  0.
<mgrwt>
<rscale>  0 0.64322165E+03</rscale>
<asrwt>0</asrwt>
<pdfrwt beam="1">  1        2 0.97526006E-01 0.64322165E+03</pdfrwt>
<pdfrwt beam="2">  1       -2 0.15623307E+00 0.64322165E+03</pdfrwt>
<totfact> 0.12801131E+01</totfact>
</mgrwt>
</event>
<event>
 4    1  0.1726795E-008  0.4461791E+03  0.7818608E-02  0.1028868E+00
         -2   -1    0    0    0  501 -0.00000000000E+00  0.00000000000E+00  0.91377887248E+03  0.91377887248E+03  0.25500000000E-02 0.  1.
          2   -1    0    0  501    0  0.00000000000E+00 -0.00000000000E+00 -0.14010541759E+04  0.14010541759E+04  0.25500000000E-02 0. -1.
    8880022    1    1    2    0    0 -0.10220616877E+03 -0.40649484826E+03  0.81999150897E+03  0.93352123189E+03  0.15294330000E+03 0.  0.
    8880022    1    1    2    0    0  0.10220616877E+03  0.40649484826E+03 -0.13072668123E+04  0.13813118165E+04  0.15294330000E+03 0.  0.
<mgrwt>
<rscale>  0 0.44617913E+03</rscale>
<asrwt>0</asrwt>
<pdfrwt beam="1">  1        2 0.21554680E+00 0.44617913E+03</pdfrwt>
<pdfrwt beam="2">  1       -2 0.14058136E+00 0.44617913E+03</pdfrwt>
<totfact> 0.55708089E+00</totfact>
</mgrwt>
</event>
<event>
 4    1  0.1726795E-008  0.4722198E+03  0.7818608E-02  0.1021296E+00
          2   -1    0    0  501    0  0.00000000000E+00  0.00000000000E+00  0.61952144507E+03  0.61952144508E+03  0.25500000000E-02 0. -1.
         -2   -1    0    0    0  501 -0.00000000000E+00 -0.00000000000E+00 -0.95320910761E+03  0.95320910761E+03  0.25500000000E-02 0.  1.
    8880022    1    1    2    0    0  0.38971890255E+03 -0.21844702223E+03  0.45353289403E+03  0.65473938594E+03  0.15294330000E+03 0.  0.
    8880022    1    1    2    0    0 -0.38971890255E+03  0.21844702223E+03 -0.78722055657E+03  0.91799116675E+03  0.15294330000E+03 0.  0.
<mgrwt>
<rscale>  0 0.47221984E+03</rscale>
<asrwt>0</asrwt>
<pdfrwt beam="1">  1        2 0.95310991E-01 0.47221984E+03</pdfrwt>
<pdfrwt beam="2">  1       -2 0.14664756E+00 0.47221984E+03</pdfrwt>
<totfact> 0.15917379E+01</totfact>
</mgrwt>
</event>
<event>
 4    1  0.1726795E-008  0.9442469E+03  0.7818608E-02  0.9371900E-01
         -2   -1    0    0    0  501 -0.00000000000E+00  0.00000000000E+00  0.12232427645E+04  0.12232427645E+04  0.25500000000E-02 0.  1.
          2   -1    0    0  501    0  0.00000000000E+00 -0.00000000000E+00 -0.16415396613E+04  0.16415396613E+04  0.25500000000E-02 0. -1.
    8880022    1    1    2    0    0  0.59643241944E+03 -0.71587632047E+03 -0.12771931073E+04  0.15883401473E+04  0.15294330000E+03 0.  0.
    8880022    1    1    2    0    0 -0.59643241944E+03  0.71587632047E+03  0.85889621041E+03  0.12764422785E+04  0.15294330000E+03 0.  0.
<mgrwt>
<rscale>  0 0.94424689E+03</rscale>
<asrwt>0</asrwt>
<pdfrwt beam="1">  1        2 0.25254457E+00 0.94424689E+03</pdfrwt>
<pdfrwt beam="2">  1       -2 0.18819119E+00 0.94424689E+03</pdfrwt>
<totfact> 0.16882229E+00</totfact>
</mgrwt>
</event>
<event>
 4    1  0.1726795E-008  0.1023766E+04  0.7818608E-02  0.9282856E-01
          2   -1    0    0  501    0  0.00000000000E+00  0.00000000000E+00  0.38498210670E+04  0.38498210670E+04  0.25500000000E-02 0. -1.
         -2   -1    0    0    0  501 -0.00000000000E+00 -0.00000000000E+00 -0.41647809909E+03  0.41647809910E+03  0.25500000000E-02 0.  1.
    8880022    1    1    2    0    0  0.97627226660E+03 -0.26757652869E+03  0.29719987702E+04  0.31433856079E+04  0.15294330000E+03 0.  0.
    8880022    1    1    2    0    0 -0.97627226660E+03  0.26757652869E+03  0.46134419767E+03  0.11229135581E+04  0.15294330000E+03 0.  0.
<mgrwt>
<rscale>  0 0.10237658E+04</rscale>
<asrwt>0</asrwt>
<pdfrwt beam="1">  1        2 0.59228018E+00 0.10237658E+04</pdfrwt>
<pdfrwt beam="2">  1       -2 0.64073552E-01 0.10237658E+04</pdfrwt>
<totfact> 0.10571708E+00</totfact>
</mgrwt>
</event>
<event>
 4    1  0.1726795E-008  0.1265433E+04  0.7818608E-02  0.9057435E-01
         -2   -1    0    0    0  501 -0.00000000000E+00  0.00000000000E+00  0.91443115857E+03  0.91443115858E+03  0.25500000000E-02 0.  1.
          2   -1    0    0  501    0  0.00000000000E+00 -0.00000000000E+00 -0.24886503574E+04  0.24886503574E+04  0.25500000000E-02 0. -1.
    8880022    1    1    2    0    0  0.11732402334E+04  0.44881783707E+03  0.13915805847E+03  0.12730619445E+04  0.15294330000E+03 0.  0.
    8880022    1    1    2    0    0 -0.11732402334E+04 -0.44881783707E+03 -0.17133772573E+04  0.21300195715E+04  0.15294330000E+03 0.  0.
<mgrwt>
<rscale>  0 0.12654334E+04</rscale>
<asrwt>0</asrwt>
<pdfrwt beam="1">  1        2 0.38286928E+00 0.12654334E+04</pdfrwt>
<pdfrwt beam="2">  1       -2 0.14068172E+00 0.12654334E+04</pdfrwt>
<totfact> 0.12165072E+00</totfact>
</mgrwt>
</event>
<event>
 4    1  0.1726795E-008  0.8802772E+03  0.7818608E-02  0.9450577E-01
         -2   -1    0    0    0  501 -0.00000000000E+00  0.00000000000E+00  0.70165916180E+03  0.70165916181E+03  0.25500000000E-02 0.  1.
          2   -1    0    0  501    0  0.00000000000E+00 -0.00000000000E+00 -0.18505071871E+04  0.18505071871E+04  0.25500000000E-02 0. -1.
    8880022    1    1    2    0    0  0.86537474328E+03  0.51214255375E+02 -0.13847211749E+04  0.16408353761E+04  0.15294330000E+03 0.  0.
    8880022    1    1    2    0    0 -0.86537474328E+03 -0.51214255375E+02  0.23587314960E+03  0.91133097280E+03  0.15294330000E+03 0.  0.
<mgrwt>
<rscale>  0 0.88027723E+03</rscale>
<asrwt>0</asrwt>
<pdfrwt beam="1">  1        2 0.28469341E+00 0.88027723E+03</pdfrwt>
<pdfrwt beam="2">  1       -2 0.10794756E+00 0.88027723E+03</pdfrwt>
<totfact> 0.56353871E+00</totfact>
</mgrwt>
</event>
<event>
 4    1  0.1726795E-008  0.6125959E+03  0.7818608E-02  0.9879613E-01
         -2   -1    0    0    0  501 -0.00000000000E+00  0.00000000000E+00  0.76792192267E+03  0.76792192267E+03  0.25500000000E-02 0.  1.
          2   -1    0    0  501    0  0.00000000000E+00 -0.00000000000E+00 -0.15546428596E+04  0.15546428596E+04  0.25500000000E-02 0. -1.
    8880022    1    1    2    0    0  0.36171102229E+03  0.47015658528E+03 -0.13549551693E+04  0.14870027714E+04  0.15294330000E+03 0. -1.
    8880022    1    1    2    0    0 -0.36171102229E+03 -0.47015658528E+03  0.56823423231E+03  0.83556201093E+03  0.15294330000E+03 0.  0.
<mgrwt>
<rscale>  0 0.61259590E+03</rscale>
<asrwt>0</asrwt>
<pdfrwt beam="1">  1        2 0.23917582E+00 0.61259590E+03</pdfrwt>
<pdfrwt beam="2">  1       -2 0.11814183E+00 0.61259590E+03</pdfrwt>
<totfact> 0.68477280E+00</totfact>
</mgrwt>
</event>
<event>
 4    1  0.1726795E-008  0.2548817E+03  0.7818608E-02  0.1110258E+00
          2   -1    0    0  501    0  0.00000000000E+00  0.00000000000E+00  0.20640920125E+04  0.20640920125E+04  0.25500000000E-02 0. -1.
         -2   -1    0    0    0  501 -0.00000000000E+00 -0.00000000000E+00 -0.12237335695E+03  0.12237335698E+03  0.25500000000E-02 0.  1.
    8880022    1    1    2    0    0  0.27341390973E+01  0.20387626716E+03  0.19130748120E+04  0.19299792478E+04  0.15294330000E+03 0. -1.
    8880022    1    1    2    0    0 -0.27341390973E+01 -0.20387626716E+03  0.28643843617E+02  0.25648612169E+03  0.15294330000E+03 0.  0.
<mgrwt>
<rscale>  0 0.25488166E+03</rscale>
<asrwt>0</asrwt>
<pdfrwt beam="1">  1        2 0.31755261E+00 0.25488166E+03</pdfrwt>
<pdfrwt beam="2">  1       -2 0.18826671E-01 0.25488166E+03</pdfrwt>
<totfact> 0.16205631E+02</totfact>
</mgrwt>
</event>
<event>
 4    1  0.1726795E-008  0.6633827E+03  0.7818608E-02  0.9781987E-01
          2   -1    0    0  501    0  0.00000000000E+00  0.00000000000E+00  0.33475717901E+04  0.33475717901E+04  0.25500000000E-02 0. -1.
         -2   -1    0    0    0  501 -0.00000000000E+00 -0.00000000000E+00 -0.10983519429E+04  0.10983519429E+04  0.25500000000E-02 0.  1.
    8880022    1    1    2    0    0 -0.32609244213E+02 -0.64468718099E+03 -0.96108075753E+03  0.11677982701E+04  0.15294330000E+03 0.  0.
    8880022    1    1    2    0    0  0.32609244213E+02  0.64468718099E+03  0.32103006048E+04  0.32781254628E+04  0.15294330000E+03 0.  0.
<mgrwt>
<rscale>  0 0.66338268E+03</rscale>
<asrwt>0</asrwt>
<pdfrwt beam="1">  1        2 0.51501104E+00 0.66338268E+03</pdfrwt>
<pdfrwt beam="2">  1       -2 0.16897722E+00 0.66338268E+03</pdfrwt>
<totfact> 0.24963597E-01</totfact>
</mgrwt>
</event>
<event>
 4    1  0.1726795E-008  0.7121634E+03  0.7818608E-02  0.9696654E-01
         -2   -1    0    0    0  501 -0.00000000000E+00  0.00000000000E+00  0.45720920300E+03  0.45720920301E+03  0.25500000000E-02 0.  1.
          2   -1    0    0  501    0  0.00000000000E+00 -0.00000000000E+00 -0.16245390761E+04  0.16245390761E+04  0.25500000000E-02 0. -1.
    8880022    1    1    2    0    0  0.10223319048E+03 -0.68799236115E+03 -0.11698604810E+04  0.13695803416E+04  0.15294330000E+03 0.  0.
    8880022    1    1    2    0    0 -0.10223319048E+03  0.68799236115E+03  0.25306078388E+01  0.71216793752E+03  0.15294330000E+03 0.  0.
<mgrwt>
<rscale>  0 0.71216344E+03</rscale>
<asrwt>0</asrwt>
<pdfrwt beam="1">  1        2 0.24992909E+00 0.71216344E+03</pdfrwt>
<pdfrwt beam="2">  1       -2 0.70339878E-01 0.71216344E+03</pdfrwt>
<totfact> 0.20495096E+01</totfact>
</mgrwt>
</event>
<event>
 4    1  0.2017691E-008  0.9508021E+03  0.7818608E-02  0.9364214E-01
          2   -1    0    0  501    0  0.00000000000E+00  0.00000000000E+00  0.25762910550E+04  0.25762910550E+04  0.25500000000E-02 0. -1.
         -2   -1    0    0    0  501 -0.00000000000E+00 -0.00000000000E+00 -0.24387617187E+04  0.24387617187E+04  0.25500000000E-02 0.  1.
    8880022    1    1    2    0    0 -0.20449081243E+02 -0.93819765714E+03  0.23888904291E+04  0.25711519099E+04  0.15294330000E+03 0.  0.
    8880022    1    1    2    0    0  0.20449081243E+02  0.93819765714E+03 -0.22513610928E+04  0.24439008638E+04  0.15294330000E+03 0.  0.
<mgrwt>
<rscale>  0 0.95080211E+03</rscale>
<asrwt>0</asrwt>
<pdfrwt beam="1">  1        2 0.39635247E+00 0.95080211E+03</pdfrwt>
<pdfrwt beam="2">  1       -2 0.37519411E+00 0.95080211E+03</pdfrwt>
<totfact> 0.35243266E-02</totfact>
</mgrwt>
</event>
<event>
 4    1  0.1726795E-008  0.1189588E+04  0.7818608E-02  0.9122019E-01
          2   -1    0    0  501    0  0.00000000000E+00  0.00000000000E+00  0.11958738870E+04  0.11958738870E+04  0.25500000000E-02 0. -1.
         -2   -1    0    0    0  501 -0.00000000000E+00 -0.00000000000E+00 -0.13764794006E+04  0.13764794006E+04  0.25500000000E-02 0.  1.
    8880022    1    1    2    0    0  0.11553290641E+04 -0.23862726205E+03  0.39148571570E+03  0.12523501647E+04  0.15294330000E+03 0.  0.
    8880022    1    1    2    0    0 -0.11553290641E+04  0.23862726205E+03 -0.57209122932E+03  0.13200031228E+04  0.15294330000E+03 0.  0.
<mgrwt>
<rscale>  0 0.11895881E+04</rscale>
<asrwt>0</asrwt>
<pdfrwt beam="1">  1        2 0.18398060E+00 0.11895881E+04</pdfrwt>
<pdfrwt beam="2">  1       -2 0.21176606E+00 0.11895881E+04</pdfrwt>
<totfact> 0.20658946E+00</totfact>
</mgrwt>
</event>
<event>
 4    1  0.1726795E-008  0.7021594E+03  0.7818608E-02  0.9713546E-01
         -2   -1    0    0    0  501 -0.00000000000E+00  0.00000000000E+00  0.65108847013E+03  0.65108847014E+03  0.25500000000E-02 0.  1.
          2   -1    0    0  501    0  0.00000000000E+00 -0.00000000000E+00 -0.34030050311E+04  0.34030050311E+04  0.25500000000E-02 0. -1.
    8880022    1    1    2    0    0 -0.39391842144E+03 -0.56077135085E+03 -0.31633033299E+04  0.32402956409E+04  0.15294330000E+03 0.  0.
    8880022    1    1    2    0    0  0.39391842144E+03  0.56077135085E+03  0.41138676897E+03  0.81379786027E+03  0.15294330000E+03 0.  0.
<mgrwt>
<rscale>  0 0.70215944E+03</rscale>
<asrwt>0</asrwt>
<pdfrwt beam="1">  1        2 0.52353922E+00 0.70215944E+03</pdfrwt>
<pdfrwt beam="2">  1       -2 0.10016746E+00 0.70215944E+03</pdfrwt>
<totfact> 0.85661846E-01</totfact>
</mgrwt>
</event>
<event>
 4    1  0.1726795E-008  0.1370504E+04  0.7818608E-02  0.8975450E-01
         -2   -1    0    0    0  501 -0.00000000000E+00  0.00000000000E+00  0.99190517330E+03  0.99190517330E+03  0.25500000000E-02 0.  1.
          2   -1    0    0  501    0  0.00000000000E+00 -0.00000000000E+00 -0.25004663914E+04  0.25004663914E+04  0.25500000000E-02 0. -1.
    8880022    1    1    2    0    0  0.24780987069E+03 -0.13392089807E+04 -0.16145267107E+04  0.21177768009E+04  0.15294330000E+03 0.  0.
    8880022    1    1    2    0    0 -0.24780987069E+03  0.13392089807E+04  0.10596549259E+03  0.13745947638E+04  0.15294330000E+03 0.  0.
<mgrwt>
<rscale>  0 0.13705043E+04</rscale>
<asrwt>0</asrwt>
<pdfrwt beam="1">  1        2 0.38468714E+00 0.13705043E+04</pdfrwt>
<pdfrwt beam="2">  1       -2 0.15260080E+00 0.13705043E+04</pdfrwt>
<totfact> 0.95366916E-01</totfact>
</mgrwt>
</event>
<event>
 4    1  0.1726795E-008  0.1376715E+04  0.7818608E-02  0.8970848E-01
         -2   -1    0    0    0  501 -0.00000000000E+00  0.00000000000E+00  0.15067184291E+04  0.15067184291E+04  0.25500000000E-02 0.  1.
          2   -1    0    0  501    0  0.00000000000E+00 -0.00000000000E+00 -0.20137148030E+04  0.20137148030E+04  0.25500000000E-02 0. -1.
    8880022    1    1    2    0    0 -0.16572114044E+03 -0.13581196830E+04  0.82486886773E+03  0.16049152226E+04  0.15294330000E+03 0.  0.
    8880022    1    1    2    0    0  0.16572114044E+03  0.13581196830E+04 -0.13318652417E+04  0.19155180095E+04  0.15294330000E+03 0.  0.
<mgrwt>
<rscale>  0 0.13767150E+04</rscale>
<asrwt>0</asrwt>
<pdfrwt beam="1">  1        2 0.30980228E+00 0.13767150E+04</pdfrwt>
<pdfrwt beam="2">  1       -2 0.23180284E+00 0.13767150E+04</pdfrwt>
<totfact> 0.52002424E-01</totfact>
</mgrwt>
</event>
<event>
 4    1  0.1726795E-008  0.6654205E+03  0.7818608E-02  0.9778266E-01
         -2   -1    0    0    0  501 -0.00000000000E+00  0.00000000000E+00  0.21789886350E+03  0.21789886351E+03  0.25500000000E-02 0.  1.
          2   -1    0    0  501    0  0.00000000000E+00 -0.00000000000E+00 -0.24644279101E+04  0.24644279101E+04  0.25500000000E-02 0. -1.
    8880022    1    1    2    0    0 -0.26009705551E+03  0.59307863913E+03 -0.56150761396E+03  0.87067514265E+03  0.15294330000E+03 0.  0.
    8880022    1    1    2    0    0  0.26009705551E+03 -0.59307863913E+03 -0.16850214326E+04  0.18116516309E+04  0.15294330000E+03 0.  0.
<mgrwt>
<rscale>  0 0.66542047E+03</rscale>
<asrwt>0</asrwt>
<pdfrwt beam="1">  1        2 0.37914274E+00 0.66542047E+03</pdfrwt>
<pdfrwt beam="2">  1       -2 0.33522904E-01 0.66542047E+03</pdfrwt>
<totfact> 0.32051593E+01</totfact>
</mgrwt>
</event>
<event>
 4    1  0.1726795E-008  0.8950180E+03  0.7818608E-02  0.9431831E-01
         -2   -1    0    0    0  501 -0.00000000000E+00  0.00000000000E+00  0.88339884412E+03  0.88339884413E+03  0.25500000000E-02 0.  1.
          2   -1    0    0  501    0  0.00000000000E+00 -0.00000000000E+00 -0.18617294456E+04  0.18617294456E+04  0.25500000000E-02 0. -1.
    8880022    1    1    2    0    0 -0.56708359597E+03  0.67533824065E+03 -0.14721851628E+04  0.17229005632E+04  0.15294330000E+03 0.  0.
    8880022    1    1    2    0    0  0.56708359597E+03 -0.67533824065E+03  0.49385456133E+03  0.10222277265E+04  0.15294330000E+03 0.  0.
<mgrwt>
<rscale>  0 0.89501799E+03</rscale>
<asrwt>0</asrwt>
<pdfrwt beam="1">  1        2 0.28641991E+00 0.89501799E+03</pdfrwt>
<pdfrwt beam="2">  1       -2 0.13590751E+00 0.89501799E+03</pdfrwt>
<totfact> 0.31250791E+00</totfact>
</mgrwt>
</event>
<event>
 4    1  0.1726795E-008  0.8634766E+03  0.7818608E-02  0.9472426E-01
          2   -1    0    0  501    0  0.00000000000E+00  0.00000000000E+00  0.17543680572E+04  0.17543680572E+04  0.25500000000E-02 0. -1.
         -2   -1    0    0    0  501 -0.00000000000E+00 -0.00000000000E+00 -0.14321090028E+04  0.14321090029E+04  0.25500000000E-02 0.  1.
    8880022    1    1    2    0    0  0.81267449644E+03  0.24851628706E+03  0.14972105494E+04  0.17283608606E+04  0.15294330000E+03 0.  0.
    8880022    1    1    2    0    0 -0.81267449644E+03 -0.24851628706E+03 -0.11749514951E+04  0.14581161994E+04  0.15294330000E+03 0.  0.
<mgrwt>
<rscale>  0 0.86347660E+03</rscale>
<asrwt>0</asrwt>
<pdfrwt beam="1">  1        2 0.26990278E+00 0.86347660E+03</pdfrwt>
<pdfrwt beam="2">  1       -2 0.22032446E+00 0.86347660E+03</pdfrwt>
<totfact> 0.91726986E-01</totfact>
</mgrwt>
</event>
<event>
 4    1  0.1726795E-008  0.5070026E+03  0.7818608E-02  0.1011967E+00
         -2   -1    0    0    0  501 -0.00000000000E+00  0.00000000000E+00  0.26358988332E+03  0.26358988333E+03  0.25500000000E-02 0.  1.
          2   -1    0    0  501    0  0.00000000000E+00 -0.00000000000E+00 -0.17380377078E+04  0.17380377078E+04  0.25500000000E-02 0. -1.
    8880022    1    1    2    0    0 -0.39930012101E+03  0.27243244422E+03 -0.14002659044E+04  0.14892267387E+04  0.15294330000E+03 0.  0.
    8880022    1    1    2    0    0  0.39930012101E+03 -0.27243244422E+03 -0.74181920120E+02  0.51240085244E+03  0.15294330000E+03 0.  0.
<mgrwt>
<rscale>  0 0.50700264E+03</rscale>
<asrwt>0</asrwt>
<pdfrwt beam="1">  1        2 0.26739041E+00 0.50700264E+03</pdfrwt>
<pdfrwt beam="2">  1       -2 0.40552291E-01 0.50700264E+03</pdfrwt>
<totfact> 0.56930953E+01</totfact>
</mgrwt>
</event>
<event>
 4    1  0.1726795E-008  0.7890113E+03  0.7818608E-02  0.9576060E-01
          2   -1    0    0  501    0  0.00000000000E+00  0.00000000000E+00  0.74503873358E+03  0.74503873359E+03  0.25500000000E-02 0. -1.
         -2   -1    0    0    0  501 -0.00000000000E+00 -0.00000000000E+00 -0.17867237597E+04  0.17867237597E+04  0.25500000000E-02 0.  1.
    8880022    1    1    2    0    0 -0.70467627941E+03 -0.32027888793E+03 -0.14444501625E+04  0.16458964578E+04  0.15294330000E+03 0.  0.
    8880022    1    1    2    0    0  0.70467627941E+03  0.32027888793E+03  0.40276513635E+03  0.88586603552E+03  0.15294330000E+03 0.  0.
<mgrwt>
<rscale>  0 0.78901133E+03</rscale>
<asrwt>0</asrwt>
<pdfrwt beam="1">  1        2 0.11462134E+00 0.78901133E+03</pdfrwt>
<pdfrwt beam="2">  1       -2 0.27488058E+00 0.78901133E+03</pdfrwt>
<totfact> 0.17642168E+00</totfact>
</mgrwt>
</event>
<event>
 4    1  0.1726795E-008  0.6083937E+03  0.7818608E-02  0.9888143E-01
          2   -1    0    0  501    0  0.00000000000E+00  0.00000000000E+00  0.57631774435E+03  0.57631774435E+03  0.25500000000E-02 0. -1.
         -2   -1    0    0    0  501 -0.00000000000E+00 -0.00000000000E+00 -0.86092663840E+03  0.86092663840E+03  0.25500000000E-02 0.  1.
    8880022    1    1    2    0    0 -0.13272083595E+03 -0.57370410875E+03 -0.50447564565E+03  0.79034078394E+03  0.15294330000E+03 0.  0.
    8880022    1    1    2    0    0  0.13272083595E+03  0.57370410875E+03  0.21986675160E+03  0.64690359882E+03  0.15294330000E+03 0.  0.
<mgrwt>
<rscale>  0 0.60839369E+03</rscale>
<asrwt>0</asrwt>
<pdfrwt beam="1">  1        2 0.88664269E-01 0.60839369E+03</pdfrwt>
<pdfrwt beam="2">  1       -2 0.13245025E+00 0.60839369E+03</pdfrwt>
<totfact> 0.22150607E+01</totfact>
</mgrwt>
</event>
<event>
 4    1  0.1726795E-008  0.5853322E+03  0.7818608E-02  0.9936313E-01
         -2   -1    0    0    0  501 -0.00000000000E+00  0.00000000000E+00  0.31328983550E+03  0.31328983551E+03  0.25500000000E-02 0.  1.
          2   -1    0    0  501    0  0.00000000000E+00 -0.00000000000E+00 -0.31344459433E+04  0.31344459433E+04  0.25500000000E-02 0. -1.
    8880022    1    1    2    0    0  0.56306944503E+03  0.46636400409E+02 -0.19573074423E+02  0.58565938226E+03  0.15294330000E+03 0.  0.
    8880022    1    1    2    0    0 -0.56306944503E+03 -0.46636400409E+02 -0.28015830334E+04  0.28620763965E+04  0.15294330000E+03 0.  0.
<mgrwt>
<rscale>  0 0.58533222E+03</rscale>
<asrwt>0</asrwt>
<pdfrwt beam="1">  1        2 0.48222243E+00 0.58533222E+03</pdfrwt>
<pdfrwt beam="2">  1       -2 0.48198438E-01 0.58533222E+03</pdfrwt>
<totfact> 0.64679769E+00</totfact>
</mgrwt>
</event>
<event>
 4    1  0.1726795E-008  0.8630303E+03  0.7818608E-02  0.9473013E-01
         -2   -1    0    0    0  501 -0.00000000000E+00  0.00000000000E+00  0.78719864798E+03  0.78719864798E+03  0.25500000000E-02 0.  1.
          2   -1    0    0  501    0  0.00000000000E+00 -0.00000000000E+00 -0.27868990694E+04  0.27868990694E+04  0.25500000000E-02 0. -1.
    8880022    1    1    2    0    0 -0.33547713702E+03  0.78031068919E+03  0.45249916672E+03  0.97446232868E+03  0.15294330000E+03 0.  1.
    8880022    1    1    2    0    0  0.33547713702E+03 -0.78031068919E+03 -0.24521995882E+04  0.25996353887E+04  0.15294330000E+03 0.  0.
<mgrwt>
<rscale>  0 0.86303032E+03</rscale>
<asrwt>0</asrwt>
<pdfrwt beam="1">  1        2 0.42875370E+00 0.86303032E+03</pdfrwt>
<pdfrwt beam="2">  1       -2 0.12110749E+00 0.86303032E+03</pdfrwt>
<totfact> 0.12672757E+00</totfact>
</mgrwt>
</event>
<event>
 4    1  0.1726795E-008  0.2838505E+03  0.7818608E-02  0.1093604E+00
          2   -1    0    0  501    0  0.00000000000E+00  0.00000000000E+00  0.22522916476E+03  0.22522916477E+03  0.25500000000E-02 0. -1.
         -2   -1    0    0    0  501 -0.00000000000E+00 -0.00000000000E+00 -0.11644718660E+04  0.11644718660E+04  0.25500000000E-02 0.  1.
    8880022    1    1    2    0    0 -0.18437522703E+03 -0.15226698847E+03 -0.10479761184E+04  0.10857371034E+04  0.15294330000E+03 0.  0.
    8880022    1    1    2    0    0  0.18437522703E+03  0.15226698847E+03  0.10873341710E+03  0.30396392735E+03  0.15294330000E+03 0. -1.
<mgrwt>
<rscale>  0 0.28385051E+03</rscale>
<asrwt>0</asrwt>
<pdfrwt beam="1">  1        2 0.34650641E-01 0.28385051E+03</pdfrwt>
<pdfrwt beam="2">  1       -2 0.17914951E+00 0.28385051E+03</pdfrwt>
<totfact> 0.29635849E+01</totfact>
</mgrwt>
</event>
<event>
 4    1  0.1726795E-008  0.5948619E+03  0.7818608E-02  0.9916124E-01
          2   -1    0    0  501    0  0.00000000000E+00  0.00000000000E+00  0.14408384883E+04  0.14408384883E+04  0.25500000000E-02 0. -1.
         -2   -1    0    0    0  501 -0.00000000000E+00 -0.00000000000E+00 -0.42007524064E+03  0.42007524064E+03  0.25500000000E-02 0.  1.
    8880022    1    1    2    0    0 -0.57348621500E+03  0.39782187353E+02 -0.89281810198E+02  0.60152469265E+03  0.15294330000E+03 0.  1.
    8880022    1    1    2    0    0  0.57348621500E+03 -0.39782187353E+02  0.11100450578E+04  0.12593890362E+04  0.15294330000E+03 0.  0.
<mgrwt>
<rscale>  0 0.59486193E+03</rscale>
<asrwt>0</asrwt>
<pdfrwt beam="1">  1        2 0.22166746E+00 0.59486193E+03</pdfrwt>
<pdfrwt beam="2">  1       -2 0.64626960E-01 0.59486193E+03</pdfrwt>
<totfact> 0.31595675E+01</totfact>
</mgrwt>
</event>
<event>
 4    1  0.1726795E-008  0.9661161E+03  0.7818608E-02  0.9346509E-01
          2   -1    0    0  501    0  0.00000000000E+00  0.00000000000E+00  0.28530677209E+04  0.28530677209E+04  0.25500000000E-02 0. -1.
         -2   -1    0    0    0  501 -0.00000000000E+00 -0.00000000000E+00 -0.48638566040E+03  0.48638566041E+03  0.25500000000E-02 0.  1.
    8880022    1    1    2    0    0 -0.94033337783E+03 -0.16050478121E+03  0.22796231846E+03  0.99264652213E+03  0.15294330000E+03 0.  0.
    8880022    1    1    2    0    0  0.94033337783E+03  0.16050478121E+03  0.21387197420E+04  0.23468068591E+04  0.15294330000E+03 0. -1.
<mgrwt>
<rscale>  0 0.96611609E+03</rscale>
<asrwt>0</asrwt>
<pdfrwt beam="1">  1        2 0.43893348E+00 0.96611609E+03</pdfrwt>
<pdfrwt beam="2">  1       -2 0.74828566E-01 0.96611609E+03</pdfrwt>
<totfact> 0.35255372E+00</totfact>
</mgrwt>
</event>
<event>
 4    1  0.1726795E-008  0.7782855E+03  0.7818608E-02  0.9591991E-01
         -2   -1    0    0    0  501 -0.00000000000E+00  0.00000000000E+00  0.12609817472E+04  0.12609817472E+04  0.25500000000E-02 0.  1.
          2   -1    0    0  501    0  0.00000000000E+00 -0.00000000000E+00 -0.78983439977E+03  0.78983439978E+03  0.25500000000E-02 0. -1.
    8880022    1    1    2    0    0 -0.31130015866E+03  0.69672721084E+03  0.87743228815E+03  0.11728664325E+04  0.15294330000E+03 0.  0.
    8880022    1    1    2    0    0  0.31130015866E+03 -0.69672721084E+03 -0.40628494073E+03  0.87794971450E+03  0.15294330000E+03 0.  0.
<mgrwt>
<rscale>  0 0.77828545E+03</rscale>
<asrwt>0</asrwt>
<pdfrwt beam="1">  1        2 0.12151299E+00 0.77828545E+03</pdfrwt>
<pdfrwt beam="2">  1       -2 0.19399719E+00 0.77828545E+03</pdfrwt>
<totfact> 0.51941460E+00</totfact>
</mgrwt>
</event>
<event>
 4    1  0.1726795E-008  0.1768665E+04  0.7818608E-02  0.8723143E-01
         -2   -1    0    0    0  501 -0.00000000000E+00  0.00000000000E+00  0.18170218736E+04  0.18170218736E+04  0.25500000000E-02 0.  1.
          2   -1    0    0  501    0  0.00000000000E+00 -0.00000000000E+00 -0.26958106329E+04  0.26958106329E+04  0.25500000000E-02 0. -1.
    8880022    1    1    2    0    0 -0.95871825540E+03 -0.14783927666E+04 -0.17958383561E+04  0.25205580572E+04  0.15294330000E+03 0.  0.
    8880022    1    1    2    0    0  0.95871825540E+03  0.14783927666E+04  0.91704959680E+03  0.19922744494E+04  0.15294330000E+03 0.  0.
<mgrwt>
<rscale>  0 0.17686655E+04</rscale>
<asrwt>0</asrwt>
<pdfrwt beam="1">  1        2 0.41474010E+00 0.17686655E+04</pdfrwt>
<pdfrwt beam="2">  1       -2 0.27954183E+00 0.17686655E+04</pdfrwt>
<totfact> 0.10284149E-01</totfact>
</mgrwt>
</event>
<event>
 4    1  0.1726795E-008  0.6073327E+03  0.7818608E-02  0.9890309E-01
         -2   -1    0    0    0  501 -0.00000000000E+00  0.00000000000E+00  0.99778718955E+03  0.99778718955E+03  0.25500000000E-02 0.  1.
          2   -1    0    0  501    0  0.00000000000E+00 -0.00000000000E+00 -0.31962405634E+04  0.31962405634E+04  0.25500000000E-02 0. -1.
    8880022    1    1    2    0    0  0.53310267674E+03 -0.24751340582E+03  0.87279375642E+03  0.10633070790E+04  0.15294330000E+03 0.  0.
    8880022    1    1    2    0    0 -0.53310267674E+03  0.24751340582E+03 -0.30712471302E+04  0.31307206739E+04  0.15294330000E+03 0. -1.
<mgrwt>
<rscale>  0 0.60733270E+03</rscale>
<asrwt>0</asrwt>
<pdfrwt beam="1">  1        2 0.49172931E+00 0.60733270E+03</pdfrwt>
<pdfrwt beam="2">  1       -2 0.15350572E+00 0.60733270E+03</pdfrwt>
<totfact> 0.41218983E-01</totfact>
</mgrwt>
</event>
<event>
 4    1  0.1726795E-008  0.1004495E+04  0.7818608E-02  0.9303628E-01
          2   -1    0    0  501    0  0.00000000000E+00  0.00000000000E+00  0.96065341560E+03  0.96065341561E+03  0.25500000000E-02 0. -1.
         -2   -1    0    0    0  501 -0.00000000000E+00 -0.00000000000E+00 -0.18726558776E+04  0.18726558776E+04  0.25500000000E-02 0.  1.
    8880022    1    1    2    0    0  0.74123813959E+03  0.66044300772E+03 -0.13947619723E+04  0.17188285424E+04  0.15294330000E+03 0.  0.
    8880022    1    1    2    0    0 -0.74123813959E+03 -0.66044300772E+03  0.48275951027E+03  0.11144807508E+04  0.15294330000E+03 0.  0.
<mgrwt>
<rscale>  0 0.10044952E+04</rscale>
<asrwt>0</asrwt>
<pdfrwt beam="1">  1        2 0.14779283E+00 0.10044952E+04</pdfrwt>
<pdfrwt beam="2">  1       -2 0.28810090E+00 0.10044952E+04</pdfrwt>
<totfact> 0.10055154E+00</totfact>
</mgrwt>
</event>
<event>
 4    1  0.1726795E-008  0.1007978E+04  0.7818608E-02  0.9299837E-01
          2   -1    0    0  501    0  0.00000000000E+00  0.00000000000E+00  0.18702467851E+04  0.18702467851E+04  0.25500000000E-02 0. -1.
         -2   -1    0    0    0  501 -0.00000000000E+00 -0.00000000000E+00 -0.60013765842E+03  0.60013765842E+03  0.25500000000E-02 0.  1.
    8880022    1    1    2    0    0 -0.94782841244E+03  0.30700200983E+03  0.25477785497E+03  0.10396789610E+04  0.15294330000E+03 0.  0.
    8880022    1    1    2    0    0  0.94782841244E+03 -0.30700200983E+03  0.10153312717E+04  0.14307054825E+04  0.15294330000E+03 0.  0.
<mgrwt>
<rscale>  0 0.10079785E+04</rscale>
<asrwt>0</asrwt>
<pdfrwt beam="1">  1        2 0.28773027E+00 0.10079785E+04</pdfrwt>
<pdfrwt beam="2">  1       -2 0.92328871E-01 0.10079785E+04</pdfrwt>
<totfact> 0.78460707E+00</totfact>
</mgrwt>
</event>
<event>
 4    1  0.1726795E-008  0.2315879E+04  0.7818608E-02  0.8471686E-01
          2   -1    0    0  501    0  0.00000000000E+00  0.00000000000E+00  0.19823257912E+04  0.19823257912E+04  0.25500000000E-02 0. -1.
         -2   -1    0    0    0  501 -0.00000000000E+00 -0.00000000000E+00 -0.41090286496E+04  0.41090286496E+04  0.25500000000E-02 0.  1.
    8880022    1    1    2    0    0  0.22985479916E+04  0.23787092554E+03  0.71663209098E+03  0.24242233094E+04  0.15294330000E+03 0.  0.
    8880022    1    1    2    0    0 -0.22985479916E+04 -0.23787092554E+03 -0.28433349494E+04  0.36671311313E+04  0.15294330000E+03 0.  0.
<mgrwt>
<rscale>  0 0.23158793E+04</rscale>
<asrwt>0</asrwt>
<pdfrwt beam="1">  1        2 0.30497320E+00 0.23158793E+04</pdfrwt>
<pdfrwt beam="2">  1       -2 0.63215825E+00 0.23158793E+04</pdfrwt>
<totfact> 0.21991167E-03</totfact>
</mgrwt>
</event>
<event>
 4    1  0.1726795E-008  0.1084696E+04  0.7818608E-02  0.9220238E-01
         -2   -1    0    0    0  501 -0.00000000000E+00  0.00000000000E+00  0.17420229232E+04  0.17420229232E+04  0.25500000000E-02 0.  1.
          2   -1    0    0  501    0  0.00000000000E+00 -0.00000000000E+00 -0.13630202913E+04  0.13630202913E+04  0.25500000000E-02 0. -1.
    8880022    1    1    2    0    0 -0.87128681903E+03 -0.62771979864E+03 -0.91320643942E+03  0.14179247232E+04  0.15294330000E+03 0.  0.
    8880022    1    1    2    0    0  0.87128681903E+03  0.62771979864E+03  0.12922090713E+04  0.16871184913E+04  0.15294330000E+03 0.  0.
<mgrwt>
<rscale>  0 0.10846956E+04</rscale>
<asrwt>0</asrwt>
<pdfrwt beam="1">  1        2 0.20969543E+00 0.10846956E+04</pdfrwt>
<pdfrwt beam="2">  1       -2 0.26800353E+00 0.10846956E+04</pdfrwt>
<totfact> 0.74827609E-01</totfact>
</mgrwt>
</event>
<event>
 4    1  0.1726795E-008  0.1113674E+04  0.7818608E-02  0.9191966E-01
         -2   -1    0    0    0  501 -0.00000000000E+00  0.00000000000E+00  0.75536137528E+03  0.75536137528E+03  0.25500000000E-02 0.  1.
          2   -1    0    0  501    0  0.00000000000E+00 -0.00000000000E+00 -0.24954033195E+04  0.24954033195E+04  0.25500000000E-02 0. -1.
    8880022    1    1    2    0    0  0.67139949273E+03  0.87527196189E+03  0.80526020867E+02  0.11165815596E+04  0.15294330000E+03 0.  0.
    8880022    1    1    2    0    0 -0.67139949273E+03 -0.87527196189E+03 -0.18205679651E+04  0.21341831352E+04  0.15294330000E+03 0.  0.
<mgrwt>
<rscale>  0 0.11136741E+04</rscale>
<asrwt>0</asrwt>
<pdfrwt beam="1">  1        2 0.38390820E+00 0.11136741E+04</pdfrwt>
<pdfrwt beam="2">  1       -2 0.11620944E+00 0.11136741E+04</pdfrwt>
<totfact> 0.19964932E+00</totfact>
</mgrwt>
</event>
<event>
 4    1  0.1726795E-008  0.2204321E+04  0.7818608E-02  0.8516632E-01
         -2   -1    0    0    0  501 -0.00000000000E+00  0.00000000000E+00  0.32930499308E+04  0.32930499308E+04  0.25500000000E-02 0.  1.
          2   -1    0    0  501    0  0.00000000000E+00 -0.00000000000E+00 -0.27083995554E+04  0.27083995554E+04  0.25500000000E-02 0. -1.
    8880022    1    1    2    0    0 -0.10799783256E+04 -0.19155381993E+04 -0.17322147698E+04  0.28034977151E+04  0.15294330000E+03 0.  0.
    8880022    1    1    2    0    0  0.10799783256E+04  0.19155381993E+04  0.23168651452E+04  0.31979517712E+04  0.15294330000E+03 0.  0.
<mgrwt>
<rscale>  0 0.22043211E+04</rscale>
<asrwt>0</asrwt>
<pdfrwt beam="1">  1        2 0.41667685E+00 0.22043211E+04</pdfrwt>
<pdfrwt beam="2">  1       -2 0.50662307E+00 0.22043211E+04</pdfrwt>
<totfact> 0.33522452E-03</totfact>
</mgrwt>
</event>
<event>
 4    1  0.1726795E-008  0.6682458E+03  0.7818608E-02  0.9773132E-01
          2   -1    0    0  501    0  0.00000000000E+00  0.00000000000E+00  0.13120802673E+04  0.13120802673E+04  0.25500000000E-02 0. -1.
         -2   -1    0    0    0  501 -0.00000000000E+00 -0.00000000000E+00 -0.83182591131E+03  0.83182591131E+03  0.25500000000E-02 0.  1.
    8880022    1    1    2    0    0  0.47737877872E+03  0.44189393154E+03  0.10641048270E+04  0.12565315280E+04  0.15294330000E+03 0.  0.
    8880022    1    1    2    0    0 -0.47737877872E+03 -0.44189393154E+03 -0.58385047095E+03  0.88737465062E+03  0.15294330000E+03 0.  0.
<mgrwt>
<rscale>  0 0.66824576E+03</rscale>
<asrwt>0</asrwt>
<pdfrwt beam="1">  1        2 0.20185850E+00 0.66824576E+03</pdfrwt>
<pdfrwt beam="2">  1       -2 0.12797322E+00 0.66824576E+03</pdfrwt>
<totfact> 0.76009095E+00</totfact>
</mgrwt>
</event>
<event>
 4    1  0.1726795E-008  0.4998865E+03  0.7818608E-02  0.1013809E+00
         -2   -1    0    0    0  501 -0.00000000000E+00  0.00000000000E+00  0.26489690254E+03  0.26489690255E+03  0.25500000000E-02 0.  1.
          2   -1    0    0  501    0  0.00000000000E+00 -0.00000000000E+00 -0.22890520342E+04  0.22890520342E+04  0.25500000000E-02 0. -1.
    8880022    1    1    2    0    0 -0.47578334047E+03  0.11182748042E+02 -0.19911870831E+04  0.20529764962E+04  0.15294330000E+03 0.  0.
    8880022    1    1    2    0    0  0.47578334047E+03 -0.11182748042E+02 -0.32968048497E+02  0.50097244052E+03  0.15294330000E+03 0.  0.
<mgrwt>
<rscale>  0 0.49988648E+03</rscale>
<asrwt>0</asrwt>
<pdfrwt beam="1">  1        2 0.35216184E+00 0.49988648E+03</pdfrwt>
<pdfrwt beam="2">  1       -2 0.40753371E-01 0.49988648E+03</pdfrwt>
<totfact> 0.28446494E+01</totfact>
</mgrwt>
</event>
<event>
 4    1  0.1726795E-008  0.1064808E+04  0.7818608E-02  0.9240188E-01
         -2   -1    0    0    0  501 -0.00000000000E+00  0.00000000000E+00  0.50336038177E+03  0.50336038178E+03  0.25500000000E-02 0.  1.
          2   -1    0    0  501    0  0.00000000000E+00 -0.00000000000E+00 -0.42194041697E+04  0.42194041697E+04  0.25500000000E-02 0. -1.
    8880022    1    1    2    0    0  0.98401549141E+03 -0.37701050547E+03 -0.24576866051E+03  0.10928024964E+04  0.15294330000E+03 0.  0.
    8880022    1    1    2    0    0 -0.98401549141E+03  0.37701050547E+03 -0.34702751274E+04  0.36299620551E+04  0.15294330000E+03 0.  0.
<mgrwt>
<rscale>  0 0.10648075E+04</rscale>
<asrwt>0</asrwt>
<pdfrwt beam="1">  1        2 0.64913908E+00 0.10648075E+04</pdfrwt>
<pdfrwt beam="2">  1       -2 0.77440062E-01 0.10648075E+04</pdfrwt>
<totfact> 0.34867578E-01</totfact>
</mgrwt>
</event>
<event>
 4    1  0.1726795E-008  0.6047268E+03  0.7818608E-02  0.9895648E-01
          2   -1    0    0  501    0  0.00000000000E+00  0.00000000000E+00  0.26458144582E+04  0.26458144582E+04  0.25500000000E-02 0. -1.
         -2   -1    0    0    0  501 -0.00000000000E+00 -0.00000000000E+00 -0.78076376486E+03  0.78076376487E+03  0.25500000000E-02 0.  1.
    8880022    1    1    2    0    0 -0.51825165686E+03 -0.27151067426E+03  0.24867846068E+04  0.25592561731E+04  0.15294330000E+03 0.  0.
    8880022    1    1    2    0    0  0.51825165686E+03  0.27151067426E+03 -0.62173391349E+03  0.86732204991E+03  0.15294330000E+03 0.  0.
<mgrwt>
<rscale>  0 0.60472678E+03</rscale>
<asrwt>0</asrwt>
<pdfrwt beam="1">  1        2 0.40704838E+00 0.60472678E+03</pdfrwt>
<pdfrwt beam="2">  1       -2 0.12011750E+00 0.60472678E+03</pdfrwt>
<totfact> 0.16535816E+00</totfact>
</mgrwt>
</event>
<event>
 4    1  0.1726795E-008  0.1103986E+04  0.7818608E-02  0.9201316E-01
         -2   -1    0    0    0  501 -0.00000000000E+00  0.00000000000E+00  0.25518681119E+04  0.25518681119E+04  0.25500000000E-02 0.  1.
          2   -1    0    0  501    0  0.00000000000E+00 -0.00000000000E+00 -0.49974148168E+03  0.49974148169E+03  0.25500000000E-02 0. -1.
    8880022    1    1    2    0    0 -0.69823740217E+03 -0.84134272564E+03  0.13471938421E+04  0.17417565711E+04  0.15294330000E+03 0.  0.
    8880022    1    1    2    0    0  0.69823740217E+03  0.84134272564E+03  0.70493278816E+03  0.13098530225E+04  0.15294330000E+03 0.  0.
<mgrwt>
<rscale>  0 0.11039858E+04</rscale>
<asrwt>0</asrwt>
<pdfrwt beam="1">  1        2 0.76883302E-01 0.11039858E+04</pdfrwt>
<pdfrwt beam="2">  1       -2 0.39259511E+00 0.11039858E+04</pdfrwt>
<totfact> 0.51395979E-01</totfact>
</mgrwt>
</event>
<event>
 4    1  0.1726795E-008  0.1242628E+04  0.7818608E-02  0.9076341E-01
          2   -1    0    0  501    0  0.00000000000E+00  0.00000000000E+00  0.17453271939E+04  0.17453271939E+04  0.25500000000E-02 0. -1.
         -2   -1    0    0    0  501 -0.00000000000E+00 -0.00000000000E+00 -0.11217376428E+04  0.11217376428E+04  0.25500000000E-02 0.  1.
    8880022    1    1    2    0    0 -0.45822638247E+03  0.11448852688E+04 -0.34715525882E+03  0.12902101081E+04  0.15294330000E+03 0.  0.
    8880022    1    1    2    0    0  0.45822638247E+03 -0.11448852688E+04  0.97074480987E+03  0.15768547286E+04  0.15294330000E+03 0.  0.
<mgrwt>
<rscale>  0 0.12426284E+04</rscale>
<asrwt>0</asrwt>
<pdfrwt beam="1">  1        2 0.26851188E+00 0.12426284E+04</pdfrwt>
<pdfrwt beam="2">  1       -2 0.17257502E+00 0.12426284E+04</pdfrwt>
<totfact> 0.18275889E+00</totfact>
</mgrwt>
</event>
<event>
 4    1  0.1726795E-008  0.1129280E+04  0.7818608E-02  0.9177114E-01
         -2   -1    0    0    0  501 -0.00000000000E+00  0.00000000000E+00  0.76767815946E+03  0.76767815947E+03  0.25500000000E-02 0.  1.
          2   -1    0    0  501    0  0.00000000000E+00 -0.00000000000E+00 -0.22144412668E+04  0.22144412668E+04  0.25500000000E-02 0. -1.
    8880022    1    1    2    0    0  0.83854896997E+03  0.74075511163E+03  0.21893445818E+02  0.11294925792E+04  0.15294330000E+03 0.  0.
    8880022    1    1    2    0    0 -0.83854896997E+03 -0.74075511163E+03 -0.14686565532E+04  0.18526268471E+04  0.15294330000E+03 0.  0.
<mgrwt>
<rscale>  0 0.11292804E+04</rscale>
<asrwt>0</asrwt>
<pdfrwt beam="1">  1        2 0.34068327E+00 0.11292804E+04</pdfrwt>
<pdfrwt beam="2">  1       -2 0.11810433E+00 0.11292804E+04</pdfrwt>
<totfact> 0.27604891E+00</totfact>
</mgrwt>
</event>
<event>
 4    1  0.1726795E-008  0.9818259E+03  0.7818608E-02  0.9328705E-01
         -2   -1    0    0    0  501 -0.00000000000E+00  0.00000000000E+00  0.13753864687E+04  0.13753864687E+04  0.25500000000E-02 0.  1.
          2   -1    0    0  501    0  0.00000000000E+00 -0.00000000000E+00 -0.10907162974E+04  0.10907162974E+04  0.25500000000E-02 0. -1.
    8880022    1    1    2    0    0 -0.53157952197E+03  0.81118042448E+03  0.87950211454E+03  0.13181449434E+04  0.15294330000E+03 0.  0.
    8880022    1    1    2    0    0  0.53157952197E+03 -0.81118042448E+03 -0.59483194323E+03  0.11479578228E+04  0.15294330000E+03 0.  0.
<mgrwt>
<rscale>  0 0.98182591E+03</rscale>
<asrwt>0</asrwt>
<pdfrwt beam="1">  1        2 0.16780251E+00 0.98182591E+03</pdfrwt>
<pdfrwt beam="2">  1       -2 0.21159792E+00 0.98182591E+03</pdfrwt>
<totfact> 0.24566055E+00</totfact>
</mgrwt>
</event>
<event>
 4    1  0.1726795E-008  0.6543214E+03  0.7818608E-02  0.9798704E-01
         -2   -1    0    0    0  501 -0.00000000000E+00  0.00000000000E+00  0.83589856514E+03  0.83589856514E+03  0.25500000000E-02 0.  1.
          2   -1    0    0  501    0  0.00000000000E+00 -0.00000000000E+00 -0.15545869779E+04  0.15545869779E+04  0.25500000000E-02 0. -1.
    8880022    1    1    2    0    0 -0.41093154440E+02  0.63486707148E+03  0.61939228264E+03  0.90099017675E+03  0.15294330000E+03 0.  0.
    8880022    1    1    2    0    0  0.41093154440E+02 -0.63486707148E+03 -0.13380806954E+04  0.14894953663E+04  0.15294330000E+03 0.  0.
<mgrwt>
<rscale>  0 0.65432140E+03</rscale>
<asrwt>0</asrwt>
<pdfrwt beam="1">  1        2 0.23916723E+00 0.65432140E+03</pdfrwt>
<pdfrwt beam="2">  1       -2 0.12859978E+00 0.65432140E+03</pdfrwt>
<totfact> 0.55029697E+00</totfact>
</mgrwt>
</event>
<event>
 4    1  0.1726795E-008  0.1140206E+04  0.7818608E-02  0.9166867E-01
         -2   -1    0    0    0  501 -0.00000000000E+00  0.00000000000E+00  0.77717121407E+03  0.77717121408E+03  0.25500000000E-02 0.  1.
          2   -1    0    0  501    0  0.00000000000E+00 -0.00000000000E+00 -0.30878199204E+04  0.30878199204E+04  0.25500000000E-02 0. -1.
    8880022    1    1    2    0    0 -0.82421832066E+03 -0.77287873573E+03 -0.24635131904E+04  0.27145839962E+04  0.15294330000E+03 0.  0.
    8880022    1    1    2    0    0  0.82421832066E+03  0.77287873573E+03  0.15286448406E+03  0.11504071383E+04  0.15294330000E+03 0.  0.
<mgrwt>
<rscale>  0 0.11402057E+04</rscale>
<asrwt>0</asrwt>
<pdfrwt beam="1">  1        2 0.47504921E+00 0.11402057E+04</pdfrwt>
<pdfrwt beam="2">  1       -2 0.11956480E+00 0.11402057E+04</pdfrwt>
<totfact> 0.81929205E-01</totfact>
</mgrwt>
</event>
<event>
 4    1  0.1726795E-008  0.1137502E+04  0.7818608E-02  0.9169392E-01
          2   -1    0    0  501    0  0.00000000000E+00  0.00000000000E+00  0.14093122022E+04  0.14093122022E+04  0.25500000000E-02 0. -1.
         -2   -1    0    0    0  501 -0.00000000000E+00 -0.00000000000E+00 -0.12037680351E+04  0.12037680351E+04  0.25500000000E-02 0.  1.
    8880022    1    1    2    0    0 -0.22829132375E+03 -0.11038125882E+04 -0.53368729858E+03  0.12564764001E+04  0.15294330000E+03 0.  0.
    8880022    1    1    2    0    0  0.22829132375E+03  0.11038125882E+04  0.73923146564E+03  0.13566038372E+04  0.15294330000E+03 0.  0.
<mgrwt>
<rscale>  0 0.11375020E+04</rscale>
<asrwt>0</asrwt>
<pdfrwt beam="1">  1        2 0.21681726E+00 0.11375020E+04</pdfrwt>
<pdfrwt beam="2">  1       -2 0.18519508E+00 0.11375020E+04</pdfrwt>
<totfact> 0.23322840E+00</totfact>
</mgrwt>
</event>
<event>
 4    1  0.1726795E-008  0.8452971E+03  0.7818608E-02  0.9496671E-01
          2   -1    0    0  501    0  0.00000000000E+00  0.00000000000E+00  0.25241613560E+04  0.25241613560E+04  0.25500000000E-02 0. -1.
         -2   -1    0    0    0  501 -0.00000000000E+00 -0.00000000000E+00 -0.41598665951E+03  0.41598665952E+03  0.25500000000E-02 0.  1.
    8880022    1    1    2    0    0 -0.45364623261E+03  0.69666387689E+03  0.22312576190E+03  0.87424951836E+03  0.15294330000E+03 0.  0.
    8880022    1    1    2    0    0  0.45364623261E+03 -0.69666387689E+03  0.18850489346E+04  0.20658984972E+04  0.15294330000E+03 0.  0.
<mgrwt>
<rscale>  0 0.84529706E+03</rscale>
<asrwt>0</asrwt>
<pdfrwt beam="1">  1        2 0.38833250E+00 0.84529706E+03</pdfrwt>
<pdfrwt beam="2">  1       -2 0.63997951E-01 0.84529706E+03</pdfrwt>
<totfact> 0.78651567E+00</totfact>
</mgrwt>
</event>
<event>
 4    1  0.1726795E-008  0.1134832E+04  0.7818608E-02  0.9171891E-01
         -2   -1    0    0    0  501 -0.00000000000E+00  0.00000000000E+00  0.13048024965E+04  0.13048024965E+04  0.25500000000E-02 0.  1.
          2   -1    0    0  501    0  0.00000000000E+00 -0.00000000000E+00 -0.14535798705E+04  0.14535798705E+04  0.25500000000E-02 0. -1.
    8880022    1    1    2    0    0  0.82831328298E+03  0.76049336419E+03 -0.85577601894E+03  0.14213364483E+04  0.15294330000E+03 0.  0.
    8880022    1    1    2    0    0 -0.82831328298E+03 -0.76049336419E+03  0.70699864496E+03  0.13370459187E+04  0.15294330000E+03 0.  0.
<mgrwt>
<rscale>  0 0.11348325E+04</rscale>
<asrwt>0</asrwt>
<pdfrwt beam="1">  1        2 0.22362767E+00 0.11348325E+04</pdfrwt>
<pdfrwt beam="2">  1       -2 0.20073884E+00 0.11348325E+04</pdfrwt>
<totfact> 0.17333343E+00</totfact>
</mgrwt>
</event>
<event>
 4    1  0.1726795E-008  0.7816392E+03  0.7818608E-02  0.9586981E-01
         -2   -1    0    0    0  501 -0.00000000000E+00  0.00000000000E+00  0.89814148265E+03  0.89814148266E+03  0.25500000000E-02 0.  1.
          2   -1    0    0  501    0  0.00000000000E+00 -0.00000000000E+00 -0.16082801873E+04  0.16082801873E+04  0.25500000000E-02 0. -1.
    8880022    1    1    2    0    0  0.67139648650E+03 -0.36985804732E+03  0.59690350142E+03  0.98349054915E+03  0.15294330000E+03 0.  0.
    8880022    1    1    2    0    0 -0.67139648650E+03  0.36985804732E+03 -0.13070422061E+04  0.15229311208E+04  0.15294330000E+03 0.  0.
<mgrwt>
<rscale>  0 0.78163922E+03</rscale>
<asrwt>0</asrwt>
<pdfrwt beam="1">  1        2 0.24742772E+00 0.78163922E+03</pdfrwt>
<pdfrwt beam="2">  1       -2 0.13817561E+00 0.78163922E+03</pdfrwt>
<totfact> 0.41945879E+00</totfact>
</mgrwt>
</event>
<event>
 4    1  0.1726795E-008  0.1872843E+03  0.7818608E-02  0.1160934E+00
         -2   -1    0    0    0  501 -0.00000000000E+00  0.00000000000E+00  0.35937976110E+03  0.35937976111E+03  0.25500000000E-02 0.  1.
          2   -1    0    0  501    0  0.00000000000E+00 -0.00000000000E+00 -0.38029393461E+03  0.38029393462E+03  0.25500000000E-02 0. -1.
    8880022    1    1    2    0    0  0.73140761101E+02 -0.79587534080E+02  0.30840939065E+03  0.36082094143E+03  0.15294330000E+03 0.  0.
    8880022    1    1    2    0    0 -0.73140761101E+02  0.79587534080E+02 -0.32932356417E+03  0.37885275431E+03  0.15294330000E+03 0. -1.
<mgrwt>
<rscale>  0 0.18728427E+03</rscale>
<asrwt>0</asrwt>
<pdfrwt beam="1">  1        2 0.58506759E-01 0.18728427E+03</pdfrwt>
<pdfrwt beam="2">  1       -2 0.55289194E-01 0.18728427E+03</pdfrwt>
<totfact> 0.26758226E+02</totfact>
</mgrwt>
</event>
<event>
 4    1  0.1726795E-008  0.9369954E+03  0.7818608E-02  0.9380481E-01
         -2   -1    0    0    0  501 -0.00000000000E+00  0.00000000000E+00  0.20366564005E+04  0.20366564005E+04  0.25500000000E-02 0.  1.
          2   -1    0    0  501    0  0.00000000000E+00 -0.00000000000E+00 -0.64798754940E+03  0.64798754941E+03  0.25500000000E-02 0. -1.
    8880022    1    1    2    0    0  0.59624791420E+03 -0.70643978967E+03  0.14709595020E+04  0.17440419321E+04  0.15294330000E+03 0.  0.
    8880022    1    1    2    0    0 -0.59624791420E+03  0.70643978967E+03 -0.82290650858E+02  0.94060201778E+03  0.15294330000E+03 0.  0.
<mgrwt>
<rscale>  0 0.93699541E+03</rscale>
<asrwt>0</asrwt>
<pdfrwt beam="1">  1        2 0.99690393E-01 0.93699541E+03</pdfrwt>
<pdfrwt beam="2">  1       -2 0.31333175E+00 0.93699541E+03</pdfrwt>
<totfact> 0.12073496E+00</totfact>
</mgrwt>
</event>
<event>
 4    1  0.1726795E-008  0.8638930E+03  0.7818608E-02  0.9471878E-01
          2   -1    0    0  501    0  0.00000000000E+00  0.00000000000E+00  0.12306917170E+04  0.12306917170E+04  0.25500000000E-02 0. -1.
         -2   -1    0    0    0  501 -0.00000000000E+00 -0.00000000000E+00 -0.19340821824E+04  0.19340821824E+04  0.25500000000E-02 0.  1.
    8880022    1    1    2    0    0  0.29517111285E+03 -0.79736663612E+03  0.95935602494E+03  0.12909977436E+04  0.15294330000E+03 0.  0.
    8880022    1    1    2    0    0 -0.29517111285E+03  0.79736663612E+03 -0.16627464903E+04  0.18737761559E+04  0.15294330000E+03 0.  0.
<mgrwt>
<rscale>  0 0.86389304E+03</rscale>
<asrwt>0</asrwt>
<pdfrwt beam="1">  1        2 0.18933719E+00 0.86389304E+03</pdfrwt>
<pdfrwt beam="2">  1       -2 0.29755111E+00 0.86389304E+03</pdfrwt>
<totfact> 0.61322434E-01</totfact>
</mgrwt>
</event>
<event>
 4    1  0.1726795E-008  0.5654575E+03  0.7818608E-02  0.9979781E-01
         -2   -1    0    0    0  501 -0.00000000000E+00  0.00000000000E+00  0.37828780324E+03  0.37828780325E+03  0.25500000000E-02 0.  1.
          2   -1    0    0  501    0  0.00000000000E+00 -0.00000000000E+00 -0.20344605312E+04  0.20344605312E+04  0.25500000000E-02 0. -1.
    8880022    1    1    2    0    0 -0.54318563116E+03  0.36054723462E+02  0.94250233948E+02  0.57325852160E+03  0.15294330000E+03 0.  0.
    8880022    1    1    2    0    0  0.54318563116E+03 -0.36054723462E+02 -0.17504229619E+04  0.18394898129E+04  0.15294330000E+03 0.  0.
<mgrwt>
<rscale>  0 0.56545754E+03</rscale>
<asrwt>0</asrwt>
<pdfrwt beam="1">  1        2 0.31299392E+00 0.56545754E+03</pdfrwt>
<pdfrwt beam="2">  1       -2 0.58198125E-01 0.56545754E+03</pdfrwt>
<totfact> 0.18833439E+01</totfact>
</mgrwt>
</event>
<event>
 4    1  0.1726795E-008  0.1162758E+04  0.7818608E-02  0.9146093E-01
         -2   -1    0    0    0  501 -0.00000000000E+00  0.00000000000E+00  0.73756600980E+03  0.73756600980E+03  0.25500000000E-02 0.  1.
          2   -1    0    0  501    0  0.00000000000E+00 -0.00000000000E+00 -0.23164882966E+04  0.23164882966E+04  0.25500000000E-02 0. -1.
    8880022    1    1    2    0    0  0.45320519816E+03 -0.10598210459E+04 -0.14870427086E+04  0.18876713886E+04  0.15294330000E+03 0.  0.
    8880022    1    1    2    0    0 -0.45320519816E+03  0.10598210459E+04 -0.91879578168E+02  0.11663829178E+04  0.15294330000E+03 0.  0.
<mgrwt>
<rscale>  0 0.11627585E+04</rscale>
<asrwt>0</asrwt>
<pdfrwt beam="1">  1        2 0.35638281E+00 0.11627585E+04</pdfrwt>
<pdfrwt beam="2">  1       -2 0.11347169E+00 0.11627585E+04</pdfrwt>
<totfact> 0.26593011E+00</totfact>
</mgrwt>
</event>
<event>
 4    1  0.1726795E-008  0.7227890E+03  0.7818608E-02  0.9679034E-01
          2   -1    0    0  501    0  0.00000000000E+00  0.00000000000E+00  0.27091752382E+04  0.27091752382E+04  0.25500000000E-02 0. -1.
         -2   -1    0    0    0  501 -0.00000000000E+00 -0.00000000000E+00 -0.40309807219E+03  0.40309807220E+03  0.25500000000E-02 0.  1.
    8880022    1    1    2    0    0  0.66310026886E+03  0.24357827002E+03  0.29148590693E+02  0.72337655032E+03  0.15294330000E+03 0.  0.
    8880022    1    1    2    0    0 -0.66310026886E+03 -0.24357827002E+03  0.22769285753E+04  0.23888967601E+04  0.15294330000E+03 0.  0.
<mgrwt>
<rscale>  0 0.72278904E+03</rscale>
<asrwt>0</asrwt>
<pdfrwt beam="1">  1        2 0.41679619E+00 0.72278904E+03</pdfrwt>
<pdfrwt beam="2">  1       -2 0.62015087E-01 0.72278904E+03</pdfrwt>
<totfact> 0.67174575E+00</totfact>
</mgrwt>
</event>
<event>
 4    1  0.1726795E-008  0.6095410E+03  0.7818608E-02  0.9885807E-01
         -2   -1    0    0    0  501 -0.00000000000E+00  0.00000000000E+00  0.11048514037E+04  0.11048514037E+04  0.25500000000E-02 0.  1.
          2   -1    0    0  501    0  0.00000000000E+00 -0.00000000000E+00 -0.90427392490E+03  0.90427392490E+03  0.25500000000E-02 0. -1.
    8880022    1    1    2    0    0  0.45821757452E+03 -0.37173282126E+03 -0.69586800271E+03  0.92507976208E+03  0.15294330000E+03 0. -1.
    8880022    1    1    2    0    0 -0.45821757452E+03  0.37173282126E+03  0.89644548155E+03  0.10840455666E+04  0.15294330000E+03 0.  0.
<mgrwt>
<rscale>  0 0.60954105E+03</rscale>
<asrwt>0</asrwt>
<pdfrwt beam="1">  1        2 0.13911907E+00 0.60954105E+03</pdfrwt>
<pdfrwt beam="2">  1       -2 0.16997714E+00 0.60954105E+03</pdfrwt>
<totfact> 0.64563192E+00</totfact>
</mgrwt>
</event>
<event>
 4    1  0.1726795E-008  0.2075594E+03  0.7818608E-02  0.1143513E+00
          2   -1    0    0  501    0  0.00000000000E+00  0.00000000000E+00  0.11608087176E+04  0.11608087176E+04  0.25500000000E-02 0. -1.
         -2   -1    0    0    0  501 -0.00000000000E+00 -0.00000000000E+00 -0.83378808166E+03  0.83378808166E+03  0.25500000000E-02 0.  1.
    8880022    1    1    2    0    0 -0.12300035542E+03  0.67529083384E+02 -0.81134000263E+03  0.83746851727E+03  0.15294330000E+03 0.  0.
    8880022    1    1    2    0    0  0.12300035542E+03 -0.67529083384E+02  0.11383606386E+04  0.11571282820E+04  0.15294330000E+03 0.  0.
<mgrwt>
<rscale>  0 0.20755943E+03</rscale>
<asrwt>0</asrwt>
<pdfrwt beam="1">  1        2 0.17858596E+00 0.20755943E+03</pdfrwt>
<pdfrwt beam="2">  1       -2 0.12827509E+00 0.20755943E+03</pdfrwt>
<totfact> 0.10369802E+01</totfact>
</mgrwt>
</event>
<event>
 4    1  0.1946696E-008  0.6051858E+03  0.7818608E-02  0.9894705E-01
          2   -1    0    0  501    0  0.00000000000E+00  0.00000000000E+00  0.28096774893E+04  0.28096774893E+04  0.25500000000E-02 0. -1.
         -2   -1    0    0    0  501 -0.00000000000E+00 -0.00000000000E+00 -0.16372839416E+04  0.16372839416E+04  0.25500000000E-02 0.  1.
    8880022    1    1    2    0    0 -0.18319306483E+03  0.55614616854E+03 -0.15469367445E+04  0.16611030083E+04  0.15294330000E+03 0.  0.
    8880022    1    1    2    0    0  0.18319306483E+03 -0.55614616854E+03  0.27193302922E+04  0.27858584226E+04  0.15294330000E+03 0.  0.
<mgrwt>
<rscale>  0 0.60518585E+03</rscale>
<asrwt>0</asrwt>
<pdfrwt beam="1">  1        2 0.43225808E+00 0.60518585E+03</pdfrwt>
<pdfrwt beam="2">  1       -2 0.25188984E+00 0.60518585E+03</pdfrwt>
<totfact> 0.16109566E-01</totfact>
</mgrwt>
</event>
<event>
 4    1  0.1726795E-008  0.2225871E+03  0.7818608E-02  0.1131969E+00
          2   -1    0    0  501    0  0.00000000000E+00  0.00000000000E+00  0.83833188813E+03  0.83833188814E+03  0.25500000000E-02 0. -1.
         -2   -1    0    0    0  501 -0.00000000000E+00 -0.00000000000E+00 -0.25514238919E+03  0.25514238921E+03  0.25500000000E-02 0.  1.
    8880022    1    1    2    0    0 -0.15898256776E+02 -0.16093666903E+03  0.77084547890E+03  0.80233893796E+03  0.15294330000E+03 0. -1.
    8880022    1    1    2    0    0  0.15898256776E+02  0.16093666903E+03 -0.18765597996E+03  0.29113533938E+03  0.15294330000E+03 0.  0.
<mgrwt>
<rscale>  0 0.22258710E+03</rscale>
<asrwt>0</asrwt>
<pdfrwt beam="1">  1        2 0.12897414E+00 0.22258710E+03</pdfrwt>
<pdfrwt beam="2">  1       -2 0.39252675E-01 0.22258710E+03</pdfrwt>
<totfact> 0.20974603E+02</totfact>
</mgrwt>
</event>
<event>
 4    1  0.1726795E-008  0.1674774E+04  0.7818608E-02  0.8775884E-01
          2   -1    0    0  501    0  0.00000000000E+00  0.00000000000E+00  0.40853623347E+04  0.40853623347E+04  0.25500000000E-02 0. -1.
         -2   -1    0    0    0  501 -0.00000000000E+00 -0.00000000000E+00 -0.10106999796E+04  0.10106999796E+04  0.25500000000E-02 0.  1.
    8880022    1    1    2    0    0  0.31451313812E+03  0.16378513489E+04  0.29802984729E+04  0.34186322112E+04  0.15294330000E+03 0.  0.
    8880022    1    1    2    0    0 -0.31451313812E+03 -0.16378513489E+04  0.94363882276E+02  0.16774301030E+04  0.15294330000E+03 0.  0.
<mgrwt>
<rscale>  0 0.16747738E+04</rscale>
<asrwt>0</asrwt>
<pdfrwt beam="1">  1        2 0.62851729E+00 0.16747738E+04</pdfrwt>
<pdfrwt beam="2">  1       -2 0.15549230E+00 0.16747738E+04</pdfrwt>
<totfact> 0.74436777E-02</totfact>
</mgrwt>
</event>
<event>
 4    1  0.1726795E-008  0.8147083E+03  0.7818608E-02  0.9538968E-01
          2   -1    0    0  501    0  0.00000000000E+00  0.00000000000E+00  0.11492387192E+04  0.11492387192E+04  0.25500000000E-02 0. -1.
         -2   -1    0    0    0  501 -0.00000000000E+00 -0.00000000000E+00 -0.78914271875E+03  0.78914271876E+03  0.25500000000E-02 0.  1.
    8880022    1    1    2    0    0 -0.13135740580E+03 -0.78936887959E+03  0.68190008524E+03  0.10624205266E+04  0.15294330000E+03 0.  0.
    8880022    1    1    2    0    0  0.13135740580E+03  0.78936887959E+03 -0.32180408482E+03  0.87596091131E+03  0.15294330000E+03 0.  0.
<mgrwt>
<rscale>  0 0.81470832E+03</rscale>
<asrwt>0</asrwt>
<pdfrwt beam="1">  1        2 0.17680596E+00 0.81470832E+03</pdfrwt>
<pdfrwt beam="2">  1       -2 0.12140657E+00 0.81470832E+03</pdfrwt>
<totfact> 0.10602107E+01</totfact>
</mgrwt>
</event>
<event>
 4    1  0.1726795E-008  0.9951968E+03  0.7818608E-02  0.9313829E-01
          2   -1    0    0  501    0  0.00000000000E+00  0.00000000000E+00  0.22192150515E+04  0.22192150515E+04  0.25500000000E-02 0. -1.
         -2   -1    0    0    0  501 -0.00000000000E+00 -0.00000000000E+00 -0.11119183553E+04  0.11119183553E+04  0.25500000000E-02 0.  1.
    8880022    1    1    2    0    0 -0.84959184957E+03 -0.49519558032E+03  0.18423162933E+04  0.20939307417E+04  0.15294330000E+03 0.  0.
    8880022    1    1    2    0    0  0.84959184957E+03  0.49519558032E+03 -0.73501959703E+03  0.12372026652E+04  0.15294330000E+03 0.  0.
<mgrwt>
<rscale>  0 0.99519678E+03</rscale>
<asrwt>0</asrwt>
<pdfrwt beam="1">  1        2 0.34141770E+00 0.99519678E+03</pdfrwt>
<pdfrwt beam="2">  1       -2 0.17106436E+00 0.99519678E+03</pdfrwt>
<totfact> 0.10565621E+00</totfact>
</mgrwt>
</event>
<event>
 4    1  0.1726795E-008  0.7803742E+03  0.7818608E-02  0.9588867E-01
          2   -1    0    0  501    0  0.00000000000E+00  0.00000000000E+00  0.13138101149E+04  0.13138101149E+04  0.25500000000E-02 0. -1.
         -2   -1    0    0    0  501 -0.00000000000E+00 -0.00000000000E+00 -0.69637931066E+03  0.69637931066E+03  0.25500000000E-02 0.  1.
    8880022    1    1    2    0    0 -0.63515742374E+03  0.42681055397E+03 -0.27248537240E+03  0.82657857044E+03  0.15294330000E+03 0.  0.
    8880022    1    1    2    0    0  0.63515742374E+03 -0.42681055397E+03  0.88991617662E+03  0.11836108551E+04  0.15294330000E+03 0. -1.
<mgrwt>
<rscale>  0 0.78037418E+03</rscale>
<asrwt>0</asrwt>
<pdfrwt beam="1">  1        2 0.20212463E+00 0.78037418E+03</pdfrwt>
<pdfrwt beam="2">  1       -2 0.10713528E+00 0.78037418E+03</pdfrwt>
<totfact> 0.11563561E+01</totfact>
</mgrwt>
</event>
<event>
 4    1  0.1726795E-008  0.5051577E+03  0.7818608E-02  0.1012441E+00
         -2   -1    0    0    0  501 -0.00000000000E+00  0.00000000000E+00  0.20571828658E+03  0.20571828659E+03  0.25500000000E-02 0.  1.
          2   -1    0    0  501    0  0.00000000000E+00 -0.00000000000E+00 -0.17342967357E+04  0.17342967357E+04  0.25500000000E-02 0. -1.
    8880022    1    1    2    0    0  0.47958613601E+03  0.42306433130E+02 -0.12819045606E+04  0.13778474704E+04  0.15294330000E+03 0. -1.
    8880022    1    1    2    0    0 -0.47958613601E+03 -0.42306433130E+02 -0.24667388852E+03  0.56216755192E+03  0.15294330000E+03 0.  1.
<mgrwt>
<rscale>  0 0.50515775E+03</rscale>
<asrwt>0</asrwt>
<pdfrwt beam="1">  1        2 0.26681487E+00 0.50515775E+03</pdfrwt>
<pdfrwt beam="2">  1       -2 0.31648968E-01 0.50515775E+03</pdfrwt>
<totfact> 0.91641252E+01</totfact>
</mgrwt>
</event>
<event>
 4    1  0.1726795E-008  0.1073145E+04  0.7818608E-02  0.9231769E-01
          2   -1    0    0  501    0  0.00000000000E+00  0.00000000000E+00  0.21191895711E+04  0.21191895712E+04  0.25500000000E-02 0. -1.
         -2   -1    0    0    0  501 -0.00000000000E+00 -0.00000000000E+00 -0.85853611469E+03  0.85853611469E+03  0.25500000000E-02 0.  1.
    8880022    1    1    2    0    0  0.16815965266E+03 -0.10487953928E+04  0.15323143970E+04  0.18707294056E+04  0.15294330000E+03 0.  0.
    8880022    1    1    2    0    0 -0.16815965266E+03  0.10487953928E+04 -0.27166094050E+03  0.11069962802E+04  0.15294330000E+03 0.  0.
<mgrwt>
<rscale>  0 0.10731454E+04</rscale>
<asrwt>0</asrwt>
<pdfrwt beam="1">  1        2 0.32602916E+00 0.10731454E+04</pdfrwt>
<pdfrwt beam="2">  1       -2 0.13208248E+00 0.10731454E+04</pdfrwt>
<totfact> 0.23684003E+00</totfact>
</mgrwt>
</event>
<event>
 4    1  0.1726795E-008  0.1097716E+04  0.7818608E-02  0.9207421E-01
         -2   -1    0    0    0  501 -0.00000000000E+00  0.00000000000E+00  0.30334026308E+04  0.30334026308E+04  0.25500000000E-02 0.  1.
          2   -1    0    0  501    0  0.00000000000E+00 -0.00000000000E+00 -0.42407619160E+03  0.42407619160E+03  0.25500000000E-02 0. -1.
    8880022    1    1    2    0    0  0.81024869737E+03 -0.72462856268E+03  0.86976405327E+03  0.14005251397E+04  0.15294330000E+03 0.  0.
    8880022    1    1    2    0    0 -0.81024869737E+03  0.72462856268E+03  0.17395623860E+04  0.20569536828E+04  0.15294330000E+03 0.  0.
<mgrwt>
<rscale>  0 0.10977163E+04</rscale>
<asrwt>0</asrwt>
<pdfrwt beam="1">  1        2 0.65242489E-01 0.10977163E+04</pdfrwt>
<pdfrwt beam="2">  1       -2 0.46667734E+00 0.10977163E+04</pdfrwt>
<totfact> 0.20187645E-01</totfact>
</mgrwt>
</event>
<event>
 4    1  0.1726795E-008  0.7825933E+03  0.7818608E-02  0.9585560E-01
          2   -1    0    0  501    0  0.00000000000E+00  0.00000000000E+00  0.98015511899E+03  0.98015511900E+03  0.25500000000E-02 0. -1.
         -2   -1    0    0    0  501 -0.00000000000E+00 -0.00000000000E+00 -0.71175857028E+03  0.71175857028E+03  0.25500000000E-02 0.  1.
    8880022    1    1    2    0    0  0.62389022080E+03 -0.44701417543E+03  0.42980003842E+03  0.89284959914E+03  0.15294330000E+03 0.  0.
    8880022    1    1    2    0    0 -0.62389022080E+03  0.44701417543E+03 -0.16140348971E+03  0.79906409014E+03  0.15294330000E+03 0.  0.
<mgrwt>
<rscale>  0 0.78259334E+03</rscale>
<asrwt>0</asrwt>
<pdfrwt beam="1">  1        2 0.15079309E+00 0.78259334E+03</pdfrwt>
<pdfrwt beam="2">  1       -2 0.10950132E+00 0.78259334E+03</pdfrwt>
<totfact> 0.17458233E+01</totfact>
</mgrwt>
</event>
<event>
 4    1  0.1726795E-008  0.3761708E+03  0.7818608E-02  0.1052358E+00
         -2   -1    0    0    0  501 -0.00000000000E+00  0.00000000000E+00  0.33345111460E+03  0.33345111461E+03  0.25500000000E-02 0.  1.
          2   -1    0    0  501    0  0.00000000000E+00 -0.00000000000E+00 -0.13218707686E+04  0.13218707686E+04  0.25500000000E-02 0. -1.
    8880022    1    1    2    0    0  0.34340813190E+03 -0.13552569773E+02  0.18777852496E+03  0.42043459022E+03  0.15294330000E+03 0.  0.
    8880022    1    1    2    0    0 -0.34340813190E+03  0.13552569773E+02 -0.11761981789E+04  0.12348872930E+04  0.15294330000E+03 0.  0.
<mgrwt>
<rscale>  0 0.37617080E+03</rscale>
<asrwt>0</asrwt>
<pdfrwt beam="1">  1        2 0.20336473E+00 0.37617080E+03</pdfrwt>
<pdfrwt beam="2">  1       -2 0.51300172E-01 0.37617080E+03</pdfrwt>
<totfact> 0.61693026E+01</totfact>
</mgrwt>
</event>
<event>
 4    1  0.1726795E-008  0.3982195E+03  0.7818608E-02  0.1044398E+00
          2   -1    0    0  501    0  0.00000000000E+00  0.00000000000E+00  0.54637216586E+03  0.54637216587E+03  0.25500000000E-02 0. -1.
         -2   -1    0    0    0  501 -0.00000000000E+00 -0.00000000000E+00 -0.35157844735E+03  0.35157844736E+03  0.25500000000E-02 0.  1.
    8880022    1    1    2    0    0  0.36291059895E+03 -0.59016993157E+02  0.28493069715E+03  0.48965729189E+03  0.15294330000E+03 0.  0.
    8880022    1    1    2    0    0 -0.36291059895E+03  0.59016993157E+02 -0.90136978637E+02  0.40829332133E+03  0.15294330000E+03 0.  0.
<mgrwt>
<rscale>  0 0.39821949E+03</rscale>
<asrwt>0</asrwt>
<pdfrwt beam="1">  1        2 0.84057256E-01 0.39821949E+03</pdfrwt>
<pdfrwt beam="2">  1       -2 0.54088992E-01 0.39821949E+03</pdfrwt>
<totfact> 0.18399573E+02</totfact>
</mgrwt>
</event>
<event>
 4    1  0.1726795E-008  0.6855108E+03  0.7818608E-02  0.9742337E-01
         -2   -1    0    0    0  501 -0.00000000000E+00  0.00000000000E+00  0.26172159466E+04  0.26172159466E+04  0.25500000000E-02 0.  1.
          2   -1    0    0  501    0  0.00000000000E+00 -0.00000000000E+00 -0.28355040760E+03  0.28355040761E+03  0.25500000000E-02 0. -1.
    8880022    1    1    2    0    0 -0.57189173422E+03 -0.34564906015E+03  0.28845369985E+03  0.74372751624E+03  0.15294330000E+03 0.  0.
    8880022    1    1    2    0    0  0.57189173422E+03  0.34564906015E+03  0.20452118392E+04  0.21570388380E+04  0.15294330000E+03 0.  0.
<mgrwt>
<rscale>  0 0.68551082E+03</rscale>
<asrwt>0</asrwt>
<pdfrwt beam="1">  1        2 0.43623140E-01 0.68551082E+03</pdfrwt>
<pdfrwt beam="2">  1       -2 0.40264861E+00 0.68551082E+03</pdfrwt>
<totfact> 0.89602709E-01</totfact>
</mgrwt>
</event>
<event>
 4    1  0.1726795E-008  0.5908024E+03  0.7818608E-02  0.9924674E-01
          2   -1    0    0  501    0  0.00000000000E+00  0.00000000000E+00  0.52840514947E+03  0.52840514947E+03  0.25500000000E-02 0. -1.
         -2   -1    0    0    0  501 -0.00000000000E+00 -0.00000000000E+00 -0.14630560520E+04  0.14630560520E+04  0.25500000000E-02 0.  1.
    8880022    1    1    2    0    0  0.39042046929E+03  0.41620623900E+03 -0.12047722796E+04  0.13418359344E+04  0.15294330000E+03 0.  0.
    8880022    1    1    2    0    0 -0.39042046929E+03 -0.41620623900E+03  0.27012137706E+03  0.64962526705E+03  0.15294330000E+03 0.  0.
<mgrwt>
<rscale>  0 0.59080236E+03</rscale>
<asrwt>0</asrwt>
<pdfrwt beam="1">  1        2 0.81293101E-01 0.59080236E+03</pdfrwt>
<pdfrwt beam="2">  1       -2 0.22508554E+00 0.59080236E+03</pdfrwt>
<totfact> 0.55483743E+00</totfact>
</mgrwt>
</event>
<event>
 4    1  0.1726795E-008  0.1314635E+04  0.7818608E-02  0.9018039E-01
         -2   -1    0    0    0  501 -0.00000000000E+00  0.00000000000E+00  0.25709781468E+04  0.25709781468E+04  0.25500000000E-02 0.  1.
          2   -1    0    0  501    0  0.00000000000E+00 -0.00000000000E+00 -0.86291681917E+03  0.86291681917E+03  0.25500000000E-02 0. -1.
    8880022    1    1    2    0    0 -0.12871895813E+04 -0.21912763806E+03  0.46901407841E+02  0.13154715257E+04  0.15294330000E+03 0.  0.
    8880022    1    1    2    0    0  0.12871895813E+04  0.21912763806E+03  0.16611599197E+04  0.21184234402E+04  0.15294330000E+03 0.  0.
<mgrwt>
<rscale>  0 0.13146352E+04</rscale>
<asrwt>0</asrwt>
<pdfrwt beam="1">  1        2 0.13275644E+00 0.13146352E+04</pdfrwt>
<pdfrwt beam="2">  1       -2 0.39553509E+00 0.13146352E+04</pdfrwt>
<totfact> 0.24011388E-01</totfact>
</mgrwt>
</event>
<event>
 4    1  0.1726795E-008  0.6732873E+03  0.7818608E-02  0.9764038E-01
          2   -1    0    0  501    0  0.00000000000E+00  0.00000000000E+00  0.30163510700E+04  0.30163510700E+04  0.25500000000E-02 0. -1.
         -2   -1    0    0    0  501 -0.00000000000E+00 -0.00000000000E+00 -0.25257238521E+03  0.25257238522E+03  0.25500000000E-02 0.  1.
    8880022    1    1    2    0    0 -0.30898037138E+03 -0.57832103814E+03  0.24220261146E+04  0.25138667916E+04  0.15294330000E+03 0.  0.
    8880022    1    1    2    0    0  0.30898037138E+03  0.57832103814E+03  0.34175257020E+03  0.75505666364E+03  0.15294330000E+03 0.  0.
<mgrwt>
<rscale>  0 0.67328727E+03</rscale>
<asrwt>0</asrwt>
<pdfrwt beam="1">  1        2 0.46405401E+00 0.67328727E+03</pdfrwt>
<pdfrwt beam="2">  1       -2 0.38857290E-01 0.67328727E+03</pdfrwt>
<totfact> 0.11478695E+01</totfact>
</mgrwt>
</event>
<event>
 4    1  0.1726795E-008  0.1304161E+04  0.7818608E-02  0.9026272E-01
          2   -1    0    0  501    0  0.00000000000E+00  0.00000000000E+00  0.68517299745E+03  0.68517299746E+03  0.25500000000E-02 0. -1.
         -2   -1    0    0    0  501 -0.00000000000E+00 -0.00000000000E+00 -0.33680934813E+04  0.33680934813E+04  0.25500000000E-02 0.  1.
    8880022    1    1    2    0    0  0.12634014735E+04 -0.28506336353E+03 -0.30216677752E+03  0.13387086386E+04  0.15294330000E+03 0.  0.
    8880022    1    1    2    0    0 -0.12634014735E+04  0.28506336353E+03 -0.23807537064E+04  0.27145578402E+04  0.15294330000E+03 0.  0.
<mgrwt>
<rscale>  0 0.13041611E+04</rscale>
<asrwt>0</asrwt>
<pdfrwt beam="1">  1        2 0.10541123E+00 0.13041611E+04</pdfrwt>
<pdfrwt beam="2">  1       -2 0.51816822E+00 0.13041611E+04</pdfrwt>
<totfact> 0.51988042E-02</totfact>
</mgrwt>
</event>
<event>
 4    1  0.1726795E-008  0.3677702E+03  0.7818608E-02  0.1055549E+00
         -2   -1    0    0    0  501 -0.00000000000E+00  0.00000000000E+00  0.14746389489E+04  0.14746389489E+04  0.25500000000E-02 0.  1.
          2   -1    0    0  501    0  0.00000000000E+00 -0.00000000000E+00 -0.46202689952E+03  0.46202689952E+03  0.25500000000E-02 0. -1.
    8880022    1    1    2    0    0 -0.11260494690E+03 -0.31493396554E+03 -0.36059906781E+03  0.51505981928E+03  0.15294330000E+03 0.  0.
    8880022    1    1    2    0    0  0.11260494690E+03  0.31493396554E+03  0.13732111172E+04  0.14216060291E+04  0.15294330000E+03 0.  0.
<mgrwt>
<rscale>  0 0.36777021E+03</rscale>
<asrwt>0</asrwt>
<pdfrwt beam="1">  1        2 0.71081061E-01 0.36777021E+03</pdfrwt>
<pdfrwt beam="2">  1       -2 0.22686753E+00 0.36777021E+03</pdfrwt>
<totfact> 0.65909299E+00</totfact>
</mgrwt>
</event>
<event>
 4    1  0.1726795E-008  0.1503420E+04  0.7818608E-02  0.8882182E-01
          2   -1    0    0  501    0  0.00000000000E+00  0.00000000000E+00  0.15465860302E+04  0.15465860302E+04  0.25500000000E-02 0. -1.
         -2   -1    0    0    0  501 -0.00000000000E+00 -0.00000000000E+00 -0.15954017609E+04  0.15954017609E+04  0.25500000000E-02 0.  1.
    8880022    1    1    2    0    0 -0.80991311256E+03 -0.12573467959E+04  0.43078904125E+03  0.15639216944E+04  0.15294330000E+03 0.  0.
    8880022    1    1    2    0    0  0.80991311256E+03  0.12573467959E+04 -0.47960477203E+03  0.15780660967E+04  0.15294330000E+03 0.  0.
<mgrwt>
<rscale>  0 0.15034201E+04</rscale>
<asrwt>0</asrwt>
<pdfrwt beam="1">  1        2 0.23793631E+00 0.15034201E+04</pdfrwt>
<pdfrwt beam="2">  1       -2 0.24544643E+00 0.15034201E+04</pdfrwt>
<totfact> 0.76977096E-01</totfact>
</mgrwt>
</event>
<event>
 4    1  0.1726795E-008  0.8285883E+03  0.7818608E-02  0.9519534E-01
          2   -1    0    0  501    0  0.00000000000E+00  0.00000000000E+00  0.19273903730E+04  0.19273903730E+04  0.25500000000E-02 0. -1.
         -2   -1    0    0    0  501 -0.00000000000E+00 -0.00000000000E+00 -0.66496926876E+03  0.66496926877E+03  0.25500000000E-02 0.  1.
    8880022    1    1    2    0    0  0.23289459745E+03  0.78033778776E+03 -0.25201864603E+03  0.86606697633E+03  0.15294330000E+03 0.  0.
    8880022    1    1    2    0    0 -0.23289459745E+03 -0.78033778776E+03  0.15144397503E+04  0.17262926654E+04  0.15294330000E+03 0.  0.
<mgrwt>
<rscale>  0 0.82858832E+03</rscale>
<asrwt>0</asrwt>
<pdfrwt beam="1">  1        2 0.29652159E+00 0.82858832E+03</pdfrwt>
<pdfrwt beam="2">  1       -2 0.10230297E+00 0.82858832E+03</pdfrwt>
<totfact> 0.58623561E+00</totfact>
</mgrwt>
</event>
<event>
 4    1  0.1726795E-008  0.1047550E+04  0.7818608E-02  0.9257878E-01
          2   -1    0    0  501    0  0.00000000000E+00  0.00000000000E+00  0.22926620320E+04  0.22926620320E+04  0.25500000000E-02 0. -1.
         -2   -1    0    0    0  501 -0.00000000000E+00 -0.00000000000E+00 -0.48827735048E+03  0.48827735049E+03  0.25500000000E-02 0.  1.
    8880022    1    1    2    0    0 -0.74839544879E+03  0.71684926784E+03  0.70684749031E+03  0.12637221404E+04  0.15294330000E+03 0.  0.
    8880022    1    1    2    0    0  0.74839544879E+03 -0.71684926784E+03  0.10975371912E+04  0.15172172420E+04  0.15294330000E+03 0.  0.
<mgrwt>
<rscale>  0 0.10475497E+04</rscale>
<asrwt>0</asrwt>
<pdfrwt beam="1">  1        2 0.35271724E+00 0.10475497E+04</pdfrwt>
<pdfrwt beam="2">  1       -2 0.75119591E-01 0.10475497E+04</pdfrwt>
<totfact> 0.72919440E+00</totfact>
</mgrwt>
</event>
<event>
 4    1  0.1726795E-008  0.5483190E+03  0.7818608E-02  0.1001884E+00
         -2   -1    0    0    0  501 -0.00000000000E+00  0.00000000000E+00  0.14050515219E+04  0.14050515219E+04  0.25500000000E-02 0.  1.
          2   -1    0    0  501    0  0.00000000000E+00 -0.00000000000E+00 -0.12918551311E+04  0.12918551311E+04  0.25500000000E-02 0. -1.
    8880022    1    1    2    0    0  0.13180098731E+03 -0.50979461041E+03 -0.11751250193E+04  0.12967546063E+04  0.15294330000E+03 0.  0.
    8880022    1    1    2    0    0 -0.13180098731E+03  0.50979461041E+03  0.12883214101E+04  0.14001520467E+04  0.15294330000E+03 0.  0.
<mgrwt>
<rscale>  0 0.54831897E+03</rscale>
<asrwt>0</asrwt>
<pdfrwt beam="1">  1        2 0.19874694E+00 0.54831897E+03</pdfrwt>
<pdfrwt beam="2">  1       -2 0.21616177E+00 0.54831897E+03</pdfrwt>
<totfact> 0.18779510E+00</totfact>
</mgrwt>
</event>
<event>
 4    1  0.1726795E-008  0.8787725E+03  0.7818608E-02  0.9452513E-01
         -2   -1    0    0    0  501 -0.00000000000E+00  0.00000000000E+00  0.50101894849E+03  0.50101894850E+03  0.25500000000E-02 0.  1.
          2   -1    0    0  501    0  0.00000000000E+00 -0.00000000000E+00 -0.23986264729E+04  0.23986264729E+04  0.25500000000E-02 0. -1.
    8880022    1    1    2    0    0 -0.86499400460E+03 -0.25194871405E+02 -0.18155586743E+04  0.20170509073E+04  0.15294330000E+03 0.  0.
    8880022    1    1    2    0    0  0.86499400460E+03  0.25194871405E+02 -0.82048850059E+02  0.88259451412E+03  0.15294330000E+03 0.  0.
<mgrwt>
<rscale>  0 0.87877247E+03</rscale>
<asrwt>0</asrwt>
<pdfrwt beam="1">  1        2 0.36901945E+00 0.87877247E+03</pdfrwt>
<pdfrwt beam="2">  1       -2 0.77079840E-01 0.87877247E+03</pdfrwt>
<totfact> 0.61358224E+00</totfact>
</mgrwt>
</event>
<event>
 4    1  0.1726795E-008  0.5020371E+03  0.7818608E-02  0.1013249E+00
         -2   -1    0    0    0  501 -0.00000000000E+00  0.00000000000E+00  0.18139103309E+03  0.18139103311E+03  0.25500000000E-02 0.  1.
          2   -1    0    0  501    0  0.00000000000E+00 -0.00000000000E+00 -0.23521841664E+04  0.23521841664E+04  0.25500000000E-02 0. -1.
    8880022    1    1    2    0    0 -0.11127772781E+03  0.46504496471E+03 -0.18958201877E+04  0.19611668438E+04  0.15294330000E+03 0.  0.
    8880022    1    1    2    0    0  0.11127772781E+03 -0.46504496471E+03 -0.27497294560E+03  0.57240835575E+03  0.15294330000E+03 0.  0.
<mgrwt>
<rscale>  0 0.50203706E+03</rscale>
<asrwt>0</asrwt>
<pdfrwt beam="1">  1        2 0.36187447E+00 0.50203706E+03</pdfrwt>
<pdfrwt beam="2">  1       -2 0.27906314E-01 0.50203706E+03</pdfrwt>
<totfact> 0.53521914E+01</totfact>
</mgrwt>
</event>
<event>
 4    1  0.1726795E-008  0.1845725E+03  0.7818608E-02  0.1163450E+00
         -2   -1    0    0    0  501 -0.00000000000E+00  0.00000000000E+00  0.39971875276E+03  0.39971875277E+03  0.25500000000E-02 0.  1.
          2   -1    0    0  501    0  0.00000000000E+00 -0.00000000000E+00 -0.77806544418E+03  0.77806544418E+03  0.25500000000E-02 0. -1.
    8880022    1    1    2    0    0 -0.59384620506E+02  0.84550741543E+02 -0.74487732670E+03  0.76740422587E+03  0.15294330000E+03 0. -1.
    8880022    1    1    2    0    0  0.59384620506E+02 -0.84550741543E+02  0.36653063528E+03  0.41037997107E+03  0.15294330000E+03 0.  0.
<mgrwt>
<rscale>  0 0.18457252E+03</rscale>
<asrwt>0</asrwt>
<pdfrwt beam="1">  1        2 0.11970238E+00 0.18457252E+03</pdfrwt>
<pdfrwt beam="2">  1       -2 0.61495193E-01 0.18457252E+03</pdfrwt>
<totfact> 0.95217394E+01</totfact>
</mgrwt>
</event>
<event>
 4    1  0.1726795E-008  0.6705380E+03  0.7818608E-02  0.9768986E-01
         -2   -1    0    0    0  501 -0.00000000000E+00  0.00000000000E+00  0.28495402284E+03  0.28495402285E+03  0.25500000000E-02 0.  1.
          2   -1    0    0  501    0  0.00000000000E+00 -0.00000000000E+00 -0.18407016368E+04  0.18407016368E+04  0.25500000000E-02 0. -1.
    8880022    1    1    2    0    0 -0.56407169474E+03  0.32871377417E+03 -0.37626103778E+03  0.76889117806E+03  0.15294330000E+03 0.  0.
    8880022    1    1    2    0    0  0.56407169474E+03 -0.32871377417E+03 -0.11794865762E+04  0.13567644816E+04  0.15294330000E+03 0.  0.
<mgrwt>
<rscale>  0 0.67053805E+03</rscale>
<asrwt>0</asrwt>
<pdfrwt beam="1">  1        2 0.28318486E+00 0.67053805E+03</pdfrwt>
<pdfrwt beam="2">  1       -2 0.43839082E-01 0.67053805E+03</pdfrwt>
<totfact> 0.41969337E+01</totfact>
</mgrwt>
</event>
<event>
 4    1  0.1726795E-008  0.1237695E+04  0.7818608E-02  0.9080487E-01
          2   -1    0    0  501    0  0.00000000000E+00  0.00000000000E+00  0.38167257729E+04  0.38167257729E+04  0.25500000000E-02 0. -1.
         -2   -1    0    0    0  501 -0.00000000000E+00 -0.00000000000E+00 -0.56332859751E+03  0.56332859751E+03  0.25500000000E-02 0.  1.
    8880022    1    1    2    0    0  0.11657788246E+04 -0.38659610036E+03  0.28010049518E+04  0.30622732089E+04  0.15294330000E+03 0.  0.
    8880022    1    1    2    0    0 -0.11657788246E+04  0.38659610036E+03  0.45239222362E+03  0.13177811616E+04  0.15294330000E+03 0.  0.
<mgrwt>
<rscale>  0 0.12376948E+04</rscale>
<asrwt>0</asrwt>
<pdfrwt beam="1">  1        2 0.58718857E+00 0.12376948E+04</pdfrwt>
<pdfrwt beam="2">  1       -2 0.86665940E-01 0.12376948E+04</pdfrwt>
<totfact> 0.55218777E-01</totfact>
</mgrwt>
</event>
<event>
 4    1  0.1726795E-008  0.7913257E+03  0.7818608E-02  0.9572658E-01
         -2   -1    0    0    0  501 -0.00000000000E+00  0.00000000000E+00  0.50517676222E+03  0.50517676222E+03  0.25500000000E-02 0.  1.
          2   -1    0    0  501    0  0.00000000000E+00 -0.00000000000E+00 -0.13662533337E+04  0.13662533337E+04  0.25500000000E-02 0. -1.
    8880022    1    1    2    0    0  0.74532045712E+03 -0.21749052306E+03 -0.14559612028E+03  0.80460834863E+03  0.15294330000E+03 0.  0.
    8880022    1    1    2    0    0 -0.74532045712E+03  0.21749052306E+03 -0.71548045118E+03  0.10668217473E+04  0.15294330000E+03 0.  0.
<mgrwt>
<rscale>  0 0.79132570E+03</rscale>
<asrwt>0</asrwt>
<pdfrwt beam="1">  1        2 0.21019282E+00 0.79132570E+03</pdfrwt>
<pdfrwt beam="2">  1       -2 0.77719502E-01 0.79132570E+03</pdfrwt>
<totfact> 0.22693766E+01</totfact>
</mgrwt>
</event>
<event>
 4    1  0.1726795E-008  0.6996987E+03  0.7818608E-02  0.9717748E-01
         -2   -1    0    0    0  501 -0.00000000000E+00  0.00000000000E+00  0.78085497616E+03  0.78085497617E+03  0.25500000000E-02 0.  1.
          2   -1    0    0  501    0  0.00000000000E+00 -0.00000000000E+00 -0.82764936268E+03  0.82764936268E+03  0.25500000000E-02 0. -1.
    8880022    1    1    2    0    0  0.56959049675E+03 -0.37650142705E+03  0.37261864166E+03  0.79273133134E+03  0.15294330000E+03 0.  0.
    8880022    1    1    2    0    0 -0.56959049675E+03  0.37650142705E+03 -0.41941302817E+03  0.81577300751E+03  0.15294330000E+03 0.  0.
<mgrwt>
<rscale>  0 0.69969873E+03</rscale>
<asrwt>0</asrwt>
<pdfrwt beam="1">  1        2 0.12733067E+00 0.69969873E+03</pdfrwt>
<pdfrwt beam="2">  1       -2 0.12013154E+00 0.69969873E+03</pdfrwt>
<totfact> 0.17781561E+01</totfact>
</mgrwt>
</event>
<event>
 4    1  0.1726795E-008  0.6150013E+03  0.7818608E-02  0.9874763E-01
         -2   -1    0    0    0  501 -0.00000000000E+00  0.00000000000E+00  0.36278000351E+03  0.36278000352E+03  0.25500000000E-02 0.  1.
          2   -1    0    0  501    0  0.00000000000E+00 -0.00000000000E+00 -0.17523295760E+04  0.17523295760E+04  0.25500000000E-02 0. -1.
    8880022    1    1    2    0    0 -0.16518300830E+03  0.57231943862E+03 -0.21723712211E+02  0.61538487042E+03  0.15294330000E+03 0.  0.
    8880022    1    1    2    0    0  0.16518300830E+03 -0.57231943862E+03 -0.13678258602E+04  0.14997247091E+04  0.15294330000E+03 0.  0.
<mgrwt>
<rscale>  0 0.61500132E+03</rscale>
<asrwt>0</asrwt>
<pdfrwt beam="1">  1        2 0.26958916E+00 0.61500132E+03</pdfrwt>
<pdfrwt beam="2">  1       -2 0.55812309E-01 0.61500132E+03</pdfrwt>
<totfact> 0.28956739E+01</totfact>
</mgrwt>
</event>
<event>
 4    1  0.1726795E-008  0.9541285E+03  0.7818608E-02  0.9360338E-01
         -2   -1    0    0    0  501 -0.00000000000E+00  0.00000000000E+00  0.97067480237E+03  0.97067480238E+03  0.25500000000E-02 0.  1.
          2   -1    0    0  501    0  0.00000000000E+00 -0.00000000000E+00 -0.18599886895E+04  0.18599886895E+04  0.25500000000E-02 0. -1.
    8880022    1    1    2    0    0 -0.85043946841E+03 -0.40462600370E+03 -0.14412041471E+04  0.17284185080E+04  0.15294330000E+03 0.  0.
    8880022    1    1    2    0    0  0.85043946841E+03  0.40462600370E+03  0.55189025998E+03  0.11022449838E+04  0.15294330000E+03 0.  0.
<mgrwt>
<rscale>  0 0.95412847E+03</rscale>
<asrwt>0</asrwt>
<pdfrwt beam="1">  1        2 0.28615211E+00 0.95412847E+03</pdfrwt>
<pdfrwt beam="2">  1       -2 0.14933458E+00 0.95412847E+03</pdfrwt>
<totfact> 0.24281750E+00</totfact>
</mgrwt>
</event>
<event>
 4    1  0.1726795E-008  0.6018352E+03  0.7818608E-02  0.9901606E-01
         -2   -1    0    0    0  501 -0.00000000000E+00  0.00000000000E+00  0.51044088146E+03  0.51044088147E+03  0.25500000000E-02 0.  1.
          2   -1    0    0  501    0  0.00000000000E+00 -0.00000000000E+00 -0.75796897519E+03  0.75796897519E+03  0.25500000000E-02 0. -1.
    8880022    1    1    2    0    0 -0.41816234045E+03  0.40491258407E+03 -0.28398375906E+03  0.66547154119E+03  0.15294330000E+03 0.  0.
    8880022    1    1    2    0    0  0.41816234045E+03 -0.40491258407E+03  0.36455665334E+02  0.60293831547E+03  0.15294330000E+03 0.  0.
<mgrwt>
<rscale>  0 0.60183519E+03</rscale>
<asrwt>0</asrwt>
<pdfrwt beam="1">  1        2 0.11661061E+00 0.60183519E+03</pdfrwt>
<pdfrwt beam="2">  1       -2 0.78529366E-01 0.60183519E+03</pdfrwt>
<totfact> 0.54689657E+01</totfact>
</mgrwt>
</event>
<event>
 4    1  0.1726795E-008  0.2338415E+03  0.7818608E-02  0.1123965E+00
         -2   -1    0    0    0  501 -0.00000000000E+00  0.00000000000E+00  0.38548258055E+03  0.38548258055E+03  0.25500000000E-02 0.  1.
          2   -1    0    0  501    0  0.00000000000E+00 -0.00000000000E+00 -0.17971434024E+03  0.17971434025E+03  0.25500000000E-02 0. -1.
    8880022    1    1    2    0    0 -0.28987947495E+02 -0.17449898037E+03 -0.26826817509E+02  0.23537528843E+03  0.15294330000E+03 0. -1.
    8880022    1    1    2    0    0  0.28987947495E+02  0.17449898037E+03  0.23259505782E+03  0.32982163238E+03  0.15294330000E+03 0.  0.
<mgrwt>
<rscale>  0 0.23384150E+03</rscale>
<asrwt>0</asrwt>
<pdfrwt beam="1">  1        2 0.27648360E-01 0.23384150E+03</pdfrwt>
<pdfrwt beam="2">  1       -2 0.59305013E-01 0.23384150E+03</pdfrwt>
<totfact> 0.52151071E+02</totfact>
</mgrwt>
</event>
<event>
 4    1  0.1726795E-008  0.2040162E+03  0.7818608E-02  0.1146394E+00
         -2   -1    0    0    0  501 -0.00000000000E+00  0.00000000000E+00  0.33280677121E+03  0.33280677122E+03  0.25500000000E-02 0.  1.
          2   -1    0    0  501    0  0.00000000000E+00 -0.00000000000E+00 -0.67774635516E+03  0.67774635517E+03  0.25500000000E-02 0. -1.
    8880022    1    1    2    0    0  0.64478717290E+02 -0.11863149902E+03  0.28381168010E+03  0.34953062858E+03  0.15294330000E+03 0.  1.
    8880022    1    1    2    0    0 -0.64478717290E+02  0.11863149902E+03 -0.62875126405E+03  0.66102249780E+03  0.15294330000E+03 0.  0.
<mgrwt>
<rscale>  0 0.20401615E+03</rscale>
<asrwt>0</asrwt>
<pdfrwt beam="1">  1        2 0.10426867E+00 0.20401615E+03</pdfrwt>
<pdfrwt beam="2">  1       -2 0.51201042E-01 0.20401615E+03</pdfrwt>
<totfact> 0.16304239E+02</totfact>
</mgrwt>
</event>
<event>
 4    1  0.1726795E-008  0.1802680E+04  0.7818608E-02  0.8704875E-01
          2   -1    0    0  501    0  0.00000000000E+00  0.00000000000E+00  0.22984870645E+04  0.22984870645E+04  0.25500000000E-02 0. -1.
         -2   -1    0    0    0  501 -0.00000000000E+00 -0.00000000000E+00 -0.15513578833E+04  0.15513578833E+04  0.25500000000E-02 0.  1.
    8880022    1    1    2    0    0 -0.78257779385E+03 -0.16167365517E+04  0.94670590257E+03  0.20361504856E+04  0.15294330000E+03 0.  0.
    8880022    1    1    2    0    0  0.78257779385E+03  0.16167365517E+04 -0.19957672140E+03  0.18136944621E+04  0.15294330000E+03 0.  0.
<mgrwt>
<rscale>  0 0.18026804E+04</rscale>
<asrwt>0</asrwt>
<pdfrwt beam="1">  1        2 0.35361340E+00 0.18026804E+04</pdfrwt>
<pdfrwt beam="2">  1       -2 0.23867044E+00 0.18026804E+04</pdfrwt>
<totfact> 0.31155285E-01</totfact>
</mgrwt>
</event>
<event>
 4    1  0.1726795E-008  0.1194463E+04  0.7818608E-02  0.9117717E-01
          2   -1    0    0  501    0  0.00000000000E+00  0.00000000000E+00  0.25851568839E+04  0.25851568839E+04  0.25500000000E-02 0. -1.
         -2   -1    0    0    0  501 -0.00000000000E+00 -0.00000000000E+00 -0.76031196550E+03  0.76031196550E+03  0.25500000000E-02 0.  1.
    8880022    1    1    2    0    0  0.67746504142E+03 -0.97179752630E+03  0.17882029673E+04  0.21504443308E+04  0.15294330000E+03 0.  0.
    8880022    1    1    2    0    0 -0.67746504142E+03  0.97179752630E+03  0.36641951072E+02  0.11950245186E+04  0.15294330000E+03 0.  0.
<mgrwt>
<rscale>  0 0.11944626E+04</rscale>
<asrwt>0</asrwt>
<pdfrwt beam="1">  1        2 0.39771644E+00 0.11944626E+04</pdfrwt>
<pdfrwt beam="2">  1       -2 0.11697107E+00 0.11944626E+04</pdfrwt>
<totfact> 0.17260475E+00</totfact>
</mgrwt>
</event>
<event>
 4    1  0.1726795E-008  0.9287468E+03  0.7818608E-02  0.9390343E-01
          2   -1    0    0  501    0  0.00000000000E+00  0.00000000000E+00  0.18827568435E+04  0.18827568435E+04  0.25500000000E-02 0. -1.
         -2   -1    0    0    0  501 -0.00000000000E+00 -0.00000000000E+00 -0.27738938313E+04  0.27738938313E+04  0.25500000000E-02 0.  1.
    8880022    1    1    2    0    0  0.90558187746E+03  0.13820408981E+03 -0.25729468008E+04  0.27354388679E+04  0.15294330000E+03 0.  0.
    8880022    1    1    2    0    0 -0.90558187746E+03 -0.13820408981E+03  0.16818098130E+04  0.19212118070E+04  0.15294330000E+03 0.  0.
<mgrwt>
<rscale>  0 0.92874677E+03</rscale>
<asrwt>0</asrwt>
<pdfrwt beam="1">  1        2 0.28965490E+00 0.92874677E+03</pdfrwt>
<pdfrwt beam="2">  1       -2 0.42675290E+00 0.92874677E+03</pdfrwt>
<totfact> 0.39925910E-02</totfact>
</mgrwt>
</event>
<event>
 4    1  0.1726795E-008  0.7793288E+03  0.7818608E-02  0.9590429E-01
         -2   -1    0    0    0  501 -0.00000000000E+00  0.00000000000E+00  0.24001501730E+03  0.24001501731E+03  0.25500000000E-02 0.  1.
          2   -1    0    0  501    0  0.00000000000E+00 -0.00000000000E+00 -0.46029216883E+04  0.46029216883E+04  0.25500000000E-02 0. -1.
    8880022    1    1    2    0    0  0.74829293670E+03 -0.15498210705E+03 -0.38062651422E+04  0.38852294344E+04  0.15294330000E+03 0.  0.
    8880022    1    1    2    0    0 -0.74829293670E+03  0.15498210705E+03 -0.55664152880E+03  0.95770727115E+03  0.15294330000E+03 0.  0.
<mgrwt>
<rscale>  0 0.77932883E+03</rscale>
<asrwt>0</asrwt>
<pdfrwt beam="1">  1        2 0.70814173E+00 0.77932883E+03</pdfrwt>
<pdfrwt beam="2">  1       -2 0.36925391E-01 0.77932883E+03</pdfrwt>
<totfact> 0.76278528E-01</totfact>
</mgrwt>
</event>
<event>
 4    1  0.1726795E-008  0.1359105E+04  0.7818608E-02  0.8983964E-01
         -2   -1    0    0    0  501 -0.00000000000E+00  0.00000000000E+00  0.59183243680E+03  0.59183243680E+03  0.25500000000E-02 0.  1.
          2   -1    0    0  501    0  0.00000000000E+00 -0.00000000000E+00 -0.40986983000E+04  0.40986983000E+04  0.25500000000E-02 0. -1.
    8880022    1    1    2    0    0 -0.12863102618E+04 -0.41131708247E+03 -0.28988127033E+04  0.32016062491E+04  0.15294330000E+03 0.  0.
    8880022    1    1    2    0    0  0.12863102618E+04  0.41131708247E+03 -0.60805315983E+03  0.14889244877E+04  0.15294330000E+03 0.  0.
<mgrwt>
<rscale>  0 0.13591054E+04</rscale>
<asrwt>0</asrwt>
<pdfrwt beam="1">  1        2 0.63056895E+00 0.13591054E+04</pdfrwt>
<pdfrwt beam="2">  1       -2 0.91051147E-01 0.13591054E+04</pdfrwt>
<totfact> 0.28985020E-01</totfact>
</mgrwt>
</event>
<event>
 4    1  0.1726795E-008  0.7406345E+03  0.7818608E-02  0.9650159E-01
          2   -1    0    0  501    0  0.00000000000E+00  0.00000000000E+00  0.12616357997E+04  0.12616357997E+04  0.25500000000E-02 0. -1.
         -2   -1    0    0    0  501 -0.00000000000E+00 -0.00000000000E+00 -0.73732377367E+03  0.73732377368E+03  0.25500000000E-02 0.  1.
    8880022    1    1    2    0    0 -0.28597870952E+03  0.66585578919E+03 -0.37807386510E+03  0.83155231632E+03  0.15294330000E+03 0.  0.
    8880022    1    1    2    0    0  0.28597870952E+03 -0.66585578919E+03  0.90238589109E+03  0.11674072570E+04  0.15294330000E+03 0.  0.
<mgrwt>
<rscale>  0 0.74063446E+03</rscale>
<asrwt>0</asrwt>
<pdfrwt beam="1">  1        2 0.19409781E+00 0.74063446E+03</pdfrwt>
<pdfrwt beam="2">  1       -2 0.11343443E+00 0.74063446E+03</pdfrwt>
<totfact> 0.10847017E+01</totfact>
</mgrwt>
</event>
<event>
 4    1  0.1726795E-008  0.4271826E+03  0.7818608E-02  0.1034754E+00
         -2   -1    0    0    0  501 -0.00000000000E+00  0.00000000000E+00  0.12244651743E+03  0.12244651745E+03  0.25500000000E-02 0.  1.
          2   -1    0    0  501    0  0.00000000000E+00 -0.00000000000E+00 -0.36105729034E+04  0.36105729034E+04  0.25500000000E-02 0. -1.
    8880022    1    1    2    0    0 -0.39136626669E+03  0.76979090275E+02 -0.31743911071E+04  0.32030054463E+04  0.15294330000E+03 0.  0.
    8880022    1    1    2    0    0  0.39136626669E+03 -0.76979090275E+02 -0.31373527891E+03  0.53001397462E+03  0.15294330000E+03 0.  0.
<mgrwt>
<rscale>  0 0.42718262E+03</rscale>
<asrwt>0</asrwt>
<pdfrwt beam="1">  1        2 0.55547267E+00 0.42718262E+03</pdfrwt>
<pdfrwt beam="2">  1       -2 0.18837929E-01 0.42718262E+03</pdfrwt>
<totfact> 0.18798648E+01</totfact>
</mgrwt>
</event>
<event>
 4    1  0.1726795E-008  0.3613006E+03  0.7818608E-02  0.1058070E+00
         -2   -1    0    0    0  501 -0.00000000000E+00  0.00000000000E+00  0.34591802807E+03  0.34591802808E+03  0.25500000000E-02 0.  1.
          2   -1    0    0  501    0  0.00000000000E+00 -0.00000000000E+00 -0.58458494862E+03  0.58458494862E+03  0.25500000000E-02 0. -1.
    8880022    1    1    2    0    0  0.21393521881E+03  0.24774616307E+03  0.15766509834E+03  0.39420346956E+03  0.15294330000E+03 0.  0.
    8880022    1    1    2    0    0 -0.21393521881E+03 -0.24774616307E+03 -0.39633201888E+03  0.53629950715E+03  0.15294330000E+03 0.  0.
<mgrwt>
<rscale>  0 0.36130056E+03</rscale>
<asrwt>0</asrwt>
<pdfrwt beam="1">  1        2 0.89936146E-01 0.36130056E+03</pdfrwt>
<pdfrwt beam="2">  1       -2 0.53218158E-01 0.36130056E+03</pdfrwt>
<totfact> 0.17632129E+02</totfact>
</mgrwt>
</event>
<event>
 4    1  0.1726795E-008  0.3287670E+03  0.7818608E-02  0.1071684E+00
         -2   -1    0    0    0  501 -0.00000000000E+00  0.00000000000E+00  0.19413457192E+03  0.19413457193E+03  0.25500000000E-02 0.  1.
          2   -1    0    0  501    0  0.00000000000E+00 -0.00000000000E+00 -0.86269762384E+03  0.86269762385E+03  0.25500000000E-02 0. -1.
    8880022    1    1    2    0    0  0.13708315050E+03  0.25671832347E+03 -0.64895356237E+03  0.72748090483E+03  0.15294330000E+03 0. -1.
    8880022    1    1    2    0    0 -0.13708315050E+03 -0.25671832347E+03 -0.19609489555E+02  0.32935129095E+03  0.15294330000E+03 0.  0.
<mgrwt>
<rscale>  0 0.32876700E+03</rscale>
<asrwt>0</asrwt>
<pdfrwt beam="1">  1        2 0.13272271E+00 0.32876700E+03</pdfrwt>
<pdfrwt beam="2">  1       -2 0.29866858E-01 0.32876700E+03</pdfrwt>
<totfact> 0.33214692E+02</totfact>
</mgrwt>
</event>
<event>
 4    1  0.1726795E-008  0.6624116E+03  0.7818608E-02  0.9783765E-01
         -2   -1    0    0    0  501 -0.00000000000E+00  0.00000000000E+00  0.76138264334E+03  0.76138264334E+03  0.25500000000E-02 0.  1.
          2   -1    0    0  501    0  0.00000000000E+00 -0.00000000000E+00 -0.14092385636E+04  0.14092385636E+04  0.25500000000E-02 0. -1.
    8880022    1    1    2    0    0  0.35611861261E+03 -0.53719359420E+03 -0.11583135842E+04  0.13343460706E+04  0.15294330000E+03 0.  0.
    8880022    1    1    2    0    0 -0.35611861261E+03  0.53719359420E+03  0.51045766393E+03  0.83627513629E+03  0.15294330000E+03 0.  0.
<mgrwt>
<rscale>  0 0.66241156E+03</rscale>
<asrwt>0</asrwt>
<pdfrwt beam="1">  1        2 0.21680593E+00 0.66241156E+03</pdfrwt>
<pdfrwt beam="2">  1       -2 0.11713579E+00 0.66241156E+03</pdfrwt>
<totfact> 0.83516202E+00</totfact>
</mgrwt>
</event>
<event>
 4    1  0.1726795E-008  0.8206897E+03  0.7818608E-02  0.9530543E-01
          2   -1    0    0  501    0  0.00000000000E+00  0.00000000000E+00  0.21246467835E+04  0.21246467835E+04  0.25500000000E-02 0. -1.
         -2   -1    0    0    0  501 -0.00000000000E+00 -0.00000000000E+00 -0.34184238564E+03  0.34184238565E+03  0.25500000000E-02 0.  1.
    8880022    1    1    2    0    0 -0.25798859631E+03 -0.76392525548E+03  0.55900554323E+03  0.99298477439E+03  0.15294330000E+03 0.  1.
    8880022    1    1    2    0    0  0.25798859631E+03  0.76392525548E+03  0.12237988547E+04  0.14735043948E+04  0.15294330000E+03 0.  0.
<mgrwt>
<rscale>  0 0.82068969E+03</rscale>
<asrwt>0</asrwt>
<pdfrwt beam="1">  1        2 0.32686873E+00 0.82068969E+03</pdfrwt>
<pdfrwt beam="2">  1       -2 0.52591137E-01 0.82068969E+03</pdfrwt>
<totfact> 0.19940804E+01</totfact>
</mgrwt>
</event>
<event>
 4    1  0.1726795E-008  0.4471708E+03  0.7818608E-02  0.1028569E+00
          2   -1    0    0  501    0  0.00000000000E+00  0.00000000000E+00  0.28234010370E+04  0.28234010370E+04  0.25500000000E-02 0. -1.
         -2   -1    0    0    0  501 -0.00000000000E+00 -0.00000000000E+00 -0.10151255056E+04  0.10151255056E+04  0.25500000000E-02 0.  1.
    8880022    1    1    2    0    0 -0.23605271552E+03  0.34763367237E+03 -0.94696383097E+03  0.10472355059E+04  0.15294330000E+03 0.  1.
    8880022    1    1    2    0    0  0.23605271552E+03 -0.34763367237E+03  0.27552393624E+04  0.27912910367E+04  0.15294330000E+03 0.  0.
<mgrwt>
<rscale>  0 0.44717078E+03</rscale>
<asrwt>0</asrwt>
<pdfrwt beam="1">  1        2 0.43436939E+00 0.44717078E+03</pdfrwt>
<pdfrwt beam="2">  1       -2 0.15617315E+00 0.44717078E+03</pdfrwt>
<totfact> 0.70184119E-01</totfact>
</mgrwt>
</event>
<event>
 4    1  0.1726795E-008  0.3975629E+03  0.7818608E-02  0.1044627E+00
         -2   -1    0    0    0  501 -0.00000000000E+00  0.00000000000E+00  0.18795572056E+03  0.18795572057E+03  0.25500000000E-02 0.  1.
          2   -1    0    0  501    0  0.00000000000E+00 -0.00000000000E+00 -0.21589438200E+04  0.21589438200E+04  0.25500000000E-02 0. -1.
    8880022    1    1    2    0    0 -0.10795084321E+03 -0.35072952740E+03 -0.68629856572E+02  0.40344305195E+03  0.15294330000E+03 0.  0.
    8880022    1    1    2    0    0  0.10795084321E+03  0.35072952740E+03 -0.19023582429E+04  0.19434564887E+04  0.15294330000E+03 0. -1.
<mgrwt>
<rscale>  0 0.39756287E+03</rscale>
<asrwt>0</asrwt>
<pdfrwt beam="1">  1        2 0.33214519E+00 0.39756287E+03</pdfrwt>
<pdfrwt beam="2">  1       -2 0.28916266E-01 0.39756287E+03</pdfrwt>
<totfact> 0.65332605E+01</totfact>
</mgrwt>
</event>
<event>
 4    1  0.1726795E-008  0.1140492E+04  0.7818608E-02  0.9166600E-01
         -2   -1    0    0    0  501 -0.00000000000E+00  0.00000000000E+00  0.18013515598E+04  0.18013515598E+04  0.25500000000E-02 0.  1.
          2   -1    0    0  501    0  0.00000000000E+00 -0.00000000000E+00 -0.91495255270E+03  0.91495255271E+03  0.25500000000E-02 0. -1.
    8880022    1    1    2    0    0 -0.80286821921E+03 -0.79544563768E+03  0.10667656605E+04  0.15616375275E+04  0.15294330000E+03 0.  0.
    8880022    1    1    2    0    0  0.80286821921E+03  0.79544563768E+03 -0.18036665335E+03  0.11546665850E+04  0.15294330000E+03 0.  0.
<mgrwt>
<rscale>  0 0.11404923E+04</rscale>
<asrwt>0</asrwt>
<pdfrwt beam="1">  1        2 0.14076193E+00 0.11404923E+04</pdfrwt>
<pdfrwt beam="2">  1       -2 0.27713101E+00 0.11404923E+04</pdfrwt>
<totfact> 0.12354722E+00</totfact>
</mgrwt>
</event>
<event>
 4    1  0.1726795E-008  0.1281825E+04  0.7818608E-02  0.9044104E-01
          2   -1    0    0  501    0  0.00000000000E+00  0.00000000000E+00  0.28641614458E+04  0.28641614458E+04  0.25500000000E-02 0. -1.
         -2   -1    0    0    0  501 -0.00000000000E+00 -0.00000000000E+00 -0.83178874746E+03  0.83178874747E+03  0.25500000000E-02 0.  1.
    8880022    1    1    2    0    0  0.11387825976E+04 -0.56820511567E+03  0.20456286448E+04  0.24140569719E+04  0.15294330000E+03 0.  0.
    8880022    1    1    2    0    0 -0.11387825976E+04  0.56820511567E+03 -0.13255946382E+02  0.12818932215E+04  0.15294330000E+03 0.  0.
<mgrwt>
<rscale>  0 0.12818247E+04</rscale>
<asrwt>0</asrwt>
<pdfrwt beam="1">  1        2 0.44064023E+00 0.12818247E+04</pdfrwt>
<pdfrwt beam="2">  1       -2 0.12796750E+00 0.12818247E+04</pdfrwt>
<totfact> 0.93071563E-01</totfact>
</mgrwt>
</event>
<event>
 4    1  0.1726795E-008  0.1682113E+03  0.7818608E-02  0.1179726E+00
          2   -1    0    0  501    0  0.00000000000E+00  0.00000000000E+00  0.14654358282E+04  0.14654358282E+04  0.25500000000E-02 0. -1.
         -2   -1    0    0    0  501 -0.00000000000E+00 -0.00000000000E+00 -0.52033163129E+02  0.52033163191E+02  0.25500000000E-02 0.  1.
    8880022    1    1    2    0    0 -0.20629008551E+02  0.66916623842E+02  0.13084134753E+04  0.13191818927E+04  0.15294330000E+03 0.  0.
    8880022    1    1    2    0    0  0.20629008551E+02 -0.66916623842E+02  0.10498918975E+03  0.19828709872E+03  0.15294330000E+03 0.  1.
<mgrwt>
<rscale>  0 0.16821131E+03</rscale>
<asrwt>0</asrwt>
<pdfrwt beam="1">  1        2 0.22545169E+00 0.16821131E+03</pdfrwt>
<pdfrwt beam="2">  1       -2 0.80051010E-02 0.16821131E+03</pdfrwt>
<totfact> 0.13543631E+03</totfact>
</mgrwt>
</event>
<event>
 4    1  0.1726795E-008  0.5954424E+03  0.7818608E-02  0.9914907E-01
          2   -1    0    0  501    0  0.00000000000E+00  0.00000000000E+00  0.18037155898E+04  0.18037155898E+04  0.25500000000E-02 0. -1.
         -2   -1    0    0    0  501 -0.00000000000E+00 -0.00000000000E+00 -0.40441994653E+03  0.40441994654E+03  0.25500000000E-02 0.  1.
    8880022    1    1    2    0    0 -0.56932683152E+03 -0.83827161332E+02 -0.91863480556E+02  0.60248700081E+03  0.15294330000E+03 0.  1.
    8880022    1    1    2    0    0  0.56932683152E+03  0.83827161332E+02  0.14911591238E+04  0.16056485355E+04  0.15294330000E+03 0.  0.
<mgrwt>
<rscale>  0 0.59544243E+03</rscale>
<asrwt>0</asrwt>
<pdfrwt beam="1">  1        2 0.27749471E+00 0.59544243E+03</pdfrwt>
<pdfrwt beam="2">  1       -2 0.62218453E-01 0.59544243E+03</pdfrwt>
<totfact> 0.21690507E+01</totfact>
</mgrwt>
</event>
<event>
 4    1  0.1726795E-008  0.7669002E+03  0.7818608E-02  0.9609203E-01
         -2   -1    0    0    0  501 -0.00000000000E+00  0.00000000000E+00  0.73621671959E+03  0.73621671960E+03  0.25500000000E-02 0.  1.
          2   -1    0    0  501    0  0.00000000000E+00 -0.00000000000E+00 -0.19304784911E+04  0.19304784911E+04  0.25500000000E-02 0. -1.
    8880022    1    1    2    0    0 -0.44740744441E+03  0.60379696005E+03  0.42371565632E+03  0.87616824909E+03  0.15294330000E+03 0.  0.
    8880022    1    1    2    0    0  0.44740744441E+03 -0.60379696005E+03 -0.16179774278E+04  0.17905269616E+04  0.15294330000E+03 0.  0.
<mgrwt>
<rscale>  0 0.76690015E+03</rscale>
<asrwt>0</asrwt>
<pdfrwt beam="1">  1        2 0.29699669E+00 0.76690015E+03</pdfrwt>
<pdfrwt beam="2">  1       -2 0.11326411E+00 0.76690015E+03</pdfrwt>
<totfact> 0.46107591E+00</totfact>
</mgrwt>
</event>
<event>
 4    1  0.1726795E-008  0.7033996E+03  0.7818608E-02  0.9711436E-01
         -2   -1    0    0    0  501 -0.00000000000E+00  0.00000000000E+00  0.38317290714E+03  0.38317290715E+03  0.25500000000E-02 0.  1.
          2   -1    0    0  501    0  0.00000000000E+00 -0.00000000000E+00 -0.26351889819E+04  0.26351889819E+04  0.25500000000E-02 0. -1.
    8880022    1    1    2    0    0  0.41744158908E+03 -0.54508892217E+03 -0.22037768348E+04  0.23133100536E+04  0.15294330000E+03 0.  0.
    8880022    1    1    2    0    0 -0.41744158908E+03  0.54508892217E+03 -0.48239239919E+02  0.70505183544E+03  0.15294330000E+03 0.  0.
<mgrwt>
<rscale>  0 0.70339965E+03</rscale>
<asrwt>0</asrwt>
<pdfrwt beam="1">  1        2 0.40541368E+00 0.70339965E+03</pdfrwt>
<pdfrwt beam="2">  1       -2 0.58949680E-01 0.70339965E+03</pdfrwt>
<totfact> 0.82825119E+00</totfact>
</mgrwt>
</event>
<event>
 4    1  0.1726795E-008  0.1333757E+04  0.7818608E-02  0.9003216E-01
          2   -1    0    0  501    0  0.00000000000E+00  0.00000000000E+00  0.12465801784E+04  0.12465801784E+04  0.25500000000E-02 0. -1.
         -2   -1    0    0    0  501 -0.00000000000E+00 -0.00000000000E+00 -0.20949813887E+04  0.20949813887E+04  0.25500000000E-02 0.  1.
    8880022    1    1    2    0    0  0.35862121050E+03 -0.12755026787E+04  0.51921196790E+03  0.14312543368E+04  0.15294330000E+03 0.  0.
    8880022    1    1    2    0    0 -0.35862121050E+03  0.12755026787E+04 -0.13676131782E+04  0.19103072303E+04  0.15294330000E+03 0.  0.
<mgrwt>
<rscale>  0 0.13337571E+04</rscale>
<asrwt>0</asrwt>
<pdfrwt beam="1">  1        2 0.19178157E+00 0.13337571E+04</pdfrwt>
<pdfrwt beam="2">  1       -2 0.32230483E+00 0.13337571E+04</pdfrwt>
<totfact> 0.39616649E-01</totfact>
</mgrwt>
</event>
<event>
 4    1  0.1726795E-008  0.1441564E+04  0.7818608E-02  0.8924270E-01
          2   -1    0    0  501    0  0.00000000000E+00  0.00000000000E+00  0.35199114434E+04  0.35199114434E+04  0.25500000000E-02 0. -1.
         -2   -1    0    0    0  501 -0.00000000000E+00 -0.00000000000E+00 -0.12777280293E+04  0.12777280293E+04  0.25500000000E-02 0.  1.
    8880022    1    1    2    0    0  0.51652594384E+03  0.13371299974E+04  0.28804924552E+04  0.32210780987E+04  0.15294330000E+03 0.  0.
    8880022    1    1    2    0    0 -0.51652594384E+03 -0.13371299974E+04 -0.63830904113E+03  0.15765613739E+04  0.15294330000E+03 0.  0.
<mgrwt>
<rscale>  0 0.14415642E+04</rscale>
<asrwt>0</asrwt>
<pdfrwt beam="1">  1        2 0.54152483E+00 0.14415642E+04</pdfrwt>
<pdfrwt beam="2">  1       -2 0.19657355E+00 0.14415642E+04</pdfrwt>
<totfact> 0.10546669E-01</totfact>
</mgrwt>
</event>
<event>
 4    1  0.1726795E-008  0.4008437E+03  0.7818608E-02  0.1043488E+00
         -2   -1    0    0    0  501 -0.00000000000E+00  0.00000000000E+00  0.59444018401E+03  0.59444018402E+03  0.25500000000E-02 0.  1.
          2   -1    0    0  501    0  0.00000000000E+00 -0.00000000000E+00 -0.11563185761E+04  0.11563185761E+04  0.25500000000E-02 0. -1.
    8880022    1    1    2    0    0 -0.23182640643E+03 -0.28903373805E+03  0.48532690199E+03  0.62945836976E+03  0.15294330000E+03 0.  0.
    8880022    1    1    2    0    0  0.23182640643E+03  0.28903373805E+03 -0.10472052941E+04  0.11213003904E+04  0.15294330000E+03 0.  0.
<mgrwt>
<rscale>  0 0.40084366E+03</rscale>
<asrwt>0</asrwt>
<pdfrwt beam="1">  1        2 0.17789517E+00 0.40084366E+03</pdfrwt>
<pdfrwt beam="2">  1       -2 0.91452336E-01 0.40084366E+03</pdfrwt>
<totfact> 0.21980375E+01</totfact>
</mgrwt>
</event>
<event>
 4    1  0.1726795E-008  0.9996463E+03  0.7818608E-02  0.9308933E-01
         -2   -1    0    0    0  501 -0.00000000000E+00  0.00000000000E+00  0.59633760059E+03  0.59633760060E+03  0.25500000000E-02 0.  1.
          2   -1    0    0  501    0  0.00000000000E+00 -0.00000000000E+00 -0.31075239753E+04  0.31075239753E+04  0.25500000000E-02 0. -1.
    8880022    1    1    2    0    0  0.67238371177E+03 -0.72374113297E+03  0.14778653057E+01  0.99964739809E+03  0.15294330000E+03 0.  0.
    8880022    1    1    2    0    0 -0.67238371177E+03  0.72374113297E+03 -0.25126642400E+04  0.27042141778E+04  0.15294330000E+03 0.  0.
<mgrwt>
<rscale>  0 0.99964631E+03</rscale>
<asrwt>0</asrwt>
<pdfrwt beam="1">  1        2 0.47808060E+00 0.99964631E+03</pdfrwt>
<pdfrwt beam="2">  1       -2 0.91744248E-01 0.99964631E+03</pdfrwt>
<totfact> 0.15390973E+00</totfact>
</mgrwt>
</event>
<event>
 4    1  0.1726795E-008  0.8418435E+03  0.7818608E-02  0.9501350E-01
         -2   -1    0    0    0  501 -0.00000000000E+00  0.00000000000E+00  0.21432306846E+04  0.21432306846E+04  0.25500000000E-02 0.  1.
          2   -1    0    0  501    0  0.00000000000E+00 -0.00000000000E+00 -0.96756135294E+03  0.96756135294E+03  0.25500000000E-02 0. -1.
    8880022    1    1    2    0    0 -0.82474167694E+03  0.71484646030E+02 -0.67409354463E+03  0.10784723679E+04  0.15294330000E+03 0.  0.
    8880022    1    1    2    0    0  0.82474167694E+03 -0.71484646030E+02  0.18497628763E+04  0.20323196697E+04  0.15294330000E+03 0.  0.
<mgrwt>
<rscale>  0 0.84184354E+03</rscale>
<asrwt>0</asrwt>
<pdfrwt beam="1">  1        2 0.14885560E+00 0.84184354E+03</pdfrwt>
<pdfrwt beam="2">  1       -2 0.32972779E+00 0.84184354E+03</pdfrwt>
<totfact> 0.57034000E-01</totfact>
</mgrwt>
</event>
<event>
 4    1  0.1726795E-008  0.1569524E+04  0.7818608E-02  0.8839493E-01
          2   -1    0    0  501    0  0.00000000000E+00  0.00000000000E+00  0.29385876543E+04  0.29385876543E+04  0.25500000000E-02 0. -1.
         -2   -1    0    0    0  501 -0.00000000000E+00 -0.00000000000E+00 -0.18718051876E+04  0.18718051876E+04  0.25500000000E-02 0.  1.
    8880022    1    1    2    0    0  0.37596834665E+03  0.15161335500E+04 -0.12538266548E+04  0.20088519289E+04  0.15294330000E+03 0.  0.
    8880022    1    1    2    0    0 -0.37596834665E+03 -0.15161335500E+04  0.23206091215E+04  0.28015409130E+04  0.15294330000E+03 0.  0.
<mgrwt>
<rscale>  0 0.15695237E+04</rscale>
<asrwt>0</asrwt>
<pdfrwt beam="1">  1        2 0.45209041E+00 0.15695237E+04</pdfrwt>
<pdfrwt beam="2">  1       -2 0.28797003E+00 0.15695237E+04</pdfrwt>
<totfact> 0.66691246E-02</totfact>
</mgrwt>
</event>
<event>
 4    1  0.1726795E-008  0.2918917E+03  0.7818608E-02  0.1089366E+00
         -2   -1    0    0    0  501 -0.00000000000E+00  0.00000000000E+00  0.22389515163E+03  0.22389515164E+03  0.25500000000E-02 0.  1.
          2   -1    0    0  501    0  0.00000000000E+00 -0.00000000000E+00 -0.19262418974E+04  0.19262418974E+04  0.25500000000E-02 0. -1.
    8880022    1    1    2    0    0 -0.24568134731E+03  0.38076328305E+02 -0.18142121582E+04  0.18375436156E+04  0.15294330000E+03 0.  0.
    8880022    1    1    2    0    0  0.24568134731E+03 -0.38076328305E+02  0.11186541236E+03  0.31259343354E+03  0.15294330000E+03 0.  1.
<mgrwt>
<rscale>  0 0.29189173E+03</rscale>
<asrwt>0</asrwt>
<pdfrwt beam="1">  1        2 0.29634490E+00 0.29189173E+03</pdfrwt>
<pdfrwt beam="2">  1       -2 0.34445409E-01 0.29189173E+03</pdfrwt>
<totfact> 0.64655143E+01</totfact>
</mgrwt>
</event>
<event>
 4    1  0.1726795E-008  0.5182577E+03  0.7818608E-02  0.1009120E+00
          2   -1    0    0  501    0  0.00000000000E+00  0.00000000000E+00  0.30851094459E+04  0.30851094459E+04  0.25500000000E-02 0. -1.
         -2   -1    0    0    0  501 -0.00000000000E+00 -0.00000000000E+00 -0.56162553021E+03  0.56162553022E+03  0.25500000000E-02 0.  1.
    8880022    1    1    2    0    0 -0.43863379214E+03  0.22978201760E+03 -0.41435320563E+03  0.66353568951E+03  0.15294330000E+03 0.  0.
    8880022    1    1    2    0    0  0.43863379214E+03 -0.22978201760E+03  0.29378371213E+04  0.29831992866E+04  0.15294330000E+03 0.  0.
<mgrwt>
<rscale>  0 0.51825769E+03</rscale>
<asrwt>0</asrwt>
<pdfrwt beam="1">  1        2 0.47463222E+00 0.51825769E+03</pdfrwt>
<pdfrwt beam="2">  1       -2 0.86403928E-01 0.51825769E+03</pdfrwt>
<totfact> 0.20301392E+00</totfact>
</mgrwt>
</event>
<event>
 4    1  0.1726796E-008  0.1143739E+04  0.7818608E-02  0.9163579E-01
         -2   -1    0    0    0  501 -0.00000000000E+00  0.00000000000E+00  0.15869863594E+04  0.15869863594E+04  0.25500000000E-02 0.  1.
          2   -1    0    0  501    0  0.00000000000E+00 -0.00000000000E+00 -0.15657988467E+04  0.15657988467E+04  0.25500000000E-02 0. -1.
    8880022    1    1    2    0    0  0.96657267079E+03 -0.59201796549E+03  0.10954047565E+04  0.15836828069E+04  0.15294330000E+03 0.  0.
    8880022    1    1    2    0    0 -0.96657267079E+03  0.59201796549E+03 -0.10742172437E+04  0.15691023992E+04  0.15294330000E+03 0.  0.
<mgrwt>
<rscale>  0 0.11437393E+04</rscale>
<asrwt>0</asrwt>
<pdfrwt beam="1">  1        2 0.24089213E+00 0.11437393E+04</pdfrwt>
<pdfrwt beam="2">  1       -2 0.24415175E+00 0.11437393E+04</pdfrwt>
<totfact> 0.79613716E-01</totfact>
</mgrwt>
</event>
<event>
 4    1  0.1726795E-008  0.1651040E+04  0.7818608E-02  0.8789792E-01
         -2   -1    0    0    0  501 -0.00000000000E+00  0.00000000000E+00  0.48084934410E+04  0.48084934410E+04  0.25500000000E-02 0.  1.
          2   -1    0    0  501    0  0.00000000000E+00 -0.00000000000E+00 -0.61704938872E+03  0.61704938872E+03  0.25500000000E-02 0. -1.
    8880022    1    1    2    0    0  0.16434945571E+04 -0.38288715736E+02  0.28690944187E+04  0.33102318380E+04  0.15294330000E+03 0.  0.
    8880022    1    1    2    0    0 -0.16434945571E+04  0.38288715736E+02  0.13223496336E+04  0.21153109917E+04  0.15294330000E+03 0.  0.
<mgrwt>
<rscale>  0 0.16510397E+04</rscale>
<asrwt>0</asrwt>
<pdfrwt beam="1">  1        2 0.94930678E-01 0.16510397E+04</pdfrwt>
<pdfrwt beam="2">  1       -2 0.73976820E+00 0.16510397E+04</pdfrwt>
<totfact> 0.71774177E-03</totfact>
</mgrwt>
</event>
<event>
 4    1  0.1726795E-008  0.9012259E+03  0.7818608E-02  0.9424050E-01
         -2   -1    0    0    0  501 -0.00000000000E+00  0.00000000000E+00  0.12208464546E+04  0.12208464546E+04  0.25500000000E-02 0.  1.
          2   -1    0    0  501    0  0.00000000000E+00 -0.00000000000E+00 -0.13319850094E+04  0.13319850094E+04  0.25500000000E-02 0. -1.
    8880022    1    1    2    0    0 -0.82580085162E+03 -0.32690892836E+03  0.84747371543E+03  0.12371013885E+04  0.15294330000E+03 0.  0.
    8880022    1    1    2    0    0  0.82580085162E+03  0.32690892836E+03 -0.95861227028E+03  0.13157300756E+04  0.15294330000E+03 0.  0.
<mgrwt>
<rscale>  0 0.90122591E+03</rscale>
<asrwt>0</asrwt>
<pdfrwt beam="1">  1        2 0.20492077E+00 0.90122591E+03</pdfrwt>
<pdfrwt beam="2">  1       -2 0.18782253E+00 0.90122591E+03</pdfrwt>
<totfact> 0.25510847E+00</totfact>
</mgrwt>
</event>
<event>
 4    1  0.1726795E-008  0.8004677E+03  0.7818608E-02  0.9559340E-01
          2   -1    0    0  501    0  0.00000000000E+00  0.00000000000E+00  0.23623983947E+04  0.23623983947E+04  0.25500000000E-02 0. -1.
         -2   -1    0    0    0  501 -0.00000000000E+00 -0.00000000000E+00 -0.11877518471E+04  0.11877518471E+04  0.25500000000E-02 0.  1.
    8880022    1    1    2    0    0  0.52355672705E+02  0.78397436315E+03  0.21466092269E+04  0.22909997260E+04  0.15294330000E+03 0.  0.
    8880022    1    1    2    0    0 -0.52355672705E+02 -0.78397436315E+03 -0.97196267933E+03  0.12591505158E+04  0.15294330000E+03 0.  0.
<mgrwt>
<rscale>  0 0.80046772E+03</rscale>
<asrwt>0</asrwt>
<pdfrwt beam="1">  1        2 0.36344590E+00 0.80046772E+03</pdfrwt>
<pdfrwt beam="2">  1       -2 0.18273105E+00 0.80046772E+03</pdfrwt>
<totfact> 0.75466517E-01</totfact>
</mgrwt>
</event>
<event>
 4    1  0.1726795E-008  0.5155502E+03  0.7818608E-02  0.1009798E+00
         -2   -1    0    0    0  501 -0.00000000000E+00  0.00000000000E+00  0.54142652530E+03  0.54142652530E+03  0.25500000000E-02 0.  1.
          2   -1    0    0  501    0  0.00000000000E+00 -0.00000000000E+00 -0.20291638761E+04  0.20291638761E+04  0.25500000000E-02 0. -1.
    8880022    1    1    2    0    0 -0.22709209192E+03  0.43684036880E+03  0.37520391824E+03  0.63762838653E+03  0.15294330000E+03 0.  0.
    8880022    1    1    2    0    0  0.22709209192E+03 -0.43684036880E+03 -0.18629412690E+04  0.19329620149E+04  0.15294330000E+03 0.  0.
<mgrwt>
<rscale>  0 0.51555017E+03</rscale>
<asrwt>0</asrwt>
<pdfrwt beam="1">  1        2 0.31217905E+00 0.51555017E+03</pdfrwt>
<pdfrwt beam="2">  1       -2 0.83296390E-01 0.51555017E+03</pdfrwt>
<totfact> 0.87955040E+00</totfact>
</mgrwt>
</event>
<event>
 4    1  0.1726795E-008  0.5380634E+03  0.7818608E-02  0.1004295E+00
          2   -1    0    0  501    0  0.00000000000E+00  0.00000000000E+00  0.43045008305E+04  0.43045008305E+04  0.25500000000E-02 0. -1.
         -2   -1    0    0    0  501 -0.00000000000E+00 -0.00000000000E+00 -0.11845857285E+03  0.11845857288E+03  0.25500000000E-02 0.  1.
    8880022    1    1    2    0    0 -0.22824775989E+03 -0.46262682766E+03  0.35469292557E+04  0.35875088041E+04  0.15294330000E+03 0.  0.
    8880022    1    1    2    0    0  0.22824775989E+03  0.46262682766E+03  0.63911300195E+03  0.83545059929E+03  0.15294330000E+03 0.  0.
<mgrwt>
<rscale>  0 0.53806345E+03</rscale>
<asrwt>0</asrwt>
<pdfrwt beam="1">  1        2 0.66223095E+00 0.53806345E+03</pdfrwt>
<pdfrwt beam="2">  1       -2 0.18224394E-01 0.53806345E+03</pdfrwt>
<totfact> 0.55860019E+00</totfact>
</mgrwt>
</event>
<event>
 4    1  0.1726795E-008  0.8161744E+03  0.7818608E-02  0.9536896E-01
         -2   -1    0    0    0  501 -0.00000000000E+00  0.00000000000E+00  0.54829890860E+03  0.54829890860E+03  0.25500000000E-02 0.  1.
          2   -1    0    0  501    0  0.00000000000E+00 -0.00000000000E+00 -0.29427420805E+04  0.29427420805E+04  0.25500000000E-02 0. -1.
    8880022    1    1    2    0    0  0.73766417763E+03  0.31400738387E+03 -0.25347346637E+04  0.26628970210E+04  0.15294330000E+03 0.  0.
    8880022    1    1    2    0    0 -0.73766417763E+03 -0.31400738387E+03  0.14029149187E+03  0.82814396803E+03  0.15294330000E+03 0.  0.
<mgrwt>
<rscale>  0 0.81617445E+03</rscale>
<asrwt>0</asrwt>
<pdfrwt beam="1">  1        2 0.45272954E+00 0.81617445E+03</pdfrwt>
<pdfrwt beam="2">  1       -2 0.84353680E-01 0.81617445E+03</pdfrwt>
<totfact> 0.24371577E+00</totfact>
</mgrwt>
</event>
<event>
 4    1  0.1726795E-008  0.8315800E+03  0.7818608E-02  0.9515399E-01
          2   -1    0    0  501    0  0.00000000000E+00  0.00000000000E+00  0.98364574856E+03  0.98364574856E+03  0.25500000000E-02 0. -1.
         -2   -1    0    0    0  501 -0.00000000000E+00 -0.00000000000E+00 -0.24443378691E+04  0.24443378691E+04  0.25500000000E-02 0.  1.
    8880022    1    1    2    0    0  0.63093567945E+03 -0.51966705329E+03  0.71631506247E+03  0.10975575610E+04  0.15294330000E+03 0.  0.
    8880022    1    1    2    0    0 -0.63093567945E+03  0.51966705329E+03 -0.21770071830E+04  0.23304260567E+04  0.15294330000E+03 0.  0.
<mgrwt>
<rscale>  0 0.83158002E+03</rscale>
<asrwt>0</asrwt>
<pdfrwt beam="1">  1        2 0.15133012E+00 0.83158002E+03</pdfrwt>
<pdfrwt beam="2">  1       -2 0.37605198E+00 0.83158002E+03</pdfrwt>
<totfact> 0.28666291E-01</totfact>
</mgrwt>
</event>
<event>
 4    1  0.1726795E-008  0.2939073E+03  0.7818608E-02  0.1088327E+00
          2   -1    0    0  501    0  0.00000000000E+00  0.00000000000E+00  0.37229022703E+04  0.37229022703E+04  0.25500000000E-02 0. -1.
         -2   -1    0    0    0  501 -0.00000000000E+00 -0.00000000000E+00 -0.26970328106E+03  0.26970328108E+03  0.25500000000E-02 0.  1.
    8880022    1    1    2    0    0 -0.22077579979E+03  0.11936449069E+03  0.36350998483E+04  0.36469620776E+04  0.15294330000E+03 0.  0.
    8880022    1    1    2    0    0  0.22077579979E+03 -0.11936449069E+03 -0.18190085906E+03  0.34564347376E+03  0.15294330000E+03 0.  0.
<mgrwt>
<rscale>  0 0.29390728E+03</rscale>
<asrwt>0</asrwt>
<pdfrwt beam="1">  1        2 0.57275418E+00 0.29390728E+03</pdfrwt>
<pdfrwt beam="2">  1       -2 0.41492814E-01 0.29390728E+03</pdfrwt>
<totfact> 0.39660255E+00</totfact>
</mgrwt>
</event>
<event>
 4    1  0.1726795E-008  0.8151227E+03  0.7818608E-02  0.9538382E-01
          2   -1    0    0  501    0  0.00000000000E+00  0.00000000000E+00  0.17716821274E+04  0.17716821274E+04  0.25500000000E-02 0. -1.
         -2   -1    0    0    0  501 -0.00000000000E+00 -0.00000000000E+00 -0.12853377769E+04  0.12853377769E+04  0.25500000000E-02 0.  1.
    8880022    1    1    2    0    0 -0.71237408997E+03 -0.36545389311E+03 -0.10431654120E+04  0.13238652204E+04  0.15294330000E+03 0.  1.
    8880022    1    1    2    0    0  0.71237408997E+03  0.36545389311E+03  0.15295097624E+04  0.17331546839E+04  0.15294330000E+03 0.  0.
<mgrwt>
<rscale>  0 0.81512272E+03</rscale>
<asrwt>0</asrwt>
<pdfrwt beam="1">  1        2 0.27256648E+00 0.81512272E+03</pdfrwt>
<pdfrwt beam="2">  1       -2 0.19774427E+00 0.81512272E+03</pdfrwt>
<totfact> 0.12627245E+00</totfact>
</mgrwt>
</event>
<event>
 4    1  0.1726795E-008  0.6103001E+03  0.7818608E-02  0.9884264E-01
          2   -1    0    0  501    0  0.00000000000E+00  0.00000000000E+00  0.12690701788E+04  0.12690701788E+04  0.25500000000E-02 0. -1.
         -2   -1    0    0    0  501 -0.00000000000E+00 -0.00000000000E+00 -0.24652684326E+04  0.24652684326E+04  0.25500000000E-02 0.  1.
    8880022    1    1    2    0    0 -0.57944737325E+03 -0.11539182239E+03 -0.23506023126E+04  0.24285381233E+04  0.15294330000E+03 0.  0.
    8880022    1    1    2    0    0  0.57944737325E+03  0.11539182239E+03  0.11544040588E+04  0.13058004882E+04  0.15294330000E+03 0.  0.
<mgrwt>
<rscale>  0 0.61030008E+03</rscale>
<asrwt>0</asrwt>
<pdfrwt beam="1">  1        2 0.19524157E+00 0.61030008E+03</pdfrwt>
<pdfrwt beam="2">  1       -2 0.37927206E+00 0.61030008E+03</pdfrwt>
<totfact> 0.19377675E-01</totfact>
</mgrwt>
</event>
<event>
 4    1  0.1726795E-008  0.2509126E+03  0.7818608E-02  0.1112729E+00
          2   -1    0    0  501    0  0.00000000000E+00  0.00000000000E+00  0.10596623117E+04  0.10596623117E+04  0.25500000000E-02 0. -1.
         -2   -1    0    0    0  501 -0.00000000000E+00 -0.00000000000E+00 -0.11409045089E+04  0.11409045089E+04  0.25500000000E-02 0.  1.
    8880022    1    1    2    0    0 -0.15862959232E+03  0.12000886774E+03  0.10306307516E+04  0.10607341208E+04  0.15294330000E+03 0.  0.
    8880022    1    1    2    0    0  0.15862959232E+03 -0.12000886774E+03 -0.11118729489E+04  0.11398326997E+04  0.15294330000E+03 0.  1.
<mgrwt>
<rscale>  0 0.25091259E+03</rscale>
<asrwt>0</asrwt>
<pdfrwt beam="1">  1        2 0.16302497E+00 0.25091259E+03</pdfrwt>
<pdfrwt beam="2">  1       -2 0.17552377E+00 0.25091259E+03</pdfrwt>
<totfact> 0.51693015E+00</totfact>
</mgrwt>
</event>
<event>
 4    1  0.1726795E-008  0.1097278E+04  0.7818608E-02  0.9207849E-01
          2   -1    0    0  501    0  0.00000000000E+00  0.00000000000E+00  0.35009635883E+04  0.35009635883E+04  0.25500000000E-02 0. -1.
         -2   -1    0    0    0  501 -0.00000000000E+00 -0.00000000000E+00 -0.42003705659E+03  0.42003705660E+03  0.25500000000E-02 0.  1.
    8880022    1    1    2    0    0 -0.10258747249E+04 -0.35806065496E+03  0.70583845592E+03  0.13046938195E+04  0.15294330000E+03 0.  0.
    8880022    1    1    2    0    0  0.10258747249E+04  0.35806065496E+03  0.23750880758E+04  0.26163068254E+04  0.15294330000E+03 0.  0.
<mgrwt>
<rscale>  0 0.10972776E+04</rscale>
<asrwt>0</asrwt>
<pdfrwt beam="1">  1        2 0.53860978E+00 0.10972776E+04</pdfrwt>
<pdfrwt beam="2">  1       -2 0.64621086E-01 0.10972776E+04</pdfrwt>
<totfact> 0.18317160E+00</totfact>
</mgrwt>
</event>
<event>
 4    1  0.1726795E-008  0.3486092E+03  0.7818608E-02  0.1063187E+00
         -2   -1    0    0    0  501 -0.00000000000E+00  0.00000000000E+00  0.18794844349E+03  0.18794844351E+03  0.25500000000E-02 0.  1.
          2   -1    0    0  501    0  0.00000000000E+00 -0.00000000000E+00 -0.10526831733E+04  0.10526831733E+04  0.25500000000E-02 0. -1.
    8880022    1    1    2    0    0 -0.30097661894E+02 -0.31181867202E+03 -0.81764058513E+03  0.88885574361E+03  0.15294330000E+03 0.  0.
    8880022    1    1    2    0    0  0.30097661894E+02  0.31181867202E+03 -0.47094144643E+02  0.35177587317E+03  0.15294330000E+03 0.  0.
<mgrwt>
<rscale>  0 0.34860925E+03</rscale>
<asrwt>0</asrwt>
<pdfrwt beam="1">  1        2 0.16195125E+00 0.34860925E+03</pdfrwt>
<pdfrwt beam="2">  1       -2 0.28915146E-01 0.34860925E+03</pdfrwt>
<totfact> 0.26638567E+02</totfact>
</mgrwt>
</event>
<event>
 4    1  0.1726795E-008  0.5137007E+03  0.7818608E-02  0.1010263E+00
          2   -1    0    0  501    0  0.00000000000E+00  0.00000000000E+00  0.14205158166E+04  0.14205158166E+04  0.25500000000E-02 0. -1.
         -2   -1    0    0    0  501 -0.00000000000E+00 -0.00000000000E+00 -0.43816348006E+03  0.43816348006E+03  0.25500000000E-02 0.  1.
    8880022    1    1    2    0    0 -0.17512892744E+03  0.45806831471E+03  0.11965120159E+04  0.13021249476E+04  0.15294330000E+03 0. -1.
    8880022    1    1    2    0    0  0.17512892744E+03 -0.45806831471E+03 -0.21415967931E+03  0.55655434903E+03  0.15294330000E+03 0.  0.
<mgrwt>
<rscale>  0 0.51370067E+03</rscale>
<asrwt>0</asrwt>
<pdfrwt beam="1">  1        2 0.21854089E+00 0.51370067E+03</pdfrwt>
<pdfrwt beam="2">  1       -2 0.67409766E-01 0.51370067E+03</pdfrwt>
<totfact> 0.29995626E+01</totfact>
</mgrwt>
</event>
<event>
 4    1  0.1726795E-008  0.1151406E+04  0.7818608E-02  0.9156488E-01
          2   -1    0    0  501    0  0.00000000000E+00  0.00000000000E+00  0.46125429495E+04  0.46125429495E+04  0.25500000000E-02 0. -1.
         -2   -1    0    0    0  501 -0.00000000000E+00 -0.00000000000E+00 -0.94742042948E+03  0.94742042949E+03  0.25500000000E-02 0.  1.
    8880022    1    1    2    0    0 -0.64323733576E+03  0.94265016015E+03  0.41528541198E+04  0.43095165144E+04  0.15294330000E+03 0.  0.
    8880022    1    1    2    0    0  0.64323733576E+03 -0.94265016015E+03 -0.48773159983E+03  0.12504468645E+04  0.15294330000E+03 0.  0.
<mgrwt>
<rscale>  0 0.11514058E+04</rscale>
<asrwt>0</asrwt>
<pdfrwt beam="1">  1        2 0.70962198E+00 0.11514058E+04</pdfrwt>
<pdfrwt beam="2">  1       -2 0.14575699E+00 0.11514058E+04</pdfrwt>
<totfact> 0.31861625E-02</totfact>
</mgrwt>
</event>
<event>
 4    1  0.1726795E-008  0.9297711E+03  0.7818608E-02  0.9389113E-01
         -2   -1    0    0    0  501 -0.00000000000E+00  0.00000000000E+00  0.13210672134E+04  0.13210672134E+04  0.25500000000E-02 0.  1.
          2   -1    0    0  501    0  0.00000000000E+00 -0.00000000000E+00 -0.21102239120E+04  0.21102239120E+04  0.25500000000E-02 0. -1.
    8880022    1    1    2    0    0 -0.87613006876E+03  0.27106948032E+03  0.10304429574E+04  0.13879073823E+04  0.15294330000E+03 0.  0.
    8880022    1    1    2    0    0  0.87613006876E+03 -0.27106948032E+03 -0.18195996560E+04  0.20433837431E+04  0.15294330000E+03 0.  0.
<mgrwt>
<rscale>  0 0.92977105E+03</rscale>
<asrwt>0</asrwt>
<pdfrwt beam="1">  1        2 0.32464983E+00 0.92977105E+03</pdfrwt>
<pdfrwt beam="2">  1       -2 0.20324111E+00 0.92977105E+03</pdfrwt>
<totfact> 0.74327391E-01</totfact>
</mgrwt>
</event>
<event>
 4    1  0.1726795E-008  0.1306875E+04  0.7818608E-02  0.9024131E-01
         -2   -1    0    0    0  501 -0.00000000000E+00  0.00000000000E+00  0.46196511325E+03  0.46196511325E+03  0.25500000000E-02 0.  1.
          2   -1    0    0  501    0  0.00000000000E+00 -0.00000000000E+00 -0.37900556272E+04  0.37900556272E+04  0.25500000000E-02 0. -1.
    8880022    1    1    2    0    0  0.28998755319E+03  0.12650842738E+04 -0.19970295456E+04  0.23866398262E+04  0.15294330000E+03 0.  0.
    8880022    1    1    2    0    0 -0.28998755319E+03 -0.12650842738E+04 -0.13310609684E+04  0.18653809143E+04  0.15294330000E+03 0.  0.
<mgrwt>
<rscale>  0 0.13068751E+04</rscale>
<asrwt>0</asrwt>
<pdfrwt beam="1">  1        2 0.58308546E+00 0.13068751E+04</pdfrwt>
<pdfrwt beam="2">  1       -2 0.71071558E-01 0.13068751E+04</pdfrwt>
<totfact> 0.89570912E-01</totfact>
</mgrwt>
</event>
<event>
 4    1  0.1726795E-008  0.5143718E+03  0.7818608E-02  0.1010094E+00
          2   -1    0    0  501    0  0.00000000000E+00  0.00000000000E+00  0.33722620950E+04  0.33722620950E+04  0.25500000000E-02 0. -1.
         -2   -1    0    0    0  501 -0.00000000000E+00 -0.00000000000E+00 -0.22717555611E+03  0.22717555612E+03  0.25500000000E-02 0.  1.
    8880022    1    1    2    0    0  0.47042212197E+03  0.14103081755E+03  0.30286932707E+04  0.30720614000E+04  0.15294330000E+03 0.  0.
    8880022    1    1    2    0    0 -0.47042212197E+03 -0.14103081755E+03  0.11639326816E+03  0.52737625110E+03  0.15294330000E+03 0.  0.
<mgrwt>
<rscale>  0 0.51437177E+03</rscale>
<asrwt>0</asrwt>
<pdfrwt beam="1">  1        2 0.51880954E+00 0.51437177E+03</pdfrwt>
<pdfrwt beam="2">  1       -2 0.34950086E-01 0.51437177E+03</pdfrwt>
<totfact> 0.87002991E+00</totfact>
</mgrwt>
</event>
<event>
 4    1  0.1726795E-008  0.5409957E+03  0.7818608E-02  0.1003600E+00
         -2   -1    0    0    0  501 -0.00000000000E+00  0.00000000000E+00  0.57966533916E+03  0.57966533916E+03  0.25500000000E-02 0.  1.
          2   -1    0    0  501    0  0.00000000000E+00 -0.00000000000E+00 -0.22320658784E+04  0.22320658784E+04  0.25500000000E-02 0. -1.
    8880022    1    1    2    0    0 -0.51695751911E+03  0.45161920391E+02 -0.20628782046E+04  0.21326375256E+04  0.15294330000E+03 0. -1.
    8880022    1    1    2    0    0  0.51695751911E+03 -0.45161920391E+02  0.41047766538E+03  0.67909369192E+03  0.15294330000E+03 0.  0.
<mgrwt>
<rscale>  0 0.54099568E+03</rscale>
<asrwt>0</asrwt>
<pdfrwt beam="1">  1        2 0.34339475E+00 0.54099568E+03</pdfrwt>
<pdfrwt beam="2">  1       -2 0.89179284E-01 0.54099568E+03</pdfrwt>
<totfact> 0.58102583E+00</totfact>
</mgrwt>
</event>
<event>
 4    1  0.1726795E-008  0.9950397E+03  0.7818608E-02  0.9314002E-01
          2   -1    0    0  501    0  0.00000000000E+00  0.00000000000E+00  0.11958431011E+04  0.11958431011E+04  0.25500000000E-02 0. -1.
         -2   -1    0    0    0  501 -0.00000000000E+00 -0.00000000000E+00 -0.17607041077E+04  0.17607041077E+04  0.25500000000E-02 0.  1.
    8880022    1    1    2    0    0  0.90058070344E+03  0.39454629192E+03 -0.13583854878E+04  0.16838394123E+04  0.15294330000E+03 0.  0.
    8880022    1    1    2    0    0 -0.90058070344E+03 -0.39454629192E+03  0.79352448120E+03  0.12727077965E+04  0.15294330000E+03 0.  0.
<mgrwt>
<rscale>  0 0.99503971E+03</rscale>
<asrwt>0</asrwt>
<pdfrwt beam="1">  1        2 0.18397586E+00 0.99503971E+03</pdfrwt>
<pdfrwt beam="2">  1       -2 0.27087756E+00 0.99503971E+03</pdfrwt>
<totfact> 0.91229945E-01</totfact>
</mgrwt>
</event>
<event>
 4    1  0.1726795E-008  0.4036420E+03  0.7818608E-02  0.1042526E+00
          2   -1    0    0  501    0  0.00000000000E+00  0.00000000000E+00  0.10743400103E+04  0.10743400103E+04  0.25500000000E-02 0. -1.
         -2   -1    0    0    0  501 -0.00000000000E+00 -0.00000000000E+00 -0.29875963536E+03  0.29875963537E+03  0.25500000000E-02 0.  1.
    8880022    1    1    2    0    0 -0.15542421711E+03 -0.33967416437E+03 -0.93965932454E+02  0.41443512723E+03  0.15294330000E+03 0.  0.
    8880022    1    1    2    0    0  0.15542421711E+03  0.33967416437E+03  0.86954630740E+03  0.95866451845E+03  0.15294330000E+03 0.  0.
<mgrwt>
<rscale>  0 0.40364202E+03</rscale>
<asrwt>0</asrwt>
<pdfrwt beam="1">  1        2 0.16528308E+00 0.40364202E+03</pdfrwt>
<pdfrwt beam="2">  1       -2 0.45963021E-01 0.40364202E+03</pdfrwt>
<totfact> 0.10649747E+02</totfact>
</mgrwt>
</event>
<event>
 4    1  0.1726795E-008  0.5858354E+03  0.7818608E-02  0.9935237E-01
         -2   -1    0    0    0  501 -0.00000000000E+00  0.00000000000E+00  0.62388232223E+03  0.62388232223E+03  0.25500000000E-02 0.  1.
          2   -1    0    0  501    0  0.00000000000E+00 -0.00000000000E+00 -0.19524294139E+04  0.19524294139E+04  0.25500000000E-02 0. -1.
    8880022    1    1    2    0    0  0.55038713580E+03 -0.12994410205E+03  0.42742922549E+03  0.72518884763E+03  0.15294330000E+03 0.  0.
    8880022    1    1    2    0    0 -0.55038713580E+03  0.12994410205E+03 -0.17559763172E+04  0.18511228885E+04  0.15294330000E+03 0.  0.
<mgrwt>
<rscale>  0 0.58583541E+03</rscale>
<asrwt>0</asrwt>
<pdfrwt beam="1">  1        2 0.30037375E+00 0.58583541E+03</pdfrwt>
<pdfrwt beam="2">  1       -2 0.95981897E-01 0.58583541E+03</pdfrwt>
<totfact> 0.68842778E+00</totfact>
</mgrwt>
</event>
<event>
 4    1  0.1726795E-008  0.6572151E+03  0.7818608E-02  0.9793334E-01
          2   -1    0    0  501    0  0.00000000000E+00  0.00000000000E+00  0.12172459455E+04  0.12172459455E+04  0.25500000000E-02 0. -1.
         -2   -1    0    0    0  501 -0.00000000000E+00 -0.00000000000E+00 -0.47248927584E+03  0.47248927585E+03  0.25500000000E-02 0.  1.
    8880022    1    1    2    0    0 -0.35726905708E+03 -0.52999886271E+03 -0.49202765314E+02  0.65905427603E+03  0.15294330000E+03 0.  1.
    8880022    1    1    2    0    0  0.35726905708E+03  0.52999886271E+03  0.79395943493E+03  0.10306809453E+04  0.15294330000E+03 0.  0.
<mgrwt>
<rscale>  0 0.65721505E+03</rscale>
<asrwt>0</asrwt>
<pdfrwt beam="1">  1        2 0.18726861E+00 0.65721505E+03</pdfrwt>
<pdfrwt beam="2">  1       -2 0.72690657E-01 0.65721505E+03</pdfrwt>
<totfact> 0.32579288E+01</totfact>
</mgrwt>
</event>
<event>
 4    1  0.1726795E-008  0.6958318E+03  0.7818608E-02  0.9724387E-01
         -2   -1    0    0    0  501 -0.00000000000E+00  0.00000000000E+00  0.21833190846E+03  0.21833190848E+03  0.25500000000E-02 0.  1.
          2   -1    0    0  501    0  0.00000000000E+00 -0.00000000000E+00 -0.26570445548E+04  0.26570445548E+04  0.25500000000E-02 0. -1.
    8880022    1    1    2    0    0  0.60470390970E+03 -0.30842075805E+03 -0.63470493702E+03  0.94182386490E+03  0.15294330000E+03 0.  0.
    8880022    1    1    2    0    0 -0.60470390970E+03  0.30842075805E+03 -0.18040077093E+04  0.19335525984E+04  0.15294330000E+03 0.  0.
<mgrwt>
<rscale>  0 0.69583176E+03</rscale>
<asrwt>0</asrwt>
<pdfrwt beam="1">  1        2 0.40877606E+00 0.69583176E+03</pdfrwt>
<pdfrwt beam="2">  1       -2 0.33589526E-01 0.69583176E+03</pdfrwt>
<totfact> 0.24679491E+01</totfact>
</mgrwt>
</event>
<event>
 4    1  0.1726795E-008  0.5946747E+03  0.7818608E-02  0.9916516E-01
          2   -1    0    0  501    0  0.00000000000E+00  0.00000000000E+00  0.22665374703E+04  0.22665374703E+04  0.25500000000E-02 0. -1.
         -2   -1    0    0    0  501 -0.00000000000E+00 -0.00000000000E+00 -0.11626253449E+04  0.11626253449E+04  0.25500000000E-02 0.  1.
    8880022    1    1    2    0    0  0.55123030781E+03  0.16245455780E+03 -0.10434330116E+04  0.12009956029E+04  0.15294330000E+03 0.  0.
    8880022    1    1    2    0    0 -0.55123030781E+03 -0.16245455780E+03  0.21473451369E+04  0.22281672123E+04  0.15294330000E+03 0.  0.
<mgrwt>
<rscale>  0 0.59467469E+03</rscale>
<asrwt>0</asrwt>
<pdfrwt beam="1">  1        2 0.34869807E+00 0.59467469E+03</pdfrwt>
<pdfrwt beam="2">  1       -2 0.17886544E+00 0.59467469E+03</pdfrwt>
<totfact> 0.95119594E-01</totfact>
</mgrwt>
</event>
<event>
 4    1  0.1726795E-008  0.1148495E+04  0.7818608E-02  0.9159173E-01
          2   -1    0    0  501    0  0.00000000000E+00  0.00000000000E+00  0.25493023946E+04  0.25493023946E+04  0.25500000000E-02 0. -1.
         -2   -1    0    0    0  501 -0.00000000000E+00 -0.00000000000E+00 -0.15986709287E+04  0.15986709287E+04  0.25500000000E-02 0.  1.
    8880022    1    1    2    0    0 -0.10619076837E+04  0.40987833061E+03  0.21809710000E+04  0.24648882998E+04  0.15294330000E+03 0.  0.
    8880022    1    1    2    0    0  0.10619076837E+04 -0.40987833061E+03 -0.12303395340E+04  0.16830850236E+04  0.15294330000E+03 0.  0.
<mgrwt>
<rscale>  0 0.11484946E+04</rscale>
<asrwt>0</asrwt>
<pdfrwt beam="1">  1        2 0.39220036E+00 0.11484946E+04</pdfrwt>
<pdfrwt beam="2">  1       -2 0.24594938E+00 0.11484946E+04</pdfrwt>
<totfact> 0.21865088E-01</totfact>
</mgrwt>
</event>
<event>
 4    1  0.1726795E-008  0.5012717E+03  0.7818608E-02  0.1013448E+00
         -2   -1    0    0    0  501 -0.00000000000E+00  0.00000000000E+00  0.23409686121E+04  0.23409686121E+04  0.25500000000E-02 0.  1.
          2   -1    0    0  501    0  0.00000000000E+00 -0.00000000000E+00 -0.46975956193E+03  0.46975956194E+03  0.25500000000E-02 0. -1.
    8880022    1    1    2    0    0  0.39273933690E+03 -0.27136225668E+03 -0.29880269637E+03  0.58357207393E+03  0.15294330000E+03 0.  0.
    8880022    1    1    2    0    0 -0.39273933690E+03  0.27136225668E+03  0.21700117465E+04  0.22271561001E+04  0.15294330000E+03 0.  0.
<mgrwt>
<rscale>  0 0.50127170E+03</rscale>
<asrwt>0</asrwt>
<pdfrwt beam="1">  1        2 0.72270703E-01 0.50127170E+03</pdfrwt>
<pdfrwt beam="2">  1       -2 0.36014901E+00 0.50127170E+03</pdfrwt>
<totfact> 0.99102696E-01</totfact>
</mgrwt>
</event>
<event>
 4    1  0.1726795E-008  0.7092321E+03  0.7818608E-02  0.9701573E-01
         -2   -1    0    0    0  501 -0.00000000000E+00  0.00000000000E+00  0.51523891239E+03  0.51523891240E+03  0.25500000000E-02 0.  1.
          2   -1    0    0  501    0  0.00000000000E+00 -0.00000000000E+00 -0.13281686790E+04  0.13281686790E+04  0.25500000000E-02 0. -1.
    8880022    1    1    2    0    0 -0.52561160114E+03  0.45094457383E+03 -0.88089916568E+03  0.11309259733E+04  0.15294330000E+03 0.  0.
    8880022    1    1    2    0    0  0.52561160114E+03 -0.45094457383E+03  0.67969399081E+02  0.71248161811E+03  0.15294330000E+03 0.  0.
<mgrwt>
<rscale>  0 0.70923213E+03</rscale>
<asrwt>0</asrwt>
<pdfrwt beam="1">  1        2 0.20433364E+00 0.70923213E+03</pdfrwt>
<pdfrwt beam="2">  1       -2 0.79267526E-01 0.70923213E+03</pdfrwt>
<totfact> 0.23043396E+01</totfact>
</mgrwt>
</event>
<event>
 4    1  0.1726795E-008  0.9149505E+03  0.7818608E-02  0.9407083E-01
         -2   -1    0    0    0  501 -0.00000000000E+00  0.00000000000E+00  0.53002273939E+03  0.53002273940E+03  0.25500000000E-02 0.  1.
          2   -1    0    0  501    0  0.00000000000E+00 -0.00000000000E+00 -0.21596334484E+04  0.21596334484E+04  0.25500000000E-02 0. -1.
    8880022    1    1    2    0    0  0.43842528156E+02  0.90101086190E+03 -0.15118594689E+04  0.17671597119E+04  0.15294330000E+03 0.  0.
    8880022    1    1    2    0    0 -0.43842528156E+02 -0.90101086190E+03 -0.11775124010E+03  0.92249647592E+03  0.15294330000E+03 0.  0.
<mgrwt>
<rscale>  0 0.91495049E+03</rscale>
<asrwt>0</asrwt>
<pdfrwt beam="1">  1        2 0.33225130E+00 0.91495049E+03</pdfrwt>
<pdfrwt beam="2">  1       -2 0.81541961E-01 0.91495049E+03</pdfrwt>
<totfact> 0.73123187E+00</totfact>
</mgrwt>
</event>
<event>
 4    1  0.1726795E-008  0.8091016E+03  0.7818608E-02  0.9546936E-01
         -2   -1    0    0    0  501 -0.00000000000E+00  0.00000000000E+00  0.18337069802E+04  0.18337069802E+04  0.25500000000E-02 0.  1.
          2   -1    0    0  501    0  0.00000000000E+00 -0.00000000000E+00 -0.71265701339E+03  0.71265701339E+03  0.25500000000E-02 0. -1.
    8880022    1    1    2    0    0  0.26586723860E+03 -0.74871110538E+03  0.14599436787E+04  0.16691557465E+04  0.15294330000E+03 0.  0.
    8880022    1    1    2    0    0 -0.26586723860E+03  0.74871110538E+03 -0.33889371190E+03  0.87720824715E+03  0.15294330000E+03 0.  0.
<mgrwt>
<rscale>  0 0.80910158E+03</rscale>
<asrwt>0</asrwt>
<pdfrwt beam="1">  1        2 0.10963954E+00 0.80910158E+03</pdfrwt>
<pdfrwt beam="2">  1       -2 0.28210876E+00 0.80910158E+03</pdfrwt>
<totfact> 0.16847634E+00</totfact>
</mgrwt>
</event>
<event>
 4    1  0.1726795E-008  0.6310715E+03  0.7818608E-02  0.9842960E-01
         -2   -1    0    0    0  501 -0.00000000000E+00  0.00000000000E+00  0.30559959765E+03  0.30559959766E+03  0.25500000000E-02 0.  1.
          2   -1    0    0  501    0  0.00000000000E+00 -0.00000000000E+00 -0.21456393584E+04  0.21456393584E+04  0.25500000000E-02 0. -1.
    8880022    1    1    2    0    0  0.57824524050E+03 -0.20122630456E+03 -0.16880032397E+04  0.18021115876E+04  0.15294330000E+03 0.  0.
    8880022    1    1    2    0    0 -0.57824524050E+03  0.20122630456E+03 -0.15203652109E+03  0.64912736852E+03  0.15294330000E+03 0.  0.
<mgrwt>
<rscale>  0 0.63107150E+03</rscale>
<asrwt>0</asrwt>
<pdfrwt beam="1">  1        2 0.33009835E+00 0.63107150E+03</pdfrwt>
<pdfrwt beam="2">  1       -2 0.47015324E-01 0.63107150E+03</pdfrwt>
<totfact> 0.25070620E+01</totfact>
</mgrwt>
</event>
<event>
 4    1  0.1726795E-008  0.1951842E+04  0.7818608E-02  0.8629473E-01
          2   -1    0    0  501    0  0.00000000000E+00  0.00000000000E+00  0.18220245949E+04  0.18220245949E+04  0.25500000000E-02 0. -1.
         -2   -1    0    0    0  501 -0.00000000000E+00 -0.00000000000E+00 -0.27292600752E+04  0.27292600752E+04  0.25500000000E-02 0.  1.
    8880022    1    1    2    0    0  0.19329756268E+04 -0.22338223031E+03 -0.15541724453E+04  0.24950226527E+04  0.15294330000E+03 0.  0.
    8880022    1    1    2    0    0 -0.19329756268E+04  0.22338223031E+03  0.64693696495E+03  0.20562620174E+04  0.15294330000E+03 0.  0.
<mgrwt>
<rscale>  0 0.19518417E+04</rscale>
<asrwt>0</asrwt>
<pdfrwt beam="1">  1        2 0.28031148E+00 0.19518417E+04</pdfrwt>
<pdfrwt beam="2">  1       -2 0.41988617E+00 0.19518417E+04</pdfrwt>
<totfact> 0.41083456E-02</totfact>
</mgrwt>
</event>
<event>
 4    1  0.1726795E-008  0.8297536E+03  0.7818608E-02  0.9517921E-01
          2   -1    0    0  501    0  0.00000000000E+00  0.00000000000E+00  0.22441058198E+04  0.22441058198E+04  0.25500000000E-02 0. -1.
         -2   -1    0    0    0  501 -0.00000000000E+00 -0.00000000000E+00 -0.68234864592E+03  0.68234864592E+03  0.25500000000E-02 0.  1.
    8880022    1    1    2    0    0 -0.60172504550E+03  0.55047824970E+03 -0.30465154615E+03  0.88391376919E+03  0.15294330000E+03 0.  0.
    8880022    1    1    2    0    0  0.60172504550E+03 -0.55047824970E+03  0.18664087200E+04  0.20425406965E+04  0.15294330000E+03 0.  0.
<mgrwt>
<rscale>  0 0.82975357E+03</rscale>
<asrwt>0</asrwt>
<pdfrwt beam="1">  1        2 0.34524705E+00 0.82975357E+03</pdfrwt>
<pdfrwt beam="2">  1       -2 0.10497671E+00 0.82975357E+03</pdfrwt>
<totfact> 0.36896885E+00</totfact>
</mgrwt>
</event>
<event>
 4    1  0.1726795E-008  0.1122573E+04  0.7818608E-02  0.9183466E-01
          2   -1    0    0  501    0  0.00000000000E+00  0.00000000000E+00  0.12767805436E+04  0.12767805436E+04  0.25500000000E-02 0. -1.
         -2   -1    0    0    0  501 -0.00000000000E+00 -0.00000000000E+00 -0.19501183049E+04  0.19501183049E+04  0.25500000000E-02 0.  1.
    8880022    1    1    2    0    0 -0.25022049676E+03  0.10835901899E+04  0.79721073143E+03  0.13768495197E+04  0.15294330000E+03 0.  0.
    8880022    1    1    2    0    0  0.25022049676E+03 -0.10835901899E+04 -0.14705484927E+04  0.18500493288E+04  0.15294330000E+03 0.  0.
<mgrwt>
<rscale>  0 0.11225728E+04</rscale>
<asrwt>0</asrwt>
<pdfrwt beam="1">  1        2 0.19642778E+00 0.11225728E+04</pdfrwt>
<pdfrwt beam="2">  1       -2 0.30001820E+00 0.11225728E+04</pdfrwt>
<totfact> 0.53459059E-01</totfact>
</mgrwt>
</event>
<event>
 4    1  0.1726795E-008  0.1263522E+04  0.7818608E-02  0.9059004E-01
          2   -1    0    0  501    0  0.00000000000E+00  0.00000000000E+00  0.30979725281E+04  0.30979725281E+04  0.25500000000E-02 0. -1.
         -2   -1    0    0    0  501 -0.00000000000E+00 -0.00000000000E+00 -0.12998005024E+04  0.12998005024E+04  0.25500000000E-02 0.  1.
    8880022    1    1    2    0    0 -0.98267760134E+03 -0.77938444236E+03 -0.80916616930E+03  0.15004122499E+04  0.15294330000E+03 0.  0.
    8880022    1    1    2    0    0  0.98267760134E+03  0.77938444236E+03  0.26073381950E+04  0.28973607806E+04  0.15294330000E+03 0.  0.
<mgrwt>
<rscale>  0 0.12635217E+04</rscale>
<asrwt>0</asrwt>
<pdfrwt beam="1">  1        2 0.47661115E+00 0.12635217E+04</pdfrwt>
<pdfrwt beam="2">  1       -2 0.19996931E+00 0.12635217E+04</pdfrwt>
<totfact> 0.19577331E-01</totfact>
</mgrwt>
</event>
<event>
 4    1  0.1726795E-008  0.3846592E+03  0.7818608E-02  0.1049225E+00
         -2   -1    0    0    0  501 -0.00000000000E+00  0.00000000000E+00  0.17098245791E+03  0.17098245793E+03  0.25500000000E-02 0.  1.
          2   -1    0    0  501    0  0.00000000000E+00 -0.00000000000E+00 -0.24496974163E+04  0.24496974163E+04  0.25500000000E-02 0. -1.
    8880022    1    1    2    0    0 -0.27028582873E+03  0.22697266872E+03 -0.85576009873E+02  0.39406335536E+03  0.15294330000E+03 0.  0.
    8880022    1    1    2    0    0  0.27028582873E+03 -0.22697266872E+03 -0.21931389485E+04  0.22266165188E+04  0.15294330000E+03 0.  0.
<mgrwt>
<rscale>  0 0.38465917E+03</rscale>
<asrwt>0</asrwt>
<pdfrwt beam="1">  1        2 0.37687650E+00 0.38465917E+03</pdfrwt>
<pdfrwt beam="2">  1       -2 0.26304995E-01 0.38465917E+03</pdfrwt>
<totfact> 0.54041690E+01</totfact>
</mgrwt>
</event>
<event>
 4    1  0.1726795E-008  0.1153160E+04  0.7818608E-02  0.9154873E-01
         -2   -1    0    0    0  501 -0.00000000000E+00  0.00000000000E+00  0.83696794667E+03  0.83696794667E+03  0.25500000000E-02 0.  1.
          2   -1    0    0  501    0  0.00000000000E+00 -0.00000000000E+00 -0.20244661833E+04  0.20244661833E+04  0.25500000000E-02 0. -1.
    8880022    1    1    2    0    0 -0.54214342774E+02  0.11416859156E+04 -0.12574519796E+04  0.17061544651E+04  0.15294330000E+03 0.  0.
    8880022    1    1    2    0    0  0.54214342774E+02 -0.11416859156E+04  0.69953743038E+02  0.11552796648E+04  0.15294330000E+03 0.  0.
<mgrwt>
<rscale>  0 0.11531598E+04</rscale>
<asrwt>0</asrwt>
<pdfrwt beam="1">  1        2 0.31145634E+00 0.11531598E+04</pdfrwt>
<pdfrwt beam="2">  1       -2 0.12876430E+00 0.11531598E+04</pdfrwt>
<totfact> 0.28247821E+00</totfact>
</mgrwt>
</event>
<event>
 4    1  0.1726795E-008  0.7579412E+03  0.7818608E-02  0.9622974E-01
          2   -1    0    0  501    0  0.00000000000E+00  0.00000000000E+00  0.15833675266E+04  0.15833675266E+04  0.25500000000E-02 0. -1.
         -2   -1    0    0    0  501 -0.00000000000E+00 -0.00000000000E+00 -0.77935584704E+03  0.77935584704E+03  0.25500000000E-02 0.  1.
    8880022    1    1    2    0    0  0.73179449513E+03 -0.12474007519E+03  0.12656642213E+04  0.14752561959E+04  0.15294330000E+03 0.  0.
    8880022    1    1    2    0    0 -0.73179449513E+03  0.12474007519E+03 -0.46165254166E+03  0.88746717781E+03  0.15294330000E+03 0.  0.
<mgrwt>
<rscale>  0 0.75794124E+03</rscale>
<asrwt>0</asrwt>
<pdfrwt beam="1">  1        2 0.24359500E+00 0.75794124E+03</pdfrwt>
<pdfrwt beam="2">  1       -2 0.11990090E+00 0.75794124E+03</pdfrwt>
<totfact> 0.62175381E+00</totfact>
</mgrwt>
</event>
<event>
 4    1  0.1726795E-008  0.7203816E+03  0.7818608E-02  0.9682998E-01
         -2   -1    0    0    0  501 -0.00000000000E+00  0.00000000000E+00  0.15573983398E+04  0.15573983398E+04  0.25500000000E-02 0.  1.
          2   -1    0    0  501    0  0.00000000000E+00 -0.00000000000E+00 -0.10442946934E+04  0.10442946934E+04  0.25500000000E-02 0. -1.
    8880022    1    1    2    0    0  0.45817787257E+03 -0.53444459927E+03 -0.81687744838E+03  0.10891457255E+04  0.15294330000E+03 0.  0.
    8880022    1    1    2    0    0 -0.45817787257E+03  0.53444459927E+03  0.13299810948E+04  0.15125473078E+04  0.15294330000E+03 0.  0.
<mgrwt>
<rscale>  0 0.72038160E+03</rscale>
<asrwt>0</asrwt>
<pdfrwt beam="1">  1        2 0.16066072E+00 0.72038160E+03</pdfrwt>
<pdfrwt beam="2">  1       -2 0.23959974E+00 0.72038160E+03</pdfrwt>
<totfact> 0.18244516E+00</totfact>
</mgrwt>
</event>
<event>
 4    1  0.1726795E-008  0.6451647E+03  0.7818608E-02  0.9815895E-01
         -2   -1    0    0    0  501 -0.00000000000E+00  0.00000000000E+00  0.16597214669E+04  0.16597214669E+04  0.25500000000E-02 0.  1.
          2   -1    0    0  501    0  0.00000000000E+00 -0.00000000000E+00 -0.61070913291E+03  0.61070913292E+03  0.25500000000E-02 0. -1.
    8880022    1    1    2    0    0  0.49222716264E+03 -0.38801838052E+03 -0.34698896915E+03  0.73255637393E+03  0.15294330000E+03 0.  0.
    8880022    1    1    2    0    0 -0.49222716264E+03  0.38801838052E+03  0.13960013032E+04  0.15378742259E+04  0.15294330000E+03 0.  1.
<mgrwt>
<rscale>  0 0.64516470E+03</rscale>
<asrwt>0</asrwt>
<pdfrwt beam="1">  1        2 0.93955251E-01 0.64516470E+03</pdfrwt>
<pdfrwt beam="2">  1       -2 0.25534176E+00 0.64516470E+03</pdfrwt>
<totfact> 0.30323526E+00</totfact>
</mgrwt>
</event>
<event>
 4    1  0.1726795E-008  0.1562824E+03  0.7818608E-02  0.1192959E+00
         -2   -1    0    0    0  501 -0.00000000000E+00  0.00000000000E+00  0.17374583525E+03  0.17374583527E+03  0.25500000000E-02 0.  1.
          2   -1    0    0  501    0  0.00000000000E+00 -0.00000000000E+00 -0.21897714819E+04  0.21897714819E+04  0.25500000000E-02 0. -1.
    8880022    1    1    2    0    0 -0.24213138622E+02  0.21124844856E+02 -0.21512103520E+04  0.21568797293E+04  0.15294330000E+03 0. -1.
    8880022    1    1    2    0    0  0.24213138622E+02 -0.21124844856E+02  0.13518470533E+03  0.20663758788E+03  0.15294330000E+03 0.  0.
<mgrwt>
<rscale>  0 0.15628240E+03</rscale>
<asrwt>0</asrwt>
<pdfrwt beam="1">  1        2 0.33688790E+00 0.15628240E+03</pdfrwt>
<pdfrwt beam="2">  1       -2 0.26730130E-01 0.15628240E+03</pdfrwt>
<totfact> 0.78928698E+01</totfact>
</mgrwt>
</event>
<event>
 4    1  0.1726795E-008  0.1181854E+04  0.7818608E-02  0.9128889E-01
         -2   -1    0    0    0  501 -0.00000000000E+00  0.00000000000E+00  0.85211004139E+03  0.85211004140E+03  0.25500000000E-02 0.  1.
          2   -1    0    0  501    0  0.00000000000E+00 -0.00000000000E+00 -0.16867302089E+04  0.16867302089E+04  0.25500000000E-02 0. -1.
    8880022    1    1    2    0    0 -0.45117048500E+01 -0.11719077049E+04 -0.20422030548E+03  0.11993688384E+04  0.15294330000E+03 0.  0.
    8880022    1    1    2    0    0  0.45117048500E+01  0.11719077049E+04 -0.63039986200E+03  0.13394714119E+04  0.15294330000E+03 0.  0.
<mgrwt>
<rscale>  0 0.11818543E+04</rscale>
<asrwt>0</asrwt>
<pdfrwt beam="1">  1        2 0.25949695E+00 0.11818543E+04</pdfrwt>
<pdfrwt beam="2">  1       -2 0.13109385E+00 0.11818543E+04</pdfrwt>
<totfact> 0.41376367E+00</totfact>
</mgrwt>
</event>
<event>
 4    1  0.1726795E-008  0.8278357E+03  0.7818608E-02  0.9520578E-01
          2   -1    0    0  501    0  0.00000000000E+00  0.00000000000E+00  0.12929869703E+04  0.12929869703E+04  0.25500000000E-02 0. -1.
         -2   -1    0    0    0  501 -0.00000000000E+00 -0.00000000000E+00 -0.95567959597E+03  0.95567959597E+03  0.25500000000E-02 0.  1.
    8880022    1    1    2    0    0 -0.16908809807E+03  0.79582005410E+03  0.91901239012E+03  0.12368895543E+04  0.15294330000E+03 0.  0.
    8880022    1    1    2    0    0  0.16908809807E+03 -0.79582005410E+03 -0.58170501581E+03  0.10117770119E+04  0.15294330000E+03 0.  0.
<mgrwt>
<rscale>  0 0.82783573E+03</rscale>
<asrwt>0</asrwt>
<pdfrwt beam="1">  1        2 0.19892107E+00 0.82783573E+03</pdfrwt>
<pdfrwt beam="2">  1       -2 0.14702763E+00 0.82783573E+03</pdfrwt>
<totfact> 0.53345679E+00</totfact>
</mgrwt>
</event>
<event>
 4    1  0.1726795E-008  0.7445217E+03  0.7818608E-02  0.9643984E-01
          2   -1    0    0  501    0  0.00000000000E+00  0.00000000000E+00  0.14103815841E+04  0.14103815841E+04  0.25500000000E-02 0. -1.
         -2   -1    0    0    0  501 -0.00000000000E+00 -0.00000000000E+00 -0.17103646386E+04  0.17103646386E+04  0.25500000000E-02 0.  1.
    8880022    1    1    2    0    0 -0.42119356374E+03  0.59457280251E+03 -0.15194009213E+04  0.16920081703E+04  0.15294330000E+03 0.  0.
    8880022    1    1    2    0    0  0.42119356374E+03 -0.59457280251E+03  0.12194178668E+04  0.14287380524E+04  0.15294330000E+03 0.  0.
<mgrwt>
<rscale>  0 0.74452165E+03</rscale>
<asrwt>0</asrwt>
<pdfrwt beam="1">  1        2 0.21698178E+00 0.74452165E+03</pdfrwt>
<pdfrwt beam="2">  1       -2 0.26313302E+00 0.74452165E+03</pdfrwt>
<totfact> 0.79617548E-01</totfact>
</mgrwt>
</event>
<event>
 4    1  0.1726795E-008  0.1008613E+04  0.7818608E-02  0.9299148E-01
         -2   -1    0    0    0  501 -0.00000000000E+00  0.00000000000E+00  0.62344201578E+03  0.62344201578E+03  0.25500000000E-02 0.  1.
          2   -1    0    0  501    0  0.00000000000E+00 -0.00000000000E+00 -0.18034000539E+04  0.18034000539E+04  0.25500000000E-02 0. -1.
    8880022    1    1    2    0    0 -0.32176310044E+03 -0.94359812509E+03 -0.96433895402E+03  0.13954390656E+04  0.15294330000E+03 0.  0.
    8880022    1    1    2    0    0  0.32176310044E+03  0.94359812509E+03 -0.21561908411E+03  0.10314030041E+04  0.15294330000E+03 0.  1.
<mgrwt>
<rscale>  0 0.10086132E+04</rscale>
<asrwt>0</asrwt>
<pdfrwt beam="1">  1        2 0.27744616E+00 0.10086132E+04</pdfrwt>
<pdfrwt beam="2">  1       -2 0.95914157E-01 0.10086132E+04</pdfrwt>
<totfact> 0.78102172E+00</totfact>
</mgrwt>
</event>
<event>
 4    1  0.1726795E-008  0.7776343E+03  0.7818608E-02  0.9592967E-01
          2   -1    0    0  501    0  0.00000000000E+00  0.00000000000E+00  0.19982436122E+04  0.19982436122E+04  0.25500000000E-02 0. -1.
         -2   -1    0    0    0  501 -0.00000000000E+00 -0.00000000000E+00 -0.55584431020E+03  0.55584431021E+03  0.25500000000E-02 0.  1.
    8880022    1    1    2    0    0  0.75944883308E+03  0.67534363414E+02 -0.14074451646E+03  0.79026836722E+03  0.15294330000E+03 0.  1.
    8880022    1    1    2    0    0 -0.75944883308E+03 -0.67534363414E+02  0.15831438185E+04  0.17638195552E+04  0.15294330000E+03 0.  0.
<mgrwt>
<rscale>  0 0.77763428E+03</rscale>
<asrwt>0</asrwt>
<pdfrwt beam="1">  1        2 0.30742210E+00 0.77763428E+03</pdfrwt>
<pdfrwt beam="2">  1       -2 0.85514508E-01 0.77763428E+03</pdfrwt>
<totfact> 0.82066607E+00</totfact>
</mgrwt>
</event>
<event>
 4    1  0.1726795E-008  0.5860020E+03  0.7818608E-02  0.9934881E-01
          2   -1    0    0  501    0  0.00000000000E+00  0.00000000000E+00  0.17731528678E+04  0.17731528678E+04  0.25500000000E-02 0. -1.
         -2   -1    0    0    0  501 -0.00000000000E+00 -0.00000000000E+00 -0.51149955435E+03  0.51149955435E+03  0.25500000000E-02 0.  1.
    8880022    1    1    2    0    0  0.56560432750E+03 -0.99238189807E+01  0.15312936170E+04  0.16395909648E+04  0.15294330000E+03 0.  0.
    8880022    1    1    2    0    0 -0.56560432750E+03  0.99238189807E+01 -0.26964030352E+03  0.64506145735E+03  0.15294330000E+03 0.  0.
<mgrwt>
<rscale>  0 0.58600204E+03</rscale>
<asrwt>0</asrwt>
<pdfrwt beam="1">  1        2 0.27279275E+00 0.58600204E+03</pdfrwt>
<pdfrwt beam="2">  1       -2 0.78692240E-01 0.58600204E+03</pdfrwt>
<totfact> 0.13538561E+01</totfact>
</mgrwt>
</event>
<event>
 4    1  0.1726795E-008  0.2892672E+03  0.7818608E-02  0.1090732E+00
          2   -1    0    0  501    0  0.00000000000E+00  0.00000000000E+00  0.18745492046E+03  0.18745492048E+03  0.25500000000E-02 0. -1.
         -2   -1    0    0    0  501 -0.00000000000E+00 -0.00000000000E+00 -0.12946223680E+04  0.12946223680E+04  0.25500000000E-02 0.  1.
    8880022    1    1    2    0    0  0.51799914927E+02 -0.24000136271E+03  0.46248907852E+02  0.29294111999E+03  0.15294330000E+03 0.  0.
    8880022    1    1    2    0    0 -0.51799914927E+02  0.24000136271E+03 -0.11534163554E+04  0.11891361685E+04  0.15294330000E+03 0.  1.
<mgrwt>
<rscale>  0 0.28926724E+03</rscale>
<asrwt>0</asrwt>
<pdfrwt beam="1">  1        2 0.28839219E-01 0.28926724E+03</pdfrwt>
<pdfrwt beam="2">  1       -2 0.19917267E+00 0.28926724E+03</pdfrwt>
<totfact> 0.26814307E+01</totfact>
</mgrwt>
</event>
<event>
 4    1  0.1726795E-008  0.1041126E+04  0.7818608E-02  0.9264554E-01
          2   -1    0    0  501    0  0.00000000000E+00  0.00000000000E+00  0.11492323983E+04  0.11492323983E+04  0.25500000000E-02 0. -1.
         -2   -1    0    0    0  501 -0.00000000000E+00 -0.00000000000E+00 -0.10983744056E+04  0.10983744056E+04  0.25500000000E-02 0.  1.
    8880022    1    1    2    0    0 -0.10297209400E+04 -0.15081099912E+02 -0.39698609044E+03  0.11142451539E+04  0.15294330000E+03 0.  0.
    8880022    1    1    2    0    0  0.10297209400E+04  0.15081099912E+02  0.44784408315E+03  0.11333616500E+04  0.15294330000E+03 0.  0.
<mgrwt>
<rscale>  0 0.10411265E+04</rscale>
<asrwt>0</asrwt>
<pdfrwt beam="1">  1        2 0.17680498E+00 0.10411265E+04</pdfrwt>
<pdfrwt beam="2">  1       -2 0.16898068E+00 0.10411265E+04</pdfrwt>
<totfact> 0.43471797E+00</totfact>
</mgrwt>
</event>
<event>
 4    1  0.2326923E-008  0.1084392E+04  0.7818608E-02  0.9220540E-01
         -2   -1    0    0    0  501 -0.00000000000E+00  0.00000000000E+00  0.22461724691E+04  0.22461724691E+04  0.25500000000E-02 0.  1.
          2   -1    0    0  501    0  0.00000000000E+00 -0.00000000000E+00 -0.16322011187E+04  0.16322011187E+04  0.25500000000E-02 0. -1.
    8880022    1    1    2    0    0  0.10686429397E+04 -0.10254693764E+03  0.19052076212E+04  0.21921955524E+04  0.15294330000E+03 0.  0.
    8880022    1    1    2    0    0 -0.10686429397E+04  0.10254693764E+03 -0.12912362709E+04  0.16861780354E+04  0.15294330000E+03 0. -1.
<mgrwt>
<rscale>  0 0.10843917E+04</rscale>
<asrwt>0</asrwt>
<pdfrwt beam="1">  1        2 0.25110787E+00 0.10843917E+04</pdfrwt>
<pdfrwt beam="2">  1       -2 0.34556499E+00 0.10843917E+04</pdfrwt>
<totfact> 0.17718638E-01</totfact>
</mgrwt>
</event>
<event>
 4    1  0.1726795E-008  0.8249381E+03  0.7818608E-02  0.9524606E-01
          2   -1    0    0  501    0  0.00000000000E+00  0.00000000000E+00  0.13978365257E+04  0.13978365257E+04  0.25500000000E-02 0. -1.
         -2   -1    0    0    0  501 -0.00000000000E+00 -0.00000000000E+00 -0.14077549067E+04  0.14077549067E+04  0.25500000000E-02 0.  1.
    8880022    1    1    2    0    0 -0.80979753771E+03  0.36867723357E+02  0.11296351785E+04  0.13987846763E+04  0.15294330000E+03 0.  0.
    8880022    1    1    2    0    0  0.80979753771E+03 -0.36867723357E+02 -0.11395535595E+04  0.14068067561E+04  0.15294330000E+03 0.  0.
<mgrwt>
<rscale>  0 0.82493814E+03</rscale>
<asrwt>0</asrwt>
<pdfrwt beam="1">  1        2 0.21505177E+00 0.82493814E+03</pdfrwt>
<pdfrwt beam="2">  1       -2 0.21657768E+00 0.82493814E+03</pdfrwt>
<totfact> 0.15383339E+00</totfact>
</mgrwt>
</event>
<event>
 4    1  0.1726795E-008  0.1162398E+04  0.7818608E-02  0.9146421E-01
         -2   -1    0    0    0  501 -0.00000000000E+00  0.00000000000E+00  0.48760753432E+03  0.48760753432E+03  0.25500000000E-02 0.  1.
          2   -1    0    0  501    0  0.00000000000E+00 -0.00000000000E+00 -0.37167984601E+04  0.37167984601E+04  0.25500000000E-02 0. -1.
    8880022    1    1    2    0    0 -0.77733713493E+03  0.85060295953E+03 -0.26750326029E+04  0.29166709611E+04  0.15294330000E+03 0.  0.
    8880022    1    1    2    0    0  0.77733713493E+03 -0.85060295953E+03 -0.55415832292E+03  0.12877350333E+04  0.15294330000E+03 0.  0.
<mgrwt>
<rscale>  0 0.11623984E+04</rscale>
<asrwt>0</asrwt>
<pdfrwt beam="1">  1        2 0.57181513E+00 0.11623984E+04</pdfrwt>
<pdfrwt beam="2">  1       -2 0.75016546E-01 0.11623984E+04</pdfrwt>
<totfact> 0.91909156E-01</totfact>
</mgrwt>
</event>
<event>
 4    1  0.1726795E-008  0.5564411E+03  0.7818608E-02  0.1000014E+00
         -2   -1    0    0    0  501 -0.00000000000E+00  0.00000000000E+00  0.79449494846E+03  0.79449494847E+03  0.25500000000E-02 0.  1.
          2   -1    0    0  501    0  0.00000000000E+00 -0.00000000000E+00 -0.97171656754E+03  0.97171656755E+03  0.25500000000E-02 0. -1.
    8880022    1    1    2    0    0  0.38796477897E+03  0.36839974442E+03  0.59483635339E+03  0.81452868687E+03  0.15294330000E+03 0.  0.
    8880022    1    1    2    0    0 -0.38796477897E+03 -0.36839974442E+03 -0.77205797247E+03  0.95168282914E+03  0.15294330000E+03 0.  0.
<mgrwt>
<rscale>  0 0.55644110E+03</rscale>
<asrwt>0</asrwt>
<pdfrwt beam="1">  1        2 0.14949486E+00 0.55644110E+03</pdfrwt>
<pdfrwt beam="2">  1       -2 0.12222999E+00 0.55644110E+03</pdfrwt>
<totfact> 0.13891875E+01</totfact>
</mgrwt>
</event>
<event>
 4    1  0.1726795E-008  0.7039783E+03  0.7818608E-02  0.9710453E-01
         -2   -1    0    0    0  501 -0.00000000000E+00  0.00000000000E+00  0.15053488637E+04  0.15053488637E+04  0.25500000000E-02 0.  1.
          2   -1    0    0  501    0  0.00000000000E+00 -0.00000000000E+00 -0.16170751556E+04  0.16170751556E+04  0.25500000000E-02 0. -1.
    8880022    1    1    2    0    0  0.59652333572E+03  0.34110662356E+03 -0.14491190928E+04  0.16110653671E+04  0.15294330000E+03 0.  0.
    8880022    1    1    2    0    0 -0.59652333572E+03 -0.34110662356E+03  0.13373928010E+04  0.15113586523E+04  0.15294330000E+03 0.  1.
<mgrwt>
<rscale>  0 0.70397832E+03</rscale>
<asrwt>0</asrwt>
<pdfrwt beam="1">  1        2 0.24878079E+00 0.70397832E+03</pdfrwt>
<pdfrwt beam="2">  1       -2 0.23159213E+00 0.70397832E+03</pdfrwt>
<totfact> 0.95769118E-01</totfact>
</mgrwt>
</event>
<event>
 4    1  0.1726795E-008  0.1045980E+04  0.7818608E-02  0.9259505E-01
          2   -1    0    0  501    0  0.00000000000E+00  0.00000000000E+00  0.13993372169E+04  0.13993372169E+04  0.25500000000E-02 0. -1.
         -2   -1    0    0    0  501 -0.00000000000E+00 -0.00000000000E+00 -0.99375460870E+03  0.99375460870E+03  0.25500000000E-02 0.  1.
    8880022    1    1    2    0    0  0.94514890294E+03  0.42115968254E+03 -0.34974229169E+03  0.11029021945E+04  0.15294330000E+03 0.  0.
    8880022    1    1    2    0    0 -0.94514890294E+03 -0.42115968254E+03  0.75532489989E+03  0.12901896312E+04  0.15294330000E+03 0.  0.
<mgrwt>
<rscale>  0 0.10459797E+04</rscale>
<asrwt>0</asrwt>
<pdfrwt beam="1">  1        2 0.21528265E+00 0.10459797E+04</pdfrwt>
<pdfrwt beam="2">  1       -2 0.15288532E+00 0.10459797E+04</pdfrwt>
<totfact> 0.40713375E+00</totfact>
</mgrwt>
</event>
<event>
 4    1  0.1726795E-008  0.7429051E+03  0.7818608E-02  0.9646547E-01
         -2   -1    0    0    0  501 -0.00000000000E+00  0.00000000000E+00  0.13363064218E+04  0.13363064218E+04  0.25500000000E-02 0.  1.
          2   -1    0    0  501    0  0.00000000000E+00 -0.00000000000E+00 -0.10913507697E+04  0.10913507697E+04  0.25500000000E-02 0. -1.
    8880022    1    1    2    0    0  0.61298461890E+02 -0.72440244379E+03  0.10794495627E+04  0.13103890313E+04  0.15294330000E+03 0.  0.
    8880022    1    1    2    0    0 -0.61298461890E+02  0.72440244379E+03 -0.83449391051E+03  0.11172681602E+04  0.15294330000E+03 0.  0.
<mgrwt>
<rscale>  0 0.74290515E+03</rscale>
<asrwt>0</asrwt>
<pdfrwt beam="1">  1        2 0.16790012E+00 0.74290515E+03</pdfrwt>
<pdfrwt beam="2">  1       -2 0.20558560E+00 0.74290515E+03</pdfrwt>
<totfact> 0.27712624E+00</totfact>
</mgrwt>
</event>
<event>
 4    1  0.1726795E-008  0.3090092E+03  0.7818608E-02  0.1080822E+00
         -2   -1    0    0    0  501 -0.00000000000E+00  0.00000000000E+00  0.85857382569E+03  0.85857382570E+03  0.25500000000E-02 0.  1.
          2   -1    0    0  501    0  0.00000000000E+00 -0.00000000000E+00 -0.21056839723E+04  0.21056839723E+04  0.25500000000E-02 0. -1.
    8880022    1    1    2    0    0 -0.63815829786E+02 -0.26081135443E+03 -0.20660123957E+04  0.20889935125E+04  0.15294330000E+03 0.  0.
    8880022    1    1    2    0    0  0.63815829786E+02  0.26081135443E+03  0.81890224918E+03  0.87526428549E+03  0.15294330000E+03 0.  1.
<mgrwt>
<rscale>  0 0.30900918E+03</rscale>
<asrwt>0</asrwt>
<pdfrwt beam="1">  1        2 0.32395138E+00 0.30900918E+03</pdfrwt>
<pdfrwt beam="2">  1       -2 0.13208828E+00 0.30900918E+03</pdfrwt>
<totfact> 0.28652197E+00</totfact>
</mgrwt>
</event>
<event>
 4    1  0.1726795E-008  0.3227504E+03  0.7818608E-02  0.1074390E+00
         -2   -1    0    0    0  501 -0.00000000000E+00  0.00000000000E+00  0.19687657870E+03  0.19687657872E+03  0.25500000000E-02 0.  1.
          2   -1    0    0  501    0  0.00000000000E+00 -0.00000000000E+00 -0.95124244853E+03  0.95124244854E+03  0.25500000000E-02 0. -1.
    8880022    1    1    2    0    0  0.19076477601E+03 -0.21067743474E+03  0.52362571186E+01  0.32279289441E+03  0.15294330000E+03 0.  0.
    8880022    1    1    2    0    0 -0.19076477601E+03  0.21067743474E+03 -0.75960212695E+03  0.82532613285E+03  0.15294330000E+03 0.  0.
<mgrwt>
<rscale>  0 0.32275042E+03</rscale>
<asrwt>0</asrwt>
<pdfrwt beam="1">  1        2 0.14634499E+00 0.32275042E+03</pdfrwt>
<pdfrwt beam="2">  1       -2 0.30288705E-01 0.32275042E+03</pdfrwt>
<totfact> 0.28365415E+02</totfact>
</mgrwt>
</event>
<event>
 4    1  0.1726795E-008  0.1905858E+04  0.7818608E-02  0.8651946E-01
         -2   -1    0    0    0  501 -0.00000000000E+00  0.00000000000E+00  0.17558483272E+04  0.17558483272E+04  0.25500000000E-02 0.  1.
          2   -1    0    0  501    0  0.00000000000E+00 -0.00000000000E+00 -0.38891486412E+04  0.38891486412E+04  0.25500000000E-02 0. -1.
    8880022    1    1    2    0    0 -0.18596074292E+04 -0.38828148614E+03  0.86441827580E+03  0.20927285805E+04  0.15294330000E+03 0.  0.
    8880022    1    1    2    0    0  0.18596074292E+04  0.38828148614E+03 -0.29977185898E+04  0.35522683879E+04  0.15294330000E+03 0.  0.
<mgrwt>
<rscale>  0 0.19058578E+04</rscale>
<asrwt>0</asrwt>
<pdfrwt beam="1">  1        2 0.59833056E+00 0.19058578E+04</pdfrwt>
<pdfrwt beam="2">  1       -2 0.27013051E+00 0.19058578E+04</pdfrwt>
<totfact> 0.18220883E-02</totfact>
</mgrwt>
</event>
<event>
 4    1  0.1726795E-008  0.3296986E+03  0.7818608E-02  0.1071270E+00
         -2   -1    0    0    0  501 -0.00000000000E+00  0.00000000000E+00  0.57523185122E+03  0.57523185123E+03  0.25500000000E-02 0.  1.
          2   -1    0    0  501    0  0.00000000000E+00 -0.00000000000E+00 -0.51590130609E+03  0.51590130610E+03  0.25500000000E-02 0. -1.
    8880022    1    1    2    0    0  0.91845647516E+02 -0.27726146422E+03  0.46396856619E+03  0.56918189178E+03  0.15294330000E+03 0.  0.
    8880022    1    1    2    0    0 -0.91845647516E+02  0.27726146422E+03 -0.40463802106E+03  0.52195126555E+03  0.15294330000E+03 0.  0.
<mgrwt>
<rscale>  0 0.32969864E+03</rscale>
<asrwt>0</asrwt>
<pdfrwt beam="1">  1        2 0.79369432E-01 0.32969864E+03</pdfrwt>
<pdfrwt beam="2">  1       -2 0.88497208E-01 0.32969864E+03</pdfrwt>
<totfact> 0.68481688E+01</totfact>
</mgrwt>
</event>
<event>
 4    1  0.1726795E-008  0.9605646E+03  0.7818608E-02  0.9352887E-01
          2   -1    0    0  501    0  0.00000000000E+00  0.00000000000E+00  0.20304801743E+04  0.20304801743E+04  0.25500000000E-02 0. -1.
         -2   -1    0    0    0  501 -0.00000000000E+00 -0.00000000000E+00 -0.52989527706E+03  0.52989527706E+03  0.25500000000E-02 0.  1.
    8880022    1    1    2    0    0 -0.26414705712E+03  0.91077937422E+03  0.12334514523E+04  0.15633575645E+04  0.15294330000E+03 0.  0.
    8880022    1    1    2    0    0  0.26414705712E+03 -0.91077937422E+03  0.26713344493E+03  0.99701788686E+03  0.15294330000E+03 0.  0.
<mgrwt>
<rscale>  0 0.96056462E+03</rscale>
<asrwt>0</asrwt>
<pdfrwt beam="1">  1        2 0.31238157E+00 0.96056462E+03</pdfrwt>
<pdfrwt beam="2">  1       -2 0.81522350E-01 0.96056462E+03</pdfrwt>
<totfact> 0.85720072E+00</totfact>
</mgrwt>
</event>
<event>
 4    1  0.1726795E-008  0.9561289E+03  0.7818608E-02  0.9358015E-01
          2   -1    0    0  501    0  0.00000000000E+00  0.00000000000E+00  0.26673823282E+04  0.26673823282E+04  0.25500000000E-02 0. -1.
         -2   -1    0    0    0  501 -0.00000000000E+00 -0.00000000000E+00 -0.36428126438E+03  0.36428126439E+03  0.25500000000E-02 0.  1.
    8880022    1    1    2    0    0  0.93600221493E+03 -0.12120477869E+03  0.78282345143E+03  0.12357163727E+04  0.15294330000E+03 0.  0.
    8880022    1    1    2    0    0 -0.93600221493E+03  0.12120477869E+03  0.15202776124E+04  0.17959472199E+04  0.15294330000E+03 0.  0.
<mgrwt>
<rscale>  0 0.95612886E+03</rscale>
<asrwt>0</asrwt>
<pdfrwt beam="1">  1        2 0.41036652E+00 0.95612886E+03</pdfrwt>
<pdfrwt beam="2">  1       -2 0.56043271E-01 0.95612886E+03</pdfrwt>
<totfact> 0.84773469E+00</totfact>
</mgrwt>
</event>
<event>
 4    1  0.1726795E-008  0.2141710E+03  0.7818608E-02  0.1138305E+00
         -2   -1    0    0    0  501 -0.00000000000E+00  0.00000000000E+00  0.45443210824E+02  0.45443210896E+02  0.25500000000E-02 0.  1.
          2   -1    0    0  501    0  0.00000000000E+00 -0.00000000000E+00 -0.14014080338E+04  0.14014080338E+04  0.25500000000E-02 0. -1.
    8880022    1    1    2    0    0 -0.32870630955E+02 -0.14627742032E+03 -0.10606073143E+04  0.10820152911E+04  0.15294330000E+03 0. -1.
    8880022    1    1    2    0    0  0.32870630955E+02  0.14627742032E+03 -0.29535750871E+03  0.36483595360E+03  0.15294330000E+03 0.  0.
<mgrwt>
<rscale>  0 0.21417099E+03</rscale>
<asrwt>0</asrwt>
<pdfrwt beam="1">  1        2 0.21560120E+00 0.21417099E+03</pdfrwt>
<pdfrwt beam="2">  1       -2 0.69912643E-02 0.21417099E+03</pdfrwt>
<totfact> 0.18043125E+03</totfact>
</mgrwt>
</event>
<event>
 4    1  0.1726795E-008  0.6652673E+03  0.7818608E-02  0.9778546E-01
          2   -1    0    0  501    0  0.00000000000E+00  0.00000000000E+00  0.26252117991E+04  0.26252117991E+04  0.25500000000E-02 0. -1.
         -2   -1    0    0    0  501 -0.00000000000E+00 -0.00000000000E+00 -0.30296761232E+03  0.30296761233E+03  0.25500000000E-02 0.  1.
    8880022    1    1    2    0    0 -0.13206535705E+03  0.63383564498E+03  0.18605284844E+03  0.69079389025E+03  0.15294330000E+03 0.  0.
    8880022    1    1    2    0    0  0.13206535705E+03 -0.63383564498E+03  0.21361913384E+04  0.22373855212E+04  0.15294330000E+03 0.  0.
<mgrwt>
<rscale>  0 0.66526727E+03</rscale>
<asrwt>0</asrwt>
<pdfrwt beam="1">  1        2 0.40387873E+00 0.66526727E+03</pdfrwt>
<pdfrwt beam="2">  1       -2 0.46610403E-01 0.66526727E+03</pdfrwt>
<totfact> 0.13688345E+01</totfact>
</mgrwt>
</event>
<event>
 4    1  0.1726795E-008  0.5875093E+03  0.7818608E-02  0.9931664E-01
         -2   -1    0    0    0  501 -0.00000000000E+00  0.00000000000E+00  0.18733302248E+04  0.18733302248E+04  0.25500000000E-02 0.  1.
          2   -1    0    0  501    0  0.00000000000E+00 -0.00000000000E+00 -0.50953360513E+03  0.50953360514E+03  0.25500000000E-02 0. -1.
    8880022    1    1    2    0    0  0.39777366012E+03 -0.40441523388E+03  0.16338430046E+04  0.17362632815E+04  0.15294330000E+03 0.  0.
    8880022    1    1    2    0    0 -0.39777366012E+03  0.40441523388E+03 -0.27004638498E+03  0.64660054836E+03  0.15294330000E+03 0.  0.
<mgrwt>
<rscale>  0 0.58750934E+03</rscale>
<asrwt>0</asrwt>
<pdfrwt beam="1">  1        2 0.78389784E-01 0.58750934E+03</pdfrwt>
<pdfrwt beam="2">  1       -2 0.28820466E+00 0.58750934E+03</pdfrwt>
<totfact> 0.24142885E+00</totfact>
</mgrwt>
</event>
<event>
 4    1  0.1726795E-008  0.4589683E+03  0.7818608E-02  0.1025081E+00
          2   -1    0    0  501    0  0.00000000000E+00  0.00000000000E+00  0.27559588367E+04  0.27559588367E+04  0.25500000000E-02 0. -1.
         -2   -1    0    0    0  501 -0.00000000000E+00 -0.00000000000E+00 -0.83557900715E+02  0.83557900754E+02  0.25500000000E-02 0.  1.
    8880022    1    1    2    0    0  0.39801338790E+03 -0.16983984518E+03  0.92167878723E+03  0.10296327840E+04  0.15294330000E+03 0.  0.
    8880022    1    1    2    0    0 -0.39801338790E+03  0.16983984518E+03  0.17507221487E+04  0.18098839535E+04  0.15294330000E+03 0.  1.
<mgrwt>
<rscale>  0 0.45896828E+03</rscale>
<asrwt>0</asrwt>
<pdfrwt beam="1">  1        2 0.42399367E+00 0.45896828E+03</pdfrwt>
<pdfrwt beam="2">  1       -2 0.12855062E-01 0.45896828E+03</pdfrwt>
<totfact> 0.12204596E+02</totfact>
</mgrwt>
</event>
<event>
 4    1  0.1726795E-008  0.5962921E+03  0.7818608E-02  0.9913129E-01
         -2   -1    0    0    0  501 -0.00000000000E+00  0.00000000000E+00  0.34646815127E+03  0.34646815128E+03  0.25500000000E-02 0.  1.
          2   -1    0    0  501    0  0.00000000000E+00 -0.00000000000E+00 -0.20788684674E+04  0.20788684674E+04  0.25500000000E-02 0. -1.
    8880022    1    1    2    0    0 -0.10899929448E+01  0.57634312986E+03 -0.32946554969E+01  0.59630118161E+03  0.15294330000E+03 0.  0.
    8880022    1    1    2    0    0  0.10899929448E+01 -0.57634312986E+03 -0.17291056607E+04  0.18290354371E+04  0.15294330000E+03 0.  0.
<mgrwt>
<rscale>  0 0.59629208E+03</rscale>
<asrwt>0</asrwt>
<pdfrwt beam="1">  1        2 0.31982591E+00 0.59629208E+03</pdfrwt>
<pdfrwt beam="2">  1       -2 0.53302794E-01 0.59629208E+03</pdfrwt>
<totfact> 0.21254590E+01</totfact>
</mgrwt>
</event>
<event>
 4    1  0.1726795E-008  0.9000767E+03  0.7818608E-02  0.9425485E-01
          2   -1    0    0  501    0  0.00000000000E+00  0.00000000000E+00  0.21983667995E+04  0.21983667995E+04  0.25500000000E-02 0. -1.
         -2   -1    0    0    0  501 -0.00000000000E+00 -0.00000000000E+00 -0.52243567358E+03  0.52243567359E+03  0.25500000000E-02 0.  1.
    8880022    1    1    2    0    0 -0.65759213757E+03  0.59524707228E+03  0.99560635857E+02  0.90556638061E+03  0.15294330000E+03 0.  0.
    8880022    1    1    2    0    0  0.65759213757E+03 -0.59524707228E+03  0.15763704900E+04  0.18152360924E+04  0.15294330000E+03 0.  0.
<mgrwt>
<rscale>  0 0.90007675E+03</rscale>
<asrwt>0</asrwt>
<pdfrwt beam="1">  1        2 0.33821028E+00 0.90007675E+03</pdfrwt>
<pdfrwt beam="2">  1       -2 0.80374719E-01 0.90007675E+03</pdfrwt>
<totfact> 0.72046930E+00</totfact>
</mgrwt>
</event>
<event>
 4    1  0.1726795E-008  0.2683344E+03  0.7818608E-02  0.1102237E+00
          2   -1    0    0  501    0  0.00000000000E+00  0.00000000000E+00  0.19265105737E+04  0.19265105737E+04  0.25500000000E-02 0. -1.
         -2   -1    0    0    0  501 -0.00000000000E+00 -0.00000000000E+00 -0.88701831100E+03  0.88701831100E+03  0.25500000000E-02 0.  1.
    8880022    1    1    2    0    0  0.58079089958E+02 -0.21269347445E+03 -0.85706195868E+03  0.89808604754E+03  0.15294330000E+03 0.  1.
    8880022    1    1    2    0    0 -0.58079089958E+02  0.21269347445E+03  0.18965542214E+04  0.19154428372E+04  0.15294330000E+03 0.  0.
<mgrwt>
<rscale>  0 0.26833440E+03</rscale>
<asrwt>0</asrwt>
<pdfrwt beam="1">  1        2 0.29638624E+00 0.26833440E+03</pdfrwt>
<pdfrwt beam="2">  1       -2 0.13646436E+00 0.26833440E+03</pdfrwt>
<totfact> 0.33495495E+00</totfact>
</mgrwt>
</event>
<event>
 4    1  0.1726795E-008  0.8436748E+03  0.7818608E-02  0.9498866E-01
         -2   -1    0    0    0  501 -0.00000000000E+00  0.00000000000E+00  0.10182011855E+04  0.10182011855E+04  0.25500000000E-02 0.  1.
          2   -1    0    0  501    0  0.00000000000E+00 -0.00000000000E+00 -0.80152514172E+03  0.80152514173E+03  0.25500000000E-02 0. -1.
    8880022    1    1    2    0    0  0.32739377929E+02  0.82904986611E+03 -0.21697267047E+03  0.87112819958E+03  0.15294330000E+03 0.  0.
    8880022    1    1    2    0    0 -0.32739377929E+02 -0.82904986611E+03  0.43364871422E+03  0.94859812762E+03  0.15294330000E+03 0.  0.
<mgrwt>
<rscale>  0 0.84367482E+03</rscale>
<asrwt>0</asrwt>
<pdfrwt beam="1">  1        2 0.12331156E+00 0.84367482E+03</pdfrwt>
<pdfrwt beam="2">  1       -2 0.15664634E+00 0.84367482E+03</pdfrwt>
<totfact> 0.92261046E+00</totfact>
</mgrwt>
</event>
<event>
 4    1  0.1726795E-008  0.6649338E+03  0.7818608E-02  0.9779154E-01
          2   -1    0    0  501    0  0.00000000000E+00  0.00000000000E+00  0.79122482748E+03  0.79122482748E+03  0.25500000000E-02 0. -1.
         -2   -1    0    0    0  501 -0.00000000000E+00 -0.00000000000E+00 -0.12702686460E+04  0.12702686460E+04  0.25500000000E-02 0.  1.
    8880022    1    1    2    0    0 -0.38779779640E+03 -0.51803293786E+03  0.53188207722E+03  0.85149013658E+03  0.15294330000E+03 0.  0.
    8880022    1    1    2    0    0  0.38779779640E+03  0.51803293786E+03 -0.10109258957E+04  0.12100033369E+04  0.15294330000E+03 0.  0.
<mgrwt>
<rscale>  0 0.66493376E+03</rscale>
<asrwt>0</asrwt>
<pdfrwt beam="1">  1        2 0.12172690E+00 0.66493376E+03</pdfrwt>
<pdfrwt beam="2">  1       -2 0.19542595E+00 0.66493376E+03</pdfrwt>
<totfact> 0.51503175E+00</totfact>
</mgrwt>
</event>
<event>
 4    1  0.1726795E-008  0.1352105E+04  0.7818608E-02  0.8989236E-01
          2   -1    0    0  501    0  0.00000000000E+00  0.00000000000E+00  0.34148434613E+04  0.34148434613E+04  0.25500000000E-02 0. -1.
         -2   -1    0    0    0  501 -0.00000000000E+00 -0.00000000000E+00 -0.83621831493E+03  0.83621831494E+03  0.25500000000E-02 0.  1.
    8880022    1    1    2    0    0 -0.38352309277E+03 -0.12875190946E+04  0.25642389833E+04  0.28988805768E+04  0.15294330000E+03 0.  0.
    8880022    1    1    2    0    0  0.38352309277E+03  0.12875190946E+04  0.14386163054E+02  0.13521811995E+04  0.15294330000E+03 0.  0.
<mgrwt>
<rscale>  0 0.13521047E+04</rscale>
<asrwt>0</asrwt>
<pdfrwt beam="1">  1        2 0.52536054E+00 0.13521047E+04</pdfrwt>
<pdfrwt beam="2">  1       -2 0.12864897E+00 0.13521047E+04</pdfrwt>
<totfact> 0.40434292E-01</totfact>
</mgrwt>
</event>
<event>
 4    1  0.1726795E-008  0.6755607E+03  0.7818608E-02  0.9759964E-01
         -2   -1    0    0    0  501 -0.00000000000E+00  0.00000000000E+00  0.17017178729E+04  0.17017178729E+04  0.25500000000E-02 0.  1.
          2   -1    0    0  501    0  0.00000000000E+00 -0.00000000000E+00 -0.14703645139E+04  0.14703645139E+04  0.25500000000E-02 0. -1.
    8880022    1    1    2    0    0  0.65576685265E+03  0.54410452234E+02  0.15497979047E+04  0.16906377083E+04  0.15294330000E+03 0.  0.
    8880022    1    1    2    0    0 -0.65576685265E+03 -0.54410452234E+02 -0.13184445457E+04  0.14814446785E+04  0.15294330000E+03 0.  0.
<mgrwt>
<rscale>  0 0.67556074E+03</rscale>
<asrwt>0</asrwt>
<pdfrwt beam="1">  1        2 0.22620993E+00 0.67556074E+03</pdfrwt>
<pdfrwt beam="2">  1       -2 0.26180275E+00 0.67556074E+03</pdfrwt>
<totfact> 0.76185650E-01</totfact>
</mgrwt>
</event>
<event>
 4    1  0.1726795E-008  0.5198094E+03  0.7818608E-02  0.1008734E+00
          2   -1    0    0  501    0  0.00000000000E+00  0.00000000000E+00  0.16078579123E+04  0.16078579123E+04  0.25500000000E-02 0. -1.
         -2   -1    0    0    0  501 -0.00000000000E+00 -0.00000000000E+00 -0.85561770304E+03  0.85561770304E+03  0.25500000000E-02 0.  1.
    8880022    1    1    2    0    0  0.23656382516E+03  0.43686121332E+03  0.14802899217E+04  0.15689040979E+04  0.15294330000E+03 0.  0.
    8880022    1    1    2    0    0 -0.23656382516E+03 -0.43686121332E+03 -0.72804971242E+03  0.89457151746E+03  0.15294330000E+03 0.  0.
<mgrwt>
<rscale>  0 0.51980940E+03</rscale>
<asrwt>0</asrwt>
<pdfrwt beam="1">  1        2 0.24736275E+00 0.51980940E+03</pdfrwt>
<pdfrwt beam="2">  1       -2 0.13163349E+00 0.51980940E+03</pdfrwt>
<totfact> 0.49831493E+00</totfact>
</mgrwt>
</event>
<event>
 4    1  0.1726795E-008  0.1006662E+04  0.7818608E-02  0.9301268E-01
          2   -1    0    0  501    0  0.00000000000E+00  0.00000000000E+00  0.79471833633E+03  0.79471833633E+03  0.25500000000E-02 0. -1.
         -2   -1    0    0    0  501 -0.00000000000E+00 -0.00000000000E+00 -0.13518574393E+04  0.13518574393E+04  0.25500000000E-02 0.  1.
    8880022    1    1    2    0    0  0.29382649468E+03  0.95060097915E+03 -0.53426958988E+03  0.11396542801E+04  0.15294330000E+03 0.  0.
    8880022    1    1    2    0    0 -0.29382649468E+03 -0.95060097915E+03 -0.22869513132E+02  0.10069214955E+04  0.15294330000E+03 0.  0.
<mgrwt>
<rscale>  0 0.10066618E+04</rscale>
<asrwt>0</asrwt>
<pdfrwt beam="1">  1        2 0.12226436E+00 0.10066618E+04</pdfrwt>
<pdfrwt beam="2">  1       -2 0.20797807E+00 0.10066618E+04</pdfrwt>
<totfact> 0.40707809E+00</totfact>
</mgrwt>
</event>
<event>
 4    1  0.1726795E-008  0.1226795E+04  0.7818608E-02  0.9089721E-01
          2   -1    0    0  501    0  0.00000000000E+00  0.00000000000E+00  0.16184878027E+04  0.16184878027E+04  0.25500000000E-02 0. -1.
         -2   -1    0    0    0  501 -0.00000000000E+00 -0.00000000000E+00 -0.21090509594E+04  0.21090509594E+04  0.25500000000E-02 0.  1.
    8880022    1    1    2    0    0 -0.35779877327E+03 -0.11634492513E+04 -0.16388683867E+04  0.20471725292E+04  0.15294330000E+03 0.  0.
    8880022    1    1    2    0    0  0.35779877327E+03  0.11634492513E+04  0.11483052300E+04  0.16803662329E+04  0.15294330000E+03 0.  0.
<mgrwt>
<rscale>  0 0.12267949E+04</rscale>
<asrwt>0</asrwt>
<pdfrwt beam="1">  1        2 0.24899812E+00 0.12267949E+04</pdfrwt>
<pdfrwt beam="2">  1       -2 0.32446938E+00 0.12267949E+04</pdfrwt>
<totfact> 0.23830541E-01</totfact>
</mgrwt>
</event>
<event>
 4    1  0.1726795E-008  0.3896609E+03  0.7818608E-02  0.1047420E+00
         -2   -1    0    0    0  501 -0.00000000000E+00  0.00000000000E+00  0.25441744748E+04  0.25441744748E+04  0.25500000000E-02 0.  1.
          2   -1    0    0  501    0  0.00000000000E+00 -0.00000000000E+00 -0.37897339537E+03  0.37897339537E+03  0.25500000000E-02 0. -1.
    8880022    1    1    2    0    0  0.19161888902E+02  0.35787822423E+03  0.24241650995E+04  0.24552824856E+04  0.15294330000E+03 0.  0.
    8880022    1    1    2    0    0 -0.19161888902E+02 -0.35787822423E+03 -0.25896402009E+03  0.46786538457E+03  0.15294330000E+03 0. -1.
<mgrwt>
<rscale>  0 0.38966095E+03</rscale>
<asrwt>0</asrwt>
<pdfrwt beam="1">  1        2 0.58303597E-01 0.38966095E+03</pdfrwt>
<pdfrwt beam="2">  1       -2 0.39141148E+00 0.38966095E+03</pdfrwt>
<totfact> 0.82984015E-01</totfact>
</mgrwt>
</event>
<event>
 4    1  0.1726795E-008  0.6667910E+03  0.7818608E-02  0.9775772E-01
          2   -1    0    0  501    0  0.00000000000E+00  0.00000000000E+00  0.11492177959E+04  0.11492177959E+04  0.25500000000E-02 0. -1.
         -2   -1    0    0    0  501 -0.00000000000E+00 -0.00000000000E+00 -0.46152396569E+03  0.46152396569E+03  0.25500000000E-02 0.  1.
    8880022    1    1    2    0    0  0.64756108339E+03 -0.43395484658E+02  0.19959458478E+02  0.66708961753E+03  0.15294330000E+03 0.  0.
    8880022    1    1    2    0    0 -0.64756108339E+03  0.43395484658E+02  0.66773437176E+03  0.94365214409E+03  0.15294330000E+03 0.  0.
<mgrwt>
<rscale>  0 0.66679096E+03</rscale>
<asrwt>0</asrwt>
<pdfrwt beam="1">  1        2 0.17680273E+00 0.66679096E+03</pdfrwt>
<pdfrwt beam="2">  1       -2 0.71003688E-01 0.66679096E+03</pdfrwt>
<totfact> 0.37593768E+01</totfact>
</mgrwt>
</event>
<event>
 4    1  0.1726795E-008  0.6944025E+03  0.7818608E-02  0.9726853E-01
         -2   -1    0    0    0  501 -0.00000000000E+00  0.00000000000E+00  0.74523773722E+03  0.74523773723E+03  0.25500000000E-02 0.  1.
          2   -1    0    0  501    0  0.00000000000E+00 -0.00000000000E+00 -0.12029725089E+04  0.12029725089E+04  0.25500000000E-02 0. -1.
    8880022    1    1    2    0    0  0.61932472835E+03  0.27429919119E+03 -0.89107017674E+03  0.11296906118E+04  0.15294330000E+03 0.  0.
    8880022    1    1    2    0    0 -0.61932472835E+03 -0.27429919119E+03  0.43333540510E+03  0.81851963432E+03  0.15294330000E+03 0.  0.
<mgrwt>
<rscale>  0 0.69440249E+03</rscale>
<asrwt>0</asrwt>
<pdfrwt beam="1">  1        2 0.18507269E+00 0.69440249E+03</pdfrwt>
<pdfrwt beam="2">  1       -2 0.11465196E+00 0.69440249E+03</pdfrwt>
<totfact> 0.11507997E+01</totfact>
</mgrwt>
</event>
<event>
 4    1  0.1726795E-008  0.1975510E+04  0.7818608E-02  0.8618157E-01
          2   -1    0    0  501    0  0.00000000000E+00  0.00000000000E+00  0.26139321967E+04  0.26139321967E+04  0.25500000000E-02 0. -1.
         -2   -1    0    0    0  501 -0.00000000000E+00 -0.00000000000E+00 -0.21205403966E+04  0.21205403966E+04  0.25500000000E-02 0.  1.
    8880022    1    1    2    0    0 -0.18365185285E+04  0.71165090383E+03  0.15344535051E+04  0.25014368924E+04  0.15294330000E+03 0.  0.
    8880022    1    1    2    0    0  0.18365185285E+04 -0.71165090383E+03 -0.10410617049E+04  0.22330357008E+04  0.15294330000E+03 0.  0.
<mgrwt>
<rscale>  0 0.19755098E+04</rscale>
<asrwt>0</asrwt>
<pdfrwt beam="1">  1        2 0.40214342E+00 0.19755098E+04</pdfrwt>
<pdfrwt beam="2">  1       -2 0.32623698E+00 0.19755098E+04</pdfrwt>
<totfact> 0.58018855E-02</totfact>
</mgrwt>
</event>
<event>
 4    1  0.1726795E-008  0.1046789E+04  0.7818608E-02  0.9258666E-01
         -2   -1    0    0    0  501 -0.00000000000E+00  0.00000000000E+00  0.15121634823E+04  0.15121634823E+04  0.25500000000E-02 0.  1.
          2   -1    0    0  501    0  0.00000000000E+00 -0.00000000000E+00 -0.80384673463E+03  0.80384673464E+03  0.25500000000E-02 0. -1.
    8880022    1    1    2    0    0  0.56562095013E+03 -0.86743736895E+03  0.71767068650E+03  0.12691798594E+04  0.15294330000E+03 0.  0.
    8880022    1    1    2    0    0 -0.56562095013E+03  0.86743736895E+03 -0.93539388207E+01  0.10468303575E+04  0.15294330000E+03 0.  0.
<mgrwt>
<rscale>  0 0.10467886E+04</rscale>
<asrwt>0</asrwt>
<pdfrwt beam="1">  1        2 0.12366873E+00 0.10467886E+04</pdfrwt>
<pdfrwt beam="2">  1       -2 0.23264053E+00 0.10467886E+04</pdfrwt>
<totfact> 0.27902343E+00</totfact>
</mgrwt>
</event>
<event>
 4    1  0.1754858E-008  0.9131876E+03  0.7818608E-02  0.9409245E-01
         -2   -1    0    0    0  501 -0.00000000000E+00  0.00000000000E+00  0.91528068898E+03  0.91528068898E+03  0.25500000000E-02 0.  1.
          2   -1    0    0  501    0  0.00000000000E+00 -0.00000000000E+00 -0.24924385619E+04  0.24924385619E+04  0.25500000000E-02 0. -1.
    8880022    1    1    2    0    0 -0.66396458068E+03 -0.60800576243E+03 -0.21457484755E+04  0.23319837360E+04  0.15294330000E+03 0. -1.
    8880022    1    1    2    0    0  0.66396458068E+03  0.60800576243E+03  0.56859060264E+03  0.10757355149E+04  0.15294330000E+03 0.  0.
<mgrwt>
<rscale>  0 0.91318762E+03</rscale>
<asrwt>0</asrwt>
<pdfrwt beam="1">  1        2 0.38345208E+00 0.91318762E+03</pdfrwt>
<pdfrwt beam="2">  1       -2 0.14081242E+00 0.91318762E+03</pdfrwt>
<totfact> 0.12689997E+00</totfact>
</mgrwt>
</event>
<event>
 4    1  0.1726795E-008  0.1251555E+04  0.7818608E-02  0.9068890E-01
          2   -1    0    0  501    0  0.00000000000E+00  0.00000000000E+00  0.29942991437E+04  0.29942991437E+04  0.25500000000E-02 0. -1.
         -2   -1    0    0    0  501 -0.00000000000E+00 -0.00000000000E+00 -0.65316201158E+03  0.65316201158E+03  0.25500000000E-02 0.  1.
    8880022    1    1    2    0    0 -0.11411480968E+04  0.49069258740E+03  0.19843079279E+04  0.23460323527E+04  0.15294330000E+03 0.  0.
    8880022    1    1    2    0    0  0.11411480968E+04 -0.49069258740E+03  0.35682920424E+03  0.13014288026E+04  0.15294330000E+03 0.  0.
<mgrwt>
<rscale>  0 0.12515550E+04</rscale>
<asrwt>0</asrwt>
<pdfrwt beam="1">  1        2 0.46066141E+00 0.12515550E+04</pdfrwt>
<pdfrwt beam="2">  1       -2 0.10048646E+00 0.12515550E+04</pdfrwt>
<totfact> 0.14102428E+00</totfact>
</mgrwt>
</event>
<event>
 4    1  0.1726795E-008  0.5893514E+03  0.7818608E-02  0.9927748E-01
         -2   -1    0    0    0  501 -0.00000000000E+00  0.00000000000E+00  0.56526629335E+03  0.56526629336E+03  0.25500000000E-02 0.  1.
          2   -1    0    0  501    0  0.00000000000E+00 -0.00000000000E+00 -0.11792984496E+04  0.11792984496E+04  0.25500000000E-02 0. -1.
    8880022    1    1    2    0    0 -0.30931501695E+03  0.47777358334E+03  0.29666329342E+03  0.65980613769E+03  0.15294330000E+03 0.  0.
    8880022    1    1    2    0    0  0.30931501695E+03 -0.47777358334E+03 -0.91069544967E+03  0.10847586053E+04  0.15294330000E+03 0. -1.
<mgrwt>
<rscale>  0 0.58935136E+03</rscale>
<asrwt>0</asrwt>
<pdfrwt beam="1">  1        2 0.18143053E+00 0.58935136E+03</pdfrwt>
<pdfrwt beam="2">  1       -2 0.86964045E-01 0.58935136E+03</pdfrwt>
<totfact> 0.23157888E+01</totfact>
</mgrwt>
</event>
<event>
 4    1  0.1726795E-008  0.1303200E+04  0.7818608E-02  0.9027031E-01
         -2   -1    0    0    0  501 -0.00000000000E+00  0.00000000000E+00  0.19098405630E+04  0.19098405630E+04  0.25500000000E-02 0.  1.
          2   -1    0    0  501    0  0.00000000000E+00 -0.00000000000E+00 -0.15541836607E+04  0.15541836607E+04  0.25500000000E-02 0. -1.
    8880022    1    1    2    0    0 -0.66841613648E+03  0.11082230922E+04 -0.95506260321E+03  0.16156963770E+04  0.15294330000E+03 0.  0.
    8880022    1    1    2    0    0  0.66841613648E+03 -0.11082230922E+04  0.13107195055E+04  0.18483278467E+04  0.15294330000E+03 0.  0.
<mgrwt>
<rscale>  0 0.13032000E+04</rscale>
<asrwt>0</asrwt>
<pdfrwt beam="1">  1        2 0.23910518E+00 0.13032000E+04</pdfrwt>
<pdfrwt beam="2">  1       -2 0.29382163E+00 0.13032000E+04</pdfrwt>
<totfact> 0.39465460E-01</totfact>
</mgrwt>
</event>
<event>
 4    1  0.1726795E-008  0.8560796E+03  0.7818608E-02  0.9482213E-01
         -2   -1    0    0    0  501 -0.00000000000E+00  0.00000000000E+00  0.40526155928E+03  0.40526155928E+03  0.25500000000E-02 0.  1.
          2   -1    0    0  501    0  0.00000000000E+00 -0.00000000000E+00 -0.28474602107E+04  0.28474602107E+04  0.25500000000E-02 0. -1.
    8880022    1    1    2    0    0 -0.67197154215E+03 -0.50787288956E+03 -0.22035479555E+04  0.23639999726E+04  0.15294330000E+03 0.  0.
    8880022    1    1    2    0    0  0.67197154215E+03  0.50787288956E+03 -0.23865069592E+03  0.88872179735E+03  0.15294330000E+03 0.  0.
<mgrwt>
<rscale>  0 0.85607960E+03</rscale>
<asrwt>0</asrwt>
<pdfrwt beam="1">  1        2 0.43807079E+00 0.85607960E+03</pdfrwt>
<pdfrwt beam="2">  1       -2 0.62347934E-01 0.85607960E+03</pdfrwt>
<totfact> 0.53774380E+00</totfact>
</mgrwt>
</event>
<event>
 4    1  0.1726795E-008  0.7372837E+03  0.7818608E-02  0.9655514E-01
         -2   -1    0    0    0  501 -0.00000000000E+00  0.00000000000E+00  0.18156324918E+04  0.18156324918E+04  0.25500000000E-02 0.  1.
          2   -1    0    0  501    0  0.00000000000E+00 -0.00000000000E+00 -0.43159855425E+03  0.43159855426E+03  0.25500000000E-02 0. -1.
    8880022    1    1    2    0    0  0.22374271656E+03  0.68566371246E+03  0.13138918582E+04  0.15066183983E+04  0.15294330000E+03 0.  0.
    8880022    1    1    2    0    0 -0.22374271656E+03 -0.68566371246E+03  0.70142079308E+02  0.74061264781E+03  0.15294330000E+03 0.  0.
<mgrwt>
<rscale>  0 0.73728365E+03</rscale>
<asrwt>0</asrwt>
<pdfrwt beam="1">  1        2 0.66399777E-01 0.73728365E+03</pdfrwt>
<pdfrwt beam="2">  1       -2 0.27932808E+00 0.73728365E+03</pdfrwt>
<totfact> 0.32175560E+00</totfact>
</mgrwt>
</event>
<event>
 4    1  0.1726795E-008  0.8964038E+03  0.7818608E-02  0.9430088E-01
          2   -1    0    0  501    0  0.00000000000E+00  0.00000000000E+00  0.16053502110E+04  0.16053502110E+04  0.25500000000E-02 0. -1.
         -2   -1    0    0    0  501 -0.00000000000E+00 -0.00000000000E+00 -0.57702094738E+03  0.57702094738E+03  0.25500000000E-02 0.  1.
    8880022    1    1    2    0    0  0.25191447569E+03  0.84657377193E+03  0.11689670614E+03  0.90399366552E+03  0.15294330000E+03 0.  0.
    8880022    1    1    2    0    0 -0.25191447569E+03 -0.84657377193E+03  0.91143255745E+03  0.12783774928E+04  0.15294330000E+03 0.  0.
<mgrwt>
<rscale>  0 0.89640376E+03</rscale>
<asrwt>0</asrwt>
<pdfrwt beam="1">  1        2 0.24697696E+00 0.89640376E+03</pdfrwt>
<pdfrwt beam="2">  1       -2 0.88772453E-01 0.89640376E+03</pdfrwt>
<totfact> 0.12179746E+01</totfact>
</mgrwt>
</event>
<event>
 4    1  0.1726795E-008  0.9962212E+03  0.7818608E-02  0.9312699E-01
          2   -1    0    0  501    0  0.00000000000E+00  0.00000000000E+00  0.11145800335E+04  0.11145800335E+04  0.25500000000E-02 0. -1.
         -2   -1    0    0    0  501 -0.00000000000E+00 -0.00000000000E+00 -0.19252015646E+04  0.19252015646E+04  0.25500000000E-02 0.  1.
    8880022    1    1    2    0    0 -0.34980566256E+03  0.92016359995E+03  0.70897427174E+03  0.12227433186E+04  0.15294330000E+03 0.  0.
    8880022    1    1    2    0    0  0.34980566256E+03 -0.92016359995E+03 -0.15195958028E+04  0.18170382795E+04  0.15294330000E+03 0.  0.
<mgrwt>
<rscale>  0 0.99622121E+03</rscale>
<asrwt>0</asrwt>
<pdfrwt beam="1">  1        2 0.17147385E+00 0.99622121E+03</pdfrwt>
<pdfrwt beam="2">  1       -2 0.29618485E+00 0.99622121E+03</pdfrwt>
<totfact> 0.71845867E-01</totfact>
</mgrwt>
</event>
<event>
 4    1  0.1726795E-008  0.3458239E+03  0.7818608E-02  0.1064342E+00
         -2   -1    0    0    0  501 -0.00000000000E+00  0.00000000000E+00  0.10203148583E+03  0.10203148586E+03  0.25500000000E-02 0.  1.
          2   -1    0    0  501    0  0.00000000000E+00 -0.00000000000E+00 -0.14596778660E+04  0.14596778660E+04  0.25500000000E-02 0. -1.
    8880022    1    1    2    0    0 -0.70653490223E+02 -0.30201095687E+03 -0.10253977027E+04  0.10821435373E+04  0.15294330000E+03 0. -1.
    8880022    1    1    2    0    0  0.70653490223E+02  0.30201095687E+03 -0.33224867755E+03  0.47956581457E+03  0.15294330000E+03 0.  1.
<mgrwt>
<rscale>  0 0.34582392E+03</rscale>
<asrwt>0</asrwt>
<pdfrwt beam="1">  1        2 0.22456581E+00 0.34582392E+03</pdfrwt>
<pdfrwt beam="2">  1       -2 0.15697153E-01 0.34582392E+03</pdfrwt>
<totfact> 0.45310825E+02</totfact>
</mgrwt>
</event>
<event>
 4    1  0.1726795E-008  0.8150469E+03  0.7818608E-02  0.9538489E-01
         -2   -1    0    0    0  501 -0.00000000000E+00  0.00000000000E+00  0.13077616208E+04  0.13077616208E+04  0.25500000000E-02 0.  1.
          2   -1    0    0  501    0  0.00000000000E+00 -0.00000000000E+00 -0.10341601664E+04  0.10341601664E+04  0.25500000000E-02 0. -1.
    8880022    1    1    2    0    0  0.50610603533E+03 -0.62029551125E+03  0.97205852588E+03  0.12685421834E+04  0.15294330000E+03 0.  0.
    8880022    1    1    2    0    0 -0.50610603533E+03  0.62029551125E+03 -0.69845707144E+03  0.10733796038E+04  0.15294330000E+03 0.  0.
<mgrwt>
<rscale>  0 0.81504693E+03</rscale>
<asrwt>0</asrwt>
<pdfrwt beam="1">  1        2 0.15910157E+00 0.81504693E+03</pdfrwt>
<pdfrwt beam="2">  1       -2 0.20119409E+00 0.81504693E+03</pdfrwt>
<totfact> 0.31766832E+00</totfact>
</mgrwt>
</event>
<event>
 4    1  0.1726795E-008  0.6630281E+03  0.7818608E-02  0.9782635E-01
          2   -1    0    0  501    0  0.00000000000E+00  0.00000000000E+00  0.11022463418E+04  0.11022463418E+04  0.25500000000E-02 0. -1.
         -2   -1    0    0    0  501 -0.00000000000E+00 -0.00000000000E+00 -0.72994976630E+03  0.72994976630E+03  0.25500000000E-02 0.  1.
    8880022    1    1    2    0    0 -0.18429633739E+03  0.61826326719E+03 -0.43085801808E+03  0.79072428336E+03  0.15294330000E+03 0.  1.
    8880022    1    1    2    0    0  0.18429633739E+03 -0.61826326719E+03  0.80315459357E+03  0.10414718247E+04  0.15294330000E+03 0.  0.
<mgrwt>
<rscale>  0 0.66302810E+03</rscale>
<asrwt>0</asrwt>
<pdfrwt beam="1">  1        2 0.16957636E+00 0.66302810E+03</pdfrwt>
<pdfrwt beam="2">  1       -2 0.11229996E+00 0.66302810E+03</pdfrwt>
<totfact> 0.13964285E+01</totfact>
</mgrwt>
</event>
<event>
 4    1  0.1726795E-008  0.8227228E+03  0.7818608E-02  0.9527697E-01
         -2   -1    0    0    0  501 -0.00000000000E+00  0.00000000000E+00  0.34450248341E+03  0.34450248342E+03  0.25500000000E-02 0.  1.
          2   -1    0    0  501    0  0.00000000000E+00 -0.00000000000E+00 -0.23640028183E+04  0.23640028183E+04  0.25500000000E-02 0. -1.
    8880022    1    1    2    0    0  0.42202698652E+03 -0.68947397851E+03 -0.15662710564E+04  0.17692025942E+04  0.15294330000E+03 0.  0.
    8880022    1    1    2    0    0 -0.42202698652E+03  0.68947397851E+03 -0.45322927852E+03  0.93930270750E+03  0.15294330000E+03 0.  0.
<mgrwt>
<rscale>  0 0.82272279E+03</rscale>
<asrwt>0</asrwt>
<pdfrwt beam="1">  1        2 0.36369273E+00 0.82272279E+03</pdfrwt>
<pdfrwt beam="2">  1       -2 0.53000384E-01 0.82272279E+03</pdfrwt>
<totfact> 0.14450500E+01</totfact>
</mgrwt>
</event>
<event>
 4    1  0.1726795E-008  0.4854268E+03  0.7818608E-02  0.1017654E+00
          2   -1    0    0  501    0  0.00000000000E+00  0.00000000000E+00  0.25585825060E+04  0.25585825060E+04  0.25500000000E-02 0. -1.
         -2   -1    0    0    0  501 -0.00000000000E+00 -0.00000000000E+00 -0.89861078925E+03  0.89861078925E+03  0.25500000000E-02 0.  1.
    8880022    1    1    2    0    0 -0.70902029520E+02  0.45521472965E+03 -0.80763590142E+03  0.94229239101E+03  0.15294330000E+03 0.  0.
    8880022    1    1    2    0    0  0.70902029520E+02 -0.45521472965E+03  0.24676076181E+04  0.25149009042E+04  0.15294330000E+03 0. -1.
<mgrwt>
<rscale>  0 0.48542682E+03</rscale>
<asrwt>0</asrwt>
<pdfrwt beam="1">  1        2 0.39362808E+00 0.48542682E+03</pdfrwt>
<pdfrwt beam="2">  1       -2 0.13824781E+00 0.48542682E+03</pdfrwt>
<totfact> 0.13485359E+00</totfact>
</mgrwt>
</event>
<event>
 4    1  0.1726795E-008  0.3897050E+03  0.7818608E-02  0.1047404E+00
          2   -1    0    0  501    0  0.00000000000E+00  0.00000000000E+00  0.28443028034E+04  0.28443028034E+04  0.25500000000E-02 0. -1.
         -2   -1    0    0    0  501 -0.00000000000E+00 -0.00000000000E+00 -0.32093614900E+03  0.32093614901E+03  0.25500000000E-02 0.  1.
    8880022    1    1    2    0    0  0.23212659507E+02 -0.35768630379E+03  0.27066669704E+04  0.27345778579E+04  0.15294330000E+03 0.  0.
    8880022    1    1    2    0    0 -0.23212659507E+02  0.35768630379E+03 -0.18330031596E+03  0.43066109451E+03  0.15294330000E+03 0.  0.
<mgrwt>
<rscale>  0 0.38970498E+03</rscale>
<asrwt>0</asrwt>
<pdfrwt beam="1">  1        2 0.43758506E+00 0.38970498E+03</pdfrwt>
<pdfrwt beam="2">  1       -2 0.49374791E-01 0.38970498E+03</pdfrwt>
<totfact> 0.97687725E+00</totfact>
</mgrwt>
</event>
<event>
 4    1  0.1726795E-008  0.4387557E+03  0.7818608E-02  0.1031129E+00
          2   -1    0    0  501    0  0.00000000000E+00  0.00000000000E+00  0.38078499816E+03  0.38078499817E+03  0.25500000000E-02 0. -1.
         -2   -1    0    0    0  501 -0.00000000000E+00 -0.00000000000E+00 -0.98590812364E+03  0.98590812365E+03  0.25500000000E-02 0.  1.
    8880022    1    1    2    0    0 -0.19442416534E+03  0.36237293545E+03  0.17442322907E+03  0.47215465291E+03  0.15294330000E+03 0.  0.
    8880022    1    1    2    0    0  0.19442416534E+03 -0.36237293545E+03 -0.77954635456E+03  0.89453846890E+03  0.15294330000E+03 0.  0.
<mgrwt>
<rscale>  0 0.43875569E+03</rscale>
<asrwt>0</asrwt>
<pdfrwt beam="1">  1        2 0.58582308E-01 0.43875569E+03</pdfrwt>
<pdfrwt beam="2">  1       -2 0.15167817E+00 0.43875569E+03</pdfrwt>
<totfact> 0.25545793E+01</totfact>
</mgrwt>
</event>
<event>
 4    1  0.1726795E-008  0.6269547E+03  0.7818608E-02  0.9851010E-01
          2   -1    0    0  501    0  0.00000000000E+00  0.00000000000E+00  0.13272607159E+04  0.13272607159E+04  0.25500000000E-02 0. -1.
         -2   -1    0    0    0  501 -0.00000000000E+00 -0.00000000000E+00 -0.66677499877E+03  0.66677499877E+03  0.25500000000E-02 0.  1.
    8880022    1    1    2    0    0 -0.29792773954E+02  0.60728321192E+03  0.10735681605E+04  0.12432299695E+04  0.15294330000E+03 0.  0.
    8880022    1    1    2    0    0  0.29792773954E+02 -0.60728321192E+03 -0.41308244340E+03  0.75080574513E+03  0.15294330000E+03 0.  0.
<mgrwt>
<rscale>  0 0.62695467E+03</rscale>
<asrwt>0</asrwt>
<pdfrwt beam="1">  1        2 0.20419396E+00 0.62695467E+03</pdfrwt>
<pdfrwt beam="2">  1       -2 0.10258077E+00 0.62695467E+03</pdfrwt>
<totfact> 0.12870881E+01</totfact>
</mgrwt>
</event>
<event>
 4    1  0.1726795E-008  0.1464239E+04  0.7818608E-02  0.8908588E-01
         -2   -1    0    0    0  501 -0.00000000000E+00  0.00000000000E+00  0.18131414149E+04  0.18131414149E+04  0.25500000000E-02 0.  1.
          2   -1    0    0  501    0  0.00000000000E+00 -0.00000000000E+00 -0.18783306751E+04  0.18783306751E+04  0.25500000000E-02 0. -1.
    8880022    1    1    2    0    0 -0.14503989812E+04  0.13017901885E+03 -0.11560167630E+04  0.18655750295E+04  0.15294330000E+03 0.  0.
    8880022    1    1    2    0    0  0.14503989812E+04 -0.13017901885E+03  0.10908275028E+04  0.18258970605E+04  0.15294330000E+03 0.  0.
<mgrwt>
<rscale>  0 0.14642389E+04</rscale>
<asrwt>0</asrwt>
<pdfrwt beam="1">  1        2 0.28897395E+00 0.14642389E+04</pdfrwt>
<pdfrwt beam="2">  1       -2 0.27894483E+00 0.14642389E+04</pdfrwt>
<totfact> 0.31428056E-01</totfact>
</mgrwt>
</event>
<event>
 4    1  0.1726795E-008  0.2014272E+03  0.7818608E-02  0.1148540E+00
         -2   -1    0    0    0  501 -0.00000000000E+00  0.00000000000E+00  0.39581530846E+03  0.39581530847E+03  0.25500000000E-02 0.  1.
          2   -1    0    0  501    0  0.00000000000E+00 -0.00000000000E+00 -0.23554956654E+04  0.23554956654E+04  0.25500000000E-02 0. -1.
    8880022    1    1    2    0    0 -0.12425600377E+03 -0.41733827874E+02 -0.23252303710E+04  0.23339385592E+04  0.15294330000E+03 0.  0.
    8880022    1    1    2    0    0  0.12425600377E+03  0.41733827874E+02  0.36555001399E+03  0.41737241476E+03  0.15294330000E+03 0.  1.
<mgrwt>
<rscale>  0 0.20142721E+03</rscale>
<asrwt>0</asrwt>
<pdfrwt beam="1">  1        2 0.36238394E+00 0.20142721E+03</pdfrwt>
<pdfrwt beam="2">  1       -2 0.60894665E-01 0.20142721E+03</pdfrwt>
<totfact> 0.13012479E+01</totfact>
</mgrwt>
</event>
<event>
 4    1  0.1726795E-008  0.7608612E+03  0.7818608E-02  0.9618463E-01
          2   -1    0    0  501    0  0.00000000000E+00  0.00000000000E+00  0.16586036523E+04  0.16586036523E+04  0.25500000000E-02 0. -1.
         -2   -1    0    0    0  501 -0.00000000000E+00 -0.00000000000E+00 -0.60642127953E+03  0.60642127954E+03  0.25500000000E-02 0.  1.
    8880022    1    1    2    0    0 -0.22530290926E+03 -0.71046233625E+03  0.12639086824E+04  0.14752541959E+04  0.15294330000E+03 0.  0.
    8880022    1    1    2    0    0  0.22530290926E+03  0.71046233625E+03 -0.21172630960E+03  0.78977073594E+03  0.15294330000E+03 0.  0.
<mgrwt>
<rscale>  0 0.76086121E+03</rscale>
<asrwt>0</asrwt>
<pdfrwt beam="1">  1        2 0.25516979E+00 0.76086121E+03</pdfrwt>
<pdfrwt beam="2">  1       -2 0.93295583E-01 0.76086121E+03</pdfrwt>
<totfact> 0.10317973E+01</totfact>
</mgrwt>
</event>
<event>
 4    1  0.1726795E-008  0.1120863E+04  0.7818608E-02  0.9185092E-01
          2   -1    0    0  501    0  0.00000000000E+00  0.00000000000E+00  0.18451975965E+04  0.18451975965E+04  0.25500000000E-02 0. -1.
         -2   -1    0    0    0  501 -0.00000000000E+00 -0.00000000000E+00 -0.85175117429E+03  0.85175117429E+03  0.25500000000E-02 0.  1.
    8880022    1    1    2    0    0 -0.93160900241E+03  0.60419136756E+03 -0.10727718480E+03  0.11259851639E+04  0.15294330000E+03 0.  0.
    8880022    1    1    2    0    0  0.93160900241E+03 -0.60419136756E+03  0.11007236070E+04  0.15709636068E+04  0.15294330000E+03 0.  0.
<mgrwt>
<rscale>  0 0.11208631E+04</rscale>
<asrwt>0</asrwt>
<pdfrwt beam="1">  1        2 0.28387655E+00 0.11208631E+04</pdfrwt>
<pdfrwt beam="2">  1       -2 0.13103864E+00 0.11208631E+04</pdfrwt>
<totfact> 0.34059653E+00</totfact>
</mgrwt>
</event>
<event>
 4    1  0.1726795E-008  0.1193846E+04  0.7818608E-02  0.9118260E-01
         -2   -1    0    0    0  501 -0.00000000000E+00  0.00000000000E+00  0.28293488826E+04  0.28293488826E+04  0.25500000000E-02 0.  1.
          2   -1    0    0  501    0  0.00000000000E+00 -0.00000000000E+00 -0.14582368806E+04  0.14582368807E+04  0.25500000000E-02 0. -1.
    8880022    1    1    2    0    0 -0.11830046532E+04 -0.48747337306E+02  0.24199792915E+04  0.26984380180E+04  0.15294330000E+03 0.  0.
    8880022    1    1    2    0    0  0.11830046532E+04  0.48747337306E+02 -0.10488672895E+04  0.15891477453E+04  0.15294330000E+03 0.  0.
<mgrwt>
<rscale>  0 0.11938459E+04</rscale>
<asrwt>0</asrwt>
<pdfrwt beam="1">  1        2 0.22434414E+00 0.11938459E+04</pdfrwt>
<pdfrwt beam="2">  1       -2 0.43528444E+00 0.11938459E+04</pdfrwt>
<totfact> 0.57325604E-02</totfact>
</mgrwt>
</event>
<event>
 4    1  0.1726795E-008  0.1188299E+04  0.7818608E-02  0.9123160E-01
          2   -1    0    0  501    0  0.00000000000E+00  0.00000000000E+00  0.27956274659E+04  0.27956274659E+04  0.25500000000E-02 0. -1.
         -2   -1    0    0    0  501 -0.00000000000E+00 -0.00000000000E+00 -0.10763865477E+04  0.10763865477E+04  0.25500000000E-02 0.  1.
    8880022    1    1    2    0    0 -0.11751360811E+04  0.87855890189E+02 -0.55081108037E+03  0.13097511083E+04  0.15294330000E+03 0.  0.
    8880022    1    1    2    0    0  0.11751360811E+04 -0.87855890189E+02  0.22700519986E+04  0.25622629053E+04  0.15294330000E+03 0.  0.
<mgrwt>
<rscale>  0 0.11882993E+04</rscale>
<asrwt>0</asrwt>
<pdfrwt beam="1">  1        2 0.43009653E+00 0.11882993E+04</pdfrwt>
<pdfrwt beam="2">  1       -2 0.16559793E+00 0.11882993E+04</pdfrwt>
<totfact> 0.52384773E-01</totfact>
</mgrwt>
</event>
<event>
 4    1  0.1726795E-008  0.4071701E+03  0.7818608E-02  0.1041325E+00
         -2   -1    0    0    0  501 -0.00000000000E+00  0.00000000000E+00  0.10381400164E+03  0.10381400167E+03  0.25500000000E-02 0.  1.
          2   -1    0    0  501    0  0.00000000000E+00 -0.00000000000E+00 -0.18892316484E+04  0.18892316484E+04  0.25500000000E-02 0. -1.
    8880022    1    1    2    0    0  0.19530411726E+03  0.32288104779E+03 -0.50075682980E+03  0.64540291667E+03  0.15294330000E+03 0.  1.
    8880022    1    1    2    0    0 -0.19530411726E+03 -0.32288104779E+03 -0.12846608169E+04  0.13476427334E+04  0.15294330000E+03 0. -1.
<mgrwt>
<rscale>  0 0.40717014E+03</rscale>
<asrwt>0</asrwt>
<pdfrwt beam="1">  1        2 0.29065100E+00 0.40717014E+03</pdfrwt>
<pdfrwt beam="2">  1       -2 0.15971386E-01 0.40717014E+03</pdfrwt>
<totfact> 0.25687648E+02</totfact>
</mgrwt>
</event>
<event>
 4    1  0.1726795E-008  0.2437571E+03  0.7818608E-02  0.1117315E+00
         -2   -1    0    0    0  501 -0.00000000000E+00  0.00000000000E+00  0.60470064068E+03  0.60470064069E+03  0.25500000000E-02 0.  1.
          2   -1    0    0  501    0  0.00000000000E+00 -0.00000000000E+00 -0.12000090833E+04  0.12000090833E+04  0.25500000000E-02 0. -1.
    8880022    1    1    2    0    0  0.14103002190E+03 -0.12702906730E+03 -0.11622767932E+04  0.11875625660E+04  0.15294330000E+03 0.  0.
    8880022    1    1    2    0    0 -0.14103002190E+03  0.12702906730E+03  0.56696835062E+03  0.61714715801E+03  0.15294330000E+03 0.  1.
<mgrwt>
<rscale>  0 0.24375706E+03</rscale>
<asrwt>0</asrwt>
<pdfrwt beam="1">  1        2 0.18461678E+00 0.24375706E+03</pdfrwt>
<pdfrwt beam="2">  1       -2 0.93030868E-01 0.24375706E+03</pdfrwt>
<totfact> 0.20801920E+01</totfact>
</mgrwt>
</event>
<event>
 4    1  0.1726795E-008  0.2808819E+03  0.7818608E-02  0.1095208E+00
          2   -1    0    0  501    0  0.00000000000E+00  0.00000000000E+00  0.11301333257E+04  0.11301333257E+04  0.25500000000E-02 0. -1.
         -2   -1    0    0    0  501 -0.00000000000E+00 -0.00000000000E+00 -0.69805423841E+03  0.69805423841E+03  0.25500000000E-02 0.  1.
    8880022    1    1    2    0    0  0.23514699620E+03 -0.14452614986E+02  0.10832218688E+04  0.11190461375E+04  0.15294330000E+03 0. -1.
    8880022    1    1    2    0    0 -0.23514699620E+03  0.14452614986E+02 -0.65114278153E+03  0.70914142655E+03  0.15294330000E+03 0.  0.
<mgrwt>
<rscale>  0 0.28088190E+03</rscale>
<asrwt>0</asrwt>
<pdfrwt beam="1">  1        2 0.17386666E+00 0.28088190E+03</pdfrwt>
<pdfrwt beam="2">  1       -2 0.10739296E+00 0.28088190E+03</pdfrwt>
<totfact> 0.16131238E+01</totfact>
</mgrwt>
</event>
<event>
 4    1  0.1726795E-008  0.8637608E+03  0.7818608E-02  0.9472052E-01
          2   -1    0    0  501    0  0.00000000000E+00  0.00000000000E+00  0.10801706013E+04  0.10801706013E+04  0.25500000000E-02 0. -1.
         -2   -1    0    0    0  501 -0.00000000000E+00 -0.00000000000E+00 -0.88870779841E+03  0.88870779841E+03  0.25500000000E-02 0.  1.
    8880022    1    1    2    0    0  0.11089886158E+02  0.85004008263E+03 -0.36893521014E+03  0.93925287860E+03  0.15294330000E+03 0.  0.
    8880022    1    1    2    0    0 -0.11089886158E+02 -0.85004008263E+03  0.56039801300E+03  0.10296255211E+04  0.15294330000E+03 0.  0.
<mgrwt>
<rscale>  0 0.86376084E+03</rscale>
<asrwt>0</asrwt>
<pdfrwt beam="1">  1        2 0.16618009E+00 0.86376084E+03</pdfrwt>
<pdfrwt beam="2">  1       -2 0.13672428E+00 0.86376084E+03</pdfrwt>
<totfact> 0.86041410E+00</totfact>
</mgrwt>
</event>
<event>
 4    1  0.1726795E-008  0.1209812E+04  0.7818608E-02  0.9104311E-01
          2   -1    0    0  501    0  0.00000000000E+00  0.00000000000E+00  0.22085422696E+04  0.22085422696E+04  0.25500000000E-02 0. -1.
         -2   -1    0    0    0  501 -0.00000000000E+00 -0.00000000000E+00 -0.10826525264E+04  0.10826525264E+04  0.25500000000E-02 0.  1.
    8880022    1    1    2    0    0  0.11931643733E+04  0.12888933688E+03  0.15878148112E+04  0.19961966863E+04  0.15294330000E+03 0.  0.
    8880022    1    1    2    0    0 -0.11931643733E+04 -0.12888933688E+03 -0.46192506801E+03  0.12949981097E+04  0.15294330000E+03 0.  0.
<mgrwt>
<rscale>  0 0.12098121E+04</rscale>
<asrwt>0</asrwt>
<pdfrwt beam="1">  1        2 0.33977573E+00 0.12098121E+04</pdfrwt>
<pdfrwt beam="2">  1       -2 0.16656193E+00 0.12098121E+04</pdfrwt>
<totfact> 0.11203965E+00</totfact>
</mgrwt>
</event>
<event>
 4    1  0.1726795E-008  0.7161443E+03  0.7818608E-02  0.9690015E-01
         -2   -1    0    0    0  501 -0.00000000000E+00  0.00000000000E+00  0.42239842561E+03  0.42239842561E+03  0.25500000000E-02 0.  1.
          2   -1    0    0  501    0  0.00000000000E+00 -0.00000000000E+00 -0.28709634452E+04  0.28709634452E+04  0.25500000000E-02 0. -1.
    8880022    1    1    2    0    0 -0.19362810982E+03  0.67229394687E+03 -0.24752040556E+04  0.25767222911E+04  0.15294330000E+03 0.  0.
    8880022    1    1    2    0    0  0.19362810982E+03 -0.67229394687E+03  0.26639035975E+02  0.71663957968E+03  0.15294330000E+03 0.  1.
<mgrwt>
<rscale>  0 0.71614429E+03</rscale>
<asrwt>0</asrwt>
<pdfrwt beam="1">  1        2 0.44168667E+00 0.71614429E+03</pdfrwt>
<pdfrwt beam="2">  1       -2 0.64984375E-01 0.71614429E+03</pdfrwt>
<totfact> 0.48865108E+00</totfact>
</mgrwt>
</event>
<event>
 4    1  0.1726795E-008  0.1230375E+04  0.7818608E-02  0.9086677E-01
          2   -1    0    0  501    0  0.00000000000E+00  0.00000000000E+00  0.16876999698E+04  0.16876999698E+04  0.25500000000E-02 0. -1.
         -2   -1    0    0    0  501 -0.00000000000E+00 -0.00000000000E+00 -0.11643569414E+04  0.11643569414E+04  0.25500000000E-02 0.  1.
    8880022    1    1    2    0    0 -0.11811560742E+04  0.30870982546E+03 -0.42169222296E+03  0.13006334657E+04  0.15294330000E+03 0.  0.
    8880022    1    1    2    0    0  0.11811560742E+04 -0.30870982546E+03  0.94503525139E+03  0.15514234456E+04  0.15294330000E+03 0.  0.
<mgrwt>
<rscale>  0 0.12303752E+04</rscale>
<asrwt>0</asrwt>
<pdfrwt beam="1">  1        2 0.25964615E+00 0.12303752E+04</pdfrwt>
<pdfrwt beam="2">  1       -2 0.17913184E+00 0.12303752E+04</pdfrwt>
<totfact> 0.17718490E+00</totfact>
</mgrwt>
</event>
<event>
 4    1  0.1726795E-008  0.1078820E+04  0.7818608E-02  0.9226085E-01
         -2   -1    0    0    0  501 -0.00000000000E+00  0.00000000000E+00  0.75475572614E+03  0.75475572614E+03  0.25500000000E-02 0.  1.
          2   -1    0    0  501    0  0.00000000000E+00 -0.00000000000E+00 -0.29083556815E+04  0.29083556815E+04  0.25500000000E-02 0. -1.
    8880022    1    1    2    0    0  0.96714272875E+03 -0.45287460452E+03 -0.23321773599E+04  0.25696115185E+04  0.15294330000E+03 0.  0.
    8880022    1    1    2    0    0 -0.96714272875E+03  0.45287460452E+03  0.17857740447E+03  0.10934998892E+04  0.15294330000E+03 0.  0.
<mgrwt>
<rscale>  0 0.10788198E+04</rscale>
<asrwt>0</asrwt>
<pdfrwt beam="1">  1        2 0.44743933E+00 0.10788198E+04</pdfrwt>
<pdfrwt beam="2">  1       -2 0.11611627E+00 0.10788198E+04</pdfrwt>
<totfact> 0.11476480E+00</totfact>
</mgrwt>
</event>
<event>
 4    1  0.1726795E-008  0.4332244E+03  0.7818608E-02  0.1032846E+00
          2   -1    0    0  501    0  0.00000000000E+00  0.00000000000E+00  0.45534061546E+03  0.45534061547E+03  0.25500000000E-02 0. -1.
         -2   -1    0    0    0  501 -0.00000000000E+00 -0.00000000000E+00 -0.47324647600E+03  0.47324647601E+03  0.25500000000E-02 0.  1.
    8880022    1    1    2    0    0 -0.22307065614E+03  0.33842461905E+03  0.15782623750E+03  0.46107755820E+03  0.15294330000E+03 0.  0.
    8880022    1    1    2    0    0  0.22307065614E+03 -0.33842461905E+03 -0.17573209803E+03  0.46750953328E+03  0.15294330000E+03 0.  0.
<mgrwt>
<rscale>  0 0.43322441E+03</rscale>
<asrwt>0</asrwt>
<pdfrwt beam="1">  1        2 0.70052402E-01 0.43322441E+03</pdfrwt>
<pdfrwt beam="2">  1       -2 0.72807151E-01 0.43322441E+03</pdfrwt>
<totfact> 0.12053123E+02</totfact>
</mgrwt>
</event>
<event>
 4    1  0.1726795E-008  0.1007753E+04  0.7818608E-02  0.9300082E-01
          2   -1    0    0  501    0  0.00000000000E+00  0.00000000000E+00  0.30849176570E+04  0.30849176570E+04  0.25500000000E-02 0. -1.
         -2   -1    0    0    0  501 -0.00000000000E+00 -0.00000000000E+00 -0.54385251004E+03  0.54385251004E+03  0.25500000000E-02 0.  1.
    8880022    1    1    2    0    0 -0.90357918639E+03  0.41918869957E+03  0.13066818076E+03  0.10161891253E+04  0.15294330000E+03 0.  0.
    8880022    1    1    2    0    0  0.90357918639E+03 -0.41918869957E+03  0.24103969662E+04  0.26125810417E+04  0.15294330000E+03 0.  0.
<mgrwt>
<rscale>  0 0.10077530E+04</rscale>
<asrwt>0</asrwt>
<pdfrwt beam="1">  1        2 0.47460271E+00 0.10077530E+04</pdfrwt>
<pdfrwt beam="2">  1       -2 0.83669617E-01 0.10077530E+04</pdfrwt>
<totfact> 0.19635705E+00</totfact>
</mgrwt>
</event>
<event>
 4    1  0.1726795E-008  0.7089673E+03  0.7818608E-02  0.9702019E-01
         -2   -1    0    0    0  501 -0.00000000000E+00  0.00000000000E+00  0.16112201108E+04  0.16112201109E+04  0.25500000000E-02 0.  1.
          2   -1    0    0  501    0  0.00000000000E+00 -0.00000000000E+00 -0.22447065269E+04  0.22447065269E+04  0.25500000000E-02 0. -1.
    8880022    1    1    2    0    0 -0.52667785580E+03 -0.44928092592E+03  0.14722411716E+04  0.16340528249E+04  0.15294330000E+03 0.  0.
    8880022    1    1    2    0    0  0.52667785580E+03  0.44928092592E+03 -0.21057275876E+04  0.22218738129E+04  0.15294330000E+03 0.  0.
<mgrwt>
<rscale>  0 0.70896725E+03</rscale>
<asrwt>0</asrwt>
<pdfrwt beam="1">  1        2 0.34533947E+00 0.70896725E+03</pdfrwt>
<pdfrwt beam="2">  1       -2 0.24788002E+00 0.70896725E+03</pdfrwt>
<totfact> 0.34559145E-01</totfact>
</mgrwt>
</event>
<event>
 4    1  0.1726795E-008  0.1121609E+04  0.7818608E-02  0.9184383E-01
         -2   -1    0    0    0  501 -0.00000000000E+00  0.00000000000E+00  0.78991086764E+03  0.78991086765E+03  0.25500000000E-02 0.  1.
          2   -1    0    0  501    0  0.00000000000E+00 -0.00000000000E+00 -0.28437132436E+04  0.28437132436E+04  0.25500000000E-02 0. -1.
    8880022    1    1    2    0    0  0.11108473128E+04 -0.25159330535E+02 -0.22319833418E+04  0.24979503668E+04  0.15294330000E+03 0.  0.
    8880022    1    1    2    0    0 -0.11108473128E+04  0.25159330535E+02  0.17818096581E+03  0.11356737444E+04  0.15294330000E+03 0.  0.
<mgrwt>
<rscale>  0 0.11216088E+04</rscale>
<asrwt>0</asrwt>
<pdfrwt beam="1">  1        2 0.43749434E+00 0.11216088E+04</pdfrwt>
<pdfrwt beam="2">  1       -2 0.12152475E+00 0.11216088E+04</pdfrwt>
<totfact> 0.11146046E+00</totfact>
</mgrwt>
</event>
<event>
 4    1  0.1726795E-008  0.4010253E+03  0.7818608E-02  0.1043425E+00
         -2   -1    0    0    0  501 -0.00000000000E+00  0.00000000000E+00  0.39857978354E+03  0.39857978355E+03  0.25500000000E-02 0.  1.
          2   -1    0    0  501    0  0.00000000000E+00 -0.00000000000E+00 -0.10660989758E+04  0.10660989758E+04  0.25500000000E-02 0. -1.
    8880022    1    1    2    0    0 -0.37062045133E+03 -0.83736023245E+01 -0.91111555604E+03  0.99546614489E+03  0.15294330000E+03 0.  0.
    8880022    1    1    2    0    0  0.37062045133E+03  0.83736023245E+01  0.24359636375E+03  0.46921261450E+03  0.15294330000E+03 0.  0.
<mgrwt>
<rscale>  0 0.40102530E+03</rscale>
<asrwt>0</asrwt>
<pdfrwt beam="1">  1        2 0.16401523E+00 0.40102530E+03</pdfrwt>
<pdfrwt beam="2">  1       -2 0.61319967E-01 0.40102530E+03</pdfrwt>
<totfact> 0.59838286E+01</totfact>
</mgrwt>
</event>
<event>
 4    1  0.1726795E-008  0.4692475E+03  0.7818608E-02  0.1022133E+00
          2   -1    0    0  501    0  0.00000000000E+00  0.00000000000E+00  0.11756225457E+04  0.11756225457E+04  0.25500000000E-02 0. -1.
         -2   -1    0    0    0  501 -0.00000000000E+00 -0.00000000000E+00 -0.17370573101E+04  0.17370573101E+04  0.25500000000E-02 0.  1.
    8880022    1    1    2    0    0 -0.43702844873E+03  0.76208208677E+02 -0.16563030310E+04  0.17214914869E+04  0.15294330000E+03 0.  0.
    8880022    1    1    2    0    0  0.43702844873E+03 -0.76208208677E+02  0.10948682666E+04  0.11911883689E+04  0.15294330000E+03 0.  0.
<mgrwt>
<rscale>  0 0.46924749E+03</rscale>
<asrwt>0</asrwt>
<pdfrwt beam="1">  1        2 0.18086501E+00 0.46924749E+03</pdfrwt>
<pdfrwt beam="2">  1       -2 0.26723959E+00 0.46924749E+03</pdfrwt>
<totfact> 0.10993566E+00</totfact>
</mgrwt>
</event>
<event>
 4    1  0.1726795E-008  0.2760960E+03  0.7818608E-02  0.1097841E+00
         -2   -1    0    0    0  501 -0.00000000000E+00  0.00000000000E+00  0.11823971795E+04  0.11823971795E+04  0.25500000000E-02 0.  1.
          2   -1    0    0  501    0  0.00000000000E+00 -0.00000000000E+00 -0.58049259971E+03  0.58049259971E+03  0.25500000000E-02 0. -1.
    8880022    1    1    2    0    0 -0.11542872821E+03 -0.19878013815E+03  0.11320101052E+04  0.11651934886E+04  0.15294330000E+03 0.  0.
    8880022    1    1    2    0    0  0.11542872821E+03  0.19878013815E+03 -0.53010552545E+03  0.59769629056E+03  0.15294330000E+03 0. -1.
<mgrwt>
<rscale>  0 0.27609598E+03</rscale>
<asrwt>0</asrwt>
<pdfrwt beam="1">  1        2 0.89306554E-01 0.27609598E+03</pdfrwt>
<pdfrwt beam="2">  1       -2 0.18190726E+00 0.27609598E+03</pdfrwt>
<totfact> 0.10031152E+01</totfact>
</mgrwt>
</event>
<event>
 4    1  0.1726795E-008  0.1120136E+04  0.7818608E-02  0.9185785E-01
         -2   -1    0    0    0  501 -0.00000000000E+00  0.00000000000E+00  0.87593844398E+03  0.87593844399E+03  0.25500000000E-02 0.  1.
          2   -1    0    0  501    0  0.00000000000E+00 -0.00000000000E+00 -0.21820397050E+04  0.21820397050E+04  0.25500000000E-02 0. -1.
    8880022    1    1    2    0    0  0.11045059273E+04 -0.10667854696E+03 -0.15492315301E+04  0.19117593057E+04  0.15294330000E+03 0.  0.
    8880022    1    1    2    0    0 -0.11045059273E+04  0.10667854696E+03  0.24313026917E+03  0.11462188433E+04  0.15294330000E+03 0.  0.
<mgrwt>
<rscale>  0 0.11201363E+04</rscale>
<asrwt>0</asrwt>
<pdfrwt beam="1">  1        2 0.33569841E+00 0.11201363E+04</pdfrwt>
<pdfrwt beam="2">  1       -2 0.13475976E+00 0.11201363E+04</pdfrwt>
<totfact> 0.20638052E+00</totfact>
</mgrwt>
</event>
<event>
 4    1  0.1726795E-008  0.3483999E+03  0.7818608E-02  0.1063274E+00
          2   -1    0    0  501    0  0.00000000000E+00  0.00000000000E+00  0.16509528850E+04  0.16509528850E+04  0.25500000000E-02 0. -1.
         -2   -1    0    0    0  501 -0.00000000000E+00 -0.00000000000E+00 -0.55029330652E+03  0.55029330652E+03  0.25500000000E-02 0.  1.
    8880022    1    1    2    0    0 -0.22654111240E+03  0.21603239309E+03  0.15747927011E+04  0.16128715308E+04  0.15294330000E+03 0.  0.
    8880022    1    1    2    0    0  0.22654111240E+03 -0.21603239309E+03 -0.47413312258E+03  0.58837466075E+03  0.15294330000E+03 0.  0.
<mgrwt>
<rscale>  0 0.34839995E+03</rscale>
<asrwt>0</asrwt>
<pdfrwt beam="1">  1        2 0.25399274E+00 0.34839995E+03</pdfrwt>
<pdfrwt beam="2">  1       -2 0.84660511E-01 0.34839995E+03</pdfrwt>
<totfact> 0.14119991E+01</totfact>
</mgrwt>
</event>
<event>
 4    1  0.1726795E-008  0.8606900E+03  0.7818608E-02  0.9476100E-01
         -2   -1    0    0    0  501 -0.00000000000E+00  0.00000000000E+00  0.29057272364E+03  0.29057272365E+03  0.25500000000E-02 0.  1.
          2   -1    0    0  501    0  0.00000000000E+00 -0.00000000000E+00 -0.36590805942E+04  0.36590805942E+04  0.25500000000E-02 0. -1.
    8880022    1    1    2    0    0  0.14156399550E+03 -0.83507799228E+03 -0.59672404599E+03  0.10473141162E+04  0.15294330000E+03 0.  0.
    8880022    1    1    2    0    0 -0.14156399550E+03  0.83507799228E+03 -0.27717838246E+04  0.29023392016E+04  0.15294330000E+03 0.  0.
<mgrwt>
<rscale>  0 0.86069000E+03</rscale>
<asrwt>0</asrwt>
<pdfrwt beam="1">  1        2 0.56293544E+00 0.86069000E+03</pdfrwt>
<pdfrwt beam="2">  1       -2 0.44703498E-01 0.86069000E+03</pdfrwt>
<totfact> 0.31702100E+00</totfact>
</mgrwt>
</event>
<event>
 4    1  0.1726795E-008  0.4657032E+03  0.7818608E-02  0.1023140E+00
          2   -1    0    0  501    0  0.00000000000E+00  0.00000000000E+00  0.15774918123E+04  0.15774918123E+04  0.25500000000E-02 0. -1.
         -2   -1    0    0    0  501 -0.00000000000E+00 -0.00000000000E+00 -0.29082848186E+03  0.29082848187E+03  0.25500000000E-02 0.  1.
    8880022    1    1    2    0    0  0.55323441113E+02  0.43637954227E+03  0.13216559125E+04  0.14013043182E+04  0.15294330000E+03 0.  0.
    8880022    1    1    2    0    0 -0.55323441113E+02 -0.43637954227E+03 -0.34992582041E+02  0.46701597602E+03  0.15294330000E+03 0.  0.
<mgrwt>
<rscale>  0 0.46570317E+03</rscale>
<asrwt>0</asrwt>
<pdfrwt beam="1">  1        2 0.24269105E+00 0.46570317E+03</pdfrwt>
<pdfrwt beam="2">  1       -2 0.44742843E-01 0.46570317E+03</pdfrwt>
<totfact> 0.57736580E+01</totfact>
</mgrwt>
</event>
<event>
 4    1  0.1726795E-008  0.1083751E+04  0.7818608E-02  0.9221175E-01
          2   -1    0    0  501    0  0.00000000000E+00  0.00000000000E+00  0.24268738873E+04  0.24268738873E+04  0.25500000000E-02 0. -1.
         -2   -1    0    0    0  501 -0.00000000000E+00 -0.00000000000E+00 -0.73519310532E+03  0.73519310533E+03  0.25500000000E-02 0.  1.
    8880022    1    1    2    0    0  0.69405564319E+03  0.81817579817E+03 -0.78381874795E+02  0.10865819085E+04  0.15294330000E+03 0.  0.
    8880022    1    1    2    0    0 -0.69405564319E+03 -0.81817579817E+03  0.17700626568E+04  0.20754850842E+04  0.15294330000E+03 0.  0.
<mgrwt>
<rscale>  0 0.10837511E+04</rscale>
<asrwt>0</asrwt>
<pdfrwt beam="1">  1        2 0.37336521E+00 0.10837511E+04</pdfrwt>
<pdfrwt beam="2">  1       -2 0.11310663E+00 0.10837511E+04</pdfrwt>
<totfact> 0.23437753E+00</totfact>
</mgrwt>
</event>
<event>
 4    1  0.1726795E-008  0.5288498E+03  0.7818608E-02  0.1006511E+00
         -2   -1    0    0    0  501 -0.00000000000E+00  0.00000000000E+00  0.42975078428E+03  0.42975078429E+03  0.25500000000E-02 0.  1.
          2   -1    0    0  501    0  0.00000000000E+00 -0.00000000000E+00 -0.16502152768E+04  0.16502152768E+04  0.25500000000E-02 0. -1.
    8880022    1    1    2    0    0 -0.47884295181E+03  0.16431646076E+03  0.19910361505E+03  0.56508793503E+03  0.15294330000E+03 0.  0.
    8880022    1    1    2    0    0  0.47884295181E+03 -0.16431646076E+03 -0.14195681076E+04  0.15148781261E+04  0.15294330000E+03 0.  0.
<mgrwt>
<rscale>  0 0.52884981E+03</rscale>
<asrwt>0</asrwt>
<pdfrwt beam="1">  1        2 0.25387927E+00 0.52884981E+03</pdfrwt>
<pdfrwt beam="2">  1       -2 0.66115506E-01 0.52884981E+03</pdfrwt>
<totfact> 0.23340864E+01</totfact>
</mgrwt>
</event>
<event>
 4    1  0.1726795E-008  0.4115973E+03  0.7818608E-02  0.1039836E+00
         -2   -1    0    0    0  501 -0.00000000000E+00  0.00000000000E+00  0.43046531183E+03  0.43046531184E+03  0.25500000000E-02 0.  1.
          2   -1    0    0  501    0  0.00000000000E+00 -0.00000000000E+00 -0.13252734647E+04  0.13252734647E+04  0.25500000000E-02 0. -1.
    8880022    1    1    2    0    0  0.29621057272E+03 -0.24141242460E+03  0.28866608568E+03  0.50273295514E+03  0.15294330000E+03 0.  0.
    8880022    1    1    2    0    0 -0.29621057272E+03  0.24141242460E+03 -0.11834742385E+04  0.12530058214E+04  0.15294330000E+03 0.  0.
<mgrwt>
<rscale>  0 0.41159727E+03</rscale>
<asrwt>0</asrwt>
<pdfrwt beam="1">  1        2 0.20388822E+00 0.41159727E+03</pdfrwt>
<pdfrwt beam="2">  1       -2 0.66225433E-01 0.41159727E+03</pdfrwt>
<totfact> 0.35868055E+01</totfact>
</mgrwt>
</event>
<event>
 4    1  0.1726795E-008  0.1422885E+04  0.7818608E-02  0.8937418E-01
         -2   -1    0    0    0  501 -0.00000000000E+00  0.00000000000E+00  0.19246757798E+04  0.19246757798E+04  0.25500000000E-02 0.  1.
          2   -1    0    0  501    0  0.00000000000E+00 -0.00000000000E+00 -0.10642628260E+04  0.10642628260E+04  0.25500000000E-02 0. -1.
    8880022    1    1    2    0    0 -0.10606052308E+04  0.93612258570E+03  0.59116335674E+03  0.15408032705E+04  0.15294330000E+03 0.  0.
    8880022    1    1    2    0    0  0.10606052308E+04 -0.93612258570E+03  0.26924959702E+03  0.14481353353E+04  0.15294330000E+03 0.  0.
<mgrwt>
<rscale>  0 0.14228846E+04</rscale>
<asrwt>0</asrwt>
<pdfrwt beam="1">  1        2 0.16373274E+00 0.14228846E+04</pdfrwt>
<pdfrwt beam="2">  1       -2 0.29610396E+00 0.14228846E+04</pdfrwt>
<totfact> 0.73439064E-01</totfact>
</mgrwt>
</event>
<event>
 4    1  0.1726795E-008  0.3803062E+03  0.7818608E-02  0.1050821E+00
         -2   -1    0    0    0  501 -0.00000000000E+00  0.00000000000E+00  0.20303429814E+03  0.20303429815E+03  0.25500000000E-02 0.  1.
          2   -1    0    0  501    0  0.00000000000E+00 -0.00000000000E+00 -0.15097448934E+04  0.15097448934E+04  0.25500000000E-02 0. -1.
    8880022    1    1    2    0    0  0.33559504857E+03 -0.92828516109E+02 -0.30976879418E+02  0.38156570876E+03  0.15294330000E+03 0.  0.
    8880022    1    1    2    0    0 -0.33559504857E+03  0.92828516109E+02 -0.12757337159E+04  0.13312134828E+04  0.15294330000E+03 0. -1.
<mgrwt>
<rscale>  0 0.38030622E+03</rscale>
<asrwt>0</asrwt>
<pdfrwt beam="1">  1        2 0.23226844E+00 0.38030622E+03</pdfrwt>
<pdfrwt beam="2">  1       -2 0.31236047E-01 0.38030622E+03</pdfrwt>
<totfact> 0.12664450E+02</totfact>
</mgrwt>
</event>
<event>
 4    1  0.1726795E-008  0.4556397E+03  0.7818608E-02  0.1026053E+00
          2   -1    0    0  501    0  0.00000000000E+00  0.00000000000E+00  0.48696164974E+04  0.48696164974E+04  0.25500000000E-02 0. -1.
         -2   -1    0    0    0  501 -0.00000000000E+00 -0.00000000000E+00 -0.13025157702E+04  0.13025157702E+04  0.25500000000E-02 0.  1.
    8880022    1    1    2    0    0  0.38986074158E+03 -0.17951170307E+03  0.48186905955E+04  0.48401845582E+04  0.15294330000E+03 0. -1.
    8880022    1    1    2    0    0 -0.38986074158E+03  0.17951170307E+03 -0.12515898682E+04  0.13319477094E+04  0.15294330000E+03 0.  0.
<mgrwt>
<rscale>  0 0.45563966E+03</rscale>
<asrwt>0</asrwt>
<pdfrwt beam="1">  1        2 0.74917177E+00 0.45563966E+03</pdfrwt>
<pdfrwt beam="2">  1       -2 0.20038704E+00 0.45563966E+03</pdfrwt>
<totfact> 0.89490113E-03</totfact>
</mgrwt>
</event>
<event>
 4    1  0.1726795E-008  0.2062984E+03  0.7818608E-02  0.1144531E+00
          2   -1    0    0  501    0  0.00000000000E+00  0.00000000000E+00  0.31065227825E+04  0.31065227825E+04  0.25500000000E-02 0. -1.
         -2   -1    0    0    0  501 -0.00000000000E+00 -0.00000000000E+00 -0.25896967793E+03  0.25896967794E+03  0.25500000000E-02 0.  1.
    8880022    1    1    2    0    0 -0.10476675360E+03 -0.90505895546E+02  0.30614080747E+04  0.30683510950E+04  0.15294330000E+03 0. -1.
    8880022    1    1    2    0    0  0.10476675360E+03  0.90505895546E+02 -0.21385497009E+03  0.29714136541E+03  0.15294330000E+03 0.  0.
<mgrwt>
<rscale>  0 0.20629843E+03</rscale>
<asrwt>0</asrwt>
<pdfrwt beam="1">  1        2 0.47792655E+00 0.20629843E+03</pdfrwt>
<pdfrwt beam="2">  1       -2 0.39841491E-01 0.20629843E+03</pdfrwt>
<totfact> 0.11398267E+01</totfact>
</mgrwt>
</event>
<event>
 4    1  0.1726795E-008  0.4267771E+03  0.7818608E-02  0.1034883E+00
         -2   -1    0    0    0  501 -0.00000000000E+00  0.00000000000E+00  0.84247029057E+03  0.84247029057E+03  0.25500000000E-02 0.  1.
          2   -1    0    0  501    0  0.00000000000E+00 -0.00000000000E+00 -0.28052499256E+03  0.28052499257E+03  0.25500000000E-02 0. -1.
    8880022    1    1    2    0    0  0.33729206440E+03 -0.21208751635E+03  0.54985700939E+03  0.69604700638E+03  0.15294330000E+03 0.  0.
    8880022    1    1    2    0    0 -0.33729206440E+03  0.21208751635E+03  0.12088288618E+02  0.42694827677E+03  0.15294330000E+03 0.  0.
<mgrwt>
<rscale>  0 0.42677711E+03</rscale>
<asrwt>0</asrwt>
<pdfrwt beam="1">  1        2 0.43157692E-01 0.42677711E+03</pdfrwt>
<pdfrwt beam="2">  1       -2 0.12961081E+00 0.42677711E+03</pdfrwt>
<totfact> 0.53561699E+01</totfact>
</mgrwt>
</event>
<event>
 4    1  0.1726795E-008  0.7667453E+03  0.7818608E-02  0.9609440E-01
         -2   -1    0    0    0  501 -0.00000000000E+00  0.00000000000E+00  0.55669229857E+03  0.55669229858E+03  0.25500000000E-02 0.  1.
          2   -1    0    0  501    0  0.00000000000E+00 -0.00000000000E+00 -0.23433249870E+04  0.23433249870E+04  0.25500000000E-02 0. -1.
    8880022    1    1    2    0    0  0.71942125317E+03 -0.21665587803E+03 -0.19680205438E+04  0.21121087147E+04  0.15294330000E+03 0.  0.
    8880022    1    1    2    0    0 -0.71942125317E+03  0.21665587803E+03  0.18138785534E+03  0.78790857089E+03  0.15294330000E+03 0.  0.
<mgrwt>
<rscale>  0 0.76674530E+03</rscale>
<asrwt>0</asrwt>
<pdfrwt beam="1">  1        2 0.36051153E+00 0.76674530E+03</pdfrwt>
<pdfrwt beam="2">  1       -2 0.85644970E-01 0.76674530E+03</pdfrwt>
<totfact> 0.52868946E+00</totfact>
</mgrwt>
</event>
<event>
 4    1  0.1726795E-008  0.6394168E+03  0.7818608E-02  0.9826843E-01
         -2   -1    0    0    0  501 -0.00000000000E+00  0.00000000000E+00  0.10549411525E+04  0.10549411525E+04  0.25500000000E-02 0.  1.
          2   -1    0    0  501    0  0.00000000000E+00 -0.00000000000E+00 -0.55044167465E+03  0.55044167465E+03  0.25500000000E-02 0. -1.
    8880022    1    1    2    0    0 -0.99010067740E+02 -0.61291039797E+03 -0.18439482091E+03  0.66547370530E+03  0.15294330000E+03 0.  0.
    8880022    1    1    2    0    0  0.99010067740E+02  0.61291039797E+03  0.68889429875E+03  0.93990912184E+03  0.15294330000E+03 0.  0.
<mgrwt>
<rscale>  0 0.63941677E+03</rscale>
<asrwt>0</asrwt>
<pdfrwt beam="1">  1        2 0.84683335E-01 0.63941677E+03</pdfrwt>
<pdfrwt beam="2">  1       -2 0.16229864E+00 0.63941677E+03</pdfrwt>
<totfact> 0.13684714E+01</totfact>
</mgrwt>
</event>
<event>
 4    1  0.1726795E-008  0.7255438E+03  0.7818608E-02  0.9674519E-01
          2   -1    0    0  501    0  0.00000000000E+00  0.00000000000E+00  0.32879409251E+04  0.32879409251E+04  0.25500000000E-02 0. -1.
         -2   -1    0    0    0  501 -0.00000000000E+00 -0.00000000000E+00 -0.30085418074E+03  0.30085418075E+03  0.25500000000E-02 0.  1.
    8880022    1    1    2    0    0 -0.68497999042E+03 -0.18391462528E+03  0.26620447942E+03  0.77283805196E+03  0.15294330000E+03 0.  0.
    8880022    1    1    2    0    0  0.68497999042E+03  0.18391462528E+03  0.27208822650E+04  0.28159570539E+04  0.15294330000E+03 0.  0.
<mgrwt>
<rscale>  0 0.72554382E+03</rscale>
<asrwt>0</asrwt>
<pdfrwt beam="1">  1        2 0.50583706E+00 0.72554382E+03</pdfrwt>
<pdfrwt beam="2">  1       -2 0.46285259E-01 0.72554382E+03</pdfrwt>
<totfact> 0.54285843E+00</totfact>
</mgrwt>
</event>
<event>
 4    1  0.1726795E-008  0.5681282E+03  0.7818608E-02  0.9973829E-01
         -2   -1    0    0    0  501 -0.00000000000E+00  0.00000000000E+00  0.78408175532E+03  0.78408175532E+03  0.25500000000E-02 0.  1.
          2   -1    0    0  501    0  0.00000000000E+00 -0.00000000000E+00 -0.12811087768E+04  0.12811087768E+04  0.25500000000E-02 0. -1.
    8880022    1    1    2    0    0  0.51858136434E+03 -0.17450314365E+03 -0.10991830212E+04  0.12373249152E+04  0.15294330000E+03 0.  0.
    8880022    1    1    2    0    0 -0.51858136434E+03  0.17450314365E+03  0.60215599978E+03  0.82786561691E+03  0.15294330000E+03 0.  0.
<mgrwt>
<rscale>  0 0.56812818E+03</rscale>
<asrwt>0</asrwt>
<pdfrwt beam="1">  1        2 0.19709366E+00 0.56812818E+03</pdfrwt>
<pdfrwt beam="2">  1       -2 0.12062796E+00 0.56812818E+03</pdfrwt>
<totfact> 0.93277638E+00</totfact>
</mgrwt>
</event>
<event>
 4    1  0.1726795E-008  0.2160406E+03  0.7818608E-02  0.1136870E+00
          2   -1    0    0  501    0  0.00000000000E+00  0.00000000000E+00  0.11749702024E+04  0.11749702024E+04  0.25500000000E-02 0. -1.
         -2   -1    0    0    0  501 -0.00000000000E+00 -0.00000000000E+00 -0.12034244778E+03  0.12034244781E+03  0.25500000000E-02 0.  1.
    8880022    1    1    2    0    0 -0.96725615789E+02  0.11800874390E+03 -0.27822066574E+01  0.21605856168E+03  0.15294330000E+03 0.  1.
    8880022    1    1    2    0    0  0.96725615789E+02 -0.11800874390E+03  0.10574099612E+04  0.10792540885E+04  0.15294330000E+03 0.  0.
<mgrwt>
<rscale>  0 0.21604065E+03</rscale>
<asrwt>0</asrwt>
<pdfrwt beam="1">  1        2 0.18076464E+00 0.21604065E+03</pdfrwt>
<pdfrwt beam="2">  1       -2 0.18514223E-01 0.21604065E+03</pdfrwt>
<totfact> 0.50136204E+02</totfact>
</mgrwt>
</event>
<event>
 4    1  0.1726795E-008  0.3700536E+03  0.7818608E-02  0.1054672E+00
         -2   -1    0    0    0  501 -0.00000000000E+00  0.00000000000E+00  0.11133340324E+03  0.11133340327E+03  0.25500000000E-02 0.  1.
          2   -1    0    0  501    0  0.00000000000E+00 -0.00000000000E+00 -0.27627543591E+04  0.27627543591E+04  0.25500000000E-02 0. -1.
    8880022    1    1    2    0    0 -0.25332547327E+03  0.22220314895E+03 -0.23960847954E+04  0.24244921189E+04  0.15294330000E+03 0.  0.
    8880022    1    1    2    0    0  0.25332547327E+03 -0.22220314895E+03 -0.25533616053E+03  0.44959564355E+03  0.15294330000E+03 0.  0.
<mgrwt>
<rscale>  0 0.37005363E+03</rscale>
<asrwt>0</asrwt>
<pdfrwt beam="1">  1        2 0.42503908E+00 0.37005363E+03</pdfrwt>
<pdfrwt beam="2">  1       -2 0.17128218E-01 0.37005363E+03</pdfrwt>
<totfact> 0.76414219E+01</totfact>
</mgrwt>
</event>
<event>
 4    1  0.1726795E-008  0.6200538E+03  0.7818608E-02  0.9864653E-01
          2   -1    0    0  501    0  0.00000000000E+00  0.00000000000E+00  0.22674725544E+04  0.22674725544E+04  0.25500000000E-02 0. -1.
         -2   -1    0    0    0  501 -0.00000000000E+00 -0.00000000000E+00 -0.27073348462E+03  0.27073348464E+03  0.25500000000E-02 0.  1.
    8880022    1    1    2    0    0 -0.60089422984E+03  0.11086560486E+01  0.17741964086E+04  0.18794253520E+04  0.15294330000E+03 0.  0.
    8880022    1    1    2    0    0  0.60089422984E+03 -0.11086560486E+01  0.22254266126E+03  0.65878068708E+03  0.15294330000E+03 0.  1.
<mgrwt>
<rscale>  0 0.62005383E+03</rscale>
<asrwt>0</asrwt>
<pdfrwt beam="1">  1        2 0.34884195E+00 0.62005383E+03</pdfrwt>
<pdfrwt beam="2">  1       -2 0.41651303E-01 0.62005383E+03</pdfrwt>
<totfact> 0.27380764E+01</totfact>
</mgrwt>
</event>
<event>
 4    1  0.1726795E-008  0.8739523E+03  0.7818608E-02  0.9458741E-01
         -2   -1    0    0    0  501 -0.00000000000E+00  0.00000000000E+00  0.49319301752E+03  0.49319301753E+03  0.25500000000E-02 0.  1.
          2   -1    0    0  501    0  0.00000000000E+00 -0.00000000000E+00 -0.27882720097E+04  0.27882720097E+04  0.25500000000E-02 0. -1.
    8880022    1    1    2    0    0  0.81593090087E+03  0.27323582205E+03 -0.22415249266E+04  0.24058733756E+04  0.15294330000E+03 0.  0.
    8880022    1    1    2    0    0 -0.81593090087E+03 -0.27323582205E+03 -0.53554065489E+02  0.87559165163E+03  0.15294330000E+03 0.  0.
<mgrwt>
<rscale>  0 0.87395235E+03</rscale>
<asrwt>0</asrwt>
<pdfrwt beam="1">  1        2 0.42896492E+00 0.87395235E+03</pdfrwt>
<pdfrwt beam="2">  1       -2 0.75875850E-01 0.87395235E+03</pdfrwt>
<totfact> 0.37902505E+00</totfact>
</mgrwt>
</event>
<event>
 4    1  0.1726795E-008  0.7530477E+03  0.7818608E-02  0.9630581E-01
         -2   -1    0    0    0  501 -0.00000000000E+00  0.00000000000E+00  0.68964441107E+03  0.68964441107E+03  0.25500000000E-02 0.  1.
          2   -1    0    0  501    0  0.00000000000E+00 -0.00000000000E+00 -0.15800719667E+04  0.15800719667E+04  0.25500000000E-02 0. -1.
    8880022    1    1    2    0    0 -0.71253969139E+03 -0.18967443577E+03 -0.12311334135E+04  0.14431806326E+04  0.15294330000E+03 0.  0.
    8880022    1    1    2    0    0  0.71253969139E+03  0.18967443577E+03  0.34070585791E+03  0.82653574516E+03  0.15294330000E+03 0.  0.
<mgrwt>
<rscale>  0 0.75304771E+03</rscale>
<asrwt>0</asrwt>
<pdfrwt beam="1">  1        2 0.24308799E+00 0.75304771E+03</pdfrwt>
<pdfrwt beam="2">  1       -2 0.10609914E+00 0.75304771E+03</pdfrwt>
<totfact> 0.84157301E+00</totfact>
</mgrwt>
</event>
<event>
 4    1  0.1726795E-008  0.5960949E+03  0.7818608E-02  0.9913541E-01
         -2   -1    0    0    0  501 -0.00000000000E+00  0.00000000000E+00  0.67881517156E+03  0.67881517156E+03  0.25500000000E-02 0.  1.
          2   -1    0    0  501    0  0.00000000000E+00 -0.00000000000E+00 -0.17620217835E+04  0.17620217835E+04  0.25500000000E-02 0. -1.
    8880022    1    1    2    0    0  0.32454317630E+02 -0.57522534841E+03  0.48160219709E+03  0.76633531397E+03  0.15294330000E+03 0.  0.
    8880022    1    1    2    0    0 -0.32454317630E+02  0.57522534841E+03 -0.15648088090E+04  0.16745016411E+04  0.15294330000E+03 0. -1.
<mgrwt>
<rscale>  0 0.59609491E+03</rscale>
<asrwt>0</asrwt>
<pdfrwt beam="1">  1        2 0.27108027E+00 0.59609491E+03</pdfrwt>
<pdfrwt beam="2">  1       -2 0.10443310E+00 0.59609491E+03</pdfrwt>
<totfact> 0.71344167E+00</totfact>
</mgrwt>
</event>
<event>
 4    1  0.1726795E-008  0.6672700E+03  0.7818608E-02  0.9774902E-01
         -2   -1    0    0    0  501 -0.00000000000E+00  0.00000000000E+00  0.15165141283E+04  0.15165141283E+04  0.25500000000E-02 0.  1.
          2   -1    0    0  501    0  0.00000000000E+00 -0.00000000000E+00 -0.82467701336E+03  0.82467701336E+03  0.25500000000E-02 0. -1.
    8880022    1    1    2    0    0  0.41915012337E+03  0.49615596994E+03 -0.59346618336E+03  0.89300130808E+03  0.15294330000E+03 0.  0.
    8880022    1    1    2    0    0 -0.41915012337E+03 -0.49615596994E+03  0.12853032983E+04  0.14481898336E+04  0.15294330000E+03 0.  0.
<mgrwt>
<rscale>  0 0.66726998E+03</rscale>
<asrwt>0</asrwt>
<pdfrwt beam="1">  1        2 0.12687339E+00 0.66726998E+03</pdfrwt>
<pdfrwt beam="2">  1       -2 0.23330986E+00 0.66726998E+03</pdfrwt>
<totfact> 0.28094241E+00</totfact>
</mgrwt>
</event>
<event>
 4    1  0.1726795E-008  0.5780624E+03  0.7818608E-02  0.9951995E-01
          2   -1    0    0  501    0  0.00000000000E+00  0.00000000000E+00  0.92613232836E+03  0.92613232836E+03  0.25500000000E-02 0. -1.
         -2   -1    0    0    0  501 -0.00000000000E+00 -0.00000000000E+00 -0.16149968393E+04  0.16149968393E+04  0.25500000000E-02 0.  1.
    8880022    1    1    2    0    0 -0.55725104921E+03 -0.15355363099E+02 -0.14641081595E+04  0.15740930325E+04  0.15294330000E+03 0.  0.
    8880022    1    1    2    0    0  0.55725104921E+03  0.15355363099E+02  0.77524364861E+03  0.96703613518E+03  0.15294330000E+03 0.  0.
<mgrwt>
<rscale>  0 0.57806243E+03</rscale>
<asrwt>0</asrwt>
<pdfrwt beam="1">  1        2 0.14248190E+00 0.57806243E+03</pdfrwt>
<pdfrwt beam="2">  1       -2 0.24846105E+00 0.57806243E+03</pdfrwt>
<totfact> 0.19731158E+00</totfact>
</mgrwt>
</event>
<event>
 4    1  0.1726795E-008  0.1695323E+04  0.7818608E-02  0.8764036E-01
         -2   -1    0    0    0  501 -0.00000000000E+00  0.00000000000E+00  0.36297412592E+04  0.36297412592E+04  0.25500000000E-02 0.  1.
          2   -1    0    0  501    0  0.00000000000E+00 -0.00000000000E+00 -0.11343977627E+04  0.11343977627E+04  0.25500000000E-02 0. -1.
    8880022    1    1    2    0    0 -0.11901545555E+04  0.11976064687E+04  0.25566969495E+04  0.30677059938E+04  0.15294330000E+03 0.  0.
    8880022    1    1    2    0    0  0.11901545555E+04 -0.11976064687E+04 -0.61353452994E+02  0.16964330281E+04  0.15294330000E+03 0.  0.
<mgrwt>
<rscale>  0 0.16953232E+04</rscale>
<asrwt>0</asrwt>
<pdfrwt beam="1">  1        2 0.17452273E+00 0.16953232E+04</pdfrwt>
<pdfrwt beam="2">  1       -2 0.55842174E+00 0.16953232E+04</pdfrwt>
<totfact> 0.14531635E-02</totfact>
</mgrwt>
</event>
<event>
 4    1  0.1726795E-008  0.8390793E+03  0.7818608E-02  0.9505113E-01
         -2   -1    0    0    0  501 -0.00000000000E+00  0.00000000000E+00  0.81721522843E+03  0.81721522843E+03  0.25500000000E-02 0.  1.
          2   -1    0    0  501    0  0.00000000000E+00 -0.00000000000E+00 -0.17461435956E+04  0.17461435956E+04  0.25500000000E-02 0. -1.
    8880022    1    1    2    0    0 -0.45356725546E+03 -0.68915833914E+03 -0.13767199750E+04  0.16122692127E+04  0.15294330000E+03 0.  0.
    8880022    1    1    2    0    0  0.45356725546E+03  0.68915833914E+03  0.44779160786E+03  0.95108961130E+03  0.15294330000E+03 0.  0.
<mgrwt>
<rscale>  0 0.83907933E+03</rscale>
<asrwt>0</asrwt>
<pdfrwt beam="1">  1        2 0.26863747E+00 0.83907933E+03</pdfrwt>
<pdfrwt beam="2">  1       -2 0.12572542E+00 0.83907933E+03</pdfrwt>
<totfact> 0.44414938E+00</totfact>
</mgrwt>
</event>
<event>
 4    1  0.1726795E-008  0.9430412E+03  0.7818608E-02  0.9373322E-01
          2   -1    0    0  501    0  0.00000000000E+00  0.00000000000E+00  0.11538790321E+04  0.11538790321E+04  0.25500000000E-02 0. -1.
         -2   -1    0    0    0  501 -0.00000000000E+00 -0.00000000000E+00 -0.95844186638E+03  0.95844186639E+03  0.25500000000E-02 0.  1.
    8880022    1    1    2    0    0 -0.48463429445E+03 -0.79439572257E+03  0.56512584141E+03  0.10994061274E+04  0.15294330000E+03 0.  0.
    8880022    1    1    2    0    0  0.48463429445E+03  0.79439572257E+03 -0.36968867572E+03  0.10129147710E+04  0.15294330000E+03 0.  0.
<mgrwt>
<rscale>  0 0.94304115E+03</rscale>
<asrwt>0</asrwt>
<pdfrwt beam="1">  1        2 0.17751985E+00 0.94304115E+03</pdfrwt>
<pdfrwt beam="2">  1       -2 0.14745259E+00 0.94304115E+03</pdfrwt>
<totfact> 0.63130032E+00</totfact>
</mgrwt>
</event>
<event>
 4    1  0.1726795E-008  0.3377429E+03  0.7818608E-02  0.1067761E+00
         -2   -1    0    0    0  501 -0.00000000000E+00  0.00000000000E+00  0.51964379106E+03  0.51964379106E+03  0.25500000000E-02 0.  1.
          2   -1    0    0  501    0  0.00000000000E+00 -0.00000000000E+00 -0.43229727176E+03  0.43229727177E+03  0.25500000000E-02 0. -1.
    8880022    1    1    2    0    0 -0.25948087021E+03  0.15280139165E+03 -0.29025663034E+03  0.44533038496E+03  0.15294330000E+03 0.  0.
    8880022    1    1    2    0    0  0.25948087021E+03 -0.15280139165E+03  0.37760314964E+03  0.50661067787E+03  0.15294330000E+03 0.  1.
<mgrwt>
<rscale>  0 0.33774286E+03</rscale>
<asrwt>0</asrwt>
<pdfrwt beam="1">  1        2 0.66507273E-01 0.33774286E+03</pdfrwt>
<pdfrwt beam="2">  1       -2 0.79945198E-01 0.33774286E+03</pdfrwt>
<totfact> 0.10483903E+02</totfact>
</mgrwt>
</event>
<event>
 4    1  0.1726795E-008  0.8785875E+03  0.7818608E-02  0.9452751E-01
          2   -1    0    0  501    0  0.00000000000E+00  0.00000000000E+00  0.12485413376E+04  0.12485413376E+04  0.25500000000E-02 0. -1.
         -2   -1    0    0    0  501 -0.00000000000E+00 -0.00000000000E+00 -0.15005717593E+04  0.15005717593E+04  0.25500000000E-02 0.  1.
    8880022    1    1    2    0    0  0.85594670606E+03  0.12601420249E+03 -0.11800299261E+04  0.14711854480E+04  0.15294330000E+03 0.  0.
    8880022    1    1    2    0    0 -0.85594670606E+03 -0.12601420249E+03  0.92799950436E+03  0.12779276489E+04  0.15294330000E+03 0.  0.
<mgrwt>
<rscale>  0 0.87858750E+03</rscale>
<asrwt>0</asrwt>
<pdfrwt beam="1">  1        2 0.19208328E+00 0.87858750E+03</pdfrwt>
<pdfrwt beam="2">  1       -2 0.23085719E+00 0.87858750E+03</pdfrwt>
<totfact> 0.15146004E+00</totfact>
</mgrwt>
</event>
<event>
 4    1  0.1726795E-008  0.1038668E+04  0.7818608E-02  0.9267122E-01
         -2   -1    0    0    0  501 -0.00000000000E+00  0.00000000000E+00  0.65537937930E+03  0.65537937931E+03  0.25500000000E-02 0.  1.
          2   -1    0    0  501    0  0.00000000000E+00 -0.00000000000E+00 -0.18391230713E+04  0.18391230713E+04  0.25500000000E-02 0. -1.
    8880022    1    1    2    0    0 -0.44499006704E+03  0.92597162800E+03 -0.99592062953E+03  0.14389889398E+04  0.15294330000E+03 0.  0.
    8880022    1    1    2    0    0  0.44499006704E+03 -0.92597162800E+03 -0.18782306247E+03  0.10555135108E+04  0.15294330000E+03 0.  0.
<mgrwt>
<rscale>  0 0.10386680E+04</rscale>
<asrwt>0</asrwt>
<pdfrwt beam="1">  1        2 0.28294201E+00 0.10386680E+04</pdfrwt>
<pdfrwt beam="2">  1       -2 0.10082760E+00 0.10386680E+04</pdfrwt>
<totfact> 0.66091819E+00</totfact>
</mgrwt>
</event>
<event>
 4    1  0.1726795E-008  0.5425952E+03  0.7818608E-02  0.1003223E+00
         -2   -1    0    0    0  501 -0.00000000000E+00  0.00000000000E+00  0.59064534347E+03  0.59064534348E+03  0.25500000000E-02 0.  1.
          2   -1    0    0  501    0  0.00000000000E+00 -0.00000000000E+00 -0.18503275787E+04  0.18503275787E+04  0.25500000000E-02 0. -1.
    8880022    1    1    2    0    0 -0.30443700134E+03 -0.42229845751E+03 -0.16730630211E+04  0.17588488851E+04  0.15294330000E+03 0.  0.
    8880022    1    1    2    0    0  0.30443700134E+03  0.42229845751E+03  0.41338078579E+03  0.68212403716E+03  0.15294330000E+03 0.  0.
<mgrwt>
<rscale>  0 0.54259518E+03</rscale>
<asrwt>0</asrwt>
<pdfrwt beam="1">  1        2 0.28466578E+00 0.54259518E+03</pdfrwt>
<pdfrwt beam="2">  1       -2 0.90868515E-01 0.54259518E+03</pdfrwt>
<totfact> 0.89534797E+00</totfact>
</mgrwt>
</event>
<event>
 4    1  0.1726795E-008  0.1118106E+04  0.7818608E-02  0.9187722E-01
          2   -1    0    0  501    0  0.00000000000E+00  0.00000000000E+00  0.21571031413E+04  0.21571031413E+04  0.25500000000E-02 0. -1.
         -2   -1    0    0    0  501 -0.00000000000E+00 -0.00000000000E+00 -0.11419585216E+04  0.11419585216E+04  0.25500000000E-02 0.  1.
    8880022    1    1    2    0    0 -0.68813492551E+03  0.86789333225E+03 -0.65002962188E+03  0.12933285252E+04  0.15294330000E+03 0.  0.
    8880022    1    1    2    0    0  0.68813492551E+03 -0.86789333225E+03  0.16651742416E+04  0.20057331377E+04  0.15294330000E+03 0.  0.
<mgrwt>
<rscale>  0 0.11181056E+04</rscale>
<asrwt>0</asrwt>
<pdfrwt beam="1">  1        2 0.33186202E+00 0.11181056E+04</pdfrwt>
<pdfrwt beam="2">  1       -2 0.17568593E+00 0.11181056E+04</pdfrwt>
<totfact> 0.10429397E+00</totfact>
</mgrwt>
</event>
<event>
 4    1  0.1726795E-008  0.1431376E+04  0.7818608E-02  0.8931415E-01
         -2   -1    0    0    0  501 -0.00000000000E+00  0.00000000000E+00  0.13442407390E+04  0.13442407390E+04  0.25500000000E-02 0.  1.
          2   -1    0    0  501    0  0.00000000000E+00 -0.00000000000E+00 -0.29634392484E+04  0.29634392484E+04  0.25500000000E-02 0. -1.
    8880022    1    1    2    0    0  0.46122055414E+03 -0.13463737072E+04  0.69142574955E+03  0.15896250435E+04  0.15294330000E+03 0.  0.
    8880022    1    1    2    0    0 -0.46122055414E+03  0.13463737072E+04 -0.23106242590E+04  0.27180549439E+04  0.15294330000E+03 0.  0.
<mgrwt>
<rscale>  0 0.14313763E+04</rscale>
<asrwt>0</asrwt>
<pdfrwt beam="1">  1        2 0.45591373E+00 0.14313763E+04</pdfrwt>
<pdfrwt beam="2">  1       -2 0.20680627E+00 0.14313763E+04</pdfrwt>
<totfact> 0.20939249E-01</totfact>
</mgrwt>
</event>
<event>
 4    1  0.1726795E-008  0.9704599E+03  0.7818608E-02  0.9341551E-01
         -2   -1    0    0    0  501 -0.00000000000E+00  0.00000000000E+00  0.19918650337E+04  0.19918650337E+04  0.25500000000E-02 0.  1.
          2   -1    0    0  501    0  0.00000000000E+00 -0.00000000000E+00 -0.68152203900E+03  0.68152203900E+03  0.25500000000E-02 0. -1.
    8880022    1    1    2    0    0  0.92445390941E+03  0.25255832156E+03  0.13948719548E+04  0.16992528240E+04  0.15294330000E+03 0.  0.
    8880022    1    1    2    0    0 -0.92445390941E+03 -0.25255832156E+03 -0.84528960133E+02  0.97413424872E+03  0.15294330000E+03 0.  0.
<mgrwt>
<rscale>  0 0.97045989E+03</rscale>
<asrwt>0</asrwt>
<pdfrwt beam="1">  1        2 0.10484955E+00 0.97045989E+03</pdfrwt>
<pdfrwt beam="2">  1       -2 0.30644077E+00 0.97045989E+03</pdfrwt>
<totfact> 0.12425372E+00</totfact>
</mgrwt>
</event>
<event>
 4    1  0.1726795E-008  0.2521782E+03  0.7818608E-02  0.1111936E+00
         -2   -1    0    0    0  501 -0.00000000000E+00  0.00000000000E+00  0.10444034157E+03  0.10444034160E+03  0.25500000000E-02 0.  1.
          2   -1    0    0  501    0  0.00000000000E+00 -0.00000000000E+00 -0.16879663493E+04  0.16879663493E+04  0.25500000000E-02 0. -1.
    8880022    1    1    2    0    0  0.33845080707E+01 -0.20047629465E+03 -0.15083162954E+04  0.15292520720E+04  0.15294330000E+03 0.  0.
    8880022    1    1    2    0    0 -0.33845080707E+01  0.20047629465E+03 -0.75209712285E+02  0.26315461890E+03  0.15294330000E+03 0.  1.
<mgrwt>
<rscale>  0 0.25217822E+03</rscale>
<asrwt>0</asrwt>
<pdfrwt beam="1">  1        2 0.25968711E+00 0.25217822E+03</pdfrwt>
<pdfrwt beam="2">  1       -2 0.16067746E-01 0.25217822E+03</pdfrwt>
<totfact> 0.33365203E+02</totfact>
</mgrwt>
</event>
<event>
 4    1  0.1726795E-008  0.8070809E+03  0.7818608E-02  0.9549824E-01
          2   -1    0    0  501    0  0.00000000000E+00  0.00000000000E+00  0.22879988361E+04  0.22879988361E+04  0.25500000000E-02 0. -1.
         -2   -1    0    0    0  501 -0.00000000000E+00 -0.00000000000E+00 -0.10696477888E+04  0.10696477888E+04  0.25500000000E-02 0.  1.
    8880022    1    1    2    0    0 -0.64742931115E+03 -0.45697173895E+03 -0.82898259728E+03  0.11569752300E+04  0.15294330000E+03 0.  0.
    8880022    1    1    2    0    0  0.64742931115E+03  0.45697173895E+03  0.20473336446E+04  0.22006713949E+04  0.15294330000E+03 0.  0.
<mgrwt>
<rscale>  0 0.80708087E+03</rscale>
<asrwt>0</asrwt>
<pdfrwt beam="1">  1        2 0.35199982E+00 0.80708087E+03</pdfrwt>
<pdfrwt beam="2">  1       -2 0.16456120E+00 0.80708087E+03</pdfrwt>
<totfact> 0.11120508E+00</totfact>
</mgrwt>
</event>
<event>
 4    1  0.1726795E-008  0.1120347E+04  0.7818608E-02  0.9185584E-01
         -2   -1    0    0    0  501 -0.00000000000E+00  0.00000000000E+00  0.11241272932E+04  0.11241272933E+04  0.25500000000E-02 0.  1.
          2   -1    0    0  501    0  0.00000000000E+00 -0.00000000000E+00 -0.15475033544E+04  0.15475033544E+04  0.25500000000E-02 0. -1.
    8880022    1    1    2    0    0  0.10815610312E+04  0.24902003123E+03  0.49321788883E+03  0.12241081566E+04  0.15294330000E+03 0.  0.
    8880022    1    1    2    0    0 -0.10815610312E+04 -0.24902003123E+03 -0.91659394998E+03  0.14475224911E+04  0.15294330000E+03 0.  0.
<mgrwt>
<rscale>  0 0.11203468E+04</rscale>
<asrwt>0</asrwt>
<pdfrwt beam="1">  1        2 0.23807744E+00 0.11203468E+04</pdfrwt>
<pdfrwt beam="2">  1       -2 0.17294266E+00 0.11203468E+04</pdfrwt>
<totfact> 0.23734748E+00</totfact>
</mgrwt>
</event>
<event>
 4    1  0.1726795E-008  0.7182269E+03  0.7818608E-02  0.9686560E-01
         -2   -1    0    0    0  501 -0.00000000000E+00  0.00000000000E+00  0.70738496017E+03  0.70738496017E+03  0.25500000000E-02 0.  1.
          2   -1    0    0  501    0  0.00000000000E+00 -0.00000000000E+00 -0.10743855387E+04  0.10743855387E+04  0.25500000000E-02 0. -1.
    8880022    1    1    2    0    0 -0.44524344242E+03  0.54241722480E+03 -0.68844754146E+03  0.99489187308E+03  0.15294330000E+03 0.  0.
    8880022    1    1    2    0    0  0.44524344242E+03 -0.54241722480E+03  0.32144696291E+03  0.78687862581E+03  0.15294330000E+03 0.  0.
<mgrwt>
<rscale>  0 0.71822686E+03</rscale>
<asrwt>0</asrwt>
<pdfrwt beam="1">  1        2 0.16529008E+00 0.71822686E+03</pdfrwt>
<pdfrwt beam="2">  1       -2 0.10882846E+00 0.71822686E+03</pdfrwt>
<totfact> 0.15563687E+01</totfact>
</mgrwt>
</event>
<event>
 4    1  0.1726795E-008  0.9764987E+03  0.7818608E-02  0.9334703E-01
         -2   -1    0    0    0  501 -0.00000000000E+00  0.00000000000E+00  0.27583622626E+03  0.27583622627E+03  0.25500000000E-02 0.  1.
          2   -1    0    0  501    0  0.00000000000E+00 -0.00000000000E+00 -0.42636464715E+04  0.42636464715E+04  0.25500000000E-02 0. -1.
    8880022    1    1    2    0    0  0.11957877584E+02  0.96437287633E+03 -0.10066187292E+04  0.14024375047E+04  0.15294330000E+03 0.  0.
    8880022    1    1    2    0    0 -0.11957877584E+02 -0.96437287633E+03 -0.29811915160E+04  0.31370451931E+04  0.15294330000E+03 0.  0.
<mgrwt>
<rscale>  0 0.97649869E+03</rscale>
<asrwt>0</asrwt>
<pdfrwt beam="1">  1        2 0.65594556E+00 0.97649869E+03</pdfrwt>
<pdfrwt beam="2">  1       -2 0.42436346E-01 0.97649869E+03</pdfrwt>
<totfact> 0.11518628E+00</totfact>
</mgrwt>
</event>
<event>
 4    1  0.1726795E-008  0.5666732E+03  0.7818608E-02  0.9977067E-01
         -2   -1    0    0    0  501 -0.00000000000E+00  0.00000000000E+00  0.31802775851E+03  0.31802775852E+03  0.25500000000E-02 0.  1.
          2   -1    0    0  501    0  0.00000000000E+00 -0.00000000000E+00 -0.10954198777E+04  0.10954198777E+04  0.25500000000E-02 0. -1.
    8880022    1    1    2    0    0  0.44807562073E+03  0.31137612613E+03 -0.58637179216E+03  0.81544490033E+03  0.15294330000E+03 0.  0.
    8880022    1    1    2    0    0 -0.44807562073E+03 -0.31137612613E+03 -0.19102032706E+03  0.59800273593E+03  0.15294330000E+03 0. -1.
<mgrwt>
<rscale>  0 0.56667319E+03</rscale>
<asrwt>0</asrwt>
<pdfrwt beam="1">  1        2 0.16852613E+00 0.56667319E+03</pdfrwt>
<pdfrwt beam="2">  1       -2 0.48927348E-01 0.56667319E+03</pdfrwt>
<totfact> 0.89495687E+01</totfact>
</mgrwt>
</event>
<event>
 4    1  0.1726795E-008  0.6278834E+03  0.7818608E-02  0.9849188E-01
          2   -1    0    0  501    0  0.00000000000E+00  0.00000000000E+00  0.12838461624E+04  0.12838461624E+04  0.25500000000E-02 0. -1.
         -2   -1    0    0    0  501 -0.00000000000E+00 -0.00000000000E+00 -0.36469142581E+03  0.36469142582E+03  0.25500000000E-02 0.  1.
    8880022    1    1    2    0    0 -0.59467056777E+03 -0.13119755872E+03  0.13195175982E+03  0.64159863117E+03  0.15294330000E+03 0.  0.
    8880022    1    1    2    0    0  0.59467056777E+03  0.13119755872E+03  0.78720297681E+03  0.10069389571E+04  0.15294330000E+03 0.  0.
<mgrwt>
<rscale>  0 0.62788338E+03</rscale>
<asrwt>0</asrwt>
<pdfrwt beam="1">  1        2 0.19751480E+00 0.62788338E+03</pdfrwt>
<pdfrwt beam="2">  1       -2 0.56106372E-01 0.62788338E+03</pdfrwt>
<totfact> 0.51996549E+01</totfact>
</mgrwt>
</event>
<event>
 4    1  0.1726795E-008  0.1474769E+04  0.7818608E-02  0.8901407E-01
         -2   -1    0    0    0  501 -0.00000000000E+00  0.00000000000E+00  0.18720304328E+04  0.18720304328E+04  0.25500000000E-02 0.  1.
          2   -1    0    0  501    0  0.00000000000E+00 -0.00000000000E+00 -0.13192303117E+04  0.13192303117E+04  0.25500000000E-02 0. -1.
    8880022    1    1    2    0    0 -0.12988872147E+04  0.68150170226E+03 -0.27479074932E+03  0.15001513842E+04  0.15294330000E+03 0.  0.
    8880022    1    1    2    0    0  0.12988872147E+04 -0.68150170226E+03  0.82759087041E+03  0.16911093603E+04  0.15294330000E+03 0.  0.
<mgrwt>
<rscale>  0 0.14747692E+04</rscale>
<asrwt>0</asrwt>
<pdfrwt beam="1">  1        2 0.20295851E+00 0.14747692E+04</pdfrwt>
<pdfrwt beam="2">  1       -2 0.28800468E+00 0.14747692E+04</pdfrwt>
<totfact> 0.57296160E-01</totfact>
</mgrwt>
</event>
<event>
 4    1  0.1726795E-008  0.7994255E+03  0.7818608E-02  0.9560849E-01
         -2   -1    0    0    0  501 -0.00000000000E+00  0.00000000000E+00  0.41067827251E+03  0.41067827251E+03  0.25500000000E-02 0.  1.
          2   -1    0    0  501    0  0.00000000000E+00 -0.00000000000E+00 -0.25021230801E+04  0.25021230801E+04  0.25500000000E-02 0. -1.
    8880022    1    1    2    0    0  0.65944078857E+03 -0.42523803200E+03 -0.15022654764E+03  0.81341822338E+03  0.15294330000E+03 0.  0.
    8880022    1    1    2    0    0 -0.65944078857E+03  0.42523803200E+03 -0.19412182599E+04  0.20993831292E+04  0.15294330000E+03 0.  0.
<mgrwt>
<rscale>  0 0.79942554E+03</rscale>
<asrwt>0</asrwt>
<pdfrwt beam="1">  1        2 0.38494200E+00 0.79942554E+03</pdfrwt>
<pdfrwt beam="2">  1       -2 0.63181274E-01 0.79942554E+03</pdfrwt>
<totfact> 0.83810918E+00</totfact>
</mgrwt>
</event>
<event>
 4    1  0.1726795E-008  0.6897098E+03  0.7818608E-02  0.9734993E-01
          2   -1    0    0  501    0  0.00000000000E+00  0.00000000000E+00  0.45782664207E+03  0.45782664207E+03  0.25500000000E-02 0. -1.
         -2   -1    0    0    0  501 -0.00000000000E+00 -0.00000000000E+00 -0.12351576412E+04  0.12351576412E+04  0.25500000000E-02 0.  1.
    8880022    1    1    2    0    0  0.35993773701E+03  0.56811330633E+03 -0.51361408165E+02  0.69161951289E+03  0.15294330000E+03 0.  0.
    8880022    1    1    2    0    0 -0.35993773701E+03 -0.56811330633E+03 -0.72596959100E+03  0.10013647704E+04  0.15294330000E+03 0.  0.
<mgrwt>
<rscale>  0 0.68970976E+03</rscale>
<asrwt>0</asrwt>
<pdfrwt beam="1">  1        2 0.70434868E-01 0.68970976E+03</pdfrwt>
<pdfrwt beam="2">  1       -2 0.19002425E+00 0.68970976E+03</pdfrwt>
<totfact> 0.10819928E+01</totfact>
</mgrwt>
</event>
<event>
 4    1  0.1726795E-008  0.5746818E+03  0.7818608E-02  0.9959372E-01
         -2   -1    0    0    0  501 -0.00000000000E+00  0.00000000000E+00  0.20315945267E+03  0.20315945269E+03  0.25500000000E-02 0.  1.
          2   -1    0    0  501    0  0.00000000000E+00 -0.00000000000E+00 -0.31123931654E+04  0.31123931654E+04  0.25500000000E-02 0. -1.
    8880022    1    1    2    0    0  0.34286298662E+03  0.43510058334E+03 -0.30883567296E+03  0.65240989502E+03  0.15294330000E+03 0.  1.
    8880022    1    1    2    0    0 -0.34286298662E+03 -0.43510058334E+03 -0.26003980397E+04  0.26631427230E+04  0.15294330000E+03 0.  0.
<mgrwt>
<rscale>  0 0.57468182E+03</rscale>
<asrwt>0</asrwt>
<pdfrwt beam="1">  1        2 0.47882968E+00 0.57468182E+03</pdfrwt>
<pdfrwt beam="2">  1       -2 0.31255303E-01 0.57468182E+03</pdfrwt>
<totfact> 0.15463343E+01</totfact>
</mgrwt>
</event>
<event>
 4    1  0.1726795E-008  0.1051971E+04  0.7818608E-02  0.9253312E-01
         -2   -1    0    0    0  501 -0.00000000000E+00  0.00000000000E+00  0.42729582375E+03  0.42729582376E+03  0.25500000000E-02 0.  1.
          2   -1    0    0  501    0  0.00000000000E+00 -0.00000000000E+00 -0.28207181946E+04  0.28207181946E+04  0.25500000000E-02 0. -1.
    8880022    1    1    2    0    0  0.10383206356E+04 -0.71698963948E+02 -0.16612991818E+04  0.19663563025E+04  0.15294330000E+03 0.  0.
    8880022    1    1    2    0    0 -0.10383206356E+04  0.71698963948E+02 -0.73212318909E+03  0.12816577159E+04  0.15294330000E+03 0.  0.
<mgrwt>
<rscale>  0 0.10519706E+04</rscale>
<asrwt>0</asrwt>
<pdfrwt beam="1">  1        2 0.43395663E+00 0.10519706E+04</pdfrwt>
<pdfrwt beam="2">  1       -2 0.65737821E-01 0.10519706E+04</pdfrwt>
<totfact> 0.48387167E+00</totfact>
</mgrwt>
</event>
<event>
 4    1  0.1726795E-008  0.8842913E+03  0.7818608E-02  0.9445434E-01
         -2   -1    0    0    0  501 -0.00000000000E+00  0.00000000000E+00  0.83788610337E+03  0.83788610337E+03  0.25500000000E-02 0.  1.
          2   -1    0    0  501    0  0.00000000000E+00 -0.00000000000E+00 -0.14852477380E+04  0.14852477380E+04  0.25500000000E-02 0. -1.
    8880022    1    1    2    0    0  0.99091077719E+01  0.87090826545E+03 -0.10318009383E+04  0.13588908074E+04  0.15294330000E+03 0.  0.
    8880022    1    1    2    0    0 -0.99091077719E+01 -0.87090826545E+03  0.38443930368E+03  0.96424303392E+03  0.15294330000E+03 0.  0.
<mgrwt>
<rscale>  0 0.88429127E+03</rscale>
<asrwt>0</asrwt>
<pdfrwt beam="1">  1        2 0.22849965E+00 0.88429127E+03</pdfrwt>
<pdfrwt beam="2">  1       -2 0.12890555E+00 0.88429127E+03</pdfrwt>
<totfact> 0.57804686E+00</totfact>
</mgrwt>
</event>
<event>
 4    1  0.1726795E-008  0.4668852E+03  0.7818608E-02  0.1022803E+00
          2   -1    0    0  501    0  0.00000000000E+00  0.00000000000E+00  0.83570851666E+03  0.83570851666E+03  0.25500000000E-02 0. -1.
         -2   -1    0    0    0  501 -0.00000000000E+00 -0.00000000000E+00 -0.86096927786E+03  0.86096927787E+03  0.25500000000E-02 0.  1.
    8880022    1    1    2    0    0  0.43429108921E+03 -0.77339537116E+02  0.69564128205E+03  0.83779388902E+03  0.15294330000E+03 0.  0.
    8880022    1    1    2    0    0 -0.43429108921E+03  0.77339537116E+02 -0.72090204325E+03  0.85888390551E+03  0.15294330000E+03 0.  0.
<mgrwt>
<rscale>  0 0.46688522E+03</rscale>
<asrwt>0</asrwt>
<pdfrwt beam="1">  1        2 0.12857054E+00 0.46688522E+03</pdfrwt>
<pdfrwt beam="2">  1       -2 0.13245681E+00 0.46688522E+03</pdfrwt>
<totfact> 0.14191203E+01</totfact>
</mgrwt>
</event>
<event>
 4    1  0.1726795E-008  0.1752816E+04  0.7818608E-02  0.8731802E-01
         -2   -1    0    0    0  501 -0.00000000000E+00  0.00000000000E+00  0.13470840936E+04  0.13470840936E+04  0.25500000000E-02 0.  1.
          2   -1    0    0  501    0  0.00000000000E+00 -0.00000000000E+00 -0.33782683368E+04  0.33782683368E+04  0.25500000000E-02 0. -1.
    8880022    1    1    2    0    0 -0.56350049933E+03  0.16527070245E+04  0.33108226607E+03  0.17838106518E+04  0.15294330000E+03 0.  0.
    8880022    1    1    2    0    0  0.56350049933E+03 -0.16527070245E+04 -0.23622665093E+04  0.29415417786E+04  0.15294330000E+03 0.  0.
<mgrwt>
<rscale>  0 0.17528163E+04</rscale>
<asrwt>0</asrwt>
<pdfrwt beam="1">  1        2 0.51973359E+00 0.17528163E+04</pdfrwt>
<pdfrwt beam="2">  1       -2 0.20724371E+00 0.17528163E+04</pdfrwt>
<totfact> 0.10787663E-01</totfact>
</mgrwt>
</event>
<event>
 4    1  0.1726795E-008  0.5914365E+03  0.7818608E-02  0.9923333E-01
          2   -1    0    0  501    0  0.00000000000E+00  0.00000000000E+00  0.19465362302E+04  0.19465362302E+04  0.25500000000E-02 0. -1.
         -2   -1    0    0    0  501 -0.00000000000E+00 -0.00000000000E+00 -0.77321519394E+03  0.77321519395E+03  0.25500000000E-02 0.  1.
    8880022    1    1    2    0    0 -0.56218665777E+03 -0.10174329751E+03  0.17780783010E+04  0.18738622240E+04  0.15294330000E+03 0.  0.
    8880022    1    1    2    0    0  0.56218665777E+03  0.10174329751E+03 -0.60475726475E+03  0.84588920022E+03  0.15294330000E+03 0.  1.
<mgrwt>
<rscale>  0 0.59143655E+03</rscale>
<asrwt>0</asrwt>
<pdfrwt beam="1">  1        2 0.29946711E+00 0.59143655E+03</pdfrwt>
<pdfrwt beam="2">  1       -2 0.11895618E+00 0.59143655E+03</pdfrwt>
<totfact> 0.41415106E+00</totfact>
</mgrwt>
</event>
<event>
 4    1  0.1726795E-008  0.7658898E+03  0.7818608E-02  0.9610746E-01
         -2   -1    0    0    0  501 -0.00000000000E+00  0.00000000000E+00  0.85731022345E+03  0.85731022345E+03  0.25500000000E-02 0.  1.
          2   -1    0    0  501    0  0.00000000000E+00 -0.00000000000E+00 -0.71530234169E+03  0.71530234169E+03  0.25500000000E-02 0. -1.
    8880022    1    1    2    0    0  0.61721265827E+03 -0.42690054667E+03  0.23491825195E+03  0.80110784567E+03  0.15294330000E+03 0.  0.
    8880022    1    1    2    0    0 -0.61721265827E+03  0.42690054667E+03 -0.92910370189E+02  0.77150471948E+03  0.15294330000E+03 0.  0.
<mgrwt>
<rscale>  0 0.76588981E+03</rscale>
<asrwt>0</asrwt>
<pdfrwt beam="1">  1        2 0.11004651E+00 0.76588981E+03</pdfrwt>
<pdfrwt beam="2">  1       -2 0.13189388E+00 0.76588981E+03</pdfrwt>
<totfact> 0.16900512E+01</totfact>
</mgrwt>
</event>
<event>
 4    1  0.1726795E-008  0.1790313E+04  0.7818608E-02  0.8711468E-01
         -2   -1    0    0    0  501 -0.00000000000E+00  0.00000000000E+00  0.17656792728E+04  0.17656792728E+04  0.25500000000E-02 0.  1.
          2   -1    0    0  501    0  0.00000000000E+00 -0.00000000000E+00 -0.18477392802E+04  0.18477392802E+04  0.25500000000E-02 0. -1.
    8880022    1    1    2    0    0 -0.31172226122E+03 -0.17563197332E+04  0.19839239606E+03  0.18012720420E+04  0.15294330000E+03 0.  0.
    8880022    1    1    2    0    0  0.31172226122E+03  0.17563197332E+04 -0.28045240352E+03  0.18121465110E+04  0.15294330000E+03 0.  0.
<mgrwt>
<rscale>  0 0.17903132E+04</rscale>
<asrwt>0</asrwt>
<pdfrwt beam="1">  1        2 0.28426758E+00 0.17903132E+04</pdfrwt>
<pdfrwt beam="2">  1       -2 0.27164296E+00 0.17903132E+04</pdfrwt>
<totfact> 0.35029197E-01</totfact>
</mgrwt>
</event>
<event>
 4    1  0.1726795E-008  0.8147766E+03  0.7818608E-02  0.9538871E-01
          2   -1    0    0  501    0  0.00000000000E+00  0.00000000000E+00  0.20608490607E+04  0.20608490607E+04  0.25500000000E-02 0. -1.
         -2   -1    0    0    0  501 -0.00000000000E+00 -0.00000000000E+00 -0.57577569408E+03  0.57577569409E+03  0.25500000000E-02 0.  1.
    8880022    1    1    2    0    0  0.46402424054E+03 -0.65203586361E+03 -0.13245832527E+03  0.82547327285E+03  0.15294330000E+03 0.  0.
    8880022    1    1    2    0    0 -0.46402424054E+03  0.65203586361E+03  0.16175316919E+04  0.18111514819E+04  0.15294330000E+03 0. -1.
<mgrwt>
<rscale>  0 0.81477661E+03</rscale>
<asrwt>0</asrwt>
<pdfrwt beam="1">  1        2 0.31705371E+00 0.81477661E+03</pdfrwt>
<pdfrwt beam="2">  1       -2 0.88580874E-01 0.81477661E+03</pdfrwt>
<totfact> 0.69572850E+00</totfact>
</mgrwt>
</event>
<event>
 4    1  0.1726795E-008  0.4009509E+03  0.7818608E-02  0.1043451E+00
          2   -1    0    0  501    0  0.00000000000E+00  0.00000000000E+00  0.10645317417E+04  0.10645317417E+04  0.25500000000E-02 0. -1.
         -2   -1    0    0    0  501 -0.00000000000E+00 -0.00000000000E+00 -0.53761015813E+03  0.53761015814E+03  0.25500000000E-02 0.  1.
    8880022    1    1    2    0    0  0.36441888157E+03  0.67593125405E+02 -0.41584410594E+03  0.57765727322E+03  0.15294330000E+03 0.  0.
    8880022    1    1    2    0    0 -0.36441888157E+03 -0.67593125405E+02  0.94276568954E+03  0.10244846266E+04  0.15294330000E+03 0.  0.
<mgrwt>
<rscale>  0 0.40095088E+03</rscale>
<asrwt>0</asrwt>
<pdfrwt beam="1">  1        2 0.16377411E+00 0.40095088E+03</pdfrwt>
<pdfrwt beam="2">  1       -2 0.82709256E-01 0.40095088E+03</pdfrwt>
<totfact> 0.31313129E+01</totfact>
</mgrwt>
</event>
<event>
 4    1  0.1726795E-008  0.1847690E+04  0.7818608E-02  0.8681342E-01
          2   -1    0    0  501    0  0.00000000000E+00  0.00000000000E+00  0.20366019294E+04  0.20366019294E+04  0.25500000000E-02 0. -1.
         -2   -1    0    0    0  501 -0.00000000000E+00 -0.00000000000E+00 -0.18825425721E+04  0.18825425721E+04  0.25500000000E-02 0.  1.
    8880022    1    1    2    0    0 -0.17994131052E+04  0.39074200389E+03  0.72562924297E+03  0.19850683334E+04  0.15294330000E+03 0.  0.
    8880022    1    1    2    0    0  0.17994131052E+04 -0.39074200389E+03 -0.57156988566E+03  0.19340761681E+04  0.15294330000E+03 0.  0.
<mgrwt>
<rscale>  0 0.18476900E+04</rscale>
<asrwt>0</asrwt>
<pdfrwt beam="1">  1        2 0.31332337E+00 0.18476900E+04</pdfrwt>
<pdfrwt beam="2">  1       -2 0.28962194E+00 0.18476900E+04</pdfrwt>
<totfact> 0.21189498E-01</totfact>
</mgrwt>
</event>
<event>
 4    1  0.1726795E-008  0.6583091E+03  0.7818608E-02  0.9791312E-01
          2   -1    0    0  501    0  0.00000000000E+00  0.00000000000E+00  0.19672966955E+04  0.19672966955E+04  0.25500000000E-02 0. -1.
         -2   -1    0    0    0  501 -0.00000000000E+00 -0.00000000000E+00 -0.11993337104E+04  0.11993337104E+04  0.25500000000E-02 0.  1.
    8880022    1    1    2    0    0  0.75457511390E+02  0.63583434959E+03  0.18145180601E+04  0.19302452175E+04  0.15294330000E+03 0. -1.
    8880022    1    1    2    0    0 -0.75457511390E+02 -0.63583434959E+03 -0.10465550750E+04  0.12363851885E+04  0.15294330000E+03 0.  0.
<mgrwt>
<rscale>  0 0.65830905E+03</rscale>
<asrwt>0</asrwt>
<pdfrwt beam="1">  1        2 0.30266103E+00 0.65830905E+03</pdfrwt>
<pdfrwt beam="2">  1       -2 0.18451288E+00 0.65830905E+03</pdfrwt>
<totfact> 0.12482835E+00</totfact>
</mgrwt>
</event>
<event>
 4    1  0.1726795E-008  0.1318703E+04  0.7818608E-02  0.9014864E-01
         -2   -1    0    0    0  501 -0.00000000000E+00  0.00000000000E+00  0.24433135185E+04  0.24433135185E+04  0.25500000000E-02 0.  1.
          2   -1    0    0  501    0  0.00000000000E+00 -0.00000000000E+00 -0.99821997432E+03  0.99821997432E+03  0.25500000000E-02 0. -1.
    8880022    1    1    2    0    0 -0.12804704780E+04  0.27564545687E+03  0.16444056961E+04  0.21078536025E+04  0.15294330000E+03 0.  1.
    8880022    1    1    2    0    0  0.12804704780E+04 -0.27564545687E+03 -0.19931215197E+03  0.13336798903E+04  0.15294330000E+03 0.  0.
<mgrwt>
<rscale>  0 0.13187027E+04</rscale>
<asrwt>0</asrwt>
<pdfrwt beam="1">  1        2 0.15357231E+00 0.13187027E+04</pdfrwt>
<pdfrwt beam="2">  1       -2 0.37589438E+00 0.13187027E+04</pdfrwt>
<totfact> 0.26061552E-01</totfact>
</mgrwt>
</event>
<event>
 4    1  0.1726795E-008  0.7312863E+03  0.7818608E-02  0.9665175E-01
         -2   -1    0    0    0  501 -0.00000000000E+00  0.00000000000E+00  0.78288611610E+03  0.78288611610E+03  0.25500000000E-02 0.  1.
          2   -1    0    0  501    0  0.00000000000E+00 -0.00000000000E+00 -0.34767543085E+04  0.34767543085E+04  0.25500000000E-02 0. -1.
    8880022    1    1    2    0    0  0.13986741568E+02 -0.71497716355E+03  0.56222999268E+03  0.92243275691E+03  0.15294330000E+03 0.  0.
    8880022    1    1    2    0    0 -0.13986741568E+02  0.71497716355E+03 -0.32560981851E+04  0.33372076677E+04  0.15294330000E+03 0.  0.
<mgrwt>
<rscale>  0 0.73128628E+03</rscale>
<asrwt>0</asrwt>
<pdfrwt beam="1">  1        2 0.53488527E+00 0.73128628E+03</pdfrwt>
<pdfrwt beam="2">  1       -2 0.12044402E+00 0.73128628E+03</pdfrwt>
<totfact> 0.48550331E-01</totfact>
</mgrwt>
</event>
<event>
 4    1  0.1726795E-008  0.2636253E+03  0.7818608E-02  0.1104984E+00
          2   -1    0    0  501    0  0.00000000000E+00  0.00000000000E+00  0.15050136005E+04  0.15050136005E+04  0.25500000000E-02 0. -1.
         -2   -1    0    0    0  501 -0.00000000000E+00 -0.00000000000E+00 -0.12062531025E+03  0.12062531027E+03  0.25500000000E-02 0.  1.
    8880022    1    1    2    0    0  0.30457946125E+02  0.21255339935E+03  0.53636921897E+02  0.26902640477E+03  0.15294330000E+03 0.  0.
    8880022    1    1    2    0    0 -0.30457946125E+02 -0.21255339935E+03  0.13307513684E+04  0.13566125060E+04  0.15294330000E+03 0.  0.
<mgrwt>
<rscale>  0 0.26362528E+03</rscale>
<asrwt>0</asrwt>
<pdfrwt beam="1">  1        2 0.23154057E+00 0.26362528E+03</pdfrwt>
<pdfrwt beam="2">  1       -2 0.18557739E-01 0.26362528E+03</pdfrwt>
<totfact> 0.32660242E+02</totfact>
</mgrwt>
</event>
<event>
 4    1  0.1726795E-008  0.9030270E+03  0.7818608E-02  0.9421805E-01
          2   -1    0    0  501    0  0.00000000000E+00  0.00000000000E+00  0.21121137957E+04  0.21121137957E+04  0.25500000000E-02 0. -1.
         -2   -1    0    0    0  501 -0.00000000000E+00 -0.00000000000E+00 -0.77041728092E+03  0.77041728093E+03  0.25500000000E-02 0.  1.
    8880022    1    1    2    0    0  0.29617932558E+03  0.83925195951E+03 -0.34711904008E+03  0.96744474025E+03  0.15294330000E+03 0.  0.
    8880022    1    1    2    0    0 -0.29617932558E+03 -0.83925195951E+03  0.16888155549E+04  0.19150863364E+04  0.15294330000E+03 0.  0.
<mgrwt>
<rscale>  0 0.90302696E+03</rscale>
<asrwt>0</asrwt>
<pdfrwt beam="1">  1        2 0.32494058E+00 0.90302696E+03</pdfrwt>
<pdfrwt beam="2">  1       -2 0.11852574E+00 0.90302696E+03</pdfrwt>
<totfact> 0.32124040E+00</totfact>
</mgrwt>
</event>
<event>
 4    1  0.1726795E-008  0.8197861E+03  0.7818608E-02  0.9531811E-01
          2   -1    0    0  501    0  0.00000000000E+00  0.00000000000E+00  0.14664085293E+04  0.14664085293E+04  0.25500000000E-02 0. -1.
         -2   -1    0    0    0  501 -0.00000000000E+00 -0.00000000000E+00 -0.14317612962E+04  0.14317612962E+04  0.25500000000E-02 0.  1.
    8880022    1    1    2    0    0  0.47436301753E+03 -0.65087431708E+03 -0.11775411123E+04  0.14348004646E+04  0.15294330000E+03 0.  0.
    8880022    1    1    2    0    0 -0.47436301753E+03  0.65087431708E+03  0.12121883454E+04  0.14633693610E+04  0.15294330000E+03 0.  0.
<mgrwt>
<rscale>  0 0.81978613E+03</rscale>
<asrwt>0</asrwt>
<pdfrwt beam="1">  1        2 0.22560131E+00 0.81978613E+03</pdfrwt>
<pdfrwt beam="2">  1       -2 0.22027097E+00 0.81978613E+03</pdfrwt>
<totfact> 0.13350855E+00</totfact>
</mgrwt>
</event>
<event>
 4    1  0.1726795E-008  0.8987550E+03  0.7818608E-02  0.9427139E-01
          2   -1    0    0  501    0  0.00000000000E+00  0.00000000000E+00  0.12293337157E+04  0.12293337157E+04  0.25500000000E-02 0. -1.
         -2   -1    0    0    0  501 -0.00000000000E+00 -0.00000000000E+00 -0.77889703741E+03  0.77889703741E+03  0.25500000000E-02 0.  1.
    8880022    1    1    2    0    0  0.19782214131E+03  0.86327015410E+03  0.62232949564E+03  0.10931855344E+04  0.15294330000E+03 0.  0.
    8880022    1    1    2    0    0 -0.19782214131E+03 -0.86327015410E+03 -0.17189281734E+03  0.91504521868E+03  0.15294330000E+03 0.  0.
<mgrwt>
<rscale>  0 0.89875503E+03</rscale>
<asrwt>0</asrwt>
<pdfrwt beam="1">  1        2 0.18912826E+00 0.89875503E+03</pdfrwt>
<pdfrwt beam="2">  1       -2 0.11983031E+00 0.89875503E+03</pdfrwt>
<totfact> 0.97222630E+00</totfact>
</mgrwt>
</event>
<event>
 4    1  0.1726795E-008  0.9594871E+03  0.7818608E-02  0.9354130E-01
         -2   -1    0    0    0  501 -0.00000000000E+00  0.00000000000E+00  0.93096300071E+03  0.93096300071E+03  0.25500000000E-02 0.  1.
          2   -1    0    0  501    0  0.00000000000E+00 -0.00000000000E+00 -0.39196295876E+04  0.39196295876E+04  0.25500000000E-02 0. -1.
    8880022    1    1    2    0    0  0.30918446516E+03 -0.89533730916E+03  0.60282521365E+03  0.11331433369E+04  0.15294330000E+03 0.  0.
    8880022    1    1    2    0    0 -0.30918446516E+03  0.89533730916E+03 -0.35914918006E+04  0.37174492515E+04  0.15294330000E+03 0.  0.
<mgrwt>
<rscale>  0 0.95948715E+03</rscale>
<asrwt>0</asrwt>
<pdfrwt beam="1">  1        2 0.60301993E+00 0.95948715E+03</pdfrwt>
<pdfrwt beam="2">  1       -2 0.14322508E+00 0.95948715E+03</pdfrwt>
<totfact> 0.14158114E-01</totfact>
</mgrwt>
</event>
<event>
 4    1  0.1726795E-008  0.1053833E+04  0.7818608E-02  0.9251395E-01
         -2   -1    0    0    0  501 -0.00000000000E+00  0.00000000000E+00  0.88323974342E+03  0.88323974342E+03  0.25500000000E-02 0.  1.
          2   -1    0    0  501    0  0.00000000000E+00 -0.00000000000E+00 -0.33045462344E+04  0.33045462344E+04  0.25500000000E-02 0. -1.
    8880022    1    1    2    0    0 -0.93085925140E+02 -0.10385124006E+04  0.43741625555E+03  0.11410072871E+04  0.15294330000E+03 0.  0.
    8880022    1    1    2    0    0  0.93085925140E+02  0.10385124006E+04 -0.28587227465E+04  0.30467786907E+04  0.15294330000E+03 0.  0.
<mgrwt>
<rscale>  0 0.10538333E+04</rscale>
<asrwt>0</asrwt>
<pdfrwt beam="1">  1        2 0.50839172E+00 0.10538333E+04</pdfrwt>
<pdfrwt beam="2">  1       -2 0.13588304E+00 0.10538333E+04</pdfrwt>
<totfact> 0.43575644E-01</totfact>
</mgrwt>
</event>
<event>
 4    1  0.1967349E-008  0.1698849E+04  0.7818608E-02  0.8762021E-01
         -2   -1    0    0    0  501 -0.00000000000E+00  0.00000000000E+00  0.23423224444E+04  0.23423224444E+04  0.25500000000E-02 0.  1.
          2   -1    0    0  501    0  0.00000000000E+00 -0.00000000000E+00 -0.21728018443E+04  0.21728018443E+04  0.25500000000E-02 0. -1.
    8880022    1    1    2    0    0 -0.18269252081E+02  0.16918517639E+04 -0.14006436731E+04  0.22017925671E+04  0.15294330000E+03 0.  0.
    8880022    1    1    2    0    0  0.18269252081E+02 -0.16918517639E+04  0.15701642732E+04  0.23133317216E+04  0.15294330000E+03 0.  0.
<mgrwt>
<rscale>  0 0.16988490E+04</rscale>
<asrwt>0</asrwt>
<pdfrwt beam="1">  1        2 0.33427721E+00 0.16988490E+04</pdfrwt>
<pdfrwt beam="2">  1       -2 0.36035730E+00 0.16988490E+04</pdfrwt>
<totfact> 0.65535683E-02</totfact>
</mgrwt>
</event>
<event>
 4    1  0.1726795E-008  0.5461749E+03  0.7818608E-02  0.1002383E+00
         -2   -1    0    0    0  501 -0.00000000000E+00  0.00000000000E+00  0.18873387251E+04  0.18873387251E+04  0.25500000000E-02 0.  1.
          2   -1    0    0  501    0  0.00000000000E+00 -0.00000000000E+00 -0.24496239542E+04  0.24496239542E+04  0.25500000000E-02 0. -1.
    8880022    1    1    2    0    0  0.34076225937E+03 -0.39849270417E+03  0.18162138992E+04  0.18965600263E+04  0.15294330000E+03 0.  0.
    8880022    1    1    2    0    0 -0.34076225937E+03  0.39849270417E+03 -0.23784991283E+04  0.24404026531E+04  0.15294330000E+03 0.  0.
<mgrwt>
<rscale>  0 0.54617489E+03</rscale>
<asrwt>0</asrwt>
<pdfrwt beam="1">  1        2 0.37686523E+00 0.54617489E+03</pdfrwt>
<pdfrwt beam="2">  1       -2 0.29035980E+00 0.54617489E+03</pdfrwt>
<totfact> 0.15589998E-01</totfact>
</mgrwt>
</event>
<event>
 4    1  0.1726795E-008  0.7231899E+03  0.7818608E-02  0.9678376E-01
         -2   -1    0    0    0  501 -0.00000000000E+00  0.00000000000E+00  0.44564683260E+03  0.44564683260E+03  0.25500000000E-02 0.  1.
          2   -1    0    0  501    0  0.00000000000E+00 -0.00000000000E+00 -0.22295853836E+04  0.22295853836E+04  0.25500000000E-02 0. -1.
    8880022    1    1    2    0    0 -0.26931283459E+03  0.65351557445E+03 -0.18125287070E+04  0.19514773828E+04  0.15294330000E+03 0.  0.
    8880022    1    1    2    0    0  0.26931283459E+03 -0.65351557445E+03  0.28590155924E+02  0.72375483346E+03  0.15294330000E+03 0.  0.
<mgrwt>
<rscale>  0 0.72318992E+03</rscale>
<asrwt>0</asrwt>
<pdfrwt beam="1">  1        2 0.34301313E+00 0.72318992E+03</pdfrwt>
<pdfrwt beam="2">  1       -2 0.68561053E-01 0.72318992E+03</pdfrwt>
<totfact> 0.10107059E+01</totfact>
</mgrwt>
</event>
<event>
 4    1  0.1726795E-008  0.1548563E+04  0.7818608E-02  0.8852786E-01
          2   -1    0    0  501    0  0.00000000000E+00  0.00000000000E+00  0.25560124283E+04  0.25560124283E+04  0.25500000000E-02 0. -1.
         -2   -1    0    0    0  501 -0.00000000000E+00 -0.00000000000E+00 -0.16555655573E+04  0.16555655573E+04  0.25500000000E-02 0.  1.
    8880022    1    1    2    0    0  0.14565103710E+04  0.50322324304E+03  0.18363800104E+04  0.24021530527E+04  0.15294330000E+03 0.  0.
    8880022    1    1    2    0    0 -0.14565103710E+04 -0.50322324304E+03 -0.93593313935E+03  0.18094249329E+04  0.15294330000E+03 0.  0.
<mgrwt>
<rscale>  0 0.15485631E+04</rscale>
<asrwt>0</asrwt>
<pdfrwt beam="1">  1        2 0.39323268E+00 0.15485631E+04</pdfrwt>
<pdfrwt beam="2">  1       -2 0.25470239E+00 0.15485631E+04</pdfrwt>
<totfact> 0.18103509E-01</totfact>
</mgrwt>
</event>
<event>
 4    1  0.1726795E-008  0.1248180E+04  0.7818608E-02  0.9071699E-01
         -2   -1    0    0    0  501 -0.00000000000E+00  0.00000000000E+00  0.12460982522E+04  0.12460982522E+04  0.25500000000E-02 0.  1.
          2   -1    0    0  501    0  0.00000000000E+00 -0.00000000000E+00 -0.20885790356E+04  0.20885790356E+04  0.25500000000E-02 0. -1.
    8880022    1    1    2    0    0 -0.11794995616E+04  0.37860585926E+03 -0.14775754137E+04  0.19342136306E+04  0.15294330000E+03 0.  0.
    8880022    1    1    2    0    0  0.11794995616E+04 -0.37860585926E+03  0.63509463038E+03  0.14004636572E+04  0.15294330000E+03 0.  0.
<mgrwt>
<rscale>  0 0.12481800E+04</rscale>
<asrwt>0</asrwt>
<pdfrwt beam="1">  1        2 0.32131985E+00 0.12481800E+04</pdfrwt>
<pdfrwt beam="2">  1       -2 0.19170742E+00 0.12481800E+04</pdfrwt>
<totfact> 0.86977764E-01</totfact>
</mgrwt>
</event>
<event>
 4    1  0.1726795E-008  0.7268466E+03  0.7818608E-02  0.9672391E-01
          2   -1    0    0  501    0  0.00000000000E+00  0.00000000000E+00  0.16772828259E+04  0.16772828259E+04  0.25500000000E-02 0. -1.
         -2   -1    0    0    0  501 -0.00000000000E+00 -0.00000000000E+00 -0.47772037207E+03  0.47772037207E+03  0.25500000000E-02 0.  1.
    8880022    1    1    2    0    0  0.74042828433E+02 -0.70670500943E+03  0.12286823043E+04  0.14275735248E+04  0.15294330000E+03 0.  0.
    8880022    1    1    2    0    0 -0.74042828433E+02  0.70670500943E+03 -0.29119850404E+02  0.72742967323E+03  0.15294330000E+03 0.  0.
<mgrwt>
<rscale>  0 0.72684659E+03</rscale>
<asrwt>0</asrwt>
<pdfrwt beam="1">  1        2 0.25804351E+00 0.72684659E+03</pdfrwt>
<pdfrwt beam="2">  1       -2 0.73495442E-01 0.72684659E+03</pdfrwt>
<totfact> 0.17380064E+01</totfact>
</mgrwt>
</event>
<event>
 4    1  0.1848254E-008  0.7333465E+03  0.7818608E-02  0.9661846E-01
         -2   -1    0    0    0  501 -0.00000000000E+00  0.00000000000E+00  0.11334711292E+04  0.11334711293E+04  0.25500000000E-02 0.  1.
          2   -1    0    0  501    0  0.00000000000E+00 -0.00000000000E+00 -0.29259518784E+04  0.29259518784E+04  0.25500000000E-02 0. -1.
    8880022    1    1    2    0    0  0.65552075047E+03 -0.29102906070E+03  0.96162887808E+03  0.12093498752E+04  0.15294330000E+03 0.  0.
    8880022    1    1    2    0    0 -0.65552075047E+03  0.29102906070E+03 -0.27541096272E+04  0.28500731324E+04  0.15294330000E+03 0.  0.
<mgrwt>
<rscale>  0 0.73334645E+03</rscale>
<asrwt>0</asrwt>
<pdfrwt beam="1">  1        2 0.45014644E+00 0.73334645E+03</pdfrwt>
<pdfrwt beam="2">  1       -2 0.17438017E+00 0.73334645E+03</pdfrwt>
<totfact> 0.41264803E-01</totfact>
</mgrwt>
</event>
<event>
 4    1  0.1726795E-008  0.6227895E+03  0.7818608E-02  0.9859221E-01
         -2   -1    0    0    0  501 -0.00000000000E+00  0.00000000000E+00  0.33041010814E+03  0.33041010815E+03  0.25500000000E-02 0.  1.
          2   -1    0    0  501    0  0.00000000000E+00 -0.00000000000E+00 -0.28920862098E+04  0.28920862098E+04  0.25500000000E-02 0. -1.
    8880022    1    1    2    0    0 -0.40273457050E+03 -0.44975547839E+03 -0.25227550218E+04  0.25984918083E+04  0.15294330000E+03 0.  0.
    8880022    1    1    2    0    0  0.40273457050E+03  0.44975547839E+03 -0.38921079850E+02  0.62400450967E+03  0.15294330000E+03 0.  0.
<mgrwt>
<rscale>  0 0.62278951E+03</rscale>
<asrwt>0</asrwt>
<pdfrwt beam="1">  1        2 0.44493632E+00 0.62278951E+03</pdfrwt>
<pdfrwt beam="2">  1       -2 0.50832326E-01 0.62278951E+03</pdfrwt>
<totfact> 0.80897198E+00</totfact>
</mgrwt>
</event>
<event>
 4    1  0.1726795E-008  0.8217019E+03  0.7818608E-02  0.9529125E-01
         -2   -1    0    0    0  501 -0.00000000000E+00  0.00000000000E+00  0.52528310575E+03  0.52528310576E+03  0.25500000000E-02 0.  1.
          2   -1    0    0  501    0  0.00000000000E+00 -0.00000000000E+00 -0.24882892342E+04  0.24882892342E+04  0.25500000000E-02 0. -1.
    8880022    1    1    2    0    0  0.80720134411E+03 -0.15111025655E+02  0.66145681543E+02  0.82435990759E+03  0.15294330000E+03 0.  0.
    8880022    1    1    2    0    0 -0.80720134411E+03  0.15111025655E+02 -0.20291518100E+04  0.21892124324E+04  0.15294330000E+03 0.  0.
<mgrwt>
<rscale>  0 0.82170190E+03</rscale>
<asrwt>0</asrwt>
<pdfrwt beam="1">  1        2 0.38281372E+00 0.82170190E+03</pdfrwt>
<pdfrwt beam="2">  1       -2 0.80812787E-01 0.82170190E+03</pdfrwt>
<totfact> 0.49531103E+00</totfact>
</mgrwt>
</event>
<event>
 4    1  0.1726795E-008  0.5495488E+03  0.7818608E-02  0.1001598E+00
         -2   -1    0    0    0  501 -0.00000000000E+00  0.00000000000E+00  0.34552790807E+03  0.34552790808E+03  0.25500000000E-02 0.  1.
          2   -1    0    0  501    0  0.00000000000E+00 -0.00000000000E+00 -0.20844526257E+04  0.20844526257E+04  0.25500000000E-02 0. -1.
    8880022    1    1    2    0    0  0.44003978243E+03  0.29150857761E+03 -0.17953199275E+04  0.18775456203E+04  0.15294330000E+03 0.  0.
    8880022    1    1    2    0    0 -0.44003978243E+03 -0.29150857761E+03  0.56395209931E+02  0.55243491350E+03  0.15294330000E+03 0.  0.
<mgrwt>
<rscale>  0 0.54954883E+03</rscale>
<asrwt>0</asrwt>
<pdfrwt beam="1">  1        2 0.32068501E+00 0.54954883E+03</pdfrwt>
<pdfrwt beam="2">  1       -2 0.53158141E-01 0.54954883E+03</pdfrwt>
<totfact> 0.21411078E+01</totfact>
</mgrwt>
</event>
<event>
 4    1  0.1726795E-008  0.1306301E+04  0.7818608E-02  0.9024584E-01
         -2   -1    0    0    0  501 -0.00000000000E+00  0.00000000000E+00  0.20330527833E+04  0.20330527833E+04  0.25500000000E-02 0.  1.
          2   -1    0    0  501    0  0.00000000000E+00 -0.00000000000E+00 -0.15401119198E+04  0.15401119198E+04  0.25500000000E-02 0. -1.
    8880022    1    1    2    0    0 -0.16731980795E+03 -0.12864811267E+04 -0.95866383827E+03  0.16203263916E+04  0.15294330000E+03 0.  0.
    8880022    1    1    2    0    0  0.16731980795E+03  0.12864811267E+04  0.14516047018E+04  0.19528383115E+04  0.15294330000E+03 0.  0.
<mgrwt>
<rscale>  0 0.13063006E+04</rscale>
<asrwt>0</asrwt>
<pdfrwt beam="1">  1        2 0.23694030E+00 0.13063006E+04</pdfrwt>
<pdfrwt beam="2">  1       -2 0.31277735E+00 0.13063006E+04</pdfrwt>
<totfact> 0.30781180E-01</totfact>
</mgrwt>
</event>
<event>
 4    1  0.1726795E-008  0.5467002E+03  0.7818608E-02  0.1002261E+00
         -2   -1    0    0    0  501 -0.00000000000E+00  0.00000000000E+00  0.16079072106E+04  0.16079072106E+04  0.25500000000E-02 0.  1.
          2   -1    0    0  501    0  0.00000000000E+00 -0.00000000000E+00 -0.66838568798E+03  0.66838568799E+03  0.25500000000E-02 0. -1.
    8880022    1    1    2    0    0 -0.48645293637E+03 -0.19711166161E+03  0.14367794432E+04  0.15372756057E+04  0.15294330000E+03 0.  0.
    8880022    1    1    2    0    0  0.48645293637E+03  0.19711166161E+03 -0.49725792065E+03  0.73901729283E+03  0.15294330000E+03 0.  0.
<mgrwt>
<rscale>  0 0.54670021E+03</rscale>
<asrwt>0</asrwt>
<pdfrwt beam="1">  1        2 0.10282857E+00 0.54670021E+03</pdfrwt>
<pdfrwt beam="2">  1       -2 0.24737034E+00 0.54670021E+03</pdfrwt>
<totfact> 0.30896199E+00</totfact>
</mgrwt>
</event>
<event>
 4    1  0.1726795E-008  0.1022537E+04  0.7818608E-02  0.9284166E-01
          2   -1    0    0  501    0  0.00000000000E+00  0.00000000000E+00  0.21606621771E+04  0.21606621771E+04  0.25500000000E-02 0. -1.
         -2   -1    0    0    0  501 -0.00000000000E+00 -0.00000000000E+00 -0.12666893183E+04  0.12666893183E+04  0.25500000000E-02 0.  1.
    8880022    1    1    2    0    0  0.65193290940E+03  0.77277032364E+03 -0.90014881770E+03  0.13622958704E+04  0.15294330000E+03 0.  0.
    8880022    1    1    2    0    0 -0.65193290940E+03 -0.77277032364E+03  0.17941216765E+04  0.20650556250E+04  0.15294330000E+03 0.  0.
<mgrwt>
<rscale>  0 0.10225371E+04</rscale>
<asrwt>0</asrwt>
<pdfrwt beam="1">  1        2 0.33240957E+00 0.10225371E+04</pdfrwt>
<pdfrwt beam="2">  1       -2 0.19487528E+00 0.10225371E+04</pdfrwt>
<totfact> 0.77903645E-01</totfact>
</mgrwt>
</event>
<event>
 4    1  0.1726795E-008  0.7043574E+03  0.7818608E-02  0.9709809E-01
         -2   -1    0    0    0  501 -0.00000000000E+00  0.00000000000E+00  0.32709106637E+03  0.32709106638E+03  0.25500000000E-02 0.  1.
          2   -1    0    0  501    0  0.00000000000E+00 -0.00000000000E+00 -0.20875686382E+04  0.20875686382E+04  0.25500000000E-02 0. -1.
    8880022    1    1    2    0    0 -0.14117007773E+03 -0.67290319174E+03 -0.24891811788E+03  0.74704723996E+03  0.15294330000E+03 0.  0.
    8880022    1    1    2    0    0  0.14117007773E+03  0.67290319174E+03 -0.15115594539E+04  0.16676124646E+04  0.15294330000E+03 0.  0.
<mgrwt>
<rscale>  0 0.70435740E+03</rscale>
<asrwt>0</asrwt>
<pdfrwt beam="1">  1        2 0.32116440E+00 0.70435740E+03</pdfrwt>
<pdfrwt beam="2">  1       -2 0.50321704E-01 0.70435740E+03</pdfrwt>
<totfact> 0.23241206E+01</totfact>
</mgrwt>
</event>
<event>
 4    1  0.1726795E-008  0.7250491E+03  0.7818608E-02  0.9675329E-01
         -2   -1    0    0    0  501 -0.00000000000E+00  0.00000000000E+00  0.39784876631E+03  0.39784876632E+03  0.25500000000E-02 0.  1.
          2   -1    0    0  501    0  0.00000000000E+00 -0.00000000000E+00 -0.22825448196E+04  0.22825448196E+04  0.25500000000E-02 0. -1.
    8880022    1    1    2    0    0  0.44532936197E+03 -0.55134952450E+03 -0.72656272470E+02  0.72868040027E+03  0.15294330000E+03 0.  0.
    8880022    1    1    2    0    0 -0.44532936197E+03  0.55134952450E+03 -0.18120397808E+04  0.19517131857E+04  0.15294330000E+03 0.  0.
<mgrwt>
<rscale>  0 0.72504910E+03</rscale>
<asrwt>0</asrwt>
<pdfrwt beam="1">  1        2 0.35116073E+00 0.72504910E+03</pdfrwt>
<pdfrwt beam="2">  1       -2 0.61207504E-01 0.72504910E+03</pdfrwt>
<totfact> 0.12048480E+01</totfact>
</mgrwt>
</event>
<event>
 4    1  0.1726795E-008  0.5433013E+03  0.7818608E-02  0.1003056E+00
         -2   -1    0    0    0  501 -0.00000000000E+00  0.00000000000E+00  0.11110970981E+04  0.11110970981E+04  0.25500000000E-02 0.  1.
          2   -1    0    0  501    0  0.00000000000E+00 -0.00000000000E+00 -0.51115415864E+03  0.51115415864E+03  0.25500000000E-02 0. -1.
    8880022    1    1    2    0    0 -0.47274811863E+03  0.21975869653E+03  0.86209394708E+03  0.10190104489E+04  0.15294330000E+03 0.  0.
    8880022    1    1    2    0    0  0.47274811863E+03 -0.21975869653E+03 -0.26215100765E+03  0.60324080780E+03  0.15294330000E+03 0.  0.
<mgrwt>
<rscale>  0 0.54330132E+03</rscale>
<asrwt>0</asrwt>
<pdfrwt beam="1">  1        2 0.78639103E-01 0.54330132E+03</pdfrwt>
<pdfrwt beam="2">  1       -2 0.17093801E+00 0.54330132E+03</pdfrwt>
<totfact> 0.13101714E+01</totfact>
</mgrwt>
</event>
<event>
 4    1  0.1726795E-008  0.2674438E+03  0.7818608E-02  0.1102752E+00
         -2   -1    0    0    0  501 -0.00000000000E+00  0.00000000000E+00  0.83948573267E+03  0.83948573267E+03  0.25500000000E-02 0.  1.
          2   -1    0    0  501    0  0.00000000000E+00 -0.00000000000E+00 -0.10910986475E+04  0.10910986475E+04  0.25500000000E-02 0. -1.
    8880022    1    1    2    0    0 -0.21480497171E+03  0.44647038591E+02 -0.10526434960E+04  0.10860867906E+04  0.15294330000E+03 0.  0.
    8880022    1    1    2    0    0  0.21480497171E+03 -0.44647038591E+02  0.80103058116E+03  0.84449758963E+03  0.15294330000E+03 0.  0.
<mgrwt>
<rscale>  0 0.26744380E+03</rscale>
<asrwt>0</asrwt>
<pdfrwt beam="1">  1        2 0.16786133E+00 0.26744380E+03</pdfrwt>
<pdfrwt beam="2">  1       -2 0.12915165E+00 0.26744380E+03</pdfrwt>
<totfact> 0.10923545E+01</totfact>
</mgrwt>
</event>
<event>
 4    1  0.1726795E-008  0.1053682E+04  0.7818608E-02  0.9251551E-01
         -2   -1    0    0    0  501 -0.00000000000E+00  0.00000000000E+00  0.23815657352E+04  0.23815657352E+04  0.25500000000E-02 0.  1.
          2   -1    0    0  501    0  0.00000000000E+00 -0.00000000000E+00 -0.85004041069E+03  0.85004041069E+03  0.25500000000E-02 0. -1.
    8880022    1    1    2    0    0  0.28168242027E+03 -0.10037472857E+04  0.18515722129E+04  0.21303907886E+04  0.15294330000E+03 0.  0.
    8880022    1    1    2    0    0 -0.28168242027E+03  0.10037472857E+04 -0.32004688841E+03  0.11012153573E+04  0.15294330000E+03 0.  0.
<mgrwt>
<rscale>  0 0.10536818E+04</rscale>
<asrwt>0</asrwt>
<pdfrwt beam="1">  1        2 0.13077545E+00 0.10536818E+04</pdfrwt>
<pdfrwt beam="2">  1       -2 0.36639473E+00 0.10536818E+04</pdfrwt>
<totfact> 0.39077524E-01</totfact>
</mgrwt>
</event>
<event>
 4    1  0.1726795E-008  0.4223286E+03  0.7818608E-02  0.1036311E+00
         -2   -1    0    0    0  501 -0.00000000000E+00  0.00000000000E+00  0.24011059876E+03  0.24011059878E+03  0.25500000000E-02 0.  1.
          2   -1    0    0  501    0  0.00000000000E+00 -0.00000000000E+00 -0.36853737418E+04  0.36853737418E+04  0.25500000000E-02 0. -1.
    8880022    1    1    2    0    0 -0.33082469112E+03  0.21336554015E+03 -0.34764470946E+04  0.35020059801E+04  0.15294330000E+03 0.  0.
    8880022    1    1    2    0    0  0.33082469112E+03 -0.21336554015E+03  0.31183951535E+02  0.42347836052E+03  0.15294330000E+03 0.  1.
<mgrwt>
<rscale>  0 0.42232864E+03</rscale>
<asrwt>0</asrwt>
<pdfrwt beam="1">  1        2 0.56698054E+00 0.42232864E+03</pdfrwt>
<pdfrwt beam="2">  1       -2 0.36940095E-01 0.42232864E+03</pdfrwt>
<totfact> 0.49518891E+00</totfact>
</mgrwt>
</event>
<event>
 4    1  0.1726795E-008  0.6575607E+03  0.7818608E-02  0.9792695E-01
         -2   -1    0    0    0  501 -0.00000000000E+00  0.00000000000E+00  0.85020798832E+03  0.85020798832E+03  0.25500000000E-02 0.  1.
          2   -1    0    0  501    0  0.00000000000E+00 -0.00000000000E+00 -0.30325208683E+04  0.30325208683E+04  0.25500000000E-02 0. -1.
    8880022    1    1    2    0    0  0.27620807443E+03  0.57680461449E+03 -0.28622684904E+04  0.29368294176E+04  0.15294330000E+03 0.  0.
    8880022    1    1    2    0    0 -0.27620807443E+03 -0.57680461449E+03  0.67995561042E+03  0.94589943907E+03  0.15294330000E+03 0.  0.
<mgrwt>
<rscale>  0 0.65756073E+03</rscale>
<asrwt>0</asrwt>
<pdfrwt beam="1">  1        2 0.46654167E+00 0.65756073E+03</pdfrwt>
<pdfrwt beam="2">  1       -2 0.13080123E+00 0.65756073E+03</pdfrwt>
<totfact> 0.77763014E-01</totfact>
</mgrwt>
</event>
<event>
 4    1  0.1726795E-008  0.5798289E+03  0.7818608E-02  0.9948161E-01
          2   -1    0    0  501    0  0.00000000000E+00  0.00000000000E+00  0.13349286055E+04  0.13349286055E+04  0.25500000000E-02 0. -1.
         -2   -1    0    0    0  501 -0.00000000000E+00 -0.00000000000E+00 -0.31474679260E+03  0.31474679261E+03  0.25500000000E-02 0.  1.
    8880022    1    1    2    0    0  0.41291263227E+03 -0.37724410299E+03  0.14136596786E+03  0.59681315754E+03  0.15294330000E+03 0.  0.
    8880022    1    1    2    0    0 -0.41291263227E+03  0.37724410299E+03  0.87881584505E+03  0.10528622406E+04  0.15294330000E+03 0.  0.
<mgrwt>
<rscale>  0 0.57982895E+03</rscale>
<asrwt>0</asrwt>
<pdfrwt beam="1">  1        2 0.20537363E+00 0.57982895E+03</pdfrwt>
<pdfrwt beam="2">  1       -2 0.48422583E-01 0.57982895E+03</pdfrwt>
<totfact> 0.66091538E+01</totfact>
</mgrwt>
</event>
<event>
 4    1  0.1726795E-008  0.3570050E+03  0.7818608E-02  0.1059776E+00
          2   -1    0    0  501    0  0.00000000000E+00  0.00000000000E+00  0.21316726333E+04  0.21316726333E+04  0.25500000000E-02 0. -1.
         -2   -1    0    0    0  501 -0.00000000000E+00 -0.00000000000E+00 -0.13594028318E+03  0.13594028320E+03  0.25500000000E-02 0.  1.
    8880022    1    1    2    0    0  0.96093301135E+01 -0.32244158508E+03  0.18464617997E+04  0.18806577961E+04  0.15294330000E+03 0. -1.
    8880022    1    1    2    0    0 -0.96093301135E+01  0.32244158508E+03  0.14927055041E+03  0.38695512046E+03  0.15294330000E+03 0.  0.
<mgrwt>
<rscale>  0 0.35700500E+03</rscale>
<asrwt>0</asrwt>
<pdfrwt beam="1">  1        2 0.32794961E+00 0.35700500E+03</pdfrwt>
<pdfrwt beam="2">  1       -2 0.20913891E-01 0.35700500E+03</pdfrwt>
<totfact> 0.12137494E+02</totfact>
</mgrwt>
</event>
<event>
 4    1  0.1726795E-008  0.9973751E+03  0.7818608E-02  0.9311428E-01
         -2   -1    0    0    0  501 -0.00000000000E+00  0.00000000000E+00  0.12889120433E+04  0.12889120433E+04  0.25500000000E-02 0.  1.
          2   -1    0    0  501    0  0.00000000000E+00 -0.00000000000E+00 -0.14552444719E+04  0.14552444719E+04  0.25500000000E-02 0. -1.
    8880022    1    1    2    0    0  0.67383032542E+03 -0.71924828113E+03  0.85713879267E+03  0.13150832522E+04  0.15294330000E+03 0.  0.
    8880022    1    1    2    0    0 -0.67383032542E+03  0.71924828113E+03 -0.10234712213E+04  0.14290732631E+04  0.15294330000E+03 0.  0.
<mgrwt>
<rscale>  0 0.99737508E+03</rscale>
<asrwt>0</asrwt>
<pdfrwt beam="1">  1        2 0.22388377E+00 0.99737508E+03</pdfrwt>
<pdfrwt beam="2">  1       -2 0.19829416E+00 0.99737508E+03</pdfrwt>
<totfact> 0.18249163E+00</totfact>
</mgrwt>
</event>
<event>
 4    1  0.1726795E-008  0.5324949E+03  0.7818608E-02  0.1005629E+00
         -2   -1    0    0    0  501 -0.00000000000E+00  0.00000000000E+00  0.83170762717E+03  0.83170762717E+03  0.25500000000E-02 0.  1.
          2   -1    0    0  501    0  0.00000000000E+00 -0.00000000000E+00 -0.57097062089E+03  0.57097062089E+03  0.25500000000E-02 0. -1.
    8880022    1    1    2    0    0 -0.27602540982E+03  0.42891624658E+03 -0.31480278382E+03  0.61858840853E+03  0.15294330000E+03 0.  0.
    8880022    1    1    2    0    0  0.27602540982E+03 -0.42891624658E+03  0.57553979011E+03  0.78408983953E+03  0.15294330000E+03 0.  1.
<mgrwt>
<rscale>  0 0.53249491E+03</rscale>
<asrwt>0</asrwt>
<pdfrwt beam="1">  1        2 0.87841634E-01 0.53249491E+03</pdfrwt>
<pdfrwt beam="2">  1       -2 0.12795502E+00 0.53249491E+03</pdfrwt>
<totfact> 0.24641671E+01</totfact>
</mgrwt>
</event>
<event>
 4    1  0.1726795E-008  0.5714158E+03  0.7818608E-02  0.9966550E-01
          2   -1    0    0  501    0  0.00000000000E+00  0.00000000000E+00  0.94426323065E+03  0.94426323065E+03  0.25500000000E-02 0. -1.
         -2   -1    0    0    0  501 -0.00000000000E+00 -0.00000000000E+00 -0.43917709255E+03  0.43917709255E+03  0.25500000000E-02 0.  1.
    8880022    1    1    2    0    0  0.54600628934E+03 -0.70721418032E+02  0.57151748466E+03  0.80817589376E+03  0.15294330000E+03 0.  0.
    8880022    1    1    2    0    0 -0.54600628934E+03  0.70721418032E+02 -0.66431346557E+02  0.57526442945E+03  0.15294330000E+03 0.  0.
<mgrwt>
<rscale>  0 0.57141582E+03</rscale>
<asrwt>0</asrwt>
<pdfrwt beam="1">  1        2 0.14527126E+00 0.57141582E+03</pdfrwt>
<pdfrwt beam="2">  1       -2 0.67565708E-01 0.57141582E+03</pdfrwt>
<totfact> 0.56750327E+01</totfact>
</mgrwt>
</event>
<event>
 4    1  0.1726795E-008  0.7612842E+03  0.7818608E-02  0.9617812E-01
         -2   -1    0    0    0  501 -0.00000000000E+00  0.00000000000E+00  0.13750495952E+04  0.13750495952E+04  0.25500000000E-02 0.  1.
          2   -1    0    0  501    0  0.00000000000E+00 -0.00000000000E+00 -0.53882501579E+03  0.53882501580E+03  0.25500000000E-02 0. -1.
    8880022    1    1    2    0    0  0.36881674539E+03 -0.64817914919E+03 -0.28463280323E+02  0.76181612773E+03  0.15294330000E+03 0.  0.
    8880022    1    1    2    0    0 -0.36881674539E+03  0.64817914919E+03  0.86468785976E+03  0.11520584833E+04  0.15294330000E+03 0.  0.
<mgrwt>
<rscale>  0 0.76128421E+03</rscale>
<asrwt>0</asrwt>
<pdfrwt beam="1">  1        2 0.82896156E-01 0.76128421E+03</pdfrwt>
<pdfrwt beam="2">  1       -2 0.21154609E+00 0.76128421E+03</pdfrwt>
<totfact> 0.64404906E+00</totfact>
</mgrwt>
</event>
<event>
 4    1  0.1726795E-008  0.3819870E+03  0.7818608E-02  0.1050202E+00
         -2   -1    0    0    0  501 -0.00000000000E+00  0.00000000000E+00  0.63379710362E+03  0.63379710362E+03  0.25500000000E-02 0.  1.
          2   -1    0    0  501    0  0.00000000000E+00 -0.00000000000E+00 -0.15685727263E+04  0.15685727263E+04  0.25500000000E-02 0. -1.
    8880022    1    1    2    0    0  0.21155930037E+03 -0.27886396757E+03 -0.14845562501E+04  0.15329127055E+04  0.15294330000E+03 0.  0.
    8880022    1    1    2    0    0 -0.21155930037E+03  0.27886396757E+03  0.54978062748E+03  0.66945712436E+03  0.15294330000E+03 0.  0.
<mgrwt>
<rscale>  0 0.38198705E+03</rscale>
<asrwt>0</asrwt>
<pdfrwt beam="1">  1        2 0.24131888E+00 0.38198705E+03</pdfrwt>
<pdfrwt beam="2">  1       -2 0.97507247E-01 0.38198705E+03</pdfrwt>
<totfact> 0.11207350E+01</totfact>
</mgrwt>
</event>
<event>
 4    1  0.1726795E-008  0.5187029E+03  0.7818608E-02  0.1009009E+00
          2   -1    0    0  501    0  0.00000000000E+00  0.00000000000E+00  0.15232106971E+04  0.15232106971E+04  0.25500000000E-02 0. -1.
         -2   -1    0    0    0  501 -0.00000000000E+00 -0.00000000000E+00 -0.44718230466E+03  0.44718230467E+03  0.25500000000E-02 0.  1.
    8880022    1    1    2    0    0  0.34484149802E+03 -0.35601317304E+03  0.13043197388E+04  0.14036747031E+04  0.15294330000E+03 0.  0.
    8880022    1    1    2    0    0 -0.34484149802E+03  0.35601317304E+03 -0.22829134639E+03  0.56671829862E+03  0.15294330000E+03 0.  0.
<mgrwt>
<rscale>  0 0.51870289E+03</rscale>
<asrwt>0</asrwt>
<pdfrwt beam="1">  1        2 0.23434011E+00 0.51870289E+03</pdfrwt>
<pdfrwt beam="2">  1       -2 0.68797277E-01 0.51870289E+03</pdfrwt>
<totfact> 0.25172222E+01</totfact>
</mgrwt>
</event>
<event>
 4    1  0.1726795E-008  0.4139005E+03  0.7818608E-02  0.1039070E+00
         -2   -1    0    0    0  501 -0.00000000000E+00  0.00000000000E+00  0.57169999493E+03  0.57169999494E+03  0.25500000000E-02 0.  1.
          2   -1    0    0  501    0  0.00000000000E+00 -0.00000000000E+00 -0.70788880340E+03  0.70788880340E+03  0.25500000000E-02 0. -1.
    8880022    1    1    2    0    0 -0.34468018638E+03 -0.17063853480E+03  0.41776612656E+03  0.58808343792E+03  0.15294330000E+03 0.  0.
    8880022    1    1    2    0    0  0.34468018638E+03  0.17063853480E+03 -0.55395493502E+03  0.69150536042E+03  0.15294330000E+03 0. -1.
<mgrwt>
<rscale>  0 0.41390046E+03</rscale>
<asrwt>0</asrwt>
<pdfrwt beam="1">  1        2 0.10890597E+00 0.41390046E+03</pdfrwt>
<pdfrwt beam="2">  1       -2 0.87953845E-01 0.41390046E+03</pdfrwt>
<totfact> 0.47185200E+01</totfact>
</mgrwt>
</event>
<event>
 4    1  0.1726795E-008  0.4537442E+03  0.7818608E-02  0.1026611E+00
         -2   -1    0    0    0  501 -0.00000000000E+00  0.00000000000E+00  0.31277416744E+03  0.31277416745E+03  0.25500000000E-02 0.  1.
          2   -1    0    0  501    0  0.00000000000E+00 -0.00000000000E+00 -0.14396635427E+04  0.14396635427E+04  0.25500000000E-02 0. -1.
    8880022    1    1    2    0    0  0.15180146093E+03  0.39931003379E+03  0.82094098223E+02  0.46111092007E+03  0.15294330000E+03 0.  0.
    8880022    1    1    2    0    0 -0.15180146093E+03 -0.39931003379E+03 -0.12089834734E+04  0.12913267900E+04  0.15294330000E+03 0.  0.
<mgrwt>
<rscale>  0 0.45374424E+03</rscale>
<asrwt>0</asrwt>
<pdfrwt beam="1">  1        2 0.22148669E+00 0.45374424E+03</pdfrwt>
<pdfrwt beam="2">  1       -2 0.48119104E-01 0.45374424E+03</pdfrwt>
<totfact> 0.59542567E+01</totfact>
</mgrwt>
</event>
<event>
 4    1  0.1726795E-008  0.6396991E+03  0.7818608E-02  0.9826302E-01
          2   -1    0    0  501    0  0.00000000000E+00  0.00000000000E+00  0.10472795141E+04  0.10472795141E+04  0.25500000000E-02 0. -1.
         -2   -1    0    0    0  501 -0.00000000000E+00 -0.00000000000E+00 -0.56362027963E+03  0.56362027964E+03  0.25500000000E-02 0.  1.
    8880022    1    1    2    0    0  0.61120439871E+03  0.11069115543E+03 -0.20425448719E+03  0.67151686311E+03  0.15294330000E+03 0.  0.
    8880022    1    1    2    0    0 -0.61120439871E+03 -0.11069115543E+03  0.68791372164E+03  0.93938293062E+03  0.15294330000E+03 0.  0.
<mgrwt>
<rscale>  0 0.63969915E+03</rscale>
<asrwt>0</asrwt>
<pdfrwt beam="1">  1        2 0.16111992E+00 0.63969915E+03</pdfrwt>
<pdfrwt beam="2">  1       -2 0.86710813E-01 0.63969915E+03</pdfrwt>
<totfact> 0.27841280E+01</totfact>
</mgrwt>
</event>
<event>
 4    1  0.1726795E-008  0.6246990E+03  0.7818608E-02  0.9855448E-01
          2   -1    0    0  501    0  0.00000000000E+00  0.00000000000E+00  0.14434108832E+04  0.14434108832E+04  0.25500000000E-02 0. -1.
         -2   -1    0    0    0  501 -0.00000000000E+00 -0.00000000000E+00 -0.42979995220E+03  0.42979995220E+03  0.25500000000E-02 0.  1.
    8880022    1    1    2    0    0 -0.24284711638E+03  0.55487159912E+03  0.10772510596E+04  0.12452785680E+04  0.15294330000E+03 0.  0.
    8880022    1    1    2    0    0  0.24284711638E+03 -0.55487159912E+03 -0.63640128631E+02  0.62793226739E+03  0.15294330000E+03 0.  0.
<mgrwt>
<rscale>  0 0.62469902E+03</rscale>
<asrwt>0</asrwt>
<pdfrwt beam="1">  1        2 0.22206321E+00 0.62469902E+03</pdfrwt>
<pdfrwt beam="2">  1       -2 0.66123070E-01 0.62469902E+03</pdfrwt>
<totfact> 0.29859922E+01</totfact>
</mgrwt>
</event>
<event>
 4    1  0.1726795E-008  0.1599644E+04  0.7818608E-02  0.8820767E-01
          2   -1    0    0  501    0  0.00000000000E+00  0.00000000000E+00  0.26514198763E+04  0.26514198763E+04  0.25500000000E-02 0. -1.
         -2   -1    0    0    0  501 -0.00000000000E+00 -0.00000000000E+00 -0.11379267827E+04  0.11379267827E+04  0.25500000000E-02 0.  1.
    8880022    1    1    2    0    0  0.10549374014E+04  0.11927184615E+04  0.14951501426E+04  0.21895971892E+04  0.15294330000E+03 0.  0.
    8880022    1    1    2    0    0 -0.10549374014E+04 -0.11927184615E+04  0.18342951014E+02  0.15997494697E+04  0.15294330000E+03 0.  0.
<mgrwt>
<rscale>  0 0.15996443E+04</rscale>
<asrwt>0</asrwt>
<pdfrwt beam="1">  1        2 0.40791075E+00 0.15996443E+04</pdfrwt>
<pdfrwt beam="2">  1       -2 0.17506566E+00 0.15996443E+04</pdfrwt>
<totfact> 0.51941610E-01</totfact>
</mgrwt>
</event>
<event>
 4    1  0.1726795E-008  0.1182896E+04  0.7818608E-02  0.9127961E-01
         -2   -1    0    0    0  501 -0.00000000000E+00  0.00000000000E+00  0.63891746074E+03  0.63891746074E+03  0.25500000000E-02 0.  1.
          2   -1    0    0  501    0  0.00000000000E+00 -0.00000000000E+00 -0.43880018531E+04  0.43880018531E+04  0.25500000000E-02 0. -1.
    8880022    1    1    2    0    0 -0.28511896010E+03  0.11377865270E+04 -0.36534378346E+04  0.38401628438E+04  0.15294330000E+03 0.  0.
    8880022    1    1    2    0    0  0.28511896010E+03 -0.11377865270E+04 -0.95646557812E+02  0.11867564701E+04  0.15294330000E+03 0.  0.
<mgrwt>
<rscale>  0 0.11828959E+04</rscale>
<asrwt>0</asrwt>
<pdfrwt beam="1">  1        2 0.67507719E+00 0.11828959E+04</pdfrwt>
<pdfrwt beam="2">  1       -2 0.98294997E-01 0.11828959E+04</pdfrwt>
<totfact> 0.13946482E-01</totfact>
</mgrwt>
</event>
<event>
 4    1  0.1726795E-008  0.1548336E+03  0.7818608E-02  0.1194656E+00
          2   -1    0    0  501    0  0.00000000000E+00  0.00000000000E+00  0.59213229778E+03  0.59213229779E+03  0.25500000000E-02 0. -1.
         -2   -1    0    0    0  501 -0.00000000000E+00 -0.00000000000E+00 -0.49582020502E+03  0.49582020502E+03  0.25500000000E-02 0.  1.
    8880022    1    1    2    0    0  0.20467008772E+02  0.12763212056E+02 -0.47313787322E+03  0.49782818132E+03  0.15294330000E+03 0.  0.
    8880022    1    1    2    0    0 -0.20467008772E+02 -0.12763212056E+02  0.56944996599E+03  0.59012432149E+03  0.15294330000E+03 0. -1.
<mgrwt>
<rscale>  0 0.15483362E+03</rscale>
<asrwt>0</asrwt>
<pdfrwt beam="1">  1        2 0.91097277E-01 0.15483362E+03</pdfrwt>
<pdfrwt beam="2">  1       -2 0.76280031E-01 0.15483362E+03</pdfrwt>
<totfact> 0.84024172E+01</totfact>
</mgrwt>
</event>
<event>
 4    1  0.1726795E-008  0.1046917E+04  0.7818608E-02  0.9258533E-01
         -2   -1    0    0    0  501 -0.00000000000E+00  0.00000000000E+00  0.34502249025E+03  0.34502249026E+03  0.25500000000E-02 0.  1.
          2   -1    0    0  501    0  0.00000000000E+00 -0.00000000000E+00 -0.36799707044E+04  0.36799707044E+04  0.25500000000E-02 0. -1.
    8880022    1    1    2    0    0 -0.27344565751E+03  0.99893475212E+03 -0.92323676861E+03  0.13958513354E+04  0.15294330000E+03 0.  0.
    8880022    1    1    2    0    0  0.27344565751E+03 -0.99893475212E+03 -0.24117114455E+04  0.26291418593E+04  0.15294330000E+03 0.  0.
<mgrwt>
<rscale>  0 0.10469168E+04</rscale>
<asrwt>0</asrwt>
<pdfrwt beam="1">  1        2 0.56614931E+00 0.10469168E+04</pdfrwt>
<pdfrwt beam="2">  1       -2 0.53080386E-01 0.10469168E+04</pdfrwt>
<totfact> 0.20915840E+00</totfact>
</mgrwt>
</event>
<event>
 4    1  0.1726795E-008  0.1065319E+04  0.7818608E-02  0.9239670E-01
         -2   -1    0    0    0  501 -0.00000000000E+00  0.00000000000E+00  0.12391938700E+04  0.12391938700E+04  0.25500000000E-02 0.  1.
          2   -1    0    0  501    0  0.00000000000E+00 -0.00000000000E+00 -0.29900962204E+04  0.29900962204E+04  0.25500000000E-02 0. -1.
    8880022    1    1    2    0    0 -0.93724985975E+03  0.48277860409E+03  0.88581919273E+03  0.13854890023E+04  0.15294330000E+03 0.  0.
    8880022    1    1    2    0    0  0.93724985975E+03 -0.48277860409E+03 -0.26367215431E+04  0.28438010882E+04  0.15294330000E+03 0.  0.
<mgrwt>
<rscale>  0 0.10653188E+04</rscale>
<asrwt>0</asrwt>
<pdfrwt beam="1">  1        2 0.46001480E+00 0.10653188E+04</pdfrwt>
<pdfrwt beam="2">  1       -2 0.19064521E+00 0.10653188E+04</pdfrwt>
<totfact> 0.27235941E-01</totfact>
</mgrwt>
</event>
<event>
 4    1  0.1726795E-008  0.1201273E+04  0.7818608E-02  0.9111743E-01
         -2   -1    0    0    0  501 -0.00000000000E+00  0.00000000000E+00  0.74251128975E+03  0.74251128975E+03  0.25500000000E-02 0.  1.
          2   -1    0    0  501    0  0.00000000000E+00 -0.00000000000E+00 -0.23189912957E+04  0.23189912957E+04  0.25500000000E-02 0. -1.
    8880022    1    1    2    0    0  0.11795385875E+04  0.16838314604E+03 -0.17226002209E+03  0.12135606006E+04  0.15294330000E+03 0.  0.
    8880022    1    1    2    0    0 -0.11795385875E+04 -0.16838314604E+03 -0.14042199838E+04  0.18479419848E+04  0.15294330000E+03 0.  0.
<mgrwt>
<rscale>  0 0.12012726E+04</rscale>
<asrwt>0</asrwt>
<pdfrwt beam="1">  1        2 0.35676789E+00 0.12012726E+04</pdfrwt>
<pdfrwt beam="2">  1       -2 0.11423251E+00 0.12012726E+04</pdfrwt>
<totfact> 0.25959869E+00</totfact>
</mgrwt>
</event>
<event>
 4    1  0.1726795E-008  0.2011740E+03  0.7818608E-02  0.1148752E+00
         -2   -1    0    0    0  501 -0.00000000000E+00  0.00000000000E+00  0.15403615106E+03  0.15403615108E+03  0.25500000000E-02 0.  1.
          2   -1    0    0  501    0  0.00000000000E+00 -0.00000000000E+00 -0.58554694101E+03  0.58554694101E+03  0.25500000000E-02 0. -1.
    8880022    1    1    2    0    0 -0.27026759130E+02  0.12786280425E+03  0.58812385985E+02  0.20959459005E+03  0.15294330000E+03 0.  1.
    8880022    1    1    2    0    0  0.27026759130E+02 -0.12786280425E+03 -0.49032317594E+03  0.52998850204E+03  0.15294330000E+03 0.  0.
<mgrwt>
<rscale>  0 0.20117404E+03</rscale>
<asrwt>0</asrwt>
<pdfrwt beam="1">  1        2 0.90084144E-01 0.20117404E+03</pdfrwt>
<pdfrwt beam="2">  1       -2 0.23697870E-01 0.20117404E+03</pdfrwt>
<totfact> 0.81402591E+02</totfact>
</mgrwt>
</event>
<event>
 4    1  0.1726795E-008  0.5267914E+03  0.7818608E-02  0.1007013E+00
          2   -1    0    0  501    0  0.00000000000E+00  0.00000000000E+00  0.27079941388E+04  0.27079941388E+04  0.25500000000E-02 0. -1.
         -2   -1    0    0    0  501 -0.00000000000E+00 -0.00000000000E+00 -0.45657968483E+03  0.45657968484E+03  0.25500000000E-02 0.  1.
    8880022    1    1    2    0    0  0.16020654161E+03  0.47796593250E+03 -0.26774176779E+03  0.59092713242E+03  0.15294330000E+03 0.  0.
    8880022    1    1    2    0    0 -0.16020654161E+03 -0.47796593250E+03  0.25191562218E+04  0.25736466913E+04  0.15294330000E+03 0.  0.
<mgrwt>
<rscale>  0 0.52679144E+03</rscale>
<asrwt>0</asrwt>
<pdfrwt beam="1">  1        2 0.41661447E+00 0.52679144E+03</pdfrwt>
<pdfrwt beam="2">  1       -2 0.70243031E-01 0.52679144E+03</pdfrwt>
<totfact> 0.53785853E+00</totfact>
</mgrwt>
</event>
<event>
 4    1  0.1726795E-008  0.3212480E+03  0.7818608E-02  0.1075076E+00
          2   -1    0    0  501    0  0.00000000000E+00  0.00000000000E+00  0.50495536375E+03  0.50495536376E+03  0.25500000000E-02 0. -1.
         -2   -1    0    0    0  501 -0.00000000000E+00 -0.00000000000E+00 -0.80406729183E+03  0.80406729184E+03  0.25500000000E-02 0.  1.
    8880022    1    1    2    0    0  0.27011726072E+03  0.82736431779E+02  0.41568700018E+03  0.52535320197E+03  0.15294330000E+03 0.  0.
    8880022    1    1    2    0    0 -0.27011726072E+03 -0.82736431779E+02 -0.71479892826E+03  0.78366945363E+03  0.15294330000E+03 0.  1.
<mgrwt>
<rscale>  0 0.32124804E+03</rscale>
<asrwt>0</asrwt>
<pdfrwt beam="1">  1        2 0.77685441E-01 0.32124804E+03</pdfrwt>
<pdfrwt beam="2">  1       -2 0.12370266E+00 0.32124804E+03</pdfrwt>
<totfact> 0.31842677E+01</totfact>
</mgrwt>
</event>
<event>
 4    1  0.1726795E-008  0.8722675E+03  0.7818608E-02  0.9460928E-01
         -2   -1    0    0    0  501 -0.00000000000E+00  0.00000000000E+00  0.81767668316E+03  0.81767668316E+03  0.25500000000E-02 0.  1.
          2   -1    0    0  501    0  0.00000000000E+00 -0.00000000000E+00 -0.15136488050E+04  0.15136488050E+04  0.25500000000E-02 0. -1.
    8880022    1    1    2    0    0 -0.35623965830E+03 -0.78137844799E+03 -0.10715033676E+04  0.13816548386E+04  0.15294330000E+03 0.  0.
    8880022    1    1    2    0    0  0.35623965830E+03  0.78137844799E+03  0.37553124577E+03  0.94967064959E+03  0.15294330000E+03 0.  0.
<mgrwt>
<rscale>  0 0.87226752E+03</rscale>
<asrwt>0</asrwt>
<pdfrwt beam="1">  1        2 0.23286905E+00 0.87226752E+03</pdfrwt>
<pdfrwt beam="2">  1       -2 0.12579641E+00 0.87226752E+03</pdfrwt>
<totfact> 0.59356679E+00</totfact>
</mgrwt>
</event>
<event>
 4    1  0.1726795E-008  0.7442748E+03  0.7818608E-02  0.9644375E-01
          2   -1    0    0  501    0  0.00000000000E+00  0.00000000000E+00  0.10726148692E+04  0.10726148692E+04  0.25500000000E-02 0. -1.
         -2   -1    0    0    0  501 -0.00000000000E+00 -0.00000000000E+00 -0.82896039035E+03  0.82896039036E+03  0.25500000000E-02 0.  1.
    8880022    1    1    2    0    0 -0.29665366528E+01 -0.72838487050E+03 -0.46195836687E+03  0.87598544831E+03  0.15294330000E+03 0.  0.
    8880022    1    1    2    0    0  0.29665366528E+01  0.72838487050E+03  0.70561284574E+03  0.10255898113E+04  0.15294330000E+03 0.  0.
<mgrwt>
<rscale>  0 0.74427480E+03</rscale>
<asrwt>0</asrwt>
<pdfrwt beam="1">  1        2 0.16501767E+00 0.74427480E+03</pdfrwt>
<pdfrwt beam="2">  1       -2 0.12753237E+00 0.74427480E+03</pdfrwt>
<totfact> 0.10523481E+01</totfact>
</mgrwt>
</event>
<event>
 4    1  0.1726795E-008  0.7123670E+03  0.7818608E-02  0.9696314E-01
          2   -1    0    0  501    0  0.00000000000E+00  0.00000000000E+00  0.27638156581E+04  0.27638156581E+04  0.25500000000E-02 0. -1.
         -2   -1    0    0    0  501 -0.00000000000E+00 -0.00000000000E+00 -0.39917898140E+03  0.39917898141E+03  0.25500000000E-02 0.  1.
    8880022    1    1    2    0    0 -0.19045517060E+02  0.69549428922E+03  0.23445075823E+04  0.24503433422E+04  0.15294330000E+03 0.  0.
    8880022    1    1    2    0    0  0.19045517060E+02 -0.69549428922E+03  0.20129094341E+02  0.71265129727E+03  0.15294330000E+03 0.  0.
<mgrwt>
<rscale>  0 0.71236696E+03</rscale>
<asrwt>0</asrwt>
<pdfrwt beam="1">  1        2 0.42520238E+00 0.71236696E+03</pdfrwt>
<pdfrwt beam="2">  1       -2 0.61412155E-01 0.71236696E+03</pdfrwt>
<totfact> 0.63846747E+00</totfact>
</mgrwt>
</event>
<event>
 4    1  0.1726795E-008  0.1189998E+04  0.7818608E-02  0.9121657E-01
         -2   -1    0    0    0  501 -0.00000000000E+00  0.00000000000E+00  0.13074966181E+04  0.13074966181E+04  0.25500000000E-02 0.  1.
          2   -1    0    0  501    0  0.00000000000E+00 -0.00000000000E+00 -0.13467220453E+04  0.13467220453E+04  0.25500000000E-02 0. -1.
    8880022    1    1    2    0    0 -0.28084269220E+03  0.11462242410E+04  0.56759725525E+03  0.13184312366E+04  0.15294330000E+03 0.  0.
    8880022    1    1    2    0    0  0.28084269220E+03 -0.11462242410E+04 -0.60682268249E+03  0.13357874268E+04  0.15294330000E+03 0.  0.
<mgrwt>
<rscale>  0 0.11899976E+04</rscale>
<asrwt>0</asrwt>
<pdfrwt beam="1">  1        2 0.20718801E+00 0.11899976E+04</pdfrwt>
<pdfrwt beam="2">  1       -2 0.20115332E+00 0.11899976E+04</pdfrwt>
<totfact> 0.19717407E+00</totfact>
</mgrwt>
</event>
<event>
 4    1  0.1726795E-008  0.4442942E+03  0.7818608E-02  0.1029437E+00
          2   -1    0    0  501    0  0.00000000000E+00  0.00000000000E+00  0.35802167478E+04  0.35802167478E+04  0.25500000000E-02 0. -1.
         -2   -1    0    0    0  501 -0.00000000000E+00 -0.00000000000E+00 -0.41265360743E+03  0.41265360744E+03  0.25500000000E-02 0.  1.
    8880022    1    1    2    0    0 -0.26729291559E+03  0.32025019856E+03 -0.27449931735E+03  0.52225206619E+03  0.15294330000E+03 0.  0.
    8880022    1    1    2    0    0  0.26729291559E+03 -0.32025019856E+03  0.34420624577E+04  0.34706182890E+04  0.15294330000E+03 0.  0.
<mgrwt>
<rscale>  0 0.44429421E+03</rscale>
<asrwt>0</asrwt>
<pdfrwt beam="1">  1        2 0.55080256E+00 0.44429421E+03</pdfrwt>
<pdfrwt beam="2">  1       -2 0.63485172E-01 0.44429421E+03</pdfrwt>
<totfact> 0.19588338E+00</totfact>
</mgrwt>
</event>
<event>
 4    1  0.1726795E-008  0.2771187E+03  0.7818608E-02  0.1097273E+00
          2   -1    0    0  501    0  0.00000000000E+00  0.00000000000E+00  0.23832023522E+04  0.23832023522E+04  0.25500000000E-02 0. -1.
         -2   -1    0    0    0  501 -0.00000000000E+00 -0.00000000000E+00 -0.65400376865E+02  0.65400376915E+02  0.25500000000E-02 0.  1.
    8880022    1    1    2    0    0  0.49267270621E+02 -0.22577833502E+03  0.28690012841E+03  0.39888150774E+03  0.15294330000E+03 0.  1.
    8880022    1    1    2    0    0 -0.49267270621E+02  0.22577833502E+03  0.20309018469E+04  0.20497212214E+04  0.15294330000E+03 0.  0.
<mgrwt>
<rscale>  0 0.27711870E+03</rscale>
<asrwt>0</asrwt>
<pdfrwt beam="1">  1        2 0.36664653E+00 0.27711870E+03</pdfrwt>
<pdfrwt beam="2">  1       -2 0.10061596E-01 0.27711870E+03</pdfrwt>
<totfact> 0.30530400E+02</totfact>
</mgrwt>
</event>
<event>
 4    1  0.1726795E-008  0.5309357E+03  0.7818608E-02  0.1006005E+00
         -2   -1    0    0    0  501 -0.00000000000E+00  0.00000000000E+00  0.70961519425E+03  0.70961519425E+03  0.25500000000E-02 0.  1.
          2   -1    0    0  501    0  0.00000000000E+00 -0.00000000000E+00 -0.47529006628E+03  0.47529006629E+03  0.25500000000E-02 0. -1.
    8880022    1    1    2    0    0  0.42272938003E+03 -0.28249065674E+03  0.35723398408E+03  0.63992880251E+03  0.15294330000E+03 0.  0.
    8880022    1    1    2    0    0 -0.42272938003E+03  0.28249065674E+03 -0.12290885611E+03  0.54497645803E+03  0.15294330000E+03 0.  0.
<mgrwt>
<rscale>  0 0.53093573E+03</rscale>
<asrwt>0</asrwt>
<pdfrwt beam="1">  1        2 0.73121549E-01 0.53093573E+03</pdfrwt>
<pdfrwt beam="2">  1       -2 0.10917157E+00 0.53093573E+03</pdfrwt>
<totfact> 0.44998139E+01</totfact>
</mgrwt>
</event>
<event>
 4    1  0.1726795E-008  0.3469347E+03  0.7818608E-02  0.1063880E+00
         -2   -1    0    0    0  501 -0.00000000000E+00  0.00000000000E+00  0.48161961800E+03  0.48161961801E+03  0.25500000000E-02 0.  1.
          2   -1    0    0  501    0  0.00000000000E+00 -0.00000000000E+00 -0.38174252287E+03  0.38174252287E+03  0.25500000000E-02 0. -1.
    8880022    1    1    2    0    0  0.92254841786E+02 -0.29742407182E+03 -0.20373882848E+03  0.40233468354E+03  0.15294330000E+03 0.  0.
    8880022    1    1    2    0    0 -0.92254841786E+02  0.29742407182E+03  0.30361592361E+03  0.46102745734E+03  0.15294330000E+03 0.  0.
<mgrwt>
<rscale>  0 0.34693470E+03</rscale>
<asrwt>0</asrwt>
<pdfrwt beam="1">  1        2 0.58729619E-01 0.34693470E+03</pdfrwt>
<pdfrwt beam="2">  1       -2 0.74095326E-01 0.34693470E+03</pdfrwt>
<totfact> 0.14206380E+02</totfact>
</mgrwt>
</event>
<event>
 4    1  0.1726795E-008  0.9377548E+03  0.7818608E-02  0.9379579E-01
          2   -1    0    0  501    0  0.00000000000E+00  0.00000000000E+00  0.21690590418E+04  0.21690590418E+04  0.25500000000E-02 0. -1.
         -2   -1    0    0    0  501 -0.00000000000E+00 -0.00000000000E+00 -0.54303479569E+03  0.54303479569E+03  0.25500000000E-02 0.  1.
    8880022    1    1    2    0    0  0.77731707062E+03 -0.50176736772E+03  0.13037405854E+03  0.94677419047E+03  0.15294330000E+03 0.  0.
    8880022    1    1    2    0    0 -0.77731707062E+03  0.50176736772E+03  0.14956501876E+04  0.17653196471E+04  0.15294330000E+03 0.  0.
<mgrwt>
<rscale>  0 0.93775475E+03</rscale>
<asrwt>0</asrwt>
<pdfrwt beam="1">  1        2 0.33370139E+00 0.93775475E+03</pdfrwt>
<pdfrwt beam="2">  1       -2 0.83543815E-01 0.93775475E+03</pdfrwt>
<totfact> 0.68176339E+00</totfact>
</mgrwt>
</event>
<event>
 4    1  0.1726795E-008  0.4228055E+03  0.7818608E-02  0.1036157E+00
         -2   -1    0    0    0  501 -0.00000000000E+00  0.00000000000E+00  0.38872443811E+03  0.38872443812E+03  0.25500000000E-02 0.  1.
          2   -1    0    0  501    0  0.00000000000E+00 -0.00000000000E+00 -0.11641577412E+04  0.11641577412E+04  0.25500000000E-02 0. -1.
    8880022    1    1    2    0    0 -0.38363515727E+03 -0.90536815916E+02  0.21619893203E+03  0.47487522588E+03  0.15294330000E+03 0.  0.
    8880022    1    1    2    0    0  0.38363515727E+03  0.90536815916E+02 -0.99163223511E+03  0.10780069534E+04  0.15294330000E+03 0.  0.
<mgrwt>
<rscale>  0 0.42280551E+03</rscale>
<asrwt>0</asrwt>
<pdfrwt beam="1">  1        2 0.17910119E+00 0.42280551E+03</pdfrwt>
<pdfrwt beam="2">  1       -2 0.59803761E-01 0.42280551E+03</pdfrwt>
<totfact> 0.54930580E+01</totfact>
</mgrwt>
</event>
<event>
 4    1  0.1726795E-008  0.1147672E+04  0.7818608E-02  0.9159933E-01
         -2   -1    0    0    0  501 -0.00000000000E+00  0.00000000000E+00  0.75466495950E+03  0.75466495950E+03  0.25500000000E-02 0.  1.
          2   -1    0    0  501    0  0.00000000000E+00 -0.00000000000E+00 -0.18479844320E+04  0.18479844320E+04  0.25500000000E-02 0. -1.
    8880022    1    1    2    0    0 -0.85723377561E+03 -0.74760325910E+03 -0.23997656761E+03  0.11724934051E+04  0.15294330000E+03 0.  0.
    8880022    1    1    2    0    0  0.85723377561E+03  0.74760325910E+03 -0.85334290492E+03  0.14301559864E+04  0.15294330000E+03 0.  0.
<mgrwt>
<rscale>  0 0.11476724E+04</rscale>
<asrwt>0</asrwt>
<pdfrwt beam="1">  1        2 0.28430530E+00 0.11476724E+04</pdfrwt>
<pdfrwt beam="2">  1       -2 0.11610230E+00 0.11476724E+04</pdfrwt>
<totfact> 0.45871415E+00</totfact>
</mgrwt>
</event>
<event>
 4    1  0.1726795E-008  0.2033458E+04  0.7818608E-02  0.8591136E-01
         -2   -1    0    0    0  501 -0.00000000000E+00  0.00000000000E+00  0.27547912390E+04  0.27547912390E+04  0.25500000000E-02 0.  1.
          2   -1    0    0  501    0  0.00000000000E+00 -0.00000000000E+00 -0.17145861530E+04  0.17145861530E+04  0.25500000000E-02 0. -1.
    8880022    1    1    2    0    0  0.33572737163E+03 -0.19997115505E+04 -0.26861326200E+03  0.20511225928E+04  0.15294330000E+03 0.  0.
    8880022    1    1    2    0    0 -0.33572737163E+03  0.19997115505E+04  0.13088183480E+04  0.24182547992E+04  0.15294330000E+03 0.  0.
<mgrwt>
<rscale>  0 0.20334578E+04</rscale>
<asrwt>0</asrwt>
<pdfrwt beam="1">  1        2 0.26378249E+00 0.20334578E+04</pdfrwt>
<pdfrwt beam="2">  1       -2 0.42381403E+00 0.20334578E+04</pdfrwt>
<totfact> 0.44112033E-02</totfact>
</mgrwt>
</event>
<event>
 4    1  0.1726795E-008  0.8311336E+03  0.7818608E-02  0.9516015E-01
         -2   -1    0    0    0  501 -0.00000000000E+00  0.00000000000E+00  0.34930616607E+03  0.34930616608E+03  0.25500000000E-02 0.  1.
          2   -1    0    0  501    0  0.00000000000E+00 -0.00000000000E+00 -0.28564636529E+04  0.28564636529E+04  0.25500000000E-02 0. -1.
    8880022    1    1    2    0    0  0.37461485935E+03 -0.72598566546E+03 -0.21426817829E+04  0.22982315713E+04  0.15294330000E+03 0.  0.
    8880022    1    1    2    0    0 -0.37461485935E+03  0.72598566546E+03 -0.36447570389E+03  0.90753824770E+03  0.15294330000E+03 0.  0.
<mgrwt>
<rscale>  0 0.83113364E+03</rscale>
<asrwt>0</asrwt>
<pdfrwt beam="1">  1        2 0.43945593E+00 0.83113364E+03</pdfrwt>
<pdfrwt beam="2">  1       -2 0.53739412E-01 0.83113364E+03</pdfrwt>
<totfact> 0.72863627E+00</totfact>
</mgrwt>
</event>
<event>
 4    1  0.1726795E-008  0.5961244E+03  0.7818608E-02  0.9913480E-01
          2   -1    0    0  501    0  0.00000000000E+00  0.00000000000E+00  0.61657036266E+03  0.61657036267E+03  0.25500000000E-02 0. -1.
         -2   -1    0    0    0  501 -0.00000000000E+00 -0.00000000000E+00 -0.15345440104E+04  0.15345440104E+04  0.25500000000E-02 0.  1.
    8880022    1    1    2    0    0 -0.57418267221E+03  0.47821189202E+02 -0.13088893362E+04  0.14382473899E+04  0.15294330000E+03 0.  0.
    8880022    1    1    2    0    0  0.57418267221E+03 -0.47821189202E+02  0.39091568844E+03  0.71286698316E+03  0.15294330000E+03 0.  0.
<mgrwt>
<rscale>  0 0.59612437E+03</rscale>
<asrwt>0</asrwt>
<pdfrwt beam="1">  1        2 0.94856979E-01 0.59612437E+03</pdfrwt>
<pdfrwt beam="2">  1       -2 0.23608369E+00 0.59612437E+03</pdfrwt>
<totfact> 0.39527395E+00</totfact>
</mgrwt>
</event>
<event>
 4    1  0.1726795E-008  0.5330703E+03  0.7818608E-02  0.1005490E+00
         -2   -1    0    0    0  501 -0.00000000000E+00  0.00000000000E+00  0.52143283660E+03  0.52143283661E+03  0.25500000000E-02 0.  1.
          2   -1    0    0  501    0  0.00000000000E+00 -0.00000000000E+00 -0.11338113960E+04  0.11338113960E+04  0.25500000000E-02 0. -1.
    8880022    1    1    2    0    0 -0.42157530475E+03 -0.28817796165E+03  0.29024388239E+03  0.60696411709E+03  0.15294330000E+03 0.  0.
    8880022    1    1    2    0    0  0.42157530475E+03  0.28817796165E+03 -0.90262244184E+03  0.10482801156E+04  0.15294330000E+03 0.  0.
<mgrwt>
<rscale>  0 0.53307028E+03</rscale>
<asrwt>0</asrwt>
<pdfrwt beam="1">  1        2 0.17443252E+00 0.53307028E+03</pdfrwt>
<pdfrwt beam="2">  1       -2 0.80220437E-01 0.53307028E+03</pdfrwt>
<totfact> 0.29811940E+01</totfact>
</mgrwt>
</event>
<event>
 4    1  0.1726795E-008  0.6139574E+03  0.7818608E-02  0.9876865E-01
          2   -1    0    0  501    0  0.00000000000E+00  0.00000000000E+00  0.29564544568E+04  0.29564544568E+04  0.25500000000E-02 0. -1.
         -2   -1    0    0    0  501 -0.00000000000E+00 -0.00000000000E+00 -0.54620618130E+03  0.54620618130E+03  0.25500000000E-02 0.  1.
    8880022    1    1    2    0    0  0.36577025313E+03 -0.46879013755E+03 -0.32823959549E+03  0.69619318885E+03  0.15294330000E+03 0.  0.
    8880022    1    1    2    0    0 -0.36577025313E+03  0.46879013755E+03  0.27384878710E+04  0.28064674493E+04  0.15294330000E+03 0.  0.
<mgrwt>
<rscale>  0 0.61395743E+03</rscale>
<asrwt>0</asrwt>
<pdfrwt beam="1">  1        2 0.45483914E+00 0.61395743E+03</pdfrwt>
<pdfrwt beam="2">  1       -2 0.84031721E-01 0.61395743E+03</pdfrwt>
<totfact> 0.25205343E+00</totfact>
</mgrwt>
</event>
<event>
 4    1  0.1726795E-008  0.2296303E+03  0.7818608E-02  0.1126900E+00
         -2   -1    0    0    0  501 -0.00000000000E+00  0.00000000000E+00  0.16722858198E+03  0.16722858200E+03  0.25500000000E-02 0.  1.
          2   -1    0    0  501    0  0.00000000000E+00 -0.00000000000E+00 -0.89945977731E+03  0.89945977732E+03  0.25500000000E-02 0. -1.
    8880022    1    1    2    0    0  0.97934709729E+02  0.14052472565E+03 -0.79592518046E+03  0.82838816493E+03  0.15294330000E+03 0.  0.
    8880022    1    1    2    0    0 -0.97934709729E+02 -0.14052472565E+03  0.63693985132E+02  0.23830019439E+03  0.15294330000E+03 0.  1.
<mgrwt>
<rscale>  0 0.22963027E+03</rscale>
<asrwt>0</asrwt>
<pdfrwt beam="1">  1        2 0.13837842E+00 0.22963027E+03</pdfrwt>
<pdfrwt beam="2">  1       -2 0.25727475E-01 0.22963027E+03</pdfrwt>
<totfact> 0.41492522E+02</totfact>
</mgrwt>
</event>
<event>
 4    1  0.1726795E-008  0.1137106E+04  0.7818608E-02  0.9169762E-01
         -2   -1    0    0    0  501 -0.00000000000E+00  0.00000000000E+00  0.18625111385E+04  0.18625111385E+04  0.25500000000E-02 0.  1.
          2   -1    0    0  501    0  0.00000000000E+00 -0.00000000000E+00 -0.10986762666E+04  0.10986762666E+04  0.25500000000E-02 0. -1.
    8880022    1    1    2    0    0  0.51345507987E+03 -0.10029868396E+04  0.12802386456E+04  0.17123146213E+04  0.15294330000E+03 0.  0.
    8880022    1    1    2    0    0 -0.51345507987E+03  0.10029868396E+04 -0.51640377371E+03  0.12488727838E+04  0.15294330000E+03 0.  0.
<mgrwt>
<rscale>  0 0.11371061E+04</rscale>
<asrwt>0</asrwt>
<pdfrwt beam="1">  1        2 0.16902712E+00 0.11371061E+04</pdfrwt>
<pdfrwt beam="2">  1       -2 0.28654017E+00 0.11371061E+04</pdfrwt>
<totfact> 0.82474777E-01</totfact>
</mgrwt>
</event>
<event>
 4    1  0.1726795E-008  0.9992266E+03  0.7818608E-02  0.9309394E-01
          2   -1    0    0  501    0  0.00000000000E+00  0.00000000000E+00  0.19889361307E+04  0.19889361307E+04  0.25500000000E-02 0. -1.
         -2   -1    0    0    0  501 -0.00000000000E+00 -0.00000000000E+00 -0.60966563641E+03  0.60966563641E+03  0.25500000000E-02 0.  1.
    8880022    1    1    2    0    0  0.45869131987E+03 -0.87445087242E+03  0.14363284751E+03  0.10094969555E+04  0.15294330000E+03 0.  0.
    8880022    1    1    2    0    0 -0.45869131987E+03  0.87445087242E+03  0.12356376467E+04  0.15891048116E+04  0.15294330000E+03 0.  0.
<mgrwt>
<rscale>  0 0.99922656E+03</rscale>
<asrwt>0</asrwt>
<pdfrwt beam="1">  1        2 0.30599017E+00 0.99922656E+03</pdfrwt>
<pdfrwt beam="2">  1       -2 0.93794714E-01 0.99922656E+03</pdfrwt>
<totfact> 0.65132702E+00</totfact>
</mgrwt>
</event>
<event>
 4    1  0.1726795E-008  0.8059191E+03  0.7818608E-02  0.9551489E-01
         -2   -1    0    0    0  501 -0.00000000000E+00  0.00000000000E+00  0.87568932503E+03  0.87568932503E+03  0.25500000000E-02 0.  1.
          2   -1    0    0  501    0  0.00000000000E+00 -0.00000000000E+00 -0.13881593908E+04  0.13881593908E+04  0.25500000000E-02 0. -1.
    8880022    1    1    2    0    0 -0.12522236072E+03 -0.78130230177E+03 -0.10286768043E+04  0.13067828998E+04  0.15294330000E+03 0.  0.
    8880022    1    1    2    0    0  0.12522236072E+03  0.78130230177E+03  0.51620673854E+03  0.95706581608E+03  0.15294330000E+03 0.  0.
<mgrwt>
<rscale>  0 0.80591909E+03</rscale>
<asrwt>0</asrwt>
<pdfrwt beam="1">  1        2 0.21356298E+00 0.80591909E+03</pdfrwt>
<pdfrwt beam="2">  1       -2 0.13472144E+00 0.80591909E+03</pdfrwt>
<totfact> 0.59210717E+00</totfact>
</mgrwt>
</event>
<event>
 4    1  0.1726795E-008  0.5093553E+03  0.7818608E-02  0.1011365E+00
         -2   -1    0    0    0  501 -0.00000000000E+00  0.00000000000E+00  0.60838683620E+03  0.60838683621E+03  0.25500000000E-02 0.  1.
          2   -1    0    0  501    0  0.00000000000E+00 -0.00000000000E+00 -0.70455123039E+03  0.70455123039E+03  0.25500000000E-02 0. -1.
    8880022    1    1    2    0    0  0.42526134220E+03 -0.23495522164E+03 -0.46052546669E+03  0.68667788943E+03  0.15294330000E+03 0.  0.
    8880022    1    1    2    0    0 -0.42526134220E+03  0.23495522164E+03  0.36436107251E+03  0.62626017717E+03  0.15294330000E+03 0.  0.
<mgrwt>
<rscale>  0 0.50935530E+03</rscale>
<asrwt>0</asrwt>
<pdfrwt beam="1">  1        2 0.10839250E+00 0.50935530E+03</pdfrwt>
<pdfrwt beam="2">  1       -2 0.93597974E-01 0.50935530E+03</pdfrwt>
<totfact> 0.40656202E+01</totfact>
</mgrwt>
</event>
<event>
 4    1  0.1726795E-008  0.8737419E+03  0.7818608E-02  0.9459014E-01
         -2   -1    0    0    0  501 -0.00000000000E+00  0.00000000000E+00  0.43660304276E+03  0.43660304277E+03  0.25500000000E-02 0.  1.
          2   -1    0    0  501    0  0.00000000000E+00 -0.00000000000E+00 -0.30514778565E+04  0.30514778565E+04  0.25500000000E-02 0. -1.
    8880022    1    1    2    0    0 -0.56545504465E+03 -0.64830073860E+03 -0.24470588494E+04  0.25983690886E+04  0.15294330000E+03 0.  0.
    8880022    1    1    2    0    0  0.56545504465E+03  0.64830073860E+03 -0.16781596439E+03  0.88971181071E+03  0.15294330000E+03 0.  0.
<mgrwt>
<rscale>  0 0.87374190E+03</rscale>
<asrwt>0</asrwt>
<pdfrwt beam="1">  1        2 0.46945812E+00 0.87374190E+03</pdfrwt>
<pdfrwt beam="2">  1       -2 0.67169701E-01 0.87374190E+03</pdfrwt>
<totfact> 0.34315617E+00</totfact>
</mgrwt>
</event>
<event>
 4    1  0.1726795E-008  0.7961154E+03  0.7818608E-02  0.9565657E-01
         -2   -1    0    0    0  501 -0.00000000000E+00  0.00000000000E+00  0.25821826955E+03  0.25821826956E+03  0.25500000000E-02 0.  1.
          2   -1    0    0  501    0  0.00000000000E+00 -0.00000000000E+00 -0.35120270798E+04  0.35120270798E+04  0.25500000000E-02 0. -1.
    8880022    1    1    2    0    0  0.53731999837E+03  0.56718190919E+03 -0.26613414023E+04  0.27778656936E+04  0.15294330000E+03 0.  0.
    8880022    1    1    2    0    0 -0.53731999837E+03 -0.56718190919E+03 -0.59246740791E+03  0.99237965578E+03  0.15294330000E+03 0.  0.
<mgrwt>
<rscale>  0 0.79611541E+03</rscale>
<asrwt>0</asrwt>
<pdfrwt beam="1">  1        2 0.54031182E+00 0.79611541E+03</pdfrwt>
<pdfrwt beam="2">  1       -2 0.39725890E-01 0.79611541E+03</pdfrwt>
<totfact> 0.51342656E+00</totfact>
</mgrwt>
</event>
<event>
 4    1  0.1726795E-008  0.6969171E+03  0.7818608E-02  0.9722519E-01
         -2   -1    0    0    0  501 -0.00000000000E+00  0.00000000000E+00  0.26298013677E+04  0.26298013677E+04  0.25500000000E-02 0.  1.
          2   -1    0    0  501    0  0.00000000000E+00 -0.00000000000E+00 -0.14168176594E+04  0.14168176594E+04  0.25500000000E-02 0. -1.
    8880022    1    1    2    0    0  0.65988325838E+03 -0.16387764350E+03 -0.12803413153E+04  0.14577267691E+04  0.15294330000E+03 0.  0.
    8880022    1    1    2    0    0 -0.65988325838E+03  0.16387764350E+03  0.24933250236E+04  0.25888922580E+04  0.15294330000E+03 0.  1.
<mgrwt>
<rscale>  0 0.69691710E+03</rscale>
<asrwt>0</asrwt>
<pdfrwt beam="1">  1        2 0.21797195E+00 0.69691710E+03</pdfrwt>
<pdfrwt beam="2">  1       -2 0.40458482E+00 0.69691710E+03</pdfrwt>
<totfact> 0.10704216E-01</totfact>
</mgrwt>
</event>
<event>
 4    1  0.1726795E-008  0.1208145E+04  0.7818608E-02  0.9105757E-01
          2   -1    0    0  501    0  0.00000000000E+00  0.00000000000E+00  0.30588543542E+04  0.30588543542E+04  0.25500000000E-02 0. -1.
         -2   -1    0    0    0  501 -0.00000000000E+00 -0.00000000000E+00 -0.85962738461E+03  0.85962738461E+03  0.25500000000E-02 0.  1.
    8880022    1    1    2    0    0 -0.16500246009E+03 -0.11870117659E+04 -0.20722032852E+03  0.12257873640E+04  0.15294330000E+03 0.  0.
    8880022    1    1    2    0    0  0.16500246009E+03  0.11870117659E+04  0.24064472981E+04  0.26926943748E+04  0.15294330000E+03 0.  0.
<mgrwt>
<rscale>  0 0.12081450E+04</rscale>
<asrwt>0</asrwt>
<pdfrwt beam="1">  1        2 0.47059298E+00 0.12081450E+04</pdfrwt>
<pdfrwt beam="2">  1       -2 0.13225037E+00 0.12081450E+04</pdfrwt>
<totfact> 0.65558210E-01</totfact>
</mgrwt>
</event>
<event>
 4    1  0.1859135E-008  0.1711756E+04  0.7818608E-02  0.8754688E-01
          2   -1    0    0  501    0  0.00000000000E+00  0.00000000000E+00  0.19139105350E+04  0.19139105350E+04  0.25500000000E-02 0. -1.
         -2   -1    0    0    0  501 -0.00000000000E+00 -0.00000000000E+00 -0.20608524360E+04  0.20608524360E+04  0.25500000000E-02 0.  1.
    8880022    1    1    2    0    0  0.12734690460E+04  0.11335748233E+04 -0.10812249916E+04  0.20246368629E+04  0.15294330000E+03 0.  0.
    8880022    1    1    2    0    0 -0.12734690460E+04 -0.11335748233E+04  0.93428309064E+03  0.19501261081E+04  0.15294330000E+03 0.  0.
<mgrwt>
<rscale>  0 0.17117555E+04</rscale>
<asrwt>0</asrwt>
<pdfrwt beam="1">  1        2 0.29444777E+00 0.17117555E+04</pdfrwt>
<pdfrwt beam="2">  1       -2 0.31705422E+00 0.17117555E+04</pdfrwt>
<totfact> 0.17070102E-01</totfact>
</mgrwt>
</event>
<event>
 4    1  0.1726795E-008  0.2723178E+03  0.7818608E-02  0.1099960E+00
         -2   -1    0    0    0  501 -0.00000000000E+00  0.00000000000E+00  0.13617629803E+03  0.13617629805E+03  0.25500000000E-02 0.  1.
          2   -1    0    0  501    0  0.00000000000E+00 -0.00000000000E+00 -0.24098510577E+04  0.24098510577E+04  0.25500000000E-02 0. -1.
    8880022    1    1    2    0    0 -0.21793758396E+03 -0.57171053134E+02 -0.16856566979E+02  0.27283899407E+03  0.15294330000E+03 0.  1.
    8880022    1    1    2    0    0  0.21793758396E+03  0.57171053134E+02 -0.22568181927E+04  0.22731883617E+04  0.15294330000E+03 0.  0.
<mgrwt>
<rscale>  0 0.27231778E+03</rscale>
<asrwt>0</asrwt>
<pdfrwt beam="1">  1        2 0.37074628E+00 0.27231778E+03</pdfrwt>
<pdfrwt beam="2">  1       -2 0.20950202E-01 0.27231778E+03</pdfrwt>
<totfact> 0.87735296E+01</totfact>
</mgrwt>
</event>
<event>
 4    1  0.1726795E-008  0.9903606E+03  0.7818608E-02  0.9319181E-01
         -2   -1    0    0    0  501 -0.00000000000E+00  0.00000000000E+00  0.10913382052E+04  0.10913382052E+04  0.25500000000E-02 0.  1.
          2   -1    0    0  501    0  0.00000000000E+00 -0.00000000000E+00 -0.14807143603E+04  0.14807143603E+04  0.25500000000E-02 0. -1.
    8880022    1    1    2    0    0 -0.84855244455E+03  0.48721783674E+03 -0.10009410224E+04  0.14080827585E+04  0.15294330000E+03 0.  0.
    8880022    1    1    2    0    0  0.84855244455E+03 -0.48721783674E+03  0.61156486727E+03  0.11639698069E+04  0.15294330000E+03 0.  0.
<mgrwt>
<rscale>  0 0.99036060E+03</rscale>
<asrwt>0</asrwt>
<pdfrwt beam="1">  1        2 0.22780221E+00 0.99036060E+03</pdfrwt>
<pdfrwt beam="2">  1       -2 0.16789818E+00 0.99036060E+03</pdfrwt>
<totfact> 0.28536492E+00</totfact>
</mgrwt>
</event>
<event>
 4    1  0.1726795E-008  0.7792867E+03  0.7818608E-02  0.9590492E-01
         -2   -1    0    0    0  501 -0.00000000000E+00  0.00000000000E+00  0.10436535209E+04  0.10436535209E+04  0.25500000000E-02 0.  1.
          2   -1    0    0  501    0  0.00000000000E+00 -0.00000000000E+00 -0.18746279850E+04  0.18746279850E+04  0.25500000000E-02 0. -1.
    8880022    1    1    2    0    0  0.65374249212E+03  0.39562204884E+03  0.79621389739E+03  0.11141114284E+04  0.15294330000E+03 0.  0.
    8880022    1    1    2    0    0 -0.65374249212E+03 -0.39562204884E+03 -0.16271883615E+04  0.18041700774E+04  0.15294330000E+03 0.  0.
<mgrwt>
<rscale>  0 0.77928666E+03</rscale>
<asrwt>0</asrwt>
<pdfrwt beam="1">  1        2 0.28840431E+00 0.77928666E+03</pdfrwt>
<pdfrwt beam="2">  1       -2 0.16056208E+00 0.77928666E+03</pdfrwt>
<totfact> 0.20163131E+00</totfact>
</mgrwt>
</event>
<event>
 4    1  0.1726795E-008  0.9486181E+03  0.7818608E-02  0.9366767E-01
          2   -1    0    0  501    0  0.00000000000E+00  0.00000000000E+00  0.17249916257E+04  0.17249916257E+04  0.25500000000E-02 0. -1.
         -2   -1    0    0    0  501 -0.00000000000E+00 -0.00000000000E+00 -0.11064039586E+04  0.11064039586E+04  0.25500000000E-02 0.  1.
    8880022    1    1    2    0    0 -0.23814556561E+03 -0.90541226101E+03 -0.71988978367E+03  0.11908474405E+04  0.15294330000E+03 0.  0.
    8880022    1    1    2    0    0  0.23814556561E+03  0.90541226101E+03  0.13384774508E+04  0.16405481438E+04  0.15294330000E+03 0.  0.
<mgrwt>
<rscale>  0 0.94861811E+03</rscale>
<asrwt>0</asrwt>
<pdfrwt beam="1">  1        2 0.26538333E+00 0.94861811E+03</pdfrwt>
<pdfrwt beam="2">  1       -2 0.17021599E+00 0.94861811E+03</pdfrwt>
<totfact> 0.20199987E+00</totfact>
</mgrwt>
</event>
<event>
 4    1  0.1726795E-008  0.4521109E+03  0.7818608E-02  0.1027094E+00
         -2   -1    0    0    0  501 -0.00000000000E+00  0.00000000000E+00  0.96203860283E+03  0.96203860284E+03  0.25500000000E-02 0.  1.
          2   -1    0    0  501    0  0.00000000000E+00 -0.00000000000E+00 -0.10048288099E+04  0.10048288099E+04  0.25500000000E-02 0. -1.
    8880022    1    1    2    0    0 -0.11981324412E+03 -0.40823697780E+03 -0.89468816284E+03  0.10024326437E+04  0.15294330000E+03 0.  0.
    8880022    1    1    2    0    0  0.11981324412E+03  0.40823697780E+03  0.85189795579E+03  0.96443476897E+03  0.15294330000E+03 0.  0.
<mgrwt>
<rscale>  0 0.45211093E+03</rscale>
<asrwt>0</asrwt>
<pdfrwt beam="1">  1        2 0.15458905E+00 0.45211093E+03</pdfrwt>
<pdfrwt beam="2">  1       -2 0.14800594E+00 0.45211093E+03</pdfrwt>
<totfact> 0.82939444E+00</totfact>
</mgrwt>
</event>
<event>
 4    1  0.1726795E-008  0.4099767E+03  0.7818608E-02  0.1040379E+00
          2   -1    0    0  501    0  0.00000000000E+00  0.00000000000E+00  0.73808528399E+03  0.73808528399E+03  0.25500000000E-02 0. -1.
         -2   -1    0    0    0  501 -0.00000000000E+00 -0.00000000000E+00 -0.69299171410E+03  0.69299171410E+03  0.25500000000E-02 0.  1.
    8880022    1    1    2    0    0 -0.33383990972E+03  0.18231878880E+03 -0.56375297801E+03  0.69706405681E+03  0.15294330000E+03 0.  0.
    8880022    1    1    2    0    0  0.33383990972E+03 -0.18231878880E+03  0.60884654790E+03  0.73401294128E+03  0.15294330000E+03 0.  0.
<mgrwt>
<rscale>  0 0.40997668E+03</rscale>
<asrwt>0</asrwt>
<pdfrwt beam="1">  1        2 0.11355158E+00 0.40997668E+03</pdfrwt>
<pdfrwt beam="2">  1       -2 0.10661411E+00 0.40997668E+03</pdfrwt>
<totfact> 0.28625099E+01</totfact>
</mgrwt>
</event>
<event>
 4    1  0.1726795E-008  0.4421522E+03  0.7818608E-02  0.1030089E+00
         -2   -1    0    0    0  501 -0.00000000000E+00  0.00000000000E+00  0.24873294236E+03  0.24873294238E+03  0.25500000000E-02 0.  1.
          2   -1    0    0  501    0  0.00000000000E+00 -0.00000000000E+00 -0.21014007589E+04  0.21014007589E+04  0.25500000000E-02 0. -1.
    8880022    1    1    2    0    0  0.35376402300E+03 -0.21669772964E+03 -0.18560296882E+04  0.19079687488E+04  0.15294330000E+03 0. -1.
    8880022    1    1    2    0    0 -0.35376402300E+03  0.21669772964E+03  0.33618716479E+01  0.44216495247E+03  0.15294330000E+03 0.  0.
<mgrwt>
<rscale>  0 0.44215217E+03</rscale>
<asrwt>0</asrwt>
<pdfrwt beam="1">  1        2 0.32329241E+00 0.44215217E+03</pdfrwt>
<pdfrwt beam="2">  1       -2 0.38266608E-01 0.44215217E+03</pdfrwt>
<totfact> 0.41130117E+01</totfact>
</mgrwt>
</event>
<event>
 4    1  0.1726795E-008  0.5322533E+03  0.7818608E-02  0.1005687E+00
         -2   -1    0    0    0  501 -0.00000000000E+00  0.00000000000E+00  0.39413737930E+03  0.39413737931E+03  0.25500000000E-02 0.  1.
          2   -1    0    0  501    0  0.00000000000E+00 -0.00000000000E+00 -0.15426537497E+04  0.15426537497E+04  0.25500000000E-02 0. -1.
    8880022    1    1    2    0    0  0.50780441945E+03  0.45128607216E+02  0.13344622057E+03  0.54872713292E+03  0.15294330000E+03 0.  0.
    8880022    1    1    2    0    0 -0.50780441945E+03 -0.45128607216E+02 -0.12819625910E+04  0.13880639961E+04  0.15294330000E+03 0.  0.
<mgrwt>
<rscale>  0 0.53225330E+03</rscale>
<asrwt>0</asrwt>
<pdfrwt beam="1">  1        2 0.23733134E+00 0.53225330E+03</pdfrwt>
<pdfrwt beam="2">  1       -2 0.60636520E-01 0.53225330E+03</pdfrwt>
<totfact> 0.32085123E+01</totfact>
</mgrwt>
</event>
<event>
 4    1  0.1726795E-008  0.9519303E+03  0.7818608E-02  0.9362897E-01
         -2   -1    0    0    0  501 -0.00000000000E+00  0.00000000000E+00  0.86109568095E+03  0.86109568096E+03  0.25500000000E-02 0.  1.
          2   -1    0    0  501    0  0.00000000000E+00 -0.00000000000E+00 -0.14009819485E+04  0.14009819485E+04  0.25500000000E-02 0. -1.
    8880022    1    1    2    0    0 -0.64782023939E+03 -0.68052076301E+03 -0.83416104327E+03  0.12656997553E+04  0.15294330000E+03 0.  0.
    8880022    1    1    2    0    0  0.64782023939E+03  0.68052076301E+03  0.29427477573E+03  0.99637787415E+03  0.15294330000E+03 0.  0.
<mgrwt>
<rscale>  0 0.95193026E+03</rscale>
<asrwt>0</asrwt>
<pdfrwt beam="1">  1        2 0.21553568E+00 0.95193026E+03</pdfrwt>
<pdfrwt beam="2">  1       -2 0.13247626E+00 0.95193026E+03</pdfrwt>
<totfact> 0.59705251E+00</totfact>
</mgrwt>
</event>
<event>
 4    1  0.1726795E-008  0.1539027E+04  0.7818608E-02  0.8858907E-01
         -2   -1    0    0    0  501 -0.00000000000E+00  0.00000000000E+00  0.22911304980E+04  0.22911304980E+04  0.25500000000E-02 0.  1.
          2   -1    0    0  501    0  0.00000000000E+00 -0.00000000000E+00 -0.11246130079E+04  0.11246130079E+04  0.25500000000E-02 0. -1.
    8880022    1    1    2    0    0 -0.55617749244E+03  0.14268427439E+04  0.10685379257E+04  0.18736004298E+04  0.15294330000E+03 0.  0.
    8880022    1    1    2    0    0  0.55617749244E+03 -0.14268427439E+04  0.97979564380E+02  0.15421430761E+04  0.15294330000E+03 0.  0.
<mgrwt>
<rscale>  0 0.15390274E+04</rscale>
<asrwt>0</asrwt>
<pdfrwt beam="1">  1        2 0.17301739E+00 0.15390274E+04</pdfrwt>
<pdfrwt beam="2">  1       -2 0.35248161E+00 0.15390274E+04</pdfrwt>
<totfact> 0.29779906E-01</totfact>
</mgrwt>
</event>
<event>
 4    1  0.1726795E-008  0.8754754E+03  0.7818608E-02  0.9456768E-01
         -2   -1    0    0    0  501 -0.00000000000E+00  0.00000000000E+00  0.11706980954E+04  0.11706980954E+04  0.25500000000E-02 0.  1.
          2   -1    0    0  501    0  0.00000000000E+00 -0.00000000000E+00 -0.86665508629E+03  0.86665508630E+03  0.25500000000E-02 0. -1.
    8880022    1    1    2    0    0  0.53421224064E+03  0.67652263275E+03  0.65579353516E+03  0.10938566654E+04  0.15294330000E+03 0.  0.
    8880022    1    1    2    0    0 -0.53421224064E+03 -0.67652263275E+03 -0.35175052605E+03  0.94349651630E+03  0.15294330000E+03 0.  0.
<mgrwt>
<rscale>  0 0.87547544E+03</rscale>
<asrwt>0</asrwt>
<pdfrwt beam="1">  1        2 0.13333155E+00 0.87547544E+03</pdfrwt>
<pdfrwt beam="2">  1       -2 0.18010740E+00 0.87547544E+03</pdfrwt>
<totfact> 0.56195905E+00</totfact>
</mgrwt>
</event>
<event>
 4    1  0.1726795E-008  0.8175430E+03  0.7818608E-02  0.9534966E-01
          2   -1    0    0  501    0  0.00000000000E+00  0.00000000000E+00  0.14157181644E+04  0.14157181644E+04  0.25500000000E-02 0. -1.
         -2   -1    0    0    0  501 -0.00000000000E+00 -0.00000000000E+00 -0.62444797182E+03  0.62444797182E+03  0.25500000000E-02 0.  1.
    8880022    1    1    2    0    0  0.69383645867E+03 -0.40444505127E+03 -0.10820148956E+03  0.82467208406E+03  0.15294330000E+03 0.  0.
    8880022    1    1    2    0    0 -0.69383645867E+03  0.40444505127E+03  0.89947168218E+03  0.12154940522E+04  0.15294330000E+03 0.  0.
<mgrwt>
<rscale>  0 0.81754296E+03</rscale>
<asrwt>0</asrwt>
<pdfrwt beam="1">  1        2 0.21780279E+00 0.81754296E+03</pdfrwt>
<pdfrwt beam="2">  1       -2 0.96068919E-01 0.81754296E+03</pdfrwt>
<totfact> 0.13055471E+01</totfact>
</mgrwt>
</event>
<event>
 4    1  0.1726795E-008  0.5664723E+03  0.7818608E-02  0.9977516E-01
         -2   -1    0    0    0  501 -0.00000000000E+00  0.00000000000E+00  0.14673754368E+04  0.14673754368E+04  0.25500000000E-02 0.  1.
          2   -1    0    0  501    0  0.00000000000E+00 -0.00000000000E+00 -0.10726384511E+04  0.10726384511E+04  0.25500000000E-02 0. -1.
    8880022    1    1    2    0    0 -0.41085020180E+02 -0.54388527924E+03  0.13305432453E+04  0.14461107000E+04  0.15294330000E+03 0.  0.
    8880022    1    1    2    0    0  0.41085020180E+02  0.54388527924E+03 -0.93580625963E+03  0.10939031879E+04  0.15294330000E+03 0.  0.
<mgrwt>
<rscale>  0 0.56647227E+03</rscale>
<asrwt>0</asrwt>
<pdfrwt beam="1">  1        2 0.16502130E+00 0.56647227E+03</pdfrwt>
<pdfrwt beam="2">  1       -2 0.22575007E+00 0.56647227E+03</pdfrwt>
<totfact> 0.21962747E+00</totfact>
</mgrwt>
</event>
<event>
 4    1  0.1726795E-008  0.2322731E+03  0.7818608E-02  0.1125050E+00
          2   -1    0    0  501    0  0.00000000000E+00  0.00000000000E+00  0.11025813681E+04  0.11025813681E+04  0.25500000000E-02 0. -1.
         -2   -1    0    0    0  501 -0.00000000000E+00 -0.00000000000E+00 -0.10458023746E+03  0.10458023749E+03  0.25500000000E-02 0.  1.
    8880022    1    1    2    0    0  0.16270054724E+03 -0.63934748032E+02  0.58710458956E+02  0.23957815235E+03  0.15294330000E+03 0.  0.
    8880022    1    1    2    0    0 -0.16270054724E+03  0.63934748032E+02  0.93929067169E+03  0.96758345326E+03  0.15294330000E+03 0.  0.
<mgrwt>
<rscale>  0 0.23227306E+03</rscale>
<asrwt>0</asrwt>
<pdfrwt beam="1">  1        2 0.16962792E+00 0.23227306E+03</pdfrwt>
<pdfrwt beam="2">  1       -2 0.16089266E-01 0.23227306E+03</pdfrwt>
<totfact> 0.69754140E+02</totfact>
</mgrwt>
</event>
<event>
 4    1  0.1726795E-008  0.1111434E+04  0.7818608E-02  0.9194118E-01
         -2   -1    0    0    0  501 -0.00000000000E+00  0.00000000000E+00  0.88245332381E+03  0.88245332382E+03  0.25500000000E-02 0.  1.
          2   -1    0    0  501    0  0.00000000000E+00 -0.00000000000E+00 -0.34355728919E+04  0.34355728919E+04  0.25500000000E-02 0. -1.
    8880022    1    1    2    0    0  0.10985947716E+04  0.70596140345E+02  0.38538657079E+03  0.11763540068E+04  0.15294330000E+03 0.  0.
    8880022    1    1    2    0    0 -0.10985947716E+04 -0.70596140345E+02 -0.29385061389E+04  0.31416722090E+04  0.15294330000E+03 0.  0.
<mgrwt>
<rscale>  0 0.11114342E+04</rscale>
<asrwt>0</asrwt>
<pdfrwt beam="1">  1        2 0.52854967E+00 0.11114342E+04</pdfrwt>
<pdfrwt beam="2">  1       -2 0.13576205E+00 0.11114342E+04</pdfrwt>
<totfact> 0.35361525E-01</totfact>
</mgrwt>
</event>
<event>
 4    1  0.2283097E-008  0.6257215E+03  0.7818608E-02  0.9853434E-01
          2   -1    0    0  501    0  0.00000000000E+00  0.00000000000E+00  0.18908768419E+04  0.18908768419E+04  0.25500000000E-02 0. -1.
         -2   -1    0    0    0  501 -0.00000000000E+00 -0.00000000000E+00 -0.11420902999E+04  0.11420902999E+04  0.25500000000E-02 0.  1.
    8880022    1    1    2    0    0 -0.60674171839E+03 -0.47482803542E+00  0.17465383477E+04  0.18552421921E+04  0.15294330000E+03 0.  0.
    8880022    1    1    2    0    0  0.60674171839E+03  0.47482803542E+00 -0.99775180574E+03  0.11777249497E+04  0.15294330000E+03 0.  0.
<mgrwt>
<rscale>  0 0.62572150E+03</rscale>
<asrwt>0</asrwt>
<pdfrwt beam="1">  1        2 0.29090413E+00 0.62572150E+03</pdfrwt>
<pdfrwt beam="2">  1       -2 0.17570620E+00 0.62572150E+03</pdfrwt>
<totfact> 0.15893090E+00</totfact>
</mgrwt>
</event>
<event>
 4    1  0.1726795E-008  0.1275392E+04  0.7818608E-02  0.9049310E-01
          2   -1    0    0  501    0  0.00000000000E+00  0.00000000000E+00  0.28463344799E+04  0.28463344799E+04  0.25500000000E-02 0. -1.
         -2   -1    0    0    0  501 -0.00000000000E+00 -0.00000000000E+00 -0.59698167657E+03  0.59698167657E+03  0.25500000000E-02 0.  1.
    8880022    1    1    2    0    0  0.12389129562E+04  0.26139721143E+03  0.14805076387E+04  0.19541055080E+04  0.15294330000E+03 0.  0.
    8880022    1    1    2    0    0 -0.12389129562E+04 -0.26139721143E+03  0.76884516464E+03  0.14892106484E+04  0.15294330000E+03 0.  0.
<mgrwt>
<rscale>  0 0.12753923E+04</rscale>
<asrwt>0</asrwt>
<pdfrwt beam="1">  1        2 0.43789761E+00 0.12753923E+04</pdfrwt>
<pdfrwt beam="2">  1       -2 0.91843335E-01 0.12753923E+04</pdfrwt>
<totfact> 0.21421754E+00</totfact>
</mgrwt>
</event>
<event>
 4    1  0.1726795E-008  0.1267754E+04  0.7818608E-02  0.9055535E-01
         -2   -1    0    0    0  501 -0.00000000000E+00  0.00000000000E+00  0.13638778201E+04  0.13638778201E+04  0.25500000000E-02 0.  1.
          2   -1    0    0  501    0  0.00000000000E+00 -0.00000000000E+00 -0.17368932712E+04  0.17368932712E+04  0.25500000000E-02 0. -1.
    8880022    1    1    2    0    0  0.40376817213E+03 -0.11919648684E+04 -0.10656519298E+04  0.16561445205E+04  0.15294330000E+03 0.  0.
    8880022    1    1    2    0    0 -0.40376817213E+03  0.11919648684E+04  0.69263647866E+03  0.14446265708E+04  0.15294330000E+03 0.  0.
<mgrwt>
<rscale>  0 0.12677542E+04</rscale>
<asrwt>0</asrwt>
<pdfrwt beam="1">  1        2 0.26721435E+00 0.12677542E+04</pdfrwt>
<pdfrwt beam="2">  1       -2 0.20982736E+00 0.12677542E+04</pdfrwt>
<totfact> 0.10337941E+00</totfact>
</mgrwt>
</event>
<event>
 4    1  0.1726795E-008  0.1409605E+04  0.7818608E-02  0.8946895E-01
         -2   -1    0    0    0  501 -0.00000000000E+00  0.00000000000E+00  0.74168003139E+03  0.74168003139E+03  0.25500000000E-02 0.  1.
          2   -1    0    0  501    0  0.00000000000E+00 -0.00000000000E+00 -0.37332529776E+04  0.37332529776E+04  0.25500000000E-02 0. -1.
    8880022    1    1    2    0    0 -0.12987679034E+04  0.52611396222E+03 -0.26847769016E+04  0.30323279230E+04  0.15294330000E+03 0.  0.
    8880022    1    1    2    0    0  0.12987679034E+04 -0.52611396222E+03 -0.30679604459E+03  0.14426050860E+04  0.15294330000E+03 0.  0.
<mgrwt>
<rscale>  0 0.14096048E+04</rscale>
<asrwt>0</asrwt>
<pdfrwt beam="1">  1        2 0.57434660E+00 0.14096048E+04</pdfrwt>
<pdfrwt beam="2">  1       -2 0.11410462E+00 0.14096048E+04</pdfrwt>
<totfact> 0.32279747E-01</totfact>
</mgrwt>
</event>
<event>
 4    1  0.1726795E-008  0.1511021E+04  0.7818608E-02  0.8877157E-01
          2   -1    0    0  501    0  0.00000000000E+00  0.00000000000E+00  0.16397628006E+04  0.16397628006E+04  0.25500000000E-02 0. -1.
         -2   -1    0    0    0  501 -0.00000000000E+00 -0.00000000000E+00 -0.18691134021E+04  0.18691134021E+04  0.25500000000E-02 0.  1.
    8880022    1    1    2    0    0  0.94896176616E+03 -0.11658745610E+04  0.77136822587E+03  0.16965236569E+04  0.15294330000E+03 0.  0.
    8880022    1    1    2    0    0 -0.94896176616E+03  0.11658745610E+04 -0.10007188274E+04  0.18123525457E+04  0.15294330000E+03 0.  0.
<mgrwt>
<rscale>  0 0.15110207E+04</rscale>
<asrwt>0</asrwt>
<pdfrwt beam="1">  1        2 0.25227120E+00 0.15110207E+04</pdfrwt>
<pdfrwt beam="2">  1       -2 0.28755591E+00 0.15110207E+04</pdfrwt>
<totfact> 0.37650467E-01</totfact>
</mgrwt>
</event>
<event>
 4    1  0.1726795E-008  0.1185562E+04  0.7818608E-02  0.9125589E-01
          2   -1    0    0  501    0  0.00000000000E+00  0.00000000000E+00  0.18028620028E+04  0.18028620028E+04  0.25500000000E-02 0. -1.
         -2   -1    0    0    0  501 -0.00000000000E+00 -0.00000000000E+00 -0.15789157018E+04  0.15789157018E+04  0.25500000000E-02 0.  1.
    8880022    1    1    2    0    0 -0.34657937266E+02 -0.11751439728E+04 -0.10910887836E+04  0.16112203189E+04  0.15294330000E+03 0.  0.
    8880022    1    1    2    0    0  0.34657937266E+02  0.11751439728E+04  0.13150350846E+04  0.17705573857E+04  0.15294330000E+03 0.  0.
<mgrwt>
<rscale>  0 0.11855615E+04</rscale>
<asrwt>0</asrwt>
<pdfrwt beam="1">  1        2 0.27736338E+00 0.11855615E+04</pdfrwt>
<pdfrwt beam="2">  1       -2 0.24291011E+00 0.11855615E+04</pdfrwt>
<totfact> 0.59481238E-01</totfact>
</mgrwt>
</event>
<event>
 4    1  0.1726795E-008  0.7661002E+03  0.7818608E-02  0.9610425E-01
         -2   -1    0    0    0  501 -0.00000000000E+00  0.00000000000E+00  0.43331835407E+03  0.43331835408E+03  0.25500000000E-02 0.  1.
          2   -1    0    0  501    0  0.00000000000E+00 -0.00000000000E+00 -0.33442310437E+04  0.33442310437E+04  0.25500000000E-02 0. -1.
    8880022    1    1    2    0    0  0.27389299886E+03  0.69892807355E+03 -0.29123716397E+04  0.30114478325E+04  0.15294330000E+03 0.  0.
    8880022    1    1    2    0    0 -0.27389299886E+03 -0.69892807355E+03  0.14589500934E+01  0.76610156531E+03  0.15294330000E+03 0.  0.
<mgrwt>
<rscale>  0 0.76610018E+03</rscale>
<asrwt>0</asrwt>
<pdfrwt beam="1">  1        2 0.51449707E+00 0.76610018E+03</pdfrwt>
<pdfrwt beam="2">  1       -2 0.66664364E-01 0.76610018E+03</pdfrwt>
<totfact> 0.23159098E+00</totfact>
</mgrwt>
</event>
<event>
 4    1  0.1726795E-008  0.7184311E+03  0.7818608E-02  0.9686222E-01
         -2   -1    0    0    0  501 -0.00000000000E+00  0.00000000000E+00  0.57328004333E+03  0.57328004334E+03  0.25500000000E-02 0.  1.
          2   -1    0    0  501    0  0.00000000000E+00 -0.00000000000E+00 -0.23307082499E+04  0.23307082499E+04  0.25500000000E-02 0. -1.
    8880022    1    1    2    0    0  0.56083985133E+03  0.42214956917E+03  0.25877126879E+03  0.76361365897E+03  0.15294330000E+03 0.  0.
    8880022    1    1    2    0    0 -0.56083985133E+03 -0.42214956917E+03 -0.20161994753E+04  0.21403746343E+04  0.15294330000E+03 0.  0.
<mgrwt>
<rscale>  0 0.71843110E+03</rscale>
<asrwt>0</asrwt>
<pdfrwt beam="1">  1        2 0.35857049E+00 0.71843110E+03</pdfrwt>
<pdfrwt beam="2">  1       -2 0.88196931E-01 0.71843110E+03</pdfrwt>
<totfact> 0.50666070E+00</totfact>
</mgrwt>
</event>
<event>
 4    1  0.1726795E-008  0.5410880E+03  0.7818608E-02  0.1003578E+00
         -2   -1    0    0    0  501 -0.00000000000E+00  0.00000000000E+00  0.12745486999E+04  0.12745486999E+04  0.25500000000E-02 0.  1.
          2   -1    0    0  501    0  0.00000000000E+00 -0.00000000000E+00 -0.57411442050E+03  0.57411442050E+03  0.25500000000E-02 0. -1.
    8880022    1    1    2    0    0 -0.44874739128E+03 -0.26078788963E+03 -0.36570056489E+03  0.65307970474E+03  0.15294330000E+03 0.  0.
    8880022    1    1    2    0    0  0.44874739128E+03  0.26078788963E+03  0.10661348443E+04  0.11955834156E+04  0.15294330000E+03 0.  0.
<mgrwt>
<rscale>  0 0.54108798E+03</rscale>
<asrwt>0</asrwt>
<pdfrwt beam="1">  1        2 0.88325296E-01 0.54108798E+03</pdfrwt>
<pdfrwt beam="2">  1       -2 0.19608441E+00 0.54108798E+03</pdfrwt>
<totfact> 0.77419680E+00</totfact>
</mgrwt>
</event>
<event>
 4    1  0.1726795E-008  0.6941833E+03  0.7818608E-02  0.9727232E-01
         -2   -1    0    0    0  501 -0.00000000000E+00  0.00000000000E+00  0.23867475643E+04  0.23867475643E+04  0.25500000000E-02 0.  1.
          2   -1    0    0  501    0  0.00000000000E+00 -0.00000000000E+00 -0.10718697239E+04  0.10718697239E+04  0.25500000000E-02 0. -1.
    8880022    1    1    2    0    0  0.22329115824E+03  0.63924947367E+03 -0.90050900269E+03  0.11370166876E+04  0.15294330000E+03 0.  0.
    8880022    1    1    2    0    0 -0.22329115824E+03 -0.63924947367E+03  0.22153868432E+04  0.23216006006E+04  0.15294330000E+03 0.  0.
<mgrwt>
<rscale>  0 0.69418332E+03</rscale>
<asrwt>0</asrwt>
<pdfrwt beam="1">  1        2 0.16490304E+00 0.69418332E+03</pdfrwt>
<pdfrwt beam="2">  1       -2 0.36719193E+00 0.69418332E+03</pdfrwt>
<totfact> 0.29585395E-01</totfact>
</mgrwt>
</event>
<event>
 4    1  0.1726795E-008  0.5587928E+03  0.7818608E-02  0.9994790E-01
         -2   -1    0    0    0  501 -0.00000000000E+00  0.00000000000E+00  0.90489152503E+03  0.90489152504E+03  0.25500000000E-02 0.  1.
          2   -1    0    0  501    0  0.00000000000E+00 -0.00000000000E+00 -0.81942990833E+03  0.81942990834E+03  0.25500000000E-02 0. -1.
    8880022    1    1    2    0    0  0.31363877312E+03 -0.43644981939E+03  0.69870551336E+03  0.89467243853E+03  0.15294330000E+03 0.  1.
    8880022    1    1    2    0    0 -0.31363877312E+03  0.43644981939E+03 -0.61324389666E+03  0.82964899485E+03  0.15294330000E+03 0.  0.
<mgrwt>
<rscale>  0 0.55879279E+03</rscale>
<asrwt>0</asrwt>
<pdfrwt beam="1">  1        2 0.12606614E+00 0.55879279E+03</pdfrwt>
<pdfrwt beam="2">  1       -2 0.13921408E+00 0.55879279E+03</pdfrwt>
<totfact> 0.12648171E+01</totfact>
</mgrwt>
</event>
<event>
 4    1  0.1726795E-008  0.6032869E+03  0.7818608E-02  0.9898610E-01
          2   -1    0    0  501    0  0.00000000000E+00  0.00000000000E+00  0.14715805253E+04  0.14715805253E+04  0.25500000000E-02 0. -1.
         -2   -1    0    0    0  501 -0.00000000000E+00 -0.00000000000E+00 -0.18202139336E+04  0.18202139336E+04  0.25500000000E-02 0.  1.
    8880022    1    1    2    0    0 -0.57103108123E+03  0.12036154205E+03 -0.17043147053E+04  0.18079390654E+04  0.15294330000E+03 0.  0.
    8880022    1    1    2    0    0  0.57103108123E+03 -0.12036154205E+03  0.13556812970E+04  0.14838553934E+04  0.15294330000E+03 0. -1.
<mgrwt>
<rscale>  0 0.60328687E+03</rscale>
<asrwt>0</asrwt>
<pdfrwt beam="1">  1        2 0.22639700E+00 0.60328687E+03</pdfrwt>
<pdfrwt beam="2">  1       -2 0.28003291E+00 0.60328687E+03</pdfrwt>
<totfact> 0.60252363E-01</totfact>
</mgrwt>
</event>
<event>
 4    1  0.1726795E-008  0.5517765E+03  0.7818608E-02  0.1001084E+00
         -2   -1    0    0    0  501 -0.00000000000E+00  0.00000000000E+00  0.27957475305E+03  0.27957475306E+03  0.25500000000E-02 0.  1.
          2   -1    0    0  501    0  0.00000000000E+00 -0.00000000000E+00 -0.32449251001E+04  0.32449251001E+04  0.25500000000E-02 0. -1.
    8880022    1    1    2    0    0 -0.19460787794E+03  0.49314648318E+03 -0.29190964963E+04  0.29707880584E+04  0.15294330000E+03 0.  0.
    8880022    1    1    2    0    0  0.19460787794E+03 -0.49314648318E+03 -0.46253850800E+02  0.55371179485E+03  0.15294330000E+03 0.  0.
<mgrwt>
<rscale>  0 0.55177652E+03</rscale>
<asrwt>0</asrwt>
<pdfrwt beam="1">  1        2 0.49921922E+00 0.55177652E+03</pdfrwt>
<pdfrwt beam="2">  1       -2 0.43011503E-01 0.55177652E+03</pdfrwt>
<totfact> 0.69721575E+00</totfact>
</mgrwt>
</event>
<event>
 4    1  0.1726795E-008  0.2847211E+03  0.7818608E-02  0.1093138E+00
         -2   -1    0    0    0  501 -0.00000000000E+00  0.00000000000E+00  0.10582497426E+03  0.10582497429E+03  0.25500000000E-02 0.  1.
          2   -1    0    0  501    0  0.00000000000E+00 -0.00000000000E+00 -0.28940719122E+04  0.28940719122E+04  0.25500000000E-02 0. -1.
    8880022    1    1    2    0    0 -0.23960790098E+03  0.16201468467E+02 -0.10791663023E+03  0.30448659394E+03  0.15294330000E+03 0.  0.
    8880022    1    1    2    0    0  0.23960790098E+03 -0.16201468467E+02 -0.26803303077E+04  0.26954102926E+04  0.15294330000E+03 0.  0.
<mgrwt>
<rscale>  0 0.28472107E+03</rscale>
<asrwt>0</asrwt>
<pdfrwt beam="1">  1        2 0.44524177E+00 0.28472107E+03</pdfrwt>
<pdfrwt beam="2">  1       -2 0.16280767E-01 0.28472107E+03</pdfrwt>
<totfact> 0.71783356E+01</totfact>
</mgrwt>
</event>
<event>
 4    1  0.1726795E-008  0.4174900E+03  0.7818608E-02  0.1037886E+00
          2   -1    0    0  501    0  0.00000000000E+00  0.00000000000E+00  0.17793530232E+04  0.17793530232E+04  0.25500000000E-02 0. -1.
         -2   -1    0    0    0  501 -0.00000000000E+00 -0.00000000000E+00 -0.84762344440E+03  0.84762344441E+03  0.25500000000E-02 0.  1.
    8880022    1    1    2    0    0  0.22351032808E+03  0.31772533804E+03  0.17011268317E+04  0.17516079492E+04  0.15294330000E+03 0.  0.
    8880022    1    1    2    0    0 -0.22351032808E+03 -0.31772533804E+03 -0.76939725291E+03  0.87536851839E+03  0.15294330000E+03 0.  0.
<mgrwt>
<rscale>  0 0.41749001E+03</rscale>
<asrwt>0</asrwt>
<pdfrwt beam="1">  1        2 0.27374662E+00 0.41749001E+03</pdfrwt>
<pdfrwt beam="2">  1       -2 0.13040361E+00 0.41749001E+03</pdfrwt>
<totfact> 0.42363834E+00</totfact>
</mgrwt>
</event>
<event>
 4    1  0.1726795E-008  0.2162498E+04  0.7818608E-02  0.8534201E-01
         -2   -1    0    0    0  501 -0.00000000000E+00  0.00000000000E+00  0.22180527681E+04  0.22180527681E+04  0.25500000000E-02 0.  1.
          2   -1    0    0  501    0  0.00000000000E+00 -0.00000000000E+00 -0.26448765639E+04  0.26448765639E+04  0.25500000000E-02 0. -1.
    8880022    1    1    2    0    0 -0.11177524688E+04 -0.18448946652E+04 -0.13085449672E+04  0.25275855062E+04  0.15294330000E+03 0.  0.
    8880022    1    1    2    0    0  0.11177524688E+04  0.18448946652E+04  0.88172117133E+03  0.23353438257E+04  0.15294330000E+03 0.  0.
<mgrwt>
<rscale>  0 0.21624982E+04</rscale>
<asrwt>0</asrwt>
<pdfrwt beam="1">  1        2 0.40690409E+00 0.21624982E+04</pdfrwt>
<pdfrwt beam="2">  1       -2 0.34123889E+00 0.21624982E+04</pdfrwt>
<totfact> 0.43960419E-02</totfact>
</mgrwt>
</event>
<event>
 4    1  0.1726795E-008  0.5546222E+03  0.7818608E-02  0.1000430E+00
         -2   -1    0    0    0  501 -0.00000000000E+00  0.00000000000E+00  0.39434934973E+03  0.39434934974E+03  0.25500000000E-02 0.  1.
          2   -1    0    0  501    0  0.00000000000E+00 -0.00000000000E+00 -0.26211815090E+04  0.26211815090E+04  0.25500000000E-02 0. -1.
    8880022    1    1    2    0    0  0.42661757481E+03 -0.31970536649E+03 -0.23770741553E+04  0.24409193492E+04  0.15294330000E+03 0.  0.
    8880022    1    1    2    0    0 -0.42661757481E+03  0.31970536649E+03  0.15024199604E+03  0.57461150954E+03  0.15294330000E+03 0.  0.
<mgrwt>
<rscale>  0 0.55462215E+03</rscale>
<asrwt>0</asrwt>
<pdfrwt beam="1">  1        2 0.40325868E+00 0.55462215E+03</pdfrwt>
<pdfrwt beam="2">  1       -2 0.60669132E-01 0.55462215E+03</pdfrwt>
<totfact> 0.81951019E+00</totfact>
</mgrwt>
</event>
<event>
 4    1  0.1971209E-008  0.1134804E+04  0.7818608E-02  0.9171918E-01
         -2   -1    0    0    0  501 -0.00000000000E+00  0.00000000000E+00  0.11013361297E+04  0.11013361298E+04  0.25500000000E-02 0.  1.
          2   -1    0    0  501    0  0.00000000000E+00 -0.00000000000E+00 -0.34457711208E+04  0.34457711208E+04  0.25500000000E-02 0. -1.
    8880022    1    1    2    0    0 -0.51639679081E+03 -0.99886103904E+03  0.67574890843E+03  0.13207638930E+04  0.15294330000E+03 0.  0.
    8880022    1    1    2    0    0  0.51639679081E+03  0.99886103904E+03 -0.30201838995E+04  0.32263433576E+04  0.15294330000E+03 0.  0.
<mgrwt>
<rscale>  0 0.11348042E+04</rscale>
<asrwt>0</asrwt>
<pdfrwt beam="1">  1        2 0.53011863E+00 0.11348042E+04</pdfrwt>
<pdfrwt beam="2">  1       -2 0.16943633E+00 0.11348042E+04</pdfrwt>
<totfact> 0.19139988E-01</totfact>
</mgrwt>
</event>
<event>
 4    1  0.1726795E-008  0.5432474E+03  0.7818608E-02  0.1003069E+00
         -2   -1    0    0    0  501 -0.00000000000E+00  0.00000000000E+00  0.37617734847E+03  0.37617734848E+03  0.25500000000E-02 0.  1.
          2   -1    0    0  501    0  0.00000000000E+00 -0.00000000000E+00 -0.12357012092E+04  0.12357012092E+04  0.25500000000E-02 0. -1.
    8880022    1    1    2    0    0 -0.29018985802E+03 -0.43303115911E+03  0.57230478158E+02  0.54625371313E+03  0.15294330000E+03 0.  0.
    8880022    1    1    2    0    0  0.29018985802E+03  0.43303115911E+03 -0.91675433890E+03  0.10656248446E+04  0.15294330000E+03 0.  0.
<mgrwt>
<rscale>  0 0.54324745E+03</rscale>
<asrwt>0</asrwt>
<pdfrwt beam="1">  1        2 0.19010788E+00 0.54324745E+03</pdfrwt>
<pdfrwt beam="2">  1       -2 0.57873438E-01 0.54324745E+03</pdfrwt>
<totfact> 0.52511666E+01</totfact>
</mgrwt>
</event>
<event>
 4    1  0.1726795E-008  0.8942079E+03  0.7818608E-02  0.9432851E-01
         -2   -1    0    0    0  501 -0.00000000000E+00  0.00000000000E+00  0.65296690231E+03  0.65296690231E+03  0.25500000000E-02 0.  1.
          2   -1    0    0  501    0  0.00000000000E+00 -0.00000000000E+00 -0.27112011062E+04  0.27112011062E+04  0.25500000000E-02 0. -1.
    8880022    1    1    2    0    0 -0.70050367343E+03 -0.53433195123E+03 -0.22746853439E+04  0.24441360636E+04  0.15294330000E+03 0.  0.
    8880022    1    1    2    0    0  0.70050367343E+03  0.53433195123E+03  0.21645114003E+03  0.92003194490E+03  0.15294330000E+03 0.  0.
<mgrwt>
<rscale>  0 0.89420785E+03</rscale>
<asrwt>0</asrwt>
<pdfrwt beam="1">  1        2 0.41710785E+00 0.89420785E+03</pdfrwt>
<pdfrwt beam="2">  1       -2 0.10045645E+00 0.89420785E+03</pdfrwt>
<totfact> 0.22003997E+00</totfact>
</mgrwt>
</event>
<event>
 4    1  0.1726795E-008  0.1674853E+04  0.7818608E-02  0.8775838E-01
         -2   -1    0    0    0  501 -0.00000000000E+00  0.00000000000E+00  0.11584343270E+04  0.11584343270E+04  0.25500000000E-02 0.  1.
          2   -1    0    0  501    0  0.00000000000E+00 -0.00000000000E+00 -0.27240325785E+04  0.27240325786E+04  0.25500000000E-02 0. -1.
    8880022    1    1    2    0    0 -0.13844721166E+04 -0.93004170767E+03 -0.13585334483E+03  0.16803536544E+04  0.15294330000E+03 0.  0.
    8880022    1    1    2    0    0  0.13844721166E+04  0.93004170767E+03 -0.14297449067E+04  0.22021132511E+04  0.15294330000E+03 0.  0.
<mgrwt>
<rscale>  0 0.16748529E+04</rscale>
<asrwt>0</asrwt>
<pdfrwt beam="1">  1        2 0.41908193E+00 0.16748529E+04</pdfrwt>
<pdfrwt beam="2">  1       -2 0.17822067E+00 0.16748529E+04</pdfrwt>
<totfact> 0.44343849E-01</totfact>
</mgrwt>
</event>
<event>
 4    1  0.1726795E-008  0.5985708E+03  0.7818608E-02  0.9908376E-01
          2   -1    0    0  501    0  0.00000000000E+00  0.00000000000E+00  0.19518000968E+04  0.19518000968E+04  0.25500000000E-02 0. -1.
         -2   -1    0    0    0  501 -0.00000000000E+00 -0.00000000000E+00 -0.49593408739E+03  0.49593408740E+03  0.25500000000E-02 0.  1.
    8880022    1    1    2    0    0  0.11902858986E+03  0.56632809278E+03 -0.24336970114E+03  0.64615460868E+03  0.15294330000E+03 0.  0.
    8880022    1    1    2    0    0 -0.11902858986E+03 -0.56632809278E+03  0.16992357105E+04  0.18015795755E+04  0.15294330000E+03 0.  0.
<mgrwt>
<rscale>  0 0.59857077E+03</rscale>
<asrwt>0</asrwt>
<pdfrwt beam="1">  1        2 0.30027693E+00 0.59857077E+03</pdfrwt>
<pdfrwt beam="2">  1       -2 0.76297554E-01 0.59857077E+03</pdfrwt>
<totfact> 0.11582817E+01</totfact>
</mgrwt>
</event>
<event>
 4    1  0.1744108E-008  0.1114911E+04  0.7818608E-02  0.9190779E-01
         -2   -1    0    0    0  501 -0.00000000000E+00  0.00000000000E+00  0.17066937696E+04  0.17066937696E+04  0.25500000000E-02 0.  1.
          2   -1    0    0  501    0  0.00000000000E+00 -0.00000000000E+00 -0.33343872958E+04  0.33343872958E+04  0.25500000000E-02 0. -1.
    8880022    1    1    2    0    0  0.92736229720E+03 -0.59969554558E+03 -0.30421694695E+04  0.32400343072E+04  0.15294330000E+03 0. -1.
    8880022    1    1    2    0    0 -0.92736229720E+03  0.59969554558E+03  0.14144759433E+04  0.18010467581E+04  0.15294330000E+03 0.  0.
<mgrwt>
<rscale>  0 0.11149113E+04</rscale>
<asrwt>0</asrwt>
<pdfrwt beam="1">  1        2 0.51298266E+00 0.11149113E+04</pdfrwt>
<pdfrwt beam="2">  1       -2 0.26256827E+00 0.11149113E+04</pdfrwt>
<totfact> 0.57300199E-02</totfact>
</mgrwt>
</event>
<event>
 4    1  0.1726795E-008  0.1573683E+04  0.7818608E-02  0.8836881E-01
          2   -1    0    0  501    0  0.00000000000E+00  0.00000000000E+00  0.33304679454E+04  0.33304679454E+04  0.25500000000E-02 0. -1.
         -2   -1    0    0    0  501 -0.00000000000E+00 -0.00000000000E+00 -0.87804823306E+03  0.87804823306E+03  0.25500000000E-02 0.  1.
    8880022    1    1    2    0    0 -0.12535286537E+04  0.93901644666E+03  0.40274388438E+03  0.16244015089E+04  0.15294330000E+03 0.  0.
    8880022    1    1    2    0    0  0.12535286537E+04 -0.93901644666E+03  0.20496758280E+04  0.25841146696E+04  0.15294330000E+03 0.  0.
<mgrwt>
<rscale>  0 0.15736828E+04</rscale>
<asrwt>0</asrwt>
<pdfrwt beam="1">  1        2 0.51237968E+00 0.15736828E+04</pdfrwt>
<pdfrwt beam="2">  1       -2 0.13508434E+00 0.15736828E+04</pdfrwt>
<totfact> 0.39564134E-01</totfact>
</mgrwt>
</event>
<event>
 4    1  0.1726795E-008  0.8022140E+03  0.7818608E-02  0.9556818E-01
         -2   -1    0    0    0  501 -0.00000000000E+00  0.00000000000E+00  0.69472406811E+03  0.69472406811E+03  0.25500000000E-02 0.  1.
          2   -1    0    0  501    0  0.00000000000E+00 -0.00000000000E+00 -0.31952835199E+04  0.31952835199E+04  0.25500000000E-02 0. -1.
    8880022    1    1    2    0    0  0.78636182143E+03  0.42317085262E+02  0.38871691222E+03  0.89143039031E+03  0.15294330000E+03 0.  0.
    8880022    1    1    2    0    0 -0.78636182143E+03 -0.42317085262E+02 -0.28892763640E+04  0.29985771977E+04  0.15294330000E+03 0.  0.
<mgrwt>
<rscale>  0 0.80221400E+03</rscale>
<asrwt>0</asrwt>
<pdfrwt beam="1">  1        2 0.49158207E+00 0.80221400E+03</pdfrwt>
<pdfrwt beam="2">  1       -2 0.10688063E+00 0.80221400E+03</pdfrwt>
<totfact> 0.97813200E-01</totfact>
</mgrwt>
</event>
<event>
 4    1  0.1726795E-008  0.8841594E+03  0.7818608E-02  0.9445602E-01
          2   -1    0    0  501    0  0.00000000000E+00  0.00000000000E+00  0.23223942239E+04  0.23223942239E+04  0.25500000000E-02 0. -1.
         -2   -1    0    0    0  501 -0.00000000000E+00 -0.00000000000E+00 -0.62385045671E+03  0.62385045672E+03  0.25500000000E-02 0.  1.
    8880022    1    1    2    0    0 -0.68873886310E+03 -0.53290242233E+03 -0.15031933089E+03  0.89684656855E+03  0.15294330000E+03 0.  0.
    8880022    1    1    2    0    0  0.68873886310E+03  0.53290242233E+03  0.18488630981E+04  0.20493981121E+04  0.15294330000E+03 0.  0.
<mgrwt>
<rscale>  0 0.88415941E+03</rscale>
<asrwt>0</asrwt>
<pdfrwt beam="1">  1        2 0.35729142E+00 0.88415941E+03</pdfrwt>
<pdfrwt beam="2">  1       -2 0.95976994E-01 0.88415941E+03</pdfrwt>
<totfact> 0.40949010E+00</totfact>
</mgrwt>
</event>
<event>
 4    1  0.1726795E-008  0.1242055E+04  0.7818608E-02  0.9076822E-01
         -2   -1    0    0    0  501 -0.00000000000E+00  0.00000000000E+00  0.55573486235E+03  0.55573486235E+03  0.25500000000E-02 0.  1.
          2   -1    0    0  501    0  0.00000000000E+00 -0.00000000000E+00 -0.31363049148E+04  0.31363049149E+04  0.25500000000E-02 0. -1.
    8880022    1    1    2    0    0  0.11652317541E+04  0.40192561395E+03 -0.66456071991E+03  0.14086666900E+04  0.15294330000E+03 0.  0.
    8880022    1    1    2    0    0 -0.11652317541E+04 -0.40192561395E+03 -0.19160093326E+04  0.22833730872E+04  0.15294330000E+03 0.  0.
<mgrwt>
<rscale>  0 0.12420551E+04</rscale>
<asrwt>0</asrwt>
<pdfrwt beam="1">  1        2 0.48250844E+00 0.12420551E+04</pdfrwt>
<pdfrwt beam="2">  1       -2 0.85497673E-01 0.12420551E+04</pdfrwt>
<totfact> 0.16782047E+00</totfact>
</mgrwt>
</event>
<event>
 4    1  0.1726795E-008  0.1183634E+04  0.7818608E-02  0.9127303E-01
         -2   -1    0    0    0  501 -0.00000000000E+00  0.00000000000E+00  0.21129165324E+04  0.21129165324E+04  0.25500000000E-02 0.  1.
          2   -1    0    0  501    0  0.00000000000E+00 -0.00000000000E+00 -0.38018687717E+04  0.38018687717E+04  0.25500000000E-02 0. -1.
    8880022    1    1    2    0    0  0.40289840774E+03  0.11023933024E+04  0.18426798752E+04  0.21900819381E+04  0.15294330000E+03 0.  0.
    8880022    1    1    2    0    0 -0.40289840774E+03 -0.11023933024E+04 -0.35316321144E+04  0.37247033660E+04  0.15294330000E+03 0.  0.
<mgrwt>
<rscale>  0 0.11836341E+04</rscale>
<asrwt>0</asrwt>
<pdfrwt beam="1">  1        2 0.58490289E+00 0.11836341E+04</pdfrwt>
<pdfrwt beam="2">  1       -2 0.32506408E+00 0.11836341E+04</pdfrwt>
<totfact> 0.11035649E-02</totfact>
</mgrwt>
</event>
<event>
 4    1  0.1726795E-008  0.1231080E+04  0.7818608E-02  0.9086079E-01
         -2   -1    0    0    0  501 -0.00000000000E+00  0.00000000000E+00  0.16879782539E+04  0.16879782539E+04  0.25500000000E-02 0.  1.
          2   -1    0    0  501    0  0.00000000000E+00 -0.00000000000E+00 -0.12061188811E+04  0.12061188811E+04  0.25500000000E-02 0. -1.
    8880022    1    1    2    0    0 -0.30555266342E+03 -0.11827099779E+04 -0.49063126158E+03  0.13252456413E+04  0.15294330000E+03 0.  0.
    8880022    1    1    2    0    0  0.30555266342E+03  0.11827099779E+04  0.97249063445E+03  0.15688514937E+04  0.15294330000E+03 0.  0.
<mgrwt>
<rscale>  0 0.12310796E+04</rscale>
<asrwt>0</asrwt>
<pdfrwt beam="1">  1        2 0.18555675E+00 0.12310796E+04</pdfrwt>
<pdfrwt beam="2">  1       -2 0.25968896E+00 0.12310796E+04</pdfrwt>
<totfact> 0.10207517E+00</totfact>
</mgrwt>
</event>
<event>
 4    1  0.1726795E-008  0.1011606E+04  0.7818608E-02  0.9295906E-01
          2   -1    0    0  501    0  0.00000000000E+00  0.00000000000E+00  0.24344622151E+04  0.24344622151E+04  0.25500000000E-02 0. -1.
         -2   -1    0    0    0  501 -0.00000000000E+00 -0.00000000000E+00 -0.68330914028E+03  0.68330914028E+03  0.25500000000E-02 0.  1.
    8880022    1    1    2    0    0  0.43698439937E+03  0.89944437708E+03 -0.91459501598E+02  0.10157322709E+04  0.15294330000E+03 0.  0.
    8880022    1    1    2    0    0 -0.43698439937E+03 -0.89944437708E+03  0.18426125764E+04  0.21020390844E+04  0.15294330000E+03 0.  0.
<mgrwt>
<rscale>  0 0.10116063E+04</rscale>
<asrwt>0</asrwt>
<pdfrwt beam="1">  1        2 0.37453264E+00 0.10116063E+04</pdfrwt>
<pdfrwt beam="2">  1       -2 0.10512449E+00 0.10116063E+04</pdfrwt>
<totfact> 0.27990656E+00</totfact>
</mgrwt>
</event>
<event>
 4    1  0.1726795E-008  0.1604920E+04  0.7818608E-02  0.8817531E-01
         -2   -1    0    0    0  501 -0.00000000000E+00  0.00000000000E+00  0.17199141295E+04  0.17199141295E+04  0.25500000000E-02 0.  1.
          2   -1    0    0  501    0  0.00000000000E+00 -0.00000000000E+00 -0.19830036092E+04  0.19830036092E+04  0.25500000000E-02 0. -1.
    8880022    1    1    2    0    0  0.14106905161E+04  0.74988624260E+03 -0.10475484234E+04  0.19165402321E+04  0.15294330000E+03 0.  0.
    8880022    1    1    2    0    0 -0.14106905161E+04 -0.74988624260E+03  0.78445894363E+03  0.17863775066E+04  0.15294330000E+03 0.  0.
<mgrwt>
<rscale>  0 0.16049202E+04</rscale>
<asrwt>0</asrwt>
<pdfrwt beam="1">  1        2 0.30507748E+00 0.16049202E+04</pdfrwt>
<pdfrwt beam="2">  1       -2 0.26460217E+00 0.16049202E+04</pdfrwt>
<totfact> 0.33099271E-01</totfact>
</mgrwt>
</event>
<event>
 4    1  0.1726795E-008  0.6453036E+03  0.7818608E-02  0.9815632E-01
         -2   -1    0    0    0  501 -0.00000000000E+00  0.00000000000E+00  0.33841209053E+03  0.33841209054E+03  0.25500000000E-02 0.  1.
          2   -1    0    0  501    0  0.00000000000E+00 -0.00000000000E+00 -0.24179630828E+04  0.24179630828E+04  0.25500000000E-02 0. -1.
    8880022    1    1    2    0    0  0.46691171822E+03  0.41835219816E+03 -0.73962185355E+02  0.64952842293E+03  0.15294330000E+03 0.  0.
    8880022    1    1    2    0    0 -0.46691171822E+03 -0.41835219816E+03 -0.20055888070E+04  0.21068467505E+04  0.15294330000E+03 0.  0.
<mgrwt>
<rscale>  0 0.64530362E+03</rscale>
<asrwt>0</asrwt>
<pdfrwt beam="1">  1        2 0.37199431E+00 0.64530362E+03</pdfrwt>
<pdfrwt beam="2">  1       -2 0.52063400E-01 0.64530362E+03</pdfrwt>
<totfact> 0.14387358E+01</totfact>
</mgrwt>
</event>
<event>
 4    1  0.1726795E-008  0.7906770E+03  0.7818608E-02  0.9573611E-01
         -2   -1    0    0    0  501 -0.00000000000E+00  0.00000000000E+00  0.20292303608E+04  0.20292303608E+04  0.25500000000E-02 0.  1.
          2   -1    0    0  501    0  0.00000000000E+00 -0.00000000000E+00 -0.92013094827E+03  0.92013094828E+03  0.25500000000E-02 0. -1.
    8880022    1    1    2    0    0 -0.76898191396E+03 -0.10220216706E+03  0.17572740653E+04  0.19269619251E+04  0.15294330000E+03 0.  0.
    8880022    1    1    2    0    0  0.76898191396E+03  0.10220216706E+03 -0.64817465278E+03  0.10223993840E+04  0.15294330000E+03 0.  0.
<mgrwt>
<rscale>  0 0.79067700E+03</rscale>
<asrwt>0</asrwt>
<pdfrwt beam="1">  1        2 0.14155861E+00 0.79067700E+03</pdfrwt>
<pdfrwt beam="2">  1       -2 0.31218929E+00 0.79067700E+03</pdfrwt>
<totfact> 0.79115259E-01</totfact>
</mgrwt>
</event>
<event>
 4    1  0.1726795E-008  0.1012579E+04  0.7818608E-02  0.9294855E-01
         -2   -1    0    0    0  501 -0.00000000000E+00  0.00000000000E+00  0.12745016801E+04  0.12745016801E+04  0.25500000000E-02 0.  1.
          2   -1    0    0  501    0  0.00000000000E+00 -0.00000000000E+00 -0.91941994741E+03  0.91941994741E+03  0.25500000000E-02 0. -1.
    8880022    1    1    2    0    0 -0.47508736179E+03  0.88103105846E+03 -0.21030871073E+03  0.10341881522E+04  0.15294330000E+03 0.  0.
    8880022    1    1    2    0    0  0.47508736179E+03 -0.88103105846E+03  0.56539044344E+03  0.11597334754E+04  0.15294330000E+03 0.  1.
<mgrwt>
<rscale>  0 0.10125786E+04</rscale>
<asrwt>0</asrwt>
<pdfrwt beam="1">  1        2 0.14144922E+00 0.10125786E+04</pdfrwt>
<pdfrwt beam="2">  1       -2 0.19607718E+00 0.10125786E+04</pdfrwt>
<totfact> 0.39797717E+00</totfact>
</mgrwt>
</event>
<event>
 4    1  0.1726795E-008  0.4171468E+03  0.7818608E-02  0.1037999E+00
         -2   -1    0    0    0  501 -0.00000000000E+00  0.00000000000E+00  0.62829093431E+03  0.62829093432E+03  0.25500000000E-02 0.  1.
          2   -1    0    0  501    0  0.00000000000E+00 -0.00000000000E+00 -0.63749147028E+03  0.63749147028E+03  0.25500000000E-02 0. -1.
    8880022    1    1    2    0    0 -0.12085588957E+03 -0.36880033676E+03 -0.48055256854E+03  0.63635073551E+03  0.15294330000E+03 0. -1.
    8880022    1    1    2    0    0  0.12085588957E+03  0.36880033676E+03  0.47135203257E+03  0.62943166910E+03  0.15294330000E+03 0.  0.
<mgrwt>
<rscale>  0 0.41714684E+03</rscale>
<asrwt>0</asrwt>
<pdfrwt beam="1">  1        2 0.98075610E-01 0.41714684E+03</pdfrwt>
<pdfrwt beam="2">  1       -2 0.96660144E-01 0.41714684E+03</pdfrwt>
<totfact> 0.43148537E+01</totfact>
</mgrwt>
</event>
<event>
 4    1  0.1726795E-008  0.5923095E+03  0.7818608E-02  0.9921491E-01
          2   -1    0    0  501    0  0.00000000000E+00  0.00000000000E+00  0.11868345081E+04  0.11868345081E+04  0.25500000000E-02 0. -1.
         -2   -1    0    0    0  501 -0.00000000000E+00 -0.00000000000E+00 -0.48958749095E+03  0.48958749096E+03  0.25500000000E-02 0.  1.
    8880022    1    1    2    0    0  0.47951385160E+03 -0.31225856002E+03 -0.17899847099E+03  0.61876574551E+03  0.15294330000E+03 0.  0.
    8880022    1    1    2    0    0 -0.47951385160E+03  0.31225856002E+03  0.87624548812E+03  0.10576562535E+04  0.15294330000E+03 0.  0.
<mgrwt>
<rscale>  0 0.59230954E+03</rscale>
<asrwt>0</asrwt>
<pdfrwt beam="1">  1        2 0.18258992E+00 0.59230954E+03</pdfrwt>
<pdfrwt beam="2">  1       -2 0.75321154E-01 0.59230954E+03</pdfrwt>
<totfact> 0.31643514E+01</totfact>
</mgrwt>
</event>
<event>
 4    1  0.1726795E-008  0.6396232E+03  0.7818608E-02  0.9826448E-01
         -2   -1    0    0    0  501 -0.00000000000E+00  0.00000000000E+00  0.70299545584E+03  0.70299545585E+03  0.25500000000E-02 0.  1.
          2   -1    0    0  501    0  0.00000000000E+00 -0.00000000000E+00 -0.11386959648E+04  0.11386959648E+04  0.25500000000E-02 0. -1.
    8880022    1    1    2    0    0 -0.67903758939E+02 -0.61734533490E+03  0.42603158240E+03  0.76851853928E+03  0.15294330000E+03 0.  0.
    8880022    1    1    2    0    0  0.67903758939E+02  0.61734533490E+03 -0.86173209136E+03  0.10731728814E+04  0.15294330000E+03 0.  0.
<mgrwt>
<rscale>  0 0.63962320E+03</rscale>
<asrwt>0</asrwt>
<pdfrwt beam="1">  1        2 0.17518399E+00 0.63962320E+03</pdfrwt>
<pdfrwt beam="2">  1       -2 0.10815315E+00 0.63962320E+03</pdfrwt>
<totfact> 0.14582940E+01</totfact>
</mgrwt>
</event>
<event>
 4    1  0.1726795E-008  0.1657445E+03  0.7818608E-02  0.1182360E+00
          2   -1    0    0  501    0  0.00000000000E+00  0.00000000000E+00  0.18183385481E+04  0.18183385481E+04  0.25500000000E-02 0. -1.
         -2   -1    0    0    0  501 -0.00000000000E+00 -0.00000000000E+00 -0.11216048189E+04  0.11216048189E+04  0.25500000000E-02 0.  1.
    8880022    1    1    2    0    0  0.21471474603E+01 -0.63835649870E+02 -0.11116710797E+04  0.11239590041E+04  0.15294330000E+03 0.  1.
    8880022    1    1    2    0    0 -0.21471474603E+01  0.63835649870E+02  0.18084048089E+04  0.18159843629E+04  0.15294330000E+03 0.  0.
<mgrwt>
<rscale>  0 0.16574454E+03</rscale>
<asrwt>0</asrwt>
<pdfrwt beam="1">  1        2 0.27974439E+00 0.16574454E+03</pdfrwt>
<pdfrwt beam="2">  1       -2 0.17255459E+00 0.16574454E+03</pdfrwt>
<totfact> 0.22187828E+00</totfact>
</mgrwt>
</event>
<event>
 4    1  0.1726795E-008  0.8359196E+03  0.7818608E-02  0.9509433E-01
         -2   -1    0    0    0  501 -0.00000000000E+00  0.00000000000E+00  0.19579653700E+04  0.19579653700E+04  0.25500000000E-02 0.  1.
          2   -1    0    0  501    0  0.00000000000E+00 -0.00000000000E+00 -0.59500333205E+03  0.59500333206E+03  0.25500000000E-02 0. -1.
    8880022    1    1    2    0    0  0.81196474377E+03  0.12681925807E+03 -0.12604299904E+03  0.84536877159E+03  0.15294330000E+03 0.  0.
    8880022    1    1    2    0    0 -0.81196474377E+03 -0.12681925807E+03  0.14890050370E+04  0.17075999305E+04  0.15294330000E+03 0.  0.
<mgrwt>
<rscale>  0 0.83591957E+03</rscale>
<asrwt>0</asrwt>
<pdfrwt beam="1">  1        2 0.91538975E-01 0.83591957E+03</pdfrwt>
<pdfrwt beam="2">  1       -2 0.30122544E+00 0.83591957E+03</pdfrwt>
<totfact> 0.16099898E+00</totfact>
</mgrwt>
</event>
<event>
 4    1  0.1726795E-008  0.4809053E+03  0.7818608E-02  0.1018887E+00
         -2   -1    0    0    0  501 -0.00000000000E+00  0.00000000000E+00  0.55571353772E+03  0.55571353772E+03  0.25500000000E-02 0.  1.
          2   -1    0    0  501    0  0.00000000000E+00 -0.00000000000E+00 -0.18890917185E+04  0.18890917185E+04  0.25500000000E-02 0. -1.
    8880022    1    1    2    0    0 -0.51160086903E+02 -0.45305725879E+03 -0.17460780247E+04  0.18110931383E+04  0.15294330000E+03 0. -1.
    8880022    1    1    2    0    0  0.51160086903E+02  0.45305725879E+03  0.41269984391E+03  0.63371211793E+03  0.15294330000E+03 0.  0.
<mgrwt>
<rscale>  0 0.48090528E+03</rscale>
<asrwt>0</asrwt>
<pdfrwt beam="1">  1        2 0.29062949E+00 0.48090528E+03</pdfrwt>
<pdfrwt beam="2">  1       -2 0.85494391E-01 0.48090528E+03</pdfrwt>
<totfact> 0.99441212E+00</totfact>
</mgrwt>
</event>
<event>
 4    1  0.1726795E-008  0.2550630E+03  0.7818608E-02  0.1110146E+00
         -2   -1    0    0    0  501 -0.00000000000E+00  0.00000000000E+00  0.37446230458E+03  0.37446230459E+03  0.25500000000E-02 0.  1.
          2   -1    0    0  501    0  0.00000000000E+00 -0.00000000000E+00 -0.16279183369E+04  0.16279183369E+04  0.25500000000E-02 0. -1.
    8880022    1    1    2    0    0 -0.15151790107E+03  0.13677642844E+03 -0.15729868622E+04  0.15935321733E+04  0.15294330000E+03 0. -1.
    8880022    1    1    2    0    0  0.15151790107E+03 -0.13677642844E+03  0.31953082984E+03  0.40884846821E+03  0.15294330000E+03 0.  0.
<mgrwt>
<rscale>  0 0.25506297E+03</rscale>
<asrwt>0</asrwt>
<pdfrwt beam="1">  1        2 0.25044897E+00 0.25506297E+03</pdfrwt>
<pdfrwt beam="2">  1       -2 0.57609586E-01 0.25506297E+03</pdfrwt>
<totfact> 0.34292040E+01</totfact>
</mgrwt>
</event>
<event>
 4    1  0.1726795E-008  0.8202017E+03  0.7818608E-02  0.9531228E-01
         -2   -1    0    0    0  501 -0.00000000000E+00  0.00000000000E+00  0.67162549716E+03  0.67162549716E+03  0.25500000000E-02 0.  1.
          2   -1    0    0  501    0  0.00000000000E+00 -0.00000000000E+00 -0.14594031590E+04  0.14594031590E+04  0.25500000000E-02 0. -1.
    8880022    1    1    2    0    0 -0.32432067195E+03  0.73766880983E+03  0.20285693277E+03  0.84491523802E+03  0.15294330000E+03 0.  0.
    8880022    1    1    2    0    0  0.32432067195E+03 -0.73766880983E+03 -0.99063459460E+03  0.12861134181E+04  0.15294330000E+03 0.  0.
<mgrwt>
<rscale>  0 0.82020170E+03</rscale>
<asrwt>0</asrwt>
<pdfrwt beam="1">  1        2 0.22452356E+00 0.82020170E+03</pdfrwt>
<pdfrwt beam="2">  1       -2 0.10332700E+00 0.82020170E+03</pdfrwt>
<totfact> 0.10376246E+01</totfact>
</mgrwt>
</event>
<event>
 4    1  0.1726795E-008  0.4955709E+03  0.7818608E-02  0.1014941E+00
          2   -1    0    0  501    0  0.00000000000E+00  0.00000000000E+00  0.33212831170E+04  0.33212831170E+04  0.25500000000E-02 0. -1.
         -2   -1    0    0    0  501 -0.00000000000E+00 -0.00000000000E+00 -0.53474715175E+03  0.53474715175E+03  0.25500000000E-02 0.  1.
    8880022    1    1    2    0    0 -0.45288531559E+03 -0.13074292984E+03 -0.39648750973E+03  0.63465961047E+03  0.15294330000E+03 0.  0.
    8880022    1    1    2    0    0  0.45288531559E+03  0.13074292984E+03  0.31830234750E+04  0.32213706583E+04  0.15294330000E+03 0. -1.
<mgrwt>
<rscale>  0 0.49557086E+03</rscale>
<asrwt>0</asrwt>
<pdfrwt beam="1">  1        2 0.51096663E+00 0.49557086E+03</pdfrwt>
<pdfrwt beam="2">  1       -2 0.82268793E-01 0.49557086E+03</pdfrwt>
<totfact> 0.16221924E+00</totfact>
</mgrwt>
</event>
<event>
 4    1  0.1726795E-008  0.6333983E+03  0.7818608E-02  0.9838440E-01
         -2   -1    0    0    0  501 -0.00000000000E+00  0.00000000000E+00  0.32978584687E+03  0.32978584688E+03  0.25500000000E-02 0.  1.
          2   -1    0    0  501    0  0.00000000000E+00 -0.00000000000E+00 -0.18077243665E+04  0.18077243665E+04  0.25500000000E-02 0. -1.
    8880022    1    1    2    0    0 -0.59574915196E+03 -0.15127678475E+03 -0.13501622441E+04  0.14913522240E+04  0.15294330000E+03 0.  0.
    8880022    1    1    2    0    0  0.59574915196E+03  0.15127678475E+03 -0.12777627557E+03  0.64615798941E+03  0.15294330000E+03 0.  0.
<mgrwt>
<rscale>  0 0.63339827E+03</rscale>
<asrwt>0</asrwt>
<pdfrwt beam="1">  1        2 0.27811144E+00 0.63339827E+03</pdfrwt>
<pdfrwt beam="2">  1       -2 0.50736285E-01 0.63339827E+03</pdfrwt>
<totfact> 0.32783334E+01</totfact>
</mgrwt>
</event>
<event>
 4    1  0.1726795E-008  0.1123285E+04  0.7818608E-02  0.9182789E-01
         -2   -1    0    0    0  501 -0.00000000000E+00  0.00000000000E+00  0.60838275851E+03  0.60838275851E+03  0.25500000000E-02 0.  1.
          2   -1    0    0  501    0  0.00000000000E+00 -0.00000000000E+00 -0.25041075805E+04  0.25041075805E+04  0.25500000000E-02 0. -1.
    8880022    1    1    2    0    0  0.11115109739E+04 -0.54053864180E+02 -0.15928526179E+04  0.19490894235E+04  0.15294330000E+03 0.  0.
    8880022    1    1    2    0    0 -0.11115109739E+04  0.54053864180E+02 -0.30287220406E+03  0.11634009155E+04  0.15294330000E+03 0.  0.
<mgrwt>
<rscale>  0 0.11232854E+04</rscale>
<asrwt>0</asrwt>
<pdfrwt beam="1">  1        2 0.38524731E+00 0.11232854E+04</pdfrwt>
<pdfrwt beam="2">  1       -2 0.93597349E-01 0.11232854E+04</pdfrwt>
<totfact> 0.33181883E+00</totfact>
</mgrwt>
</event>
<event>
 4    1  0.1726795E-008  0.8092721E+03  0.7818608E-02  0.9546692E-01
         -2   -1    0    0    0  501 -0.00000000000E+00  0.00000000000E+00  0.11096415109E+04  0.11096415109E+04  0.25500000000E-02 0.  1.
          2   -1    0    0  501    0  0.00000000000E+00 -0.00000000000E+00 -0.13947050828E+04  0.13947050828E+04  0.25500000000E-02 0. -1.
    8880022    1    1    2    0    0  0.72173966781E+03 -0.33259814928E+03  0.80847800566E+03  0.11439222070E+04  0.15294330000E+03 0.  0.
    8880022    1    1    2    0    0 -0.72173966781E+03  0.33259814928E+03 -0.10935415776E+04  0.13604243867E+04  0.15294330000E+03 0.  0.
<mgrwt>
<rscale>  0 0.80927210E+03</rscale>
<asrwt>0</asrwt>
<pdfrwt beam="1">  1        2 0.21457001E+00 0.80927210E+03</pdfrwt>
<pdfrwt beam="2">  1       -2 0.17071408E+00 0.80927210E+03</pdfrwt>
<totfact> 0.31225137E+00</totfact>
</mgrwt>
</event>
<event>
 4    1  0.1726795E-008  0.3799578E+03  0.7818608E-02  0.1050949E+00
          2   -1    0    0  501    0  0.00000000000E+00  0.00000000000E+00  0.21901205993E+04  0.21901205993E+04  0.25500000000E-02 0. -1.
         -2   -1    0    0    0  501 -0.00000000000E+00 -0.00000000000E+00 -0.25506176544E+03  0.25506176545E+03  0.25500000000E-02 0.  1.
    8880022    1    1    2    0    0 -0.33763974639E+03  0.83520716062E+02  0.20203510689E+04  0.20557690539E+04  0.15294330000E+03 0.  0.
    8880022    1    1    2    0    0  0.33763974639E+03 -0.83520716062E+02 -0.85292234980E+02  0.38941331091E+03  0.15294330000E+03 0.  0.
<mgrwt>
<rscale>  0 0.37995784E+03</rscale>
<asrwt>0</asrwt>
<pdfrwt beam="1">  1        2 0.33694163E+00 0.37995784E+03</pdfrwt>
<pdfrwt beam="2">  1       -2 0.39240272E-01 0.37995784E+03</pdfrwt>
<totfact> 0.35648844E+01</totfact>
</mgrwt>
</event>
<event>
 4    1  0.1726795E-008  0.8196945E+03  0.7818608E-02  0.9531940E-01
         -2   -1    0    0    0  501 -0.00000000000E+00  0.00000000000E+00  0.81175513888E+03  0.81175513888E+03  0.25500000000E-02 0.  1.
          2   -1    0    0  501    0  0.00000000000E+00 -0.00000000000E+00 -0.25001934218E+04  0.25001934218E+04  0.25500000000E-02 0. -1.
    8880022    1    1    2    0    0 -0.78434532346E+03 -0.18250965242E+03 -0.21986208951E+04  0.23464511188E+04  0.15294330000E+03 0.  0.
    8880022    1    1    2    0    0  0.78434532346E+03  0.18250965242E+03  0.51018261211E+03  0.96549744193E+03  0.15294330000E+03 0.  0.
<mgrwt>
<rscale>  0 0.81969446E+03</rscale>
<asrwt>0</asrwt>
<pdfrwt beam="1">  1        2 0.38464514E+00 0.81969446E+03</pdfrwt>
<pdfrwt beam="2">  1       -2 0.12488541E+00 0.81969446E+03</pdfrwt>
<totfact> 0.17346136E+00</totfact>
</mgrwt>
</event>
<event>
 4    1  0.1726795E-008  0.5365138E+03  0.7818608E-02  0.1004665E+00
         -2   -1    0    0    0  501 -0.00000000000E+00  0.00000000000E+00  0.64734821532E+03  0.64734821532E+03  0.25500000000E-02 0.  1.
          2   -1    0    0  501    0  0.00000000000E+00 -0.00000000000E+00 -0.20768964246E+04  0.20768964246E+04  0.25500000000E-02 0. -1.
    8880022    1    1    2    0    0 -0.49667610992E+03  0.13329774347E+03 -0.19223120573E+04  0.19957782305E+04  0.15294330000E+03 0.  0.
    8880022    1    1    2    0    0  0.49667610992E+03 -0.13329774347E+03  0.49276384810E+03  0.72846640938E+03  0.15294330000E+03 0.  0.
<mgrwt>
<rscale>  0 0.53651384E+03</rscale>
<asrwt>0</asrwt>
<pdfrwt beam="1">  1        2 0.31952252E+00 0.53651384E+03</pdfrwt>
<pdfrwt beam="2">  1       -2 0.99592034E-01 0.53651384E+03</pdfrwt>
<totfact> 0.54664389E+00</totfact>
</mgrwt>
</event>
<event>
 4    1  0.1726795E-008  0.2975301E+03  0.7818608E-02  0.1086482E+00
          2   -1    0    0  501    0  0.00000000000E+00  0.00000000000E+00  0.21547112625E+03  0.21547112626E+03  0.25500000000E-02 0. -1.
         -2   -1    0    0    0  501 -0.00000000000E+00 -0.00000000000E+00 -0.21180278835E+04  0.21180278835E+04  0.25500000000E-02 0.  1.
    8880022    1    1    2    0    0 -0.52363585450E+02  0.24978104226E+03 -0.19987745465E+04  0.20207978263E+04  0.15294330000E+03 0.  0.
    8880022    1    1    2    0    0  0.52363585450E+02 -0.24978104226E+03  0.96217789233E+02  0.31270118345E+03  0.15294330000E+03 0.  0.
<mgrwt>
<rscale>  0 0.29753011E+03</rscale>
<asrwt>0</asrwt>
<pdfrwt beam="1">  1        2 0.33149406E-01 0.29753011E+03</pdfrwt>
<pdfrwt beam="2">  1       -2 0.32585043E+00 0.29753011E+03</pdfrwt>
<totfact> 0.40297648E+00</totfact>
</mgrwt>
</event>
<event>
 4    1  0.1726795E-008  0.1741375E+04  0.7818608E-02  0.8738112E-01
          2   -1    0    0  501    0  0.00000000000E+00  0.00000000000E+00  0.29977685100E+04  0.29977685100E+04  0.25500000000E-02 0. -1.
         -2   -1    0    0    0  501 -0.00000000000E+00 -0.00000000000E+00 -0.17287883951E+04  0.17287883951E+04  0.25500000000E-02 0.  1.
    8880022    1    1    2    0    0  0.14535566002E+04 -0.94666106475E+03  0.21567066805E+04  0.27719612768E+04  0.15294330000E+03 0.  0.
    8880022    1    1    2    0    0 -0.14535566002E+04  0.94666106475E+03 -0.88772656560E+03  0.19545956282E+04  0.15294330000E+03 0.  0.
<mgrwt>
<rscale>  0 0.17413746E+04</rscale>
<asrwt>0</asrwt>
<pdfrwt beam="1">  1        2 0.46119515E+00 0.17413746E+04</pdfrwt>
<pdfrwt beam="2">  1       -2 0.26596745E+00 0.17413746E+04</pdfrwt>
<totfact> 0.81738255E-02</totfact>
</mgrwt>
</event>
<event>
 4    1  0.1726795E-008  0.1057378E+04  0.7818608E-02  0.9247759E-01
          2   -1    0    0  501    0  0.00000000000E+00  0.00000000000E+00  0.92904548286E+03  0.92904548286E+03  0.25500000000E-02 0. -1.
         -2   -1    0    0    0  501 -0.00000000000E+00 -0.00000000000E+00 -0.12421688422E+04  0.12421688422E+04  0.25500000000E-02 0.  1.
    8880022    1    1    2    0    0  0.56848496924E+03  0.87834045656E+03  0.35132996530E+02  0.10579617660E+04  0.15294330000E+03 0.  0.
    8880022    1    1    2    0    0 -0.56848496924E+03 -0.87834045656E+03 -0.34825635591E+03  0.11132525591E+04  0.15294330000E+03 0.  0.
<mgrwt>
<rscale>  0 0.10573783E+04</rscale>
<asrwt>0</asrwt>
<pdfrwt beam="1">  1        2 0.14293007E+00 0.10573783E+04</pdfrwt>
<pdfrwt beam="2">  1       -2 0.19110290E+00 0.10573783E+04</pdfrwt>
<totfact> 0.42125979E+00</totfact>
</mgrwt>
</event>
<event>
 4    1  0.1726795E-008  0.1199962E+04  0.7818608E-02  0.9112890E-01
          2   -1    0    0  501    0  0.00000000000E+00  0.00000000000E+00  0.20563441159E+04  0.20563441159E+04  0.25500000000E-02 0. -1.
         -2   -1    0    0    0  501 -0.00000000000E+00 -0.00000000000E+00 -0.13446496478E+04  0.13446496478E+04  0.25500000000E-02 0.  1.
    8880022    1    1    2    0    0  0.11674244359E+04  0.23159532257E+03 -0.82137006461E+03  0.14541515200E+04  0.15294330000E+03 0.  0.
    8880022    1    1    2    0    0 -0.11674244359E+04 -0.23159532257E+03  0.15330645327E+04  0.19468422436E+04  0.15294330000E+03 0.  0.
<mgrwt>
<rscale>  0 0.11999616E+04</rscale>
<asrwt>0</asrwt>
<pdfrwt beam="1">  1        2 0.31636063E+00 0.11999616E+04</pdfrwt>
<pdfrwt beam="2">  1       -2 0.20686918E+00 0.11999616E+04</pdfrwt>
<totfact> 0.72454936E-01</totfact>
</mgrwt>
</event>
<event>
 4    1  0.1726795E-008  0.1329589E+04  0.7818608E-02  0.9006424E-01
          2   -1    0    0  501    0  0.00000000000E+00  0.00000000000E+00  0.25409427525E+04  0.25409427525E+04  0.25500000000E-02 0. -1.
         -2   -1    0    0    0  501 -0.00000000000E+00 -0.00000000000E+00 -0.83398696942E+03  0.83398696942E+03  0.25500000000E-02 0.  1.
    8880022    1    1    2    0    0 -0.66691281362E+02 -0.13190786165E+04  0.15405464246E+04  0.20349670914E+04  0.15294330000E+03 0.  0.
    8880022    1    1    2    0    0  0.66691281362E+02  0.13190786165E+04  0.16640935844E+03  0.13399626305E+04  0.15294330000E+03 0.  0.
<mgrwt>
<rscale>  0 0.13295893E+04</rscale>
<asrwt>0</asrwt>
<pdfrwt beam="1">  1        2 0.39091427E+00 0.13295893E+04</pdfrwt>
<pdfrwt beam="2">  1       -2 0.12830569E+00 0.13295893E+04</pdfrwt>
<totfact> 0.14284185E+00</totfact>
</mgrwt>
</event>
<event>
 4    1  0.1726795E-008  0.7637878E+03  0.7818608E-02  0.9613964E-01
          2   -1    0    0  501    0  0.00000000000E+00  0.00000000000E+00  0.21848518894E+04  0.21848518894E+04  0.25500000000E-02 0. -1.
         -2   -1    0    0    0  501 -0.00000000000E+00 -0.00000000000E+00 -0.43440749767E+03  0.43440749768E+03  0.25500000000E-02 0.  1.
    8880022    1    1    2    0    0  0.67416805602E+03  0.32477305134E+03  0.16881980212E+04  0.18529393715E+04  0.15294330000E+03 0.  0.
    8880022    1    1    2    0    0 -0.67416805602E+03 -0.32477305134E+03  0.62246370532E+02  0.76632001559E+03  0.15294330000E+03 0.  0.
<mgrwt>
<rscale>  0 0.76378777E+03</rscale>
<asrwt>0</asrwt>
<pdfrwt beam="1">  1        2 0.33613106E+00 0.76378777E+03</pdfrwt>
<pdfrwt beam="2">  1       -2 0.66831922E-01 0.76378777E+03</pdfrwt>
<totfact> 0.11234644E+01</totfact>
</mgrwt>
</event>
<event>
 4    1  0.1726795E-008  0.6514776E+03  0.7818608E-02  0.9804010E-01
          2   -1    0    0  501    0  0.00000000000E+00  0.00000000000E+00  0.28697738441E+04  0.28697738441E+04  0.25500000000E-02 0. -1.
         -2   -1    0    0    0  501 -0.00000000000E+00 -0.00000000000E+00 -0.25072145368E+03  0.25072145369E+03  0.25500000000E-02 0.  1.
    8880022    1    1    2    0    0  0.62657490517E+03  0.91843980542E+02  0.31032768444E+03  0.72161371473E+03  0.15294330000E+03 0.  0.
    8880022    1    1    2    0    0 -0.62657490517E+03 -0.91843980542E+02  0.23087247060E+04  0.23988815831E+04  0.15294330000E+03 0.  0.
<mgrwt>
<rscale>  0 0.65147761E+03</rscale>
<asrwt>0</asrwt>
<pdfrwt beam="1">  1        2 0.44150369E+00 0.65147761E+03</pdfrwt>
<pdfrwt beam="2">  1       -2 0.38572530E-01 0.65147761E+03</pdfrwt>
<totfact> 0.14334859E+01</totfact>
</mgrwt>
</event>
<event>
 4    1  0.1726795E-008  0.3579637E+03  0.7818608E-02  0.1059393E+00
          2   -1    0    0  501    0  0.00000000000E+00  0.00000000000E+00  0.10200552642E+04  0.10200552642E+04  0.25500000000E-02 0. -1.
         -2   -1    0    0    0  501 -0.00000000000E+00 -0.00000000000E+00 -0.10083056511E+04  0.10083056511E+04  0.25500000000E-02 0.  1.
    8880022    1    1    2    0    0 -0.67038882579E+02  0.31662615398E+03 -0.94302967480E+03  0.10086837729E+04  0.15294330000E+03 0.  0.
    8880022    1    1    2    0    0  0.67038882579E+02 -0.31662615398E+03  0.95477928792E+03  0.10196771424E+04  0.15294330000E+03 0.  0.
<mgrwt>
<rscale>  0 0.35796367E+03</rscale>
<asrwt>0</asrwt>
<pdfrwt beam="1">  1        2 0.15693158E+00 0.35796367E+03</pdfrwt>
<pdfrwt beam="2">  1       -2 0.15512395E+00 0.35796367E+03</pdfrwt>
<totfact> 0.73402217E+00</totfact>
</mgrwt>
</event>
<event>
 4    1  0.1726795E-008  0.5612327E+03  0.7818608E-02  0.9989269E-01
          2   -1    0    0  501    0  0.00000000000E+00  0.00000000000E+00  0.11878031112E+04  0.11878031113E+04  0.25500000000E-02 0. -1.
         -2   -1    0    0    0  501 -0.00000000000E+00 -0.00000000000E+00 -0.84819204437E+03  0.84819204437E+03  0.25500000000E-02 0.  1.
    8880022    1    1    2    0    0 -0.45004472970E+03  0.29841277333E+03  0.10137974063E+04  0.11587783550E+04  0.15294330000E+03 0.  0.
    8880022    1    1    2    0    0  0.45004472970E+03 -0.29841277333E+03 -0.67418633941E+03  0.87721680061E+03  0.15294330000E+03 0.  1.
<mgrwt>
<rscale>  0 0.56123266E+03</rscale>
<asrwt>0</asrwt>
<pdfrwt beam="1">  1        2 0.18273894E+00 0.56123266E+03</pdfrwt>
<pdfrwt beam="2">  1       -2 0.13049108E+00 0.56123266E+03</pdfrwt>
<totfact> 0.86941261E+00</totfact>
</mgrwt>
</event>
<event>
 4    1  0.1726795E-008  0.7172282E+03  0.7818608E-02  0.9688215E-01
          2   -1    0    0  501    0  0.00000000000E+00  0.00000000000E+00  0.13290114639E+04  0.13290114639E+04  0.25500000000E-02 0. -1.
         -2   -1    0    0    0  501 -0.00000000000E+00 -0.00000000000E+00 -0.81839585238E+03  0.81839585238E+03  0.25500000000E-02 0.  1.
    8880022    1    1    2    0    0 -0.69607372503E+03  0.80659969893E+02 -0.52417589911E+03  0.88835617161E+03  0.15294330000E+03 0.  0.
    8880022    1    1    2    0    0  0.69607372503E+03 -0.80659969893E+02  0.10347915106E+04  0.12590511446E+04  0.15294330000E+03 0.  0.
<mgrwt>
<rscale>  0 0.71722822E+03</rscale>
<asrwt>0</asrwt>
<pdfrwt beam="1">  1        2 0.20446330E+00 0.71722822E+03</pdfrwt>
<pdfrwt beam="2">  1       -2 0.12590706E+00 0.71722822E+03</pdfrwt>
<totfact> 0.76873637E+00</totfact>
</mgrwt>
</event>
<event>
 4    1  0.1726795E-008  0.2228853E+04  0.7818608E-02  0.8506514E-01
         -2   -1    0    0    0  501 -0.00000000000E+00  0.00000000000E+00  0.15677421400E+04  0.15677421400E+04  0.25500000000E-02 0.  1.
          2   -1    0    0  501    0  0.00000000000E+00 -0.00000000000E+00 -0.39552210789E+04  0.39552210789E+04  0.25500000000E-02 0. -1.
    8880022    1    1    2    0    0 -0.21798657488E+04  0.43883914838E+03 -0.24251350297E+04  0.32937920466E+04  0.15294330000E+03 0.  0.
    8880022    1    1    2    0    0  0.21798657488E+04 -0.43883914838E+03  0.37656090864E+02  0.22291711723E+04  0.15294330000E+03 0.  0.
<mgrwt>
<rscale>  0 0.22288531E+04</rscale>
<asrwt>0</asrwt>
<pdfrwt beam="1">  1        2 0.60849555E+00 0.22288531E+04</pdfrwt>
<pdfrwt beam="2">  1       -2 0.24119110E+00 0.22288531E+04</pdfrwt>
<totfact> 0.23521504E-02</totfact>
</mgrwt>
</event>
<event>
 4    1  0.1726795E-008  0.1994009E+04  0.7818608E-02  0.8609427E-01
         -2   -1    0    0    0  501 -0.00000000000E+00  0.00000000000E+00  0.20638719532E+04  0.20638719532E+04  0.25500000000E-02 0.  1.
          2   -1    0    0  501    0  0.00000000000E+00 -0.00000000000E+00 -0.34628945015E+04  0.34628945015E+04  0.25500000000E-02 0. -1.
    8880022    1    1    2    0    0  0.29197191416E+03  0.19665794118E+04  0.11411385770E+04  0.22974488213E+04  0.15294330000E+03 0.  0.
    8880022    1    1    2    0    0 -0.29197191416E+03 -0.19665794118E+04 -0.25401611253E+04  0.32293176333E+04  0.15294330000E+03 0. -1.
<mgrwt>
<rscale>  0 0.19940095E+04</rscale>
<asrwt>0</asrwt>
<pdfrwt beam="1">  1        2 0.53275300E+00 0.19940095E+04</pdfrwt>
<pdfrwt beam="2">  1       -2 0.31751876E+00 0.19940095E+04</pdfrwt>
<totfact> 0.18929529E-02</totfact>
</mgrwt>
</event>
<event>
 4    1  0.1726795E-008  0.1370095E+04  0.7818608E-02  0.8975755E-01
          2   -1    0    0  501    0  0.00000000000E+00  0.00000000000E+00  0.22727518866E+04  0.22727518866E+04  0.25500000000E-02 0. -1.
         -2   -1    0    0    0  501 -0.00000000000E+00 -0.00000000000E+00 -0.10115822103E+04  0.10115822103E+04  0.25500000000E-02 0.  1.
    8880022    1    1    2    0    0 -0.94574359426E+03 -0.97945742360E+03  0.13340679750E+04  0.19123014421E+04  0.15294330000E+03 0.  0.
    8880022    1    1    2    0    0  0.94574359426E+03  0.97945742360E+03 -0.72898298699E+02  0.13720326547E+04  0.15294330000E+03 0.  0.
<mgrwt>
<rscale>  0 0.13700947E+04</rscale>
<asrwt>0</asrwt>
<pdfrwt beam="1">  1        2 0.34965413E+00 0.13700947E+04</pdfrwt>
<pdfrwt beam="2">  1       -2 0.15562804E+00 0.13700947E+04</pdfrwt>
<totfact> 0.12198255E+00</totfact>
</mgrwt>
</event>
<event>
 4    1  0.1726795E-008  0.1334513E+04  0.7818608E-02  0.9002635E-01
         -2   -1    0    0    0  501 -0.00000000000E+00  0.00000000000E+00  0.18356297774E+04  0.18356297774E+04  0.25500000000E-02 0.  1.
          2   -1    0    0  501    0  0.00000000000E+00 -0.00000000000E+00 -0.14792593132E+04  0.14792593132E+04  0.25500000000E-02 0. -1.
    8880022    1    1    2    0    0  0.13073032760E+04  0.22020853317E+03 -0.79411787252E+03  0.15529161285E+04  0.15294330000E+03 0.  0.
    8880022    1    1    2    0    0 -0.13073032760E+04 -0.22020853317E+03  0.11504883367E+04  0.17619729622E+04  0.15294330000E+03 0.  0.
<mgrwt>
<rscale>  0 0.13345131E+04</rscale>
<asrwt>0</asrwt>
<pdfrwt beam="1">  1        2 0.22757836E+00 0.13345131E+04</pdfrwt>
<pdfrwt beam="2">  1       -2 0.28240458E+00 0.13345131E+04</pdfrwt>
<totfact> 0.50869840E-01</totfact>
</mgrwt>
</event>
<event>
 4    1  0.1726795E-008  0.1501686E+04  0.7818608E-02  0.8883333E-01
          2   -1    0    0  501    0  0.00000000000E+00  0.00000000000E+00  0.22274372744E+04  0.22274372744E+04  0.25500000000E-02 0. -1.
         -2   -1    0    0    0  501 -0.00000000000E+00 -0.00000000000E+00 -0.13794398881E+04  0.13794398881E+04  0.25500000000E-02 0.  1.
    8880022    1    1    2    0    0 -0.11435669076E+04 -0.96120941170E+03 -0.50626444358E+03  0.15847284137E+04  0.15294330000E+03 0.  0.
    8880022    1    1    2    0    0  0.11435669076E+04  0.96120941170E+03  0.13542618299E+04  0.20221487488E+04  0.15294330000E+03 0.  0.
<mgrwt>
<rscale>  0 0.15016859E+04</rscale>
<asrwt>0</asrwt>
<pdfrwt beam="1">  1        2 0.34268265E+00 0.15016859E+04</pdfrwt>
<pdfrwt beam="2">  1       -2 0.21222152E+00 0.15016859E+04</pdfrwt>
<totfact> 0.51805337E-01</totfact>
</mgrwt>
</event>
<event>
 4    1  0.1726795E-008  0.1077469E+04  0.7818608E-02  0.9227435E-01
          2   -1    0    0  501    0  0.00000000000E+00  0.00000000000E+00  0.17685943776E+04  0.17685943776E+04  0.25500000000E-02 0. -1.
         -2   -1    0    0    0  501 -0.00000000000E+00 -0.00000000000E+00 -0.10650700195E+04  0.10650700195E+04  0.25500000000E-02 0.  1.
    8880022    1    1    2    0    0  0.10516276125E+04 -0.17783746833E+03 -0.52585634492E+03  0.11989425962E+04  0.15294330000E+03 0.  0.
    8880022    1    1    2    0    0 -0.10516276125E+04  0.17783746833E+03  0.12293807030E+04  0.16347218009E+04  0.15294330000E+03 0.  0.
<mgrwt>
<rscale>  0 0.10774685E+04</rscale>
<asrwt>0</asrwt>
<pdfrwt beam="1">  1        2 0.27209144E+00 0.10774685E+04</pdfrwt>
<pdfrwt beam="2">  1       -2 0.16385693E+00 0.10774685E+04</pdfrwt>
<totfact> 0.20882635E+00</totfact>
</mgrwt>
</event>
<event>
 4    1  0.1726795E-008  0.5256900E+03  0.7818608E-02  0.1007283E+00
         -2   -1    0    0    0  501 -0.00000000000E+00  0.00000000000E+00  0.82757293477E+03  0.82757293478E+03  0.25500000000E-02 0.  1.
          2   -1    0    0  501    0  0.00000000000E+00 -0.00000000000E+00 -0.14735785825E+04  0.14735785825E+04  0.25500000000E-02 0. -1.
    8880022    1    1    2    0    0 -0.43215661337E+02  0.50108958896E+03  0.68884306323E+03  0.86651877552E+03  0.15294330000E+03 0.  0.
    8880022    1    1    2    0    0  0.43215661337E+02 -0.50108958896E+03 -0.13348487109E+04  0.14346327417E+04  0.15294330000E+03 0.  0.
<mgrwt>
<rscale>  0 0.52569004E+03</rscale>
<asrwt>0</asrwt>
<pdfrwt beam="1">  1        2 0.22670440E+00 0.52569004E+03</pdfrwt>
<pdfrwt beam="2">  1       -2 0.12731891E+00 0.52569004E+03</pdfrwt>
<totfact> 0.64094014E+00</totfact>
</mgrwt>
</event>
<event>
 4    1  0.1726795E-008  0.1350178E+04  0.7818608E-02  0.8990693E-01
         -2   -1    0    0    0  501 -0.00000000000E+00  0.00000000000E+00  0.11625873902E+04  0.11625873902E+04  0.25500000000E-02 0.  1.
          2   -1    0    0  501    0  0.00000000000E+00 -0.00000000000E+00 -0.22714173244E+04  0.22714173244E+04  0.25500000000E-02 0. -1.
    8880022    1    1    2    0    0 -0.42518827538E+03  0.12723223750E+04 -0.15098854874E+04  0.20255209536E+04  0.15294330000E+03 0.  0.
    8880022    1    1    2    0    0  0.42518827538E+03 -0.12723223750E+04  0.40105555310E+03  0.14084837610E+04  0.15294330000E+03 0.  0.
<mgrwt>
<rscale>  0 0.13501781E+04</rscale>
<asrwt>0</asrwt>
<pdfrwt beam="1">  1        2 0.34944882E+00 0.13501781E+04</pdfrwt>
<pdfrwt beam="2">  1       -2 0.17885960E+00 0.13501781E+04</pdfrwt>
<totfact> 0.83098526E-01</totfact>
</mgrwt>
</event>
<event>
 4    1  0.1726795E-008  0.3982131E+03  0.7818608E-02  0.1044400E+00
         -2   -1    0    0    0  501 -0.00000000000E+00  0.00000000000E+00  0.47396267346E+03  0.47396267347E+03  0.25500000000E-02 0.  1.
          2   -1    0    0  501    0  0.00000000000E+00 -0.00000000000E+00 -0.10967618280E+04  0.10967618280E+04  0.25500000000E-02 0. -1.
    8880022    1    1    2    0    0  0.34031432760E+03 -0.13916952797E+03  0.34330597963E+03  0.52576862568E+03  0.15294330000E+03 0.  0.
    8880022    1    1    2    0    0 -0.34031432760E+03  0.13916952797E+03 -0.96610513414E+03  0.10449558758E+04  0.15294330000E+03 0. -1.
<mgrwt>
<rscale>  0 0.39821307E+03</rscale>
<asrwt>0</asrwt>
<pdfrwt beam="1">  1        2 0.16873259E+00 0.39821307E+03</pdfrwt>
<pdfrwt beam="2">  1       -2 0.72917335E-01 0.39821307E+03</pdfrwt>
<totfact> 0.39593412E+01</totfact>
</mgrwt>
</event>
<event>
 4    1  0.1726795E-008  0.8657033E+03  0.7818608E-02  0.9469500E-01
          2   -1    0    0  501    0  0.00000000000E+00  0.00000000000E+00  0.20854269486E+04  0.20854269486E+04  0.25500000000E-02 0. -1.
         -2   -1    0    0    0  501 -0.00000000000E+00 -0.00000000000E+00 -0.47143968742E+03  0.47143968743E+03  0.25500000000E-02 0.  1.
    8880022    1    1    2    0    0  0.83817704959E+03  0.15332904788E+03  0.14303076892E+04  0.16718918333E+04  0.15294330000E+03 0. -1.
    8880022    1    1    2    0    0 -0.83817704959E+03 -0.15332904788E+03  0.18367957202E+03  0.88497480279E+03  0.15294330000E+03 0.  0.
<mgrwt>
<rscale>  0 0.86570331E+03</rscale>
<asrwt>0</asrwt>
<pdfrwt beam="1">  1        2 0.32083491E+00 0.86570331E+03</pdfrwt>
<pdfrwt beam="2">  1       -2 0.72529184E-01 0.86570331E+03</pdfrwt>
<totfact> 0.10506228E+01</totfact>
</mgrwt>
</event>
<event>
 4    1  0.1726795E-008  0.1217960E+04  0.7818608E-02  0.9097280E-01
         -2   -1    0    0    0  501 -0.00000000000E+00  0.00000000000E+00  0.98871478570E+03  0.98871478571E+03  0.25500000000E-02 0.  1.
          2   -1    0    0  501    0  0.00000000000E+00 -0.00000000000E+00 -0.34040424533E+04  0.34040424533E+04  0.25500000000E-02 0. -1.
    8880022    1    1    2    0    0 -0.59834944806E+03  0.10497678394E+04 -0.28501707027E+04  0.30994998413E+04  0.15294330000E+03 0.  0.
    8880022    1    1    2    0    0  0.59834944806E+03 -0.10497678394E+04  0.43484303509E+03  0.12932573977E+04  0.15294330000E+03 0.  0.
<mgrwt>
<rscale>  0 0.12179599E+04</rscale>
<asrwt>0</asrwt>
<pdfrwt beam="1">  1        2 0.52369883E+00 0.12179599E+04</pdfrwt>
<pdfrwt beam="2">  1       -2 0.15210997E+00 0.12179599E+04</pdfrwt>
<totfact> 0.27067131E-01</totfact>
</mgrwt>
</event>
<event>
 4    1  0.1726795E-008  0.9971105E+03  0.7818608E-02  0.9311720E-01
         -2   -1    0    0    0  501 -0.00000000000E+00  0.00000000000E+00  0.49889714772E+03  0.49889714773E+03  0.25500000000E-02 0.  1.
          2   -1    0    0  501    0  0.00000000000E+00 -0.00000000000E+00 -0.40326118042E+04  0.40326118042E+04  0.25500000000E-02 0. -1.
    8880022    1    1    2    0    0 -0.77914143040E+03 -0.60313869077E+03 -0.15543672165E+03  0.10091530490E+04  0.15294330000E+03 0.  0.
    8880022    1    1    2    0    0  0.77914143040E+03  0.60313869077E+03 -0.33782779348E+04  0.35223559029E+04  0.15294330000E+03 0.  0.
<mgrwt>
<rscale>  0 0.99711048E+03</rscale>
<asrwt>0</asrwt>
<pdfrwt beam="1">  1        2 0.62040179E+00 0.99711048E+03</pdfrwt>
<pdfrwt beam="2">  1       -2 0.76753410E-01 0.99711048E+03</pdfrwt>
<totfact> 0.51498591E-01</totfact>
</mgrwt>
</event>
<event>
 4    1  0.1726795E-008  0.1176564E+04  0.7818608E-02  0.9133621E-01
          2   -1    0    0  501    0  0.00000000000E+00  0.00000000000E+00  0.15933882150E+04  0.15933882150E+04  0.25500000000E-02 0. -1.
         -2   -1    0    0    0  501 -0.00000000000E+00 -0.00000000000E+00 -0.18650180973E+04  0.18650180973E+04  0.25500000000E-02 0.  1.
    8880022    1    1    2    0    0  0.10439073154E+04  0.52073851485E+03  0.11280079415E+04  0.16299400766E+04  0.15294330000E+03 0.  0.
    8880022    1    1    2    0    0 -0.10439073154E+04 -0.52073851485E+03 -0.13996378239E+04  0.18284662357E+04  0.15294330000E+03 0.  0.
<mgrwt>
<rscale>  0 0.11765640E+04</rscale>
<asrwt>0</asrwt>
<pdfrwt beam="1">  1        2 0.24513665E+00 0.11765640E+04</pdfrwt>
<pdfrwt beam="2">  1       -2 0.28692586E+00 0.11765640E+04</pdfrwt>
<totfact> 0.42010035E-01</totfact>
</mgrwt>
</event>
<event>
 4    1  0.1726795E-008  0.7676160E+03  0.7818608E-02  0.9608112E-01
         -2   -1    0    0    0  501 -0.00000000000E+00  0.00000000000E+00  0.26589907993E+04  0.26589907993E+04  0.25500000000E-02 0.  1.
          2   -1    0    0  501    0  0.00000000000E+00 -0.00000000000E+00 -0.61030044679E+03  0.61030044679E+03  0.25500000000E-02 0. -1.
    8880022    1    1    2    0    0 -0.58030489640E+03 -0.47863235867E+03  0.23288895972E+04  0.24521339924E+04  0.15294330000E+03 0.  0.
    8880022    1    1    2    0    0  0.58030489640E+03  0.47863235867E+03 -0.28019924470E+03  0.81715725371E+03  0.15294330000E+03 0.  0.
<mgrwt>
<rscale>  0 0.76761602E+03</rscale>
<asrwt>0</asrwt>
<pdfrwt beam="1">  1        2 0.93892377E-01 0.76761602E+03</pdfrwt>
<pdfrwt beam="2">  1       -2 0.40907550E+00 0.76761602E+03</pdfrwt>
<totfact> 0.33390994E-01</totfact>
</mgrwt>
</event>
<event>
 4    1  0.1726795E-008  0.6890149E+03  0.7818608E-02  0.9736205E-01
         -2   -1    0    0    0  501 -0.00000000000E+00  0.00000000000E+00  0.10143302359E+04  0.10143302359E+04  0.25500000000E-02 0.  1.
          2   -1    0    0  501    0  0.00000000000E+00 -0.00000000000E+00 -0.11026170446E+04  0.11026170446E+04  0.25500000000E-02 0. -1.
    8880022    1    1    2    0    0 -0.42892262203E+03  0.51708336138E+03 -0.84713644603E+03  0.10919622839E+04  0.15294330000E+03 0.  0.
    8880022    1    1    2    0    0  0.42892262203E+03 -0.51708336138E+03  0.75884963733E+03  0.10249849967E+04  0.15294330000E+03 0.  0.
<mgrwt>
<rscale>  0 0.68901486E+03</rscale>
<asrwt>0</asrwt>
<pdfrwt beam="1">  1        2 0.16963339E+00 0.68901486E+03</pdfrwt>
<pdfrwt beam="2">  1       -2 0.15605081E+00 0.68901486E+03</pdfrwt>
<totfact> 0.60214171E+00</totfact>
</mgrwt>
</event>
<event>
 4    1  0.1726795E-008  0.1104770E+04  0.7818608E-02  0.9200555E-01
         -2   -1    0    0    0  501 -0.00000000000E+00  0.00000000000E+00  0.22847136460E+04  0.22847136460E+04  0.25500000000E-02 0.  1.
          2   -1    0    0  501    0  0.00000000000E+00 -0.00000000000E+00 -0.73677038567E+03  0.73677038567E+03  0.25500000000E-02 0. -1.
    8880022    1    1    2    0    0 -0.98776407165E+03  0.47058206428E+03 -0.18167432253E+02  0.11049194763E+04  0.15294330000E+03 0.  0.
    8880022    1    1    2    0    0  0.98776407165E+03 -0.47058206428E+03  0.15661106925E+04  0.19165645553E+04  0.15294330000E+03 0.  0.
<mgrwt>
<rscale>  0 0.11047701E+04</rscale>
<asrwt>0</asrwt>
<pdfrwt beam="1">  1        2 0.11334929E+00 0.11047701E+04</pdfrwt>
<pdfrwt beam="2">  1       -2 0.35149440E+00 0.11047701E+04</pdfrwt>
<totfact> 0.58312557E-01</totfact>
</mgrwt>
</event>
<event>
 4    1  0.1726795E-008  0.9394445E+03  0.7818608E-02  0.9377574E-01
         -2   -1    0    0    0  501 -0.00000000000E+00  0.00000000000E+00  0.62815279256E+03  0.62815279256E+03  0.25500000000E-02 0.  1.
          2   -1    0    0  501    0  0.00000000000E+00 -0.00000000000E+00 -0.23509817060E+04  0.23509817060E+04  0.25500000000E-02 0. -1.
    8880022    1    1    2    0    0  0.35949526304E+03  0.85435790661E+03  0.83464985266E+02  0.94314491650E+03  0.15294330000E+03 0.  0.
    8880022    1    1    2    0    0 -0.35949526304E+03 -0.85435790661E+03 -0.18062938987E+04  0.20359895821E+04  0.15294330000E+03 0.  0.
<mgrwt>
<rscale>  0 0.93944448E+03</rscale>
<asrwt>0</asrwt>
<pdfrwt beam="1">  1        2 0.36168949E+00 0.93944448E+03</pdfrwt>
<pdfrwt beam="2">  1       -2 0.96638892E-01 0.93944448E+03</pdfrwt>
<totfact> 0.38523009E+00</totfact>
</mgrwt>
</event>
<event>
 4    1  0.1726795E-008  0.9421120E+03  0.7818608E-02  0.9374418E-01
          2   -1    0    0  501    0  0.00000000000E+00  0.00000000000E+00  0.40135793928E+03  0.40135793929E+03  0.25500000000E-02 0. -1.
         -2   -1    0    0    0  501 -0.00000000000E+00 -0.00000000000E+00 -0.38491221548E+04  0.38491221548E+04  0.25500000000E-02 0.  1.
    8880022    1    1    2    0    0 -0.80590927213E+03  0.46335036436E+03 -0.31101376158E+04  0.32496970562E+04  0.15294330000E+03 0.  0.
    8880022    1    1    2    0    0  0.80590927213E+03 -0.46335036436E+03 -0.33762659976E+03  0.10007830379E+04  0.15294330000E+03 0.  0.
<mgrwt>
<rscale>  0 0.94211197E+03</rscale>
<asrwt>0</asrwt>
<pdfrwt beam="1">  1        2 0.61747378E-01 0.94211197E+03</pdfrwt>
<pdfrwt beam="2">  1       -2 0.59217261E+00 0.94211197E+03</pdfrwt>
<totfact> 0.42910381E-02</totfact>
</mgrwt>
</event>
<event>
 4    1  0.1726795E-008  0.1111691E+04  0.7818608E-02  0.9193872E-01
          2   -1    0    0  501    0  0.00000000000E+00  0.00000000000E+00  0.14685857570E+04  0.14685857570E+04  0.25500000000E-02 0. -1.
         -2   -1    0    0    0  501 -0.00000000000E+00 -0.00000000000E+00 -0.11323635836E+04  0.11323635836E+04  0.25500000000E-02 0.  1.
    8880022    1    1    2    0    0  0.66224636130E+03  0.87971256732E+03 -0.49096065252E+03  0.12152771122E+04  0.15294330000E+03 0.  0.
    8880022    1    1    2    0    0 -0.66224636130E+03 -0.87971256732E+03  0.82718282594E+03  0.13856722284E+04  0.15294330000E+03 0.  0.
<mgrwt>
<rscale>  0 0.11116906E+04</rscale>
<asrwt>0</asrwt>
<pdfrwt beam="1">  1        2 0.22593627E+00 0.11116906E+04</pdfrwt>
<pdfrwt beam="2">  1       -2 0.17420978E+00 0.11116906E+04</pdfrwt>
<totfact> 0.25784263E+00</totfact>
</mgrwt>
</event>
<event>
 4    1  0.1726795E-008  0.9259498E+03  0.7818608E-02  0.9393712E-01
         -2   -1    0    0    0  501 -0.00000000000E+00  0.00000000000E+00  0.12375358488E+04  0.12375358488E+04  0.25500000000E-02 0.  1.
          2   -1    0    0  501    0  0.00000000000E+00 -0.00000000000E+00 -0.85352296420E+03  0.85352296421E+03  0.25500000000E-02 0. -1.
    8880022    1    1    2    0    0  0.85383193185E+03  0.32397899406E+03 -0.26167161262E+03  0.96221361573E+03  0.15294330000E+03 0.  0.
    8880022    1    1    2    0    0 -0.85383193185E+03 -0.32397899406E+03  0.64568449719E+03  0.11288451973E+04  0.15294330000E+03 0.  0.
<mgrwt>
<rscale>  0 0.92594979E+03</rscale>
<asrwt>0</asrwt>
<pdfrwt beam="1">  1        2 0.13131123E+00 0.92594979E+03</pdfrwt>
<pdfrwt beam="2">  1       -2 0.19039013E+00 0.92594979E+03</pdfrwt>
<totfact> 0.48610986E+00</totfact>
</mgrwt>
</event>
<event>
 4    1  0.1726795E-008  0.1521199E+04  0.7818608E-02  0.8870477E-01
          2   -1    0    0  501    0  0.00000000000E+00  0.00000000000E+00  0.19145947424E+04  0.19145947424E+04  0.25500000000E-02 0. -1.
         -2   -1    0    0    0  501 -0.00000000000E+00 -0.00000000000E+00 -0.28390466983E+04  0.28390466983E+04  0.25500000000E-02 0.  1.
    8880022    1    1    2    0    0  0.10416922596E+04  0.10979665122E+04  0.13389613846E+04  0.20265395304E+04  0.15294330000E+03 0.  0.
    8880022    1    1    2    0    0 -0.10416922596E+04 -0.10979665122E+04 -0.22634133406E+04  0.27271019102E+04  0.15294330000E+03 0.  0.
<mgrwt>
<rscale>  0 0.15211985E+04</rscale>
<asrwt>0</asrwt>
<pdfrwt beam="1">  1        2 0.29455304E+00 0.15211985E+04</pdfrwt>
<pdfrwt beam="2">  1       -2 0.43677642E+00 0.15211985E+04</pdfrwt>
<totfact> 0.29623946E-02</totfact>
</mgrwt>
</event>
<event>
 4    1  0.1726795E-008  0.2692617E+03  0.7818608E-02  0.1101703E+00
          2   -1    0    0  501    0  0.00000000000E+00  0.00000000000E+00  0.56185081969E+03  0.56185081970E+03  0.25500000000E-02 0. -1.
         -2   -1    0    0    0  501 -0.00000000000E+00 -0.00000000000E+00 -0.13217799325E+04  0.13217799325E+04  0.25500000000E-02 0.  1.
    8880022    1    1    2    0    0  0.14347416367E+03 -0.16889458264E+03 -0.12746263107E+04  0.13027563474E+04  0.15294330000E+03 0.  1.
    8880022    1    1    2    0    0 -0.14347416367E+03  0.16889458264E+03  0.51469719788E+03  0.58087440484E+03  0.15294330000E+03 0.  0.
<mgrwt>
<rscale>  0 0.26926171E+03</rscale>
<asrwt>0</asrwt>
<pdfrwt beam="1">  1        2 0.86438588E-01 0.26926171E+03</pdfrwt>
<pdfrwt beam="2">  1       -2 0.20335076E+00 0.26926171E+03</pdfrwt>
<totfact> 0.75848939E+00</totfact>
</mgrwt>
</event>
<event>
 4    1  0.1726795E-008  0.3159033E+03  0.7818608E-02  0.1077550E+00
         -2   -1    0    0    0  501 -0.00000000000E+00  0.00000000000E+00  0.18107498317E+03  0.18107498319E+03  0.25500000000E-02 0.  1.
          2   -1    0    0  501    0  0.00000000000E+00 -0.00000000000E+00 -0.18310960592E+04  0.18310960592E+04  0.25500000000E-02 0. -1.
    8880022    1    1    2    0    0 -0.20595093032E+03  0.18435693939E+03 -0.16661721381E+04  0.16958550981E+04  0.15294330000E+03 0. -1.
    8880022    1    1    2    0    0  0.20595093032E+03 -0.18435693939E+03  0.16151062096E+02  0.31631594431E+03  0.15294330000E+03 0.  0.
<mgrwt>
<rscale>  0 0.31590334E+03</rscale>
<asrwt>0</asrwt>
<pdfrwt beam="1">  1        2 0.28170707E+00 0.31590334E+03</pdfrwt>
<pdfrwt beam="2">  1       -2 0.27857691E-01 0.31590334E+03</pdfrwt>
<totfact> 0.10651282E+02</totfact>
</mgrwt>
</event>
<event>
 4    1  0.1726795E-008  0.6848483E+03  0.7818608E-02  0.9743500E-01
         -2   -1    0    0    0  501 -0.00000000000E+00  0.00000000000E+00  0.64813389593E+03  0.64813389594E+03  0.25500000000E-02 0.  1.
          2   -1    0    0  501    0  0.00000000000E+00 -0.00000000000E+00 -0.92532280902E+03  0.92532280903E+03  0.25500000000E-02 0. -1.
    8880022    1    1    2    0    0 -0.66754999072E+03  0.16160740850E+01 -0.50588511301E+03  0.85143232402E+03  0.15294330000E+03 0.  0.
    8880022    1    1    2    0    0  0.66754999072E+03 -0.16160740850E+01  0.22869619992E+03  0.72202438095E+03  0.15294330000E+03 0.  0.
<mgrwt>
<rscale>  0 0.68484834E+03</rscale>
<asrwt>0</asrwt>
<pdfrwt beam="1">  1        2 0.14235736E+00 0.68484834E+03</pdfrwt>
<pdfrwt beam="2">  1       -2 0.99712907E-01 0.68484834E+03</pdfrwt>
<totfact> 0.23972069E+01</totfact>
</mgrwt>
</event>
<event>
 4    1  0.1726795E-008  0.4081520E+03  0.7818608E-02  0.1040993E+00
          2   -1    0    0  501    0  0.00000000000E+00  0.00000000000E+00  0.58769893307E+03  0.58769893308E+03  0.25500000000E-02 0. -1.
         -2   -1    0    0    0  501 -0.00000000000E+00 -0.00000000000E+00 -0.29178113258E+03  0.29178113260E+03  0.25500000000E-02 0.  1.
    8880022    1    1    2    0    0 -0.27478504023E+03  0.26017220331E+03  0.22222782623E+03  0.46472922597E+03  0.15294330000E+03 0.  0.
    8880022    1    1    2    0    0  0.27478504023E+03 -0.26017220331E+03  0.73689974261E+02  0.41475083970E+03  0.15294330000E+03 0.  0.
<mgrwt>
<rscale>  0 0.40815199E+03</rscale>
<asrwt>0</asrwt>
<pdfrwt beam="1">  1        2 0.90415221E-01 0.40815199E+03</pdfrwt>
<pdfrwt beam="2">  1       -2 0.44889405E-01 0.40815199E+03</pdfrwt>
<totfact> 0.24563137E+02</totfact>
</mgrwt>
</event>
<event>
 4    1  0.1726795E-008  0.1126164E+04  0.7818608E-02  0.9180059E-01
         -2   -1    0    0    0  501 -0.00000000000E+00  0.00000000000E+00  0.58459187293E+03  0.58459187294E+03  0.25500000000E-02 0.  1.
          2   -1    0    0  501    0  0.00000000000E+00 -0.00000000000E+00 -0.22701054420E+04  0.22701054420E+04  0.25500000000E-02 0. -1.
    8880022    1    1    2    0    0 -0.26013554040E+03  0.10849810234E+04 -0.54220859402E+03  0.12498944487E+04  0.15294330000E+03 0.  0.
    8880022    1    1    2    0    0  0.26013554040E+03 -0.10849810234E+04 -0.11433049751E+04  0.16048028663E+04  0.15294330000E+03 0.  0.
<mgrwt>
<rscale>  0 0.11261643E+04</rscale>
<asrwt>0</asrwt>
<pdfrwt beam="1">  1        2 0.34924699E+00 0.11261643E+04</pdfrwt>
<pdfrwt beam="2">  1       -2 0.89937212E-01 0.11261643E+04</pdfrwt>
<totfact> 0.49415720E+00</totfact>
</mgrwt>
</event>
<event>
 4    1  0.1726795E-008  0.1271210E+04  0.7818608E-02  0.9052713E-01
         -2   -1    0    0    0  501 -0.00000000000E+00  0.00000000000E+00  0.84454127992E+03  0.84454127993E+03  0.25500000000E-02 0.  1.
          2   -1    0    0  501    0  0.00000000000E+00 -0.00000000000E+00 -0.37664532527E+04  0.37664532527E+04  0.25500000000E-02 0. -1.
    8880022    1    1    2    0    0 -0.12249549628E+04  0.30342596436E+03  0.15614945300E+03  0.12807639444E+04  0.15294330000E+03 0.  1.
    8880022    1    1    2    0    0  0.12249549628E+04 -0.30342596436E+03 -0.30780614257E+04  0.33302305882E+04  0.15294330000E+03 0.  0.
<mgrwt>
<rscale>  0 0.12712095E+04</rscale>
<asrwt>0</asrwt>
<pdfrwt beam="1">  1        2 0.57945434E+00 0.12712095E+04</pdfrwt>
<pdfrwt beam="2">  1       -2 0.12992943E+00 0.12712095E+04</pdfrwt>
<totfact> 0.22458592E-01</totfact>
</mgrwt>
</event>
<event>
 4    1  0.1726795E-008  0.2020718E+03  0.7818608E-02  0.1148003E+00
         -2   -1    0    0    0  501 -0.00000000000E+00  0.00000000000E+00  0.13522573013E+03  0.13522573016E+03  0.25500000000E-02 0.  1.
          2   -1    0    0  501    0  0.00000000000E+00 -0.00000000000E+00 -0.92328920563E+03  0.92328920563E+03  0.25500000000E-02 0. -1.
    8880022    1    1    2    0    0 -0.78201612434E+01  0.13183407940E+03  0.40136750544E+02  0.20601939514E+03  0.15294330000E+03 0.  1.
    8880022    1    1    2    0    0  0.78201612434E+01 -0.13183407940E+03 -0.82820022604E+03  0.85249554065E+03  0.15294330000E+03 0.  0.
<mgrwt>
<rscale>  0 0.20207185E+03</rscale>
<asrwt>0</asrwt>
<pdfrwt beam="1">  1        2 0.14204449E+00 0.20207185E+03</pdfrwt>
<pdfrwt beam="2">  1       -2 0.20803959E-01 0.20207185E+03</pdfrwt>
<totfact> 0.58175687E+02</totfact>
</mgrwt>
</event>
<event>
 4    1  0.1726795E-008  0.4813476E+03  0.7818608E-02  0.1018765E+00
          2   -1    0    0  501    0  0.00000000000E+00  0.00000000000E+00  0.82641282514E+03  0.82641282514E+03  0.25500000000E-02 0. -1.
         -2   -1    0    0    0  501 -0.00000000000E+00 -0.00000000000E+00 -0.71816528323E+03  0.71816528323E+03  0.25500000000E-02 0.  1.
    8880022    1    1    2    0    0 -0.45048232811E+03 -0.73277261264E+02  0.65710905277E+03  0.81454763225E+03  0.15294330000E+03 0.  0.
    8880022    1    1    2    0    0  0.45048232811E+03  0.73277261264E+02 -0.54886151085E+03  0.73003047612E+03  0.15294330000E+03 0.  0.
<mgrwt>
<rscale>  0 0.48134763E+03</rscale>
<asrwt>0</asrwt>
<pdfrwt beam="1">  1        2 0.12714043E+00 0.48134763E+03</pdfrwt>
<pdfrwt beam="2">  1       -2 0.11048697E+00 0.48134763E+03</pdfrwt>
<totfact> 0.22461880E+01</totfact>
</mgrwt>
</event>
<event>
 4    1  0.1726795E-008  0.6836348E+03  0.7818608E-02  0.9745635E-01
         -2   -1    0    0    0  501 -0.00000000000E+00  0.00000000000E+00  0.15502630409E+04  0.15502630409E+04  0.25500000000E-02 0.  1.
          2   -1    0    0  501    0  0.00000000000E+00 -0.00000000000E+00 -0.30381459962E+04  0.30381459962E+04  0.25500000000E-02 0. -1.
    8880022    1    1    2    0    0 -0.40507569998E+03  0.52903554890E+03 -0.29213482249E+04  0.30002719942E+04  0.15294330000E+03 0.  0.
    8880022    1    1    2    0    0  0.40507569998E+03 -0.52903554890E+03  0.14334652697E+04  0.15881370429E+04  0.15294330000E+03 0.  0.
<mgrwt>
<rscale>  0 0.68363484E+03</rscale>
<asrwt>0</asrwt>
<pdfrwt beam="1">  1        2 0.46740707E+00 0.68363484E+03</pdfrwt>
<pdfrwt beam="2">  1       -2 0.23850201E+00 0.68363484E+03</pdfrwt>
<totfact> 0.13795456E-01</totfact>
</mgrwt>
</event>
<event>
 4    1  0.1726795E-008  0.6851697E+03  0.7818608E-02  0.9742936E-01
          2   -1    0    0  501    0  0.00000000000E+00  0.00000000000E+00  0.16381398392E+04  0.16381398392E+04  0.25500000000E-02 0. -1.
         -2   -1    0    0    0  501 -0.00000000000E+00 -0.00000000000E+00 -0.58266966148E+03  0.58266966149E+03  0.25500000000E-02 0.  1.
    8880022    1    1    2    0    0 -0.62089016572E+03  0.24609201890E+03  0.13192917184E+04  0.14866028962E+04  0.15294330000E+03 0.  0.
    8880022    1    1    2    0    0  0.62089016572E+03 -0.24609201890E+03 -0.26382154075E+03  0.73420660446E+03  0.15294330000E+03 0.  0.
<mgrwt>
<rscale>  0 0.68516971E+03</rscale>
<asrwt>0</asrwt>
<pdfrwt beam="1">  1        2 0.25202151E+00 0.68516971E+03</pdfrwt>
<pdfrwt beam="2">  1       -2 0.89641488E-01 0.68516971E+03</pdfrwt>
<totfact> 0.11741612E+01</totfact>
</mgrwt>
</event>
<event>
 4    1  0.1726795E-008  0.1054414E+04  0.7818608E-02  0.9250799E-01
         -2   -1    0    0    0  501 -0.00000000000E+00  0.00000000000E+00  0.42957220354E+04  0.42957220354E+04  0.25500000000E-02 0.  1.
          2   -1    0    0  501    0  0.00000000000E+00 -0.00000000000E+00 -0.75684521545E+03  0.75684521546E+03  0.25500000000E-02 0. -1.
    8880022    1    1    2    0    0 -0.91859166272E+03 -0.49455643633E+03 -0.27987001316E+03  0.10909241902E+04  0.15294330000E+03 0.  0.
    8880022    1    1    2    0    0  0.91859166272E+03  0.49455643633E+03  0.38187468331E+04  0.39616430606E+04  0.15294330000E+03 0.  0.
<mgrwt>
<rscale>  0 0.10544138E+04</rscale>
<asrwt>0</asrwt>
<pdfrwt beam="1">  1        2 0.11643773E+00 0.10544138E+04</pdfrwt>
<pdfrwt beam="2">  1       -2 0.66088031E+00 0.10544138E+04</pdfrwt>
<totfact> 0.11249821E-02</totfact>
</mgrwt>
</event>
<event>
 4    1  0.1726795E-008  0.1618184E+03  0.7818608E-02  0.1186659E+00
          2   -1    0    0  501    0  0.00000000000E+00  0.00000000000E+00  0.13020201143E+04  0.13020201143E+04  0.25500000000E-02 0. -1.
         -2   -1    0    0    0  501 -0.00000000000E+00 -0.00000000000E+00 -0.56499801517E+02  0.56499801574E+02  0.25500000000E-02 0.  1.
    8880022    1    1    2    0    0  0.19932048617E+02 -0.48951531925E+02  0.11678840421E+04  0.11790412748E+04  0.15294330000E+03 0.  0.
    8880022    1    1    2    0    0 -0.19932048617E+02  0.48951531925E+02  0.77636270697E+02  0.17947864102E+03  0.15294330000E+03 0.  1.
<mgrwt>
<rscale>  0 0.16181839E+03</rscale>
<asrwt>0</asrwt>
<pdfrwt beam="1">  1        2 0.20031078E+00 0.16181839E+03</pdfrwt>
<pdfrwt beam="2">  1       -2 0.86922774E-02 0.16181839E+03</pdfrwt>
<totfact> 0.14575148E+03</totfact>
</mgrwt>
</event>
<event>
 4    1  0.1726795E-008  0.1655271E+04  0.7818608E-02  0.8787294E-01
         -2   -1    0    0    0  501 -0.00000000000E+00  0.00000000000E+00  0.13209194147E+04  0.13209194147E+04  0.25500000000E-02 0.  1.
          2   -1    0    0  501    0  0.00000000000E+00 -0.00000000000E+00 -0.23053219411E+04  0.23053219411E+04  0.25500000000E-02 0. -1.
    8880022    1    1    2    0    0  0.15678652670E+02  0.16481157216E+04 -0.10662257151E+04  0.19689490040E+04  0.15294330000E+03 0.  0.
    8880022    1    1    2    0    0 -0.15678652670E+02 -0.16481157216E+04  0.81823188642E+02  0.16572923518E+04  0.15294330000E+03 0.  0.
<mgrwt>
<rscale>  0 0.16552712E+04</rscale>
<asrwt>0</asrwt>
<pdfrwt beam="1">  1        2 0.35466491E+00 0.16552712E+04</pdfrwt>
<pdfrwt beam="2">  1       -2 0.20321837E+00 0.16552712E+04</pdfrwt>
<totfact> 0.52724789E-01</totfact>
</mgrwt>
</event>
<event>
 4    1  0.1726795E-008  0.5709133E+03  0.7818608E-02  0.9967660E-01
         -2   -1    0    0    0  501 -0.00000000000E+00  0.00000000000E+00  0.31757942746E+03  0.31757942747E+03  0.25500000000E-02 0.  1.
          2   -1    0    0  501    0  0.00000000000E+00 -0.00000000000E+00 -0.10630232363E+04  0.10630232363E+04  0.25500000000E-02 0. -1.
    8880022    1    1    2    0    0  0.51725489133E+03  0.18707663021E+03 -0.50096921800E+03  0.75954729845E+03  0.15294330000E+03 0.  0.
    8880022    1    1    2    0    0 -0.51725489133E+03 -0.18707663021E+03 -0.24447459080E+03  0.62105536528E+03  0.15294330000E+03 0.  0.
<mgrwt>
<rscale>  0 0.57091325E+03</rscale>
<asrwt>0</asrwt>
<pdfrwt beam="1">  1        2 0.16354203E+00 0.57091325E+03</pdfrwt>
<pdfrwt beam="2">  1       -2 0.48858374E-01 0.57091325E+03</pdfrwt>
<totfact> 0.93894619E+01</totfact>
</mgrwt>
</event>
<event>
 4    1  0.1726795E-008  0.9720408E+03  0.7818608E-02  0.9339753E-01
          2   -1    0    0  501    0  0.00000000000E+00  0.00000000000E+00  0.93730986550E+03  0.93730986551E+03  0.25500000000E-02 0. -1.
         -2   -1    0    0    0  501 -0.00000000000E+00 -0.00000000000E+00 -0.11844856675E+04  0.11844856675E+04  0.25500000000E-02 0.  1.
    8880022    1    1    2    0    0 -0.42577858115E+03 -0.86033966239E+03 -0.53302866983E+03  0.11085950346E+04  0.15294330000E+03 0.  0.
    8880022    1    1    2    0    0  0.42577858115E+03  0.86033966239E+03  0.28585286787E+03  0.10132004984E+04  0.15294330000E+03 0.  0.
<mgrwt>
<rscale>  0 0.97204084E+03</rscale>
<asrwt>0</asrwt>
<pdfrwt beam="1">  1        2 0.14420152E+00 0.97204084E+03</pdfrwt>
<pdfrwt beam="2">  1       -2 0.18222857E+00 0.97204084E+03</pdfrwt>
<totfact> 0.48175648E+00</totfact>
</mgrwt>
</event>
<event>
 4    1  0.1726795E-008  0.7095491E+03  0.7818608E-02  0.9701040E-01
         -2   -1    0    0    0  501 -0.00000000000E+00  0.00000000000E+00  0.19537574215E+04  0.19537574215E+04  0.25500000000E-02 0.  1.
          2   -1    0    0  501    0  0.00000000000E+00 -0.00000000000E+00 -0.81932341731E+03  0.81932341731E+03  0.25500000000E-02 0. -1.
    8880022    1    1    2    0    0  0.68826221925E+03 -0.79770768419E+02 -0.58075707302E+03  0.91691803822E+03  0.15294330000E+03 0.  0.
    8880022    1    1    2    0    0 -0.68826221925E+03  0.79770768419E+02  0.17151910772E+04  0.18561628005E+04  0.15294330000E+03 0.  0.
<mgrwt>
<rscale>  0 0.70954909E+03</rscale>
<asrwt>0</asrwt>
<pdfrwt beam="1">  1        2 0.12604976E+00 0.70954909E+03</pdfrwt>
<pdfrwt beam="2">  1       -2 0.30057806E+00 0.70954909E+03</pdfrwt>
<totfact> 0.11068195E+00</totfact>
</mgrwt>
</event>
<event>
 4    1  0.1726795E-008  0.1191013E+04  0.7818608E-02  0.9120760E-01
          2   -1    0    0  501    0  0.00000000000E+00  0.00000000000E+00  0.24977959084E+04  0.24977959084E+04  0.25500000000E-02 0. -1.
         -2   -1    0    0    0  501 -0.00000000000E+00 -0.00000000000E+00 -0.68147084619E+03  0.68147084620E+03  0.25500000000E-02 0.  1.
    8880022    1    1    2    0    0  0.67633264056E+03 -0.96834574304E+03  0.15570913482E+04  0.19603684445E+04  0.15294330000E+03 0.  0.
    8880022    1    1    2    0    0 -0.67633264056E+03  0.96834574304E+03  0.25923371402E+03  0.12188983101E+04  0.15294330000E+03 0.  0.
<mgrwt>
<rscale>  0 0.11910126E+04</rscale>
<asrwt>0</asrwt>
<pdfrwt beam="1">  1        2 0.38427629E+00 0.11910126E+04</pdfrwt>
<pdfrwt beam="2">  1       -2 0.10484167E+00 0.11910126E+04</pdfrwt>
<totfact> 0.25338602E+00</totfact>
</mgrwt>
</event>
<event>
 4    1  0.1726795E-008  0.5274609E+03  0.7818608E-02  0.1006850E+00
         -2   -1    0    0    0  501 -0.00000000000E+00  0.00000000000E+00  0.38678534099E+03  0.38678534100E+03  0.25500000000E-02 0.  1.
          2   -1    0    0  501    0  0.00000000000E+00 -0.00000000000E+00 -0.22093805106E+04  0.22093805106E+04  0.25500000000E-02 0. -1.
    8880022    1    1    2    0    0  0.47011257658E+03  0.18389553012E+03  0.15473851213E+03  0.54968996789E+03  0.15294330000E+03 0.  0.
    8880022    1    1    2    0    0 -0.47011257658E+03 -0.18389553012E+03 -0.19773336817E+04  0.20464758837E+04  0.15294330000E+03 0.  0.
<mgrwt>
<rscale>  0 0.52746095E+03</rscale>
<asrwt>0</asrwt>
<pdfrwt beam="1">  1        2 0.33990469E+00 0.52746095E+03</pdfrwt>
<pdfrwt beam="2">  1       -2 0.59505438E-01 0.52746095E+03</pdfrwt>
<totfact> 0.14558448E+01</totfact>
</mgrwt>
</event>
<event>
 4    1  0.1726795E-008  0.3969032E+03  0.7818608E-02  0.1044857E+00
          2   -1    0    0  501    0  0.00000000000E+00  0.00000000000E+00  0.11006679405E+04  0.11006679405E+04  0.25500000000E-02 0. -1.
         -2   -1    0    0    0  501 -0.00000000000E+00 -0.00000000000E+00 -0.15622359190E+03  0.15622359192E+03  0.25500000000E-02 0.  1.
    8880022    1    1    2    0    0  0.33625734357E+03 -0.14516022939E+03  0.65420112201E+03  0.76518707147E+03  0.15294330000E+03 0.  0.
    8880022    1    1    2    0    0 -0.33625734357E+03  0.14516022939E+03  0.29024322656E+03  0.49170446091E+03  0.15294330000E+03 0.  0.
<mgrwt>
<rscale>  0 0.39690320E+03</rscale>
<asrwt>0</asrwt>
<pdfrwt beam="1">  1        2 0.16933353E+00 0.39690320E+03</pdfrwt>
<pdfrwt beam="2">  1       -2 0.24034399E-01 0.39690320E+03</pdfrwt>
<totfact> 0.34577965E+02</totfact>
</mgrwt>
</event>
<event>
 4    1  0.1726795E-008  0.3866892E+03  0.7818608E-02  0.1048489E+00
         -2   -1    0    0    0  501 -0.00000000000E+00  0.00000000000E+00  0.48039696028E+03  0.48039696029E+03  0.25500000000E-02 0.  1.
          2   -1    0    0  501    0  0.00000000000E+00 -0.00000000000E+00 -0.40167810142E+03  0.40167810143E+03  0.25500000000E-02 0. -1.
    8880022    1    1    2    0    0  0.29882470487E+03  0.19193936124E+03 -0.16988941742E+03  0.42236357537E+03  0.15294330000E+03 0.  0.
    8880022    1    1    2    0    0 -0.29882470487E+03 -0.19193936124E+03  0.24860827629E+03  0.45971148635E+03  0.15294330000E+03 0.  0.
<mgrwt>
<rscale>  0 0.38668925E+03</rscale>
<asrwt>0</asrwt>
<pdfrwt beam="1">  1        2 0.61796631E-01 0.38668925E+03</pdfrwt>
<pdfrwt beam="2">  1       -2 0.73907224E-01 0.38668925E+03</pdfrwt>
<totfact> 0.13464308E+02</totfact>
</mgrwt>
</event>
<event>
 4    1  0.1726795E-008  0.1200768E+04  0.7818608E-02  0.9112184E-01
          2   -1    0    0  501    0  0.00000000000E+00  0.00000000000E+00  0.97380788913E+03  0.97380788914E+03  0.25500000000E-02 0. -1.
         -2   -1    0    0    0  501 -0.00000000000E+00 -0.00000000000E+00 -0.23253166717E+04  0.23253166717E+04  0.25500000000E-02 0.  1.
    8880022    1    1    2    0    0 -0.51256273210E+03  0.10750501103E+04 -0.16699608988E+04  0.20568457285E+04  0.15294330000E+03 0.  0.
    8880022    1    1    2    0    0  0.51256273210E+03 -0.10750501103E+04  0.31845211625E+03  0.12422788324E+04  0.15294330000E+03 0.  0.
<mgrwt>
<rscale>  0 0.12007685E+04</rscale>
<asrwt>0</asrwt>
<pdfrwt beam="1">  1        2 0.14981660E+00 0.12007685E+04</pdfrwt>
<pdfrwt beam="2">  1       -2 0.35774103E+00 0.12007685E+04</pdfrwt>
<totfact> 0.35806674E-01</totfact>
</mgrwt>
</event>
<event>
 4    1  0.1726795E-008  0.7191657E+03  0.7818608E-02  0.9685006E-01
          2   -1    0    0  501    0  0.00000000000E+00  0.00000000000E+00  0.21771217098E+04  0.21771217098E+04  0.25500000000E-02 0. -1.
         -2   -1    0    0    0  501 -0.00000000000E+00 -0.00000000000E+00 -0.78124093945E+03  0.78124093945E+03  0.25500000000E-02 0.  1.
    8880022    1    1    2    0    0  0.39254442303E+03 -0.58285208233E+03  0.19318988776E+04  0.20614151936E+04  0.15294330000E+03 0.  0.
    8880022    1    1    2    0    0 -0.39254442303E+03  0.58285208233E+03 -0.53601810726E+03  0.89694745568E+03  0.15294330000E+03 0.  0.
<mgrwt>
<rscale>  0 0.71916572E+03</rscale>
<asrwt>0</asrwt>
<pdfrwt beam="1">  1        2 0.33494180E+00 0.71916572E+03</pdfrwt>
<pdfrwt beam="2">  1       -2 0.12019091E+00 0.71916572E+03</pdfrwt>
<totfact> 0.29458500E+00</totfact>
</mgrwt>
</event>
<event>
 4    1  0.1726795E-008  0.1559024E+04  0.7818608E-02  0.8846124E-01
          2   -1    0    0  501    0  0.00000000000E+00  0.00000000000E+00  0.28333467736E+04  0.28333467736E+04  0.25500000000E-02 0. -1.
         -2   -1    0    0    0  501 -0.00000000000E+00 -0.00000000000E+00 -0.15911226857E+04  0.15911226857E+04  0.25500000000E-02 0.  1.
    8880022    1    1    2    0    0  0.50640987725E+03 -0.14665310144E+04  0.21229232285E+04  0.26338866466E+04  0.15294330000E+03 0.  0.
    8880022    1    1    2    0    0 -0.50640987725E+03  0.14665310144E+04 -0.88069914063E+03  0.17905828128E+04  0.15294330000E+03 0.  0.
<mgrwt>
<rscale>  0 0.15590240E+04</rscale>
<asrwt>0</asrwt>
<pdfrwt beam="1">  1        2 0.43589950E+00 0.15590240E+04</pdfrwt>
<pdfrwt beam="2">  1       -2 0.24478811E+00 0.15590240E+04</pdfrwt>
<totfact> 0.14241256E-01</totfact>
</mgrwt>
</event>
<event>
 4    1  0.1726795E-008  0.3786047E+03  0.7818608E-02  0.1051451E+00
          2   -1    0    0  501    0  0.00000000000E+00  0.00000000000E+00  0.24895635551E+04  0.24895635551E+04  0.25500000000E-02 0. -1.
         -2   -1    0    0    0  501 -0.00000000000E+00 -0.00000000000E+00 -0.23416318957E+03  0.23416318958E+03  0.25500000000E-02 0.  1.
    8880022    1    1    2    0    0 -0.98821257852E+02 -0.33194005342E+03  0.23103404116E+04  0.23411566181E+04  0.15294330000E+03 0.  0.
    8880022    1    1    2    0    0  0.98821257852E+02  0.33194005342E+03 -0.54940046059E+02  0.38257012657E+03  0.15294330000E+03 0.  0.
<mgrwt>
<rscale>  0 0.37860467E+03</rscale>
<asrwt>0</asrwt>
<pdfrwt beam="1">  1        2 0.38300980E+00 0.37860467E+03</pdfrwt>
<pdfrwt beam="2">  1       -2 0.36025104E-01 0.37860467E+03</pdfrwt>
<totfact> 0.28819514E+01</totfact>
</mgrwt>
</event>
<event>
 4    1  0.1726795E-008  0.7878894E+03  0.7818608E-02  0.9577714E-01
         -2   -1    0    0    0  501 -0.00000000000E+00  0.00000000000E+00  0.13258314634E+04  0.13258314634E+04  0.25500000000E-02 0.  1.
          2   -1    0    0  501    0  0.00000000000E+00 -0.00000000000E+00 -0.22533634305E+04  0.22533634305E+04  0.25500000000E-02 0. -1.
    8880022    1    1    2    0    0  0.35037578021E+03 -0.68892300342E+03 -0.20566248728E+04  0.22023795341E+04  0.15294330000E+03 0.  0.
    8880022    1    1    2    0    0 -0.35037578021E+03  0.68892300342E+03  0.11290929057E+04  0.13768153597E+04  0.15294330000E+03 0.  0.
<mgrwt>
<rscale>  0 0.78788942E+03</rscale>
<asrwt>0</asrwt>
<pdfrwt beam="1">  1        2 0.34667130E+00 0.78788942E+03</pdfrwt>
<pdfrwt beam="2">  1       -2 0.20397407E+00 0.78788942E+03</pdfrwt>
<totfact> 0.62943675E-01</totfact>
</mgrwt>
</event>
<event>
 4    1  0.1726795E-008  0.1932793E+04  0.7818608E-02  0.8638703E-01
          2   -1    0    0  501    0  0.00000000000E+00  0.00000000000E+00  0.18986710731E+04  0.18986710731E+04  0.25500000000E-02 0. -1.
         -2   -1    0    0    0  501 -0.00000000000E+00 -0.00000000000E+00 -0.36001058523E+04  0.36001058523E+04  0.25500000000E-02 0.  1.
    8880022    1    1    2    0    0  0.14697612166E+03  0.19211186490E+04 -0.27021814281E+04  0.33222695507E+04  0.15294330000E+03 0.  0.
    8880022    1    1    2    0    0 -0.14697612166E+03 -0.19211186490E+04  0.10007466488E+04  0.21765073747E+04  0.15294330000E+03 0.  0.
<mgrwt>
<rscale>  0 0.19327934E+04</rscale>
<asrwt>0</asrwt>
<pdfrwt beam="1">  1        2 0.29210324E+00 0.19327934E+04</pdfrwt>
<pdfrwt beam="2">  1       -2 0.55386244E+00 0.19327934E+04</pdfrwt>
<totfact> 0.54137468E-03</totfact>
</mgrwt>
</event>
<event>
 4    1  0.1726795E-008  0.8268589E+03  0.7818608E-02  0.9521934E-01
         -2   -1    0    0    0  501 -0.00000000000E+00  0.00000000000E+00  0.13603906152E+04  0.13603906152E+04  0.25500000000E-02 0.  1.
          2   -1    0    0  501    0  0.00000000000E+00 -0.00000000000E+00 -0.63120558425E+03  0.63120558425E+03  0.25500000000E-02 0. -1.
    8880022    1    1    2    0    0  0.74834407883E+03 -0.31667828511E+03 -0.84940200004E+02  0.83121025450E+03  0.15294330000E+03 0.  0.
    8880022    1    1    2    0    0 -0.74834407883E+03  0.31667828511E+03  0.81412523100E+03  0.11603859450E+04  0.15294330000E+03 0.  0.
<mgrwt>
<rscale>  0 0.82685891E+03</rscale>
<asrwt>0</asrwt>
<pdfrwt beam="1">  1        2 0.97108552E-01 0.82685891E+03</pdfrwt>
<pdfrwt beam="2">  1       -2 0.20929086E+00 0.82685891E+03</pdfrwt>
<totfact> 0.54627640E+00</totfact>
</mgrwt>
</event>
<event>
 4    1  0.1726795E-008  0.4471339E+03  0.7818608E-02  0.1028580E+00
          2   -1    0    0  501    0  0.00000000000E+00  0.00000000000E+00  0.74335044552E+03  0.74335044552E+03  0.25500000000E-02 0. -1.
         -2   -1    0    0    0  501 -0.00000000000E+00 -0.00000000000E+00 -0.40729806232E+03  0.40729806233E+03  0.25500000000E-02 0.  1.
    8880022    1    1    2    0    0  0.31798704405E+03  0.27462937222E+03  0.50332602073E+03  0.67325016779E+03  0.15294330000E+03 0.  0.
    8880022    1    1    2    0    0 -0.31798704405E+03 -0.27462937222E+03 -0.16727363753E+03  0.47739834007E+03  0.15294330000E+03 0. -1.
<mgrwt>
<rscale>  0 0.44713388E+03</rscale>
<asrwt>0</asrwt>
<pdfrwt beam="1">  1        2 0.11436161E+00 0.44713388E+03</pdfrwt>
<pdfrwt beam="2">  1       -2 0.62661240E-01 0.44713388E+03</pdfrwt>
<totfact> 0.92994889E+01</totfact>
</mgrwt>
</event>
<event>
 4    1  0.1726795E-008  0.4753306E+03  0.7818608E-02  0.1020426E+00
          2   -1    0    0  501    0  0.00000000000E+00  0.00000000000E+00  0.26100399012E+04  0.26100399012E+04  0.25500000000E-02 0. -1.
         -2   -1    0    0    0  501 -0.00000000000E+00 -0.00000000000E+00 -0.39792738011E+03  0.39792738012E+03  0.25500000000E-02 0.  1.
    8880022    1    1    2    0    0  0.19797051194E+03  0.40417230239E+03 -0.22431841816E+03  0.52560249177E+03  0.15294330000E+03 0.  1.
    8880022    1    1    2    0    0 -0.19797051194E+03 -0.40417230239E+03  0.24364309392E+04  0.24823647895E+04  0.15294330000E+03 0.  0.
<mgrwt>
<rscale>  0 0.47533065E+03</rscale>
<asrwt>0</asrwt>
<pdfrwt beam="1">  1        2 0.40154460E+00 0.47533065E+03</pdfrwt>
<pdfrwt beam="2">  1       -2 0.61219598E-01 0.47533065E+03</pdfrwt>
<totfact> 0.83283875E+00</totfact>
</mgrwt>
</event>
<event>
 4    1  0.1726795E-008  0.1941147E+03  0.7818608E-02  0.1154802E+00
          2   -1    0    0  501    0  0.00000000000E+00  0.00000000000E+00  0.13027819737E+03  0.13027819740E+03  0.25500000000E-02 0. -1.
         -2   -1    0    0    0  501 -0.00000000000E+00 -0.00000000000E+00 -0.26152419388E+04  0.26152419388E+04  0.25500000000E-02 0.  1.
    8880022    1    1    2    0    0 -0.95259175653E+02  0.72211742075E+02  0.52144871466E+02  0.20099648473E+03  0.15294330000E+03 0.  0.
    8880022    1    1    2    0    0  0.95259175653E+02 -0.72211742075E+02 -0.25371086129E+04  0.25445236515E+04  0.15294330000E+03 0.  1.
<mgrwt>
<rscale>  0 0.19411465E+03</rscale>
<asrwt>0</asrwt>
<pdfrwt beam="1">  1        2 0.20042802E-01 0.19411465E+03</pdfrwt>
<pdfrwt beam="2">  1       -2 0.40234487E+00 0.19411465E+03</pdfrwt>
<totfact> 0.25160531E+00</totfact>
</mgrwt>
</event>
<event>
 4    1  0.1726795E-008  0.2319756E+03  0.7818608E-02  0.1125257E+00
         -2   -1    0    0    0  501 -0.00000000000E+00  0.00000000000E+00  0.68363091202E+02  0.68363091250E+02  0.25500000000E-02 0.  1.
          2   -1    0    0  501    0  0.00000000000E+00 -0.00000000000E+00 -0.19972624664E+04  0.19972624664E+04  0.25500000000E-02 0. -1.
    8880022    1    1    2    0    0  0.15020336198E+03 -0.88656566154E+02 -0.17683738996E+04  0.17835243028E+04  0.15294330000E+03 0. -1.
    8880022    1    1    2    0    0 -0.15020336198E+03  0.88656566154E+02 -0.16052547552E+03  0.28210125483E+03  0.15294330000E+03 0.  0.
<mgrwt>
<rscale>  0 0.23197562E+03</rscale>
<asrwt>0</asrwt>
<pdfrwt beam="1">  1        2 0.30727110E+00 0.23197562E+03</pdfrwt>
<pdfrwt beam="2">  1       -2 0.10517400E-01 0.23197562E+03</pdfrwt>
<totfact> 0.46067492E+02</totfact>
</mgrwt>
</event>
<event>
 4    1  0.1726795E-008  0.3887810E+03  0.7818608E-02  0.1047735E+00
          2   -1    0    0  501    0  0.00000000000E+00  0.00000000000E+00  0.19533710239E+04  0.19533710239E+04  0.25500000000E-02 0. -1.
         -2   -1    0    0    0  501 -0.00000000000E+00 -0.00000000000E+00 -0.10513616438E+03  0.10513616441E+03  0.25500000000E-02 0.  1.
    8880022    1    1    2    0    0  0.25604303983E+03 -0.24940125133E+03  0.14529652965E+04  0.15040807253E+04  0.15294330000E+03 0.  1.
    8880022    1    1    2    0    0 -0.25604303983E+03  0.24940125133E+03  0.39526956305E+03  0.55442646302E+03  0.15294330000E+03 0.  0.
<mgrwt>
<rscale>  0 0.38878101E+03</rscale>
<asrwt>0</asrwt>
<pdfrwt beam="1">  1        2 0.30051863E+00 0.38878101E+03</pdfrwt>
<pdfrwt beam="2">  1       -2 0.16174794E-01 0.38878101E+03</pdfrwt>
<totfact> 0.23308219E+02</totfact>
</mgrwt>
</event>
<event>
 4    1  0.1726795E-008  0.7217446E+03  0.7818608E-02  0.9680752E-01
         -2   -1    0    0    0  501 -0.00000000000E+00  0.00000000000E+00  0.28320177396E+03  0.28320177397E+03  0.25500000000E-02 0.  1.
          2   -1    0    0  501    0  0.00000000000E+00 -0.00000000000E+00 -0.20700093486E+04  0.20700093486E+04  0.25500000000E-02 0. -1.
    8880022    1    1    2    0    0 -0.68504806522E+03 -0.16802587390E+03 -0.12861424214E+04  0.14748144043E+04  0.15294330000E+03 0.  0.
    8880022    1    1    2    0    0  0.68504806522E+03  0.16802587390E+03 -0.50066515320E+03  0.87839671823E+03  0.15294330000E+03 0.  0.
<mgrwt>
<rscale>  0 0.72174455E+03</rscale>
<asrwt>0</asrwt>
<pdfrwt beam="1">  1        2 0.31846297E+00 0.72174455E+03</pdfrwt>
<pdfrwt beam="2">  1       -2 0.43569505E-01 0.72174455E+03</pdfrwt>
<totfact> 0.31653468E+01</totfact>
</mgrwt>
</event>
<event>
 4    1  0.1726795E-008  0.1052661E+04  0.7818608E-02  0.9252601E-01
         -2   -1    0    0    0  501 -0.00000000000E+00  0.00000000000E+00  0.12534871450E+04  0.12534871450E+04  0.25500000000E-02 0.  1.
          2   -1    0    0  501    0  0.00000000000E+00 -0.00000000000E+00 -0.11937506352E+04  0.11937506352E+04  0.25500000000E-02 0. -1.
    8880022    1    1    2    0    0 -0.75295725834E+03  0.71955434068E+03  0.65315616260E+03  0.12388332042E+04  0.15294330000E+03 0.  0.
    8880022    1    1    2    0    0  0.75295725834E+03 -0.71955434068E+03 -0.59341965277E+03  0.12084045760E+04  0.15294330000E+03 0.  0.
<mgrwt>
<rscale>  0 0.10526608E+04</rscale>
<asrwt>0</asrwt>
<pdfrwt beam="1">  1        2 0.18365394E+00 0.10526608E+04</pdfrwt>
<pdfrwt beam="2">  1       -2 0.19284418E+00 0.10526608E+04</pdfrwt>
<totfact> 0.27943639E+00</totfact>
</mgrwt>
</event>
<event>
 4    1  0.1726795E-008  0.1233887E+04  0.7818608E-02  0.9083702E-01
          2   -1    0    0  501    0  0.00000000000E+00  0.00000000000E+00  0.19635457653E+04  0.19635457653E+04  0.25500000000E-02 0. -1.
         -2   -1    0    0    0  501 -0.00000000000E+00 -0.00000000000E+00 -0.14786388138E+04  0.14786388138E+04  0.25500000000E-02 0.  1.
    8880022    1    1    2    0    0  0.51431737117E+03 -0.11111087504E+04  0.14294062605E+04  0.18883005386E+04  0.15294330000E+03 0.  0.
    8880022    1    1    2    0    0 -0.51431737117E+03  0.11111087504E+04 -0.94449930908E+03  0.15538840405E+04  0.15294330000E+03 0.  0.
<mgrwt>
<rscale>  0 0.12338868E+04</rscale>
<asrwt>0</asrwt>
<pdfrwt beam="1">  1        2 0.30208396E+00 0.12338868E+04</pdfrwt>
<pdfrwt beam="2">  1       -2 0.22748289E+00 0.12338868E+04</pdfrwt>
<totfact> 0.60043442E-01</totfact>
</mgrwt>
</event>
<event>
 4    1  0.1726795E-008  0.7122518E+03  0.7818608E-02  0.9696506E-01
          2   -1    0    0  501    0  0.00000000000E+00  0.00000000000E+00  0.32029385450E+04  0.32029385450E+04  0.25500000000E-02 0. -1.
         -2   -1    0    0    0  501 -0.00000000000E+00 -0.00000000000E+00 -0.59081079473E+03  0.59081079474E+03  0.25500000000E-02 0.  1.
    8880022    1    1    2    0    0  0.68705763215E+03  0.10891669812E+03 -0.31675255637E+03  0.77950937904E+03  0.15294330000E+03 0.  0.
    8880022    1    1    2    0    0 -0.68705763215E+03 -0.10891669812E+03  0.29288803066E+04  0.30142399607E+04  0.15294330000E+03 0.  0.
<mgrwt>
<rscale>  0 0.71225184E+03</rscale>
<asrwt>0</asrwt>
<pdfrwt beam="1">  1        2 0.49275976E+00 0.71225184E+03</pdfrwt>
<pdfrwt beam="2">  1       -2 0.90893971E-01 0.71225184E+03</pdfrwt>
<totfact> 0.14467836E+00</totfact>
</mgrwt>
</event>
<event>
 4    1  0.1726795E-008  0.2660166E+03  0.7818608E-02  0.1103581E+00
          2   -1    0    0  501    0  0.00000000000E+00  0.00000000000E+00  0.13257827120E+04  0.13257827120E+04  0.25500000000E-02 0. -1.
         -2   -1    0    0    0  501 -0.00000000000E+00 -0.00000000000E+00 -0.71363952029E+02  0.71363952075E+02  0.25500000000E-02 0.  1.
    8880022    1    1    2    0    0 -0.13000346725E+03 -0.17456304478E+03  0.27648582333E+03  0.38367853943E+03  0.15294330000E+03 0.  0.
    8880022    1    1    2    0    0  0.13000346725E+03  0.17456304478E+03  0.97793293669E+03  0.10134681247E+04  0.15294330000E+03 0.  0.
<mgrwt>
<rscale>  0 0.26601656E+03</rscale>
<asrwt>0</asrwt>
<pdfrwt beam="1">  1        2 0.20396655E+00 0.26601656E+03</pdfrwt>
<pdfrwt beam="2">  1       -2 0.10979070E-01 0.26601656E+03</pdfrwt>
<totfact> 0.97170744E+02</totfact>
</mgrwt>
</event>
<event>
 4    1  0.1726795E-008  0.4703906E+03  0.7818608E-02  0.1021810E+00
         -2   -1    0    0    0  501 -0.00000000000E+00  0.00000000000E+00  0.38469018462E+03  0.38469018463E+03  0.25500000000E-02 0.  1.
          2   -1    0    0  501    0  0.00000000000E+00 -0.00000000000E+00 -0.13191276031E+04  0.13191276031E+04  0.25500000000E-02 0. -1.
    8880022    1    1    2    0    0  0.19764027378E+03  0.39851473585E+03 -0.11069829960E+04  0.12027795638E+04  0.15294330000E+03 0.  0.
    8880022    1    1    2    0    0 -0.19764027378E+03 -0.39851473585E+03  0.17254557757E+03  0.50103822395E+03  0.15294330000E+03 0.  0.
<mgrwt>
<rscale>  0 0.47039061E+03</rscale>
<asrwt>0</asrwt>
<pdfrwt beam="1">  1        2 0.20294271E+00 0.47039061E+03</pdfrwt>
<pdfrwt beam="2">  1       -2 0.59183106E-01 0.47039061E+03</pdfrwt>
<totfact> 0.45379881E+01</totfact>
</mgrwt>
</event>
<event>
 4    1  0.1726795E-008  0.1205363E+04  0.7818608E-02  0.9108175E-01
          2   -1    0    0  501    0  0.00000000000E+00  0.00000000000E+00  0.10295987135E+04  0.10295987135E+04  0.25500000000E-02 0. -1.
         -2   -1    0    0    0  501 -0.00000000000E+00 -0.00000000000E+00 -0.15305816199E+04  0.15305816199E+04  0.25500000000E-02 0.  1.
    8880022    1    1    2    0    0  0.11353724983E+04 -0.37475107468E+03  0.10711295696E+03  0.12101131833E+04  0.15294330000E+03 0.  0.
    8880022    1    1    2    0    0 -0.11353724983E+04  0.37475107468E+03 -0.60809586329E+03  0.13500671501E+04  0.15294330000E+03 0.  0.
<mgrwt>
<rscale>  0 0.12053633E+04</rscale>
<asrwt>0</asrwt>
<pdfrwt beam="1">  1        2 0.15839980E+00 0.12053633E+04</pdfrwt>
<pdfrwt beam="2">  1       -2 0.23547409E+00 0.12053633E+04</pdfrwt>
<totfact> 0.18535804E+00</totfact>
</mgrwt>
</event>
<event>
 4    1  0.1726795E-008  0.1010207E+04  0.7818608E-02  0.9297420E-01
          2   -1    0    0  501    0  0.00000000000E+00  0.00000000000E+00  0.10536963070E+04  0.10536963070E+04  0.25500000000E-02 0. -1.
         -2   -1    0    0    0  501 -0.00000000000E+00 -0.00000000000E+00 -0.11644392193E+04  0.11644392193E+04  0.25500000000E-02 0.  1.
    8880022    1    1    2    0    0  0.97339114155E+03 -0.22279209844E+03  0.39956029477E+03  0.10863547836E+04  0.15294330000E+03 0.  0.
    8880022    1    1    2    0    0 -0.97339114155E+03  0.22279209844E+03 -0.51030320709E+03  0.11317807428E+04  0.15294330000E+03 0.  0.
<mgrwt>
<rscale>  0 0.10102071E+04</rscale>
<asrwt>0</asrwt>
<pdfrwt beam="1">  1        2 0.16210712E+00 0.10102071E+04</pdfrwt>
<pdfrwt beam="2">  1       -2 0.17914450E+00 0.10102071E+04</pdfrwt>
<totfact> 0.42380393E+00</totfact>
</mgrwt>
</event>
<event>
 4    1  0.1726795E-008  0.4579161E+03  0.7818608E-02  0.1025387E+00
         -2   -1    0    0    0  501 -0.00000000000E+00  0.00000000000E+00  0.18769075886E+04  0.18769075886E+04  0.25500000000E-02 0.  1.
          2   -1    0    0  501    0  0.00000000000E+00 -0.00000000000E+00 -0.11451940773E+04  0.11451940773E+04  0.25500000000E-02 0. -1.
    8880022    1    1    2    0    0 -0.41637261666E+03 -0.11370723884E+03  0.18013112535E+04  0.18586041475E+04  0.15294330000E+03 0.  0.
    8880022    1    1    2    0    0  0.41637261666E+03  0.11370723884E+03 -0.10695977423E+04  0.11634975184E+04  0.15294330000E+03 0.  0.
<mgrwt>
<rscale>  0 0.45791609E+03</rscale>
<asrwt>0</asrwt>
<pdfrwt beam="1">  1        2 0.17618371E+00 0.45791609E+03</pdfrwt>
<pdfrwt beam="2">  1       -2 0.28875501E+00 0.45791609E+03</pdfrwt>
<totfact> 0.85738469E-01</totfact>
</mgrwt>
</event>
<event>
 4    1  0.1726795E-008  0.6056058E+03  0.7818608E-02  0.9893844E-01
          2   -1    0    0  501    0  0.00000000000E+00  0.00000000000E+00  0.23558952028E+04  0.23558952028E+04  0.25500000000E-02 0. -1.
         -2   -1    0    0    0  501 -0.00000000000E+00 -0.00000000000E+00 -0.34867795475E+03  0.34867795476E+03  0.25500000000E-02 0.  1.
    8880022    1    1    2    0    0  0.42262417397E+03 -0.40590091715E+03 -0.24802900475E+01  0.60561089143E+03  0.15294330000E+03 0.  0.
    8880022    1    1    2    0    0 -0.42262417397E+03  0.40590091715E+03  0.20096975381E+04  0.20989622661E+04  0.15294330000E+03 0.  0.
<mgrwt>
<rscale>  0 0.60560581E+03</rscale>
<asrwt>0</asrwt>
<pdfrwt beam="1">  1        2 0.36244542E+00 0.60560581E+03</pdfrwt>
<pdfrwt beam="2">  1       -2 0.53642762E-01 0.60560581E+03</pdfrwt>
<totfact> 0.14761803E+01</totfact>
</mgrwt>
</event>
<event>
 4    1  0.1726795E-008  0.1155222E+04  0.7818608E-02  0.9152979E-01
          2   -1    0    0  501    0  0.00000000000E+00  0.00000000000E+00  0.16279638787E+04  0.16279638787E+04  0.25500000000E-02 0. -1.
         -2   -1    0    0    0  501 -0.00000000000E+00 -0.00000000000E+00 -0.10122497842E+04  0.10122497842E+04  0.25500000000E-02 0.  1.
    8880022    1    1    2    0    0  0.20343718870E+03  0.11268362180E+04 -0.26780830269E+03  0.11858581248E+04  0.15294330000E+03 0.  0.
    8880022    1    1    2    0    0 -0.20343718870E+03 -0.11268362180E+04  0.88352239717E+03  0.14543555382E+04  0.15294330000E+03 0.  0.
<mgrwt>
<rscale>  0 0.11552221E+04</rscale>
<asrwt>0</asrwt>
<pdfrwt beam="1">  1        2 0.25045598E+00 0.11552221E+04</pdfrwt>
<pdfrwt beam="2">  1       -2 0.15573074E+00 0.11552221E+04</pdfrwt>
<totfact> 0.28464437E+00</totfact>
</mgrwt>
</event>
<event>
 4    1  0.1726795E-008  0.8247053E+03  0.7818608E-02  0.9524930E-01
          2   -1    0    0  501    0  0.00000000000E+00  0.00000000000E+00  0.29019357745E+04  0.29019357745E+04  0.25500000000E-02 0. -1.
         -2   -1    0    0    0  501 -0.00000000000E+00 -0.00000000000E+00 -0.35327104423E+03  0.35327104423E+03  0.25500000000E-02 0.  1.
    8880022    1    1    2    0    0 -0.75094852277E+03 -0.30466949476E+03  0.33009809774E+03  0.88831502972E+03  0.15294330000E+03 0.  0.
    8880022    1    1    2    0    0  0.75094852277E+03  0.30466949476E+03  0.22185666325E+04  0.23668917890E+04  0.15294330000E+03 0.  0.
<mgrwt>
<rscale>  0 0.82470530E+03</rscale>
<asrwt>0</asrwt>
<pdfrwt beam="1">  1        2 0.44645165E+00 0.82470530E+03</pdfrwt>
<pdfrwt beam="2">  1       -2 0.54349393E-01 0.82470530E+03</pdfrwt>
<totfact> 0.66913946E+00</totfact>
</mgrwt>
</event>
<event>
 4    1  0.1726795E-008  0.1339254E+04  0.7818608E-02  0.8999002E-01
          2   -1    0    0  501    0  0.00000000000E+00  0.00000000000E+00  0.12971625514E+04  0.12971625514E+04  0.25500000000E-02 0. -1.
         -2   -1    0    0    0  501 -0.00000000000E+00 -0.00000000000E+00 -0.19933333478E+04  0.19933333478E+04  0.25500000000E-02 0.  1.
    8880022    1    1    2    0    0  0.13304913272E+04 -0.18675940605E+01  0.56251400205E+03  0.14525922742E+04  0.15294330000E+03 0.  0.
    8880022    1    1    2    0    0 -0.13304913272E+04  0.18675940605E+01 -0.12586847985E+04  0.18379036249E+04  0.15294330000E+03 0.  0.
<mgrwt>
<rscale>  0 0.13392544E+04</rscale>
<asrwt>0</asrwt>
<pdfrwt beam="1">  1        2 0.19956347E+00 0.13392544E+04</pdfrwt>
<pdfrwt beam="2">  1       -2 0.30666667E+00 0.13392544E+04</pdfrwt>
<totfact> 0.46091280E-01</totfact>
</mgrwt>
</event>
<event>
 4    1  0.1726795E-008  0.2127177E+04  0.7818608E-02  0.8549365E-01
         -2   -1    0    0    0  501 -0.00000000000E+00  0.00000000000E+00  0.17357415664E+04  0.17357415664E+04  0.25500000000E-02 0.  1.
          2   -1    0    0  501    0  0.00000000000E+00 -0.00000000000E+00 -0.33673054610E+04  0.33673054610E+04  0.25500000000E-02 0. -1.
    8880022    1    1    2    0    0  0.18199014219E+04  0.10906177763E+04 -0.20282910221E+04  0.29391911205E+04  0.15294330000E+03 0.  0.
    8880022    1    1    2    0    0 -0.18199014219E+04 -0.10906177763E+04  0.39672712762E+03  0.21638559069E+04  0.15294330000E+03 0.  0.
<mgrwt>
<rscale>  0 0.21271765E+04</rscale>
<asrwt>0</asrwt>
<pdfrwt beam="1">  1        2 0.51804699E+00 0.21271765E+04</pdfrwt>
<pdfrwt beam="2">  1       -2 0.26703717E+00 0.21271765E+04</pdfrwt>
<totfact> 0.44364783E-02</totfact>
</mgrwt>
</event>
<event>
 4    1  0.1726795E-008  0.5854476E+03  0.7818608E-02  0.9936066E-01
          2   -1    0    0  501    0  0.00000000000E+00  0.00000000000E+00  0.19338940053E+04  0.19338940053E+04  0.25500000000E-02 0. -1.
         -2   -1    0    0    0  501 -0.00000000000E+00 -0.00000000000E+00 -0.39105476154E+03  0.39105476154E+03  0.25500000000E-02 0.  1.
    8880022    1    1    2    0    0  0.35742360752E+03 -0.43772775781E+03  0.16310090329E+04  0.17328991153E+04  0.15294330000E+03 0.  0.
    8880022    1    1    2    0    0 -0.35742360752E+03  0.43772775781E+03 -0.88169789191E+02  0.59204965156E+03  0.15294330000E+03 0.  0.
<mgrwt>
<rscale>  0 0.58544759E+03</rscale>
<asrwt>0</asrwt>
<pdfrwt beam="1">  1        2 0.29752216E+00 0.58544759E+03</pdfrwt>
<pdfrwt beam="2">  1       -2 0.60162270E-01 0.58544759E+03</pdfrwt>
<totfact> 0.19837349E+01</totfact>
</mgrwt>
</event>
<event>
 4    1  0.1726795E-008  0.2395230E+04  0.7818608E-02  0.8441291E-01
         -2   -1    0    0    0  501 -0.00000000000E+00  0.00000000000E+00  0.24722643891E+04  0.24722643891E+04  0.25500000000E-02 0.  1.
          2   -1    0    0  501    0  0.00000000000E+00 -0.00000000000E+00 -0.29761559112E+04  0.29761559112E+04  0.25500000000E-02 0. -1.
    8880022    1    1    2    0    0 -0.10817582681E+03 -0.23878934886E+04  0.10266070658E+04  0.26059645130E+04  0.15294330000E+03 0.  0.
    8880022    1    1    2    0    0  0.10817582681E+03  0.23878934886E+04 -0.15304985879E+04  0.28424557873E+04  0.15294330000E+03 0.  0.
<mgrwt>
<rscale>  0 0.23952305E+04</rscale>
<asrwt>0</asrwt>
<pdfrwt beam="1">  1        2 0.45787014E+00 0.23952305E+04</pdfrwt>
<pdfrwt beam="2">  1       -2 0.38034837E+00 0.23952305E+04</pdfrwt>
<totfact> 0.15163504E-02</totfact>
</mgrwt>
</event>
<event>
 4    1  0.1726795E-008  0.3390281E+03  0.7818608E-02  0.1067211E+00
          2   -1    0    0  501    0  0.00000000000E+00  0.00000000000E+00  0.21872257841E+03  0.21872257842E+03  0.25500000000E-02 0. -1.
         -2   -1    0    0    0  501 -0.00000000000E+00 -0.00000000000E+00 -0.14106261760E+04  0.14106261760E+04  0.25500000000E-02 0.  1.
    8880022    1    1    2    0    0 -0.27128085031E+03 -0.13399670525E+03  0.49374197568E+02  0.34260455508E+03  0.15294330000E+03 0.  0.
    8880022    1    1    2    0    0  0.27128085031E+03  0.13399670525E+03 -0.12412777952E+04  0.12867441993E+04  0.15294330000E+03 0.  0.
<mgrwt>
<rscale>  0 0.33902813E+03</rscale>
<asrwt>0</asrwt>
<pdfrwt beam="1">  1        2 0.33649628E-01 0.33902813E+03</pdfrwt>
<pdfrwt beam="2">  1       -2 0.21701941E+00 0.33902813E+03</pdfrwt>
<totfact> 0.17322018E+01</totfact>
</mgrwt>
</event>
<event>
 4    1  0.1726795E-008  0.1077964E+04  0.7818608E-02  0.9226940E-01
         -2   -1    0    0    0  501 -0.00000000000E+00  0.00000000000E+00  0.19806464282E+04  0.19806464282E+04  0.25500000000E-02 0.  1.
          2   -1    0    0  501    0  0.00000000000E+00 -0.00000000000E+00 -0.12261598694E+04  0.12261598694E+04  0.25500000000E-02 0. -1.
    8880022    1    1    2    0    0  0.25168297158E+03  0.10369527510E+04  0.15351735127E+04  0.18758370647E+04  0.15294330000E+03 0.  0.
    8880022    1    1    2    0    0 -0.25168297158E+03 -0.10369527510E+04 -0.78068695390E+03  0.13309692330E+04  0.15294330000E+03 0.  0.
<mgrwt>
<rscale>  0 0.10779643E+04</rscale>
<asrwt>0</asrwt>
<pdfrwt beam="1">  1        2 0.18863998E+00 0.10779643E+04</pdfrwt>
<pdfrwt beam="2">  1       -2 0.30471483E+00 0.10779643E+04</pdfrwt>
<totfact> 0.53963689E-01</totfact>
</mgrwt>
</event>
<event>
 4    1  0.1726795E-008  0.4661085E+03  0.7818608E-02  0.1023024E+00
          2   -1    0    0  501    0  0.00000000000E+00  0.00000000000E+00  0.13299841804E+04  0.13299841804E+04  0.25500000000E-02 0. -1.
         -2   -1    0    0    0  501 -0.00000000000E+00 -0.00000000000E+00 -0.46021073079E+03  0.46021073080E+03  0.25500000000E-02 0.  1.
    8880022    1    1    2    0    0 -0.43767870368E+03 -0.47988165332E+02 -0.28400914983E+03  0.54581898269E+03  0.15294330000E+03 0.  0.
    8880022    1    1    2    0    0  0.43767870368E+03  0.47988165332E+02  0.11537825995E+04  0.12443759285E+04  0.15294330000E+03 0. -1.
<mgrwt>
<rscale>  0 0.46610853E+03</rscale>
<asrwt>0</asrwt>
<pdfrwt beam="1">  1        2 0.20461295E+00 0.46610853E+03</pdfrwt>
<pdfrwt beam="2">  1       -2 0.70801652E-01 0.46610853E+03</pdfrwt>
<totfact> 0.30558033E+01</totfact>
</mgrwt>
</event>
<event>
 4    1  0.1726795E-008  0.2124729E+04  0.7818608E-02  0.8550427E-01
          2   -1    0    0  501    0  0.00000000000E+00  0.00000000000E+00  0.26267881208E+04  0.26267881208E+04  0.25500000000E-02 0. -1.
         -2   -1    0    0    0  501 -0.00000000000E+00 -0.00000000000E+00 -0.18716423705E+04  0.18716423705E+04  0.25500000000E-02 0.  1.
    8880022    1    1    2    0    0 -0.62280346060E+03  0.20256355379E+04 -0.26553494697E+03  0.21412575614E+04  0.15294330000E+03 0.  0.
    8880022    1    1    2    0    0  0.62280346060E+03 -0.20256355379E+04  0.10206806973E+04  0.23571729300E+04  0.15294330000E+03 0.  0.
<mgrwt>
<rscale>  0 0.21247294E+04</rscale>
<asrwt>0</asrwt>
<pdfrwt beam="1">  1        2 0.40412125E+00 0.21247294E+04</pdfrwt>
<pdfrwt beam="2">  1       -2 0.28794498E+00 0.21247294E+04</pdfrwt>
<totfact> 0.96835905E-02</totfact>
</mgrwt>
</event>
<event>
 4    1  0.1726795E-008  0.6908958E+03  0.7818608E-02  0.9732930E-01
         -2   -1    0    0    0  501 -0.00000000000E+00  0.00000000000E+00  0.76069483216E+03  0.76069483217E+03  0.25500000000E-02 0.  1.
          2   -1    0    0  501    0  0.00000000000E+00 -0.00000000000E+00 -0.15024215877E+04  0.15024215877E+04  0.25500000000E-02 0. -1.
    8880022    1    1    2    0    0  0.40522614165E+03 -0.53827231830E+03  0.49264239490E+03  0.84854787537E+03  0.15294330000E+03 0.  0.
    8880022    1    1    2    0    0 -0.40522614165E+03  0.53827231830E+03 -0.12343691504E+04  0.14145685445E+04  0.15294330000E+03 0.  0.
<mgrwt>
<rscale>  0 0.69089577E+03</rscale>
<asrwt>0</asrwt>
<pdfrwt beam="1">  1        2 0.23114178E+00 0.69089577E+03</pdfrwt>
<pdfrwt beam="2">  1       -2 0.11702997E+00 0.69089577E+03</pdfrwt>
<totfact> 0.73920839E+00</totfact>
</mgrwt>
</event>
<event>
 4    1  0.1726795E-008  0.7028494E+03  0.7818608E-02  0.9712372E-01
          2   -1    0    0  501    0  0.00000000000E+00  0.00000000000E+00  0.19107726669E+04  0.19107726669E+04  0.25500000000E-02 0. -1.
         -2   -1    0    0    0  501 -0.00000000000E+00 -0.00000000000E+00 -0.12508956799E+04  0.12508956799E+04  0.25500000000E-02 0.  1.
    8880022    1    1    2    0    0 -0.66629521360E+03  0.16326747889E+03  0.17379656936E+04  0.18747058400E+04  0.15294330000E+03 0.  0.
    8880022    1    1    2    0    0  0.66629521360E+03 -0.16326747889E+03 -0.10780887066E+04  0.12869625067E+04  0.15294330000E+03 0.  1.
<mgrwt>
<rscale>  0 0.70284937E+03</rscale>
<asrwt>0</asrwt>
<pdfrwt beam="1">  1        2 0.29396503E+00 0.70284937E+03</pdfrwt>
<pdfrwt beam="2">  1       -2 0.19244549E+00 0.70284937E+03</pdfrwt>
<totfact> 0.11743709E+00</totfact>
</mgrwt>
</event>
<event>
 4    1  0.1726795E-008  0.1688039E+03  0.7818608E-02  0.1179101E+00
          2   -1    0    0  501    0  0.00000000000E+00  0.00000000000E+00  0.33847999312E+04  0.33847999312E+04  0.25500000000E-02 0. -1.
         -2   -1    0    0    0  501 -0.00000000000E+00 -0.00000000000E+00 -0.48362255255E+02  0.48362255322E+02  0.25500000000E-02 0.  1.
    8880022    1    1    2    0    0 -0.69166733315E+02  0.17862268780E+02  0.10817860204E+03  0.20049279438E+03  0.15294330000E+03 0.  0.
    8880022    1    1    2    0    0  0.69166733315E+02 -0.17862268780E+02  0.32282590739E+04  0.32326693922E+04  0.15294330000E+03 0. -1.
<mgrwt>
<rscale>  0 0.16880388E+03</rscale>
<asrwt>0</asrwt>
<pdfrwt beam="1">  1        2 0.52073840E+00 0.16880388E+03</pdfrwt>
<pdfrwt beam="2">  1       -2 0.74403476E-02 0.16880388E+03</pdfrwt>
<totfact> 0.13424478E+02</totfact>
</mgrwt>
</event>
<event>
 4    1  0.1726795E-008  0.6934676E+03  0.7818608E-02  0.9728469E-01
         -2   -1    0    0    0  501 -0.00000000000E+00  0.00000000000E+00  0.27141468214E+04  0.27141468214E+04  0.25500000000E-02 0.  1.
          2   -1    0    0  501    0  0.00000000000E+00 -0.00000000000E+00 -0.34261767687E+03  0.34261767688E+03  0.25500000000E-02 0. -1.
    8880022    1    1    2    0    0  0.29287505021E+03 -0.60969657402E+03  0.22478072753E+04  0.23523466810E+04  0.15294330000E+03 0.  0.
    8880022    1    1    2    0    0 -0.29287505021E+03  0.60969657402E+03  0.12372186919E+03  0.70441781731E+03  0.15294330000E+03 0.  0.
<mgrwt>
<rscale>  0 0.69346763E+03</rscale>
<asrwt>0</asrwt>
<pdfrwt beam="1">  1        2 0.52710413E-01 0.69346763E+03</pdfrwt>
<pdfrwt beam="2">  1       -2 0.41756104E+00 0.69346763E+03</pdfrwt>
<totfact> 0.57950261E-01</totfact>
</mgrwt>
</event>
<event>
 4    1  0.1726795E-008  0.5776052E+03  0.7818608E-02  0.9952989E-01
          2   -1    0    0  501    0  0.00000000000E+00  0.00000000000E+00  0.10218415599E+04  0.10218415599E+04  0.25500000000E-02 0. -1.
         -2   -1    0    0    0  501 -0.00000000000E+00 -0.00000000000E+00 -0.83886295043E+03  0.83886295043E+03  0.25500000000E-02 0.  1.
    8880022    1    1    2    0    0  0.29019670787E+03 -0.47541769337E+03 -0.63560747314E+03  0.85885075849E+03  0.15294330000E+03 0.  0.
    8880022    1    1    2    0    0 -0.29019670787E+03  0.47541769337E+03  0.81858608264E+03  0.10018537519E+04  0.15294330000E+03 0. -1.
<mgrwt>
<rscale>  0 0.57760520E+03</rscale>
<asrwt>0</asrwt>
<pdfrwt beam="1">  1        2 0.15720639E+00 0.57760520E+03</pdfrwt>
<pdfrwt beam="2">  1       -2 0.12905584E+00 0.57760520E+03</pdfrwt>
<totfact> 0.11237252E+01</totfact>
</mgrwt>
</event>
<event>
 4    1  0.1726795E-008  0.1186030E+04  0.7818608E-02  0.9125173E-01
         -2   -1    0    0    0  501 -0.00000000000E+00  0.00000000000E+00  0.59922775117E+03  0.59922775117E+03  0.25500000000E-02 0.  1.
          2   -1    0    0  501    0  0.00000000000E+00 -0.00000000000E+00 -0.24072696292E+04  0.24072696292E+04  0.25500000000E-02 0. -1.
    8880022    1    1    2    0    0  0.50122155838E+03 -0.10639791980E+04 -0.11409586913E+04  0.16457378809E+04  0.15294330000E+03 0.  0.
    8880022    1    1    2    0    0 -0.50122155838E+03  0.10639791980E+04 -0.66708318672E+03  0.13607594995E+04  0.15294330000E+03 0.  0.
<mgrwt>
<rscale>  0 0.11860297E+04</rscale>
<asrwt>0</asrwt>
<pdfrwt beam="1">  1        2 0.37034917E+00 0.11860297E+04</pdfrwt>
<pdfrwt beam="2">  1       -2 0.92188886E-01 0.11860297E+04</pdfrwt>
<totfact> 0.38767802E+00</totfact>
</mgrwt>
</event>
<event>
 4    1  0.2270030E-008  0.1613724E+04  0.7818608E-02  0.8812161E-01
         -2   -1    0    0    0  501 -0.00000000000E+00  0.00000000000E+00  0.23358438073E+04  0.23358438073E+04  0.25500000000E-02 0.  1.
          2   -1    0    0  501    0  0.00000000000E+00 -0.00000000000E+00 -0.22576098909E+04  0.22576098909E+04  0.25500000000E-02 0. -1.
    8880022    1    1    2    0    0 -0.62465846337E+03  0.14800387913E+04 -0.15949252505E+04  0.22688964779E+04  0.15294330000E+03 0.  0.
    8880022    1    1    2    0    0  0.62465846337E+03 -0.14800387913E+04  0.16731591669E+04  0.23245572203E+04  0.15294330000E+03 0.  0.
<mgrwt>
<rscale>  0 0.16137239E+04</rscale>
<asrwt>0</asrwt>
<pdfrwt beam="1">  1        2 0.34732460E+00 0.16137239E+04</pdfrwt>
<pdfrwt beam="2">  1       -2 0.35936058E+00 0.16137239E+04</pdfrwt>
<totfact> 0.60177449E-02</totfact>
</mgrwt>
</event>
<event>
 4    1  0.1726795E-008  0.9960983E+03  0.7818608E-02  0.9312834E-01
         -2   -1    0    0    0  501 -0.00000000000E+00  0.00000000000E+00  0.62375008143E+03  0.62375008143E+03  0.25500000000E-02 0.  1.
          2   -1    0    0  501    0  0.00000000000E+00 -0.00000000000E+00 -0.22625142252E+04  0.22625142252E+04  0.25500000000E-02 0. -1.
    8880022    1    1    2    0    0 -0.52124917709E+03 -0.83493682072E+03 -0.33009217337E+02  0.99664510266E+03  0.15294330000E+03 0.  0.
    8880022    1    1    2    0    0  0.52124917709E+03  0.83493682072E+03 -0.16057549264E+04  0.18896192040E+04  0.15294330000E+03 0.  0.
<mgrwt>
<rscale>  0 0.99609831E+03</rscale>
<asrwt>0</asrwt>
<pdfrwt beam="1">  1        2 0.34807911E+00 0.99609831E+03</pdfrwt>
<pdfrwt beam="2">  1       -2 0.95961552E-01 0.99609831E+03</pdfrwt>
<totfact> 0.43564350E+00</totfact>
</mgrwt>
</event>
<event>
 4    1  0.1726795E-008  0.4846316E+03  0.7818608E-02  0.1017870E+00
         -2   -1    0    0    0  501 -0.00000000000E+00  0.00000000000E+00  0.82242771868E+03  0.82242771869E+03  0.25500000000E-02 0.  1.
          2   -1    0    0  501    0  0.00000000000E+00 -0.00000000000E+00 -0.37224870749E+03  0.37224870750E+03  0.25500000000E-02 0. -1.
    8880022    1    1    2    0    0 -0.31137514594E+03  0.33841046560E+03 -0.63139910612E+02  0.48872735350E+03  0.15294330000E+03 0.  0.
    8880022    1    1    2    0    0  0.31137514594E+03 -0.33841046560E+03  0.51331892180E+03  0.70594907269E+03  0.15294330000E+03 0.  0.
<mgrwt>
<rscale>  0 0.48463159E+03</rscale>
<asrwt>0</asrwt>
<pdfrwt beam="1">  1        2 0.57269032E-01 0.48463159E+03</pdfrwt>
<pdfrwt beam="2">  1       -2 0.12652734E+00 0.48463159E+03</pdfrwt>
<totfact> 0.41432333E+01</totfact>
</mgrwt>
</event>
<event>
 4    1  0.1726795E-008  0.2186084E+03  0.7818608E-02  0.1134925E+00
         -2   -1    0    0    0  501 -0.00000000000E+00  0.00000000000E+00  0.88102668419E+02  0.88102668455E+02  0.25500000000E-02 0.  1.
          2   -1    0    0  501    0  0.00000000000E+00 -0.00000000000E+00 -0.11708315474E+04  0.11708315474E+04  0.25500000000E-02 0. -1.
    8880022    1    1    2    0    0  0.95416822044E+02  0.12366733521E+03 -0.10025163957E+04  0.10260744400E+04  0.15294330000E+03 0.  0.
    8880022    1    1    2    0    0 -0.95416822044E+02 -0.12366733521E+03 -0.80212483273E+02  0.23285977586E+03  0.15294330000E+03 0.  1.
<mgrwt>
<rscale>  0 0.21860840E+03</rscale>
<asrwt>0</asrwt>
<pdfrwt beam="1">  1        2 0.18012792E+00 0.21860840E+03</pdfrwt>
<pdfrwt beam="2">  1       -2 0.13554257E-01 0.21860840E+03</pdfrwt>
<totfact> 0.84619862E+02</totfact>
</mgrwt>
</event>
<event>
 4    1  0.1726795E-008  0.7462389E+03  0.7818608E-02  0.9641269E-01
         -2   -1    0    0    0  501 -0.00000000000E+00  0.00000000000E+00  0.12266420433E+04  0.12266420433E+04  0.25500000000E-02 0.  1.
          2   -1    0    0  501    0  0.00000000000E+00 -0.00000000000E+00 -0.75466574649E+03  0.75466574650E+03  0.25500000000E-02 0. -1.
    8880022    1    1    2    0    0 -0.24513470452E+03 -0.68803330449E+03 -0.38932871486E+03  0.84169433447E+03  0.15294330000E+03 0. -1.
    8880022    1    1    2    0    0  0.24513470452E+03  0.68803330449E+03  0.86130501170E+03  0.11396134554E+04  0.15294330000E+03 0.  0.
<mgrwt>
<rscale>  0 0.74623891E+03</rscale>
<asrwt>0</asrwt>
<pdfrwt beam="1">  1        2 0.11610242E+00 0.74623891E+03</pdfrwt>
<pdfrwt beam="2">  1       -2 0.18871416E+00 0.74623891E+03</pdfrwt>
<totfact> 0.60010680E+00</totfact>
</mgrwt>
</event>
<event>
 4    1  0.1726795E-008  0.4891248E+03  0.7818608E-02  0.1016657E+00
         -2   -1    0    0    0  501 -0.00000000000E+00  0.00000000000E+00  0.68486602281E+03  0.68486602282E+03  0.25500000000E-02 0.  1.
          2   -1    0    0  501    0  0.00000000000E+00 -0.00000000000E+00 -0.35081923864E+03  0.35081923865E+03  0.25500000000E-02 0. -1.
    8880022    1    1    2    0    0 -0.39316822356E+03  0.24752801809E+03  0.13326370055E+03  0.50695388218E+03  0.15294330000E+03 0. -1.
    8880022    1    1    2    0    0  0.39316822356E+03 -0.24752801809E+03  0.20078308362E+03  0.52873137929E+03  0.15294330000E+03 0.  1.
<mgrwt>
<rscale>  0 0.48912475E+03</rscale>
<asrwt>0</asrwt>
<pdfrwt beam="1">  1        2 0.53972190E-01 0.48912475E+03</pdfrwt>
<pdfrwt beam="2">  1       -2 0.10536400E+00 0.48912475E+03</pdfrwt>
<totfact> 0.69068061E+01</totfact>
</mgrwt>
</event>
<event>
 4    1  0.1726795E-008  0.7965006E+03  0.7818608E-02  0.9565096E-01
          2   -1    0    0  501    0  0.00000000000E+00  0.00000000000E+00  0.77008436356E+03  0.77008436356E+03  0.25500000000E-02 0. -1.
         -2   -1    0    0    0  501 -0.00000000000E+00 -0.00000000000E+00 -0.27296339643E+04  0.27296339643E+04  0.25500000000E-02 0.  1.
    8880022    1    1    2    0    0 -0.10811879597E+03 -0.77416526792E+03  0.48237141114E+03  0.93117955701E+03  0.15294330000E+03 0.  0.
    8880022    1    1    2    0    0  0.10811879597E+03  0.77416526792E+03 -0.24419210119E+04  0.25685387709E+04  0.15294330000E+03 0.  1.
<mgrwt>
<rscale>  0 0.79650059E+03</rscale>
<asrwt>0</asrwt>
<pdfrwt beam="1">  1        2 0.11847452E+00 0.79650059E+03</pdfrwt>
<pdfrwt beam="2">  1       -2 0.41994368E+00 0.79650059E+03</pdfrwt>
<totfact> 0.21029237E-01</totfact>
</mgrwt>
</event>
<event>
 4    1  0.1726795E-008  0.5540851E+03  0.7818608E-02  0.1000553E+00
         -2   -1    0    0    0  501 -0.00000000000E+00  0.00000000000E+00  0.53765092986E+03  0.53765092987E+03  0.25500000000E-02 0.  1.
          2   -1    0    0  501    0  0.00000000000E+00 -0.00000000000E+00 -0.69499799661E+03  0.69499799661E+03  0.25500000000E-02 0. -1.
    8880022    1    1    2    0    0  0.68558236232E+02  0.52812722879E+03 -0.33898138248E+03  0.64955264008E+03  0.15294330000E+03 0.  0.
    8880022    1    1    2    0    0 -0.68558236232E+02 -0.52812722879E+03  0.18163431573E+03  0.58309628640E+03  0.15294330000E+03 0.  0.
<mgrwt>
<rscale>  0 0.55408506E+03</rscale>
<asrwt>0</asrwt>
<pdfrwt beam="1">  1        2 0.10692277E+00 0.55408506E+03</pdfrwt>
<pdfrwt beam="2">  1       -2 0.82715528E-01 0.55408506E+03</pdfrwt>
<totfact> 0.54580968E+01</totfact>
</mgrwt>
</event>
<event>
 4    1  0.1726795E-008  0.7460804E+03  0.7818608E-02  0.9641520E-01
         -2   -1    0    0    0  501 -0.00000000000E+00  0.00000000000E+00  0.53484806637E+03  0.53484806638E+03  0.25500000000E-02 0.  1.
          2   -1    0    0  501    0  0.00000000000E+00 -0.00000000000E+00 -0.21692735217E+04  0.21692735217E+04  0.25500000000E-02 0. -1.
    8880022    1    1    2    0    0 -0.18231970465E+03 -0.70710944718E+03 -0.17924200864E+04  0.19414957286E+04  0.15294330000E+03 0.  0.
    8880022    1    1    2    0    0  0.18231970465E+03  0.70710944718E+03  0.15799463113E+03  0.76262585944E+03  0.15294330000E+03 0.  0.
<mgrwt>
<rscale>  0 0.74608036E+03</rscale>
<asrwt>0</asrwt>
<pdfrwt beam="1">  1        2 0.33373438E+00 0.74608036E+03</pdfrwt>
<pdfrwt beam="2">  1       -2 0.82284319E-01 0.74608036E+03</pdfrwt>
<totfact> 0.72538492E+00</totfact>
</mgrwt>
</event>
<event>
 4    1  0.1726795E-008  0.8678599E+03  0.7818608E-02  0.9466675E-01
         -2   -1    0    0    0  501 -0.00000000000E+00  0.00000000000E+00  0.72806834765E+03  0.72806834766E+03  0.25500000000E-02 0.  1.
          2   -1    0    0  501    0  0.00000000000E+00 -0.00000000000E+00 -0.35318538496E+04  0.35318538496E+04  0.25500000000E-02 0. -1.
    8880022    1    1    2    0    0 -0.75535457061E+03 -0.39903456222E+03 -0.31929565679E+04  0.33087992394E+04  0.15294330000E+03 0.  0.
    8880022    1    1    2    0    0  0.75535457061E+03  0.39903456222E+03  0.38917106602E+03  0.95112295779E+03  0.15294330000E+03 0.  0.
<mgrwt>
<rscale>  0 0.86785987E+03</rscale>
<asrwt>0</asrwt>
<pdfrwt beam="1">  1        2 0.54336212E+00 0.86785987E+03</pdfrwt>
<pdfrwt beam="2">  1       -2 0.11201052E+00 0.86785987E+03</pdfrwt>
<totfact> 0.51506864E-01</totfact>
</mgrwt>
</event>
<event>
 4    1  0.2377475E-008  0.7885045E+03  0.7818608E-02  0.9576807E-01
         -2   -1    0    0    0  501 -0.00000000000E+00  0.00000000000E+00  0.13774971652E+04  0.13774971652E+04  0.25500000000E-02 0.  1.
          2   -1    0    0  501    0  0.00000000000E+00 -0.00000000000E+00 -0.27083219908E+04  0.27083219908E+04  0.25500000000E-02 0. -1.
    8880022    1    1    2    0    0  0.20336434077E+03  0.74631804602E+03 -0.25303386673E+04  0.26503496194E+04  0.15294330000E+03 0.  0.
    8880022    1    1    2    0    0 -0.20336434077E+03 -0.74631804602E+03  0.11995138417E+04  0.14354695366E+04  0.15294330000E+03 0.  0.
<mgrwt>
<rscale>  0 0.78850449E+03</rscale>
<asrwt>0</asrwt>
<pdfrwt beam="1">  1        2 0.41666492E+00 0.78850449E+03</pdfrwt>
<pdfrwt beam="2">  1       -2 0.21192264E+00 0.78850449E+03</pdfrwt>
<totfact> 0.30895608E-01</totfact>
</mgrwt>
</event>
<event>
 4    1  0.1726795E-008  0.9916804E+03  0.7818608E-02  0.9317717E-01
          2   -1    0    0  501    0  0.00000000000E+00  0.00000000000E+00  0.12452166178E+04  0.12452166178E+04  0.25500000000E-02 0. -1.
         -2   -1    0    0    0  501 -0.00000000000E+00 -0.00000000000E+00 -0.16706097968E+04  0.16706097968E+04  0.25500000000E-02 0.  1.
    8880022    1    1    2    0    0  0.17042535625E+03  0.96488009224E+03  0.84593183085E+03  0.13034687223E+04  0.15294330000E+03 0.  0.
    8880022    1    1    2    0    0 -0.17042535625E+03 -0.96488009224E+03 -0.12713250098E+04  0.16123576923E+04  0.15294330000E+03 0.  0.
<mgrwt>
<rscale>  0 0.99168042E+03</rscale>
<asrwt>0</asrwt>
<pdfrwt beam="1">  1        2 0.19157179E+00 0.99168042E+03</pdfrwt>
<pdfrwt beam="2">  1       -2 0.25701689E+00 0.99168042E+03</pdfrwt>
<totfact> 0.10350381E+00</totfact>
</mgrwt>
</event>
<event>
 4    1  0.1726795E-008  0.5168185E+03  0.7818608E-02  0.1009480E+00
         -2   -1    0    0    0  501 -0.00000000000E+00  0.00000000000E+00  0.27127082650E+03  0.27127082651E+03  0.25500000000E-02 0.  1.
          2   -1    0    0  501    0  0.00000000000E+00 -0.00000000000E+00 -0.11120593287E+04  0.11120593288E+04  0.25500000000E-02 0. -1.
    8880022    1    1    2    0    0  0.48793666592E+03 -0.75016859007E+02 -0.18625905445E+03  0.54935763166E+03  0.15294330000E+03 0.  0.
    8880022    1    1    2    0    0 -0.48793666592E+03  0.75016859007E+02 -0.65452944780E+03  0.83397252361E+03  0.15294330000E+03 0.  0.
<mgrwt>
<rscale>  0 0.51681851E+03</rscale>
<asrwt>0</asrwt>
<pdfrwt beam="1">  1        2 0.17108605E+00 0.51681851E+03</pdfrwt>
<pdfrwt beam="2">  1       -2 0.41733974E-01 0.51681851E+03</pdfrwt>
<totfact> 0.12055092E+02</totfact>
</mgrwt>
</event>
<event>
 4    1  0.1726795E-008  0.7242555E+03  0.7818608E-02  0.9676628E-01
         -2   -1    0    0    0  501 -0.00000000000E+00  0.00000000000E+00  0.46819913709E+03  0.46819913710E+03  0.25500000000E-02 0.  1.
          2   -1    0    0  501    0  0.00000000000E+00 -0.00000000000E+00 -0.28832219583E+04  0.28832219583E+04  0.25500000000E-02 0. -1.
    8880022    1    1    2    0    0 -0.70606700270E+03 -0.51223207680E+02 -0.25178108815E+04  0.26199079597E+04  0.15294330000E+03 0.  0.
    8880022    1    1    2    0    0  0.70606700270E+03  0.51223207680E+02  0.10278806032E+03  0.73151313567E+03  0.15294330000E+03 0.  0.
<mgrwt>
<rscale>  0 0.72425554E+03</rscale>
<asrwt>0</asrwt>
<pdfrwt beam="1">  1        2 0.44357260E+00 0.72425554E+03</pdfrwt>
<pdfrwt beam="2">  1       -2 0.72030638E-01 0.72425554E+03</pdfrwt>
<totfact> 0.38361912E+00</totfact>
</mgrwt>
</event>
<event>
 4    1  0.1726795E-008  0.3420374E+03  0.7818608E-02  0.1065931E+00
         -2   -1    0    0    0  501 -0.00000000000E+00  0.00000000000E+00  0.57917189769E+03  0.57917189770E+03  0.25500000000E-02 0.  1.
          2   -1    0    0  501    0  0.00000000000E+00 -0.00000000000E+00 -0.16543169474E+04  0.16543169474E+04  0.25500000000E-02 0. -1.
    8880022    1    1    2    0    0  0.84400969472E+02 -0.29406529894E+03 -0.15839200409E+04  0.16204296568E+04  0.15294330000E+03 0.  0.
    8880022    1    1    2    0    0 -0.84400969472E+02  0.29406529894E+03  0.50877499118E+03  0.61305918830E+03  0.15294330000E+03 0.  0.
<mgrwt>
<rscale>  0 0.34203739E+03</rscale>
<asrwt>0</asrwt>
<pdfrwt beam="1">  1        2 0.25451030E+00 0.34203739E+03</pdfrwt>
<pdfrwt beam="2">  1       -2 0.89103370E-01 0.34203739E+03</pdfrwt>
<totfact> 0.12549896E+01</totfact>
</mgrwt>
</event>
<event>
 4    1  0.1726795E-008  0.9051937E+03  0.7818608E-02  0.9419112E-01
          2   -1    0    0  501    0  0.00000000000E+00  0.00000000000E+00  0.37380812784E+03  0.37380812785E+03  0.25500000000E-02 0. -1.
         -2   -1    0    0    0  501 -0.00000000000E+00 -0.00000000000E+00 -0.22532414588E+04  0.22532414588E+04  0.25500000000E-02 0.  1.
    8880022    1    1    2    0    0 -0.40404778975E+03 -0.79544289702E+03 -0.72311163195E+03  0.11585620847E+04  0.15294330000E+03 0.  0.
    8880022    1    1    2    0    0  0.40404778975E+03  0.79544289702E+03 -0.11563216990E+04  0.14684875020E+04  0.15294330000E+03 0.  0.
<mgrwt>
<rscale>  0 0.90519372E+03</rscale>
<asrwt>0</asrwt>
<pdfrwt beam="1">  1        2 0.57508944E-01 0.90519372E+03</pdfrwt>
<pdfrwt beam="2">  1       -2 0.34665252E+00 0.90519372E+03</pdfrwt>
<totfact> 0.14411514E+00</totfact>
</mgrwt>
</event>
<event>
 4    1  0.1726795E-008  0.5840370E+03  0.7818608E-02  0.9939089E-01
          2   -1    0    0  501    0  0.00000000000E+00  0.00000000000E+00  0.13449805012E+04  0.13449805013E+04  0.25500000000E-02 0. -1.
         -2   -1    0    0    0  501 -0.00000000000E+00 -0.00000000000E+00 -0.98238867535E+03  0.98238867535E+03  0.25500000000E-02 0.  1.
    8880022    1    1    2    0    0  0.10250472182E+03 -0.55425661117E+03 -0.82099019846E+03  0.10075337056E+04  0.15294330000E+03 0.  0.
    8880022    1    1    2    0    0 -0.10250472182E+03  0.55425661117E+03  0.11835820244E+04  0.13198354710E+04  0.15294330000E+03 0.  0.
<mgrwt>
<rscale>  0 0.58403704E+03</rscale>
<asrwt>0</asrwt>
<pdfrwt beam="1">  1        2 0.20692008E+00 0.58403704E+03</pdfrwt>
<pdfrwt beam="2">  1       -2 0.15113672E+00 0.58403704E+03</pdfrwt>
<totfact> 0.48122396E+00</totfact>
</mgrwt>
</event>
<event>
 4    1  0.1726795E-008  0.4014944E+03  0.7818608E-02  0.1043263E+00
          2   -1    0    0  501    0  0.00000000000E+00  0.00000000000E+00  0.38741945177E+03  0.38741945178E+03  0.25500000000E-02 0. -1.
         -2   -1    0    0    0  501 -0.00000000000E+00 -0.00000000000E+00 -0.94130156407E+03  0.94130156407E+03  0.25500000000E-02 0.  1.
    8880022    1    1    2    0    0  0.76360681083E+02 -0.36328379520E+03 -0.77320239139E+03  0.87122882214E+03  0.15294330000E+03 0.  0.
    8880022    1    1    2    0    0 -0.76360681083E+02  0.36328379520E+03  0.21932027910E+03  0.45749219371E+03  0.15294330000E+03 0.  0.
<mgrwt>
<rscale>  0 0.40149436E+03</rscale>
<asrwt>0</asrwt>
<pdfrwt beam="1">  1        2 0.59602993E-01 0.40149436E+03</pdfrwt>
<pdfrwt beam="2">  1       -2 0.14481562E+00 0.40149436E+03</pdfrwt>
<totfact> 0.28417994E+01</totfact>
</mgrwt>
</event>
<event>
 4    1  0.1726795E-008  0.9891795E+03  0.7818608E-02  0.9320493E-01
         -2   -1    0    0    0  501 -0.00000000000E+00  0.00000000000E+00  0.89595244637E+03  0.89595244637E+03  0.25500000000E-02 0.  1.
          2   -1    0    0  501    0  0.00000000000E+00 -0.00000000000E+00 -0.14937434677E+04  0.14937434677E+04  0.25500000000E-02 0. -1.
    8880022    1    1    2    0    0 -0.41034439825E+03  0.88696220098E+03 -0.91846652698E+03  0.13498358735E+04  0.15294330000E+03 0.  1.
    8880022    1    1    2    0    0  0.41034439825E+03 -0.88696220098E+03  0.32067550563E+03  0.10398600406E+04  0.15294330000E+03 0.  0.
<mgrwt>
<rscale>  0 0.98917952E+03</rscale>
<asrwt>0</asrwt>
<pdfrwt beam="1">  1        2 0.22980669E+00 0.98917952E+03</pdfrwt>
<pdfrwt beam="2">  1       -2 0.13783884E+00 0.98917952E+03</pdfrwt>
<totfact> 0.47582873E+00</totfact>
</mgrwt>
</event>
<event>
 4    1  0.1726795E-008  0.1317772E+04  0.7818608E-02  0.9015589E-01
          2   -1    0    0  501    0  0.00000000000E+00  0.00000000000E+00  0.29902776512E+04  0.29902776512E+04  0.25500000000E-02 0. -1.
         -2   -1    0    0    0  501 -0.00000000000E+00 -0.00000000000E+00 -0.64809876295E+03  0.64809876295E+03  0.25500000000E-02 0.  1.
    8880022    1    1    2    0    0  0.67725215917E+03  0.11200273798E+04  0.17576439624E+04  0.21967784982E+04  0.15294330000E+03 0.  0.
    8880022    1    1    2    0    0 -0.67725215917E+03 -0.11200273798E+04  0.58453492585E+03  0.14415979159E+04  0.15294330000E+03 0.  0.
<mgrwt>
<rscale>  0 0.13177722E+04</rscale>
<asrwt>0</asrwt>
<pdfrwt beam="1">  1        2 0.46004272E+00 0.13177722E+04</pdfrwt>
<pdfrwt beam="2">  1       -2 0.99707501E-01 0.13177722E+04</pdfrwt>
<totfact> 0.14334768E+00</totfact>
</mgrwt>
</event>
<event>
 4    1  0.1726795E-008  0.1582957E+04  0.7818608E-02  0.8831087E-01
         -2   -1    0    0    0  501 -0.00000000000E+00  0.00000000000E+00  0.21116145707E+04  0.21116145707E+04  0.25500000000E-02 0.  1.
          2   -1    0    0  501    0  0.00000000000E+00 -0.00000000000E+00 -0.15356517928E+04  0.15356517928E+04  0.25500000000E-02 0. -1.
    8880022    1    1    2    0    0  0.15570858697E+04 -0.24050932721E+03  0.11573488042E+04  0.19609204598E+04  0.15294330000E+03 0.  0.
    8880022    1    1    2    0    0 -0.15570858697E+04  0.24050932721E+03 -0.58138602634E+03  0.16863459037E+04  0.15294330000E+03 0.  0.
<mgrwt>
<rscale>  0 0.15829570E+04</rscale>
<asrwt>0</asrwt>
<pdfrwt beam="1">  1        2 0.23625412E+00 0.15829570E+04</pdfrwt>
<pdfrwt beam="2">  1       -2 0.32486378E+00 0.15829570E+04</pdfrwt>
<totfact> 0.25252475E-01</totfact>
</mgrwt>
</event>
<event>
 4    1  0.1726795E-008  0.1191791E+04  0.7818608E-02  0.9120072E-01
         -2   -1    0    0    0  501 -0.00000000000E+00  0.00000000000E+00  0.11945442347E+04  0.11945442347E+04  0.25500000000E-02 0.  1.
          2   -1    0    0  501    0  0.00000000000E+00 -0.00000000000E+00 -0.19559970191E+04  0.19559970191E+04  0.25500000000E-02 0. -1.
    8880022    1    1    2    0    0  0.10292531171E+04  0.58104460848E+03  0.60567861573E+03  0.13368668799E+04  0.15294330000E+03 0.  0.
    8880022    1    1    2    0    0 -0.10292531171E+04 -0.58104460848E+03 -0.13671314002E+04  0.18136743739E+04  0.15294330000E+03 0.  0.
<mgrwt>
<rscale>  0 0.11917913E+04</rscale>
<asrwt>0</asrwt>
<pdfrwt beam="1">  1        2 0.30092262E+00 0.11917913E+04</pdfrwt>
<pdfrwt beam="2">  1       -2 0.18377604E+00 0.11917913E+04</pdfrwt>
<totfact> 0.11739367E+00</totfact>
</mgrwt>
</event>
<event>
 4    1  0.1726795E-008  0.9383781E+03  0.7818608E-02  0.9378839E-01
          2   -1    0    0  501    0  0.00000000000E+00  0.00000000000E+00  0.85814525941E+03  0.85814525941E+03  0.25500000000E-02 0. -1.
         -2   -1    0    0    0  501 -0.00000000000E+00 -0.00000000000E+00 -0.14069944751E+04  0.14069944751E+04  0.25500000000E-02 0.  1.
    8880022    1    1    2    0    0  0.84088300574E+03 -0.38739854311E+03 -0.86369423874E+03  0.12753514228E+04  0.15294330000E+03 0.  0.
    8880022    1    1    2    0    0 -0.84088300574E+03  0.38739854311E+03  0.31484502302E+03  0.98978831175E+03  0.15294330000E+03 0.  0.
<mgrwt>
<rscale>  0 0.93837813E+03</rscale>
<asrwt>0</asrwt>
<pdfrwt beam="1">  1        2 0.13202235E+00 0.93837813E+03</pdfrwt>
<pdfrwt beam="2">  1       -2 0.21646069E+00 0.93837813E+03</pdfrwt>
<totfact> 0.32628528E+00</totfact>
</mgrwt>
</event>
<event>
 4    1  0.1726795E-008  0.1043050E+04  0.7818608E-02  0.9262549E-01
         -2   -1    0    0    0  501 -0.00000000000E+00  0.00000000000E+00  0.49573691654E+03  0.49573691654E+03  0.25500000000E-02 0.  1.
          2   -1    0    0  501    0  0.00000000000E+00 -0.00000000000E+00 -0.27432463845E+04  0.27432463845E+04  0.25500000000E-02 0. -1.
    8880022    1    1    2    0    0  0.29375346931E+03  0.98907513662E+03 -0.39950880054E+03  0.11169421029E+04  0.15294330000E+03 0.  0.
    8880022    1    1    2    0    0 -0.29375346931E+03 -0.98907513662E+03 -0.18480006674E+04  0.21220411981E+04  0.15294330000E+03 0.  0.
<mgrwt>
<rscale>  0 0.10430496E+04</rscale>
<asrwt>0</asrwt>
<pdfrwt beam="1">  1        2 0.42203790E+00 0.10430496E+04</pdfrwt>
<pdfrwt beam="2">  1       -2 0.76267220E-01 0.10430496E+04</pdfrwt>
<totfact> 0.38856724E+00</totfact>
</mgrwt>
</event>
<event>
 4    1  0.1726795E-008  0.7456858E+03  0.7818608E-02  0.9642143E-01
          2   -1    0    0  501    0  0.00000000000E+00  0.00000000000E+00  0.18823391577E+04  0.18823391577E+04  0.25500000000E-02 0. -1.
         -2   -1    0    0    0  501 -0.00000000000E+00 -0.00000000000E+00 -0.51446352256E+03  0.51446352257E+03  0.25500000000E-02 0.  1.
    8880022    1    1    2    0    0 -0.40692295144E+03  0.60586254470E+03 -0.98063924979E+02  0.75210630756E+03  0.15294330000E+03 0.  0.
    8880022    1    1    2    0    0  0.40692295144E+03 -0.60586254470E+03  0.14659395601E+04  0.16446963727E+04  0.15294330000E+03 0.  0.
<mgrwt>
<rscale>  0 0.74568583E+03</rscale>
<asrwt>0</asrwt>
<pdfrwt beam="1">  1        2 0.28959064E+00 0.74568583E+03</pdfrwt>
<pdfrwt beam="2">  1       -2 0.79148234E-01 0.74568583E+03</pdfrwt>
<totfact> 0.11361882E+01</totfact>
</mgrwt>
</event>
<event>
 4    1  0.1726795E-008  0.9322316E+03  0.7818608E-02  0.9386164E-01
          2   -1    0    0  501    0  0.00000000000E+00  0.00000000000E+00  0.20898303847E+04  0.20898303847E+04  0.25500000000E-02 0. -1.
         -2   -1    0    0    0  501 -0.00000000000E+00 -0.00000000000E+00 -0.49712328331E+03  0.49712328332E+03  0.25500000000E-02 0.  1.
    8880022    1    1    2    0    0  0.85074785519E+03 -0.34913053123E+03  0.13193525434E+04  0.16154710854E+04  0.15294330000E+03 0.  0.
    8880022    1    1    2    0    0 -0.85074785519E+03  0.34913053123E+03  0.27335455796E+03  0.97148258261E+03  0.15294330000E+03 0.  0.
<mgrwt>
<rscale>  0 0.93223157E+03</rscale>
<asrwt>0</asrwt>
<pdfrwt beam="1">  1        2 0.32151236E+00 0.93223157E+03</pdfrwt>
<pdfrwt beam="2">  1       -2 0.76480507E-01 0.93223157E+03</pdfrwt>
<totfact> 0.92096037E+00</totfact>
</mgrwt>
</event>
<event>
 4    1  0.1726795E-008  0.4946291E+03  0.7818608E-02  0.1015190E+00
         -2   -1    0    0    0  501 -0.00000000000E+00  0.00000000000E+00  0.46602768560E+03  0.46602768561E+03  0.25500000000E-02 0.  1.
          2   -1    0    0  501    0  0.00000000000E+00 -0.00000000000E+00 -0.13999770842E+04  0.13999770842E+04  0.25500000000E-02 0. -1.
    8880022    1    1    2    0    0 -0.39594564063E+03  0.25395534080E+03  0.27063081249E+03  0.56382528778E+03  0.15294330000E+03 0.  0.
    8880022    1    1    2    0    0  0.39594564063E+03 -0.25395534080E+03 -0.12045802111E+04  0.13021794821E+04  0.15294330000E+03 0.  0.
<mgrwt>
<rscale>  0 0.49462907E+03</rscale>
<asrwt>0</asrwt>
<pdfrwt beam="1">  1        2 0.21538109E+00 0.49462907E+03</pdfrwt>
<pdfrwt beam="2">  1       -2 0.71696568E-01 0.49462907E+03</pdfrwt>
<totfact> 0.27030971E+01</totfact>
</mgrwt>
</event>
<event>
 4    1  0.1726795E-008  0.2746580E+03  0.7818608E-02  0.1098643E+00
          2   -1    0    0  501    0  0.00000000000E+00  0.00000000000E+00  0.16314393716E+04  0.16314393716E+04  0.25500000000E-02 0. -1.
         -2   -1    0    0    0  501 -0.00000000000E+00 -0.00000000000E+00 -0.16555614409E+03  0.16555614411E+03  0.25500000000E-02 0.  1.
    8880022    1    1    2    0    0  0.15900632542E+03  0.16359207911E+03  0.14957136419E+04  0.15207223058E+04  0.15294330000E+03 0.  0.
    8880022    1    1    2    0    0 -0.15900632542E+03 -0.16359207911E+03 -0.29830414367E+02  0.27627320990E+03  0.15294330000E+03 0.  0.
<mgrwt>
<rscale>  0 0.27465803E+03</rscale>
<asrwt>0</asrwt>
<pdfrwt beam="1">  1        2 0.25099067E+00 0.27465803E+03</pdfrwt>
<pdfrwt beam="2">  1       -2 0.25470176E-01 0.27465803E+03</pdfrwt>
<totfact> 0.16101664E+02</totfact>
</mgrwt>
</event>
<event>
 4    1  0.1726795E-008  0.5301903E+03  0.7818608E-02  0.1006186E+00
          2   -1    0    0  501    0  0.00000000000E+00  0.00000000000E+00  0.20136247850E+04  0.20136247850E+04  0.25500000000E-02 0. -1.
         -2   -1    0    0    0  501 -0.00000000000E+00 -0.00000000000E+00 -0.30901911790E+03  0.30901911791E+03  0.25500000000E-02 0.  1.
    8880022    1    1    2    0    0  0.18120193851E+03 -0.47421093570E+03  0.17121896779E+04  0.17923993138E+04  0.15294330000E+03 0. -1.
    8880022    1    1    2    0    0 -0.18120193851E+03  0.47421093570E+03 -0.75840107784E+01  0.53024458912E+03  0.15294330000E+03 0.  0.
<mgrwt>
<rscale>  0 0.53019035E+03</rscale>
<asrwt>0</asrwt>
<pdfrwt beam="1">  1        2 0.30978843E+00 0.53019035E+03</pdfrwt>
<pdfrwt beam="2">  1       -2 0.47541403E-01 0.53019035E+03</pdfrwt>
<totfact> 0.29436583E+01</totfact>
</mgrwt>
</event>
<event>
 4    1  0.1726795E-008  0.4927911E+03  0.7818608E-02  0.1015678E+00
          2   -1    0    0  501    0  0.00000000000E+00  0.00000000000E+00  0.25807080141E+04  0.25807080141E+04  0.25500000000E-02 0. -1.
         -2   -1    0    0    0  501 -0.00000000000E+00 -0.00000000000E+00 -0.46514118043E+03  0.46514118044E+03  0.25500000000E-02 0.  1.
    8880022    1    1    2    0    0 -0.30915001949E+03  0.35196260937E+03 -0.30239981200E+03  0.57817705961E+03  0.15294330000E+03 0.  0.
    8880022    1    1    2    0    0  0.30915001949E+03 -0.35196260937E+03  0.24179666457E+04  0.24676721349E+04  0.15294330000E+03 0.  0.
<mgrwt>
<rscale>  0 0.49279110E+03</rscale>
<asrwt>0</asrwt>
<pdfrwt beam="1">  1        2 0.39703201E+00 0.49279110E+03</pdfrwt>
<pdfrwt beam="2">  1       -2 0.71560181E-01 0.49279110E+03</pdfrwt>
<totfact> 0.61626036E+00</totfact>
</mgrwt>
</event>
<event>
 4    1  0.1726795E-008  0.7992180E+03  0.7818608E-02  0.9561150E-01
         -2   -1    0    0    0  501 -0.00000000000E+00  0.00000000000E+00  0.18456410198E+04  0.18456410199E+04  0.25500000000E-02 0.  1.
          2   -1    0    0  501    0  0.00000000000E+00 -0.00000000000E+00 -0.41630529277E+03  0.41630529277E+03  0.25500000000E-02 0. -1.
    8880022    1    1    2    0    0  0.18457557783E+03 -0.76242354449E+03  0.11791578247E+04  0.14244867966E+04  0.15294330000E+03 0.  0.
    8880022    1    1    2    0    0 -0.18457557783E+03  0.76242354449E+03  0.25017790237E+03  0.83745951602E+03  0.15294330000E+03 0.  0.
<mgrwt>
<rscale>  0 0.79921803E+03</rscale>
<asrwt>0</asrwt>
<pdfrwt beam="1">  1        2 0.64046970E-01 0.79921803E+03</pdfrwt>
<pdfrwt beam="2">  1       -2 0.28394476E+00 0.79921803E+03</pdfrwt>
<totfact> 0.31182295E+00</totfact>
</mgrwt>
</event>
<event>
 4    1  0.1726795E-008  0.6146310E+03  0.7818608E-02  0.9875508E-01
          2   -1    0    0  501    0  0.00000000000E+00  0.00000000000E+00  0.15710327636E+04  0.15710327636E+04  0.25500000000E-02 0. -1.
         -2   -1    0    0    0  501 -0.00000000000E+00 -0.00000000000E+00 -0.12910065580E+04  0.12910065580E+04  0.25500000000E-02 0.  1.
    8880022    1    1    2    0    0  0.56519366469E+03  0.18691119310E+03 -0.11508759709E+04  0.13047171441E+04  0.15294330000E+03 0.  0.
    8880022    1    1    2    0    0 -0.56519366469E+03 -0.18691119310E+03  0.14309021765E+04  0.15573221775E+04  0.15294330000E+03 0.  0.
<mgrwt>
<rscale>  0 0.61463105E+03</rscale>
<asrwt>0</asrwt>
<pdfrwt beam="1">  1        2 0.24169735E+00 0.61463105E+03</pdfrwt>
<pdfrwt beam="2">  1       -2 0.19861639E+00 0.61463105E+03</pdfrwt>
<totfact> 0.16702516E+00</totfact>
</mgrwt>
</event>
<event>
 4    1  0.1726795E-008  0.1582653E+04  0.7818608E-02  0.8831276E-01
          2   -1    0    0  501    0  0.00000000000E+00  0.00000000000E+00  0.22200918926E+04  0.22200918926E+04  0.25500000000E-02 0. -1.
         -2   -1    0    0    0  501 -0.00000000000E+00 -0.00000000000E+00 -0.19608478596E+04  0.19608478596E+04  0.25500000000E-02 0.  1.
    8880022    1    1    2    0    0 -0.35090987808E+02  0.15748551352E+04 -0.12325839417E+04  0.20060047110E+04  0.15294330000E+03 0.  0.
    8880022    1    1    2    0    0  0.35090987808E+02 -0.15748551352E+04  0.14918279747E+04  0.21749350412E+04  0.15294330000E+03 0.  0.
<mgrwt>
<rscale>  0 0.15826534E+04</rscale>
<asrwt>0</asrwt>
<pdfrwt beam="1">  1        2 0.34155260E+00 0.15826534E+04</pdfrwt>
<pdfrwt beam="2">  1       -2 0.30166890E+00 0.15826534E+04</pdfrwt>
<totfact> 0.14499481E-01</totfact>
</mgrwt>
</event>
<event>
 4    1  0.1726795E-008  0.1241807E+04  0.7818608E-02  0.9077030E-01
          2   -1    0    0  501    0  0.00000000000E+00  0.00000000000E+00  0.49345207305E+04  0.49345207305E+04  0.25500000000E-02 0. -1.
         -2   -1    0    0    0  501 -0.00000000000E+00 -0.00000000000E+00 -0.89342656775E+03  0.89342656775E+03  0.25500000000E-02 0.  1.
    8880022    1    1    2    0    0 -0.78421392471E+03 -0.95063253031E+03  0.43702513256E+04  0.45432567603E+04  0.15294330000E+03 0.  0.
    8880022    1    1    2    0    0  0.78421392471E+03  0.95063253031E+03 -0.32915716291E+03  0.12846905380E+04  0.15294330000E+03 0.  0.
<mgrwt>
<rscale>  0 0.12418073E+04</rscale>
<asrwt>0</asrwt>
<pdfrwt beam="1">  1        2 0.75915702E+00 0.12418073E+04</pdfrwt>
<pdfrwt beam="2">  1       -2 0.13745024E+00 0.12418073E+04</pdfrwt>
<totfact> 0.16128234E-02</totfact>
</mgrwt>
</event>
<event>
 4    1  0.1726795E-008  0.1406928E+04  0.7818608E-02  0.8948819E-01
         -2   -1    0    0    0  501 -0.00000000000E+00  0.00000000000E+00  0.89714883234E+03  0.89714883235E+03  0.25500000000E-02 0.  1.
          2   -1    0    0  501    0  0.00000000000E+00 -0.00000000000E+00 -0.31554017492E+04  0.31554017492E+04  0.25500000000E-02 0. -1.
    8880022    1    1    2    0    0  0.10365068281E+04  0.93899383511E+03 -0.17880589773E+02  0.14070420021E+04  0.15294330000E+03 0.  0.
    8880022    1    1    2    0    0 -0.10365068281E+04 -0.93899383511E+03 -0.22403723270E+04  0.26455085794E+04  0.15294330000E+03 0.  0.
<mgrwt>
<rscale>  0 0.14069284E+04</rscale>
<asrwt>0</asrwt>
<pdfrwt beam="1">  1        2 0.48544642E+00 0.14069284E+04</pdfrwt>
<pdfrwt beam="2">  1       -2 0.13802290E+00 0.14069284E+04</pdfrwt>
<totfact> 0.49681151E-01</totfact>
</mgrwt>
</event>
<event>
 4    1  0.1726795E-008  0.1268723E+04  0.7818608E-02  0.9054743E-01
         -2   -1    0    0    0  501 -0.00000000000E+00  0.00000000000E+00  0.89018949422E+03  0.89018949423E+03  0.25500000000E-02 0.  1.
          2   -1    0    0  501    0  0.00000000000E+00 -0.00000000000E+00 -0.26588307103E+04  0.26588307103E+04  0.25500000000E-02 0. -1.
    8880022    1    1    2    0    0  0.11935151890E+04 -0.40222769950E+03 -0.18880089750E+04  0.22746945227E+04  0.15294330000E+03 0. -1.
    8880022    1    1    2    0    0 -0.11935151890E+04  0.40222769950E+03  0.11936775898E+03  0.12743256819E+04  0.15294330000E+03 0.  0.
<mgrwt>
<rscale>  0 0.12687227E+04</rscale>
<asrwt>0</asrwt>
<pdfrwt beam="1">  1        2 0.40905087E+00 0.12687227E+04</pdfrwt>
<pdfrwt beam="2">  1       -2 0.13695223E+00 0.12687227E+04</pdfrwt>
<totfact> 0.10387339E+00</totfact>
</mgrwt>
</event>
<event>
 4    1  0.1726795E-008  0.6228133E+03  0.7818608E-02  0.9859174E-01
         -2   -1    0    0    0  501 -0.00000000000E+00  0.00000000000E+00  0.42626386337E+03  0.42626386338E+03  0.25500000000E-02 0.  1.
          2   -1    0    0  501    0  0.00000000000E+00 -0.00000000000E+00 -0.11498181405E+04  0.11498181405E+04  0.25500000000E-02 0. -1.
    8880022    1    1    2    0    0 -0.40778956508E+03 -0.44521055128E+03 -0.18760934591E+01  0.62281613426E+03  0.15294330000E+03 0.  0.
    8880022    1    1    2    0    0  0.40778956508E+03  0.44521055128E+03 -0.72167818365E+03  0.95326586959E+03  0.15294330000E+03 0.  0.
<mgrwt>
<rscale>  0 0.62281331E+03</rscale>
<asrwt>0</asrwt>
<pdfrwt beam="1">  1        2 0.17689510E+00 0.62281331E+03</pdfrwt>
<pdfrwt beam="2">  1       -2 0.65579056E-01 0.62281331E+03</pdfrwt>
<totfact> 0.44840180E+01</totfact>
</mgrwt>
</event>
<event>
 4    1  0.1726795E-008  0.1639254E+04  0.7818608E-02  0.8796789E-01
         -2   -1    0    0    0  501 -0.00000000000E+00  0.00000000000E+00  0.10631729567E+04  0.10631729567E+04  0.25500000000E-02 0.  1.
          2   -1    0    0  501    0  0.00000000000E+00 -0.00000000000E+00 -0.43851794741E+04  0.43851794741E+04  0.25500000000E-02 0. -1.
    8880022    1    1    2    0    0  0.10040085155E+04  0.12867513101E+04  0.11207807076E+03  0.16430810023E+04  0.15294330000E+03 0.  0.
    8880022    1    1    2    0    0 -0.10040085155E+04 -0.12867513101E+04 -0.34340845882E+04  0.38052714285E+04  0.15294330000E+03 0.  0.
<mgrwt>
<rscale>  0 0.16392540E+04</rscale>
<asrwt>0</asrwt>
<pdfrwt beam="1">  1        2 0.67464299E+00 0.16392540E+04</pdfrwt>
<pdfrwt beam="2">  1       -2 0.16356507E+00 0.16392540E+04</pdfrwt>
<totfact> 0.35601543E-02</totfact>
</mgrwt>
</event>
<event>
 4    1  0.1726795E-008  0.1706418E+04  0.7818608E-02  0.8757713E-01
         -2   -1    0    0    0  501 -0.00000000000E+00  0.00000000000E+00  0.21118351497E+04  0.21118351497E+04  0.25500000000E-02 0.  1.
          2   -1    0    0  501    0  0.00000000000E+00 -0.00000000000E+00 -0.17666109672E+04  0.17666109672E+04  0.25500000000E-02 0. -1.
    8880022    1    1    2    0    0  0.16995363238E+04 -0.67972990360E+01  0.10811657325E+04  0.20200942833E+04  0.15294330000E+03 0.  0.
    8880022    1    1    2    0    0 -0.16995363238E+04  0.67972990360E+01 -0.73594154996E+03  0.18583518336E+04  0.15294330000E+03 0.  0.
<mgrwt>
<rscale>  0 0.17064178E+04</rscale>
<asrwt>0</asrwt>
<pdfrwt beam="1">  1        2 0.27178630E+00 0.17064178E+04</pdfrwt>
<pdfrwt beam="2">  1       -2 0.32489772E+00 0.17064178E+04</pdfrwt>
<totfact> 0.18464845E-01</totfact>
</mgrwt>
</event>
<event>
 4    1  0.1726795E-008  0.1135373E+04  0.7818608E-02  0.9171385E-01
          2   -1    0    0  501    0  0.00000000000E+00  0.00000000000E+00  0.16920972167E+04  0.16920972167E+04  0.25500000000E-02 0. -1.
         -2   -1    0    0    0  501 -0.00000000000E+00 -0.00000000000E+00 -0.16416470622E+04  0.16416470622E+04  0.25500000000E-02 0.  1.
    8880022    1    1    2    0    0  0.95537017891E+03  0.59409434695E+03 -0.11950599396E+04  0.16484053458E+04  0.15294330000E+03 0.  0.
    8880022    1    1    2    0    0 -0.95537017891E+03 -0.59409434695E+03  0.12455100941E+04  0.16853389331E+04  0.15294330000E+03 0.  0.
<mgrwt>
<rscale>  0 0.11353730E+04</rscale>
<asrwt>0</asrwt>
<pdfrwt beam="1">  1        2 0.26032265E+00 0.11353730E+04</pdfrwt>
<pdfrwt beam="2">  1       -2 0.25256109E+00 0.11353730E+04</pdfrwt>
<totfact> 0.60191575E-01</totfact>
</mgrwt>
</event>
<event>
 4    1  0.1726795E-008  0.9613627E+03  0.7818608E-02  0.9351967E-01
         -2   -1    0    0    0  501 -0.00000000000E+00  0.00000000000E+00  0.14441847648E+04  0.14441847648E+04  0.25500000000E-02 0.  1.
          2   -1    0    0  501    0  0.00000000000E+00 -0.00000000000E+00 -0.93719111681E+03  0.93719111682E+03  0.25500000000E-02 0. -1.
    8880022    1    1    2    0    0 -0.60256448120E+03  0.73330943293E+03 -0.41705461372E+03  0.10479278994E+04  0.15294330000E+03 0.  0.
    8880022    1    1    2    0    0  0.60256448120E+03 -0.73330943293E+03  0.92404826173E+03  0.13334479823E+04  0.15294330000E+03 0.  0.
<mgrwt>
<rscale>  0 0.96136275E+03</rscale>
<asrwt>0</asrwt>
<pdfrwt beam="1">  1        2 0.14418325E+00 0.96136275E+03</pdfrwt>
<pdfrwt beam="2">  1       -2 0.22218227E+00 0.96136275E+03</pdfrwt>
<totfact> 0.26465248E+00</totfact>
</mgrwt>
</event>
<event>
 4    1  0.1726795E-008  0.5622416E+03  0.7818608E-02  0.9986995E-01
         -2   -1    0    0    0  501 -0.00000000000E+00  0.00000000000E+00  0.29282089999E+03  0.29282090000E+03  0.25500000000E-02 0.  1.
          2   -1    0    0  501    0  0.00000000000E+00 -0.00000000000E+00 -0.32386443987E+04  0.32386443987E+04  0.25500000000E-02 0. -1.
    8880022    1    1    2    0    0 -0.35911731278E+03  0.40467111266E+03 -0.31198618617E+02  0.56310652685E+03  0.15294330000E+03 0.  0.
    8880022    1    1    2    0    0  0.35911731278E+03 -0.40467111266E+03 -0.29146248801E+04  0.29683587719E+04  0.15294330000E+03 0.  0.
<mgrwt>
<rscale>  0 0.56224159E+03</rscale>
<asrwt>0</asrwt>
<pdfrwt beam="1">  1        2 0.49825296E+00 0.56224159E+03</pdfrwt>
<pdfrwt beam="2">  1       -2 0.45049372E-01 0.56224159E+03</pdfrwt>
<totfact> 0.64034188E+00</totfact>
</mgrwt>
</event>
<event>
 4    1  0.1726795E-008  0.6735633E+03  0.7818608E-02  0.9763542E-01
         -2   -1    0    0    0  501 -0.00000000000E+00  0.00000000000E+00  0.97138589706E+03  0.97138589707E+03  0.25500000000E-02 0.  1.
          2   -1    0    0  501    0  0.00000000000E+00 -0.00000000000E+00 -0.17582555559E+04  0.17582555559E+04  0.25500000000E-02 0. -1.
    8880022    1    1    2    0    0 -0.57983550354E+03 -0.30673549441E+03 -0.15630203982E+04  0.17019754090E+04  0.15294330000E+03 0.  0.
    8880022    1    1    2    0    0  0.57983550354E+03  0.30673549441E+03  0.77615073935E+03  0.10276660440E+04  0.15294330000E+03 0.  0.
<mgrwt>
<rscale>  0 0.67356331E+03</rscale>
<asrwt>0</asrwt>
<pdfrwt beam="1">  1        2 0.27050085E+00 0.67356331E+03</pdfrwt>
<pdfrwt beam="2">  1       -2 0.14944398E+00 0.67356331E+03</pdfrwt>
<totfact> 0.28820555E+00</totfact>
</mgrwt>
</event>
<event>
 4    1  0.1726795E-008  0.6539328E+03  0.7818608E-02  0.9799427E-01
         -2   -1    0    0    0  501 -0.00000000000E+00  0.00000000000E+00  0.25845664753E+03  0.25845664754E+03  0.25500000000E-02 0.  1.
          2   -1    0    0  501    0  0.00000000000E+00 -0.00000000000E+00 -0.24880986537E+04  0.24880986537E+04  0.25500000000E-02 0. -1.
    8880022    1    1    2    0    0  0.50832352171E+03 -0.38189477638E+03 -0.31995959382E+03  0.72801251201E+03  0.15294330000E+03 0.  0.
    8880022    1    1    2    0    0 -0.50832352171E+03  0.38189477638E+03 -0.19096824124E+04  0.20185427893E+04  0.15294330000E+03 0.  0.
<mgrwt>
<rscale>  0 0.65393278E+03</rscale>
<asrwt>0</asrwt>
<pdfrwt beam="1">  1        2 0.38278439E+00 0.65393278E+03</pdfrwt>
<pdfrwt beam="2">  1       -2 0.39762563E-01 0.65393278E+03</pdfrwt>
<totfact> 0.22459705E+01</totfact>
</mgrwt>
</event>
<event>
 4    1  0.1726795E-008  0.5426172E+03  0.7818608E-02  0.1003217E+00
          2   -1    0    0  501    0  0.00000000000E+00  0.00000000000E+00  0.29779729155E+04  0.29779729155E+04  0.25500000000E-02 0. -1.
         -2   -1    0    0    0  501 -0.00000000000E+00 -0.00000000000E+00 -0.15326925345E+03  0.15326925348E+03  0.25500000000E-02 0.  1.
    8880022    1    1    2    0    0 -0.29709133865E+03  0.42752600001E+03  0.47962604882E+03  0.72420614738E+03  0.15294330000E+03 0.  0.
    8880022    1    1    2    0    0  0.29709133865E+03 -0.42752600001E+03  0.23450776132E+04  0.24070360216E+04  0.15294330000E+03 0.  0.
<mgrwt>
<rscale>  0 0.54261717E+03</rscale>
<asrwt>0</asrwt>
<pdfrwt beam="1">  1        2 0.45814967E+00 0.54261717E+03</pdfrwt>
<pdfrwt beam="2">  1       -2 0.23579886E-01 0.54261717E+03</pdfrwt>
<totfact> 0.31423220E+01</totfact>
</mgrwt>
</event>
<event>
 4    1  0.1726795E-008  0.3254574E+03  0.7818608E-02  0.1073165E+00
          2   -1    0    0  501    0  0.00000000000E+00  0.00000000000E+00  0.10107190910E+04  0.10107190910E+04  0.25500000000E-02 0. -1.
         -2   -1    0    0    0  501 -0.00000000000E+00 -0.00000000000E+00 -0.21607448846E+03  0.21607448848E+03  0.25500000000E-02 0.  1.
    8880022    1    1    2    0    0 -0.17231112707E+03  0.22986892757E+03 -0.42866727884E+02  0.32826827101E+03  0.15294330000E+03 0.  0.
    8880022    1    1    2    0    0  0.17231112707E+03 -0.22986892757E+03  0.83751133041E+03  0.89852530847E+03  0.15294330000E+03 0. -1.
<mgrwt>
<rscale>  0 0.32545737E+03</rscale>
<asrwt>0</asrwt>
<pdfrwt beam="1">  1        2 0.15549524E+00 0.32545737E+03</pdfrwt>
<pdfrwt beam="2">  1       -2 0.33242229E-01 0.32545737E+03</pdfrwt>
<totfact> 0.21920783E+02</totfact>
</mgrwt>
</event>
<event>
 4    1  0.1726795E-008  0.8194177E+03  0.7818608E-02  0.9532328E-01
          2   -1    0    0  501    0  0.00000000000E+00  0.00000000000E+00  0.28478877544E+04  0.28478877544E+04  0.25500000000E-02 0. -1.
         -2   -1    0    0    0  501 -0.00000000000E+00 -0.00000000000E+00 -0.63596982381E+03  0.63596982382E+03  0.25500000000E-02 0.  1.
    8880022    1    1    2    0    0  0.73407145836E+03 -0.33044336565E+03 -0.27585889578E+03  0.86460598383E+03  0.15294330000E+03 0.  0.
    8880022    1    1    2    0    0 -0.73407145836E+03  0.33044336565E+03  0.24877768263E+04  0.26192515943E+04  0.15294330000E+03 0.  0.
<mgrwt>
<rscale>  0 0.81941771E+03</rscale>
<asrwt>0</asrwt>
<pdfrwt beam="1">  1        2 0.43813659E+00 0.81941771E+03</pdfrwt>
<pdfrwt beam="2">  1       -2 0.97841509E-01 0.81941771E+03</pdfrwt>
<totfact> 0.19703358E+00</totfact>
</mgrwt>
</event>
<event>
 4    1  0.1726795E-008  0.1177153E+04  0.7818608E-02  0.9133092E-01
         -2   -1    0    0    0  501 -0.00000000000E+00  0.00000000000E+00  0.79080213997E+03  0.79080213998E+03  0.25500000000E-02 0.  1.
          2   -1    0    0  501    0  0.00000000000E+00 -0.00000000000E+00 -0.22213913096E+04  0.22213913096E+04  0.25500000000E-02 0. -1.
    8880022    1    1    2    0    0 -0.11587245024E+04 -0.14020040831E+03 -0.23164167279E+02  0.11773813564E+04  0.15294330000E+03 0.  0.
    8880022    1    1    2    0    0  0.11587245024E+04  0.14020040831E+03 -0.14074250023E+04  0.18348120931E+04  0.15294330000E+03 0.  0.
<mgrwt>
<rscale>  0 0.11771535E+04</rscale>
<asrwt>0</asrwt>
<pdfrwt beam="1">  1        2 0.34175251E+00 0.11771535E+04</pdfrwt>
<pdfrwt beam="2">  1       -2 0.12166187E+00 0.11771535E+04</pdfrwt>
<totfact> 0.25262326E+00</totfact>
</mgrwt>
</event>
<event>
 4    1  0.2163106E-008  0.7258833E+03  0.7818608E-02  0.9673964E-01
          2   -1    0    0  501    0  0.00000000000E+00  0.00000000000E+00  0.14264562995E+04  0.14264562995E+04  0.25500000000E-02 0. -1.
         -2   -1    0    0    0  501 -0.00000000000E+00 -0.00000000000E+00 -0.24350856506E+04  0.24350856506E+04  0.25500000000E-02 0.  1.
    8880022    1    1    2    0    0  0.58587621651E+03 -0.40032982849E+03 -0.22826256228E+04  0.23952633048E+04  0.15294330000E+03 0.  0.
    8880022    1    1    2    0    0 -0.58587621651E+03  0.40032982849E+03  0.12739962716E+04  0.14662786453E+04  0.15294330000E+03 0.  0.
<mgrwt>
<rscale>  0 0.72588330E+03</rscale>
<asrwt>0</asrwt>
<pdfrwt beam="1">  1        2 0.21945482E+00 0.72588330E+03</pdfrwt>
<pdfrwt beam="2">  1       -2 0.37462856E+00 0.72588330E+03</pdfrwt>
<totfact> 0.16334888E-01</totfact>
</mgrwt>
</event>
<event>
 4    1  0.1726795E-008  0.2023665E+03  0.7818608E-02  0.1147758E+00
          2   -1    0    0  501    0  0.00000000000E+00  0.00000000000E+00  0.34022498436E+03  0.34022498437E+03  0.25500000000E-02 0. -1.
         -2   -1    0    0    0  501 -0.00000000000E+00 -0.00000000000E+00 -0.54679308405E+03  0.54679308405E+03  0.25500000000E-02 0.  1.
    8880022    1    1    2    0    0  0.49240088776E+02  0.12302824758E+03 -0.49494687652E+03  0.53471917829E+03  0.15294330000E+03 0.  1.
    8880022    1    1    2    0    0 -0.49240088776E+02 -0.12302824758E+03  0.28837877683E+03  0.35229889013E+03  0.15294330000E+03 0.  0.
<mgrwt>
<rscale>  0 0.20236647E+03</rscale>
<asrwt>0</asrwt>
<pdfrwt beam="1">  1        2 0.52342305E-01 0.20236647E+03</pdfrwt>
<pdfrwt beam="2">  1       -2 0.84122013E-01 0.20236647E+03</pdfrwt>
<totfact> 0.12339174E+02</totfact>
</mgrwt>
</event>
<event>
 4    1  0.1726795E-008  0.8624792E+03  0.7818608E-02  0.9473739E-01
         -2   -1    0    0    0  501 -0.00000000000E+00  0.00000000000E+00  0.10332923678E+04  0.10332923679E+04  0.25500000000E-02 0.  1.
          2   -1    0    0  501    0  0.00000000000E+00 -0.00000000000E+00 -0.95828702195E+03  0.95828702195E+03  0.25500000000E-02 0. -1.
    8880022    1    1    2    0    0 -0.81978346304E+03  0.22007674018E+03 -0.45915634937E+03  0.97708490113E+03  0.15294330000E+03 0.  0.
    8880022    1    1    2    0    0  0.81978346304E+03 -0.22007674018E+03  0.53416169527E+03  0.10144944887E+04  0.15294330000E+03 0.  0.
<mgrwt>
<rscale>  0 0.86247919E+03</rscale>
<asrwt>0</asrwt>
<pdfrwt beam="1">  1        2 0.14742877E+00 0.86247919E+03</pdfrwt>
<pdfrwt beam="2">  1       -2 0.15896806E+00 0.86247919E+03</pdfrwt>
<totfact> 0.69091831E+00</totfact>
</mgrwt>
</event>
<event>
 4    1  0.1726795E-008  0.1331546E+04  0.7818608E-02  0.9004916E-01
         -2   -1    0    0    0  501 -0.00000000000E+00  0.00000000000E+00  0.18550750296E+04  0.18550750296E+04  0.25500000000E-02 0.  1.
          2   -1    0    0  501    0  0.00000000000E+00 -0.00000000000E+00 -0.11413990897E+04  0.11413990897E+04  0.25500000000E-02 0. -1.
    8880022    1    1    2    0    0  0.77654555545E+03 -0.10707945190E+04  0.96105197342E+03  0.16421438580E+04  0.15294330000E+03 0.  0.
    8880022    1    1    2    0    0 -0.77654555545E+03  0.10707945190E+04 -0.24737603346E+03  0.13543302613E+04  0.15294330000E+03 0.  0.
<mgrwt>
<rscale>  0 0.13315463E+04</rscale>
<asrwt>0</asrwt>
<pdfrwt beam="1">  1        2 0.17559986E+00 0.13315463E+04</pdfrwt>
<pdfrwt beam="2">  1       -2 0.28539615E+00 0.13315463E+04</pdfrwt>
<totfact> 0.77113166E-01</totfact>
</mgrwt>
</event>
<event>
 4    1  0.1726795E-008  0.1283296E+04  0.7818608E-02  0.9042918E-01
          2   -1    0    0  501    0  0.00000000000E+00  0.00000000000E+00  0.31695590201E+04  0.31695590201E+04  0.25500000000E-02 0. -1.
         -2   -1    0    0    0  501 -0.00000000000E+00 -0.00000000000E+00 -0.68504929800E+03  0.68504929801E+03  0.25500000000E-02 0.  1.
    8880022    1    1    2    0    0 -0.12737399714E+04  0.32286521531E+02  0.29504829603E+03  0.13167767785E+04  0.15294330000E+03 0.  0.
    8880022    1    1    2    0    0  0.12737399714E+04 -0.32286521531E+02  0.21894614261E+04  0.25378315396E+04  0.15294330000E+03 0. -1.
<mgrwt>
<rscale>  0 0.12832956E+04</rscale>
<asrwt>0</asrwt>
<pdfrwt beam="1">  1        2 0.48762447E+00 0.12832956E+04</pdfrwt>
<pdfrwt beam="2">  1       -2 0.10539220E+00 0.12832956E+04</pdfrwt>
<totfact> 0.97087559E-01</totfact>
</mgrwt>
</event>
<event>
 4    1  0.1726795E-008  0.8778265E+03  0.7818608E-02  0.9453732E-01
          2   -1    0    0  501    0  0.00000000000E+00  0.00000000000E+00  0.44864558138E+03  0.44864558139E+03  0.25500000000E-02 0. -1.
         -2   -1    0    0    0  501 -0.00000000000E+00 -0.00000000000E+00 -0.25905759009E+04  0.25905759009E+04  0.25500000000E-02 0.  1.
    8880022    1    1    2    0    0  0.75702517320E+03  0.41725360107E+03 -0.18881349257E+03  0.89790303956E+03  0.15294330000E+03 0. -1.
    8880022    1    1    2    0    0 -0.75702517320E+03 -0.41725360107E+03 -0.19531168270E+04  0.21413184428E+04  0.15294330000E+03 0.  0.
<mgrwt>
<rscale>  0 0.87782648E+03</rscale>
<asrwt>0</asrwt>
<pdfrwt beam="1">  1        2 0.69022399E-01 0.87782648E+03</pdfrwt>
<pdfrwt beam="2">  1       -2 0.39855013E+00 0.87782648E+03</pdfrwt>
<totfact> 0.55038077E-01</totfact>
</mgrwt>
</event>
<event>
 4    1  0.1726795E-008  0.4329092E+03  0.7818608E-02  0.1032945E+00
         -2   -1    0    0    0  501 -0.00000000000E+00  0.00000000000E+00  0.53679593287E+03  0.53679593287E+03  0.25500000000E-02 0.  1.
          2   -1    0    0  501    0  0.00000000000E+00 -0.00000000000E+00 -0.16443392455E+04  0.16443392455E+04  0.25500000000E-02 0. -1.
    8880022    1    1    2    0    0  0.21516497915E+03  0.34310750655E+03 -0.15216643523E+04  0.15820470231E+04  0.15294330000E+03 0.  0.
    8880022    1    1    2    0    0 -0.21516497915E+03 -0.34310750655E+03  0.41412103964E+03  0.59908815527E+03  0.15294330000E+03 0.  0.
<mgrwt>
<rscale>  0 0.43290921E+03</rscale>
<asrwt>0</asrwt>
<pdfrwt beam="1">  1        2 0.25297527E+00 0.43290921E+03</pdfrwt>
<pdfrwt beam="2">  1       -2 0.82583990E-01 0.43290921E+03</pdfrwt>
<totfact> 0.14718025E+01</totfact>
</mgrwt>
</event>
<event>
 4    1  0.1726795E-008  0.7659687E+03  0.7818608E-02  0.9610626E-01
         -2   -1    0    0    0  501 -0.00000000000E+00  0.00000000000E+00  0.66486133289E+03  0.66486133290E+03  0.25500000000E-02 0.  1.
          2   -1    0    0  501    0  0.00000000000E+00 -0.00000000000E+00 -0.10661707373E+04  0.10661707373E+04  0.25500000000E-02 0. -1.
    8880022    1    1    2    0    0 -0.24349828566E+03 -0.70994711899E+03  0.15863012681E+03  0.78222215324E+03  0.15294330000E+03 0.  0.
    8880022    1    1    2    0    0  0.24349828566E+03  0.70994711899E+03 -0.55993953121E+03  0.94880991695E+03  0.15294330000E+03 0.  0.
<mgrwt>
<rscale>  0 0.76596865E+03</rscale>
<asrwt>0</asrwt>
<pdfrwt beam="1">  1        2 0.16402627E+00 0.76596865E+03</pdfrwt>
<pdfrwt beam="2">  1       -2 0.10228636E+00 0.76596865E+03</pdfrwt>
<totfact> 0.18178197E+01</totfact>
</mgrwt>
</event>
<event>
 4    1  0.1726795E-008  0.7569933E+03  0.7818608E-02  0.9624442E-01
          2   -1    0    0  501    0  0.00000000000E+00  0.00000000000E+00  0.39808619708E+03  0.39808619709E+03  0.25500000000E-02 0. -1.
         -2   -1    0    0    0  501 -0.00000000000E+00 -0.00000000000E+00 -0.19190579503E+04  0.19190579503E+04  0.25500000000E-02 0.  1.
    8880022    1    1    2    0    0 -0.38192059621E+03 -0.63543990183E+03 -0.13396566400E+04  0.15387393466E+04  0.15294330000E+03 0.  0.
    8880022    1    1    2    0    0  0.38192059621E+03  0.63543990183E+03 -0.18131511325E+03  0.77840480083E+03  0.15294330000E+03 0.  0.
<mgrwt>
<rscale>  0 0.75699330E+03</rscale>
<asrwt>0</asrwt>
<pdfrwt beam="1">  1        2 0.61244032E-01 0.75699330E+03</pdfrwt>
<pdfrwt beam="2">  1       -2 0.29523968E+00 0.75699330E+03</pdfrwt>
<totfact> 0.28217707E+00</totfact>
</mgrwt>
</event>
<event>
 4    1  0.1726795E-008  0.5310775E+03  0.7818608E-02  0.1005971E+00
          2   -1    0    0  501    0  0.00000000000E+00  0.00000000000E+00  0.36018592755E+04  0.36018592755E+04  0.25500000000E-02 0. -1.
         -2   -1    0    0    0  501 -0.00000000000E+00 -0.00000000000E+00 -0.59939287556E+03  0.59939287557E+03  0.25500000000E-02 0.  1.
    8880022    1    1    2    0    0  0.43532734047E+02  0.50671149199E+03 -0.45737912490E+03  0.70088440698E+03  0.15294330000E+03 0.  0.
    8880022    1    1    2    0    0 -0.43532734047E+02 -0.50671149199E+03  0.34598455248E+04  0.35003677441E+04  0.15294330000E+03 0.  0.
<mgrwt>
<rscale>  0 0.53107748E+03</rscale>
<asrwt>0</asrwt>
<pdfrwt beam="1">  1        2 0.55413220E+00 0.53107748E+03</pdfrwt>
<pdfrwt beam="2">  1       -2 0.92214288E-01 0.53107748E+03</pdfrwt>
<totfact> 0.80187714E-01</totfact>
</mgrwt>
</event>
<event>
 4    1  0.1726795E-008  0.8210883E+03  0.7818608E-02  0.9529985E-01
          2   -1    0    0  501    0  0.00000000000E+00  0.00000000000E+00  0.42206619844E+04  0.42206619844E+04  0.25500000000E-02 0. -1.
         -2   -1    0    0    0  501 -0.00000000000E+00 -0.00000000000E+00 -0.25910969906E+03  0.25910969908E+03  0.25500000000E-02 0.  1.
    8880022    1    1    2    0    0 -0.34831453269E+03 -0.72764776515E+03  0.59362832742E+03  0.10132031030E+04  0.15294330000E+03 0.  0.
    8880022    1    1    2    0    0  0.34831453269E+03  0.72764776515E+03  0.33679239580E+04  0.34665685805E+04  0.15294330000E+03 0.  0.
<mgrwt>
<rscale>  0 0.82108826E+03</rscale>
<asrwt>0</asrwt>
<pdfrwt beam="1">  1        2 0.64933256E+00 0.82108826E+03</pdfrwt>
<pdfrwt beam="2">  1       -2 0.39863034E-01 0.82108826E+03</pdfrwt>
<totfact> 0.14651722E+00</totfact>
</mgrwt>
</event>
<event>
 4    1  0.1726795E-008  0.8009208E+03  0.7818608E-02  0.9558685E-01
         -2   -1    0    0    0  501 -0.00000000000E+00  0.00000000000E+00  0.78484889231E+03  0.78484889232E+03  0.25500000000E-02 0.  1.
          2   -1    0    0  501    0  0.00000000000E+00 -0.00000000000E+00 -0.17244819441E+04  0.17244819442E+04  0.25500000000E-02 0. -1.
    8880022    1    1    2    0    0 -0.62154247815E+03  0.48142229038E+03 -0.13798148186E+04  0.15954193995E+04  0.15294330000E+03 0.  0.
    8880022    1    1    2    0    0  0.62154247815E+03 -0.48142229038E+03  0.44018176672E+03  0.91391143695E+03  0.15294330000E+03 0.  0.
<mgrwt>
<rscale>  0 0.80092080E+03</rscale>
<asrwt>0</asrwt>
<pdfrwt beam="1">  1        2 0.26530491E+00 0.80092080E+03</pdfrwt>
<pdfrwt beam="2">  1       -2 0.12074598E+00 0.80092080E+03</pdfrwt>
<totfact> 0.50784117E+00</totfact>
</mgrwt>
</event>
<event>
 4    1  0.1726795E-008  0.6058111E+03  0.7818608E-02  0.9893423E-01
         -2   -1    0    0    0  501 -0.00000000000E+00  0.00000000000E+00  0.85399145659E+03  0.85399145660E+03  0.25500000000E-02 0.  1.
          2   -1    0    0  501    0  0.00000000000E+00 -0.00000000000E+00 -0.26292309642E+04  0.26292309642E+04  0.25500000000E-02 0. -1.
    8880022    1    1    2    0    0 -0.22028861827E+03 -0.54322031970E+03  0.70530939281E+03  0.92976791926E+03  0.15294330000E+03 0.  0.
    8880022    1    1    2    0    0  0.22028861827E+03  0.54322031970E+03 -0.24805489004E+04  0.25534545015E+04  0.15294330000E+03 0.  0.
<mgrwt>
<rscale>  0 0.60581106E+03</rscale>
<asrwt>0</asrwt>
<pdfrwt beam="1">  1        2 0.40449707E+00 0.60581106E+03</pdfrwt>
<pdfrwt beam="2">  1       -2 0.13138330E+00 0.60581106E+03</pdfrwt>
<totfact> 0.13503119E+00</totfact>
</mgrwt>
</event>
<event>
 4    1  0.1726795E-008  0.4371775E+03  0.7818608E-02  0.1031616E+00
          2   -1    0    0  501    0  0.00000000000E+00  0.00000000000E+00  0.11012874267E+04  0.11012874267E+04  0.25500000000E-02 0. -1.
         -2   -1    0    0    0  501 -0.00000000000E+00 -0.00000000000E+00 -0.29601989539E+03  0.29601989540E+03  0.25500000000E-02 0.  1.
    8880022    1    1    2    0    0 -0.30277036853E+02  0.40843095429E+03  0.85202332973E+03  0.95763664864E+03  0.15294330000E+03 0.  0.
    8880022    1    1    2    0    0  0.30277036853E+02 -0.40843095429E+03 -0.46755798452E+02  0.43967067344E+03  0.15294330000E+03 0.  0.
<mgrwt>
<rscale>  0 0.43717753E+03</rscale>
<asrwt>0</asrwt>
<pdfrwt beam="1">  1        2 0.16942884E+00 0.43717753E+03</pdfrwt>
<pdfrwt beam="2">  1       -2 0.45541522E-01 0.43717753E+03</pdfrwt>
<totfact> 0.10401388E+02</totfact>
</mgrwt>
</event>
<event>
 4    1  0.1726795E-008  0.1099980E+04  0.7818608E-02  0.9205211E-01
          2   -1    0    0  501    0  0.00000000000E+00  0.00000000000E+00  0.13230986378E+04  0.13230986378E+04  0.25500000000E-02 0. -1.
         -2   -1    0    0    0  501 -0.00000000000E+00 -0.00000000000E+00 -0.16281016389E+04  0.16281016389E+04  0.25500000000E-02 0.  1.
    8880022    1    1    2    0    0  0.70410699897E+03  0.83114231814E+03 -0.11294236383E+04  0.15765638670E+04  0.15294330000E+03 0.  0.
    8880022    1    1    2    0    0 -0.70410699897E+03 -0.83114231814E+03  0.82442063714E+03  0.13746364097E+04  0.15294330000E+03 0.  0.
<mgrwt>
<rscale>  0 0.10999799E+04</rscale>
<asrwt>0</asrwt>
<pdfrwt beam="1">  1        2 0.20355364E+00 0.10999799E+04</pdfrwt>
<pdfrwt beam="2">  1       -2 0.25047718E+00 0.10999799E+04</pdfrwt>
<totfact> 0.10066762E+00</totfact>
</mgrwt>
</event>
<event>
 4    1  0.1726795E-008  0.2032546E+04  0.7818608E-02  0.8591554E-01
         -2   -1    0    0    0  501 -0.00000000000E+00  0.00000000000E+00  0.14640032229E+04  0.14640032229E+04  0.25500000000E-02 0.  1.
          2   -1    0    0  501    0  0.00000000000E+00 -0.00000000000E+00 -0.39180731388E+04  0.39180731388E+04  0.25500000000E-02 0. -1.
    8880022    1    1    2    0    0 -0.20065464690E+04  0.28569794458E+03  0.19636458048E+03  0.20420094881E+04  0.15294330000E+03 0.  0.
    8880022    1    1    2    0    0  0.20065464690E+04 -0.28569794458E+03 -0.26504344964E+04  0.33400668736E+04  0.15294330000E+03 0.  0.
<mgrwt>
<rscale>  0 0.20325461E+04</rscale>
<asrwt>0</asrwt>
<pdfrwt beam="1">  1        2 0.60278048E+00 0.20325461E+04</pdfrwt>
<pdfrwt beam="2">  1       -2 0.22523127E+00 0.20325461E+04</pdfrwt>
<totfact> 0.32406877E-02</totfact>
</mgrwt>
</event>
<event>
 4    1  0.1726795E-008  0.6466611E+03  0.7818608E-02  0.9813065E-01
         -2   -1    0    0    0  501 -0.00000000000E+00  0.00000000000E+00  0.14301422918E+04  0.14301422918E+04  0.25500000000E-02 0.  1.
          2   -1    0    0  501    0  0.00000000000E+00 -0.00000000000E+00 -0.14685177177E+04  0.14685177177E+04  0.25500000000E-02 0. -1.
    8880022    1    1    2    0    0  0.60101436128E+03 -0.18319581884E+03  0.12778525844E+04  0.14321584587E+04  0.15294330000E+03 0.  0.
    8880022    1    1    2    0    0 -0.60101436128E+03  0.18319581884E+03 -0.13162280102E+04  0.14665015508E+04  0.15294330000E+03 0.  0.
<mgrwt>
<rscale>  0 0.64666113E+03</rscale>
<asrwt>0</asrwt>
<pdfrwt beam="1">  1        2 0.22592580E+00 0.64666113E+03</pdfrwt>
<pdfrwt beam="2">  1       -2 0.22002189E+00 0.64666113E+03</pdfrwt>
<totfact> 0.13813361E+00</totfact>
</mgrwt>
</event>
<event>
 4    1  0.1726795E-008  0.1384630E+04  0.7818608E-02  0.8965020E-01
          2   -1    0    0  501    0  0.00000000000E+00  0.00000000000E+00  0.12779418888E+04  0.12779418888E+04  0.25500000000E-02 0. -1.
         -2   -1    0    0    0  501 -0.00000000000E+00 -0.00000000000E+00 -0.17278773632E+04  0.17278773632E+04  0.25500000000E-02 0.  1.
    8880022    1    1    2    0    0 -0.13269247675E+04 -0.36480092114E+03 -0.77048970144E+03  0.15845677908E+04  0.15294330000E+03 0.  0.
    8880022    1    1    2    0    0  0.13269247675E+04  0.36480092114E+03  0.32055422702E+03  0.14212514612E+04  0.15294330000E+03 0.  0.
<mgrwt>
<rscale>  0 0.13846302E+04</rscale>
<asrwt>0</asrwt>
<pdfrwt beam="1">  1        2 0.19660644E+00 0.13846302E+04</pdfrwt>
<pdfrwt beam="2">  1       -2 0.26582729E+00 0.13846302E+04</pdfrwt>
<totfact> 0.83483135E-01</totfact>
</mgrwt>
</event>
<event>
 4    1  0.1726795E-008  0.1017496E+04  0.7818608E-02  0.9289561E-01
         -2   -1    0    0    0  501 -0.00000000000E+00  0.00000000000E+00  0.66382792146E+03  0.66382792146E+03  0.25500000000E-02 0.  1.
          2   -1    0    0  501    0  0.00000000000E+00 -0.00000000000E+00 -0.25989307019E+04  0.25989307019E+04  0.25500000000E-02 0. -1.
    8880022    1    1    2    0    0 -0.63317001792E+03  0.78166641925E+03  0.64109354759E+02  0.10195137689E+04  0.15294330000E+03 0.  0.
    8880022    1    1    2    0    0  0.63317001792E+03 -0.78166641925E+03 -0.19992121352E+04  0.22432448545E+04  0.15294330000E+03 0.  0.
<mgrwt>
<rscale>  0 0.10174961E+04</rscale>
<asrwt>0</asrwt>
<pdfrwt beam="1">  1        2 0.39983549E+00 0.10174961E+04</pdfrwt>
<pdfrwt beam="2">  1       -2 0.10212737E+00 0.10174961E+04</pdfrwt>
<totfact> 0.24129901E+00</totfact>
</mgrwt>
</event>
<event>
 4    1  0.1726795E-008  0.6598644E+03  0.7818608E-02  0.9788443E-01
         -2   -1    0    0    0  501 -0.00000000000E+00  0.00000000000E+00  0.31643189013E+03  0.31643189014E+03  0.25500000000E-02 0.  1.
          2   -1    0    0  501    0  0.00000000000E+00 -0.00000000000E+00 -0.15958491244E+04  0.15958491244E+04  0.25500000000E-02 0. -1.
    8880022    1    1    2    0    0 -0.10039227112E+03  0.63399585534E+03 -0.28485054092E+03  0.71872166822E+03  0.15294330000E+03 0.  0.
    8880022    1    1    2    0    0  0.10039227112E+03 -0.63399585534E+03 -0.99456669334E+03  0.11935593463E+04  0.15294330000E+03 0.  0.
<mgrwt>
<rscale>  0 0.65986438E+03</rscale>
<asrwt>0</asrwt>
<pdfrwt beam="1">  1        2 0.24551525E+00 0.65986438E+03</pdfrwt>
<pdfrwt beam="2">  1       -2 0.48681830E-01 0.65986438E+03</pdfrwt>
<totfact> 0.46340485E+01</totfact>
</mgrwt>
</event>
<event>
 4    1  0.1726795E-008  0.1877631E+03  0.7818608E-02  0.1160494E+00
          2   -1    0    0  501    0  0.00000000000E+00  0.00000000000E+00  0.13020604398E+04  0.13020604398E+04  0.25500000000E-02 0. -1.
         -2   -1    0    0    0  501 -0.00000000000E+00 -0.00000000000E+00 -0.19236593180E+03  0.19236593181E+03  0.25500000000E-02 0.  1.
    8880022    1    1    2    0    0  0.10879085460E+03  0.52813229228E+01 -0.13778583713E+03  0.23289468080E+03  0.15294330000E+03 0.  0.
    8880022    1    1    2    0    0 -0.10879085460E+03 -0.52813229228E+01  0.12474803451E+04  0.12615316908E+04  0.15294330000E+03 0. -1.
<mgrwt>
<rscale>  0 0.18776314E+03</rscale>
<asrwt>0</asrwt>
<pdfrwt beam="1">  1        2 0.20031700E+00 0.18776314E+03</pdfrwt>
<pdfrwt beam="2">  1       -2 0.29594758E-01 0.18776314E+03</pdfrwt>
<totfact> 0.18879881E+02</totfact>
</mgrwt>
</event>
<event>
 4    1  0.1726795E-008  0.9616165E+03  0.7818608E-02  0.9351675E-01
          2   -1    0    0  501    0  0.00000000000E+00  0.00000000000E+00  0.31205277230E+04  0.31205277230E+04  0.25500000000E-02 0. -1.
         -2   -1    0    0    0  501 -0.00000000000E+00 -0.00000000000E+00 -0.61572932191E+03  0.61572932191E+03  0.25500000000E-02 0.  1.
    8880022    1    1    2    0    0  0.96476154441E+02  0.94446123272E+03 -0.93085469363E+02  0.96611139425E+03  0.15294330000E+03 0.  0.
    8880022    1    1    2    0    0 -0.96476154441E+02 -0.94446123272E+03  0.25978838705E+04  0.27701456507E+04  0.15294330000E+03 0.  0.
<mgrwt>
<rscale>  0 0.96161651E+03</rscale>
<asrwt>0</asrwt>
<pdfrwt beam="1">  1        2 0.48008119E+00 0.96161651E+03</pdfrwt>
<pdfrwt beam="2">  1       -2 0.94727587E-01 0.96161651E+03</pdfrwt>
<totfact> 0.14104096E+00</totfact>
</mgrwt>
</event>
<event>
 4    1  0.1726795E-008  0.6777718E+03  0.7818608E-02  0.9756019E-01
         -2   -1    0    0    0  501 -0.00000000000E+00  0.00000000000E+00  0.31322650980E+03  0.31322650981E+03  0.25500000000E-02 0.  1.
          2   -1    0    0  501    0  0.00000000000E+00 -0.00000000000E+00 -0.29749706155E+04  0.29749706155E+04  0.25500000000E-02 0. -1.
    8880022    1    1    2    0    0  0.48283319333E+03 -0.45039434487E+03 -0.25015625637E+04  0.25917542074E+04  0.15294330000E+03 0.  0.
    8880022    1    1    2    0    0 -0.48283319333E+03  0.45039434487E+03 -0.16018154199E+03  0.69644291789E+03  0.15294330000E+03 0.  0.
<mgrwt>
<rscale>  0 0.67777180E+03</rscale>
<asrwt>0</asrwt>
<pdfrwt beam="1">  1        2 0.45768777E+00 0.67777180E+03</pdfrwt>
<pdfrwt beam="2">  1       -2 0.48188696E-01 0.67777180E+03</pdfrwt>
<totfact> 0.79429647E+00</totfact>
</mgrwt>
</event>
<event>
 4    1  0.1726795E-008  0.9857261E+03  0.7818608E-02  0.9324340E-01
          2   -1    0    0  501    0  0.00000000000E+00  0.00000000000E+00  0.24965006934E+04  0.24965006934E+04  0.25500000000E-02 0. -1.
         -2   -1    0    0    0  501 -0.00000000000E+00 -0.00000000000E+00 -0.85915182495E+03  0.85915182496E+03  0.25500000000E-02 0.  1.
    8880022    1    1    2    0    0  0.96395032862E+03  0.13807283258E+03 -0.42222155537E+03  0.10723465102E+04  0.15294330000E+03 0.  0.
    8880022    1    1    2    0    0 -0.96395032862E+03 -0.13807283258E+03  0.20595704238E+04  0.22833060081E+04  0.15294330000E+03 0.  0.
<mgrwt>
<rscale>  0 0.98572613E+03</rscale>
<asrwt>0</asrwt>
<pdfrwt beam="1">  1        2 0.38407703E+00 0.98572613E+03</pdfrwt>
<pdfrwt beam="2">  1       -2 0.13217720E+00 0.98572613E+03</pdfrwt>
<totfact> 0.14686803E+00</totfact>
</mgrwt>
</event>
<event>
 4    1  0.1726795E-008  0.1474502E+04  0.7818608E-02  0.8901588E-01
         -2   -1    0    0    0  501 -0.00000000000E+00  0.00000000000E+00  0.10792915421E+04  0.10792915421E+04  0.25500000000E-02 0.  1.
          2   -1    0    0  501    0  0.00000000000E+00 -0.00000000000E+00 -0.20957514806E+04  0.20957514806E+04  0.25500000000E-02 0. -1.
    8880022    1    1    2    0    0  0.13822499789E+04  0.49004935425E+03 -0.82095157991E+03  0.16876363718E+04  0.15294330000E+03 0.  0.
    8880022    1    1    2    0    0 -0.13822499789E+04 -0.49004935425E+03 -0.19550835856E+03  0.14874066509E+04  0.15294330000E+03 0.  0.
<mgrwt>
<rscale>  0 0.14745016E+04</rscale>
<asrwt>0</asrwt>
<pdfrwt beam="1">  1        2 0.32242330E+00 0.14745016E+04</pdfrwt>
<pdfrwt beam="2">  1       -2 0.16604485E+00 0.14745016E+04</pdfrwt>
<totfact> 0.12698479E+00</totfact>
</mgrwt>
</event>
<event>
 4    1  0.1726795E-008  0.7480967E+03  0.7818608E-02  0.9638341E-01
         -2   -1    0    0    0  501 -0.00000000000E+00  0.00000000000E+00  0.53499430633E+03  0.53499430634E+03  0.25500000000E-02 0.  1.
          2   -1    0    0  501    0  0.00000000000E+00 -0.00000000000E+00 -0.10893427392E+04  0.10893427392E+04  0.25500000000E-02 0. -1.
    8880022    1    1    2    0    0 -0.44882382559E+02 -0.73091902243E+03 -0.11532765089E+03  0.75693405637E+03  0.15294330000E+03 0.  0.
    8880022    1    1    2    0    0  0.44882382559E+02  0.73091902243E+03 -0.43902078200E+03  0.86740298919E+03  0.15294330000E+03 0.  0.
<mgrwt>
<rscale>  0 0.74809672E+03</rscale>
<asrwt>0</asrwt>
<pdfrwt beam="1">  1        2 0.16759119E+00 0.74809672E+03</pdfrwt>
<pdfrwt beam="2">  1       -2 0.82306817E-01 0.74809672E+03</pdfrwt>
<totfact> 0.29174696E+01</totfact>
</mgrwt>
</event>
<event>
 4    1  0.1726795E-008  0.4021263E+03  0.7818608E-02  0.1043046E+00
          2   -1    0    0  501    0  0.00000000000E+00  0.00000000000E+00  0.11432615881E+04  0.11432615881E+04  0.25500000000E-02 0. -1.
         -2   -1    0    0    0  501 -0.00000000000E+00 -0.00000000000E+00 -0.34117452132E+03  0.34117452132E+03  0.25500000000E-02 0.  1.
    8880022    1    1    2    0    0 -0.13627207452E+03  0.34604022050E+03  0.96893751863E+03  0.10490688636E+04  0.15294330000E+03 0.  0.
    8880022    1    1    2    0    0  0.13627207452E+03 -0.34604022050E+03 -0.16685045182E+03  0.43536724588E+03  0.15294330000E+03 0.  1.
<mgrwt>
<rscale>  0 0.40212631E+03</rscale>
<asrwt>0</asrwt>
<pdfrwt beam="1">  1        2 0.17588640E+00 0.40212631E+03</pdfrwt>
<pdfrwt beam="2">  1       -2 0.52488388E-01 0.40212631E+03</pdfrwt>
<totfact> 0.74214988E+01</totfact>
</mgrwt>
</event>
<event>
 4    1  0.1726795E-008  0.6605240E+03  0.7818608E-02  0.9787230E-01
          2   -1    0    0  501    0  0.00000000000E+00  0.00000000000E+00  0.14407914168E+04  0.14407914168E+04  0.25500000000E-02 0. -1.
         -2   -1    0    0    0  501 -0.00000000000E+00 -0.00000000000E+00 -0.70160109106E+03  0.70160109106E+03  0.25500000000E-02 0.  1.
    8880022    1    1    2    0    0  0.27427642039E+03  0.58109619233E+03  0.11771916012E+04  0.13498414939E+04  0.15294330000E+03 0.  0.
    8880022    1    1    2    0    0 -0.27427642039E+03 -0.58109619233E+03 -0.43800127545E+03  0.79255101403E+03  0.15294330000E+03 0.  0.
<mgrwt>
<rscale>  0 0.66052403E+03</rscale>
<asrwt>0</asrwt>
<pdfrwt beam="1">  1        2 0.22166022E+00 0.66052403E+03</pdfrwt>
<pdfrwt beam="2">  1       -2 0.10793863E+00 0.66052403E+03</pdfrwt>
<totfact> 0.97811100E+00</totfact>
</mgrwt>
</event>
<event>
 4    1  0.1726795E-008  0.1080722E+04  0.7818608E-02  0.9224188E-01
         -2   -1    0    0    0  501 -0.00000000000E+00  0.00000000000E+00  0.47324492879E+03  0.47324492880E+03  0.25500000000E-02 0.  1.
          2   -1    0    0  501    0  0.00000000000E+00 -0.00000000000E+00 -0.34329981952E+04  0.34329981952E+04  0.25500000000E-02 0. -1.
    8880022    1    1    2    0    0 -0.10678741963E+04 -0.64901257401E+02 -0.25154006780E+04  0.27377362357E+04  0.15294330000E+03 0.  0.
    8880022    1    1    2    0    0  0.10678741963E+04  0.64901257401E+02 -0.44435258844E+03  0.11685068883E+04  0.15294330000E+03 0.  0.
<mgrwt>
<rscale>  0 0.10807216E+04</rscale>
<asrwt>0</asrwt>
<pdfrwt beam="1">  1        2 0.52815355E+00 0.10807216E+04</pdfrwt>
<pdfrwt beam="2">  1       -2 0.72806914E-01 0.10807216E+04</pdfrwt>
<totfact> 0.15747483E+00</totfact>
</mgrwt>
</event>
<event>
 4    1  0.1726795E-008  0.9131800E+03  0.7818608E-02  0.9409254E-01
          2   -1    0    0  501    0  0.00000000000E+00  0.00000000000E+00  0.47806404952E+04  0.47806404952E+04  0.25500000000E-02 0. -1.
         -2   -1    0    0    0  501 -0.00000000000E+00 -0.00000000000E+00 -0.81251945190E+03  0.81251945190E+03  0.25500000000E-02 0.  1.
    8880022    1    1    2    0    0  0.72950743194E+03 -0.52756514926E+03  0.44623406081E+04  0.45548195833E+04  0.15294330000E+03 0.  0.
    8880022    1    1    2    0    0 -0.72950743194E+03  0.52756514926E+03 -0.49421956481E+03  0.10383403639E+04  0.15294330000E+03 0.  0.
<mgrwt>
<rscale>  0 0.91318001E+03</rscale>
<asrwt>0</asrwt>
<pdfrwt beam="1">  1        2 0.73548314E+00 0.91318001E+03</pdfrwt>
<pdfrwt beam="2">  1       -2 0.12500300E+00 0.91318001E+03</pdfrwt>
<totfact> 0.33327150E-02</totfact>
</mgrwt>
</event>
<event>
 4    1  0.1726795E-008  0.4803230E+03  0.7818608E-02  0.1019046E+00
         -2   -1    0    0    0  501 -0.00000000000E+00  0.00000000000E+00  0.10015911528E+04  0.10015911528E+04  0.25500000000E-02 0.  1.
          2   -1    0    0  501    0  0.00000000000E+00 -0.00000000000E+00 -0.50210516203E+03  0.50210516203E+03  0.25500000000E-02 0. -1.
    8880022    1    1    2    0    0 -0.25808596651E+03 -0.37511355827E+03  0.80287239282E+03  0.93558232127E+03  0.15294330000E+03 0.  0.
    8880022    1    1    2    0    0  0.25808596651E+03  0.37511355827E+03 -0.30338640205E+03  0.56811399356E+03  0.15294330000E+03 0.  0.
<mgrwt>
<rscale>  0 0.48032302E+03</rscale>
<asrwt>0</asrwt>
<pdfrwt beam="1">  1        2 0.77246949E-01 0.48032302E+03</pdfrwt>
<pdfrwt beam="2">  1       -2 0.15409094E+00 0.48032302E+03</pdfrwt>
<totfact> 0.17859458E+01</totfact>
</mgrwt>
</event>
<event>
 4    1  0.1726795E-008  0.1098535E+04  0.7818608E-02  0.9206621E-01
         -2   -1    0    0    0  501 -0.00000000000E+00  0.00000000000E+00  0.78257780501E+03  0.78257780501E+03  0.25500000000E-02 0.  1.
          2   -1    0    0  501    0  0.00000000000E+00 -0.00000000000E+00 -0.22613367961E+04  0.22613367961E+04  0.25500000000E-02 0. -1.
    8880022    1    1    2    0    0 -0.40696580387E+03 -0.10088443693E+04  0.11897897634E+03  0.11049596268E+04  0.15294330000E+03 0.  0.
    8880022    1    1    2    0    0  0.40696580387E+03  0.10088443693E+04 -0.15977379674E+04  0.19389549743E+04  0.15294330000E+03 0.  0.
<mgrwt>
<rscale>  0 0.10985353E+04</rscale>
<asrwt>0</asrwt>
<pdfrwt beam="1">  1        2 0.34789797E+00 0.10985353E+04</pdfrwt>
<pdfrwt beam="2">  1       -2 0.12039659E+00 0.10985353E+04</pdfrwt>
<totfact> 0.24862482E+00</totfact>
</mgrwt>
</event>
<event>
 4    1  0.1726795E-008  0.1159983E+04  0.7818608E-02  0.9148622E-01
          2   -1    0    0  501    0  0.00000000000E+00  0.00000000000E+00  0.22816053040E+04  0.22816053040E+04  0.25500000000E-02 0. -1.
         -2   -1    0    0    0  501 -0.00000000000E+00 -0.00000000000E+00 -0.97343381316E+03  0.97343381317E+03  0.25500000000E-02 0.  1.
    8880022    1    1    2    0    0 -0.41707511515E+03 -0.10715495197E+04  0.16758800425E+04  0.20381696678E+04  0.15294330000E+03 0.  0.
    8880022    1    1    2    0    0  0.41707511515E+03  0.10715495197E+04 -0.36770855161E+03  0.12168694494E+04  0.15294330000E+03 0.  0.
<mgrwt>
<rscale>  0 0.11599835E+04</rscale>
<asrwt>0</asrwt>
<pdfrwt beam="1">  1        2 0.35101620E+00 0.11599835E+04</pdfrwt>
<pdfrwt beam="2">  1       -2 0.14975905E+00 0.11599835E+04</pdfrwt>
<totfact> 0.13698792E+00</totfact>
</mgrwt>
</event>
<event>
 4    1  0.1889974E-008  0.3317776E+03  0.7818608E-02  0.1070353E+00
         -2   -1    0    0    0  501 -0.00000000000E+00  0.00000000000E+00  0.14567296075E+04  0.14567296075E+04  0.25500000000E-02 0.  1.
          2   -1    0    0  501    0  0.00000000000E+00 -0.00000000000E+00 -0.22434033518E+04  0.22434033518E+04  0.25500000000E-02 0. -1.
    8880022    1    1    2    0    0 -0.20418306567E+03 -0.21211782683E+03 -0.22119787935E+04  0.22367222743E+04  0.15294330000E+03 0.  0.
    8880022    1    1    2    0    0  0.20418306567E+03  0.21211782683E+03  0.14253050491E+04  0.14634106849E+04  0.15294330000E+03 0.  1.
<mgrwt>
<rscale>  0 0.33177756E+03</rscale>
<asrwt>0</asrwt>
<pdfrwt beam="1">  1        2 0.34513898E+00 0.33177756E+03</pdfrwt>
<pdfrwt beam="2">  1       -2 0.22411225E+00 0.33177756E+03</pdfrwt>
<totfact> 0.55434890E-01</totfact>
</mgrwt>
</event>
<event>
 4    1  0.1726795E-008  0.4854071E+03  0.7818608E-02  0.1017660E+00
          2   -1    0    0  501    0  0.00000000000E+00  0.00000000000E+00  0.20455493405E+04  0.20455493405E+04  0.25500000000E-02 0. -1.
         -2   -1    0    0    0  501 -0.00000000000E+00 -0.00000000000E+00 -0.30822218453E+03  0.30822218454E+03  0.25500000000E-02 0.  1.
    8880022    1    1    2    0    0  0.53657602558E+02 -0.45754700099E+03  0.18000308068E+04  0.18643312352E+04  0.15294330000E+03 0.  0.
    8880022    1    1    2    0    0 -0.53657602558E+02  0.45754700099E+03 -0.62703650792E+02  0.48944028978E+03  0.15294330000E+03 0.  1.
<mgrwt>
<rscale>  0 0.48540710E+03</rscale>
<asrwt>0</asrwt>
<pdfrwt beam="1">  1        2 0.31469989E+00 0.48540710E+03</pdfrwt>
<pdfrwt beam="2">  1       -2 0.47418798E-01 0.48540710E+03</pdfrwt>
<totfact> 0.28692769E+01</totfact>
</mgrwt>
</event>
<event>
 4    1  0.1726795E-008  0.8490296E+03  0.7818608E-02  0.9491640E-01
         -2   -1    0    0    0  501 -0.00000000000E+00  0.00000000000E+00  0.33779967391E+03  0.33779967392E+03  0.25500000000E-02 0.  1.
          2   -1    0    0  501    0  0.00000000000E+00 -0.00000000000E+00 -0.28657963748E+04  0.28657963748E+04  0.25500000000E-02 0. -1.
    8880022    1    1    2    0    0  0.83508331560E+03  0.97689173823E+01 -0.20734517981E+04  0.22405476089E+04  0.15294330000E+03 0.  0.
    8880022    1    1    2    0    0 -0.83508331560E+03 -0.97689173823E+01 -0.45454490277E+03  0.96304843980E+03  0.15294330000E+03 0.  0.
<mgrwt>
<rscale>  0 0.84902958E+03</rscale>
<asrwt>0</asrwt>
<pdfrwt beam="1">  1        2 0.44089173E+00 0.84902958E+03</pdfrwt>
<pdfrwt beam="2">  1       -2 0.51969182E-01 0.84902958E+03</pdfrwt>
<totfact> 0.76850875E+00</totfact>
</mgrwt>
</event>
<event>
 4    1  0.1726795E-008  0.7611843E+03  0.7818608E-02  0.9617966E-01
         -2   -1    0    0    0  501 -0.00000000000E+00  0.00000000000E+00  0.62292722024E+03  0.62292722024E+03  0.25500000000E-02 0.  1.
          2   -1    0    0  501    0  0.00000000000E+00 -0.00000000000E+00 -0.22018218462E+04  0.22018218462E+04  0.25500000000E-02 0. -1.
    8880022    1    1    2    0    0 -0.73862853401E+03  0.10216527419E+03 -0.18628192172E+04  0.20123361905E+04  0.15294330000E+03 0.  0.
    8880022    1    1    2    0    0  0.73862853401E+03 -0.10216527419E+03  0.28392459124E+03  0.81241287596E+03  0.15294330000E+03 0.  0.
<mgrwt>
<rscale>  0 0.76118428E+03</rscale>
<asrwt>0</asrwt>
<pdfrwt beam="1">  1        2 0.33874182E+00 0.76118428E+03</pdfrwt>
<pdfrwt beam="2">  1       -2 0.95834958E-01 0.76118428E+03</pdfrwt>
<totfact> 0.48890159E+00</totfact>
</mgrwt>
</event>
<event>
 4    1  0.1726795E-008  0.9238634E+03  0.7818608E-02  0.9396233E-01
          2   -1    0    0  501    0  0.00000000000E+00  0.00000000000E+00  0.36879501083E+04  0.36879501083E+04  0.25500000000E-02 0. -1.
         -2   -1    0    0    0  501 -0.00000000000E+00 -0.00000000000E+00 -0.43870283502E+03  0.43870283502E+03  0.25500000000E-02 0.  1.
    8880022    1    1    2    0    0  0.63637427308E+03 -0.65204275078E+03  0.30428575488E+04  0.31800166163E+04  0.15294330000E+03 0.  0.
    8880022    1    1    2    0    0 -0.63637427308E+03  0.65204275078E+03  0.20638972443E+03  0.94663632703E+03  0.15294330000E+03 0.  0.
<mgrwt>
<rscale>  0 0.92386342E+03</rscale>
<asrwt>0</asrwt>
<pdfrwt beam="1">  1        2 0.56737697E+00 0.92386342E+03</pdfrwt>
<pdfrwt beam="2">  1       -2 0.67492740E-01 0.92386342E+03</pdfrwt>
<totfact> 0.12673961E+00</totfact>
</mgrwt>
</event>
<event>
 4    1  0.1726795E-008  0.1174664E+04  0.7818608E-02  0.9135326E-01
         -2   -1    0    0    0  501 -0.00000000000E+00  0.00000000000E+00  0.85057790223E+03  0.85057790224E+03  0.25500000000E-02 0.  1.
          2   -1    0    0  501    0  0.00000000000E+00 -0.00000000000E+00 -0.24571583066E+04  0.24571583066E+04  0.25500000000E-02 0. -1.
    8880022    1    1    2    0    0  0.62017969632E+03  0.98581028214E+03 -0.17673585992E+04  0.21221198928E+04  0.15294330000E+03 0.  0.
    8880022    1    1    2    0    0 -0.62017969632E+03 -0.98581028214E+03  0.16077819479E+03  0.11856163161E+04  0.15294330000E+03 0.  1.
<mgrwt>
<rscale>  0 0.11746644E+04</rscale>
<asrwt>0</asrwt>
<pdfrwt beam="1">  1        2 0.37802435E+00 0.11746644E+04</pdfrwt>
<pdfrwt beam="2">  1       -2 0.13085814E+00 0.11746644E+04</pdfrwt>
<totfact> 0.15460275E+00</totfact>
</mgrwt>
</event>
<event>
 4    1  0.1726795E-008  0.5278632E+03  0.7818608E-02  0.1006752E+00
         -2   -1    0    0    0  501 -0.00000000000E+00  0.00000000000E+00  0.63236161649E+03  0.63236161649E+03  0.25500000000E-02 0.  1.
          2   -1    0    0  501    0  0.00000000000E+00 -0.00000000000E+00 -0.79777288927E+03  0.79777288927E+03  0.25500000000E-02 0. -1.
    8880022    1    1    2    0    0 -0.39056011556E+03 -0.32048502299E+03 -0.56114436344E+03  0.77040411698E+03  0.15294330000E+03 0.  0.
    8880022    1    1    2    0    0  0.39056011556E+03  0.32048502299E+03  0.39573309066E+03  0.65973038878E+03  0.15294330000E+03 0.  0.
<mgrwt>
<rscale>  0 0.52786315E+03</rscale>
<asrwt>0</asrwt>
<pdfrwt beam="1">  1        2 0.12273429E+00 0.52786315E+03</pdfrwt>
<pdfrwt beam="2">  1       -2 0.97286402E-01 0.52786315E+03</pdfrwt>
<totfact> 0.31632915E+01</totfact>
</mgrwt>
</event>
<event>
 4    1  0.1726795E-008  0.1976169E+04  0.7818608E-02  0.8617844E-01
         -2   -1    0    0    0  501 -0.00000000000E+00  0.00000000000E+00  0.25910776152E+04  0.25910776152E+04  0.25500000000E-02 0.  1.
          2   -1    0    0  501    0  0.00000000000E+00 -0.00000000000E+00 -0.44441174337E+04  0.44441174337E+04  0.25500000000E-02 0. -1.
    8880022    1    1    2    0    0  0.14105445024E+04 -0.13755791289E+04  0.19330453816E+04  0.27644004474E+04  0.15294330000E+03 0.  0.
    8880022    1    1    2    0    0 -0.14105445024E+04  0.13755791289E+04 -0.37860852002E+04  0.42707946016E+04  0.15294330000E+03 0.  0.
<mgrwt>
<rscale>  0 0.19761694E+04</rscale>
<asrwt>0</asrwt>
<pdfrwt beam="1">  1        2 0.68371037E+00 0.19761694E+04</pdfrwt>
<pdfrwt beam="2">  1       -2 0.39862733E+00 0.19761694E+04</pdfrwt>
<totfact> 0.93854919E-04</totfact>
</mgrwt>
</event>
<event>
 4    1  0.1726795E-008  0.1369031E+04  0.7818608E-02  0.8976545E-01
         -2   -1    0    0    0  501 -0.00000000000E+00  0.00000000000E+00  0.93369898007E+03  0.93369898007E+03  0.25500000000E-02 0.  1.
          2   -1    0    0  501    0  0.00000000000E+00 -0.00000000000E+00 -0.34529083120E+04  0.34529083120E+04  0.25500000000E-02 0. -1.
    8880022    1    1    2    0    0  0.36349325186E+03 -0.13110025241E+04  0.15953880206E+03  0.13782957755E+04  0.15294330000E+03 0.  0.
    8880022    1    1    2    0    0 -0.36349325186E+03  0.13110025241E+04 -0.26787481340E+04  0.30083115166E+04  0.15294330000E+03 0.  0.
<mgrwt>
<rscale>  0 0.13690313E+04</rscale>
<asrwt>0</asrwt>
<pdfrwt beam="1">  1        2 0.53121666E+00 0.13690313E+04</pdfrwt>
<pdfrwt beam="2">  1       -2 0.14364600E+00 0.13690313E+04</pdfrwt>
<totfact> 0.28559944E-01</totfact>
</mgrwt>
</event>
<event>
 4    1  0.1726795E-008  0.9064984E+03  0.7818608E-02  0.9417494E-01
          2   -1    0    0  501    0  0.00000000000E+00  0.00000000000E+00  0.11812852093E+04  0.11812852093E+04  0.25500000000E-02 0. -1.
         -2   -1    0    0    0  501 -0.00000000000E+00 -0.00000000000E+00 -0.19623903883E+04  0.19623903883E+04  0.25500000000E-02 0.  1.
    8880022    1    1    2    0    0 -0.82770279044E+03  0.33653507965E+03  0.87232708176E+03  0.12580516522E+04  0.15294330000E+03 0.  0.
    8880022    1    1    2    0    0  0.82770279044E+03 -0.33653507965E+03 -0.16534322607E+04  0.18856239453E+04  0.15294330000E+03 0.  0.
<mgrwt>
<rscale>  0 0.90649844E+03</rscale>
<asrwt>0</asrwt>
<pdfrwt beam="1">  1        2 0.18173619E+00 0.90649844E+03</pdfrwt>
<pdfrwt beam="2">  1       -2 0.30190621E+00 0.90649844E+03</pdfrwt>
<totfact> 0.61304147E-01</totfact>
</mgrwt>
</event>
<event>
 4    1  0.1726795E-008  0.8862274E+03  0.7818608E-02  0.9442964E-01
         -2   -1    0    0    0  501 -0.00000000000E+00  0.00000000000E+00  0.80050219873E+03  0.80050219873E+03  0.25500000000E-02 0.  1.
          2   -1    0    0  501    0  0.00000000000E+00 -0.00000000000E+00 -0.17020838040E+04  0.17020838040E+04  0.25500000000E-02 0. -1.
    8880022    1    1    2    0    0 -0.76902037670E+03  0.41305563251E+03  0.36357856076E+03  0.95790830364E+03  0.15294330000E+03 0.  0.
    8880022    1    1    2    0    0  0.76902037670E+03 -0.41305563251E+03 -0.12651601660E+04  0.15446776991E+04  0.15294330000E+03 0.  0.
<mgrwt>
<rscale>  0 0.88622737E+03</rscale>
<asrwt>0</asrwt>
<pdfrwt beam="1">  1        2 0.26185905E+00 0.88622737E+03</pdfrwt>
<pdfrwt beam="2">  1       -2 0.12315418E+00 0.88622737E+03</pdfrwt>
<totfact> 0.49142166E+00</totfact>
</mgrwt>
</event>
<event>
 4    1  0.1726795E-008  0.7122223E+03  0.7818608E-02  0.9696556E-01
          2   -1    0    0  501    0  0.00000000000E+00  0.00000000000E+00  0.98006420801E+03  0.98006420801E+03  0.25500000000E-02 0. -1.
         -2   -1    0    0    0  501 -0.00000000000E+00 -0.00000000000E+00 -0.28663629509E+04  0.28663629509E+04  0.25500000000E-02 0.  1.
    8880022    1    1    2    0    0  0.56669403562E+03 -0.40339412829E+03 -0.26840880163E+04  0.27769748081E+04  0.15294330000E+03 0.  0.
    8880022    1    1    2    0    0 -0.56669403562E+03  0.40339412829E+03  0.79778927343E+03  0.10694523508E+04  0.15294330000E+03 0.  0.
<mgrwt>
<rscale>  0 0.71222230E+03</rscale>
<asrwt>0</asrwt>
<pdfrwt beam="1">  1        2 0.15077911E+00 0.71222230E+03</pdfrwt>
<pdfrwt beam="2">  1       -2 0.44097891E+00 0.71222230E+03</pdfrwt>
<totfact> 0.11177439E-01</totfact>
</mgrwt>
</event>
