<event>
 4    1  0.1852677E-008  0.4457908E+03  0.7818608E-02  0.1028985E+00
          1   -1    0    0  501    0  0.00000000000E+00  0.00000000000E+00  0.13537526012E+04  0.13537526012E+04  0.50400000000E-02 0. -1.
         -1   -1    0    0    0  501 -0.00000000000E+00 -0.00000000000E+00 -0.36946299306E+03  0.36946299309E+03  0.50400000000E-02 0.  1.
    8880022    1    1    2    0    0  0.14074857532E+03  0.39436993760E+03 -0.17673670837E+03  0.47954700107E+03  0.15294330000E+03 0.  0.
    8880022    1    1    2    0    0 -0.14074857532E+03 -0.39436993760E+03  0.11610263165E+04  0.12436685932E+04  0.15294330000E+03 0.  0.
<mgrwt>
<rscale>  0 0.44579083E+03</rscale>
<asrwt>0</asrwt>
<pdfrwt beam="1">  1        1 0.20826964E+00 0.44579083E+03</pdfrwt>
<pdfrwt beam="2">  1       -1 0.56840459E-01 0.44579083E+03</pdfrwt>
<totfact> 0.28074682E+01</totfact>
</mgrwt>
</event>
<event>
 4    1  0.1852677E-008  0.1426342E+04  0.7818608E-02  0.8934969E-01
          1   -1    0    0  501    0  0.00000000000E+00  0.00000000000E+00  0.30862832047E+04  0.30862832047E+04  0.50400000000E-02 0. -1.
         -1   -1    0    0    0  501 -0.00000000000E+00 -0.00000000000E+00 -0.81380116645E+03  0.81380116647E+03  0.50400000000E-02 0.  1.
    8880022    1    1    2    0    0  0.81714715303E+03  0.11590211846E+04  0.19862105704E+04  0.24452982761E+04  0.15294330000E+03 0.  0.
    8880022    1    1    2    0    0 -0.81714715303E+03 -0.11590211846E+04  0.28627146780E+03  0.14547860950E+04  0.15294330000E+03 0.  0.
<mgrwt>
<rscale>  0 0.14263419E+04</rscale>
<asrwt>0</asrwt>
<pdfrwt beam="1">  1        1 0.47481279E+00 0.14263419E+04</pdfrwt>
<pdfrwt beam="2">  1       -1 0.12520018E+00 0.14263419E+04</pdfrwt>
<totfact> 0.27773557E-01</totfact>
</mgrwt>
</event>
<event>
 4    1  0.1852677E-008  0.7760172E+03  0.7818608E-02  0.9595395E-01
         -1   -1    0    0    0  501 -0.00000000000E+00  0.00000000000E+00  0.13343812112E+04  0.13343812112E+04  0.50400000000E-02 0.  1.
          1   -1    0    0  501    0  0.00000000000E+00 -0.00000000000E+00 -0.11107557981E+04  0.11107557981E+04  0.50400000000E-02 0. -1.
    8880022    1    1    2    0    0 -0.16322016943E+03 -0.74308160548E+03  0.10538272681E+04  0.13087225298E+04  0.15294330000E+03 0.  0.
    8880022    1    1    2    0    0  0.16322016943E+03  0.74308160548E+03 -0.83020185501E+03  0.11364144795E+04  0.15294330000E+03 0.  0.
<mgrwt>
<rscale>  0 0.77601724E+03</rscale>
<asrwt>0</asrwt>
<pdfrwt beam="1">  1        1 0.17088551E+00 0.77601724E+03</pdfrwt>
<pdfrwt beam="2">  1       -1 0.20528942E+00 0.77601724E+03</pdfrwt>
<totfact> 0.17924864E+00</totfact>
</mgrwt>
</event>
<event>
 4    1  0.1852677E-008  0.9145736E+03  0.7818608E-02  0.9407545E-01
         -1   -1    0    0    0  501 -0.00000000000E+00  0.00000000000E+00  0.36814622316E+03  0.36814622319E+03  0.50400000000E-02 0.  1.
          1   -1    0    0  501    0  0.00000000000E+00 -0.00000000000E+00 -0.37101237317E+04  0.37101237317E+04  0.50400000000E-02 0. -1.
    8880022    1    1    2    0    0  0.24183626571E+03 -0.86865895561E+03 -0.40145837533E+03  0.99880610767E+03  0.15294330000E+03 0.  0.
    8880022    1    1    2    0    0 -0.24183626571E+03  0.86865895561E+03 -0.29405191332E+04  0.30794638472E+04  0.15294330000E+03 0.  0.
<mgrwt>
<rscale>  0 0.91457357E+03</rscale>
<asrwt>0</asrwt>
<pdfrwt beam="1">  1        1 0.57078824E+00 0.91457357E+03</pdfrwt>
<pdfrwt beam="2">  1       -1 0.56637883E-01 0.91457357E+03</pdfrwt>
<totfact> 0.56732835E-01</totfact>
</mgrwt>
</event>
<event>
 4    1  0.1852677E-008  0.7342920E+03  0.7818608E-02  0.9660321E-01
         -1   -1    0    0    0  501 -0.00000000000E+00  0.00000000000E+00  0.50754444057E+03  0.50754444059E+03  0.50400000000E-02 0.  1.
          1   -1    0    0  501    0  0.00000000000E+00 -0.00000000000E+00 -0.13674950705E+04  0.13674950706E+04  0.50400000000E-02 0. -1.
    8880022    1    1    2    0    0  0.53975256281E+03 -0.47377240018E+03 -0.87284691080E+03  0.11406342529E+04  0.15294330000E+03 0.  0.
    8880022    1    1    2    0    0 -0.53975256281E+03  0.47377240018E+03  0.12896280818E+02  0.73440525822E+03  0.15294330000E+03 0.  0.
<mgrwt>
<rscale>  0 0.73429202E+03</rscale>
<asrwt>0</asrwt>
<pdfrwt beam="1">  1        1 0.21038386E+00 0.73429202E+03</pdfrwt>
<pdfrwt beam="2">  1       -1 0.78083761E-01 0.73429202E+03</pdfrwt>
<totfact> 0.13798319E+01</totfact>
</mgrwt>
</event>
<event>
 4    1  0.1852677E-008  0.4421511E+03  0.7818608E-02  0.1030089E+00
         -1   -1    0    0    0  501 -0.00000000000E+00  0.00000000000E+00  0.43315651935E+03  0.43315651938E+03  0.50400000000E-02 0.  1.
          1   -1    0    0  501    0  0.00000000000E+00 -0.00000000000E+00 -0.93752813811E+03  0.93752813812E+03  0.50400000000E-02 0. -1.
    8880022    1    1    2    0    0  0.13840599698E+03  0.39108786386E+03 -0.74572421617E+03  0.86694993907E+03  0.15294330000E+03 0. -1.
    8880022    1    1    2    0    0 -0.13840599698E+03 -0.39108786386E+03  0.24135259741E+03  0.50373471843E+03  0.15294330000E+03 0.  0.
<mgrwt>
<rscale>  0 0.44215109E+03</rscale>
<asrwt>0</asrwt>
<pdfrwt beam="1">  1        1 0.14423510E+00 0.44215109E+03</pdfrwt>
<pdfrwt beam="2">  1       -1 0.66639465E-01 0.44215109E+03</pdfrwt>
<totfact> 0.41316747E+01</totfact>
</mgrwt>
</event>
<event>
 4    1  0.1852677E-008  0.1761088E+03  0.7818608E-02  0.1171623E+00
         -1   -1    0    0    0  501 -0.00000000000E+00  0.00000000000E+00  0.42613812301E+03  0.42613812304E+03  0.50400000000E-02 0.  1.
          1   -1    0    0  501    0  0.00000000000E+00 -0.00000000000E+00 -0.11823885133E+04  0.11823885133E+04  0.50400000000E-02 0. -1.
    8880022    1    1    2    0    0 -0.56001915472E+02 -0.66980812065E+02  0.40099249786E+03  0.43796036359E+03  0.15294330000E+03 0.  0.
    8880022    1    1    2    0    0  0.56001915472E+02  0.66980812065E+02 -0.11572428882E+04  0.11705662728E+04  0.15294330000E+03 0. -1.
<mgrwt>
<rscale>  0 0.17610876E+03</rscale>
<asrwt>0</asrwt>
<pdfrwt beam="1">  1        1 0.18190592E+00 0.17610876E+03</pdfrwt>
<pdfrwt beam="2">  1       -1 0.65559712E-01 0.17610876E+03</pdfrwt>
<totfact> 0.30484947E+01</totfact>
</mgrwt>
</event>
<event>
 4    1  0.1852677E-008  0.5563628E+03  0.7818608E-02  0.1000032E+00
          1   -1    0    0  501    0  0.00000000000E+00  0.00000000000E+00  0.97767251992E+03  0.97767251994E+03  0.50400000000E-02 0. -1.
         -1   -1    0    0    0  501 -0.00000000000E+00 -0.00000000000E+00 -0.47054669511E+03  0.47054669513E+03  0.50400000000E-02 0.  1.
    8880022    1    1    2    0    0 -0.52818400622E+03 -0.84673408373E+02  0.66773032007E+03  0.86913943868E+03  0.15294330000E+03 0.  0.
    8880022    1    1    2    0    0  0.52818400622E+03  0.84673408373E+02 -0.16060449525E+03  0.57907977639E+03  0.15294330000E+03 0.  0.
<mgrwt>
<rscale>  0 0.55636282E+03</rscale>
<asrwt>0</asrwt>
<pdfrwt beam="1">  1        1 0.15041116E+00 0.55636282E+03</pdfrwt>
<pdfrwt beam="2">  1       -1 0.72391800E-01 0.55636282E+03</pdfrwt>
<totfact> 0.31910285E+01</totfact>
</mgrwt>
</event>
<event>
 4    1  0.1852677E-008  0.9869788E+03  0.7818608E-02  0.9322943E-01
          1   -1    0    0  501    0  0.00000000000E+00  0.00000000000E+00  0.17022813606E+04  0.17022813606E+04  0.50400000000E-02 0. -1.
         -1   -1    0    0    0  501 -0.00000000000E+00 -0.00000000000E+00 -0.66174916285E+03  0.66174916287E+03  0.50400000000E-02 0.  1.
    8880022    1    1    2    0    0  0.88001370953E+03  0.41989458874E+03  0.95496697759E+03  0.13733496190E+04  0.15294330000E+03 0.  0.
    8880022    1    1    2    0    0 -0.88001370953E+03 -0.41989458874E+03  0.85565220136E+02  0.99068090449E+03  0.15294330000E+03 0.  0.
<mgrwt>
<rscale>  0 0.98697885E+03</rscale>
<asrwt>0</asrwt>
<pdfrwt beam="1">  1        1 0.26188944E+00 0.98697885E+03</pdfrwt>
<pdfrwt beam="2">  1       -1 0.10180756E+00 0.98697885E+03</pdfrwt>
<totfact> 0.43836958E+00</totfact>
</mgrwt>
</event>
<event>
 4    1  0.1852677E-008  0.2427126E+03  0.7818608E-02  0.1117999E+00
          1   -1    0    0  501    0  0.00000000000E+00  0.00000000000E+00  0.12866356654E+04  0.12866356654E+04  0.50400000000E-02 0. -1.
         -1   -1    0    0    0  501 -0.00000000000E+00 -0.00000000000E+00 -0.13673623268E+03  0.13673623277E+03  0.50400000000E-02 0.  1.
    8880022    1    1    2    0    0 -0.36915324395E+02 -0.18481080199E+03 -0.54796446196E+01  0.24277449048E+03  0.15294330000E+03 0.  0.
    8880022    1    1    2    0    0  0.36915324395E+02  0.18481080199E+03  0.11553790773E+04  0.11805974077E+04  0.15294330000E+03 0.  0.
<mgrwt>
<rscale>  0 0.24271264E+03</rscale>
<asrwt>0</asrwt>
<pdfrwt beam="1">  1        1 0.19794396E+00 0.24271264E+03</pdfrwt>
<pdfrwt beam="2">  1       -1 0.21036342E-01 0.24271264E+03</pdfrwt>
<totfact> 0.18760150E+02</totfact>
</mgrwt>
</event>
<event>
 4    1  0.1852677E-008  0.6863089E+03  0.7818608E-02  0.9740937E-01
          1   -1    0    0  501    0  0.00000000000E+00  0.00000000000E+00  0.24958909124E+04  0.24958909124E+04  0.50400000000E-02 0. -1.
         -1   -1    0    0    0  501 -0.00000000000E+00 -0.00000000000E+00 -0.11940487095E+04  0.11940487095E+04  0.50400000000E-02 0.  1.
    8880022    1    1    2    0    0 -0.55328788711E+03  0.37616581478E+03 -0.10419842952E+04  0.12476983332E+04  0.15294330000E+03 0.  0.
    8880022    1    1    2    0    0  0.55328788711E+03 -0.37616581478E+03  0.23438264981E+04  0.24422412887E+04  0.15294330000E+03 0.  0.
<mgrwt>
<rscale>  0 0.68630887E+03</rscale>
<asrwt>0</asrwt>
<pdfrwt beam="1">  1        1 0.38398322E+00 0.68630887E+03</pdfrwt>
<pdfrwt beam="2">  1       -1 0.18369980E+00 0.68630887E+03</pdfrwt>
<totfact> 0.29214148E-01</totfact>
</mgrwt>
</event>
<event>
 4    1  0.1852677E-008  0.5617911E+03  0.7818608E-02  0.9988010E-01
          1   -1    0    0  501    0  0.00000000000E+00  0.00000000000E+00  0.15361597896E+04  0.15361597896E+04  0.50400000000E-02 0. -1.
         -1   -1    0    0    0  501 -0.00000000000E+00 -0.00000000000E+00 -0.26294603075E+03  0.26294603080E+03  0.50400000000E-02 0.  1.
    8880022    1    1    2    0    0 -0.54054893438E+03 -0.49476212826E+01  0.21597767890E+03  0.60187676497E+03  0.15294330000E+03 0.  0.
    8880022    1    1    2    0    0  0.54054893438E+03  0.49476212826E+01  0.10572360800E+04  0.11972290554E+04  0.15294330000E+03 0.  0.
<mgrwt>
<rscale>  0 0.56179114E+03</rscale>
<asrwt>0</asrwt>
<pdfrwt beam="1">  1        1 0.23633227E+00 0.56179114E+03</pdfrwt>
<pdfrwt beam="2">  1       -1 0.40453236E-01 0.56179114E+03</pdfrwt>
<totfact> 0.38941936E+01</totfact>
</mgrwt>
</event>
<event>
 4    1  0.1852677E-008  0.4414215E+03  0.7818608E-02  0.1030312E+00
          1   -1    0    0  501    0  0.00000000000E+00  0.00000000000E+00  0.88672529133E+03  0.88672529134E+03  0.50400000000E-02 0. -1.
         -1   -1    0    0    0  501 -0.00000000000E+00 -0.00000000000E+00 -0.50631953739E+03  0.50631953742E+03  0.50400000000E-02 0.  1.
    8880022    1    1    2    0    0 -0.10366096090E+03  0.40089360507E+03  0.71421579948E+03  0.83961725723E+03  0.15294330000E+03 0.  0.
    8880022    1    1    2    0    0  0.10366096090E+03 -0.40089360507E+03 -0.33381004554E+03  0.55342757152E+03  0.15294330000E+03 0.  0.
<mgrwt>
<rscale>  0 0.44142149E+03</rscale>
<asrwt>0</asrwt>
<pdfrwt beam="1">  1        1 0.13641927E+00 0.44142149E+03</pdfrwt>
<pdfrwt beam="2">  1       -1 0.77895314E-01 0.44142149E+03</pdfrwt>
<totfact> 0.32980043E+01</totfact>
</mgrwt>
</event>
<event>
 4    1  0.1852677E-008  0.3443805E+03  0.7818608E-02  0.1064945E+00
          1   -1    0    0  501    0  0.00000000000E+00  0.00000000000E+00  0.33726907626E+04  0.33726907626E+04  0.50400000000E-02 0. -1.
         -1   -1    0    0    0  501 -0.00000000000E+00 -0.00000000000E+00 -0.82130757046E+02  0.82130757201E+02  0.50400000000E-02 0.  1.
    8880022    1    1    2    0    0 -0.19280883376E+02 -0.30795213420E+03  0.33899741281E+03  0.48323614137E+03  0.15294330000E+03 0.  0.
    8880022    1    1    2    0    0  0.19280883376E+02  0.30795213420E+03  0.29515625927E+04  0.29715853784E+04  0.15294330000E+03 0.  0.
<mgrwt>
<rscale>  0 0.34438049E+03</rscale>
<asrwt>0</asrwt>
<pdfrwt beam="1">  1        1 0.51887558E+00 0.34438049E+03</pdfrwt>
<pdfrwt beam="2">  1       -1 0.12635499E-01 0.34438049E+03</pdfrwt>
<totfact> 0.16064591E+01</totfact>
</mgrwt>
</event>
<event>
 4    1  0.1852677E-008  0.4935952E+03  0.7818608E-02  0.1015464E+00
         -1   -1    0    0    0  501 -0.00000000000E+00  0.00000000000E+00  0.59606833224E+03  0.59606833226E+03  0.50400000000E-02 0.  1.
          1   -1    0    0  501    0  0.00000000000E+00 -0.00000000000E+00 -0.58918579280E+03  0.58918579282E+03  0.50400000000E-02 0. -1.
    8880022    1    1    2    0    0  0.44349316278E+03 -0.15348743507E+03 -0.32452578447E+03  0.59072262185E+03  0.15294330000E+03 0.  0.
    8880022    1    1    2    0    0 -0.44349316278E+03  0.15348743507E+03  0.33140832391E+03  0.59453150323E+03  0.15294330000E+03 0.  1.
<mgrwt>
<rscale>  0 0.49359521E+03</rscale>
<asrwt>0</asrwt>
<pdfrwt beam="1">  1        1 0.90643968E-01 0.49359521E+03</pdfrwt>
<pdfrwt beam="2">  1       -1 0.91702820E-01 0.49359521E+03</pdfrwt>
<totfact> 0.42878620E+01</totfact>
</mgrwt>
</event>
<event>
 4    1  0.1852677E-008  0.5592096E+03  0.7818608E-02  0.9993845E-01
         -1   -1    0    0    0  501 -0.00000000000E+00  0.00000000000E+00  0.11538945773E+04  0.11538945773E+04  0.50400000000E-02 0.  1.
          1   -1    0    0  501    0  0.00000000000E+00 -0.00000000000E+00 -0.28569623988E+03  0.28569623992E+03  0.50400000000E-02 0. -1.
    8880022    1    1    2    0    0 -0.53742663349E+03 -0.22278645206E+02  0.59730381440E+03  0.81822198952E+03  0.15294330000E+03 0.  1.
    8880022    1    1    2    0    0  0.53742663349E+03  0.22278645206E+02  0.27089452299E+03  0.62136882768E+03  0.15294330000E+03 0.  0.
<mgrwt>
<rscale>  0 0.55920960E+03</rscale>
<asrwt>0</asrwt>
<pdfrwt beam="1">  1        1 0.43953267E-01 0.55920960E+03</pdfrwt>
<pdfrwt beam="2">  1       -1 0.17752225E+00 0.55920960E+03</pdfrwt>
<totfact> 0.21247801E+01</totfact>
</mgrwt>
</event>
<event>
 4    1  0.1852677E-008  0.5921004E+03  0.7818608E-02  0.9921932E-01
          1   -1    0    0  501    0  0.00000000000E+00  0.00000000000E+00  0.42427237695E+04  0.42427237695E+04  0.50400000000E-02 0. -1.
         -1   -1    0    0    0  501 -0.00000000000E+00 -0.00000000000E+00 -0.12421115050E+03  0.12421115060E+03  0.50400000000E-02 0.  1.
    8880022    1    1    2    0    0  0.51874499223E+03 -0.24102883432E+03  0.33225562992E+04  0.33749019660E+04  0.15294330000E+03 0.  0.
    8880022    1    1    2    0    0 -0.51874499223E+03  0.24102883432E+03  0.79595631979E+03  0.99203295407E+03  0.15294330000E+03 0.  0.
<mgrwt>
<rscale>  0 0.59210043E+03</rscale>
<asrwt>0</asrwt>
<pdfrwt beam="1">  1        1 0.65272673E+00 0.59210043E+03</pdfrwt>
<pdfrwt beam="2">  1       -1 0.19109408E-01 0.59210043E+03</pdfrwt>
<totfact> 0.14714066E+00</totfact>
</mgrwt>
</event>
<event>
 4    1  0.1852677E-008  0.1638360E+03  0.7818608E-02  0.1184433E+00
         -1   -1    0    0    0  501 -0.00000000000E+00  0.00000000000E+00  0.26968104666E+03  0.26968104671E+03  0.50400000000E-02 0.  1.
          1   -1    0    0  501    0  0.00000000000E+00 -0.00000000000E+00 -0.10878693021E+04  0.10878693021E+04  0.50400000000E-02 0. -1.
    8880022    1    1    2    0    0 -0.57860876602E+02 -0.10134385913E+02  0.23788444983E+03  0.28884468370E+03  0.15294330000E+03 0.  0.
    8880022    1    1    2    0    0  0.57860876602E+02  0.10134385913E+02 -0.10560727053E+04  0.10687056651E+04  0.15294330000E+03 0. -1.
<mgrwt>
<rscale>  0 0.16383602E+03</rscale>
<asrwt>0</asrwt>
<pdfrwt beam="1">  1        1 0.16736451E+00 0.16383602E+03</pdfrwt>
<pdfrwt beam="2">  1       -1 0.41489392E-01 0.16383602E+03</pdfrwt>
<totfact> 0.83488741E+01</totfact>
</mgrwt>
</event>
<event>
 4    1  0.1852677E-008  0.8783147E+03  0.7818608E-02  0.9453103E-01
         -1   -1    0    0    0  501 -0.00000000000E+00  0.00000000000E+00  0.80572020588E+03  0.80572020589E+03  0.50400000000E-02 0.  1.
          1   -1    0    0  501    0  0.00000000000E+00 -0.00000000000E+00 -0.16347401299E+04  0.16347401299E+04  0.50400000000E-02 0. -1.
    8880022    1    1    2    0    0 -0.12608779468E+03 -0.85565586551E+03  0.37091517337E+03  0.95342268224E+03  0.15294330000E+03 0.  0.
    8880022    1    1    2    0    0  0.12608779468E+03  0.85565586551E+03 -0.11999350974E+04  0.14870376536E+04  0.15294330000E+03 0.  0.
<mgrwt>
<rscale>  0 0.87831472E+03</rscale>
<asrwt>0</asrwt>
<pdfrwt beam="1">  1        1 0.25149848E+00 0.87831472E+03</pdfrwt>
<pdfrwt beam="2">  1       -1 0.12395695E+00 0.87831472E+03</pdfrwt>
<totfact> 0.30913392E+00</totfact>
</mgrwt>
</event>
<event>
 4    1  0.1852677E-008  0.2276763E+03  0.7818608E-02  0.1128286E+00
         -1   -1    0    0    0  501 -0.00000000000E+00  0.00000000000E+00  0.16207139174E+03  0.16207139182E+03  0.50400000000E-02 0.  1.
          1   -1    0    0  501    0  0.00000000000E+00 -0.00000000000E+00 -0.18682403050E+04  0.18682403050E+04  0.50400000000E-02 0. -1.
    8880022    1    1    2    0    0  0.16779573915E+03 -0.17012174461E+02 -0.17772682628E+04  0.17917921071E+04  0.15294330000E+03 0.  0.
    8880022    1    1    2    0    0 -0.16779573915E+03  0.17012174461E+02  0.71099349536E+02  0.23851958971E+03  0.15294330000E+03 0.  0.
<mgrwt>
<rscale>  0 0.22767626E+03</rscale>
<asrwt>0</asrwt>
<pdfrwt beam="1">  1        1 0.28742157E+00 0.22767626E+03</pdfrwt>
<pdfrwt beam="2">  1       -1 0.24934062E-01 0.22767626E+03</pdfrwt>
<totfact> 0.58909914E+01</totfact>
</mgrwt>
</event>
<event>
 4    1  0.1852677E-008  0.2430877E+03  0.7818608E-02  0.1117753E+00
          1   -1    0    0  501    0  0.00000000000E+00  0.00000000000E+00  0.85680851983E+03  0.85680851985E+03  0.50400000000E-02 0. -1.
         -1   -1    0    0    0  501 -0.00000000000E+00 -0.00000000000E+00 -0.15553974475E+03  0.15553974483E+03  0.50400000000E-02 0.  1.
    8880022    1    1    2    0    0 -0.16030592254E+03 -0.10000991680E+03  0.72826702473E+03  0.76776590481E+03  0.15294330000E+03 0.  0.
    8880022    1    1    2    0    0  0.16030592254E+03  0.10000991680E+03 -0.26998249644E+02  0.24458235987E+03  0.15294330000E+03 0.  0.
<mgrwt>
<rscale>  0 0.24308769E+03</rscale>
<asrwt>0</asrwt>
<pdfrwt beam="1">  1        1 0.13181670E+00 0.24308769E+03</pdfrwt>
<pdfrwt beam="2">  1       -1 0.23929191E-01 0.24308769E+03</pdfrwt>
<totfact> 0.31334697E+02</totfact>
</mgrwt>
</event>
<event>
 4    1  0.1852677E-008  0.8717297E+03  0.7818608E-02  0.9461627E-01
         -1   -1    0    0    0  501 -0.00000000000E+00  0.00000000000E+00  0.50446037095E+03  0.50446037097E+03  0.50400000000E-02 0.  1.
          1   -1    0    0  501    0  0.00000000000E+00 -0.00000000000E+00 -0.27364831279E+04  0.27364831279E+04  0.50400000000E-02 0. -1.
    8880022    1    1    2    0    0  0.14459802023E+03  0.84593875868E+03 -0.29549294127E+02  0.87223035070E+03  0.15294330000E+03 0.  0.
    8880022    1    1    2    0    0 -0.14459802023E+03 -0.84593875868E+03 -0.22024734628E+04  0.23687131482E+04  0.15294330000E+03 0.  0.
<mgrwt>
<rscale>  0 0.87172967E+03</rscale>
<asrwt>0</asrwt>
<pdfrwt beam="1">  1        1 0.42099740E+00 0.87172967E+03</pdfrwt>
<pdfrwt beam="2">  1       -1 0.77609289E-01 0.87172967E+03</pdfrwt>
<totfact> 0.16077600E+00</totfact>
</mgrwt>
</event>
<event>
 4    1  0.1852677E-008  0.2343150E+03  0.7818608E-02  0.1123639E+00
          1   -1    0    0  501    0  0.00000000000E+00  0.00000000000E+00  0.98411538699E+03  0.98411538700E+03  0.50400000000E-02 0. -1.
         -1   -1    0    0    0  501 -0.00000000000E+00 -0.00000000000E+00 -0.12763976810E+03  0.12763976820E+03  0.50400000000E-02 0.  1.
    8880022    1    1    2    0    0 -0.48956411292E+02  0.17063164490E+03  0.84529885208E+03  0.87717369477E+03  0.15294330000E+03 0.  0.
    8880022    1    1    2    0    0  0.48956411292E+02 -0.17063164490E+03  0.11176766816E+02  0.23458146043E+03  0.15294330000E+03 0.  0.
<mgrwt>
<rscale>  0 0.23431505E+03</rscale>
<asrwt>0</asrwt>
<pdfrwt beam="1">  1        1 0.15140236E+00 0.23431505E+03</pdfrwt>
<pdfrwt beam="2">  1       -1 0.19636888E-01 0.23431505E+03</pdfrwt>
<totfact> 0.34553310E+02</totfact>
</mgrwt>
</event>
<event>
 4    1  0.1852677E-008  0.1004575E+04  0.7818608E-02  0.9303541E-01
          1   -1    0    0  501    0  0.00000000000E+00  0.00000000000E+00  0.14470902303E+04  0.14470902304E+04  0.50400000000E-02 0. -1.
         -1   -1    0    0    0  501 -0.00000000000E+00 -0.00000000000E+00 -0.16477914925E+04  0.16477914925E+04  0.50400000000E-02 0.  1.
    8880022    1    1    2    0    0  0.97682803742E+03  0.17772804629E+03 -0.12755694837E+04  0.16236531138E+04  0.15294330000E+03 0.  0.
    8880022    1    1    2    0    0 -0.97682803742E+03 -0.17772804629E+03  0.10748682216E+04  0.14712286090E+04  0.15294330000E+03 0.  0.
<mgrwt>
<rscale>  0 0.10045755E+04</rscale>
<asrwt>0</asrwt>
<pdfrwt beam="1">  1        1 0.22262927E+00 0.10045755E+04</pdfrwt>
<pdfrwt beam="2">  1       -1 0.25350638E+00 0.10045755E+04</pdfrwt>
<totfact> 0.47582212E-01</totfact>
</mgrwt>
</event>
<event>
 4    1  0.1852677E-008  0.3975006E+03  0.7818608E-02  0.1044649E+00
          1   -1    0    0  501    0  0.00000000000E+00  0.00000000000E+00  0.21783942654E+04  0.21783942654E+04  0.50400000000E-02 0. -1.
         -1   -1    0    0    0  501 -0.00000000000E+00 -0.00000000000E+00 -0.98078597534E+02  0.98078597664E+02  0.50400000000E-02 0.  1.
    8880022    1    1    2    0    0  0.31350331767E+03  0.19060626246E+03  0.45926171093E+03  0.60739447612E+03  0.15294330000E+03 0.  0.
    8880022    1    1    2    0    0 -0.31350331767E+03 -0.19060626246E+03  0.16210539570E+04  0.16690783870E+04  0.15294330000E+03 0.  0.
<mgrwt>
<rscale>  0 0.39750060E+03</rscale>
<asrwt>0</asrwt>
<pdfrwt beam="1">  1        1 0.33513755E+00 0.39750060E+03</pdfrwt>
<pdfrwt beam="2">  1       -1 0.15089016E-01 0.39750060E+03</pdfrwt>
<totfact> 0.80046259E+01</totfact>
</mgrwt>
</event>
<event>
 4    1  0.1852677E-008  0.9272530E+03  0.7818608E-02  0.9392141E-01
          1   -1    0    0  501    0  0.00000000000E+00  0.00000000000E+00  0.28536276433E+04  0.28536276433E+04  0.50400000000E-02 0. -1.
         -1   -1    0    0    0  501 -0.00000000000E+00 -0.00000000000E+00 -0.44443856054E+03  0.44443856056E+03  0.50400000000E-02 0.  1.
    8880022    1    1    2    0    0 -0.59748824631E+03  0.69239744775E+03  0.21404349436E+04  0.23326508163E+04  0.15294330000E+03 0.  0.
    8880022    1    1    2    0    0  0.59748824631E+03 -0.69239744775E+03  0.26875413915E+03  0.96541538752E+03  0.15294330000E+03 0.  0.
<mgrwt>
<rscale>  0 0.92725298E+03</rscale>
<asrwt>0</asrwt>
<pdfrwt beam="1">  1        1 0.43901964E+00 0.92725298E+03</pdfrwt>
<pdfrwt beam="2">  1       -1 0.68375162E-01 0.92725298E+03</pdfrwt>
<totfact> 0.17134055E+00</totfact>
</mgrwt>
</event>
<event>
 4    1  0.1852677E-008  0.1120481E+04  0.7818608E-02  0.9185457E-01
         -1   -1    0    0    0  501 -0.00000000000E+00  0.00000000000E+00  0.83637933150E+03  0.83637933152E+03  0.50400000000E-02 0.  1.
          1   -1    0    0  501    0  0.00000000000E+00 -0.00000000000E+00 -0.20716704907E+04  0.20716704907E+04  0.50400000000E-02 0. -1.
    8880022    1    1    2    0    0 -0.11000683856E+04  0.14810509270E+03 -0.13807281348E+04  0.17781696788E+04  0.15294330000E+03 0.  0.
    8880022    1    1    2    0    0  0.11000683856E+04 -0.14810509270E+03  0.14543697564E+03  0.11298801434E+04  0.15294330000E+03 0.  0.
<mgrwt>
<rscale>  0 0.11204808E+04</rscale>
<asrwt>0</asrwt>
<pdfrwt beam="1">  1        1 0.31871854E+00 0.11204808E+04</pdfrwt>
<pdfrwt beam="2">  1       -1 0.12867374E+00 0.11204808E+04</pdfrwt>
<totfact> 0.13791113E+00</totfact>
</mgrwt>
</event>
<event>
 4    1  0.1852677E-008  0.1455774E+04  0.7818608E-02  0.8914407E-01
          1   -1    0    0  501    0  0.00000000000E+00  0.00000000000E+00  0.23318047414E+04  0.23318047414E+04  0.50400000000E-02 0. -1.
         -1   -1    0    0    0  501 -0.00000000000E+00 -0.00000000000E+00 -0.13468646529E+04  0.13468646529E+04  0.50400000000E-02 0.  1.
    8880022    1    1    2    0    0  0.42883964252E+03 -0.13827448364E+04  0.15413827736E+04  0.21201743394E+04  0.15294330000E+03 0.  0.
    8880022    1    1    2    0    0 -0.42883964252E+03  0.13827448364E+04 -0.55644268504E+03  0.15584950550E+04  0.15294330000E+03 0.  0.
<mgrwt>
<rscale>  0 0.14557741E+04</rscale>
<asrwt>0</asrwt>
<pdfrwt beam="1">  1        1 0.35873919E+00 0.14557741E+04</pdfrwt>
<pdfrwt beam="2">  1       -1 0.20720995E+00 0.14557741E+04</pdfrwt>
<totfact> 0.22583009E-01</totfact>
</mgrwt>
</event>
<event>
 4    1  0.1852677E-008  0.6252466E+03  0.7818608E-02  0.9854369E-01
          1   -1    0    0  501    0  0.00000000000E+00  0.00000000000E+00  0.17597909565E+04  0.17597909565E+04  0.50400000000E-02 0. -1.
         -1   -1    0    0    0  501 -0.00000000000E+00 -0.00000000000E+00 -0.69047983605E+03  0.69047983607E+03  0.50400000000E-02 0.  1.
    8880022    1    1    2    0    0 -0.47974422186E+03  0.37065775266E+03  0.15436426570E+04  0.16654626965E+04  0.15294330000E+03 0.  0.
    8880022    1    1    2    0    0  0.47974422186E+03 -0.37065775266E+03 -0.47433153655E+03  0.78480809604E+03  0.15294330000E+03 0.  0.
<mgrwt>
<rscale>  0 0.62524662E+03</rscale>
<asrwt>0</asrwt>
<pdfrwt beam="1">  1        1 0.27073707E+00 0.62524662E+03</pdfrwt>
<pdfrwt beam="2">  1       -1 0.10622767E+00 0.62524662E+03</pdfrwt>
<totfact> 0.38583118E+00</totfact>
</mgrwt>
</event>
<event>
 4    1  0.1852677E-008  0.7268433E+03  0.7818608E-02  0.9672397E-01
          1   -1    0    0  501    0  0.00000000000E+00  0.00000000000E+00  0.21551994626E+04  0.21551994626E+04  0.50400000000E-02 0. -1.
         -1   -1    0    0    0  501 -0.00000000000E+00 -0.00000000000E+00 -0.40012064829E+03  0.40012064832E+03  0.50400000000E-02 0.  1.
    8880022    1    1    2    0    0 -0.33083090789E+03 -0.62885648251E+03  0.82342980258E+02  0.73149270989E+03  0.15294330000E+03 0.  0.
    8880022    1    1    2    0    0  0.33083090789E+03  0.62885648251E+03  0.16727358340E+04  0.18238274010E+04  0.15294330000E+03 0.  0.
<mgrwt>
<rscale>  0 0.72684332E+03</rscale>
<asrwt>0</asrwt>
<pdfrwt beam="1">  1        1 0.33156914E+00 0.72684332E+03</pdfrwt>
<pdfrwt beam="2">  1       -1 0.61557025E-01 0.72684332E+03</pdfrwt>
<totfact> 0.66010853E+00</totfact>
</mgrwt>
</event>
<event>
 4    1  0.1852677E-008  0.3979910E+03  0.7818608E-02  0.1044478E+00
         -1   -1    0    0    0  501 -0.00000000000E+00  0.00000000000E+00  0.51966501392E+03  0.51966501394E+03  0.50400000000E-02 0.  1.
          1   -1    0    0  501    0  0.00000000000E+00 -0.00000000000E+00 -0.15629051022E+04  0.15629051022E+04  0.50400000000E-02 0. -1.
    8880022    1    1    2    0    0 -0.35559431501E+03  0.92508559214E+02 -0.14558651432E+04  0.15092846380E+04  0.15294330000E+03 0.  0.
    8880022    1    1    2    0    0  0.35559431501E+03 -0.92508559214E+02  0.41262505495E+03  0.57328547809E+03  0.15294330000E+03 0.  1.
<mgrwt>
<rscale>  0 0.39799096E+03</rscale>
<asrwt>0</asrwt>
<pdfrwt beam="1">  1        1 0.24044694E+00 0.39799096E+03</pdfrwt>
<pdfrwt beam="2">  1       -1 0.79948464E-01 0.39799096E+03</pdfrwt>
<totfact> 0.10340223E+01</totfact>
</mgrwt>
</event>
<event>
 4    1  0.1852677E-008  0.1027103E+04  0.7818608E-02  0.9279308E-01
          1   -1    0    0  501    0  0.00000000000E+00  0.00000000000E+00  0.91545091824E+03  0.91545091825E+03  0.50400000000E-02 0. -1.
         -1   -1    0    0    0  501 -0.00000000000E+00 -0.00000000000E+00 -0.22371119127E+04  0.22371119127E+04  0.50400000000E-02 0.  1.
    8880022    1    1    2    0    0 -0.74445198294E+03  0.69089850258E+03 -0.17584516302E+04  0.20364413285E+04  0.15294330000E+03 0.  0.
    8880022    1    1    2    0    0  0.74445198294E+03 -0.69089850258E+03  0.43679063571E+03  0.11161215025E+04  0.15294330000E+03 0.  0.
<mgrwt>
<rscale>  0 0.10271033E+04</rscale>
<asrwt>0</asrwt>
<pdfrwt beam="1">  1        1 0.14083860E+00 0.10271033E+04</pdfrwt>
<pdfrwt beam="2">  1       -1 0.34417106E+00 0.10271033E+04</pdfrwt>
<totfact> 0.30468896E-01</totfact>
</mgrwt>
</event>
<event>
 4    1  0.1852677E-008  0.4586180E+03  0.7818608E-02  0.1025183E+00
          1   -1    0    0  501    0  0.00000000000E+00  0.00000000000E+00  0.53607387429E+03  0.53607387431E+03  0.50400000000E-02 0. -1.
         -1   -1    0    0    0  501 -0.00000000000E+00 -0.00000000000E+00 -0.58176308777E+03  0.58176308779E+03  0.50400000000E-02 0.  1.
    8880022    1    1    2    0    0 -0.37235663742E+02  0.43075782778E+03 -0.34176066186E+03  0.57195349798E+03  0.15294330000E+03 0.  0.
    8880022    1    1    2    0    0  0.37235663742E+02 -0.43075782778E+03  0.29607144837E+03  0.54588346412E+03  0.15294330000E+03 0.  0.
<mgrwt>
<rscale>  0 0.45861798E+03</rscale>
<asrwt>0</asrwt>
<pdfrwt beam="1">  1        1 0.82472904E-01 0.45861798E+03</pdfrwt>
<pdfrwt beam="2">  1       -1 0.89502013E-01 0.45861798E+03</pdfrwt>
<totfact> 0.51838899E+01</totfact>
</mgrwt>
</event>
<event>
 4    1  0.1852677E-008  0.9805197E+03  0.7818608E-02  0.9330172E-01
          1   -1    0    0  501    0  0.00000000000E+00  0.00000000000E+00  0.41131072134E+04  0.41131072134E+04  0.50400000000E-02 0. -1.
         -1   -1    0    0    0  501 -0.00000000000E+00 -0.00000000000E+00 -0.35767572263E+03  0.35767572266E+03  0.50400000000E-02 0.  1.
    8880022    1    1    2    0    0 -0.90100727489E+03 -0.35526493140E+03  0.56189098267E+03  0.11301063712E+04  0.15294330000E+03 0.  0.
    8880022    1    1    2    0    0  0.90100727489E+03  0.35526493140E+03  0.31935405081E+04  0.33406765648E+04  0.15294330000E+03 0.  0.
<mgrwt>
<rscale>  0 0.98051973E+03</rscale>
<asrwt>0</asrwt>
<pdfrwt beam="1">  1        1 0.63278570E+00 0.98051973E+03</pdfrwt>
<pdfrwt beam="2">  1       -1 0.55027037E-01 0.98051973E+03</pdfrwt>
<totfact> 0.26955974E-01</totfact>
</mgrwt>
</event>
<event>
 4    1  0.1852677E-008  0.4042482E+03  0.7818608E-02  0.1042319E+00
         -1   -1    0    0    0  501 -0.00000000000E+00  0.00000000000E+00  0.60891411963E+03  0.60891411965E+03  0.50400000000E-02 0.  1.
          1   -1    0    0  501    0  0.00000000000E+00 -0.00000000000E+00 -0.38586262643E+03  0.38586262646E+03  0.50400000000E-02 0. -1.
    8880022    1    1    2    0    0 -0.19759440190E+03  0.31777576053E+03  0.38598472156E+03  0.55892829589E+03  0.15294330000E+03 0.  0.
    8880022    1    1    2    0    0  0.19759440190E+03 -0.31777576053E+03 -0.16293322836E+03  0.43584845022E+03  0.15294330000E+03 0. -1.
<mgrwt>
<rscale>  0 0.40424823E+03</rscale>
<asrwt>0</asrwt>
<pdfrwt beam="1">  1        1 0.59363481E-01 0.40424823E+03</pdfrwt>
<pdfrwt beam="2">  1       -1 0.93679095E-01 0.40424823E+03</pdfrwt>
<totfact> 0.73252924E+01</totfact>
</mgrwt>
</event>
<event>
 4    1  0.1852677E-008  0.5605652E+03  0.7818608E-02  0.9990777E-01
         -1   -1    0    0    0  501 -0.00000000000E+00  0.00000000000E+00  0.68918778806E+03  0.68918778808E+03  0.50400000000E-02 0.  1.
          1   -1    0    0  501    0  0.00000000000E+00 -0.00000000000E+00 -0.52296786043E+03  0.52296786046E+03  0.50400000000E-02 0. -1.
    8880022    1    1    2    0    0 -0.13976484444E+03 -0.52087184002E+03 -0.13385759038E+03  0.57632559633E+03  0.15294330000E+03 0.  0.
    8880022    1    1    2    0    0  0.13976484444E+03  0.52087184002E+03  0.30007751801E+03  0.63583005221E+03  0.15294330000E+03 0.  0.
<mgrwt>
<rscale>  0 0.56056520E+03</rscale>
<asrwt>0</asrwt>
<pdfrwt beam="1">  1        1 0.80456593E-01 0.56056520E+03</pdfrwt>
<pdfrwt beam="2">  1       -1 0.10602889E+00 0.56056520E+03</pdfrwt>
<totfact> 0.36184282E+01</totfact>
</mgrwt>
</event>
<event>
 4    1  0.1852677E-008  0.2981345E+03  0.7818608E-02  0.1086177E+00
         -1   -1    0    0    0  501 -0.00000000000E+00  0.00000000000E+00  0.29185898798E+03  0.29185898803E+03  0.50400000000E-02 0.  1.
          1   -1    0    0  501    0  0.00000000000E+00 -0.00000000000E+00 -0.54431859941E+03  0.54431859943E+03  0.50400000000E-02 0. -1.
    8880022    1    1    2    0    0 -0.13607747207E+02  0.25555300742E+03 -0.40371685634E+03  0.50186797417E+03  0.15294330000E+03 0.  0.
    8880022    1    1    2    0    0  0.13607747207E+02 -0.25555300742E+03  0.15125724492E+03  0.33430961329E+03  0.15294330000E+03 0.  0.
<mgrwt>
<rscale>  0 0.29813447E+03</rscale>
<asrwt>0</asrwt>
<pdfrwt beam="1">  1        1 0.83741323E-01 0.29813447E+03</pdfrwt>
<pdfrwt beam="2">  1       -1 0.44901383E-01 0.29813447E+03</pdfrwt>
<totfact> 0.20296832E+02</totfact>
</mgrwt>
</event>
<event>
 4    1  0.1852677E-008  0.1893115E+03  0.7818608E-02  0.1159084E+00
          1   -1    0    0  501    0  0.00000000000E+00  0.00000000000E+00  0.10818869990E+04  0.10818869990E+04  0.50400000000E-02 0. -1.
         -1   -1    0    0    0  501 -0.00000000000E+00 -0.00000000000E+00 -0.23719990141E+03  0.23719990146E+03  0.50400000000E-02 0.  1.
    8880022    1    1    2    0    0 -0.10711579136E+03 -0.31199409243E+02  0.10341015208E+04  0.10512872130E+04  0.15294330000E+03 0. -1.
    8880022    1    1    2    0    0  0.10711579136E+03  0.31199409243E+02 -0.18941442318E+03  0.26779968749E+03  0.15294330000E+03 0.  0.
<mgrwt>
<rscale>  0 0.18931151E+03</rscale>
<asrwt>0</asrwt>
<pdfrwt beam="1">  1        1 0.16644416E+00 0.18931151E+03</pdfrwt>
<pdfrwt beam="2">  1       -1 0.36492292E-01 0.18931151E+03</pdfrwt>
<totfact> 0.10465191E+02</totfact>
</mgrwt>
</event>
<event>
 4    1  0.1852677E-008  0.2050668E+03  0.7818608E-02  0.1145533E+00
         -1   -1    0    0    0  501 -0.00000000000E+00  0.00000000000E+00  0.68277223972E+02  0.68277224158E+02  0.50400000000E-02 0.  1.
          1   -1    0    0  501    0  0.00000000000E+00 -0.00000000000E+00 -0.31891828829E+04  0.31891828829E+04  0.50400000000E-02 0. -1.
    8880022    1    1    2    0    0 -0.13377395030E+03 -0.27663264596E+02 -0.97424877234E+02  0.22703300577E+03  0.15294330000E+03 0.  0.
    8880022    1    1    2    0    0  0.13377395030E+03  0.27663264596E+02 -0.30234807817E+04  0.30304271013E+04  0.15294330000E+03 0.  0.
<mgrwt>
<rscale>  0 0.20506677E+03</rscale>
<asrwt>0</asrwt>
<pdfrwt beam="1">  1        1 0.49064340E+00 0.20506677E+03</pdfrwt>
<pdfrwt beam="2">  1       -1 0.10504191E-01 0.20506677E+03</pdfrwt>
<totfact> 0.31038772E+01</totfact>
</mgrwt>
</event>
<event>
 4    1  0.1852677E-008  0.7466442E+03  0.7818608E-02  0.9640630E-01
          1   -1    0    0  501    0  0.00000000000E+00  0.00000000000E+00  0.16142239353E+04  0.16142239353E+04  0.50400000000E-02 0. -1.
         -1   -1    0    0    0  501 -0.00000000000E+00 -0.00000000000E+00 -0.48647427008E+03  0.48647427011E+03  0.50400000000E-02 0.  1.
    8880022    1    1    2    0    0 -0.43261280622E+03 -0.58900939297E+03  0.11295922010E+04  0.13540517341E+04  0.15294330000E+03 0.  0.
    8880022    1    1    2    0    0  0.43261280622E+03  0.58900939297E+03 -0.18425357914E+01  0.74664647128E+03  0.15294330000E+03 0.  0.
<mgrwt>
<rscale>  0 0.74664420E+03</rscale>
<asrwt>0</asrwt>
<pdfrwt beam="1">  1        1 0.24834214E+00 0.74664420E+03</pdfrwt>
<pdfrwt beam="2">  1       -1 0.74842197E-01 0.74664420E+03</pdfrwt>
<totfact> 0.10194642E+01</totfact>
</mgrwt>
</event>
<event>
 4    1  0.1852677E-008  0.2006079E+03  0.7818608E-02  0.1149227E+00
         -1   -1    0    0    0  501 -0.00000000000E+00  0.00000000000E+00  0.19393416214E+03  0.19393416220E+03  0.50400000000E-02 0.  1.
          1   -1    0    0  501    0  0.00000000000E+00 -0.00000000000E+00 -0.28787810232E+03  0.28787810237E+03  0.50400000000E-02 0. -1.
    8880022    1    1    2    0    0 -0.63345844586E+02  0.11331003463E+03 -0.17425840495E+03  0.26572449019E+03  0.15294330000E+03 0. -1.
    8880022    1    1    2    0    0  0.63345844586E+02 -0.11331003463E+03  0.80314464763E+02  0.21608777439E+03  0.15294330000E+03 0.  0.
<mgrwt>
<rscale>  0 0.20060786E+03</rscale>
<asrwt>0</asrwt>
<pdfrwt beam="1">  1        1 0.44288939E-01 0.20060786E+03</pdfrwt>
<pdfrwt beam="2">  1       -1 0.29836025E-01 0.20060786E+03</pdfrwt>
<totfact> 0.95147452E+02</totfact>
</mgrwt>
</event>
<event>
 4    1  0.1852677E-008  0.1076014E+04  0.7818608E-02  0.9228891E-01
          1   -1    0    0  501    0  0.00000000000E+00  0.00000000000E+00  0.26096164132E+04  0.26096164132E+04  0.50400000000E-02 0. -1.
         -1   -1    0    0    0  501 -0.00000000000E+00 -0.00000000000E+00 -0.51626017254E+03  0.51626017256E+03  0.50400000000E-02 0.  1.
    8880022    1    1    2    0    0  0.85297144504E+03 -0.63785070065E+03  0.46060751302E+03  0.11704549271E+04  0.15294330000E+03 0.  0.
    8880022    1    1    2    0    0 -0.85297144504E+03  0.63785070065E+03  0.16327487276E+04  0.19554216586E+04  0.15294330000E+03 0.  0.
<mgrwt>
<rscale>  0 0.10760137E+04</rscale>
<asrwt>0</asrwt>
<pdfrwt beam="1">  1        1 0.40147946E+00 0.10760137E+04</pdfrwt>
<pdfrwt beam="2">  1       -1 0.79424640E-01 0.10760137E+04</pdfrwt>
<totfact> 0.18167365E+00</totfact>
</mgrwt>
</event>
<event>
 4    1  0.1852677E-008  0.3406752E+03  0.7818608E-02  0.1066509E+00
         -1   -1    0    0    0  501 -0.00000000000E+00  0.00000000000E+00  0.66648097052E+02  0.66648097243E+02  0.50400000000E-02 0.  1.
          1   -1    0    0  501    0  0.00000000000E+00 -0.00000000000E+00 -0.30658268054E+04  0.30658268054E+04  0.50400000000E-02 0. -1.
    8880022    1    1    2    0    0 -0.88670021852E+02 -0.29121389537E+03 -0.25290300049E+04  0.25518723174E+04  0.15294330000E+03 0.  0.
    8880022    1    1    2    0    0  0.88670021852E+02  0.29121389537E+03 -0.47014870351E+03  0.58060258530E+03  0.15294330000E+03 0.  0.
<mgrwt>
<rscale>  0 0.34067515E+03</rscale>
<asrwt>0</asrwt>
<pdfrwt beam="1">  1        1 0.47166555E+00 0.34067515E+03</pdfrwt>
<pdfrwt beam="2">  1       -1 0.10253556E-01 0.34067515E+03</pdfrwt>
<totfact> 0.37310305E+01</totfact>
</mgrwt>
</event>
<event>
 4    1  0.1852677E-008  0.4159664E+03  0.7818608E-02  0.1038387E+00
         -1   -1    0    0    0  501 -0.00000000000E+00  0.00000000000E+00  0.15495870326E+03  0.15495870335E+03  0.50400000000E-02 0.  1.
          1   -1    0    0  501    0  0.00000000000E+00 -0.00000000000E+00 -0.15835381732E+04  0.15835381732E+04  0.50400000000E-02 0. -1.
    8880022    1    1    2    0    0  0.21267080304E+03 -0.32312155735E+03 -0.11863047464E+04  0.12571185368E+04  0.15294330000E+03 0.  0.
    8880022    1    1    2    0    0 -0.21267080304E+03  0.32312155735E+03 -0.24227472356E+03  0.48137833975E+03  0.15294330000E+03 0.  0.
<mgrwt>
<rscale>  0 0.41596642E+03</rscale>
<asrwt>0</asrwt>
<pdfrwt beam="1">  1        1 0.24362125E+00 0.41596642E+03</pdfrwt>
<pdfrwt beam="2">  1       -1 0.23839802E-01 0.41596642E+03</pdfrwt>
<totfact> 0.92996086E+01</totfact>
</mgrwt>
</event>
<event>
 4    1  0.1852677E-008  0.1567580E+03  0.7818608E-02  0.1192406E+00
         -1   -1    0    0    0  501 -0.00000000000E+00  0.00000000000E+00  0.50107069627E+03  0.50107069630E+03  0.50400000000E-02 0.  1.
          1   -1    0    0  501    0  0.00000000000E+00 -0.00000000000E+00 -0.43864618522E+03  0.43864618525E+03  0.50400000000E-02 0. -1.
    8880022    1    1    2    0    0 -0.34033207000E+02  0.48114838739E+01 -0.41160257559E+03  0.44044266688E+03  0.15294330000E+03 0. -1.
    8880022    1    1    2    0    0  0.34033207000E+02 -0.48114838739E+01  0.47402708664E+03  0.49927421467E+03  0.15294330000E+03 0.  0.
<mgrwt>
<rscale>  0 0.15675797E+03</rscale>
<asrwt>0</asrwt>
<pdfrwt beam="1">  1        1 0.67484028E-01 0.15675797E+03</pdfrwt>
<pdfrwt beam="2">  1       -1 0.77087800E-01 0.15675797E+03</pdfrwt>
<totfact> 0.98295682E+01</totfact>
</mgrwt>
</event>
<event>
 4    1  0.1852677E-008  0.5760317E+03  0.7818608E-02  0.9956419E-01
         -1   -1    0    0    0  501 -0.00000000000E+00  0.00000000000E+00  0.13738730498E+04  0.13738730498E+04  0.50400000000E-02 0.  1.
          1   -1    0    0  501    0  0.00000000000E+00 -0.00000000000E+00 -0.60391347850E+03  0.60391347852E+03  0.50400000000E-02 0. -1.
    8880022    1    1    2    0    0  0.23566925369E+03 -0.50287266060E+03  0.11510252343E+04  0.12871175754E+04  0.15294330000E+03 0.  0.
    8880022    1    1    2    0    0 -0.23566925369E+03  0.50287266060E+03 -0.38106566305E+03  0.69066895289E+03  0.15294330000E+03 0.  0.
<mgrwt>
<rscale>  0 0.57603174E+03</rscale>
<asrwt>0</asrwt>
<pdfrwt beam="1">  1        1 0.92909767E-01 0.57603174E+03</pdfrwt>
<pdfrwt beam="2">  1       -1 0.21136508E+00 0.57603174E+03</pdfrwt>
<totfact> 0.45634795E+00</totfact>
</mgrwt>
</event>
<event>
 4    1  0.1852677E-008  0.4316343E+03  0.7818608E-02  0.1033345E+00
          1   -1    0    0  501    0  0.00000000000E+00  0.00000000000E+00  0.20314710429E+04  0.20314710429E+04  0.50400000000E-02 0. -1.
         -1   -1    0    0    0  501 -0.00000000000E+00 -0.00000000000E+00 -0.17822823191E+03  0.17822823198E+03  0.50400000000E-02 0.  1.
    8880022    1    1    2    0    0 -0.23218042855E+03  0.33016475757E+03  0.16964008709E+04  0.17504525376E+04  0.15294330000E+03 0.  0.
    8880022    1    1    2    0    0  0.23218042855E+03 -0.33016475757E+03  0.15684194011E+03  0.45924673732E+03  0.15294330000E+03 0.  0.
<mgrwt>
<rscale>  0 0.43163430E+03</rscale>
<asrwt>0</asrwt>
<pdfrwt beam="1">  1        1 0.31253401E+00 0.43163430E+03</pdfrwt>
<pdfrwt beam="2">  1       -1 0.27419728E-01 0.43163430E+03</pdfrwt>
<totfact> 0.37023388E+01</totfact>
</mgrwt>
</event>
<event>
 4    1  0.1852677E-008  0.4927619E+03  0.7818608E-02  0.1015686E+00
          1   -1    0    0  501    0  0.00000000000E+00  0.00000000000E+00  0.10878280150E+04  0.10878280150E+04  0.50400000000E-02 0. -1.
         -1   -1    0    0    0  501 -0.00000000000E+00 -0.00000000000E+00 -0.22778642718E+03  0.22778642724E+03  0.50400000000E-02 0.  1.
    8880022    1    1    2    0    0  0.22454568131E+03  0.41109833845E+03  0.33678328993E+03  0.59685613364E+03  0.15294330000E+03 0.  0.
    8880022    1    1    2    0    0 -0.22454568131E+03 -0.41109833845E+03  0.52325829790E+03  0.71875830862E+03  0.15294330000E+03 0.  0.
<mgrwt>
<rscale>  0 0.49276187E+03</rscale>
<asrwt>0</asrwt>
<pdfrwt beam="1">  1        1 0.16735816E+00 0.49276187E+03</pdfrwt>
<pdfrwt beam="2">  1       -1 0.35044066E-01 0.49276187E+03</pdfrwt>
<totfact> 0.10487786E+02</totfact>
</mgrwt>
</event>
<event>
 4    1  0.1852677E-008  0.1328273E+04  0.7818608E-02  0.9007440E-01
          1   -1    0    0  501    0  0.00000000000E+00  0.00000000000E+00  0.16239074002E+04  0.16239074002E+04  0.50400000000E-02 0. -1.
         -1   -1    0    0    0  501 -0.00000000000E+00 -0.00000000000E+00 -0.11811201796E+04  0.11811201796E+04  0.50400000000E-02 0.  1.
    8880022    1    1    2    0    0 -0.10405103585E+04  0.81133000060E+03 -0.17565585199E+03  0.13398376048E+04  0.15294330000E+03 0.  0.
    8880022    1    1    2    0    0  0.10405103585E+04 -0.81133000060E+03  0.61844307260E+03  0.14651899751E+04  0.15294330000E+03 0.  0.
<mgrwt>
<rscale>  0 0.13282733E+04</rscale>
<asrwt>0</asrwt>
<pdfrwt beam="1">  1        1 0.24983191E+00 0.13282733E+04</pdfrwt>
<pdfrwt beam="2">  1       -1 0.18171080E+00 0.13282733E+04</pdfrwt>
<totfact> 0.10495503E+00</totfact>
</mgrwt>
</event>
<event>
 4    1  0.1852677E-008  0.3678309E+03  0.7818608E-02  0.1055525E+00
         -1   -1    0    0    0  501 -0.00000000000E+00  0.00000000000E+00  0.87989818021E+03  0.87989818023E+03  0.50400000000E-02 0.  1.
          1   -1    0    0  501    0  0.00000000000E+00 -0.00000000000E+00 -0.15831343396E+03  0.15831343404E+03  0.50400000000E-02 0. -1.
    8880022    1    1    2    0    0  0.33434086748E+03 -0.11139215379E+02  0.44875921962E+03  0.58024511027E+03  0.15294330000E+03 0.  0.
    8880022    1    1    2    0    0 -0.33434086748E+03  0.11139215379E+02  0.27282552663E+03  0.45796650400E+03  0.15294330000E+03 0.  1.
<mgrwt>
<rscale>  0 0.36783087E+03</rscale>
<asrwt>0</asrwt>
<pdfrwt beam="1">  1        1 0.24355913E-01 0.36783087E+03</pdfrwt>
<pdfrwt beam="2">  1       -1 0.13536895E+00 0.36783087E+03</pdfrwt>
<totfact> 0.96829649E+01</totfact>
</mgrwt>
</event>
<event>
 4    1  0.1852677E-008  0.8672787E+03  0.7818608E-02  0.9467435E-01
         -1   -1    0    0    0  501 -0.00000000000E+00  0.00000000000E+00  0.54925051090E+03  0.54925051092E+03  0.50400000000E-02 0.  1.
          1   -1    0    0  501    0  0.00000000000E+00 -0.00000000000E+00 -0.13979359649E+04  0.13979359650E+04  0.50400000000E-02 0. -1.
    8880022    1    1    2    0    0 -0.27396467013E+03 -0.80853199750E+03 -0.28536887132E+03  0.91302118113E+03  0.15294330000E+03 0.  0.
    8880022    1    1    2    0    0  0.27396467013E+03  0.80853199750E+03 -0.56331658273E+03  0.10341652947E+04  0.15294330000E+03 0.  0.
<mgrwt>
<rscale>  0 0.86727867E+03</rscale>
<asrwt>0</asrwt>
<pdfrwt beam="1">  1        1 0.21506707E+00 0.86727867E+03</pdfrwt>
<pdfrwt beam="2">  1       -1 0.84500079E-01 0.86727867E+03</pdfrwt>
<totfact> 0.10907534E+01</totfact>
</mgrwt>
</event>
<event>
 4    1  0.1852677E-008  0.4346740E+03  0.7818608E-02  0.1032394E+00
          1   -1    0    0  501    0  0.00000000000E+00  0.00000000000E+00  0.46954120089E+03  0.46954120092E+03  0.50400000000E-02 0. -1.
         -1   -1    0    0    0  501 -0.00000000000E+00 -0.00000000000E+00 -0.93579597517E+03  0.93579597518E+03  0.50400000000E-02 0.  1.
    8880022    1    1    2    0    0 -0.36171191060E+03  0.18631773898E+03 -0.76362872662E+03  0.87867530480E+03  0.15294330000E+03 0.  0.
    8880022    1    1    2    0    0  0.36171191060E+03 -0.18631773898E+03  0.29737395235E+03  0.52666187130E+03  0.15294330000E+03 0.  0.
<mgrwt>
<rscale>  0 0.43467397E+03</rscale>
<asrwt>0</asrwt>
<pdfrwt beam="1">  1        1 0.72237108E-01 0.43467397E+03</pdfrwt>
<pdfrwt beam="2">  1       -1 0.14396861E+00 0.43467397E+03</pdfrwt>
<totfact> 0.20178893E+01</totfact>
</mgrwt>
</event>
<event>
 4    1  0.1852677E-008  0.3675933E+03  0.7818608E-02  0.1055617E+00
         -1   -1    0    0    0  501 -0.00000000000E+00  0.00000000000E+00  0.49122221037E+03  0.49122221040E+03  0.50400000000E-02 0.  1.
          1   -1    0    0  501    0  0.00000000000E+00 -0.00000000000E+00 -0.12564748917E+04  0.12564748917E+04  0.50400000000E-02 0. -1.
    8880022    1    1    2    0    0 -0.33007767439E+03  0.52743837097E+02  0.38966544601E+03  0.53569020554E+03  0.15294330000E+03 0.  0.
    8880022    1    1    2    0    0  0.33007767439E+03 -0.52743837097E+02 -0.11549181273E+04  0.12120068966E+04  0.15294330000E+03 0.  0.
<mgrwt>
<rscale>  0 0.36759330E+03</rscale>
<asrwt>0</asrwt>
<pdfrwt beam="1">  1        1 0.19330383E+00 0.36759330E+03</pdfrwt>
<pdfrwt beam="2">  1       -1 0.75572648E-01 0.36759330E+03</pdfrwt>
<totfact> 0.18953786E+01</totfact>
</mgrwt>
</event>
<event>
 4    1  0.1852677E-008  0.2780701E+03  0.7818608E-02  0.1096748E+00
          1   -1    0    0  501    0  0.00000000000E+00  0.00000000000E+00  0.11287516986E+04  0.11287516986E+04  0.50400000000E-02 0. -1.
         -1   -1    0    0    0  501 -0.00000000000E+00 -0.00000000000E+00 -0.97844730337E+02  0.97844730467E+02  0.50400000000E-02 0.  1.
    8880022    1    1    2    0    0  0.26480154566E+02 -0.23071659253E+03  0.85130325316E+03  0.89556698606E+03  0.15294330000E+03 0.  0.
    8880022    1    1    2    0    0 -0.26480154566E+02  0.23071659253E+03  0.17960371510E+03  0.33102944302E+03  0.15294330000E+03 0.  0.
<mgrwt>
<rscale>  0 0.27807013E+03</rscale>
<asrwt>0</asrwt>
<pdfrwt beam="1">  1        1 0.17365410E+00 0.27807013E+03</pdfrwt>
<pdfrwt beam="2">  1       -1 0.15053036E-01 0.27807013E+03</pdfrwt>
<totfact> 0.41285548E+02</totfact>
</mgrwt>
</event>
<event>
 4    1  0.1852677E-008  0.3302344E+03  0.7818608E-02  0.1071033E+00
          1   -1    0    0  501    0  0.00000000000E+00  0.00000000000E+00  0.16425878182E+04  0.16425878182E+04  0.50400000000E-02 0. -1.
         -1   -1    0    0    0  501 -0.00000000000E+00 -0.00000000000E+00 -0.13249440250E+04  0.13249440250E+04  0.50400000000E-02 0.  1.
    8880022    1    1    2    0    0 -0.10479477979E+03  0.27327855751E+03 -0.12872910187E+04  0.13289743924E+04  0.15294330000E+03 0.  1.
    8880022    1    1    2    0    0  0.10479477979E+03 -0.27327855751E+03  0.16049348119E+04  0.16385574508E+04  0.15294330000E+03 0.  0.
<mgrwt>
<rscale>  0 0.33023442E+03</rscale>
<asrwt>0</asrwt>
<pdfrwt beam="1">  1        1 0.25270581E+00 0.33023442E+03</pdfrwt>
<pdfrwt beam="2">  1       -1 0.20383754E+00 0.33023442E+03</pdfrwt>
<totfact> 0.89571534E-01</totfact>
</mgrwt>
</event>
<event>
 4    1  0.1852677E-008  0.7488114E+03  0.7818608E-02  0.9637217E-01
          1   -1    0    0  501    0  0.00000000000E+00  0.00000000000E+00  0.26764120946E+04  0.26764120946E+04  0.50400000000E-02 0. -1.
         -1   -1    0    0    0  501 -0.00000000000E+00 -0.00000000000E+00 -0.69228789505E+03  0.69228789506E+03  0.50400000000E-02 0.  1.
    8880022    1    1    2    0    0  0.59414778926E+03  0.42931958991E+03 -0.41452114095E+03  0.85588920724E+03  0.15294330000E+03 0.  0.
    8880022    1    1    2    0    0 -0.59414778926E+03 -0.42931958991E+03  0.23986453405E+04  0.25128107824E+04  0.15294330000E+03 0.  0.
<mgrwt>
<rscale>  0 0.74881143E+03</rscale>
<asrwt>0</asrwt>
<pdfrwt beam="1">  1        1 0.41175571E+00 0.74881143E+03</pdfrwt>
<pdfrwt beam="2">  1       -1 0.10650583E+00 0.74881143E+03</pdfrwt>
<totfact> 0.90034036E-01</totfact>
</mgrwt>
</event>
<event>
 4    1  0.1852677E-008  0.3178126E+03  0.7818608E-02  0.1076660E+00
         -1   -1    0    0    0  501 -0.00000000000E+00  0.00000000000E+00  0.76589847751E+02  0.76589847917E+02  0.50400000000E-02 0.  1.
          1   -1    0    0  501    0  0.00000000000E+00 -0.00000000000E+00 -0.22737096508E+04  0.22737096508E+04  0.50400000000E-02 0. -1.
    8880022    1    1    2    0    0 -0.19695925356E+03 -0.19702860193E+03 -0.33698564193E+03  0.46321074408E+03  0.15294330000E+03 0.  0.
    8880022    1    1    2    0    0  0.19695925356E+03  0.19702860193E+03 -0.18601341611E+04  0.18870887546E+04  0.15294330000E+03 0.  0.
<mgrwt>
<rscale>  0 0.31781263E+03</rscale>
<asrwt>0</asrwt>
<pdfrwt beam="1">  1        1 0.34980143E+00 0.31781263E+03</pdfrwt>
<pdfrwt beam="2">  1       -1 0.11783055E-01 0.31781263E+03</pdfrwt>
<totfact> 0.10448652E+02</totfact>
</mgrwt>
</event>
<event>
 4    1  0.1852677E-008  0.2621648E+03  0.7818608E-02  0.1105849E+00
         -1   -1    0    0    0  501 -0.00000000000E+00  0.00000000000E+00  0.62111062594E+03  0.62111062596E+03  0.50400000000E-02 0.  1.
          1   -1    0    0  501    0  0.00000000000E+00 -0.00000000000E+00 -0.74984452104E+03  0.74984452105E+03  0.50400000000E-02 0. -1.
    8880022    1    1    2    0    0  0.14481689900E+03  0.15609874505E+03  0.56851351943E+03  0.62604954056E+03  0.15294330000E+03 0.  0.
    8880022    1    1    2    0    0 -0.14481689900E+03 -0.15609874505E+03 -0.69724741453E+03  0.74490560645E+03  0.15294330000E+03 0. -1.
<mgrwt>
<rscale>  0 0.26216484E+03</rscale>
<asrwt>0</asrwt>
<pdfrwt beam="1">  1        1 0.11536070E+00 0.26216484E+03</pdfrwt>
<pdfrwt beam="2">  1       -1 0.95555481E-01 0.26216484E+03</pdfrwt>
<totfact> 0.28934091E+01</totfact>
</mgrwt>
</event>
<event>
 4    1  0.1852677E-008  0.8016958E+03  0.7818608E-02  0.9557566E-01
          1   -1    0    0  501    0  0.00000000000E+00  0.00000000000E+00  0.15118519860E+04  0.15118519860E+04  0.50400000000E-02 0. -1.
         -1   -1    0    0    0  501 -0.00000000000E+00 -0.00000000000E+00 -0.61771533733E+03  0.61771533735E+03  0.50400000000E-02 0.  1.
    8880022    1    1    2    0    0 -0.65793582250E+03 -0.43179267952E+03  0.10416230831E+04  0.13144180328E+04  0.15294330000E+03 0.  0.
    8880022    1    1    2    0    0  0.65793582250E+03  0.43179267952E+03 -0.14748643443E+03  0.81514929060E+03  0.15294330000E+03 0.  0.
<mgrwt>
<rscale>  0 0.80169578E+03</rscale>
<asrwt>0</asrwt>
<pdfrwt beam="1">  1        1 0.23259261E+00 0.80169578E+03</pdfrwt>
<pdfrwt beam="2">  1       -1 0.95033130E-01 0.80169578E+03</pdfrwt>
<totfact> 0.70887890E+00</totfact>
</mgrwt>
</event>
<event>
 4    1  0.1852677E-008  0.4816981E+03  0.7818608E-02  0.1018670E+00
          1   -1    0    0  501    0  0.00000000000E+00  0.00000000000E+00  0.82617491591E+03  0.82617491593E+03  0.50400000000E-02 0. -1.
         -1   -1    0    0    0  501 -0.00000000000E+00 -0.00000000000E+00 -0.74308988353E+03  0.74308988355E+03  0.50400000000E-02 0.  1.
    8880022    1    1    2    0    0  0.14878838105E+02 -0.45653042340E+03 -0.57729726949E+03  0.75186780600E+03  0.15294330000E+03 0.  0.
    8880022    1    1    2    0    0 -0.14878838105E+02  0.45653042340E+03  0.66038230187E+03  0.81739699348E+03  0.15294330000E+03 0.  0.
<mgrwt>
<rscale>  0 0.48169810E+03</rscale>
<asrwt>0</asrwt>
<pdfrwt beam="1">  1        1 0.12710383E+00 0.48169810E+03</pdfrwt>
<pdfrwt beam="2">  1       -1 0.11432152E+00 0.48169810E+03</pdfrwt>
<totfact> 0.15670623E+01</totfact>
</mgrwt>
</event>
<event>
 4    1  0.1852677E-008  0.3491733E+03  0.7818608E-02  0.1062955E+00
          1   -1    0    0  501    0  0.00000000000E+00  0.00000000000E+00  0.32610754132E+03  0.32610754136E+03  0.50400000000E-02 0. -1.
         -1   -1    0    0    0  501 -0.00000000000E+00 -0.00000000000E+00 -0.18989613407E+04  0.18989613407E+04  0.50400000000E-02 0.  1.
    8880022    1    1    2    0    0 -0.17179879173E+03  0.26270802765E+03  0.21059170128E+03  0.40776322823E+03  0.15294330000E+03 0.  0.
    8880022    1    1    2    0    0  0.17179879173E+03 -0.26270802765E+03 -0.17834455007E+04  0.18173056538E+04  0.15294330000E+03 0.  0.
<mgrwt>
<rscale>  0 0.34917329E+03</rscale>
<asrwt>0</asrwt>
<pdfrwt beam="1">  1        1 0.50170392E-01 0.34917329E+03</pdfrwt>
<pdfrwt beam="2">  1       -1 0.29214789E+00 0.34917329E+03</pdfrwt>
<totfact> 0.33443790E+00</totfact>
</mgrwt>
</event>
<event>
 4    1  0.1852677E-008  0.3690445E+03  0.7818608E-02  0.1055059E+00
          1   -1    0    0  501    0  0.00000000000E+00  0.00000000000E+00  0.43550719351E+03  0.43550719354E+03  0.50400000000E-02 0. -1.
         -1   -1    0    0    0  501 -0.00000000000E+00 -0.00000000000E+00 -0.51249937046E+03  0.51249937048E+03  0.50400000000E-02 0.  1.
    8880022    1    1    2    0    0 -0.12527626021E+03 -0.31162160804E+03  0.25744480498E+03  0.44996849734E+03  0.15294330000E+03 0.  0.
    8880022    1    1    2    0    0  0.12527626021E+03  0.31162160804E+03 -0.33443698193E+03  0.49803806668E+03  0.15294330000E+03 0.  0.
<mgrwt>
<rscale>  0 0.36904447E+03</rscale>
<asrwt>0</asrwt>
<pdfrwt beam="1">  1        1 0.67001107E-01 0.36904447E+03</pdfrwt>
<pdfrwt beam="2">  1       -1 0.78846057E-01 0.36904447E+03</pdfrwt>
<totfact> 0.90882223E+01</totfact>
</mgrwt>
</event>
<event>
 4    1  0.1852677E-008  0.5962564E+03  0.7818608E-02  0.9913203E-01
          1   -1    0    0  501    0  0.00000000000E+00  0.00000000000E+00  0.11680837705E+04  0.11680837705E+04  0.50400000000E-02 0. -1.
         -1   -1    0    0    0  501 -0.00000000000E+00 -0.00000000000E+00 -0.32426893294E+03  0.32426893298E+03  0.50400000000E-02 0.  1.
    8880022    1    1    2    0    0  0.47257465404E+03  0.32985336274E+03  0.23703247597E+03  0.64164327490E+03  0.15294330000E+03 0.  0.
    8880022    1    1    2    0    0 -0.47257465404E+03 -0.32985336274E+03  0.60678236162E+03  0.85070942862E+03  0.15294330000E+03 0.  0.
<mgrwt>
<rscale>  0 0.59625640E+03</rscale>
<asrwt>0</asrwt>
<pdfrwt beam="1">  1        1 0.17970519E+00 0.59625640E+03</pdfrwt>
<pdfrwt beam="2">  1       -1 0.49887529E-01 0.59625640E+03</pdfrwt>
<totfact> 0.47479620E+01</totfact>
</mgrwt>
</event>
<event>
 4    1  0.1852677E-008  0.6228816E+03  0.7818608E-02  0.9859039E-01
         -1   -1    0    0    0  501 -0.00000000000E+00  0.00000000000E+00  0.89803383555E+03  0.89803383556E+03  0.50400000000E-02 0.  1.
          1   -1    0    0  501    0  0.00000000000E+00 -0.00000000000E+00 -0.58599182170E+03  0.58599182172E+03  0.50400000000E-02 0. -1.
    8880022    1    1    2    0    0 -0.39477343026E+02 -0.60252084345E+03  0.53635574745E+03  0.82198477373E+03  0.15294330000E+03 0.  1.
    8880022    1    1    2    0    0  0.39477343026E+02  0.60252084345E+03 -0.22431373360E+03  0.66204088356E+03  0.15294330000E+03 0.  0.
<mgrwt>
<rscale>  0 0.62288159E+03</rscale>
<asrwt>0</asrwt>
<pdfrwt beam="1">  1        1 0.90152588E-01 0.62288159E+03</pdfrwt>
<pdfrwt beam="2">  1       -1 0.13815905E+00 0.62288159E+03</pdfrwt>
<totfact> 0.16057610E+01</totfact>
</mgrwt>
</event>
<event>
 4    1  0.1852677E-008  0.2444014E+03  0.7818608E-02  0.1116895E+00
         -1   -1    0    0    0  501 -0.00000000000E+00  0.00000000000E+00  0.82669288416E+03  0.82669288417E+03  0.50400000000E-02 0.  1.
          1   -1    0    0  501    0  0.00000000000E+00 -0.00000000000E+00 -0.19571791634E+03  0.19571791641E+03  0.50400000000E-02 0. -1.
    8880022    1    1    2    0    0  0.11872426421E+03  0.14914735661E+03 -0.90534737999E+02  0.26063111229E+03  0.15294330000E+03 0.  0.
    8880022    1    1    2    0    0 -0.11872426421E+03 -0.14914735661E+03  0.72150970581E+03  0.76177968829E+03  0.15294330000E+03 0.  0.
<mgrwt>
<rscale>  0 0.24440139E+03</rscale>
<asrwt>0</asrwt>
<pdfrwt beam="1">  1        1 0.30110449E-01 0.24440139E+03</pdfrwt>
<pdfrwt beam="2">  1       -1 0.12718352E+00 0.24440139E+03</pdfrwt>
<totfact> 0.87694867E+01</totfact>
</mgrwt>
</event>
<event>
 4    1  0.1852677E-008  0.3861434E+03  0.7818608E-02  0.1048686E+00
          1   -1    0    0  501    0  0.00000000000E+00  0.00000000000E+00  0.54300024758E+03  0.54300024760E+03  0.50400000000E-02 0. -1.
         -1   -1    0    0    0  501 -0.00000000000E+00 -0.00000000000E+00 -0.64189483922E+03  0.64189483924E+03  0.50400000000E-02 0.  1.
    8880022    1    1    2    0    0  0.35279278986E+03  0.35387939761E+02  0.39870603942E+03  0.55504343771E+03  0.15294330000E+03 0.  0.
    8880022    1    1    2    0    0 -0.35279278986E+03 -0.35387939761E+02 -0.49760063106E+03  0.62985164913E+03  0.15294330000E+03 0.  0.
<mgrwt>
<rscale>  0 0.38614338E+03</rscale>
<asrwt>0</asrwt>
<pdfrwt beam="1">  1        1 0.83538500E-01 0.38614338E+03</pdfrwt>
<pdfrwt beam="2">  1       -1 0.98753052E-01 0.38614338E+03</pdfrwt>
<totfact> 0.41464885E+01</totfact>
</mgrwt>
</event>
<event>
 4    1  0.1852677E-008  0.6983184E+03  0.7818608E-02  0.9720112E-01
         -1   -1    0    0    0  501 -0.00000000000E+00  0.00000000000E+00  0.68450232034E+03  0.68450232036E+03  0.50400000000E-02 0.  1.
          1   -1    0    0  501    0  0.00000000000E+00 -0.00000000000E+00 -0.22032838478E+04  0.22032838478E+04  0.50400000000E-02 0. -1.
    8880022    1    1    2    0    0 -0.24795776852E+03 -0.63464473138E+03 -0.19471263267E+04  0.20685622000E+04  0.15294330000E+03 0.  0.
    8880022    1    1    2    0    0  0.24795776852E+03  0.63464473138E+03  0.42834479923E+03  0.81922396820E+03  0.15294330000E+03 0.  0.
<mgrwt>
<rscale>  0 0.69831844E+03</rscale>
<asrwt>0</asrwt>
<pdfrwt beam="1">  1        1 0.33896674E+00 0.69831844E+03</pdfrwt>
<pdfrwt beam="2">  1       -1 0.10530805E+00 0.69831844E+03</pdfrwt>
<totfact> 0.19606593E+00</totfact>
</mgrwt>
</event>
<event>
 4    1  0.1852677E-008  0.5044614E+03  0.7818608E-02  0.1012621E+00
          1   -1    0    0  501    0  0.00000000000E+00  0.00000000000E+00  0.25722379701E+04  0.25722379701E+04  0.50400000000E-02 0. -1.
         -1   -1    0    0    0  501 -0.00000000000E+00 -0.00000000000E+00 -0.17137594126E+03  0.17137594134E+03  0.50400000000E-02 0.  1.
    8880022    1    1    2    0    0 -0.43620336919E+03 -0.20203025889E+03  0.30853600107E+03  0.59133384968E+03  0.15294330000E+03 0.  0.
    8880022    1    1    2    0    0  0.43620336919E+03  0.20203025889E+03  0.20923260278E+04  0.21522800618E+04  0.15294330000E+03 0.  0.
<mgrwt>
<rscale>  0 0.50446135E+03</rscale>
<asrwt>0</asrwt>
<pdfrwt beam="1">  1        1 0.39572891E+00 0.50446135E+03</pdfrwt>
<pdfrwt beam="2">  1       -1 0.26365530E-01 0.50446135E+03</pdfrwt>
<totfact> 0.16955977E+01</totfact>
</mgrwt>
</event>
<event>
 4    1  0.1852677E-008  0.3551291E+03  0.7818608E-02  0.1060529E+00
         -1   -1    0    0    0  501 -0.00000000000E+00  0.00000000000E+00  0.44813039856E+03  0.44813039859E+03  0.50400000000E-02 0.  1.
          1   -1    0    0  501    0  0.00000000000E+00 -0.00000000000E+00 -0.66648638801E+03  0.66648638803E+03  0.50400000000E-02 0. -1.
    8880022    1    1    2    0    0 -0.26283795901E+02  0.31942795220E+03 -0.53278477370E+03  0.64029393459E+03  0.15294330000E+03 0.  1.
    8880022    1    1    2    0    0  0.26283795901E+02 -0.31942795220E+03  0.31442878425E+03  0.47432285202E+03  0.15294330000E+03 0.  0.
<mgrwt>
<rscale>  0 0.35512914E+03</rscale>
<asrwt>0</asrwt>
<pdfrwt beam="1">  1        1 0.10253637E+00 0.35512914E+03</pdfrwt>
<pdfrwt beam="2">  1       -1 0.68943138E-01 0.35512914E+03</pdfrwt>
<totfact> 0.66789156E+01</totfact>
</mgrwt>
</event>
<event>
 4    1  0.1852677E-008  0.2405818E+03  0.7818608E-02  0.1119406E+00
         -1   -1    0    0    0  501 -0.00000000000E+00  0.00000000000E+00  0.41659071149E+03  0.41659071152E+03  0.50400000000E-02 0.  1.
          1   -1    0    0  501    0  0.00000000000E+00 -0.00000000000E+00 -0.31052816086E+03  0.31052816090E+03  0.50400000000E-02 0. -1.
    8880022    1    1    2    0    0 -0.13610099834E+03 -0.12635060617E+03  0.32328591040E+03  0.40298063266E+03  0.15294330000E+03 0.  0.
    8880022    1    1    2    0    0  0.13610099834E+03  0.12635060617E+03 -0.21722335977E+03  0.32413823975E+03  0.15294330000E+03 0. -1.
<mgrwt>
<rscale>  0 0.24058182E+03</rscale>
<asrwt>0</asrwt>
<pdfrwt beam="1">  1        1 0.47773563E-01 0.24058182E+03</pdfrwt>
<pdfrwt beam="2">  1       -1 0.64090879E-01 0.24058182E+03</pdfrwt>
<totfact> 0.21670184E+02</totfact>
</mgrwt>
</event>
<event>
 4    1  0.1852677E-008  0.4260871E+03  0.7818608E-02  0.1035103E+00
          1   -1    0    0  501    0  0.00000000000E+00  0.00000000000E+00  0.22036856191E+04  0.22036856191E+04  0.50400000000E-02 0. -1.
         -1   -1    0    0    0  501 -0.00000000000E+00 -0.00000000000E+00 -0.26268113297E+03  0.26268113302E+03  0.50400000000E-02 0.  1.
    8880022    1    1    2    0    0  0.39767641259E+03  0.34741722697E+01 -0.51158342384E+02  0.42914732670E+03  0.15294330000E+03 0.  0.
    8880022    1    1    2    0    0 -0.39767641259E+03 -0.34741722697E+01  0.19921628285E+04  0.20372194254E+04  0.15294330000E+03 0.  0.
<mgrwt>
<rscale>  0 0.42608714E+03</rscale>
<asrwt>0</asrwt>
<pdfrwt beam="1">  1        1 0.33902853E+00 0.42608714E+03</pdfrwt>
<pdfrwt beam="2">  1       -1 0.40412485E-01 0.42608714E+03</pdfrwt>
<totfact> 0.14471462E+01</totfact>
</mgrwt>
</event>
<event>
 4    1  0.1852677E-008  0.2839750E+03  0.7818608E-02  0.1093537E+00
         -1   -1    0    0    0  501 -0.00000000000E+00  0.00000000000E+00  0.68340262822E+02  0.68340263007E+02  0.50400000000E-02 0.  1.
          1   -1    0    0  501    0  0.00000000000E+00 -0.00000000000E+00 -0.17439960566E+04  0.17439960566E+04  0.50400000000E-02 0. -1.
    8880022    1    1    2    0    0 -0.18753528421E+03  0.14859567615E+03 -0.13531424283E+04  0.13826193410E+04  0.15294330000E+03 0.  0.
    8880022    1    1    2    0    0  0.18753528421E+03 -0.14859567615E+03 -0.32251336548E+03  0.42971697863E+03  0.15294330000E+03 0.  0.
<mgrwt>
<rscale>  0 0.28397502E+03</rscale>
<asrwt>0</asrwt>
<pdfrwt beam="1">  1        1 0.26830705E+00 0.28397502E+03</pdfrwt>
<pdfrwt beam="2">  1       -1 0.10513888E-01 0.28397502E+03</pdfrwt>
<totfact> 0.27904845E+02</totfact>
</mgrwt>
</event>
<event>
 4    1  0.1852677E-008  0.2932754E+03  0.7818608E-02  0.1088651E+00
          1   -1    0    0  501    0  0.00000000000E+00  0.00000000000E+00  0.35510870715E+03  0.35510870719E+03  0.50400000000E-02 0. -1.
         -1   -1    0    0    0  501 -0.00000000000E+00 -0.00000000000E+00 -0.11368476282E+04  0.11368476282E+04  0.50400000000E-02 0.  1.
    8880022    1    1    2    0    0  0.24644498121E+03 -0.43401547591E+02 -0.10526269171E+04  0.10927185835E+04  0.15294330000E+03 0.  1.
    8880022    1    1    2    0    0 -0.24644498121E+03  0.43401547591E+02  0.27088799607E+03  0.39923775189E+03  0.15294330000E+03 0.  0.
<mgrwt>
<rscale>  0 0.29327543E+03</rscale>
<asrwt>0</asrwt>
<pdfrwt beam="1">  1        1 0.54632110E-01 0.29327543E+03</pdfrwt>
<pdfrwt beam="2">  1       -1 0.17489963E+00 0.29327543E+03</pdfrwt>
<totfact> 0.17661079E+01</totfact>
</mgrwt>
</event>
<event>
 4    1  0.1852677E-008  0.2355924E+03  0.7818608E-02  0.1122764E+00
          1   -1    0    0  501    0  0.00000000000E+00  0.00000000000E+00  0.89484499843E+03  0.89484499845E+03  0.50400000000E-02 0. -1.
         -1   -1    0    0    0  501 -0.00000000000E+00 -0.00000000000E+00 -0.10116435947E+03  0.10116435959E+03  0.50400000000E-02 0.  1.
    8880022    1    1    2    0    0 -0.22345358316E+02 -0.17779989399E+03  0.87083943597E+02  0.25117201992E+03  0.15294330000E+03 0.  0.
    8880022    1    1    2    0    0  0.22345358316E+02  0.17779989399E+03  0.70659669537E+03  0.74483733812E+03  0.15294330000E+03 0.  0.
<mgrwt>
<rscale>  0 0.23559238E+03</rscale>
<asrwt>0</asrwt>
<pdfrwt beam="1">  1        1 0.13766847E+00 0.23559238E+03</pdfrwt>
<pdfrwt beam="2">  1       -1 0.15563747E-01 0.23559238E+03</pdfrwt>
<totfact> 0.58797801E+02</totfact>
</mgrwt>
</event>
<event>
 4    1  0.1852677E-008  0.6633683E+03  0.7818608E-02  0.9782013E-01
          1   -1    0    0  501    0  0.00000000000E+00  0.00000000000E+00  0.67849046810E+03  0.67849046811E+03  0.50400000000E-02 0. -1.
         -1   -1    0    0    0  501 -0.00000000000E+00 -0.00000000000E+00 -0.12486935936E+04  0.12486935936E+04  0.50400000000E-02 0.  1.
    8880022    1    1    2    0    0  0.58246034783E+03  0.27821890599E+03 -0.95310832448E+03  0.11612376792E+04  0.15294330000E+03 0.  0.
    8880022    1    1    2    0    0 -0.58246034783E+03 -0.27821890599E+03  0.38290519897E+03  0.76594638250E+03  0.15294330000E+03 0.  0.
<mgrwt>
<rscale>  0 0.66336828E+03</rscale>
<asrwt>0</asrwt>
<pdfrwt beam="1">  1        1 0.10438315E+00 0.66336828E+03</pdfrwt>
<pdfrwt beam="2">  1       -1 0.19210671E+00 0.66336828E+03</pdfrwt>
<totfact> 0.51226642E+00</totfact>
</mgrwt>
</event>
<event>
 4    1  0.1852677E-008  0.7052868E+03  0.7818608E-02  0.9708234E-01
          1   -1    0    0  501    0  0.00000000000E+00  0.00000000000E+00  0.15074350690E+04  0.15074350690E+04  0.50400000000E-02 0. -1.
         -1   -1    0    0    0  501 -0.00000000000E+00 -0.00000000000E+00 -0.97663054566E+03  0.97663054568E+03  0.50400000000E-02 0.  1.
    8880022    1    1    2    0    0  0.46015070561E+03  0.51215146450E+03 -0.74524917624E+03  0.10260729907E+04  0.15294330000E+03 0.  0.
    8880022    1    1    2    0    0 -0.46015070561E+03 -0.51215146450E+03  0.12760536995E+04  0.14579926240E+04  0.15294330000E+03 0.  0.
<mgrwt>
<rscale>  0 0.70528678E+03</rscale>
<asrwt>0</asrwt>
<pdfrwt beam="1">  1        1 0.23191309E+00 0.70528678E+03</pdfrwt>
<pdfrwt beam="2">  1       -1 0.15025085E+00 0.70528678E+03</pdfrwt>
<totfact> 0.23693871E+00</totfact>
</mgrwt>
</event>
<event>
 4    1  0.1852677E-008  0.5545222E+03  0.7818608E-02  0.1000453E+00
         -1   -1    0    0    0  501 -0.00000000000E+00  0.00000000000E+00  0.25820908149E+03  0.25820908154E+03  0.50400000000E-02 0.  1.
          1   -1    0    0  501    0  0.00000000000E+00 -0.00000000000E+00 -0.23963674526E+04  0.23963674526E+04  0.50400000000E-02 0. -1.
    8880022    1    1    2    0    0 -0.34536544703E+03 -0.40598756719E+03 -0.12768671502E+03  0.56903316857E+03  0.15294330000E+03 0.  0.
    8880022    1    1    2    0    0  0.34536544703E+03  0.40598756719E+03 -0.20104716561E+04  0.20855433656E+04  0.15294330000E+03 0.  0.
<mgrwt>
<rscale>  0 0.55452218E+03</rscale>
<asrwt>0</asrwt>
<pdfrwt beam="1">  1        1 0.36867190E+00 0.55452218E+03</pdfrwt>
<pdfrwt beam="2">  1       -1 0.39724476E-01 0.55452218E+03</pdfrwt>
<totfact> 0.10755288E+01</totfact>
</mgrwt>
</event>
<event>
 4    1  0.1852677E-008  0.3732956E+03  0.7818608E-02  0.1053440E+00
         -1   -1    0    0    0  501 -0.00000000000E+00  0.00000000000E+00  0.19391275464E+03  0.19391275471E+03  0.50400000000E-02 0.  1.
          1   -1    0    0  501    0  0.00000000000E+00 -0.00000000000E+00 -0.16340303819E+04  0.16340303819E+04  0.50400000000E-02 0. -1.
    8880022    1    1    2    0    0  0.32744782567E+03  0.93465703012E+02 -0.14041445843E+04  0.14529182988E+04  0.15294330000E+03 0. -1.
    8880022    1    1    2    0    0 -0.32744782567E+03 -0.93465703012E+02 -0.35973042932E+02  0.37502483786E+03  0.15294330000E+03 0.  0.
<mgrwt>
<rscale>  0 0.37329555E+03</rscale>
<asrwt>0</asrwt>
<pdfrwt beam="1">  1        1 0.25138928E+00 0.37329555E+03</pdfrwt>
<pdfrwt beam="2">  1       -1 0.29832733E-01 0.37329555E+03</pdfrwt>
<totfact> 0.59333938E+01</totfact>
</mgrwt>
</event>
<event>
 4    1  0.1852677E-008  0.4844961E+03  0.7818608E-02  0.1017907E+00
          1   -1    0    0  501    0  0.00000000000E+00  0.00000000000E+00  0.32002827960E+04  0.32002827960E+04  0.50400000000E-02 0. -1.
         -1   -1    0    0    0  501 -0.00000000000E+00 -0.00000000000E+00 -0.29852224808E+03  0.29852224813E+03  0.50400000000E-02 0.  1.
    8880022    1    1    2    0    0  0.45024427087E+03  0.92870602147E+02  0.29702382338E+04  0.30094935905E+04  0.15294330000E+03 0.  0.
    8880022    1    1    2    0    0 -0.45024427087E+03 -0.92870602147E+02 -0.68477685941E+02  0.48931145366E+03  0.15294330000E+03 0.  0.
<mgrwt>
<rscale>  0 0.48449614E+03</rscale>
<asrwt>0</asrwt>
<pdfrwt beam="1">  1        1 0.49235120E+00 0.48449614E+03</pdfrwt>
<pdfrwt beam="2">  1       -1 0.45926500E-01 0.48449614E+03</pdfrwt>
<totfact> 0.23141800E+00</totfact>
</mgrwt>
</event>
<event>
 4    1  0.1852677E-008  0.3091165E+03  0.7818608E-02  0.1080770E+00
          1   -1    0    0  501    0  0.00000000000E+00  0.00000000000E+00  0.15787359740E+03  0.15787359748E+03  0.50400000000E-02 0. -1.
         -1   -1    0    0    0  501 -0.00000000000E+00 -0.00000000000E+00 -0.95038560639E+03  0.95038560640E+03  0.50400000000E-02 0.  1.
    8880022    1    1    2    0    0 -0.25602037182E+03  0.81332264969E+02 -0.73018659414E+03  0.79292211685E+03  0.15294330000E+03 0.  0.
    8880022    1    1    2    0    0  0.25602037182E+03 -0.81332264969E+02 -0.62325414844E+02  0.31533708704E+03  0.15294330000E+03 0.  0.
<mgrwt>
<rscale>  0 0.30911652E+03</rscale>
<asrwt>0</asrwt>
<pdfrwt beam="1">  1        1 0.24288246E-01 0.30911652E+03</pdfrwt>
<pdfrwt beam="2">  1       -1 0.14621317E+00 0.30911652E+03</pdfrwt>
<totfact> 0.80333543E+01</totfact>
</mgrwt>
</event>
<event>
 4    1  0.1852677E-008  0.1532710E+03  0.7818608E-02  0.1196510E+00
          1   -1    0    0  501    0  0.00000000000E+00  0.00000000000E+00  0.25106414399E+03  0.25106414404E+03  0.50400000000E-02 0. -1.
         -1   -1    0    0    0  501 -0.00000000000E+00 -0.00000000000E+00 -0.75719594092E+03  0.75719594094E+03  0.50400000000E-02 0.  1.
    8880022    1    1    2    0    0 -0.92616469021E+01  0.38160841231E+01  0.21888869739E+03  0.26721574703E+03  0.15294330000E+03 0.  0.
    8880022    1    1    2    0    0  0.92616469021E+01 -0.38160841231E+01 -0.72502049432E+03  0.74104433795E+03  0.15294330000E+03 0.  1.
<mgrwt>
<rscale>  0 0.15327098E+03</rscale>
<asrwt>0</asrwt>
<pdfrwt beam="1">  1        1 0.38625253E-01 0.15327098E+03</pdfrwt>
<pdfrwt beam="2">  1       -1 0.11649168E+00 0.15327098E+03</pdfrwt>
<totfact> 0.80790790E+01</totfact>
</mgrwt>
</event>
<event>
 4    1  0.1852677E-008  0.2749288E+03  0.7818608E-02  0.1098491E+00
          1   -1    0    0  501    0  0.00000000000E+00  0.00000000000E+00  0.90749705871E+03  0.90749705872E+03  0.50400000000E-02 0. -1.
         -1   -1    0    0    0  501 -0.00000000000E+00 -0.00000000000E+00 -0.14652246295E+04  0.14652246295E+04  0.50400000000E-02 0.  1.
    8880022    1    1    2    0    0  0.20226286957E+03  0.10622583442E+03  0.87328449647E+03  0.91553900031E+03  0.15294330000E+03 0.  0.
    8880022    1    1    2    0    0 -0.20226286957E+03 -0.10622583442E+03 -0.14310120673E+04  0.14571826879E+04  0.15294330000E+03 0.  1.
<mgrwt>
<rscale>  0 0.27492881E+03</rscale>
<asrwt>0</asrwt>
<pdfrwt beam="1">  1        1 0.13961493E+00 0.27492881E+03</pdfrwt>
<pdfrwt beam="2">  1       -1 0.22541917E+00 0.27492881E+03</pdfrwt>
<totfact> 0.21820226E+00</totfact>
</mgrwt>
</event>
<event>
 4    1  0.1852677E-008  0.7252460E+03  0.7818608E-02  0.9675006E-01
         -1   -1    0    0    0  501 -0.00000000000E+00  0.00000000000E+00  0.49438631156E+03  0.49438631159E+03  0.50400000000E-02 0.  1.
          1   -1    0    0  501    0  0.00000000000E+00 -0.00000000000E+00 -0.22056996180E+04  0.22056996180E+04  0.50400000000E-02 0. -1.
    8880022    1    1    2    0    0 -0.67380158995E+03  0.22041216466E+03 -0.18269887773E+04  0.19656728493E+04  0.15294330000E+03 0.  0.
    8880022    1    1    2    0    0  0.67380158995E+03 -0.22041216466E+03  0.11567547088E+03  0.73441308031E+03  0.15294330000E+03 0.  0.
<mgrwt>
<rscale>  0 0.72524600E+03</rscale>
<asrwt>0</asrwt>
<pdfrwt beam="1">  1        1 0.33933840E+00 0.72524600E+03</pdfrwt>
<pdfrwt beam="2">  1       -1 0.76059434E-01 0.72524600E+03</pdfrwt>
<totfact> 0.39716949E+00</totfact>
</mgrwt>
</event>
<event>
 4    1  0.1852677E-008  0.2845670E+03  0.7818608E-02  0.1093220E+00
         -1   -1    0    0    0  501 -0.00000000000E+00  0.00000000000E+00  0.80241584809E+03  0.80241584811E+03  0.50400000000E-02 0.  1.
          1   -1    0    0  501    0  0.00000000000E+00 -0.00000000000E+00 -0.13961896052E+03  0.13961896061E+03  0.50400000000E-02 0. -1.
    8880022    1    1    2    0    0  0.30116618273E+01 -0.23995340232E+03  0.57938294410E+03  0.64549434879E+03  0.15294330000E+03 0.  0.
    8880022    1    1    2    0    0 -0.30116618273E+01  0.23995340232E+03  0.83413943470E+02  0.29654045993E+03  0.15294330000E+03 0.  0.
<mgrwt>
<rscale>  0 0.28456697E+03</rscale>
<asrwt>0</asrwt>
<pdfrwt beam="1">  1        1 0.21479840E-01 0.28456697E+03</pdfrwt>
<pdfrwt beam="2">  1       -1 0.12344859E+00 0.28456697E+03</pdfrwt>
<totfact> 0.14433914E+02</totfact>
</mgrwt>
</event>
<event>
 4    1  0.1852677E-008  0.9742278E+03  0.7818608E-02  0.9337272E-01
         -1   -1    0    0    0  501 -0.00000000000E+00  0.00000000000E+00  0.98492313344E+03  0.98492313345E+03  0.50400000000E-02 0.  1.
          1   -1    0    0  501    0  0.00000000000E+00 -0.00000000000E+00 -0.10134041724E+04  0.10134041724E+04  0.50400000000E-02 0. -1.
    8880022    1    1    2    0    0  0.98640943530E+02  0.95707793392E+03  0.20715349397E+03  0.99600824817E+03  0.15294330000E+03 0.  0.
    8880022    1    1    2    0    0 -0.98640943530E+02 -0.95707793392E+03 -0.23563453296E+03  0.10023190577E+04  0.15294330000E+03 0.  0.
<mgrwt>
<rscale>  0 0.97422783E+03</rscale>
<asrwt>0</asrwt>
<pdfrwt beam="1">  1        1 0.15590833E+00 0.97422783E+03</pdfrwt>
<pdfrwt beam="2">  1       -1 0.15152664E+00 0.97422783E+03</pdfrwt>
<totfact> 0.50426780E+00</totfact>
</mgrwt>
</event>
<event>
 4    1  0.1852677E-008  0.1960075E+03  0.7818608E-02  0.1153152E+00
          1   -1    0    0  501    0  0.00000000000E+00  0.00000000000E+00  0.22375733786E+04  0.22375733786E+04  0.50400000000E-02 0. -1.
         -1   -1    0    0    0  501 -0.00000000000E+00 -0.00000000000E+00 -0.84473369613E+02  0.84473369764E+02  0.50400000000E-02 0.  1.
    8880022    1    1    2    0    0  0.81045258077E+02 -0.91972471520E+02  0.40215961780E+02  0.20009059441E+03  0.15294330000E+03 0.  0.
    8880022    1    1    2    0    0 -0.81045258077E+02  0.91972471520E+02  0.21128840472E+04  0.21219561540E+04  0.15294330000E+03 0. -1.
<mgrwt>
<rscale>  0 0.19600745E+03</rscale>
<asrwt>0</asrwt>
<pdfrwt beam="1">  1        1 0.34424208E+00 0.19600745E+03</pdfrwt>
<pdfrwt beam="2">  1       -1 0.12995902E-01 0.19600745E+03</pdfrwt>
<totfact> 0.98304756E+01</totfact>
</mgrwt>
</event>
<event>
 4    1  0.1852677E-008  0.4190955E+03  0.7818608E-02  0.1037361E+00
          1   -1    0    0  501    0  0.00000000000E+00  0.00000000000E+00  0.81254855864E+03  0.81254855866E+03  0.50400000000E-02 0. -1.
         -1   -1    0    0    0  501 -0.00000000000E+00 -0.00000000000E+00 -0.20628585667E+04  0.20628585667E+04  0.50400000000E-02 0.  1.
    8880022    1    1    2    0    0  0.41358469034E+02  0.38799335653E+03  0.73513827609E+03  0.84620878373E+03  0.15294330000E+03 0.  0.
    8880022    1    1    2    0    0 -0.41358469034E+02 -0.38799335653E+03 -0.19854482842E+04  0.20291983417E+04  0.15294330000E+03 0.  0.
<mgrwt>
<rscale>  0 0.41909548E+03</rscale>
<asrwt>0</asrwt>
<pdfrwt beam="1">  1        1 0.12500747E+00 0.41909548E+03</pdfrwt>
<pdfrwt beam="2">  1       -1 0.31736285E+00 0.41909548E+03</pdfrwt>
<totfact> 0.64066092E-01</totfact>
</mgrwt>
</event>
<event>
 4    1  0.1852677E-008  0.2615048E+03  0.7818608E-02  0.1106242E+00
          1   -1    0    0  501    0  0.00000000000E+00  0.00000000000E+00  0.17247199800E+03  0.17247199807E+03  0.50400000000E-02 0. -1.
         -1   -1    0    0    0  501 -0.00000000000E+00 -0.00000000000E+00 -0.52375064031E+03  0.52375064033E+03  0.50400000000E-02 0.  1.
    8880022    1    1    2    0    0 -0.14172988190E+03 -0.15781561067E+03 -0.34722833923E+03  0.43468643753E+03  0.15294330000E+03 0.  1.
    8880022    1    1    2    0    0  0.14172988190E+03  0.15781561067E+03 -0.40503030843E+01  0.26153620087E+03  0.15294330000E+03 0. -1.
<mgrwt>
<rscale>  0 0.26150484E+03</rscale>
<asrwt>0</asrwt>
<pdfrwt beam="1">  1        1 0.26534154E-01 0.26150484E+03</pdfrwt>
<pdfrwt beam="2">  1       -1 0.80577021E-01 0.26150484E+03</pdfrwt>
<totfact> 0.28642823E+02</totfact>
</mgrwt>
</event>
<event>
 4    1  0.1852677E-008  0.2582754E+03  0.7818608E-02  0.1108184E+00
          1   -1    0    0  501    0  0.00000000000E+00  0.00000000000E+00  0.27047139750E+04  0.27047139750E+04  0.50400000000E-02 0. -1.
         -1   -1    0    0    0  501 -0.00000000000E+00 -0.00000000000E+00 -0.34713230645E+03  0.34713230649E+03  0.50400000000E-02 0.  1.
    8880022    1    1    2    0    0  0.18794757351E+03 -0.89388067895E+02 -0.29192707678E+03  0.38977889661E+03  0.15294330000E+03 0.  1.
    8880022    1    1    2    0    0 -0.18794757351E+03  0.89388067895E+02  0.26495087454E+04  0.26620673849E+04  0.15294330000E+03 0.  0.
<mgrwt>
<rscale>  0 0.25827538E+03</rscale>
<asrwt>0</asrwt>
<pdfrwt beam="1">  1        1 0.41610985E+00 0.25827538E+03</pdfrwt>
<pdfrwt beam="2">  1       -1 0.53404969E-01 0.25827538E+03</pdfrwt>
<totfact> 0.42954682E+00</totfact>
</mgrwt>
</event>
<event>
 4    1  0.1852677E-008  0.5166741E+03  0.7818608E-02  0.1009516E+00
         -1   -1    0    0    0  501 -0.00000000000E+00  0.00000000000E+00  0.93229608802E+03  0.93229608803E+03  0.50400000000E-02 0.  1.
          1   -1    0    0  501    0  0.00000000000E+00 -0.00000000000E+00 -0.57226346699E+03  0.57226346702E+03  0.50400000000E-02 0. -1.
    8880022    1    1    2    0    0  0.49270882037E+03 -0.28257080171E+02 -0.35173375464E+03  0.62503498416E+03  0.15294330000E+03 0.  0.
    8880022    1    1    2    0    0 -0.49270882037E+03  0.28257080171E+02  0.71176637567E+03  0.87952457089E+03  0.15294330000E+03 0.  0.
<mgrwt>
<rscale>  0 0.51667407E+03</rscale>
<asrwt>0</asrwt>
<pdfrwt beam="1">  1        1 0.88040534E-01 0.51667407E+03</pdfrwt>
<pdfrwt beam="2">  1       -1 0.14343017E+00 0.51667407E+03</pdfrwt>
<totfact> 0.15315745E+01</totfact>
</mgrwt>
</event>
<event>
 4    1  0.1852677E-008  0.1139143E+04  0.7818608E-02  0.9167858E-01
         -1   -1    0    0    0  501 -0.00000000000E+00  0.00000000000E+00  0.13673701937E+04  0.13673701937E+04  0.50400000000E-02 0.  1.
          1   -1    0    0  501    0  0.00000000000E+00 -0.00000000000E+00 -0.11558220465E+04  0.11558220465E+04  0.50400000000E-02 0. -1.
    8880022    1    1    2    0    0 -0.46641177899E+03  0.10279666442E+04 -0.42788452948E+03  0.12168533982E+04  0.15294330000E+03 0.  0.
    8880022    1    1    2    0    0  0.46641177899E+03 -0.10279666442E+04  0.63943267669E+03  0.13063388420E+04  0.15294330000E+03 0.  0.
<mgrwt>
<rscale>  0 0.11391431E+04</rscale>
<asrwt>0</asrwt>
<pdfrwt beam="1">  1        1 0.17781878E+00 0.11391431E+04</pdfrwt>
<pdfrwt beam="2">  1       -1 0.21036465E+00 0.11391431E+04</pdfrwt>
<totfact> 0.14537673E+00</totfact>
</mgrwt>
</event>
<event>
 4    1  0.2360055E-008  0.8329886E+03  0.7818608E-02  0.9513458E-01
          1   -1    0    0  501    0  0.00000000000E+00  0.00000000000E+00  0.14563082465E+04  0.14563082466E+04  0.50400000000E-02 0. -1.
         -1   -1    0    0    0  501 -0.00000000000E+00 -0.00000000000E+00 -0.13409349023E+04  0.13409349023E+04  0.50400000000E-02 0.  1.
    8880022    1    1    2    0    0 -0.80158599890E+03 -0.16714725850E+03 -0.10652959306E+04  0.13523037352E+04  0.15294330000E+03 0.  0.
    8880022    1    1    2    0    0  0.80158599890E+03  0.16714725850E+03  0.11806692748E+04  0.14449394136E+04  0.15294330000E+03 0.  0.
<mgrwt>
<rscale>  0 0.83298858E+03</rscale>
<asrwt>0</asrwt>
<pdfrwt beam="1">  1        1 0.22404742E+00 0.83298858E+03</pdfrwt>
<pdfrwt beam="2">  1       -1 0.20629768E+00 0.83298858E+03</pdfrwt>
<totfact> 0.99008500E-01</totfact>
</mgrwt>
</event>
<event>
 4    1  0.1852677E-008  0.4849171E+03  0.7818608E-02  0.1017792E+00
          1   -1    0    0  501    0  0.00000000000E+00  0.00000000000E+00  0.13843497595E+04  0.13843497595E+04  0.50400000000E-02 0. -1.
         -1   -1    0    0    0  501 -0.00000000000E+00 -0.00000000000E+00 -0.25033825086E+03  0.25033825091E+03  0.50400000000E-02 0.  1.
    8880022    1    1    2    0    0  0.42735202141E+03 -0.17065519518E+03  0.10304340941E+04  0.11388323059E+04  0.15294330000E+03 0.  0.
    8880022    1    1    2    0    0 -0.42735202141E+03  0.17065519518E+03  0.10357741459E+03  0.49585570449E+03  0.15294330000E+03 0.  1.
<mgrwt>
<rscale>  0 0.48491711E+03</rscale>
<asrwt>0</asrwt>
<pdfrwt beam="1">  1        1 0.21297688E+00 0.48491711E+03</pdfrwt>
<pdfrwt beam="2">  1       -1 0.38513578E-01 0.48491711E+03</pdfrwt>
<totfact> 0.54660915E+01</totfact>
</mgrwt>
</event>
<event>
 4    1  0.1852677E-008  0.1598023E+03  0.7818608E-02  0.1188920E+00
          1   -1    0    0  501    0  0.00000000000E+00  0.00000000000E+00  0.10331539615E+04  0.10331539615E+04  0.50400000000E-02 0. -1.
         -1   -1    0    0    0  501 -0.00000000000E+00 -0.00000000000E+00 -0.36596734910E+02  0.36596735257E+02  0.50400000000E-02 0.  1.
    8880022    1    1    2    0    0 -0.39825561209E+02  0.23644190328E+02  0.19353871965E+03  0.25098607946E+03  0.15294330000E+03 0.  0.
    8880022    1    1    2    0    0  0.39825561209E+02 -0.23644190328E+02  0.80301850689E+03  0.81876461727E+03  0.15294330000E+03 0. -1.
<mgrwt>
<rscale>  0 0.15980230E+03</rscale>
<asrwt>0</asrwt>
<pdfrwt beam="1">  1        1 0.15894676E+00 0.15980230E+03</pdfrwt>
<pdfrwt beam="2">  1       -1 0.56302671E-02 0.15980230E+03</pdfrwt>
<totfact> 0.22075448E+03</totfact>
</mgrwt>
</event>
<event>
 4    1  0.1852677E-008  0.4702056E+03  0.7818608E-02  0.1021862E+00
          1   -1    0    0  501    0  0.00000000000E+00  0.00000000000E+00  0.10588225613E+04  0.10588225613E+04  0.50400000000E-02 0. -1.
         -1   -1    0    0    0  501 -0.00000000000E+00 -0.00000000000E+00 -0.12006851224E+04  0.12006851224E+04  0.50400000000E-02 0.  1.
    8880022    1    1    2    0    0 -0.42681699540E+03 -0.12461492380E+03 -0.10977591541E+04  0.11942229441E+04  0.15294330000E+03 0.  0.
    8880022    1    1    2    0    0  0.42681699540E+03  0.12461492380E+03  0.95589659307E+03  0.10652847396E+04  0.15294330000E+03 0.  0.
<mgrwt>
<rscale>  0 0.47020557E+03</rscale>
<asrwt>0</asrwt>
<pdfrwt beam="1">  1        1 0.16289578E+00 0.47020557E+03</pdfrwt>
<pdfrwt beam="2">  1       -1 0.18472079E+00 0.47020557E+03</pdfrwt>
<totfact> 0.29052179E+00</totfact>
</mgrwt>
</event>
<event>
 4    1  0.1852677E-008  0.6777335E+03  0.7818608E-02  0.9756087E-01
         -1   -1    0    0    0  501 -0.00000000000E+00  0.00000000000E+00  0.65488202311E+03  0.65488202313E+03  0.50400000000E-02 0.  1.
          1   -1    0    0  501    0  0.00000000000E+00 -0.00000000000E+00 -0.75063605059E+03  0.75063605060E+03  0.50400000000E-02 0. -1.
    8880022    1    1    2    0    0  0.64139999223E+03 -0.15664304128E+03 -0.22789316770E+03  0.71502303551E+03  0.15294330000E+03 0.  0.
    8880022    1    1    2    0    0 -0.64139999223E+03  0.15664304128E+03  0.13213914023E+03  0.69049503822E+03  0.15294330000E+03 0.  0.
<mgrwt>
<rscale>  0 0.67773346E+03</rscale>
<asrwt>0</asrwt>
<pdfrwt beam="1">  1        1 0.11548247E+00 0.67773346E+03</pdfrwt>
<pdfrwt beam="2">  1       -1 0.10075108E+00 0.67773346E+03</pdfrwt>
<totfact> 0.23719163E+01</totfact>
</mgrwt>
</event>
<event>
 4    1  0.1852677E-008  0.9096050E+03  0.7818608E-02  0.9413654E-01
         -1   -1    0    0    0  501 -0.00000000000E+00  0.00000000000E+00  0.61981749067E+03  0.61981749069E+03  0.50400000000E-02 0.  1.
          1   -1    0    0  501    0  0.00000000000E+00 -0.00000000000E+00 -0.18881810562E+04  0.18881810562E+04  0.50400000000E-02 0. -1.
    8880022    1    1    2    0    0 -0.62859680770E+03 -0.63941824858E+03 -0.13130049321E+04  0.15972987348E+04  0.15294330000E+03 0.  0.
    8880022    1    1    2    0    0  0.62859680770E+03  0.63941824858E+03  0.44641366575E+02  0.91069981217E+03  0.15294330000E+03 0.  0.
<mgrwt>
<rscale>  0 0.90960502E+03</rscale>
<asrwt>0</asrwt>
<pdfrwt beam="1">  1        1 0.29048939E+00 0.90960502E+03</pdfrwt>
<pdfrwt beam="2">  1       -1 0.95356538E-01 0.90960502E+03</pdfrwt>
<totfact> 0.38530896E+00</totfact>
</mgrwt>
</event>
<event>
 4    1  0.1852677E-008  0.6282591E+03  0.7818608E-02  0.9848452E-01
          1   -1    0    0  501    0  0.00000000000E+00  0.00000000000E+00  0.93244331256E+03  0.93244331258E+03  0.50400000000E-02 0. -1.
         -1   -1    0    0    0  501 -0.00000000000E+00 -0.00000000000E+00 -0.10532172052E+04  0.10532172052E+04  0.50400000000E-02 0.  1.
    8880022    1    1    2    0    0 -0.45344469403E+03  0.40706965670E+03 -0.82819997540E+03  0.10395309751E+04  0.15294330000E+03 0.  1.
    8880022    1    1    2    0    0  0.45344469403E+03 -0.40706965670E+03  0.70742608276E+03  0.94612954268E+03  0.15294330000E+03 0.  0.
<mgrwt>
<rscale>  0 0.62825906E+03</rscale>
<asrwt>0</asrwt>
<pdfrwt beam="1">  1        1 0.14345282E+00 0.62825906E+03</pdfrwt>
<pdfrwt beam="2">  1       -1 0.16203342E+00 0.62825906E+03</pdfrwt>
<totfact> 0.51087587E+00</totfact>
</mgrwt>
</event>
<event>
 4    1  0.1852677E-008  0.4304819E+03  0.7818608E-02  0.1033708E+00
         -1   -1    0    0    0  501 -0.00000000000E+00  0.00000000000E+00  0.22970898071E+03  0.22970898076E+03  0.50400000000E-02 0.  1.
          1   -1    0    0  501    0  0.00000000000E+00 -0.00000000000E+00 -0.13801577440E+04  0.13801577440E+04  0.50400000000E-02 0. -1.
    8880022    1    1    2    0    0 -0.30295129022E+02 -0.40125457051E+03 -0.10940630748E+04  0.11757077400E+04  0.15294330000E+03 0. -1.
    8880022    1    1    2    0    0  0.30295129022E+02  0.40125457051E+03 -0.56385688497E+02  0.43415898480E+03  0.15294330000E+03 0.  0.
<mgrwt>
<rscale>  0 0.43048191E+03</rscale>
<asrwt>0</asrwt>
<pdfrwt beam="1">  1        1 0.21233196E+00 0.43048191E+03</pdfrwt>
<pdfrwt beam="2">  1       -1 0.35339844E-01 0.43048191E+03</pdfrwt>
<totfact> 0.64715809E+01</totfact>
</mgrwt>
</event>
<event>
 4    1  0.1864117E-008  0.5110690E+03  0.7818608E-02  0.1010929E+00
          1   -1    0    0  501    0  0.00000000000E+00  0.00000000000E+00  0.12388889008E+04  0.12388889008E+04  0.50400000000E-02 0. -1.
         -1   -1    0    0    0  501 -0.00000000000E+00 -0.00000000000E+00 -0.11661955446E+04  0.11661955446E+04  0.50400000000E-02 0.  1.
    8880022    1    1    2    0    0 -0.47258545509E+03  0.12026170893E+03 -0.10520822013E+04  0.11696446052E+04  0.15294330000E+03 0.  0.
    8880022    1    1    2    0    0  0.47258545509E+03 -0.12026170893E+03  0.11247755576E+04  0.12354398403E+04  0.15294330000E+03 0.  0.
<mgrwt>
<rscale>  0 0.51106902E+03</rscale>
<asrwt>0</asrwt>
<pdfrwt beam="1">  1        1 0.19059829E+00 0.51106902E+03</pdfrwt>
<pdfrwt beam="2">  1       -1 0.17941470E+00 0.51106902E+03</pdfrwt>
<totfact> 0.23163648E+00</totfact>
</mgrwt>
</event>
<event>
 4    1  0.1852677E-008  0.7807090E+03  0.7818608E-02  0.9588368E-01
         -1   -1    0    0    0  501 -0.00000000000E+00  0.00000000000E+00  0.99471867270E+03  0.99471867271E+03  0.50400000000E-02 0.  1.
          1   -1    0    0  501    0  0.00000000000E+00 -0.00000000000E+00 -0.72767142682E+03  0.72767142684E+03  0.50400000000E-02 0. -1.
    8880022    1    1    2    0    0  0.70890153199E+03 -0.28909088820E+03 -0.20873012749E+03  0.80813046152E+03  0.15294330000E+03 0.  0.
    8880022    1    1    2    0    0 -0.70890153199E+03  0.28909088820E+03  0.47577737336E+03  0.91425963803E+03  0.15294330000E+03 0.  0.
<mgrwt>
<rscale>  0 0.78070902E+03</rscale>
<asrwt>0</asrwt>
<pdfrwt beam="1">  1        1 0.11194945E+00 0.78070902E+03</pdfrwt>
<pdfrwt beam="2">  1       -1 0.15303364E+00 0.78070902E+03</pdfrwt>
<totfact> 0.87167411E+00</totfact>
</mgrwt>
</event>
<event>
 4    1  0.1852677E-008  0.1024460E+04  0.7818608E-02  0.9282117E-01
         -1   -1    0    0    0  501 -0.00000000000E+00  0.00000000000E+00  0.15662963601E+04  0.15662963601E+04  0.50400000000E-02 0.  1.
          1   -1    0    0  501    0  0.00000000000E+00 -0.00000000000E+00 -0.94702601591E+03  0.94702601593E+03  0.50400000000E-02 0. -1.
    8880022    1    1    2    0    0  0.39219342282E+03 -0.93397605356E+03  0.98922591424E+03  0.14241090239E+04  0.15294330000E+03 0.  0.
    8880022    1    1    2    0    0 -0.39219342282E+03  0.93397605356E+03 -0.36995557009E+03  0.10892133521E+04  0.15294330000E+03 0.  0.
<mgrwt>
<rscale>  0 0.10244602E+04</rscale>
<asrwt>0</asrwt>
<pdfrwt beam="1">  1        1 0.14569631E+00 0.10244602E+04</pdfrwt>
<pdfrwt beam="2">  1       -1 0.24096867E+00 0.10244602E+04</pdfrwt>
<totfact> 0.13366449E+00</totfact>
</mgrwt>
</event>
<event>
 4    1  0.1852677E-008  0.3030180E+03  0.7818608E-02  0.1083742E+00
          1   -1    0    0  501    0  0.00000000000E+00  0.00000000000E+00  0.29577484762E+03  0.29577484767E+03  0.50400000000E-02 0. -1.
         -1   -1    0    0    0  501 -0.00000000000E+00 -0.00000000000E+00 -0.56553402920E+03  0.56553402922E+03  0.50400000000E-02 0.  1.
    8880022    1    1    2    0    0  0.14171546453E+03  0.21987495306E+03 -0.42411464056E+03  0.52124192965E+03  0.15294330000E+03 0.  1.
    8880022    1    1    2    0    0 -0.14171546453E+03 -0.21987495306E+03  0.15435545898E+03  0.34006694724E+03  0.15294330000E+03 0.  0.
<mgrwt>
<rscale>  0 0.30301802E+03</rscale>
<asrwt>0</asrwt>
<pdfrwt beam="1">  1        1 0.45503823E-01 0.30301802E+03</pdfrwt>
<pdfrwt beam="2">  1       -1 0.87005235E-01 0.30301802E+03</pdfrwt>
<totfact> 0.12252719E+02</totfact>
</mgrwt>
</event>
<event>
 4    1  0.1852677E-008  0.3326920E+03  0.7818608E-02  0.1069952E+00
          1   -1    0    0  501    0  0.00000000000E+00  0.00000000000E+00  0.91090807505E+03  0.91090807507E+03  0.50400000000E-02 0. -1.
         -1   -1    0    0    0  501 -0.00000000000E+00 -0.00000000000E+00 -0.26520301633E+03  0.26520301638E+03  0.50400000000E-02 0.  1.
    8880022    1    1    2    0    0 -0.17164034154E+03 -0.24048267393E+03 -0.11000773528E+03  0.35040787397E+03  0.15294330000E+03 0.  0.
    8880022    1    1    2    0    0  0.17164034154E+03  0.24048267393E+03  0.75571279400E+03  0.82570321747E+03  0.15294330000E+03 0.  0.
<mgrwt>
<rscale>  0 0.33269201E+03</rscale>
<asrwt>0</asrwt>
<pdfrwt beam="1">  1        1 0.14013970E+00 0.33269201E+03</pdfrwt>
<pdfrwt beam="2">  1       -1 0.40800464E-01 0.33269201E+03</pdfrwt>
<totfact> 0.11168733E+02</totfact>
</mgrwt>
</event>
<event>
 4    1  0.1852677E-008  0.2889245E+03  0.7818608E-02  0.1090912E+00
          1   -1    0    0  501    0  0.00000000000E+00  0.00000000000E+00  0.11334163651E+04  0.11334163651E+04  0.50400000000E-02 0. -1.
         -1   -1    0    0    0  501 -0.00000000000E+00 -0.00000000000E+00 -0.17110077528E+03  0.17110077536E+03  0.50400000000E-02 0.  1.
    8880022    1    1    2    0    0 -0.21431212740E+03  0.11897916033E+03  0.97340580059E+03  0.10153798472E+04  0.15294330000E+03 0. -1.
    8880022    1    1    2    0    0  0.21431212740E+03 -0.11897916033E+03 -0.11090210772E+02  0.28913729323E+03  0.15294330000E+03 0.  0.
<mgrwt>
<rscale>  0 0.28892453E+03</rscale>
<asrwt>0</asrwt>
<pdfrwt beam="1">  1        1 0.17437175E+00 0.28892453E+03</pdfrwt>
<pdfrwt beam="2">  1       -1 0.26323197E-01 0.28892453E+03</pdfrwt>
<totfact> 0.16403590E+02</totfact>
</mgrwt>
</event>
<event>
 4    1  0.1852677E-008  0.1062031E+04  0.7818608E-02  0.9243010E-01
          1   -1    0    0  501    0  0.00000000000E+00  0.00000000000E+00  0.22147222613E+04  0.22147222613E+04  0.50400000000E-02 0. -1.
         -1   -1    0    0    0  501 -0.00000000000E+00 -0.00000000000E+00 -0.86186137654E+03  0.86186137656E+03  0.50400000000E-02 0.  1.
    8880022    1    1    2    0    0 -0.77452002533E+02 -0.10481025190E+04  0.16603303692E+04  0.19709404585E+04  0.15294330000E+03 0.  0.
    8880022    1    1    2    0    0  0.77452002533E+02  0.10481025190E+04 -0.30746948446E+03  0.11056431793E+04  0.15294330000E+03 0.  1.
<mgrwt>
<rscale>  0 0.10620308E+04</rscale>
<asrwt>0</asrwt>
<pdfrwt beam="1">  1        1 0.34072650E+00 0.10620308E+04</pdfrwt>
<pdfrwt beam="2">  1       -1 0.13259406E+00 0.10620308E+04</pdfrwt>
<totfact> 0.10311310E+00</totfact>
</mgrwt>
</event>
<event>
 4    1  0.1852677E-008  0.8796988E+03  0.7818608E-02  0.9451321E-01
          1   -1    0    0  501    0  0.00000000000E+00  0.00000000000E+00  0.29587094566E+03  0.29587094570E+03  0.50400000000E-02 0. -1.
         -1   -1    0    0    0  501 -0.00000000000E+00 -0.00000000000E+00 -0.28872541259E+04  0.28872541259E+04  0.50400000000E-02 0.  1.
    8880022    1    1    2    0    0  0.47390004886E+03 -0.72518760497E+03 -0.80747046222E+03  0.11941015531E+04  0.15294330000E+03 0.  0.
    8880022    1    1    2    0    0 -0.47390004886E+03  0.72518760497E+03 -0.17839127180E+04  0.19890235185E+04  0.15294330000E+03 0.  0.
<mgrwt>
<rscale>  0 0.87969880E+03</rscale>
<asrwt>0</asrwt>
<pdfrwt beam="1">  1        1 0.45518609E-01 0.87969880E+03</pdfrwt>
<pdfrwt beam="2">  1       -1 0.44419292E+00 0.87969880E+03</pdfrwt>
<totfact> 0.33161817E-01</totfact>
</mgrwt>
</event>
<event>
 4    1  0.1852677E-008  0.9003813E+03  0.7818608E-02  0.9425105E-01
          1   -1    0    0  501    0  0.00000000000E+00  0.00000000000E+00  0.46986658879E+03  0.46986658882E+03  0.50400000000E-02 0. -1.
         -1   -1    0    0    0  501 -0.00000000000E+00 -0.00000000000E+00 -0.23075282292E+04  0.23075282292E+04  0.50400000000E-02 0.  1.
    8880022    1    1    2    0    0 -0.66696241994E+03 -0.58519737781E+03 -0.16163567682E+04  0.18502150404E+04  0.15294330000E+03 0.  0.
    8880022    1    1    2    0    0  0.66696241994E+03  0.58519737781E+03 -0.22130487225E+03  0.92717977766E+03  0.15294330000E+03 0.  0.
<mgrwt>
<rscale>  0 0.90038130E+03</rscale>
<asrwt>0</asrwt>
<pdfrwt beam="1">  1        1 0.72287169E-01 0.90038130E+03</pdfrwt>
<pdfrwt beam="2">  1       -1 0.35500434E+00 0.90038130E+03</pdfrwt>
<totfact> 0.72063022E-01</totfact>
</mgrwt>
</event>
<event>
 4    1  0.1852677E-008  0.8674159E+03  0.7818608E-02  0.9467256E-01
         -1   -1    0    0    0  501 -0.00000000000E+00  0.00000000000E+00  0.62729302607E+03  0.62729302609E+03  0.50400000000E-02 0.  1.
          1   -1    0    0  501    0  0.00000000000E+00 -0.00000000000E+00 -0.12676876883E+04  0.12676876883E+04  0.50400000000E-02 0. -1.
    8880022    1    1    2    0    0  0.82277362300E+03 -0.22817139605E+03 -0.10037982300E+03  0.87320466247E+03  0.15294330000E+03 0.  0.
    8880022    1    1    2    0    0 -0.82277362300E+03  0.22817139605E+03 -0.54001483922E+03  0.10217760519E+04  0.15294330000E+03 0.  0.
<mgrwt>
<rscale>  0 0.86741586E+03</rscale>
<asrwt>0</asrwt>
<pdfrwt beam="1">  1        1 0.19502887E+00 0.86741586E+03</pdfrwt>
<pdfrwt beam="2">  1       -1 0.96506620E-01 0.86741586E+03</pdfrwt>
<totfact> 0.10050709E+01</totfact>
</mgrwt>
</event>
<event>
 4    1  0.1852677E-008  0.1341642E+04  0.7818608E-02  0.8997179E-01
         -1   -1    0    0    0  501 -0.00000000000E+00  0.00000000000E+00  0.16777193755E+04  0.16777193755E+04  0.50400000000E-02 0.  1.
          1   -1    0    0  501    0  0.00000000000E+00 -0.00000000000E+00 -0.20682746390E+04  0.20682746390E+04  0.50400000000E-02 0. -1.
    8880022    1    1    2    0    0  0.27412020703E+03  0.13044041874E+04 -0.14946362593E+04  0.20084674189E+04  0.15294330000E+03 0.  0.
    8880022    1    1    2    0    0 -0.27412020703E+03 -0.13044041874E+04  0.11040809958E+04  0.17375265956E+04  0.15294330000E+03 0.  0.
<mgrwt>
<rscale>  0 0.13416422E+04</rscale>
<asrwt>0</asrwt>
<pdfrwt beam="1">  1        1 0.31819610E+00 0.13416422E+04</pdfrwt>
<pdfrwt beam="2">  1       -1 0.25811067E+00 0.13416422E+04</pdfrwt>
<totfact> 0.15922109E-01</totfact>
</mgrwt>
</event>
<event>
 4    1  0.1852677E-008  0.2424935E+03  0.7818608E-02  0.1118143E+00
         -1   -1    0    0    0  501 -0.00000000000E+00  0.00000000000E+00  0.77701146671E+02  0.77701146835E+02  0.50400000000E-02 0.  1.
          1   -1    0    0  501    0  0.00000000000E+00 -0.00000000000E+00 -0.21700705679E+04  0.21700705679E+04  0.50400000000E-02 0. -1.
    8880022    1    1    2    0    0  0.15748598646E+03 -0.10300305479E+03 -0.13919965896E+03  0.27960626476E+03  0.15294330000E+03 0.  1.
    8880022    1    1    2    0    0 -0.15748598646E+03  0.10300305479E+03 -0.19531697622E+04  0.19681654499E+04  0.15294330000E+03 0.  0.
<mgrwt>
<rscale>  0 0.24249354E+03</rscale>
<asrwt>0</asrwt>
<pdfrwt beam="1">  1        1 0.33385696E+00 0.24249354E+03</pdfrwt>
<pdfrwt beam="2">  1       -1 0.11954024E-01 0.24249354E+03</pdfrwt>
<totfact> 0.12191528E+02</totfact>
</mgrwt>
</event>
<event>
 4    1  0.1852677E-008  0.3575672E+03  0.7818608E-02  0.1059551E+00
         -1   -1    0    0    0  501 -0.00000000000E+00  0.00000000000E+00  0.37435036960E+03  0.37435036964E+03  0.50400000000E-02 0.  1.
          1   -1    0    0  501    0  0.00000000000E+00 -0.00000000000E+00 -0.97728712769E+03  0.97728712770E+03  0.50400000000E-02 0. -1.
    8880022    1    1    2    0    0 -0.23975652540E+03 -0.21674738664E+03 -0.84655131035E+03  0.91896865841E+03  0.15294330000E+03 0.  0.
    8880022    1    1    2    0    0  0.23975652540E+03  0.21674738664E+03  0.24361455226E+03  0.43266883892E+03  0.15294330000E+03 0.  0.
<mgrwt>
<rscale>  0 0.35756716E+03</rscale>
<asrwt>0</asrwt>
<pdfrwt beam="1">  1        1 0.15035187E+00 0.35756716E+03</pdfrwt>
<pdfrwt beam="2">  1       -1 0.57592365E-01 0.35756716E+03</pdfrwt>
<totfact> 0.52071002E+01</totfact>
</mgrwt>
</event>
<event>
 4    1  0.1852677E-008  0.2003603E+03  0.7818608E-02  0.1149435E+00
          1   -1    0    0  501    0  0.00000000000E+00  0.00000000000E+00  0.40433970626E+03  0.40433970629E+03  0.50400000000E-02 0. -1.
         -1   -1    0    0    0  501 -0.00000000000E+00 -0.00000000000E+00 -0.33327462447E+03  0.33327462450E+03  0.50400000000E-02 0.  1.
    8880022    1    1    2    0    0  0.64617906387E+02 -0.11214781578E+03  0.34456060602E+03  0.39858031894E+03  0.15294330000E+03 0. -1.
    8880022    1    1    2    0    0 -0.64617906387E+02  0.11214781578E+03 -0.27349552422E+03  0.33903401186E+03  0.15294330000E+03 0.  0.
<mgrwt>
<rscale>  0 0.20036032E+03</rscale>
<asrwt>0</asrwt>
<pdfrwt beam="1">  1        1 0.62206108E-01 0.20036032E+03</pdfrwt>
<pdfrwt beam="2">  1       -1 0.51273019E-01 0.20036032E+03</pdfrwt>
<totfact> 0.23813980E+02</totfact>
</mgrwt>
</event>
<event>
 4    1  0.1852677E-008  0.5133860E+03  0.7818608E-02  0.1010343E+00
          1   -1    0    0  501    0  0.00000000000E+00  0.00000000000E+00  0.80554033064E+03  0.80554033065E+03  0.50400000000E-02 0. -1.
         -1   -1    0    0    0  501 -0.00000000000E+00 -0.00000000000E+00 -0.39809822605E+03  0.39809822608E+03  0.50400000000E-02 0.  1.
    8880022    1    1    2    0    0 -0.36537186098E+03 -0.32661434594E+03 -0.50269529000E+02  0.51584126079E+03  0.15294330000E+03 0.  0.
    8880022    1    1    2    0    0  0.36537186098E+03  0.32661434594E+03  0.45771163359E+03  0.68779729594E+03  0.15294330000E+03 0.  0.
<mgrwt>
<rscale>  0 0.51338600E+03</rscale>
<asrwt>0</asrwt>
<pdfrwt beam="1">  1        1 0.12392928E+00 0.51338600E+03</pdfrwt>
<pdfrwt beam="2">  1       -1 0.61245882E-01 0.51338600E+03</pdfrwt>
<totfact> 0.61941759E+01</totfact>
</mgrwt>
</event>
<event>
 4    1  0.1852677E-008  0.1660283E+03  0.7818608E-02  0.1182054E+00
         -1   -1    0    0    0  501 -0.00000000000E+00  0.00000000000E+00  0.42883729716E+03  0.42883729719E+03  0.50400000000E-02 0.  1.
          1   -1    0    0  501    0  0.00000000000E+00 -0.00000000000E+00 -0.56770098949E+03  0.56770098952E+03  0.50400000000E-02 0. -1.
    8880022    1    1    2    0    0  0.28787644532E+02 -0.57835986820E+02 -0.53864492299E+03  0.56365214088E+03  0.15294330000E+03 0.  0.
    8880022    1    1    2    0    0 -0.28787644532E+02  0.57835986820E+02  0.39978123066E+03  0.43288614583E+03  0.15294330000E+03 0.  1.
<mgrwt>
<rscale>  0 0.16602826E+03</rscale>
<asrwt>0</asrwt>
<pdfrwt beam="1">  1        1 0.87338614E-01 0.16602826E+03</pdfrwt>
<pdfrwt beam="2">  1       -1 0.65974969E-01 0.16602826E+03</pdfrwt>
<totfact> 0.95249226E+01</totfact>
</mgrwt>
</event>
<event>
 4    1  0.1852677E-008  0.1993357E+03  0.7818608E-02  0.1150301E+00
          1   -1    0    0  501    0  0.00000000000E+00  0.00000000000E+00  0.88802921385E+03  0.88802921386E+03  0.50400000000E-02 0. -1.
         -1   -1    0    0    0  501 -0.00000000000E+00 -0.00000000000E+00 -0.83077313391E+02  0.83077313544E+02  0.50400000000E-02 0.  1.
    8880022    1    1    2    0    0 -0.12317993868E+03 -0.34201993192E+02  0.72654370395E+02  0.21216357884E+03  0.15294330000E+03 0.  1.
    8880022    1    1    2    0    0  0.12317993868E+03  0.34201993192E+02  0.73229753006E+03  0.75894294857E+03  0.15294330000E+03 0.  0.
<mgrwt>
<rscale>  0 0.19933571E+03</rscale>
<asrwt>0</asrwt>
<pdfrwt beam="1">  1        1 0.13661988E+00 0.19933571E+03</pdfrwt>
<pdfrwt beam="2">  1       -1 0.12781125E-01 0.19933571E+03</pdfrwt>
<totfact> 0.81410846E+02</totfact>
</mgrwt>
</event>
<event>
 4    1  0.1852677E-008  0.3618566E+03  0.7818608E-02  0.1057851E+00
          1   -1    0    0  501    0  0.00000000000E+00  0.00000000000E+00  0.16321524347E+04  0.16321524348E+04  0.50400000000E-02 0. -1.
         -1   -1    0    0    0  501 -0.00000000000E+00 -0.00000000000E+00 -0.62283373364E+03  0.62283373366E+03  0.50400000000E-02 0.  1.
    8880022    1    1    2    0    0 -0.32575900592E+03  0.37810135005E+02  0.15570355727E+04  0.15985305639E+04  0.15294330000E+03 0.  0.
    8880022    1    1    2    0    0  0.32575900592E+03 -0.37810135005E+02 -0.54771687156E+03  0.65645560448E+03  0.15294330000E+03 0.  0.
<mgrwt>
<rscale>  0 0.36185659E+03</rscale>
<asrwt>0</asrwt>
<pdfrwt beam="1">  1        1 0.25110038E+00 0.36185659E+03</pdfrwt>
<pdfrwt beam="2">  1       -1 0.95820573E-01 0.36185659E+03</pdfrwt>
<totfact> 0.63725693E+00</totfact>
</mgrwt>
</event>
<event>
 4    1  0.1852677E-008  0.2357787E+03  0.7818608E-02  0.1122637E+00
          1   -1    0    0  501    0  0.00000000000E+00  0.00000000000E+00  0.10129627938E+04  0.10129627938E+04  0.50400000000E-02 0. -1.
         -1   -1    0    0    0  501 -0.00000000000E+00 -0.00000000000E+00 -0.11629396548E+04  0.11629396548E+04  0.50400000000E-02 0.  1.
    8880022    1    1    2    0    0  0.72126102211E+02  0.16430995235E+03 -0.11369587274E+04  0.11611488861E+04  0.15294330000E+03 0.  0.
    8880022    1    1    2    0    0 -0.72126102211E+02 -0.16430995235E+03  0.98698186635E+03  0.10147535625E+04  0.15294330000E+03 0. -1.
<mgrwt>
<rscale>  0 0.23577868E+03</rscale>
<asrwt>0</asrwt>
<pdfrwt beam="1">  1        1 0.15584043E+00 0.23577868E+03</pdfrwt>
<pdfrwt beam="2">  1       -1 0.17891379E+00 0.23577868E+03</pdfrwt>
<totfact> 0.37843889E+00</totfact>
</mgrwt>
</event>
<event>
 4    1  0.1852677E-008  0.4321432E+03  0.7818608E-02  0.1033185E+00
         -1   -1    0    0    0  501 -0.00000000000E+00  0.00000000000E+00  0.46609585650E+03  0.46609585653E+03  0.50400000000E-02 0.  1.
          1   -1    0    0  501    0  0.00000000000E+00 -0.00000000000E+00 -0.87822423092E+03  0.87822423093E+03  0.50400000000E-02 0. -1.
    8880022    1    1    2    0    0 -0.38213949200E+03 -0.13162643533E+03  0.28959610349E+03  0.52020540750E+03  0.15294330000E+03 0.  0.
    8880022    1    1    2    0    0  0.38213949200E+03  0.13162643533E+03 -0.70172447790E+03  0.82411467996E+03  0.15294330000E+03 0.  0.
<mgrwt>
<rscale>  0 0.43214322E+03</rscale>
<asrwt>0</asrwt>
<pdfrwt beam="1">  1        1 0.13511142E+00 0.43214322E+03</pdfrwt>
<pdfrwt beam="2">  1       -1 0.71707055E-01 0.43214322E+03</pdfrwt>
<totfact> 0.39804692E+01</totfact>
</mgrwt>
</event>
<event>
 4    1  0.1852677E-008  0.6315162E+03  0.7818608E-02  0.9842094E-01
          1   -1    0    0  501    0  0.00000000000E+00  0.00000000000E+00  0.13051279094E+04  0.13051279094E+04  0.50400000000E-02 0. -1.
         -1   -1    0    0    0  501 -0.00000000000E+00 -0.00000000000E+00 -0.35115642459E+03  0.35115642462E+03  0.50400000000E-02 0.  1.
    8880022    1    1    2    0    0 -0.61093864440E+03 -0.46637408706E+02  0.17861594361E+03  0.65628986236E+03  0.15294330000E+03 0.  0.
    8880022    1    1    2    0    0  0.61093864440E+03  0.46637408706E+02  0.77535554123E+03  0.99999447170E+03  0.15294330000E+03 0.  0.
<mgrwt>
<rscale>  0 0.63151621E+03</rscale>
<asrwt>0</asrwt>
<pdfrwt beam="1">  1        1 0.20078891E+00 0.63151621E+03</pdfrwt>
<pdfrwt beam="2">  1       -1 0.54024065E-01 0.63151621E+03</pdfrwt>
<totfact> 0.32425762E+01</totfact>
</mgrwt>
</event>
<event>
 4    1  0.1852677E-008  0.6233465E+03  0.7818608E-02  0.9858119E-01
         -1   -1    0    0    0  501 -0.00000000000E+00  0.00000000000E+00  0.33251989208E+03  0.33251989211E+03  0.50400000000E-02 0.  1.
          1   -1    0    0  501    0  0.00000000000E+00 -0.00000000000E+00 -0.13436505439E+04  0.13436505439E+04  0.50400000000E-02 0. -1.
    8880022    1    1    2    0    0 -0.22762856187E+03  0.55978074209E+03 -0.20300759826E+03  0.65557072796E+03  0.15294330000E+03 0.  0.
    8880022    1    1    2    0    0  0.22762856187E+03 -0.55978074209E+03 -0.80812305358E+03  0.10205997081E+04  0.15294330000E+03 0.  0.
<mgrwt>
<rscale>  0 0.62334653E+03</rscale>
<asrwt>0</asrwt>
<pdfrwt beam="1">  1        1 0.20671547E+00 0.62334653E+03</pdfrwt>
<pdfrwt beam="2">  1       -1 0.51156907E-01 0.62334653E+03</pdfrwt>
<totfact> 0.33851446E+01</totfact>
</mgrwt>
</event>
<event>
 4    1  0.1852677E-008  0.1877107E+03  0.7818608E-02  0.1160542E+00
          1   -1    0    0  501    0  0.00000000000E+00  0.00000000000E+00  0.43243883934E+03  0.43243883937E+03  0.50400000000E-02 0. -1.
         -1   -1    0    0    0  501 -0.00000000000E+00 -0.00000000000E+00 -0.11283765878E+04  0.11283765878E+04  0.50400000000E-02 0.  1.
    8880022    1    1    2    0    0 -0.17754493727E+02 -0.10737051319E+03  0.40373419449E+03  0.44523769153E+03  0.15294330000E+03 0. -1.
    8880022    1    1    2    0    0  0.17754493727E+02  0.10737051319E+03 -0.10996719430E+04  0.11155777357E+04  0.15294330000E+03 0.  0.
<mgrwt>
<rscale>  0 0.18771069E+03</rscale>
<asrwt>0</asrwt>
<pdfrwt beam="1">  1        1 0.66529053E-01 0.18771069E+03</pdfrwt>
<pdfrwt beam="2">  1       -1 0.17359640E+00 0.18771069E+03</pdfrwt>
<totfact> 0.14565270E+01</totfact>
</mgrwt>
</event>
<event>
 4    1  0.1852677E-008  0.2674545E+03  0.7818608E-02  0.1102745E+00
         -1   -1    0    0    0  501 -0.00000000000E+00  0.00000000000E+00  0.54945642031E+03  0.54945642033E+03  0.50400000000E-02 0.  1.
          1   -1    0    0  501    0  0.00000000000E+00 -0.00000000000E+00 -0.76778178960E+03  0.76778178961E+03  0.50400000000E-02 0. -1.
    8880022    1    1    2    0    0 -0.19082200512E+03 -0.10829228030E+03 -0.70935151460E+03  0.75809727601E+03  0.15294330000E+03 0. -1.
    8880022    1    1    2    0    0  0.19082200512E+03  0.10829228030E+03  0.49102614531E+03  0.55914093393E+03  0.15294330000E+03 0.  0.
<mgrwt>
<rscale>  0 0.26745450E+03</rscale>
<asrwt>0</asrwt>
<pdfrwt beam="1">  1        1 0.11812028E+00 0.26745450E+03</pdfrwt>
<pdfrwt beam="2">  1       -1 0.84531757E-01 0.26745450E+03</pdfrwt>
<totfact> 0.36297463E+01</totfact>
</mgrwt>
</event>
<event>
 4    1  0.1852677E-008  0.6953402E+03  0.7818608E-02  0.9725234E-01
         -1   -1    0    0    0  501 -0.00000000000E+00  0.00000000000E+00  0.41450591932E+03  0.41450591935E+03  0.50400000000E-02 0.  1.
          1   -1    0    0  501    0  0.00000000000E+00 -0.00000000000E+00 -0.13747838737E+04  0.13747838737E+04  0.50400000000E-02 0. -1.
    8880022    1    1    2    0    0  0.49462505625E+03  0.46416852154E+03 -0.82841172206E+03  0.10815562847E+04  0.15294330000E+03 0.  0.
    8880022    1    1    2    0    0 -0.49462505625E+03 -0.46416852154E+03 -0.13186623232E+03  0.70773350839E+03  0.15294330000E+03 0.  0.
<mgrwt>
<rscale>  0 0.69534022E+03</rscale>
<asrwt>0</asrwt>
<pdfrwt beam="1">  1        1 0.21150521E+00 0.69534022E+03</pdfrwt>
<pdfrwt beam="2">  1       -1 0.63770142E-01 0.69534022E+03</pdfrwt>
<totfact> 0.20768350E+01</totfact>
</mgrwt>
</event>
<event>
 4    1  0.1852677E-008  0.9836858E+03  0.7818608E-02  0.9326621E-01
          1   -1    0    0  501    0  0.00000000000E+00  0.00000000000E+00  0.21264343893E+04  0.21264343893E+04  0.50400000000E-02 0. -1.
         -1   -1    0    0    0  501 -0.00000000000E+00 -0.00000000000E+00 -0.57815449763E+03  0.57815449765E+03  0.50400000000E-02 0.  1.
    8880022    1    1    2    0    0  0.56461999868E+03  0.79085418282E+03  0.15014202045E+03  0.99507806765E+03  0.15294330000E+03 0.  0.
    8880022    1    1    2    0    0 -0.56461999868E+03 -0.79085418282E+03  0.13981378712E+04  0.17095108193E+04  0.15294330000E+03 0.  0.
<mgrwt>
<rscale>  0 0.98368579E+03</rscale>
<asrwt>0</asrwt>
<pdfrwt beam="1">  1        1 0.32714375E+00 0.98368579E+03</pdfrwt>
<pdfrwt beam="2">  1       -1 0.88946845E-01 0.98368579E+03</pdfrwt>
<totfact> 0.30776455E+00</totfact>
</mgrwt>
</event>
<event>
 4    1  0.1852677E-008  0.2813198E+03  0.7818608E-02  0.1094970E+00
          1   -1    0    0  501    0  0.00000000000E+00  0.00000000000E+00  0.11276970287E+04  0.11276970287E+04  0.50400000000E-02 0. -1.
         -1   -1    0    0    0  501 -0.00000000000E+00 -0.00000000000E+00 -0.64534752482E+03  0.64534752484E+03  0.50400000000E-02 0.  1.
    8880022    1    1    2    0    0  0.82695245652E+02  0.22115760596E+03 -0.59575753057E+03  0.65883827953E+03  0.15294330000E+03 0.  0.
    8880022    1    1    2    0    0 -0.82695245652E+02 -0.22115760596E+03  0.10781070344E+04  0.11142062740E+04  0.15294330000E+03 0. -1.
<mgrwt>
<rscale>  0 0.28131982E+03</rscale>
<asrwt>0</asrwt>
<pdfrwt beam="1">  1        1 0.17349185E+00 0.28131982E+03</pdfrwt>
<pdfrwt beam="2">  1       -1 0.99284235E-01 0.28131982E+03</pdfrwt>
<totfact> 0.13404591E+01</totfact>
</mgrwt>
</event>
<event>
 4    1  0.1852677E-008  0.2827733E+03  0.7818608E-02  0.1094184E+00
         -1   -1    0    0    0  501 -0.00000000000E+00  0.00000000000E+00  0.50139906541E+03  0.50139906543E+03  0.50400000000E-02 0.  1.
          1   -1    0    0  501    0  0.00000000000E+00 -0.00000000000E+00 -0.16084746342E+04  0.16084746342E+04  0.50400000000E-02 0. -1.
    8880022    1    1    2    0    0 -0.20024641819E+03 -0.12833721669E+03  0.44773741860E+03  0.52955596325E+03  0.15294330000E+03 0.  0.
    8880022    1    1    2    0    0  0.20024641819E+03  0.12833721669E+03 -0.15548129874E+04  0.15803177364E+04  0.15294330000E+03 0.  0.
<mgrwt>
<rscale>  0 0.28277327E+03</rscale>
<asrwt>0</asrwt>
<pdfrwt beam="1">  1        1 0.24745763E+00 0.28277327E+03</pdfrwt>
<pdfrwt beam="2">  1       -1 0.77138319E-01 0.28277327E+03</pdfrwt>
<totfact> 0.10821737E+01</totfact>
</mgrwt>
</event>
<event>
 4    1  0.1852677E-008  0.2538251E+03  0.7818608E-02  0.1110911E+00
         -1   -1    0    0    0  501 -0.00000000000E+00  0.00000000000E+00  0.61928900173E+03  0.61928900175E+03  0.50400000000E-02 0.  1.
          1   -1    0    0  501    0  0.00000000000E+00 -0.00000000000E+00 -0.87529060220E+03  0.87529060221E+03  0.50400000000E-02 0. -1.
    8880022    1    1    2    0    0 -0.16957190104E+03 -0.11081920953E+03 -0.82947602901E+03  0.86744317540E+03  0.15294330000E+03 0. -1.
    8880022    1    1    2    0    0  0.16957190104E+03  0.11081920953E+03  0.57347442855E+03  0.62713642857E+03  0.15294330000E+03 0.  0.
<mgrwt>
<rscale>  0 0.25382510E+03</rscale>
<asrwt>0</asrwt>
<pdfrwt beam="1">  1        1 0.13466009E+00 0.25382510E+03</pdfrwt>
<pdfrwt beam="2">  1       -1 0.95275231E-01 0.25382510E+03</pdfrwt>
<totfact> 0.22969286E+01</totfact>
</mgrwt>
</event>
<event>
 4    1  0.1936899E-008  0.5095176E+03  0.7818608E-02  0.1011324E+00
          1   -1    0    0  501    0  0.00000000000E+00  0.00000000000E+00  0.13605218757E+04  0.13605218757E+04  0.50400000000E-02 0. -1.
         -1   -1    0    0    0  501 -0.00000000000E+00 -0.00000000000E+00 -0.16078942557E+04  0.16078942557E+04  0.50400000000E-02 0.  1.
    8880022    1    1    2    0    0  0.48529917658E+03 -0.26480865038E+02 -0.15170454028E+04  0.16003233842E+04  0.15294330000E+03 0.  0.
    8880022    1    1    2    0    0 -0.48529917658E+03  0.26480865038E+02  0.12696730228E+04  0.13680927472E+04  0.15294330000E+03 0.  0.
<mgrwt>
<rscale>  0 0.50951760E+03</rscale>
<asrwt>0</asrwt>
<pdfrwt beam="1">  1        1 0.20931106E+00 0.50951760E+03</pdfrwt>
<pdfrwt beam="2">  1       -1 0.24736835E+00 0.50951760E+03</pdfrwt>
<totfact> 0.67040054E-01</totfact>
</mgrwt>
</event>
<event>
 4    1  0.1852677E-008  0.5073323E+03  0.7818608E-02  0.1011883E+00
         -1   -1    0    0    0  501 -0.00000000000E+00  0.00000000000E+00  0.33445820184E+03  0.33445820188E+03  0.50400000000E-02 0.  1.
          1   -1    0    0  501    0  0.00000000000E+00 -0.00000000000E+00 -0.27459148964E+04  0.27459148964E+04  0.50400000000E-02 0. -1.
    8880022    1    1    2    0    0 -0.26050719342E+03 -0.40759103796E+03 -0.25123868790E+04  0.25630985028E+04  0.15294330000E+03 0.  0.
    8880022    1    1    2    0    0  0.26050719342E+03  0.40759103796E+03  0.10093018443E+03  0.51727459554E+03  0.15294330000E+03 0.  0.
<mgrwt>
<rscale>  0 0.50733234E+03</rscale>
<asrwt>0</asrwt>
<pdfrwt beam="1">  1        1 0.42244843E+00 0.50733234E+03</pdfrwt>
<pdfrwt beam="2">  1       -1 0.51455110E-01 0.50733234E+03</pdfrwt>
<totfact> 0.39007729E+00</totfact>
</mgrwt>
</event>
<event>
 4    1  0.1852677E-008  0.6564939E+03  0.7818608E-02  0.9794670E-01
          1   -1    0    0  501    0  0.00000000000E+00  0.00000000000E+00  0.57419134325E+03  0.57419134327E+03  0.50400000000E-02 0. -1.
         -1   -1    0    0    0  501 -0.00000000000E+00 -0.00000000000E+00 -0.10343383786E+04  0.10343383786E+04  0.50400000000E-02 0.  1.
    8880022    1    1    2    0    0  0.18041230040E+03  0.61240830544E+03  0.19116874048E+03  0.68376141384E+03  0.15294330000E+03 0.  0.
    8880022    1    1    2    0    0 -0.18041230040E+03 -0.61240830544E+03 -0.65131577584E+03  0.92476830805E+03  0.15294330000E+03 0.  0.
<mgrwt>
<rscale>  0 0.65649386E+03</rscale>
<asrwt>0</asrwt>
<pdfrwt beam="1">  1        1 0.88337130E-01 0.65649386E+03</pdfrwt>
<pdfrwt beam="2">  1       -1 0.15912898E+00 0.65649386E+03</pdfrwt>
<totfact> 0.11288383E+01</totfact>
</mgrwt>
</event>
<event>
 4    1  0.1852677E-008  0.5942070E+03  0.7818608E-02  0.9917498E-01
         -1   -1    0    0    0  501 -0.00000000000E+00  0.00000000000E+00  0.14137082313E+04  0.14137082314E+04  0.50400000000E-02 0.  1.
          1   -1    0    0  501    0  0.00000000000E+00 -0.00000000000E+00 -0.91308806005E+03  0.91308806007E+03  0.50400000000E-02 0. -1.
    8880022    1    1    2    0    0 -0.43993629998E+03  0.36898009956E+03  0.12419124994E+04  0.13767456450E+04  0.15294330000E+03 0.  1.
    8880022    1    1    2    0    0  0.43993629998E+03 -0.36898009956E+03 -0.74129232814E+03  0.95005064637E+03  0.15294330000E+03 0.  0.
<mgrwt>
<rscale>  0 0.59420696E+03</rscale>
<asrwt>0</asrwt>
<pdfrwt beam="1">  1        1 0.14047509E+00 0.59420696E+03</pdfrwt>
<pdfrwt beam="2">  1       -1 0.21749357E+00 0.59420696E+03</pdfrwt>
<totfact> 0.21866792E+00</totfact>
</mgrwt>
</event>
<event>
 4    1  0.1852677E-008  0.7774496E+03  0.7818608E-02  0.9593244E-01
          1   -1    0    0  501    0  0.00000000000E+00  0.00000000000E+00  0.91947392621E+03  0.91947392623E+03  0.50400000000E-02 0. -1.
         -1   -1    0    0    0  501 -0.00000000000E+00 -0.00000000000E+00 -0.99070954737E+03  0.99070954739E+03  0.50400000000E-02 0.  1.
    8880022    1    1    2    0    0  0.10462219563E+03  0.75504336984E+03 -0.58963090519E+03  0.97575230029E+03  0.15294330000E+03 0.  0.
    8880022    1    1    2    0    0 -0.10462219563E+03 -0.75504336984E+03  0.51839528403E+03  0.93443117332E+03  0.15294330000E+03 0.  0.
<mgrwt>
<rscale>  0 0.77744964E+03</rscale>
<asrwt>0</asrwt>
<pdfrwt beam="1">  1        1 0.14145753E+00 0.77744964E+03</pdfrwt>
<pdfrwt beam="2">  1       -1 0.15241685E+00 0.77744964E+03</pdfrwt>
<totfact> 0.60411482E+00</totfact>
</mgrwt>
</event>
<event>
 4    1  0.1852677E-008  0.8606935E+03  0.7818608E-02  0.9476096E-01
         -1   -1    0    0    0  501 -0.00000000000E+00  0.00000000000E+00  0.86185729486E+03  0.86185729487E+03  0.50400000000E-02 0.  1.
          1   -1    0    0  501    0  0.00000000000E+00 -0.00000000000E+00 -0.18459824719E+04  0.18459824719E+04  0.50400000000E-02 0. -1.
    8880022    1    1    2    0    0  0.79993877613E+03 -0.27838757361E+03  0.49766795170E+03  0.99421664131E+03  0.15294330000E+03 0.  0.
    8880022    1    1    2    0    0 -0.79993877613E+03  0.27838757361E+03 -0.14817931287E+04  0.17136231254E+04  0.15294330000E+03 0.  0.
<mgrwt>
<rscale>  0 0.86069352E+03</rscale>
<asrwt>0</asrwt>
<pdfrwt beam="1">  1        1 0.28399730E+00 0.86069352E+03</pdfrwt>
<pdfrwt beam="2">  1       -1 0.13259343E+00 0.86069352E+03</pdfrwt>
<totfact> 0.18855652E+00</totfact>
</mgrwt>
</event>
<event>
 4    1  0.1852677E-008  0.2068458E+03  0.7818608E-02  0.1144088E+00
          1   -1    0    0  501    0  0.00000000000E+00  0.00000000000E+00  0.28552461143E+03  0.28552461148E+03  0.50400000000E-02 0. -1.
         -1   -1    0    0    0  501 -0.00000000000E+00 -0.00000000000E+00 -0.34902441266E+03  0.34902441269E+03  0.50400000000E-02 0.  1.
    8880022    1    1    2    0    0 -0.50338886904E+02 -0.12984420170E+03  0.20792728081E+03  0.29328983510E+03  0.15294330000E+03 0.  0.
    8880022    1    1    2    0    0  0.50338886904E+02  0.12984420170E+03 -0.27142708204E+03  0.34125918907E+03  0.15294330000E+03 0.  1.
<mgrwt>
<rscale>  0 0.20684577E+03</rscale>
<asrwt>0</asrwt>
<pdfrwt beam="1">  1        1 0.43926863E-01 0.20684577E+03</pdfrwt>
<pdfrwt beam="2">  1       -1 0.53696063E-01 0.20684577E+03</pdfrwt>
<totfact> 0.33883531E+02</totfact>
</mgrwt>
</event>
<event>
 4    1  0.1852677E-008  0.4506616E+03  0.7818608E-02  0.1027525E+00
         -1   -1    0    0    0  501 -0.00000000000E+00  0.00000000000E+00  0.81100279008E+03  0.81100279009E+03  0.50400000000E-02 0.  1.
          1   -1    0    0  501    0  0.00000000000E+00 -0.00000000000E+00 -0.77828923788E+03  0.77828923789E+03  0.50400000000E-02 0. -1.
    8880022    1    1    2    0    0 -0.42391434302E+03  0.92770689104E+00 -0.63807451713E+03  0.78117537934E+03  0.15294330000E+03 0.  0.
    8880022    1    1    2    0    0  0.42391434302E+03 -0.92770689104E+00  0.67078806933E+03  0.80811664865E+03  0.15294330000E+03 0.  0.
<mgrwt>
<rscale>  0 0.45066161E+03</rscale>
<asrwt>0</asrwt>
<pdfrwt beam="1">  1        1 0.11973681E+00 0.45066161E+03</pdfrwt>
<pdfrwt beam="2">  1       -1 0.12476966E+00 0.45066161E+03</pdfrwt>
<totfact> 0.14032459E+01</totfact>
</mgrwt>
</event>
<event>
 4    1  0.1852677E-008  0.3696987E+03  0.7818608E-02  0.1054808E+00
          1   -1    0    0  501    0  0.00000000000E+00  0.00000000000E+00  0.17671784677E+04  0.17671784677E+04  0.50400000000E-02 0. -1.
         -1   -1    0    0    0  501 -0.00000000000E+00 -0.00000000000E+00 -0.60212951003E+03  0.60212951006E+03  0.50400000000E-02 0.  1.
    8880022    1    1    2    0    0  0.23666824340E+03  0.23931905626E+03 -0.52343269272E+03  0.64082673551E+03  0.15294330000E+03 0.  0.
    8880022    1    1    2    0    0 -0.23666824340E+03 -0.23931905626E+03  0.16884816504E+04  0.17284812423E+04  0.15294330000E+03 0.  0.
<mgrwt>
<rscale>  0 0.36969869E+03</rscale>
<asrwt>0</asrwt>
<pdfrwt beam="1">  1        1 0.27187361E+00 0.36969869E+03</pdfrwt>
<pdfrwt beam="2">  1       -1 0.92635309E-01 0.36969869E+03</pdfrwt>
<totfact> 0.55763972E+00</totfact>
</mgrwt>
</event>
<event>
 4    1  0.1852677E-008  0.3738919E+03  0.7818608E-02  0.1053215E+00
          1   -1    0    0  501    0  0.00000000000E+00  0.00000000000E+00  0.70485459976E+03  0.70485459977E+03  0.50400000000E-02 0. -1.
         -1   -1    0    0    0  501 -0.00000000000E+00 -0.00000000000E+00 -0.22589087307E+03  0.22589087312E+03  0.50400000000E-02 0.  1.
    8880022    1    1    2    0    0 -0.19346453070E+03 -0.28102492233E+03  0.40203028078E+03  0.54902051992E+03  0.15294330000E+03 0.  0.
    8880022    1    1    2    0    0  0.19346453070E+03  0.28102492233E+03  0.76933445915E+02  0.38172495298E+03  0.15294330000E+03 0.  0.
<mgrwt>
<rscale>  0 0.37389194E+03</rscale>
<asrwt>0</asrwt>
<pdfrwt beam="1">  1        1 0.10843917E+00 0.37389194E+03</pdfrwt>
<pdfrwt beam="2">  1       -1 0.34752442E-01 0.37389194E+03</pdfrwt>
<totfact> 0.22046502E+02</totfact>
</mgrwt>
</event>
<event>
 4    1  0.1852677E-008  0.2950030E+03  0.7818608E-02  0.1087766E+00
          1   -1    0    0  501    0  0.00000000000E+00  0.00000000000E+00  0.45181264154E+04  0.45181264154E+04  0.50400000000E-02 0. -1.
         -1   -1    0    0    0  501 -0.00000000000E+00 -0.00000000000E+00 -0.15749221308E+03  0.15749221316E+03  0.50400000000E-02 0.  1.
    8880022    1    1    2    0    0  0.24147445648E+03 -0.72973946380E+02 -0.98714936564E+01  0.29516810361E+03  0.15294330000E+03 0.  0.
    8880022    1    1    2    0    0 -0.24147445648E+03  0.72973946380E+02  0.43705056960E+04  0.43804505249E+04  0.15294330000E+03 0.  0.
<mgrwt>
<rscale>  0 0.29500299E+03</rscale>
<asrwt>0</asrwt>
<pdfrwt beam="1">  1        1 0.69509646E+00 0.29500299E+03</pdfrwt>
<pdfrwt beam="2">  1       -1 0.24229568E-01 0.29500299E+03</pdfrwt>
<totfact> 0.61737099E-01</totfact>
</mgrwt>
</event>
<event>
 4    1  0.1852677E-008  0.8143626E+03  0.7818608E-02  0.9539457E-01
         -1   -1    0    0    0  501 -0.00000000000E+00  0.00000000000E+00  0.51310816511E+03  0.51310816514E+03  0.50400000000E-02 0.  1.
          1   -1    0    0  501    0  0.00000000000E+00 -0.00000000000E+00 -0.21839153050E+04  0.21839153050E+04  0.50400000000E-02 0. -1.
    8880022    1    1    2    0    0 -0.79502483922E+03  0.87921858179E+02  0.26144828580E+02  0.81478215076E+03  0.15294330000E+03 0.  0.
    8880022    1    1    2    0    0  0.79502483922E+03 -0.87921858179E+02 -0.16969519685E+04  0.18822413194E+04  0.15294330000E+03 0.  0.
<mgrwt>
<rscale>  0 0.81436257E+03</rscale>
<asrwt>0</asrwt>
<pdfrwt beam="1">  1        1 0.33598697E+00 0.81436257E+03</pdfrwt>
<pdfrwt beam="2">  1       -1 0.78939719E-01 0.81436257E+03</pdfrwt>
<totfact> 0.37389028E+00</totfact>
</mgrwt>
</event>
<event>
 4    1  0.1852677E-008  0.8251538E+03  0.7818608E-02  0.9524305E-01
         -1   -1    0    0    0  501 -0.00000000000E+00  0.00000000000E+00  0.24328240681E+04  0.24328240681E+04  0.50400000000E-02 0.  1.
          1   -1    0    0  501    0  0.00000000000E+00 -0.00000000000E+00 -0.39104365596E+03  0.39104365599E+03  0.50400000000E-02 0. -1.
    8880022    1    1    2    0    0  0.64940598834E+03  0.48555017750E+03  0.17737242122E+04  0.19562659192E+04  0.15294330000E+03 0.  0.
    8880022    1    1    2    0    0 -0.64940598834E+03 -0.48555017750E+03  0.26805619993E+03  0.86760180492E+03  0.15294330000E+03 0.  0.
<mgrwt>
<rscale>  0 0.82515378E+03</rscale>
<asrwt>0</asrwt>
<pdfrwt beam="1">  1        1 0.60160562E-01 0.82515378E+03</pdfrwt>
<pdfrwt beam="2">  1       -1 0.37428063E+00 0.82515378E+03</pdfrwt>
<totfact> 0.69588768E-01</totfact>
</mgrwt>
</event>
<event>
 4    1  0.1852677E-008  0.3731721E+03  0.7818608E-02  0.1053487E+00
          1   -1    0    0  501    0  0.00000000000E+00  0.00000000000E+00  0.50274441034E+03  0.50274441037E+03  0.50400000000E-02 0. -1.
         -1   -1    0    0    0  501 -0.00000000000E+00 -0.00000000000E+00 -0.34156183443E+03  0.34156183447E+03  0.50400000000E-02 0.  1.
    8880022    1    1    2    0    0 -0.12653065383E+02  0.34015532482E+03 -0.10295348607E+03  0.38711344380E+03  0.15294330000E+03 0.  0.
    8880022    1    1    2    0    0  0.12653065383E+02 -0.34015532482E+03  0.26413606198E+03  0.45719280103E+03  0.15294330000E+03 0.  0.
<mgrwt>
<rscale>  0 0.37317208E+03</rscale>
<asrwt>0</asrwt>
<pdfrwt beam="1">  1        1 0.77345293E-01 0.37317208E+03</pdfrwt>
<pdfrwt beam="2">  1       -1 0.52547975E-01 0.37317208E+03</pdfrwt>
<totfact> 0.16751034E+02</totfact>
</mgrwt>
</event>
<event>
 4    1  0.1852677E-008  0.8502555E+03  0.7818608E-02  0.9489994E-01
          1   -1    0    0  501    0  0.00000000000E+00  0.00000000000E+00  0.14770996077E+04  0.14770996077E+04  0.50400000000E-02 0. -1.
         -1   -1    0    0    0  501 -0.00000000000E+00 -0.00000000000E+00 -0.53411711764E+03  0.53411711767E+03  0.50400000000E-02 0.  1.
    8880022    1    1    2    0    0 -0.11277760225E+03 -0.82874842167E+03  0.18061387273E+03  0.86922710383E+03  0.15294330000E+03 0.  0.
    8880022    1    1    2    0    0  0.11277760225E+03  0.82874842167E+03  0.76236861728E+03  0.11419896215E+04  0.15294330000E+03 0.  0.
<mgrwt>
<rscale>  0 0.85025548E+03</rscale>
<asrwt>0</asrwt>
<pdfrwt beam="1">  1        1 0.22724609E+00 0.85025548E+03</pdfrwt>
<pdfrwt beam="2">  1       -1 0.82171864E-01 0.85025548E+03</pdfrwt>
<totfact> 0.10231424E+01</totfact>
</mgrwt>
</event>
<event>
 4    1  0.1852677E-008  0.3830003E+03  0.7818608E-02  0.1049830E+00
         -1   -1    0    0    0  501 -0.00000000000E+00  0.00000000000E+00  0.19291898578E+03  0.19291898585E+03  0.50400000000E-02 0.  1.
          1   -1    0    0  501    0  0.00000000000E+00 -0.00000000000E+00 -0.27384312544E+04  0.27384312544E+04  0.50400000000E-02 0. -1.
    8880022    1    1    2    0    0 -0.13673610633E+03 -0.32342054580E+03 -0.27074756686E+02  0.38395612729E+03  0.15294330000E+03 0.  1.
    8880022    1    1    2    0    0  0.13673610633E+03  0.32342054580E+03 -0.25184375119E+04  0.25473941129E+04  0.15294330000E+03 0.  0.
<mgrwt>
<rscale>  0 0.38300035E+03</rscale>
<asrwt>0</asrwt>
<pdfrwt beam="1">  1        1 0.42129709E+00 0.38300035E+03</pdfrwt>
<pdfrwt beam="2">  1       -1 0.29679846E-01 0.38300035E+03</pdfrwt>
<totfact> 0.11030534E+01</totfact>
</mgrwt>
</event>
<event>
 4    1  0.1852677E-008  0.7299311E+03  0.7818608E-02  0.9667372E-01
          1   -1    0    0  501    0  0.00000000000E+00  0.00000000000E+00  0.21386486031E+04  0.21386486031E+04  0.50400000000E-02 0. -1.
         -1   -1    0    0    0  501 -0.00000000000E+00 -0.00000000000E+00 -0.36620365335E+03  0.36620365338E+03  0.50400000000E-02 0.  1.
    8880022    1    1    2    0    0 -0.90634870228E+01 -0.71367053465E+03  0.15943674620E+04  0.17535127703E+04  0.15294330000E+03 0.  0.
    8880022    1    1    2    0    0  0.90634870228E+01  0.71367053465E+03  0.17807748779E+03  0.75133948618E+03  0.15294330000E+03 0.  0.
<mgrwt>
<rscale>  0 0.72993111E+03</rscale>
<asrwt>0</asrwt>
<pdfrwt beam="1">  1        1 0.32902286E+00 0.72993111E+03</pdfrwt>
<pdfrwt beam="2">  1       -1 0.56339024E-01 0.72993111E+03</pdfrwt>
<totfact> 0.80523471E+00</totfact>
</mgrwt>
</event>
<event>
 4    1  0.1852677E-008  0.2341071E+03  0.7818608E-02  0.1123782E+00
         -1   -1    0    0    0  501 -0.00000000000E+00  0.00000000000E+00  0.25094455150E+03  0.25094455155E+03  0.50400000000E-02 0.  1.
          1   -1    0    0  501    0  0.00000000000E+00 -0.00000000000E+00 -0.36565482155E+03  0.36565482158E+03  0.50400000000E-02 0. -1.
    8880022    1    1    2    0    0  0.17122907781E+03  0.45772038220E+02 -0.25300210932E+03  0.34469725399E+03  0.15294330000E+03 0.  0.
    8880022    1    1    2    0    0 -0.17122907781E+03 -0.45772038220E+02  0.13829183927E+03  0.27190211914E+03  0.15294330000E+03 0.  1.
<mgrwt>
<rscale>  0 0.23410709E+03</rscale>
<asrwt>0</asrwt>
<pdfrwt beam="1">  1        1 0.56254588E-01 0.23410709E+03</pdfrwt>
<pdfrwt beam="2">  1       -1 0.38606854E-01 0.23410709E+03</pdfrwt>
<totfact> 0.45076932E+02</totfact>
</mgrwt>
</event>
<event>
 4    1  0.1852677E-008  0.2469322E+03  0.7818608E-02  0.1115259E+00
         -1   -1    0    0    0  501 -0.00000000000E+00  0.00000000000E+00  0.47331058315E+03  0.47331058317E+03  0.50400000000E-02 0.  1.
          1   -1    0    0  501    0  0.00000000000E+00 -0.00000000000E+00 -0.15255676019E+03  0.15255676028E+03  0.50400000000E-02 0. -1.
    8880022    1    1    2    0    0 -0.10217150957E+03  0.16475689299E+03  0.28379449058E+03  0.37618455185E+03  0.15294330000E+03 0. -1.
    8880022    1    1    2    0    0  0.10217150957E+03 -0.16475689299E+03  0.36959332373E+02  0.24968279160E+03  0.15294330000E+03 0.  0.
<mgrwt>
<rscale>  0 0.24693219E+03</rscale>
<asrwt>0</asrwt>
<pdfrwt beam="1">  1        1 0.23470271E-01 0.24693219E+03</pdfrwt>
<pdfrwt beam="2">  1       -1 0.72817013E-01 0.24693219E+03</pdfrwt>
<totfact> 0.41267286E+02</totfact>
</mgrwt>
</event>
<event>
 4    1  0.1852677E-008  0.7540416E+03  0.7818608E-02  0.9629031E-01
         -1   -1    0    0    0  501 -0.00000000000E+00  0.00000000000E+00  0.16284142749E+04  0.16284142749E+04  0.50400000000E-02 0.  1.
          1   -1    0    0  501    0  0.00000000000E+00 -0.00000000000E+00 -0.63084698908E+03  0.63084698910E+03  0.50400000000E-02 0. -1.
    8880022    1    1    2    0    0 -0.16933050774E+02  0.73817367151E+03 -0.25606011685E+03  0.79633255238E+03  0.15294330000E+03 0.  0.
    8880022    1    1    2    0    0  0.16933050774E+02 -0.73817367151E+03  0.12536274027E+04  0.14629287116E+04  0.15294330000E+03 0.  0.
<mgrwt>
<rscale>  0 0.75404161E+03</rscale>
<asrwt>0</asrwt>
<pdfrwt beam="1">  1        1 0.97053384E-01 0.75404161E+03</pdfrwt>
<pdfrwt beam="2">  1       -1 0.25052527E+00 0.75404161E+03</pdfrwt>
<totfact> 0.22996117E+00</totfact>
</mgrwt>
</event>
<event>
 4    1  0.1852677E-008  0.6521475E+03  0.7818608E-02  0.9802758E-01
         -1   -1    0    0    0  501 -0.00000000000E+00  0.00000000000E+00  0.47458987718E+03  0.47458987721E+03  0.50400000000E-02 0.  1.
          1   -1    0    0  501    0  0.00000000000E+00 -0.00000000000E+00 -0.12055117363E+04  0.12055117363E+04  0.50400000000E-02 0. -1.
    8880022    1    1    2    0    0  0.62246576695E+03  0.12017078481E+03 -0.79102416246E+03  0.10251904833E+04  0.15294330000E+03 0.  0.
    8880022    1    1    2    0    0 -0.62246576695E+03 -0.12017078481E+03  0.60102303337E+02  0.65491113017E+03  0.15294330000E+03 0.  0.
<mgrwt>
<rscale>  0 0.65214745E+03</rscale>
<asrwt>0</asrwt>
<pdfrwt beam="1">  1        1 0.18546334E+00 0.65214745E+03</pdfrwt>
<pdfrwt beam="2">  1       -1 0.73013827E-01 0.65214745E+03</pdfrwt>
<totfact> 0.20913372E+01</totfact>
</mgrwt>
</event>
<event>
 4    1  0.1852677E-008  0.5839277E+03  0.7818608E-02  0.9939324E-01
          1   -1    0    0  501    0  0.00000000000E+00  0.00000000000E+00  0.50288510762E+03  0.50288510765E+03  0.50400000000E-02 0. -1.
         -1   -1    0    0    0  501 -0.00000000000E+00 -0.00000000000E+00 -0.75560879930E+03  0.75560879931E+03  0.50400000000E-02 0.  1.
    8880022    1    1    2    0    0  0.26410449743E+03 -0.49782398282E+03 -0.32798578845E+03  0.66973594340E+03  0.15294330000E+03 0.  0.
    8880022    1    1    2    0    0 -0.26410449743E+03  0.49782398282E+03  0.75262096782E+02  0.58875796356E+03  0.15294330000E+03 0.  0.
<mgrwt>
<rscale>  0 0.58392770E+03</rscale>
<asrwt>0</asrwt>
<pdfrwt beam="1">  1        1 0.77366939E-01 0.58392770E+03</pdfrwt>
<pdfrwt beam="2">  1       -1 0.11624751E+00 0.58392770E+03</pdfrwt>
<totfact> 0.30661775E+01</totfact>
</mgrwt>
</event>
<event>
 4    1  0.1852677E-008  0.1025585E+04  0.7818608E-02  0.9280920E-01
          1   -1    0    0  501    0  0.00000000000E+00  0.00000000000E+00  0.19491057247E+04  0.19491057247E+04  0.50400000000E-02 0. -1.
         -1   -1    0    0    0  501 -0.00000000000E+00 -0.00000000000E+00 -0.64222782981E+03  0.64222782983E+03  0.50400000000E-02 0.  1.
    8880022    1    1    2    0    0 -0.96811808051E+03  0.30196161919E+03  0.11712677161E+04  0.15568214904E+04  0.15294330000E+03 0.  0.
    8880022    1    1    2    0    0  0.96811808051E+03 -0.30196161919E+03  0.13561017885E+03  0.10345120642E+04  0.15294330000E+03 0.  0.
<mgrwt>
<rscale>  0 0.10255852E+04</rscale>
<asrwt>0</asrwt>
<pdfrwt beam="1">  1        1 0.29986242E+00 0.10255852E+04</pdfrwt>
<pdfrwt beam="2">  1       -1 0.98804283E-01 0.10255852E+04</pdfrwt>
<totfact> 0.31833518E+00</totfact>
</mgrwt>
</event>
<event>
 4    1  0.1852677E-008  0.3258896E+03  0.7818608E-02  0.1072970E+00
          1   -1    0    0  501    0  0.00000000000E+00  0.00000000000E+00  0.12356282020E+04  0.12356282020E+04  0.50400000000E-02 0. -1.
         -1   -1    0    0    0  501 -0.00000000000E+00 -0.00000000000E+00 -0.16391717660E+03  0.16391717667E+03  0.50400000000E-02 0.  1.
    8880022    1    1    2    0    0 -0.77546184922E+02 -0.27712626100E+03  0.10184658701E+04  0.10693347264E+04  0.15294330000E+03 0.  0.
    8880022    1    1    2    0    0  0.77546184922E+02  0.27712626100E+03  0.53245155257E+02  0.33021065232E+03  0.15294330000E+03 0.  0.
<mgrwt>
<rscale>  0 0.32588960E+03</rscale>
<asrwt>0</asrwt>
<pdfrwt beam="1">  1        1 0.19009665E+00 0.32588960E+03</pdfrwt>
<pdfrwt beam="2">  1       -1 0.25218027E-01 0.32588960E+03</pdfrwt>
<totfact> 0.14827413E+02</totfact>
</mgrwt>
</event>
<event>
 4    1  0.1852677E-008  0.9172767E+03  0.7818608E-02  0.9404239E-01
          1   -1    0    0  501    0  0.00000000000E+00  0.00000000000E+00  0.15647362880E+04  0.15647362880E+04  0.50400000000E-02 0. -1.
         -1   -1    0    0    0  501 -0.00000000000E+00 -0.00000000000E+00 -0.83359911581E+03  0.83359911582E+03  0.50400000000E-02 0.  1.
    8880022    1    1    2    0    0  0.39722573841E+03 -0.81253715895E+03  0.10799914927E+04  0.14169609025E+04  0.15294330000E+03 0.  0.
    8880022    1    1    2    0    0 -0.39722573841E+03  0.81253715895E+03 -0.34885432049E+03  0.98137450134E+03  0.15294330000E+03 0.  0.
<mgrwt>
<rscale>  0 0.91727672E+03</rscale>
<asrwt>0</asrwt>
<pdfrwt beam="1">  1        1 0.24072866E+00 0.91727672E+03</pdfrwt>
<pdfrwt beam="2">  1       -1 0.12824602E+00 0.91727672E+03</pdfrwt>
<totfact> 0.31512211E+00</totfact>
</mgrwt>
</event>
<event>
 4    1  0.1852677E-008  0.3382556E+03  0.7818608E-02  0.1067541E+00
          1   -1    0    0  501    0  0.00000000000E+00  0.00000000000E+00  0.62726954460E+03  0.62726954462E+03  0.50400000000E-02 0. -1.
         -1   -1    0    0    0  501 -0.00000000000E+00 -0.00000000000E+00 -0.24572542749E+03  0.24572542755E+03  0.50400000000E-02 0.  1.
    8880022    1    1    2    0    0 -0.24303743364E+03  0.17876793300E+03 -0.30807732531E+02  0.33965561591E+03  0.15294330000E+03 0.  0.
    8880022    1    1    2    0    0  0.24303743364E+03 -0.17876793300E+03  0.41235184964E+03  0.53333935626E+03  0.15294330000E+03 0.  0.
<mgrwt>
<rscale>  0 0.33825556E+03</rscale>
<asrwt>0</asrwt>
<pdfrwt beam="1">  1        1 0.96503004E-01 0.33825556E+03</pdfrwt>
<pdfrwt beam="2">  1       -1 0.37803913E-01 0.33825556E+03</pdfrwt>
<totfact> 0.22596439E+02</totfact>
</mgrwt>
</event>
<event>
 4    1  0.1852677E-008  0.5544685E+03  0.7818608E-02  0.1000465E+00
          1   -1    0    0  501    0  0.00000000000E+00  0.00000000000E+00  0.88756500796E+03  0.88756500797E+03  0.50400000000E-02 0. -1.
         -1   -1    0    0    0  501 -0.00000000000E+00 -0.00000000000E+00 -0.63452518416E+03  0.63452518418E+03  0.50400000000E-02 0.  1.
    8880022    1    1    2    0    0  0.53115914406E+03 -0.43744822574E+02  0.63937089402E+03  0.84630398732E+03  0.15294330000E+03 0.  0.
    8880022    1    1    2    0    0 -0.53115914406E+03  0.43744822574E+02 -0.38633107023E+03  0.67578620484E+03  0.15294330000E+03 0.  0.
<mgrwt>
<rscale>  0 0.55446848E+03</rscale>
<asrwt>0</asrwt>
<pdfrwt beam="1">  1        1 0.13654846E+00 0.55446848E+03</pdfrwt>
<pdfrwt beam="2">  1       -1 0.97619259E-01 0.55446848E+03</pdfrwt>
<totfact> 0.19821586E+01</totfact>
</mgrwt>
</event>
<event>
 4    1  0.1852677E-008  0.1307609E+04  0.7818608E-02  0.9023553E-01
          1   -1    0    0  501    0  0.00000000000E+00  0.00000000000E+00  0.27243839167E+04  0.27243839167E+04  0.50400000000E-02 0. -1.
         -1   -1    0    0    0  501 -0.00000000000E+00 -0.00000000000E+00 -0.93800879781E+03  0.93800879782E+03  0.50400000000E-02 0.  1.
    8880022    1    1    2    0    0  0.88219912544E+03 -0.95298115134E+03  0.19465896795E+04  0.23450056301E+04  0.15294330000E+03 0.  0.
    8880022    1    1    2    0    0 -0.88219912544E+03  0.95298115134E+03 -0.16021456064E+03  0.13173870844E+04  0.15294330000E+03 0.  0.
<mgrwt>
<rscale>  0 0.13076085E+04</rscale>
<asrwt>0</asrwt>
<pdfrwt beam="1">  1        1 0.41913599E+00 0.13076085E+04</pdfrwt>
<pdfrwt beam="2">  1       -1 0.14430905E+00 0.13076085E+04</pdfrwt>
<totfact> 0.35568932E-01</totfact>
</mgrwt>
</event>
<event>
 4    1  0.1852677E-008  0.4306324E+03  0.7818608E-02  0.1033660E+00
          1   -1    0    0  501    0  0.00000000000E+00  0.00000000000E+00  0.47002859543E+03  0.47002859546E+03  0.50400000000E-02 0. -1.
         -1   -1    0    0    0  501 -0.00000000000E+00 -0.00000000000E+00 -0.72544554819E+03  0.72544554821E+03  0.50400000000E-02 0.  1.
    8880022    1    1    2    0    0  0.37817992676E+03 -0.13795856412E+03 -0.53141050557E+03  0.68398932803E+03  0.15294330000E+03 0.  0.
    8880022    1    1    2    0    0 -0.37817992676E+03  0.13795856412E+03  0.27599355282E+03  0.51148481564E+03  0.15294330000E+03 0.  0.
<mgrwt>
<rscale>  0 0.43063241E+03</rscale>
<asrwt>0</asrwt>
<pdfrwt beam="1">  1        1 0.72312092E-01 0.43063241E+03</pdfrwt>
<pdfrwt beam="2">  1       -1 0.11160701E+00 0.43063241E+03</pdfrwt>
<totfact> 0.37799967E+01</totfact>
</mgrwt>
</event>
<event>
 4    1  0.1852677E-008  0.4024369E+03  0.7818608E-02  0.1042939E+00
          1   -1    0    0  501    0  0.00000000000E+00  0.00000000000E+00  0.82631955078E+03  0.82631955080E+03  0.50400000000E-02 0. -1.
         -1   -1    0    0    0  501 -0.00000000000E+00 -0.00000000000E+00 -0.40834987312E+03  0.40834987315E+03  0.50400000000E-02 0.  1.
    8880022    1    1    2    0    0  0.58793809948E+01 -0.37219514750E+03  0.65416359137E+03  0.76804000692E+03  0.15294330000E+03 0.  0.
    8880022    1    1    2    0    0 -0.58793809948E+01  0.37219514750E+03 -0.23619391371E+03  0.46662941702E+03  0.15294330000E+03 0.  1.
<mgrwt>
<rscale>  0 0.40243689E+03</rscale>
<asrwt>0</asrwt>
<pdfrwt beam="1">  1        1 0.12712608E+00 0.40243689E+03</pdfrwt>
<pdfrwt beam="2">  1       -1 0.62823058E-01 0.40243689E+03</pdfrwt>
<totfact> 0.57524953E+01</totfact>
</mgrwt>
</event>
<event>
 4    1  0.1852677E-008  0.5051551E+03  0.7818608E-02  0.1012442E+00
         -1   -1    0    0    0  501 -0.00000000000E+00  0.00000000000E+00  0.51631299615E+03  0.51631299618E+03  0.50400000000E-02 0.  1.
          1   -1    0    0  501    0  0.00000000000E+00 -0.00000000000E+00 -0.37676672804E+04  0.37676672804E+04  0.50400000000E-02 0. -1.
    8880022    1    1    2    0    0  0.85483965360E+02 -0.47379588493E+03  0.37088416801E+03  0.62668713726E+03  0.15294330000E+03 0.  0.
    8880022    1    1    2    0    0 -0.85483965360E+02  0.47379588493E+03 -0.36222384523E+04  0.36572931394E+04  0.15294330000E+03 0.  0.
<mgrwt>
<rscale>  0 0.50515513E+03</rscale>
<asrwt>0</asrwt>
<pdfrwt beam="1">  1        1 0.57964110E+00 0.50515513E+03</pdfrwt>
<pdfrwt beam="2">  1       -1 0.79432771E-01 0.50515513E+03</pdfrwt>
<totfact> 0.28793415E-01</totfact>
</mgrwt>
</event>
<event>
 4    1  0.1852677E-008  0.2112997E+03  0.7818608E-02  0.1140541E+00
         -1   -1    0    0    0  501 -0.00000000000E+00  0.00000000000E+00  0.86349333755E+02  0.86349333902E+02  0.50400000000E-02 0.  1.
          1   -1    0    0  501    0  0.00000000000E+00 -0.00000000000E+00 -0.10255255847E+04  0.10255255848E+04  0.50400000000E-02 0. -1.
    8880022    1    1    2    0    0  0.48983623554E+02 -0.13731910114E+03 -0.78130757307E+02  0.22528204359E+03  0.15294330000E+03 0.  0.
    8880022    1    1    2    0    0 -0.48983623554E+02  0.13731910114E+03 -0.86104549368E+03  0.88659287507E+03  0.15294330000E+03 0. -1.
<mgrwt>
<rscale>  0 0.21129975E+03</rscale>
<asrwt>0</asrwt>
<pdfrwt beam="1">  1        1 0.15777316E+00 0.21129975E+03</pdfrwt>
<pdfrwt beam="2">  1       -1 0.13284514E-01 0.21129975E+03</pdfrwt>
<totfact> 0.60212200E+02</totfact>
</mgrwt>
</event>
<event>
 4    1  0.1852677E-008  0.5719909E+03  0.7818608E-02  0.9965283E-01
         -1   -1    0    0    0  501 -0.00000000000E+00  0.00000000000E+00  0.81395195249E+03  0.81395195251E+03  0.50400000000E-02 0.  1.
          1   -1    0    0  501    0  0.00000000000E+00 -0.00000000000E+00 -0.54193077076E+03  0.54193077078E+03  0.50400000000E-02 0. -1.
    8880022    1    1    2    0    0  0.33606064511E+03 -0.43685828772E+03 -0.20853267735E+03  0.60881807733E+03  0.15294330000E+03 0.  0.
    8880022    1    1    2    0    0 -0.33606064511E+03  0.43685828772E+03  0.48055385909E+03  0.74706464596E+03  0.15294330000E+03 0.  0.
<mgrwt>
<rscale>  0 0.57199089E+03</rscale>
<asrwt>0</asrwt>
<pdfrwt beam="1">  1        1 0.83373964E-01 0.57199089E+03</pdfrwt>
<pdfrwt beam="2">  1       -1 0.12522338E+00 0.57199089E+03</pdfrwt>
<totfact> 0.23120391E+01</totfact>
</mgrwt>
</event>
<event>
 4    1  0.1852677E-008  0.2544094E+03  0.7818608E-02  0.1110549E+00
         -1   -1    0    0    0  501 -0.00000000000E+00  0.00000000000E+00  0.52863443279E+03  0.52863443282E+03  0.50400000000E-02 0.  1.
          1   -1    0    0  501    0  0.00000000000E+00 -0.00000000000E+00 -0.59584877675E+03  0.59584877677E+03  0.50400000000E-02 0. -1.
    8880022    1    1    2    0    0 -0.95206707472E+02 -0.17963349953E+03 -0.53476520815E+03  0.59219759554E+03  0.15294330000E+03 0. -1.
    8880022    1    1    2    0    0  0.95206707472E+02  0.17963349953E+03  0.46755086419E+03  0.53228561405E+03  0.15294330000E+03 0.  0.
<mgrwt>
<rscale>  0 0.25440944E+03</rscale>
<asrwt>0</asrwt>
<pdfrwt beam="1">  1        1 0.91669043E-01 0.25440944E+03</pdfrwt>
<pdfrwt beam="2">  1       -1 0.81328374E-01 0.25440944E+03</pdfrwt>
<totfact> 0.57028553E+01</totfact>
</mgrwt>
</event>
<event>
 4    1  0.1852677E-008  0.1639061E+03  0.7818608E-02  0.1184356E+00
          1   -1    0    0  501    0  0.00000000000E+00  0.00000000000E+00  0.39158971232E+04  0.39158971232E+04  0.50400000000E-02 0. -1.
         -1   -1    0    0    0  501 -0.00000000000E+00 -0.00000000000E+00 -0.16816308232E+02  0.16816308987E+02  0.50400000000E-02 0.  1.
    8880022    1    1    2    0    0  0.46159543219E+02  0.36645142133E+02  0.43655734017E+03  0.46631269996E+03  0.15294330000E+03 0.  0.
    8880022    1    1    2    0    0 -0.46159543219E+02 -0.36645142133E+02  0.34625234748E+04  0.34664007323E+04  0.15294330000E+03 0. -1.
<mgrwt>
<rscale>  0 0.16390614E+03</rscale>
<asrwt>0</asrwt>
<pdfrwt beam="1">  1        1 0.60244609E+00 0.16390614E+03</pdfrwt>
<pdfrwt beam="2">  1       -1 0.25871228E-02 0.16390614E+03</pdfrwt>
<totfact> 0.72582702E+01</totfact>
</mgrwt>
</event>
<event>
 4    1  0.1852677E-008  0.6159510E+03  0.7818608E-02  0.9872854E-01
         -1   -1    0    0    0  501 -0.00000000000E+00  0.00000000000E+00  0.10250833851E+04  0.10250833851E+04  0.50400000000E-02 0.  1.
          1   -1    0    0  501    0  0.00000000000E+00 -0.00000000000E+00 -0.91793362910E+03  0.91793362911E+03  0.50400000000E-02 0. -1.
    8880022    1    1    2    0    0  0.35187031718E+03 -0.48186231323E+03  0.80409191438E+03  0.10128965736E+04  0.15294330000E+03 0.  0.
    8880022    1    1    2    0    0 -0.35187031718E+03  0.48186231323E+03 -0.69694215835E+03  0.93012044065E+03  0.15294330000E+03 0.  0.
<mgrwt>
<rscale>  0 0.61595102E+03</rscale>
<asrwt>0</asrwt>
<pdfrwt beam="1">  1        1 0.14122056E+00 0.61595102E+03</pdfrwt>
<pdfrwt beam="2">  1       -1 0.15770514E+00 0.61595102E+03</pdfrwt>
<totfact> 0.56675306E+00</totfact>
</mgrwt>
</event>
<event>
 4    1  0.1852677E-008  0.7089923E+03  0.7818608E-02  0.9701977E-01
         -1   -1    0    0    0  501 -0.00000000000E+00  0.00000000000E+00  0.19510628118E+04  0.19510628118E+04  0.50400000000E-02 0.  1.
          1   -1    0    0  501    0  0.00000000000E+00 -0.00000000000E+00 -0.26666692715E+03  0.26666692720E+03  0.50400000000E-02 0. -1.
    8880022    1    1    2    0    0  0.61306901242E+03 -0.32159735430E+03  0.10462236743E+04  0.12638251865E+04  0.15294330000E+03 0.  0.
    8880022    1    1    2    0    0 -0.61306901242E+03  0.32159735430E+03  0.63817221034E+03  0.95390455254E+03  0.15294330000E+03 0. -1.
<mgrwt>
<rscale>  0 0.70899233E+03</rscale>
<asrwt>0</asrwt>
<pdfrwt beam="1">  1        1 0.41025679E-01 0.70899233E+03</pdfrwt>
<pdfrwt beam="2">  1       -1 0.30016352E+00 0.70899233E+03</pdfrwt>
<totfact> 0.35498122E+00</totfact>
</mgrwt>
</event>
<event>
 4    1  0.1852677E-008  0.4413814E+03  0.7818608E-02  0.1030324E+00
          1   -1    0    0  501    0  0.00000000000E+00  0.00000000000E+00  0.23781244406E+03  0.23781244412E+03  0.50400000000E-02 0. -1.
         -1   -1    0    0    0  501 -0.00000000000E+00 -0.00000000000E+00 -0.87249298589E+03  0.87249298590E+03  0.50400000000E-02 0.  1.
    8880022    1    1    2    0    0  0.38561027206E+03  0.15076684732E+03 -0.18014513525E+03  0.47672827370E+03  0.15294330000E+03 0.  1.
    8880022    1    1    2    0    0 -0.38561027206E+03 -0.15076684732E+03 -0.45453540658E+03  0.63357715633E+03  0.15294330000E+03 0.  0.
<mgrwt>
<rscale>  0 0.44138144E+03</rscale>
<asrwt>0</asrwt>
<pdfrwt beam="1">  1        1 0.36586530E-01 0.44138144E+03</pdfrwt>
<pdfrwt beam="2">  1       -1 0.13422969E+00 0.44138144E+03</pdfrwt>
<totfact> 0.58186972E+01</totfact>
</mgrwt>
</event>
<event>
 4    1  0.1852677E-008  0.2091348E+03  0.7818608E-02  0.1142253E+00
         -1   -1    0    0    0  501 -0.00000000000E+00  0.00000000000E+00  0.41795741254E+03  0.41795741257E+03  0.50400000000E-02 0.  1.
          1   -1    0    0  501    0  0.00000000000E+00 -0.00000000000E+00 -0.21626976633E+04  0.21626976634E+04  0.50400000000E-02 0. -1.
    8880022    1    1    2    0    0  0.11841288117E+03 -0.79524216343E+02  0.38635310989E+03  0.43932458382E+03  0.15294330000E+03 0.  0.
    8880022    1    1    2    0    0 -0.11841288117E+03  0.79524216343E+02 -0.21310933607E+04  0.21413304921E+04  0.15294330000E+03 0. -1.
<mgrwt>
<rscale>  0 0.20913480E+03</rscale>
<asrwt>0</asrwt>
<pdfrwt beam="1">  1        1 0.33272271E+00 0.20913480E+03</pdfrwt>
<pdfrwt beam="2">  1       -1 0.64301142E-01 0.20913480E+03</pdfrwt>
<totfact> 0.70802982E+00</totfact>
</mgrwt>
</event>
<event>
 4    1  0.1852677E-008  0.1179435E+04  0.7818608E-02  0.9131050E-01
         -1   -1    0    0    0  501 -0.00000000000E+00  0.00000000000E+00  0.85098313789E+03  0.85098313790E+03  0.50400000000E-02 0.  1.
          1   -1    0    0  501    0  0.00000000000E+00 -0.00000000000E+00 -0.19074986309E+04  0.19074986309E+04  0.50400000000E-02 0. -1.
    8880022    1    1    2    0    0 -0.94686708954E+03 -0.68638110551E+03 -0.10498859475E+04  0.15790276955E+04  0.15294330000E+03 0.  1.
    8880022    1    1    2    0    0  0.94686708954E+03  0.68638110551E+03 -0.66295455207E+01  0.11794540734E+04  0.15294330000E+03 0.  0.
<mgrwt>
<rscale>  0 0.11794354E+04</rscale>
<asrwt>0</asrwt>
<pdfrwt beam="1">  1        1 0.29346133E+00 0.11794354E+04</pdfrwt>
<pdfrwt beam="2">  1       -1 0.13092048E+00 0.11794354E+04</pdfrwt>
<totfact> 0.16911591E+00</totfact>
</mgrwt>
</event>
<event>
 4    1  0.1852677E-008  0.5030552E+03  0.7818608E-02  0.1012985E+00
         -1   -1    0    0    0  501 -0.00000000000E+00  0.00000000000E+00  0.10068402575E+04  0.10068402575E+04  0.50400000000E-02 0.  1.
          1   -1    0    0  501    0  0.00000000000E+00 -0.00000000000E+00 -0.28642388694E+03  0.28642388698E+03  0.50400000000E-02 0. -1.
    8880022    1    1    2    0    0  0.34961327178E+03  0.32778572664E+03  0.58650248554E+03  0.77268993843E+03  0.15294330000E+03 0.  0.
    8880022    1    1    2    0    0 -0.34961327178E+03 -0.32778572664E+03  0.13391388502E+03  0.52057420606E+03  0.15294330000E+03 0.  0.
<mgrwt>
<rscale>  0 0.50305524E+03</rscale>
<asrwt>0</asrwt>
<pdfrwt beam="1">  1        1 0.44065213E-01 0.50305524E+03</pdfrwt>
<pdfrwt beam="2">  1       -1 0.15489850E+00 0.50305524E+03</pdfrwt>
<totfact> 0.31291737E+01</totfact>
</mgrwt>
</event>
<event>
 4    1  0.1852677E-008  0.4973378E+03  0.7818608E-02  0.1014476E+00
         -1   -1    0    0    0  501 -0.00000000000E+00  0.00000000000E+00  0.36234292894E+03  0.36234292897E+03  0.50400000000E-02 0.  1.
          1   -1    0    0  501    0  0.00000000000E+00 -0.00000000000E+00 -0.24006178768E+04  0.24006178769E+04  0.50400000000E-02 0. -1.
    8880022    1    1    2    0    0 -0.35646528768E+03  0.31126472416E+03 -0.21878123328E+04  0.22436282416E+04  0.15294330000E+03 0.  0.
    8880022    1    1    2    0    0  0.35646528768E+03 -0.31126472416E+03  0.14953738487E+03  0.51933256427E+03  0.15294330000E+03 0.  0.
<mgrwt>
<rscale>  0 0.49733780E+03</rscale>
<asrwt>0</asrwt>
<pdfrwt beam="1">  1        1 0.36932582E+00 0.49733780E+03</pdfrwt>
<pdfrwt beam="2">  1       -1 0.55745067E-01 0.49733780E+03</pdfrwt>
<totfact> 0.57677681E+00</totfact>
</mgrwt>
</event>
<event>
 4    1  0.1852677E-008  0.4315996E+03  0.7818608E-02  0.1033356E+00
          1   -1    0    0  501    0  0.00000000000E+00  0.00000000000E+00  0.12007242715E+04  0.12007242715E+04  0.50400000000E-02 0. -1.
         -1   -1    0    0    0  501 -0.00000000000E+00 -0.00000000000E+00 -0.22224662233E+03  0.22224662239E+03  0.50400000000E-02 0.  1.
    8880022    1    1    2    0    0 -0.31649291587E+03  0.25043718523E+03  0.98274661827E+02  0.44264671208E+03  0.15294330000E+03 0.  0.
    8880022    1    1    2    0    0  0.31649291587E+03 -0.25043718523E+03  0.88020298738E+03  0.98032418186E+03  0.15294330000E+03 0.  0.
<mgrwt>
<rscale>  0 0.43159959E+03</rscale>
<asrwt>0</asrwt>
<pdfrwt beam="1">  1        1 0.18472681E+00 0.43159959E+03</pdfrwt>
<pdfrwt beam="2">  1       -1 0.34191788E-01 0.43159959E+03</pdfrwt>
<totfact> 0.91479326E+01</totfact>
</mgrwt>
</event>
<event>
 4    1  0.1852677E-008  0.5780635E+03  0.7818608E-02  0.9951992E-01
         -1   -1    0    0    0  501 -0.00000000000E+00  0.00000000000E+00  0.72559418358E+03  0.72559418360E+03  0.50400000000E-02 0.  1.
          1   -1    0    0  501    0  0.00000000000E+00 -0.00000000000E+00 -0.62859954133E+03  0.62859954135E+03  0.50400000000E-02 0. -1.
    8880022    1    1    2    0    0  0.47786394858E+02  0.55541173873E+03 -0.30161642670E+03  0.65201983169E+03  0.15294330000E+03 0.  0.
    8880022    1    1    2    0    0 -0.47786394858E+02 -0.55541173873E+03  0.39861106895E+03  0.70217389325E+03  0.15294330000E+03 0.  0.
<mgrwt>
<rscale>  0 0.57806348E+03</rscale>
<asrwt>0</asrwt>
<pdfrwt beam="1">  1        1 0.96707622E-01 0.57806348E+03</pdfrwt>
<pdfrwt beam="2">  1       -1 0.11162987E+00 0.57806348E+03</pdfrwt>
<totfact> 0.24694109E+01</totfact>
</mgrwt>
</event>
<event>
 4    1  0.1852677E-008  0.5515928E+03  0.7818608E-02  0.1001126E+00
         -1   -1    0    0    0  501 -0.00000000000E+00  0.00000000000E+00  0.66882632076E+03  0.66882632078E+03  0.50400000000E-02 0.  1.
          1   -1    0    0  501    0  0.00000000000E+00 -0.00000000000E+00 -0.98911232730E+03  0.98911232731E+03  0.50400000000E-02 0. -1.
    8880022    1    1    2    0    0  0.43460702259E+03  0.30328154761E+03 -0.76935612633E+03  0.94665910620E+03  0.15294330000E+03 0. -1.
    8880022    1    1    2    0    0 -0.43460702259E+03 -0.30328154761E+03  0.44907011980E+03  0.71127954189E+03  0.15294330000E+03 0.  0.
<mgrwt>
<rscale>  0 0.55159280E+03</rscale>
<asrwt>0</asrwt>
<pdfrwt beam="1">  1        1 0.15217113E+00 0.55159280E+03</pdfrwt>
<pdfrwt beam="2">  1       -1 0.10289636E+00 0.55159280E+03</pdfrwt>
<totfact> 0.14625841E+01</totfact>
</mgrwt>
</event>
<event>
 4    1  0.1852677E-008  0.4486901E+03  0.7818608E-02  0.1028113E+00
          1   -1    0    0  501    0  0.00000000000E+00  0.00000000000E+00  0.14050792551E+04  0.14050792551E+04  0.50400000000E-02 0. -1.
         -1   -1    0    0    0  501 -0.00000000000E+00 -0.00000000000E+00 -0.16593728334E+03  0.16593728342E+03  0.50400000000E-02 0.  1.
    8880022    1    1    2    0    0 -0.37542980583E+03  0.19231115951E+03  0.32932775384E+03  0.55657842542E+03  0.15294330000E+03 0.  0.
    8880022    1    1    2    0    0  0.37542980583E+03 -0.19231115951E+03  0.90981421795E+03  0.10144381131E+04  0.15294330000E+03 0.  0.
<mgrwt>
<rscale>  0 0.44869006E+03</rscale>
<asrwt>0</asrwt>
<pdfrwt beam="1">  1        1 0.21616603E+00 0.44869006E+03</pdfrwt>
<pdfrwt beam="2">  1       -1 0.25528814E-01 0.44869006E+03</pdfrwt>
<totfact> 0.10877338E+02</totfact>
</mgrwt>
</event>
<event>
 4    1  0.1852677E-008  0.8868949E+03  0.7818608E-02  0.9442113E-01
         -1   -1    0    0    0  501 -0.00000000000E+00  0.00000000000E+00  0.70353276412E+03  0.70353276414E+03  0.50400000000E-02 0.  1.
          1   -1    0    0  501    0  0.00000000000E+00 -0.00000000000E+00 -0.17889546930E+04  0.17889546930E+04  0.50400000000E-02 0. -1.
    8880022    1    1    2    0    0 -0.20328272299E+03 -0.84962758747E+03  0.22048271580E+03  0.91389013773E+03  0.15294330000E+03 0.  0.
    8880022    1    1    2    0    0  0.20328272299E+03  0.84962758747E+03 -0.13059046447E+04  0.15785973194E+04  0.15294330000E+03 0.  0.
<mgrwt>
<rscale>  0 0.88689490E+03</rscale>
<asrwt>0</asrwt>
<pdfrwt beam="1">  1        1 0.27522380E+00 0.88689490E+03</pdfrwt>
<pdfrwt beam="2">  1       -1 0.10823581E+00 0.88689490E+03</pdfrwt>
<totfact> 0.33679644E+00</totfact>
</mgrwt>
</event>
<event>
 4    1  0.1852677E-008  0.7261899E+03  0.7818608E-02  0.9673463E-01
          1   -1    0    0  501    0  0.00000000000E+00  0.00000000000E+00  0.13600664860E+04  0.13600664860E+04  0.50400000000E-02 0. -1.
         -1   -1    0    0    0  501 -0.00000000000E+00 -0.00000000000E+00 -0.72286146911E+03  0.72286146913E+03  0.50400000000E-02 0.  1.
    8880022    1    1    2    0    0  0.69716620846E+03  0.13386312804E+03  0.10277197796E+04  0.12583956682E+04  0.15294330000E+03 0.  0.
    8880022    1    1    2    0    0 -0.69716620846E+03 -0.13386312804E+03 -0.39051476275E+03  0.82453228694E+03  0.15294330000E+03 0.  0.
<mgrwt>
<rscale>  0 0.72618986E+03</rscale>
<asrwt>0</asrwt>
<pdfrwt beam="1">  1        1 0.20924100E+00 0.72618986E+03</pdfrwt>
<pdfrwt beam="2">  1       -1 0.11120946E+00 0.72618986E+03</pdfrwt>
<totfact> 0.63571453E+00</totfact>
</mgrwt>
</event>
<event>
 4    1  0.1852677E-008  0.2443160E+03  0.7818608E-02  0.1116951E+00
         -1   -1    0    0    0  501 -0.00000000000E+00  0.00000000000E+00  0.74120449239E+03  0.74120449241E+03  0.50400000000E-02 0.  1.
          1   -1    0    0  501    0  0.00000000000E+00 -0.00000000000E+00 -0.98259083985E+03  0.98259083987E+03  0.50400000000E-02 0. -1.
    8880022    1    1    2    0    0 -0.32841590976E+02 -0.18767011197E+03 -0.94651604770E+03  0.97753921793E+03  0.15294330000E+03 0.  0.
    8880022    1    1    2    0    0  0.32841590976E+02  0.18767011197E+03  0.70512970024E+03  0.74625611435E+03  0.15294330000E+03 0.  0.
<mgrwt>
<rscale>  0 0.24431597E+03</rscale>
<asrwt>0</asrwt>
<pdfrwt beam="1">  1        1 0.15116782E+00 0.24431597E+03</pdfrwt>
<pdfrwt beam="2">  1       -1 0.11403146E+00 0.24431597E+03</pdfrwt>
<totfact> 0.12678391E+01</totfact>
</mgrwt>
</event>
<event>
 4    1  0.1852677E-008  0.4424977E+03  0.7818608E-02  0.1029983E+00
          1   -1    0    0  501    0  0.00000000000E+00  0.00000000000E+00  0.88275206715E+03  0.88275206716E+03  0.50400000000E-02 0. -1.
         -1   -1    0    0    0  501 -0.00000000000E+00 -0.00000000000E+00 -0.39206674641E+03  0.39206674644E+03  0.50400000000E-02 0.  1.
    8880022    1    1    2    0    0 -0.38007276159E+03 -0.16720414331E+03  0.66538131745E+03  0.79908477665E+03  0.15294330000E+03 0. -1.
    8880022    1    1    2    0    0  0.38007276159E+03  0.16720414331E+03 -0.17469599672E+03  0.47573403696E+03  0.15294330000E+03 0.  0.
<mgrwt>
<rscale>  0 0.44249766E+03</rscale>
<asrwt>0</asrwt>
<pdfrwt beam="1">  1        1 0.13580801E+00 0.44249766E+03</pdfrwt>
<pdfrwt beam="2">  1       -1 0.60317962E-01 0.44249766E+03</pdfrwt>
<totfact> 0.55628492E+01</totfact>
</mgrwt>
</event>
<event>
 4    1  0.1852677E-008  0.8370302E+03  0.7818608E-02  0.9507912E-01
         -1   -1    0    0    0  501 -0.00000000000E+00  0.00000000000E+00  0.86953576455E+03  0.86953576456E+03  0.50400000000E-02 0.  1.
          1   -1    0    0  501    0  0.00000000000E+00 -0.00000000000E+00 -0.16329634751E+04  0.16329634751E+04  0.50400000000E-02 0. -1.
    8880022    1    1    2    0    0  0.66303396583E+03  0.48745653681E+03 -0.12722820939E+04  0.15229318089E+04  0.15294330000E+03 0.  0.
    8880022    1    1    2    0    0 -0.66303396583E+03 -0.48745653681E+03  0.50885438328E+03  0.97956743082E+03  0.15294330000E+03 0.  0.
<mgrwt>
<rscale>  0 0.83703021E+03</rscale>
<asrwt>0</asrwt>
<pdfrwt beam="1">  1        1 0.25122515E+00 0.83703021E+03</pdfrwt>
<pdfrwt beam="2">  1       -1 0.13377473E+00 0.83703021E+03</pdfrwt>
<totfact> 0.25762709E+00</totfact>
</mgrwt>
</event>
<event>
 4    1  0.1852677E-008  0.5030348E+03  0.7818608E-02  0.1012990E+00
         -1   -1    0    0    0  501 -0.00000000000E+00  0.00000000000E+00  0.35957833013E+03  0.35957833017E+03  0.50400000000E-02 0.  1.
          1   -1    0    0  501    0  0.00000000000E+00 -0.00000000000E+00 -0.71904128094E+03  0.71904128096E+03  0.50400000000E-02 0. -1.
    8880022    1    1    2    0    0 -0.19888596945E+03 -0.43600079416E+03 -0.10101795366E+03  0.51307757827E+03  0.15294330000E+03 0.  0.
    8880022    1    1    2    0    0  0.19888596945E+03  0.43600079416E+03 -0.25844499715E+03  0.56554203285E+03  0.15294330000E+03 0.  0.
<mgrwt>
<rscale>  0 0.50303476E+03</rscale>
<asrwt>0</asrwt>
<pdfrwt beam="1">  1        1 0.11062174E+00 0.50303476E+03</pdfrwt>
<pdfrwt beam="2">  1       -1 0.55319743E-01 0.50303476E+03</pdfrwt>
<totfact> 0.90066338E+01</totfact>
</mgrwt>
</event>
<event>
 4    1  0.1852677E-008  0.9117252E+03  0.7818608E-02  0.9411042E-01
          1   -1    0    0  501    0  0.00000000000E+00  0.00000000000E+00  0.18518138184E+04  0.18518138184E+04  0.50400000000E-02 0. -1.
         -1   -1    0    0    0  501 -0.00000000000E+00 -0.00000000000E+00 -0.51555742780E+03  0.51555742783E+03  0.50400000000E-02 0.  1.
    8880022    1    1    2    0    0  0.54702596158E+03  0.71317166551E+03  0.24244544854E+03  0.94341013121E+03  0.15294330000E+03 0.  0.
    8880022    1    1    2    0    0 -0.54702596158E+03 -0.71317166551E+03  0.10938109421E+04  0.14239611150E+04  0.15294330000E+03 0.  0.
<mgrwt>
<rscale>  0 0.91172522E+03</rscale>
<asrwt>0</asrwt>
<pdfrwt beam="1">  1        1 0.28489443E+00 0.91172522E+03</pdfrwt>
<pdfrwt beam="2">  1       -1 0.79316528E-01 0.91172522E+03</pdfrwt>
<totfact> 0.60940953E+00</totfact>
</mgrwt>
</event>
<event>
 4    1  0.1852677E-008  0.4269805E+03  0.7818608E-02  0.1034818E+00
          1   -1    0    0  501    0  0.00000000000E+00  0.00000000000E+00  0.15018270149E+03  0.15018270158E+03  0.50400000000E-02 0. -1.
         -1   -1    0    0    0  501 -0.00000000000E+00 -0.00000000000E+00 -0.15223083623E+04  0.15223083623E+04  0.50400000000E-02 0.  1.
    8880022    1    1    2    0    0  0.36021111374E+03 -0.17078833877E+03 -0.10624366698E+04  0.11450257785E+04  0.15294330000E+03 0.  0.
    8880022    1    1    2    0    0 -0.36021111374E+03  0.17078833877E+03 -0.30968899105E+03  0.52746528541E+03  0.15294330000E+03 0.  0.
<mgrwt>
<rscale>  0 0.42698051E+03</rscale>
<asrwt>0</asrwt>
<pdfrwt beam="1">  1        1 0.23105032E-01 0.42698051E+03</pdfrwt>
<pdfrwt beam="2">  1       -1 0.23420128E+00 0.42698051E+03</pdfrwt>
<totfact> 0.20596666E+01</totfact>
</mgrwt>
</event>
<event>
 4    1  0.1852677E-008  0.1215424E+04  0.7818608E-02  0.9099462E-01
          1   -1    0    0  501    0  0.00000000000E+00  0.00000000000E+00  0.33167324355E+04  0.33167324355E+04  0.50400000000E-02 0. -1.
         -1   -1    0    0    0  501 -0.00000000000E+00 -0.00000000000E+00 -0.62415107261E+03  0.62415107263E+03  0.50400000000E-02 0.  1.
    8880022    1    1    2    0    0 -0.11735359272E+04  0.27690443735E+03  0.29178291094E+03  0.12499566233E+04  0.15294330000E+03 0.  0.
    8880022    1    1    2    0    0  0.11735359272E+04 -0.27690443735E+03  0.24007984520E+04  0.26909268849E+04  0.15294330000E+03 0.  0.
<mgrwt>
<rscale>  0 0.12154235E+04</rscale>
<asrwt>0</asrwt>
<pdfrwt beam="1">  1        1 0.51026652E+00 0.12154235E+04</pdfrwt>
<pdfrwt beam="2">  1       -1 0.96023243E-01 0.12154235E+04</pdfrwt>
<totfact> 0.36210360E-01</totfact>
</mgrwt>
</event>
<event>
 4    1  0.1852677E-008  0.1776350E+03  0.7818608E-02  0.1170112E+00
          1   -1    0    0  501    0  0.00000000000E+00  0.00000000000E+00  0.23357161433E+04  0.23357161433E+04  0.50400000000E-02 0. -1.
         -1   -1    0    0    0  501 -0.00000000000E+00 -0.00000000000E+00 -0.49069104756E+02  0.49069105015E+02  0.50400000000E-02 0.  1.
    8880022    1    1    2    0    0 -0.71648172702E+02  0.55037198375E+02  0.12825801380E+03  0.21909889314E+03  0.15294330000E+03 0.  0.
    8880022    1    1    2    0    0  0.71648172702E+02 -0.55037198375E+02  0.21583890247E+04  0.21656863552E+04  0.15294330000E+03 0.  0.
<mgrwt>
<rscale>  0 0.17763504E+03</rscale>
<asrwt>0</asrwt>
<pdfrwt beam="1">  1        1 0.35934093E+00 0.17763504E+03</pdfrwt>
<pdfrwt beam="2">  1       -1 0.75490934E-02 0.17763504E+03</pdfrwt>
<totfact> 0.19719323E+02</totfact>
</mgrwt>
</event>
<event>
 4    1  0.1852677E-008  0.1288718E+04  0.7818608E-02  0.9038560E-01
         -1   -1    0    0    0  501 -0.00000000000E+00  0.00000000000E+00  0.12779921977E+04  0.12779921977E+04  0.50400000000E-02 0.  1.
          1   -1    0    0  501    0  0.00000000000E+00 -0.00000000000E+00 -0.14143251361E+04  0.14143251361E+04  0.50400000000E-02 0. -1.
    8880022    1    1    2    0    0 -0.10828190638E+04  0.68184023183E+03 -0.45167493879E+03  0.13655786795E+04  0.15294330000E+03 0.  0.
    8880022    1    1    2    0    0  0.10828190638E+04 -0.68184023183E+03  0.31534200036E+03  0.13267386543E+04  0.15294330000E+03 0.  0.
<mgrwt>
<rscale>  0 0.12887183E+04</rscale>
<asrwt>0</asrwt>
<pdfrwt beam="1">  1        1 0.21758848E+00 0.12887183E+04</pdfrwt>
<pdfrwt beam="2">  1       -1 0.19661418E+00 0.12887183E+04</pdfrwt>
<totfact> 0.11563855E+00</totfact>
</mgrwt>
</event>
<event>
 4    1  0.1852677E-008  0.2164812E+03  0.7818608E-02  0.1136534E+00
          1   -1    0    0  501    0  0.00000000000E+00  0.00000000000E+00  0.47998437689E+03  0.47998437692E+03  0.50400000000E-02 0. -1.
         -1   -1    0    0    0  501 -0.00000000000E+00 -0.00000000000E+00 -0.36854826651E+03  0.36854826654E+03  0.50400000000E-02 0.  1.
    8880022    1    1    2    0    0 -0.14037954648E+03  0.61368027627E+02 -0.30803372074E+03  0.37649552190E+03  0.15294330000E+03 0.  1.
    8880022    1    1    2    0    0  0.14037954648E+03 -0.61368027627E+02  0.41946983113E+03  0.47203712156E+03  0.15294330000E+03 0.  0.
<mgrwt>
<rscale>  0 0.21648119E+03</rscale>
<asrwt>0</asrwt>
<pdfrwt beam="1">  1        1 0.73843750E-01 0.21648119E+03</pdfrwt>
<pdfrwt beam="2">  1       -1 0.56699733E-01 0.21648119E+03</pdfrwt>
<totfact> 0.15755912E+02</totfact>
</mgrwt>
</event>
<event>
 4    1  0.1852677E-008  0.8460833E+03  0.7818608E-02  0.9495609E-01
          1   -1    0    0  501    0  0.00000000000E+00  0.00000000000E+00  0.70636181869E+03  0.70636181871E+03  0.50400000000E-02 0. -1.
         -1   -1    0    0    0  501 -0.00000000000E+00 -0.00000000000E+00 -0.10335416682E+04  0.10335416682E+04  0.50400000000E-02 0.  1.
    8880022    1    1    2    0    0 -0.79816764943E+03 -0.23535864483E+03 -0.28490714363E+03  0.89276481886E+03  0.15294330000E+03 0.  0.
    8880022    1    1    2    0    0  0.79816764943E+03  0.23535864483E+03 -0.42272705911E+02  0.84713866809E+03  0.15294330000E+03 0.  0.
<mgrwt>
<rscale>  0 0.84608329E+03</rscale>
<asrwt>0</asrwt>
<pdfrwt beam="1">  1        1 0.10867105E+00 0.84608329E+03</pdfrwt>
<pdfrwt beam="2">  1       -1 0.15900641E+00 0.84608329E+03</pdfrwt>
<totfact> 0.81462916E+00</totfact>
</mgrwt>
</event>
<event>
 4    1  0.1852677E-008  0.8455593E+03  0.7818608E-02  0.9496317E-01
         -1   -1    0    0    0  501 -0.00000000000E+00  0.00000000000E+00  0.10545480776E+04  0.10545480776E+04  0.50400000000E-02 0.  1.
          1   -1    0    0  501    0  0.00000000000E+00 -0.00000000000E+00 -0.25022679465E+04  0.25022679465E+04  0.50400000000E-02 0. -1.
    8880022    1    1    2    0    0 -0.78315589608E+03  0.27972449725E+03 -0.22423441437E+04  0.23964719618E+04  0.15294330000E+03 0.  0.
    8880022    1    1    2    0    0  0.78315589608E+03 -0.27972449725E+03  0.79462427481E+03  0.11603440624E+04  0.15294330000E+03 0.  0.
<mgrwt>
<rscale>  0 0.84555934E+03</rscale>
<asrwt>0</asrwt>
<pdfrwt beam="1">  1        1 0.38496430E+00 0.84555934E+03</pdfrwt>
<pdfrwt beam="2">  1       -1 0.16223817E+00 0.84555934E+03</pdfrwt>
<totfact> 0.39836097E-01</totfact>
</mgrwt>
</event>
<event>
 4    1  0.1852677E-008  0.9225732E+03  0.7818608E-02  0.9397796E-01
         -1   -1    0    0    0  501 -0.00000000000E+00  0.00000000000E+00  0.12638957748E+04  0.12638957748E+04  0.50400000000E-02 0.  1.
          1   -1    0    0  501    0  0.00000000000E+00 -0.00000000000E+00 -0.86539728239E+03  0.86539728241E+03  0.50400000000E-02 0. -1.
    8880022    1    1    2    0    0 -0.84291798332E+03 -0.34240160272E+03 -0.30218610872E+03  0.97080259655E+03  0.15294330000E+03 0.  0.
    8880022    1    1    2    0    0  0.84291798332E+03  0.34240160272E+03  0.70068460111E+03  0.11584904606E+04  0.15294330000E+03 0.  1.
<mgrwt>
<rscale>  0 0.92257316E+03</rscale>
<asrwt>0</asrwt>
<pdfrwt beam="1">  1        1 0.13313804E+00 0.92257316E+03</pdfrwt>
<pdfrwt beam="2">  1       -1 0.19444550E+00 0.92257316E+03</pdfrwt>
<totfact> 0.32406431E+00</totfact>
</mgrwt>
</event>
<event>
 4    1  0.1852677E-008  0.1482817E+04  0.7818608E-02  0.8895960E-01
         -1   -1    0    0    0  501 -0.00000000000E+00  0.00000000000E+00  0.46758888938E+04  0.46758888938E+04  0.50400000000E-02 0.  1.
          1   -1    0    0  501    0  0.00000000000E+00 -0.00000000000E+00 -0.68113804128E+03  0.68113804130E+03  0.50400000000E-02 0. -1.
    8880022    1    1    2    0    0  0.10908774525E+04 -0.99264367571E+03  0.34878413951E+04  0.37899583551E+04  0.15294330000E+03 0.  0.
    8880022    1    1    2    0    0 -0.10908774525E+04  0.99264367571E+03  0.50690945742E+03  0.15670685800E+04  0.15294330000E+03 0.  0.
<mgrwt>
<rscale>  0 0.14828172E+04</rscale>
<asrwt>0</asrwt>
<pdfrwt beam="1">  1        1 0.10479047E+00 0.14828172E+04</pdfrwt>
<pdfrwt beam="2">  1       -1 0.71936750E+00 0.14828172E+04</pdfrwt>
<totfact> 0.45872875E-03</totfact>
</mgrwt>
</event>
<event>
 4    1  0.1852677E-008  0.8265124E+03  0.7818608E-02  0.9522415E-01
         -1   -1    0    0    0  501 -0.00000000000E+00  0.00000000000E+00  0.59564553998E+03  0.59564554000E+03  0.50400000000E-02 0.  1.
          1   -1    0    0  501    0  0.00000000000E+00 -0.00000000000E+00 -0.16780929114E+04  0.16780929114E+04  0.50400000000E-02 0. -1.
    8880022    1    1    2    0    0 -0.10306527745E+03  0.80567274959E+03  0.98429484347E+02  0.83235271805E+03  0.15294330000E+03 0.  1.
    8880022    1    1    2    0    0  0.10306527745E+03 -0.80567274959E+03 -0.11808768558E+04  0.14413857334E+04  0.15294330000E+03 0.  0.
<mgrwt>
<rscale>  0 0.82651236E+03</rscale>
<asrwt>0</asrwt>
<pdfrwt beam="1">  1        1 0.25816814E+00 0.82651236E+03</pdfrwt>
<pdfrwt beam="2">  1       -1 0.91637776E-01 0.82651236E+03</pdfrwt>
<totfact> 0.59041828E+00</totfact>
</mgrwt>
</event>
<event>
 4    1  0.1852677E-008  0.7129881E+03  0.7818608E-02  0.9695275E-01
          1   -1    0    0  501    0  0.00000000000E+00  0.00000000000E+00  0.10551623690E+04  0.10551623690E+04  0.50400000000E-02 0. -1.
         -1   -1    0    0    0  501 -0.00000000000E+00 -0.00000000000E+00 -0.89585697503E+03  0.89585697505E+03  0.50400000000E-02 0.  1.
    8880022    1    1    2    0    0  0.69473943127E+03  0.47932396780E+02  0.74286841345E+03  0.10296628209E+04  0.15294330000E+03 0.  0.
    8880022    1    1    2    0    0 -0.69473943127E+03 -0.47932396780E+02 -0.58356301949E+03  0.92135652315E+03  0.15294330000E+03 0.  0.
<mgrwt>
<rscale>  0 0.71298811E+03</rscale>
<asrwt>0</asrwt>
<pdfrwt beam="1">  1        1 0.16233267E+00 0.71298811E+03</pdfrwt>
<pdfrwt beam="2">  1       -1 0.13782415E+00 0.71298811E+03</pdfrwt>
<totfact> 0.62373136E+00</totfact>
</mgrwt>
</event>
<event>
 4    1  0.1852677E-008  0.5735282E+03  0.7818608E-02  0.9961902E-01
         -1   -1    0    0    0  501 -0.00000000000E+00  0.00000000000E+00  0.12099898980E+04  0.12099898980E+04  0.50400000000E-02 0.  1.
          1   -1    0    0  501    0  0.00000000000E+00 -0.00000000000E+00 -0.38525771055E+03  0.38525771058E+03  0.50400000000E-02 0. -1.
    8880022    1    1    2    0    0  0.54879788162E+03 -0.66058915316E+02 -0.20392435586E+02  0.57389058156E+03  0.15294330000E+03 0.  0.
    8880022    1    1    2    0    0 -0.54879788162E+03  0.66058915316E+02  0.84512462299E+03  0.10213570270E+04  0.15294330000E+03 0.  0.
<mgrwt>
<rscale>  0 0.57352816E+03</rscale>
<asrwt>0</asrwt>
<pdfrwt beam="1">  1        1 0.59270418E-01 0.57352816E+03</pdfrwt>
<pdfrwt beam="2">  1       -1 0.18615229E+00 0.57352816E+03</pdfrwt>
<totfact> 0.12505564E+01</totfact>
</mgrwt>
</event>
<event>
 4    1  0.1852677E-008  0.1539430E+03  0.7818608E-02  0.1195710E+00
          1   -1    0    0  501    0  0.00000000000E+00  0.00000000000E+00  0.94708765993E+03  0.94708765995E+03  0.50400000000E-02 0. -1.
         -1   -1    0    0    0  501 -0.00000000000E+00 -0.00000000000E+00 -0.20414649152E+03  0.20414649159E+03  0.50400000000E-02 0.  1.
    8880022    1    1    2    0    0  0.36559803744E+01 -0.17129807633E+02 -0.16771671499E+03  0.22765620133E+03  0.15294330000E+03 0.  1.
    8880022    1    1    2    0    0 -0.36559803744E+01  0.17129807633E+02  0.91065788339E+03  0.92357795021E+03  0.15294330000E+03 0.  0.
<mgrwt>
<rscale>  0 0.15394301E+03</rscale>
<asrwt>0</asrwt>
<pdfrwt beam="1">  1        1 0.14570580E+00 0.15394301E+03</pdfrwt>
<pdfrwt beam="2">  1       -1 0.31407152E-01 0.15394301E+03</pdfrwt>
<totfact> 0.17200545E+02</totfact>
</mgrwt>
</event>
<event>
 4    1  0.1852677E-008  0.6026191E+03  0.7818608E-02  0.9899987E-01
         -1   -1    0    0    0  501 -0.00000000000E+00  0.00000000000E+00  0.16462348088E+04  0.16462348088E+04  0.50400000000E-02 0.  1.
          1   -1    0    0  501    0  0.00000000000E+00 -0.00000000000E+00 -0.54923563182E+03  0.54923563184E+03  0.50400000000E-02 0. -1.
    8880022    1    1    2    0    0  0.26044379226E+03  0.52146639079E+03  0.13976398168E+04  0.15220206556E+04  0.15294330000E+03 0.  0.
    8880022    1    1    2    0    0 -0.26044379226E+03 -0.52146639079E+03 -0.30064063980E+03  0.67344978503E+03  0.15294330000E+03 0.  0.
<mgrwt>
<rscale>  0 0.60261913E+03</rscale>
<asrwt>0</asrwt>
<pdfrwt beam="1">  1        1 0.84497788E-01 0.60261913E+03</pdfrwt>
<pdfrwt beam="2">  1       -1 0.25326690E+00 0.60261913E+03</pdfrwt>
<totfact> 0.27666999E+00</totfact>
</mgrwt>
</event>
<event>
 4    1  0.1852677E-008  0.4019356E+03  0.7818608E-02  0.1043112E+00
          1   -1    0    0  501    0  0.00000000000E+00  0.00000000000E+00  0.57080709136E+03  0.57080709138E+03  0.50400000000E-02 0. -1.
         -1   -1    0    0    0  501 -0.00000000000E+00 -0.00000000000E+00 -0.95262338641E+03  0.95262338642E+03  0.50400000000E-02 0.  1.
    8880022    1    1    2    0    0  0.31914884629E+03  0.19053752860E+03 -0.82952371520E+03  0.92177100355E+03  0.15294330000E+03 0.  1.
    8880022    1    1    2    0    0 -0.31914884629E+03 -0.19053752860E+03  0.44770742015E+03  0.60165947426E+03  0.15294330000E+03 0.  0.
<mgrwt>
<rscale>  0 0.40193555E+03</rscale>
<asrwt>0</asrwt>
<pdfrwt beam="1">  1        1 0.87816476E-01 0.40193555E+03</pdfrwt>
<pdfrwt beam="2">  1       -1 0.14655744E+00 0.40193555E+03</pdfrwt>
<totfact> 0.14856234E+01</totfact>
</mgrwt>
</event>
<event>
 4    1  0.1852677E-008  0.4423560E+03  0.7818608E-02  0.1030026E+00
         -1   -1    0    0    0  501 -0.00000000000E+00  0.00000000000E+00  0.18860512885E+03  0.18860512891E+03  0.50400000000E-02 0.  1.
          1   -1    0    0  501    0  0.00000000000E+00 -0.00000000000E+00 -0.13186357453E+04  0.13186357453E+04  0.50400000000E-02 0. -1.
    8880022    1    1    2    0    0 -0.28656168833E+03  0.30028245356E+03 -0.91298726523E+03  0.10145070491E+04  0.15294330000E+03 0.  0.
    8880022    1    1    2    0    0  0.28656168833E+03 -0.30028245356E+03 -0.21704335126E+03  0.49273382518E+03  0.15294330000E+03 0.  0.
<mgrwt>
<rscale>  0 0.44235597E+03</rscale>
<asrwt>0</asrwt>
<pdfrwt beam="1">  1        1 0.20286703E+00 0.44235597E+03</pdfrwt>
<pdfrwt beam="2">  1       -1 0.29016175E-01 0.44235597E+03</pdfrwt>
<totfact> 0.10037153E+02</totfact>
</mgrwt>
</event>
<event>
 4    1  0.1852677E-008  0.1646917E+03  0.7818608E-02  0.1183499E+00
         -1   -1    0    0    0  501 -0.00000000000E+00  0.00000000000E+00  0.31907467816E+02  0.31907468214E+02  0.50400000000E-02 0.  1.
          1   -1    0    0  501    0  0.00000000000E+00 -0.00000000000E+00 -0.18003377953E+04  0.18003377953E+04  0.50400000000E-02 0. -1.
    8880022    1    1    2    0    0  0.55996383551E+02  0.24415261293E+02 -0.21863364601E+03  0.27372253130E+03  0.15294330000E+03 0.  1.
    8880022    1    1    2    0    0 -0.55996383551E+02 -0.24415261293E+02 -0.15497966815E+04  0.15585227323E+04  0.15294330000E+03 0.  0.
<mgrwt>
<rscale>  0 0.16469169E+03</rscale>
<asrwt>0</asrwt>
<pdfrwt beam="1">  1        1 0.27697497E+00 0.16469169E+03</pdfrwt>
<pdfrwt beam="2">  1       -1 0.49088426E-02 0.16469169E+03</pdfrwt>
<totfact> 0.83303737E+02</totfact>
</mgrwt>
</event>
<event>
 4    1  0.1852677E-008  0.3738403E+03  0.7818608E-02  0.1053234E+00
          1   -1    0    0  501    0  0.00000000000E+00  0.00000000000E+00  0.12873141699E+04  0.12873141699E+04  0.50400000000E-02 0. -1.
         -1   -1    0    0    0  501 -0.00000000000E+00 -0.00000000000E+00 -0.13005449399E+03  0.13005449409E+03  0.50400000000E-02 0.  1.
    8880022    1    1    2    0    0  0.30358973861E+03 -0.15555771345E+03  0.29055284948E+03  0.47347390949E+03  0.15294330000E+03 0.  0.
    8880022    1    1    2    0    0 -0.30358973861E+03  0.15555771345E+03  0.86670682643E+03  0.94389475452E+03  0.15294330000E+03 0.  0.
<mgrwt>
<rscale>  0 0.37384032E+03</rscale>
<asrwt>0</asrwt>
<pdfrwt beam="1">  1        1 0.19804834E+00 0.37384032E+03</pdfrwt>
<pdfrwt beam="2">  1       -1 0.20008383E-01 0.37384032E+03</pdfrwt>
<totfact> 0.19893017E+02</totfact>
</mgrwt>
</event>
<event>
 4    1  0.1852677E-008  0.7779092E+03  0.7818608E-02  0.9592555E-01
         -1   -1    0    0    0  501 -0.00000000000E+00  0.00000000000E+00  0.57479268236E+03  0.57479268238E+03  0.50400000000E-02 0.  1.
          1   -1    0    0  501    0  0.00000000000E+00 -0.00000000000E+00 -0.19251323192E+04  0.19251323192E+04  0.50400000000E-02 0. -1.
    8880022    1    1    2    0    0  0.31087490875E+03  0.69649679383E+03  0.16623942612E+03  0.79547356494E+03  0.15294330000E+03 0.  0.
    8880022    1    1    2    0    0 -0.31087490875E+03 -0.69649679383E+03 -0.15165790630E+04  0.17044514367E+04  0.15294330000E+03 0.  0.
<mgrwt>
<rscale>  0 0.77790915E+03</rscale>
<asrwt>0</asrwt>
<pdfrwt beam="1">  1        1 0.29617420E+00 0.77790915E+03</pdfrwt>
<pdfrwt beam="2">  1       -1 0.88429645E-01 0.77790915E+03</pdfrwt>
<totfact> 0.43924721E+00</totfact>
</mgrwt>
</event>
<event>
 4    1  0.1852677E-008  0.9306386E+03  0.7818608E-02  0.9388072E-01
         -1   -1    0    0    0  501 -0.00000000000E+00  0.00000000000E+00  0.13401304205E+04  0.13401304205E+04  0.50400000000E-02 0.  1.
          1   -1    0    0  501    0  0.00000000000E+00 -0.00000000000E+00 -0.10523412634E+04  0.10523412635E+04  0.50400000000E-02 0. -1.
    8880022    1    1    2    0    0  0.13931793849E+03  0.90735163764E+03 -0.59919098111E+03  0.11068504719E+04  0.15294330000E+03 0.  0.
    8880022    1    1    2    0    0 -0.13931793849E+03 -0.90735163764E+03  0.88698013814E+03  0.12856212120E+04  0.15294330000E+03 0.  0.
<mgrwt>
<rscale>  0 0.93063856E+03</rscale>
<asrwt>0</asrwt>
<pdfrwt beam="1">  1        1 0.16189866E+00 0.93063856E+03</pdfrwt>
<pdfrwt beam="2">  1       -1 0.20617391E+00 0.93063856E+03</pdfrwt>
<totfact> 0.19087086E+00</totfact>
</mgrwt>
</event>
<event>
 4    1  0.1852677E-008  0.3908903E+03  0.7818608E-02  0.1046980E+00
          1   -1    0    0  501    0  0.00000000000E+00  0.00000000000E+00  0.12879649934E+04  0.12879649934E+04  0.50400000000E-02 0. -1.
         -1   -1    0    0    0  501 -0.00000000000E+00 -0.00000000000E+00 -0.18646130521E+03  0.18646130528E+03  0.50400000000E-02 0.  1.
    8880022    1    1    2    0    0  0.32612798845E+03  0.15180297786E+03  0.99538712514E+03  0.10693880450E+04  0.15294330000E+03 0.  0.
    8880022    1    1    2    0    0 -0.32612798845E+03 -0.15180297786E+03  0.10611656301E+03  0.40503825362E+03  0.15294330000E+03 0.  0.
<mgrwt>
<rscale>  0 0.39089035E+03</rscale>
<asrwt>0</asrwt>
<pdfrwt beam="1">  1        1 0.19814846E+00 0.39089035E+03</pdfrwt>
<pdfrwt beam="2">  1       -1 0.28686354E-01 0.39089035E+03</pdfrwt>
<totfact> 0.10837754E+02</totfact>
</mgrwt>
</event>
<event>
 4    1  0.1852677E-008  0.7298118E+03  0.7818608E-02  0.9667566E-01
         -1   -1    0    0    0  501 -0.00000000000E+00  0.00000000000E+00  0.19715766291E+03  0.19715766298E+03  0.50400000000E-02 0.  1.
          1   -1    0    0  501    0  0.00000000000E+00 -0.00000000000E+00 -0.33790979049E+04  0.33790979049E+04  0.50400000000E-02 0. -1.
    8880022    1    1    2    0    0 -0.23158742489E+03  0.67498209773E+03 -0.79025501143E+03  0.10756989373E+04  0.15294330000E+03 0.  0.
    8880022    1    1    2    0    0  0.23158742489E+03 -0.67498209773E+03 -0.23916852306E+04  0.25005566306E+04  0.15294330000E+03 0.  0.
<mgrwt>
<rscale>  0 0.72981177E+03</rscale>
<asrwt>0</asrwt>
<pdfrwt beam="1">  1        1 0.51986118E+00 0.72981177E+03</pdfrwt>
<pdfrwt beam="2">  1       -1 0.30331950E-01 0.72981177E+03</pdfrwt>
<totfact> 0.33660800E+00</totfact>
</mgrwt>
</event>
<event>
 4    1  0.1852677E-008  0.3059819E+03  0.7818608E-02  0.1082288E+00
         -1   -1    0    0    0  501 -0.00000000000E+00  0.00000000000E+00  0.51852307452E+03  0.51852307454E+03  0.50400000000E-02 0.  1.
          1   -1    0    0  501    0  0.00000000000E+00 -0.00000000000E+00 -0.47572498992E+03  0.47572498995E+03  0.50400000000E-02 0. -1.
    8880022    1    1    2    0    0  0.95371411090E+02  0.24726010001E+03  0.41297736753E+03  0.51397978775E+03  0.15294330000E+03 0.  0.
    8880022    1    1    2    0    0 -0.95371411090E+02 -0.24726010001E+03 -0.37017928294E+03  0.48026827674E+03  0.15294330000E+03 0. -1.
<mgrwt>
<rscale>  0 0.30598189E+03</rscale>
<asrwt>0</asrwt>
<pdfrwt beam="1">  1        1 0.73188460E-01 0.30598189E+03</pdfrwt>
<pdfrwt beam="2">  1       -1 0.79772781E-01 0.30598189E+03</pdfrwt>
<totfact> 0.79694994E+01</totfact>
</mgrwt>
</event>
<event>
 4    1  0.1852677E-008  0.6575088E+03  0.7818608E-02  0.9792790E-01
         -1   -1    0    0    0  501 -0.00000000000E+00  0.00000000000E+00  0.10788577011E+04  0.10788577011E+04  0.50400000000E-02 0.  1.
          1   -1    0    0  501    0  0.00000000000E+00 -0.00000000000E+00 -0.17024438423E+04  0.17024438423E+04  0.50400000000E-02 0. -1.
    8880022    1    1    2    0    0 -0.15989180012E+03  0.61916140367E+03 -0.15278150324E+04  0.16632909120E+04  0.15294330000E+03 0.  0.
    8880022    1    1    2    0    0  0.15989180012E+03 -0.61916140367E+03  0.90422889119E+03  0.11180106315E+04  0.15294330000E+03 0.  0.
<mgrwt>
<rscale>  0 0.65750885E+03</rscale>
<asrwt>0</asrwt>
<pdfrwt beam="1">  1        1 0.26191444E+00 0.65750885E+03</pdfrwt>
<pdfrwt beam="2">  1       -1 0.16597811E+00 0.65750885E+03</pdfrwt>
<totfact> 0.13439393E+00</totfact>
</mgrwt>
</event>
<event>
 4    1  0.1852677E-008  0.6578630E+03  0.7818608E-02  0.9792136E-01
         -1   -1    0    0    0  501 -0.00000000000E+00  0.00000000000E+00  0.54600874259E+03  0.54600874262E+03  0.50400000000E-02 0.  1.
          1   -1    0    0  501    0  0.00000000000E+00 -0.00000000000E+00 -0.24593326197E+04  0.24593326197E+04  0.50400000000E-02 0. -1.
    8880022    1    1    2    0    0  0.56657561488E+03 -0.29729476863E+03 -0.21937027677E+04  0.22902217344E+04  0.15294330000E+03 0.  0.
    8880022    1    1    2    0    0 -0.56657561488E+03  0.29729476863E+03  0.28037889062E+03  0.71511962786E+03  0.15294330000E+03 0.  0.
<mgrwt>
<rscale>  0 0.65786303E+03</rscale>
<asrwt>0</asrwt>
<pdfrwt beam="1">  1        1 0.37835886E+00 0.65786303E+03</pdfrwt>
<pdfrwt beam="2">  1       -1 0.84001346E-01 0.65786303E+03</pdfrwt>
<totfact> 0.22015516E+00</totfact>
</mgrwt>
</event>
<event>
 4    1  0.1852677E-008  0.2445415E+03  0.7818608E-02  0.1116804E+00
          1   -1    0    0  501    0  0.00000000000E+00  0.00000000000E+00  0.12380320164E+03  0.12380320174E+03  0.50400000000E-02 0. -1.
         -1   -1    0    0    0  501 -0.00000000000E+00 -0.00000000000E+00 -0.67331249683E+03  0.67331249685E+03  0.50400000000E-02 0.  1.
    8880022    1    1    2    0    0 -0.67120047609E+02 -0.17861630276E+03 -0.62877760046E+02  0.25249584180E+03  0.15294330000E+03 0. -1.
    8880022    1    1    2    0    0  0.67120047609E+02  0.17861630276E+03 -0.48663153515E+03  0.54461985680E+03  0.15294330000E+03 0.  0.
<mgrwt>
<rscale>  0 0.24454148E+03</rscale>
<asrwt>0</asrwt>
<pdfrwt beam="1">  1        1 0.19046647E-01 0.24454148E+03</pdfrwt>
<pdfrwt beam="2">  1       -1 0.10358654E+00 0.24454148E+03</pdfrwt>
<totfact> 0.25484562E+02</totfact>
</mgrwt>
</event>
<event>
 4    1  0.1852677E-008  0.9838713E+03  0.7818608E-02  0.9326413E-01
         -1   -1    0    0    0  501 -0.00000000000E+00  0.00000000000E+00  0.96098226192E+03  0.96098226193E+03  0.50400000000E-02 0.  1.
          1   -1    0    0  501    0  0.00000000000E+00 -0.00000000000E+00 -0.18586206574E+04  0.18586206574E+04  0.50400000000E-02 0. -1.
    8880022    1    1    2    0    0  0.84821415519E+03 -0.47449323457E+03  0.50531124819E+03  0.11060480068E+04  0.15294330000E+03 0.  1.
    8880022    1    1    2    0    0 -0.84821415519E+03  0.47449323457E+03 -0.14029496437E+04  0.17135549126E+04  0.15294330000E+03 0.  0.
<mgrwt>
<rscale>  0 0.98387130E+03</rscale>
<asrwt>0</asrwt>
<pdfrwt beam="1">  1        1 0.28594164E+00 0.98387130E+03</pdfrwt>
<pdfrwt beam="2">  1       -1 0.14784343E+00 0.98387130E+03</pdfrwt>
<totfact> 0.13642179E+00</totfact>
</mgrwt>
</event>
<event>
 4    1  0.1852677E-008  0.6186906E+03  0.7818608E-02  0.9867370E-01
         -1   -1    0    0    0  501 -0.00000000000E+00  0.00000000000E+00  0.11608789391E+04  0.11608789391E+04  0.50400000000E-02 0.  1.
          1   -1    0    0  501    0  0.00000000000E+00 -0.00000000000E+00 -0.55093906086E+03  0.55093906088E+03  0.50400000000E-02 0. -1.
    8880022    1    1    2    0    0 -0.52550880998E+03 -0.28849072526E+03 -0.23737556225E+03  0.66266523864E+03  0.15294330000E+03 0.  0.
    8880022    1    1    2    0    0  0.52550880998E+03  0.28849072526E+03  0.84731544045E+03  0.10491527613E+04  0.15294330000E+03 0.  0.
<mgrwt>
<rscale>  0 0.61869060E+03</rscale>
<asrwt>0</asrwt>
<pdfrwt beam="1">  1        1 0.84759857E-01 0.61869060E+03</pdfrwt>
<pdfrwt beam="2">  1       -1 0.17859676E+00 0.61869060E+03</pdfrwt>
<totfact> 0.86674403E+00</totfact>
</mgrwt>
</event>
<event>
 4    1  0.1852677E-008  0.4785192E+03  0.7818608E-02  0.1019543E+00
         -1   -1    0    0    0  501 -0.00000000000E+00  0.00000000000E+00  0.20373093236E+03  0.20373093242E+03  0.50400000000E-02 0.  1.
          1   -1    0    0  501    0  0.00000000000E+00 -0.00000000000E+00 -0.11918902740E+04  0.11918902740E+04  0.50400000000E-02 0. -1.
    8880022    1    1    2    0    0  0.10572374322E+03  0.44092113113E+03 -0.32745987468E+03  0.57983668071E+03  0.15294330000E+03 0.  0.
    8880022    1    1    2    0    0 -0.10572374322E+03 -0.44092113113E+03 -0.66069946698E+03  0.81578452574E+03  0.15294330000E+03 0.  0.
<mgrwt>
<rscale>  0 0.47851918E+03</rscale>
<asrwt>0</asrwt>
<pdfrwt beam="1">  1        1 0.18336773E+00 0.47851918E+03</pdfrwt>
<pdfrwt beam="2">  1       -1 0.31343221E-01 0.47851918E+03</pdfrwt>
<totfact> 0.10733237E+02</totfact>
</mgrwt>
</event>
<event>
 4    1  0.1852677E-008  0.4834022E+03  0.7818608E-02  0.1018204E+00
          1   -1    0    0  501    0  0.00000000000E+00  0.00000000000E+00  0.18946225133E+04  0.18946225133E+04  0.50400000000E-02 0. -1.
         -1   -1    0    0    0  501 -0.00000000000E+00 -0.00000000000E+00 -0.24574403833E+03  0.24574403838E+03  0.50400000000E-02 0.  1.
    8880022    1    1    2    0    0 -0.31749673168E+03  0.33088049010E+03  0.15797387992E+04  0.16520449147E+04  0.15294330000E+03 0.  0.
    8880022    1    1    2    0    0  0.31749673168E+03 -0.33088049010E+03  0.69139675703E+02  0.48832163696E+03  0.15294330000E+03 0.  0.
<mgrwt>
<rscale>  0 0.48340224E+03</rscale>
<asrwt>0</asrwt>
<pdfrwt beam="1">  1        1 0.29148040E+00 0.48340224E+03</pdfrwt>
<pdfrwt beam="2">  1       -1 0.37806774E-01 0.48340224E+03</pdfrwt>
<totfact> 0.25734490E+01</totfact>
</mgrwt>
</event>
<event>
 4    1  0.1852677E-008  0.2987296E+03  0.7818608E-02  0.1085877E+00
          1   -1    0    0  501    0  0.00000000000E+00  0.00000000000E+00  0.62139767481E+03  0.62139767483E+03  0.50400000000E-02 0. -1.
         -1   -1    0    0    0  501 -0.00000000000E+00 -0.00000000000E+00 -0.33671720652E+03  0.33671720656E+03  0.50400000000E-02 0.  1.
    8880022    1    1    2    0    0  0.61861422509E+02  0.24903996847E+03 -0.22044810327E+03  0.37126373475E+03  0.15294330000E+03 0.  1.
    8880022    1    1    2    0    0 -0.61861422509E+02 -0.24903996847E+03  0.50512857156E+03  0.58685114664E+03  0.15294330000E+03 0.  0.
<mgrwt>
<rscale>  0 0.29872963E+03</rscale>
<asrwt>0</asrwt>
<pdfrwt beam="1">  1        1 0.95599641E-01 0.29872963E+03</pdfrwt>
<pdfrwt beam="2">  1       -1 0.51802648E-01 0.29872963E+03</pdfrwt>
<totfact> 0.12969190E+02</totfact>
</mgrwt>
</event>
<event>
 4    1  0.1852677E-008  0.2565292E+03  0.7818608E-02  0.1109247E+00
          1   -1    0    0  501    0  0.00000000000E+00  0.00000000000E+00  0.13889245443E+04  0.13889245443E+04  0.50400000000E-02 0. -1.
         -1   -1    0    0    0  501 -0.00000000000E+00 -0.00000000000E+00 -0.58969689162E+02  0.58969689377E+02  0.50400000000E-02 0.  1.
    8880022    1    1    2    0    0 -0.20669869677E+02  0.20491059214E+03  0.98592070793E+03  0.10187477066E+04  0.15294330000E+03 0. -1.
    8880022    1    1    2    0    0  0.20669869677E+02 -0.20491059214E+03  0.34403414722E+03  0.42914652713E+03  0.15294330000E+03 0.  1.
<mgrwt>
<rscale>  0 0.25652923E+03</rscale>
<asrwt>0</asrwt>
<pdfrwt beam="1">  1        1 0.21368070E+00 0.25652923E+03</pdfrwt>
<pdfrwt beam="2">  1       -1 0.90722599E-02 0.25652923E+03</pdfrwt>
<totfact> 0.60428322E+02</totfact>
</mgrwt>
</event>
<event>
 4    1  0.1852677E-008  0.3941864E+03  0.7818608E-02  0.1045812E+00
         -1   -1    0    0    0  501 -0.00000000000E+00  0.00000000000E+00  0.24866581836E+03  0.24866581841E+03  0.50400000000E-02 0.  1.
          1   -1    0    0  501    0  0.00000000000E+00 -0.00000000000E+00 -0.13839021580E+04  0.13839021581E+04  0.50400000000E-02 0. -1.
    8880022    1    1    2    0    0  0.25619051398E+03  0.25759982162E+03  0.36914420564E+02  0.39591106958E+03  0.15294330000E+03 0.  0.
    8880022    1    1    2    0    0 -0.25619051398E+03 -0.25759982162E+03 -0.11721507603E+04  0.12366569069E+04  0.15294330000E+03 0. -1.
<mgrwt>
<rscale>  0 0.39418638E+03</rscale>
<asrwt>0</asrwt>
<pdfrwt beam="1">  1        1 0.21290802E+00 0.39418638E+03</pdfrwt>
<pdfrwt beam="2">  1       -1 0.38256281E-01 0.39418638E+03</pdfrwt>
<totfact> 0.56282524E+01</totfact>
</mgrwt>
</event>
<event>
 4    1  0.1852677E-008  0.2532947E+03  0.7818608E-02  0.1111240E+00
         -1   -1    0    0    0  501 -0.00000000000E+00  0.00000000000E+00  0.10225021235E+03  0.10225021247E+03  0.50400000000E-02 0.  1.
          1   -1    0    0  501    0  0.00000000000E+00 -0.00000000000E+00 -0.14981748505E+04  0.14981748505E+04  0.50400000000E-02 0. -1.
    8880022    1    1    2    0    0  0.25249529550E+02 -0.20032232000E+03 -0.13080065551E+04  0.13323060354E+04  0.15294330000E+03 0.  0.
    8880022    1    1    2    0    0 -0.25249529550E+02  0.20032232000E+03 -0.87918083056E+02  0.26811902763E+03  0.15294330000E+03 0.  0.
<mgrwt>
<rscale>  0 0.25329474E+03</rscale>
<asrwt>0</asrwt>
<pdfrwt beam="1">  1        1 0.23048842E+00 0.25329474E+03</pdfrwt>
<pdfrwt beam="2">  1       -1 0.15730803E-01 0.25329474E+03</pdfrwt>
<totfact> 0.21574265E+02</totfact>
</mgrwt>
</event>
<event>
 4    1  0.1852677E-008  0.5385259E+03  0.7818608E-02  0.1004185E+00
         -1   -1    0    0    0  501 -0.00000000000E+00  0.00000000000E+00  0.54703711954E+03  0.54703711956E+03  0.50400000000E-02 0.  1.
          1   -1    0    0  501    0  0.00000000000E+00 -0.00000000000E+00 -0.93563651947E+03  0.93563651948E+03  0.50400000000E-02 0. -1.
    8880022    1    1    2    0    0  0.49349853151E+03  0.15191357595E+03  0.29373612899E+03  0.61342570997E+03  0.15294330000E+03 0.  0.
    8880022    1    1    2    0    0 -0.49349853151E+03 -0.15191357595E+03 -0.68233552892E+03  0.86924792907E+03  0.15294330000E+03 0.  0.
<mgrwt>
<rscale>  0 0.53852594E+03</rscale>
<asrwt>0</asrwt>
<pdfrwt beam="1">  1        1 0.14394408E+00 0.53852594E+03</pdfrwt>
<pdfrwt beam="2">  1       -1 0.84159557E-01 0.53852594E+03</pdfrwt>
<totfact> 0.25175446E+01</totfact>
</mgrwt>
</event>
<event>
 4    1  0.1852677E-008  0.4305996E+03  0.7818608E-02  0.1033671E+00
          1   -1    0    0  501    0  0.00000000000E+00  0.00000000000E+00  0.10116059945E+04  0.10116059945E+04  0.50400000000E-02 0. -1.
         -1   -1    0    0    0  501 -0.00000000000E+00 -0.00000000000E+00 -0.56988377740E+03  0.56988377743E+03  0.50400000000E-02 0.  1.
    8880022    1    1    2    0    0  0.40183616600E+03 -0.23496169706E+02  0.87214653511E+03  0.97265389837E+03  0.15294330000E+03 0.  0.
    8880022    1    1    2    0    0 -0.40183616600E+03  0.23496169706E+02 -0.43042431806E+03  0.60883587352E+03  0.15294330000E+03 0.  0.
<mgrwt>
<rscale>  0 0.43059961E+03</rscale>
<asrwt>0</asrwt>
<pdfrwt beam="1">  1        1 0.15563169E+00 0.43059961E+03</pdfrwt>
<pdfrwt beam="2">  1       -1 0.87674429E-01 0.43059961E+03</pdfrwt>
<totfact> 0.20544272E+01</totfact>
</mgrwt>
</event>
<event>
 4    1  0.1852677E-008  0.8013612E+03  0.7818608E-02  0.9558049E-01
          1   -1    0    0  501    0  0.00000000000E+00  0.00000000000E+00  0.51511966147E+03  0.51511966149E+03  0.50400000000E-02 0. -1.
         -1   -1    0    0    0  501 -0.00000000000E+00 -0.00000000000E+00 -0.14469018518E+04  0.14469018518E+04  0.50400000000E-02 0.  1.
    8880022    1    1    2    0    0  0.23351625354E+03 -0.75117125861E+03 -0.83083846318E+03  0.11543276421E+04  0.15294330000E+03 0.  0.
    8880022    1    1    2    0    0 -0.23351625354E+03  0.75117125861E+03 -0.10094372711E+03  0.80769387115E+03  0.15294330000E+03 0.  0.
<mgrwt>
<rscale>  0 0.80136119E+03</rscale>
<asrwt>0</asrwt>
<pdfrwt beam="1">  1        1 0.79249179E-01 0.80136119E+03</pdfrwt>
<pdfrwt beam="2">  1       -1 0.22260028E+00 0.80136119E+03</pdfrwt>
<totfact> 0.46330831E+00</totfact>
</mgrwt>
</event>
<event>
 4    1  0.1852677E-008  0.1534260E+03  0.7818608E-02  0.1196325E+00
         -1   -1    0    0    0  501 -0.00000000000E+00  0.00000000000E+00  0.43091378871E+03  0.43091378874E+03  0.50400000000E-02 0.  1.
          1   -1    0    0  501    0  0.00000000000E+00 -0.00000000000E+00 -0.79882525147E+03  0.79882525149E+03  0.50400000000E-02 0. -1.
    8880022    1    1    2    0    0 -0.87047816766E-01 -0.12160569391E+02 -0.77742930705E+03  0.79242404525E+03  0.15294330000E+03 0. -1.
    8880022    1    1    2    0    0  0.87047816766E-01  0.12160569391E+02  0.40951784429E+03  0.43731499498E+03  0.15294330000E+03 0.  0.
<mgrwt>
<rscale>  0 0.15342601E+03</rscale>
<asrwt>0</asrwt>
<pdfrwt beam="1">  1        1 0.12289619E+00 0.15342601E+03</pdfrwt>
<pdfrwt beam="2">  1       -1 0.66294429E-01 0.15342601E+03</pdfrwt>
<totfact> 0.58306209E+01</totfact>
</mgrwt>
</event>
<event>
 4    1  0.1852677E-008  0.7263460E+03  0.7818608E-02  0.9673208E-01
         -1   -1    0    0    0  501 -0.00000000000E+00  0.00000000000E+00  0.24732534357E+03  0.24732534362E+03  0.50400000000E-02 0.  1.
          1   -1    0    0  501    0  0.00000000000E+00 -0.00000000000E+00 -0.22288737967E+04  0.22288737967E+04  0.50400000000E-02 0. -1.
    8880022    1    1    2    0    0  0.25241596875E+03 -0.66368146904E+03 -0.73417532089E+03  0.10327593952E+04  0.15294330000E+03 0.  0.
    8880022    1    1    2    0    0 -0.25241596875E+03  0.66368146904E+03 -0.12473731322E+04  0.14434397451E+04  0.15294330000E+03 0.  0.
<mgrwt>
<rscale>  0 0.72634604E+03</rscale>
<asrwt>0</asrwt>
<pdfrwt beam="1">  1        1 0.34290365E+00 0.72634604E+03</pdfrwt>
<pdfrwt beam="2">  1       -1 0.38050054E-01 0.72634604E+03</pdfrwt>
<totfact> 0.14589566E+01</totfact>
</mgrwt>
</event>
<event>
 4    1  0.1852677E-008  0.1763681E+04  0.7818608E-02  0.8725855E-01
          1   -1    0    0  501    0  0.00000000000E+00  0.00000000000E+00  0.32632626404E+04  0.32632626404E+04  0.50400000000E-02 0. -1.
         -1   -1    0    0    0  501 -0.00000000000E+00 -0.00000000000E+00 -0.12475205369E+04  0.12475205369E+04  0.50400000000E-02 0.  1.
    8880022    1    1    2    0    0  0.14858487274E+04  0.93778084701E+03 -0.87602299710E+02  0.17658553660E+04  0.15294330000E+03 0.  0.
    8880022    1    1    2    0    0 -0.14858487274E+04 -0.93778084701E+03  0.21033444032E+04  0.27449278113E+04  0.15294330000E+03 0.  0.
<mgrwt>
<rscale>  0 0.17636811E+04</rscale>
<asrwt>0</asrwt>
<pdfrwt beam="1">  1        1 0.50204041E+00 0.17636811E+04</pdfrwt>
<pdfrwt beam="2">  1       -1 0.19192624E+00 0.17636811E+04</pdfrwt>
<totfact> 0.59941616E-02</totfact>
</mgrwt>
</event>
<event>
 4    1  0.1852677E-008  0.9976252E+03  0.7818608E-02  0.9311153E-01
          1   -1    0    0  501    0  0.00000000000E+00  0.00000000000E+00  0.49382577640E+03  0.49382577642E+03  0.50400000000E-02 0. -1.
         -1   -1    0    0    0  501 -0.00000000000E+00 -0.00000000000E+00 -0.21648879350E+04  0.21648879351E+04  0.50400000000E-02 0.  1.
    8880022    1    1    2    0    0  0.47110633525E+03 -0.86598101054E+03 -0.48620702556E+03  0.11097987270E+04  0.15294330000E+03 0.  0.
    8880022    1    1    2    0    0 -0.47110633525E+03  0.86598101054E+03 -0.11848551331E+04  0.15489149845E+04  0.15294330000E+03 0.  0.
<mgrwt>
<rscale>  0 0.99762515E+03</rscale>
<asrwt>0</asrwt>
<pdfrwt beam="1">  1        1 0.75973197E-01 0.99762515E+03</pdfrwt>
<pdfrwt beam="2">  1       -1 0.33305968E+00 0.99762515E+03</pdfrwt>
<totfact> 0.92361499E-01</totfact>
</mgrwt>
</event>
<event>
 4    1  0.1852677E-008  0.3346879E+03  0.7818608E-02  0.1069081E+00
          1   -1    0    0  501    0  0.00000000000E+00  0.00000000000E+00  0.14456355381E+03  0.14456355389E+03  0.50400000000E-02 0. -1.
         -1   -1    0    0    0  501 -0.00000000000E+00 -0.00000000000E+00 -0.91528505944E+03  0.91528505945E+03  0.50400000000E-02 0.  1.
    8880022    1    1    2    0    0 -0.14930168336E+02 -0.29732374662E+03 -0.17779114704E+03  0.37897976887E+03  0.15294330000E+03 0.  0.
    8880022    1    1    2    0    0  0.14930168336E+02  0.29732374662E+03 -0.59293035859E+03  0.68086884448E+03  0.15294330000E+03 0.  0.
<mgrwt>
<rscale>  0 0.33468787E+03</rscale>
<asrwt>0</asrwt>
<pdfrwt beam="1">  1        1 0.22240547E-01 0.33468787E+03</pdfrwt>
<pdfrwt beam="2">  1       -1 0.14081308E+00 0.33468787E+03</pdfrwt>
<totfact> 0.98869794E+01</totfact>
</mgrwt>
</event>
<event>
 4    1  0.1852677E-008  0.6602929E+03  0.7818608E-02  0.9787655E-01
          1   -1    0    0  501    0  0.00000000000E+00  0.00000000000E+00  0.53002873591E+03  0.53002873593E+03  0.50400000000E-02 0. -1.
         -1   -1    0    0    0  501 -0.00000000000E+00 -0.00000000000E+00 -0.10634002316E+04  0.10634002316E+04  0.50400000000E-02 0.  1.
    8880022    1    1    2    0    0 -0.41758878703E+02  0.64097683212E+03 -0.64583316817E+03  0.92362721776E+03  0.15294330000E+03 0.  0.
    8880022    1    1    2    0    0  0.41758878703E+02 -0.64097683212E+03  0.11246167246E+03  0.66980174981E+03  0.15294330000E+03 0.  0.
<mgrwt>
<rscale>  0 0.66029293E+03</rscale>
<asrwt>0</asrwt>
<pdfrwt beam="1">  1        1 0.81542883E-01 0.66029293E+03</pdfrwt>
<pdfrwt beam="2">  1       -1 0.16360003E+00 0.66029293E+03</pdfrwt>
<totfact> 0.11685972E+01</totfact>
</mgrwt>
</event>
<event>
 4    1  0.1852677E-008  0.6089267E+03  0.7818608E-02  0.9887057E-01
          1   -1    0    0  501    0  0.00000000000E+00  0.00000000000E+00  0.11467048460E+04  0.11467048461E+04  0.50400000000E-02 0. -1.
         -1   -1    0    0    0  501 -0.00000000000E+00 -0.00000000000E+00 -0.95359200914E+03  0.95359200915E+03  0.50400000000E-02 0.  1.
    8880022    1    1    2    0    0  0.58539862955E+03  0.68618606181E+02 -0.75717574587E+03  0.97165159997E+03  0.15294330000E+03 0.  0.
    8880022    1    1    2    0    0 -0.58539862955E+03 -0.68618606181E+02  0.95028858278E+03  0.11286452552E+04  0.15294330000E+03 0. -1.
<mgrwt>
<rscale>  0 0.60892670E+03</rscale>
<asrwt>0</asrwt>
<pdfrwt beam="1">  1        1 0.17641613E+00 0.60892670E+03</pdfrwt>
<pdfrwt beam="2">  1       -1 0.14670646E+00 0.60892670E+03</pdfrwt>
<totfact> 0.46144127E+00</totfact>
</mgrwt>
</event>
<event>
 4    1  0.1852677E-008  0.4016397E+03  0.7818608E-02  0.1043213E+00
          1   -1    0    0  501    0  0.00000000000E+00  0.00000000000E+00  0.18451947349E+04  0.18451947349E+04  0.50400000000E-02 0. -1.
         -1   -1    0    0    0  501 -0.00000000000E+00 -0.00000000000E+00 -0.60172191190E+03  0.60172191193E+03  0.50400000000E-02 0.  1.
    8880022    1    1    2    0    0 -0.10358970214E+03 -0.35663984286E+03 -0.50935736327E+03  0.64865967999E+03  0.15294330000E+03 0.  0.
    8880022    1    1    2    0    0  0.10358970214E+03  0.35663984286E+03  0.17528301863E+04  0.17982569669E+04  0.15294330000E+03 0.  0.
<mgrwt>
<rscale>  0 0.40163971E+03</rscale>
<asrwt>0</asrwt>
<pdfrwt beam="1">  1        1 0.28387611E+00 0.40163971E+03</pdfrwt>
<pdfrwt beam="2">  1       -1 0.92572603E-01 0.40163971E+03</pdfrwt>
<totfact> 0.49066935E+00</totfact>
</mgrwt>
</event>
<event>
 4    1  0.2960965E-008  0.5565958E+03  0.7818608E-02  0.9999787E-01
         -1   -1    0    0    0  501 -0.00000000000E+00  0.00000000000E+00  0.84780119391E+03  0.84780119392E+03  0.50400000000E-02 0.  1.
          1   -1    0    0  501    0  0.00000000000E+00 -0.00000000000E+00 -0.31815549731E+04  0.31815549731E+04  0.50400000000E-02 0. -1.
    8880022    1    1    2    0    0  0.53411649563E+03 -0.33568379471E+02  0.72857644574E+03  0.91685470894E+03  0.15294330000E+03 0.  0.
    8880022    1    1    2    0    0 -0.53411649563E+03  0.33568379471E+02 -0.30623302249E+04  0.31125014580E+04  0.15294330000E+03 0.  0.
<mgrwt>
<rscale>  0 0.55659583E+03</rscale>
<asrwt>0</asrwt>
<pdfrwt beam="1">  1        1 0.48946999E+00 0.55659583E+03</pdfrwt>
<pdfrwt beam="2">  1       -1 0.13043095E+00 0.55659583E+03</pdfrwt>
<totfact> 0.25546803E-01</totfact>
</mgrwt>
</event>
<event>
 4    1  0.1852677E-008  0.4924724E+03  0.7818608E-02  0.1015763E+00
         -1   -1    0    0    0  501 -0.00000000000E+00  0.00000000000E+00  0.11031643150E+03  0.11031643161E+03  0.50400000000E-02 0.  1.
          1   -1    0    0  501    0  0.00000000000E+00 -0.00000000000E+00 -0.28422467762E+04  0.28422467762E+04  0.50400000000E-02 0. -1.
    8880022    1    1    2    0    0  0.43498300558E+03  0.17299467486E+03 -0.66337690569E+03  0.82619485879E+03  0.15294330000E+03 0.  0.
    8880022    1    1    2    0    0 -0.43498300558E+03 -0.17299467486E+03 -0.20685534390E+04  0.21263683490E+04  0.15294330000E+03 0.  0.
<mgrwt>
<rscale>  0 0.49247236E+03</rscale>
<asrwt>0</asrwt>
<pdfrwt beam="1">  1        1 0.43726868E+00 0.49247236E+03</pdfrwt>
<pdfrwt beam="2">  1       -1 0.16971761E-01 0.49247236E+03</pdfrwt>
<totfact> 0.23063311E+01</totfact>
</mgrwt>
</event>
<event>
 4    1  0.1852677E-008  0.1992938E+03  0.7818608E-02  0.1150336E+00
         -1   -1    0    0    0  501 -0.00000000000E+00  0.00000000000E+00  0.56946778128E+03  0.56946778131E+03  0.50400000000E-02 0.  1.
          1   -1    0    0  501    0  0.00000000000E+00 -0.00000000000E+00 -0.93009596113E+03  0.93009596115E+03  0.50400000000E-02 0. -1.
    8880022    1    1    2    0    0  0.71394447450E+02  0.10596786704E+03  0.54080778230E+03  0.57636018806E+03  0.15294330000E+03 0.  0.
    8880022    1    1    2    0    0 -0.71394447450E+02 -0.10596786704E+03 -0.90143596215E+03  0.92320355439E+03  0.15294330000E+03 0.  0.
<mgrwt>
<rscale>  0 0.19929378E+03</rscale>
<asrwt>0</asrwt>
<pdfrwt beam="1">  1        1 0.14309169E+00 0.19929378E+03</pdfrwt>
<pdfrwt beam="2">  1       -1 0.87610428E-01 0.19929378E+03</pdfrwt>
<totfact> 0.25491110E+01</totfact>
</mgrwt>
</event>
<event>
 4    1  0.1852677E-008  0.2601975E+03  0.7818608E-02  0.1107025E+00
          1   -1    0    0  501    0  0.00000000000E+00  0.00000000000E+00  0.66571143576E+03  0.66571143578E+03  0.50400000000E-02 0. -1.
         -1   -1    0    0    0  501 -0.00000000000E+00 -0.00000000000E+00 -0.30986609292E+03  0.30986609296E+03  0.50400000000E-02 0.  1.
    8880022    1    1    2    0    0  0.18326194495E+03  0.10356713172E+03  0.57772924502E+03  0.63361962154E+03  0.15294330000E+03 0. -1.
    8880022    1    1    2    0    0 -0.18326194495E+03 -0.10356713172E+03 -0.22188390217E+03  0.34195790720E+03  0.15294330000E+03 0.  0.
<mgrwt>
<rscale>  0 0.26019751E+03</rscale>
<asrwt>0</asrwt>
<pdfrwt beam="1">  1        1 0.10241714E+00 0.26019751E+03</pdfrwt>
<pdfrwt beam="2">  1       -1 0.47671707E-01 0.26019751E+03</pdfrwt>
<totfact> 0.13802884E+02</totfact>
</mgrwt>
</event>
<event>
 4    1  0.1852677E-008  0.7611272E+03  0.7818608E-02  0.9618054E-01
         -1   -1    0    0    0  501 -0.00000000000E+00  0.00000000000E+00  0.77031556781E+03  0.77031556783E+03  0.50400000000E-02 0.  1.
          1   -1    0    0  501    0  0.00000000000E+00 -0.00000000000E+00 -0.98614306375E+03  0.98614306377E+03  0.50400000000E-02 0. -1.
    8880022    1    1    2    0    0  0.56462948611E+03 -0.48694606365E+03  0.31997783047E+03  0.82565149458E+03  0.15294330000E+03 0.  0.
    8880022    1    1    2    0    0 -0.56462948611E+03  0.48694606365E+03 -0.53580532641E+03  0.93080713701E+03  0.15294330000E+03 0.  0.
<mgrwt>
<rscale>  0 0.76112718E+03</rscale>
<asrwt>0</asrwt>
<pdfrwt beam="1">  1        1 0.15171432E+00 0.76112718E+03</pdfrwt>
<pdfrwt beam="2">  1       -1 0.11851009E+00 0.76112718E+03</pdfrwt>
<totfact> 0.10208261E+01</totfact>
</mgrwt>
</event>
<event>
 4    1  0.1852677E-008  0.4678669E+03  0.7818608E-02  0.1022524E+00
          1   -1    0    0  501    0  0.00000000000E+00  0.00000000000E+00  0.39490987362E+03  0.39490987365E+03  0.50400000000E-02 0. -1.
         -1   -1    0    0    0  501 -0.00000000000E+00 -0.00000000000E+00 -0.10689605262E+04  0.10689605262E+04  0.50400000000E-02 0.  1.
    8880022    1    1    2    0    0 -0.43681454129E+03 -0.68562727819E+02  0.17084316142E+03  0.49808315566E+03  0.15294330000E+03 0.  0.
    8880022    1    1    2    0    0  0.43681454129E+03  0.68562727819E+02 -0.84489381402E+03  0.96578724422E+03  0.15294330000E+03 0.  1.
<mgrwt>
<rscale>  0 0.46786691E+03</rscale>
<asrwt>0</asrwt>
<pdfrwt beam="1">  1        1 0.60755365E-01 0.46786691E+03</pdfrwt>
<pdfrwt beam="2">  1       -1 0.16445546E+00 0.46786691E+03</pdfrwt>
<totfact> 0.17620285E+01</totfact>
</mgrwt>
</event>
<event>
 4    1  0.1852677E-008  0.7588796E+03  0.7818608E-02  0.9621522E-01
          1   -1    0    0  501    0  0.00000000000E+00  0.00000000000E+00  0.19465492806E+04  0.19465492806E+04  0.50400000000E-02 0. -1.
         -1   -1    0    0    0  501 -0.00000000000E+00 -0.00000000000E+00 -0.44575854083E+03  0.44575854086E+03  0.50400000000E-02 0.  1.
    8880022    1    1    2    0    0  0.39297188568E+03  0.63093560784E+03  0.56743254253E+02  0.76099809072E+03  0.15294330000E+03 0.  0.
    8880022    1    1    2    0    0 -0.39297188568E+03 -0.63093560784E+03  0.14440474855E+04  0.16313097307E+04  0.15294330000E+03 0.  0.
<mgrwt>
<rscale>  0 0.75887963E+03</rscale>
<asrwt>0</asrwt>
<pdfrwt beam="1">  1        1 0.29946911E+00 0.75887963E+03</pdfrwt>
<pdfrwt beam="2">  1       -1 0.68578239E-01 0.75887963E+03</pdfrwt>
<totfact> 0.72881553E+00</totfact>
</mgrwt>
</event>
<event>
 4    1  0.1852677E-008  0.7748537E+03  0.7818608E-02  0.9597146E-01
         -1   -1    0    0    0  501 -0.00000000000E+00  0.00000000000E+00  0.31487690957E+03  0.31487690961E+03  0.50400000000E-02 0.  1.
          1   -1    0    0  501    0  0.00000000000E+00 -0.00000000000E+00 -0.24332874223E+04  0.24332874223E+04  0.50400000000E-02 0. -1.
    8880022    1    1    2    0    0  0.67023214004E+03 -0.35748496969E+03 -0.42002727888E+03  0.88137460431E+03  0.15294330000E+03 0.  0.
    8880022    1    1    2    0    0 -0.67023214004E+03  0.35748496969E+03 -0.16983832338E+04  0.18667897276E+04  0.15294330000E+03 0.  0.
<mgrwt>
<rscale>  0 0.77485371E+03</rscale>
<asrwt>0</asrwt>
<pdfrwt beam="1">  1        1 0.37435190E+00 0.77485371E+03</pdfrwt>
<pdfrwt beam="2">  1       -1 0.48442603E-01 0.77485371E+03</pdfrwt>
<totfact> 0.67511248E+00</totfact>
</mgrwt>
</event>
<event>
 4    1  0.1852677E-008  0.4834303E+03  0.7818608E-02  0.1018197E+00
         -1   -1    0    0    0  501 -0.00000000000E+00  0.00000000000E+00  0.42110067814E+03  0.42110067817E+03  0.50400000000E-02 0.  1.
          1   -1    0    0  501    0  0.00000000000E+00 -0.00000000000E+00 -0.14013813299E+04  0.14013813299E+04  0.50400000000E-02 0. -1.
    8880022    1    1    2    0    0 -0.21850862007E+03 -0.40319624352E+03  0.21803661338E+03  0.53032522627E+03  0.15294330000E+03 0.  0.
    8880022    1    1    2    0    0  0.21850862007E+03  0.40319624352E+03 -0.11983172651E+04  0.12921567818E+04  0.15294330000E+03 0.  0.
<mgrwt>
<rscale>  0 0.48343033E+03</rscale>
<asrwt>0</asrwt>
<pdfrwt beam="1">  1        1 0.21559713E+00 0.48343033E+03</pdfrwt>
<pdfrwt beam="2">  1       -1 0.64784720E-01 0.48343033E+03</pdfrwt>
<totfact> 0.19995073E+01</totfact>
</mgrwt>
</event>
<event>
 4    1  0.1852677E-008  0.1712339E+03  0.7818608E-02  0.1176567E+00
          1   -1    0    0  501    0  0.00000000000E+00  0.00000000000E+00  0.20641372661E+04  0.20641372661E+04  0.50400000000E-02 0. -1.
         -1   -1    0    0    0  501 -0.00000000000E+00 -0.00000000000E+00 -0.18610872353E+03  0.18610872360E+03  0.50400000000E-02 0.  1.
    8880022    1    1    2    0    0  0.62142081296E+02 -0.45472575479E+02 -0.14231831754E+03  0.22265567568E+03  0.15294330000E+03 0.  1.
    8880022    1    1    2    0    0 -0.62142081296E+02  0.45472575479E+02  0.20203468601E+04  0.20275903140E+04  0.15294330000E+03 0.  0.
<mgrwt>
<rscale>  0 0.17123389E+03</rscale>
<asrwt>0</asrwt>
<pdfrwt beam="1">  1        1 0.31755960E+00 0.17123389E+03</pdfrwt>
<pdfrwt beam="2">  1       -1 0.28632109E-01 0.17123389E+03</pdfrwt>
<totfact> 0.35942567E+01</totfact>
</mgrwt>
</event>
<event>
 4    1  0.1852677E-008  0.1000113E+04  0.7818608E-02  0.9308421E-01
          1   -1    0    0  501    0  0.00000000000E+00  0.00000000000E+00  0.36916052574E+04  0.36916052574E+04  0.50400000000E-02 0. -1.
         -1   -1    0    0    0  501 -0.00000000000E+00 -0.00000000000E+00 -0.69851267564E+03  0.69851267566E+03  0.50400000000E-02 0.  1.
    8880022    1    1    2    0    0 -0.91710590927E+03 -0.36844388881E+03  0.32139047484E+04  0.33659188245E+04  0.15294330000E+03 0.  0.
    8880022    1    1    2    0    0  0.91710590927E+03  0.36844388881E+03 -0.22081216668E+03  0.10241991086E+04  0.15294330000E+03 0.  0.
<mgrwt>
<rscale>  0 0.10001129E+04</rscale>
<asrwt>0</asrwt>
<pdfrwt beam="1">  1        1 0.56793926E+00 0.10001129E+04</pdfrwt>
<pdfrwt beam="2">  1       -1 0.10746349E+00 0.10001129E+04</pdfrwt>
<totfact> 0.14767722E-01</totfact>
</mgrwt>
</event>
<event>
 4    1  0.1852677E-008  0.3685434E+03  0.7818608E-02  0.1055251E+00
          1   -1    0    0  501    0  0.00000000000E+00  0.00000000000E+00  0.32062293482E+04  0.32062293482E+04  0.50400000000E-02 0. -1.
         -1   -1    0    0    0  501 -0.00000000000E+00 -0.00000000000E+00 -0.44672615987E+02  0.44672616271E+02  0.50400000000E-02 0.  1.
    8880022    1    1    2    0    0  0.33122580648E+03  0.52173429075E+02  0.12111549949E+04  0.12659860490E+04  0.15294330000E+03 0.  0.
    8880022    1    1    2    0    0 -0.33122580648E+03 -0.52173429075E+02  0.19504017374E+04  0.19849159155E+04  0.15294330000E+03 0.  0.
<mgrwt>
<rscale>  0 0.36854342E+03</rscale>
<asrwt>0</asrwt>
<pdfrwt beam="1">  1        1 0.49326620E+00 0.36854342E+03</pdfrwt>
<pdfrwt beam="2">  1       -1 0.68727081E-02 0.36854342E+03</pdfrwt>
<totfact> 0.54500288E+01</totfact>
</mgrwt>
</event>
<event>
 4    1  0.1852677E-008  0.5064453E+03  0.7818608E-02  0.1012110E+00
         -1   -1    0    0    0  501 -0.00000000000E+00  0.00000000000E+00  0.20099432841E+03  0.20099432847E+03  0.50400000000E-02 0.  1.
          1   -1    0    0  501    0  0.00000000000E+00 -0.00000000000E+00 -0.18490711590E+04  0.18490711590E+04  0.50400000000E-02 0. -1.
    8880022    1    1    2    0    0  0.44065456501E+03 -0.19727846493E+03 -0.25343939194E+03  0.56632006568E+03  0.15294330000E+03 0.  0.
    8880022    1    1    2    0    0 -0.44065456501E+03  0.19727846493E+03 -0.13946374386E+04  0.14837454218E+04  0.15294330000E+03 0.  0.
<mgrwt>
<rscale>  0 0.50644535E+03</rscale>
<asrwt>0</asrwt>
<pdfrwt beam="1">  1        1 0.28447248E+00 0.50644535E+03</pdfrwt>
<pdfrwt beam="2">  1       -1 0.30922206E-01 0.50644535E+03</pdfrwt>
<totfact> 0.39122279E+01</totfact>
</mgrwt>
</event>
<event>
 4    1  0.1852677E-008  0.4899142E+03  0.7818608E-02  0.1016445E+00
          1   -1    0    0  501    0  0.00000000000E+00  0.00000000000E+00  0.58577151598E+03  0.58577151600E+03  0.50400000000E-02 0. -1.
         -1   -1    0    0    0  501 -0.00000000000E+00 -0.00000000000E+00 -0.68140523572E+03  0.68140523573E+03  0.50400000000E-02 0.  1.
    8880022    1    1    2    0    0 -0.34307029719E+03  0.31452670502E+03 -0.44787111674E+03  0.66378043600E+03  0.15294330000E+03 0.  0.
    8880022    1    1    2    0    0  0.34307029719E+03 -0.31452670502E+03  0.35223739700E+03  0.60339631574E+03  0.15294330000E+03 0. -1.
<mgrwt>
<rscale>  0 0.48991421E+03</rscale>
<asrwt>0</asrwt>
<pdfrwt beam="1">  1        1 0.90118695E-01 0.48991421E+03</pdfrwt>
<pdfrwt beam="2">  1       -1 0.10483157E+00 0.48991421E+03</pdfrwt>
<totfact> 0.32024462E+01</totfact>
</mgrwt>
</event>
<event>
 4    1  0.1852677E-008  0.9311990E+03  0.7818608E-02  0.9387400E-01
         -1   -1    0    0    0  501 -0.00000000000E+00  0.00000000000E+00  0.96838607482E+03  0.96838607483E+03  0.50400000000E-02 0.  1.
          1   -1    0    0  501    0  0.00000000000E+00 -0.00000000000E+00 -0.16642716087E+04  0.16642716087E+04  0.50400000000E-02 0. -1.
    8880022    1    1    2    0    0  0.61612733628E+03  0.68126869520E+03  0.54673763215E+03  0.10798396274E+04  0.15294330000E+03 0.  0.
    8880022    1    1    2    0    0 -0.61612733628E+03 -0.68126869520E+03 -0.12426231660E+04  0.15528180561E+04  0.15294330000E+03 0.  0.
<mgrwt>
<rscale>  0 0.93119900E+03</rscale>
<asrwt>0</asrwt>
<pdfrwt beam="1">  1        1 0.25604179E+00 0.93119900E+03</pdfrwt>
<pdfrwt beam="2">  1       -1 0.14898247E+00 0.93119900E+03</pdfrwt>
<totfact> 0.18228469E+00</totfact>
</mgrwt>
</event>
<event>
 4    1  0.1852677E-008  0.5772173E+03  0.7818608E-02  0.9953834E-01
         -1   -1    0    0    0  501 -0.00000000000E+00  0.00000000000E+00  0.24528620937E+03  0.24528620943E+03  0.50400000000E-02 0.  1.
          1   -1    0    0  501    0  0.00000000000E+00 -0.00000000000E+00 -0.19388870437E+04  0.19388870437E+04  0.50400000000E-02 0. -1.
    8880022    1    1    2    0    0 -0.49241045039E+03 -0.25946113462E+03 -0.24921082181E+03  0.62871759857E+03  0.15294330000E+03 0.  0.
    8880022    1    1    2    0    0  0.49241045039E+03  0.25946113462E+03 -0.14443900125E+04  0.15554556545E+04  0.15294330000E+03 0.  0.
<mgrwt>
<rscale>  0 0.57721728E+03</rscale>
<asrwt>0</asrwt>
<pdfrwt beam="1">  1        1 0.29829030E+00 0.57721728E+03</pdfrwt>
<pdfrwt beam="2">  1       -1 0.37736341E-01 0.57721728E+03</pdfrwt>
<totfact> 0.23700350E+01</totfact>
</mgrwt>
</event>
<event>
 4    1  0.1852677E-008  0.2176956E+03  0.7818608E-02  0.1135613E+00
         -1   -1    0    0    0  501 -0.00000000000E+00  0.00000000000E+00  0.37105734423E+03  0.37105734426E+03  0.50400000000E-02 0.  1.
          1   -1    0    0  501    0  0.00000000000E+00 -0.00000000000E+00 -0.17548029456E+04  0.17548029456E+04  0.50400000000E-02 0. -1.
    8880022    1    1    2    0    0  0.14531742563E+03 -0.53689586522E+02 -0.17153906398E+04  0.17291490468E+04  0.15294330000E+03 0.  0.
    8880022    1    1    2    0    0 -0.14531742563E+03  0.53689586522E+02  0.33164503840E+03  0.39671124310E+03  0.15294330000E+03 0.  1.
<mgrwt>
<rscale>  0 0.21769561E+03</rscale>
<asrwt>0</asrwt>
<pdfrwt beam="1">  1        1 0.26996968E+00 0.21769561E+03</pdfrwt>
<pdfrwt beam="2">  1       -1 0.57085746E-01 0.21769561E+03</pdfrwt>
<totfact> 0.16243017E+01</totfact>
</mgrwt>
</event>
<event>
 4    1  0.1852677E-008  0.3223794E+03  0.7818608E-02  0.1074559E+00
          1   -1    0    0  501    0  0.00000000000E+00  0.00000000000E+00  0.72989224512E+03  0.72989224513E+03  0.50400000000E-02 0. -1.
         -1   -1    0    0    0  501 -0.00000000000E+00 -0.00000000000E+00 -0.72730009274E+03  0.72730009276E+03  0.50400000000E-02 0.  1.
    8880022    1    1    2    0    0 -0.28252580642E+03 -0.26758041444E+02  0.65468996309E+03  0.72975847022E+03  0.15294330000E+03 0. -1.
    8880022    1    1    2    0    0  0.28252580642E+03  0.26758041444E+02 -0.65209781072E+03  0.72743386767E+03  0.15294330000E+03 0.  0.
<mgrwt>
<rscale>  0 0.32237940E+03</rscale>
<asrwt>0</asrwt>
<pdfrwt beam="1">  1        1 0.11229111E+00 0.32237940E+03</pdfrwt>
<pdfrwt beam="2">  1       -1 0.11189232E+00 0.32237940E+03</pdfrwt>
<totfact> 0.20705036E+01</totfact>
</mgrwt>
</event>
<event>
 4    1  0.1852677E-008  0.9343500E+03  0.7818608E-02  0.9383632E-01
          1   -1    0    0  501    0  0.00000000000E+00  0.00000000000E+00  0.21753113362E+04  0.21753113362E+04  0.50400000000E-02 0. -1.
         -1   -1    0    0    0  501 -0.00000000000E+00 -0.00000000000E+00 -0.53316710115E+03  0.53316710117E+03  0.50400000000E-02 0.  1.
    8880022    1    1    2    0    0  0.31604390664E+03  0.86587211918E+03  0.14944958525E+04  0.17625344773E+04  0.15294330000E+03 0.  0.
    8880022    1    1    2    0    0 -0.31604390664E+03 -0.86587211918E+03  0.14764838261E+03  0.94594396007E+03  0.15294330000E+03 0.  0.
<mgrwt>
<rscale>  0 0.93435000E+03</rscale>
<asrwt>0</asrwt>
<pdfrwt beam="1">  1        1 0.33466328E+00 0.93435000E+03</pdfrwt>
<pdfrwt beam="2">  1       -1 0.82025708E-01 0.93435000E+03</pdfrwt>
<totfact> 0.34263711E+00</totfact>
</mgrwt>
</event>
<event>
 4    1  0.1852677E-008  0.1008633E+04  0.7818608E-02  0.9299127E-01
          1   -1    0    0  501    0  0.00000000000E+00  0.00000000000E+00  0.17606046146E+04  0.17606046146E+04  0.50400000000E-02 0. -1.
         -1   -1    0    0    0  501 -0.00000000000E+00 -0.00000000000E+00 -0.11900330641E+04  0.11900330641E+04  0.50400000000E-02 0.  1.
    8880022    1    1    2    0    0  0.93053056661E+03  0.35785684639E+03 -0.77287602531E+03  0.12706996740E+04  0.15294330000E+03 0.  0.
    8880022    1    1    2    0    0 -0.93053056661E+03 -0.35785684639E+03  0.13434475758E+04  0.16799380048E+04  0.15294330000E+03 0.  0.
<mgrwt>
<rscale>  0 0.10086329E+04</rscale>
<asrwt>0</asrwt>
<pdfrwt beam="1">  1        1 0.27086225E+00 0.10086329E+04</pdfrwt>
<pdfrwt beam="2">  1       -1 0.18308201E+00 0.10086329E+04</pdfrwt>
<totfact> 0.86368825E-01</totfact>
</mgrwt>
</event>
<event>
 4    1  0.1852677E-008  0.3967590E+03  0.7818608E-02  0.1044908E+00
          1   -1    0    0  501    0  0.00000000000E+00  0.00000000000E+00  0.45278170598E+03  0.45278170601E+03  0.50400000000E-02 0. -1.
         -1   -1    0    0    0  501 -0.00000000000E+00 -0.00000000000E+00 -0.72158620297E+03  0.72158620299E+03  0.50400000000E-02 0.  1.
    8880022    1    1    2    0    0  0.29176134378E+03 -0.22113658435E+03 -0.55708872746E+03  0.68393389588E+03  0.15294330000E+03 0.  0.
    8880022    1    1    2    0    0 -0.29176134378E+03  0.22113658435E+03  0.28828423047E+03  0.49043401311E+03  0.15294330000E+03 0.  0.
<mgrwt>
<rscale>  0 0.39675902E+03</rscale>
<asrwt>0</asrwt>
<pdfrwt beam="1">  1        1 0.69658724E-01 0.39675902E+03</pdfrwt>
<pdfrwt beam="2">  1       -1 0.11101326E+00 0.39675902E+03</pdfrwt>
<totfact> 0.40452368E+01</totfact>
</mgrwt>
</event>
<event>
 4    1  0.1852677E-008  0.7633058E+03  0.7818608E-02  0.9614704E-01
          1   -1    0    0  501    0  0.00000000000E+00  0.00000000000E+00  0.32786663940E+04  0.32786663941E+04  0.50400000000E-02 0. -1.
         -1   -1    0    0    0  501 -0.00000000000E+00 -0.00000000000E+00 -0.22845117256E+03  0.22845117261E+03  0.50400000000E-02 0.  1.
    8880022    1    1    2    0    0 -0.72529558928E+03  0.18218234168E+03  0.23515733161E+04  0.24723536987E+04  0.15294330000E+03 0.  0.
    8880022    1    1    2    0    0  0.72529558928E+03 -0.18218234168E+03  0.69864190535E+03  0.10347638679E+04  0.15294330000E+03 0.  0.
<mgrwt>
<rscale>  0 0.76330580E+03</rscale>
<asrwt>0</asrwt>
<pdfrwt beam="1">  1        1 0.50441024E+00 0.76330580E+03</pdfrwt>
<pdfrwt beam="2">  1       -1 0.35146333E-01 0.76330580E+03</pdfrwt>
<totfact> 0.30681985E+00</totfact>
</mgrwt>
</event>
<event>
 4    1  0.1852677E-008  0.6189010E+03  0.7818608E-02  0.9866950E-01
          1   -1    0    0  501    0  0.00000000000E+00  0.00000000000E+00  0.59309803046E+03  0.59309803048E+03  0.50400000000E-02 0. -1.
         -1   -1    0    0    0  501 -0.00000000000E+00 -0.00000000000E+00 -0.65005211636E+03  0.65005211638E+03  0.50400000000E-02 0.  1.
    8880022    1    1    2    0    0 -0.34728363030E+03  0.48891807713E+03 -0.78591335299E+02  0.62387102595E+03  0.15294330000E+03 0.  0.
    8880022    1    1    2    0    0  0.34728363030E+03 -0.48891807713E+03  0.21637249401E+02  0.61927912091E+03  0.15294330000E+03 0.  0.
<mgrwt>
<rscale>  0 0.61890101E+03</rscale>
<asrwt>0</asrwt>
<pdfrwt beam="1">  1        1 0.91245850E-01 0.61890101E+03</pdfrwt>
<pdfrwt beam="2">  1       -1 0.10000802E+00 0.61890101E+03</pdfrwt>
<totfact> 0.34450038E+01</totfact>
</mgrwt>
</event>
<event>
 4    1  0.1852677E-008  0.3411590E+03  0.7818608E-02  0.1066303E+00
         -1   -1    0    0    0  501 -0.00000000000E+00  0.00000000000E+00  0.18305601771E+03  0.18305601778E+03  0.50400000000E-02 0.  1.
          1   -1    0    0  501    0  0.00000000000E+00 -0.00000000000E+00 -0.87190216414E+03  0.87190216415E+03  0.50400000000E-02 0. -1.
    8880022    1    1    2    0    0  0.29261697936E+03  0.85866999178E+02 -0.61890194469E+03  0.70670298451E+03  0.15294330000E+03 0.  0.
    8880022    1    1    2    0    0 -0.29261697936E+03 -0.85866999178E+02 -0.69944201738E+02  0.34825519742E+03  0.15294330000E+03 0.  1.
<mgrwt>
<rscale>  0 0.34115904E+03</rscale>
<asrwt>0</asrwt>
<pdfrwt beam="1">  1        1 0.13413879E+00 0.34115904E+03</pdfrwt>
<pdfrwt beam="2">  1       -1 0.28162465E-01 0.34115904E+03</pdfrwt>
<totfact> 0.22893449E+02</totfact>
</mgrwt>
</event>
<event>
 4    1  0.1993895E-008  0.1014456E+04  0.7818608E-02  0.9292831E-01
         -1   -1    0    0    0  501 -0.00000000000E+00  0.00000000000E+00  0.13089393792E+04  0.13089393792E+04  0.50400000000E-02 0.  1.
          1   -1    0    0  501    0  0.00000000000E+00 -0.00000000000E+00 -0.30364511249E+04  0.30364511249E+04  0.50400000000E-02 0. -1.
    8880022    1    1    2    0    0  0.10025749153E+04  0.23916010827E+02  0.10066196316E+04  0.14291267166E+04  0.15294330000E+03 0.  0.
    8880022    1    1    2    0    0 -0.10025749153E+04 -0.23916010827E+02 -0.27341313774E+04  0.29162637875E+04  0.15294330000E+03 0.  0.
<mgrwt>
<rscale>  0 0.10144556E+04</rscale>
<asrwt>0</asrwt>
<pdfrwt beam="1">  1        1 0.46714633E+00 0.10144556E+04</pdfrwt>
<pdfrwt beam="2">  1       -1 0.20137529E+00 0.10144556E+04</pdfrwt>
<totfact> 0.85037352E-02</totfact>
</mgrwt>
</event>
<event>
 4    1  0.1852677E-008  0.5375599E+03  0.7818608E-02  0.1004415E+00
          1   -1    0    0  501    0  0.00000000000E+00  0.00000000000E+00  0.71149375158E+03  0.71149375160E+03  0.50400000000E-02 0. -1.
         -1   -1    0    0    0  501 -0.00000000000E+00 -0.00000000000E+00 -0.24809583572E+04  0.24809583572E+04  0.50400000000E-02 0.  1.
    8880022    1    1    2    0    0  0.51143737571E+03  0.63330921557E+02  0.57500271259E+03  0.78714596321E+03  0.15294330000E+03 0. -1.
    8880022    1    1    2    0    0 -0.51143737571E+03 -0.63330921557E+02 -0.23444673182E+04  0.24053061456E+04  0.15294330000E+03 0.  0.
<mgrwt>
<rscale>  0 0.53755990E+03</rscale>
<asrwt>0</asrwt>
<pdfrwt beam="1">  1        1 0.10946058E+00 0.53755990E+03</pdfrwt>
<pdfrwt beam="2">  1       -1 0.38168590E+00 0.53755990E+03</pdfrwt>
<totfact> 0.28809829E-01</totfact>
</mgrwt>
</event>
<event>
 4    1  0.1852677E-008  0.7943915E+03  0.7818608E-02  0.9568171E-01
          1   -1    0    0  501    0  0.00000000000E+00  0.00000000000E+00  0.25275556559E+04  0.25275556560E+04  0.50400000000E-02 0. -1.
         -1   -1    0    0    0  501 -0.00000000000E+00 -0.00000000000E+00 -0.31019187075E+03  0.31019187079E+03  0.50400000000E-02 0.  1.
    8880022    1    1    2    0    0  0.51559624344E+03 -0.58465952250E+03  0.17354117108E+04  0.19085889296E+04  0.15294330000E+03 0. -1.
    8880022    1    1    2    0    0 -0.51559624344E+03  0.58465952250E+03  0.48195207444E+03  0.92915859710E+03  0.15294330000E+03 0.  0.
<mgrwt>
<rscale>  0 0.79439153E+03</rscale>
<asrwt>0</asrwt>
<pdfrwt beam="1">  1        1 0.38885471E+00 0.79439153E+03</pdfrwt>
<pdfrwt beam="2">  1       -1 0.47721827E-01 0.79439153E+03</pdfrwt>
<totfact> 0.59687516E+00</totfact>
</mgrwt>
</event>
<event>
 4    1  0.1852677E-008  0.5222669E+03  0.7818608E-02  0.1008125E+00
         -1   -1    0    0    0  501 -0.00000000000E+00  0.00000000000E+00  0.51979558312E+03  0.51979558314E+03  0.50400000000E-02 0.  1.
          1   -1    0    0  501    0  0.00000000000E+00 -0.00000000000E+00 -0.89676888611E+03  0.89676888613E+03  0.50400000000E-02 0. -1.
    8880022    1    1    2    0    0 -0.48320464339E+03  0.12603298672E+03  0.26770635140E+03  0.58688106523E+03  0.15294330000E+03 0.  0.
    8880022    1    1    2    0    0  0.48320464339E+03 -0.12603298672E+03 -0.64467965439E+03  0.82968340404E+03  0.15294330000E+03 0.  0.
<mgrwt>
<rscale>  0 0.52226688E+03</rscale>
<asrwt>0</asrwt>
<pdfrwt beam="1">  1        1 0.13796444E+00 0.52226688E+03</pdfrwt>
<pdfrwt beam="2">  1       -1 0.79968551E-01 0.52226688E+03</pdfrwt>
<totfact> 0.30218101E+01</totfact>
</mgrwt>
</event>
<event>
 4    1  0.1852677E-008  0.2044386E+03  0.7818608E-02  0.1146047E+00
         -1   -1    0    0    0  501 -0.00000000000E+00  0.00000000000E+00  0.22169999465E+03  0.22169999471E+03  0.50400000000E-02 0.  1.
          1   -1    0    0  501    0  0.00000000000E+00 -0.00000000000E+00 -0.18892154686E+03  0.18892154693E+03  0.50400000000E-02 0. -1.
    8880022    1    1    2    0    0  0.64594823886E+02 -0.11929366864E+03  0.25841824622E+02  0.20606533810E+03  0.15294330000E+03 0.  1.
    8880022    1    1    2    0    0 -0.64594823886E+02  0.11929366864E+03  0.69366231634E+01  0.20455620354E+03  0.15294330000E+03 0. -1.
<mgrwt>
<rscale>  0 0.20443856E+03</rscale>
<asrwt>0</asrwt>
<pdfrwt beam="1">  1        1 0.29064853E-01 0.20443856E+03</pdfrwt>
<pdfrwt beam="2">  1       -1 0.34107691E-01 0.20443856E+03</pdfrwt>
<totfact> 0.12835694E+03</totfact>
</mgrwt>
</event>
<event>
 4    1  0.1852677E-008  0.7254815E+03  0.7818608E-02  0.9674621E-01
         -1   -1    0    0    0  501 -0.00000000000E+00  0.00000000000E+00  0.15319198665E+04  0.15319198665E+04  0.50400000000E-02 0.  1.
          1   -1    0    0  501    0  0.00000000000E+00 -0.00000000000E+00 -0.63427225533E+03  0.63427225535E+03  0.50400000000E-02 0. -1.
    8880022    1    1    2    0    0  0.58322406649E+03  0.40346176561E+03  0.11820745521E+04  0.13869475866E+04  0.15294330000E+03 0.  0.
    8880022    1    1    2    0    0 -0.58322406649E+03 -0.40346176561E+03 -0.28442694096E+03  0.77924453530E+03  0.15294330000E+03 0.  0.
<mgrwt>
<rscale>  0 0.72548147E+03</rscale>
<asrwt>0</asrwt>
<pdfrwt beam="1">  1        1 0.97580346E-01 0.72548147E+03</pdfrwt>
<pdfrwt beam="2">  1       -1 0.23567998E+00 0.72548147E+03</pdfrwt>
<totfact> 0.28608250E+00</totfact>
</mgrwt>
</event>
<event>
 4    1  0.1852677E-008  0.1789587E+03  0.7818608E-02  0.1168815E+00
         -1   -1    0    0    0  501 -0.00000000000E+00  0.00000000000E+00  0.77899269414E+02  0.77899269577E+02  0.50400000000E-02 0.  1.
          1   -1    0    0  501    0  0.00000000000E+00 -0.00000000000E+00 -0.54075159614E+03  0.54075159617E+03  0.50400000000E-02 0. -1.
    8880022    1    1    2    0    0  0.15208367300E+02  0.91669317830E+02 -0.79977135411E+02  0.19601671732E+03  0.15294330000E+03 0.  1.
    8880022    1    1    2    0    0 -0.15208367300E+02 -0.91669317830E+02 -0.38287519132E+03  0.42263414842E+03  0.15294330000E+03 0.  0.
<mgrwt>
<rscale>  0 0.17895869E+03</rscale>
<asrwt>0</asrwt>
<pdfrwt beam="1">  1        1 0.83192551E-01 0.17895869E+03</pdfrwt>
<pdfrwt beam="2">  1       -1 0.11984503E-01 0.17895869E+03</pdfrwt>
<totfact> 0.18478584E+03</totfact>
</mgrwt>
</event>
<event>
 4    1  0.1852677E-008  0.3963365E+03  0.7818608E-02  0.1045056E+00
          1   -1    0    0  501    0  0.00000000000E+00  0.00000000000E+00  0.19126799029E+04  0.19126799029E+04  0.50400000000E-02 0. -1.
         -1   -1    0    0    0  501 -0.00000000000E+00 -0.00000000000E+00 -0.29275443543E+03  0.29275443547E+03  0.50400000000E-02 0.  1.
    8880022    1    1    2    0    0  0.12313618943E+02  0.36543031275E+03 -0.12537811769E+03  0.41569491709E+03  0.15294330000E+03 0.  0.
    8880022    1    1    2    0    0 -0.12313618943E+02 -0.36543031275E+03  0.17453035851E+04  0.17897394213E+04  0.15294330000E+03 0.  0.
<mgrwt>
<rscale>  0 0.39633646E+03</rscale>
<asrwt>0</asrwt>
<pdfrwt beam="1">  1        1 0.29425845E+00 0.39633646E+03</pdfrwt>
<pdfrwt beam="2">  1       -1 0.45039143E-01 0.39633646E+03</pdfrwt>
<totfact> 0.18628839E+01</totfact>
</mgrwt>
</event>
<event>
 4    1  0.1852677E-008  0.5597703E+03  0.7818608E-02  0.9992575E-01
         -1   -1    0    0    0  501 -0.00000000000E+00  0.00000000000E+00  0.13138559909E+04  0.13138559910E+04  0.50400000000E-02 0.  1.
          1   -1    0    0  501    0  0.00000000000E+00 -0.00000000000E+00 -0.88544451230E+03  0.88544451231E+03  0.50400000000E-02 0. -1.
    8880022    1    1    2    0    0  0.10672470176E+03 -0.52778872703E+03  0.11541680906E+04  0.12827496781E+04  0.15294330000E+03 0.  0.
    8880022    1    1    2    0    0 -0.10672470176E+03  0.52778872703E+03 -0.72575661193E+03  0.91655082517E+03  0.15294330000E+03 0.  0.
<mgrwt>
<rscale>  0 0.55977027E+03</rscale>
<asrwt>0</asrwt>
<pdfrwt beam="1">  1        1 0.13622223E+00 0.55977027E+03</pdfrwt>
<pdfrwt beam="2">  1       -1 0.20213169E+00 0.55977027E+03</pdfrwt>
<totfact> 0.29402672E+00</totfact>
</mgrwt>
</event>
<event>
 4    1  0.1852677E-008  0.1164545E+04  0.7818608E-02  0.9144469E-01
          1   -1    0    0  501    0  0.00000000000E+00  0.00000000000E+00  0.17771751605E+04  0.17771751605E+04  0.50400000000E-02 0. -1.
         -1   -1    0    0    0  501 -0.00000000000E+00 -0.00000000000E+00 -0.10820851726E+04  0.10820851726E+04  0.50400000000E-02 0.  1.
    8880022    1    1    2    0    0  0.11526387552E+04 -0.64789234094E+02  0.11237511217E+04  0.16183269080E+04  0.15294330000E+03 0.  0.
    8880022    1    1    2    0    0 -0.11526387552E+04  0.64789234094E+02 -0.42866113372E+03  0.12409334250E+04  0.15294330000E+03 0.  0.
<mgrwt>
<rscale>  0 0.11645451E+04</rscale>
<asrwt>0</asrwt>
<pdfrwt beam="1">  1        1 0.27341156E+00 0.11645451E+04</pdfrwt>
<pdfrwt beam="2">  1       -1 0.16647464E+00 0.11645451E+04</pdfrwt>
<totfact> 0.10873503E+00</totfact>
</mgrwt>
</event>
<event>
 4    1  0.1852677E-008  0.4515556E+03  0.7818608E-02  0.1027259E+00
          1   -1    0    0  501    0  0.00000000000E+00  0.00000000000E+00  0.17921256973E+04  0.17921256973E+04  0.50400000000E-02 0. -1.
         -1   -1    0    0    0  501 -0.00000000000E+00 -0.00000000000E+00 -0.79874653699E+03  0.79874653700E+03  0.50400000000E-02 0.  1.
    8880022    1    1    2    0    0 -0.42352041645E+03 -0.33783168739E+02 -0.70294000768E+03  0.83548019310E+03  0.15294330000E+03 0.  1.
    8880022    1    1    2    0    0  0.42352041645E+03  0.33783168739E+02  0.16963191679E+04  0.17553920412E+04  0.15294330000E+03 0.  0.
<mgrwt>
<rscale>  0 0.45155564E+03</rscale>
<asrwt>0</asrwt>
<pdfrwt beam="1">  1        1 0.27571164E+00 0.45155564E+03</pdfrwt>
<pdfrwt beam="2">  1       -1 0.12288408E+00 0.45155564E+03</pdfrwt>
<totfact> 0.27200662E+00</totfact>
</mgrwt>
</event>
<event>
 4    1  0.1852677E-008  0.3677619E+03  0.7818608E-02  0.1055552E+00
          1   -1    0    0  501    0  0.00000000000E+00  0.00000000000E+00  0.83398693385E+03  0.83398693387E+03  0.50400000000E-02 0. -1.
         -1   -1    0    0    0  501 -0.00000000000E+00 -0.00000000000E+00 -0.28670462876E+03  0.28670462881E+03  0.50400000000E-02 0.  1.
    8880022    1    1    2    0    0  0.26973686562E+03 -0.19773507033E+03 -0.95660681098E+02  0.37999967584E+03  0.15294330000E+03 0.  1.
    8880022    1    1    2    0    0 -0.26973686562E+03  0.19773507033E+03  0.64294298619E+03  0.74069188683E+03  0.15294330000E+03 0.  0.
<mgrwt>
<rscale>  0 0.36776186E+03</rscale>
<asrwt>0</asrwt>
<pdfrwt beam="1">  1        1 0.12830568E+00 0.36776186E+03</pdfrwt>
<pdfrwt beam="2">  1       -1 0.44108406E-01 0.36776186E+03</pdfrwt>
<totfact> 0.11128229E+02</totfact>
</mgrwt>
</event>
<event>
 4    1  0.1852677E-008  0.7525875E+03  0.7818608E-02  0.9631300E-01
          1   -1    0    0  501    0  0.00000000000E+00  0.00000000000E+00  0.19018394850E+04  0.19018394850E+04  0.50400000000E-02 0. -1.
         -1   -1    0    0    0  501 -0.00000000000E+00 -0.00000000000E+00 -0.71392520587E+03  0.71392520588E+03  0.50400000000E-02 0.  1.
    8880022    1    1    2    0    0 -0.42228670062E+03  0.60387933838E+03  0.15924588144E+04  0.17613384233E+04  0.15294330000E+03 0.  0.
    8880022    1    1    2    0    0  0.42228670062E+03 -0.60387933838E+03 -0.40454453521E+03  0.85442626764E+03  0.15294330000E+03 0.  0.
<mgrwt>
<rscale>  0 0.75258751E+03</rscale>
<asrwt>0</asrwt>
<pdfrwt beam="1">  1        1 0.29259069E+00 0.75258751E+03</pdfrwt>
<pdfrwt beam="2">  1       -1 0.10983465E+00 0.75258751E+03</pdfrwt>
<totfact> 0.27955902E+00</totfact>
</mgrwt>
</event>
<event>
 4    1  0.1852677E-008  0.2823426E+03  0.7818608E-02  0.1094416E+00
          1   -1    0    0  501    0  0.00000000000E+00  0.00000000000E+00  0.55695419524E+03  0.55695419527E+03  0.50400000000E-02 0. -1.
         -1   -1    0    0    0  501 -0.00000000000E+00 -0.00000000000E+00 -0.48275880003E+03  0.48275880006E+03  0.50400000000E-02 0.  1.
    8880022    1    1    2    0    0 -0.19778690450E+03  0.13117176737E+03  0.47313140999E+03  0.55097248233E+03  0.15294330000E+03 0. -1.
    8880022    1    1    2    0    0  0.19778690450E+03 -0.13117176737E+03 -0.39893601478E+03  0.48874051300E+03  0.15294330000E+03 0.  0.
<mgrwt>
<rscale>  0 0.28234260E+03</rscale>
<asrwt>0</asrwt>
<pdfrwt beam="1">  1        1 0.85685260E-01 0.28234260E+03</pdfrwt>
<pdfrwt beam="2">  1       -1 0.74270585E-01 0.28234260E+03</pdfrwt>
<totfact> 0.75004866E+01</totfact>
</mgrwt>
</event>
<event>
 4    1  0.2899481E-008  0.8939503E+03  0.7818608E-02  0.9433176E-01
          1   -1    0    0  501    0  0.00000000000E+00  0.00000000000E+00  0.14547989390E+04  0.14547989390E+04  0.50400000000E-02 0. -1.
         -1   -1    0    0    0  501 -0.00000000000E+00 -0.00000000000E+00 -0.18466866857E+04  0.18466866857E+04  0.50400000000E-02 0.  1.
    8880022    1    1    2    0    0 -0.58885168542E+03  0.65498797396E+03  0.11876687507E+04  0.14865074059E+04  0.15294330000E+03 0.  0.
    8880022    1    1    2    0    0  0.58885168542E+03 -0.65498797396E+03 -0.15795564974E+04  0.18149782188E+04  0.15294330000E+03 0.  0.
<mgrwt>
<rscale>  0 0.89395034E+03</rscale>
<asrwt>0</asrwt>
<pdfrwt beam="1">  1        1 0.22381522E+00 0.89395034E+03</pdfrwt>
<pdfrwt beam="2">  1       -1 0.28410564E+00 0.89395034E+03</pdfrwt>
<totfact> 0.30471104E-01</totfact>
</mgrwt>
</event>
<event>
 4    1  0.1852677E-008  0.8898336E+03  0.7818608E-02  0.9438380E-01
          1   -1    0    0  501    0  0.00000000000E+00  0.00000000000E+00  0.17090720731E+04  0.17090720731E+04  0.50400000000E-02 0. -1.
         -1   -1    0    0    0  501 -0.00000000000E+00 -0.00000000000E+00 -0.47162172934E+03  0.47162172937E+03  0.50400000000E-02 0.  1.
    8880022    1    1    2    0    0  0.57160933708E+03 -0.66458624049E+03  0.47384230333E+03  0.10081320780E+04  0.15294330000E+03 0.  0.
    8880022    1    1    2    0    0 -0.57160933708E+03  0.66458624049E+03  0.76360804044E+03  0.11725617245E+04  0.15294330000E+03 0.  0.
<mgrwt>
<rscale>  0 0.88983356E+03</rscale>
<asrwt>0</asrwt>
<pdfrwt beam="1">  1        1 0.26293417E+00 0.88983356E+03</pdfrwt>
<pdfrwt beam="2">  1       -1 0.72557188E-01 0.88983356E+03</pdfrwt>
<totfact> 0.91942659E+00</totfact>
</mgrwt>
</event>
<event>
 4    1  0.1852677E-008  0.7291497E+03  0.7818608E-02  0.9668641E-01
         -1   -1    0    0    0  501 -0.00000000000E+00  0.00000000000E+00  0.40610013077E+03  0.40610013080E+03  0.50400000000E-02 0.  1.
          1   -1    0    0  501    0  0.00000000000E+00 -0.00000000000E+00 -0.14934351245E+04  0.14934351245E+04  0.50400000000E-02 0. -1.
    8880022    1    1    2    0    0 -0.11689391165E+02 -0.71283308256E+03 -0.87727106930E+03  0.11407295155E+04  0.15294330000E+03 0.  0.
    8880022    1    1    2    0    0  0.11689391165E+02  0.71283308256E+03 -0.21006392446E+03  0.75880573985E+03  0.15294330000E+03 0.  0.
<mgrwt>
<rscale>  0 0.72914971E+03</rscale>
<asrwt>0</asrwt>
<pdfrwt beam="1">  1        1 0.22975925E+00 0.72914971E+03</pdfrwt>
<pdfrwt beam="2">  1       -1 0.62476944E-01 0.72914971E+03</pdfrwt>
<totfact> 0.17833004E+01</totfact>
</mgrwt>
</event>
<event>
 4    1  0.1852677E-008  0.7359800E+03  0.7818608E-02  0.9657606E-01
          1   -1    0    0  501    0  0.00000000000E+00  0.00000000000E+00  0.21550548152E+04  0.21550548152E+04  0.50400000000E-02 0. -1.
         -1   -1    0    0    0  501 -0.00000000000E+00 -0.00000000000E+00 -0.44489259195E+03  0.44489259198E+03  0.50400000000E-02 0.  1.
    8880022    1    1    2    0    0 -0.50844585831E+03 -0.50966430907E+03  0.17125110198E+04  0.18639636651E+04  0.15294330000E+03 0.  0.
    8880022    1    1    2    0    0  0.50844585831E+03  0.50966430907E+03 -0.23487965621E+01  0.73598374210E+03  0.15294330000E+03 0.  0.
<mgrwt>
<rscale>  0 0.73597999E+03</rscale>
<asrwt>0</asrwt>
<pdfrwt beam="1">  1        1 0.33154689E+00 0.73597999E+03</pdfrwt>
<pdfrwt beam="2">  1       -1 0.68445014E-01 0.73597999E+03</pdfrwt>
<totfact> 0.53278143E+00</totfact>
</mgrwt>
</event>
<event>
 4    1  0.1852677E-008  0.7063251E+03  0.7818608E-02  0.9706476E-01
          1   -1    0    0  501    0  0.00000000000E+00  0.00000000000E+00  0.35426938940E+04  0.35426938940E+04  0.50400000000E-02 0. -1.
         -1   -1    0    0    0  501 -0.00000000000E+00 -0.00000000000E+00 -0.23854096044E+03  0.23854096049E+03  0.50400000000E-02 0.  1.
    8880022    1    1    2    0    0 -0.27789030545E+03 -0.63109471313E+03  0.44201383944E+03  0.83322952784E+03  0.15294330000E+03 0.  0.
    8880022    1    1    2    0    0  0.27789030545E+03  0.63109471313E+03  0.28621390941E+04  0.29480053266E+04  0.15294330000E+03 0.  0.
<mgrwt>
<rscale>  0 0.70632515E+03</rscale>
<asrwt>0</asrwt>
<pdfrwt beam="1">  1        1 0.54502979E+00 0.70632515E+03</pdfrwt>
<pdfrwt beam="2">  1       -1 0.36698612E-01 0.70632515E+03</pdfrwt>
<totfact> 0.18090865E+00</totfact>
</mgrwt>
</event>
<event>
 4    1  0.1852677E-008  0.5802662E+03  0.7818608E-02  0.9947215E-01
         -1   -1    0    0    0  501 -0.00000000000E+00  0.00000000000E+00  0.20119954363E+04  0.20119954363E+04  0.50400000000E-02 0.  1.
          1   -1    0    0  501    0  0.00000000000E+00 -0.00000000000E+00 -0.20080469125E+03  0.20080469131E+03  0.50400000000E-02 0. -1.
    8880022    1    1    2    0    0  0.55106337121E+03 -0.98215806418E+02  0.45400023191E+03  0.73676661658E+03  0.15294330000E+03 0.  0.
    8880022    1    1    2    0    0 -0.55106337121E+03  0.98215806418E+02  0.13571905131E+04  0.14760335110E+04  0.15294330000E+03 0.  0.
<mgrwt>
<rscale>  0 0.58026618E+03</rscale>
<asrwt>0</asrwt>
<pdfrwt beam="1">  1        1 0.30893031E-01 0.58026618E+03</pdfrwt>
<pdfrwt beam="2">  1       -1 0.30953775E+00 0.58026618E+03</pdfrwt>
<totfact> 0.45595331E+00</totfact>
</mgrwt>
</event>
<event>
 4    1  0.1852677E-008  0.9984390E+03  0.7818608E-02  0.9310259E-01
          1   -1    0    0  501    0  0.00000000000E+00  0.00000000000E+00  0.87868344672E+03  0.87868344673E+03  0.50400000000E-02 0. -1.
         -1   -1    0    0    0  501 -0.00000000000E+00 -0.00000000000E+00 -0.12450960442E+04  0.12450960442E+04  0.50400000000E-02 0.  1.
    8880022    1    1    2    0    0 -0.94866987884E+03  0.27113515177E+03  0.13325186619E+03  0.10072916769E+04  0.15294330000E+03 0.  0.
    8880022    1    1    2    0    0  0.94866987884E+03 -0.27113515177E+03 -0.49966446365E+03  0.11164878140E+04  0.15294330000E+03 0.  0.
<mgrwt>
<rscale>  0 0.99843901E+03</rscale>
<asrwt>0</asrwt>
<pdfrwt beam="1">  1        1 0.13518207E+00 0.99843901E+03</pdfrwt>
<pdfrwt beam="2">  1       -1 0.19155324E+00 0.99843901E+03</pdfrwt>
<totfact> 0.32778554E+00</totfact>
</mgrwt>
</event>
<event>
 4    1  0.1852677E-008  0.5257102E+03  0.7818608E-02  0.1007278E+00
          1   -1    0    0  501    0  0.00000000000E+00  0.00000000000E+00  0.10551036109E+04  0.10551036109E+04  0.50400000000E-02 0. -1.
         -1   -1    0    0    0  501 -0.00000000000E+00 -0.00000000000E+00 -0.77268126904E+03  0.77268126906E+03  0.50400000000E-02 0.  1.
    8880022    1    1    2    0    0  0.44690058791E+03 -0.23078005321E+03  0.88422418945E+03  0.10286999750E+04  0.15294330000E+03 0.  0.
    8880022    1    1    2    0    0 -0.44690058791E+03  0.23078005321E+03 -0.60180184762E+03  0.79908490490E+03  0.15294330000E+03 0.  1.
<mgrwt>
<rscale>  0 0.52571021E+03</rscale>
<asrwt>0</asrwt>
<pdfrwt beam="1">  1        1 0.16232363E+00 0.52571021E+03</pdfrwt>
<pdfrwt beam="2">  1       -1 0.11887404E+00 0.52571021E+03</pdfrwt>
<totfact> 0.93313696E+00</totfact>
</mgrwt>
</event>
<event>
 4    1  0.1852677E-008  0.2794594E+03  0.7818608E-02  0.1095985E+00
          1   -1    0    0  501    0  0.00000000000E+00  0.00000000000E+00  0.10698786843E+04  0.10698786843E+04  0.50400000000E-02 0. -1.
         -1   -1    0    0    0  501 -0.00000000000E+00 -0.00000000000E+00 -0.16144114153E+03  0.16144114161E+03  0.50400000000E-02 0.  1.
    8880022    1    1    2    0    0  0.23259562879E+03  0.24600325886E+02 -0.14708856706E+01  0.27946326965E+03  0.15294330000E+03 0.  0.
    8880022    1    1    2    0    0 -0.23259562879E+03 -0.24600325886E+02  0.90990842847E+03  0.95185655630E+03  0.15294330000E+03 0. -1.
<mgrwt>
<rscale>  0 0.27945940E+03</rscale>
<asrwt>0</asrwt>
<pdfrwt beam="1">  1        1 0.16459673E+00 0.27945940E+03</pdfrwt>
<pdfrwt beam="2">  1       -1 0.24837098E-01 0.27945940E+03</pdfrwt>
<totfact> 0.20133732E+02</totfact>
</mgrwt>
</event>
<event>
 4    1  0.1852677E-008  0.6211786E+03  0.7818608E-02  0.9862416E-01
          1   -1    0    0  501    0  0.00000000000E+00  0.00000000000E+00  0.13531580520E+04  0.13531580520E+04  0.50400000000E-02 0. -1.
         -1   -1    0    0    0  501 -0.00000000000E+00 -0.00000000000E+00 -0.32573786320E+03  0.32573786324E+03  0.50400000000E-02 0.  1.
    8880022    1    1    2    0    0  0.22946238851E+03 -0.55661318528E+03  0.81000129984E+03  0.10207668610E+04  0.15294330000E+03 0.  0.
    8880022    1    1    2    0    0 -0.22946238851E+03  0.55661318528E+03  0.21741888897E+03  0.65812905426E+03  0.15294330000E+03 0.  0.
<mgrwt>
<rscale>  0 0.62117862E+03</rscale>
<asrwt>0</asrwt>
<pdfrwt beam="1">  1        1 0.20817817E+00 0.62117862E+03</pdfrwt>
<pdfrwt beam="2">  1       -1 0.50113516E-01 0.62117862E+03</pdfrwt>
<totfact> 0.34675192E+01</totfact>
</mgrwt>
</event>
<event>
 4    1  0.1852677E-008  0.4608679E+03  0.7818608E-02  0.1024530E+00
          1   -1    0    0  501    0  0.00000000000E+00  0.00000000000E+00  0.19640371932E+04  0.19640371932E+04  0.50400000000E-02 0. -1.
         -1   -1    0    0    0  501 -0.00000000000E+00 -0.00000000000E+00 -0.23122000316E+03  0.23122000322E+03  0.50400000000E-02 0.  1.
    8880022    1    1    2    0    0  0.27463682421E+03  0.33701950315E+03  0.16672178696E+04  0.17297440875E+04  0.15294330000E+03 0.  0.
    8880022    1    1    2    0    0 -0.27463682421E+03 -0.33701950315E+03  0.65599320499E+02  0.46551310893E+03  0.15294330000E+03 0.  1.
<mgrwt>
<rscale>  0 0.46086786E+03</rscale>
<asrwt>0</asrwt>
<pdfrwt beam="1">  1        1 0.30215958E+00 0.46086786E+03</pdfrwt>
<pdfrwt beam="2">  1       -1 0.35572307E-01 0.46086786E+03</pdfrwt>
<totfact> 0.25933313E+01</totfact>
</mgrwt>
</event>
<event>
 4    1  0.1852677E-008  0.1950509E+04  0.7818608E-02  0.8630115E-01
          1   -1    0    0  501    0  0.00000000000E+00  0.00000000000E+00  0.49790697306E+04  0.49790697307E+04  0.50400000000E-02 0. -1.
         -1   -1    0    0    0  501 -0.00000000000E+00 -0.00000000000E+00 -0.15324813520E+04  0.15324813520E+04  0.50400000000E-02 0.  1.
    8880022    1    1    2    0    0 -0.30691545695E+02 -0.19442614175E+04  0.40286951120E+04  0.44760328851E+04  0.15294330000E+03 0.  0.
    8880022    1    1    2    0    0  0.30691545695E+02  0.19442614175E+04 -0.58210673335E+03  0.20355181976E+04  0.15294330000E+03 0.  0.
<mgrwt>
<rscale>  0 0.19505092E+04</rscale>
<asrwt>0</asrwt>
<pdfrwt beam="1">  1        1 0.76601072E+00 0.19505092E+04</pdfrwt>
<pdfrwt beam="2">  1       -1 0.23576636E+00 0.19505092E+04</pdfrwt>
<totfact> 0.72020639E-04</totfact>
</mgrwt>
</event>
<event>
 4    1  0.1852677E-008  0.7947507E+03  0.7818608E-02  0.9567646E-01
          1   -1    0    0  501    0  0.00000000000E+00  0.00000000000E+00  0.33349385163E+04  0.33349385163E+04  0.50400000000E-02 0. -1.
         -1   -1    0    0    0  501 -0.00000000000E+00 -0.00000000000E+00 -0.27247550878E+03  0.27247550883E+03  0.50400000000E-02 0.  1.
    8880022    1    1    2    0    0  0.65472595162E+03  0.42375814143E+03  0.25271998963E+04  0.26492202632E+04  0.15294330000E+03 0.  0.
    8880022    1    1    2    0    0 -0.65472595162E+03 -0.42375814143E+03  0.53526311125E+03  0.95819376195E+03  0.15294330000E+03 0.  0.
<mgrwt>
<rscale>  0 0.79475071E+03</rscale>
<asrwt>0</asrwt>
<pdfrwt beam="1">  1        1 0.51306747E+00 0.79475071E+03</pdfrwt>
<pdfrwt beam="2">  1       -1 0.41919309E-01 0.79475071E+03</pdfrwt>
<totfact> 0.20120796E+00</totfact>
</mgrwt>
</event>
<event>
 4    1  0.1852677E-008  0.8221523E+03  0.7818608E-02  0.9528495E-01
         -1   -1    0    0    0  501 -0.00000000000E+00  0.00000000000E+00  0.64497612055E+03  0.64497612057E+03  0.50400000000E-02 0.  1.
          1   -1    0    0  501    0  0.00000000000E+00 -0.00000000000E+00 -0.14441040469E+04  0.14441040469E+04  0.50400000000E-02 0. -1.
    8880022    1    1    2    0    0 -0.53444898525E+03  0.60572851328E+03  0.14749103921E+03  0.83527720506E+03  0.15294330000E+03 0.  0.
    8880022    1    1    2    0    0  0.53444898525E+03 -0.60572851328E+03 -0.94661896558E+03  0.12538029624E+04  0.15294330000E+03 0.  0.
<mgrwt>
<rscale>  0 0.82215230E+03</rscale>
<asrwt>0</asrwt>
<pdfrwt beam="1">  1        1 0.22216985E+00 0.82215230E+03</pdfrwt>
<pdfrwt beam="2">  1       -1 0.99227096E-01 0.82215230E+03</pdfrwt>
<totfact> 0.71376031E+00</totfact>
</mgrwt>
</event>
<event>
 4    1  0.1852677E-008  0.5276768E+03  0.7818608E-02  0.1006797E+00
          1   -1    0    0  501    0  0.00000000000E+00  0.00000000000E+00  0.16943069327E+04  0.16943069327E+04  0.50400000000E-02 0. -1.
         -1   -1    0    0    0  501 -0.00000000000E+00 -0.00000000000E+00 -0.55356754232E+03  0.55356754235E+03  0.50400000000E-02 0.  1.
    8880022    1    1    2    0    0  0.16339153344E+03 -0.47786436474E+03 -0.37208048729E+03  0.64566762837E+03  0.15294330000E+03 0.  0.
    8880022    1    1    2    0    0 -0.16339153344E+03  0.47786436474E+03  0.15128198777E+04  0.16022068467E+04  0.15294330000E+03 0.  0.
<mgrwt>
<rscale>  0 0.52767679E+03</rscale>
<asrwt>0</asrwt>
<pdfrwt beam="1">  1        1 0.26066260E+00 0.52767679E+03</pdfrwt>
<pdfrwt beam="2">  1       -1 0.85164238E-01 0.52767679E+03</pdfrwt>
<totfact> 0.71420904E+00</totfact>
</mgrwt>
</event>
<event>
 4    1  0.1852677E-008  0.7876494E+03  0.7818608E-02  0.9578068E-01
         -1   -1    0    0    0  501 -0.00000000000E+00  0.00000000000E+00  0.13749566846E+04  0.13749566846E+04  0.50400000000E-02 0.  1.
          1   -1    0    0  501    0  0.00000000000E+00 -0.00000000000E+00 -0.10249399648E+04  0.10249399648E+04  0.50400000000E-02 0. -1.
    8880022    1    1    2    0    0 -0.68011225739E+03  0.36667039874E+03  0.10727840397E+04  0.13308858376E+04  0.15294330000E+03 0.  0.
    8880022    1    1    2    0    0  0.68011225739E+03 -0.36667039874E+03 -0.72276731989E+03  0.10690108118E+04  0.15294330000E+03 0.  0.
<mgrwt>
<rscale>  0 0.78764936E+03</rscale>
<asrwt>0</asrwt>
<pdfrwt beam="1">  1        1 0.15768307E+00 0.78764936E+03</pdfrwt>
<pdfrwt beam="2">  1       -1 0.21153180E+00 0.78764936E+03</pdfrwt>
<totfact> 0.18850479E+00</totfact>
</mgrwt>
</event>
<event>
 4    1  0.3683053E-008  0.6780981E+03  0.7818608E-02  0.9755438E-01
         -1   -1    0    0    0  501 -0.00000000000E+00  0.00000000000E+00  0.22433393947E+04  0.22433393947E+04  0.50400000000E-02 0.  1.
          1   -1    0    0  501    0  0.00000000000E+00 -0.00000000000E+00 -0.15593047930E+04  0.15593047930E+04  0.50400000000E-02 0. -1.
    8880022    1    1    2    0    0 -0.25315678840E+03  0.61019421753E+03  0.21139744931E+04  0.22200687271E+04  0.15294330000E+03 0.  0.
    8880022    1    1    2    0    0  0.25315678840E+03 -0.61019421753E+03 -0.14299398913E+04  0.15825754606E+04  0.15294330000E+03 0.  0.
<mgrwt>
<rscale>  0 0.67809807E+03</rscale>
<asrwt>0</asrwt>
<pdfrwt beam="1">  1        1 0.23989305E+00 0.67809807E+03</pdfrwt>
<pdfrwt beam="2">  1       -1 0.34512914E+00 0.67809807E+03</pdfrwt>
<totfact> 0.11022481E-01</totfact>
</mgrwt>
</event>
<event>
 4    1  0.1852677E-008  0.6642496E+03  0.7818608E-02  0.9780402E-01
          1   -1    0    0  501    0  0.00000000000E+00  0.00000000000E+00  0.14910058702E+04  0.14910058702E+04  0.50400000000E-02 0. -1.
         -1   -1    0    0    0  501 -0.00000000000E+00 -0.00000000000E+00 -0.77109317754E+03  0.77109317755E+03  0.50400000000E-02 0.  1.
    8880022    1    1    2    0    0 -0.59949472616E+03 -0.24174765040E+03 -0.52791773089E+03  0.84848372805E+03  0.15294330000E+03 0.  0.
    8880022    1    1    2    0    0  0.59949472616E+03  0.24174765040E+03  0.12478304235E+04  0.14136153197E+04  0.15294330000E+03 0.  0.
<mgrwt>
<rscale>  0 0.66424958E+03</rscale>
<asrwt>0</asrwt>
<pdfrwt beam="1">  1        1 0.22938552E+00 0.66424958E+03</pdfrwt>
<pdfrwt beam="2">  1       -1 0.11862972E+00 0.66424958E+03</pdfrwt>
<totfact> 0.44738640E+00</totfact>
</mgrwt>
</event>
<event>
 4    1  0.1852677E-008  0.7829027E+03  0.7818608E-02  0.9585100E-01
          1   -1    0    0  501    0  0.00000000000E+00  0.00000000000E+00  0.55445844992E+03  0.55445844995E+03  0.50400000000E-02 0. -1.
         -1   -1    0    0    0  501 -0.00000000000E+00 -0.00000000000E+00 -0.14256535343E+04  0.14256535343E+04  0.50400000000E-02 0.  1.
    8880022    1    1    2    0    0  0.34232577299E+03  0.68728313046E+03  0.33596900623E+02  0.78362327749E+03  0.15294330000E+03 0.  0.
    8880022    1    1    2    0    0 -0.34232577299E+03 -0.68728313046E+03 -0.90479198497E+03  0.11964887067E+04  0.15294330000E+03 0.  1.
<mgrwt>
<rscale>  0 0.78290273E+03</rscale>
<asrwt>0</asrwt>
<pdfrwt beam="1">  1        1 0.85301301E-01 0.78290273E+03</pdfrwt>
<pdfrwt beam="2">  1       -1 0.21933131E+00 0.78290273E+03</pdfrwt>
<totfact> 0.44054666E+00</totfact>
</mgrwt>
</event>
<event>
 4    1  0.1852677E-008  0.8626516E+03  0.7818608E-02  0.9473512E-01
          1   -1    0    0  501    0  0.00000000000E+00  0.00000000000E+00  0.24169010858E+04  0.24169010858E+04  0.50400000000E-02 0. -1.
         -1   -1    0    0    0  501 -0.00000000000E+00 -0.00000000000E+00 -0.40054085240E+03  0.40054085243E+03  0.50400000000E-02 0.  1.
    8880022    1    1    2    0    0 -0.82414471557E+03 -0.20386659516E+03  0.16856641276E+04  0.18935763266E+04  0.15294330000E+03 0.  0.
    8880022    1    1    2    0    0  0.82414471557E+03  0.20386659516E+03  0.33069610579E+03  0.92386561156E+03  0.15294330000E+03 0.  0.
<mgrwt>
<rscale>  0 0.86265158E+03</rscale>
<asrwt>0</asrwt>
<pdfrwt beam="1">  1        1 0.37183094E+00 0.86265158E+03</pdfrwt>
<pdfrwt beam="2">  1       -1 0.61621669E-01 0.86265158E+03</pdfrwt>
<totfact> 0.42878539E+00</totfact>
</mgrwt>
</event>
<event>
 4    1  0.1852677E-008  0.2347320E+03  0.7818608E-02  0.1123353E+00
         -1   -1    0    0    0  501 -0.00000000000E+00  0.00000000000E+00  0.11268603819E+04  0.11268603820E+04  0.50400000000E-02 0.  1.
          1   -1    0    0  501    0  0.00000000000E+00 -0.00000000000E+00 -0.34377857221E+03  0.34377857225E+03  0.50400000000E-02 0. -1.
    8880022    1    1    2    0    0  0.26964266434E+02 -0.17601242385E+03 -0.28948108334E+03  0.37269075068E+03  0.15294330000E+03 0.  0.
    8880022    1    1    2    0    0 -0.26964266434E+02  0.17601242385E+03  0.10725628931E+04  0.10979482035E+04  0.15294330000E+03 0.  1.
<mgrwt>
<rscale>  0 0.23473197E+03</rscale>
<asrwt>0</asrwt>
<pdfrwt beam="1">  1        1 0.52889010E-01 0.23473197E+03</pdfrwt>
<pdfrwt beam="2">  1       -1 0.17336314E+00 0.23473197E+03</pdfrwt>
<totfact> 0.19219028E+01</totfact>
</mgrwt>
</event>
<event>
 4    1  0.1852677E-008  0.1137529E+04  0.7818608E-02  0.9169366E-01
         -1   -1    0    0    0  501 -0.00000000000E+00  0.00000000000E+00  0.17114644909E+04  0.17114644910E+04  0.50400000000E-02 0.  1.
          1   -1    0    0  501    0  0.00000000000E+00 -0.00000000000E+00 -0.10679026339E+04  0.10679026339E+04  0.50400000000E-02 0. -1.
    8880022    1    1    2    0    0 -0.90402184709E+03  0.67329383925E+03 -0.42917951623E+03  0.12157988338E+04  0.15294330000E+03 0.  0.
    8880022    1    1    2    0    0  0.90402184709E+03 -0.67329383925E+03  0.10727413733E+04  0.15635682911E+04  0.15294330000E+03 0.  0.
<mgrwt>
<rscale>  0 0.11375288E+04</rscale>
<asrwt>0</asrwt>
<pdfrwt beam="1">  1        1 0.16429271E+00 0.11375288E+04</pdfrwt>
<pdfrwt beam="2">  1       -1 0.26330223E+00 0.11375288E+04</pdfrwt>
<totfact> 0.75849621E-01</totfact>
</mgrwt>
</event>
<event>
 4    1  0.1852677E-008  0.1328326E+04  0.7818608E-02  0.9007399E-01
         -1   -1    0    0    0  501 -0.00000000000E+00  0.00000000000E+00  0.20640459808E+04  0.20640459808E+04  0.50400000000E-02 0.  1.
          1   -1    0    0  501    0  0.00000000000E+00 -0.00000000000E+00 -0.21087012142E+04  0.21087012142E+04  0.50400000000E-02 0. -1.
    8880022    1    1    2    0    0  0.12728570947E+04 -0.34769784596E+03  0.15864924673E+04  0.20691565860E+04  0.15294330000E+03 0.  0.
    8880022    1    1    2    0    0 -0.12728570947E+04  0.34769784596E+03 -0.16311477007E+04  0.21035906090E+04  0.15294330000E+03 0.  0.
<mgrwt>
<rscale>  0 0.13283263E+04</rscale>
<asrwt>0</asrwt>
<pdfrwt beam="1">  1        1 0.32441557E+00 0.13283263E+04</pdfrwt>
<pdfrwt beam="2">  1       -1 0.31754553E+00 0.13283263E+04</pdfrwt>
<totfact> 0.61755905E-02</totfact>
</mgrwt>
</event>
<event>
 4    1  0.1852677E-008  0.3956833E+03  0.7818608E-02  0.1045285E+00
         -1   -1    0    0    0  501 -0.00000000000E+00  0.00000000000E+00  0.18129304592E+03  0.18129304599E+03  0.50400000000E-02 0.  1.
          1   -1    0    0  501    0  0.00000000000E+00 -0.00000000000E+00 -0.24061140766E+04  0.24061140766E+04  0.50400000000E-02 0. -1.
    8880022    1    1    2    0    0 -0.35084981966E+03  0.10038930802E+03 -0.76575045397E+02  0.40302481278E+03  0.15294330000E+03 0.  0.
    8880022    1    1    2    0    0  0.35084981966E+03 -0.10038930802E+03 -0.21482459853E+04  0.21843823098E+04  0.15294330000E+03 0. -1.
<mgrwt>
<rscale>  0 0.39568329E+03</rscale>
<asrwt>0</asrwt>
<pdfrwt beam="1">  1        1 0.37017137E+00 0.39568329E+03</pdfrwt>
<pdfrwt beam="2">  1       -1 0.27891240E-01 0.39568329E+03</pdfrwt>
<totfact> 0.20498577E+01</totfact>
</mgrwt>
</event>
<event>
 4    1  0.1852677E-008  0.2118476E+03  0.7818608E-02  0.1140111E+00
         -1   -1    0    0    0  501 -0.00000000000E+00  0.00000000000E+00  0.96956972004E+03  0.96956972005E+03  0.50400000000E-02 0.  1.
          1   -1    0    0  501    0  0.00000000000E+00 -0.00000000000E+00 -0.24732247934E+03  0.24732247939E+03  0.50400000000E-02 0. -1.
    8880022    1    1    2    0    0 -0.85347604443E+02 -0.11917861673E+03 -0.18743826399E+03  0.28286483007E+03  0.15294330000E+03 0.  0.
    8880022    1    1    2    0    0  0.85347604443E+02  0.11917861673E+03  0.90968550469E+03  0.93402736937E+03  0.15294330000E+03 0.  1.
<mgrwt>
<rscale>  0 0.21184761E+03</rscale>
<asrwt>0</asrwt>
<pdfrwt beam="1">  1        1 0.38049613E-01 0.21184761E+03</pdfrwt>
<pdfrwt beam="2">  1       -1 0.14916457E+00 0.21184761E+03</pdfrwt>
<totfact> 0.44028988E+01</totfact>
</mgrwt>
</event>
<event>
 4    1  0.1852677E-008  0.4485367E+03  0.7818608E-02  0.1028159E+00
          1   -1    0    0  501    0  0.00000000000E+00  0.00000000000E+00  0.65946620322E+03  0.65946620324E+03  0.50400000000E-02 0. -1.
         -1   -1    0    0    0  501 -0.00000000000E+00 -0.00000000000E+00 -0.76318524746E+03  0.76318524748E+03  0.50400000000E-02 0.  1.
    8880022    1    1    2    0    0  0.41517272469E+03 -0.73655538219E+02  0.49925212750E+03  0.67114668253E+03  0.15294330000E+03 0.  0.
    8880022    1    1    2    0    0 -0.41517272469E+03  0.73655538219E+02 -0.60297117175E+03  0.75150476819E+03  0.15294330000E+03 0.  0.
<mgrwt>
<rscale>  0 0.44853671E+03</rscale>
<asrwt>0</asrwt>
<pdfrwt beam="1">  1        1 0.10145634E+00 0.44853671E+03</pdfrwt>
<pdfrwt beam="2">  1       -1 0.11741312E+00 0.44853671E+03</pdfrwt>
<totfact> 0.20865533E+01</totfact>
</mgrwt>
</event>
<event>
 4    1  0.1852677E-008  0.8104220E+03  0.7818608E-02  0.9545053E-01
          1   -1    0    0  501    0  0.00000000000E+00  0.00000000000E+00  0.27782086324E+04  0.27782086324E+04  0.50400000000E-02 0. -1.
         -1   -1    0    0    0  501 -0.00000000000E+00 -0.00000000000E+00 -0.38230215374E+03  0.38230215377E+03  0.50400000000E-02 0.  1.
    8880022    1    1    2    0    0  0.68109132272E+03 -0.41171208812E+03  0.22173587452E+03  0.84020871482E+03  0.15294330000E+03 0.  1.
    8880022    1    1    2    0    0 -0.68109132272E+03  0.41171208812E+03  0.21741706042E+04  0.23203020714E+04  0.15294330000E+03 0.  0.
<mgrwt>
<rscale>  0 0.81042204E+03</rscale>
<asrwt>0</asrwt>
<pdfrwt beam="1">  1        1 0.42741672E+00 0.81042204E+03</pdfrwt>
<pdfrwt beam="2">  1       -1 0.58815715E-01 0.81042204E+03</pdfrwt>
<totfact> 0.26719663E+00</totfact>
</mgrwt>
</event>
<event>
 4    1  0.1852677E-008  0.3311465E+03  0.7818608E-02  0.1070631E+00
         -1   -1    0    0    0  501 -0.00000000000E+00  0.00000000000E+00  0.45964516608E+03  0.45964516611E+03  0.50400000000E-02 0.  1.
          1   -1    0    0  501    0  0.00000000000E+00 -0.00000000000E+00 -0.21332416280E+04  0.21332416280E+04  0.50400000000E-02 0. -1.
    8880022    1    1    2    0    0  0.27803301844E+03  0.94678491810E+02  0.38500252899E+03  0.50782376520E+03  0.15294330000E+03 0.  0.
    8880022    1    1    2    0    0 -0.27803301844E+03 -0.94678491810E+02 -0.20585989910E+04  0.20850630290E+04  0.15294330000E+03 0. -1.
<mgrwt>
<rscale>  0 0.33114654E+03</rscale>
<asrwt>0</asrwt>
<pdfrwt beam="1">  1        1 0.32819101E+00 0.33114654E+03</pdfrwt>
<pdfrwt beam="2">  1       -1 0.70714642E-01 0.33114654E+03</pdfrwt>
<totfact> 0.57450317E+00</totfact>
</mgrwt>
</event>
<event>
 4    1  0.1852677E-008  0.4085169E+03  0.7818608E-02  0.1040870E+00
          1   -1    0    0  501    0  0.00000000000E+00  0.00000000000E+00  0.12619538569E+04  0.12619538569E+04  0.50400000000E-02 0. -1.
         -1   -1    0    0    0  501 -0.00000000000E+00 -0.00000000000E+00 -0.42116608310E+03  0.42116608313E+03  0.50400000000E-02 0.  1.
    8880022    1    1    2    0    0 -0.60446508162E+02  0.37395271986E+03  0.11174192765E+04  0.11897528775E+04  0.15294330000E+03 0.  0.
    8880022    1    1    2    0    0  0.60446508162E+02 -0.37395271986E+03 -0.27663150273E+03  0.49336706250E+03  0.15294330000E+03 0.  0.
<mgrwt>
<rscale>  0 0.40851692E+03</rscale>
<asrwt>0</asrwt>
<pdfrwt beam="1">  1        1 0.19414675E+00 0.40851692E+03</pdfrwt>
<pdfrwt beam="2">  1       -1 0.64794781E-01 0.40851692E+03</pdfrwt>
<totfact> 0.25374527E+01</totfact>
</mgrwt>
</event>
<event>
 4    1  0.1852677E-008  0.2937634E+03  0.7818608E-02  0.1088400E+00
          1   -1    0    0  501    0  0.00000000000E+00  0.00000000000E+00  0.97898060474E+03  0.97898060475E+03  0.50400000000E-02 0. -1.
         -1   -1    0    0    0  501 -0.00000000000E+00 -0.00000000000E+00 -0.19887714759E+03  0.19887714765E+03  0.50400000000E-02 0.  1.
    8880022    1    1    2    0    0 -0.21719692946E+03  0.12542249784E+03  0.82948994258E+03  0.87997188989E+03  0.15294330000E+03 0.  0.
    8880022    1    1    2    0    0  0.21719692946E+03 -0.12542249784E+03 -0.49386485431E+02  0.29788586252E+03  0.15294330000E+03 0.  1.
<mgrwt>
<rscale>  0 0.29376345E+03</rscale>
<asrwt>0</asrwt>
<pdfrwt beam="1">  1        1 0.15061240E+00 0.29376345E+03</pdfrwt>
<pdfrwt beam="2">  1       -1 0.30596485E-01 0.29376345E+03</pdfrwt>
<totfact> 0.16494784E+02</totfact>
</mgrwt>
</event>
<event>
 4    1  0.1852677E-008  0.7331438E+03  0.7818608E-02  0.9662172E-01
          1   -1    0    0  501    0  0.00000000000E+00  0.00000000000E+00  0.40667313664E+04  0.40667313664E+04  0.50400000000E-02 0. -1.
         -1   -1    0    0    0  501 -0.00000000000E+00 -0.00000000000E+00 -0.15259638005E+03  0.15259638013E+03  0.50400000000E-02 0.  1.
    8880022    1    1    2    0    0 -0.10388466504E+03 -0.70944782702E+03  0.11852105318E+04  0.13936369328E+04  0.15294330000E+03 0.  0.
    8880022    1    1    2    0    0  0.10388466504E+03  0.70944782702E+03  0.27289244546E+04  0.28256908137E+04  0.15294330000E+03 0.  0.
<mgrwt>
<rscale>  0 0.73314384E+03</rscale>
<asrwt>0</asrwt>
<pdfrwt beam="1">  1        1 0.62565093E+00 0.73314384E+03</pdfrwt>
<pdfrwt beam="2">  1       -1 0.23476368E-01 0.73314384E+03</pdfrwt>
<totfact> 0.14470699E+00</totfact>
</mgrwt>
</event>
<event>
 4    1  0.1852677E-008  0.2476133E+03  0.7818608E-02  0.1114823E+00
         -1   -1    0    0    0  501 -0.00000000000E+00  0.00000000000E+00  0.22389873105E+03  0.22389873111E+03  0.50400000000E-02 0.  1.
          1   -1    0    0  501    0  0.00000000000E+00 -0.00000000000E+00 -0.17742048638E+04  0.17742048638E+04  0.50400000000E-02 0. -1.
    8880022    1    1    2    0    0 -0.15135081471E+03 -0.12253012078E+03  0.14356998738E+03  0.28622490091E+03  0.15294330000E+03 0.  0.
    8880022    1    1    2    0    0  0.15135081471E+03  0.12253012078E+03 -0.16938761201E+04  0.17118786940E+04  0.15294330000E+03 0. -1.
<mgrwt>
<rscale>  0 0.24761331E+03</rscale>
<asrwt>0</asrwt>
<pdfrwt beam="1">  1        1 0.27295459E+00 0.24761331E+03</pdfrwt>
<pdfrwt beam="2">  1       -1 0.34445960E-01 0.24761331E+03</pdfrwt>
<totfact> 0.38853220E+01</totfact>
</mgrwt>
</event>
<event>
 4    1  0.1852677E-008  0.6314765E+03  0.7818608E-02  0.9842172E-01
          1   -1    0    0  501    0  0.00000000000E+00  0.00000000000E+00  0.30206966742E+03  0.30206966746E+03  0.50400000000E-02 0. -1.
         -1   -1    0    0    0  501 -0.00000000000E+00 -0.00000000000E+00 -0.19967667057E+04  0.19967667057E+04  0.50400000000E-02 0.  1.
    8880022    1    1    2    0    0  0.59308318549E+03  0.15369875109E+03 -0.17823266412E+03  0.65614747319E+03  0.15294330000E+03 0.  0.
    8880022    1    1    2    0    0 -0.59308318549E+03 -0.15369875109E+03 -0.15164643742E+04  0.16426889000E+04  0.15294330000E+03 0.  0.
<mgrwt>
<rscale>  0 0.63147654E+03</rscale>
<asrwt>0</asrwt>
<pdfrwt beam="1">  1        1 0.46472258E-01 0.63147654E+03</pdfrwt>
<pdfrwt beam="2">  1       -1 0.30719487E+00 0.63147654E+03</pdfrwt>
<totfact> 0.27615786E+00</totfact>
</mgrwt>
</event>
<event>
 4    1  0.1852677E-008  0.5533380E+03  0.7818608E-02  0.1000724E+00
          1   -1    0    0  501    0  0.00000000000E+00  0.00000000000E+00  0.18800392781E+04  0.18800392781E+04  0.50400000000E-02 0. -1.
         -1   -1    0    0    0  501 -0.00000000000E+00 -0.00000000000E+00 -0.69327944743E+03  0.69327944745E+03  0.50400000000E-02 0.  1.
    8880022    1    1    2    0    0 -0.16475955644E+03 -0.50561402900E+03  0.17188117703E+04  0.18056845828E+04  0.15294330000E+03 0.  0.
    8880022    1    1    2    0    0  0.16475955644E+03  0.50561402900E+03 -0.53205193959E+03  0.76763414281E+03  0.15294330000E+03 0.  0.
<mgrwt>
<rscale>  0 0.55333797E+03</rscale>
<asrwt>0</asrwt>
<pdfrwt beam="1">  1        1 0.28923681E+00 0.55333797E+03</pdfrwt>
<pdfrwt beam="2">  1       -1 0.10665838E+00 0.55333797E+03</pdfrwt>
<totfact> 0.32334447E+00</totfact>
</mgrwt>
</event>
<event>
 4    1  0.1852677E-008  0.5350798E+03  0.7818608E-02  0.1005008E+00
         -1   -1    0    0    0  501 -0.00000000000E+00  0.00000000000E+00  0.34859801377E+03  0.34859801380E+03  0.50400000000E-02 0.  1.
          1   -1    0    0  501    0  0.00000000000E+00 -0.00000000000E+00 -0.19029827129E+04  0.19029827129E+04  0.50400000000E-02 0. -1.
    8880022    1    1    2    0    0 -0.34995077008E+03  0.37477086508E+03  0.71570000636E+02  0.53984503406E+03  0.15294330000E+03 0.  0.
    8880022    1    1    2    0    0  0.34995077008E+03 -0.37477086508E+03 -0.16259546998E+04  0.17117356927E+04  0.15294330000E+03 0. -1.
<mgrwt>
<rscale>  0 0.53507980E+03</rscale>
<asrwt>0</asrwt>
<pdfrwt beam="1">  1        1 0.29276656E+00 0.53507980E+03</pdfrwt>
<pdfrwt beam="2">  1       -1 0.53630465E-01 0.53507980E+03</pdfrwt>
<totfact> 0.13185449E+01</totfact>
</mgrwt>
</event>
<event>
 4    1  0.1852677E-008  0.3077092E+03  0.7818608E-02  0.1081449E+00
         -1   -1    0    0    0  501 -0.00000000000E+00  0.00000000000E+00  0.97475475283E+03  0.97475475284E+03  0.50400000000E-02 0.  1.
          1   -1    0    0  501    0  0.00000000000E+00 -0.00000000000E+00 -0.17900271193E+03  0.17900271200E+03  0.50400000000E-02 0. -1.
    8880022    1    1    2    0    0 -0.26696162788E+03  0.49816894200E+01  0.77498160294E+01  0.30780682360E+03  0.15294330000E+03 0.  0.
    8880022    1    1    2    0    0  0.26696162788E+03 -0.49816894200E+01  0.78800222487E+03  0.84595064124E+03  0.15294330000E+03 0.  1.
<mgrwt>
<rscale>  0 0.30770925E+03</rscale>
<asrwt>0</asrwt>
<pdfrwt beam="1">  1        1 0.27538879E-01 0.30770925E+03</pdfrwt>
<pdfrwt beam="2">  1       -1 0.14996227E+00 0.30770925E+03</pdfrwt>
<totfact> 0.64013082E+01</totfact>
</mgrwt>
</event>
<event>
 4    1  0.1852677E-008  0.3887758E+03  0.7818608E-02  0.1047737E+00
         -1   -1    0    0    0  501 -0.00000000000E+00  0.00000000000E+00  0.41957758346E+03  0.41957758349E+03  0.50400000000E-02 0.  1.
          1   -1    0    0  501    0  0.00000000000E+00 -0.00000000000E+00 -0.56453846057E+03  0.56453846059E+03  0.50400000000E-02 0. -1.
    8880022    1    1    2    0    0 -0.24775565583E+03  0.25762787173E+03 -0.36849095343E+03  0.53566054648E+03  0.15294330000E+03 0.  0.
    8880022    1    1    2    0    0  0.24775565583E+03 -0.25762787173E+03  0.22353007632E+03  0.44845549759E+03  0.15294330000E+03 0.  0.
<mgrwt>
<rscale>  0 0.38877582E+03</rscale>
<asrwt>0</asrwt>
<pdfrwt beam="1">  1        1 0.86852071E-01 0.38877582E+03</pdfrwt>
<pdfrwt beam="2">  1       -1 0.64550397E-01 0.38877582E+03</pdfrwt>
<totfact> 0.95890423E+01</totfact>
</mgrwt>
</event>
<event>
 4    1  0.1852677E-008  0.7585182E+03  0.7818608E-02  0.9622081E-01
         -1   -1    0    0    0  501 -0.00000000000E+00  0.00000000000E+00  0.86244022399E+03  0.86244022400E+03  0.50400000000E-02 0.  1.
          1   -1    0    0  501    0  0.00000000000E+00 -0.00000000000E+00 -0.12653970440E+04  0.12653970440E+04  0.50400000000E-02 0. -1.
    8880022    1    1    2    0    0 -0.27166052163E+03  0.69149019802E+03  0.53007618002E+03  0.92538129580E+03  0.15294330000E+03 0.  0.
    8880022    1    1    2    0    0  0.27166052163E+03 -0.69149019802E+03 -0.93303300004E+03  0.12024559722E+04  0.15294330000E+03 0.  0.
<mgrwt>
<rscale>  0 0.75851815E+03</rscale>
<asrwt>0</asrwt>
<pdfrwt beam="1">  1        1 0.19467647E+00 0.75851815E+03</pdfrwt>
<pdfrwt beam="2">  1       -1 0.13268311E+00 0.75851815E+03</pdfrwt>
<totfact> 0.47862577E+00</totfact>
</mgrwt>
</event>
<event>
 4    1  0.1852677E-008  0.1918706E+03  0.7818608E-02  0.1156785E+00
         -1   -1    0    0    0  501 -0.00000000000E+00  0.00000000000E+00  0.90371290434E+02  0.90371290575E+02  0.50400000000E-02 0.  1.
          1   -1    0    0  501    0  0.00000000000E+00 -0.00000000000E+00 -0.62730293658E+03  0.62730293660E+03  0.50400000000E-02 0. -1.
    8880022    1    1    2    0    0  0.10757458872E+03  0.43015886441E+02 -0.55991495416E+02  0.19987335790E+03  0.15294330000E+03 0.  1.
    8880022    1    1    2    0    0 -0.10757458872E+03 -0.43015886441E+02 -0.48094015073E+03  0.51780086928E+03  0.15294330000E+03 0.  0.
<mgrwt>
<rscale>  0 0.19187056E+03</rscale>
<asrwt>0</asrwt>
<pdfrwt beam="1">  1        1 0.96508141E-01 0.19187056E+03</pdfrwt>
<pdfrwt beam="2">  1       -1 0.13903276E-01 0.19187056E+03</pdfrwt>
<totfact> 0.11973917E+03</totfact>
</mgrwt>
</event>
<event>
 4    1  0.1852677E-008  0.3611801E+03  0.7818608E-02  0.1058118E+00
          1   -1    0    0  501    0  0.00000000000E+00  0.00000000000E+00  0.16243520178E+04  0.16243520178E+04  0.50400000000E-02 0. -1.
         -1   -1    0    0    0  501 -0.00000000000E+00 -0.00000000000E+00 -0.13347546569E+03  0.13347546579E+03  0.50400000000E-02 0.  1.
    8880022    1    1    2    0    0 -0.28797702977E+03 -0.15533392422E+03  0.13001431768E+04  0.13493788685E+04  0.15294330000E+03 0.  0.
    8880022    1    1    2    0    0  0.28797702977E+03  0.15533392422E+03  0.19073337537E+03  0.40844861511E+03  0.15294330000E+03 0.  0.
<mgrwt>
<rscale>  0 0.36118008E+03</rscale>
<asrwt>0</asrwt>
<pdfrwt beam="1">  1        1 0.24990032E+00 0.36118008E+03</pdfrwt>
<pdfrwt beam="2">  1       -1 0.20534686E-01 0.36118008E+03</pdfrwt>
<totfact> 0.11307471E+02</totfact>
</mgrwt>
</event>
<event>
 4    1  0.2184381E-008  0.9290054E+03  0.7818608E-02  0.9390032E-01
          1   -1    0    0  501    0  0.00000000000E+00  0.00000000000E+00  0.12229754169E+04  0.12229754169E+04  0.50400000000E-02 0. -1.
         -1   -1    0    0    0  501 -0.00000000000E+00 -0.00000000000E+00 -0.19842320451E+04  0.19842320451E+04  0.50400000000E-02 0.  1.
    8880022    1    1    2    0    0 -0.53685576129E+03  0.74259365224E+03 -0.16678608440E+04  0.19091387820E+04  0.15294330000E+03 0.  0.
    8880022    1    1    2    0    0  0.53685576129E+03 -0.74259365224E+03  0.90660421591E+03  0.12980686800E+04  0.15294330000E+03 0.  0.
<mgrwt>
<rscale>  0 0.92900543E+03</rscale>
<asrwt>0</asrwt>
<pdfrwt beam="1">  1        1 0.18815006E+00 0.92900543E+03</pdfrwt>
<pdfrwt beam="2">  1       -1 0.30526647E+00 0.92900543E+03</pdfrwt>
<totfact> 0.32282856E-01</totfact>
</mgrwt>
</event>
<event>
 4    1  0.1852677E-008  0.4826768E+03  0.7818608E-02  0.1018402E+00
          1   -1    0    0  501    0  0.00000000000E+00  0.00000000000E+00  0.71953385821E+03  0.71953385823E+03  0.50400000000E-02 0. -1.
         -1   -1    0    0    0  501 -0.00000000000E+00 -0.00000000000E+00 -0.61231348536E+03  0.61231348538E+03  0.50400000000E-02 0.  1.
    8880022    1    1    2    0    0  0.44186559223E+02  0.45566741258E+03  0.51072904929E+03  0.70272402670E+03  0.15294330000E+03 0.  0.
    8880022    1    1    2    0    0 -0.44186559223E+02 -0.45566741258E+03 -0.40350867643E+03  0.62912331690E+03  0.15294330000E+03 0.  1.
<mgrwt>
<rscale>  0 0.48267680E+03</rscale>
<asrwt>0</asrwt>
<pdfrwt beam="1">  1        1 0.11069752E+00 0.48267680E+03</pdfrwt>
<pdfrwt beam="2">  1       -1 0.94202075E-01 0.48267680E+03</pdfrwt>
<totfact> 0.30245397E+01</totfact>
</mgrwt>
</event>
<event>
 4    1  0.1852677E-008  0.5758596E+03  0.7818608E-02  0.9956795E-01
          1   -1    0    0  501    0  0.00000000000E+00  0.00000000000E+00  0.14971038288E+04  0.14971038288E+04  0.50400000000E-02 0. -1.
         -1   -1    0    0    0  501 -0.00000000000E+00 -0.00000000000E+00 -0.56975711291E+03  0.56975711293E+03  0.50400000000E-02 0.  1.
    8880022    1    1    2    0    0  0.39788484264E+03  0.38718248044E+03  0.12716224120E+04  0.13959361851E+04  0.15294330000E+03 0.  0.
    8880022    1    1    2    0    0 -0.39788484264E+03 -0.38718248044E+03 -0.34427569609E+03  0.67092475666E+03  0.15294330000E+03 0.  0.
<mgrwt>
<rscale>  0 0.57585960E+03</rscale>
<asrwt>0</asrwt>
<pdfrwt beam="1">  1        1 0.23032367E+00 0.57585960E+03</pdfrwt>
<pdfrwt beam="2">  1       -1 0.87654941E-01 0.57585960E+03</pdfrwt>
<totfact> 0.90127804E+00</totfact>
</mgrwt>
</event>
<event>
 4    1  0.1852677E-008  0.1204393E+04  0.7818608E-02  0.9109020E-01
         -1   -1    0    0    0  501 -0.00000000000E+00  0.00000000000E+00  0.64674320559E+03  0.64674320561E+03  0.50400000000E-02 0.  1.
          1   -1    0    0  501    0  0.00000000000E+00 -0.00000000000E+00 -0.28347282847E+04  0.28347282847E+04  0.50400000000E-02 0. -1.
    8880022    1    1    2    0    0 -0.87347211145E+03 -0.81499562459E+03 -0.29859399221E+03  0.12408551176E+04  0.15294330000E+03 0.  0.
    8880022    1    1    2    0    0  0.87347211145E+03  0.81499562459E+03 -0.18893910869E+04  0.22406163728E+04  0.15294330000E+03 0.  0.
<mgrwt>
<rscale>  0 0.12043932E+04</rscale>
<asrwt>0</asrwt>
<pdfrwt beam="1">  1        1 0.43611204E+00 0.12043932E+04</pdfrwt>
<pdfrwt beam="2">  1       -1 0.99498956E-01 0.12043932E+04</pdfrwt>
<totfact> 0.75385176E-01</totfact>
</mgrwt>
</event>
<event>
 4    1  0.1852677E-008  0.1030698E+04  0.7818608E-02  0.9275502E-01
         -1   -1    0    0    0  501 -0.00000000000E+00  0.00000000000E+00  0.73725404092E+03  0.73725404094E+03  0.50400000000E-02 0.  1.
          1   -1    0    0  501    0  0.00000000000E+00 -0.00000000000E+00 -0.21099087241E+04  0.21099087241E+04  0.50400000000E-02 0. -1.
    8880022    1    1    2    0    0  0.93962597914E+03 -0.39503215569E+03 -0.14879191763E+04  0.18100393678E+04  0.15294330000E+03 0.  0.
    8880022    1    1    2    0    0 -0.93962597914E+03  0.39503215569E+03  0.11526449314E+03  0.10371233972E+04  0.15294330000E+03 0.  0.
<mgrwt>
<rscale>  0 0.10306983E+04</rscale>
<asrwt>0</asrwt>
<pdfrwt beam="1">  1        1 0.32460134E+00 0.10306983E+04</pdfrwt>
<pdfrwt beam="2">  1       -1 0.11342370E+00 0.10306983E+04</pdfrwt>
<totfact> 0.17944579E+00</totfact>
</mgrwt>
</event>
<event>
 4    1  0.1852677E-008  0.5462206E+03  0.7818608E-02  0.1002373E+00
         -1   -1    0    0    0  501 -0.00000000000E+00  0.00000000000E+00  0.32742048315E+03  0.32742048319E+03  0.50400000000E-02 0.  1.
          1   -1    0    0  501    0  0.00000000000E+00 -0.00000000000E+00 -0.14217745447E+04  0.14217745447E+04  0.50400000000E-02 0. -1.
    8880022    1    1    2    0    0 -0.19604073945E+03 -0.48634691497E+03 -0.23084898941E+02  0.54670820261E+03  0.15294330000E+03 0.  0.
    8880022    1    1    2    0    0  0.19604073945E+03  0.48634691497E+03 -0.10712691626E+04  0.12024868253E+04  0.15294330000E+03 0. -1.
<mgrwt>
<rscale>  0 0.54622060E+03</rscale>
<asrwt>0</asrwt>
<pdfrwt beam="1">  1        1 0.21873454E+00 0.54622060E+03</pdfrwt>
<pdfrwt beam="2">  1       -1 0.50372383E-01 0.54622060E+03</pdfrwt>
<totfact> 0.31144898E+01</totfact>
</mgrwt>
</event>
<event>
 4    1  0.1852677E-008  0.6471994E+03  0.7818608E-02  0.9812049E-01
         -1   -1    0    0    0  501 -0.00000000000E+00  0.00000000000E+00  0.50241602441E+03  0.50241602443E+03  0.50400000000E-02 0.  1.
          1   -1    0    0  501    0  0.00000000000E+00 -0.00000000000E+00 -0.88686638980E+03  0.88686638981E+03  0.50400000000E-02 0. -1.
    8880022    1    1    2    0    0 -0.28191021712E+03 -0.56214059542E+03 -0.36229490347E+03  0.74170389620E+03  0.15294330000E+03 0.  0.
    8880022    1    1    2    0    0  0.28191021712E+03  0.56214059542E+03 -0.22155461920E+02  0.64757851805E+03  0.15294330000E+03 0.  0.
<mgrwt>
<rscale>  0 0.64719941E+03</rscale>
<asrwt>0</asrwt>
<pdfrwt beam="1">  1        1 0.13644098E+00 0.64719941E+03</pdfrwt>
<pdfrwt beam="2">  1       -1 0.77294773E-01 0.64719941E+03</pdfrwt>
<totfact> 0.32493244E+01</totfact>
</mgrwt>
</event>
<event>
 4    1  0.1852677E-008  0.4528045E+03  0.7818608E-02  0.1026889E+00
          1   -1    0    0  501    0  0.00000000000E+00  0.00000000000E+00  0.42965880376E+03  0.42965880379E+03  0.50400000000E-02 0. -1.
         -1   -1    0    0    0  501 -0.00000000000E+00 -0.00000000000E+00 -0.66018671615E+03  0.66018671617E+03  0.50400000000E-02 0.  1.
    8880022    1    1    2    0    0 -0.10823801982E+02 -0.42605533384E+03 -0.40215350312E+03  0.60560663410E+03  0.15294330000E+03 0.  0.
    8880022    1    1    2    0    0  0.10823801982E+02  0.42605533384E+03  0.17162559072E+03  0.48423888587E+03  0.15294330000E+03 0.  0.
<mgrwt>
<rscale>  0 0.45280454E+03</rscale>
<asrwt>0</asrwt>
<pdfrwt beam="1">  1        1 0.66101354E-01 0.45280454E+03</pdfrwt>
<pdfrwt beam="2">  1       -1 0.10156719E+00 0.45280454E+03</pdfrwt>
<totfact> 0.52771031E+01</totfact>
</mgrwt>
</event>
<event>
 4    1  0.1852677E-008  0.1751376E+03  0.7818608E-02  0.1172594E+00
          1   -1    0    0  501    0  0.00000000000E+00  0.00000000000E+00  0.35147317588E+03  0.35147317591E+03  0.50400000000E-02 0. -1.
         -1   -1    0    0    0  501 -0.00000000000E+00 -0.00000000000E+00 -0.35043392170E+03  0.35043392173E+03  0.50400000000E-02 0.  1.
    8880022    1    1    2    0    0  0.32885731198E+01  0.85268546862E+02 -0.30361049864E+03  0.35050324920E+03  0.15294330000E+03 0.  0.
    8880022    1    1    2    0    0 -0.32885731198E+01 -0.85268546862E+02  0.30464975282E+03  0.35140384845E+03  0.15294330000E+03 0. -1.
<mgrwt>
<rscale>  0 0.17513764E+03</rscale>
<asrwt>0</asrwt>
<pdfrwt beam="1">  1        1 0.54072797E-01 0.17513764E+03</pdfrwt>
<pdfrwt beam="2">  1       -1 0.53912911E-01 0.17513764E+03</pdfrwt>
<totfact> 0.25990196E+02</totfact>
</mgrwt>
</event>
<event>
 4    1  0.1852677E-008  0.3390347E+03  0.7818608E-02  0.1067208E+00
         -1   -1    0    0    0  501 -0.00000000000E+00  0.00000000000E+00  0.92761215902E+03  0.92761215903E+03  0.50400000000E-02 0.  1.
          1   -1    0    0  501    0  0.00000000000E+00 -0.00000000000E+00 -0.41396312682E+03  0.41396312685E+03  0.50400000000E-02 0. -1.
    8880022    1    1    2    0    0  0.11640631087E+03 -0.27928914347E+03  0.81831151265E+03  0.88576421221E+03  0.15294330000E+03 0.  0.
    8880022    1    1    2    0    0 -0.11640631087E+03  0.27928914347E+03 -0.30466248046E+03  0.45581107367E+03  0.15294330000E+03 0.  0.
<mgrwt>
<rscale>  0 0.33903467E+03</rscale>
<asrwt>0</asrwt>
<pdfrwt beam="1">  1        1 0.63686635E-01 0.33903467E+03</pdfrwt>
<pdfrwt beam="2">  1       -1 0.14270956E+00 0.33903467E+03</pdfrwt>
<totfact> 0.24860178E+01</totfact>
</mgrwt>
</event>
<event>
 4    1  0.1852677E-008  0.3863623E+03  0.7818608E-02  0.1048607E+00
         -1   -1    0    0    0  501 -0.00000000000E+00  0.00000000000E+00  0.41676549346E+03  0.41676549349E+03  0.50400000000E-02 0.  1.
          1   -1    0    0  501    0  0.00000000000E+00 -0.00000000000E+00 -0.68074278339E+03  0.68074278340E+03  0.50400000000E-02 0. -1.
    8880022    1    1    2    0    0  0.34283660603E+03  0.91363166489E+02  0.24575348531E+03  0.45789801833E+03  0.15294330000E+03 0.  0.
    8880022    1    1    2    0    0 -0.34283660603E+03 -0.91363166489E+02 -0.50973077524E+03  0.63961025857E+03  0.15294330000E+03 0.  0.
<mgrwt>
<rscale>  0 0.38636229E+03</rscale>
<asrwt>0</asrwt>
<pdfrwt beam="1">  1        1 0.10472966E+00 0.38636229E+03</pdfrwt>
<pdfrwt beam="2">  1       -1 0.64117768E-01 0.38636229E+03</pdfrwt>
<totfact> 0.74442630E+01</totfact>
</mgrwt>
</event>
<event>
 4    1  0.1852677E-008  0.2784267E+03  0.7818608E-02  0.1096551E+00
         -1   -1    0    0    0  501 -0.00000000000E+00  0.00000000000E+00  0.44792558027E+03  0.44792558030E+03  0.50400000000E-02 0.  1.
          1   -1    0    0  501    0  0.00000000000E+00 -0.00000000000E+00 -0.15622098536E+04  0.15622098536E+04  0.50400000000E-02 0. -1.
    8880022    1    1    2    0    0 -0.23041316413E+03  0.32241794612E+02  0.39061921609E+03  0.47969238530E+03  0.15294330000E+03 0.  0.
    8880022    1    1    2    0    0  0.23041316413E+03 -0.32241794612E+02 -0.15049034895E+04  0.15304430486E+04  0.15294330000E+03 0.  0.
<mgrwt>
<rscale>  0 0.27842667E+03</rscale>
<asrwt>0</asrwt>
<pdfrwt beam="1">  1        1 0.24033998E+00 0.27842667E+03</pdfrwt>
<pdfrwt beam="2">  1       -1 0.68911628E-01 0.27842667E+03</pdfrwt>
<totfact> 0.14619279E+01</totfact>
</mgrwt>
</event>
<event>
 4    1  0.1852677E-008  0.2574463E+03  0.7818608E-02  0.1108687E+00
         -1   -1    0    0    0  501 -0.00000000000E+00  0.00000000000E+00  0.26601274791E+03  0.26601274795E+03  0.50400000000E-02 0.  1.
          1   -1    0    0  501    0  0.00000000000E+00 -0.00000000000E+00 -0.93348737499E+03  0.93348737501E+03  0.50400000000E-02 0. -1.
    8880022    1    1    2    0    0 -0.95425677949E+02  0.18379581823E+03  0.17977323584E+03  0.31400164354E+03  0.15294330000E+03 0.  0.
    8880022    1    1    2    0    0  0.95425677949E+02 -0.18379581823E+03 -0.84724786292E+03  0.88549847942E+03  0.15294330000E+03 0. -1.
<mgrwt>
<rscale>  0 0.25744634E+03</rscale>
<asrwt>0</asrwt>
<pdfrwt beam="1">  1        1 0.14361344E+00 0.25744634E+03</pdfrwt>
<pdfrwt beam="2">  1       -1 0.40925039E-01 0.25744634E+03</pdfrwt>
<totfact> 0.10823448E+02</totfact>
</mgrwt>
</event>
<event>
 4    1  0.1852677E-008  0.4994068E+03  0.7818608E-02  0.1013934E+00
          1   -1    0    0  501    0  0.00000000000E+00  0.00000000000E+00  0.56921706536E+03  0.56921706538E+03  0.50400000000E-02 0. -1.
         -1   -1    0    0    0  501 -0.00000000000E+00 -0.00000000000E+00 -0.11515198425E+04  0.11515198425E+04  0.50400000000E-02 0.  1.
    8880022    1    1    2    0    0 -0.36577796750E+03 -0.30368077810E+03 -0.96833058463E+03  0.10895280220E+04  0.15294330000E+03 0.  0.
    8880022    1    1    2    0    0  0.36577796750E+03  0.30368077810E+03  0.38602780749E+03  0.63120888593E+03  0.15294330000E+03 0.  0.
<mgrwt>
<rscale>  0 0.49940684E+03</rscale>
<asrwt>0</asrwt>
<pdfrwt beam="1">  1        1 0.87571857E-01 0.49940684E+03</pdfrwt>
<pdfrwt beam="2">  1       -1 0.17715690E+00 0.49940684E+03</pdfrwt>
<totfact> 0.86604920E+00</totfact>
</mgrwt>
</event>
<event>
 4    1  0.1852677E-008  0.3339365E+03  0.7818608E-02  0.1069408E+00
         -1   -1    0    0    0  501 -0.00000000000E+00  0.00000000000E+00  0.56177760428E+03  0.56177760430E+03  0.50400000000E-02 0.  1.
          1   -1    0    0  501    0  0.00000000000E+00 -0.00000000000E+00 -0.92411836090E+03  0.92411836091E+03  0.50400000000E-02 0. -1.
    8880022    1    1    2    0    0 -0.21652762152E+03 -0.20307078364E+03 -0.83950749190E+03  0.90348571434E+03  0.15294330000E+03 0. -1.
    8880022    1    1    2    0    0  0.21652762152E+03  0.20307078364E+03  0.47716673528E+03  0.58241025088E+03  0.15294330000E+03 0.  0.
<mgrwt>
<rscale>  0 0.33393653E+03</rscale>
<asrwt>0</asrwt>
<pdfrwt beam="1">  1        1 0.14217206E+00 0.33393653E+03</pdfrwt>
<pdfrwt beam="2">  1       -1 0.86427324E-01 0.33393653E+03</pdfrwt>
<totfact> 0.25322029E+01</totfact>
</mgrwt>
</event>
<event>
 4    1  0.1852677E-008  0.7874673E+03  0.7818608E-02  0.9578337E-01
         -1   -1    0    0    0  501 -0.00000000000E+00  0.00000000000E+00  0.66333407108E+03  0.66333407110E+03  0.50400000000E-02 0.  1.
          1   -1    0    0  501    0  0.00000000000E+00 -0.00000000000E+00 -0.12565138900E+04  0.12565138900E+04  0.50400000000E-02 0. -1.
    8880022    1    1    2    0    0  0.37031802778E+03 -0.67792157518E+03 -0.78228943605E+03  0.11099916750E+04  0.15294330000E+03 0.  0.
    8880022    1    1    2    0    0 -0.37031802778E+03  0.67792157518E+03  0.18910961717E+03  0.80985628608E+03  0.15294330000E+03 0.  0.
<mgrwt>
<rscale>  0 0.78746731E+03</rscale>
<asrwt>0</asrwt>
<pdfrwt beam="1">  1        1 0.19330983E+00 0.78746731E+03</pdfrwt>
<pdfrwt beam="2">  1       -1 0.10205140E+00 0.78746731E+03</pdfrwt>
<totfact> 0.91091447E+00</totfact>
</mgrwt>
</event>
<event>
 4    1  0.1852677E-008  0.7198341E+03  0.7818608E-02  0.9683902E-01
          1   -1    0    0  501    0  0.00000000000E+00  0.00000000000E+00  0.16297106843E+04  0.16297106843E+04  0.50400000000E-02 0. -1.
         -1   -1    0    0    0  501 -0.00000000000E+00 -0.00000000000E+00 -0.43510138447E+03  0.43510138450E+03  0.50400000000E-02 0.  1.
    8880022    1    1    2    0    0  0.70324082715E+03 -0.14894653364E+02  0.61588059313E+02  0.72246401553E+03  0.15294330000E+03 0.  0.
    8880022    1    1    2    0    0 -0.70324082715E+03  0.14894653364E+02  0.11330212405E+04  0.13423480533E+04  0.15294330000E+03 0.  0.
<mgrwt>
<rscale>  0 0.71983412E+03</rscale>
<asrwt>0</asrwt>
<pdfrwt beam="1">  1        1 0.25072472E+00 0.71983412E+03</pdfrwt>
<pdfrwt beam="2">  1       -1 0.66938675E-01 0.71983412E+03</pdfrwt>
<totfact> 0.12563305E+01</totfact>
</mgrwt>
</event>
<event>
 4    1  0.1852677E-008  0.2322650E+03  0.7818608E-02  0.1125056E+00
          1   -1    0    0  501    0  0.00000000000E+00  0.00000000000E+00  0.89348786323E+03  0.89348786324E+03  0.50400000000E-02 0. -1.
         -1   -1    0    0    0  501 -0.00000000000E+00 -0.00000000000E+00 -0.10898433339E+03  0.10898433350E+03  0.50400000000E-02 0.  1.
    8880022    1    1    2    0    0  0.12751825800E+02  0.17433518784E+03  0.57512477246E+02  0.23927955373E+03  0.15294330000E+03 0.  0.
    8880022    1    1    2    0    0 -0.12751825800E+02 -0.17433518784E+03  0.72699105259E+03  0.76319264301E+03  0.15294330000E+03 0. -1.
<mgrwt>
<rscale>  0 0.23226498E+03</rscale>
<asrwt>0</asrwt>
<pdfrwt beam="1">  1        1 0.13745967E+00 0.23226498E+03</pdfrwt>
<pdfrwt beam="2">  1       -1 0.16766821E-01 0.23226498E+03</pdfrwt>
<totfact> 0.52348955E+02</totfact>
</mgrwt>
</event>
<event>
 4    1  0.1852677E-008  0.4201096E+03  0.7818608E-02  0.1037031E+00
         -1   -1    0    0    0  501 -0.00000000000E+00  0.00000000000E+00  0.65200367392E+03  0.65200367394E+03  0.50400000000E-02 0.  1.
          1   -1    0    0  501    0  0.00000000000E+00 -0.00000000000E+00 -0.94118837853E+03  0.94118837855E+03  0.50400000000E-02 0. -1.
    8880022    1    1    2    0    0 -0.11147469286E+03  0.37506510234E+03  0.52776184325E+03  0.67455515294E+03  0.15294330000E+03 0.  0.
    8880022    1    1    2    0    0  0.11147469286E+03 -0.37506510234E+03 -0.81694654786E+03  0.91863689956E+03  0.15294330000E+03 0. -1.
<mgrwt>
<rscale>  0 0.42010962E+03</rscale>
<asrwt>0</asrwt>
<pdfrwt beam="1">  1        1 0.14479821E+00 0.42010962E+03</pdfrwt>
<pdfrwt beam="2">  1       -1 0.10030826E+00 0.42010962E+03</pdfrwt>
<totfact> 0.17337696E+01</totfact>
</mgrwt>
</event>
<event>
 4    1  0.1852677E-008  0.3759075E+03  0.7818608E-02  0.1052457E+00
         -1   -1    0    0    0  501 -0.00000000000E+00  0.00000000000E+00  0.61205172893E+03  0.61205172895E+03  0.50400000000E-02 0.  1.
          1   -1    0    0  501    0  0.00000000000E+00 -0.00000000000E+00 -0.14337649320E+04  0.14337649321E+04  0.50400000000E-02 0. -1.
    8880022    1    1    2    0    0  0.31584199407E+03  0.13475407586E+03 -0.13477948485E+04  0.13992345882E+04  0.15294330000E+03 0.  0.
    8880022    1    1    2    0    0 -0.31584199407E+03 -0.13475407586E+03  0.52608164540E+03  0.64658207277E+03  0.15294330000E+03 0.  0.
<mgrwt>
<rscale>  0 0.37590754E+03</rscale>
<asrwt>0</asrwt>
<pdfrwt beam="1">  1        1 0.22057922E+00 0.37590754E+03</pdfrwt>
<pdfrwt beam="2">  1       -1 0.94161804E-01 0.37590754E+03</pdfrwt>
<totfact> 0.89461120E+00</totfact>
</mgrwt>
</event>
<event>
 4    1  0.1852677E-008  0.2191735E+03  0.7818608E-02  0.1134501E+00
          1   -1    0    0  501    0  0.00000000000E+00  0.00000000000E+00  0.21633404023E+03  0.21633404029E+03  0.50400000000E-02 0. -1.
         -1   -1    0    0    0  501 -0.00000000000E+00 -0.00000000000E+00 -0.40531507943E+03  0.40531507946E+03  0.50400000000E-02 0.  1.
    8880022    1    1    2    0    0 -0.15351869286E+03  0.32823802867E+02 -0.30349635917E+03  0.37436223653E+03  0.15294330000E+03 0.  0.
    8880022    1    1    2    0    0  0.15351869286E+03 -0.32823802867E+02  0.11451531997E+03  0.24728688322E+03  0.15294330000E+03 0.  0.
<mgrwt>
<rscale>  0 0.21917355E+03</rscale>
<asrwt>0</asrwt>
<pdfrwt beam="1">  1        1 0.33282160E-01 0.21917355E+03</pdfrwt>
<pdfrwt beam="2">  1       -1 0.62356166E-01 0.21917355E+03</pdfrwt>
<totfact> 0.36066683E+02</totfact>
</mgrwt>
</event>
<event>
 4    1  0.1852677E-008  0.4976638E+03  0.7818608E-02  0.1014390E+00
          1   -1    0    0  501    0  0.00000000000E+00  0.00000000000E+00  0.48760783102E+03  0.48760783104E+03  0.50400000000E-02 0. -1.
         -1   -1    0    0    0  501 -0.00000000000E+00 -0.00000000000E+00 -0.63034794584E+03  0.63034794586E+03  0.50400000000E-02 0.  1.
    8880022    1    1    2    0    0 -0.28922812736E+03  0.37499960757E+03  0.17496828341E+03  0.52752551459E+03  0.15294330000E+03 0.  0.
    8880022    1    1    2    0    0  0.28922812736E+03 -0.37499960757E+03 -0.31770839823E+03  0.59043026231E+03  0.15294330000E+03 0.  0.
<mgrwt>
<rscale>  0 0.49766381E+03</rscale>
<asrwt>0</asrwt>
<pdfrwt beam="1">  1        1 0.75016589E-01 0.49766381E+03</pdfrwt>
<pdfrwt beam="2">  1       -1 0.96976607E-01 0.49766381E+03</pdfrwt>
<totfact> 0.49172060E+01</totfact>
</mgrwt>
</event>
<event>
 4    1  0.1852677E-008  0.1016097E+04  0.7818608E-02  0.9291064E-01
          1   -1    0    0  501    0  0.00000000000E+00  0.00000000000E+00  0.10762909071E+04  0.10762909071E+04  0.50400000000E-02 0. -1.
         -1   -1    0    0    0  501 -0.00000000000E+00 -0.00000000000E+00 -0.10345455537E+04  0.10345455537E+04  0.50400000000E-02 0.  1.
    8880022    1    1    2    0    0  0.75868192001E+03 -0.65837903328E+03  0.30556692081E+03  0.10610485396E+04  0.15294330000E+03 0.  0.
    8880022    1    1    2    0    0 -0.75868192001E+03  0.65837903328E+03 -0.26382156741E+03  0.10497879213E+04  0.15294330000E+03 0.  0.
<mgrwt>
<rscale>  0 0.10160969E+04</rscale>
<asrwt>0</asrwt>
<pdfrwt beam="1">  1        1 0.16558322E+00 0.10160969E+04</pdfrwt>
<pdfrwt beam="2">  1       -1 0.15916085E+00 0.10160969E+04</pdfrwt>
<totfact> 0.39229077E+00</totfact>
</mgrwt>
</event>
<event>
 4    1  0.1852677E-008  0.2422128E+03  0.7818608E-02  0.1118327E+00
          1   -1    0    0  501    0  0.00000000000E+00  0.00000000000E+00  0.30940900668E+03  0.30940900673E+03  0.50400000000E-02 0. -1.
         -1   -1    0    0    0  501 -0.00000000000E+00 -0.00000000000E+00 -0.30158133349E+03  0.30158133353E+03  0.50400000000E-02 0.  1.
    8880022    1    1    2    0    0  0.18767412559E+03  0.73355906404E+01 -0.18223295186E+03  0.30311035955E+03  0.15294330000E+03 0.  0.
    8880022    1    1    2    0    0 -0.18767412559E+03 -0.73355906404E+01  0.19006062506E+03  0.30787998071E+03  0.15294330000E+03 0.  0.
<mgrwt>
<rscale>  0 0.24221280E+03</rscale>
<asrwt>0</asrwt>
<pdfrwt beam="1">  1        1 0.47601386E-01 0.24221280E+03</pdfrwt>
<pdfrwt beam="2">  1       -1 0.46397128E-01 0.24221280E+03</pdfrwt>
<totfact> 0.40033119E+02</totfact>
</mgrwt>
</event>
<event>
 4    1  0.1852677E-008  0.3966000E+03  0.7818608E-02  0.1044963E+00
         -1   -1    0    0    0  501 -0.00000000000E+00  0.00000000000E+00  0.69609078639E+03  0.69609078641E+03  0.50400000000E-02 0.  1.
          1   -1    0    0  501    0  0.00000000000E+00 -0.00000000000E+00 -0.36423975735E+04  0.36423975735E+04  0.50400000000E-02 0. -1.
    8880022    1    1    2    0    0 -0.31830041090E+03 -0.18051258932E+03 -0.35740333834E+04  0.35959708320E+04  0.15294330000E+03 0.  0.
    8880022    1    1    2    0    0  0.31830041090E+03  0.18051258932E+03  0.62772659627E+03  0.74251752785E+03  0.15294330000E+03 0.  0.
<mgrwt>
<rscale>  0 0.39660005E+03</rscale>
<asrwt>0</asrwt>
<pdfrwt beam="1">  1        1 0.56036885E+00 0.39660005E+03</pdfrwt>
<pdfrwt beam="2">  1       -1 0.10709089E+00 0.39660005E+03</pdfrwt>
<totfact> 0.19757912E-01</totfact>
</mgrwt>
</event>
<event>
 4    1  0.1852677E-008  0.3366887E+03  0.7818608E-02  0.1068215E+00
          1   -1    0    0  501    0  0.00000000000E+00  0.00000000000E+00  0.33409028603E+04  0.33409028603E+04  0.50400000000E-02 0. -1.
         -1   -1    0    0    0  501 -0.00000000000E+00 -0.00000000000E+00 -0.51286634408E+02  0.51286634656E+02  0.50400000000E-02 0.  1.
    8880022    1    1    2    0    0  0.29836682871E+03  0.30738212357E+02  0.26314776079E+04  0.26529292596E+04  0.15294330000E+03 0.  0.
    8880022    1    1    2    0    0 -0.29836682871E+03 -0.30738212357E+02  0.65813861794E+03  0.73926023538E+03  0.15294330000E+03 0.  0.
<mgrwt>
<rscale>  0 0.33668866E+03</rscale>
<asrwt>0</asrwt>
<pdfrwt beam="1">  1        1 0.51398522E+00 0.33668866E+03</pdfrwt>
<pdfrwt beam="2">  1       -1 0.78902489E-02 0.33668866E+03</pdfrwt>
<totfact> 0.35448555E+01</totfact>
</mgrwt>
</event>
<event>
 4    1  0.1852677E-008  0.6371766E+03  0.7818608E-02  0.9831143E-01
          1   -1    0    0  501    0  0.00000000000E+00  0.00000000000E+00  0.25211502209E+04  0.25211502209E+04  0.50400000000E-02 0. -1.
         -1   -1    0    0    0  501 -0.00000000000E+00 -0.00000000000E+00 -0.52351227932E+03  0.52351227934E+03  0.50400000000E-02 0.  1.
    8880022    1    1    2    0    0 -0.49926945837E+03 -0.36514713331E+03  0.22655545442E+04  0.23534509697E+04  0.15294330000E+03 0.  0.
    8880022    1    1    2    0    0  0.49926945837E+03  0.36514713331E+03 -0.26791660260E+03  0.69121153057E+03  0.15294330000E+03 0.  0.
<mgrwt>
<rscale>  0 0.63717664E+03</rscale>
<asrwt>0</asrwt>
<pdfrwt beam="1">  1        1 0.38786926E+00 0.63717664E+03</pdfrwt>
<pdfrwt beam="2">  1       -1 0.80540352E-01 0.63717664E+03</pdfrwt>
<totfact> 0.21969189E+00</totfact>
</mgrwt>
</event>
<event>
 4    1  0.1852677E-008  0.6147000E+03  0.7818608E-02  0.9875369E-01
         -1   -1    0    0    0  501 -0.00000000000E+00  0.00000000000E+00  0.32587698164E+04  0.32587698164E+04  0.50400000000E-02 0.  1.
          1   -1    0    0  501    0  0.00000000000E+00 -0.00000000000E+00 -0.60500718547E+03  0.60500718549E+03  0.50400000000E-02 0. -1.
    8880022    1    1    2    0    0 -0.15136446844E+03 -0.57580661313E+03  0.30638075495E+04  0.31248636469E+04  0.15294330000E+03 0.  1.
    8880022    1    1    2    0    0  0.15136446844E+03  0.57580661313E+03 -0.41004491855E+03  0.73891335505E+03  0.15294330000E+03 0.  0.
<mgrwt>
<rscale>  0 0.61470002E+03</rscale>
<asrwt>0</asrwt>
<pdfrwt beam="1">  1        1 0.93078028E-01 0.61470002E+03</pdfrwt>
<pdfrwt beam="2">  1       -1 0.50134920E+00 0.61470002E+03</pdfrwt>
<totfact> 0.54750475E-02</totfact>
</mgrwt>
</event>
<event>
 4    1  0.1852677E-008  0.3788996E+03  0.7818608E-02  0.1051341E+00
         -1   -1    0    0    0  501 -0.00000000000E+00  0.00000000000E+00  0.67439233559E+03  0.67439233561E+03  0.50400000000E-02 0.  1.
          1   -1    0    0  501    0  0.00000000000E+00 -0.00000000000E+00 -0.15386573343E+04  0.15386573343E+04  0.50400000000E-02 0. -1.
    8880022    1    1    2    0    0 -0.12306678900E+03  0.32407998802E+03  0.59499755157E+03  0.70539847787E+03  0.15294330000E+03 0.  0.
    8880022    1    1    2    0    0  0.12306678900E+03 -0.32407998802E+03 -0.14592625502E+04  0.15076511920E+04  0.15294330000E+03 0.  0.
<mgrwt>
<rscale>  0 0.37889963E+03</rscale>
<asrwt>0</asrwt>
<pdfrwt beam="1">  1        1 0.23671651E+00 0.37889963E+03</pdfrwt>
<pdfrwt beam="2">  1       -1 0.10375267E+00 0.37889963E+03</pdfrwt>
<totfact> 0.61135940E+00</totfact>
</mgrwt>
</event>
<event>
 4    1  0.1852677E-008  0.9329647E+03  0.7818608E-02  0.9385287E-01
         -1   -1    0    0    0  501 -0.00000000000E+00  0.00000000000E+00  0.17567754609E+04  0.17567754609E+04  0.50400000000E-02 0.  1.
          1   -1    0    0  501    0  0.00000000000E+00 -0.00000000000E+00 -0.94418015651E+03  0.94418015653E+03  0.50400000000E-02 0. -1.
    8880022    1    1    2    0    0 -0.74416561308E+03  0.54152476764E+03  0.13372870113E+04  0.16305703718E+04  0.15294330000E+03 0.  0.
    8880022    1    1    2    0    0  0.74416561308E+03 -0.54152476764E+03 -0.52469170697E+03  0.10703852456E+04  0.15294330000E+03 0.  0.
<mgrwt>
<rscale>  0 0.93296473E+03</rscale>
<asrwt>0</asrwt>
<pdfrwt beam="1">  1        1 0.14525849E+00 0.93296473E+03</pdfrwt>
<pdfrwt beam="2">  1       -1 0.27027315E+00 0.93296473E+03</pdfrwt>
<totfact> 0.88002187E-01</totfact>
</mgrwt>
</event>
<event>
 4    1  0.1852677E-008  0.1633008E+03  0.7818608E-02  0.1185020E+00
         -1   -1    0    0    0  501 -0.00000000000E+00  0.00000000000E+00  0.19702632018E+03  0.19702632024E+03  0.50400000000E-02 0.  1.
          1   -1    0    0  501    0  0.00000000000E+00 -0.00000000000E+00 -0.17573753247E+04  0.17573753247E+04  0.50400000000E-02 0. -1.
    8880022    1    1    2    0    0  0.15717240733E+01  0.57210494486E+02  0.15864178139E+03  0.22767164693E+03  0.15294330000E+03 0.  0.
    8880022    1    1    2    0    0 -0.15717240733E+01 -0.57210494486E+02 -0.17189907859E+04  0.17267299980E+04  0.15294330000E+03 0. -1.
<mgrwt>
<rscale>  0 0.16330084E+03</rscale>
<asrwt>0</asrwt>
<pdfrwt beam="1">  1        1 0.27036542E+00 0.16330084E+03</pdfrwt>
<pdfrwt beam="2">  1       -1 0.30311743E-01 0.16330084E+03</pdfrwt>
<totfact> 0.51555949E+01</totfact>
</mgrwt>
</event>
<event>
 4    1  0.1852677E-008  0.3745089E+03  0.7818608E-02  0.1052982E+00
         -1   -1    0    0    0  501 -0.00000000000E+00  0.00000000000E+00  0.52465997882E+03  0.52465997884E+03  0.50400000000E-02 0.  1.
          1   -1    0    0  501    0  0.00000000000E+00 -0.00000000000E+00 -0.62242067717E+03  0.62242067719E+03  0.50400000000E-02 0. -1.
    8880022    1    1    2    0    0  0.24807709927E+03  0.23520852843E+03  0.38432324971E+03  0.53662026827E+03  0.15294330000E+03 0.  1.
    8880022    1    1    2    0    0 -0.24807709927E+03 -0.23520852843E+03 -0.48208394807E+03  0.61046038777E+03  0.15294330000E+03 0.  0.
<mgrwt>
<rscale>  0 0.37450895E+03</rscale>
<asrwt>0</asrwt>
<pdfrwt beam="1">  1        1 0.95757028E-01 0.37450895E+03</pdfrwt>
<pdfrwt beam="2">  1       -1 0.80716920E-01 0.37450895E+03</pdfrwt>
<totfact> 0.53140686E+01</totfact>
</mgrwt>
</event>
<event>
 4    1  0.1852677E-008  0.5658563E+03  0.7818608E-02  0.9978890E-01
         -1   -1    0    0    0  501 -0.00000000000E+00  0.00000000000E+00  0.64224561477E+03  0.64224561479E+03  0.50400000000E-02 0.  1.
          1   -1    0    0  501    0  0.00000000000E+00 -0.00000000000E+00 -0.58831785784E+03  0.58831785786E+03  0.50400000000E-02 0. -1.
    8880022    1    1    2    0    0  0.26127957073E+03  0.47805305925E+03 -0.21337359776E+03  0.60474927596E+03  0.15294330000E+03 0.  0.
    8880022    1    1    2    0    0 -0.26127957073E+03 -0.47805305925E+03  0.26730135469E+03  0.62581419668E+03  0.15294330000E+03 0.  0.
<mgrwt>
<rscale>  0 0.56585634E+03</rscale>
<asrwt>0</asrwt>
<pdfrwt beam="1">  1        1 0.90510440E-01 0.56585634E+03</pdfrwt>
<pdfrwt beam="2">  1       -1 0.98807017E-01 0.56585634E+03</pdfrwt>
<totfact> 0.36047210E+01</totfact>
</mgrwt>
</event>
<event>
 4    1  0.1852677E-008  0.4883515E+03  0.7818608E-02  0.1016865E+00
          1   -1    0    0  501    0  0.00000000000E+00  0.00000000000E+00  0.18428860646E+04  0.18428860646E+04  0.50400000000E-02 0. -1.
         -1   -1    0    0    0  501 -0.00000000000E+00 -0.00000000000E+00 -0.40665850675E+03  0.40665850678E+03  0.50400000000E-02 0.  1.
    8880022    1    1    2    0    0 -0.36972988401E+03 -0.27999164955E+03 -0.21060577717E+03  0.53182887975E+03  0.15294330000E+03 0.  0.
    8880022    1    1    2    0    0  0.36972988401E+03  0.27999164955E+03  0.16468333350E+04  0.17177156917E+04  0.15294330000E+03 0.  0.
<mgrwt>
<rscale>  0 0.48835148E+03</rscale>
<asrwt>0</asrwt>
<pdfrwt beam="1">  1        1 0.28352093E+00 0.48835148E+03</pdfrwt>
<pdfrwt beam="2">  1       -1 0.62562848E-01 0.48835148E+03</pdfrwt>
<totfact> 0.10830563E+01</totfact>
</mgrwt>
</event>
<event>
 4    1  0.1852677E-008  0.4541340E+03  0.7818608E-02  0.1026496E+00
          1   -1    0    0  501    0  0.00000000000E+00  0.00000000000E+00  0.17351114851E+04  0.17351114851E+04  0.50400000000E-02 0. -1.
         -1   -1    0    0    0  501 -0.00000000000E+00 -0.00000000000E+00 -0.54023528377E+03  0.54023528380E+03  0.50400000000E-02 0.  1.
    8880022    1    1    2    0    0 -0.42481031040E+03  0.48807828426E+02  0.16021926228E+04  0.16653104387E+04  0.15294330000E+03 0.  0.
    8880022    1    1    2    0    0  0.42481031040E+03 -0.48807828426E+02 -0.40731642144E+03  0.61003633016E+03  0.15294330000E+03 0.  0.
<mgrwt>
<rscale>  0 0.45413396E+03</rscale>
<asrwt>0</asrwt>
<pdfrwt beam="1">  1        1 0.26694023E+00 0.45413396E+03</pdfrwt>
<pdfrwt beam="2">  1       -1 0.83113121E-01 0.45413396E+03</pdfrwt>
<totfact> 0.72028433E+00</totfact>
</mgrwt>
</event>
<event>
 4    1  0.1852677E-008  0.4093528E+03  0.7818608E-02  0.1040588E+00
         -1   -1    0    0    0  501 -0.00000000000E+00  0.00000000000E+00  0.21483143916E+03  0.21483143922E+03  0.50400000000E-02 0.  1.
          1   -1    0    0  501    0  0.00000000000E+00 -0.00000000000E+00 -0.95572021877E+03  0.95572021878E+03  0.50400000000E-02 0. -1.
    8880022    1    1    2    0    0  0.30574588725E+03 -0.22516111170E+03 -0.11948748898E+03  0.42643520824E+03  0.15294330000E+03 0.  0.
    8880022    1    1    2    0    0 -0.30574588725E+03  0.22516111170E+03 -0.62140129063E+03  0.74411644976E+03  0.15294330000E+03 0.  0.
<mgrwt>
<rscale>  0 0.40935281E+03</rscale>
<asrwt>0</asrwt>
<pdfrwt beam="1">  1        1 0.14703388E+00 0.40935281E+03</pdfrwt>
<pdfrwt beam="2">  1       -1 0.33050991E-01 0.40935281E+03</pdfrwt>
<totfact> 0.14788401E+02</totfact>
</mgrwt>
</event>
<event>
 4    1  0.1852677E-008  0.3170373E+03  0.7818608E-02  0.1077021E+00
         -1   -1    0    0    0  501 -0.00000000000E+00  0.00000000000E+00  0.14265695595E+04  0.14265695595E+04  0.50400000000E-02 0.  1.
          1   -1    0    0  501    0  0.00000000000E+00 -0.00000000000E+00 -0.38109951143E+03  0.38109951147E+03  0.50400000000E-02 0. -1.
    8880022    1    1    2    0    0 -0.27343544268E+03  0.48518590266E+02 -0.29328303510E+03  0.43188839601E+03  0.15294330000E+03 0.  0.
    8880022    1    1    2    0    0  0.27343544268E+03 -0.48518590266E+02  0.13387530832E+04  0.13757806750E+04  0.15294330000E+03 0.  0.
<mgrwt>
<rscale>  0 0.31703730E+03</rscale>
<asrwt>0</asrwt>
<pdfrwt beam="1">  1        1 0.58630694E-01 0.31703730E+03</pdfrwt>
<pdfrwt beam="2">  1       -1 0.21947224E+00 0.31703730E+03</pdfrwt>
<totfact> 0.80003792E+00</totfact>
</mgrwt>
</event>
<event>
 4    1  0.1852677E-008  0.6280586E+03  0.7818608E-02  0.9848845E-01
          1   -1    0    0  501    0  0.00000000000E+00  0.00000000000E+00  0.50865665348E+03  0.50865665351E+03  0.50400000000E-02 0. -1.
         -1   -1    0    0    0  501 -0.00000000000E+00 -0.00000000000E+00 -0.98930573188E+03  0.98930573189E+03  0.50400000000E-02 0.  1.
    8880022    1    1    2    0    0 -0.22515117845E+03  0.56601493822E+03  0.10787367511E+03  0.63725532265E+03  0.15294330000E+03 0.  0.
    8880022    1    1    2    0    0  0.22515117845E+03 -0.56601493822E+03 -0.58852275351E+03  0.86070706275E+03  0.15294330000E+03 0.  0.
<mgrwt>
<rscale>  0 0.62805861E+03</rscale>
<asrwt>0</asrwt>
<pdfrwt beam="1">  1        1 0.78254870E-01 0.62805861E+03</pdfrwt>
<pdfrwt beam="2">  1       -1 0.15220088E+00 0.62805861E+03</pdfrwt>
<totfact> 0.15150225E+01</totfact>
</mgrwt>
</event>
<event>
 4    1  0.1852677E-008  0.3730985E+03  0.7818608E-02  0.1053514E+00
          1   -1    0    0  501    0  0.00000000000E+00  0.00000000000E+00  0.67715883434E+03  0.67715883436E+03  0.50400000000E-02 0. -1.
         -1   -1    0    0    0  501 -0.00000000000E+00 -0.00000000000E+00 -0.68776299235E+03  0.68776299237E+03  0.50400000000E-02 0.  1.
    8880022    1    1    2    0    0  0.32763594492E+03  0.92008471841E+02 -0.57674058963E+03  0.68690045279E+03  0.15294330000E+03 0.  0.
    8880022    1    1    2    0    0 -0.32763594492E+03 -0.92008471841E+02  0.56613643163E+03  0.67802137394E+03  0.15294330000E+03 0. -1.
<mgrwt>
<rscale>  0 0.37309855E+03</rscale>
<asrwt>0</asrwt>
<pdfrwt beam="1">  1        1 0.10417828E+00 0.37309855E+03</pdfrwt>
<pdfrwt beam="2">  1       -1 0.10580969E+00 0.37309855E+03</pdfrwt>
<totfact> 0.26002850E+01</totfact>
</mgrwt>
</event>
<event>
 4    1  0.1852677E-008  0.5505408E+03  0.7818608E-02  0.1001369E+00
         -1   -1    0    0    0  501 -0.00000000000E+00  0.00000000000E+00  0.26811071554E+03  0.26811071559E+03  0.50400000000E-02 0.  1.
          1   -1    0    0  501    0  0.00000000000E+00 -0.00000000000E+00 -0.17235670326E+04  0.17235670326E+04  0.50400000000E-02 0. -1.
    8880022    1    1    2    0    0 -0.29364863625E+03  0.43985683718E+03 -0.14356754052E+03  0.56895241496E+03  0.15294330000E+03 0.  0.
    8880022    1    1    2    0    0  0.29364863625E+03 -0.43985683718E+03 -0.13118887765E+04  0.14227253332E+04  0.15294330000E+03 0.  0.
<mgrwt>
<rscale>  0 0.55054084E+03</rscale>
<asrwt>0</asrwt>
<pdfrwt beam="1">  1        1 0.26516415E+00 0.55054084E+03</pdfrwt>
<pdfrwt beam="2">  1       -1 0.41247803E-01 0.55054084E+03</pdfrwt>
<totfact> 0.28194935E+01</totfact>
</mgrwt>
</event>
<event>
 4    1  0.1852677E-008  0.5679954E+03  0.7818608E-02  0.9974124E-01
         -1   -1    0    0    0  501 -0.00000000000E+00  0.00000000000E+00  0.10154406733E+04  0.10154406733E+04  0.50400000000E-02 0.  1.
          1   -1    0    0  501    0  0.00000000000E+00 -0.00000000000E+00 -0.53206015784E+03  0.53206015786E+03  0.50400000000E-02 0. -1.
    8880022    1    1    2    0    0 -0.50578098041E+03 -0.20835722095E+03  0.73280085856E+03  0.92715472440E+03  0.15294330000E+03 0.  0.
    8880022    1    1    2    0    0  0.50578098041E+03  0.20835722095E+03 -0.24942034307E+03  0.62034610680E+03  0.15294330000E+03 0.  0.
<mgrwt>
<rscale>  0 0.56799541E+03</rscale>
<asrwt>0</asrwt>
<pdfrwt beam="1">  1        1 0.81855410E-01 0.56799541E+03</pdfrwt>
<pdfrwt beam="2">  1       -1 0.15622164E+00 0.56799541E+03</pdfrwt>
<totfact> 0.13386863E+01</totfact>
</mgrwt>
</event>
<event>
 4    1  0.1852677E-008  0.5233501E+03  0.7818608E-02  0.1007858E+00
          1   -1    0    0  501    0  0.00000000000E+00  0.00000000000E+00  0.12210325295E+04  0.12210325296E+04  0.50400000000E-02 0. -1.
         -1   -1    0    0    0  501 -0.00000000000E+00 -0.00000000000E+00 -0.46952889794E+03  0.46952889797E+03  0.50400000000E-02 0.  1.
    8880022    1    1    2    0    0 -0.15627061009E+03  0.47548204446E+03  0.98661332145E+03  0.11168263864E+04  0.15294330000E+03 0.  0.
    8880022    1    1    2    0    0  0.15627061009E+03 -0.47548204446E+03 -0.23510968985E+03  0.57373504117E+03  0.15294330000E+03 0.  0.
<mgrwt>
<rscale>  0 0.52335010E+03</rscale>
<asrwt>0</asrwt>
<pdfrwt beam="1">  1        1 0.18785116E+00 0.52335010E+03</pdfrwt>
<pdfrwt beam="2">  1       -1 0.72235216E-01 0.52335010E+03</pdfrwt>
<totfact> 0.21278754E+01</totfact>
</mgrwt>
</event>
<event>
 4    1  0.1852677E-008  0.8968159E+03  0.7818608E-02  0.9429570E-01
          1   -1    0    0  501    0  0.00000000000E+00  0.00000000000E+00  0.21442514534E+04  0.21442514534E+04  0.50400000000E-02 0. -1.
         -1   -1    0    0    0  501 -0.00000000000E+00 -0.00000000000E+00 -0.77926321558E+03  0.77926321560E+03  0.50400000000E-02 0.  1.
    8880022    1    1    2    0    0  0.77060378629E+03  0.43250078665E+03 -0.37024094336E+03  0.97023560801E+03  0.15294330000E+03 0.  0.
    8880022    1    1    2    0    0 -0.77060378629E+03 -0.43250078665E+03  0.17352291812E+04  0.19532790610E+04  0.15294330000E+03 0.  0.
<mgrwt>
<rscale>  0 0.89681591E+03</rscale>
<asrwt>0</asrwt>
<pdfrwt beam="1">  1        1 0.32988484E+00 0.89681591E+03</pdfrwt>
<pdfrwt beam="2">  1       -1 0.11988665E+00 0.89681591E+03</pdfrwt>
<totfact> 0.15193791E+00</totfact>
</mgrwt>
</event>
<event>
 4    1  0.1852677E-008  0.1190237E+04  0.7818608E-02  0.9121445E-01
          1   -1    0    0  501    0  0.00000000000E+00  0.00000000000E+00  0.10566505734E+04  0.10566505734E+04  0.50400000000E-02 0. -1.
         -1   -1    0    0    0  501 -0.00000000000E+00 -0.00000000000E+00 -0.14487807508E+04  0.14487807508E+04  0.50400000000E-02 0.  1.
    8880022    1    1    2    0    0 -0.10342323267E+04  0.56889079408E+03  0.14607166942E+03  0.11991671388E+04  0.15294330000E+03 0.  0.
    8880022    1    1    2    0    0  0.10342323267E+04 -0.56889079408E+03 -0.53820184687E+03  0.13062641854E+04  0.15294330000E+03 0.  0.
<mgrwt>
<rscale>  0 0.11902373E+04</rscale>
<asrwt>0</asrwt>
<pdfrwt beam="1">  1        1 0.16256163E+00 0.11902373E+04</pdfrwt>
<pdfrwt beam="2">  1       -1 0.22288935E+00 0.11902373E+04</pdfrwt>
<totfact> 0.14139387E+00</totfact>
</mgrwt>
</event>
<event>
 4    1  0.1852677E-008  0.2862282E+03  0.7818608E-02  0.1092335E+00
         -1   -1    0    0    0  501 -0.00000000000E+00  0.00000000000E+00  0.10171440961E+03  0.10171440974E+03  0.50400000000E-02 0.  1.
          1   -1    0    0  501    0  0.00000000000E+00 -0.00000000000E+00 -0.22419646465E+04  0.22419646465E+04  0.50400000000E-02 0. -1.
    8880022    1    1    2    0    0  0.23640212863E+03  0.51467949722E+02 -0.13211449875E+03  0.31524722055E+03  0.15294330000E+03 0.  1.
    8880022    1    1    2    0    0 -0.23640212863E+03 -0.51467949722E+02 -0.20081357381E+04  0.20284318357E+04  0.15294330000E+03 0.  0.
<mgrwt>
<rscale>  0 0.28622818E+03</rscale>
<asrwt>0</asrwt>
<pdfrwt beam="1">  1        1 0.34491760E+00 0.28622818E+03</pdfrwt>
<pdfrwt beam="2">  1       -1 0.15648372E-01 0.28622818E+03</pdfrwt>
<totfact> 0.70514020E+01</totfact>
</mgrwt>
</event>
<event>
 4    1  0.1852677E-008  0.5021983E+03  0.7818608E-02  0.1013207E+00
          1   -1    0    0  501    0  0.00000000000E+00  0.00000000000E+00  0.13382222581E+04  0.13382222582E+04  0.50400000000E-02 0. -1.
         -1   -1    0    0    0  501 -0.00000000000E+00 -0.00000000000E+00 -0.30183405739E+03  0.30183405743E+03  0.50400000000E-02 0.  1.
    8880022    1    1    2    0    0  0.72503766519E+02  0.47281573989E+03  0.10207668120E+04  0.11376150744E+04  0.15294330000E+03 0.  0.
    8880022    1    1    2    0    0 -0.72503766519E+02 -0.47281573989E+03  0.15621388793E+02  0.50244124120E+03  0.15294330000E+03 0.  0.
<mgrwt>
<rscale>  0 0.50219834E+03</rscale>
<asrwt>0</asrwt>
<pdfrwt beam="1">  1        1 0.20588035E+00 0.50219834E+03</pdfrwt>
<pdfrwt beam="2">  1       -1 0.46436009E-01 0.50219834E+03</pdfrwt>
<totfact> 0.41709364E+01</totfact>
</mgrwt>
</event>
<event>
 4    1  0.1852677E-008  0.4262300E+03  0.7818608E-02  0.1035058E+00
          1   -1    0    0  501    0  0.00000000000E+00  0.00000000000E+00  0.79534735318E+03  0.79534735319E+03  0.50400000000E-02 0. -1.
         -1   -1    0    0    0  501 -0.00000000000E+00 -0.00000000000E+00 -0.61240970785E+03  0.61240970787E+03  0.50400000000E-02 0.  1.
    8880022    1    1    2    0    0  0.39404969091E+02 -0.39588835895E+03 -0.46589318609E+03  0.63144948983E+03  0.15294330000E+03 0.  0.
    8880022    1    1    2    0    0 -0.39404969091E+02  0.39588835895E+03  0.64883083142E+03  0.77630757124E+03  0.15294330000E+03 0.  0.
<mgrwt>
<rscale>  0 0.42622998E+03</rscale>
<asrwt>0</asrwt>
<pdfrwt beam="1">  1        1 0.12236113E+00 0.42622998E+03</pdfrwt>
<pdfrwt beam="2">  1       -1 0.94216879E-01 0.42622998E+03</pdfrwt>
<totfact> 0.26189240E+01</totfact>
</mgrwt>
</event>
<event>
 4    1  0.1852677E-008  0.7126717E+03  0.7818608E-02  0.9695804E-01
          1   -1    0    0  501    0  0.00000000000E+00  0.00000000000E+00  0.78185505182E+03  0.78185505184E+03  0.50400000000E-02 0. -1.
         -1   -1    0    0    0  501 -0.00000000000E+00 -0.00000000000E+00 -0.68850644555E+03  0.68850644557E+03  0.50400000000E-02 0.  1.
    8880022    1    1    2    0    0  0.26117656990E+03 -0.64521007109E+03 -0.12806671835E+03  0.72408699329E+03  0.15294330000E+03 0.  0.
    8880022    1    1    2    0    0 -0.26117656990E+03  0.64521007109E+03  0.22141532463E+03  0.74627450411E+03  0.15294330000E+03 0.  0.
<mgrwt>
<rscale>  0 0.71267166E+03</rscale>
<asrwt>0</asrwt>
<pdfrwt beam="1">  1        1 0.12028539E+00 0.71267166E+03</pdfrwt>
<pdfrwt beam="2">  1       -1 0.10592407E+00 0.71267166E+03</pdfrwt>
<totfact> 0.19744760E+01</totfact>
</mgrwt>
</event>
<event>
 4    1  0.1852677E-008  0.8513375E+03  0.7818608E-02  0.9488544E-01
          1   -1    0    0  501    0  0.00000000000E+00  0.00000000000E+00  0.24220254081E+04  0.24220254081E+04  0.50400000000E-02 0. -1.
         -1   -1    0    0    0  501 -0.00000000000E+00 -0.00000000000E+00 -0.32546392477E+03  0.32546392481E+03  0.50400000000E-02 0.  1.
    8880022    1    1    2    0    0 -0.62999093415E+03 -0.55181089058E+03  0.65836208859E+03  0.10762045014E+04  0.15294330000E+03 0.  0.
    8880022    1    1    2    0    0  0.62999093415E+03  0.55181089058E+03  0.14381993947E+04  0.16712848315E+04  0.15294330000E+03 0.  0.
<mgrwt>
<rscale>  0 0.85133747E+03</rscale>
<asrwt>0</asrwt>
<pdfrwt beam="1">  1        1 0.37261928E+00 0.85133747E+03</pdfrwt>
<pdfrwt beam="2">  1       -1 0.50071374E-01 0.85133747E+03</pdfrwt>
<totfact> 0.63763951E+00</totfact>
</mgrwt>
</event>
<event>
 4    1  0.1852677E-008  0.1331401E+04  0.7818608E-02  0.9005028E-01
         -1   -1    0    0    0  501 -0.00000000000E+00  0.00000000000E+00  0.69704972858E+03  0.69704972860E+03  0.50400000000E-02 0.  1.
          1   -1    0    0  501    0  0.00000000000E+00 -0.00000000000E+00 -0.29969893012E+04  0.29969893013E+04  0.50400000000E-02 0. -1.
    8880022    1    1    2    0    0  0.69468141358E+03  0.11254577044E+04 -0.43113335722E+03  0.13994659465E+04  0.15294330000E+03 0.  0.
    8880022    1    1    2    0    0 -0.69468141358E+03 -0.11254577044E+04 -0.18688062154E+04  0.22945730833E+04  0.15294330000E+03 0.  0.
<mgrwt>
<rscale>  0 0.13314011E+04</rscale>
<asrwt>0</asrwt>
<pdfrwt beam="1">  1        1 0.46107527E+00 0.13314011E+04</pdfrwt>
<pdfrwt beam="2">  1       -1 0.10723842E+00 0.13314011E+04</pdfrwt>
<totfact> 0.47599145E-01</totfact>
</mgrwt>
</event>
<event>
 4    1  0.1852677E-008  0.5975996E+03  0.7818608E-02  0.9910399E-01
          1   -1    0    0  501    0  0.00000000000E+00  0.00000000000E+00  0.70901725116E+03  0.70901725118E+03  0.50400000000E-02 0. -1.
         -1   -1    0    0    0  501 -0.00000000000E+00 -0.00000000000E+00 -0.71217706927E+03  0.71217706929E+03  0.50400000000E-02 0.  1.
    8880022    1    1    2    0    0 -0.53698835916E+03 -0.21301901875E+03 -0.38605527303E+03  0.71145198508E+03  0.15294330000E+03 0.  0.
    8880022    1    1    2    0    0  0.53698835916E+03  0.21301901875E+03  0.38289545492E+03  0.70974233539E+03  0.15294330000E+03 0.  0.
<mgrwt>
<rscale>  0 0.59759958E+03</rscale>
<asrwt>0</asrwt>
<pdfrwt beam="1">  1        1 0.10907958E+00 0.59759958E+03</pdfrwt>
<pdfrwt beam="2">  1       -1 0.10956570E+00 0.59759958E+03</pdfrwt>
<totfact> 0.21537729E+01</totfact>
</mgrwt>
</event>
<event>
 4    1  0.1852677E-008  0.9540129E+03  0.7818608E-02  0.9360472E-01
          1   -1    0    0  501    0  0.00000000000E+00  0.00000000000E+00  0.29704152092E+04  0.29704152092E+04  0.50400000000E-02 0. -1.
         -1   -1    0    0    0  501 -0.00000000000E+00 -0.00000000000E+00 -0.52978125882E+03  0.52978125884E+03  0.50400000000E-02 0.  1.
    8880022    1    1    2    0    0 -0.88315601846E+03 -0.32677890493E+03  0.23567287325E+04  0.25425009297E+04  0.15294330000E+03 0.  0.
    8880022    1    1    2    0    0  0.88315601846E+03  0.32677890493E+03  0.83905217872E+02  0.95769553839E+03  0.15294330000E+03 0.  0.
<mgrwt>
<rscale>  0 0.95401292E+03</rscale>
<asrwt>0</asrwt>
<pdfrwt beam="1">  1        1 0.45698694E+00 0.95401292E+03</pdfrwt>
<pdfrwt beam="2">  1       -1 0.81504811E-01 0.95401292E+03</pdfrwt>
<totfact> 0.97514847E-01</totfact>
</mgrwt>
</event>
<event>
 4    1  0.1852677E-008  0.7057910E+03  0.7818608E-02  0.9707380E-01
         -1   -1    0    0    0  501 -0.00000000000E+00  0.00000000000E+00  0.43240458788E+03  0.43240458791E+03  0.50400000000E-02 0.  1.
          1   -1    0    0  501    0  0.00000000000E+00 -0.00000000000E+00 -0.21825073530E+04  0.21825073530E+04  0.50400000000E-02 0. -1.
    8880022    1    1    2    0    0 -0.67182431028E+03 -0.15297486867E+03  0.23348130645E+02  0.70617703344E+03  0.15294330000E+03 0.  0.
    8880022    1    1    2    0    0  0.67182431028E+03  0.15297486867E+03 -0.17734508957E+04  0.19087349075E+04  0.15294330000E+03 0.  0.
<mgrwt>
<rscale>  0 0.70579095E+03</rscale>
<asrwt>0</asrwt>
<pdfrwt beam="1">  1        1 0.33577036E+00 0.70579095E+03</pdfrwt>
<pdfrwt beam="2">  1       -1 0.66523784E-01 0.70579095E+03</pdfrwt>
<totfact> 0.54400562E+00</totfact>
</mgrwt>
</event>
<event>
 4    1  0.1852677E-008  0.8071076E+03  0.7818608E-02  0.9549786E-01
         -1   -1    0    0    0  501 -0.00000000000E+00  0.00000000000E+00  0.63746882733E+03  0.63746882735E+03  0.50400000000E-02 0.  1.
          1   -1    0    0  501    0  0.00000000000E+00 -0.00000000000E+00 -0.25481655607E+04  0.25481655607E+04  0.50400000000E-02 0. -1.
    8880022    1    1    2    0    0 -0.73264707562E+03 -0.30209144916E+03  0.27738364937E+03  0.85344263019E+03  0.15294330000E+03 0.  0.
    8880022    1    1    2    0    0  0.73264707562E+03  0.30209144916E+03 -0.21880803828E+04  0.23321917579E+04  0.15294330000E+03 0.  0.
<mgrwt>
<rscale>  0 0.80710757E+03</rscale>
<asrwt>0</asrwt>
<pdfrwt beam="1">  1        1 0.39202547E+00 0.80710757E+03</pdfrwt>
<pdfrwt beam="2">  1       -1 0.98072129E-01 0.80710757E+03</pdfrwt>
<totfact> 0.13179983E+00</totfact>
</mgrwt>
</event>
<event>
 4    1  0.1852677E-008  0.2586768E+03  0.7818608E-02  0.1107941E+00
         -1   -1    0    0    0  501 -0.00000000000E+00  0.00000000000E+00  0.83229553701E+03  0.83229553702E+03  0.50400000000E-02 0.  1.
          1   -1    0    0  501    0  0.00000000000E+00 -0.00000000000E+00 -0.86254300795E+03  0.86254300796E+03  0.50400000000E-02 0. -1.
    8880022    1    1    2    0    0 -0.17806156146E+03 -0.10870205514E+03  0.79183623536E+03  0.83301760672E+03  0.15294330000E+03 0.  1.
    8880022    1    1    2    0    0  0.17806156146E+03  0.10870205514E+03 -0.82208370630E+03  0.86182093827E+03  0.15294330000E+03 0.  0.
<mgrwt>
<rscale>  0 0.25867684E+03</rscale>
<asrwt>0</asrwt>
<pdfrwt beam="1">  1        1 0.13269892E+00 0.25867684E+03</pdfrwt>
<pdfrwt beam="2">  1       -1 0.12804547E+00 0.25867684E+03</pdfrwt>
<totfact> 0.11841651E+01</totfact>
</mgrwt>
</event>
<event>
 4    1  0.1852677E-008  0.4495340E+03  0.7818608E-02  0.1027861E+00
         -1   -1    0    0    0  501 -0.00000000000E+00  0.00000000000E+00  0.30806325217E+03  0.30806325221E+03  0.50400000000E-02 0.  1.
          1   -1    0    0  501    0  0.00000000000E+00 -0.00000000000E+00 -0.99083257432E+03  0.99083257433E+03  0.50400000000E-02 0. -1.
    8880022    1    1    2    0    0 -0.38493054753E+02 -0.42096010901E+03 -0.71893631554E+03  0.84790931558E+03  0.15294330000E+03 0.  0.
    8880022    1    1    2    0    0  0.38493054753E+02  0.42096010901E+03  0.36166993388E+02  0.45098651096E+03  0.15294330000E+03 0.  0.
<mgrwt>
<rscale>  0 0.44953396E+03</rscale>
<asrwt>0</asrwt>
<pdfrwt beam="1">  1        1 0.15243578E+00 0.44953396E+03</pdfrwt>
<pdfrwt beam="2">  1       -1 0.47394347E-01 0.44953396E+03</pdfrwt>
<totfact> 0.72278582E+01</totfact>
</mgrwt>
</event>
<event>
 4    1  0.1935730E-008  0.5729907E+03  0.7818608E-02  0.9963082E-01
          1   -1    0    0  501    0  0.00000000000E+00  0.00000000000E+00  0.27614990343E+04  0.27614990343E+04  0.50400000000E-02 0. -1.
         -1   -1    0    0    0  501 -0.00000000000E+00 -0.00000000000E+00 -0.11227134738E+04  0.11227134738E+04  0.50400000000E-02 0.  1.
    8880022    1    1    2    0    0 -0.53019940327E+03  0.15432217057E+03  0.26557911457E+04  0.27168998881E+04  0.15294330000E+03 0.  0.
    8880022    1    1    2    0    0  0.53019940327E+03 -0.15432217057E+03 -0.10170055852E+04  0.11673126200E+04  0.15294330000E+03 0.  0.
<mgrwt>
<rscale>  0 0.57299074E+03</rscale>
<asrwt>0</asrwt>
<pdfrwt beam="1">  1        1 0.42484600E+00 0.57299074E+03</pdfrwt>
<pdfrwt beam="2">  1       -1 0.17272515E+00 0.57299074E+03</pdfrwt>
<totfact> 0.23810945E-01</totfact>
</mgrwt>
</event>
<event>
 4    1  0.1852677E-008  0.2544796E+03  0.7818608E-02  0.1110506E+00
          1   -1    0    0  501    0  0.00000000000E+00  0.00000000000E+00  0.64331717989E+03  0.64331717991E+03  0.50400000000E-02 0. -1.
         -1   -1    0    0    0  501 -0.00000000000E+00 -0.00000000000E+00 -0.40296903836E+03  0.40296903839E+03  0.50400000000E-02 0.  1.
    8880022    1    1    2    0    0 -0.20335233296E+03 -0.40073758804E+01 -0.33293863737E+03  0.41905610561E+03  0.15294330000E+03 0.  0.
    8880022    1    1    2    0    0  0.20335233296E+03  0.40073758804E+01  0.57328677890E+03  0.62723011269E+03  0.15294330000E+03 0. -1.
<mgrwt>
<rscale>  0 0.25447963E+03</rscale>
<asrwt>0</asrwt>
<pdfrwt beam="1">  1        1 0.98971873E-01 0.25447963E+03</pdfrwt>
<pdfrwt beam="2">  1       -1 0.61995237E-01 0.25447963E+03</pdfrwt>
<totfact> 0.88392492E+01</totfact>
</mgrwt>
</event>
<event>
 4    1  0.1852677E-008  0.6820582E+03  0.7818608E-02  0.9748417E-01
         -1   -1    0    0    0  501 -0.00000000000E+00  0.00000000000E+00  0.60141762517E+03  0.60141762519E+03  0.50400000000E-02 0.  1.
          1   -1    0    0  501    0  0.00000000000E+00 -0.00000000000E+00 -0.22049140071E+04  0.22049140071E+04  0.50400000000E-02 0. -1.
    8880022    1    1    2    0    0 -0.62804702352E+03  0.21764350575E+03  0.32881297539E+03  0.75717988955E+03  0.15294330000E+03 0.  0.
    8880022    1    1    2    0    0  0.62804702352E+03 -0.21764350575E+03 -0.19323093573E+04  0.20491517427E+04  0.15294330000E+03 0.  0.
<mgrwt>
<rscale>  0 0.68205822E+03</rscale>
<asrwt>0</asrwt>
<pdfrwt beam="1">  1        1 0.33921754E+00 0.68205822E+03</pdfrwt>
<pdfrwt beam="2">  1       -1 0.92525790E-01 0.68205822E+03</pdfrwt>
<totfact> 0.26317508E+00</totfact>
</mgrwt>
</event>
<event>
 4    1  0.1852677E-008  0.2644433E+03  0.7818608E-02  0.1104503E+00
         -1   -1    0    0    0  501 -0.00000000000E+00  0.00000000000E+00  0.72313111646E+03  0.72313111648E+03  0.50400000000E-02 0.  1.
          1   -1    0    0  501    0  0.00000000000E+00 -0.00000000000E+00 -0.17144034485E+03  0.17144034492E+03  0.50400000000E-02 0. -1.
    8880022    1    1    2    0    0 -0.79005905572E+02  0.20074036848E+03  0.57116480326E+03  0.62941203846E+03  0.15294330000E+03 0.  0.
    8880022    1    1    2    0    0  0.79005905572E+02 -0.20074036848E+03 -0.19474031651E+02  0.26515942294E+03  0.15294330000E+03 0. -1.
<mgrwt>
<rscale>  0 0.26444334E+03</rscale>
<asrwt>0</asrwt>
<pdfrwt beam="1">  1        1 0.26375438E-01 0.26444334E+03</pdfrwt>
<pdfrwt beam="2">  1       -1 0.11125094E+00 0.26444334E+03</pdfrwt>
<totfact> 0.14218317E+02</totfact>
</mgrwt>
</event>
<event>
 4    1  0.1852677E-008  0.4473488E+03  0.7818608E-02  0.1028516E+00
          1   -1    0    0  501    0  0.00000000000E+00  0.00000000000E+00  0.12091215582E+04  0.12091215582E+04  0.50400000000E-02 0. -1.
         -1   -1    0    0    0  501 -0.00000000000E+00 -0.00000000000E+00 -0.34850886283E+03  0.34850886286E+03  0.50400000000E-02 0.  1.
    8880022    1    1    2    0    0 -0.40633581942E+03  0.10779831819E+03 -0.13404877676E+03  0.46700107399E+03  0.15294330000E+03 0.  0.
    8880022    1    1    2    0    0  0.40633581942E+03 -0.10779831819E+03  0.99466147208E+03  0.10906293470E+04  0.15294330000E+03 0.  0.
<mgrwt>
<rscale>  0 0.44734878E+03</rscale>
<asrwt>0</asrwt>
<pdfrwt beam="1">  1        1 0.18601870E+00 0.44734878E+03</pdfrwt>
<pdfrwt beam="2">  1       -1 0.53616748E-01 0.44734878E+03</pdfrwt>
<totfact> 0.39614915E+01</totfact>
</mgrwt>
</event>
<event>
 4    1  0.1852677E-008  0.8507886E+03  0.7818608E-02  0.9489279E-01
          1   -1    0    0  501    0  0.00000000000E+00  0.00000000000E+00  0.93252975687E+03  0.93252975688E+03  0.50400000000E-02 0. -1.
         -1   -1    0    0    0  501 -0.00000000000E+00 -0.00000000000E+00 -0.16165148512E+04  0.16165148512E+04  0.50400000000E-02 0.  1.
    8880022    1    1    2    0    0  0.68843470100E+03  0.47592778482E+03 -0.12609076339E+04  0.15210947729E+04  0.15294330000E+03 0.  0.
    8880022    1    1    2    0    0 -0.68843470100E+03 -0.47592778482E+03  0.57692253959E+03  0.10279498352E+04  0.15294330000E+03 0.  0.
<mgrwt>
<rscale>  0 0.85078860E+03</rscale>
<asrwt>0</asrwt>
<pdfrwt beam="1">  1        1 0.14346612E+00 0.85078860E+03</pdfrwt>
<pdfrwt beam="2">  1       -1 0.24869459E+00 0.85078860E+03</pdfrwt>
<totfact> 0.12552303E+00</totfact>
</mgrwt>
</event>
<event>
 4    1  0.1852677E-008  0.3723067E+03  0.7818608E-02  0.1053814E+00
         -1   -1    0    0    0  501 -0.00000000000E+00  0.00000000000E+00  0.58561142876E+03  0.58561142878E+03  0.50400000000E-02 0.  1.
          1   -1    0    0  501    0  0.00000000000E+00 -0.00000000000E+00 -0.58816349666E+03  0.58816349668E+03  0.50400000000E-02 0. -1.
    8880022    1    1    2    0    0 -0.13233821857E+03  0.31258149107E+03 -0.45495432632E+03  0.58787386803E+03  0.15294330000E+03 0.  0.
    8880022    1    1    2    0    0  0.13233821857E+03 -0.31258149107E+03  0.45240225842E+03  0.58590105743E+03  0.15294330000E+03 0.  0.
<mgrwt>
<rscale>  0 0.37230666E+03</rscale>
<asrwt>0</asrwt>
<pdfrwt beam="1">  1        1 0.90486691E-01 0.37230666E+03</pdfrwt>
<pdfrwt beam="2">  1       -1 0.90094066E-01 0.37230666E+03</pdfrwt>
<totfact> 0.45546826E+01</totfact>
</mgrwt>
</event>
<event>
 4    1  0.1852677E-008  0.3107299E+03  0.7818608E-02  0.1079997E+00
          1   -1    0    0  501    0  0.00000000000E+00  0.00000000000E+00  0.10458781598E+04  0.10458781598E+04  0.50400000000E-02 0. -1.
         -1   -1    0    0    0  501 -0.00000000000E+00 -0.00000000000E+00 -0.42520618048E+03  0.42520618051E+03  0.50400000000E-02 0.  1.
    8880022    1    1    2    0    0  0.26955631083E+03 -0.22378607242E+02  0.96115042903E+03  0.10101302921E+04  0.15294330000E+03 0.  0.
    8880022    1    1    2    0    0 -0.26955631083E+03  0.22378607242E+02 -0.34047844976E+03  0.46095404818E+03  0.15294330000E+03 0.  1.
<mgrwt>
<rscale>  0 0.31072988E+03</rscale>
<asrwt>0</asrwt>
<pdfrwt beam="1">  1        1 0.16090433E+00 0.31072988E+03</pdfrwt>
<pdfrwt beam="2">  1       -1 0.65416336E-01 0.31072988E+03</pdfrwt>
<totfact> 0.36469273E+01</totfact>
</mgrwt>
</event>
<event>
 4    1  0.1852677E-008  0.2660918E+03  0.7818608E-02  0.1103537E+00
         -1   -1    0    0    0  501 -0.00000000000E+00  0.00000000000E+00  0.11161946421E+04  0.11161946421E+04  0.50400000000E-02 0.  1.
          1   -1    0    0  501    0  0.00000000000E+00 -0.00000000000E+00 -0.49011175896E+03  0.49011175898E+03  0.50400000000E-02 0. -1.
    8880022    1    1    2    0    0  0.98705113478E+02  0.19408890619E+03 -0.43633625049E+03  0.51107159913E+03  0.15294330000E+03 0.  0.
    8880022    1    1    2    0    0 -0.98705113478E+02 -0.19408890619E+03  0.10624191336E+04  0.10952348020E+04  0.15294330000E+03 0.  0.
<mgrwt>
<rscale>  0 0.26609182E+03</rscale>
<asrwt>0</asrwt>
<pdfrwt beam="1">  1        1 0.75401810E-01 0.26609182E+03</pdfrwt>
<pdfrwt beam="2">  1       -1 0.17172225E+00 0.26609182E+03</pdfrwt>
<totfact> 0.12345444E+01</totfact>
</mgrwt>
</event>
<event>
 4    1  0.1852677E-008  0.4948828E+03  0.7818608E-02  0.1015123E+00
         -1   -1    0    0    0  501 -0.00000000000E+00  0.00000000000E+00  0.88105759780E+03  0.88105759782E+03  0.50400000000E-02 0.  1.
          1   -1    0    0  501    0  0.00000000000E+00 -0.00000000000E+00 -0.16988174531E+04  0.16988174531E+04  0.50400000000E-02 0. -1.
    8880022    1    1    2    0    0  0.88485739409E+02 -0.46226360560E+03 -0.15885723689E+04  0.16638723483E+04  0.15294330000E+03 0.  0.
    8880022    1    1    2    0    0 -0.88485739409E+02  0.46226360560E+03  0.77081251359E+03  0.91600270265E+03  0.15294330000E+03 0.  0.
<mgrwt>
<rscale>  0 0.49488283E+03</rscale>
<asrwt>0</asrwt>
<pdfrwt beam="1">  1        1 0.26135653E+00 0.49488283E+03</pdfrwt>
<pdfrwt beam="2">  1       -1 0.13554732E+00 0.49488283E+03</pdfrwt>
<totfact> 0.24244608E+00</totfact>
</mgrwt>
</event>
<event>
 4    1  0.1852677E-008  0.4262875E+03  0.7818608E-02  0.1035039E+00
          1   -1    0    0  501    0  0.00000000000E+00  0.00000000000E+00  0.54017312440E+03  0.54017312442E+03  0.50400000000E-02 0. -1.
         -1   -1    0    0    0  501 -0.00000000000E+00 -0.00000000000E+00 -0.69488088058E+03  0.69488088060E+03  0.50400000000E-02 0.  1.
    8880022    1    1    2    0    0 -0.30015821609E+03  0.26121721555E+03 -0.52088708660E+03  0.67308572885E+03  0.15294330000E+03 0.  0.
    8880022    1    1    2    0    0  0.30015821609E+03 -0.26121721555E+03  0.36617933041E+03  0.56196827617E+03  0.15294330000E+03 0.  0.
<mgrwt>
<rscale>  0 0.42628751E+03</rscale>
<asrwt>0</asrwt>
<pdfrwt beam="1">  1        1 0.83103557E-01 0.42628751E+03</pdfrwt>
<pdfrwt beam="2">  1       -1 0.10690475E+00 0.42628751E+03</pdfrwt>
<totfact> 0.34622865E+01</totfact>
</mgrwt>
</event>
<event>
 4    1  0.1852677E-008  0.8271069E+03  0.7818608E-02  0.9521589E-01
         -1   -1    0    0    0  501 -0.00000000000E+00  0.00000000000E+00  0.59590230639E+03  0.59590230641E+03  0.50400000000E-02 0.  1.
          1   -1    0    0  501    0  0.00000000000E+00 -0.00000000000E+00 -0.14204671718E+04  0.14204671718E+04  0.50400000000E-02 0. -1.
    8880022    1    1    2    0    0  0.58244135798E+03  0.56698872473E+03 -0.85382064670E+03  0.11887453467E+04  0.15294330000E+03 0.  0.
    8880022    1    1    2    0    0 -0.58244135798E+03 -0.56698872473E+03  0.29255781257E+02  0.82762413160E+03  0.15294330000E+03 0.  0.
<mgrwt>
<rscale>  0 0.82710689E+03</rscale>
<asrwt>0</asrwt>
<pdfrwt beam="1">  1        1 0.21853341E+00 0.82710689E+03</pdfrwt>
<pdfrwt beam="2">  1       -1 0.91677278E-01 0.82710689E+03</pdfrwt>
<totfact> 0.88472830E+00</totfact>
</mgrwt>
</event>
<event>
 4    1  0.1852677E-008  0.3951120E+03  0.7818608E-02  0.1045485E+00
          1   -1    0    0  501    0  0.00000000000E+00  0.00000000000E+00  0.12885486099E+04  0.12885486099E+04  0.50400000000E-02 0. -1.
         -1   -1    0    0    0  501 -0.00000000000E+00 -0.00000000000E+00 -0.25945264323E+03  0.25945264328E+03  0.50400000000E-02 0.  1.
    8880022    1    1    2    0    0  0.28657363260E+02 -0.36318123036E+03 -0.50545614775E+02  0.39833197555E+03  0.15294330000E+03 0.  0.
    8880022    1    1    2    0    0 -0.28657363260E+02  0.36318123036E+03  0.10796415814E+04  0.11496692776E+04  0.15294330000E+03 0.  0.
<mgrwt>
<rscale>  0 0.39511201E+03</rscale>
<asrwt>0</asrwt>
<pdfrwt beam="1">  1        1 0.19823825E+00 0.39511201E+03</pdfrwt>
<pdfrwt beam="2">  1       -1 0.39915791E-01 0.39511201E+03</pdfrwt>
<totfact> 0.60671302E+01</totfact>
</mgrwt>
</event>
<event>
 4    1  0.1852677E-008  0.6385383E+03  0.7818608E-02  0.9828527E-01
         -1   -1    0    0    0  501 -0.00000000000E+00  0.00000000000E+00  0.91954550378E+03  0.91954550380E+03  0.50400000000E-02 0.  1.
          1   -1    0    0  501    0  0.00000000000E+00 -0.00000000000E+00 -0.96454654168E+03  0.96454654169E+03  0.50400000000E-02 0. -1.
    8880022    1    1    2    0    0 -0.51356607038E+03  0.34725978906E+03  0.66994937149E+03  0.92550704110E+03  0.15294330000E+03 0.  0.
    8880022    1    1    2    0    0  0.51356607038E+03 -0.34725978906E+03 -0.71495040938E+03  0.95858500439E+03  0.15294330000E+03 0.  0.
<mgrwt>
<rscale>  0 0.63853827E+03</rscale>
<asrwt>0</asrwt>
<pdfrwt beam="1">  1        1 0.14839178E+00 0.63853827E+03</pdfrwt>
<pdfrwt beam="2">  1       -1 0.14146854E+00 0.63853827E+03</pdfrwt>
<totfact> 0.69303205E+00</totfact>
</mgrwt>
</event>
<event>
 4    1  0.1852677E-008  0.2412419E+03  0.7818608E-02  0.1118968E+00
          1   -1    0    0  501    0  0.00000000000E+00  0.00000000000E+00  0.24293658598E+04  0.24293658598E+04  0.50400000000E-02 0. -1.
         -1   -1    0    0    0  501 -0.00000000000E+00 -0.00000000000E+00 -0.14182301263E+03  0.14182301272E+03  0.50400000000E-02 0.  1.
    8880022    1    1    2    0    0 -0.24671883642E+02 -0.18492513371E+03  0.23157696178E+04  0.23283012225E+04  0.15294330000E+03 0.  0.
    8880022    1    1    2    0    0  0.24671883642E+02  0.18492513371E+03 -0.28226770675E+02  0.24288764999E+03  0.15294330000E+03 0.  1.
<mgrwt>
<rscale>  0 0.24124191E+03</rscale>
<asrwt>0</asrwt>
<pdfrwt beam="1">  1        1 0.37374858E+00 0.24124191E+03</pdfrwt>
<pdfrwt beam="2">  1       -1 0.21818926E-01 0.24124191E+03</pdfrwt>
<totfact> 0.31508927E+01</totfact>
</mgrwt>
</event>
<event>
 4    1  0.1852677E-008  0.1622200E+03  0.7818608E-02  0.1186213E+00
          1   -1    0    0  501    0  0.00000000000E+00  0.00000000000E+00  0.14910723932E+04  0.14910723932E+04  0.50400000000E-02 0. -1.
         -1   -1    0    0    0  501 -0.00000000000E+00 -0.00000000000E+00 -0.10307964258E+03  0.10307964270E+03  0.50400000000E-02 0.  1.
    8880022    1    1    2    0    0 -0.53173455030E+01 -0.53809065217E+02 -0.31643499225E+02  0.16527750519E+03  0.15294330000E+03 0.  0.
    8880022    1    1    2    0    0  0.53173455030E+01  0.53809065217E+02  0.14196362499E+04  0.14288745308E+04  0.15294330000E+03 0. -1.
<mgrwt>
<rscale>  0 0.16222004E+03</rscale>
<asrwt>0</asrwt>
<pdfrwt beam="1">  1        1 0.22939575E+00 0.16222004E+03</pdfrwt>
<pdfrwt beam="2">  1       -1 0.15858407E-01 0.16222004E+03</pdfrwt>
<totfact> 0.22032722E+02</totfact>
</mgrwt>
</event>
<event>
 4    1  0.1852677E-008  0.2910897E+03  0.7818608E-02  0.1089782E+00
          1   -1    0    0  501    0  0.00000000000E+00  0.00000000000E+00  0.93247719977E+03  0.93247719978E+03  0.50400000000E-02 0. -1.
         -1   -1    0    0    0  501 -0.00000000000E+00 -0.00000000000E+00 -0.14568716132E+03  0.14568716141E+03  0.50400000000E-02 0.  1.
    8880022    1    1    2    0    0  0.12338346020E+03  0.21475125204E+03  0.72407410977E+03  0.78039512297E+03  0.15294330000E+03 0. -1.
    8880022    1    1    2    0    0 -0.12338346020E+03 -0.21475125204E+03  0.62715928672E+02  0.29776923822E+03  0.15294330000E+03 0.  0.
<mgrwt>
<rscale>  0 0.29108973E+03</rscale>
<asrwt>0</asrwt>
<pdfrwt beam="1">  1        1 0.14345803E+00 0.29108973E+03</pdfrwt>
<pdfrwt beam="2">  1       -1 0.22413409E-01 0.29108973E+03</pdfrwt>
<totfact> 0.30245732E+02</totfact>
</mgrwt>
</event>
<event>
 4    1  0.1852677E-008  0.4531225E+03  0.7818608E-02  0.1026795E+00
         -1   -1    0    0    0  501 -0.00000000000E+00  0.00000000000E+00  0.45876798617E+03  0.45876798620E+03  0.50400000000E-02 0.  1.
          1   -1    0    0  501    0  0.00000000000E+00 -0.00000000000E+00 -0.89439811988E+03  0.89439811990E+03  0.50400000000E-02 0. -1.
    8880022    1    1    2    0    0  0.18715650435E+02  0.42611982820E+03 -0.69604561374E+03  0.83054171056E+03  0.15294330000E+03 0.  0.
    8880022    1    1    2    0    0 -0.18715650435E+02 -0.42611982820E+03  0.26041548003E+03  0.52262439554E+03  0.15294330000E+03 0.  0.
<mgrwt>
<rscale>  0 0.45312254E+03</rscale>
<asrwt>0</asrwt>
<pdfrwt beam="1">  1        1 0.13759971E+00 0.45312254E+03</pdfrwt>
<pdfrwt beam="2">  1       -1 0.70579690E-01 0.45312254E+03</pdfrwt>
<totfact> 0.39745820E+01</totfact>
</mgrwt>
</event>
<event>
 4    1  0.1852677E-008  0.4515120E+03  0.7818608E-02  0.1027272E+00
         -1   -1    0    0    0  501 -0.00000000000E+00  0.00000000000E+00  0.19902287485E+03  0.19902287491E+03  0.50400000000E-02 0.  1.
          1   -1    0    0  501    0  0.00000000000E+00 -0.00000000000E+00 -0.16042403149E+04  0.16042403149E+04  0.50400000000E-02 0. -1.
    8880022    1    1    2    0    0  0.38273664178E+03 -0.18434770916E+03 -0.16050966323E+03  0.47919350980E+03  0.15294330000E+03 0.  0.
    8880022    1    1    2    0    0 -0.38273664178E+03  0.18434770916E+03 -0.12447077768E+04  0.13240696800E+04  0.15294330000E+03 0.  0.
<mgrwt>
<rscale>  0 0.45151198E+03</rscale>
<asrwt>0</asrwt>
<pdfrwt beam="1">  1        1 0.24680619E+00 0.45151198E+03</pdfrwt>
<pdfrwt beam="2">  1       -1 0.30618905E-01 0.45151198E+03</pdfrwt>
<totfact> 0.58455647E+01</totfact>
</mgrwt>
</event>
<event>
 4    1  0.2022974E-008  0.1047751E+04  0.7818608E-02  0.9257669E-01
          1   -1    0    0  501    0  0.00000000000E+00  0.00000000000E+00  0.21719730842E+04  0.21719730842E+04  0.50400000000E-02 0. -1.
         -1   -1    0    0    0  501 -0.00000000000E+00 -0.00000000000E+00 -0.16353781460E+04  0.16353781460E+04  0.50400000000E-02 0.  1.
    8880022    1    1    2    0    0 -0.52775943841E+03 -0.89210985231E+03  0.18506855135E+04  0.21266919232E+04  0.15294330000E+03 0.  0.
    8880022    1    1    2    0    0  0.52775943841E+03  0.89210985231E+03 -0.13140905753E+04  0.16806593071E+04  0.15294330000E+03 0.  0.
<mgrwt>
<rscale>  0 0.10477508E+04</rscale>
<asrwt>0</asrwt>
<pdfrwt beam="1">  1        1 0.33414970E+00 0.10477508E+04</pdfrwt>
<pdfrwt beam="2">  1       -1 0.25159664E+00 0.10477508E+04</pdfrwt>
<totfact> 0.15650258E-01</totfact>
</mgrwt>
</event>
<event>
 4    1  0.1852677E-008  0.2336911E+03  0.7818608E-02  0.1124068E+00
          1   -1    0    0  501    0  0.00000000000E+00  0.00000000000E+00  0.22255943194E+04  0.22255943194E+04  0.50400000000E-02 0. -1.
         -1   -1    0    0    0  501 -0.00000000000E+00 -0.00000000000E+00 -0.28943957135E+03  0.28943957140E+03  0.50400000000E-02 0.  1.
    8880022    1    1    2    0    0  0.41472942798E+02 -0.17175521868E+03  0.21711094429E+04  0.21836500925E+04  0.15294330000E+03 0.  0.
    8880022    1    1    2    0    0 -0.41472942798E+02  0.17175521868E+03 -0.23495469489E+03  0.33138379833E+03  0.15294330000E+03 0.  1.
<mgrwt>
<rscale>  0 0.23369106E+03</rscale>
<asrwt>0</asrwt>
<pdfrwt beam="1">  1        1 0.34239913E+00 0.23369106E+03</pdfrwt>
<pdfrwt beam="2">  1       -1 0.44529164E-01 0.23369106E+03</pdfrwt>
<totfact> 0.12646369E+01</totfact>
</mgrwt>
</event>
<event>
 4    1  0.1852677E-008  0.9912872E+03  0.7818608E-02  0.9318153E-01
         -1   -1    0    0    0  501 -0.00000000000E+00  0.00000000000E+00  0.63778564266E+03  0.63778564268E+03  0.50400000000E-02 0.  1.
          1   -1    0    0  501    0  0.00000000000E+00 -0.00000000000E+00 -0.24028513688E+04  0.24028513688E+04  0.50400000000E-02 0. -1.
    8880022    1    1    2    0    0 -0.40102067179E+03  0.89355526966E+03  0.28129514383E+02  0.99168620124E+03  0.15294330000E+03 0.  0.
    8880022    1    1    2    0    0  0.40102067179E+03 -0.89355526966E+03 -0.17931952405E+04  0.20489508103E+04  0.15294330000E+03 0.  0.
<mgrwt>
<rscale>  0 0.99128717E+03</rscale>
<asrwt>0</asrwt>
<pdfrwt beam="1">  1        1 0.36966944E+00 0.99128717E+03</pdfrwt>
<pdfrwt beam="2">  1       -1 0.98120870E-01 0.99128717E+03</pdfrwt>
<totfact> 0.16030399E+00</totfact>
</mgrwt>
</event>
<event>
 4    1  0.1852677E-008  0.4992505E+03  0.7818608E-02  0.1013975E+00
         -1   -1    0    0    0  501 -0.00000000000E+00  0.00000000000E+00  0.55572755986E+03  0.55572755988E+03  0.50400000000E-02 0.  1.
          1   -1    0    0  501    0  0.00000000000E+00 -0.00000000000E+00 -0.55933202718E+03  0.55933202721E+03  0.50400000000E-02 0. -1.
    8880022    1    1    2    0    0  0.43822372586E+03 -0.18390056970E+03 -0.24996701705E+03  0.55833199449E+03  0.15294330000E+03 0.  0.
    8880022    1    1    2    0    0 -0.43822372586E+03  0.18390056970E+03  0.24636254972E+03  0.55672759260E+03  0.15294330000E+03 0.  0.
<mgrwt>
<rscale>  0 0.49925054E+03</rscale>
<asrwt>0</asrwt>
<pdfrwt beam="1">  1        1 0.86051082E-01 0.49925054E+03</pdfrwt>
<pdfrwt beam="2">  1       -1 0.85496547E-01 0.49925054E+03</pdfrwt>
<totfact> 0.53668409E+01</totfact>
</mgrwt>
</event>
<event>
 4    1  0.1852677E-008  0.4665521E+03  0.7818608E-02  0.1022898E+00
          1   -1    0    0  501    0  0.00000000000E+00  0.00000000000E+00  0.16935681506E+04  0.16935681506E+04  0.50400000000E-02 0. -1.
         -1   -1    0    0    0  501 -0.00000000000E+00 -0.00000000000E+00 -0.33655798877E+03  0.33655798881E+03  0.50400000000E-02 0.  1.
    8880022    1    1    2    0    0 -0.11000216473E+03 -0.42682399958E+03  0.14765477131E+04  0.15485037956E+04  0.15294330000E+03 0.  0.
    8880022    1    1    2    0    0  0.11000216473E+03  0.42682399958E+03 -0.11953755130E+03  0.48162234381E+03  0.15294330000E+03 0.  0.
<mgrwt>
<rscale>  0 0.46655209E+03</rscale>
<asrwt>0</asrwt>
<pdfrwt beam="1">  1        1 0.26054895E+00 0.46655209E+03</pdfrwt>
<pdfrwt beam="2">  1       -1 0.51778152E-01 0.46655209E+03</pdfrwt>
<totfact> 0.19699985E+01</totfact>
</mgrwt>
</event>
<event>
 4    1  0.1852677E-008  0.3166674E+03  0.7818608E-02  0.1077193E+00
         -1   -1    0    0    0  501 -0.00000000000E+00  0.00000000000E+00  0.11242199347E+03  0.11242199358E+03  0.50400000000E-02 0.  1.
          1   -1    0    0  501    0  0.00000000000E+00 -0.00000000000E+00 -0.15751428587E+04  0.15751428587E+04  0.50400000000E-02 0. -1.
    8880022    1    1    2    0    0 -0.21726478366E+03  0.17228643330E+03 -0.12870501827E+04  0.13254344296E+04  0.15294330000E+03 0. -1.
    8880022    1    1    2    0    0  0.21726478366E+03 -0.17228643330E+03 -0.17567068248E+03  0.36213042266E+03  0.15294330000E+03 0.  0.
<mgrwt>
<rscale>  0 0.31666742E+03</rscale>
<asrwt>0</asrwt>
<pdfrwt beam="1">  1        1 0.24232965E+00 0.31666742E+03</pdfrwt>
<pdfrwt beam="2">  1       -1 0.17295692E-01 0.31666742E+03</pdfrwt>
<totfact> 0.16266115E+02</totfact>
</mgrwt>
</event>
<event>
 4    1  0.1852677E-008  0.4998888E+03  0.7818608E-02  0.1013808E+00
         -1   -1    0    0    0  501 -0.00000000000E+00  0.00000000000E+00  0.54695612061E+03  0.54695612064E+03  0.50400000000E-02 0.  1.
          1   -1    0    0  501    0  0.00000000000E+00 -0.00000000000E+00 -0.23595069861E+04  0.23595069861E+04  0.50400000000E-02 0. -1.
    8880022    1    1    2    0    0  0.47356449709E+03  0.47263143652E+02  0.39869885530E+03  0.63941345613E+03  0.15294330000E+03 0.  0.
    8880022    1    1    2    0    0 -0.47356449709E+03 -0.47263143652E+02 -0.22112497208E+04  0.22670496506E+04  0.15294330000E+03 0.  0.
<mgrwt>
<rscale>  0 0.49988878E+03</rscale>
<asrwt>0</asrwt>
<pdfrwt beam="1">  1        1 0.36300107E+00 0.49988878E+03</pdfrwt>
<pdfrwt beam="2">  1       -1 0.84147097E-01 0.49988878E+03</pdfrwt>
<totfact> 0.26700093E+00</totfact>
</mgrwt>
</event>
<event>
 4    1  0.1852677E-008  0.7228584E+03  0.7818608E-02  0.9678921E-01
         -1   -1    0    0    0  501 -0.00000000000E+00  0.00000000000E+00  0.34671793327E+03  0.34671793331E+03  0.50400000000E-02 0.  1.
          1   -1    0    0  501    0  0.00000000000E+00 -0.00000000000E+00 -0.31319462653E+04  0.31319462653E+04  0.50400000000E-02 0. -1.
    8880022    1    1    2    0    0  0.31738357839E+03  0.63118955266E+03 -0.26454294207E+04  0.27424115410E+04  0.15294330000E+03 0.  0.
    8880022    1    1    2    0    0 -0.31738357839E+03 -0.63118955266E+03 -0.13979891131E+03  0.73625265761E+03  0.15294330000E+03 0.  0.
<mgrwt>
<rscale>  0 0.72285838E+03</rscale>
<asrwt>0</asrwt>
<pdfrwt beam="1">  1        1 0.48183787E+00 0.72285838E+03</pdfrwt>
<pdfrwt beam="2">  1       -1 0.53341223E-01 0.72285838E+03</pdfrwt>
<totfact> 0.18372569E+00</totfact>
</mgrwt>
</event>
<event>
 4    1  0.1852677E-008  0.7679666E+03  0.7818608E-02  0.9607578E-01
         -1   -1    0    0    0  501 -0.00000000000E+00  0.00000000000E+00  0.94861290026E+03  0.94861290027E+03  0.50400000000E-02 0.  1.
          1   -1    0    0  501    0  0.00000000000E+00 -0.00000000000E+00 -0.18971505119E+04  0.18971505119E+04  0.50400000000E-02 0. -1.
    8880022    1    1    2    0    0  0.62299449313E+03 -0.42220712326E+03 -0.16409336672E+04  0.18117494160E+04  0.15294330000E+03 0.  0.
    8880022    1    1    2    0    0 -0.62299449313E+03  0.42220712326E+03  0.69239605555E+03  0.10340139961E+04  0.15294330000E+03 0.  0.
<mgrwt>
<rscale>  0 0.76796657E+03</rscale>
<asrwt>0</asrwt>
<pdfrwt beam="1">  1        1 0.29186931E+00 0.76796657E+03</pdfrwt>
<pdfrwt beam="2">  1       -1 0.14594045E+00 0.76796657E+03</pdfrwt>
<totfact> 0.13815643E+00</totfact>
</mgrwt>
</event>
<event>
 4    1  0.1852677E-008  0.5971670E+03  0.7818608E-02  0.9911301E-01
          1   -1    0    0  501    0  0.00000000000E+00  0.00000000000E+00  0.15995148198E+04  0.15995148198E+04  0.50400000000E-02 0. -1.
         -1   -1    0    0    0  501 -0.00000000000E+00 -0.00000000000E+00 -0.62770242545E+03  0.62770242548E+03  0.50400000000E-02 0.  1.
    8880022    1    1    2    0    0 -0.43662489426E+03  0.37759169757E+03  0.13801409580E+04  0.15037943694E+04  0.15294330000E+03 0.  0.
    8880022    1    1    2    0    0  0.43662489426E+03 -0.37759169757E+03 -0.40832856372E+03  0.72342287586E+03  0.15294330000E+03 0.  0.
<mgrwt>
<rscale>  0 0.59716701E+03</rscale>
<asrwt>0</asrwt>
<pdfrwt beam="1">  1        1 0.24607920E+00 0.59716701E+03</pdfrwt>
<pdfrwt beam="2">  1       -1 0.96569605E-01 0.59716701E+03</pdfrwt>
<totfact> 0.61786289E+00</totfact>
</mgrwt>
</event>
<event>
 4    1  0.1852677E-008  0.2175851E+03  0.7818608E-02  0.1135696E+00
         -1   -1    0    0    0  501 -0.00000000000E+00  0.00000000000E+00  0.31953238188E+03  0.31953238192E+03  0.50400000000E-02 0.  1.
          1   -1    0    0  501    0  0.00000000000E+00 -0.00000000000E+00 -0.19554882914E+04  0.19554882914E+04  0.50400000000E-02 0. -1.
    8880022    1    1    2    0    0 -0.11772979483E+03 -0.10045548626E+03 -0.19115458700E+04  0.19238895174E+04  0.15294330000E+03 0.  0.
    8880022    1    1    2    0    0  0.11772979483E+03  0.10045548626E+03  0.27558996046E+03  0.35113115588E+03  0.15294330000E+03 0.  0.
<mgrwt>
<rscale>  0 0.21758507E+03</rscale>
<asrwt>0</asrwt>
<pdfrwt beam="1">  1        1 0.30084434E+00 0.21758507E+03</pdfrwt>
<pdfrwt beam="2">  1       -1 0.49158829E-01 0.21758507E+03</pdfrwt>
<totfact> 0.15936659E+01</totfact>
</mgrwt>
</event>
<event>
 4    1  0.1852677E-008  0.5481842E+03  0.7818608E-02  0.1001915E+00
         -1   -1    0    0    0  501 -0.00000000000E+00  0.00000000000E+00  0.74486512773E+03  0.74486512774E+03  0.50400000000E-02 0.  1.
          1   -1    0    0  501    0  0.00000000000E+00 -0.00000000000E+00 -0.10052673017E+04  0.10052673017E+04  0.50400000000E-02 0. -1.
    8880022    1    1    2    0    0 -0.52634760599E+03  0.85146171037E+01  0.54687466327E+03  0.77432412553E+03  0.15294330000E+03 0.  0.
    8880022    1    1    2    0    0  0.52634760599E+03 -0.85146171037E+01 -0.80727683721E+03  0.97580830389E+03  0.15294330000E+03 0.  0.
<mgrwt>
<rscale>  0 0.54818423E+03</rscale>
<asrwt>0</asrwt>
<pdfrwt beam="1">  1        1 0.15465651E+00 0.54818423E+03</pdfrwt>
<pdfrwt beam="2">  1       -1 0.11459463E+00 0.54818423E+03</pdfrwt>
<totfact> 0.11062700E+01</totfact>
</mgrwt>
</event>
<event>
 4    1  0.1852677E-008  0.4291909E+03  0.7818608E-02  0.1034116E+00
          1   -1    0    0  501    0  0.00000000000E+00  0.00000000000E+00  0.11573321241E+04  0.11573321241E+04  0.50400000000E-02 0. -1.
         -1   -1    0    0    0  501 -0.00000000000E+00 -0.00000000000E+00 -0.17943864367E+04  0.17943864367E+04  0.50400000000E-02 0.  1.
    8880022    1    1    2    0    0 -0.18078521745E+03  0.35795233011E+03  0.10903576030E+04  0.11717868923E+04  0.15294330000E+03 0.  0.
    8880022    1    1    2    0    0  0.18078521745E+03 -0.35795233011E+03 -0.17274119156E+04  0.17799316686E+04  0.15294330000E+03 0.  0.
<mgrwt>
<rscale>  0 0.42919089E+03</rscale>
<asrwt>0</asrwt>
<pdfrwt beam="1">  1        1 0.17805110E+00 0.42919089E+03</pdfrwt>
<pdfrwt beam="2">  1       -1 0.27605945E+00 0.42919089E+03</pdfrwt>
<totfact> 0.63063151E-01</totfact>
</mgrwt>
</event>
<event>
 4    1  0.1852677E-008  0.7670224E+03  0.7818608E-02  0.9609017E-01
          1   -1    0    0  501    0  0.00000000000E+00  0.00000000000E+00  0.12333408972E+04  0.12333408972E+04  0.50400000000E-02 0. -1.
         -1   -1    0    0    0  501 -0.00000000000E+00 -0.00000000000E+00 -0.91851121272E+03  0.91851121273E+03  0.50400000000E-02 0.  1.
    8880022    1    1    2    0    0 -0.38059966965E+03  0.64813239138E+03 -0.58852393813E+03  0.96679045509E+03  0.15294330000E+03 0.  0.
    8880022    1    1    2    0    0  0.38059966965E+03 -0.64813239138E+03  0.90335362258E+03  0.11850616548E+04  0.15294330000E+03 0.  0.
<mgrwt>
<rscale>  0 0.76702240E+03</rscale>
<asrwt>0</asrwt>
<pdfrwt beam="1">  1        1 0.18974475E+00 0.76702240E+03</pdfrwt>
<pdfrwt beam="2">  1       -1 0.14130942E+00 0.76702240E+03</pdfrwt>
<totfact> 0.42843082E+00</totfact>
</mgrwt>
</event>
<event>
 4    1  0.1852677E-008  0.7068336E+03  0.7818608E-02  0.9705617E-01
          1   -1    0    0  501    0  0.00000000000E+00  0.00000000000E+00  0.92090049199E+03  0.92090049200E+03  0.50400000000E-02 0. -1.
         -1   -1    0    0    0  501 -0.00000000000E+00 -0.00000000000E+00 -0.90252536707E+03  0.90252536708E+03  0.50400000000E-02 0.  1.
    8880022    1    1    2    0    0  0.34726529224E+03 -0.59634632832E+03  0.58499651076E+03  0.91751550238E+03  0.15294330000E+03 0. -1.
    8880022    1    1    2    0    0 -0.34726529224E+03  0.59634632832E+03 -0.56662138583E+03  0.90591035671E+03  0.15294330000E+03 0.  0.
<mgrwt>
<rscale>  0 0.70683363E+03</rscale>
<asrwt>0</asrwt>
<pdfrwt beam="1">  1        1 0.14167700E+00 0.70683363E+03</pdfrwt>
<pdfrwt beam="2">  1       -1 0.13885006E+00 0.70683363E+03</pdfrwt>
<totfact> 0.77922241E+00</totfact>
</mgrwt>
</event>
<event>
 4    1  0.1852677E-008  0.7291341E+03  0.7818608E-02  0.9668667E-01
         -1   -1    0    0    0  501 -0.00000000000E+00  0.00000000000E+00  0.10814393358E+04  0.10814393358E+04  0.50400000000E-02 0.  1.
          1   -1    0    0  501    0  0.00000000000E+00 -0.00000000000E+00 -0.58238232312E+03  0.58238232314E+03  0.50400000000E-02 0. -1.
    8880022    1    1    2    0    0  0.53205541432E+03 -0.47451231833E+03 -0.78922929484E+02  0.73339306376E+03  0.15294330000E+03 0.  0.
    8880022    1    1    2    0    0 -0.53205541432E+03  0.47451231833E+03  0.57797994214E+03  0.93042859516E+03  0.15294330000E+03 0.  0.
<mgrwt>
<rscale>  0 0.72913411E+03</rscale>
<asrwt>0</asrwt>
<pdfrwt beam="1">  1        1 0.89597281E-01 0.72913411E+03</pdfrwt>
<pdfrwt beam="2">  1       -1 0.16637528E+00 0.72913411E+03</pdfrwt>
<totfact> 0.96722974E+00</totfact>
</mgrwt>
</event>
<event>
 4    1  0.1852677E-008  0.4169002E+03  0.7818608E-02  0.1038080E+00
         -1   -1    0    0    0  501 -0.00000000000E+00  0.00000000000E+00  0.94755850459E+03  0.94755850461E+03  0.50400000000E-02 0.  1.
          1   -1    0    0  501    0  0.00000000000E+00 -0.00000000000E+00 -0.29213282201E+03  0.29213282205E+03  0.50400000000E-02 0. -1.
    8880022    1    1    2    0    0  0.15392791134E+03  0.35597797539E+03  0.70582800355E+03  0.81975541747E+03  0.15294330000E+03 0.  0.
    8880022    1    1    2    0    0 -0.15392791134E+03 -0.35597797539E+03 -0.50402320968E+02  0.41993590919E+03  0.15294330000E+03 0.  0.
<mgrwt>
<rscale>  0 0.41690020E+03</rscale>
<asrwt>0</asrwt>
<pdfrwt beam="1">  1        1 0.44943511E-01 0.41690020E+03</pdfrwt>
<pdfrwt beam="2">  1       -1 0.14577823E+00 0.41690020E+03</pdfrwt>
<totfact> 0.36306228E+01</totfact>
</mgrwt>
</event>
<event>
 4    1  0.2305225E-008  0.7772463E+03  0.7818608E-02  0.9593549E-01
          1   -1    0    0  501    0  0.00000000000E+00  0.00000000000E+00  0.28282661909E+04  0.28282661909E+04  0.50400000000E-02 0. -1.
         -1   -1    0    0    0  501 -0.00000000000E+00 -0.00000000000E+00 -0.11869542748E+04  0.11869542748E+04  0.50400000000E-02 0.  1.
    8880022    1    1    2    0    0 -0.68992374458E+02 -0.75892042266E+03  0.26386746239E+04  0.27507663622E+04  0.15294330000E+03 0.  0.
    8880022    1    1    2    0    0  0.68992374458E+02  0.75892042266E+03 -0.99736270786E+03  0.12644541034E+04  0.15294330000E+03 0.  0.
<mgrwt>
<rscale>  0 0.77724630E+03</rscale>
<asrwt>0</asrwt>
<pdfrwt beam="1">  1        1 0.43511787E+00 0.77724630E+03</pdfrwt>
<pdfrwt beam="2">  1       -1 0.18260835E+00 0.77724630E+03</pdfrwt>
<totfact> 0.17094600E-01</totfact>
</mgrwt>
</event>
<event>
 4    1  0.1852677E-008  0.2741525E+03  0.7818608E-02  0.1098926E+00
         -1   -1    0    0    0  501 -0.00000000000E+00  0.00000000000E+00  0.95597001432E+02  0.95597001565E+02  0.50400000000E-02 0.  1.
          1   -1    0    0  501    0  0.00000000000E+00 -0.00000000000E+00 -0.11094331643E+04  0.11094331643E+04  0.50400000000E-02 0. -1.
    8880022    1    1    2    0    0 -0.22626009497E+03 -0.23964659246E+02 -0.83213017938E+03  0.87612797235E+03  0.15294330000E+03 0.  0.
    8880022    1    1    2    0    0  0.22626009497E+03  0.23964659246E+02 -0.18170598352E+03  0.32890219356E+03  0.15294330000E+03 0.  0.
<mgrwt>
<rscale>  0 0.27415249E+03</rscale>
<asrwt>0</asrwt>
<pdfrwt beam="1">  1        1 0.17068202E+00 0.27415249E+03</pdfrwt>
<pdfrwt beam="2">  1       -1 0.14707232E-01 0.27415249E+03</pdfrwt>
<totfact> 0.44253451E+02</totfact>
</mgrwt>
</event>
<event>
 4    1  0.1852677E-008  0.3399740E+03  0.7818608E-02  0.1066807E+00
         -1   -1    0    0    0  501 -0.00000000000E+00  0.00000000000E+00  0.82634504224E+03  0.82634504226E+03  0.50400000000E-02 0.  1.
          1   -1    0    0  501    0  0.00000000000E+00 -0.00000000000E+00 -0.51615347624E+03  0.51615347627E+03  0.50400000000E-02 0. -1.
    8880022    1    1    2    0    0  0.22566510510E+03 -0.20314021183E+03 -0.41803132083E+03  0.53882513261E+03  0.15294330000E+03 0.  0.
    8880022    1    1    2    0    0 -0.22566510510E+03  0.20314021183E+03  0.72822288683E+03  0.80367338592E+03  0.15294330000E+03 0.  1.
<mgrwt>
<rscale>  0 0.33997403E+03</rscale>
<asrwt>0</asrwt>
<pdfrwt beam="1">  1        1 0.79408228E-01 0.33997403E+03</pdfrwt>
<pdfrwt beam="2">  1       -1 0.12713001E+00 0.33997403E+03</pdfrwt>
<totfact> 0.24815895E+01</totfact>
</mgrwt>
</event>
<event>
 4    1  0.1852677E-008  0.6974277E+03  0.7818608E-02  0.9721641E-01
         -1   -1    0    0    0  501 -0.00000000000E+00  0.00000000000E+00  0.52864156592E+03  0.52864156594E+03  0.50400000000E-02 0.  1.
          1   -1    0    0  501    0  0.00000000000E+00 -0.00000000000E+00 -0.16910247623E+04  0.16910247623E+04  0.50400000000E-02 0. -1.
    8880022    1    1    2    0    0  0.68027415399E+03 -0.15517516141E+02 -0.13305464181E+04  0.15022513577E+04  0.15294330000E+03 0. -1.
    8880022    1    1    2    0    0 -0.68027415399E+03  0.15517516141E+02  0.16816322170E+03  0.71741497060E+03  0.15294330000E+03 0.  0.
<mgrwt>
<rscale>  0 0.69742768E+03</rscale>
<asrwt>0</asrwt>
<pdfrwt beam="1">  1        1 0.26015765E+00 0.69742768E+03</pdfrwt>
<pdfrwt beam="2">  1       -1 0.81329473E-01 0.69742768E+03</pdfrwt>
<totfact> 0.76559567E+00</totfact>
</mgrwt>
</event>
<event>
 4    1  0.1852677E-008  0.5291515E+03  0.7818608E-02  0.1006438E+00
         -1   -1    0    0    0  501 -0.00000000000E+00  0.00000000000E+00  0.56633650746E+03  0.56633650748E+03  0.50400000000E-02 0.  1.
          1   -1    0    0  501    0  0.00000000000E+00 -0.00000000000E+00 -0.61625366538E+03  0.61625366540E+03  0.50400000000E-02 0. -1.
    8880022    1    1    2    0    0 -0.67211380685E+02 -0.50208789029E+03 -0.28788222223E+03  0.60239309936E+03  0.15294330000E+03 0.  0.
    8880022    1    1    2    0    0  0.67211380685E+02  0.50208789029E+03  0.23796506430E+03  0.58019707352E+03  0.15294330000E+03 0.  0.
<mgrwt>
<rscale>  0 0.52915146E+03</rscale>
<asrwt>0</asrwt>
<pdfrwt beam="1">  1        1 0.94808256E-01 0.52915146E+03</pdfrwt>
<pdfrwt beam="2">  1       -1 0.87128693E-01 0.52915146E+03</pdfrwt>
<totfact> 0.44751841E+01</totfact>
</mgrwt>
</event>
<event>
 4    1  0.1852677E-008  0.3175164E+03  0.7818608E-02  0.1076798E+00
         -1   -1    0    0    0  501 -0.00000000000E+00  0.00000000000E+00  0.75055544538E+03  0.75055544540E+03  0.50400000000E-02 0.  1.
          1   -1    0    0  501    0  0.00000000000E+00 -0.00000000000E+00 -0.16822391735E+04  0.16822391735E+04  0.50400000000E-02 0. -1.
    8880022    1    1    2    0    0 -0.16778207300E+03 -0.22197796103E+03  0.70098207328E+03  0.76954048580E+03  0.15294330000E+03 0.  1.
    8880022    1    1    2    0    0  0.16778207300E+03  0.22197796103E+03 -0.16326658014E+04  0.16632541331E+04  0.15294330000E+03 0.  0.
<mgrwt>
<rscale>  0 0.31751644E+03</rscale>
<asrwt>0</asrwt>
<pdfrwt beam="1">  1        1 0.25880603E+00 0.31751644E+03</pdfrwt>
<pdfrwt beam="2">  1       -1 0.11547007E+00 0.31751644E+03</pdfrwt>
<totfact> 0.39253097E+00</totfact>
</mgrwt>
</event>
<event>
 4    1  0.1852677E-008  0.4535883E+03  0.7818608E-02  0.1026657E+00
         -1   -1    0    0    0  501 -0.00000000000E+00  0.00000000000E+00  0.37420337809E+03  0.37420337812E+03  0.50400000000E-02 0.  1.
          1   -1    0    0  501    0  0.00000000000E+00 -0.00000000000E+00 -0.56421264943E+03  0.56421264945E+03  0.50400000000E-02 0. -1.
    8880022    1    1    2    0    0 -0.34385557098E+03 -0.25320745589E+03 -0.16995991369E+03  0.48438486216E+03  0.15294330000E+03 0.  0.
    8880022    1    1    2    0    0  0.34385557098E+03  0.25320745589E+03 -0.20049357651E+02  0.45403116542E+03  0.15294330000E+03 0.  0.
<mgrwt>
<rscale>  0 0.45358827E+03</rscale>
<asrwt>0</asrwt>
<pdfrwt beam="1">  1        1 0.86801946E-01 0.45358827E+03</pdfrwt>
<pdfrwt beam="2">  1       -1 0.57569750E-01 0.45358827E+03</pdfrwt>
<totfact> 0.11912878E+02</totfact>
</mgrwt>
</event>
<event>
 4    1  0.1852677E-008  0.2874510E+03  0.7818608E-02  0.1091688E+00
          1   -1    0    0  501    0  0.00000000000E+00  0.00000000000E+00  0.51689861875E+03  0.51689861877E+03  0.50400000000E-02 0. -1.
         -1   -1    0    0    0  501 -0.00000000000E+00 -0.00000000000E+00 -0.22514516454E+03  0.22514516459E+03  0.50400000000E-02 0.  1.
    8880022    1    1    2    0    0 -0.14982339914E+03 -0.19180551639E+03  0.34567744789E+03  0.44957864500E+03  0.15294330000E+03 0.  0.
    8880022    1    1    2    0    0  0.14982339914E+03  0.19180551639E+03 -0.53923993676E+02  0.29246513836E+03  0.15294330000E+03 0.  0.
<mgrwt>
<rscale>  0 0.28745097E+03</rscale>
<asrwt>0</asrwt>
<pdfrwt beam="1">  1        1 0.79522864E-01 0.28745097E+03</pdfrwt>
<pdfrwt beam="2">  1       -1 0.34637718E-01 0.28745097E+03</pdfrwt>
<totfact> 0.34600122E+02</totfact>
</mgrwt>
</event>
<event>
 4    1  0.1852677E-008  0.5436350E+03  0.7818608E-02  0.1002978E+00
          1   -1    0    0  501    0  0.00000000000E+00  0.00000000000E+00  0.11306213807E+04  0.11306213807E+04  0.50400000000E-02 0. -1.
         -1   -1    0    0    0  501 -0.00000000000E+00 -0.00000000000E+00 -0.15714383470E+04  0.15714383470E+04  0.50400000000E-02 0.  1.
    8880022    1    1    2    0    0  0.31054944006E+03  0.41917346835E+03 -0.14539650655E+04  0.15522736280E+04  0.15294330000E+03 0.  0.
    8880022    1    1    2    0    0 -0.31054944006E+03 -0.41917346835E+03  0.10131480992E+04  0.11497860997E+04  0.15294330000E+03 0. -1.
<mgrwt>
<rscale>  0 0.54363499E+03</rscale>
<asrwt>0</asrwt>
<pdfrwt beam="1">  1        1 0.17394175E+00 0.54363499E+03</pdfrwt>
<pdfrwt beam="2">  1       -1 0.24175974E+00 0.54363499E+03</pdfrwt>
<totfact> 0.10493298E+00</totfact>
</mgrwt>
</event>
<event>
 4    1  0.1852677E-008  0.5643643E+03  0.7818608E-02  0.9982228E-01
         -1   -1    0    0    0  501 -0.00000000000E+00  0.00000000000E+00  0.77052109577E+03  0.77052109579E+03  0.50400000000E-02 0.  1.
          1   -1    0    0  501    0  0.00000000000E+00 -0.00000000000E+00 -0.73061727268E+03  0.73061727270E+03  0.50400000000E-02 0. -1.
    8880022    1    1    2    0    0 -0.24653779862E+03 -0.48408114944E+03 -0.47464062625E+03  0.73742173991E+03  0.15294330000E+03 0.  0.
    8880022    1    1    2    0    0  0.24653779862E+03  0.48408114944E+03  0.51454444935E+03  0.76371662857E+03  0.15294330000E+03 0.  0.
<mgrwt>
<rscale>  0 0.56436433E+03</rscale>
<asrwt>0</asrwt>
<pdfrwt beam="1">  1        1 0.11240266E+00 0.56436433E+03</pdfrwt>
<pdfrwt beam="2">  1       -1 0.11854171E+00 0.56436433E+03</pdfrwt>
<totfact> 0.17157107E+01</totfact>
</mgrwt>
</event>
<event>
 4    1  0.1852677E-008  0.1084402E+04  0.7818608E-02  0.9220530E-01
         -1   -1    0    0    0  501 -0.00000000000E+00  0.00000000000E+00  0.96609138072E+03  0.96609138074E+03  0.50400000000E-02 0.  1.
          1   -1    0    0  501    0  0.00000000000E+00 -0.00000000000E+00 -0.20009784868E+04  0.20009784868E+04  0.50400000000E-02 0. -1.
    8880022    1    1    2    0    0  0.95190131660E+03 -0.49640607983E+03 -0.14459248084E+04  0.18073807892E+04  0.15294330000E+03 0.  0.
    8880022    1    1    2    0    0 -0.95190131660E+03  0.49640607983E+03  0.41103770234E+03  0.11596890783E+04  0.15294330000E+03 0.  0.
<mgrwt>
<rscale>  0 0.10844016E+04</rscale>
<asrwt>0</asrwt>
<pdfrwt beam="1">  1        1 0.30784284E+00 0.10844016E+04</pdfrwt>
<pdfrwt beam="2">  1       -1 0.14862944E+00 0.10844016E+04</pdfrwt>
<totfact> 0.10624270E+00</totfact>
</mgrwt>
</event>
<event>
 4    1  0.1852677E-008  0.4716480E+03  0.7818608E-02  0.1021456E+00
         -1   -1    0    0    0  501 -0.00000000000E+00  0.00000000000E+00  0.87974961035E+03  0.87974961036E+03  0.50400000000E-02 0.  1.
          1   -1    0    0  501    0  0.00000000000E+00 -0.00000000000E+00 -0.96214294582E+03  0.96214294584E+03  0.50400000000E-02 0. -1.
    8880022    1    1    2    0    0 -0.43513416194E+03  0.98582309363E+02  0.74952715011E+03  0.88557484855E+03  0.15294330000E+03 0.  0.
    8880022    1    1    2    0    0  0.43513416194E+03 -0.98582309363E+02 -0.83192048559E+03  0.95631770765E+03  0.15294330000E+03 0.  0.
<mgrwt>
<rscale>  0 0.47164803E+03</rscale>
<asrwt>0</asrwt>
<pdfrwt beam="1">  1        1 0.14802199E+00 0.47164803E+03</pdfrwt>
<pdfrwt beam="2">  1       -1 0.13534609E+00 0.47164803E+03</pdfrwt>
<totfact> 0.80656267E+00</totfact>
</mgrwt>
</event>
<event>
 4    1  0.1852677E-008  0.2041026E+03  0.7818608E-02  0.1146323E+00
          1   -1    0    0  501    0  0.00000000000E+00  0.00000000000E+00  0.25834731697E+04  0.25834731697E+04  0.50400000000E-02 0. -1.
         -1   -1    0    0    0  501 -0.00000000000E+00 -0.00000000000E+00 -0.35701803219E+02  0.35701803575E+02  0.50400000000E-02 0.  1.
    8880022    1    1    2    0    0 -0.29192273085E+02 -0.13196217220E+03  0.22436431052E+04  0.22529075081E+04  0.15294330000E+03 0.  0.
    8880022    1    1    2    0    0  0.29192273085E+02  0.13196217220E+03  0.30412826130E+03  0.36626746516E+03  0.15294330000E+03 0.  0.
<mgrwt>
<rscale>  0 0.20410256E+03</rscale>
<asrwt>0</asrwt>
<pdfrwt beam="1">  1        1 0.39745754E+00 0.20410256E+03</pdfrwt>
<pdfrwt beam="2">  1       -1 0.54925834E-02 0.20410256E+03</pdfrwt>
<totfact> 0.21694662E+02</totfact>
</mgrwt>
</event>
<event>
 4    1  0.1852677E-008  0.6250285E+03  0.7818608E-02  0.9854799E-01
          1   -1    0    0  501    0  0.00000000000E+00  0.00000000000E+00  0.67715036999E+03  0.67715037001E+03  0.50400000000E-02 0. -1.
         -1   -1    0    0    0  501 -0.00000000000E+00 -0.00000000000E+00 -0.77717663053E+03  0.77717663055E+03  0.50400000000E-02 0.  1.
    8880022    1    1    2    0    0  0.23785251388E+03 -0.55740032926E+03  0.31910658948E+03  0.70177604254E+03  0.15294330000E+03 0.  0.
    8880022    1    1    2    0    0 -0.23785251388E+03  0.55740032926E+03 -0.41913285003E+03  0.75255095801E+03  0.15294330000E+03 0.  0.
<mgrwt>
<rscale>  0 0.62502848E+03</rscale>
<asrwt>0</asrwt>
<pdfrwt beam="1">  1        1 0.10417698E+00 0.62502848E+03</pdfrwt>
<pdfrwt beam="2">  1       -1 0.11956564E+00 0.62502848E+03</pdfrwt>
<totfact> 0.18670885E+01</totfact>
</mgrwt>
</event>
<event>
 4    1  0.1852677E-008  0.4350207E+03  0.7818608E-02  0.1032286E+00
          1   -1    0    0  501    0  0.00000000000E+00  0.00000000000E+00  0.16926891148E+04  0.16926891148E+04  0.50400000000E-02 0. -1.
         -1   -1    0    0    0  501 -0.00000000000E+00 -0.00000000000E+00 -0.16477549677E+03  0.16477549684E+03  0.50400000000E-02 0.  1.
    8880022    1    1    2    0    0 -0.40713525934E+03 -0.96057622806E+01  0.23735688975E+03  0.49556163713E+03  0.15294330000E+03 0.  0.
    8880022    1    1    2    0    0  0.40713525934E+03  0.96057622806E+01  0.12905567283E+04  0.13619029746E+04  0.15294330000E+03 0.  0.
<mgrwt>
<rscale>  0 0.43502074E+03</rscale>
<asrwt>0</asrwt>
<pdfrwt beam="1">  1        1 0.26041371E+00 0.43502074E+03</pdfrwt>
<pdfrwt beam="2">  1       -1 0.25350076E-01 0.43502074E+03</pdfrwt>
<totfact> 0.70714187E+01</totfact>
</mgrwt>
</event>
<event>
 4    1  0.1852677E-008  0.4213503E+03  0.7818608E-02  0.1036628E+00
         -1   -1    0    0    0  501 -0.00000000000E+00  0.00000000000E+00  0.18756508430E+03  0.18756508437E+03  0.50400000000E-02 0.  1.
          1   -1    0    0  501    0  0.00000000000E+00 -0.00000000000E+00 -0.12137174549E+04  0.12137174549E+04  0.50400000000E-02 0. -1.
    8880022    1    1    2    0    0 -0.34856483374E+03 -0.18068467117E+03 -0.18434216178E+03  0.45991094719E+03  0.15294330000E+03 0.  0.
    8880022    1    1    2    0    0  0.34856483374E+03  0.18068467117E+03 -0.84181020881E+03  0.94137159209E+03  0.15294330000E+03 0.  0.
<mgrwt>
<rscale>  0 0.42135027E+03</rscale>
<asrwt>0</asrwt>
<pdfrwt beam="1">  1        1 0.18672576E+00 0.42135027E+03</pdfrwt>
<pdfrwt beam="2">  1       -1 0.28856168E-01 0.42135027E+03</pdfrwt>
<totfact> 0.12039515E+02</totfact>
</mgrwt>
</event>
<event>
 4    1  0.1852677E-008  0.5761342E+03  0.7818608E-02  0.9956196E-01
         -1   -1    0    0    0  501 -0.00000000000E+00  0.00000000000E+00  0.81500877989E+03  0.81500877991E+03  0.50400000000E-02 0.  1.
          1   -1    0    0  501    0  0.00000000000E+00 -0.00000000000E+00 -0.59538669745E+03  0.59538669747E+03  0.50400000000E-02 0. -1.
    8880022    1    1    2    0    0  0.46583511478E+03 -0.30255023017E+03 -0.28657847059E+03  0.64347328520E+03  0.15294330000E+03 0.  0.
    8880022    1    1    2    0    0 -0.46583511478E+03  0.30255023017E+03  0.50620055304E+03  0.76692219218E+03  0.15294330000E+03 0.  0.
<mgrwt>
<rscale>  0 0.57613423E+03</rscale>
<asrwt>0</asrwt>
<pdfrwt beam="1">  1        1 0.91597953E-01 0.57613423E+03</pdfrwt>
<pdfrwt beam="2">  1       -1 0.12538597E+00 0.57613423E+03</pdfrwt>
<totfact> 0.20177801E+01</totfact>
</mgrwt>
</event>
<event>
 4    1  0.1852677E-008  0.4262511E+03  0.7818608E-02  0.1035051E+00
         -1   -1    0    0    0  501 -0.00000000000E+00  0.00000000000E+00  0.78139950940E+03  0.78139950942E+03  0.50400000000E-02 0.  1.
          1   -1    0    0  501    0  0.00000000000E+00 -0.00000000000E+00 -0.55588487645E+03  0.55588487647E+03  0.50400000000E-02 0. -1.
    8880022    1    1    2    0    0  0.16416569363E+03  0.36241966623E+03  0.62273198749E+03  0.75464241247E+03  0.15294330000E+03 0.  0.
    8880022    1    1    2    0    0 -0.16416569363E+03 -0.36241966623E+03 -0.39721735453E+03  0.58264197342E+03  0.15294330000E+03 0.  0.
<mgrwt>
<rscale>  0 0.42625115E+03</rscale>
<asrwt>0</asrwt>
<pdfrwt beam="1">  1        1 0.85520750E-01 0.42625115E+03</pdfrwt>
<pdfrwt beam="2">  1       -1 0.12021531E+00 0.42625115E+03</pdfrwt>
<totfact> 0.25238000E+01</totfact>
</mgrwt>
</event>
<event>
 4    1  0.1852677E-008  0.5971357E+03  0.7818608E-02  0.9911366E-01
         -1   -1    0    0    0  501 -0.00000000000E+00  0.00000000000E+00  0.52142906012E+03  0.52142906015E+03  0.50400000000E-02 0.  1.
          1   -1    0    0  501    0  0.00000000000E+00 -0.00000000000E+00 -0.13501339722E+04  0.13501339722E+04  0.50400000000E-02 0. -1.
    8880022    1    1    2    0    0  0.57716528517E+03  0.77206467579E+01  0.24303416349E+03  0.64469886957E+03  0.15294330000E+03 0.  0.
    8880022    1    1    2    0    0 -0.57716528517E+03 -0.77206467579E+01 -0.10717390756E+04  0.12268641628E+04  0.15294330000E+03 0. -1.
<mgrwt>
<rscale>  0 0.59713569E+03</rscale>
<asrwt>0</asrwt>
<pdfrwt beam="1">  1        1 0.20771292E+00 0.59713569E+03</pdfrwt>
<pdfrwt beam="2">  1       -1 0.80219856E-01 0.59713569E+03</pdfrwt>
<totfact> 0.13695343E+01</totfact>
</mgrwt>
</event>
<event>
 4    1  0.1852677E-008  0.4366486E+03  0.7818608E-02  0.1031780E+00
         -1   -1    0    0    0  501 -0.00000000000E+00  0.00000000000E+00  0.12424341611E+03  0.12424341621E+03  0.50400000000E-02 0.  1.
          1   -1    0    0  501    0  0.00000000000E+00 -0.00000000000E+00 -0.17750930113E+04  0.17750930113E+04  0.50400000000E-02 0. -1.
    8880022    1    1    2    0    0  0.36904925171E+03 -0.17627539053E+03 -0.47586087806E+03  0.64583712481E+03  0.15294330000E+03 0.  0.
    8880022    1    1    2    0    0 -0.36904925171E+03  0.17627539053E+03 -0.11749887172E+04  0.12534993027E+04  0.15294330000E+03 0.  0.
<mgrwt>
<rscale>  0 0.43664862E+03</rscale>
<asrwt>0</asrwt>
<pdfrwt beam="1">  1        1 0.27309121E+00 0.43664862E+03</pdfrwt>
<pdfrwt beam="2">  1       -1 0.19114373E-01 0.43664862E+03</pdfrwt>
<totfact> 0.99773456E+01</totfact>
</mgrwt>
</event>
<event>
 4    1  0.1852677E-008  0.5526655E+03  0.7818608E-02  0.1000879E+00
         -1   -1    0    0    0  501 -0.00000000000E+00  0.00000000000E+00  0.66256041837E+03  0.66256041839E+03  0.50400000000E-02 0.  1.
          1   -1    0    0  501    0  0.00000000000E+00 -0.00000000000E+00 -0.72516693669E+03  0.72516693671E+03  0.50400000000E-02 0. -1.
    8880022    1    1    2    0    0 -0.16440340116E+03  0.50499408135E+03 -0.45009284586E+03  0.71275712793E+03  0.15294330000E+03 0.  0.
    8880022    1    1    2    0    0  0.16440340116E+03 -0.50499408135E+03  0.38748632754E+03  0.67497022716E+03  0.15294330000E+03 0.  0.
<mgrwt>
<rscale>  0 0.55266550E+03</rscale>
<asrwt>0</asrwt>
<pdfrwt beam="1">  1        1 0.11156414E+00 0.55266550E+03</pdfrwt>
<pdfrwt beam="2">  1       -1 0.10193237E+00 0.55266550E+03</pdfrwt>
<totfact> 0.24764087E+01</totfact>
</mgrwt>
</event>
<event>
 4    1  0.1852677E-008  0.8556277E+03  0.7818608E-02  0.9482815E-01
          1   -1    0    0  501    0  0.00000000000E+00  0.00000000000E+00  0.11642819720E+04  0.11642819721E+04  0.50400000000E-02 0. -1.
         -1   -1    0    0    0  501 -0.00000000000E+00 -0.00000000000E+00 -0.71429056774E+03  0.71429056776E+03  0.50400000000E-02 0.  1.
    8880022    1    1    2    0    0  0.60605913576E+03 -0.58429396551E+03 -0.99959434347E+02  0.86144683858E+03  0.15294330000E+03 0.  0.
    8880022    1    1    2    0    0 -0.60605913576E+03  0.58429396551E+03  0.54995083866E+03  0.10171257012E+04  0.15294330000E+03 0.  0.
<mgrwt>
<rscale>  0 0.85562770E+03</rscale>
<asrwt>0</asrwt>
<pdfrwt beam="1">  1        1 0.17912030E+00 0.85562770E+03</pdfrwt>
<pdfrwt beam="2">  1       -1 0.10989086E+00 0.85562770E+03</pdfrwt>
<totfact> 0.88590428E+00</totfact>
</mgrwt>
</event>
<event>
 4    1  0.1852677E-008  0.4517720E+03  0.7818608E-02  0.1027195E+00
          1   -1    0    0  501    0  0.00000000000E+00  0.00000000000E+00  0.11799659827E+04  0.11799659827E+04  0.50400000000E-02 0. -1.
         -1   -1    0    0    0  501 -0.00000000000E+00 -0.00000000000E+00 -0.21495365250E+03  0.21495365256E+03  0.50400000000E-02 0.  1.
    8880022    1    1    2    0    0 -0.94308533307E+01 -0.42499100720E+03  0.17426527954E+03  0.48421724242E+03  0.15294330000E+03 0.  0.
    8880022    1    1    2    0    0  0.94308533307E+01  0.42499100720E+03  0.79074705066E+03  0.91070239285E+03  0.15294330000E+03 0.  0.
<mgrwt>
<rscale>  0 0.45177201E+03</rscale>
<asrwt>0</asrwt>
<pdfrwt beam="1">  1        1 0.18153322E+00 0.45177201E+03</pdfrwt>
<pdfrwt beam="2">  1       -1 0.33069794E-01 0.45177201E+03</pdfrwt>
<totfact> 0.10005862E+02</totfact>
</mgrwt>
</event>
<event>
 4    1  0.1852677E-008  0.4543570E+03  0.7818608E-02  0.1026431E+00
         -1   -1    0    0    0  501 -0.00000000000E+00  0.00000000000E+00  0.18932757139E+03  0.18932757145E+03  0.50400000000E-02 0.  1.
          1   -1    0    0  501    0  0.00000000000E+00 -0.00000000000E+00 -0.28408368328E+04  0.28408368328E+04  0.50400000000E-02 0. -1.
    8880022    1    1    2    0    0  0.39049729018E+03 -0.17481556348E+03 -0.25150450535E+04  0.25557566177E+04  0.15294330000E+03 0.  0.
    8880022    1    1    2    0    0 -0.39049729018E+03  0.17481556348E+03 -0.13646420792E+03  0.47440778654E+03  0.15294330000E+03 0.  0.
<mgrwt>
<rscale>  0 0.45435698E+03</rscale>
<asrwt>0</asrwt>
<pdfrwt beam="1">  1        1 0.43705179E+00 0.45435698E+03</pdfrwt>
<pdfrwt beam="2">  1       -1 0.29127321E-01 0.45435698E+03</pdfrwt>
<totfact> 0.94679759E+00</totfact>
</mgrwt>
</event>
<event>
 4    1  0.1852677E-008  0.4711733E+03  0.7818608E-02  0.1021590E+00
          1   -1    0    0  501    0  0.00000000000E+00  0.00000000000E+00  0.90347791155E+03  0.90347791156E+03  0.50400000000E-02 0. -1.
         -1   -1    0    0    0  501 -0.00000000000E+00 -0.00000000000E+00 -0.78300602870E+03  0.78300602871E+03  0.50400000000E-02 0.  1.
    8880022    1    1    2    0    0 -0.19234546661E+03  0.40201470844E+03  0.75874443340E+03  0.89313905555E+03  0.15294330000E+03 0.  0.
    8880022    1    1    2    0    0  0.19234546661E+03 -0.40201470844E+03 -0.63827255055E+03  0.79334488473E+03  0.15294330000E+03 0.  1.
<mgrwt>
<rscale>  0 0.47117328E+03</rscale>
<asrwt>0</asrwt>
<pdfrwt beam="1">  1        1 0.13899660E+00 0.47117328E+03</pdfrwt>
<pdfrwt beam="2">  1       -1 0.12046247E+00 0.47117328E+03</pdfrwt>
<totfact> 0.11976113E+01</totfact>
</mgrwt>
</event>
<event>
 4    1  0.1852677E-008  0.1859017E+03  0.7818608E-02  0.1162211E+00
          1   -1    0    0  501    0  0.00000000000E+00  0.00000000000E+00  0.38787016088E+03  0.38787016091E+03  0.50400000000E-02 0. -1.
         -1   -1    0    0    0  501 -0.00000000000E+00 -0.00000000000E+00 -0.12061614180E+04  0.12061614180E+04  0.50400000000E-02 0.  1.
    8880022    1    1    2    0    0  0.22915226879E+02  0.10316335136E+03 -0.11761584639E+04  0.11907594928E+04  0.15294330000E+03 0.  1.
    8880022    1    1    2    0    0 -0.22915226879E+02 -0.10316335136E+03  0.35786720677E+03  0.40327208604E+03  0.15294330000E+03 0.  0.
<mgrwt>
<rscale>  0 0.18590169E+03</rscale>
<asrwt>0</asrwt>
<pdfrwt beam="1">  1        1 0.59672333E-01 0.18590169E+03</pdfrwt>
<pdfrwt beam="2">  1       -1 0.18556329E+00 0.18590169E+03</pdfrwt>
<totfact> 0.13839758E+01</totfact>
</mgrwt>
</event>
<event>
 4    1  0.1852677E-008  0.3929486E+03  0.7818608E-02  0.1046249E+00
          1   -1    0    0  501    0  0.00000000000E+00  0.00000000000E+00  0.52642695391E+03  0.52642695393E+03  0.50400000000E-02 0. -1.
         -1   -1    0    0    0  501 -0.00000000000E+00 -0.00000000000E+00 -0.57583183307E+03  0.57583183309E+03  0.50400000000E-02 0.  1.
    8880022    1    1    2    0    0  0.35647150724E+03 -0.62809372573E+02 -0.41073893600E+03  0.56843212376E+03  0.15294330000E+03 0.  0.
    8880022    1    1    2    0    0 -0.35647150724E+03  0.62809372573E+02  0.36133405685E+03  0.53382666326E+03  0.15294330000E+03 0.  0.
<mgrwt>
<rscale>  0 0.39294860E+03</rscale>
<asrwt>0</asrwt>
<pdfrwt beam="1">  1        1 0.80988762E-01 0.39294860E+03</pdfrwt>
<pdfrwt beam="2">  1       -1 0.88589513E-01 0.39294860E+03</pdfrwt>
<totfact> 0.54872552E+01</totfact>
</mgrwt>
</event>
<event>
 4    1  0.1852677E-008  0.5592633E+03  0.7818608E-02  0.9993723E-01
          1   -1    0    0  501    0  0.00000000000E+00  0.00000000000E+00  0.11582196076E+04  0.11582196076E+04  0.50400000000E-02 0. -1.
         -1   -1    0    0    0  501 -0.00000000000E+00 -0.00000000000E+00 -0.15531650207E+04  0.15531650207E+04  0.50400000000E-02 0.  1.
    8880022    1    1    2    0    0  0.42219790363E+03 -0.33336574135E+03 -0.14296845699E+04  0.15351786247E+04  0.15294330000E+03 0.  0.
    8880022    1    1    2    0    0 -0.42219790363E+03  0.33336574135E+03  0.10347391568E+04  0.11762060036E+04  0.15294330000E+03 0.  0.
<mgrwt>
<rscale>  0 0.55926330E+03</rscale>
<asrwt>0</asrwt>
<pdfrwt beam="1">  1        1 0.17818763E+00 0.55926330E+03</pdfrwt>
<pdfrwt beam="2">  1       -1 0.23894846E+00 0.55926330E+03</pdfrwt>
<totfact> 0.10399796E+00</totfact>
</mgrwt>
</event>
<event>
 4    1  0.1852677E-008  0.5157810E+03  0.7818608E-02  0.1009740E+00
         -1   -1    0    0    0  501 -0.00000000000E+00  0.00000000000E+00  0.25725140230E+03  0.25725140235E+03  0.50400000000E-02 0.  1.
          1   -1    0    0  501    0  0.00000000000E+00 -0.00000000000E+00 -0.21380100286E+04  0.21380100286E+04  0.50400000000E-02 0. -1.
    8880022    1    1    2    0    0 -0.14609809998E+02  0.49236667798E+03 -0.79821552920E+02  0.52192099542E+03  0.15294330000E+03 0.  0.
    8880022    1    1    2    0    0  0.14609809998E+02 -0.49236667798E+03 -0.18009370734E+04  0.18733404356E+04  0.15294330000E+03 0.  0.
<mgrwt>
<rscale>  0 0.51578101E+03</rscale>
<asrwt>0</asrwt>
<pdfrwt beam="1">  1        1 0.32892461E+00 0.51578101E+03</pdfrwt>
<pdfrwt beam="2">  1       -1 0.39577140E-01 0.51578101E+03</pdfrwt>
<totfact> 0.16247552E+01</totfact>
</mgrwt>
</event>
<event>
 4    1  0.1852677E-008  0.6380695E+03  0.7818608E-02  0.9829427E-01
         -1   -1    0    0    0  501 -0.00000000000E+00  0.00000000000E+00  0.62741740426E+03  0.62741740428E+03  0.50400000000E-02 0.  1.
          1   -1    0    0  501    0  0.00000000000E+00 -0.00000000000E+00 -0.19881185456E+04  0.19881185456E+04  0.50400000000E-02 0. -1.
    8880022    1    1    2    0    0  0.53701664967E+03 -0.30879463838E+03  0.39298345449E+03  0.74937884894E+03  0.15294330000E+03 0.  0.
    8880022    1    1    2    0    0 -0.53701664967E+03  0.30879463838E+03 -0.17536845959E+04  0.18661571010E+04  0.15294330000E+03 0.  0.
<mgrwt>
<rscale>  0 0.63806948E+03</rscale>
<asrwt>0</asrwt>
<pdfrwt beam="1">  1        1 0.30586439E+00 0.63806948E+03</pdfrwt>
<pdfrwt beam="2">  1       -1 0.96525755E-01 0.63806948E+03</pdfrwt>
<totfact> 0.33736542E+00</totfact>
</mgrwt>
</event>
<event>
 4    1  0.1852677E-008  0.3497580E+03  0.7818608E-02  0.1062714E+00
          1   -1    0    0  501    0  0.00000000000E+00  0.00000000000E+00  0.56159322452E+03  0.56159322454E+03  0.50400000000E-02 0. -1.
         -1   -1    0    0    0  501 -0.00000000000E+00 -0.00000000000E+00 -0.47343092986E+03  0.47343092989E+03  0.50400000000E-02 0.  1.
    8880022    1    1    2    0    0 -0.24020996514E+02 -0.31362716038E+03 -0.33617408461E+03  0.48512232702E+03  0.15294330000E+03 0.  0.
    8880022    1    1    2    0    0  0.24020996514E+02  0.31362716038E+03  0.42433637927E+03  0.54990182741E+03  0.15294330000E+03 0. -1.
<mgrwt>
<rscale>  0 0.34975800E+03</rscale>
<asrwt>0</asrwt>
<pdfrwt beam="1">  1        1 0.86398958E-01 0.34975800E+03</pdfrwt>
<pdfrwt beam="2">  1       -1 0.72835528E-01 0.34975800E+03</pdfrwt>
<totfact> 0.76229905E+01</totfact>
</mgrwt>
</event>
<event>
 4    1  0.1852677E-008  0.6804221E+03  0.7818608E-02  0.9751311E-01
         -1   -1    0    0    0  501 -0.00000000000E+00  0.00000000000E+00  0.10289798658E+04  0.10289798658E+04  0.50400000000E-02 0.  1.
          1   -1    0    0  501    0  0.00000000000E+00 -0.00000000000E+00 -0.11886154974E+04  0.11886154974E+04  0.50400000000E-02 0. -1.
    8880022    1    1    2    0    0  0.20237872532E+02 -0.66270132087E+03  0.79427967127E+03  0.10458749741E+04  0.15294330000E+03 0.  0.
    8880022    1    1    2    0    0 -0.20237872532E+02  0.66270132087E+03 -0.95391530291E+03  0.11717203891E+04  0.15294330000E+03 0.  0.
<mgrwt>
<rscale>  0 0.68042212E+03</rscale>
<asrwt>0</asrwt>
<pdfrwt beam="1">  1        1 0.18286392E+00 0.68042212E+03</pdfrwt>
<pdfrwt beam="2">  1       -1 0.15830460E+00 0.68042212E+03</pdfrwt>
<totfact> 0.34550186E+00</totfact>
</mgrwt>
</event>
<event>
 4    1  0.1852677E-008  0.3341862E+03  0.7818608E-02  0.1069299E+00
          1   -1    0    0  501    0  0.00000000000E+00  0.00000000000E+00  0.21730169140E+04  0.21730169140E+04  0.50400000000E-02 0. -1.
         -1   -1    0    0    0  501 -0.00000000000E+00 -0.00000000000E+00 -0.42857894206E+03  0.42857894209E+03  0.50400000000E-02 0.  1.
    8880022    1    1    2    0    0 -0.29197363267E+03 -0.55137566927E+02 -0.34809473982E+03  0.48254570184E+03  0.15294330000E+03 0.  1.
    8880022    1    1    2    0    0  0.29197363267E+03  0.55137566927E+02  0.20925327118E+04  0.21190501543E+04  0.15294330000E+03 0.  0.
<mgrwt>
<rscale>  0 0.33418619E+03</rscale>
<asrwt>0</asrwt>
<pdfrwt beam="1">  1        1 0.33431029E+00 0.33418619E+03</pdfrwt>
<pdfrwt beam="2">  1       -1 0.65935223E-01 0.33418619E+03</pdfrwt>
<totfact> 0.62151766E+00</totfact>
</mgrwt>
</event>
<event>
 4    1  0.1852677E-008  0.4020409E+03  0.7818608E-02  0.1043075E+00
          1   -1    0    0  501    0  0.00000000000E+00  0.00000000000E+00  0.28406184170E+04  0.28406184170E+04  0.50400000000E-02 0. -1.
         -1   -1    0    0    0  501 -0.00000000000E+00 -0.00000000000E+00 -0.88828590182E+02  0.88828590325E+02  0.50400000000E-02 0.  1.
    8880022    1    1    2    0    0  0.15748426013E+03  0.33681443841E+03  0.49777174754E+03  0.63985437701E+03  0.15294330000E+03 0.  0.
    8880022    1    1    2    0    0 -0.15748426013E+03 -0.33681443841E+03  0.22540180793E+04  0.22895926303E+04  0.15294330000E+03 0.  0.
<mgrwt>
<rscale>  0 0.40204093E+03</rscale>
<asrwt>0</asrwt>
<pdfrwt beam="1">  1        1 0.43701829E+00 0.40204093E+03</pdfrwt>
<pdfrwt beam="2">  1       -1 0.13665935E-01 0.40204093E+03</pdfrwt>
<totfact> 0.33524353E+01</totfact>
</mgrwt>
</event>
<event>
 4    1  0.1852677E-008  0.9271522E+03  0.7818608E-02  0.9392262E-01
         -1   -1    0    0    0  501 -0.00000000000E+00  0.00000000000E+00  0.10426953116E+04  0.10426953116E+04  0.50400000000E-02 0.  1.
          1   -1    0    0  501    0  0.00000000000E+00 -0.00000000000E+00 -0.13303786003E+04  0.13303786003E+04  0.50400000000E-02 0. -1.
    8880022    1    1    2    0    0  0.62485504162E+03 -0.66766432474E+03  0.58789418717E+03  0.10978299968E+04  0.15294330000E+03 0.  0.
    8880022    1    1    2    0    0 -0.62485504162E+03  0.66766432474E+03 -0.87557747588E+03  0.12752439150E+04  0.15294330000E+03 0.  0.
<mgrwt>
<rscale>  0 0.92715216E+03</rscale>
<asrwt>0</asrwt>
<pdfrwt beam="1">  1        1 0.20467363E+00 0.92715216E+03</pdfrwt>
<pdfrwt beam="2">  1       -1 0.16041466E+00 0.92715216E+03</pdfrwt>
<totfact> 0.25329060E+00</totfact>
</mgrwt>
</event>
<event>
 4    1  0.1852677E-008  0.5524044E+03  0.7818608E-02  0.1000939E+00
          1   -1    0    0  501    0  0.00000000000E+00  0.00000000000E+00  0.21346553756E+04  0.21346553756E+04  0.50400000000E-02 0. -1.
         -1   -1    0    0    0  501 -0.00000000000E+00 -0.00000000000E+00 -0.24922933261E+03  0.24922933266E+03  0.50400000000E-02 0.  1.
    8880022    1    1    2    0    0 -0.47655520458E+03 -0.23378223399E+03  0.16435663635E+03  0.57633649274E+03  0.15294330000E+03 0.  0.
    8880022    1    1    2    0    0  0.47655520458E+03  0.23378223399E+03  0.17210694066E+04  0.18075482155E+04  0.15294330000E+03 0.  0.
<mgrwt>
<rscale>  0 0.55240443E+03</rscale>
<asrwt>0</asrwt>
<pdfrwt beam="1">  1        1 0.32840853E+00 0.55240443E+03</pdfrwt>
<pdfrwt beam="2">  1       -1 0.38342973E-01 0.55240443E+03</pdfrwt>
<totfact> 0.17156182E+01</totfact>
</mgrwt>
</event>
<event>
 4    1  0.1852677E-008  0.4586959E+03  0.7818608E-02  0.1025160E+00
         -1   -1    0    0    0  501 -0.00000000000E+00  0.00000000000E+00  0.27785626770E+03  0.27785626775E+03  0.50400000000E-02 0.  1.
          1   -1    0    0  501    0  0.00000000000E+00 -0.00000000000E+00 -0.12491226920E+04  0.12491226920E+04  0.50400000000E-02 0. -1.
    8880022    1    1    2    0    0  0.11670855424E+03  0.41640055919E+03 -0.96474220339E+03  0.10682366238E+04  0.15294330000E+03 0.  0.
    8880022    1    1    2    0    0 -0.11670855424E+03 -0.41640055919E+03 -0.65242208724E+01  0.45874233596E+03  0.15294330000E+03 0.  0.
<mgrwt>
<rscale>  0 0.45869594E+03</rscale>
<asrwt>0</asrwt>
<pdfrwt beam="1">  1        1 0.19217272E+00 0.45869594E+03</pdfrwt>
<pdfrwt beam="2">  1       -1 0.42747119E-01 0.45869594E+03</pdfrwt>
<totfact> 0.56461753E+01</totfact>
</mgrwt>
</event>
<event>
 4    1  0.1852677E-008  0.3495742E+03  0.7818608E-02  0.1062790E+00
         -1   -1    0    0    0  501 -0.00000000000E+00  0.00000000000E+00  0.69248109580E+03  0.69248109582E+03  0.50400000000E-02 0.  1.
          1   -1    0    0  501    0  0.00000000000E+00 -0.00000000000E+00 -0.37984640850E+03  0.37984640853E+03  0.50400000000E-02 0. -1.
    8880022    1    1    2    0    0  0.10643481966E+03  0.29577369939E+03 -0.23600566284E+03  0.42178285645E+03  0.15294330000E+03 0. -1.
    8880022    1    1    2    0    0 -0.10643481966E+03 -0.29577369939E+03  0.54864035015E+03  0.65054464790E+03  0.15294330000E+03 0.  0.
<mgrwt>
<rscale>  0 0.34957418E+03</rscale>
<asrwt>0</asrwt>
<pdfrwt beam="1">  1        1 0.58437909E-01 0.34957418E+03</pdfrwt>
<pdfrwt beam="2">  1       -1 0.10653555E+00 0.34957418E+03</pdfrwt>
<totfact> 0.56434755E+01</totfact>
</mgrwt>
</event>
<event>
 4    1  0.1852677E-008  0.5067350E+03  0.7818608E-02  0.1012036E+00
          1   -1    0    0  501    0  0.00000000000E+00  0.00000000000E+00  0.14667409305E+04  0.14667409305E+04  0.50400000000E-02 0. -1.
         -1   -1    0    0    0  501 -0.00000000000E+00 -0.00000000000E+00 -0.24499861152E+03  0.24499861158E+03  0.50400000000E-02 0.  1.
    8880022    1    1    2    0    0 -0.28515746644E+03 -0.38996662010E+03  0.10681250695E+04  0.11822316028E+04  0.15294330000E+03 0.  0.
    8880022    1    1    2    0    0  0.28515746644E+03  0.38996662010E+03  0.15361724948E+03  0.52950793933E+03  0.15294330000E+03 0.  0.
<mgrwt>
<rscale>  0 0.50673504E+03</rscale>
<asrwt>0</asrwt>
<pdfrwt beam="1">  1        1 0.22565245E+00 0.50673504E+03</pdfrwt>
<pdfrwt beam="2">  1       -1 0.37692094E-01 0.50673504E+03</pdfrwt>
<totfact> 0.49725122E+01</totfact>
</mgrwt>
</event>
<event>
 4    1  0.1852677E-008  0.6835203E+03  0.7818608E-02  0.9745837E-01
         -1   -1    0    0    0  501 -0.00000000000E+00  0.00000000000E+00  0.35189435310E+03  0.35189435313E+03  0.50400000000E-02 0.  1.
          1   -1    0    0  501    0  0.00000000000E+00 -0.00000000000E+00 -0.22003816627E+04  0.22003816627E+04  0.50400000000E-02 0. -1.
    8880022    1    1    2    0    0  0.16252697709E+03  0.64605989390E+03 -0.17279246235E+04  0.18582043919E+04  0.15294330000E+03 0.  0.
    8880022    1    1    2    0    0 -0.16252697709E+03 -0.64605989390E+03 -0.12056268611E+03  0.69407162389E+03  0.15294330000E+03 0.  0.
<mgrwt>
<rscale>  0 0.68352034E+03</rscale>
<asrwt>0</asrwt>
<pdfrwt beam="1">  1        1 0.33852025E+00 0.68352034E+03</pdfrwt>
<pdfrwt beam="2">  1       -1 0.54137594E-01 0.68352034E+03</pdfrwt>
<totfact> 0.79722658E+00</totfact>
</mgrwt>
</event>
<event>
 4    1  0.1852677E-008  0.9552871E+03  0.7818608E-02  0.9358992E-01
         -1   -1    0    0    0  501 -0.00000000000E+00  0.00000000000E+00  0.27438719402E+03  0.27438719406E+03  0.50400000000E-02 0.  1.
          1   -1    0    0  501    0  0.00000000000E+00 -0.00000000000E+00 -0.34435404676E+04  0.34435404676E+04  0.50400000000E-02 0. -1.
    8880022    1    1    2    0    0 -0.55722794371E+03 -0.76070946666E+03 -0.12409240339E+04  0.15660351161E+04  0.15294330000E+03 0.  0.
    8880022    1    1    2    0    0  0.55722794371E+03  0.76070946666E+03 -0.19282292397E+04  0.21518925456E+04  0.15294330000E+03 0.  0.
<mgrwt>
<rscale>  0 0.95528714E+03</rscale>
<asrwt>0</asrwt>
<pdfrwt beam="1">  1        1 0.52977542E+00 0.95528714E+03</pdfrwt>
<pdfrwt beam="2">  1       -1 0.42213417E-01 0.95528714E+03</pdfrwt>
<totfact> 0.15952006E+00</totfact>
</mgrwt>
</event>
<event>
 4    1  0.1852677E-008  0.7178386E+03  0.7818608E-02  0.9687203E-01
          1   -1    0    0  501    0  0.00000000000E+00  0.00000000000E+00  0.28152930984E+04  0.28152930984E+04  0.50400000000E-02 0. -1.
         -1   -1    0    0    0  501 -0.00000000000E+00 -0.00000000000E+00 -0.45724282622E+03  0.45724282625E+03  0.50400000000E-02 0.  1.
    8880022    1    1    2    0    0  0.33362699233E+03  0.61692276985E+03  0.24461583150E+04  0.25493102654E+04  0.15294330000E+03 0.  0.
    8880022    1    1    2    0    0 -0.33362699233E+03 -0.61692276985E+03 -0.88108042876E+02  0.72322565926E+03  0.15294330000E+03 0.  0.
<mgrwt>
<rscale>  0 0.71783865E+03</rscale>
<asrwt>0</asrwt>
<pdfrwt beam="1">  1        1 0.43312203E+00 0.71783865E+03</pdfrwt>
<pdfrwt beam="2">  1       -1 0.70345048E-01 0.71783865E+03</pdfrwt>
<totfact> 0.17904838E+00</totfact>
</mgrwt>
</event>
<event>
 4    1  0.1852677E-008  0.3601219E+03  0.7818608E-02  0.1058536E+00
          1   -1    0    0  501    0  0.00000000000E+00  0.00000000000E+00  0.20467091031E+04  0.20467091031E+04  0.50400000000E-02 0. -1.
         -1   -1    0    0    0  501 -0.00000000000E+00 -0.00000000000E+00 -0.11622457235E+03  0.11622457246E+03  0.50400000000E-02 0.  1.
    8880022    1    1    2    0    0 -0.22011313922E+03  0.24051272656E+03  0.23590253561E+03  0.43050879784E+03  0.15294330000E+03 0.  0.
    8880022    1    1    2    0    0  0.22011313922E+03 -0.24051272656E+03  0.16945819951E+04  0.17324248777E+04  0.15294330000E+03 0.  0.
<mgrwt>
<rscale>  0 0.36012195E+03</rscale>
<asrwt>0</asrwt>
<pdfrwt beam="1">  1        1 0.31487829E+00 0.36012195E+03</pdfrwt>
<pdfrwt beam="2">  1       -1 0.17880705E-01 0.36012195E+03</pdfrwt>
<totfact> 0.74878610E+01</totfact>
</mgrwt>
</event>
<event>
 4    1  0.1852677E-008  0.5777908E+03  0.7818608E-02  0.9952585E-01
         -1   -1    0    0    0  501 -0.00000000000E+00  0.00000000000E+00  0.21940724661E+03  0.21940724667E+03  0.50400000000E-02 0.  1.
          1   -1    0    0  501    0  0.00000000000E+00 -0.00000000000E+00 -0.18225135740E+04  0.18225135740E+04  0.50400000000E-02 0. -1.
    8880022    1    1    2    0    0  0.54204527934E+03  0.12898653965E+03 -0.12164308352E+04  0.13466797103E+04  0.15294330000E+03 0.  0.
    8880022    1    1    2    0    0 -0.54204527934E+03 -0.12898653965E+03 -0.38667549216E+03  0.69524111035E+03  0.15294330000E+03 0.  0.
<mgrwt>
<rscale>  0 0.57779085E+03</rscale>
<asrwt>0</asrwt>
<pdfrwt beam="1">  1        1 0.28038669E+00 0.57779085E+03</pdfrwt>
<pdfrwt beam="2">  1       -1 0.33754962E-01 0.57779085E+03</pdfrwt>
<totfact> 0.34520215E+01</totfact>
</mgrwt>
</event>
<event>
 4    1  0.1852677E-008  0.5408680E+03  0.7818608E-02  0.1003630E+00
          1   -1    0    0  501    0  0.00000000000E+00  0.00000000000E+00  0.10687538457E+04  0.10687538458E+04  0.50400000000E-02 0. -1.
         -1   -1    0    0    0  501 -0.00000000000E+00 -0.00000000000E+00 -0.47607516539E+03  0.47607516541E+03  0.50400000000E-02 0.  1.
    8880022    1    1    2    0    0 -0.43029952200E+03 -0.28980826242E+03 -0.20724353335E+03  0.57921329640E+03  0.15294330000E+03 0.  0.
    8880022    1    1    2    0    0  0.43029952200E+03  0.28980826242E+03  0.79992221371E+03  0.96561571476E+03  0.15294330000E+03 0.  0.
<mgrwt>
<rscale>  0 0.54086797E+03</rscale>
<asrwt>0</asrwt>
<pdfrwt beam="1">  1        1 0.16442367E+00 0.54086797E+03</pdfrwt>
<pdfrwt beam="2">  1       -1 0.73242333E-01 0.54086797E+03</pdfrwt>
<totfact> 0.26621934E+01</totfact>
</mgrwt>
</event>
<event>
 4    1  0.1852677E-008  0.4224872E+03  0.7818608E-02  0.1036260E+00
         -1   -1    0    0    0  501 -0.00000000000E+00  0.00000000000E+00  0.29960580987E+03  0.29960580992E+03  0.50400000000E-02 0.  1.
          1   -1    0    0  501    0  0.00000000000E+00 -0.00000000000E+00 -0.91368035073E+03  0.91368035075E+03  0.50400000000E-02 0. -1.
    8880022    1    1    2    0    0 -0.35458448075E+03 -0.17138733896E+03  0.50803727034E+02  0.42553078107E+03  0.15294330000E+03 0.  0.
    8880022    1    1    2    0    0  0.35458448075E+03  0.17138733896E+03 -0.66487826789E+03  0.78775537959E+03  0.15294330000E+03 0.  0.
<mgrwt>
<rscale>  0 0.42248719E+03</rscale>
<asrwt>0</asrwt>
<pdfrwt beam="1">  1        1 0.14056621E+00 0.42248719E+03</pdfrwt>
<pdfrwt beam="2">  1       -1 0.46093202E-01 0.42248719E+03</pdfrwt>
<totfact> 0.87753803E+01</totfact>
</mgrwt>
</event>
<event>
 4    1  0.1852677E-008  0.2296201E+03  0.7818608E-02  0.1126907E+00
         -1   -1    0    0    0  501 -0.00000000000E+00  0.00000000000E+00  0.11217715944E+03  0.11217715955E+03  0.50400000000E-02 0.  1.
          1   -1    0    0  501    0  0.00000000000E+00 -0.00000000000E+00 -0.77750093168E+03  0.77750093169E+03  0.50400000000E-02 0. -1.
    8880022    1    1    2    0    0 -0.16484259898E+03 -0.46482966841E+02 -0.52916966507E+02  0.23563872136E+03  0.15294330000E+03 0.  0.
    8880022    1    1    2    0    0  0.16484259898E+03  0.46482966841E+02 -0.61240680573E+03  0.65403936989E+03  0.15294330000E+03 0.  0.
<mgrwt>
<rscale>  0 0.22962012E+03</rscale>
<asrwt>0</asrwt>
<pdfrwt beam="1">  1        1 0.11961552E+00 0.22962012E+03</pdfrwt>
<pdfrwt beam="2">  1       -1 0.17258025E-01 0.22962012E+03</pdfrwt>
<totfact> 0.62152719E+02</totfact>
</mgrwt>
</event>
<event>
 4    1  0.1852677E-008  0.4782518E+03  0.7818608E-02  0.1019617E+00
         -1   -1    0    0    0  501 -0.00000000000E+00  0.00000000000E+00  0.45044800522E+03  0.45044800525E+03  0.50400000000E-02 0.  1.
          1   -1    0    0  501    0  0.00000000000E+00 -0.00000000000E+00 -0.26974846139E+04  0.26974846139E+04  0.50400000000E-02 0. -1.
    8880022    1    1    2    0    0 -0.18688761192E+03 -0.41280274363E+03  0.29459044478E+03  0.56170122646E+03  0.15294330000E+03 0.  0.
    8880022    1    1    2    0    0  0.18688761192E+03  0.41280274363E+03 -0.25416270534E+04  0.25862313927E+04  0.15294330000E+03 0.  0.
<mgrwt>
<rscale>  0 0.47825175E+03</rscale>
<asrwt>0</asrwt>
<pdfrwt beam="1">  1        1 0.41499762E+00 0.47825175E+03</pdfrwt>
<pdfrwt beam="2">  1       -1 0.69299695E-01 0.47825175E+03</pdfrwt>
<totfact> 0.23755327E+00</totfact>
</mgrwt>
</event>
<event>
 4    1  0.1852677E-008  0.2854198E+03  0.7818608E-02  0.1092765E+00
          1   -1    0    0  501    0  0.00000000000E+00  0.00000000000E+00  0.28562549306E+03  0.28562549310E+03  0.50400000000E-02 0. -1.
         -1   -1    0    0    0  501 -0.00000000000E+00 -0.00000000000E+00 -0.44496946346E+03  0.44496946349E+03  0.50400000000E-02 0.  1.
    8880022    1    1    2    0    0 -0.46818455394E+01  0.24093748746E+03 -0.29855353882E+03  0.41303590776E+03  0.15294330000E+03 0.  0.
    8880022    1    1    2    0    0  0.46818455394E+01 -0.24093748746E+03  0.13920956841E+03  0.31755904883E+03  0.15294330000E+03 0. -1.
<mgrwt>
<rscale>  0 0.28541977E+03</rscale>
<asrwt>0</asrwt>
<pdfrwt beam="1">  1        1 0.43942384E-01 0.28541977E+03</pdfrwt>
<pdfrwt beam="2">  1       -1 0.68456840E-01 0.28541977E+03</pdfrwt>
<totfact> 0.21045875E+02</totfact>
</mgrwt>
</event>
<event>
 4    1  0.1852677E-008  0.2491676E+03  0.7818608E-02  0.1113832E+00
          1   -1    0    0  501    0  0.00000000000E+00  0.00000000000E+00  0.10057930570E+04  0.10057930571E+04  0.50400000000E-02 0. -1.
         -1   -1    0    0    0  501 -0.00000000000E+00 -0.00000000000E+00 -0.71467950512E+03  0.71467950513E+03  0.50400000000E-02 0.  1.
    8880022    1    1    2    0    0 -0.19211336323E+03  0.42252667484E+02  0.96780495713E+03  0.99936525870E+03  0.15294330000E+03 0.  0.
    8880022    1    1    2    0    0  0.19211336323E+03 -0.42252667484E+02 -0.67669140521E+03  0.72110730348E+03  0.15294330000E+03 0.  1.
<mgrwt>
<rscale>  0 0.24916758E+03</rscale>
<asrwt>0</asrwt>
<pdfrwt beam="1">  1        1 0.15473739E+00 0.24916758E+03</pdfrwt>
<pdfrwt beam="2">  1       -1 0.10995069E+00 0.24916758E+03</pdfrwt>
<totfact> 0.13226530E+01</totfact>
</mgrwt>
</event>
<event>
 4    1  0.1852677E-008  0.5234225E+03  0.7818608E-02  0.1007840E+00
         -1   -1    0    0    0  501 -0.00000000000E+00  0.00000000000E+00  0.63269848835E+03  0.63269848837E+03  0.50400000000E-02 0.  1.
          1   -1    0    0  501    0  0.00000000000E+00 -0.00000000000E+00 -0.12410209406E+04  0.12410209406E+04  0.50400000000E-02 0. -1.
    8880022    1    1    2    0    0  0.38281380924E+03  0.32254157911E+03  0.45178504183E+03  0.69143391574E+03  0.15294330000E+03 0.  0.
    8880022    1    1    2    0    0 -0.38281380924E+03 -0.32254157911E+03 -0.10601074941E+04  0.11822855132E+04  0.15294330000E+03 0.  0.
<mgrwt>
<rscale>  0 0.52342252E+03</rscale>
<asrwt>0</asrwt>
<pdfrwt beam="1">  1        1 0.19092630E+00 0.52342252E+03</pdfrwt>
<pdfrwt beam="2">  1       -1 0.97338229E-01 0.52342252E+03</pdfrwt>
<totfact> 0.10877371E+01</totfact>
</mgrwt>
</event>
<event>
 4    1  0.1852677E-008  0.8046005E+03  0.7818608E-02  0.9553382E-01
          1   -1    0    0  501    0  0.00000000000E+00  0.00000000000E+00  0.11505070398E+04  0.11505070398E+04  0.50400000000E-02 0. -1.
         -1   -1    0    0    0  501 -0.00000000000E+00 -0.00000000000E+00 -0.63148487655E+03  0.63148487657E+03  0.50400000000E-02 0.  1.
    8880022    1    1    2    0    0 -0.20392256425E+03  0.76315524206E+03  0.55358978401E+03  0.97664918864E+03  0.15294330000E+03 0.  0.
    8880022    1    1    2    0    0  0.20392256425E+03 -0.76315524206E+03 -0.34567620774E+02  0.80534272773E+03  0.15294330000E+03 0.  0.
<mgrwt>
<rscale>  0 0.80460051E+03</rscale>
<asrwt>0</asrwt>
<pdfrwt beam="1">  1        1 0.17700108E+00 0.80460051E+03</pdfrwt>
<pdfrwt beam="2">  1       -1 0.97151519E-01 0.80460051E+03</pdfrwt>
<totfact> 0.12135093E+01</totfact>
</mgrwt>
</event>
<event>
 4    1  0.1852677E-008  0.7973810E+03  0.7818608E-02  0.9563816E-01
          1   -1    0    0  501    0  0.00000000000E+00  0.00000000000E+00  0.16904410834E+04  0.16904410834E+04  0.50400000000E-02 0. -1.
         -1   -1    0    0    0  501 -0.00000000000E+00 -0.00000000000E+00 -0.51298846654E+03  0.51298846657E+03  0.50400000000E-02 0.  1.
    8880022    1    1    2    0    0 -0.78014926629E+03 -0.61578606525E+02  0.19664033955E+02  0.79762342601E+03  0.15294330000E+03 0.  0.
    8880022    1    1    2    0    0  0.78014926629E+03  0.61578606525E+02  0.11577885829E+04  0.14058061240E+04  0.15294330000E+03 0.  0.
<mgrwt>
<rscale>  0 0.79738100E+03</rscale>
<asrwt>0</asrwt>
<pdfrwt beam="1">  1        1 0.26006786E+00 0.79738100E+03</pdfrwt>
<pdfrwt beam="2">  1       -1 0.78921302E-01 0.79738100E+03</pdfrwt>
<totfact> 0.80388216E+00</totfact>
</mgrwt>
</event>
<event>
 4    1  0.1852677E-008  0.3897740E+03  0.7818608E-02  0.1047379E+00
          1   -1    0    0  501    0  0.00000000000E+00  0.00000000000E+00  0.13986942700E+04  0.13986942700E+04  0.50400000000E-02 0. -1.
         -1   -1    0    0    0  501 -0.00000000000E+00 -0.00000000000E+00 -0.16989060316E+03  0.16989060323E+03  0.50400000000E-02 0.  1.
    8880022    1    1    2    0    0  0.23087267749E+03 -0.27428068685E+03  0.14339676194E+03  0.41531478753E+03  0.15294330000E+03 0.  0.
    8880022    1    1    2    0    0 -0.23087267749E+03  0.27428068685E+03  0.10854069049E+04  0.11532700857E+04  0.15294330000E+03 0.  0.
<mgrwt>
<rscale>  0 0.38977396E+03</rscale>
<asrwt>0</asrwt>
<pdfrwt beam="1">  1        1 0.21518374E+00 0.38977396E+03</pdfrwt>
<pdfrwt beam="2">  1       -1 0.26137015E-01 0.38977396E+03</pdfrwt>
<totfact> 0.10657232E+02</totfact>
</mgrwt>
</event>
<event>
 4    1  0.1852677E-008  0.6668193E+03  0.7818608E-02  0.9775721E-01
          1   -1    0    0  501    0  0.00000000000E+00  0.00000000000E+00  0.14154980997E+04  0.14154980997E+04  0.50400000000E-02 0. -1.
         -1   -1    0    0    0  501 -0.00000000000E+00 -0.00000000000E+00 -0.47991003222E+03  0.47991003224E+03  0.50400000000E-02 0.  1.
    8880022    1    1    2    0    0 -0.61310130355E+03 -0.21298619385E+03 -0.89213661748E+02  0.67276077297E+03  0.15294330000E+03 0.  0.
    8880022    1    1    2    0    0  0.61310130355E+03  0.21298619385E+03  0.10248017292E+04  0.12226473590E+04  0.15294330000E+03 0.  0.
<mgrwt>
<rscale>  0 0.66681930E+03</rscale>
<asrwt>0</asrwt>
<pdfrwt beam="1">  1        1 0.21776894E+00 0.66681930E+03</pdfrwt>
<pdfrwt beam="2">  1       -1 0.73832313E-01 0.66681930E+03</pdfrwt>
<totfact> 0.14510431E+01</totfact>
</mgrwt>
</event>
<event>
 4    1  0.1852677E-008  0.3790652E+03  0.7818608E-02  0.1051280E+00
         -1   -1    0    0    0  501 -0.00000000000E+00  0.00000000000E+00  0.98938148608E+03  0.98938148610E+03  0.50400000000E-02 0.  1.
          1   -1    0    0  501    0  0.00000000000E+00 -0.00000000000E+00 -0.73165662717E+03  0.73165662719E+03  0.50400000000E-02 0. -1.
    8880022    1    1    2    0    0  0.10456831282E+03 -0.33070266316E+03 -0.64153126332E+03  0.74515286908E+03  0.15294330000E+03 0.  0.
    8880022    1    1    2    0    0 -0.10456831282E+03  0.33070266316E+03  0.89925612223E+03  0.97588524420E+03  0.15294330000E+03 0.  1.
<mgrwt>
<rscale>  0 0.37906521E+03</rscale>
<asrwt>0</asrwt>
<pdfrwt beam="1">  1        1 0.11256256E+00 0.37906521E+03</pdfrwt>
<pdfrwt beam="2">  1       -1 0.15221254E+00 0.37906521E+03</pdfrwt>
<totfact> 0.94424975E+00</totfact>
</mgrwt>
</event>
<event>
 4    1  0.1852677E-008  0.4774744E+03  0.7818608E-02  0.1019832E+00
          1   -1    0    0  501    0  0.00000000000E+00  0.00000000000E+00  0.29860119754E+03  0.29860119758E+03  0.50400000000E-02 0. -1.
         -1   -1    0    0    0  501 -0.00000000000E+00 -0.00000000000E+00 -0.76566707953E+03  0.76566707955E+03  0.50400000000E-02 0.  1.
    8880022    1    1    2    0    0  0.42816964859E+03  0.14581107405E+03 -0.20521768853E+03  0.51970767744E+03  0.15294330000E+03 0.  0.
    8880022    1    1    2    0    0 -0.42816964859E+03 -0.14581107405E+03 -0.26184819347E+03  0.54456059969E+03  0.15294330000E+03 0. -1.
<mgrwt>
<rscale>  0 0.47747437E+03</rscale>
<asrwt>0</asrwt>
<pdfrwt beam="1">  1        1 0.45938646E-01 0.47747437E+03</pdfrwt>
<pdfrwt beam="2">  1       -1 0.11779493E+00 0.47747437E+03</pdfrwt>
<totfact> 0.59713998E+01</totfact>
</mgrwt>
</event>
<event>
 4    1  0.1852677E-008  0.2883422E+03  0.7818608E-02  0.1091218E+00
          1   -1    0    0  501    0  0.00000000000E+00  0.00000000000E+00  0.49878573183E+03  0.49878573185E+03  0.50400000000E-02 0. -1.
         -1   -1    0    0    0  501 -0.00000000000E+00 -0.00000000000E+00 -0.11781130233E+04  0.11781130234E+04  0.50400000000E-02 0.  1.
    8880022    1    1    2    0    0 -0.16355072275E+03 -0.18166105888E+03 -0.11165372611E+04  0.11531681090E+04  0.15294330000E+03 0.  0.
    8880022    1    1    2    0    0  0.16355072275E+03  0.18166105888E+03  0.43720996959E+03  0.52373064618E+03  0.15294330000E+03 0.  0.
<mgrwt>
<rscale>  0 0.28834221E+03</rscale>
<asrwt>0</asrwt>
<pdfrwt beam="1">  1        1 0.76736267E-01 0.28834221E+03</pdfrwt>
<pdfrwt beam="2">  1       -1 0.18124816E+00 0.28834221E+03</pdfrwt>
<totfact> 0.10253339E+01</totfact>
</mgrwt>
</event>
<event>
 4    1  0.1852677E-008  0.1043687E+04  0.7818608E-02  0.9261886E-01
         -1   -1    0    0    0  501 -0.00000000000E+00  0.00000000000E+00  0.51259013700E+03  0.51259013703E+03  0.50400000000E-02 0.  1.
          1   -1    0    0  501    0  0.00000000000E+00 -0.00000000000E+00 -0.29252785990E+04  0.29252785990E+04  0.50400000000E-02 0. -1.
    8880022    1    1    2    0    0  0.22884494384E+03 -0.10067380892E+04 -0.30730049042E+03  0.10879875151E+04  0.15294330000E+03 0.  0.
    8880022    1    1    2    0    0 -0.22884494384E+03  0.10067380892E+04 -0.21053879716E+04  0.23498812209E+04  0.15294330000E+03 0.  0.
<mgrwt>
<rscale>  0 0.10436873E+04</rscale>
<asrwt>0</asrwt>
<pdfrwt beam="1">  1        1 0.45004285E+00 0.10436873E+04</pdfrwt>
<pdfrwt beam="2">  1       -1 0.78860022E-01 0.10436873E+04</pdfrwt>
<totfact> 0.11107038E+00</totfact>
</mgrwt>
</event>
<event>
 4    1  0.1852677E-008  0.1680270E+03  0.7818608E-02  0.1179921E+00
         -1   -1    0    0    0  501 -0.00000000000E+00  0.00000000000E+00  0.60233857259E+02  0.60233857470E+02  0.50400000000E-02 0.  1.
          1   -1    0    0  501    0  0.00000000000E+00 -0.00000000000E+00 -0.16961091979E+04  0.16961091979E+04  0.50400000000E-02 0. -1.
    8880022    1    1    2    0    0  0.59653778519E+02 -0.35816797397E+02 -0.70899410340E+02  0.18237268345E+03  0.15294330000E+03 0.  0.
    8880022    1    1    2    0    0 -0.59653778519E+02  0.35816797397E+02 -0.15649759303E+04  0.15739703719E+04  0.15294330000E+03 0. -1.
<mgrwt>
<rscale>  0 0.16802699E+03</rscale>
<asrwt>0</asrwt>
<pdfrwt beam="1">  1        1 0.26093984E+00 0.16802699E+03</pdfrwt>
<pdfrwt beam="2">  1       -1 0.92667486E-02 0.16802699E+03</pdfrwt>
<totfact> 0.37314454E+02</totfact>
</mgrwt>
</event>
<event>
 4    1  0.1852677E-008  0.6444805E+03  0.7818608E-02  0.9817192E-01
          1   -1    0    0  501    0  0.00000000000E+00  0.00000000000E+00  0.61825653033E+03  0.61825653035E+03  0.50400000000E-02 0. -1.
         -1   -1    0    0    0  501 -0.00000000000E+00 -0.00000000000E+00 -0.18164348737E+04  0.18164348737E+04  0.50400000000E-02 0.  1.
    8880022    1    1    2    0    0 -0.55811497902E+03  0.28367431143E+03 -0.15654388773E+04  0.16929128673E+04  0.15294330000E+03 0.  0.
    8880022    1    1    2    0    0  0.55811497902E+03 -0.28367431143E+03  0.36726053392E+03  0.74177853674E+03  0.15294330000E+03 0.  0.
<mgrwt>
<rscale>  0 0.64448049E+03</rscale>
<asrwt>0</asrwt>
<pdfrwt beam="1">  1        1 0.95116390E-01 0.64448049E+03</pdfrwt>
<pdfrwt beam="2">  1       -1 0.27945152E+00 0.64448049E+03</pdfrwt>
<totfact> 0.15780472E+00</totfact>
</mgrwt>
</event>
<event>
 4    1  0.1852677E-008  0.1877304E+03  0.7818608E-02  0.1160524E+00
          1   -1    0    0  501    0  0.00000000000E+00  0.00000000000E+00  0.68900881561E+03  0.68900881563E+03  0.50400000000E-02 0. -1.
         -1   -1    0    0    0  501 -0.00000000000E+00 -0.00000000000E+00 -0.26746093953E+03  0.26746093958E+03  0.50400000000E-02 0.  1.
    8880022    1    1    2    0    0 -0.57810854842E+02 -0.92243987131E+02 -0.21930725354E+03  0.28868386268E+03  0.15294330000E+03 0.  1.
    8880022    1    1    2    0    0  0.57810854842E+02  0.92243987131E+02  0.64085512962E+03  0.66778589254E+03  0.15294330000E+03 0.  0.
<mgrwt>
<rscale>  0 0.18773039E+03</rscale>
<asrwt>0</asrwt>
<pdfrwt beam="1">  1        1 0.10600136E+00 0.18773039E+03</pdfrwt>
<pdfrwt beam="2">  1       -1 0.41147837E-01 0.18773039E+03</pdfrwt>
<totfact> 0.17378073E+02</totfact>
</mgrwt>
</event>
<event>
 4    1  0.1852677E-008  0.8760346E+03  0.7818608E-02  0.9456045E-01
          1   -1    0    0  501    0  0.00000000000E+00  0.00000000000E+00  0.18945656564E+04  0.18945656564E+04  0.50400000000E-02 0. -1.
         -1   -1    0    0    0  501 -0.00000000000E+00 -0.00000000000E+00 -0.49773521957E+03  0.49773521959E+03  0.50400000000E-02 0.  1.
    8880022    1    1    2    0    0  0.43484733805E+03  0.74495150122E+03  0.12145212679E+04  0.14974974156E+04  0.15294330000E+03 0.  0.
    8880022    1    1    2    0    0 -0.43484733805E+03 -0.74495150122E+03  0.18230916890E+03  0.89480346035E+03  0.15294330000E+03 0.  0.
<mgrwt>
<rscale>  0 0.87603459E+03</rscale>
<asrwt>0</asrwt>
<pdfrwt beam="1">  1        1 0.29147164E+00 0.87603459E+03</pdfrwt>
<pdfrwt beam="2">  1       -1 0.76574648E-01 0.87603459E+03</pdfrwt>
<totfact> 0.61746082E+00</totfact>
</mgrwt>
</event>
<event>
 4    1  0.1852677E-008  0.3582148E+03  0.7818608E-02  0.1059293E+00
         -1   -1    0    0    0  501 -0.00000000000E+00  0.00000000000E+00  0.10301204224E+03  0.10301204237E+03  0.50400000000E-02 0.  1.
          1   -1    0    0  501    0  0.00000000000E+00 -0.00000000000E+00 -0.21040098498E+04  0.21040098498E+04  0.50400000000E-02 0. -1.
    8880022    1    1    2    0    0 -0.32230289987E+03 -0.32358355746E+02 -0.17053302122E+04  0.17425467019E+04  0.15294330000E+03 0.  0.
    8880022    1    1    2    0    0  0.32230289987E+03  0.32358355746E+02 -0.29566759529E+03  0.46447519027E+03  0.15294330000E+03 0.  0.
<mgrwt>
<rscale>  0 0.35821485E+03</rscale>
<asrwt>0</asrwt>
<pdfrwt beam="1">  1        1 0.32369379E+00 0.35821485E+03</pdfrwt>
<pdfrwt beam="2">  1       -1 0.15848008E-01 0.35821485E+03</pdfrwt>
<totfact> 0.83508564E+01</totfact>
</mgrwt>
</event>
<event>
 4    1  0.1852677E-008  0.8896469E+03  0.7818608E-02  0.9438617E-01
          1   -1    0    0  501    0  0.00000000000E+00  0.00000000000E+00  0.94808090350E+03  0.94808090352E+03  0.50400000000E-02 0. -1.
         -1   -1    0    0    0  501 -0.00000000000E+00 -0.00000000000E+00 -0.19491459254E+04  0.19491459254E+04  0.50400000000E-02 0.  1.
    8880022    1    1    2    0    0 -0.87157768313E+03  0.91827556997E+02  0.59477869227E+03  0.10701557381E+04  0.15294330000E+03 0.  0.
    8880022    1    1    2    0    0  0.87157768313E+03 -0.91827556997E+02 -0.15958437142E+04  0.18270710909E+04  0.15294330000E+03 0.  0.
<mgrwt>
<rscale>  0 0.88964690E+03</rscale>
<asrwt>0</asrwt>
<pdfrwt beam="1">  1        1 0.14585860E+00 0.88964690E+03</pdfrwt>
<pdfrwt beam="2">  1       -1 0.29986860E+00 0.88964690E+03</pdfrwt>
<totfact> 0.56841941E-01</totfact>
</mgrwt>
</event>
<event>
 4    1  0.1852677E-008  0.4426700E+03  0.7818608E-02  0.1029931E+00
         -1   -1    0    0    0  501 -0.00000000000E+00  0.00000000000E+00  0.32396165607E+03  0.32396165611E+03  0.50400000000E-02 0.  1.
          1   -1    0    0  501    0  0.00000000000E+00 -0.00000000000E+00 -0.88142239250E+03  0.88142239251E+03  0.50400000000E-02 0. -1.
    8880022    1    1    2    0    0  0.41246722469E+03  0.49354238281E+02  0.58857804215E+02  0.44656572463E+03  0.15294330000E+03 0.  0.
    8880022    1    1    2    0    0 -0.41246722469E+03 -0.49354238281E+02 -0.61631854064E+03  0.75881832400E+03  0.15294330000E+03 0.  0.
<mgrwt>
<rscale>  0 0.44266997E+03</rscale>
<asrwt>0</asrwt>
<pdfrwt beam="1">  1        1 0.13560344E+00 0.44266997E+03</pdfrwt>
<pdfrwt beam="2">  1       -1 0.49840255E-01 0.44266997E+03</pdfrwt>
<totfact> 0.80310344E+01</totfact>
</mgrwt>
</event>
<event>
 4    1  0.1852677E-008  0.7013673E+03  0.7818608E-02  0.9714897E-01
         -1   -1    0    0    0  501 -0.00000000000E+00  0.00000000000E+00  0.12621225414E+04  0.12621225414E+04  0.50400000000E-02 0.  1.
          1   -1    0    0  501    0  0.00000000000E+00 -0.00000000000E+00 -0.84627730477E+03  0.84627730479E+03  0.50400000000E-02 0. -1.
    8880022    1    1    2    0    0  0.61658034815E+01  0.68446069552E+03  0.98220354241E+03  0.12069133824E+04  0.15294330000E+03 0.  0.
    8880022    1    1    2    0    0 -0.61658034815E+01 -0.68446069552E+03 -0.56635830580E+03  0.90148646380E+03  0.15294330000E+03 0.  0.
<mgrwt>
<rscale>  0 0.70136732E+03</rscale>
<asrwt>0</asrwt>
<pdfrwt beam="1">  1        1 0.13019651E+00 0.70136732E+03</pdfrwt>
<pdfrwt beam="2">  1       -1 0.19417270E+00 0.70136732E+03</pdfrwt>
<totfact> 0.34908734E+00</totfact>
</mgrwt>
</event>
<event>
 4    1  0.1852677E-008  0.3160936E+03  0.7818608E-02  0.1077461E+00
         -1   -1    0    0    0  501 -0.00000000000E+00  0.00000000000E+00  0.61313431388E+03  0.61313431390E+03  0.50400000000E-02 0.  1.
          1   -1    0    0  501    0  0.00000000000E+00 -0.00000000000E+00 -0.22989580760E+03  0.22989580765E+03  0.50400000000E-02 0. -1.
    8880022    1    1    2    0    0 -0.26831409351E+03 -0.67313307723E+02  0.41906775014E+03  0.52491234163E+03  0.15294330000E+03 0.  0.
    8880022    1    1    2    0    0  0.26831409351E+03  0.67313307723E+02 -0.35829243857E+02  0.31811777992E+03  0.15294330000E+03 0.  0.
<mgrwt>
<rscale>  0 0.31609364E+03</rscale>
<asrwt>0</asrwt>
<pdfrwt beam="1">  1        1 0.35368586E-01 0.31609364E+03</pdfrwt>
<pdfrwt beam="2">  1       -1 0.94328356E-01 0.31609364E+03</pdfrwt>
<totfact> 0.14129102E+02</totfact>
</mgrwt>
</event>
<event>
 4    1  0.1852677E-008  0.9994878E+03  0.7818608E-02  0.9309107E-01
          1   -1    0    0  501    0  0.00000000000E+00  0.00000000000E+00  0.15741971992E+04  0.15741971992E+04  0.50400000000E-02 0. -1.
         -1   -1    0    0    0  501 -0.00000000000E+00 -0.00000000000E+00 -0.73386769341E+03  0.73386769342E+03  0.50400000000E-02 0.  1.
    8880022    1    1    2    0    0  0.10527150692E+03  0.98209063954E+03  0.84461489482E+03  0.13085679532E+04  0.15294330000E+03 0.  0.
    8880022    1    1    2    0    0 -0.10527150692E+03 -0.98209063954E+03 -0.42853890333E+01  0.99949693948E+03  0.15294330000E+03 0.  0.
<mgrwt>
<rscale>  0 0.99948775E+03</rscale>
<asrwt>0</asrwt>
<pdfrwt beam="1">  1        1 0.24218418E+00 0.99948775E+03</pdfrwt>
<pdfrwt beam="2">  1       -1 0.11290272E+00 0.99948775E+03</pdfrwt>
<totfact> 0.41959475E+00</totfact>
</mgrwt>
</event>
<event>
 4    1  0.1852677E-008  0.4182756E+03  0.7818608E-02  0.1037629E+00
         -1   -1    0    0    0  501 -0.00000000000E+00  0.00000000000E+00  0.17626584831E+03  0.17626584838E+03  0.50400000000E-02 0.  1.
          1   -1    0    0  501    0  0.00000000000E+00 -0.00000000000E+00 -0.14512860183E+04  0.14512860183E+04  0.50400000000E-02 0. -1.
    8880022    1    1    2    0    0 -0.10289750215E+03 -0.37546627673E+03 -0.10950246308E+04  0.11721917147E+04  0.15294330000E+03 0.  0.
    8880022    1    1    2    0    0  0.10289750215E+03  0.37546627673E+03 -0.17999553923E+03  0.45536015204E+03  0.15294330000E+03 0.  0.
<mgrwt>
<rscale>  0 0.41827560E+03</rscale>
<asrwt>0</asrwt>
<pdfrwt beam="1">  1        1 0.22327476E+00 0.41827560E+03</pdfrwt>
<pdfrwt beam="2">  1       -1 0.27117824E-01 0.41827560E+03</pdfrwt>
<totfact> 0.91764361E+01</totfact>
</mgrwt>
</event>
<event>
 4    1  0.1852677E-008  0.4285477E+03  0.7818608E-02  0.1034320E+00
         -1   -1    0    0    0  501 -0.00000000000E+00  0.00000000000E+00  0.73733086533E+03  0.73733086535E+03  0.50400000000E-02 0.  1.
          1   -1    0    0  501    0  0.00000000000E+00 -0.00000000000E+00 -0.12429344787E+04  0.12429344787E+04  0.50400000000E-02 0. -1.
    8880022    1    1    2    0    0 -0.27143760347E+03 -0.29425011586E+03  0.63258089688E+03  0.76407574714E+03  0.15294330000E+03 0.  0.
    8880022    1    1    2    0    0  0.27143760347E+03  0.29425011586E+03 -0.11381845102E+04  0.12161895969E+04  0.15294330000E+03 0.  0.
<mgrwt>
<rscale>  0 0.42854773E+03</rscale>
<asrwt>0</asrwt>
<pdfrwt beam="1">  1        1 0.19122069E+00 0.42854773E+03</pdfrwt>
<pdfrwt beam="2">  1       -1 0.11343552E+00 0.42854773E+03</pdfrwt>
<totfact> 0.78003059E+00</totfact>
</mgrwt>
</event>
<event>
 4    1  0.1852677E-008  0.7515365E+03  0.7818608E-02  0.9632943E-01
          1   -1    0    0  501    0  0.00000000000E+00  0.00000000000E+00  0.11331188650E+04  0.11331188650E+04  0.50400000000E-02 0. -1.
         -1   -1    0    0    0  501 -0.00000000000E+00 -0.00000000000E+00 -0.55998744261E+03  0.55998744264E+03  0.50400000000E-02 0.  1.
    8880022    1    1    2    0    0  0.73285924250E+03 -0.65824484678E+02  0.56718794826E+03  0.94154625684E+03  0.15294330000E+03 0.  0.
    8880022    1    1    2    0    0 -0.73285924250E+03  0.65824484678E+02  0.59434741453E+01  0.75156005083E+03  0.15294330000E+03 0.  0.
<mgrwt>
<rscale>  0 0.75153655E+03</rscale>
<asrwt>0</asrwt>
<pdfrwt beam="1">  1        1 0.17432598E+00 0.75153655E+03</pdfrwt>
<pdfrwt beam="2">  1       -1 0.86151914E-01 0.75153655E+03</pdfrwt>
<totfact> 0.16417182E+01</totfact>
</mgrwt>
</event>
<event>
 4    1  0.1852677E-008  0.9781255E+03  0.7818608E-02  0.9332867E-01
          1   -1    0    0  501    0  0.00000000000E+00  0.00000000000E+00  0.67072123804E+03  0.67072123806E+03  0.50400000000E-02 0. -1.
         -1   -1    0    0    0  501 -0.00000000000E+00 -0.00000000000E+00 -0.28259711141E+04  0.28259711141E+04  0.50400000000E-02 0.  1.
    8880022    1    1    2    0    0  0.93233496861E+03 -0.25315874024E+03 -0.23080016757E+04  0.25067112378E+04  0.15294330000E+03 0.  0.
    8880022    1    1    2    0    0 -0.93233496861E+03  0.25315874024E+03  0.15275179970E+03  0.98998111436E+03  0.15294330000E+03 0.  0.
<mgrwt>
<rscale>  0 0.97812550E+03</rscale>
<asrwt>0</asrwt>
<pdfrwt beam="1">  1        1 0.10318788E+00 0.97812550E+03</pdfrwt>
<pdfrwt beam="2">  1       -1 0.43476478E+00 0.97812550E+03</pdfrwt>
<totfact> 0.12352454E-01</totfact>
</mgrwt>
</event>
<event>
 4    1  0.1852677E-008  0.1760258E+03  0.7818608E-02  0.1171706E+00
         -1   -1    0    0    0  501 -0.00000000000E+00  0.00000000000E+00  0.12750070584E+03  0.12750070593E+03  0.50400000000E-02 0.  1.
          1   -1    0    0  501    0  0.00000000000E+00 -0.00000000000E+00 -0.15477958792E+04  0.15477958792E+04  0.50400000000E-02 0. -1.
    8880022    1    1    2    0    0  0.17751526098E+02 -0.85312928595E+02  0.58935088006E+02  0.18562976614E+03  0.15294330000E+03 0.  1.
    8880022    1    1    2    0    0 -0.17751526098E+02  0.85312928595E+02 -0.14792302614E+04  0.14896668190E+04  0.15294330000E+03 0.  0.
<mgrwt>
<rscale>  0 0.17602575E+03</rscale>
<asrwt>0</asrwt>
<pdfrwt beam="1">  1        1 0.23812243E+00 0.17602575E+03</pdfrwt>
<pdfrwt beam="2">  1       -1 0.19615494E-01 0.17602575E+03</pdfrwt>
<totfact> 0.14343900E+02</totfact>
</mgrwt>
</event>
<event>
 4    1  0.1852677E-008  0.1725557E+03  0.7818608E-02  0.1175209E+00
         -1   -1    0    0    0  501 -0.00000000000E+00  0.00000000000E+00  0.65045489635E+03  0.65045489637E+03  0.50400000000E-02 0.  1.
          1   -1    0    0  501    0  0.00000000000E+00 -0.00000000000E+00 -0.13282323929E+04  0.13282323929E+04  0.50400000000E-02 0. -1.
    8880022    1    1    2    0    0  0.36636687966E+02  0.71004018195E+02  0.63325698309E+03  0.65634585179E+03  0.15294330000E+03 0.  0.
    8880022    1    1    2    0    0 -0.36636687966E+02 -0.71004018195E+02 -0.13110344796E+04  0.13223414375E+04  0.15294330000E+03 0. -1.
<mgrwt>
<rscale>  0 0.17255570E+03</rscale>
<asrwt>0</asrwt>
<pdfrwt beam="1">  1        1 0.20434344E+00 0.17255570E+03</pdfrwt>
<pdfrwt beam="2">  1       -1 0.10006998E+00 0.17255570E+03</pdfrwt>
<totfact> 0.10120445E+01</totfact>
</mgrwt>
</event>
<event>
 4    1  0.1852677E-008  0.4100174E+03  0.7818608E-02  0.1040365E+00
         -1   -1    0    0    0  501 -0.00000000000E+00  0.00000000000E+00  0.47703400446E+03  0.47703400449E+03  0.50400000000E-02 0.  1.
          1   -1    0    0  501    0  0.00000000000E+00 -0.00000000000E+00 -0.82476004513E+03  0.82476004515E+03  0.50400000000E-02 0. -1.
    8880022    1    1    2    0    0  0.31846749408E+03 -0.20808912137E+03 -0.66644422035E+03  0.78247183916E+03  0.15294330000E+03 0. -1.
    8880022    1    1    2    0    0 -0.31846749408E+03  0.20808912137E+03  0.31871817968E+03  0.51932221048E+03  0.15294330000E+03 0.  0.
<mgrwt>
<rscale>  0 0.41001741E+03</rscale>
<asrwt>0</asrwt>
<pdfrwt beam="1">  1        1 0.12688616E+00 0.41001741E+03</pdfrwt>
<pdfrwt beam="2">  1       -1 0.73389847E-01 0.41001741E+03</pdfrwt>
<totfact> 0.42176811E+01</totfact>
</mgrwt>
</event>
<event>
 4    1  0.1852677E-008  0.6617739E+03  0.7818608E-02  0.9784934E-01
         -1   -1    0    0    0  501 -0.00000000000E+00  0.00000000000E+00  0.79576576795E+03  0.79576576797E+03  0.50400000000E-02 0.  1.
          1   -1    0    0  501    0  0.00000000000E+00 -0.00000000000E+00 -0.66649656647E+03  0.66649656649E+03  0.50400000000E-02 0. -1.
    8880022    1    1    2    0    0 -0.63330406719E+03 -0.11609890217E+03  0.36985346363E+03  0.75811360243E+03  0.15294330000E+03 0.  0.
    8880022    1    1    2    0    0  0.63330406719E+03  0.11609890217E+03 -0.24058426215E+03  0.70414873203E+03  0.15294330000E+03 0.  0.
<mgrwt>
<rscale>  0 0.66177387E+03</rscale>
<asrwt>0</asrwt>
<pdfrwt beam="1">  1        1 0.10253793E+00 0.66177387E+03</pdfrwt>
<pdfrwt beam="2">  1       -1 0.12242550E+00 0.66177387E+03</pdfrwt>
<totfact> 0.17954920E+01</totfact>
</mgrwt>
</event>
<event>
 4    1  0.1852677E-008  0.3402671E+03  0.7818608E-02  0.1066682E+00
         -1   -1    0    0    0  501 -0.00000000000E+00  0.00000000000E+00  0.95291896786E+02  0.95291896919E+02  0.50400000000E-02 0.  1.
          1   -1    0    0  501    0  0.00000000000E+00 -0.00000000000E+00 -0.13854448812E+04  0.13854448812E+04  0.50400000000E-02 0. -1.
    8880022    1    1    2    0    0 -0.30311307137E+03 -0.22638008784E+02 -0.90474442749E+03  0.96661478654E+03  0.15294330000E+03 0.  0.
    8880022    1    1    2    0    0  0.30311307137E+03  0.22638008784E+02 -0.38540855696E+03  0.51412199162E+03  0.15294330000E+03 0. -1.
<mgrwt>
<rscale>  0 0.34026705E+03</rscale>
<asrwt>0</asrwt>
<pdfrwt beam="1">  1        1 0.21314535E+00 0.34026705E+03</pdfrwt>
<pdfrwt beam="2">  1       -1 0.14660293E-01 0.34026705E+03</pdfrwt>
<totfact> 0.28322967E+02</totfact>
</mgrwt>
</event>
<event>
 4    1  0.1852677E-008  0.9481349E+03  0.7818608E-02  0.9367333E-01
         -1   -1    0    0    0  501 -0.00000000000E+00  0.00000000000E+00  0.11455938593E+04  0.11455938593E+04  0.50400000000E-02 0.  1.
          1   -1    0    0  501    0  0.00000000000E+00 -0.00000000000E+00 -0.11123471602E+04  0.11123471602E+04  0.50400000000E-02 0. -1.
    8880022    1    1    2    0    0 -0.60161617141E+03 -0.71667719717E+03 -0.59609158727E+03  0.11199486846E+04  0.15294330000E+03 0.  0.
    8880022    1    1    2    0    0  0.60161617141E+03  0.71667719717E+03  0.62933828641E+03  0.11379923349E+04  0.15294330000E+03 0.  0.
<mgrwt>
<rscale>  0 0.94813495E+03</rscale>
<asrwt>0</asrwt>
<pdfrwt beam="1">  1        1 0.17113033E+00 0.94813495E+03</pdfrwt>
<pdfrwt beam="2">  1       -1 0.17624521E+00 0.94813495E+03</pdfrwt>
<totfact> 0.27779148E+00</totfact>
</mgrwt>
</event>
<event>
 4    1  0.1852677E-008  0.2955604E+03  0.7818608E-02  0.1087481E+00
         -1   -1    0    0    0  501 -0.00000000000E+00  0.00000000000E+00  0.14661178232E+04  0.14661178232E+04  0.50400000000E-02 0.  1.
          1   -1    0    0  501    0  0.00000000000E+00 -0.00000000000E+00 -0.72040194222E+03  0.72040194224E+03  0.50400000000E-02 0. -1.
    8880022    1    1    2    0    0 -0.54407658076E+02 -0.24699003117E+03  0.14199314350E+04  0.14503658855E+04  0.15294330000E+03 0.  0.
    8880022    1    1    2    0    0  0.54407658076E+02  0.24699003117E+03 -0.67421555398E+03  0.73615387997E+03  0.15294330000E+03 0. -1.
<mgrwt>
<rscale>  0 0.29556035E+03</rscale>
<asrwt>0</asrwt>
<pdfrwt beam="1">  1        1 0.11083107E+00 0.29556035E+03</pdfrwt>
<pdfrwt beam="2">  1       -1 0.22555659E+00 0.29556035E+03</pdfrwt>
<totfact> 0.30893381E+00</totfact>
</mgrwt>
</event>
<event>
 4    1  0.1852677E-008  0.1557117E+03  0.7818608E-02  0.1193625E+00
          1   -1    0    0  501    0  0.00000000000E+00  0.00000000000E+00  0.74007719821E+03  0.74007719823E+03  0.50400000000E-02 0. -1.
         -1   -1    0    0    0  501 -0.00000000000E+00 -0.00000000000E+00 -0.49268037915E+02  0.49268038173E+02  0.50400000000E-02 0.  1.
    8880022    1    1    2    0    0 -0.23062991079E+00  0.29230340849E+02  0.11695995673E+03  0.19474534785E+03  0.15294330000E+03 0.  1.
    8880022    1    1    2    0    0  0.23062991079E+00 -0.29230340849E+02  0.57384920356E+03  0.59459988855E+03  0.15294330000E+03 0.  0.
<mgrwt>
<rscale>  0 0.15571165E+03</rscale>
<asrwt>0</asrwt>
<pdfrwt beam="1">  1        1 0.11385803E+00 0.15571165E+03</pdfrwt>
<pdfrwt beam="2">  1       -1 0.75796982E-02 0.15571165E+03</pdfrwt>
<totfact> 0.23963717E+03</totfact>
</mgrwt>
</event>
<event>
 4    1  0.1852677E-008  0.6693525E+03  0.7818608E-02  0.9771128E-01
          1   -1    0    0  501    0  0.00000000000E+00  0.00000000000E+00  0.44224875826E+03  0.44224875829E+03  0.50400000000E-02 0. -1.
         -1   -1    0    0    0  501 -0.00000000000E+00 -0.00000000000E+00 -0.12466363389E+04  0.12466363389E+04  0.50400000000E-02 0.  1.
    8880022    1    1    2    0    0 -0.63451223538E+03  0.14844314661E+03 -0.36685481646E+02  0.67035708559E+03  0.15294330000E+03 0.  0.
    8880022    1    1    2    0    0  0.63451223538E+03 -0.14844314661E+03 -0.76770209902E+03  0.10185280116E+04  0.15294330000E+03 0.  0.
<mgrwt>
<rscale>  0 0.66935252E+03</rscale>
<asrwt>0</asrwt>
<pdfrwt beam="1">  1        1 0.68038271E-01 0.66935252E+03</pdfrwt>
<pdfrwt beam="2">  1       -1 0.19179020E+00 0.66935252E+03</pdfrwt>
<totfact> 0.93837289E+00</totfact>
</mgrwt>
</event>
<event>
 4    1  0.1852677E-008  0.1779466E+03  0.7818608E-02  0.1169805E+00
          1   -1    0    0  501    0  0.00000000000E+00  0.00000000000E+00  0.34324439072E+03  0.34324439076E+03  0.50400000000E-02 0. -1.
         -1   -1    0    0    0  501 -0.00000000000E+00 -0.00000000000E+00 -0.64367160078E+03  0.64367160080E+03  0.50400000000E-02 0.  1.
    8880022    1    1    2    0    0  0.90653115242E+02  0.74397460883E+01 -0.60694315007E+03  0.63249108891E+03  0.15294330000E+03 0.  0.
    8880022    1    1    2    0    0 -0.90653115242E+02 -0.74397460883E+01  0.30651594001E+03  0.35442490265E+03  0.15294330000E+03 0. -1.
<mgrwt>
<rscale>  0 0.17794659E+03</rscale>
<asrwt>0</asrwt>
<pdfrwt beam="1">  1        1 0.52806829E-01 0.17794659E+03</pdfrwt>
<pdfrwt beam="2">  1       -1 0.99026400E-01 0.17794659E+03</pdfrwt>
<totfact> 0.78509740E+01</totfact>
</mgrwt>
</event>
<event>
 4    1  0.1852677E-008  0.9754848E+03  0.7818608E-02  0.9335849E-01
          1   -1    0    0  501    0  0.00000000000E+00  0.00000000000E+00  0.15904829136E+04  0.15904829136E+04  0.50400000000E-02 0. -1.
         -1   -1    0    0    0  501 -0.00000000000E+00 -0.00000000000E+00 -0.12476538375E+04  0.12476538375E+04  0.50400000000E-02 0.  1.
    8880022    1    1    2    0    0 -0.79550606508E+03 -0.54346026035E+03  0.11951793427E+04  0.15427327275E+04  0.15294330000E+03 0.  0.
    8880022    1    1    2    0    0  0.79550606508E+03  0.54346026035E+03 -0.85235026667E+03  0.12954040236E+04  0.15294330000E+03 0.  0.
<mgrwt>
<rscale>  0 0.97548481E+03</rscale>
<asrwt>0</asrwt>
<pdfrwt beam="1">  1        1 0.24468968E+00 0.97548481E+03</pdfrwt>
<pdfrwt beam="2">  1       -1 0.19194674E+00 0.97548481E+03</pdfrwt>
<totfact> 0.98115075E-01</totfact>
</mgrwt>
</event>
<event>
 4    1  0.1852677E-008  0.7229614E+03  0.7818608E-02  0.9678751E-01
          1   -1    0    0  501    0  0.00000000000E+00  0.00000000000E+00  0.11556641293E+04  0.11556641293E+04  0.50400000000E-02 0. -1.
         -1   -1    0    0    0  501 -0.00000000000E+00 -0.00000000000E+00 -0.97869217996E+03  0.97869217997E+03  0.50400000000E-02 0.  1.
    8880022    1    1    2    0    0  0.36854511763E+03 -0.60287311241E+03  0.87115946624E+03  0.11320741857E+04  0.15294330000E+03 0.  0.
    8880022    1    1    2    0    0 -0.36854511763E+03  0.60287311241E+03 -0.69418751694E+03  0.10022821235E+04  0.15294330000E+03 0.  0.
<mgrwt>
<rscale>  0 0.72296137E+03</rscale>
<asrwt>0</asrwt>
<pdfrwt beam="1">  1        1 0.17779448E+00 0.72296137E+03</pdfrwt>
<pdfrwt beam="2">  1       -1 0.15056803E+00 0.72296137E+03</pdfrwt>
<totfact> 0.41523792E+00</totfact>
</mgrwt>
</event>
<event>
 4    1  0.1852677E-008  0.5558252E+03  0.7818608E-02  0.1000155E+00
          1   -1    0    0  501    0  0.00000000000E+00  0.00000000000E+00  0.11933073332E+04  0.11933073332E+04  0.50400000000E-02 0. -1.
         -1   -1    0    0    0  501 -0.00000000000E+00 -0.00000000000E+00 -0.40173292891E+03  0.40173292894E+03  0.50400000000E-02 0.  1.
    8880022    1    1    2    0    0 -0.88040149477E+01  0.53429623037E+03 -0.79760731626E+02  0.56151883298E+03  0.15294330000E+03 0.  0.
    8880022    1    1    2    0    0  0.88040149477E+01 -0.53429623037E+03  0.87133513592E+03  0.10335214292E+04  0.15294330000E+03 0.  0.
<mgrwt>
<rscale>  0 0.55582518E+03</rscale>
<asrwt>0</asrwt>
<pdfrwt beam="1">  1        1 0.18358574E+00 0.55582518E+03</pdfrwt>
<pdfrwt beam="2">  1       -1 0.61805066E-01 0.55582518E+03</pdfrwt>
<totfact> 0.30306537E+01</totfact>
</mgrwt>
</event>
<event>
 4    1  0.1852677E-008  0.6538148E+03  0.7818608E-02  0.9799647E-01
          1   -1    0    0  501    0  0.00000000000E+00  0.00000000000E+00  0.11199822839E+04  0.11199822839E+04  0.50400000000E-02 0. -1.
         -1   -1    0    0    0  501 -0.00000000000E+00 -0.00000000000E+00 -0.92136828678E+03  0.92136828680E+03  0.50400000000E-02 0.  1.
    8880022    1    1    2    0    0 -0.63511708787E+03 -0.26617409752E+02 -0.68185807671E+03  0.94467152577E+03  0.15294330000E+03 0.  0.
    8880022    1    1    2    0    0  0.63511708787E+03  0.26617409752E+02  0.88047207381E+03  0.10966790449E+04  0.15294330000E+03 0.  0.
<mgrwt>
<rscale>  0 0.65381485E+03</rscale>
<asrwt>0</asrwt>
<pdfrwt beam="1">  1        1 0.17230497E+00 0.65381485E+03</pdfrwt>
<pdfrwt beam="2">  1       -1 0.14174897E+00 0.65381485E+03</pdfrwt>
<totfact> 0.52392729E+00</totfact>
</mgrwt>
</event>
<event>
 4    1  0.1852677E-008  0.3000530E+03  0.7818608E-02  0.1085214E+00
          1   -1    0    0  501    0  0.00000000000E+00  0.00000000000E+00  0.31803960811E+04  0.31803960811E+04  0.50400000000E-02 0. -1.
         -1   -1    0    0    0  501 -0.00000000000E+00 -0.00000000000E+00 -0.23397719396E+03  0.23397719402E+03  0.50400000000E-02 0.  1.
    8880022    1    1    2    0    0 -0.10267475500E+03 -0.23685021230E+03 -0.12737461399E+03  0.32596943673E+03  0.15294330000E+03 0.  1.
    8880022    1    1    2    0    0  0.10267475500E+03  0.23685021230E+03  0.30737935011E+04  0.30884038384E+04  0.15294330000E+03 0.  0.
<mgrwt>
<rscale>  0 0.30005296E+03</rscale>
<asrwt>0</asrwt>
<pdfrwt beam="1">  1        1 0.48929170E+00 0.30005296E+03</pdfrwt>
<pdfrwt beam="2">  1       -1 0.35996492E-01 0.30005296E+03</pdfrwt>
<totfact> 0.40018334E+00</totfact>
</mgrwt>
</event>
<event>
 4    1  0.1852677E-008  0.4732354E+03  0.7818608E-02  0.1021011E+00
          1   -1    0    0  501    0  0.00000000000E+00  0.00000000000E+00  0.81040105495E+03  0.81040105497E+03  0.50400000000E-02 0. -1.
         -1   -1    0    0    0  501 -0.00000000000E+00 -0.00000000000E+00 -0.42033138504E+03  0.42033138507E+03  0.50400000000E-02 0.  1.
    8880022    1    1    2    0    0  0.17430441062E+03 -0.41252645576E+03  0.55519502525E+03  0.72951578005E+03  0.15294330000E+03 0.  0.
    8880022    1    1    2    0    0 -0.17430441062E+03  0.41252645576E+03 -0.16512535534E+03  0.50121665999E+03  0.15294330000E+03 0.  0.
<mgrwt>
<rscale>  0 0.47323541E+03</rscale>
<asrwt>0</asrwt>
<pdfrwt beam="1">  1        1 0.12467709E+00 0.47323541E+03</pdfrwt>
<pdfrwt beam="2">  1       -1 0.64666367E-01 0.47323541E+03</pdfrwt>
<totfact> 0.55408104E+01</totfact>
</mgrwt>
</event>
<event>
 4    1  0.1852677E-008  0.6827729E+03  0.7818608E-02  0.9747155E-01
         -1   -1    0    0    0  501 -0.00000000000E+00  0.00000000000E+00  0.52729163227E+03  0.52729163230E+03  0.50400000000E-02 0.  1.
          1   -1    0    0  501    0  0.00000000000E+00 -0.00000000000E+00 -0.92428146068E+03  0.92428146069E+03  0.50400000000E-02 0. -1.
    8880022    1    1    2    0    0  0.38830707440E+03  0.54037466228E+03 -0.47167790543E+02  0.68440018494E+03  0.15294330000E+03 0.  0.
    8880022    1    1    2    0    0 -0.38830707440E+03 -0.54037466228E+03 -0.34982203786E+03  0.76717290805E+03  0.15294330000E+03 0.  0.
<mgrwt>
<rscale>  0 0.68277289E+03</rscale>
<asrwt>0</asrwt>
<pdfrwt beam="1">  1        1 0.14219715E+00 0.68277289E+03</pdfrwt>
<pdfrwt beam="2">  1       -1 0.81121790E-01 0.68277289E+03</pdfrwt>
<totfact> 0.27246651E+01</totfact>
</mgrwt>
</event>
<event>
 4    1  0.1852677E-008  0.6268387E+03  0.7818608E-02  0.9851237E-01
         -1   -1    0    0    0  501 -0.00000000000E+00  0.00000000000E+00  0.11760494540E+04  0.11760494540E+04  0.50400000000E-02 0.  1.
          1   -1    0    0  501    0  0.00000000000E+00 -0.00000000000E+00 -0.77734193265E+03  0.77734193266E+03  0.50400000000E-02 0. -1.
    8880022    1    1    2    0    0  0.55614962844E+03  0.24542360931E+03 -0.53815982655E+03  0.82616149096E+03  0.15294330000E+03 0. -1.
    8880022    1    1    2    0    0 -0.55614962844E+03 -0.24542360931E+03  0.93686734785E+03  0.11272298957E+04  0.15294330000E+03 0.  0.
<mgrwt>
<rscale>  0 0.62683874E+03</rscale>
<asrwt>0</asrwt>
<pdfrwt beam="1">  1        1 0.11959107E+00 0.62683874E+03</pdfrwt>
<pdfrwt beam="2">  1       -1 0.18093069E+00 0.62683874E+03</pdfrwt>
<totfact> 0.50156691E+00</totfact>
</mgrwt>
</event>
<event>
 4    1  0.1852677E-008  0.2979785E+03  0.7818608E-02  0.1086256E+00
         -1   -1    0    0    0  501 -0.00000000000E+00  0.00000000000E+00  0.63894936795E+03  0.63894936797E+03  0.50400000000E-02 0.  1.
          1   -1    0    0  501    0  0.00000000000E+00 -0.00000000000E+00 -0.52927301277E+03  0.52927301279E+03  0.50400000000E-02 0. -1.
    8880022    1    1    2    0    0 -0.25418961080E+03  0.28056191618E+02 -0.44676440766E+03  0.53701917759E+03  0.15294330000E+03 0.  0.
    8880022    1    1    2    0    0  0.25418961080E+03 -0.28056191618E+02  0.55644076284E+03  0.63120320317E+03  0.15294330000E+03 0.  0.
<mgrwt>
<rscale>  0 0.29797846E+03</rscale>
<asrwt>0</asrwt>
<pdfrwt beam="1">  1        1 0.81426618E-01 0.29797846E+03</pdfrwt>
<pdfrwt beam="2">  1       -1 0.98299902E-01 0.29797846E+03</pdfrwt>
<totfact> 0.44154414E+01</totfact>
</mgrwt>
</event>
<event>
 4    1  0.1852677E-008  0.2967542E+03  0.7818608E-02  0.1086875E+00
         -1   -1    0    0    0  501 -0.00000000000E+00  0.00000000000E+00  0.20070793863E+03  0.20070793869E+03  0.50400000000E-02 0.  1.
          1   -1    0    0  501    0  0.00000000000E+00 -0.00000000000E+00 -0.17101092233E+04  0.17101092233E+04  0.50400000000E-02 0. -1.
    8880022    1    1    2    0    0  0.24236891282E+03  0.76997959736E+02 -0.15784769402E+04  0.16061296583E+04  0.15294330000E+03 0.  0.
    8880022    1    1    2    0    0 -0.24236891282E+03 -0.76997959736E+02  0.69075655480E+02  0.30468750368E+03  0.15294330000E+03 0.  0.
<mgrwt>
<rscale>  0 0.29675416E+03</rscale>
<asrwt>0</asrwt>
<pdfrwt beam="1">  1        1 0.26309372E+00 0.29675416E+03</pdfrwt>
<pdfrwt beam="2">  1       -1 0.30878145E-01 0.29675416E+03</pdfrwt>
<totfact> 0.50816740E+01</totfact>
</mgrwt>
</event>
<event>
 4    1  0.1852677E-008  0.2922036E+03  0.7818608E-02  0.1089204E+00
         -1   -1    0    0    0  501 -0.00000000000E+00  0.00000000000E+00  0.11715787000E+04  0.11715787000E+04  0.50400000000E-02 0.  1.
          1   -1    0    0  501    0  0.00000000000E+00 -0.00000000000E+00 -0.28746599546E+03  0.28746599550E+03  0.50400000000E-02 0. -1.
    8880022    1    1    2    0    0  0.21616399978E+03  0.12354912840E+03  0.10723567075E+04  0.11114548228E+04  0.15294330000E+03 0.  1.
    8880022    1    1    2    0    0 -0.21616399978E+03 -0.12354912840E+03 -0.18824400300E+03  0.34758987271E+03  0.15294330000E+03 0.  0.
<mgrwt>
<rscale>  0 0.29220355E+03</rscale>
<asrwt>0</asrwt>
<pdfrwt beam="1">  1        1 0.44225538E-01 0.29220355E+03</pdfrwt>
<pdfrwt beam="2">  1       -1 0.18024288E+00 0.29220355E+03</pdfrwt>
<totfact> 0.21191471E+01</totfact>
</mgrwt>
</event>
<event>
 4    1  0.1852677E-008  0.3776357E+03  0.7818608E-02  0.1051811E+00
          1   -1    0    0  501    0  0.00000000000E+00  0.00000000000E+00  0.13911885481E+04  0.13911885481E+04  0.50400000000E-02 0. -1.
         -1   -1    0    0    0  501 -0.00000000000E+00 -0.00000000000E+00 -0.42097333095E+03  0.42097333098E+03  0.50400000000E-02 0.  1.
    8880022    1    1    2    0    0  0.20070732836E+03  0.28095134632E+03  0.12731877734E+04  0.13280119917E+04  0.15294330000E+03 0.  0.
    8880022    1    1    2    0    0 -0.20070732836E+03 -0.28095134632E+03 -0.30297255624E+03  0.48414988744E+03  0.15294330000E+03 0.  0.
<mgrwt>
<rscale>  0 0.37763573E+03</rscale>
<asrwt>0</asrwt>
<pdfrwt beam="1">  1        1 0.21402901E+00 0.37763573E+03</pdfrwt>
<pdfrwt beam="2">  1       -1 0.64765126E-01 0.37763573E+03</pdfrwt>
<totfact> 0.20842697E+01</totfact>
</mgrwt>
</event>
<event>
 4    1  0.1852677E-008  0.1537758E+04  0.7818608E-02  0.8859725E-01
         -1   -1    0    0    0  501 -0.00000000000E+00  0.00000000000E+00  0.10252884422E+04  0.10252884422E+04  0.50400000000E-02 0.  1.
          1   -1    0    0  501    0  0.00000000000E+00 -0.00000000000E+00 -0.30550793794E+04  0.30550793794E+04  0.50400000000E-02 0. -1.
    8880022    1    1    2    0    0 -0.97770747645E+03  0.11770288608E+04 -0.20248760162E+04  0.25426016956E+04  0.15294330000E+03 0.  0.
    8880022    1    1    2    0    0  0.97770747645E+03 -0.11770288608E+04 -0.49149210837E+01  0.15377661260E+04  0.15294330000E+03 0.  0.
<mgrwt>
<rscale>  0 0.15377583E+04</rscale>
<asrwt>0</asrwt>
<pdfrwt beam="1">  1        1 0.47001221E+00 0.15377583E+04</pdfrwt>
<pdfrwt beam="2">  1       -1 0.15773668E+00 0.15377583E+04</pdfrwt>
<totfact> 0.15684150E-01</totfact>
</mgrwt>
</event>
<event>
 4    1  0.1852677E-008  0.7421563E+03  0.7818608E-02  0.9647737E-01
          1   -1    0    0  501    0  0.00000000000E+00  0.00000000000E+00  0.73835427668E+03  0.73835427669E+03  0.50400000000E-02 0. -1.
         -1   -1    0    0    0  501 -0.00000000000E+00 -0.00000000000E+00 -0.84712066195E+03  0.84712066197E+03  0.50400000000E-02 0.  1.
    8880022    1    1    2    0    0 -0.17556807407E+03  0.70468444069E+03  0.21953708470E+03  0.77394605378E+03  0.15294330000E+03 0.  0.
    8880022    1    1    2    0    0  0.17556807407E+03 -0.70468444069E+03 -0.32830346998E+03  0.81152888488E+03  0.15294330000E+03 0.  0.
<mgrwt>
<rscale>  0 0.74215629E+03</rscale>
<asrwt>0</asrwt>
<pdfrwt beam="1">  1        1 0.11359297E+00 0.74215629E+03</pdfrwt>
<pdfrwt beam="2">  1       -1 0.13032626E+00 0.74215629E+03</pdfrwt>
<totfact> 0.13031637E+01</totfact>
</mgrwt>
</event>
<event>
 4    1  0.1852677E-008  0.4134547E+03  0.7818608E-02  0.1039218E+00
          1   -1    0    0  501    0  0.00000000000E+00  0.00000000000E+00  0.19568826063E+04  0.19568826063E+04  0.50400000000E-02 0. -1.
         -1   -1    0    0    0  501 -0.00000000000E+00 -0.00000000000E+00 -0.81468239577E+03  0.81468239579E+03  0.50400000000E-02 0.  1.
    8880022    1    1    2    0    0 -0.17219230061E+03  0.34337002378E+03  0.18804800253E+04  0.19253960476E+04  0.15294330000E+03 0.  0.
    8880022    1    1    2    0    0  0.17219230061E+03 -0.34337002378E+03 -0.73827981477E+03  0.84616895448E+03  0.15294330000E+03 0.  0.
<mgrwt>
<rscale>  0 0.41345473E+03</rscale>
<asrwt>0</asrwt>
<pdfrwt beam="1">  1        1 0.30105886E+00 0.41345473E+03</pdfrwt>
<pdfrwt beam="2">  1       -1 0.12533575E+00 0.41345473E+03</pdfrwt>
<totfact> 0.20453609E+00</totfact>
</mgrwt>
</event>
<event>
 4    1  0.1852677E-008  0.3160382E+03  0.7818608E-02  0.1077487E+00
         -1   -1    0    0    0  501 -0.00000000000E+00  0.00000000000E+00  0.33115973761E+03  0.33115973765E+03  0.50400000000E-02 0.  1.
          1   -1    0    0  501    0  0.00000000000E+00 -0.00000000000E+00 -0.24812584557E+04  0.24812584557E+04  0.50400000000E-02 0. -1.
    8880022    1    1    2    0    0  0.16306223817E+03 -0.22338123564E+03 -0.23930251058E+04  0.24138039025E+04  0.15294330000E+03 0.  0.
    8880022    1    1    2    0    0 -0.16306223817E+03  0.22338123564E+03  0.24292638773E+03  0.39861429079E+03  0.15294330000E+03 0.  0.
<mgrwt>
<rscale>  0 0.31603817E+03</rscale>
<asrwt>0</asrwt>
<pdfrwt beam="1">  1        1 0.38173206E+00 0.31603817E+03</pdfrwt>
<pdfrwt beam="2">  1       -1 0.50947653E-01 0.31603817E+03</pdfrwt>
<totfact> 0.64338550E+00</totfact>
</mgrwt>
</event>
<event>
 4    1  0.1852677E-008  0.5500430E+03  0.7818608E-02  0.1001484E+00
         -1   -1    0    0    0  501 -0.00000000000E+00  0.00000000000E+00  0.49708491227E+03  0.49708491230E+03  0.50400000000E-02 0.  1.
          1   -1    0    0  501    0  0.00000000000E+00 -0.00000000000E+00 -0.12720339914E+04  0.12720339914E+04  0.50400000000E-02 0. -1.
    8880022    1    1    2    0    0 -0.23058011041E+03 -0.47538238193E+03  0.25132185437E+03  0.60473955043E+03  0.15294330000E+03 0.  0.
    8880022    1    1    2    0    0  0.23058011041E+03  0.47538238193E+03 -0.10262709335E+04  0.11643793533E+04  0.15294330000E+03 0.  0.
<mgrwt>
<rscale>  0 0.55004295E+03</rscale>
<asrwt>0</asrwt>
<pdfrwt beam="1">  1        1 0.19569754E+00 0.55004295E+03</pdfrwt>
<pdfrwt beam="2">  1       -1 0.76474602E-01 0.55004295E+03</pdfrwt>
<totfact> 0.17319045E+01</totfact>
</mgrwt>
</event>
<event>
 4    1  0.1852677E-008  0.4318778E+03  0.7818608E-02  0.1033268E+00
          1   -1    0    0  501    0  0.00000000000E+00  0.00000000000E+00  0.80998657254E+03  0.80998657255E+03  0.50400000000E-02 0. -1.
         -1   -1    0    0    0  501 -0.00000000000E+00 -0.00000000000E+00 -0.47248349827E+03  0.47248349829E+03  0.50400000000E-02 0.  1.
    8880022    1    1    2    0    0 -0.36768661593E+03 -0.16713274332E+03  0.62786490813E+03  0.76205826372E+03  0.15294330000E+03 0.  0.
    8880022    1    1    2    0    0  0.36768661593E+03  0.16713274332E+03 -0.29036183386E+03  0.52041180713E+03  0.15294330000E+03 0.  1.
<mgrwt>
<rscale>  0 0.43187782E+03</rscale>
<asrwt>0</asrwt>
<pdfrwt beam="1">  1        1 0.12461332E+00 0.43187782E+03</pdfrwt>
<pdfrwt beam="2">  1       -1 0.72689770E-01 0.43187782E+03</pdfrwt>
<totfact> 0.44090857E+01</totfact>
</mgrwt>
</event>
<event>
 4    1  0.1852677E-008  0.6819298E+03  0.7818608E-02  0.9748644E-01
          1   -1    0    0  501    0  0.00000000000E+00  0.00000000000E+00  0.31158996162E+04  0.31158996162E+04  0.50400000000E-02 0. -1.
         -1   -1    0    0    0  501 -0.00000000000E+00 -0.00000000000E+00 -0.16647453135E+03  0.16647453143E+03  0.50400000000E-02 0.  1.
    8880022    1    1    2    0    0  0.59458939916E+03 -0.29681645405E+03  0.20027175064E+04  0.21156336225E+04  0.15294330000E+03 0. -1.
    8880022    1    1    2    0    0 -0.59458939916E+03  0.29681645405E+03  0.94670757847E+03  0.11667405252E+04  0.15294330000E+03 0.  1.
<mgrwt>
<rscale>  0 0.68192977E+03</rscale>
<asrwt>0</asrwt>
<pdfrwt beam="1">  1        1 0.47936917E+00 0.68192977E+03</pdfrwt>
<pdfrwt beam="2">  1       -1 0.25611467E-01 0.68192977E+03</pdfrwt>
<totfact> 0.71312215E+00</totfact>
</mgrwt>
</event>
<event>
 4    1  0.1852677E-008  0.6951195E+03  0.7818608E-02  0.9725615E-01
         -1   -1    0    0    0  501 -0.00000000000E+00  0.00000000000E+00  0.16050143077E+04  0.16050143077E+04  0.50400000000E-02 0.  1.
          1   -1    0    0  501    0  0.00000000000E+00 -0.00000000000E+00 -0.90796213524E+03  0.90796213525E+03  0.50400000000E-02 0. -1.
    8880022    1    1    2    0    0  0.67640617320E+03  0.47688810282E+02  0.13758019882E+04  0.15414351422E+04  0.15294330000E+03 0.  0.
    8880022    1    1    2    0    0 -0.67640617320E+03 -0.47688810282E+02 -0.67874981573E+03  0.97154130079E+03  0.15294330000E+03 0.  0.
<mgrwt>
<rscale>  0 0.69511955E+03</rscale>
<asrwt>0</asrwt>
<pdfrwt beam="1">  1        1 0.13968648E+00 0.69511955E+03</pdfrwt>
<pdfrwt beam="2">  1       -1 0.24692527E+00 0.69511955E+03</pdfrwt>
<totfact> 0.13881255E+00</totfact>
</mgrwt>
</event>
<event>
 4    1  0.1852677E-008  0.5010154E+03  0.7818608E-02  0.1013514E+00
          1   -1    0    0  501    0  0.00000000000E+00  0.00000000000E+00  0.89977798574E+03  0.89977798575E+03  0.50400000000E-02 0. -1.
         -1   -1    0    0    0  501 -0.00000000000E+00 -0.00000000000E+00 -0.44390405201E+03  0.44390405204E+03  0.50400000000E-02 0.  1.
    8880022    1    1    2    0    0 -0.47430138841E+03  0.51604199722E+02  0.63745142603E+03  0.81077788206E+03  0.15294330000E+03 0.  0.
    8880022    1    1    2    0    0  0.47430138841E+03 -0.51604199722E+02 -0.18157749230E+03  0.53290415573E+03  0.15294330000E+03 0.  0.
<mgrwt>
<rscale>  0 0.50101542E+03</rscale>
<asrwt>0</asrwt>
<pdfrwt beam="1">  1        1 0.13842738E+00 0.50101542E+03</pdfrwt>
<pdfrwt beam="2">  1       -1 0.68292933E-01 0.50101542E+03</pdfrwt>
<totfact> 0.41741173E+01</totfact>
</mgrwt>
</event>
<event>
 4    1  0.1852677E-008  0.1615083E+03  0.7818608E-02  0.1187004E+00
          1   -1    0    0  501    0  0.00000000000E+00  0.00000000000E+00  0.42391135684E+04  0.42391135684E+04  0.50400000000E-02 0. -1.
         -1   -1    0    0    0  501 -0.00000000000E+00 -0.00000000000E+00 -0.19136373975E+02  0.19136374639E+02  0.50400000000E-02 0.  1.
    8880022    1    1    2    0    0 -0.36541317210E+02  0.36851011781E+02  0.38637018964E+04  0.38670760611E+04  0.15294330000E+03 0. -1.
    8880022    1    1    2    0    0  0.36541317210E+02 -0.36851011781E+02  0.35627529806E+03  0.39117388199E+03  0.15294330000E+03 0.  0.
<mgrwt>
<rscale>  0 0.16150826E+03</rscale>
<asrwt>0</asrwt>
<pdfrwt beam="1">  1        1 0.65217015E+00 0.16150826E+03</pdfrwt>
<pdfrwt beam="2">  1       -1 0.29440629E-02 0.16150826E+03</pdfrwt>
<totfact> 0.31968484E+01</totfact>
</mgrwt>
</event>
<event>
 4    1  0.1852677E-008  0.4632876E+03  0.7818608E-02  0.1023832E+00
         -1   -1    0    0    0  501 -0.00000000000E+00  0.00000000000E+00  0.26766031332E+04  0.26766031332E+04  0.50400000000E-02 0.  1.
          1   -1    0    0  501    0  0.00000000000E+00 -0.00000000000E+00 -0.26317951264E+03  0.26317951269E+03  0.50400000000E-02 0. -1.
    8880022    1    1    2    0    0 -0.39115166376E+03  0.19556115487E+03 -0.18956313590E+02  0.46367530039E+03  0.15294330000E+03 0.  0.
    8880022    1    1    2    0    0  0.39115166376E+03 -0.19556115487E+03  0.24323799342E+04  0.24761073455E+04  0.15294330000E+03 0.  0.
<mgrwt>
<rscale>  0 0.46328765E+03</rscale>
<asrwt>0</asrwt>
<pdfrwt beam="1">  1        1 0.40489159E-01 0.46328765E+03</pdfrwt>
<pdfrwt beam="2">  1       -1 0.41178507E+00 0.46328765E+03</pdfrwt>
<totfact> 0.70714979E-01</totfact>
</mgrwt>
</event>
<event>
 4    1  0.1852677E-008  0.5470325E+03  0.7818608E-02  0.1002183E+00
          1   -1    0    0  501    0  0.00000000000E+00  0.00000000000E+00  0.21941660613E+04  0.21941660613E+04  0.50400000000E-02 0. -1.
         -1   -1    0    0    0  501 -0.00000000000E+00 -0.00000000000E+00 -0.21508884091E+03  0.21508884097E+03  0.50400000000E-02 0.  1.
    8880022    1    1    2    0    0 -0.68753035022E+02 -0.52069750959E+03  0.17182412479E+04  0.18032186543E+04  0.15294330000E+03 0.  0.
    8880022    1    1    2    0    0  0.68753035022E+02  0.52069750959E+03  0.26083597255E+03  0.60603624801E+03  0.15294330000E+03 0.  0.
<mgrwt>
<rscale>  0 0.54703248E+03</rscale>
<asrwt>0</asrwt>
<pdfrwt beam="1">  1        1 0.33756402E+00 0.54703248E+03</pdfrwt>
<pdfrwt beam="2">  1       -1 0.33090590E-01 0.54703248E+03</pdfrwt>
<totfact> 0.20364922E+01</totfact>
</mgrwt>
</event>
<event>
 4    1  0.1852677E-008  0.4297718E+03  0.7818608E-02  0.1033932E+00
          1   -1    0    0  501    0  0.00000000000E+00  0.00000000000E+00  0.30215337152E+04  0.30215337152E+04  0.50400000000E-02 0. -1.
         -1   -1    0    0    0  501 -0.00000000000E+00 -0.00000000000E+00 -0.30516932733E+03  0.30516932737E+03  0.50400000000E-02 0.  1.
    8880022    1    1    2    0    0  0.39686760962E+03  0.61711300262E+02 -0.12927422758E+03  0.44879356399E+03  0.15294330000E+03 0.  1.
    8880022    1    1    2    0    0 -0.39686760962E+03 -0.61711300262E+02  0.28456386155E+04  0.28779094786E+04  0.15294330000E+03 0.  0.
<mgrwt>
<rscale>  0 0.42977184E+03</rscale>
<asrwt>0</asrwt>
<pdfrwt beam="1">  1        1 0.46485133E+00 0.42977184E+03</pdfrwt>
<pdfrwt beam="2">  1       -1 0.46949129E-01 0.42977184E+03</pdfrwt>
<totfact> 0.30450143E+00</totfact>
</mgrwt>
</event>
<event>
 4    1  0.1852677E-008  0.1835894E+03  0.7818608E-02  0.1164374E+00
          1   -1    0    0  501    0  0.00000000000E+00  0.00000000000E+00  0.74705825992E+03  0.74705825994E+03  0.50400000000E-02 0. -1.
         -1   -1    0    0    0  501 -0.00000000000E+00 -0.00000000000E+00 -0.51893132117E+03  0.51893132120E+03  0.50400000000E-02 0.  1.
    8880022    1    1    2    0    0  0.11130294673E+02  0.10094320623E+03  0.71891566424E+03  0.74198706165E+03  0.15294330000E+03 0. -1.
    8880022    1    1    2    0    0 -0.11130294673E+02 -0.10094320623E+03 -0.49078872549E+03  0.52400251949E+03  0.15294330000E+03 0.  0.
<mgrwt>
<rscale>  0 0.18358940E+03</rscale>
<asrwt>0</asrwt>
<pdfrwt beam="1">  1        1 0.11493204E+00 0.18358940E+03</pdfrwt>
<pdfrwt beam="2">  1       -1 0.79835588E-01 0.18358940E+03</pdfrwt>
<totfact> 0.43843685E+01</totfact>
</mgrwt>
</event>
<event>
 4    1  0.1852677E-008  0.2248783E+03  0.7818608E-02  0.1130297E+00
         -1   -1    0    0    0  501 -0.00000000000E+00  0.00000000000E+00  0.91789393795E+02  0.91789393934E+02  0.50400000000E-02 0.  1.
          1   -1    0    0  501    0  0.00000000000E+00 -0.00000000000E+00 -0.24622794275E+04  0.24622794275E+04  0.50400000000E-02 0. -1.
    8880022    1    1    2    0    0 -0.63483484493E+01  0.16473704403E+03 -0.60114021330E+02  0.23277444830E+03  0.15294330000E+03 0.  0.
    8880022    1    1    2    0    0  0.63483484493E+01 -0.16473704403E+03 -0.23103760124E+04  0.23212943732E+04  0.15294330000E+03 0.  0.
<mgrwt>
<rscale>  0 0.22487830E+03</rscale>
<asrwt>0</asrwt>
<pdfrwt beam="1">  1        1 0.37881217E+00 0.22487830E+03</pdfrwt>
<pdfrwt beam="2">  1       -1 0.14121447E-01 0.22487830E+03</pdfrwt>
<totfact> 0.60779471E+01</totfact>
</mgrwt>
</event>
<event>
 4    1  0.1852677E-008  0.6368467E+03  0.7818608E-02  0.9831778E-01
         -1   -1    0    0    0  501 -0.00000000000E+00  0.00000000000E+00  0.21811703669E+03  0.21811703675E+03  0.50400000000E-02 0.  1.
          1   -1    0    0  501    0  0.00000000000E+00 -0.00000000000E+00 -0.35827528168E+04  0.35827528168E+04  0.50400000000E-02 0. -1.
    8880022    1    1    2    0    0  0.48033379756E+03 -0.38918061052E+03 -0.36428068179E+03  0.73367170643E+03  0.15294330000E+03 0.  0.
    8880022    1    1    2    0    0 -0.48033379756E+03  0.38918061052E+03 -0.30003550984E+04  0.30671981472E+04  0.15294330000E+03 0.  0.
<mgrwt>
<rscale>  0 0.63684673E+03</rscale>
<asrwt>0</asrwt>
<pdfrwt beam="1">  1        1 0.55119270E+00 0.63684673E+03</pdfrwt>
<pdfrwt beam="2">  1       -1 0.33556470E-01 0.63684673E+03</pdfrwt>
<totfact> 0.20070920E+00</totfact>
</mgrwt>
</event>
<event>
 4    1  0.1852677E-008  0.5983673E+03  0.7818608E-02  0.9908799E-01
         -1   -1    0    0    0  501 -0.00000000000E+00  0.00000000000E+00  0.29394770566E+03  0.29394770571E+03  0.50400000000E-02 0.  1.
          1   -1    0    0  501    0  0.00000000000E+00 -0.00000000000E+00 -0.30988590220E+04  0.30988590220E+04  0.50400000000E-02 0. -1.
    8880022    1    1    2    0    0 -0.53882946069E+03  0.21051028044E+03 -0.27240567894E+04  0.27890014003E+04  0.15294330000E+03 0. -1.
    8880022    1    1    2    0    0  0.53882946069E+03 -0.21051028044E+03 -0.80854526924E+02  0.60380532742E+03  0.15294330000E+03 0.  0.
<mgrwt>
<rscale>  0 0.59836729E+03</rscale>
<asrwt>0</asrwt>
<pdfrwt beam="1">  1        1 0.47674752E+00 0.59836729E+03</pdfrwt>
<pdfrwt beam="2">  1       -1 0.45222726E-01 0.59836729E+03</pdfrwt>
<totfact> 0.27292705E+00</totfact>
</mgrwt>
</event>
<event>
 4    1  0.1852677E-008  0.1119536E+04  0.7818608E-02  0.9186357E-01
          1   -1    0    0  501    0  0.00000000000E+00  0.00000000000E+00  0.26092288079E+04  0.26092288079E+04  0.50400000000E-02 0. -1.
         -1   -1    0    0    0  501 -0.00000000000E+00 -0.00000000000E+00 -0.62555209191E+03  0.62555209193E+03  0.50400000000E-02 0.  1.
    8880022    1    1    2    0    0  0.10131868456E+04  0.45102373940E+03  0.21262046958E+03  0.11395477676E+04  0.15294330000E+03 0.  0.
    8880022    1    1    2    0    0 -0.10131868456E+04 -0.45102373940E+03  0.17710562464E+04  0.20952331322E+04  0.15294330000E+03 0.  0.
<mgrwt>
<rscale>  0 0.11195364E+04</rscale>
<asrwt>0</asrwt>
<pdfrwt beam="1">  1        1 0.40141981E+00 0.11195364E+04</pdfrwt>
<pdfrwt beam="2">  1       -1 0.96238784E-01 0.11195364E+04</pdfrwt>
<totfact> 0.11851887E+00</totfact>
</mgrwt>
</event>
<event>
 4    1  0.1852677E-008  0.4768330E+03  0.7818608E-02  0.1020009E+00
          1   -1    0    0  501    0  0.00000000000E+00  0.00000000000E+00  0.14549174448E+04  0.14549174448E+04  0.50400000000E-02 0. -1.
         -1   -1    0    0    0  501 -0.00000000000E+00 -0.00000000000E+00 -0.19156710897E+03  0.19156710904E+03  0.50400000000E-02 0.  1.
    8880022    1    1    2    0    0  0.43084703218E+03  0.13545805463E+03  0.98501737251E+03  0.10943623380E+04  0.15294330000E+03 0.  0.
    8880022    1    1    2    0    0 -0.43084703218E+03 -0.13545805463E+03  0.27833296327E+03  0.55212221578E+03  0.15294330000E+03 0.  0.
<mgrwt>
<rscale>  0 0.47683299E+03</rscale>
<asrwt>0</asrwt>
<pdfrwt beam="1">  1        1 0.22383346E+00 0.47683299E+03</pdfrwt>
<pdfrwt beam="2">  1       -1 0.29471863E-01 0.47683299E+03</pdfrwt>
<totfact> 0.78373369E+01</totfact>
</mgrwt>
</event>
<event>
 4    1  0.1852677E-008  0.6996994E+03  0.7818608E-02  0.9717746E-01
          1   -1    0    0  501    0  0.00000000000E+00  0.00000000000E+00  0.14201432989E+04  0.14201432989E+04  0.50400000000E-02 0. -1.
         -1   -1    0    0    0  501 -0.00000000000E+00 -0.00000000000E+00 -0.14627533240E+04  0.14627533240E+04  0.50400000000E-02 0.  1.
    8880022    1    1    2    0    0  0.62697303756E+03  0.27035604261E+03 -0.12814982623E+04  0.14600743231E+04  0.15294330000E+03 0.  1.
    8880022    1    1    2    0    0 -0.62697303756E+03 -0.27035604261E+03  0.12388882372E+04  0.14228222998E+04  0.15294330000E+03 0.  0.
<mgrwt>
<rscale>  0 0.69969939E+03</rscale>
<asrwt>0</asrwt>
<pdfrwt beam="1">  1        1 0.21848358E+00 0.69969939E+03</pdfrwt>
<pdfrwt beam="2">  1       -1 0.22503897E+00 0.69969939E+03</pdfrwt>
<totfact> 0.80799704E-01</totfact>
</mgrwt>
</event>
<event>
 4    1  0.1852677E-008  0.7585300E+03  0.7818608E-02  0.9622062E-01
          1   -1    0    0  501    0  0.00000000000E+00  0.00000000000E+00  0.12142803956E+04  0.12142803956E+04  0.50400000000E-02 0. -1.
         -1   -1    0    0    0  501 -0.00000000000E+00 -0.00000000000E+00 -0.58735727133E+03  0.58735727135E+03  0.50400000000E-02 0.  1.
    8880022    1    1    2    0    0  0.85293437730E+02  0.73803867878E+03  0.70949160801E+03  0.10386270056E+04  0.15294330000E+03 0.  0.
    8880022    1    1    2    0    0 -0.85293437730E+02 -0.73803867878E+03 -0.82568483702E+02  0.76301066140E+03  0.15294330000E+03 0.  1.
<mgrwt>
<rscale>  0 0.75852997E+03</rscale>
<asrwt>0</asrwt>
<pdfrwt beam="1">  1        1 0.18681237E+00 0.75852997E+03</pdfrwt>
<pdfrwt beam="2">  1       -1 0.90362658E-01 0.75852997E+03</pdfrwt>
<totfact> 0.12893430E+01</totfact>
</mgrwt>
</event>
<event>
 4    1  0.1852677E-008  0.4377913E+03  0.7818608E-02  0.1031427E+00
          1   -1    0    0  501    0  0.00000000000E+00  0.00000000000E+00  0.25917947887E+04  0.25917947887E+04  0.50400000000E-02 0. -1.
         -1   -1    0    0    0  501 -0.00000000000E+00 -0.00000000000E+00 -0.97593466042E+02  0.97593466172E+02  0.50400000000E-02 0.  1.
    8880022    1    1    2    0    0 -0.22058023641E+03 -0.34585247318E+03  0.19089753724E+04  0.19585321543E+04  0.15294330000E+03 0.  0.
    8880022    1    1    2    0    0  0.22058023641E+03  0.34585247318E+03  0.58522595022E+03  0.73085610056E+03  0.15294330000E+03 0.  0.
<mgrwt>
<rscale>  0 0.43779131E+03</rscale>
<asrwt>0</asrwt>
<pdfrwt beam="1">  1        1 0.39873765E+00 0.43779131E+03</pdfrwt>
<pdfrwt beam="2">  1       -1 0.15014380E-01 0.43779131E+03</pdfrwt>
<totfact> 0.42341636E+01</totfact>
</mgrwt>
</event>
<event>
 4    1  0.1852677E-008  0.4422928E+03  0.7818608E-02  0.1030046E+00
         -1   -1    0    0    0  501 -0.00000000000E+00  0.00000000000E+00  0.89245851064E+02  0.89245851206E+02  0.50400000000E-02 0.  1.
          1   -1    0    0  501    0  0.00000000000E+00 -0.00000000000E+00 -0.28202936902E+04  0.28202936902E+04  0.50400000000E-02 0. -1.
    8880022    1    1    2    0    0  0.10237734214E+03 -0.40218177917E+03 -0.67886076918E+03  0.81023138709E+03  0.15294330000E+03 0.  1.
    8880022    1    1    2    0    0 -0.10237734214E+03  0.40218177917E+03 -0.20521870700E+04  0.20993081544E+04  0.15294330000E+03 0.  0.
<mgrwt>
<rscale>  0 0.44229284E+03</rscale>
<asrwt>0</asrwt>
<pdfrwt beam="1">  1        1 0.43389127E+00 0.44229284E+03</pdfrwt>
<pdfrwt beam="2">  1       -1 0.13730133E-01 0.44229284E+03</pdfrwt>
<totfact> 0.34031366E+01</totfact>
</mgrwt>
</event>
<event>
 4    1  0.2161134E-008  0.7559484E+03  0.7818608E-02  0.9626064E-01
          1   -1    0    0  501    0  0.00000000000E+00  0.00000000000E+00  0.14809149488E+04  0.14809149488E+04  0.50400000000E-02 0. -1.
         -1   -1    0    0    0  501 -0.00000000000E+00 -0.00000000000E+00 -0.14119742862E+04  0.14119742862E+04  0.50400000000E-02 0.  1.
    8880022    1    1    2    0    0 -0.58610327279E+03  0.45227123841E+03 -0.11985825192E+04  0.14170596415E+04  0.15294330000E+03 0.  0.
    8880022    1    1    2    0    0  0.58610327279E+03 -0.45227123841E+03  0.12675231817E+04  0.14758295934E+04  0.15294330000E+03 0.  0.
<mgrwt>
<rscale>  0 0.75594839E+03</rscale>
<asrwt>0</asrwt>
<pdfrwt beam="1">  1        1 0.22783307E+00 0.75594839E+03</pdfrwt>
<pdfrwt beam="2">  1       -1 0.21722681E+00 0.75594839E+03</pdfrwt>
<totfact> 0.81642270E-01</totfact>
</mgrwt>
</event>
<event>
 4    1  0.2076705E-008  0.4762327E+03  0.7818608E-02  0.1020176E+00
          1   -1    0    0  501    0  0.00000000000E+00  0.00000000000E+00  0.12071953578E+04  0.12071953578E+04  0.50400000000E-02 0. -1.
         -1   -1    0    0    0  501 -0.00000000000E+00 -0.00000000000E+00 -0.16305372669E+04  0.16305372669E+04  0.50400000000E-02 0.  1.
    8880022    1    1    2    0    0 -0.44763838549E+03 -0.55007240388E+02 -0.15462951064E+04  0.16179697555E+04  0.15294330000E+03 0.  0.
    8880022    1    1    2    0    0  0.44763838549E+03  0.55007240388E+02  0.11229531973E+04  0.12197628692E+04  0.15294330000E+03 0.  0.
<mgrwt>
<rscale>  0 0.47623269E+03</rscale>
<asrwt>0</asrwt>
<pdfrwt beam="1">  1        1 0.18572236E+00 0.47623269E+03</pdfrwt>
<pdfrwt beam="2">  1       -1 0.25085189E+00 0.47623269E+03</pdfrwt>
<totfact> 0.82493410E-01</totfact>
</mgrwt>
</event>
<event>
 4    1  0.1852677E-008  0.3874984E+03  0.7818608E-02  0.1048197E+00
          1   -1    0    0  501    0  0.00000000000E+00  0.00000000000E+00  0.78434505914E+03  0.78434505916E+03  0.50400000000E-02 0. -1.
         -1   -1    0    0    0  501 -0.00000000000E+00 -0.00000000000E+00 -0.68820740544E+03  0.68820740546E+03  0.50400000000E-02 0.  1.
    8880022    1    1    2    0    0  0.33921961905E+03  0.10813600990E+03 -0.57747489125E+03  0.69543673301E+03  0.15294330000E+03 0.  0.
    8880022    1    1    2    0    0 -0.33921961905E+03 -0.10813600990E+03  0.67361254495E+03  0.77711573160E+03  0.15294330000E+03 0.  0.
<mgrwt>
<rscale>  0 0.38749839E+03</rscale>
<asrwt>0</asrwt>
<pdfrwt beam="1">  1        1 0.12066847E+00 0.38749839E+03</pdfrwt>
<pdfrwt beam="2">  1       -1 0.10587806E+00 0.38749839E+03</pdfrwt>
<totfact> 0.20746866E+01</totfact>
</mgrwt>
</event>
<event>
 4    1  0.1852677E-008  0.4734929E+03  0.7818608E-02  0.1020939E+00
         -1   -1    0    0    0  501 -0.00000000000E+00  0.00000000000E+00  0.51904399694E+03  0.51904399697E+03  0.50400000000E-02 0.  1.
          1   -1    0    0  501    0  0.00000000000E+00 -0.00000000000E+00 -0.11174940047E+04  0.11174940047E+04  0.50400000000E-02 0. -1.
    8880022    1    1    2    0    0  0.33550792201E+03  0.29704938331E+03 -0.94013127717E+03  0.10526359167E+04  0.15294330000E+03 0.  0.
    8880022    1    1    2    0    0 -0.33550792201E+03 -0.29704938331E+03  0.34168126945E+03  0.58390208491E+03  0.15294330000E+03 0.  0.
<mgrwt>
<rscale>  0 0.47349293E+03</rscale>
<asrwt>0</asrwt>
<pdfrwt beam="1">  1        1 0.17192215E+00 0.47349293E+03</pdfrwt>
<pdfrwt beam="2">  1       -1 0.79852923E-01 0.47349293E+03</pdfrwt>
<totfact> 0.20721720E+01</totfact>
</mgrwt>
</event>
<event>
 4    1  0.1888961E-008  0.6818817E+03  0.7818608E-02  0.9748729E-01
         -1   -1    0    0    0  501 -0.00000000000E+00  0.00000000000E+00  0.17945447522E+04  0.17945447522E+04  0.50400000000E-02 0.  1.
          1   -1    0    0  501    0  0.00000000000E+00 -0.00000000000E+00 -0.12623192566E+04  0.12623192566E+04  0.50400000000E-02 0. -1.
    8880022    1    1    2    0    0  0.61227515584E+03  0.25824434323E+03 -0.10964606876E+04  0.12911966155E+04  0.15294330000E+03 0.  0.
    8880022    1    1    2    0    0 -0.61227515584E+03 -0.25824434323E+03  0.16286861832E+04  0.17656673933E+04  0.15294330000E+03 0.  0.
<mgrwt>
<rscale>  0 0.68188171E+03</rscale>
<asrwt>0</asrwt>
<pdfrwt beam="1">  1        1 0.19420296E+00 0.68188171E+03</pdfrwt>
<pdfrwt beam="2">  1       -1 0.27608381E+00 0.68188171E+03</pdfrwt>
<totfact> 0.49022215E-01</totfact>
</mgrwt>
</event>
<event>
 4    1  0.1852677E-008  0.6019352E+03  0.7818608E-02  0.9901399E-01
          1   -1    0    0  501    0  0.00000000000E+00  0.00000000000E+00  0.10392730035E+04  0.10392730035E+04  0.50400000000E-02 0. -1.
         -1   -1    0    0    0  501 -0.00000000000E+00 -0.00000000000E+00 -0.41064059131E+03  0.41064059135E+03  0.50400000000E-02 0.  1.
    8880022    1    1    2    0    0 -0.46696798506E+03  0.34767112965E+03  0.59602467771E+03  0.84709585226E+03  0.15294330000E+03 0.  0.
    8880022    1    1    2    0    0  0.46696798506E+03 -0.34767112965E+03  0.32607734512E+02  0.60281774263E+03  0.15294330000E+03 0.  0.
<mgrwt>
<rscale>  0 0.60193518E+03</rscale>
<asrwt>0</asrwt>
<pdfrwt beam="1">  1        1 0.15988815E+00 0.60193518E+03</pdfrwt>
<pdfrwt beam="2">  1       -1 0.63175476E-01 0.60193518E+03</pdfrwt>
<totfact> 0.37437361E+01</totfact>
</mgrwt>
</event>
<event>
 4    1  0.1852677E-008  0.1031322E+04  0.7818608E-02  0.9274844E-01
          1   -1    0    0  501    0  0.00000000000E+00  0.00000000000E+00  0.99370288534E+03  0.99370288535E+03  0.50400000000E-02 0. -1.
         -1   -1    0    0    0  501 -0.00000000000E+00 -0.00000000000E+00 -0.14542252816E+04  0.14542252817E+04  0.50400000000E-02 0.  1.
    8880022    1    1    2    0    0  0.44909092206E+03  0.91572363544E+03  0.39857830755E+03  0.11056621333E+04  0.15294330000E+03 0.  0.
    8880022    1    1    2    0    0 -0.44909092206E+03 -0.91572363544E+03 -0.85910070386E+03  0.13422660337E+04  0.15294330000E+03 0.  0.
<mgrwt>
<rscale>  0 0.10313215E+04</rscale>
<asrwt>0</asrwt>
<pdfrwt beam="1">  1        1 0.15287737E+00 0.10313215E+04</pdfrwt>
<pdfrwt beam="2">  1       -1 0.22372697E+00 0.10313215E+04</pdfrwt>
<totfact> 0.15928522E+00</totfact>
</mgrwt>
</event>
<event>
 4    1  0.1852677E-008  0.1068946E+04  0.7818608E-02  0.9236000E-01
         -1   -1    0    0    0  501 -0.00000000000E+00  0.00000000000E+00  0.80929488431E+03  0.80929488432E+03  0.50400000000E-02 0.  1.
          1   -1    0    0  501    0  0.00000000000E+00 -0.00000000000E+00 -0.14746550364E+04  0.14746550364E+04  0.50400000000E-02 0. -1.
    8880022    1    1    2    0    0 -0.58909579693E+03 -0.87875990681E+03 -0.56825617117E+03  0.12106029741E+04  0.15294330000E+03 0.  0.
    8880022    1    1    2    0    0  0.58909579693E+03  0.87875990681E+03 -0.97103980936E+02  0.10733469467E+04  0.15294330000E+03 0.  0.
<mgrwt>
<rscale>  0 0.10689455E+04</rscale>
<asrwt>0</asrwt>
<pdfrwt beam="1">  1        1 0.22687001E+00 0.10689455E+04</pdfrwt>
<pdfrwt beam="2">  1       -1 0.12450691E+00 0.10689455E+04</pdfrwt>
<totfact> 0.38377491E+00</totfact>
</mgrwt>
</event>
<event>
 4    1  0.1852677E-008  0.4055799E+03  0.7818608E-02  0.1041865E+00
         -1   -1    0    0    0  501 -0.00000000000E+00  0.00000000000E+00  0.15379366364E+03  0.15379366373E+03  0.50400000000E-02 0.  1.
          1   -1    0    0  501    0  0.00000000000E+00 -0.00000000000E+00 -0.27491661987E+04  0.27491661987E+04  0.50400000000E-02 0. -1.
    8880022    1    1    2    0    0 -0.37243609980E+03 -0.48935951916E+02 -0.16316837803E+03  0.43717153204E+03  0.15294330000E+03 0.  0.
    8880022    1    1    2    0    0  0.37243609980E+03  0.48935951916E+02 -0.24322041571E+04  0.24657883304E+04  0.15294330000E+03 0.  0.
<mgrwt>
<rscale>  0 0.40557987E+03</rscale>
<asrwt>0</asrwt>
<pdfrwt beam="1">  1        1 0.42294861E+00 0.40557987E+03</pdfrwt>
<pdfrwt beam="2">  1       -1 0.23660566E-01 0.40557987E+03</pdfrwt>
<totfact> 0.15811805E+01</totfact>
</mgrwt>
</event>
<event>
 4    1  0.1852677E-008  0.4109344E+03  0.7818608E-02  0.1040058E+00
          1   -1    0    0  501    0  0.00000000000E+00  0.00000000000E+00  0.29718484144E+03  0.29718484148E+03  0.50400000000E-02 0. -1.
         -1   -1    0    0    0  501 -0.00000000000E+00 -0.00000000000E+00 -0.94437518365E+03  0.94437518366E+03  0.50400000000E-02 0.  1.
    8880022    1    1    2    0    0 -0.27748436073E+03 -0.26168270338E+03  0.68189669104E+02  0.41655358801E+03  0.15294330000E+03 0.  0.
    8880022    1    1    2    0    0  0.27748436073E+03  0.26168270338E+03 -0.71538001131E+03  0.82500643713E+03  0.15294330000E+03 0.  0.
<mgrwt>
<rscale>  0 0.41093438E+03</rscale>
<asrwt>0</asrwt>
<pdfrwt beam="1">  1        1 0.45720745E-01 0.41093438E+03</pdfrwt>
<pdfrwt beam="2">  1       -1 0.14528849E+00 0.41093438E+03</pdfrwt>
<totfact> 0.35867191E+01</totfact>
</mgrwt>
</event>
<event>
 4    1  0.1852677E-008  0.2178607E+03  0.7818608E-02  0.1135488E+00
          1   -1    0    0  501    0  0.00000000000E+00  0.00000000000E+00  0.21386103902E+04  0.21386103902E+04  0.50400000000E-02 0. -1.
         -1   -1    0    0    0  501 -0.00000000000E+00 -0.00000000000E+00 -0.64853373870E+02  0.64853374066E+02  0.50400000000E-02 0.  1.
    8880022    1    1    2    0    0 -0.15484802950E+03  0.96800675976E+01  0.19304295551E+04  0.19426841062E+04  0.15294330000E+03 0.  0.
    8880022    1    1    2    0    0  0.15484802950E+03 -0.96800675976E+01  0.14332746123E+03  0.26077965816E+03  0.15294330000E+03 0.  0.
<mgrwt>
<rscale>  0 0.21786066E+03</rscale>
<asrwt>0</asrwt>
<pdfrwt beam="1">  1        1 0.32901700E+00 0.21786066E+03</pdfrwt>
<pdfrwt beam="2">  1       -1 0.99774416E-02 0.21786066E+03</pdfrwt>
<totfact> 0.17050319E+02</totfact>
</mgrwt>
</event>
<event>
 4    1  0.1852677E-008  0.4627921E+03  0.7818608E-02  0.1023975E+00
          1   -1    0    0  501    0  0.00000000000E+00  0.00000000000E+00  0.86889308868E+03  0.86889308869E+03  0.50400000000E-02 0. -1.
         -1   -1    0    0    0  501 -0.00000000000E+00 -0.00000000000E+00 -0.81499990666E+03  0.81499990667E+03  0.50400000000E-02 0.  1.
    8880022    1    1    2    0    0 -0.35687060030E+03  0.25184971749E+03 -0.67624451714E+03  0.81944078830E+03  0.15294330000E+03 0.  1.
    8880022    1    1    2    0    0  0.35687060030E+03 -0.25184971749E+03  0.73013769916E+03  0.86445220707E+03  0.15294330000E+03 0.  0.
<mgrwt>
<rscale>  0 0.46279213E+03</rscale>
<asrwt>0</asrwt>
<pdfrwt beam="1">  1        1 0.13367586E+00 0.46279213E+03</pdfrwt>
<pdfrwt beam="2">  1       -1 0.12538460E+00 0.46279213E+03</pdfrwt>
<totfact> 0.11604294E+01</totfact>
</mgrwt>
</event>
<event>
 4    1  0.1852677E-008  0.6558309E+03  0.7818608E-02  0.9795899E-01
          1   -1    0    0  501    0  0.00000000000E+00  0.00000000000E+00  0.17026430505E+04  0.17026430505E+04  0.50400000000E-02 0. -1.
         -1   -1    0    0    0  501 -0.00000000000E+00 -0.00000000000E+00 -0.60459158339E+03  0.60459158341E+03  0.50400000000E-02 0.  1.
    8880022    1    1    2    0    0  0.51423201321E+03  0.37721070238E+03 -0.33118621023E+03  0.73470976329E+03  0.15294330000E+03 0.  0.
    8880022    1    1    2    0    0 -0.51423201321E+03 -0.37721070238E+03  0.14292376774E+04  0.15725248706E+04  0.15294330000E+03 0.  0.
<mgrwt>
<rscale>  0 0.65583087E+03</rscale>
<asrwt>0</asrwt>
<pdfrwt beam="1">  1        1 0.26194508E+00 0.65583087E+03</pdfrwt>
<pdfrwt beam="2">  1       -1 0.93014091E-01 0.65583087E+03</pdfrwt>
<totfact> 0.56603033E+00</totfact>
</mgrwt>
</event>
<event>
 4    1  0.1852677E-008  0.4511257E+03  0.7818608E-02  0.1027387E+00
          1   -1    0    0  501    0  0.00000000000E+00  0.00000000000E+00  0.79567500975E+03  0.79567500976E+03  0.50400000000E-02 0. -1.
         -1   -1    0    0    0  501 -0.00000000000E+00 -0.00000000000E+00 -0.44370577372E+03  0.44370577374E+03  0.50400000000E-02 0.  1.
    8880022    1    1    2    0    0  0.26405883515E+03  0.33225847836E+03 -0.22731261347E+03  0.50515882861E+03  0.15294330000E+03 0.  0.
    8880022    1    1    2    0    0 -0.26405883515E+03 -0.33225847836E+03  0.57928184951E+03  0.73422195489E+03  0.15294330000E+03 0.  0.
<mgrwt>
<rscale>  0 0.45112572E+03</rscale>
<asrwt>0</asrwt>
<pdfrwt beam="1">  1        1 0.12241154E+00 0.45112572E+03</pdfrwt>
<pdfrwt beam="2">  1       -1 0.68262427E-01 0.45112572E+03</pdfrwt>
<totfact> 0.51349719E+01</totfact>
</mgrwt>
</event>
<event>
 4    1  0.1852677E-008  0.5670786E+03  0.7818608E-02  0.9976164E-01
         -1   -1    0    0    0  501 -0.00000000000E+00  0.00000000000E+00  0.13686033369E+04  0.13686033369E+04  0.50400000000E-02 0.  1.
          1   -1    0    0  501    0  0.00000000000E+00 -0.00000000000E+00 -0.42076544701E+03  0.42076544704E+03  0.50400000000E-02 0. -1.
    8880022    1    1    2    0    0  0.15933324836E+02  0.54583207782E+03  0.10684431401E+04  0.12096069299E+04  0.15294330000E+03 0.  0.
    8880022    1    1    2    0    0 -0.15933324836E+02 -0.54583207782E+03 -0.12060525029E+03  0.57976185406E+03  0.15294330000E+03 0.  0.
<mgrwt>
<rscale>  0 0.56707864E+03</rscale>
<asrwt>0</asrwt>
<pdfrwt beam="1">  1        1 0.64733146E-01 0.56707864E+03</pdfrwt>
<pdfrwt beam="2">  1       -1 0.21055436E+00 0.56707864E+03</pdfrwt>
<totfact> 0.75951369E+00</totfact>
</mgrwt>
</event>
<event>
 4    1  0.1852677E-008  0.2058061E+03  0.7818608E-02  0.1144931E+00
          1   -1    0    0  501    0  0.00000000000E+00  0.00000000000E+00  0.14260031333E+04  0.14260031333E+04  0.50400000000E-02 0. -1.
         -1   -1    0    0    0  501 -0.00000000000E+00 -0.00000000000E+00 -0.22807193190E+03  0.22807193196E+03  0.50400000000E-02 0.  1.
    8880022    1    1    2    0    0 -0.88316046408E+02 -0.10566357509E+03 -0.17233991178E+03  0.26843474694E+03  0.15294330000E+03 0.  1.
    8880022    1    1    2    0    0  0.88316046408E+02  0.10566357509E+03  0.13702711132E+04  0.13856403184E+04  0.15294330000E+03 0.  0.
<mgrwt>
<rscale>  0 0.20580614E+03</rscale>
<asrwt>0</asrwt>
<pdfrwt beam="1">  1        1 0.21938509E+00 0.20580614E+03</pdfrwt>
<pdfrwt beam="2">  1       -1 0.35087990E-01 0.20580614E+03</pdfrwt>
<totfact> 0.64643995E+01</totfact>
</mgrwt>
</event>
<event>
 4    1  0.1852677E-008  0.6364621E+03  0.7818608E-02  0.9832519E-01
         -1   -1    0    0    0  501 -0.00000000000E+00  0.00000000000E+00  0.32891183031E+03  0.32891183035E+03  0.50400000000E-02 0.  1.
          1   -1    0    0  501    0  0.00000000000E+00 -0.00000000000E+00 -0.14887225744E+04  0.14887225745E+04  0.50400000000E-02 0. -1.
    8880022    1    1    2    0    0 -0.58497839507E+03  0.19872740180E+03 -0.95760769178E+03  0.11498245289E+04  0.15294330000E+03 0.  0.
    8880022    1    1    2    0    0  0.58497839507E+03 -0.19872740180E+03 -0.20220305236E+03  0.66780987588E+03  0.15294330000E+03 0.  0.
<mgrwt>
<rscale>  0 0.63646206E+03</rscale>
<asrwt>0</asrwt>
<pdfrwt beam="1">  1        1 0.22903424E+00 0.63646206E+03</pdfrwt>
<pdfrwt beam="2">  1       -1 0.50601821E-01 0.63646206E+03</pdfrwt>
<totfact> 0.27398317E+01</totfact>
</mgrwt>
</event>
<event>
 4    1  0.1852677E-008  0.5895062E+03  0.7818608E-02  0.9927420E-01
         -1   -1    0    0    0  501 -0.00000000000E+00  0.00000000000E+00  0.15683831165E+04  0.15683831165E+04  0.50400000000E-02 0.  1.
          1   -1    0    0  501    0  0.00000000000E+00 -0.00000000000E+00 -0.87086992060E+03  0.87086992061E+03  0.50400000000E-02 0. -1.
    8880022    1    1    2    0    0 -0.31288388186E+03 -0.47563600780E+03  0.14018588834E+04  0.15207649120E+04  0.15294330000E+03 0.  0.
    8880022    1    1    2    0    0  0.31288388186E+03  0.47563600780E+03 -0.70434568753E+03  0.91848812513E+03  0.15294330000E+03 0.  0.
<mgrwt>
<rscale>  0 0.58950622E+03</rscale>
<asrwt>0</asrwt>
<pdfrwt beam="1">  1        1 0.13397999E+00 0.58950622E+03</pdfrwt>
<pdfrwt beam="2">  1       -1 0.24128971E+00 0.58950622E+03</pdfrwt>
<totfact> 0.16560766E+00</totfact>
</mgrwt>
</event>
<event>
 4    1  0.1852677E-008  0.7522878E+03  0.7818608E-02  0.9631768E-01
          1   -1    0    0  501    0  0.00000000000E+00  0.00000000000E+00  0.81180462684E+03  0.81180462685E+03  0.50400000000E-02 0. -1.
         -1   -1    0    0    0  501 -0.00000000000E+00 -0.00000000000E+00 -0.11820941117E+04  0.11820941117E+04  0.50400000000E-02 0.  1.
    8880022    1    1    2    0    0  0.73656000152E+03 -0.49580829221E+01 -0.82370213846E+03  0.11155366800E+04  0.15294330000E+03 0.  0.
    8880022    1    1    2    0    0 -0.73656000152E+03  0.49580829221E+01  0.45341265363E+03  0.87836205856E+03  0.15294330000E+03 0.  0.
<mgrwt>
<rscale>  0 0.75228776E+03</rscale>
<asrwt>0</asrwt>
<pdfrwt beam="1">  1        1 0.12489302E+00 0.75228776E+03</pdfrwt>
<pdfrwt beam="2">  1       -1 0.18186063E+00 0.75228776E+03</pdfrwt>
<totfact> 0.45159951E+00</totfact>
</mgrwt>
</event>
<event>
 4    1  0.1852677E-008  0.1044849E+04  0.7818608E-02  0.9260678E-01
          1   -1    0    0  501    0  0.00000000000E+00  0.00000000000E+00  0.16944397134E+04  0.16944397134E+04  0.50400000000E-02 0. -1.
         -1   -1    0    0    0  501 -0.00000000000E+00 -0.00000000000E+00 -0.89765487253E+03  0.89765487255E+03  0.50400000000E-02 0.  1.
    8880022    1    1    2    0    0  0.94395539850E+03 -0.42103079864E+03 -0.29016386392E+03  0.10843917413E+04  0.15294330000E+03 0.  0.
    8880022    1    1    2    0    0 -0.94395539850E+03  0.42103079864E+03  0.10869487048E+04  0.15077028446E+04  0.15294330000E+03 0.  0.
<mgrwt>
<rscale>  0 0.10448495E+04</rscale>
<asrwt>0</asrwt>
<pdfrwt beam="1">  1        1 0.26068303E+00 0.10448495E+04</pdfrwt>
<pdfrwt beam="2">  1       -1 0.13810075E+00 0.10448495E+04</pdfrwt>
<totfact> 0.20907109E+00</totfact>
</mgrwt>
</event>
<event>
 4    1  0.1852677E-008  0.4180258E+03  0.7818608E-02  0.1037711E+00
          1   -1    0    0  501    0  0.00000000000E+00  0.00000000000E+00  0.25229879843E+03  0.25229879848E+03  0.50400000000E-02 0. -1.
         -1   -1    0    0    0  501 -0.00000000000E+00 -0.00000000000E+00 -0.12137113048E+04  0.12137113048E+04  0.50400000000E-02 0.  1.
    8880022    1    1    2    0    0  0.21639829051E+03  0.32330430581E+03 -0.96100217794E+03  0.10479841284E+04  0.15294330000E+03 0.  0.
    8880022    1    1    2    0    0 -0.21639829051E+03 -0.32330430581E+03 -0.41032837938E+00  0.41802597488E+03  0.15294330000E+03 0.  0.
<mgrwt>
<rscale>  0 0.41802577E+03</rscale>
<asrwt>0</asrwt>
<pdfrwt beam="1">  1        1 0.38815200E-01 0.41802577E+03</pdfrwt>
<pdfrwt beam="2">  1       -1 0.18672481E+00 0.41802577E+03</pdfrwt>
<totfact> 0.21938789E+01</totfact>
</mgrwt>
</event>
<event>
 4    1  0.1852677E-008  0.8545230E+03  0.7818608E-02  0.9484286E-01
          1   -1    0    0  501    0  0.00000000000E+00  0.00000000000E+00  0.26013133875E+04  0.26013133875E+04  0.50400000000E-02 0. -1.
         -1   -1    0    0    0  501 -0.00000000000E+00 -0.00000000000E+00 -0.30875125443E+03  0.30875125447E+03  0.50400000000E-02 0.  1.
    8880022    1    1    2    0    0 -0.81620445385E+03 -0.20156453258E+03  0.70776849644E+03  0.11095701280E+04  0.15294330000E+03 0.  0.
    8880022    1    1    2    0    0  0.81620445385E+03  0.20156453258E+03  0.15847936366E+04  0.18004945140E+04  0.15294330000E+03 0.  0.
<mgrwt>
<rscale>  0 0.85452304E+03</rscale>
<asrwt>0</asrwt>
<pdfrwt beam="1">  1        1 0.40020207E+00 0.85452304E+03</pdfrwt>
<pdfrwt beam="2">  1       -1 0.47500192E-01 0.85452304E+03</pdfrwt>
<totfact> 0.53056267E+00</totfact>
</mgrwt>
</event>
<event>
 4    1  0.1852677E-008  0.4879965E+03  0.7818608E-02  0.1016960E+00
         -1   -1    0    0    0  501 -0.00000000000E+00  0.00000000000E+00  0.46830147864E+03  0.46830147866E+03  0.50400000000E-02 0.  1.
          1   -1    0    0  501    0  0.00000000000E+00 -0.00000000000E+00 -0.17669068888E+04  0.17669068888E+04  0.50400000000E-02 0. -1.
    8880022    1    1    2    0    0  0.28518541313E+03  0.36526461121E+03  0.29386365186E+03  0.56964590314E+03  0.15294330000E+03 0.  0.
    8880022    1    1    2    0    0 -0.28518541313E+03 -0.36526461121E+03 -0.15924690620E+04  0.16655624643E+04  0.15294330000E+03 0.  0.
<mgrwt>
<rscale>  0 0.48799653E+03</rscale>
<asrwt>0</asrwt>
<pdfrwt beam="1">  1        1 0.27183182E+00 0.48799653E+03</pdfrwt>
<pdfrwt beam="2">  1       -1 0.72046382E-01 0.48799653E+03</pdfrwt>
<totfact> 0.91597555E+00</totfact>
</mgrwt>
</event>
<event>
 4    1  0.1852677E-008  0.6429751E+03  0.7818608E-02  0.9820051E-01
         -1   -1    0    0    0  501 -0.00000000000E+00  0.00000000000E+00  0.54906576304E+03  0.54906576306E+03  0.50400000000E-02 0.  1.
          1   -1    0    0  501    0  0.00000000000E+00 -0.00000000000E+00 -0.12793904976E+04  0.12793904976E+04  0.50400000000E-02 0. -1.
    8880022    1    1    2    0    0 -0.26484682456E+02 -0.62395827572E+03  0.22128521691E+03  0.67998835908E+03  0.15294330000E+03 0.  1.
    8880022    1    1    2    0    0  0.26484682456E+02  0.62395827572E+03 -0.95160995151E+03  0.11484679016E+04  0.15294330000E+03 0.  0.
<mgrwt>
<rscale>  0 0.64297513E+03</rscale>
<asrwt>0</asrwt>
<pdfrwt beam="1">  1        1 0.19682931E+00 0.64297513E+03</pdfrwt>
<pdfrwt beam="2">  1       -1 0.84471656E-01 0.64297513E+03</pdfrwt>
<totfact> 0.13646000E+01</totfact>
</mgrwt>
</event>
<event>
 4    1  0.1852677E-008  0.3008546E+03  0.7818608E-02  0.1084814E+00
         -1   -1    0    0    0  501 -0.00000000000E+00  0.00000000000E+00  0.20532334463E+04  0.20532334463E+04  0.50400000000E-02 0.  1.
          1   -1    0    0  501    0  0.00000000000E+00 -0.00000000000E+00 -0.69547382087E+03  0.69547382089E+03  0.50400000000E-02 0. -1.
    8880022    1    1    2    0    0  0.18420244517E+03  0.18218481016E+03 -0.65120332424E+03  0.71734180721E+03  0.15294330000E+03 0.  0.
    8880022    1    1    2    0    0 -0.18420244517E+03 -0.18218481016E+03  0.20089629497E+04  0.20313654600E+04  0.15294330000E+03 0.  0.
<mgrwt>
<rscale>  0 0.30085461E+03</rscale>
<asrwt>0</asrwt>
<pdfrwt beam="1">  1        1 0.10699597E+00 0.30085461E+03</pdfrwt>
<pdfrwt beam="2">  1       -1 0.31588207E+00 0.30085461E+03</pdfrwt>
<totfact> 0.87506755E-01</totfact>
</mgrwt>
</event>
<event>
 4    1  0.1852677E-008  0.8438386E+03  0.7818608E-02  0.9498644E-01
         -1   -1    0    0    0  501 -0.00000000000E+00  0.00000000000E+00  0.50054072329E+03  0.50054072332E+03  0.50400000000E-02 0.  1.
          1   -1    0    0  501    0  0.00000000000E+00 -0.00000000000E+00 -0.19572669639E+04  0.19572669639E+04  0.50400000000E-02 0. -1.
    8880022    1    1    2    0    0 -0.72890034293E+03 -0.39670668598E+03 -0.86061304383E+02  0.84821583677E+03  0.15294330000E+03 0.  1.
    8880022    1    1    2    0    0  0.72890034293E+03  0.39670668598E+03 -0.13706649362E+04  0.16095918504E+04  0.15294330000E+03 0.  0.
<mgrwt>
<rscale>  0 0.84383859E+03</rscale>
<asrwt>0</asrwt>
<pdfrwt beam="1">  1        1 0.30111799E+00 0.84383859E+03</pdfrwt>
<pdfrwt beam="2">  1       -1 0.77006266E-01 0.84383859E+03</pdfrwt>
<totfact> 0.55651191E+00</totfact>
</mgrwt>
</event>
<event>
 4    1  0.1852677E-008  0.6282840E+03  0.7818608E-02  0.9848403E-01
         -1   -1    0    0    0  501 -0.00000000000E+00  0.00000000000E+00  0.11580415095E+04  0.11580415095E+04  0.50400000000E-02 0.  1.
          1   -1    0    0  501    0  0.00000000000E+00 -0.00000000000E+00 -0.59039309442E+03  0.59039309445E+03  0.50400000000E-02 0. -1.
    8880022    1    1    2    0    0  0.58606917499E+03  0.16694931017E+03  0.85215965318E+03  0.10587336197E+04  0.15294330000E+03 0.  0.
    8880022    1    1    2    0    0 -0.58606917499E+03 -0.16694931017E+03 -0.28451123808E+03  0.68970098424E+03  0.15294330000E+03 0.  0.
<mgrwt>
<rscale>  0 0.62828401E+03</rscale>
<asrwt>0</asrwt>
<pdfrwt beam="1">  1        1 0.90829707E-01 0.62828401E+03</pdfrwt>
<pdfrwt beam="2">  1       -1 0.17816023E+00 0.62828401E+03</pdfrwt>
<totfact> 0.79057942E+00</totfact>
</mgrwt>
</event>
<event>
 4    1  0.1852677E-008  0.9027117E+03  0.7818608E-02  0.9422198E-01
         -1   -1    0    0    0  501 -0.00000000000E+00  0.00000000000E+00  0.10697994931E+04  0.10697994932E+04  0.50400000000E-02 0.  1.
          1   -1    0    0  501    0  0.00000000000E+00 -0.00000000000E+00 -0.99321101604E+03  0.99321101606E+03  0.50400000000E-02 0. -1.
    8880022    1    1    2    0    0  0.82658988301E+03  0.32900748142E+03  0.53628020234E+03  0.10499927933E+04  0.15294330000E+03 0.  0.
    8880022    1    1    2    0    0 -0.82658988301E+03 -0.32900748142E+03 -0.45969172523E+03  0.10130177159E+04  0.15294330000E+03 0.  0.
<mgrwt>
<rscale>  0 0.90271170E+03</rscale>
<asrwt>0</asrwt>
<pdfrwt beam="1">  1        1 0.15280170E+00 0.90271170E+03</pdfrwt>
<pdfrwt beam="2">  1       -1 0.16458454E+00 0.90271170E+03</pdfrwt>
<totfact> 0.41964837E+00</totfact>
</mgrwt>
</event>
<event>
 4    1  0.1852677E-008  0.1246483E+04  0.7818608E-02  0.9073116E-01
          1   -1    0    0  501    0  0.00000000000E+00  0.00000000000E+00  0.19584868167E+04  0.19584868167E+04  0.50400000000E-02 0. -1.
         -1   -1    0    0    0  501 -0.00000000000E+00 -0.00000000000E+00 -0.10982802697E+04  0.10982802697E+04  0.50400000000E-02 0.  1.
    8880022    1    1    2    0    0  0.69214398900E+02 -0.12351261195E+04 -0.37526220582E+03  0.13017451902E+04  0.15294330000E+03 0.  0.
    8880022    1    1    2    0    0 -0.69214398900E+02  0.12351261195E+04  0.12354687528E+04  0.17550218962E+04  0.15294330000E+03 0.  0.
<mgrwt>
<rscale>  0 0.12464826E+04</rscale>
<asrwt>0</asrwt>
<pdfrwt beam="1">  1        1 0.30130566E+00 0.12464826E+04</pdfrwt>
<pdfrwt beam="2">  1       -1 0.16896620E+00 0.12464826E+04</pdfrwt>
<totfact> 0.77713006E-01</totfact>
</mgrwt>
</event>
<event>
 4    1  0.1852677E-008  0.4784860E+03  0.7818608E-02  0.1019552E+00
         -1   -1    0    0    0  501 -0.00000000000E+00  0.00000000000E+00  0.25943534414E+03  0.25943534418E+03  0.50400000000E-02 0.  1.
          1   -1    0    0  501    0  0.00000000000E+00 -0.00000000000E+00 -0.28770993955E+04  0.28770993955E+04  0.50400000000E-02 0. -1.
    8880022    1    1    2    0    0 -0.80139925408E+02 -0.44624525118E+03 -0.30469736928E+01  0.47849573551E+03  0.15294330000E+03 0.  0.
    8880022    1    1    2    0    0  0.80139925408E+02  0.44624525118E+03 -0.26146170776E+04  0.26580390041E+04  0.15294330000E+03 0.  0.
<mgrwt>
<rscale>  0 0.47848603E+03</rscale>
<asrwt>0</asrwt>
<pdfrwt beam="1">  1        1 0.44263065E+00 0.47848603E+03</pdfrwt>
<pdfrwt beam="2">  1       -1 0.39913132E-01 0.47848603E+03</pdfrwt>
<totfact> 0.50955622E+00</totfact>
</mgrwt>
</event>
<event>
 4    1  0.1852677E-008  0.5804578E+03  0.7818608E-02  0.9946800E-01
          1   -1    0    0  501    0  0.00000000000E+00  0.00000000000E+00  0.92555235137E+03  0.92555235138E+03  0.50400000000E-02 0. -1.
         -1   -1    0    0    0  501 -0.00000000000E+00 -0.00000000000E+00 -0.93381245441E+03  0.93381245442E+03  0.50400000000E-02 0.  1.
    8880022    1    1    2    0    0 -0.47260773018E+03 -0.30030237198E+03 -0.73033352608E+03  0.93290851298E+03  0.15294330000E+03 0.  0.
    8880022    1    1    2    0    0  0.47260773018E+03  0.30030237198E+03  0.72207342304E+03  0.92645629283E+03  0.15294330000E+03 0.  0.
<mgrwt>
<rscale>  0 0.58045778E+03</rscale>
<asrwt>0</asrwt>
<pdfrwt beam="1">  1        1 0.14239267E+00 0.58045778E+03</pdfrwt>
<pdfrwt beam="2">  1       -1 0.14366345E+00 0.58045778E+03</pdfrwt>
<totfact> 0.72221764E+00</totfact>
</mgrwt>
</event>
<event>
 4    1  0.1852677E-008  0.4049037E+03  0.7818608E-02  0.1042095E+00
          1   -1    0    0  501    0  0.00000000000E+00  0.00000000000E+00  0.12830536291E+04  0.12830536291E+04  0.50400000000E-02 0. -1.
         -1   -1    0    0    0  501 -0.00000000000E+00 -0.00000000000E+00 -0.46180352474E+03  0.46180352477E+03  0.50400000000E-02 0.  1.
    8880022    1    1    2    0    0  0.84621571898E+02 -0.36523219665E+03  0.11526022941E+04  0.12216542347E+04  0.15294330000E+03 0.  0.
    8880022    1    1    2    0    0 -0.84621571898E+02  0.36523219665E+03 -0.33135218976E+03  0.52320291912E+03  0.15294330000E+03 0.  1.
<mgrwt>
<rscale>  0 0.40490372E+03</rscale>
<asrwt>0</asrwt>
<pdfrwt beam="1">  1        1 0.19739287E+00 0.40490372E+03</pdfrwt>
<pdfrwt beam="2">  1       -1 0.71046695E-01 0.40490372E+03</pdfrwt>
<totfact> 0.20407096E+01</totfact>
</mgrwt>
</event>
<event>
 4    1  0.1852677E-008  0.5063070E+03  0.7818608E-02  0.1012146E+00
         -1   -1    0    0    0  501 -0.00000000000E+00  0.00000000000E+00  0.21268108321E+04  0.21268108321E+04  0.50400000000E-02 0.  1.
          1   -1    0    0  501    0  0.00000000000E+00 -0.00000000000E+00 -0.75431534705E+03  0.75431534706E+03  0.50400000000E-02 0. -1.
    8880022    1    1    2    0    0  0.44501360545E+03  0.18686376375E+03  0.20067116488E+04  0.20695986253E+04  0.15294330000E+03 0.  0.
    8880022    1    1    2    0    0 -0.44501360545E+03 -0.18686376375E+03 -0.63421616380E+03  0.81152755386E+03  0.15294330000E+03 0.  0.
<mgrwt>
<rscale>  0 0.50630705E+03</rscale>
<asrwt>0</asrwt>
<pdfrwt beam="1">  1        1 0.11604852E+00 0.50630705E+03</pdfrwt>
<pdfrwt beam="2">  1       -1 0.32720167E+00 0.50630705E+03</pdfrwt>
<totfact> 0.60369218E-01</totfact>
</mgrwt>
</event>
<event>
 4    1  0.1852677E-008  0.7535434E+03  0.7818608E-02  0.9629808E-01
          1   -1    0    0  501    0  0.00000000000E+00  0.00000000000E+00  0.22002071050E+04  0.22002071050E+04  0.50400000000E-02 0. -1.
         -1   -1    0    0    0  501 -0.00000000000E+00 -0.00000000000E+00 -0.48814216397E+03  0.48814216400E+03  0.50400000000E-02 0.  1.
    8880022    1    1    2    0    0 -0.15961761369E+02  0.73768637400E+03  0.17788289330E+04  0.19318540292E+04  0.15294330000E+03 0.  0.
    8880022    1    1    2    0    0  0.15961761369E+02 -0.73768637400E+03 -0.66763991967E+02  0.75649523981E+03  0.15294330000E+03 0.  0.
<mgrwt>
<rscale>  0 0.75354337E+03</rscale>
<asrwt>0</asrwt>
<pdfrwt beam="1">  1        1 0.33849340E+00 0.75354337E+03</pdfrwt>
<pdfrwt beam="2">  1       -1 0.75098796E-01 0.75354337E+03</pdfrwt>
<totfact> 0.40919590E+00</totfact>
</mgrwt>
</event>
<event>
 4    1  0.1852677E-008  0.4852623E+03  0.7818608E-02  0.1017699E+00
         -1   -1    0    0    0  501 -0.00000000000E+00  0.00000000000E+00  0.24331039137E+03  0.24331039142E+03  0.50400000000E-02 0.  1.
          1   -1    0    0  501    0  0.00000000000E+00 -0.00000000000E+00 -0.19082703951E+04  0.19082703952E+04  0.50400000000E-02 0. -1.
    8880022    1    1    2    0    0 -0.66183393025E+02  0.45574949273E+03 -0.77254301226E+02  0.49137330179E+03  0.15294330000E+03 0.  0.
    8880022    1    1    2    0    0  0.66183393025E+02 -0.45574949273E+03 -0.15877057025E+04  0.16602074848E+04  0.15294330000E+03 0.  0.
<mgrwt>
<rscale>  0 0.48526229E+03</rscale>
<asrwt>0</asrwt>
<pdfrwt beam="1">  1        1 0.29358005E+00 0.48526229E+03</pdfrwt>
<pdfrwt beam="2">  1       -1 0.37432369E-01 0.48526229E+03</pdfrwt>
<totfact> 0.25647346E+01</totfact>
</mgrwt>
</event>
<event>
 4    1  0.1852677E-008  0.4159652E+03  0.7818608E-02  0.1038388E+00
         -1   -1    0    0    0  501 -0.00000000000E+00  0.00000000000E+00  0.18517620260E+03  0.18517620267E+03  0.50400000000E-02 0.  1.
          1   -1    0    0  501    0  0.00000000000E+00 -0.00000000000E+00 -0.13240461320E+04  0.13240461320E+04  0.50400000000E-02 0. -1.
    8880022    1    1    2    0    0 -0.23584630241E+03  0.30661367998E+03 -0.16006916215E+03  0.44570081534E+03  0.15294330000E+03 0.  0.
    8880022    1    1    2    0    0  0.23584630241E+03 -0.30661367998E+03 -0.97880076721E+03  0.10635215193E+04  0.15294330000E+03 0.  0.
<mgrwt>
<rscale>  0 0.41596524E+03</rscale>
<asrwt>0</asrwt>
<pdfrwt beam="1">  1        1 0.20369940E+00 0.41596524E+03</pdfrwt>
<pdfrwt beam="2">  1       -1 0.28488647E-01 0.41596524E+03</pdfrwt>
<totfact> 0.10310954E+02</totfact>
</mgrwt>
</event>
<event>
 4    1  0.1852677E-008  0.6134654E+03  0.7818608E-02  0.9877857E-01
          1   -1    0    0  501    0  0.00000000000E+00  0.00000000000E+00  0.15231577256E+04  0.15231577256E+04  0.50400000000E-02 0. -1.
         -1   -1    0    0    0  501 -0.00000000000E+00 -0.00000000000E+00 -0.32167959355E+03  0.32167959359E+03  0.50400000000E-02 0.  1.
    8880022    1    1    2    0    0 -0.19849411516E+03  0.55995381437E+03  0.15652907825E+03  0.63312020449E+03  0.15294330000E+03 0.  0.
    8880022    1    1    2    0    0  0.19849411516E+03 -0.55995381437E+03  0.10449490538E+04  0.12117171147E+04  0.15294330000E+03 0.  0.
<mgrwt>
<rscale>  0 0.61346544E+03</rscale>
<asrwt>0</asrwt>
<pdfrwt beam="1">  1        1 0.23433196E+00 0.61346544E+03</pdfrwt>
<pdfrwt beam="2">  1       -1 0.49489168E-01 0.61346544E+03</pdfrwt>
<totfact> 0.27164983E+01</totfact>
</mgrwt>
</event>
<event>
 4    1  0.1852677E-008  0.1686416E+03  0.7818608E-02  0.1179272E+00
          1   -1    0    0  501    0  0.00000000000E+00  0.00000000000E+00  0.19475108468E+04  0.19475108468E+04  0.50400000000E-02 0. -1.
         -1   -1    0    0    0  501 -0.00000000000E+00 -0.00000000000E+00 -0.28528038440E+03  0.28528038444E+03  0.50400000000E-02 0.  1.
    8880022    1    1    2    0    0  0.20559747487E+02  0.68012088150E+02 -0.25633138587E+03  0.30683184279E+03  0.15294330000E+03 0.  1.
    8880022    1    1    2    0    0 -0.20559747487E+02 -0.68012088150E+02  0.19185618483E+04  0.19259593885E+04  0.15294330000E+03 0.  0.
<mgrwt>
<rscale>  0 0.16864163E+03</rscale>
<asrwt>0</asrwt>
<pdfrwt beam="1">  1        1 0.29961705E+00 0.16864163E+03</pdfrwt>
<pdfrwt beam="2">  1       -1 0.43889291E-01 0.16864163E+03</pdfrwt>
<totfact> 0.20413627E+01</totfact>
</mgrwt>
</event>
<event>
 4    1  0.1852677E-008  0.8279027E+03  0.7818608E-02  0.9520485E-01
         -1   -1    0    0    0  501 -0.00000000000E+00  0.00000000000E+00  0.15196399963E+04  0.15196399963E+04  0.50400000000E-02 0.  1.
          1   -1    0    0  501    0  0.00000000000E+00 -0.00000000000E+00 -0.74412942316E+03  0.74412942318E+03  0.50400000000E-02 0. -1.
    8880022    1    1    2    0    0  0.80178143640E+03 -0.13848366873E+03 -0.32260041277E+03  0.88853468002E+03  0.15294330000E+03 0.  0.
    8880022    1    1    2    0    0 -0.80178143640E+03  0.13848366873E+03  0.10981109859E+04  0.13752347395E+04  0.15294330000E+03 0.  0.
<mgrwt>
<rscale>  0 0.82790268E+03</rscale>
<asrwt>0</asrwt>
<pdfrwt beam="1">  1        1 0.11448145E+00 0.82790268E+03</pdfrwt>
<pdfrwt beam="2">  1       -1 0.23379077E+00 0.82790268E+03</pdfrwt>
<totfact> 0.22769308E+00</totfact>
</mgrwt>
</event>
<event>
 4    1  0.1852677E-008  0.5839285E+03  0.7818608E-02  0.9939322E-01
          1   -1    0    0  501    0  0.00000000000E+00  0.00000000000E+00  0.61821945610E+03  0.61821945612E+03  0.50400000000E-02 0. -1.
         -1   -1    0    0    0  501 -0.00000000000E+00 -0.00000000000E+00 -0.69334740579E+03  0.69334740581E+03  0.50400000000E-02 0.  1.
    8880022    1    1    2    0    0  0.43607712242E+03 -0.35695607246E+03 -0.33413927045E+03  0.67277158043E+03  0.15294330000E+03 0.  1.
    8880022    1    1    2    0    0 -0.43607712242E+03  0.35695607246E+03  0.25901132076E+03  0.63879528150E+03  0.15294330000E+03 0.  0.
<mgrwt>
<rscale>  0 0.58392855E+03</rscale>
<asrwt>0</asrwt>
<pdfrwt beam="1">  1        1 0.95110685E-01 0.58392855E+03</pdfrwt>
<pdfrwt beam="2">  1       -1 0.10666883E+00 0.58392855E+03</pdfrwt>
<totfact> 0.28110813E+01</totfact>
</mgrwt>
</event>
<event>
 4    1  0.1852677E-008  0.7087678E+03  0.7818608E-02  0.9702355E-01
          1   -1    0    0  501    0  0.00000000000E+00  0.00000000000E+00  0.46173499844E+03  0.46173499847E+03  0.50400000000E-02 0. -1.
         -1   -1    0    0    0  501 -0.00000000000E+00 -0.00000000000E+00 -0.12814188774E+04  0.12814188774E+04  0.50400000000E-02 0.  1.
    8880022    1    1    2    0    0 -0.50514131117E+03 -0.47306695041E+03 -0.71194062100E+02  0.71233442379E+03  0.15294330000E+03 0.  0.
    8880022    1    1    2    0    0  0.50514131117E+03  0.47306695041E+03 -0.74848981682E+03  0.10308194520E+04  0.15294330000E+03 0.  0.
<mgrwt>
<rscale>  0 0.70876776E+03</rscale>
<asrwt>0</asrwt>
<pdfrwt beam="1">  1        1 0.71036154E-01 0.70876776E+03</pdfrwt>
<pdfrwt beam="2">  1       -1 0.19714137E+00 0.70876776E+03</pdfrwt>
<totfact> 0.80877300E+00</totfact>
</mgrwt>
</event>
<event>
 4    1  0.1852677E-008  0.7005085E+03  0.7818608E-02  0.9716363E-01
          1   -1    0    0  501    0  0.00000000000E+00  0.00000000000E+00  0.96968077063E+03  0.96968077064E+03  0.50400000000E-02 0. -1.
         -1   -1    0    0    0  501 -0.00000000000E+00 -0.00000000000E+00 -0.16135481751E+04  0.16135481751E+04  0.50400000000E-02 0.  1.
    8880022    1    1    2    0    0  0.44521037078E+03 -0.51875637121E+03  0.74813682771E+03  0.10249003917E+04  0.15294330000E+03 0.  0.
    8880022    1    1    2    0    0 -0.44521037078E+03  0.51875637121E+03 -0.13920042321E+04  0.15583285540E+04  0.15294330000E+03 0.  0.
<mgrwt>
<rscale>  0 0.70050846E+03</rscale>
<asrwt>0</asrwt>
<pdfrwt beam="1">  1        1 0.14918166E+00 0.70050846E+03</pdfrwt>
<pdfrwt beam="2">  1       -1 0.24823818E+00 0.70050846E+03</pdfrwt>
<totfact> 0.12143004E+00</totfact>
</mgrwt>
</event>
<event>
 4    1  0.1852677E-008  0.2962302E+03  0.7818608E-02  0.1087140E+00
         -1   -1    0    0    0  501 -0.00000000000E+00  0.00000000000E+00  0.11975833185E+04  0.11975833185E+04  0.50400000000E-02 0.  1.
          1   -1    0    0  501    0  0.00000000000E+00 -0.00000000000E+00 -0.27960043067E+03  0.27960043071E+03  0.50400000000E-02 0. -1.
    8880022    1    1    2    0    0  0.13068244934E+03 -0.21744606324E+03 -0.17548059873E+03  0.34430478726E+03  0.15294330000E+03 0. -1.
    8880022    1    1    2    0    0 -0.13068244934E+03  0.21744606324E+03  0.10934634865E+04  0.11328789619E+04  0.15294330000E+03 0.  0.
<mgrwt>
<rscale>  0 0.29623022E+03</rscale>
<asrwt>0</asrwt>
<pdfrwt beam="1">  1        1 0.43015451E-01 0.29623022E+03</pdfrwt>
<pdfrwt beam="2">  1       -1 0.18424359E+00 0.29623022E+03</pdfrwt>
<totfact> 0.20564344E+01</totfact>
</mgrwt>
</event>
<event>
 4    1  0.1852677E-008  0.1558517E+03  0.7818608E-02  0.1193461E+00
          1   -1    0    0  501    0  0.00000000000E+00  0.00000000000E+00  0.42858724054E+03  0.42858724057E+03  0.50400000000E-02 0. -1.
         -1   -1    0    0    0  501 -0.00000000000E+00 -0.00000000000E+00 -0.14271012697E+03  0.14271012705E+03  0.50400000000E-02 0.  1.
    8880022    1    1    2    0    0 -0.12058584156E+02 -0.27435039082E+02  0.36473026845E+03  0.39663322171E+03  0.15294330000E+03 0. -1.
    8880022    1    1    2    0    0  0.12058584156E+02  0.27435039082E+02 -0.78853154875E+02  0.17466414592E+03  0.15294330000E+03 0.  0.
<mgrwt>
<rscale>  0 0.15585167E+03</rscale>
<asrwt>0</asrwt>
<pdfrwt beam="1">  1        1 0.65936499E-01 0.15585167E+03</pdfrwt>
<pdfrwt beam="2">  1       -1 0.21955404E-01 0.15585167E+03</pdfrwt>
<totfact> 0.95600128E+02</totfact>
</mgrwt>
</event>
<event>
 4    1  0.1852677E-008  0.2319384E+03  0.7818608E-02  0.1125283E+00
         -1   -1    0    0    0  501 -0.00000000000E+00  0.00000000000E+00  0.79135717147E+03  0.79135717149E+03  0.50400000000E-02 0.  1.
          1   -1    0    0  501    0  0.00000000000E+00 -0.00000000000E+00 -0.12015597829E+03  0.12015597840E+03  0.50400000000E-02 0. -1.
    8880022    1    1    2    0    0  0.25921380161E+02 -0.17242929650E+03  0.63593214402E+03  0.67690850567E+03  0.15294330000E+03 0.  0.
    8880022    1    1    2    0    0 -0.25921380161E+02  0.17242929650E+03  0.35269049161E+02  0.23460464421E+03  0.15294330000E+03 0.  0.
<mgrwt>
<rscale>  0 0.23193843E+03</rscale>
<asrwt>0</asrwt>
<pdfrwt beam="1">  1        1 0.18485535E-01 0.23193843E+03</pdfrwt>
<pdfrwt beam="2">  1       -1 0.12174726E+00 0.23193843E+03</pdfrwt>
<totfact> 0.18226391E+02</totfact>
</mgrwt>
</event>
<event>
 4    1  0.1852677E-008  0.1640263E+03  0.7818608E-02  0.1184225E+00
         -1   -1    0    0    0  501 -0.00000000000E+00  0.00000000000E+00  0.26356521978E+03  0.26356521982E+03  0.50400000000E-02 0.  1.
          1   -1    0    0  501    0  0.00000000000E+00 -0.00000000000E+00 -0.13532186391E+04  0.13532186391E+04  0.50400000000E-02 0. -1.
    8880022    1    1    2    0    0  0.53301563045E+02  0.25921600683E+02  0.23247704739E+03  0.28451751543E+03  0.15294330000E+03 0.  1.
    8880022    1    1    2    0    0 -0.53301563045E+02 -0.25921600683E+02 -0.13221304667E+04  0.13322663435E+04  0.15294330000E+03 0.  0.
<mgrwt>
<rscale>  0 0.16402634E+03</rscale>
<asrwt>0</asrwt>
<pdfrwt beam="1">  1        1 0.20818748E+00 0.16402634E+03</pdfrwt>
<pdfrwt beam="2">  1       -1 0.40548496E-01 0.16402634E+03</pdfrwt>
<totfact> 0.57148678E+01</totfact>
</mgrwt>
</event>
<event>
 4    1  0.1852677E-008  0.2321616E+04  0.7818608E-02  0.8469447E-01
         -1   -1    0    0    0  501 -0.00000000000E+00  0.00000000000E+00  0.13985760907E+04  0.13985760907E+04  0.50400000000E-02 0.  1.
          1   -1    0    0  501    0  0.00000000000E+00 -0.00000000000E+00 -0.40731167746E+04  0.40731167746E+04  0.50400000000E-02 0. -1.
    8880022    1    1    2    0    0  0.24288248989E+03 -0.23038052363E+04 -0.19720382219E+04  0.30461183287E+04  0.15294330000E+03 0.  0.
    8880022    1    1    2    0    0 -0.24288248989E+03  0.23038052363E+04 -0.70250246199E+03  0.24255745367E+04  0.15294330000E+03 0.  0.
<mgrwt>
<rscale>  0 0.23216163E+04</rscale>
<asrwt>0</asrwt>
<pdfrwt beam="1">  1        1 0.62663334E+00 0.23216163E+04</pdfrwt>
<pdfrwt beam="2">  1       -1 0.21516555E+00 0.23216163E+04</pdfrwt>
<totfact> 0.84577617E-03</totfact>
</mgrwt>
</event>
<event>
 4    1  0.1852677E-008  0.7111376E+03  0.7818608E-02  0.9698373E-01
          1   -1    0    0  501    0  0.00000000000E+00  0.00000000000E+00  0.99406012132E+03  0.99406012133E+03  0.50400000000E-02 0. -1.
         -1   -1    0    0    0  501 -0.00000000000E+00 -0.00000000000E+00 -0.15465096705E+04  0.15465096705E+04  0.50400000000E-02 0.  1.
    8880022    1    1    2    0    0 -0.63817234726E+03  0.27397266225E+03 -0.13168051304E+04  0.14965601789E+04  0.15294330000E+03 0.  1.
    8880022    1    1    2    0    0  0.63817234726E+03 -0.27397266225E+03  0.76435558122E+03  0.10440096130E+04  0.15294330000E+03 0.  0.
<mgrwt>
<rscale>  0 0.71113755E+03</rscale>
<asrwt>0</asrwt>
<pdfrwt beam="1">  1        1 0.15293233E+00 0.71113755E+03</pdfrwt>
<pdfrwt beam="2">  1       -1 0.23792457E+00 0.71113755E+03</pdfrwt>
<totfact> 0.13524223E+00</totfact>
</mgrwt>
</event>
<event>
 4    1  0.1852677E-008  0.5275185E+03  0.7818608E-02  0.1006836E+00
          1   -1    0    0  501    0  0.00000000000E+00  0.00000000000E+00  0.10303130207E+04  0.10303130207E+04  0.50400000000E-02 0. -1.
         -1   -1    0    0    0  501 -0.00000000000E+00 -0.00000000000E+00 -0.46974404822E+03  0.46974404825E+03  0.50400000000E-02 0.  1.
    8880022    1    1    2    0    0 -0.39833378513E+03  0.31018427270E+03  0.76926076409E+03  0.93275820210E+03  0.15294330000E+03 0.  0.
    8880022    1    1    2    0    0  0.39833378513E+03 -0.31018427270E+03 -0.20869179163E+03  0.56729886684E+03  0.15294330000E+03 0.  0.
<mgrwt>
<rscale>  0 0.52751847E+03</rscale>
<asrwt>0</asrwt>
<pdfrwt beam="1">  1        1 0.15850969E+00 0.52751847E+03</pdfrwt>
<pdfrwt beam="2">  1       -1 0.72268316E-01 0.52751847E+03</pdfrwt>
<totfact> 0.29311777E+01</totfact>
</mgrwt>
</event>
<event>
 4    1  0.1852677E-008  0.1959667E+03  0.7818608E-02  0.1153187E+00
         -1   -1    0    0    0  501 -0.00000000000E+00  0.00000000000E+00  0.56614962134E+03  0.56614962137E+03  0.50400000000E-02 0.  1.
          1   -1    0    0  501    0  0.00000000000E+00 -0.00000000000E+00 -0.88459713017E+03  0.88459713019E+03  0.50400000000E-02 0. -1.
    8880022    1    1    2    0    0  0.11138533483E+03 -0.51035287968E+02 -0.85623132636E+03  0.87837066816E+03  0.15294330000E+03 0.  0.
    8880022    1    1    2    0    0 -0.11138533483E+03  0.51035287968E+02  0.53778381753E+03  0.57237608340E+03  0.15294330000E+03 0.  1.
<mgrwt>
<rscale>  0 0.19596670E+03</rscale>
<asrwt>0</asrwt>
<pdfrwt beam="1">  1        1 0.13609187E+00 0.19596670E+03</pdfrwt>
<pdfrwt beam="2">  1       -1 0.87099941E-01 0.19596670E+03</pdfrwt>
<totfact> 0.28037916E+01</totfact>
</mgrwt>
</event>
<event>
 4    1  0.1852677E-008  0.6255969E+03  0.7818608E-02  0.9853679E-01
         -1   -1    0    0    0  501 -0.00000000000E+00  0.00000000000E+00  0.99643564251E+03  0.99643564252E+03  0.50400000000E-02 0.  1.
          1   -1    0    0  501    0  0.00000000000E+00 -0.00000000000E+00 -0.48525589432E+03  0.48525589434E+03  0.50400000000E-02 0. -1.
    8880022    1    1    2    0    0 -0.45705772402E+03  0.39884596750E+03  0.57901713557E+03  0.85242733718E+03  0.15294330000E+03 0.  0.
    8880022    1    1    2    0    0  0.45705772402E+03 -0.39884596750E+03 -0.67837387374E+02  0.62926419969E+03  0.15294330000E+03 0.  0.
<mgrwt>
<rscale>  0 0.62559693E+03</rscale>
<asrwt>0</asrwt>
<pdfrwt beam="1">  1        1 0.74654753E-01 0.62559693E+03</pdfrwt>
<pdfrwt beam="2">  1       -1 0.15329779E+00 0.62559693E+03</pdfrwt>
<totfact> 0.15852687E+01</totfact>
</mgrwt>
</event>
<event>
 4    1  0.1852677E-008  0.4487299E+03  0.7818608E-02  0.1028101E+00
          1   -1    0    0  501    0  0.00000000000E+00  0.00000000000E+00  0.98511367033E+03  0.98511367034E+03  0.50400000000E-02 0. -1.
         -1   -1    0    0    0  501 -0.00000000000E+00 -0.00000000000E+00 -0.41005539337E+03  0.41005539341E+03  0.50400000000E-02 0.  1.
    8880022    1    1    2    0    0  0.30846873231E+03  0.28777399830E+03 -0.20649058467E+03  0.49396037036E+03  0.15294330000E+03 0.  0.
    8880022    1    1    2    0    0 -0.30846873231E+03 -0.28777399830E+03  0.78154886162E+03  0.90120869339E+03  0.15294330000E+03 0.  0.
<mgrwt>
<rscale>  0 0.44872986E+03</rscale>
<asrwt>0</asrwt>
<pdfrwt beam="1">  1        1 0.15155595E+00 0.44872986E+03</pdfrwt>
<pdfrwt beam="2">  1       -1 0.63085446E-01 0.44872986E+03</pdfrwt>
<totfact> 0.42264271E+01</totfact>
</mgrwt>
</event>
<event>
 4    1  0.1852677E-008  0.7003701E+03  0.7818608E-02  0.9716599E-01
          1   -1    0    0  501    0  0.00000000000E+00  0.00000000000E+00  0.10689490991E+04  0.10689490991E+04  0.50400000000E-02 0. -1.
         -1   -1    0    0    0  501 -0.00000000000E+00 -0.00000000000E+00 -0.50309686089E+03  0.50309686092E+03  0.50400000000E-02 0.  1.
    8880022    1    1    2    0    0 -0.58569511122E+03 -0.35226105388E+03  0.49897946619E+02  0.70214533501E+03  0.15294330000E+03 0.  0.
    8880022    1    1    2    0    0  0.58569511122E+03  0.35226105388E+03  0.51595429159E+03  0.86990062502E+03  0.15294330000E+03 0.  0.
<mgrwt>
<rscale>  0 0.70037009E+03</rscale>
<asrwt>0</asrwt>
<pdfrwt beam="1">  1        1 0.16445371E+00 0.70037009E+03</pdfrwt>
<pdfrwt beam="2">  1       -1 0.77399517E-01 0.70037009E+03</pdfrwt>
<totfact> 0.23188773E+01</totfact>
</mgrwt>
</event>
<event>
 4    1  0.1852677E-008  0.7590955E+03  0.7818608E-02  0.9621188E-01
          1   -1    0    0  501    0  0.00000000000E+00  0.00000000000E+00  0.31329800875E+04  0.31329800875E+04  0.50400000000E-02 0. -1.
         -1   -1    0    0    0  501 -0.00000000000E+00 -0.00000000000E+00 -0.98769759003E+03  0.98769759004E+03  0.50400000000E-02 0.  1.
    8880022    1    1    2    0    0 -0.74258056031E+03 -0.37528210485E+02 -0.78599280967E+03  0.10927079230E+04  0.15294330000E+03 0.  0.
    8880022    1    1    2    0    0  0.74258056031E+03  0.37528210485E+02  0.29312753071E+04  0.30279697545E+04  0.15294330000E+03 0.  0.
<mgrwt>
<rscale>  0 0.75909545E+03</rscale>
<asrwt>0</asrwt>
<pdfrwt beam="1">  1        1 0.48199692E+00 0.75909545E+03</pdfrwt>
<pdfrwt beam="2">  1       -1 0.15195348E+00 0.75909545E+03</pdfrwt>
<totfact> 0.17501813E-01</totfact>
</mgrwt>
</event>
<event>
 4    1  0.1852677E-008  0.4438626E+03  0.7818608E-02  0.1029568E+00
         -1   -1    0    0    0  501 -0.00000000000E+00  0.00000000000E+00  0.97102826951E+03  0.97102826953E+03  0.50400000000E-02 0.  1.
          1   -1    0    0  501    0  0.00000000000E+00 -0.00000000000E+00 -0.86695201645E+03  0.86695201647E+03  0.50400000000E-02 0. -1.
    8880022    1    1    2    0    0 -0.30064213183E+03 -0.28850758461E+03  0.85633606187E+03  0.96453378462E+03  0.15294330000E+03 0.  0.
    8880022    1    1    2    0    0  0.30064213183E+03  0.28850758461E+03 -0.75225980880E+03  0.87344650137E+03  0.15294330000E+03 0. -1.
<mgrwt>
<rscale>  0 0.44386256E+03</rscale>
<asrwt>0</asrwt>
<pdfrwt beam="1">  1        1 0.13337723E+00 0.44386256E+03</pdfrwt>
<pdfrwt beam="2">  1       -1 0.14938896E+00 0.44386256E+03</pdfrwt>
<totfact> 0.74827174E+00</totfact>
</mgrwt>
</event>
<event>
 4    1  0.1852677E-008  0.3346242E+03  0.7818608E-02  0.1069109E+00
         -1   -1    0    0    0  501 -0.00000000000E+00  0.00000000000E+00  0.37535169591E+03  0.37535169595E+03  0.50400000000E-02 0.  1.
          1   -1    0    0  501    0  0.00000000000E+00 -0.00000000000E+00 -0.66534670724E+03  0.66534670726E+03  0.50400000000E-02 0. -1.
    8880022    1    1    2    0    0 -0.24459656487E+02  0.29661997969E+03  0.24147820748E+03  0.41265610967E+03  0.15294330000E+03 0.  0.
    8880022    1    1    2    0    0  0.24459656487E+02 -0.29661997969E+03 -0.53147321880E+03  0.62804229353E+03  0.15294330000E+03 0.  0.
<mgrwt>
<rscale>  0 0.33462418E+03</rscale>
<asrwt>0</asrwt>
<pdfrwt beam="1">  1        1 0.10236103E+00 0.33462418E+03</pdfrwt>
<pdfrwt beam="2">  1       -1 0.57746415E-01 0.33462418E+03</pdfrwt>
<totfact> 0.95166225E+01</totfact>
</mgrwt>
</event>
<event>
 4    1  0.1852677E-008  0.5636926E+03  0.7818608E-02  0.9983734E-01
         -1   -1    0    0    0  501 -0.00000000000E+00  0.00000000000E+00  0.40983909456E+03  0.40983909459E+03  0.50400000000E-02 0.  1.
          1   -1    0    0  501    0  0.00000000000E+00 -0.00000000000E+00 -0.16067186915E+04  0.16067186915E+04  0.50400000000E-02 0. -1.
    8880022    1    1    2    0    0  0.42209212470E+03  0.34087517513E+03  0.12686404005E+03  0.57779216369E+03  0.15294330000E+03 0.  0.
    8880022    1    1    2    0    0 -0.42209212470E+03 -0.34087517513E+03 -0.13237436370E+04  0.14387656224E+04  0.15294330000E+03 0.  0.
<mgrwt>
<rscale>  0 0.56369256E+03</rscale>
<asrwt>0</asrwt>
<pdfrwt beam="1">  1        1 0.24718749E+00 0.56369256E+03</pdfrwt>
<pdfrwt beam="2">  1       -1 0.63052169E-01 0.56369256E+03</pdfrwt>
<totfact> 0.15072695E+01</totfact>
</mgrwt>
</event>
<event>
 4    1  0.1852677E-008  0.6152920E+03  0.7818608E-02  0.9874178E-01
          1   -1    0    0  501    0  0.00000000000E+00  0.00000000000E+00  0.34610221233E+03  0.34610221237E+03  0.50400000000E-02 0. -1.
         -1   -1    0    0    0  501 -0.00000000000E+00 -0.00000000000E+00 -0.12322703031E+04  0.12322703031E+04  0.50400000000E-02 0.  1.
    8880022    1    1    2    0    0  0.80765756936E+02 -0.59048242006E+03 -0.70758354942E+03  0.93768796959E+03  0.15294330000E+03 0.  0.
    8880022    1    1    2    0    0 -0.80765756936E+02  0.59048242006E+03 -0.17858454132E+03  0.64068454586E+03  0.15294330000E+03 0.  0.
<mgrwt>
<rscale>  0 0.61529200E+03</rscale>
<asrwt>0</asrwt>
<pdfrwt beam="1">  1        1 0.53246495E-01 0.61529200E+03</pdfrwt>
<pdfrwt beam="2">  1       -1 0.18958004E+00 0.61529200E+03</pdfrwt>
<totfact> 0.13532518E+01</totfact>
</mgrwt>
</event>
<event>
 4    1  0.1852677E-008  0.9300889E+03  0.7818608E-02  0.9388731E-01
          1   -1    0    0  501    0  0.00000000000E+00  0.00000000000E+00  0.13397646039E+04  0.13397646039E+04  0.50400000000E-02 0. -1.
         -1   -1    0    0    0  501 -0.00000000000E+00 -0.00000000000E+00 -0.71874168700E+03  0.71874168701E+03  0.50400000000E-02 0.  1.
    8880022    1    1    2    0    0 -0.55796131729E+03 -0.72825330163E+03 -0.17634453269E+02  0.93025605608E+03  0.15294330000E+03 0.  0.
    8880022    1    1    2    0    0  0.55796131729E+03  0.72825330163E+03  0.63865737016E+03  0.11282502348E+04  0.15294330000E+03 0.  0.
<mgrwt>
<rscale>  0 0.93008890E+03</rscale>
<asrwt>0</asrwt>
<pdfrwt beam="1">  1        1 0.20611763E+00 0.93008890E+03</pdfrwt>
<pdfrwt beam="2">  1       -1 0.11057565E+00 0.93008890E+03</pdfrwt>
<totfact> 0.64688910E+00</totfact>
</mgrwt>
</event>
<event>
 4    1  0.1852677E-008  0.3716877E+03  0.7818608E-02  0.1054050E+00
          1   -1    0    0  501    0  0.00000000000E+00  0.00000000000E+00  0.50300412118E+03  0.50300412121E+03  0.50400000000E-02 0. -1.
         -1   -1    0    0    0  501 -0.00000000000E+00 -0.00000000000E+00 -0.10548056204E+04  0.10548056204E+04  0.50400000000E-02 0.  1.
    8880022    1    1    2    0    0  0.23514519459E+02 -0.33794547675E+03 -0.94576671146E+03  0.10161822688E+04  0.15294330000E+03 0.  0.
    8880022    1    1    2    0    0 -0.23514519459E+02  0.33794547675E+03  0.39396521223E+03  0.54162747284E+03  0.15294330000E+03 0.  0.
<mgrwt>
<rscale>  0 0.37168768E+03</rscale>
<asrwt>0</asrwt>
<pdfrwt beam="1">  1        1 0.77385250E-01 0.37168768E+03</pdfrwt>
<pdfrwt beam="2">  1       -1 0.16227779E+00 0.37168768E+03</pdfrwt>
<totfact> 0.13532066E+01</totfact>
</mgrwt>
</event>
<event>
 4    1  0.1852677E-008  0.1566783E+03  0.7818608E-02  0.1192499E+00
          1   -1    0    0  501    0  0.00000000000E+00  0.00000000000E+00  0.42612639050E+03  0.42612639053E+03  0.50400000000E-02 0. -1.
         -1   -1    0    0    0  501 -0.00000000000E+00 -0.00000000000E+00 -0.16602061140E+03  0.16602061148E+03  0.50400000000E-02 0.  1.
    8880022    1    1    2    0    0 -0.32911963697E+02 -0.85588849819E+01 -0.10920116345E+03  0.19097905377E+03  0.15294330000E+03 0.  0.
    8880022    1    1    2    0    0  0.32911963697E+02  0.85588849819E+01  0.36930694254E+03  0.40116794824E+03  0.15294330000E+03 0. -1.
<mgrwt>
<rscale>  0 0.15667835E+03</rscale>
<asrwt>0</asrwt>
<pdfrwt beam="1">  1        1 0.65557905E-01 0.15667835E+03</pdfrwt>
<pdfrwt beam="2">  1       -1 0.25541633E-01 0.15667835E+03</pdfrwt>
<totfact> 0.75158941E+02</totfact>
</mgrwt>
</event>
<event>
 4    1  0.1852677E-008  0.4341130E+03  0.7818608E-02  0.1032569E+00
          1   -1    0    0  501    0  0.00000000000E+00  0.00000000000E+00  0.90573680998E+03  0.90573681000E+03  0.50400000000E-02 0. -1.
         -1   -1    0    0    0  501 -0.00000000000E+00 -0.00000000000E+00 -0.75108665032E+03  0.75108665034E+03  0.50400000000E-02 0.  1.
    8880022    1    1    2    0    0 -0.40621643363E+03  0.71145284507E+01  0.78170819736E+03  0.89415981027E+03  0.15294330000E+03 0.  0.
    8880022    1    1    2    0    0  0.40621643363E+03 -0.71145284507E+01 -0.62705803770E+03  0.76266365006E+03  0.15294330000E+03 0.  0.
<mgrwt>
<rscale>  0 0.43411296E+03</rscale>
<asrwt>0</asrwt>
<pdfrwt beam="1">  1        1 0.13934413E+00 0.43411296E+03</pdfrwt>
<pdfrwt beam="2">  1       -1 0.11555179E+00 0.43411296E+03</pdfrwt>
<totfact> 0.13285751E+01</totfact>
</mgrwt>
</event>
<event>
 4    1  0.1852677E-008  0.3943722E+03  0.7818608E-02  0.1045746E+00
          1   -1    0    0  501    0  0.00000000000E+00  0.00000000000E+00  0.13816429076E+04  0.13816429077E+04  0.50400000000E-02 0. -1.
         -1   -1    0    0    0  501 -0.00000000000E+00 -0.00000000000E+00 -0.20946279258E+03  0.20946279264E+03  0.50400000000E-02 0.  1.
    8880022    1    1    2    0    0  0.35274999426E+03 -0.87779602338E+02  0.45006061318E+02  0.39693200376E+03  0.15294330000E+03 0.  0.
    8880022    1    1    2    0    0 -0.35274999426E+03  0.87779602338E+02  0.11271740538E+04  0.11941736965E+04  0.15294330000E+03 0.  0.
<mgrwt>
<rscale>  0 0.39437225E+03</rscale>
<asrwt>0</asrwt>
<pdfrwt beam="1">  1        1 0.21256045E+00 0.39437225E+03</pdfrwt>
<pdfrwt beam="2">  1       -1 0.32225045E-01 0.39437225E+03</pdfrwt>
<totfact> 0.76385980E+01</totfact>
</mgrwt>
</event>
<event>
 4    1  0.1852677E-008  0.1989206E+03  0.7818608E-02  0.1150653E+00
          1   -1    0    0  501    0  0.00000000000E+00  0.00000000000E+00  0.60324392354E+03  0.60324392356E+03  0.50400000000E-02 0. -1.
         -1   -1    0    0    0  501 -0.00000000000E+00 -0.00000000000E+00 -0.13197410008E+03  0.13197410018E+03  0.50400000000E-02 0.  1.
    8880022    1    1    2    0    0  0.80632488248E+02 -0.98367396263E+02  0.49634605041E+03  0.53472310365E+03  0.15294330000E+03 0.  0.
    8880022    1    1    2    0    0 -0.80632488248E+02  0.98367396263E+02 -0.25076226950E+02  0.20049492009E+03  0.15294330000E+03 0.  1.
<mgrwt>
<rscale>  0 0.19892058E+03</rscale>
<asrwt>0</asrwt>
<pdfrwt beam="1">  1        1 0.92806759E-01 0.19892058E+03</pdfrwt>
<pdfrwt beam="2">  1       -1 0.20303707E-01 0.19892058E+03</pdfrwt>
<totfact> 0.69080963E+02</totfact>
</mgrwt>
</event>
<event>
 4    1  0.1852677E-008  0.2516887E+03  0.7818608E-02  0.1112242E+00
         -1   -1    0    0    0  501 -0.00000000000E+00  0.00000000000E+00  0.95251823501E+02  0.95251823635E+02  0.50400000000E-02 0.  1.
          1   -1    0    0  501    0  0.00000000000E+00 -0.00000000000E+00 -0.84811649764E+03  0.84811649766E+03  0.50400000000E-02 0. -1.
    8880022    1    1    2    0    0 -0.17241007042E+03  0.10114493896E+03 -0.59557578307E+03  0.64657381439E+03  0.15294330000E+03 0. -1.
    8880022    1    1    2    0    0  0.17241007042E+03 -0.10114493896E+03 -0.15728889107E+03  0.29679450690E+03  0.15294330000E+03 0.  0.
<mgrwt>
<rscale>  0 0.25168866E+03</rscale>
<asrwt>0</asrwt>
<pdfrwt beam="1">  1        1 0.13047946E+00 0.25168866E+03</pdfrwt>
<pdfrwt beam="2">  1       -1 0.14654127E-01 0.25168866E+03</pdfrwt>
<totfact> 0.70434896E+02</totfact>
</mgrwt>
</event>
<event>
 4    1  0.1852677E-008  0.7659771E+03  0.7818608E-02  0.9610613E-01
          1   -1    0    0  501    0  0.00000000000E+00  0.00000000000E+00  0.34413690117E+04  0.34413690117E+04  0.50400000000E-02 0. -1.
         -1   -1    0    0    0  501 -0.00000000000E+00 -0.00000000000E+00 -0.21358008913E+03  0.21358008919E+03  0.50400000000E-02 0.  1.
    8880022    1    1    2    0    0  0.27547913670E+03  0.69816941020E+03  0.24347312745E+04  0.25523787556E+04  0.15294330000E+03 0.  0.
    8880022    1    1    2    0    0 -0.27547913670E+03 -0.69816941020E+03  0.79305764808E+03  0.11025703453E+04  0.15294330000E+03 0.  0.
<mgrwt>
<rscale>  0 0.76597711E+03</rscale>
<asrwt>0</asrwt>
<pdfrwt beam="1">  1        1 0.52944132E+00 0.76597711E+03</pdfrwt>
<pdfrwt beam="2">  1       -1 0.32858479E-01 0.76597711E+03</pdfrwt>
<totfact> 0.26037152E+00</totfact>
</mgrwt>
</event>
<event>
 4    1  0.1852677E-008  0.6510402E+03  0.7818608E-02  0.9804829E-01
          1   -1    0    0  501    0  0.00000000000E+00  0.00000000000E+00  0.15520526255E+04  0.15520526255E+04  0.50400000000E-02 0. -1.
         -1   -1    0    0    0  501 -0.00000000000E+00 -0.00000000000E+00 -0.53357012531E+03  0.53357012533E+03  0.50400000000E-02 0.  1.
    8880022    1    1    2    0    0 -0.52926616525E+03 -0.34689912929E+03  0.12378519438E+04  0.13986174486E+04  0.15294330000E+03 0.  0.
    8880022    1    1    2    0    0  0.52926616525E+03  0.34689912929E+03 -0.21936944361E+03  0.68700530230E+03  0.15294330000E+03 0.  0.
<mgrwt>
<rscale>  0 0.65104019E+03</rscale>
<asrwt>0</asrwt>
<pdfrwt beam="1">  1        1 0.23877732E+00 0.65104019E+03</pdfrwt>
<pdfrwt beam="2">  1       -1 0.82087713E-01 0.65104019E+03</pdfrwt>
<totfact> 0.93911839E+00</totfact>
</mgrwt>
</event>
<event>
 4    1  0.1852677E-008  0.1209246E+04  0.7818608E-02  0.9104802E-01
          1   -1    0    0  501    0  0.00000000000E+00  0.00000000000E+00  0.21552273729E+04  0.21552273730E+04  0.50400000000E-02 0. -1.
         -1   -1    0    0    0  501 -0.00000000000E+00 -0.00000000000E+00 -0.77601247951E+03  0.77601247952E+03  0.50400000000E-02 0.  1.
    8880022    1    1    2    0    0  0.11824822512E+04 -0.20154142726E+03  0.12092031604E+04  0.17101015050E+04  0.15294330000E+03 0.  0.
    8880022    1    1    2    0    0 -0.11824822512E+04  0.20154142726E+03  0.17001173299E+03  0.12211383475E+04  0.15294330000E+03 0.  0.
<mgrwt>
<rscale>  0 0.12092456E+04</rscale>
<asrwt>0</asrwt>
<pdfrwt beam="1">  1        1 0.33157344E+00 0.12092456E+04</pdfrwt>
<pdfrwt beam="2">  1       -1 0.11938654E+00 0.12092456E+04</pdfrwt>
<totfact> 0.14425832E+00</totfact>
</mgrwt>
</event>
<event>
 4    1  0.1852677E-008  0.3824141E+03  0.7818608E-02  0.1050045E+00
          1   -1    0    0  501    0  0.00000000000E+00  0.00000000000E+00  0.27804437496E+03  0.27804437501E+03  0.50400000000E-02 0. -1.
         -1   -1    0    0    0  501 -0.00000000000E+00 -0.00000000000E+00 -0.14600016785E+04  0.14600016785E+04  0.50400000000E-02 0.  1.
    8880022    1    1    2    0    0  0.13725469338E+03  0.32250587918E+03 -0.12860629235E+04  0.13417147197E+04  0.15294330000E+03 0.  0.
    8880022    1    1    2    0    0 -0.13725469338E+03 -0.32250587918E+03  0.10410562001E+03  0.39633133372E+03  0.15294330000E+03 0.  0.
<mgrwt>
<rscale>  0 0.38241410E+03</rscale>
<asrwt>0</asrwt>
<pdfrwt beam="1">  1        1 0.42776059E-01 0.38241410E+03</pdfrwt>
<pdfrwt beam="2">  1       -1 0.22461564E+00 0.38241410E+03</pdfrwt>
<totfact> 0.10887998E+01</totfact>
</mgrwt>
</event>
<event>
 4    1  0.1852677E-008  0.2230029E+03  0.7818608E-02  0.1131664E+00
         -1   -1    0    0    0  501 -0.00000000000E+00  0.00000000000E+00  0.12894552737E+03  0.12894552747E+03  0.50400000000E-02 0.  1.
          1   -1    0    0  501    0  0.00000000000E+00 -0.00000000000E+00 -0.48101155366E+03  0.48101155368E+03  0.50400000000E-02 0. -1.
    8880022    1    1    2    0    0 -0.99959896655E+02 -0.12785409956E+03 -0.40253357139E+02  0.22660679047E+03  0.15294330000E+03 0.  0.
    8880022    1    1    2    0    0  0.99959896655E+02  0.12785409956E+03 -0.31181266914E+03  0.38335029068E+03  0.15294330000E+03 0.  0.
<mgrwt>
<rscale>  0 0.22300293E+03</rscale>
<asrwt>0</asrwt>
<pdfrwt beam="1">  1        1 0.74001777E-01 0.22300293E+03</pdfrwt>
<pdfrwt beam="2">  1       -1 0.19837774E-01 0.22300293E+03</pdfrwt>
<totfact> 0.97303743E+02</totfact>
</mgrwt>
</event>
<event>
 4    1  0.1852677E-008  0.7861820E+03  0.7818608E-02  0.9580236E-01
         -1   -1    0    0    0  501 -0.00000000000E+00  0.00000000000E+00  0.11681053410E+04  0.11681053410E+04  0.50400000000E-02 0.  1.
          1   -1    0    0  501    0  0.00000000000E+00 -0.00000000000E+00 -0.93193764437E+03  0.93193764438E+03  0.50400000000E-02 0. -1.
    8880022    1    1    2    0    0 -0.31044370277E+03 -0.70591447443E+03 -0.57223925425E+03  0.97238878794E+03  0.15294330000E+03 0.  0.
    8880022    1    1    2    0    0  0.31044370277E+03  0.70591447443E+03  0.80840695090E+03  0.11276541975E+04  0.15294330000E+03 0.  0.
<mgrwt>
<rscale>  0 0.78618203E+03</rscale>
<asrwt>0</asrwt>
<pdfrwt beam="1">  1        1 0.14337502E+00 0.78618203E+03</pdfrwt>
<pdfrwt beam="2">  1       -1 0.17970851E+00 0.78618203E+03</pdfrwt>
<totfact> 0.37007859E+00</totfact>
</mgrwt>
</event>
<event>
 4    1  0.1852677E-008  0.5292635E+03  0.7818608E-02  0.1006411E+00
          1   -1    0    0  501    0  0.00000000000E+00  0.00000000000E+00  0.15185026351E+04  0.15185026351E+04  0.50400000000E-02 0. -1.
         -1   -1    0    0    0  501 -0.00000000000E+00 -0.00000000000E+00 -0.32394637625E+03  0.32394637629E+03  0.50400000000E-02 0.  1.
    8880022    1    1    2    0    0  0.22368450002E+03 -0.45463551496E+03 -0.71957314295E+01  0.52931242057E+03  0.15294330000E+03 0.  0.
    8880022    1    1    2    0    0 -0.22368450002E+03  0.45463551496E+03  0.12017519903E+04  0.13131365908E+04  0.15294330000E+03 0. -1.
<mgrwt>
<rscale>  0 0.52926351E+03</rscale>
<asrwt>0</asrwt>
<pdfrwt beam="1">  1        1 0.23361579E+00 0.52926351E+03</pdfrwt>
<pdfrwt beam="2">  1       -1 0.49837903E-01 0.52926351E+03</pdfrwt>
<totfact> 0.27385725E+01</totfact>
</mgrwt>
</event>
<event>
 4    1  0.1852677E-008  0.3787838E+03  0.7818608E-02  0.1051384E+00
         -1   -1    0    0    0  501 -0.00000000000E+00  0.00000000000E+00  0.60173776006E+03  0.60173776008E+03  0.50400000000E-02 0.  1.
          1   -1    0    0  501    0  0.00000000000E+00 -0.00000000000E+00 -0.75043861115E+03  0.75043861116E+03  0.50400000000E-02 0. -1.
    8880022    1    1    2    0    0 -0.19036234738E+03 -0.28956460131E+03 -0.63279620173E+03  0.73750130004E+03  0.15294330000E+03 0.  0.
    8880022    1    1    2    0    0  0.19036234738E+03  0.28956460131E+03  0.48409535065E+03  0.61467507120E+03  0.15294330000E+03 0.  0.
<mgrwt>
<rscale>  0 0.37878376E+03</rscale>
<asrwt>0</asrwt>
<pdfrwt beam="1">  1        1 0.11545209E+00 0.37878376E+03</pdfrwt>
<pdfrwt beam="2">  1       -1 0.92575040E-01 0.37878376E+03</pdfrwt>
<totfact> 0.30064466E+01</totfact>
</mgrwt>
</event>
<event>
 4    1  0.1852677E-008  0.5410125E+03  0.7818608E-02  0.1003596E+00
         -1   -1    0    0    0  501 -0.00000000000E+00  0.00000000000E+00  0.67467790582E+03  0.67467790584E+03  0.50400000000E-02 0.  1.
          1   -1    0    0  501    0  0.00000000000E+00 -0.00000000000E+00 -0.14376336267E+04  0.14376336267E+04  0.50400000000E-02 0. -1.
    8880022    1    1    2    0    0 -0.15861987348E+03 -0.49410793536E+03  0.50105024905E+03  0.73739129446E+03  0.15294330000E+03 0.  0.
    8880022    1    1    2    0    0  0.15861987348E+03  0.49410793536E+03 -0.12640059699E+04  0.13749202381E+04  0.15294330000E+03 0.  0.
<mgrwt>
<rscale>  0 0.54101254E+03</rscale>
<asrwt>0</asrwt>
<pdfrwt beam="1">  1        1 0.22117440E+00 0.54101254E+03</pdfrwt>
<pdfrwt beam="2">  1       -1 0.10379660E+00 0.54101254E+03</pdfrwt>
<totfact> 0.68365890E+00</totfact>
</mgrwt>
</event>
<event>
 4    1  0.1852677E-008  0.5276461E+03  0.7818608E-02  0.1006805E+00
          1   -1    0    0  501    0  0.00000000000E+00  0.00000000000E+00  0.94309365824E+03  0.94309365826E+03  0.50400000000E-02 0. -1.
         -1   -1    0    0    0  501 -0.00000000000E+00 -0.00000000000E+00 -0.66979504793E+03  0.66979504795E+03  0.50400000000E-02 0.  1.
    8880022    1    1    2    0    0  0.26309605328E+02  0.50430805049E+03 -0.46643606554E+03  0.70425354907E+03  0.15294330000E+03 0.  0.
    8880022    1    1    2    0    0 -0.26309605328E+02 -0.50430805049E+03  0.73973467585E+03  0.90863515714E+03  0.15294330000E+03 0. -1.
<mgrwt>
<rscale>  0 0.52764615E+03</rscale>
<asrwt>0</asrwt>
<pdfrwt beam="1">  1        1 0.14509133E+00 0.52764615E+03</pdfrwt>
<pdfrwt beam="2">  1       -1 0.10304539E+00 0.52764615E+03</pdfrwt>
<totfact> 0.15900912E+01</totfact>
</mgrwt>
</event>
<event>
 4    1  0.1852677E-008  0.5428987E+03  0.7818608E-02  0.1003151E+00
         -1   -1    0    0    0  501 -0.00000000000E+00  0.00000000000E+00  0.12451258861E+04  0.12451258861E+04  0.50400000000E-02 0.  1.
          1   -1    0    0  501    0  0.00000000000E+00 -0.00000000000E+00 -0.49752148918E+03  0.49752148920E+03  0.50400000000E-02 0. -1.
    8880022    1    1    2    0    0 -0.39965566758E+03  0.33409976575E+03  0.10046628994E+04  0.11419660681E+04  0.15294330000E+03 0.  0.
    8880022    1    1    2    0    0  0.39965566758E+03 -0.33409976575E+03 -0.25705850254E+03  0.60068130722E+03  0.15294330000E+03 0.  0.
<mgrwt>
<rscale>  0 0.54289866E+03</rscale>
<asrwt>0</asrwt>
<pdfrwt beam="1">  1        1 0.76541769E-01 0.54289866E+03</pdfrwt>
<pdfrwt beam="2">  1       -1 0.19155782E+00 0.54289866E+03</pdfrwt>
<totfact> 0.81982900E+00</totfact>
</mgrwt>
</event>
<event>
 4    1  0.1852677E-008  0.1631016E+03  0.7818608E-02  0.1185239E+00
          1   -1    0    0  501    0  0.00000000000E+00  0.00000000000E+00  0.31126580528E+03  0.31126580532E+03  0.50400000000E-02 0. -1.
         -1   -1    0    0    0  501 -0.00000000000E+00 -0.00000000000E+00 -0.10837236222E+04  0.10837236222E+04  0.50400000000E-02 0.  1.
    8880022    1    1    2    0    0  0.53283468939E+02 -0.19270415466E+02 -0.10556560657E+04  0.10681815665E+04  0.15294330000E+03 0.  1.
    8880022    1    1    2    0    0 -0.53283468939E+02  0.19270415466E+02  0.28319824872E+03  0.32680786108E+03  0.15294330000E+03 0.  0.
<mgrwt>
<rscale>  0 0.16310159E+03</rscale>
<asrwt>0</asrwt>
<pdfrwt beam="1">  1        1 0.47887048E-01 0.16310159E+03</pdfrwt>
<pdfrwt beam="2">  1       -1 0.16672671E+00 0.16310159E+03</pdfrwt>
<totfact> 0.24968978E+01</totfact>
</mgrwt>
</event>
<event>
 4    1  0.1852677E-008  0.6671944E+03  0.7818608E-02  0.9775040E-01
          1   -1    0    0  501    0  0.00000000000E+00  0.00000000000E+00  0.48702828958E+03  0.48702828961E+03  0.50400000000E-02 0. -1.
         -1   -1    0    0    0  501 -0.00000000000E+00 -0.00000000000E+00 -0.10039629969E+04  0.10039629969E+04  0.50400000000E-02 0.  1.
    8880022    1    1    2    0    0  0.17650319160E+01  0.64942554956E+03 -0.48161696161E+03  0.82286281389E+03  0.15294330000E+03 0.  1.
    8880022    1    1    2    0    0 -0.17650319160E+01 -0.64942554956E+03 -0.35317745699E+02  0.66812847262E+03  0.15294330000E+03 0. -1.
<mgrwt>
<rscale>  0 0.66719436E+03</rscale>
<asrwt>0</asrwt>
<pdfrwt beam="1">  1        1 0.74927430E-01 0.66719436E+03</pdfrwt>
<pdfrwt beam="2">  1       -1 0.15445584E+00 0.66719436E+03</pdfrwt>
<totfact> 0.15371606E+01</totfact>
</mgrwt>
</event>
<event>
 4    1  0.1852677E-008  0.5652715E+03  0.7818608E-02  0.9980197E-01
         -1   -1    0    0    0  501 -0.00000000000E+00  0.00000000000E+00  0.56810989156E+03  0.56810989158E+03  0.50400000000E-02 0.  1.
          1   -1    0    0  501    0  0.00000000000E+00 -0.00000000000E+00 -0.83864505915E+03  0.83864505917E+03  0.50400000000E-02 0. -1.
    8880022    1    1    2    0    0  0.54383957324E+03 -0.19459861546E+02  0.26838664840E+03  0.62575012081E+03  0.15294330000E+03 0.  0.
    8880022    1    1    2    0    0 -0.54383957324E+03  0.19459861546E+02 -0.53892181599E+03  0.78100482995E+03  0.15294330000E+03 0.  0.
<mgrwt>
<rscale>  0 0.56527146E+03</rscale>
<asrwt>0</asrwt>
<pdfrwt beam="1">  1        1 0.12902232E+00 0.56527146E+03</pdfrwt>
<pdfrwt beam="2">  1       -1 0.87401522E-01 0.56527146E+03</pdfrwt>
<totfact> 0.27712050E+01</totfact>
</mgrwt>
</event>
<event>
 4    1  0.1852677E-008  0.3249030E+03  0.7818608E-02  0.1073415E+00
         -1   -1    0    0    0  501 -0.00000000000E+00  0.00000000000E+00  0.11979326005E+03  0.11979326016E+03  0.50400000000E-02 0.  1.
          1   -1    0    0  501    0  0.00000000000E+00 -0.00000000000E+00 -0.93393146986E+03  0.93393146988E+03  0.50400000000E-02 0. -1.
    8880022    1    1    2    0    0  0.23148628661E+03  0.16906925587E+03 -0.28187912223E+03  0.43013696276E+03  0.15294330000E+03 0.  0.
    8880022    1    1    2    0    0 -0.23148628661E+03 -0.16906925587E+03 -0.53225908758E+03  0.62358776727E+03  0.15294330000E+03 0.  0.
<mgrwt>
<rscale>  0 0.32490301E+03</rscale>
<asrwt>0</asrwt>
<pdfrwt beam="1">  1        1 0.14368176E+00 0.32490301E+03</pdfrwt>
<pdfrwt beam="2">  1       -1 0.18429733E-01 0.32490301E+03</pdfrwt>
<totfact> 0.41434419E+02</totfact>
</mgrwt>
</event>
<event>
 4    1  0.1852677E-008  0.4323848E+03  0.7818608E-02  0.1033109E+00
         -1   -1    0    0    0  501 -0.00000000000E+00  0.00000000000E+00  0.62552018611E+03  0.62552018613E+03  0.50400000000E-02 0.  1.
          1   -1    0    0  501    0  0.00000000000E+00 -0.00000000000E+00 -0.62179687286E+03  0.62179687288E+03  0.50400000000E-02 0. -1.
    8880022    1    1    2    0    0  0.35908325976E+03  0.18607583338E+03  0.45129645645E+03  0.62500011827E+03  0.15294330000E+03 0.  0.
    8880022    1    1    2    0    0 -0.35908325976E+03 -0.18607583338E+03 -0.44757314320E+03  0.62231694074E+03  0.15294330000E+03 0.  0.
<mgrwt>
<rscale>  0 0.43238485E+03</rscale>
<asrwt>0</asrwt>
<pdfrwt beam="1">  1        1 0.95661057E-01 0.43238485E+03</pdfrwt>
<pdfrwt beam="2">  1       -1 0.96233875E-01 0.43238485E+03</pdfrwt>
<totfact> 0.36039188E+01</totfact>
</mgrwt>
</event>
<event>
 4    1  0.1852677E-008  0.6363433E+03  0.7818608E-02  0.9832748E-01
          1   -1    0    0  501    0  0.00000000000E+00  0.00000000000E+00  0.16875693920E+04  0.16875693920E+04  0.50400000000E-02 0. -1.
         -1   -1    0    0    0  501 -0.00000000000E+00 -0.00000000000E+00 -0.31906583674E+03  0.31906583678E+03  0.50400000000E-02 0.  1.
    8880022    1    1    2    0    0 -0.39211601961E+03  0.47726948862E+03  0.18464403602E+03  0.66259053016E+03  0.15294330000E+03 0.  0.
    8880022    1    1    2    0    0  0.39211601961E+03 -0.47726948862E+03  0.11838595193E+04  0.13440446987E+04  0.15294330000E+03 0.  0.
<mgrwt>
<rscale>  0 0.63634330E+03</rscale>
<asrwt>0</asrwt>
<pdfrwt beam="1">  1        1 0.25962606E+00 0.63634330E+03</pdfrwt>
<pdfrwt beam="2">  1       -1 0.49087051E-01 0.63634330E+03</pdfrwt>
<totfact> 0.21294083E+01</totfact>
</mgrwt>
</event>
<event>
 4    1  0.1852677E-008  0.9046938E+03  0.7818608E-02  0.9419733E-01
          1   -1    0    0  501    0  0.00000000000E+00  0.00000000000E+00  0.25560313714E+04  0.25560313714E+04  0.50400000000E-02 0. -1.
         -1   -1    0    0    0  501 -0.00000000000E+00 -0.00000000000E+00 -0.58524106387E+03  0.58524106389E+03  0.50400000000E-02 0.  1.
    8880022    1    1    2    0    0 -0.57694594902E+03  0.67986223044E+03  0.20423471878E+04  0.22337531128E+04  0.15294330000E+03 0.  0.
    8880022    1    1    2    0    0  0.57694594902E+03 -0.67986223044E+03 -0.71556880315E+02  0.90751932244E+03  0.15294330000E+03 0.  0.
<mgrwt>
<rscale>  0 0.90469383E+03</rscale>
<asrwt>0</asrwt>
<pdfrwt beam="1">  1        1 0.39323559E+00 0.90469383E+03</pdfrwt>
<pdfrwt beam="2">  1       -1 0.90037087E-01 0.90469383E+03</pdfrwt>
<totfact> 0.15477690E+00</totfact>
</mgrwt>
</event>
<event>
 4    1  0.1852677E-008  0.3705419E+03  0.7818608E-02  0.1054486E+00
          1   -1    0    0  501    0  0.00000000000E+00  0.00000000000E+00  0.21978785702E+04  0.21978785702E+04  0.50400000000E-02 0. -1.
         -1   -1    0    0    0  501 -0.00000000000E+00 -0.00000000000E+00 -0.53080197189E+03  0.53080197192E+03  0.50400000000E-02 0.  1.
    8880022    1    1    2    0    0 -0.33665438814E+03 -0.23947346102E+02  0.21150818625E+04  0.21472942487E+04  0.15294330000E+03 0.  0.
    8880022    1    1    2    0    0  0.33665438814E+03  0.23947346102E+02 -0.44800526418E+03  0.58138629343E+03  0.15294330000E+03 0.  0.
<mgrwt>
<rscale>  0 0.37054191E+03</rscale>
<asrwt>0</asrwt>
<pdfrwt beam="1">  1        1 0.33813516E+00 0.37054191E+03</pdfrwt>
<pdfrwt beam="2">  1       -1 0.81661842E-01 0.37054191E+03</pdfrwt>
<totfact> 0.38105623E+00</totfact>
</mgrwt>
</event>
<event>
 4    1  0.1852677E-008  0.1133992E+04  0.7818608E-02  0.9172680E-01
         -1   -1    0    0    0  501 -0.00000000000E+00  0.00000000000E+00  0.28569758318E+04  0.28569758318E+04  0.50400000000E-02 0.  1.
          1   -1    0    0  501    0  0.00000000000E+00 -0.00000000000E+00 -0.79025577380E+03  0.79025577382E+03  0.50400000000E-02 0. -1.
    8880022    1    1    2    0    0 -0.11227026506E+04 -0.45664733578E+02 -0.16306489255E+03  0.11456562843E+04  0.15294330000E+03 0.  0.
    8880022    1    1    2    0    0  0.11227026506E+04  0.45664733578E+02  0.22297849506E+04  0.25015753213E+04  0.15294330000E+03 0.  0.
<mgrwt>
<rscale>  0 0.11339921E+04</rscale>
<asrwt>0</asrwt>
<pdfrwt beam="1">  1        1 0.12157781E+00 0.11339921E+04</pdfrwt>
<pdfrwt beam="2">  1       -1 0.43953474E+00 0.11339921E+04</pdfrwt>
<totfact> 0.86510514E-02</totfact>
</mgrwt>
</event>
<event>
 4    1  0.1852677E-008  0.1084826E+04  0.7818608E-02  0.9220109E-01
         -1   -1    0    0    0  501 -0.00000000000E+00  0.00000000000E+00  0.23019916406E+04  0.23019916407E+04  0.50400000000E-02 0.  1.
          1   -1    0    0  501    0  0.00000000000E+00 -0.00000000000E+00 -0.68719300682E+03  0.68719300684E+03  0.50400000000E-02 0. -1.
    8880022    1    1    2    0    0  0.27571247925E+03  0.10379973643E+04  0.51099713311E+02  0.10860288823E+04  0.15294330000E+03 0. -1.
    8880022    1    1    2    0    0 -0.27571247925E+03 -0.10379973643E+04  0.15636989205E+04  0.19031557652E+04  0.15294330000E+03 0.  0.
<mgrwt>
<rscale>  0 0.10848260E+04</rscale>
<asrwt>0</asrwt>
<pdfrwt beam="1">  1        1 0.10572200E+00 0.10848260E+04</pdfrwt>
<pdfrwt beam="2">  1       -1 0.35415256E+00 0.10848260E+04</pdfrwt>
<totfact> 0.41184741E-01</totfact>
</mgrwt>
</event>
<event>
 4    1  0.1852677E-008  0.3961943E+03  0.7818608E-02  0.1045105E+00
         -1   -1    0    0    0  501 -0.00000000000E+00  0.00000000000E+00  0.51797998972E+03  0.51797998974E+03  0.50400000000E-02 0.  1.
          1   -1    0    0  501    0  0.00000000000E+00 -0.00000000000E+00 -0.12702324055E+04  0.12702324056E+04  0.50400000000E-02 0. -1.
    8880022    1    1    2    0    0 -0.22153850003E+03  0.29068704948E+03  0.40406922187E+03  0.56589915781E+03  0.15294330000E+03 0.  0.
    8880022    1    1    2    0    0  0.22153850003E+03 -0.29068704948E+03 -0.11563216377E+04  0.12223132375E+04  0.15294330000E+03 0.  0.
<mgrwt>
<rscale>  0 0.39619430E+03</rscale>
<asrwt>0</asrwt>
<pdfrwt beam="1">  1        1 0.19542037E+00 0.39619430E+03</pdfrwt>
<pdfrwt beam="2">  1       -1 0.79689229E-01 0.39619430E+03</pdfrwt>
<totfact> 0.16478876E+01</totfact>
</mgrwt>
</event>
<event>
 4    1  0.1852677E-008  0.3065027E+03  0.7818608E-02  0.1082034E+00
          1   -1    0    0  501    0  0.00000000000E+00  0.00000000000E+00  0.11693532432E+04  0.11693532432E+04  0.50400000000E-02 0. -1.
         -1   -1    0    0    0  501 -0.00000000000E+00 -0.00000000000E+00 -0.40707191334E+03  0.40707191337E+03  0.50400000000E-02 0.  1.
    8880022    1    1    2    0    0  0.22371840118E+03 -0.14318629422E+03 -0.32502187773E+03  0.44674725729E+03  0.15294330000E+03 0.  0.
    8880022    1    1    2    0    0 -0.22371840118E+03  0.14318629422E+03  0.10873032076E+04  0.11296778993E+04  0.15294330000E+03 0.  0.
<mgrwt>
<rscale>  0 0.30650268E+03</rscale>
<asrwt>0</asrwt>
<pdfrwt beam="1">  1        1 0.17990049E+00 0.30650268E+03</pdfrwt>
<pdfrwt beam="2">  1       -1 0.62626450E-01 0.30650268E+03</pdfrwt>
<totfact> 0.32375225E+01</totfact>
</mgrwt>
</event>
<event>
 4    1  0.1852677E-008  0.2732742E+03  0.7818608E-02  0.1099420E+00
         -1   -1    0    0    0  501 -0.00000000000E+00  0.00000000000E+00  0.21721067509E+03  0.21721067515E+03  0.50400000000E-02 0.  1.
          1   -1    0    0  501    0  0.00000000000E+00 -0.00000000000E+00 -0.29548062928E+04  0.29548062928E+04  0.50400000000E-02 0. -1.
    8880022    1    1    2    0    0  0.18465948620E+03 -0.13110308852E+03 -0.28596832734E+04  0.28727107796E+04  0.15294330000E+03 0.  0.
    8880022    1    1    2    0    0 -0.18465948620E+03  0.13110308852E+03  0.12208765578E+03  0.29930618833E+03  0.15294330000E+03 0.  0.
<mgrwt>
<rscale>  0 0.27327422E+03</rscale>
<asrwt>0</asrwt>
<pdfrwt beam="1">  1        1 0.45458555E+00 0.27327422E+03</pdfrwt>
<pdfrwt beam="2">  1       -1 0.33417029E-01 0.27327422E+03</pdfrwt>
<totfact> 0.66723976E+00</totfact>
</mgrwt>
</event>
<event>
 4    1  0.1852677E-008  0.3811312E+03  0.7818608E-02  0.1050516E+00
         -1   -1    0    0    0  501 -0.00000000000E+00  0.00000000000E+00  0.13009040913E+04  0.13009040913E+04  0.50400000000E-02 0.  1.
          1   -1    0    0  501    0  0.00000000000E+00 -0.00000000000E+00 -0.14325555519E+04  0.14325555519E+04  0.50400000000E-02 0. -1.
    8880022    1    1    2    0    0  0.12723571541E+03  0.32508529421E+03 -0.13782096815E+04  0.14299380948E+04  0.15294330000E+03 0.  0.
    8880022    1    1    2    0    0 -0.12723571541E+03 -0.32508529421E+03  0.12465582210E+04  0.13035215484E+04  0.15294330000E+03 0.  0.
<mgrwt>
<rscale>  0 0.38113125E+03</rscale>
<asrwt>0</asrwt>
<pdfrwt beam="1">  1        1 0.22039316E+00 0.38113125E+03</pdfrwt>
<pdfrwt beam="2">  1       -1 0.20013909E+00 0.38113125E+03</pdfrwt>
<totfact> 0.12789168E+00</totfact>
</mgrwt>
</event>
<event>
 4    1  0.1852677E-008  0.4888089E+03  0.7818608E-02  0.1016742E+00
         -1   -1    0    0    0  501 -0.00000000000E+00  0.00000000000E+00  0.44245089952E+03  0.44245089955E+03  0.50400000000E-02 0.  1.
          1   -1    0    0  501    0  0.00000000000E+00 -0.00000000000E+00 -0.13726484162E+04  0.13726484162E+04  0.50400000000E-02 0. -1.
    8880022    1    1    2    0    0 -0.45863263634E+03 -0.72101413370E+02  0.24173173647E+03  0.54531494969E+03  0.15294330000E+03 0.  0.
    8880022    1    1    2    0    0  0.45863263634E+03  0.72101413370E+02 -0.11719292532E+04  0.12697843661E+04  0.15294330000E+03 0.  0.
<mgrwt>
<rscale>  0 0.48880892E+03</rscale>
<asrwt>0</asrwt>
<pdfrwt beam="1">  1        1 0.21117668E+00 0.48880892E+03</pdfrwt>
<pdfrwt beam="2">  1       -1 0.68069370E-01 0.48880892E+03</pdfrwt>
<totfact> 0.18930495E+01</totfact>
</mgrwt>
</event>
<event>
 4    1  0.1852677E-008  0.2531744E+03  0.7818608E-02  0.1111315E+00
          1   -1    0    0  501    0  0.00000000000E+00  0.00000000000E+00  0.17329615146E+04  0.17329615146E+04  0.50400000000E-02 0. -1.
         -1   -1    0    0    0  501 -0.00000000000E+00 -0.00000000000E+00 -0.46255449340E+03  0.46255449343E+03  0.50400000000E-02 0.  1.
    8880022    1    1    2    0    0 -0.18979947628E+03 -0.68423642886E+02  0.16881573022E+04  0.17070361350E+04  0.15294330000E+03 0.  0.
    8880022    1    1    2    0    0  0.18979947628E+03  0.68423642886E+02 -0.41775028100E+03  0.48847987307E+03  0.15294330000E+03 0.  0.
<mgrwt>
<rscale>  0 0.25317442E+03</rscale>
<asrwt>0</asrwt>
<pdfrwt beam="1">  1        1 0.26660947E+00 0.25317442E+03</pdfrwt>
<pdfrwt beam="2">  1       -1 0.71162229E-01 0.25317442E+03</pdfrwt>
<totfact> 0.10715540E+01</totfact>
</mgrwt>
</event>
<event>
 4    1  0.1852677E-008  0.6577253E+03  0.7818608E-02  0.9792390E-01
          1   -1    0    0  501    0  0.00000000000E+00  0.00000000000E+00  0.11511672314E+04  0.11511672315E+04  0.50400000000E-02 0. -1.
         -1   -1    0    0    0  501 -0.00000000000E+00 -0.00000000000E+00 -0.85306462856E+03  0.85306462858E+03  0.50400000000E-02 0.  1.
    8880022    1    1    2    0    0  0.57848055135E+03 -0.27307714647E+03 -0.60051325115E+03  0.89062825805E+03  0.15294330000E+03 0.  0.
    8880022    1    1    2    0    0 -0.57848055135E+03  0.27307714647E+03  0.89861585403E+03  0.11136036020E+04  0.15294330000E+03 0.  0.
<mgrwt>
<rscale>  0 0.65772527E+03</rscale>
<asrwt>0</asrwt>
<pdfrwt beam="1">  1        1 0.17710265E+00 0.65772527E+03</pdfrwt>
<pdfrwt beam="2">  1       -1 0.13124071E+00 0.65772527E+03</pdfrwt>
<totfact> 0.60507996E+00</totfact>
</mgrwt>
</event>
<event>
 4    1  0.1852677E-008  0.3500562E+03  0.7818608E-02  0.1062592E+00
         -1   -1    0    0    0  501 -0.00000000000E+00  0.00000000000E+00  0.44063818213E+03  0.44063818216E+03  0.50400000000E-02 0.  1.
          1   -1    0    0  501    0  0.00000000000E+00 -0.00000000000E+00 -0.62716205896E+03  0.62716205898E+03  0.50400000000E-02 0. -1.
    8880022    1    1    2    0    0 -0.31280612976E+03  0.36056168972E+02  0.30505100818E+03  0.46432261709E+03  0.15294330000E+03 0.  0.
    8880022    1    1    2    0    0  0.31280612976E+03 -0.36056168972E+02 -0.49157488501E+03  0.60347762405E+03  0.15294330000E+03 0.  0.
<mgrwt>
<rscale>  0 0.35005625E+03</rscale>
<asrwt>0</asrwt>
<pdfrwt beam="1">  1        1 0.96486470E-01 0.35005625E+03</pdfrwt>
<pdfrwt beam="2">  1       -1 0.67790490E-01 0.35005625E+03</pdfrwt>
<totfact> 0.75467097E+01</totfact>
</mgrwt>
</event>
<event>
 4    1  0.1852677E-008  0.2711956E+03  0.7818608E-02  0.1100597E+00
          1   -1    0    0  501    0  0.00000000000E+00  0.00000000000E+00  0.17584021819E+03  0.17584021827E+03  0.50400000000E-02 0. -1.
         -1   -1    0    0    0  501 -0.00000000000E+00 -0.00000000000E+00 -0.44794365178E+03  0.44794365181E+03  0.50400000000E-02 0.  1.
    8880022    1    1    2    0    0  0.20252016679E+03  0.95608591691E+02 -0.21633869665E+03  0.34691426239E+03  0.15294330000E+03 0.  1.
    8880022    1    1    2    0    0 -0.20252016679E+03 -0.95608591691E+02 -0.55764736931E+02  0.27686960769E+03  0.15294330000E+03 0. -1.
<mgrwt>
<rscale>  0 0.27119564E+03</rscale>
<asrwt>0</asrwt>
<pdfrwt beam="1">  1        1 0.27052341E-01 0.27119564E+03</pdfrwt>
<pdfrwt beam="2">  1       -1 0.68914408E-01 0.27119564E+03</pdfrwt>
<totfact> 0.38414357E+02</totfact>
</mgrwt>
</event>
<event>
 4    1  0.1852677E-008  0.6855336E+03  0.7818608E-02  0.9742297E-01
          1   -1    0    0  501    0  0.00000000000E+00  0.00000000000E+00  0.20984203970E+04  0.20984203971E+04  0.50400000000E-02 0. -1.
         -1   -1    0    0    0  501 -0.00000000000E+00 -0.00000000000E+00 -0.34275286613E+03  0.34275286617E+03  0.50400000000E-02 0.  1.
    8880022    1    1    2    0    0  0.18828640054E+03 -0.64118087118E+03  0.15924837689E+03  0.70378716723E+03  0.15294330000E+03 0.  0.
    8880022    1    1    2    0    0 -0.18828640054E+03  0.64118087118E+03  0.15964191540E+04  0.17373860960E+04  0.15294330000E+03 0.  0.
<mgrwt>
<rscale>  0 0.68553361E+03</rscale>
<asrwt>0</asrwt>
<pdfrwt beam="1">  1        1 0.32283392E+00 0.68553361E+03</pdfrwt>
<pdfrwt beam="2">  1       -1 0.52731208E-01 0.68553361E+03</pdfrwt>
<totfact> 0.98066153E+00</totfact>
</mgrwt>
</event>
<event>
 4    1  0.1852677E-008  0.6588274E+03  0.7818608E-02  0.9790355E-01
         -1   -1    0    0    0  501 -0.00000000000E+00  0.00000000000E+00  0.23383555991E+03  0.23383555996E+03  0.50400000000E-02 0.  1.
          1   -1    0    0  501    0  0.00000000000E+00 -0.00000000000E+00 -0.34669876534E+04  0.34669876534E+04  0.50400000000E-02 0. -1.
    8880022    1    1    2    0    0 -0.63475748567E+03 -0.88004764747E+02 -0.28778421830E+04  0.29522921921E+04  0.15294330000E+03 0.  0.
    8880022    1    1    2    0    0  0.63475748567E+03  0.88004764747E+02 -0.35530991041E+03  0.74853102119E+03  0.15294330000E+03 0.  0.
<mgrwt>
<rscale>  0 0.65882741E+03</rscale>
<asrwt>0</asrwt>
<pdfrwt beam="1">  1        1 0.53338268E+00 0.65882741E+03</pdfrwt>
<pdfrwt beam="2">  1       -1 0.35974704E-01 0.65882741E+03</pdfrwt>
<totfact> 0.21691625E+00</totfact>
</mgrwt>
</event>
<event>
 4    1  0.1852677E-008  0.1413399E+04  0.7818608E-02  0.8944176E-01
         -1   -1    0    0    0  501 -0.00000000000E+00  0.00000000000E+00  0.15136013538E+04  0.15136013538E+04  0.50400000000E-02 0.  1.
          1   -1    0    0  501    0  0.00000000000E+00 -0.00000000000E+00 -0.14542687856E+04  0.14542687856E+04  0.50400000000E-02 0. -1.
    8880022    1    1    2    0    0 -0.91234478520E+03 -0.10686123624E+04 -0.42151829068E+03  0.14749151537E+04  0.15294330000E+03 0.  0.
    8880022    1    1    2    0    0  0.91234478520E+03  0.10686123624E+04  0.48085085884E+03  0.14929549858E+04  0.15294330000E+03 0.  0.
<mgrwt>
<rscale>  0 0.14133991E+04</rscale>
<asrwt>0</asrwt>
<pdfrwt beam="1">  1        1 0.22373366E+00 0.14133991E+04</pdfrwt>
<pdfrwt beam="2">  1       -1 0.23286175E+00 0.14133991E+04</pdfrwt>
<totfact> 0.60771279E-01</totfact>
</mgrwt>
</event>
<event>
 4    1  0.1852677E-008  0.2532599E+03  0.7818608E-02  0.1111262E+00
          1   -1    0    0  501    0  0.00000000000E+00  0.00000000000E+00  0.10629006297E+04  0.10629006297E+04  0.50400000000E-02 0. -1.
         -1   -1    0    0    0  501 -0.00000000000E+00 -0.00000000000E+00 -0.10757884898E+03  0.10757884910E+03  0.50400000000E-02 0.  1.
    8880022    1    1    2    0    0  0.19898432814E+03 -0.33972905932E+02  0.86545190388E+03  0.90174695571E+03  0.15294330000E+03 0.  0.
    8880022    1    1    2    0    0 -0.19898432814E+03  0.33972905932E+02  0.89869876808E+02  0.26873252307E+03  0.15294330000E+03 0.  0.
<mgrwt>
<rscale>  0 0.25325989E+03</rscale>
<asrwt>0</asrwt>
<pdfrwt beam="1">  1        1 0.16352318E+00 0.25325989E+03</pdfrwt>
<pdfrwt beam="2">  1       -1 0.16550592E-01 0.25325989E+03</pdfrwt>
<totfact> 0.39705458E+02</totfact>
</mgrwt>
</event>
<event>
 4    1  0.1852677E-008  0.5840084E+03  0.7818608E-02  0.9939150E-01
         -1   -1    0    0    0  501 -0.00000000000E+00  0.00000000000E+00  0.12798164198E+04  0.12798164198E+04  0.50400000000E-02 0.  1.
          1   -1    0    0  501    0  0.00000000000E+00 -0.00000000000E+00 -0.57628946962E+03  0.57628946964E+03  0.50400000000E-02 0. -1.
    8880022    1    1    2    0    0 -0.15452161578E+03 -0.54203068388E+03  0.10322015412E+04  0.11859620005E+04  0.15294330000E+03 0.  0.
    8880022    1    1    2    0    0  0.15452161578E+03  0.54203068388E+03 -0.32867459105E+03  0.67014388890E+03  0.15294330000E+03 0.  0.
<mgrwt>
<rscale>  0 0.58400843E+03</rscale>
<asrwt>0</asrwt>
<pdfrwt beam="1">  1        1 0.88659919E-01 0.58400843E+03</pdfrwt>
<pdfrwt beam="2">  1       -1 0.19689483E+00 0.58400843E+03</pdfrwt>
<totfact> 0.60994786E+00</totfact>
</mgrwt>
</event>
<event>
 4    1  0.1852677E-008  0.4395475E+03  0.7818608E-02  0.1030886E+00
          1   -1    0    0  501    0  0.00000000000E+00  0.00000000000E+00  0.15561111567E+04  0.15561111567E+04  0.50400000000E-02 0. -1.
         -1   -1    0    0    0  501 -0.00000000000E+00 -0.00000000000E+00 -0.67813993466E+03  0.67813993468E+03  0.50400000000E-02 0.  1.
    8880022    1    1    2    0    0  0.31677101568E+03 -0.26356486287E+03 -0.57071018541E+03  0.72035552477E+03  0.15294330000E+03 0.  0.
    8880022    1    1    2    0    0 -0.31677101568E+03  0.26356486287E+03  0.14486814074E+04  0.15138955666E+04  0.15294330000E+03 0.  0.
<mgrwt>
<rscale>  0 0.43954746E+03</rscale>
<asrwt>0</asrwt>
<pdfrwt beam="1">  1        1 0.23940171E+00 0.43954746E+03</pdfrwt>
<pdfrwt beam="2">  1       -1 0.10432922E+00 0.43954746E+03</pdfrwt>
<totfact> 0.57652523E+00</totfact>
</mgrwt>
</event>
<event>
 4    1  0.1852677E-008  0.3487782E+03  0.7818608E-02  0.1063118E+00
          1   -1    0    0  501    0  0.00000000000E+00  0.00000000000E+00  0.10222462494E+04  0.10222462495E+04  0.50400000000E-02 0. -1.
         -1   -1    0    0    0  501 -0.00000000000E+00 -0.00000000000E+00 -0.15239931210E+03  0.15239931218E+03  0.50400000000E-02 0.  1.
    8880022    1    1    2    0    0  0.23618353672E+03 -0.20608708936E+03  0.70987813561E+03  0.79093183767E+03  0.15294330000E+03 0.  0.
    8880022    1    1    2    0    0 -0.23618353672E+03  0.20608708936E+03  0.15996880173E+03  0.38371372396E+03  0.15294330000E+03 0.  0.
<mgrwt>
<rscale>  0 0.34877816E+03</rscale>
<asrwt>0</asrwt>
<pdfrwt beam="1">  1        1 0.15726865E+00 0.34877816E+03</pdfrwt>
<pdfrwt beam="2">  1       -1 0.23446048E-01 0.34877816E+03</pdfrwt>
<totfact> 0.23804078E+02</totfact>
</mgrwt>
</event>
<event>
 4    1  0.1852677E-008  0.3433477E+03  0.7818608E-02  0.1065379E+00
         -1   -1    0    0    0  501 -0.00000000000E+00  0.00000000000E+00  0.30652227253E+03  0.30652227257E+03  0.50400000000E-02 0.  1.
          1   -1    0    0  501    0  0.00000000000E+00 -0.00000000000E+00 -0.22386839971E+04  0.22386839971E+04  0.50400000000E-02 0. -1.
    8880022    1    1    2    0    0 -0.22430924988E+03 -0.21019363341E+03  0.19206058282E+03  0.39341444254E+03  0.15294330000E+03 0.  0.
    8880022    1    1    2    0    0  0.22430924988E+03  0.21019363341E+03 -0.21242223074E+04  0.21517918272E+04  0.15294330000E+03 0.  0.
<mgrwt>
<rscale>  0 0.34334772E+03</rscale>
<asrwt>0</asrwt>
<pdfrwt beam="1">  1        1 0.34441291E+00 0.34334772E+03</pdfrwt>
<pdfrwt beam="2">  1       -1 0.47157274E-01 0.34334772E+03</pdfrwt>
<totfact> 0.10633641E+01</totfact>
</mgrwt>
</event>
<event>
 4    1  0.1852677E-008  0.5268229E+03  0.7818608E-02  0.1007006E+00
         -1   -1    0    0    0  501 -0.00000000000E+00  0.00000000000E+00  0.16243435087E+04  0.16243435087E+04  0.50400000000E-02 0.  1.
          1   -1    0    0  501    0  0.00000000000E+00 -0.00000000000E+00 -0.86206415750E+03  0.86206415751E+03  0.50400000000E-02 0. -1.
    8880022    1    1    2    0    0  0.25717748547E+03 -0.43360178515E+03 -0.73206326825E+03  0.90191964656E+03  0.15294330000E+03 0.  0.
    8880022    1    1    2    0    0 -0.25717748547E+03  0.43360178515E+03  0.14943426194E+04  0.15844880196E+04  0.15294330000E+03 0.  0.
<mgrwt>
<rscale>  0 0.52682295E+03</rscale>
<asrwt>0</asrwt>
<pdfrwt beam="1">  1        1 0.13262526E+00 0.52682295E+03</pdfrwt>
<pdfrwt beam="2">  1       -1 0.24989900E+00 0.52682295E+03</pdfrwt>
<totfact> 0.15062222E+00</totfact>
</mgrwt>
</event>
<event>
 4    1  0.1852677E-008  0.1003307E+04  0.7818608E-02  0.9304925E-01
         -1   -1    0    0    0  501 -0.00000000000E+00  0.00000000000E+00  0.79729570035E+03  0.79729570037E+03  0.50400000000E-02 0.  1.
          1   -1    0    0  501    0  0.00000000000E+00 -0.00000000000E+00 -0.18676497492E+04  0.18676497492E+04  0.50400000000E-02 0. -1.
    8880022    1    1    2    0    0  0.65802322405E+02  0.98939564353E+03 -0.12936223068E+04  0.16370962130E+04  0.15294330000E+03 0.  0.
    8880022    1    1    2    0    0 -0.65802322405E+02 -0.98939564353E+03  0.22326825793E+03  0.10278492366E+04  0.15294330000E+03 0.  0.
<mgrwt>
<rscale>  0 0.10033072E+04</rscale>
<asrwt>0</asrwt>
<pdfrwt beam="1">  1        1 0.28733073E+00 0.10033072E+04</pdfrwt>
<pdfrwt beam="2">  1       -1 0.12266088E+00 0.10033072E+04</pdfrwt>
<totfact> 0.21684004E+00</totfact>
</mgrwt>
</event>
<event>
 4    1  0.1852677E-008  0.2400104E+03  0.7818608E-02  0.1119786E+00
          1   -1    0    0  501    0  0.00000000000E+00  0.00000000000E+00  0.85338421972E+02  0.85338422120E+02  0.50400000000E-02 0. -1.
         -1   -1    0    0    0  501 -0.00000000000E+00 -0.00000000000E+00 -0.73784748957E+03  0.73784748959E+03  0.50400000000E-02 0.  1.
    8880022    1    1    2    0    0 -0.60523362039E+02 -0.17478632642E+03 -0.20614828141E+03  0.31638916575E+03  0.15294330000E+03 0.  0.
    8880022    1    1    2    0    0  0.60523362039E+02  0.17478632642E+03 -0.44636078619E+03  0.50679674597E+03  0.15294330000E+03 0.  0.
<mgrwt>
<rscale>  0 0.24001040E+03</rscale>
<asrwt>0</asrwt>
<pdfrwt beam="1">  1        1 0.13128988E-01 0.24001040E+03</pdfrwt>
<pdfrwt beam="2">  1       -1 0.11351499E+00 0.24001040E+03</pdfrwt>
<totfact> 0.33654506E+02</totfact>
</mgrwt>
</event>
<event>
 4    1  0.1852677E-008  0.4449135E+03  0.7818608E-02  0.1029250E+00
         -1   -1    0    0    0  501 -0.00000000000E+00  0.00000000000E+00  0.88476670821E+03  0.88476670822E+03  0.50400000000E-02 0.  1.
          1   -1    0    0  501    0  0.00000000000E+00 -0.00000000000E+00 -0.10069228683E+04  0.10069228683E+04  0.50400000000E-02 0. -1.
    8880022    1    1    2    0    0  0.98934019506E+02  0.40591677958E+03  0.77309543201E+03  0.89197789893E+03  0.15294330000E+03 0.  1.
    8880022    1    1    2    0    0 -0.98934019506E+02 -0.40591677958E+03 -0.89525159210E+03  0.99971167760E+03  0.15294330000E+03 0.  0.
<mgrwt>
<rscale>  0 0.44491350E+03</rscale>
<asrwt>0</asrwt>
<pdfrwt beam="1">  1        1 0.15491121E+00 0.44491350E+03</pdfrwt>
<pdfrwt beam="2">  1       -1 0.13611796E+00 0.44491350E+03</pdfrwt>
<totfact> 0.73923761E+00</totfact>
</mgrwt>
</event>
<event>
 4    1  0.1852677E-008  0.4379195E+03  0.7818608E-02  0.1031387E+00
          1   -1    0    0  501    0  0.00000000000E+00  0.00000000000E+00  0.47018866826E+03  0.47018866828E+03  0.50400000000E-02 0. -1.
         -1   -1    0    0    0  501 -0.00000000000E+00 -0.00000000000E+00 -0.97798300136E+03  0.97798300138E+03  0.50400000000E-02 0.  1.
    8880022    1    1    2    0    0 -0.27882839436E+03  0.30105900476E+03 -0.80674653291E+03  0.91793976885E+03  0.15294330000E+03 0.  0.
    8880022    1    1    2    0    0  0.27882839436E+03 -0.30105900476E+03  0.29895219981E+03  0.53023190081E+03  0.15294330000E+03 0.  0.
<mgrwt>
<rscale>  0 0.43791946E+03</rscale>
<asrwt>0</asrwt>
<pdfrwt beam="1">  1        1 0.72336718E-01 0.43791946E+03</pdfrwt>
<pdfrwt beam="2">  1       -1 0.15045892E+00 0.43791946E+03</pdfrwt>
<totfact> 0.17923009E+01</totfact>
</mgrwt>
</event>
<event>
 4    1  0.1852677E-008  0.3771911E+03  0.7818608E-02  0.1051977E+00
          1   -1    0    0  501    0  0.00000000000E+00  0.00000000000E+00  0.12388580716E+04  0.12388580716E+04  0.50400000000E-02 0. -1.
         -1   -1    0    0    0  501 -0.00000000000E+00 -0.00000000000E+00 -0.19474042544E+03  0.19474042551E+03  0.50400000000E-02 0.  1.
    8880022    1    1    2    0    0 -0.34470824779E+03  0.75948481900E+01  0.98119151467E+03  0.10511945107E+04  0.15294330000E+03 0.  0.
    8880022    1    1    2    0    0  0.34470824779E+03 -0.75948481900E+01  0.62926131512E+02  0.38240398646E+03  0.15294330000E+03 0.  0.
<mgrwt>
<rscale>  0 0.37719108E+03</rscale>
<asrwt>0</asrwt>
<pdfrwt beam="1">  1        1 0.19059355E+00 0.37719108E+03</pdfrwt>
<pdfrwt beam="2">  1       -1 0.29960066E-01 0.37719108E+03</pdfrwt>
<totfact> 0.10911052E+02</totfact>
</mgrwt>
</event>
<event>
 4    1  0.1852677E-008  0.3759264E+03  0.7818608E-02  0.1052450E+00
         -1   -1    0    0    0  501 -0.00000000000E+00  0.00000000000E+00  0.23183704875E+03  0.23183704880E+03  0.50400000000E-02 0.  1.
          1   -1    0    0  501    0  0.00000000000E+00 -0.00000000000E+00 -0.97361480326E+03  0.97361480328E+03  0.50400000000E-02 0. -1.
    8880022    1    1    2    0    0  0.10731005129E+03 -0.32621093346E+03 -0.73944558123E+03  0.82951819801E+03  0.15294330000E+03 0.  0.
    8880022    1    1    2    0    0 -0.10731005129E+03  0.32621093346E+03 -0.23321732898E+01  0.37593365407E+03  0.15294330000E+03 0.  1.
<mgrwt>
<rscale>  0 0.37592642E+03</rscale>
<asrwt>0</asrwt>
<pdfrwt beam="1">  1        1 0.14978689E+00 0.37592642E+03</pdfrwt>
<pdfrwt beam="2">  1       -1 0.35667239E-01 0.37592642E+03</pdfrwt>
<totfact> 0.12591419E+02</totfact>
</mgrwt>
</event>
<event>
 4    1  0.1852677E-008  0.8084752E+03  0.7818608E-02  0.9547830E-01
          1   -1    0    0  501    0  0.00000000000E+00  0.00000000000E+00  0.14948524923E+04  0.14948524923E+04  0.50400000000E-02 0. -1.
         -1   -1    0    0    0  501 -0.00000000000E+00 -0.00000000000E+00 -0.75657948281E+03  0.75657948282E+03  0.50400000000E-02 0.  1.
    8880022    1    1    2    0    0  0.75032137275E+03  0.25934204096E+03 -0.36220039873E+03  0.88590137063E+03  0.15294330000E+03 0.  0.
    8880022    1    1    2    0    0 -0.75032137275E+03 -0.25934204096E+03  0.11004734082E+04  0.13655306045E+04  0.15294330000E+03 0.  0.
<mgrwt>
<rscale>  0 0.80847518E+03</rscale>
<asrwt>0</asrwt>
<pdfrwt beam="1">  1        1 0.22997731E+00 0.80847518E+03</pdfrwt>
<pdfrwt beam="2">  1       -1 0.11639684E+00 0.80847518E+03</pdfrwt>
<totfact> 0.45405308E+00</totfact>
</mgrwt>
</event>
<event>
 4    1  0.1852677E-008  0.5849107E+03  0.7818608E-02  0.9937216E-01
         -1   -1    0    0    0  501 -0.00000000000E+00  0.00000000000E+00  0.88894442326E+03  0.88894442327E+03  0.50400000000E-02 0.  1.
          1   -1    0    0  501    0  0.00000000000E+00 -0.00000000000E+00 -0.47792958500E+03  0.47792958502E+03  0.50400000000E-02 0. -1.
    8880022    1    1    2    0    0 -0.17829080491E+03 -0.53566902821E+03  0.50709724785E+03  0.77412414424E+03  0.15294330000E+03 0.  0.
    8880022    1    1    2    0    0  0.17829080491E+03  0.53566902821E+03 -0.96082409590E+02  0.59274986406E+03  0.15294330000E+03 0.  0.
<mgrwt>
<rscale>  0 0.58491074E+03</rscale>
<asrwt>0</asrwt>
<pdfrwt beam="1">  1        1 0.73527630E-01 0.58491074E+03</pdfrwt>
<pdfrwt beam="2">  1       -1 0.13676068E+00 0.58491074E+03</pdfrwt>
<totfact> 0.21974920E+01</totfact>
</mgrwt>
</event>
<event>
 4    1  0.1852677E-008  0.1724315E+03  0.7818608E-02  0.1175336E+00
         -1   -1    0    0    0  501 -0.00000000000E+00  0.00000000000E+00  0.61202112482E+03  0.61202112484E+03  0.50400000000E-02 0.  1.
          1   -1    0    0  501    0  0.00000000000E+00 -0.00000000000E+00 -0.67493794929E+03  0.67493794931E+03  0.50400000000E-02 0. -1.
    8880022    1    1    2    0    0 -0.47205288273E+01 -0.79490152915E+02  0.58843033713E+03  0.61317443071E+03  0.15294330000E+03 0.  1.
    8880022    1    1    2    0    0  0.47205288273E+01  0.79490152915E+02 -0.65134716160E+03  0.67378464344E+03  0.15294330000E+03 0.  0.
<mgrwt>
<rscale>  0 0.17243150E+03</rscale>
<asrwt>0</asrwt>
<pdfrwt beam="1">  1        1 0.10383661E+00 0.17243150E+03</pdfrwt>
<pdfrwt beam="2">  1       -1 0.94157096E-01 0.17243150E+03</pdfrwt>
<totfact> 0.36032265E+01</totfact>
</mgrwt>
</event>
<event>
 4    1  0.1852677E-008  0.4499848E+03  0.7818608E-02  0.1027727E+00
         -1   -1    0    0    0  501 -0.00000000000E+00  0.00000000000E+00  0.95481330631E+03  0.95481330632E+03  0.50400000000E-02 0.  1.
          1   -1    0    0  501    0  0.00000000000E+00 -0.00000000000E+00 -0.48789655372E+03  0.48789655375E+03  0.50400000000E-02 0. -1.
    8880022    1    1    2    0    0  0.38720710991E+03  0.17077855822E+03 -0.30892196888E+03  0.54581965683E+03  0.15294330000E+03 0. -1.
    8880022    1    1    2    0    0 -0.38720710991E+03 -0.17077855822E+03  0.77583872147E+03  0.89689020324E+03  0.15294330000E+03 0.  0.
<mgrwt>
<rscale>  0 0.44998479E+03</rscale>
<asrwt>0</asrwt>
<pdfrwt beam="1">  1        1 0.75061009E-01 0.44998479E+03</pdfrwt>
<pdfrwt beam="2">  1       -1 0.14689435E+00 0.44998479E+03</pdfrwt>
<totfact> 0.18129996E+01</totfact>
</mgrwt>
</event>
<event>
 4    1  0.1852677E-008  0.2635715E+03  0.7818608E-02  0.1105016E+00
          1   -1    0    0  501    0  0.00000000000E+00  0.00000000000E+00  0.89320861378E+03  0.89320861380E+03  0.50400000000E-02 0. -1.
         -1   -1    0    0    0  501 -0.00000000000E+00 -0.00000000000E+00 -0.20775286715E+03  0.20775286721E+03  0.50400000000E-02 0.  1.
    8880022    1    1    2    0    0  0.14208445152E+03 -0.16090455815E+03  0.77814164089E+03  0.82156821658E+03  0.15294330000E+03 0. -1.
    8880022    1    1    2    0    0 -0.14208445152E+03  0.16090455815E+03 -0.92685894257E+02  0.27939326442E+03  0.15294330000E+03 0.  0.
<mgrwt>
<rscale>  0 0.26357147E+03</rscale>
<asrwt>0</asrwt>
<pdfrwt beam="1">  1        1 0.13741671E+00 0.26357147E+03</pdfrwt>
<pdfrwt beam="2">  1       -1 0.31961980E-01 0.26357147E+03</pdfrwt>
<totfact> 0.17923707E+02</totfact>
</mgrwt>
</event>
<event>
 4    1  0.1852677E-008  0.7453587E+03  0.7818608E-02  0.9642660E-01
          1   -1    0    0  501    0  0.00000000000E+00  0.00000000000E+00  0.14388625220E+04  0.14388625220E+04  0.50400000000E-02 0. -1.
         -1   -1    0    0    0  501 -0.00000000000E+00 -0.00000000000E+00 -0.90701588767E+03  0.90701588768E+03  0.50400000000E-02 0.  1.
    8880022    1    1    2    0    0  0.55146705541E+02 -0.72741102903E+03  0.11548123953E+04  0.13744639994E+04  0.15294330000E+03 0.  0.
    8880022    1    1    2    0    0 -0.55146705541E+02  0.72741102903E+03 -0.62296576093E+03  0.97141441033E+03  0.15294330000E+03 0.  0.
<mgrwt>
<rscale>  0 0.74535872E+03</rscale>
<asrwt>0</asrwt>
<pdfrwt beam="1">  1        1 0.22136346E+00 0.74535872E+03</pdfrwt>
<pdfrwt beam="2">  1       -1 0.13954091E+00 0.74535872E+03</pdfrwt>
<totfact> 0.31861150E+00</totfact>
</mgrwt>
</event>
<event>
 4    1  0.1852677E-008  0.1195271E+04  0.7818608E-02  0.9117006E-01
         -1   -1    0    0    0  501 -0.00000000000E+00  0.00000000000E+00  0.79267096723E+03  0.79267096725E+03  0.50400000000E-02 0.  1.
          1   -1    0    0  501    0  0.00000000000E+00 -0.00000000000E+00 -0.24804964469E+04  0.24804964469E+04  0.50400000000E-02 0. -1.
    8880022    1    1    2    0    0  0.81022175553E+03  0.86534513372E+03 -0.16996286405E+04  0.20778379778E+04  0.15294330000E+03 0.  0.
    8880022    1    1    2    0    0 -0.81022175553E+03 -0.86534513372E+03  0.11803160849E+02  0.11953294363E+04  0.15294330000E+03 0.  0.
<mgrwt>
<rscale>  0 0.11952712E+04</rscale>
<asrwt>0</asrwt>
<pdfrwt beam="1">  1        1 0.38161483E+00 0.11952712E+04</pdfrwt>
<pdfrwt beam="2">  1       -1 0.12194938E+00 0.11952712E+04</pdfrwt>
<totfact> 0.82239003E-01</totfact>
</mgrwt>
</event>
<event>
 4    1  0.1852677E-008  0.8584292E+03  0.7818608E-02  0.9479093E-01
         -1   -1    0    0    0  501 -0.00000000000E+00  0.00000000000E+00  0.54497256307E+03  0.54497256310E+03  0.50400000000E-02 0.  1.
          1   -1    0    0  501    0  0.00000000000E+00 -0.00000000000E+00 -0.15839515613E+04  0.15839515613E+04  0.50400000000E-02 0. -1.
    8880022    1    1    2    0    0 -0.52359268091E+03 -0.66284220059E+03 -0.11230637042E+03  0.86574444973E+03  0.15294330000E+03 0.  0.
    8880022    1    1    2    0    0  0.52359268091E+03  0.66284220059E+03 -0.92667262782E+03  0.12631796747E+04  0.15294330000E+03 0.  0.
<mgrwt>
<rscale>  0 0.85842922E+03</rscale>
<asrwt>0</asrwt>
<pdfrwt beam="1">  1        1 0.24368485E+00 0.85842922E+03</pdfrwt>
<pdfrwt beam="2">  1       -1 0.83841933E-01 0.85842922E+03</pdfrwt>
<totfact> 0.82694323E+00</totfact>
</mgrwt>
</event>
<event>
 4    1  0.1852677E-008  0.1945601E+03  0.7818608E-02  0.1154412E+00
         -1   -1    0    0    0  501 -0.00000000000E+00  0.00000000000E+00  0.15918560864E+03  0.15918560872E+03  0.50400000000E-02 0.  1.
          1   -1    0    0  501    0  0.00000000000E+00 -0.00000000000E+00 -0.48549041300E+03  0.48549041303E+03  0.50400000000E-02 0. -1.
    8880022    1    1    2    0    0 -0.11292486018E+03  0.41351464115E+02  0.67087048476E+02  0.20580158580E+03  0.15294330000E+03 0.  1.
    8880022    1    1    2    0    0  0.11292486018E+03 -0.41351464115E+02 -0.39339185284E+03  0.43887443594E+03  0.15294330000E+03 0.  0.
<mgrwt>
<rscale>  0 0.19456007E+03</rscale>
<asrwt>0</asrwt>
<pdfrwt beam="1">  1        1 0.74690832E-01 0.19456007E+03</pdfrwt>
<pdfrwt beam="2">  1       -1 0.24490094E-01 0.19456007E+03</pdfrwt>
<totfact> 0.68062629E+02</totfact>
</mgrwt>
</event>
<event>
 4    1  0.1852677E-008  0.2167060E+03  0.7818608E-02  0.1136363E+00
         -1   -1    0    0    0  501 -0.00000000000E+00  0.00000000000E+00  0.11617498449E+03  0.11617498460E+03  0.50400000000E-02 0.  1.
          1   -1    0    0  501    0  0.00000000000E+00 -0.00000000000E+00 -0.18402131821E+04  0.18402131821E+04  0.50400000000E-02 0. -1.
    8880022    1    1    2    0    0 -0.37335217494E+02 -0.14891586932E+03  0.20839110856E+01  0.21671605917E+03  0.15294330000E+03 0.  0.
    8880022    1    1    2    0    0  0.37335217494E+02  0.14891586932E+03 -0.17261221087E+04  0.17396721075E+04  0.15294330000E+03 0.  0.
<mgrwt>
<rscale>  0 0.21670604E+03</rscale>
<asrwt>0</asrwt>
<pdfrwt beam="1">  1        1 0.28310970E+00 0.21670604E+03</pdfrwt>
<pdfrwt beam="2">  1       -1 0.17873076E-01 0.21670604E+03</pdfrwt>
<totfact> 0.10624421E+02</totfact>
</mgrwt>
</event>
<event>
 4    1  0.1852677E-008  0.1739325E+03  0.7818608E-02  0.1173808E+00
          1   -1    0    0  501    0  0.00000000000E+00  0.00000000000E+00  0.33603713574E+04  0.33603713574E+04  0.50400000000E-02 0. -1.
         -1   -1    0    0    0  501 -0.00000000000E+00 -0.00000000000E+00 -0.69440653839E+02  0.69440654021E+02  0.50400000000E-02 0.  1.
    8880022    1    1    2    0    0 -0.69556449216E+02 -0.44975015015E+02  0.45582434175E+02  0.17980618155E+03  0.15294330000E+03 0.  0.
    8880022    1    1    2    0    0  0.69556449216E+02  0.44975015015E+02  0.32453482694E+04  0.32500058299E+04  0.15294330000E+03 0. -1.
<mgrwt>
<rscale>  0 0.17393247E+03</rscale>
<asrwt>0</asrwt>
<pdfrwt beam="1">  1        1 0.51698020E+00 0.17393247E+03</pdfrwt>
<pdfrwt beam="2">  1       -1 0.10683178E-01 0.17393247E+03</pdfrwt>
<totfact> 0.23202205E+01</totfact>
</mgrwt>
</event>
<event>
 4    1  0.1852677E-008  0.7530156E+03  0.7818608E-02  0.9630631E-01
          1   -1    0    0  501    0  0.00000000000E+00  0.00000000000E+00  0.19504572302E+04  0.19504572302E+04  0.50400000000E-02 0. -1.
         -1   -1    0    0    0  501 -0.00000000000E+00 -0.00000000000E+00 -0.52780178346E+03  0.52780178349E+03  0.50400000000E-02 0.  1.
    8880022    1    1    2    0    0 -0.34475557158E+03 -0.65175484324E+03 -0.11915858090E+03  0.76238520463E+03  0.15294330000E+03 0.  0.
    8880022    1    1    2    0    0  0.34475557158E+03  0.65175484324E+03  0.15418140276E+04  0.17158738091E+04  0.15294330000E+03 0.  0.
<mgrwt>
<rscale>  0 0.75301556E+03</rscale>
<asrwt>0</asrwt>
<pdfrwt beam="1">  1        1 0.30007035E+00 0.75301556E+03</pdfrwt>
<pdfrwt beam="2">  1       -1 0.81200273E-01 0.75301556E+03</pdfrwt>
<totfact> 0.51007151E+00</totfact>
</mgrwt>
</event>
<event>
 4    1  0.1852677E-008  0.4056576E+03  0.7818608E-02  0.1041838E+00
         -1   -1    0    0    0  501 -0.00000000000E+00  0.00000000000E+00  0.23600970395E+04  0.23600970395E+04  0.50400000000E-02 0.  1.
          1   -1    0    0  501    0  0.00000000000E+00 -0.00000000000E+00 -0.19482574739E+03  0.19482574746E+03  0.50400000000E-02 0. -1.
    8880022    1    1    2    0    0 -0.29183268867E+02  0.37458614262E+03  0.58978979138E+02  0.40992269322E+03  0.15294330000E+03 0.  0.
    8880022    1    1    2    0    0  0.29183268867E+02 -0.37458614262E+03  0.21062923129E+04  0.21450000937E+04  0.15294330000E+03 0.  1.
<mgrwt>
<rscale>  0 0.40565761E+03</rscale>
<asrwt>0</asrwt>
<pdfrwt beam="1">  1        1 0.29973191E-01 0.40565761E+03</pdfrwt>
<pdfrwt beam="2">  1       -1 0.36309187E+00 0.40565761E+03</pdfrwt>
<totfact> 0.22327720E+00</totfact>
</mgrwt>
</event>
<event>
 4    1  0.1852677E-008  0.5674735E+03  0.7818608E-02  0.9975285E-01
         -1   -1    0    0    0  501 -0.00000000000E+00  0.00000000000E+00  0.12828138543E+04  0.12828138543E+04  0.50400000000E-02 0.  1.
          1   -1    0    0  501    0  0.00000000000E+00 -0.00000000000E+00 -0.31434729248E+03  0.31434729252E+03  0.50400000000E-02 0. -1.
    8880022    1    1    2    0    0 -0.34430357648E+03 -0.42436957483E+03  0.12583051077E+03  0.58125679289E+03  0.15294330000E+03 0. -1.
    8880022    1    1    2    0    0  0.34430357648E+03  0.42436957483E+03  0.84263605104E+03  0.10159043539E+04  0.15294330000E+03 0.  1.
<mgrwt>
<rscale>  0 0.56747347E+03</rscale>
<asrwt>0</asrwt>
<pdfrwt beam="1">  1        1 0.48361121E-01 0.56747347E+03</pdfrwt>
<pdfrwt beam="2">  1       -1 0.19735598E+00 0.56747347E+03</pdfrwt>
<totfact> 0.13644726E+01</totfact>
</mgrwt>
</event>
<event>
 4    1  0.1852677E-008  0.7760028E+03  0.7818608E-02  0.9595417E-01
          1   -1    0    0  501    0  0.00000000000E+00  0.00000000000E+00  0.92524786467E+03  0.92524786468E+03  0.50400000000E-02 0. -1.
         -1   -1    0    0    0  501 -0.00000000000E+00 -0.00000000000E+00 -0.69879390878E+03  0.69879390880E+03  0.50400000000E-02 0.  1.
    8880022    1    1    2    0    0  0.57685639694E+03 -0.49600940505E+03  0.32596443820E+03  0.84168468002E+03  0.15294330000E+03 0.  0.
    8880022    1    1    2    0    0 -0.57685639694E+03  0.49600940505E+03 -0.99510482320E+02  0.78235709346E+03  0.15294330000E+03 0.  0.
<mgrwt>
<rscale>  0 0.77600276E+03</rscale>
<asrwt>0</asrwt>
<pdfrwt beam="1">  1        1 0.14234583E+00 0.77600276E+03</pdfrwt>
<pdfrwt beam="2">  1       -1 0.10750676E+00 0.77600276E+03</pdfrwt>
<totfact> 0.14354689E+01</totfact>
</mgrwt>
</event>
<event>
 4    1  0.1852677E-008  0.3567987E+03  0.7818608E-02  0.1059859E+00
         -1   -1    0    0    0  501 -0.00000000000E+00  0.00000000000E+00  0.40558621517E+03  0.40558621520E+03  0.50400000000E-02 0.  1.
          1   -1    0    0  501    0  0.00000000000E+00 -0.00000000000E+00 -0.66838679602E+03  0.66838679604E+03  0.50400000000E-02 0. -1.
    8880022    1    1    2    0    0  0.29406578371E+03 -0.13205680564E+03  0.25967629908E+03  0.44129028811E+03  0.15294330000E+03 0.  1.
    8880022    1    1    2    0    0 -0.29406578371E+03  0.13205680564E+03 -0.52247687993E+03  0.63268272312E+03  0.15294330000E+03 0.  0.
<mgrwt>
<rscale>  0 0.35679874E+03</rscale>
<asrwt>0</asrwt>
<pdfrwt beam="1">  1        1 0.10282874E+00 0.35679874E+03</pdfrwt>
<pdfrwt beam="2">  1       -1 0.62397880E-01 0.35679874E+03</pdfrwt>
<totfact> 0.81045587E+01</totfact>
</mgrwt>
</event>
<event>
 4    1  0.1852677E-008  0.7184919E+03  0.7818608E-02  0.9686121E-01
          1   -1    0    0  501    0  0.00000000000E+00  0.00000000000E+00  0.22484959378E+04  0.22484959378E+04  0.50400000000E-02 0. -1.
         -1   -1    0    0    0  501 -0.00000000000E+00 -0.00000000000E+00 -0.77817340835E+03  0.77817340837E+03  0.50400000000E-02 0.  1.
    8880022    1    1    2    0    0 -0.36375907507E+03  0.60043172446E+03 -0.53546669336E+03  0.89607764906E+03  0.15294330000E+03 0.  0.
    8880022    1    1    2    0    0  0.36375907507E+03 -0.60043172446E+03  0.20057892228E+04  0.21305916971E+04  0.15294330000E+03 0.  0.
<mgrwt>
<rscale>  0 0.71849187E+03</rscale>
<asrwt>0</asrwt>
<pdfrwt beam="1">  1        1 0.34592245E+00 0.71849187E+03</pdfrwt>
<pdfrwt beam="2">  1       -1 0.11971899E+00 0.71849187E+03</pdfrwt>
<totfact> 0.13427494E+00</totfact>
</mgrwt>
</event>
<event>
 4    1  0.1852677E-008  0.7137804E+03  0.7818608E-02  0.9693952E-01
         -1   -1    0    0    0  501 -0.00000000000E+00  0.00000000000E+00  0.73431289838E+03  0.73431289840E+03  0.50400000000E-02 0.  1.
          1   -1    0    0  501    0  0.00000000000E+00 -0.00000000000E+00 -0.16261340978E+04  0.16261340978E+04  0.50400000000E-02 0. -1.
    8880022    1    1    2    0    0  0.22289965250E+03  0.66061073814E+03  0.44773790921E+03  0.84258631059E+03  0.15294330000E+03 0.  0.
    8880022    1    1    2    0    0 -0.22289965250E+03 -0.66061073814E+03 -0.13395591087E+04  0.15178606856E+04  0.15294330000E+03 0.  0.
<mgrwt>
<rscale>  0 0.71378040E+03</rscale>
<asrwt>0</asrwt>
<pdfrwt beam="1">  1        1 0.25017447E+00 0.71378040E+03</pdfrwt>
<pdfrwt beam="2">  1       -1 0.11297122E+00 0.71378040E+03</pdfrwt>
<totfact> 0.40333882E+00</totfact>
</mgrwt>
</event>
<event>
 4    1  0.1852677E-008  0.1795638E+04  0.7818608E-02  0.8708623E-01
         -1   -1    0    0    0  501 -0.00000000000E+00  0.00000000000E+00  0.31318304920E+04  0.31318304920E+04  0.50400000000E-02 0.  1.
          1   -1    0    0  501    0  0.00000000000E+00 -0.00000000000E+00 -0.15805351988E+04  0.15805351988E+04  0.50400000000E-02 0. -1.
    8880022    1    1    2    0    0 -0.72909489096E+03  0.16338126399E+04  0.21668316882E+04  0.28141560583E+04  0.15294330000E+03 0.  0.
    8880022    1    1    2    0    0  0.72909489096E+03 -0.16338126399E+04 -0.61553639496E+03  0.18982096325E+04  0.15294330000E+03 0.  0.
<mgrwt>
<rscale>  0 0.17956377E+04</rscale>
<asrwt>0</asrwt>
<pdfrwt beam="1">  1        1 0.24315926E+00 0.17956377E+04</pdfrwt>
<pdfrwt beam="2">  1       -1 0.48182008E+00 0.17956377E+04</pdfrwt>
<totfact> 0.10240559E-02</totfact>
</mgrwt>
</event>
<event>
 4    1  0.1852677E-008  0.6544924E+03  0.7818608E-02  0.9798386E-01
         -1   -1    0    0    0  501 -0.00000000000E+00  0.00000000000E+00  0.58741630198E+03  0.58741630200E+03  0.50400000000E-02 0.  1.
          1   -1    0    0  501    0  0.00000000000E+00 -0.00000000000E+00 -0.27038962223E+04  0.27038962223E+04  0.50400000000E-02 0. -1.
    8880022    1    1    2    0    0 -0.55713568918E+03 -0.30751982579E+03  0.34810289963E+03  0.74130688729E+03  0.15294330000E+03 0.  0.
    8880022    1    1    2    0    0  0.55713568918E+03  0.30751982579E+03 -0.24645828199E+04  0.25500056370E+04  0.15294330000E+03 0.  0.
<mgrwt>
<rscale>  0 0.65449238E+03</rscale>
<asrwt>0</asrwt>
<pdfrwt beam="1">  1        1 0.41598403E+00 0.65449238E+03</pdfrwt>
<pdfrwt beam="2">  1       -1 0.90371741E-01 0.65449238E+03</pdfrwt>
<totfact> 0.12781630E+00</totfact>
</mgrwt>
</event>
<event>
 4    1  0.1852677E-008  0.3990631E+03  0.7818608E-02  0.1044105E+00
         -1   -1    0    0    0  501 -0.00000000000E+00  0.00000000000E+00  0.46235126925E+03  0.46235126928E+03  0.50400000000E-02 0.  1.
          1   -1    0    0  501    0  0.00000000000E+00 -0.00000000000E+00 -0.64203196094E+03  0.64203196096E+03  0.50400000000E-02 0. -1.
    8880022    1    1    2    0    0  0.32461637157E+03 -0.17459639634E+03  0.28610398967E+03  0.49102630910E+03  0.15294330000E+03 0.  0.
    8880022    1    1    2    0    0 -0.32461637157E+03  0.17459639634E+03 -0.46578468136E+03  0.61335692114E+03  0.15294330000E+03 0.  0.
<mgrwt>
<rscale>  0 0.39906308E+03</rscale>
<asrwt>0</asrwt>
<pdfrwt beam="1">  1        1 0.98774148E-01 0.39906308E+03</pdfrwt>
<pdfrwt beam="2">  1       -1 0.71130964E-01 0.39906308E+03</pdfrwt>
<totfact> 0.65716741E+01</totfact>
</mgrwt>
</event>
<event>
 4    1  0.1852677E-008  0.1285828E+04  0.7818608E-02  0.9040880E-01
          1   -1    0    0  501    0  0.00000000000E+00  0.00000000000E+00  0.24443641722E+04  0.24443641722E+04  0.50400000000E-02 0. -1.
         -1   -1    0    0    0  501 -0.00000000000E+00 -0.00000000000E+00 -0.16472675720E+04  0.16472675720E+04  0.50400000000E-02 0.  1.
    8880022    1    1    2    0    0 -0.25456026947E+03 -0.12510639862E+04  0.19691489409E+04  0.23517868170E+04  0.15294330000E+03 0.  0.
    8880022    1    1    2    0    0  0.25456026947E+03  0.12510639862E+04 -0.11720523406E+04  0.17398449271E+04  0.15294330000E+03 0.  0.
<mgrwt>
<rscale>  0 0.12858280E+04</rscale>
<asrwt>0</asrwt>
<pdfrwt beam="1">  1        1 0.37605603E+00 0.12858280E+04</pdfrwt>
<pdfrwt beam="2">  1       -1 0.25342578E+00 0.12858280E+04</pdfrwt>
<totfact> 0.95366739E-02</totfact>
</mgrwt>
</event>
<event>
 4    1  0.1852677E-008  0.1939266E+03  0.7818608E-02  0.1154967E+00
         -1   -1    0    0    0  501 -0.00000000000E+00  0.00000000000E+00  0.11623827415E+04  0.11623827415E+04  0.50400000000E-02 0.  1.
          1   -1    0    0  501    0  0.00000000000E+00 -0.00000000000E+00 -0.48516855588E+02  0.48516855850E+02  0.50400000000E-02 0. -1.
    8880022    1    1    2    0    0 -0.81227521791E+02 -0.87280844149E+02  0.90638969108E+03  0.92690332892E+03  0.15294330000E+03 0.  1.
    8880022    1    1    2    0    0  0.81227521791E+02  0.87280844149E+02  0.20747619483E+03  0.28399626844E+03  0.15294330000E+03 0.  1.
<mgrwt>
<rscale>  0 0.19392656E+03</rscale>
<asrwt>0</asrwt>
<pdfrwt beam="1">  1        1 0.74641312E-02 0.19392656E+03</pdfrwt>
<pdfrwt beam="2">  1       -1 0.17882813E+00 0.19392656E+03</pdfrwt>
<totfact> 0.22411937E+02</totfact>
</mgrwt>
</event>
<event>
 4    1  0.1852677E-008  0.1991420E+03  0.7818608E-02  0.1150465E+00
         -1   -1    0    0    0  501 -0.00000000000E+00  0.00000000000E+00  0.13453597108E+04  0.13453597108E+04  0.50400000000E-02 0.  1.
          1   -1    0    0  501    0  0.00000000000E+00 -0.00000000000E+00 -0.32327795094E+02  0.32327795487E+02  0.50400000000E-02 0. -1.
    8880022    1    1    2    0    0 -0.68465375549E+02  0.10760281688E+03  0.45196788615E+03  0.49389522874E+03  0.15294330000E+03 0.  1.
    8880022    1    1    2    0    0  0.68465375549E+02 -0.10760281688E+03  0.86106402954E+03  0.88379227753E+03  0.15294330000E+03 0.  0.
<mgrwt>
<rscale>  0 0.19914198E+03</rscale>
<asrwt>0</asrwt>
<pdfrwt beam="1">  1        1 0.49735075E-02 0.19914198E+03</pdfrwt>
<pdfrwt beam="2">  1       -1 0.20697839E+00 0.19914198E+03</pdfrwt>
<totfact> 0.25252301E+02</totfact>
</mgrwt>
</event>
<event>
 4    1  0.1852677E-008  0.5088237E+03  0.7818608E-02  0.1011501E+00
          1   -1    0    0  501    0  0.00000000000E+00  0.00000000000E+00  0.21662086220E+04  0.21662086220E+04  0.50400000000E-02 0. -1.
         -1   -1    0    0    0  501 -0.00000000000E+00 -0.00000000000E+00 -0.52975740950E+03  0.52975740952E+03  0.50400000000E-02 0.  1.
    8880022    1    1    2    0    0  0.48245688593E+03  0.52395189032E+02 -0.36799218864E+03  0.62794888847E+03  0.15294330000E+03 0.  0.
    8880022    1    1    2    0    0 -0.48245688593E+03 -0.52395189032E+02  0.20044434012E+04  0.20680171431E+04  0.15294330000E+03 0. -1.
<mgrwt>
<rscale>  0 0.50882370E+03</rscale>
<asrwt>0</asrwt>
<pdfrwt beam="1">  1        1 0.33326287E+00 0.50882370E+03</pdfrwt>
<pdfrwt beam="2">  1       -1 0.81501138E-01 0.50882370E+03</pdfrwt>
<totfact> 0.38350680E+00</totfact>
</mgrwt>
</event>
<event>
 4    1  0.1852677E-008  0.1410627E+04  0.7818608E-02  0.8946162E-01
         -1   -1    0    0    0  501 -0.00000000000E+00  0.00000000000E+00  0.19841932602E+04  0.19841932603E+04  0.50400000000E-02 0.  1.
          1   -1    0    0  501    0  0.00000000000E+00 -0.00000000000E+00 -0.12255380605E+04  0.12255380605E+04  0.50400000000E-02 0. -1.
    8880022    1    1    2    0    0 -0.13862888243E+04 -0.21137796466E+03  0.10634180563E+04  0.17665579424E+04  0.15294330000E+03 0.  0.
    8880022    1    1    2    0    0  0.13862888243E+04  0.21137796466E+03 -0.30476285655E+03  0.14431733784E+04  0.15294330000E+03 0.  0.
<mgrwt>
<rscale>  0 0.14106272E+04</rscale>
<asrwt>0</asrwt>
<pdfrwt beam="1">  1        1 0.18854432E+00 0.14106272E+04</pdfrwt>
<pdfrwt beam="2">  1       -1 0.30526050E+00 0.14106272E+04</pdfrwt>
<totfact> 0.29946555E-01</totfact>
</mgrwt>
</event>
<event>
 4    1  0.1852677E-008  0.3664659E+03  0.7818608E-02  0.1056053E+00
          1   -1    0    0  501    0  0.00000000000E+00  0.00000000000E+00  0.17518819949E+04  0.17518819949E+04  0.50400000000E-02 0. -1.
         -1   -1    0    0    0  501 -0.00000000000E+00 -0.00000000000E+00 -0.12776362355E+03  0.12776362365E+03  0.50400000000E-02 0.  1.
    8880022    1    1    2    0    0 -0.30680338488E+03  0.12952713189E+03  0.14064514274E+04  0.14534107697E+04  0.15294330000E+03 0.  0.
    8880022    1    1    2    0    0  0.30680338488E+03 -0.12952713189E+03  0.21766694396E+03  0.42623484885E+03  0.15294330000E+03 0.  1.
<mgrwt>
<rscale>  0 0.36646589E+03</rscale>
<asrwt>0</asrwt>
<pdfrwt beam="1">  1        1 0.26952029E+00 0.36646589E+03</pdfrwt>
<pdfrwt beam="2">  1       -1 0.19655943E-01 0.36646589E+03</pdfrwt>
<totfact> 0.99997137E+01</totfact>
</mgrwt>
</event>
<event>
 4    1  0.1852677E-008  0.1040615E+04  0.7818608E-02  0.9265087E-01
          1   -1    0    0  501    0  0.00000000000E+00  0.00000000000E+00  0.27776312581E+04  0.27776312581E+04  0.50400000000E-02 0. -1.
         -1   -1    0    0    0  501 -0.00000000000E+00 -0.00000000000E+00 -0.58968636986E+03  0.58968636988E+03  0.50400000000E-02 0.  1.
    8880022    1    1    2    0    0  0.20587042901E+03 -0.10085168368E+04  0.20740774632E+04  0.23204908576E+04  0.15294330000E+03 0.  0.
    8880022    1    1    2    0    0 -0.20587042901E+03  0.10085168368E+04  0.11386742504E+03  0.10468267704E+04  0.15294330000E+03 0.  0.
<mgrwt>
<rscale>  0 0.10406154E+04</rscale>
<asrwt>0</asrwt>
<pdfrwt beam="1">  1        1 0.42732789E+00 0.10406154E+04</pdfrwt>
<pdfrwt beam="2">  1       -1 0.90720979E-01 0.10406154E+04</pdfrwt>
<totfact> 0.10435179E+00</totfact>
</mgrwt>
</event>
<event>
 4    1  0.1852677E-008  0.4498482E+03  0.7818608E-02  0.1027767E+00
         -1   -1    0    0    0  501 -0.00000000000E+00  0.00000000000E+00  0.41876975345E+03  0.41876975348E+03  0.50400000000E-02 0.  1.
          1   -1    0    0  501    0  0.00000000000E+00 -0.00000000000E+00 -0.59744265906E+03  0.59744265908E+03  0.50400000000E-02 0. -1.
    8880022    1    1    2    0    0  0.89683598093E+02 -0.41343515233E+03  0.13281927885E+03  0.46904625230E+03  0.15294330000E+03 0.  0.
    8880022    1    1    2    0    0 -0.89683598093E+02  0.41343515233E+03 -0.31149218446E+03  0.54716616027E+03  0.15294330000E+03 0.  0.
<mgrwt>
<rscale>  0 0.44984823E+03</rscale>
<asrwt>0</asrwt>
<pdfrwt beam="1">  1        1 0.91914256E-01 0.44984823E+03</pdfrwt>
<pdfrwt beam="2">  1       -1 0.64426115E-01 0.44984823E+03</pdfrwt>
<totfact> 0.88221659E+01</totfact>
</mgrwt>
</event>
<event>
 4    1  0.1852677E-008  0.1272305E+04  0.7818608E-02  0.9051820E-01
          1   -1    0    0  501    0  0.00000000000E+00  0.00000000000E+00  0.55572725030E+03  0.55572725032E+03  0.50400000000E-02 0. -1.
         -1   -1    0    0    0  501 -0.00000000000E+00 -0.00000000000E+00 -0.42458884174E+04  0.42458884174E+04  0.50400000000E-02 0.  1.
    8880022    1    1    2    0    0 -0.63985367951E+03 -0.10890164078E+04 -0.31902940922E+04  0.34346379016E+04  0.15294330000E+03 0.  0.
    8880022    1    1    2    0    0  0.63985367951E+03  0.10890164078E+04 -0.49986707498E+03  0.13669777662E+04  0.15294330000E+03 0.  0.
<mgrwt>
<rscale>  0 0.12723054E+04</rscale>
<asrwt>0</asrwt>
<pdfrwt beam="1">  1        1 0.85496503E-01 0.12723054E+04</pdfrwt>
<pdfrwt beam="2">  1       -1 0.65321358E+00 0.12723054E+04</pdfrwt>
<totfact> 0.10436357E-02</totfact>
</mgrwt>
</event>
<event>
 4    1  0.1852677E-008  0.7511368E+03  0.7818608E-02  0.9633569E-01
         -1   -1    0    0    0  501 -0.00000000000E+00  0.00000000000E+00  0.10449563712E+04  0.10449563712E+04  0.50400000000E-02 0.  1.
          1   -1    0    0  501    0  0.00000000000E+00 -0.00000000000E+00 -0.92198340947E+03  0.92198340949E+03  0.50400000000E-02 0. -1.
    8880022    1    1    2    0    0  0.46147307022E+03  0.57258833658E+03  0.69456829428E+03  0.10230501289E+04  0.15294330000E+03 0.  0.
    8880022    1    1    2    0    0 -0.46147307022E+03 -0.57258833658E+03 -0.57159533253E+03  0.94388965187E+03  0.15294330000E+03 0.  0.
<mgrwt>
<rscale>  0 0.75113677E+03</rscale>
<asrwt>0</asrwt>
<pdfrwt beam="1">  1        1 0.14184360E+00 0.75113677E+03</pdfrwt>
<pdfrwt beam="2">  1       -1 0.16076252E+00 0.75113677E+03</pdfrwt>
<totfact> 0.52148491E+00</totfact>
</mgrwt>
</event>
<event>
 4    1  0.1852677E-008  0.3074250E+03  0.7818608E-02  0.1081587E+00
          1   -1    0    0  501    0  0.00000000000E+00  0.00000000000E+00  0.16467478716E+04  0.16467478716E+04  0.50400000000E-02 0. -1.
         -1   -1    0    0    0  501 -0.00000000000E+00 -0.00000000000E+00 -0.11473776848E+03  0.11473776859E+03  0.50400000000E-02 0.  1.
    8880022    1    1    2    0    0  0.12173645608E+03 -0.23727348231E+03  0.14335121115E+03  0.33920450011E+03  0.15294330000E+03 0. -1.
    8880022    1    1    2    0    0 -0.12173645608E+03  0.23727348231E+03  0.13886588919E+04  0.14222811400E+04  0.15294330000E+03 0. -1.
<mgrwt>
<rscale>  0 0.30742499E+03</rscale>
<asrwt>0</asrwt>
<pdfrwt beam="1">  1        1 0.25334582E+00 0.30742499E+03</pdfrwt>
<pdfrwt beam="2">  1       -1 0.17651965E-01 0.30742499E+03</pdfrwt>
<totfact> 0.14141773E+02</totfact>
</mgrwt>
</event>
<event>
 4    1  0.1852677E-008  0.3930716E+03  0.7818608E-02  0.1046205E+00
          1   -1    0    0  501    0  0.00000000000E+00  0.00000000000E+00  0.90550495213E+03  0.90550495215E+03  0.50400000000E-02 0. -1.
         -1   -1    0    0    0  501 -0.00000000000E+00 -0.00000000000E+00 -0.28362141987E+03  0.28362141991E+03  0.50400000000E-02 0.  1.
    8880022    1    1    2    0    0 -0.33517729320E+03  0.13700301469E+03 -0.64336475376E+02  0.39830199471E+03  0.15294330000E+03 0.  0.
    8880022    1    1    2    0    0  0.33517729320E+03 -0.13700301469E+03  0.68622000764E+03  0.79082437735E+03  0.15294330000E+03 0. -1.
<mgrwt>
<rscale>  0 0.39307162E+03</rscale>
<asrwt>0</asrwt>
<pdfrwt beam="1">  1        1 0.13930845E+00 0.39307162E+03</pdfrwt>
<pdfrwt beam="2">  1       -1 0.43634065E-01 0.39307162E+03</pdfrwt>
<totfact> 0.98928735E+01</totfact>
</mgrwt>
</event>
<event>
 4    1  0.1852677E-008  0.2956161E+03  0.7818608E-02  0.1087453E+00
          1   -1    0    0  501    0  0.00000000000E+00  0.00000000000E+00  0.99316244980E+03  0.99316244981E+03  0.50400000000E-02 0. -1.
         -1   -1    0    0    0  501 -0.00000000000E+00 -0.00000000000E+00 -0.14317568168E+03  0.14317568177E+03  0.50400000000E-02 0.  1.
    8880022    1    1    2    0    0  0.24646136626E+03 -0.57044224417E+02  0.72253936294E+02  0.30431814426E+03  0.15294330000E+03 0.  0.
    8880022    1    1    2    0    0 -0.24646136626E+03  0.57044224417E+02  0.77773283182E+03  0.83201998733E+03  0.15294330000E+03 0.  1.
<mgrwt>
<rscale>  0 0.29561614E+03</rscale>
<asrwt>0</asrwt>
<pdfrwt beam="1">  1        1 0.15279422E+00 0.29561614E+03</pdfrwt>
<pdfrwt beam="2">  1       -1 0.22027029E-01 0.29561614E+03</pdfrwt>
<totfact> 0.27953508E+02</totfact>
</mgrwt>
</event>
<event>
 4    1  0.1852677E-008  0.4761634E+03  0.7818608E-02  0.1020195E+00
         -1   -1    0    0    0  501 -0.00000000000E+00  0.00000000000E+00  0.48911001769E+03  0.48911001772E+03  0.50400000000E-02 0.  1.
          1   -1    0    0  501    0  0.00000000000E+00 -0.00000000000E+00 -0.68885223772E+03  0.68885223774E+03  0.50400000000E-02 0. -1.
    8880022    1    1    2    0    0  0.17630933790E+03  0.41503604577E+03  0.23695986173E+03  0.53186608371E+03  0.15294330000E+03 0.  0.
    8880022    1    1    2    0    0 -0.17630933790E+03 -0.41503604577E+03 -0.43670208176E+03  0.64609617174E+03  0.15294330000E+03 0.  0.
<mgrwt>
<rscale>  0 0.47616337E+03</rscale>
<asrwt>0</asrwt>
<pdfrwt beam="1">  1        1 0.10597727E+00 0.47616337E+03</pdfrwt>
<pdfrwt beam="2">  1       -1 0.75247695E-01 0.47616337E+03</pdfrwt>
<totfact> 0.52236639E+01</totfact>
</mgrwt>
</event>
<event>
 4    1  0.1852677E-008  0.2644948E+03  0.7818608E-02  0.1104472E+00
         -1   -1    0    0    0  501 -0.00000000000E+00  0.00000000000E+00  0.75530328501E+03  0.75530328502E+03  0.50400000000E-02 0.  1.
          1   -1    0    0  501    0  0.00000000000E+00 -0.00000000000E+00 -0.73813187137E+03  0.73813187139E+03  0.50400000000E-02 0. -1.
    8880022    1    1    2    0    0  0.20631261431E+03 -0.63253260283E+02 -0.68971248812E+03  0.73868859409E+03  0.15294330000E+03 0.  0.
    8880022    1    1    2    0    0 -0.20631261431E+03  0.63253260283E+02  0.70688390175E+03  0.75474656232E+03  0.15294330000E+03 0.  0.
<mgrwt>
<rscale>  0 0.26449484E+03</rscale>
<asrwt>0</asrwt>
<pdfrwt beam="1">  1        1 0.11355875E+00 0.26449484E+03</pdfrwt>
<pdfrwt beam="2">  1       -1 0.11620051E+00 0.26449484E+03</pdfrwt>
<totfact> 0.18971592E+01</totfact>
</mgrwt>
</event>
<event>
 4    1  0.1852677E-008  0.8452804E+03  0.7818608E-02  0.9496693E-01
         -1   -1    0    0    0  501 -0.00000000000E+00  0.00000000000E+00  0.66029149873E+03  0.66029149875E+03  0.50400000000E-02 0.  1.
          1   -1    0    0  501    0  0.00000000000E+00 -0.00000000000E+00 -0.15967446711E+04  0.15967446711E+04  0.50400000000E-02 0. -1.
    8880022    1    1    2    0    0 -0.38560192287E+03 -0.73649068142E+03  0.17246064149E+03  0.86269443758E+03  0.15294330000E+03 0.  0.
    8880022    1    1    2    0    0  0.38560192287E+03  0.73649068142E+03 -0.11089138138E+04  0.13943417322E+04  0.15294330000E+03 0.  0.
<mgrwt>
<rscale>  0 0.84528044E+03</rscale>
<asrwt>0</asrwt>
<pdfrwt beam="1">  1        1 0.24565303E+00 0.84528044E+03</pdfrwt>
<pdfrwt beam="2">  1       -1 0.10158331E+00 0.84528044E+03</pdfrwt>
<totfact> 0.52982867E+00</totfact>
</mgrwt>
</event>
<event>
 4    1  0.1852677E-008  0.4510264E+03  0.7818608E-02  0.1027416E+00
         -1   -1    0    0    0  501 -0.00000000000E+00  0.00000000000E+00  0.12791286297E+04  0.12791286297E+04  0.50400000000E-02 0.  1.
          1   -1    0    0  501    0  0.00000000000E+00 -0.00000000000E+00 -0.27602601687E+03  0.27602601691E+03  0.50400000000E-02 0. -1.
    8880022    1    1    2    0    0  0.42346513583E+03  0.26653258039E+02 -0.46776008495E+01  0.45105060735E+03  0.15294330000E+03 0.  0.
    8880022    1    1    2    0    0 -0.42346513583E+03 -0.26653258039E+02  0.10077802137E+04  0.11041040393E+04  0.15294330000E+03 0.  0.
<mgrwt>
<rscale>  0 0.45102635E+03</rscale>
<asrwt>0</asrwt>
<pdfrwt beam="1">  1        1 0.42465541E-01 0.45102635E+03</pdfrwt>
<pdfrwt beam="2">  1       -1 0.19678902E+00 0.45102635E+03</pdfrwt>
<totfact> 0.16582702E+01</totfact>
</mgrwt>
</event>
<event>
 4    1  0.1852677E-008  0.9960308E+03  0.7818608E-02  0.9312909E-01
          1   -1    0    0  501    0  0.00000000000E+00  0.00000000000E+00  0.23993212622E+04  0.23993212622E+04  0.50400000000E-02 0. -1.
         -1   -1    0    0    0  501 -0.00000000000E+00 -0.00000000000E+00 -0.63510323850E+03  0.63510323852E+03  0.50400000000E-02 0.  1.
    8880022    1    1    2    0    0  0.67932114318E+03  0.71218567505E+03 -0.14141457453E+02  0.99613115861E+03  0.15294330000E+03 0.  0.
    8880022    1    1    2    0    0 -0.67932114318E+03 -0.71218567505E+03  0.17783594812E+04  0.20382933421E+04  0.15294330000E+03 0.  0.
<mgrwt>
<rscale>  0 0.99603077E+03</rscale>
<asrwt>0</asrwt>
<pdfrwt beam="1">  1        1 0.36912634E+00 0.99603077E+03</pdfrwt>
<pdfrwt beam="2">  1       -1 0.97708192E-01 0.99603077E+03</pdfrwt>
<totfact> 0.16262880E+00</totfact>
</mgrwt>
</event>
<event>
 4    1  0.1852677E-008  0.2557113E+03  0.7818608E-02  0.1109748E+00
         -1   -1    0    0    0  501 -0.00000000000E+00  0.00000000000E+00  0.26983824188E+03  0.26983824193E+03  0.50400000000E-02 0.  1.
          1   -1    0    0  501    0  0.00000000000E+00 -0.00000000000E+00 -0.33332368516E+03  0.33332368520E+03  0.50400000000E-02 0. -1.
    8880022    1    1    2    0    0  0.11974526391E+03 -0.16630596832E+03  0.12583361880E+03  0.28499536130E+03  0.15294330000E+03 0.  1.
    8880022    1    1    2    0    0 -0.11974526391E+03  0.16630596832E+03 -0.18931906208E+03  0.31816656583E+03  0.15294330000E+03 0.  0.
<mgrwt>
<rscale>  0 0.25571128E+03</rscale>
<asrwt>0</asrwt>
<pdfrwt beam="1">  1        1 0.51280567E-01 0.25571128E+03</pdfrwt>
<pdfrwt beam="2">  1       -1 0.41513576E-01 0.25571128E+03</pdfrwt>
<totfact> 0.44518608E+02</totfact>
</mgrwt>
</event>
<event>
 4    1  0.1852677E-008  0.3036998E+03  0.7818608E-02  0.1083406E+00
          1   -1    0    0  501    0  0.00000000000E+00  0.00000000000E+00  0.16132112223E+04  0.16132112223E+04  0.50400000000E-02 0. -1.
         -1   -1    0    0    0  501 -0.00000000000E+00 -0.00000000000E+00 -0.42871108954E+03  0.42871108957E+03  0.50400000000E-02 0.  1.
    8880022    1    1    2    0    0  0.26171606652E+03 -0.18617482162E+02  0.15426973002E+04  0.15723067522E+04  0.15294330000E+03 0.  0.
    8880022    1    1    2    0    0 -0.26171606652E+03  0.18617482162E+02 -0.35819716741E+03  0.46961555966E+03  0.15294330000E+03 0.  0.
<mgrwt>
<rscale>  0 0.30369979E+03</rscale>
<asrwt>0</asrwt>
<pdfrwt beam="1">  1        1 0.24818634E+00 0.30369979E+03</pdfrwt>
<pdfrwt beam="2">  1       -1 0.65955553E-01 0.30369979E+03</pdfrwt>
<totfact> 0.14617607E+01</totfact>
</mgrwt>
</event>
<event>
 4    1  0.1852677E-008  0.1434622E+04  0.7818608E-02  0.8929132E-01
          1   -1    0    0  501    0  0.00000000000E+00  0.00000000000E+00  0.13752961496E+04  0.13752961496E+04  0.50400000000E-02 0. -1.
         -1   -1    0    0    0  501 -0.00000000000E+00 -0.00000000000E+00 -0.21178588722E+04  0.21178588722E+04  0.50400000000E-02 0.  1.
    8880022    1    1    2    0    0  0.78699367489E+03 -0.11897013881E+04  0.57475584782E+03  0.15454722174E+04  0.15294330000E+03 0.  0.
    8880022    1    1    2    0    0 -0.78699367489E+03  0.11897013881E+04 -0.13173185704E+04  0.19476828043E+04  0.15294330000E+03 0.  0.
<mgrwt>
<rscale>  0 0.14346219E+04</rscale>
<asrwt>0</asrwt>
<pdfrwt beam="1">  1        1 0.21158402E+00 0.14346219E+04</pdfrwt>
<pdfrwt beam="2">  1       -1 0.32582444E+00 0.14346219E+04</pdfrwt>
<totfact> 0.17119112E-01</totfact>
</mgrwt>
</event>
<event>
 4    1  0.1852677E-008  0.1039774E+04  0.7818608E-02  0.9265966E-01
          1   -1    0    0  501    0  0.00000000000E+00  0.00000000000E+00  0.85211363996E+03  0.85211363997E+03  0.50400000000E-02 0. -1.
         -1   -1    0    0    0  501 -0.00000000000E+00 -0.00000000000E+00 -0.22734317364E+04  0.22734317364E+04  0.50400000000E-02 0.  1.
    8880022    1    1    2    0    0  0.76889567381E+03 -0.68303519979E+03  0.32822371810E+03  0.10903486156E+04  0.15294330000E+03 0.  0.
    8880022    1    1    2    0    0 -0.76889567381E+03  0.68303519979E+03 -0.17495418146E+04  0.20351967608E+04  0.15294330000E+03 0.  0.
<mgrwt>
<rscale>  0 0.10397737E+04</rscale>
<asrwt>0</asrwt>
<pdfrwt beam="1">  1        1 0.13109441E+00 0.10397737E+04</pdfrwt>
<pdfrwt beam="2">  1       -1 0.34975873E+00 0.10397737E+04</pdfrwt>
<totfact> 0.31532529E-01</totfact>
</mgrwt>
</event>
<event>
 4    1  0.1852677E-008  0.6332748E+03  0.7818608E-02  0.9838679E-01
          1   -1    0    0  501    0  0.00000000000E+00  0.00000000000E+00  0.67031306945E+03  0.67031306947E+03  0.50400000000E-02 0. -1.
         -1   -1    0    0    0  501 -0.00000000000E+00 -0.00000000000E+00 -0.76796179550E+03  0.76796179551E+03  0.50400000000E-02 0.  1.
    8880022    1    1    2    0    0 -0.60699800611E+03 -0.95909912722E+02 -0.38685480810E+03  0.74208731720E+03  0.15294330000E+03 0.  0.
    8880022    1    1    2    0    0  0.60699800611E+03  0.95909912722E+02  0.28920608206E+03  0.69618754779E+03  0.15294330000E+03 0. -1.
<mgrwt>
<rscale>  0 0.63327478E+03</rscale>
<asrwt>0</asrwt>
<pdfrwt beam="1">  1        1 0.10312509E+00 0.63327478E+03</pdfrwt>
<pdfrwt beam="2">  1       -1 0.11814797E+00 0.63327478E+03</pdfrwt>
<totfact> 0.19488227E+01</totfact>
</mgrwt>
</event>
<event>
 4    1  0.1852677E-008  0.1833994E+03  0.7818608E-02  0.1164553E+00
          1   -1    0    0  501    0  0.00000000000E+00  0.00000000000E+00  0.32677321093E+04  0.32677321093E+04  0.50400000000E-02 0. -1.
         -1   -1    0    0    0  501 -0.00000000000E+00 -0.00000000000E+00 -0.31076313410E+02  0.31076313819E+02  0.50400000000E-02 0.  1.
    8880022    1    1    2    0    0  0.10842868576E+02  0.10062855949E+03  0.29671912415E+04  0.29728537118E+04  0.15294330000E+03 0.  0.
    8880022    1    1    2    0    0 -0.10842868576E+02 -0.10062855949E+03  0.26946455442E+03  0.32595471140E+03  0.15294330000E+03 0.  1.
<mgrwt>
<rscale>  0 0.18339937E+03</rscale>
<asrwt>0</asrwt>
<pdfrwt beam="1">  1        1 0.50272801E+00 0.18339937E+03</pdfrwt>
<pdfrwt beam="2">  1       -1 0.47809714E-02 0.18339937E+03</pdfrwt>
<totfact> 0.90845501E+01</totfact>
</mgrwt>
</event>
<event>
 4    1  0.1852677E-008  0.5007584E+03  0.7818608E-02  0.1013581E+00
          1   -1    0    0  501    0  0.00000000000E+00  0.00000000000E+00  0.43666860213E+03  0.43666860216E+03  0.50400000000E-02 0. -1.
         -1   -1    0    0    0  501 -0.00000000000E+00 -0.00000000000E+00 -0.17466344586E+04  0.17466344586E+04  0.50400000000E-02 0.  1.
    8880022    1    1    2    0    0  0.31397860584E+03 -0.35886587832E+03 -0.15493528754E+04  0.16282669526E+04  0.15294330000E+03 0.  0.
    8880022    1    1    2    0    0 -0.31397860584E+03  0.35886587832E+03  0.23938701888E+03  0.55503610817E+03  0.15294330000E+03 0.  0.
<mgrwt>
<rscale>  0 0.50075836E+03</rscale>
<asrwt>0</asrwt>
<pdfrwt beam="1">  1        1 0.67179785E-01 0.50075836E+03</pdfrwt>
<pdfrwt beam="2">  1       -1 0.26871299E+00 0.50075836E+03</pdfrwt>
<totfact> 0.30805013E+00</totfact>
</mgrwt>
</event>
<event>
 4    1  0.1852677E-008  0.1402092E+04  0.7818608E-02  0.8952306E-01
         -1   -1    0    0    0  501 -0.00000000000E+00  0.00000000000E+00  0.11207786378E+04  0.11207786378E+04  0.50400000000E-02 0.  1.
          1   -1    0    0  501    0  0.00000000000E+00 -0.00000000000E+00 -0.32459262913E+04  0.32459262913E+04  0.50400000000E-02 0. -1.
    8880022    1    1    2    0    0 -0.20775265218E+03 -0.13781540207E+04  0.41764588312E+03  0.14629727974E+04  0.15294330000E+03 0.  0.
    8880022    1    1    2    0    0  0.20775265218E+03  0.13781540207E+04 -0.25427935367E+04  0.29037321317E+04  0.15294330000E+03 0.  0.
<mgrwt>
<rscale>  0 0.14020918E+04</rscale>
<asrwt>0</asrwt>
<pdfrwt beam="1">  1        1 0.49937327E+00 0.14020918E+04</pdfrwt>
<pdfrwt beam="2">  1       -1 0.17242748E+00 0.14020918E+04</pdfrwt>
<totfact> 0.89427258E-02</totfact>
</mgrwt>
</event>
<event>
 4    1  0.1852677E-008  0.2772743E+03  0.7818608E-02  0.1097187E+00
         -1   -1    0    0    0  501 -0.00000000000E+00  0.00000000000E+00  0.16761952825E+03  0.16761952833E+03  0.50400000000E-02 0.  1.
          1   -1    0    0  501    0  0.00000000000E+00 -0.00000000000E+00 -0.11451053063E+04  0.11451053063E+04  0.50400000000E-02 0. -1.
    8880022    1    1    2    0    0  0.92921418403E+01 -0.23109094851E+03 -0.99692893338E+03  0.10347696950E+04  0.15294330000E+03 0.  0.
    8880022    1    1    2    0    0 -0.92921418403E+01  0.23109094851E+03  0.19443155302E+02  0.27795513970E+03  0.15294330000E+03 0. -1.
<mgrwt>
<rscale>  0 0.27727427E+03</rscale>
<asrwt>0</asrwt>
<pdfrwt beam="1">  1        1 0.17617004E+00 0.27727427E+03</pdfrwt>
<pdfrwt beam="2">  1       -1 0.25787620E-01 0.27727427E+03</pdfrwt>
<totfact> 0.16692363E+02</totfact>
</mgrwt>
</event>
<event>
 4    1  0.1852677E-008  0.8467593E+03  0.7818608E-02  0.9494697E-01
         -1   -1    0    0    0  501 -0.00000000000E+00  0.00000000000E+00  0.14592364777E+04  0.14592364777E+04  0.50400000000E-02 0.  1.
          1   -1    0    0  501    0  0.00000000000E+00 -0.00000000000E+00 -0.99874217273E+03  0.99874217274E+03  0.50400000000E-02 0. -1.
    8880022    1    1    2    0    0  0.83193681716E+03 -0.38610528286E+02 -0.64572782284E+03  0.10648782629E+04  0.15294330000E+03 0.  0.
    8880022    1    1    2    0    0 -0.83193681716E+03  0.38610528286E+02  0.11062221278E+04  0.13931003875E+04  0.15294330000E+03 0.  0.
<mgrwt>
<rscale>  0 0.84675929E+03</rscale>
<asrwt>0</asrwt>
<pdfrwt beam="1">  1        1 0.15365264E+00 0.84675929E+03</pdfrwt>
<pdfrwt beam="2">  1       -1 0.22449792E+00 0.84675929E+03</pdfrwt>
<totfact> 0.16026780E+00</totfact>
</mgrwt>
</event>
<event>
 4    1  0.1852677E-008  0.4194231E+03  0.7818608E-02  0.1037254E+00
         -1   -1    0    0    0  501 -0.00000000000E+00  0.00000000000E+00  0.55888405798E+03  0.55888405801E+03  0.50400000000E-02 0.  1.
          1   -1    0    0  501    0  0.00000000000E+00 -0.00000000000E+00 -0.34537796169E+03  0.34537796173E+03  0.50400000000E-02 0. -1.
    8880022    1    1    2    0    0  0.10029522535E+03 -0.37744534816E+03 -0.27859942930E+02  0.42034741882E+03  0.15294330000E+03 0. -1.
    8880022    1    1    2    0    0 -0.10029522535E+03  0.37744534816E+03  0.24136603922E+03  0.48391460091E+03  0.15294330000E+03 0.  1.
<mgrwt>
<rscale>  0 0.41942315E+03</rscale>
<asrwt>0</asrwt>
<pdfrwt beam="1">  1        1 0.53135071E-01 0.41942315E+03</pdfrwt>
<pdfrwt beam="2">  1       -1 0.85982162E-01 0.41942315E+03</pdfrwt>
<totfact> 0.10167443E+02</totfact>
</mgrwt>
</event>
<event>
 4    1  0.1852677E-008  0.6453438E+03  0.7818608E-02  0.9815556E-01
         -1   -1    0    0    0  501 -0.00000000000E+00  0.00000000000E+00  0.46863289044E+03  0.46863289046E+03  0.50400000000E-02 0.  1.
          1   -1    0    0  501    0  0.00000000000E+00 -0.00000000000E+00 -0.12337447877E+04  0.12337447877E+04  0.50400000000E-02 0. -1.
    8880022    1    1    2    0    0  0.61377770568E+03 -0.12788251509E+03 -0.83270695449E+03  0.10535034574E+04  0.15294330000E+03 0.  0.
    8880022    1    1    2    0    0 -0.61377770568E+03  0.12788251509E+03  0.67595057204E+02  0.64887422081E+03  0.15294330000E+03 0.  0.
<mgrwt>
<rscale>  0 0.64534383E+03</rscale>
<asrwt>0</asrwt>
<pdfrwt beam="1">  1        1 0.18980689E+00 0.64534383E+03</pdfrwt>
<pdfrwt beam="2">  1       -1 0.72097369E-01 0.64534383E+03</pdfrwt>
<totfact> 0.20507079E+01</totfact>
</mgrwt>
</event>
<event>
 4    1  0.1852677E-008  0.2230032E+03  0.7818608E-02  0.1131664E+00
          1   -1    0    0  501    0  0.00000000000E+00  0.00000000000E+00  0.27546298155E+03  0.27546298159E+03  0.50400000000E-02 0. -1.
         -1   -1    0    0    0  501 -0.00000000000E+00 -0.00000000000E+00 -0.52269073835E+03  0.52269073837E+03  0.50400000000E-02 0.  1.
    8880022    1    1    2    0    0  0.16228196944E+03  0.18291176607E+01  0.19927024237E+03  0.29906364838E+03  0.15294330000E+03 0.  0.
    8880022    1    1    2    0    0 -0.16228196944E+03 -0.18291176607E+01 -0.44649799917E+03  0.49909007158E+03  0.15294330000E+03 0.  1.
<mgrwt>
<rscale>  0 0.22300322E+03</rscale>
<asrwt>0</asrwt>
<pdfrwt beam="1">  1        1 0.42378920E-01 0.22300322E+03</pdfrwt>
<pdfrwt beam="2">  1       -1 0.80413960E-01 0.22300322E+03</pdfrwt>
<totfact> 0.15994578E+02</totfact>
</mgrwt>
</event>
<event>
 4    1  0.1852677E-008  0.4361433E+03  0.7818608E-02  0.1031937E+00
          1   -1    0    0  501    0  0.00000000000E+00  0.00000000000E+00  0.14736014825E+04  0.14736014825E+04  0.50400000000E-02 0. -1.
         -1   -1    0    0    0  501 -0.00000000000E+00 -0.00000000000E+00 -0.16805989505E+03  0.16805989513E+03  0.50400000000E-02 0.  1.
    8880022    1    1    2    0    0  0.15508215888E+03 -0.37786087560E+03  0.10480552826E+04  0.11351831772E+04  0.15294330000E+03 0.  0.
    8880022    1    1    2    0    0 -0.15508215888E+03  0.37786087560E+03  0.25748630476E+03  0.50647820039E+03  0.15294330000E+03 0.  0.
<mgrwt>
<rscale>  0 0.43614329E+03</rscale>
<asrwt>0</asrwt>
<pdfrwt beam="1">  1        1 0.22670792E+00 0.43614329E+03</pdfrwt>
<pdfrwt beam="2">  1       -1 0.25855368E-01 0.43614329E+03</pdfrwt>
<totfact> 0.95817349E+01</totfact>
</mgrwt>
</event>
<event>
 4    1  0.1852677E-008  0.4895446E+03  0.7818608E-02  0.1016545E+00
          1   -1    0    0  501    0  0.00000000000E+00  0.00000000000E+00  0.99764340710E+03  0.99764340712E+03  0.50400000000E-02 0. -1.
         -1   -1    0    0    0  501 -0.00000000000E+00 -0.00000000000E+00 -0.39487142187E+03  0.39487142191E+03  0.50400000000E-02 0.  1.
    8880022    1    1    2    0    0 -0.37934847260E+03  0.26899255951E+03  0.73711745483E+03  0.88487064364E+03  0.15294330000E+03 0.  0.
    8880022    1    1    2    0    0  0.37934847260E+03 -0.26899255951E+03 -0.13434546960E+03  0.50764418539E+03  0.15294330000E+03 0.  0.
<mgrwt>
<rscale>  0 0.48954460E+03</rscale>
<asrwt>0</asrwt>
<pdfrwt beam="1">  1        1 0.15348360E+00 0.48954460E+03</pdfrwt>
<pdfrwt beam="2">  1       -1 0.60749450E-01 0.48954460E+03</pdfrwt>
<totfact> 0.44224199E+01</totfact>
</mgrwt>
</event>
<event>
 4    1  0.1852677E-008  0.7737251E+03  0.7818608E-02  0.9598847E-01
          1   -1    0    0  501    0  0.00000000000E+00  0.00000000000E+00  0.14494259793E+04  0.14494259793E+04  0.50400000000E-02 0. -1.
         -1   -1    0    0    0  501 -0.00000000000E+00 -0.00000000000E+00 -0.77778576716E+03  0.77778576718E+03  0.50400000000E-02 0.  1.
    8880022    1    1    2    0    0 -0.75722787545E+03 -0.43183295067E+02  0.10984345503E+04  0.13435806513E+04  0.15294330000E+03 0.  0.
    8880022    1    1    2    0    0  0.75722787545E+03  0.43183295067E+02 -0.42679433812E+03  0.88363109519E+03  0.15294330000E+03 0.  0.
<mgrwt>
<rscale>  0 0.77372508E+03</rscale>
<asrwt>0</asrwt>
<pdfrwt beam="1">  1        1 0.22298861E+00 0.77372508E+03</pdfrwt>
<pdfrwt beam="2">  1       -1 0.11965935E+00 0.77372508E+03</pdfrwt>
<totfact> 0.45888129E+00</totfact>
</mgrwt>
</event>
<event>
 4    1  0.1852677E-008  0.8221089E+03  0.7818608E-02  0.9528555E-01
          1   -1    0    0  501    0  0.00000000000E+00  0.00000000000E+00  0.14419954007E+04  0.14419954007E+04  0.50400000000E-02 0. -1.
         -1   -1    0    0    0  501 -0.00000000000E+00 -0.00000000000E+00 -0.75009946169E+03  0.75009946171E+03  0.50400000000E-02 0.  1.
    8880022    1    1    2    0    0 -0.79863439650E+03 -0.12105577541E+03  0.10172711681E+04  0.13079387151E+04  0.15294330000E+03 0.  0.
    8880022    1    1    2    0    0  0.79863439650E+03  0.12105577541E+03 -0.32537522912E+03  0.88415614728E+03  0.15294330000E+03 0.  0.
<mgrwt>
<rscale>  0 0.82210891E+03</rscale>
<asrwt>0</asrwt>
<pdfrwt beam="1">  1        1 0.22184544E+00 0.82210891E+03</pdfrwt>
<pdfrwt beam="2">  1       -1 0.11539992E+00 0.82210891E+03</pdfrwt>
<totfact> 0.50303335E+00</totfact>
</mgrwt>
</event>
<event>
 4    1  0.1852677E-008  0.1725194E+03  0.7818608E-02  0.1175246E+00
         -1   -1    0    0    0  501 -0.00000000000E+00  0.00000000000E+00  0.25013297176E+02  0.25013297683E+02  0.50400000000E-02 0.  1.
          1   -1    0    0  501    0  0.00000000000E+00 -0.00000000000E+00 -0.15239235320E+04  0.15239235320E+04  0.50400000000E-02 0. -1.
    8880022    1    1    2    0    0 -0.14153000861E+02  0.78555647368E+02 -0.11120488846E+04  0.11253513548E+04  0.15294330000E+03 0.  0.
    8880022    1    1    2    0    0  0.14153000861E+02 -0.78555647368E+02 -0.38686135029E+03  0.42358547488E+03  0.15294330000E+03 0.  1.
<mgrwt>
<rscale>  0 0.17251942E+03</rscale>
<asrwt>0</asrwt>
<pdfrwt beam="1">  1        1 0.23444970E+00 0.17251942E+03</pdfrwt>
<pdfrwt beam="2">  1       -1 0.38482008E-02 0.17251942E+03</pdfrwt>
<totfact> 0.17999053E+03</totfact>
</mgrwt>
</event>
<event>
 4    1  0.1852677E-008  0.6398236E+03  0.7818608E-02  0.9826064E-01
          1   -1    0    0  501    0  0.00000000000E+00  0.00000000000E+00  0.20680421244E+04  0.20680421244E+04  0.50400000000E-02 0. -1.
         -1   -1    0    0    0  501 -0.00000000000E+00 -0.00000000000E+00 -0.28437725569E+03  0.28437725573E+03  0.50400000000E-02 0.  1.
    8880022    1    1    2    0    0  0.16629062069E+03  0.59860670508E+03  0.15402522518E+04  0.16678582704E+04  0.15294330000E+03 0.  0.
    8880022    1    1    2    0    0 -0.16629062069E+03 -0.59860670508E+03  0.24341261691E+03  0.68456110974E+03  0.15294330000E+03 0.  0.
<mgrwt>
<rscale>  0 0.63982358E+03</rscale>
<asrwt>0</asrwt>
<pdfrwt beam="1">  1        1 0.31816034E+00 0.63982358E+03</pdfrwt>
<pdfrwt beam="2">  1       -1 0.43750346E-01 0.63982358E+03</pdfrwt>
<totfact> 0.14702009E+01</totfact>
</mgrwt>
</event>
<event>
 4    1  0.1852677E-008  0.4501844E+03  0.7818608E-02  0.1027667E+00
          1   -1    0    0  501    0  0.00000000000E+00  0.00000000000E+00  0.42671303133E+03  0.42671303136E+03  0.50400000000E-02 0. -1.
         -1   -1    0    0    0  501 -0.00000000000E+00 -0.00000000000E+00 -0.68349136950E+03  0.68349136952E+03  0.50400000000E-02 0.  1.
    8880022    1    1    2    0    0  0.39947015662E+03 -0.14034944238E+03  0.17823457724E+03  0.48418342552E+03  0.15294330000E+03 0.  0.
    8880022    1    1    2    0    0 -0.39947015662E+03  0.14034944238E+03 -0.43501291541E+03  0.62602097536E+03  0.15294330000E+03 0.  0.
<mgrwt>
<rscale>  0 0.45018443E+03</rscale>
<asrwt>0</asrwt>
<pdfrwt beam="1">  1        1 0.65648159E-01 0.45018443E+03</pdfrwt>
<pdfrwt beam="2">  1       -1 0.10515252E+00 0.45018443E+03</pdfrwt>
<totfact> 0.49208804E+01</totfact>
</mgrwt>
</event>
<event>
 4    1  0.1852677E-008  0.7766474E+03  0.7818608E-02  0.9594448E-01
         -1   -1    0    0    0  501 -0.00000000000E+00  0.00000000000E+00  0.48919751475E+03  0.48919751477E+03  0.50400000000E-02 0.  1.
          1   -1    0    0  501    0  0.00000000000E+00 -0.00000000000E+00 -0.17788803042E+04  0.17788803042E+04  0.50400000000E-02 0. -1.
    8880022    1    1    2    0    0 -0.72972802058E+03 -0.21745464570E+03 -0.16634357347E+02  0.77682550281E+03  0.15294330000E+03 0.  0.
    8880022    1    1    2    0    0  0.72972802058E+03  0.21745464570E+03 -0.12730484321E+04  0.14912523162E+04  0.15294330000E+03 0.  0.
<mgrwt>
<rscale>  0 0.77664738E+03</rscale>
<asrwt>0</asrwt>
<pdfrwt beam="1">  1        1 0.27367389E+00 0.77664738E+03</pdfrwt>
<pdfrwt beam="2">  1       -1 0.75261157E-01 0.77664738E+03</pdfrwt>
<totfact> 0.77697417E+00</totfact>
</mgrwt>
</event>
<event>
 4    1  0.1852677E-008  0.2969941E+03  0.7818608E-02  0.1086753E+00
         -1   -1    0    0    0  501 -0.00000000000E+00  0.00000000000E+00  0.27957649179E+03  0.27957649183E+03  0.50400000000E-02 0.  1.
          1   -1    0    0  501    0  0.00000000000E+00 -0.00000000000E+00 -0.11071209324E+04  0.11071209324E+04  0.50400000000E-02 0. -1.
    8880022    1    1    2    0    0 -0.24133975270E+03 -0.81049152930E+02 -0.10000638432E+04  0.10432320858E+04  0.15294330000E+03 0. -1.
    8880022    1    1    2    0    0  0.24133975270E+03  0.81049152930E+02  0.17251940257E+03  0.34346533843E+03  0.15294330000E+03 0.  0.
<mgrwt>
<rscale>  0 0.29699410E+03</rscale>
<asrwt>0</asrwt>
<pdfrwt beam="1">  1        1 0.17032630E+00 0.29699410E+03</pdfrwt>
<pdfrwt beam="2">  1       -1 0.43011769E-01 0.29699410E+03</pdfrwt>
<totfact> 0.72788279E+01</totfact>
</mgrwt>
</event>
<event>
 4    1  0.1852677E-008  0.1097296E+04  0.7818608E-02  0.9207831E-01
         -1   -1    0    0    0  501 -0.00000000000E+00  0.00000000000E+00  0.18198359936E+04  0.18198359936E+04  0.50400000000E-02 0.  1.
          1   -1    0    0  501    0  0.00000000000E+00 -0.00000000000E+00 -0.13390608857E+04  0.13390608857E+04  0.50400000000E-02 0. -1.
    8880022    1    1    2    0    0  0.82858118552E+03  0.70293660733E+03 -0.88302105827E+03  0.14084688485E+04  0.15294330000E+03 0.  0.
    8880022    1    1    2    0    0 -0.82858118552E+03 -0.70293660733E+03  0.13637961662E+04  0.17504280308E+04  0.15294330000E+03 0.  0.
<mgrwt>
<rscale>  0 0.10972959E+04</rscale>
<asrwt>0</asrwt>
<pdfrwt beam="1">  1        1 0.20600937E+00 0.10972959E+04</pdfrwt>
<pdfrwt beam="2">  1       -1 0.27997477E+00 0.10972959E+04</pdfrwt>
<totfact> 0.37679483E-01</totfact>
</mgrwt>
</event>
<event>
 4    1  0.1959763E-008  0.8235673E+03  0.7818608E-02  0.9526517E-01
         -1   -1    0    0    0  501 -0.00000000000E+00  0.00000000000E+00  0.18506506553E+04  0.18506506553E+04  0.50400000000E-02 0.  1.
          1   -1    0    0  501    0  0.00000000000E+00 -0.00000000000E+00 -0.15173611685E+04  0.15173611685E+04  0.50400000000E-02 0. -1.
    8880022    1    1    2    0    0 -0.54055574813E+03 -0.60222169666E+03 -0.12999517096E+04  0.15388754300E+04  0.15294330000E+03 0.  0.
    8880022    1    1    2    0    0  0.54055574813E+03  0.60222169666E+03  0.16332411964E+04  0.18291363938E+04  0.15294330000E+03 0.  0.
<mgrwt>
<rscale>  0 0.82356733E+03</rscale>
<asrwt>0</asrwt>
<pdfrwt beam="1">  1        1 0.23344018E+00 0.82356733E+03</pdfrwt>
<pdfrwt beam="2">  1       -1 0.28471548E+00 0.82356733E+03</pdfrwt>
<totfact> 0.27752398E-01</totfact>
</mgrwt>
</event>
<event>
 4    1  0.1852677E-008  0.4124828E+03  0.7818608E-02  0.1039541E+00
         -1   -1    0    0    0  501 -0.00000000000E+00  0.00000000000E+00  0.27827681169E+03  0.27827681174E+03  0.50400000000E-02 0.  1.
          1   -1    0    0  501    0  0.00000000000E+00 -0.00000000000E+00 -0.24380758723E+04  0.24380758723E+04  0.50400000000E-02 0. -1.
    8880022    1    1    2    0    0 -0.34714384499E+03 -0.16199243344E+03 -0.22555054328E+04  0.22929122983E+04  0.15294330000E+03 0.  0.
    8880022    1    1    2    0    0  0.34714384499E+03  0.16199243344E+03  0.95706372122E+02  0.42344038575E+03  0.15294330000E+03 0.  1.
<mgrwt>
<rscale>  0 0.41248279E+03</rscale>
<asrwt>0</asrwt>
<pdfrwt beam="1">  1        1 0.37508858E+00 0.41248279E+03</pdfrwt>
<pdfrwt beam="2">  1       -1 0.42811819E-01 0.41248279E+03</pdfrwt>
<totfact> 0.91393300E+00</totfact>
</mgrwt>
</event>
<event>
 4    1  0.1852677E-008  0.4309248E+03  0.7818608E-02  0.1033568E+00
          1   -1    0    0  501    0  0.00000000000E+00  0.00000000000E+00  0.23156928959E+03  0.23156928964E+03  0.50400000000E-02 0. -1.
         -1   -1    0    0    0  501 -0.00000000000E+00 -0.00000000000E+00 -0.14013675706E+04  0.14013675706E+04  0.50400000000E-02 0.  1.
    8880022    1    1    2    0    0 -0.22393913953E+03  0.33489665671E+03 -0.11189037936E+04  0.11990170396E+04  0.15294330000E+03 0.  0.
    8880022    1    1    2    0    0  0.22393913953E+03 -0.33489665671E+03 -0.50894487408E+02  0.43391982065E+03  0.15294330000E+03 0. -1.
<mgrwt>
<rscale>  0 0.43092478E+03</rscale>
<asrwt>0</asrwt>
<pdfrwt beam="1">  1        1 0.35626045E-01 0.43092478E+03</pdfrwt>
<pdfrwt beam="2">  1       -1 0.21559501E+00 0.43092478E+03</pdfrwt>
<totfact> 0.15588809E+01</totfact>
</mgrwt>
</event>
<event>
 4    1  0.1852677E-008  0.4502156E+03  0.7818608E-02  0.1027658E+00
          1   -1    0    0  501    0  0.00000000000E+00  0.00000000000E+00  0.38753851038E+04  0.38753851038E+04  0.50400000000E-02 0. -1.
         -1   -1    0    0    0  501 -0.00000000000E+00 -0.00000000000E+00 -0.12413274044E+03  0.12413274054E+03  0.50400000000E-02 0.  1.
    8880022    1    1    2    0    0  0.42279430048E+03  0.23397769449E+02  0.35442474221E+03  0.57298431658E+03  0.15294330000E+03 0.  1.
    8880022    1    1    2    0    0 -0.42279430048E+03 -0.23397769449E+02  0.33968276211E+04  0.34265335277E+04  0.15294330000E+03 0.  0.
<mgrwt>
<rscale>  0 0.45021565E+03</rscale>
<asrwt>0</asrwt>
<pdfrwt beam="1">  1        1 0.59621305E+00 0.45021565E+03</pdfrwt>
<pdfrwt beam="2">  1       -1 0.19097346E-01 0.45021565E+03</pdfrwt>
<totfact> 0.32152841E+00</totfact>
</mgrwt>
</event>
<event>
 4    1  0.1852677E-008  0.8554172E+03  0.7818608E-02  0.9483095E-01
          1   -1    0    0  501    0  0.00000000000E+00  0.00000000000E+00  0.23875534107E+04  0.23875534107E+04  0.50400000000E-02 0. -1.
         -1   -1    0    0    0  501 -0.00000000000E+00 -0.00000000000E+00 -0.32822335533E+03  0.32822335537E+03  0.50400000000E-02 0.  1.
    8880022    1    1    2    0    0  0.15700755754E+03  0.82685887204E+03  0.13791571419E+04  0.16229026596E+04  0.15294330000E+03 0.  0.
    8880022    1    1    2    0    0 -0.15700755754E+03 -0.82685887204E+03  0.68017291343E+03  0.10928741065E+04  0.15294330000E+03 0.  0.
<mgrwt>
<rscale>  0 0.85541722E+03</rscale>
<asrwt>0</asrwt>
<pdfrwt beam="1">  1        1 0.36731589E+00 0.85541722E+03</pdfrwt>
<pdfrwt beam="2">  1       -1 0.50495904E-01 0.85541722E+03</pdfrwt>
<totfact> 0.66189469E+00</totfact>
</mgrwt>
</event>
<event>
 4    1  0.1852677E-008  0.3049346E+03  0.7818608E-02  0.1082800E+00
         -1   -1    0    0    0  501 -0.00000000000E+00  0.00000000000E+00  0.88188007134E+03  0.88188007135E+03  0.50400000000E-02 0.  1.
          1   -1    0    0  501    0  0.00000000000E+00 -0.00000000000E+00 -0.10426968546E+04  0.10426968547E+04  0.50400000000E-02 0. -1.
    8880022    1    1    2    0    0 -0.16174495323E+03  0.20840359007E+03  0.83192934245E+03  0.88605393182E+03  0.15294330000E+03 0.  0.
    8880022    1    1    2    0    0  0.16174495323E+03 -0.20840359007E+03 -0.99274612575E+03  0.10385229942E+04  0.15294330000E+03 0. -1.
<mgrwt>
<rscale>  0 0.30493465E+03</rscale>
<asrwt>0</asrwt>
<pdfrwt beam="1">  1        1 0.16041490E+00 0.30493465E+03</pdfrwt>
<pdfrwt beam="2">  1       -1 0.13567386E+00 0.30493465E+03</pdfrwt>
<totfact> 0.73196829E+00</totfact>
</mgrwt>
</event>
<event>
 4    1  0.1852677E-008  0.2340077E+03  0.7818608E-02  0.1123850E+00
         -1   -1    0    0    0  501 -0.00000000000E+00  0.00000000000E+00  0.34424003963E+03  0.34424003967E+03  0.50400000000E-02 0.  1.
          1   -1    0    0  501    0  0.00000000000E+00 -0.00000000000E+00 -0.81574460363E+03  0.81574460365E+03  0.50400000000E-02 0. -1.
    8880022    1    1    2    0    0  0.13535953147E+03  0.11421792780E+03  0.28462577390E+03  0.36847173837E+03  0.15294330000E+03 0.  1.
    8880022    1    1    2    0    0 -0.13535953147E+03 -0.11421792780E+03 -0.75613033790E+03  0.79151290495E+03  0.15294330000E+03 0.  0.
<mgrwt>
<rscale>  0 0.23400767E+03</rscale>
<asrwt>0</asrwt>
<pdfrwt beam="1">  1        1 0.12549917E+00 0.23400767E+03</pdfrwt>
<pdfrwt beam="2">  1       -1 0.52960006E-01 0.23400767E+03</pdfrwt>
<totfact> 0.84367022E+01</totfact>
</mgrwt>
</event>
<event>
 4    1  0.1852677E-008  0.5565152E+03  0.7818608E-02  0.9999971E-01
          1   -1    0    0  501    0  0.00000000000E+00  0.00000000000E+00  0.39447067843E+03  0.39447067846E+03  0.50400000000E-02 0. -1.
         -1   -1    0    0    0  501 -0.00000000000E+00 -0.00000000000E+00 -0.97148014185E+03  0.97148014186E+03  0.50400000000E-02 0.  1.
    8880022    1    1    2    0    0 -0.32247641217E+03 -0.42699699290E+03  0.10623786278E+02  0.55661655222E+03  0.15294330000E+03 0.  0.
    8880022    1    1    2    0    0  0.32247641217E+03  0.42699699290E+03 -0.58763324970E+03  0.80933426810E+03  0.15294330000E+03 0.  0.
<mgrwt>
<rscale>  0 0.55651516E+03</rscale>
<asrwt>0</asrwt>
<pdfrwt beam="1">  1        1 0.60687797E-01 0.55651516E+03</pdfrwt>
<pdfrwt beam="2">  1       -1 0.14945848E+00 0.55651516E+03</pdfrwt>
<totfact> 0.22585174E+01</totfact>
</mgrwt>
</event>
<event>
 4    1  0.1852677E-008  0.2983849E+03  0.7818608E-02  0.1086051E+00
         -1   -1    0    0    0  501 -0.00000000000E+00  0.00000000000E+00  0.36368317156E+03  0.36368317159E+03  0.50400000000E-02 0.  1.
          1   -1    0    0  501    0  0.00000000000E+00 -0.00000000000E+00 -0.50937234152E+03  0.50937234154E+03  0.50400000000E-02 0. -1.
    8880022    1    1    2    0    0 -0.14054413848E+03  0.21421775820E+03  0.24175458169E+03  0.38402973007E+03  0.15294330000E+03 0.  0.
    8880022    1    1    2    0    0  0.14054413848E+03 -0.21421775820E+03 -0.38744375165E+03  0.48902578306E+03  0.15294330000E+03 0.  0.
<mgrwt>
<rscale>  0 0.29838491E+03</rscale>
<asrwt>0</asrwt>
<pdfrwt beam="1">  1        1 0.78364976E-01 0.29838491E+03</pdfrwt>
<pdfrwt beam="2">  1       -1 0.55951257E-01 0.29838491E+03</pdfrwt>
<totfact> 0.14744028E+02</totfact>
</mgrwt>
</event>
<event>
 4    1  0.1852677E-008  0.1955143E+03  0.7818608E-02  0.1153580E+00
         -1   -1    0    0    0  501 -0.00000000000E+00  0.00000000000E+00  0.34246580569E+03  0.34246580573E+03  0.50400000000E-02 0.  1.
          1   -1    0    0  501    0  0.00000000000E+00 -0.00000000000E+00 -0.38345645943E+03  0.38345645946E+03  0.50400000000E-02 0. -1.
    8880022    1    1    2    0    0 -0.11262697582E+03 -0.46361236526E+02  0.28510679513E+03  0.34570469707E+03  0.15294330000E+03 0.  1.
    8880022    1    1    2    0    0  0.11262697582E+03  0.46361236526E+02 -0.32609744886E+03  0.38021756812E+03  0.15294330000E+03 0.  0.
<mgrwt>
<rscale>  0 0.19551433E+03</rscale>
<asrwt>0</asrwt>
<pdfrwt beam="1">  1        1 0.58993302E-01 0.19551433E+03</pdfrwt>
<pdfrwt beam="2">  1       -1 0.52687047E-01 0.19551433E+03</pdfrwt>
<totfact> 0.24239301E+02</totfact>
</mgrwt>
</event>
<event>
 4    1  0.1852677E-008  0.5156280E+03  0.7818608E-02  0.1009778E+00
          1   -1    0    0  501    0  0.00000000000E+00  0.00000000000E+00  0.89226671618E+03  0.89226671620E+03  0.50400000000E-02 0. -1.
         -1   -1    0    0    0  501 -0.00000000000E+00 -0.00000000000E+00 -0.31795935220E+03  0.31795935224E+03  0.50400000000E-02 0.  1.
    8880022    1    1    2    0    0  0.23673930634E+03 -0.43178125143E+03  0.13544599097E+03  0.53312082846E+03  0.15294330000E+03 0.  0.
    8880022    1    1    2    0    0 -0.23673930634E+03  0.43178125143E+03  0.43886137301E+03  0.67710523997E+03  0.15294330000E+03 0.  0.
<mgrwt>
<rscale>  0 0.51562797E+03</rscale>
<asrwt>0</asrwt>
<pdfrwt beam="1">  1        1 0.13727180E+00 0.51562797E+03</pdfrwt>
<pdfrwt beam="2">  1       -1 0.48916823E-01 0.51562797E+03</pdfrwt>
<totfact> 0.80732815E+01</totfact>
</mgrwt>
</event>
<event>
 4    1  0.1852677E-008  0.9166507E+03  0.7818608E-02  0.9405003E-01
         -1   -1    0    0    0  501 -0.00000000000E+00  0.00000000000E+00  0.57500344049E+03  0.57500344052E+03  0.50400000000E-02 0.  1.
          1   -1    0    0  501    0  0.00000000000E+00 -0.00000000000E+00 -0.20247585680E+04  0.20247585680E+04  0.50400000000E-02 0. -1.
    8880022    1    1    2    0    0 -0.70711082650E+02  0.90103093033E+03 -0.14106036998E+04  0.16822756152E+04  0.15294330000E+03 0.  0.
    8880022    1    1    2    0    0  0.70711082650E+02 -0.90103093033E+03 -0.39151427706E+02  0.91748639332E+03  0.15294330000E+03 0.  0.
<mgrwt>
<rscale>  0 0.91665067E+03</rscale>
<asrwt>0</asrwt>
<pdfrwt beam="1">  1        1 0.31150132E+00 0.91665067E+03</pdfrwt>
<pdfrwt beam="2">  1       -1 0.88462069E-01 0.91665067E+03</pdfrwt>
<totfact> 0.36816886E+00</totfact>
</mgrwt>
</event>
<event>
 4    1  0.1852677E-008  0.4200486E+03  0.7818608E-02  0.1037050E+00
          1   -1    0    0  501    0  0.00000000000E+00  0.00000000000E+00  0.38433661790E+03  0.38433661793E+03  0.50400000000E-02 0. -1.
         -1   -1    0    0    0  501 -0.00000000000E+00 -0.00000000000E+00 -0.68703274809E+03  0.68703274810E+03  0.50400000000E-02 0.  1.
    8880022    1    1    2    0    0 -0.78391526930E+02 -0.38328046796E+03 -0.45991120702E+03  0.62286364477E+03  0.15294330000E+03 0.  1.
    8880022    1    1    2    0    0  0.78391526930E+02  0.38328046796E+03  0.15721507683E+03  0.44850572127E+03  0.15294330000E+03 0.  0.
<mgrwt>
<rscale>  0 0.42004857E+03</rscale>
<asrwt>0</asrwt>
<pdfrwt beam="1">  1        1 0.59128710E-01 0.42004857E+03</pdfrwt>
<pdfrwt beam="2">  1       -1 0.10569735E+00 0.42004857E+03</pdfrwt>
<totfact> 0.55996302E+01</totfact>
</mgrwt>
</event>
<event>
 4    1  0.1852677E-008  0.6973170E+03  0.7818608E-02  0.9721831E-01
         -1   -1    0    0    0  501 -0.00000000000E+00  0.00000000000E+00  0.20418410959E+03  0.20418410965E+03  0.50400000000E-02 0.  1.
          1   -1    0    0  501    0  0.00000000000E+00 -0.00000000000E+00 -0.26384563403E+04  0.26384563403E+04  0.50400000000E-02 0. -1.
    8880022    1    1    2    0    0  0.48569707046E+03 -0.47640079728E+03 -0.77352515498E+03  0.10414375556E+04  0.15294330000E+03 0.  0.
    8880022    1    1    2    0    0 -0.48569707046E+03  0.47640079728E+03 -0.16607470757E+04  0.18012028943E+04  0.15294330000E+03 0.  0.
<mgrwt>
<rscale>  0 0.69731701E+03</rscale>
<asrwt>0</asrwt>
<pdfrwt beam="1">  1        1 0.40591634E+00 0.69731701E+03</pdfrwt>
<pdfrwt beam="2">  1       -1 0.31412942E-01 0.69731701E+03</pdfrwt>
<totfact> 0.10859922E+01</totfact>
</mgrwt>
</event>
<event>
 4    1  0.1852677E-008  0.3386938E+03  0.7818608E-02  0.1067354E+00
          1   -1    0    0  501    0  0.00000000000E+00  0.00000000000E+00  0.37373442968E+03  0.37373442971E+03  0.50400000000E-02 0. -1.
         -1   -1    0    0    0  501 -0.00000000000E+00 -0.00000000000E+00 -0.40578026106E+03  0.40578026109E+03  0.50400000000E-02 0.  1.
    8880022    1    1    2    0    0  0.65614524594E+02  0.29498572899E+03 -0.20838479250E+03  0.39766533783E+03  0.15294330000E+03 0.  0.
    8880022    1    1    2    0    0 -0.65614524594E+02 -0.29498572899E+03  0.17633896112E+03  0.38184935298E+03  0.15294330000E+03 0.  0.
<mgrwt>
<rscale>  0 0.33869381E+03</rscale>
<asrwt>0</asrwt>
<pdfrwt beam="1">  1        1 0.57497604E-01 0.33869381E+03</pdfrwt>
<pdfrwt beam="2">  1       -1 0.62427733E-01 0.33869381E+03</pdfrwt>
<totfact> 0.17831093E+02</totfact>
</mgrwt>
</event>
<event>
 4    1  0.1852677E-008  0.8760102E+03  0.7818608E-02  0.9456077E-01
         -1   -1    0    0    0  501 -0.00000000000E+00  0.00000000000E+00  0.22370033095E+03  0.22370033101E+03  0.50400000000E-02 0.  1.
          1   -1    0    0  501    0  0.00000000000E+00 -0.00000000000E+00 -0.35753299435E+04  0.35753299436E+04  0.50400000000E-02 0. -1.
    8880022    1    1    2    0    0  0.54087700269E+03  0.67190344874E+03 -0.20581831545E+04  0.22368530857E+04  0.15294330000E+03 0.  0.
    8880022    1    1    2    0    0 -0.54087700269E+03 -0.67190344874E+03 -0.12934464581E+04  0.15621771889E+04  0.15294330000E+03 0.  0.
<mgrwt>
<rscale>  0 0.87601018E+03</rscale>
<asrwt>0</asrwt>
<pdfrwt beam="1">  1        1 0.55005072E+00 0.87601018E+03</pdfrwt>
<pdfrwt beam="2">  1       -1 0.34415438E-01 0.87601018E+03</pdfrwt>
<totfact> 0.18486839E+00</totfact>
</mgrwt>
</event>
<event>
 4    1  0.1852677E-008  0.5154972E+03  0.7818608E-02  0.1009811E+00
         -1   -1    0    0    0  501 -0.00000000000E+00  0.00000000000E+00  0.60412710668E+03  0.60412710670E+03  0.50400000000E-02 0.  1.
          1   -1    0    0  501    0  0.00000000000E+00 -0.00000000000E+00 -0.86948056643E+03  0.86948056645E+03  0.50400000000E-02 0. -1.
    8880022    1    1    2    0    0 -0.48959189137E+03 -0.51434340051E+02  0.38523940112E+03  0.64354235340E+03  0.15294330000E+03 0.  0.
    8880022    1    1    2    0    0  0.48959189137E+03  0.51434340051E+02 -0.65059286087E+03  0.83006531975E+03  0.15294330000E+03 0.  0.
<mgrwt>
<rscale>  0 0.51549720E+03</rscale>
<asrwt>0</asrwt>
<pdfrwt beam="1">  1        1 0.13376624E+00 0.51549720E+03</pdfrwt>
<pdfrwt beam="2">  1       -1 0.92942632E-01 0.51549720E+03</pdfrwt>
<totfact> 0.23022388E+01</totfact>
</mgrwt>
</event>
<event>
 4    1  0.1852677E-008  0.4078244E+03  0.7818608E-02  0.1041104E+00
          1   -1    0    0  501    0  0.00000000000E+00  0.00000000000E+00  0.20491269016E+04  0.20491269016E+04  0.50400000000E-02 0. -1.
         -1   -1    0    0    0  501 -0.00000000000E+00 -0.00000000000E+00 -0.28700615842E+03  0.28700615847E+03  0.50400000000E-02 0.  1.
    8880022    1    1    2    0    0 -0.13442745515E+03  0.35335301867E+03  0.18702654754E+04  0.19142135978E+04  0.15294330000E+03 0.  0.
    8880022    1    1    2    0    0  0.13442745515E+03 -0.35335301867E+03 -0.10814473225E+03  0.42191946225E+03  0.15294330000E+03 0.  0.
<mgrwt>
<rscale>  0 0.40782441E+03</rscale>
<asrwt>0</asrwt>
<pdfrwt beam="1">  1        1 0.31525030E+00 0.40782441E+03</pdfrwt>
<pdfrwt beam="2">  1       -1 0.44154792E-01 0.40782441E+03</pdfrwt>
<totfact> 0.15662180E+01</totfact>
</mgrwt>
</event>
<event>
 4    1  0.1852677E-008  0.2635996E+03  0.7818608E-02  0.1105000E+00
         -1   -1    0    0    0  501 -0.00000000000E+00  0.00000000000E+00  0.11531856555E+04  0.11531856555E+04  0.50400000000E-02 0.  1.
          1   -1    0    0  501    0  0.00000000000E+00 -0.00000000000E+00 -0.23457985866E+03  0.23457985872E+03  0.50400000000E-02 0. -1.
    8880022    1    1    2    0    0 -0.12224361706E+03 -0.17649241065E+03 -0.13886198068E+03  0.29793854337E+03  0.15294330000E+03 0.  0.
    8880022    1    1    2    0    0  0.12224361706E+03  0.17649241065E+03  0.10574677775E+04  0.10898269709E+04  0.15294330000E+03 0.  0.
<mgrwt>
<rscale>  0 0.26359956E+03</rscale>
<asrwt>0</asrwt>
<pdfrwt beam="1">  1        1 0.36089209E-01 0.26359956E+03</pdfrwt>
<pdfrwt beam="2">  1       -1 0.17741318E+00 0.26359956E+03</pdfrwt>
<totfact> 0.28888402E+01</totfact>
</mgrwt>
</event>
<event>
 4    1  0.1852677E-008  0.1097584E+04  0.7818608E-02  0.9207550E-01
          1   -1    0    0  501    0  0.00000000000E+00  0.00000000000E+00  0.14220716077E+04  0.14220716077E+04  0.50400000000E-02 0. -1.
         -1   -1    0    0    0  501 -0.00000000000E+00 -0.00000000000E+00 -0.15153664150E+04  0.15153664150E+04  0.50400000000E-02 0.  1.
    8880022    1    1    2    0    0  0.55623894456E+03  0.93375422130E+03 -0.10219569599E+04  0.14996954324E+04  0.15294330000E+03 0.  0.
    8880022    1    1    2    0    0 -0.55623894456E+03 -0.93375422130E+03  0.92866215253E+03  0.14377425902E+04  0.15294330000E+03 0.  0.
<mgrwt>
<rscale>  0 0.10975839E+04</rscale>
<asrwt>0</asrwt>
<pdfrwt beam="1">  1        1 0.21878025E+00 0.10975839E+04</pdfrwt>
<pdfrwt beam="2">  1       -1 0.23313329E+00 0.10975839E+04</pdfrwt>
<totfact> 0.66324282E-01</totfact>
</mgrwt>
</event>
<event>
 4    1  0.1852677E-008  0.3263469E+03  0.7818608E-02  0.1072765E+00
         -1   -1    0    0    0  501 -0.00000000000E+00  0.00000000000E+00  0.30546098005E+03  0.30546098009E+03  0.50400000000E-02 0.  1.
          1   -1    0    0  501    0  0.00000000000E+00 -0.00000000000E+00 -0.18540124291E+04  0.18540124291E+04  0.50400000000E-02 0. -1.
    8880022    1    1    2    0    0  0.16391028761E+03  0.23715826654E+03  0.19865186410E+03  0.38205345424E+03  0.15294330000E+03 0.  0.
    8880022    1    1    2    0    0 -0.16391028761E+03 -0.23715826654E+03 -0.17472033132E+04  0.17774199550E+04  0.15294330000E+03 0.  0.
<mgrwt>
<rscale>  0 0.32634687E+03</rscale>
<asrwt>0</asrwt>
<pdfrwt beam="1">  1        1 0.28523268E+00 0.32634687E+03</pdfrwt>
<pdfrwt beam="2">  1       -1 0.46993998E-01 0.32634687E+03</pdfrwt>
<totfact> 0.19233032E+01</totfact>
</mgrwt>
</event>
<event>
 4    1  0.1852677E-008  0.3013766E+03  0.7818608E-02  0.1084554E+00
          1   -1    0    0  501    0  0.00000000000E+00  0.00000000000E+00  0.13173125808E+04  0.13173125808E+04  0.50400000000E-02 0. -1.
         -1   -1    0    0    0  501 -0.00000000000E+00 -0.00000000000E+00 -0.16683658590E+03  0.16683658597E+03  0.50400000000E-02 0.  1.
    8880022    1    1    2    0    0  0.20081793515E+03  0.16464615982E+03  0.11436522113E+04  0.11826953261E+04  0.15294330000E+03 0.  0.
    8880022    1    1    2    0    0 -0.20081793515E+03 -0.16464615982E+03  0.68237836263E+01  0.30145384068E+03  0.15294330000E+03 0.  1.
<mgrwt>
<rscale>  0 0.30137660E+03</rscale>
<asrwt>0</asrwt>
<pdfrwt beam="1">  1        1 0.20266348E+00 0.30137660E+03</pdfrwt>
<pdfrwt beam="2">  1       -1 0.25667167E-01 0.30137660E+03</pdfrwt>
<totfact> 0.12696624E+02</totfact>
</mgrwt>
</event>
<event>
 4    1  0.1852677E-008  0.7817324E+03  0.7818608E-02  0.9586842E-01
         -1   -1    0    0    0  501 -0.00000000000E+00  0.00000000000E+00  0.14113014803E+04  0.14113014803E+04  0.50400000000E-02 0.  1.
          1   -1    0    0  501    0  0.00000000000E+00 -0.00000000000E+00 -0.48758901223E+03  0.48758901226E+03  0.50400000000E-02 0. -1.
    8880022    1    1    2    0    0  0.70749047728E+03  0.29524744540E+03  0.14419667647E+03  0.79492022492E+03  0.15294330000E+03 0.  0.
    8880022    1    1    2    0    0 -0.70749047728E+03 -0.29524744540E+03  0.77951579159E+03  0.11039702676E+04  0.15294330000E+03 0.  0.
<mgrwt>
<rscale>  0 0.78173236E+03</rscale>
<asrwt>0</asrwt>
<pdfrwt beam="1">  1        1 0.75013697E-01 0.78173236E+03</pdfrwt>
<pdfrwt beam="2">  1       -1 0.21712330E+00 0.78173236E+03</pdfrwt>
<totfact> 0.54483085E+00</totfact>
</mgrwt>
</event>
<event>
 4    1  0.1852677E-008  0.4012587E+03  0.7818608E-02  0.1043345E+00
          1   -1    0    0  501    0  0.00000000000E+00  0.00000000000E+00  0.45442493977E+03  0.45442493980E+03  0.50400000000E-02 0. -1.
         -1   -1    0    0    0  501 -0.00000000000E+00 -0.00000000000E+00 -0.38074600363E+03  0.38074600367E+03  0.50400000000E-02 0.  1.
    8880022    1    1    2    0    0 -0.36731966027E+03  0.51895523442E+02  0.14686750318E+03  0.42729216548E+03  0.15294330000E+03 0.  0.
    8880022    1    1    2    0    0  0.36731966027E+03 -0.51895523442E+02 -0.73188567045E+02  0.40787877799E+03  0.15294330000E+03 0.  0.
<mgrwt>
<rscale>  0 0.40125868E+03</rscale>
<asrwt>0</asrwt>
<pdfrwt beam="1">  1        1 0.69911528E-01 0.40125868E+03</pdfrwt>
<pdfrwt beam="2">  1       -1 0.58576309E-01 0.40125868E+03</pdfrwt>
<totfact> 0.15538664E+02</totfact>
</mgrwt>
</event>
<event>
 4    1  0.1852677E-008  0.2993050E+03  0.7818608E-02  0.1085589E+00
         -1   -1    0    0    0  501 -0.00000000000E+00  0.00000000000E+00  0.63105798217E+03  0.63105798219E+03  0.50400000000E-02 0.  1.
          1   -1    0    0  501    0  0.00000000000E+00 -0.00000000000E+00 -0.39721813140E+03  0.39721813143E+03  0.50400000000E-02 0. -1.
    8880022    1    1    2    0    0 -0.13072598657E+03 -0.22159091291E+03 -0.29523174489E+03  0.42041081391E+03  0.15294330000E+03 0.  0.
    8880022    1    1    2    0    0  0.13072598657E+03  0.22159091291E+03  0.52907159565E+03  0.60786529971E+03  0.15294330000E+03 0.  0.
<mgrwt>
<rscale>  0 0.29930498E+03</rscale>
<asrwt>0</asrwt>
<pdfrwt beam="1">  1        1 0.61110482E-01 0.29930498E+03</pdfrwt>
<pdfrwt beam="2">  1       -1 0.97085843E-01 0.29930498E+03</pdfrwt>
<totfact> 0.66271828E+01</totfact>
</mgrwt>
</event>
<event>
 4    1  0.1852677E-008  0.2484651E+03  0.7818608E-02  0.1114279E+00
         -1   -1    0    0    0  501 -0.00000000000E+00  0.00000000000E+00  0.21549087546E+02  0.21549088135E+02  0.50400000000E-02 0.  1.
          1   -1    0    0  501    0  0.00000000000E+00 -0.00000000000E+00 -0.36030816895E+04  0.36030816895E+04  0.50400000000E-02 0. -1.
    8880022    1    1    2    0    0 -0.19566640243E+03 -0.76084322711E+01 -0.26111053148E+04  0.26229002740E+04  0.15294330000E+03 0.  0.
    8880022    1    1    2    0    0  0.19566640243E+03  0.76084322711E+01 -0.97042728714E+03  0.10017305036E+04  0.15294330000E+03 0.  0.
<mgrwt>
<rscale>  0 0.24846505E+03</rscale>
<asrwt>0</asrwt>
<pdfrwt beam="1">  1        1 0.55431978E+00 0.24846505E+03</pdfrwt>
<pdfrwt beam="2">  1       -1 0.33152471E-02 0.24846505E+03</pdfrwt>
<totfact> 0.85760030E+01</totfact>
</mgrwt>
</event>
<event>
 4    1  0.1852677E-008  0.4298087E+03  0.7818608E-02  0.1033920E+00
          1   -1    0    0  501    0  0.00000000000E+00  0.00000000000E+00  0.10152047374E+04  0.10152047374E+04  0.50400000000E-02 0. -1.
         -1   -1    0    0    0  501 -0.00000000000E+00 -0.00000000000E+00 -0.18570048248E+03  0.18570048255E+03  0.50400000000E-02 0.  1.
    8880022    1    1    2    0    0 -0.20188831861E+03 -0.34725344763E+03  0.49987169745E+03  0.65924746265E+03  0.15294330000E+03 0. -1.
    8880022    1    1    2    0    0  0.20188831861E+03  0.34725344763E+03  0.32963255744E+03  0.54165775728E+03  0.15294330000E+03 0.  1.
<mgrwt>
<rscale>  0 0.42980868E+03</rscale>
<asrwt>0</asrwt>
<pdfrwt beam="1">  1        1 0.15618534E+00 0.42980868E+03</pdfrwt>
<pdfrwt beam="2">  1       -1 0.28569306E-01 0.42980868E+03</pdfrwt>
<totfact> 0.17087939E+02</totfact>
</mgrwt>
</event>
<event>
 4    1  0.1852677E-008  0.3567942E+03  0.7818608E-02  0.1059860E+00
          1   -1    0    0  501    0  0.00000000000E+00  0.00000000000E+00  0.40477136173E+03  0.40477136176E+03  0.50400000000E-02 0. -1.
         -1   -1    0    0    0  501 -0.00000000000E+00 -0.00000000000E+00 -0.78391218674E+03  0.78391218675E+03  0.50400000000E-02 0.  1.
    8880022    1    1    2    0    0 -0.21144070854E+03 -0.24331726137E+03  0.27034502615E+03  0.44764779581E+03  0.15294330000E+03 0. -1.
    8880022    1    1    2    0    0  0.21144070854E+03  0.24331726137E+03 -0.64948585116E+03  0.74103575270E+03  0.15294330000E+03 0.  0.
<mgrwt>
<rscale>  0 0.35679422E+03</rscale>
<asrwt>0</asrwt>
<pdfrwt beam="1">  1        1 0.62272517E-01 0.35679422E+03</pdfrwt>
<pdfrwt beam="2">  1       -1 0.12060187E+00 0.35679422E+03</pdfrwt>
<totfact> 0.38792779E+01</totfact>
</mgrwt>
</event>
<event>
 4    1  0.1852677E-008  0.1535273E+03  0.7818608E-02  0.1196204E+00
         -1   -1    0    0    0  501 -0.00000000000E+00  0.00000000000E+00  0.93087571738E+02  0.93087571874E+02  0.50400000000E-02 0.  1.
          1   -1    0    0  501    0  0.00000000000E+00 -0.00000000000E+00 -0.13854629210E+04  0.13854629210E+04  0.50400000000E-02 0. -1.
    8880022    1    1    2    0    0  0.25568951732E+01 -0.13131883438E+02  0.22126348452E+02  0.15511354675E+03  0.15294330000E+03 0.  0.
    8880022    1    1    2    0    0 -0.25568951732E+01  0.13131883438E+02 -0.13145016977E+04  0.13234369461E+04  0.15294330000E+03 0. -1.
<mgrwt>
<rscale>  0 0.15352732E+03</rscale>
<asrwt>0</asrwt>
<pdfrwt beam="1">  1        1 0.21314813E+00 0.15352732E+03</pdfrwt>
<pdfrwt beam="2">  1       -1 0.14321166E-01 0.15352732E+03</pdfrwt>
<totfact> 0.30425012E+02</totfact>
</mgrwt>
</event>
<event>
 4    1  0.1852677E-008  0.3399192E+03  0.7818608E-02  0.1066830E+00
         -1   -1    0    0    0  501 -0.00000000000E+00  0.00000000000E+00  0.44534399751E+03  0.44534399754E+03  0.50400000000E-02 0.  1.
          1   -1    0    0  501    0  0.00000000000E+00 -0.00000000000E+00 -0.11093303135E+04  0.11093303135E+04  0.50400000000E-02 0. -1.
    8880022    1    1    2    0    0  0.28488963906E+03  0.10483940388E+03 -0.10123825752E+04  0.10679248750E+04  0.15294330000E+03 0.  0.
    8880022    1    1    2    0    0 -0.28488963906E+03 -0.10483940388E+03  0.34839625921E+03  0.48674943605E+03  0.15294330000E+03 0.  0.
<mgrwt>
<rscale>  0 0.33991920E+03</rscale>
<asrwt>0</asrwt>
<pdfrwt beam="1">  1        1 0.17066620E+00 0.33991920E+03</pdfrwt>
<pdfrwt beam="2">  1       -1 0.68514462E-01 0.33991920E+03</pdfrwt>
<totfact> 0.29652136E+01</totfact>
</mgrwt>
</event>
<event>
 4    1  0.1852677E-008  0.4775149E+03  0.7818608E-02  0.1019820E+00
          1   -1    0    0  501    0  0.00000000000E+00  0.00000000000E+00  0.13344900314E+04  0.13344900314E+04  0.50400000000E-02 0. -1.
         -1   -1    0    0    0  501 -0.00000000000E+00 -0.00000000000E+00 -0.25325332116E+03  0.25325332121E+03  0.50400000000E-02 0.  1.
    8880022    1    1    2    0    0 -0.71647772409E+02  0.44664906477E+03  0.87825024697E+02  0.48552412745E+03  0.15294330000E+03 0.  0.
    8880022    1    1    2    0    0  0.71647772409E+02 -0.44664906477E+03  0.99341168555E+03  0.11022192252E+04  0.15294330000E+03 0.  0.
<mgrwt>
<rscale>  0 0.47751486E+03</rscale>
<asrwt>0</asrwt>
<pdfrwt beam="1">  1        1 0.20530616E+00 0.47751486E+03</pdfrwt>
<pdfrwt beam="2">  1       -1 0.38962049E-01 0.47751486E+03</pdfrwt>
<totfact> 0.58022450E+01</totfact>
</mgrwt>
</event>
<event>
 4    1  0.1889041E-008  0.1106958E+04  0.7818608E-02  0.9198437E-01
          1   -1    0    0  501    0  0.00000000000E+00  0.00000000000E+00  0.22649764777E+04  0.22649764777E+04  0.50400000000E-02 0. -1.
         -1   -1    0    0    0  501 -0.00000000000E+00 -0.00000000000E+00 -0.10487172666E+04  0.10487172666E+04  0.50400000000E-02 0.  1.
    8880022    1    1    2    0    0  0.10057832789E+03  0.10917180256E+04  0.17609547621E+04  0.20799801861E+04  0.15294330000E+03 0.  0.
    8880022    1    1    2    0    0 -0.10057832789E+03 -0.10917180256E+04 -0.54469555099E+03  0.12337135582E+04  0.15294330000E+03 0.  0.
<mgrwt>
<rscale>  0 0.11069579E+04</rscale>
<asrwt>0</asrwt>
<pdfrwt beam="1">  1        1 0.34845792E+00 0.11069579E+04</pdfrwt>
<pdfrwt beam="2">  1       -1 0.16134112E+00 0.11069579E+04</pdfrwt>
<totfact> 0.56022772E-01</totfact>
</mgrwt>
</event>
<event>
 4    1  0.1852677E-008  0.1011017E+04  0.7818608E-02  0.9296544E-01
         -1   -1    0    0    0  501 -0.00000000000E+00  0.00000000000E+00  0.10404343770E+04  0.10404343770E+04  0.50400000000E-02 0.  1.
          1   -1    0    0  501    0  0.00000000000E+00 -0.00000000000E+00 -0.11154908106E+04  0.11154908106E+04  0.50400000000E-02 0. -1.
    8880022    1    1    2    0    0 -0.95807389035E+02 -0.99477822886E+03 -0.40982990762E+03  0.10909239142E+04  0.15294330000E+03 0.  0.
    8880022    1    1    2    0    0  0.95807389035E+02  0.99477822886E+03  0.33477347402E+03  0.10650012734E+04  0.15294330000E+03 0.  0.
<mgrwt>
<rscale>  0 0.10110165E+04</rscale>
<asrwt>0</asrwt>
<pdfrwt beam="1">  1        1 0.17161397E+00 0.10110165E+04</pdfrwt>
<pdfrwt beam="2">  1       -1 0.16006683E+00 0.10110165E+04</pdfrwt>
<totfact> 0.36095433E+00</totfact>
</mgrwt>
</event>
<event>
 4    1  0.1852677E-008  0.2889631E+03  0.7818608E-02  0.1090892E+00
         -1   -1    0    0    0  501 -0.00000000000E+00  0.00000000000E+00  0.67652322335E+03  0.67652322337E+03  0.50400000000E-02 0.  1.
          1   -1    0    0  501    0  0.00000000000E+00 -0.00000000000E+00 -0.22502567071E+04  0.22502567071E+04  0.50400000000E-02 0. -1.
    8880022    1    1    2    0    0 -0.23290051292E+03 -0.76585765199E+02 -0.22095579024E+04  0.22283729054E+04  0.15294330000E+03 0.  0.
    8880022    1    1    2    0    0  0.23290051292E+03  0.76585765199E+02  0.63582441865E+03  0.69840702510E+03  0.15294330000E+03 0.  0.
<mgrwt>
<rscale>  0 0.28896311E+03</rscale>
<asrwt>0</asrwt>
<pdfrwt beam="1">  1        1 0.34619334E+00 0.28896311E+03</pdfrwt>
<pdfrwt beam="2">  1       -1 0.10408050E+00 0.28896311E+03</pdfrwt>
<totfact> 0.21540393E+00</totfact>
</mgrwt>
</event>
<event>
 4    1  0.1852677E-008  0.7366967E+03  0.7818608E-02  0.9656455E-01
         -1   -1    0    0    0  501 -0.00000000000E+00  0.00000000000E+00  0.41190159164E+03  0.41190159167E+03  0.50400000000E-02 0.  1.
          1   -1    0    0  501    0  0.00000000000E+00 -0.00000000000E+00 -0.19909644020E+04  0.19909644021E+04  0.50400000000E-02 0. -1.
    8880022    1    1    2    0    0 -0.70087001979E+03 -0.16766501413E+03 -0.14882342741E+04  0.16605912349E+04  0.15294330000E+03 0.  0.
    8880022    1    1    2    0    0  0.70087001979E+03  0.16766501413E+03 -0.90828536269E+02  0.74227475884E+03  0.15294330000E+03 0.  0.
<mgrwt>
<rscale>  0 0.73669668E+03</rscale>
<asrwt>0</asrwt>
<pdfrwt beam="1">  1        1 0.30630221E+00 0.73669668E+03</pdfrwt>
<pdfrwt beam="2">  1       -1 0.63369477E-01 0.73669668E+03</pdfrwt>
<totfact> 0.80104674E+00</totfact>
</mgrwt>
</event>
<event>
 4    1  0.1852677E-008  0.5767696E+03  0.7818608E-02  0.9954809E-01
         -1   -1    0    0    0  501 -0.00000000000E+00  0.00000000000E+00  0.25306002306E+04  0.25306002306E+04  0.50400000000E-02 0.  1.
          1   -1    0    0  501    0  0.00000000000E+00 -0.00000000000E+00 -0.60541566569E+03  0.60541566571E+03  0.50400000000E-02 0. -1.
    8880022    1    1    2    0    0 -0.49754260867E+03  0.24844085504E+03  0.23499613924E+04  0.24197069461E+04  0.15294330000E+03 0.  1.
    8880022    1    1    2    0    0  0.49754260867E+03 -0.24844085504E+03 -0.42477682756E+03  0.71630895021E+03  0.15294330000E+03 0.  0.
<mgrwt>
<rscale>  0 0.57676959E+03</rscale>
<asrwt>0</asrwt>
<pdfrwt beam="1">  1        1 0.93140872E-01 0.57676959E+03</pdfrwt>
<pdfrwt beam="2">  1       -1 0.38932311E+00 0.57676959E+03</pdfrwt>
<totfact> 0.32072905E-01</totfact>
</mgrwt>
</event>
<event>
 4    1  0.1852677E-008  0.2465131E+03  0.7818608E-02  0.1115528E+00
          1   -1    0    0  501    0  0.00000000000E+00  0.00000000000E+00  0.28263672385E+03  0.28263672389E+03  0.50400000000E-02 0. -1.
         -1   -1    0    0    0  501 -0.00000000000E+00 -0.00000000000E+00 -0.48786480950E+03  0.48786480952E+03  0.50400000000E-02 0.  1.
    8880022    1    1    2    0    0  0.11146748008E+03 -0.15796218954E+03 -0.39072676397E+03  0.46199146046E+03  0.15294330000E+03 0.  0.
    8880022    1    1    2    0    0 -0.11146748008E+03  0.15796218954E+03  0.18549867832E+03  0.30851007295E+03  0.15294330000E+03 0.  0.
<mgrwt>
<rscale>  0 0.24651309E+03</rscale>
<asrwt>0</asrwt>
<pdfrwt beam="1">  1        1 0.43482573E-01 0.24651309E+03</pdfrwt>
<pdfrwt beam="2">  1       -1 0.75056124E-01 0.24651309E+03</pdfrwt>
<totfact> 0.17789031E+02</totfact>
</mgrwt>
</event>
<event>
 4    1  0.1852677E-008  0.7235281E+03  0.7818608E-02  0.9677821E-01
          1   -1    0    0  501    0  0.00000000000E+00  0.00000000000E+00  0.19515447807E+04  0.19515447807E+04  0.50400000000E-02 0. -1.
         -1   -1    0    0    0  501 -0.00000000000E+00 -0.00000000000E+00 -0.46637946954E+03  0.46637946957E+03  0.50400000000E-02 0.  1.
    8880022    1    1    2    0    0  0.25116897772E+02  0.70673220779E+03 -0.45410698808E+02  0.72495176161E+03  0.15294330000E+03 0.  0.
    8880022    1    1    2    0    0 -0.25116897772E+02 -0.70673220779E+03  0.15305760100E+04  0.16929724887E+04  0.15294330000E+03 0. -1.
<mgrwt>
<rscale>  0 0.72352811E+03</rscale>
<asrwt>0</asrwt>
<pdfrwt beam="1">  1        1 0.30023766E+00 0.72352811E+03</pdfrwt>
<pdfrwt beam="2">  1       -1 0.71750687E-01 0.72352811E+03</pdfrwt>
<totfact> 0.66317632E+00</totfact>
</mgrwt>
</event>
<event>
 4    1  0.1852677E-008  0.6147797E+03  0.7818608E-02  0.9875209E-01
         -1   -1    0    0    0  501 -0.00000000000E+00  0.00000000000E+00  0.16793466449E+03  0.16793466456E+03  0.50400000000E-02 0.  1.
          1   -1    0    0  501    0  0.00000000000E+00 -0.00000000000E+00 -0.27817155190E+04  0.27817155190E+04  0.50400000000E-02 0. -1.
    8880022    1    1    2    0    0  0.58961205482E+03 -0.83186799438E+02 -0.66245725451E+03  0.90377192136E+03  0.15294330000E+03 0.  0.
    8880022    1    1    2    0    0 -0.58961205482E+03  0.83186799438E+02 -0.19513236000E+04  0.20458782622E+04  0.15294330000E+03 0.  0.
<mgrwt>
<rscale>  0 0.61477969E+03</rscale>
<asrwt>0</asrwt>
<pdfrwt beam="1">  1        1 0.42795620E+00 0.61477969E+03</pdfrwt>
<pdfrwt beam="2">  1       -1 0.25836104E-01 0.61477969E+03</pdfrwt>
<totfact> 0.12301632E+01</totfact>
</mgrwt>
</event>
<event>
 4    1  0.1852677E-008  0.4508479E+03  0.7818608E-02  0.1027470E+00
         -1   -1    0    0    0  501 -0.00000000000E+00  0.00000000000E+00  0.13556163374E+04  0.13556163374E+04  0.50400000000E-02 0.  1.
          1   -1    0    0  501    0  0.00000000000E+00 -0.00000000000E+00 -0.20465010193E+04  0.20465010193E+04  0.50400000000E-02 0. -1.
    8880022    1    1    2    0    0 -0.36355810386E+03  0.21839791735E+03  0.12921149222E+04  0.13685118817E+04  0.15294330000E+03 0.  0.
    8880022    1    1    2    0    0  0.36355810386E+03 -0.21839791735E+03 -0.19829996041E+04  0.20336054750E+04  0.15294330000E+03 0.  0.
<mgrwt>
<rscale>  0 0.45084787E+03</rscale>
<asrwt>0</asrwt>
<pdfrwt beam="1">  1        1 0.31484631E+00 0.45084787E+03</pdfrwt>
<pdfrwt beam="2">  1       -1 0.20855636E+00 0.45084787E+03</pdfrwt>
<totfact> 0.42713273E-01</totfact>
</mgrwt>
</event>
<event>
 4    1  0.1852677E-008  0.7184843E+03  0.7818608E-02  0.9686133E-01
         -1   -1    0    0    0  501 -0.00000000000E+00  0.00000000000E+00  0.51057170459E+03  0.51057170462E+03  0.50400000000E-02 0.  1.
          1   -1    0    0  501    0  0.00000000000E+00 -0.00000000000E+00 -0.14491998921E+04  0.14491998921E+04  0.50400000000E-02 0. -1.
    8880022    1    1    2    0    0  0.62508022184E+03 -0.31953522257E+03  0.69472373677E+02  0.72183523460E+03  0.15294330000E+03 0.  0.
    8880022    1    1    2    0    0 -0.62508022184E+03  0.31953522257E+03 -0.10081005612E+04  0.12379363622E+04  0.15294330000E+03 0.  0.
<mgrwt>
<rscale>  0 0.71848430E+03</rscale>
<asrwt>0</asrwt>
<pdfrwt beam="1">  1        1 0.22295383E+00 0.71848430E+03</pdfrwt>
<pdfrwt beam="2">  1       -1 0.78549494E-01 0.71848430E+03</pdfrwt>
<totfact> 0.11988449E+01</totfact>
</mgrwt>
</event>
<event>
 4    1  0.1852677E-008  0.8339633E+03  0.7818608E-02  0.9512117E-01
         -1   -1    0    0    0  501 -0.00000000000E+00  0.00000000000E+00  0.66779500471E+03  0.66779500472E+03  0.50400000000E-02 0.  1.
          1   -1    0    0  501    0  0.00000000000E+00 -0.00000000000E+00 -0.31583450056E+04  0.31583450057E+04  0.50400000000E-02 0. -1.
    8880022    1    1    2    0    0  0.39675030234E+03 -0.71742064305E+03  0.32092675703E+03  0.89358201519E+03  0.15294330000E+03 0.  0.
    8880022    1    1    2    0    0 -0.39675030234E+03  0.71742064305E+03 -0.28114767580E+04  0.29325579952E+04  0.15294330000E+03 0.  0.
<mgrwt>
<rscale>  0 0.83396333E+03</rscale>
<asrwt>0</asrwt>
<pdfrwt beam="1">  1        1 0.48589922E+00 0.83396333E+03</pdfrwt>
<pdfrwt beam="2">  1       -1 0.10273769E+00 0.83396333E+03</pdfrwt>
<totfact> 0.43600823E-01</totfact>
</mgrwt>
</event>
<event>
 4    1  0.1852677E-008  0.4951710E+03  0.7818608E-02  0.1015047E+00
         -1   -1    0    0    0  501 -0.00000000000E+00  0.00000000000E+00  0.88779848856E+03  0.88779848857E+03  0.50400000000E-02 0.  1.
          1   -1    0    0  501    0  0.00000000000E+00 -0.00000000000E+00 -0.73130288760E+03  0.73130288762E+03  0.50400000000E-02 0. -1.
    8880022    1    1    2    0    0  0.22475496410E+03  0.41386939738E+03 -0.56039583870E+03  0.74782205171E+03  0.15294330000E+03 0.  0.
    8880022    1    1    2    0    0 -0.22475496410E+03 -0.41386939738E+03  0.71689143966E+03  0.87127932447E+03  0.15294330000E+03 0.  0.
<mgrwt>
<rscale>  0 0.49517101E+03</rscale>
<asrwt>0</asrwt>
<pdfrwt beam="1">  1        1 0.11250814E+00 0.49517101E+03</pdfrwt>
<pdfrwt beam="2">  1       -1 0.13658438E+00 0.49517101E+03</pdfrwt>
<totfact> 0.12204282E+01</totfact>
</mgrwt>
</event>
<event>
 4    1  0.2404498E-008  0.5196047E+03  0.7818608E-02  0.1008785E+00
          1   -1    0    0  501    0  0.00000000000E+00  0.00000000000E+00  0.28033202942E+04  0.28033202942E+04  0.50400000000E-02 0. -1.
         -1   -1    0    0    0  501 -0.00000000000E+00 -0.00000000000E+00 -0.83742752984E+03  0.83742752985E+03  0.50400000000E-02 0.  1.
    8880022    1    1    2    0    0 -0.45545523225E+03  0.19788362499E+03 -0.72955289112E+03  0.89567654406E+03  0.15294330000E+03 0.  1.
    8880022    1    1    2    0    0  0.45545523225E+03 -0.19788362499E+03  0.26954456555E+04  0.27450712800E+04  0.15294330000E+03 0.  0.
<mgrwt>
<rscale>  0 0.51960471E+03</rscale>
<asrwt>0</asrwt>
<pdfrwt beam="1">  1        1 0.43128004E+00 0.51960471E+03</pdfrwt>
<pdfrwt beam="2">  1       -1 0.12883501E+00 0.51960471E+03</pdfrwt>
<totfact> 0.49620373E-01</totfact>
</mgrwt>
</event>
<event>
 4    1  0.1852677E-008  0.6171708E+03  0.7818608E-02  0.9870409E-01
          1   -1    0    0  501    0  0.00000000000E+00  0.00000000000E+00  0.25156698995E+04  0.25156698995E+04  0.50400000000E-02 0. -1.
         -1   -1    0    0    0  501 -0.00000000000E+00 -0.00000000000E+00 -0.38425197300E+03  0.38425197303E+03  0.50400000000E-02 0.  1.
    8880022    1    1    2    0    0  0.57250959083E+03  0.17245550254E+03  0.21944077718E+04  0.22795449664E+04  0.15294330000E+03 0.  0.
    8880022    1    1    2    0    0 -0.57250959083E+03 -0.17245550254E+03 -0.62989845346E+02  0.62037690607E+03  0.15294330000E+03 0.  0.
<mgrwt>
<rscale>  0 0.61717079E+03</rscale>
<asrwt>0</asrwt>
<pdfrwt beam="1">  1        1 0.38702612E+00 0.61717079E+03</pdfrwt>
<pdfrwt beam="2">  1       -1 0.59115690E-01 0.61717079E+03</pdfrwt>
<totfact> 0.41762470E+00</totfact>
</mgrwt>
</event>
<event>
 4    1  0.1852677E-008  0.5252282E+03  0.7818608E-02  0.1007396E+00
         -1   -1    0    0    0  501 -0.00000000000E+00  0.00000000000E+00  0.24255961505E+03  0.24255961510E+03  0.50400000000E-02 0.  1.
          1   -1    0    0  501    0  0.00000000000E+00 -0.00000000000E+00 -0.11672330593E+04  0.11672330594E+04  0.50400000000E-02 0. -1.
    8880022    1    1    2    0    0  0.62420210460E+02  0.49857470722E+03 -0.34946804422E+03  0.63086653763E+03  0.15294330000E+03 0.  0.
    8880022    1    1    2    0    0 -0.62420210460E+02 -0.49857470722E+03 -0.57520540007E+03  0.77892613683E+03  0.15294330000E+03 0.  0.
<mgrwt>
<rscale>  0 0.52522821E+03</rscale>
<asrwt>0</asrwt>
<pdfrwt beam="1">  1        1 0.17957431E+00 0.52522821E+03</pdfrwt>
<pdfrwt beam="2">  1       -1 0.37316865E-01 0.52522821E+03</pdfrwt>
<totfact> 0.81726770E+01</totfact>
</mgrwt>
</event>
<event>
 4    1  0.1852677E-008  0.4726310E+03  0.7818608E-02  0.1021180E+00
          1   -1    0    0  501    0  0.00000000000E+00  0.00000000000E+00  0.31240750561E+03  0.31240750565E+03  0.50400000000E-02 0. -1.
         -1   -1    0    0    0  501 -0.00000000000E+00 -0.00000000000E+00 -0.10919171148E+04  0.10919171148E+04  0.50400000000E-02 0.  1.
    8880022    1    1    2    0    0 -0.44689451439E+03  0.16544567570E+02  0.22769492007E+02  0.47317917589E+03  0.15294330000E+03 0.  0.
    8880022    1    1    2    0    0  0.44689451439E+03 -0.16544567570E+02 -0.80227910122E+03  0.93114544459E+03  0.15294330000E+03 0.  0.
<mgrwt>
<rscale>  0 0.47263102E+03</rscale>
<asrwt>0</asrwt>
<pdfrwt beam="1">  1        1 0.48062694E-01 0.47263102E+03</pdfrwt>
<pdfrwt beam="2">  1       -1 0.16798725E+00 0.47263102E+03</pdfrwt>
<totfact> 0.22470517E+01</totfact>
</mgrwt>
</event>
<event>
 4    1  0.1852677E-008  0.1637950E+04  0.7818608E-02  0.8797567E-01
          1   -1    0    0  501    0  0.00000000000E+00  0.00000000000E+00  0.25782149104E+04  0.25782149104E+04  0.50400000000E-02 0. -1.
         -1   -1    0    0    0  501 -0.00000000000E+00 -0.00000000000E+00 -0.15589469562E+04  0.15589469562E+04  0.50400000000E-02 0.  1.
    8880022    1    1    2    0    0 -0.11802956282E+03 -0.16265168444E+04 -0.68316943503E+03  0.17747112872E+04  0.15294330000E+03 0.  0.
    8880022    1    1    2    0    0  0.11802956282E+03  0.16265168444E+04  0.17024373892E+04  0.23624505794E+04  0.15294330000E+03 0.  0.
<mgrwt>
<rscale>  0 0.16379498E+04</rscale>
<asrwt>0</asrwt>
<pdfrwt beam="1">  1        1 0.39664845E+00 0.16379498E+04</pdfrwt>
<pdfrwt beam="2">  1       -1 0.23983799E+00 0.16379498E+04</pdfrwt>
<totfact> 0.90104265E-02</totfact>
</mgrwt>
</event>
<event>
 4    1  0.1852677E-008  0.6189185E+03  0.7818608E-02  0.9866915E-01
         -1   -1    0    0    0  501 -0.00000000000E+00  0.00000000000E+00  0.37409691574E+03  0.37409691577E+03  0.50400000000E-02 0.  1.
          1   -1    0    0  501    0  0.00000000000E+00 -0.00000000000E+00 -0.16203436881E+04  0.16203436881E+04  0.50400000000E-02 0. -1.
    8880022    1    1    2    0    0 -0.59760192253E+03 -0.50402118031E+02 -0.18130027480E+02  0.61918396477E+03  0.15294330000E+03 0.  0.
    8880022    1    1    2    0    0  0.59760192253E+03  0.50402118031E+02 -0.12281167449E+04  0.13752566391E+04  0.15294330000E+03 0.  0.
<mgrwt>
<rscale>  0 0.61891848E+03</rscale>
<asrwt>0</asrwt>
<pdfrwt beam="1">  1        1 0.24928364E+00 0.61891848E+03</pdfrwt>
<pdfrwt beam="2">  1       -1 0.57553372E-01 0.61891848E+03</pdfrwt>
<totfact> 0.17480071E+01</totfact>
</mgrwt>
</event>
<event>
 4    1  0.1852677E-008  0.7820887E+03  0.7818608E-02  0.9586311E-01
         -1   -1    0    0    0  501 -0.00000000000E+00  0.00000000000E+00  0.88752486695E+03  0.88752486696E+03  0.50400000000E-02 0.  1.
          1   -1    0    0  501    0  0.00000000000E+00 -0.00000000000E+00 -0.15813210702E+04  0.15813210702E+04  0.50400000000E-02 0. -1.
    8880022    1    1    2    0    0 -0.73639992170E+03  0.21444388034E+03  0.58029715478E+03  0.97386213776E+03  0.15294330000E+03 0.  0.
    8880022    1    1    2    0    0  0.73639992170E+03 -0.21444388034E+03 -0.12740933580E+04  0.14949837994E+04  0.15294330000E+03 0.  0.
<mgrwt>
<rscale>  0 0.78208866E+03</rscale>
<asrwt>0</asrwt>
<pdfrwt beam="1">  1        1 0.24328016E+00 0.78208866E+03</pdfrwt>
<pdfrwt beam="2">  1       -1 0.13654229E+00 0.78208866E+03</pdfrwt>
<totfact> 0.26752353E+00</totfact>
</mgrwt>
</event>
<event>
 4    1  0.1852677E-008  0.5502629E+03  0.7818608E-02  0.1001433E+00
          1   -1    0    0  501    0  0.00000000000E+00  0.00000000000E+00  0.74508813098E+03  0.74508813099E+03  0.50400000000E-02 0. -1.
         -1   -1    0    0    0  501 -0.00000000000E+00 -0.00000000000E+00 -0.76174095900E+03  0.76174095902E+03  0.50400000000E-02 0.  1.
    8880022    1    1    2    0    0 -0.18762814297E+02  0.52824761602E+03  0.50626784385E+03  0.74772747025E+03  0.15294330000E+03 0.  0.
    8880022    1    1    2    0    0  0.18762814297E+02 -0.52824761602E+03 -0.52292067188E+03  0.75910161976E+03  0.15294330000E+03 0.  0.
<mgrwt>
<rscale>  0 0.55026288E+03</rscale>
<asrwt>0</asrwt>
<pdfrwt beam="1">  1        1 0.11462894E+00 0.55026288E+03</pdfrwt>
<pdfrwt beam="2">  1       -1 0.11719092E+00 0.55026288E+03</pdfrwt>
<totfact> 0.17153759E+01</totfact>
</mgrwt>
</event>
<event>
 4    1  0.1852677E-008  0.2996486E+03  0.7818608E-02  0.1085416E+00
          1   -1    0    0  501    0  0.00000000000E+00  0.00000000000E+00  0.12975685527E+04  0.12975685527E+04  0.50400000000E-02 0. -1.
         -1   -1    0    0    0  501 -0.00000000000E+00 -0.00000000000E+00 -0.21407073573E+03  0.21407073579E+03  0.50400000000E-02 0.  1.
    8880022    1    1    2    0    0 -0.21013708410E+02  0.25681914016E+03  0.11635230846E+04  0.12014887715E+04  0.15294330000E+03 0.  0.
    8880022    1    1    2    0    0  0.21013708410E+02 -0.25681914016E+03 -0.80025267640E+02  0.31015051696E+03  0.15294330000E+03 0.  0.
<mgrwt>
<rscale>  0 0.29964863E+03</rscale>
<asrwt>0</asrwt>
<pdfrwt beam="1">  1        1 0.19962594E+00 0.29964863E+03</pdfrwt>
<pdfrwt beam="2">  1       -1 0.32933959E-01 0.29964863E+03</pdfrwt>
<totfact> 0.85663552E+01</totfact>
</mgrwt>
</event>
<event>
 4    1  0.1852677E-008  0.5588428E+03  0.7818608E-02  0.9994676E-01
         -1   -1    0    0    0  501 -0.00000000000E+00  0.00000000000E+00  0.51850123808E+03  0.51850123810E+03  0.50400000000E-02 0.  1.
          1   -1    0    0  501    0  0.00000000000E+00 -0.00000000000E+00 -0.10878039030E+04  0.10878039030E+04  0.50400000000E-02 0. -1.
    8880022    1    1    2    0    0 -0.48388212932E+03  0.23403366112E+03  0.25189685908E+03  0.61299049768E+03  0.15294330000E+03 0.  0.
    8880022    1    1    2    0    0  0.48388212932E+03 -0.23403366112E+03 -0.82119952397E+03  0.99331464340E+03  0.15294330000E+03 0.  0.
<mgrwt>
<rscale>  0 0.55884284E+03</rscale>
<asrwt>0</asrwt>
<pdfrwt beam="1">  1        1 0.16735445E+00 0.55884284E+03</pdfrwt>
<pdfrwt beam="2">  1       -1 0.79769422E-01 0.55884284E+03</pdfrwt>
<totfact> 0.21504859E+01</totfact>
</mgrwt>
</event>
<event>
 4    1  0.1852677E-008  0.4830157E+03  0.7818608E-02  0.1018310E+00
         -1   -1    0    0    0  501 -0.00000000000E+00  0.00000000000E+00  0.49346940013E+03  0.49346940016E+03  0.50400000000E-02 0.  1.
          1   -1    0    0  501    0  0.00000000000E+00 -0.00000000000E+00 -0.27534145156E+04  0.27534145156E+04  0.50400000000E-02 0. -1.
    8880022    1    1    2    0    0  0.93472745324E+02 -0.44852577984E+03  0.34753081845E+03  0.59504777295E+03  0.15294330000E+03 0.  0.
    8880022    1    1    2    0    0 -0.93472745324E+02  0.44852577984E+03 -0.26074759339E+04  0.26518361428E+04  0.15294330000E+03 0.  0.
<mgrwt>
<rscale>  0 0.48301572E+03</rscale>
<asrwt>0</asrwt>
<pdfrwt beam="1">  1        1 0.42360223E+00 0.48301572E+03</pdfrwt>
<pdfrwt beam="2">  1       -1 0.75918371E-01 0.48301572E+03</pdfrwt>
<totfact> 0.18005563E+00</totfact>
</mgrwt>
</event>
<event>
 4    1  0.1852677E-008  0.2042813E+03  0.7818608E-02  0.1146176E+00
          1   -1    0    0  501    0  0.00000000000E+00  0.00000000000E+00  0.92774389145E+03  0.92774389146E+03  0.50400000000E-02 0. -1.
         -1   -1    0    0    0  501 -0.00000000000E+00 -0.00000000000E+00 -0.57542678122E+03  0.57542678124E+03  0.50400000000E-02 0.  1.
    8880022    1    1    2    0    0 -0.58832744108E+02  0.12197500158E+03  0.89777058349E+03  0.92071866842E+03  0.15294330000E+03 0. -1.
    8880022    1    1    2    0    0  0.58832744108E+02 -0.12197500158E+03 -0.54545347326E+03  0.58245200428E+03  0.15294330000E+03 0.  0.
<mgrwt>
<rscale>  0 0.20428129E+03</rscale>
<asrwt>0</asrwt>
<pdfrwt beam="1">  1        1 0.14272983E+00 0.20428129E+03</pdfrwt>
<pdfrwt beam="2">  1       -1 0.88527198E-01 0.20428129E+03</pdfrwt>
<totfact> 0.24980867E+01</totfact>
</mgrwt>
</event>
<event>
 4    1  0.1852677E-008  0.4554466E+03  0.7818608E-02  0.1026110E+00
          1   -1    0    0  501    0  0.00000000000E+00  0.00000000000E+00  0.75293749156E+03  0.75293749158E+03  0.50400000000E-02 0. -1.
         -1   -1    0    0    0  501 -0.00000000000E+00 -0.00000000000E+00 -0.71583057388E+03  0.71583057390E+03  0.50400000000E-02 0.  1.
    8880022    1    1    2    0    0  0.87109885932E+02  0.42006165734E+03 -0.55742904502E+03  0.71983242595E+03  0.15294330000E+03 0.  0.
    8880022    1    1    2    0    0 -0.87109885932E+02 -0.42006165734E+03  0.59453596271E+03  0.74893563953E+03  0.15294330000E+03 0. -1.
<mgrwt>
<rscale>  0 0.45544657E+03</rscale>
<asrwt>0</asrwt>
<pdfrwt beam="1">  1        1 0.11583654E+00 0.45544657E+03</pdfrwt>
<pdfrwt beam="2">  1       -1 0.11012778E+00 0.45544657E+03</pdfrwt>
<totfact> 0.19884187E+01</totfact>
</mgrwt>
</event>
<event>
 4    1  0.1852677E-008  0.3468936E+03  0.7818608E-02  0.1063897E+00
         -1   -1    0    0    0  501 -0.00000000000E+00  0.00000000000E+00  0.12063468534E+04  0.12063468534E+04  0.50400000000E-02 0.  1.
          1   -1    0    0  501    0  0.00000000000E+00 -0.00000000000E+00 -0.48976264890E+03  0.48976264893E+03  0.50400000000E-02 0. -1.
    8880022    1    1    2    0    0  0.23452742570E+03  0.20479358880E+03 -0.39848754965E+03  0.52832519120E+03  0.15294330000E+03 0.  0.
    8880022    1    1    2    0    0 -0.23452742570E+03 -0.20479358880E+03  0.11150717542E+04  0.11677843112E+04  0.15294330000E+03 0.  0.
<mgrwt>
<rscale>  0 0.34689362E+03</rscale>
<asrwt>0</asrwt>
<pdfrwt beam="1">  1        1 0.75348101E-01 0.34689362E+03</pdfrwt>
<pdfrwt beam="2">  1       -1 0.18559182E+00 0.34689362E+03</pdfrwt>
<totfact> 0.96250484E+00</totfact>
</mgrwt>
</event>
<event>
 4    1  0.1852677E-008  0.3569532E+03  0.7818608E-02  0.1059797E+00
         -1   -1    0    0    0  501 -0.00000000000E+00  0.00000000000E+00  0.10764152302E+03  0.10764152313E+03  0.50400000000E-02 0.  1.
          1   -1    0    0  501    0  0.00000000000E+00 -0.00000000000E+00 -0.20272808237E+04  0.20272808237E+04  0.50400000000E-02 0. -1.
    8880022    1    1    2    0    0 -0.20789136346E+03  0.24658691455E+03 -0.27123435342E+03  0.44831200399E+03  0.15294330000E+03 0.  0.
    8880022    1    1    2    0    0  0.20789136346E+03 -0.24658691455E+03 -0.16484049473E+04  0.16866103429E+04  0.15294330000E+03 0.  0.
<mgrwt>
<rscale>  0 0.35695319E+03</rscale>
<asrwt>0</asrwt>
<pdfrwt beam="1">  1        1 0.31188933E+00 0.35695319E+03</pdfrwt>
<pdfrwt beam="2">  1       -1 0.16560236E-01 0.35695319E+03</pdfrwt>
<totfact> 0.87375837E+01</totfact>
</mgrwt>
</event>
<event>
 4    1  0.1852677E-008  0.5710911E+03  0.7818608E-02  0.9967267E-01
          1   -1    0    0  501    0  0.00000000000E+00  0.00000000000E+00  0.14784756206E+04  0.14784756206E+04  0.50400000000E-02 0. -1.
         -1   -1    0    0    0  501 -0.00000000000E+00 -0.00000000000E+00 -0.32490978160E+03  0.32490978164E+03  0.50400000000E-02 0.  1.
    8880022    1    1    2    0    0  0.53205128183E+03  0.14026688642E+03  0.65867374001E+02  0.57487696935E+03  0.15294330000E+03 0.  0.
    8880022    1    1    2    0    0 -0.53205128183E+03 -0.14026688642E+03  0.10876984650E+04  0.12285084329E+04  0.15294330000E+03 0.  0.
<mgrwt>
<rscale>  0 0.57109108E+03</rscale>
<asrwt>0</asrwt>
<pdfrwt beam="1">  1        1 0.22745778E+00 0.57109108E+03</pdfrwt>
<pdfrwt beam="2">  1       -1 0.49986121E-01 0.57109108E+03</pdfrwt>
<totfact> 0.28783948E+01</totfact>
</mgrwt>
</event>
<event>
 4    1  0.1852677E-008  0.2901927E+03  0.7818608E-02  0.1090249E+00
         -1   -1    0    0    0  501 -0.00000000000E+00  0.00000000000E+00  0.11214312500E+03  0.11214312512E+03  0.50400000000E-02 0.  1.
          1   -1    0    0  501    0  0.00000000000E+00 -0.00000000000E+00 -0.25404308384E+04  0.25404308384E+04  0.50400000000E-02 0. -1.
    8880022    1    1    2    0    0  0.23274367094E+03 -0.81550672886E+02 -0.23272834112E+04  0.23453059198E+04  0.15294330000E+03 0. -1.
    8880022    1    1    2    0    0 -0.23274367094E+03  0.81550672886E+02 -0.10100430226E+03  0.30726804373E+03  0.15294330000E+03 0.  0.
<mgrwt>
<rscale>  0 0.29019266E+03</rscale>
<asrwt>0</asrwt>
<pdfrwt beam="1">  1        1 0.39083547E+00 0.29019266E+03</pdfrwt>
<pdfrwt beam="2">  1       -1 0.17252790E-01 0.29019266E+03</pdfrwt>
<totfact> 0.38206038E+01</totfact>
</mgrwt>
</event>
<event>
 4    1  0.1852677E-008  0.4556458E+03  0.7818608E-02  0.1026052E+00
          1   -1    0    0  501    0  0.00000000000E+00  0.00000000000E+00  0.13309558420E+04  0.13309558420E+04  0.50400000000E-02 0. -1.
         -1   -1    0    0    0  501 -0.00000000000E+00 -0.00000000000E+00 -0.46870548495E+03  0.46870548498E+03  0.50400000000E-02 0.  1.
    8880022    1    1    2    0    0 -0.30668786703E+03 -0.30027315964E+03 -0.30387405933E+03  0.54767920824E+03  0.15294330000E+03 0.  0.
    8880022    1    1    2    0    0  0.30668786703E+03  0.30027315964E+03  0.11661244164E+04  0.12519821188E+04  0.15294330000E+03 0.  0.
<mgrwt>
<rscale>  0 0.45564577E+03</rscale>
<asrwt>0</asrwt>
<pdfrwt beam="1">  1        1 0.20476244E+00 0.45564577E+03</pdfrwt>
<pdfrwt beam="2">  1       -1 0.72108537E-01 0.45564577E+03</pdfrwt>
<totfact> 0.18124583E+01</totfact>
</mgrwt>
</event>
<event>
 4    1  0.1852677E-008  0.4411072E+03  0.7818608E-02  0.1030408E+00
         -1   -1    0    0    0  501 -0.00000000000E+00  0.00000000000E+00  0.58686884261E+03  0.58686884263E+03  0.50400000000E-02 0.  1.
          1   -1    0    0  501    0  0.00000000000E+00 -0.00000000000E+00 -0.11084624692E+04  0.11084624692E+04  0.50400000000E-02 0. -1.
    8880022    1    1    2    0    0  0.16410602149E+03 -0.37980663616E+03  0.44886353356E+03  0.62932820685E+03  0.15294330000E+03 0.  1.
    8880022    1    1    2    0    0 -0.16410602149E+03  0.37980663616E+03 -0.97045716015E+03  0.10660031050E+04  0.15294330000E+03 0.  0.
<mgrwt>
<rscale>  0 0.44110715E+03</rscale>
<asrwt>0</asrwt>
<pdfrwt beam="1">  1        1 0.17053269E+00 0.44110715E+03</pdfrwt>
<pdfrwt beam="2">  1       -1 0.90287514E-01 0.44110715E+03</pdfrwt>
<totfact> 0.16288390E+01</totfact>
</mgrwt>
</event>
<event>
 4    1  0.1852677E-008  0.2730968E+03  0.7818608E-02  0.1099520E+00
         -1   -1    0    0    0  501 -0.00000000000E+00  0.00000000000E+00  0.32434152058E+03  0.32434152062E+03  0.50400000000E-02 0.  1.
          1   -1    0    0  501    0  0.00000000000E+00 -0.00000000000E+00 -0.65290157124E+03  0.65290157126E+03  0.50400000000E-02 0. -1.
    8880022    1    1    2    0    0 -0.16937705697E+03 -0.15000544838E+03 -0.55755363317E+03  0.62084452872E+03  0.15294330000E+03 0. -1.
    8880022    1    1    2    0    0  0.16937705697E+03  0.15000544838E+03  0.22899358251E+03  0.35639856315E+03  0.15294330000E+03 0.  0.
<mgrwt>
<rscale>  0 0.27309682E+03</rscale>
<asrwt>0</asrwt>
<pdfrwt beam="1">  1        1 0.10044640E+00 0.27309682E+03</pdfrwt>
<pdfrwt beam="2">  1       -1 0.49898696E-01 0.27309682E+03</pdfrwt>
<totfact> 0.13016806E+02</totfact>
</mgrwt>
</event>
<event>
 4    1  0.1852677E-008  0.4069234E+03  0.7818608E-02  0.1041408E+00
          1   -1    0    0  501    0  0.00000000000E+00  0.00000000000E+00  0.19023849544E+03  0.19023849550E+03  0.50400000000E-02 0. -1.
         -1   -1    0    0    0  501 -0.00000000000E+00 -0.00000000000E+00 -0.95634270153E+03  0.95634270154E+03  0.50400000000E-02 0.  1.
    8880022    1    1    2    0    0  0.37682102753E+03  0.14175732248E+02 -0.55489488991E+03  0.68810975145E+03  0.15294330000E+03 0.  1.
    8880022    1    1    2    0    0 -0.37682102753E+03 -0.14175732248E+02 -0.21120931618E+03  0.45847144560E+03  0.15294330000E+03 0. -1.
<mgrwt>
<rscale>  0 0.40692345E+03</rscale>
<asrwt>0</asrwt>
<pdfrwt beam="1">  1        1 0.29267462E-01 0.40692345E+03</pdfrwt>
<pdfrwt beam="2">  1       -1 0.14712964E+00 0.40692345E+03</pdfrwt>
<totfact> 0.61382826E+01</totfact>
</mgrwt>
</event>
<event>
 4    1  0.1852677E-008  0.4337955E+03  0.7818608E-02  0.1032668E+00
         -1   -1    0    0    0  501 -0.00000000000E+00  0.00000000000E+00  0.85272390530E+02  0.85272390679E+02  0.50400000000E-02 0.  1.
          1   -1    0    0  501    0  0.00000000000E+00 -0.00000000000E+00 -0.33958076332E+04  0.33958076332E+04  0.50400000000E-02 0. -1.
    8880022    1    1    2    0    0  0.39505357133E+03  0.93378450774E+02 -0.26851937502E+04  0.27200080861E+04  0.15294330000E+03 0. -1.
    8880022    1    1    2    0    0 -0.39505357133E+03 -0.93378450774E+02 -0.62534149254E+03  0.76107193785E+03  0.15294330000E+03 0.  0.
<mgrwt>
<rscale>  0 0.43379547E+03</rscale>
<asrwt>0</asrwt>
<pdfrwt beam="1">  1        1 0.52243184E+00 0.43379547E+03</pdfrwt>
<pdfrwt beam="2">  1       -1 0.13118832E-01 0.43379547E+03</pdfrwt>
<totfact> 0.14131673E+01</totfact>
</mgrwt>
</event>
<event>
 4    1  0.1852677E-008  0.1314169E+04  0.7818608E-02  0.9018404E-01
          1   -1    0    0  501    0  0.00000000000E+00  0.00000000000E+00  0.20979505441E+04  0.20979505441E+04  0.50400000000E-02 0. -1.
         -1   -1    0    0    0  501 -0.00000000000E+00 -0.00000000000E+00 -0.88097740866E+03  0.88097740867E+03  0.50400000000E-02 0.  1.
    8880022    1    1    2    0    0 -0.44170173308E+03  0.12282297947E+04  0.98991495019E+03  0.16452878506E+04  0.15294330000E+03 0.  0.
    8880022    1    1    2    0    0  0.44170173308E+03 -0.12282297947E+04  0.22705818521E+03  0.13336401022E+04  0.15294330000E+03 0.  0.
<mgrwt>
<rscale>  0 0.13141691E+04</rscale>
<asrwt>0</asrwt>
<pdfrwt beam="1">  1        1 0.32276161E+00 0.13141691E+04</pdfrwt>
<pdfrwt beam="2">  1       -1 0.13553499E+00 0.13141691E+04</pdfrwt>
<totfact> 0.11316227E+00</totfact>
</mgrwt>
</event>
<event>
 4    1  0.1852677E-008  0.8166532E+03  0.7818608E-02  0.9536220E-01
          1   -1    0    0  501    0  0.00000000000E+00  0.00000000000E+00  0.90335851485E+03  0.90335851486E+03  0.50400000000E-02 0. -1.
         -1   -1    0    0    0  501 -0.00000000000E+00 -0.00000000000E+00 -0.88821037891E+03  0.88821037892E+03  0.50400000000E-02 0.  1.
    8880022    1    1    2    0    0  0.24328036516E+03  0.76442495820E+03  0.37562241687E+03  0.89889638216E+03  0.15294330000E+03 0.  0.
    8880022    1    1    2    0    0 -0.24328036516E+03 -0.76442495820E+03 -0.36047428093E+03  0.89267251163E+03  0.15294330000E+03 0.  0.
<mgrwt>
<rscale>  0 0.81665323E+03</rscale>
<asrwt>0</asrwt>
<pdfrwt beam="1">  1        1 0.13897823E+00 0.81665323E+03</pdfrwt>
<pdfrwt beam="2">  1       -1 0.13664775E+00 0.81665323E+03</pdfrwt>
<totfact> 0.82638839E+00</totfact>
</mgrwt>
</event>
<event>
 4    1  0.1852677E-008  0.6007236E+03  0.7818608E-02  0.9903906E-01
         -1   -1    0    0    0  501 -0.00000000000E+00  0.00000000000E+00  0.12626119404E+04  0.12626119404E+04  0.50400000000E-02 0.  1.
          1   -1    0    0  501    0  0.00000000000E+00 -0.00000000000E+00 -0.33253142201E+03  0.33253142205E+03  0.50400000000E-02 0. -1.
    8880022    1    1    2    0    0  0.54702758362E+03  0.19554546974E+03  0.16608582909E+03  0.62326026956E+03  0.15294330000E+03 0.  0.
    8880022    1    1    2    0    0 -0.54702758362E+03 -0.19554546974E+03  0.76399468934E+03  0.97188309293E+03  0.15294330000E+03 0.  0.
<mgrwt>
<rscale>  0 0.60072361E+03</rscale>
<asrwt>0</asrwt>
<pdfrwt beam="1">  1        1 0.51158681E-01 0.60072361E+03</pdfrwt>
<pdfrwt beam="2">  1       -1 0.19424799E+00 0.60072361E+03</pdfrwt>
<totfact> 0.13260364E+01</totfact>
</mgrwt>
</event>
<event>
 4    1  0.1852677E-008  0.7388526E+03  0.7818608E-02  0.9653003E-01
          1   -1    0    0  501    0  0.00000000000E+00  0.00000000000E+00  0.13398026330E+04  0.13398026330E+04  0.50400000000E-02 0. -1.
         -1   -1    0    0    0  501 -0.00000000000E+00 -0.00000000000E+00 -0.59159842827E+03  0.59159842829E+03  0.50400000000E-02 0.  1.
    8880022    1    1    2    0    0  0.62732022086E+03 -0.35913901818E+03  0.91288335550E+03  0.11744186509E+04  0.15294330000E+03 0.  0.
    8880022    1    1    2    0    0 -0.62732022086E+03  0.35913901818E+03 -0.16467915078E+03  0.75698241036E+03  0.15294330000E+03 0.  0.
<mgrwt>
<rscale>  0 0.73885259E+03</rscale>
<asrwt>0</asrwt>
<pdfrwt beam="1">  1        1 0.20612348E+00 0.73885259E+03</pdfrwt>
<pdfrwt beam="2">  1       -1 0.91015144E-01 0.73885259E+03</pdfrwt>
<totfact> 0.10362055E+01</totfact>
</mgrwt>
</event>
<event>
 4    1  0.1852677E-008  0.4788214E+03  0.7818608E-02  0.1019460E+00
         -1   -1    0    0    0  501 -0.00000000000E+00  0.00000000000E+00  0.57324885623E+03  0.57324885625E+03  0.50400000000E-02 0.  1.
          1   -1    0    0  501    0  0.00000000000E+00 -0.00000000000E+00 -0.55509380169E+03  0.55509380171E+03  0.50400000000E-02 0. -1.
    8880022    1    1    2    0    0 -0.35548110384E+03  0.28197782556E+03  0.30733908256E+03  0.56897036300E+03  0.15294330000E+03 0.  0.
    8880022    1    1    2    0    0  0.35548110384E+03 -0.28197782556E+03 -0.28918402802E+03  0.55937229496E+03  0.15294330000E+03 0.  0.
<mgrwt>
<rscale>  0 0.47882143E+03</rscale>
<asrwt>0</asrwt>
<pdfrwt beam="1">  1        1 0.85399046E-01 0.47882143E+03</pdfrwt>
<pdfrwt beam="2">  1       -1 0.88192132E-01 0.47882143E+03</pdfrwt>
<totfact> 0.50862430E+01</totfact>
</mgrwt>
</event>
<event>
 4    1  0.1852677E-008  0.5071216E+03  0.7818608E-02  0.1011937E+00
          1   -1    0    0  501    0  0.00000000000E+00  0.00000000000E+00  0.30110591606E+04  0.30110591606E+04  0.50400000000E-02 0. -1.
         -1   -1    0    0    0  501 -0.00000000000E+00 -0.00000000000E+00 -0.13298878559E+03  0.13298878568E+03  0.50400000000E-02 0.  1.
    8880022    1    1    2    0    0 -0.43632736673E+03  0.20832452660E+03  0.49874541565E+03  0.71128005875E+03  0.15294330000E+03 0.  0.
    8880022    1    1    2    0    0  0.43632736673E+03 -0.20832452660E+03  0.23793249593E+04  0.24327678875E+04  0.15294330000E+03 0.  0.
<mgrwt>
<rscale>  0 0.50712161E+03</rscale>
<asrwt>0</asrwt>
<pdfrwt beam="1">  1        1 0.46323986E+00 0.50712161E+03</pdfrwt>
<pdfrwt beam="2">  1       -1 0.20459814E-01 0.50712161E+03</pdfrwt>
<totfact> 0.12856936E+01</totfact>
</mgrwt>
</event>
<event>
 4    1  0.1852677E-008  0.6196388E+03  0.7818608E-02  0.9865479E-01
         -1   -1    0    0    0  501 -0.00000000000E+00  0.00000000000E+00  0.13461349424E+04  0.13461349424E+04  0.50400000000E-02 0.  1.
          1   -1    0    0  501    0  0.00000000000E+00 -0.00000000000E+00 -0.86776150997E+03  0.86776150998E+03  0.50400000000E-02 0. -1.
    8880022    1    1    2    0    0  0.56901035633E+03 -0.19180147499E+03 -0.66777392632E+03  0.91097434711E+03  0.15294330000E+03 0.  0.
    8880022    1    1    2    0    0 -0.56901035633E+03  0.19180147499E+03  0.11461473587E+04  0.13029221052E+04  0.15294330000E+03 0.  0.
<mgrwt>
<rscale>  0 0.61963880E+03</rscale>
<asrwt>0</asrwt>
<pdfrwt beam="1">  1        1 0.13350177E+00 0.61963880E+03</pdfrwt>
<pdfrwt beam="2">  1       -1 0.20709768E+00 0.61963880E+03</pdfrwt>
<totfact> 0.27777413E+00</totfact>
</mgrwt>
</event>
<event>
 4    1  0.1852677E-008  0.1090552E+04  0.7818608E-02  0.9214450E-01
         -1   -1    0    0    0  501 -0.00000000000E+00  0.00000000000E+00  0.17290692349E+04  0.17290692349E+04  0.50400000000E-02 0.  1.
          1   -1    0    0  501    0  0.00000000000E+00 -0.00000000000E+00 -0.11978777223E+04  0.11978777223E+04  0.50400000000E-02 0. -1.
    8880022    1    1    2    0    0 -0.91840604275E+03  0.56783988933E+03  0.12205544133E+04  0.16367823704E+04  0.15294330000E+03 0.  0.
    8880022    1    1    2    0    0  0.91840604275E+03 -0.56783988933E+03 -0.68936290069E+03  0.12901645868E+04  0.15294330000E+03 0.  0.
<mgrwt>
<rscale>  0 0.10905519E+04</rscale>
<asrwt>0</asrwt>
<pdfrwt beam="1">  1        1 0.18428888E+00 0.10905519E+04</pdfrwt>
<pdfrwt beam="2">  1       -1 0.26601065E+00 0.10905519E+04</pdfrwt>
<totfact> 0.58637157E-01</totfact>
</mgrwt>
</event>
<event>
 4    1  0.1852677E-008  0.6776157E+03  0.7818608E-02  0.9756297E-01
         -1   -1    0    0    0  501 -0.00000000000E+00  0.00000000000E+00  0.59806160823E+03  0.59806160825E+03  0.50400000000E-02 0.  1.
          1   -1    0    0  501    0  0.00000000000E+00 -0.00000000000E+00 -0.13410328519E+04  0.13410328519E+04  0.50400000000E-02 0. -1.
    8880022    1    1    2    0    0 -0.39491172119E+03 -0.52897654356E+03 -0.10054033696E+04  0.12124351693E+04  0.15294330000E+03 0.  0.
    8880022    1    1    2    0    0  0.39491172119E+03  0.52897654356E+03  0.26243212596E+03  0.72665929082E+03  0.15294330000E+03 0.  0.
<mgrwt>
<rscale>  0 0.67761575E+03</rscale>
<asrwt>0</asrwt>
<pdfrwt beam="1">  1        1 0.20631275E+00 0.67761575E+03</pdfrwt>
<pdfrwt beam="2">  1       -1 0.92009479E-01 0.67761575E+03</pdfrwt>
<totfact> 0.10192483E+01</totfact>
</mgrwt>
</event>
<event>
 4    1  0.1852677E-008  0.2612745E+03  0.7818608E-02  0.1106380E+00
          1   -1    0    0  501    0  0.00000000000E+00  0.00000000000E+00  0.48930731450E+03  0.48930731453E+03  0.50400000000E-02 0. -1.
         -1   -1    0    0    0  501 -0.00000000000E+00 -0.00000000000E+00 -0.48888539106E+03  0.48888539108E+03  0.50400000000E-02 0.  1.
    8880022    1    1    2    0    0 -0.74960525454E+02 -0.19812525547E+03 -0.41325110350E+03  0.48891801439E+03  0.15294330000E+03 0.  1.
    8880022    1    1    2    0    0  0.74960525454E+02  0.19812525547E+03  0.41367302695E+03  0.48927469122E+03  0.15294330000E+03 0.  0.
<mgrwt>
<rscale>  0 0.26127447E+03</rscale>
<asrwt>0</asrwt>
<pdfrwt beam="1">  1        1 0.75278048E-01 0.26127447E+03</pdfrwt>
<pdfrwt beam="2">  1       -1 0.75213137E-01 0.26127447E+03</pdfrwt>
<totfact> 0.87402040E+01</totfact>
</mgrwt>
</event>
<event>
 4    1  0.1852677E-008  0.3766077E+03  0.7818608E-02  0.1052195E+00
         -1   -1    0    0    0  501 -0.00000000000E+00  0.00000000000E+00  0.57311391615E+03  0.57311391617E+03  0.50400000000E-02 0.  1.
          1   -1    0    0  501    0  0.00000000000E+00 -0.00000000000E+00 -0.57234869456E+03  0.57234869458E+03  0.50400000000E-02 0. -1.
    8880022    1    1    2    0    0  0.57236256539E+02 -0.33936074754E+03 -0.43111214678E+03  0.57244304708E+03  0.15294330000E+03 0.  0.
    8880022    1    1    2    0    0 -0.57236256539E+02  0.33936074754E+03  0.43187736836E+03  0.57301956367E+03  0.15294330000E+03 0.  0.
<mgrwt>
<rscale>  0 0.37660770E+03</rscale>
<asrwt>0</asrwt>
<pdfrwt beam="1">  1        1 0.88053646E-01 0.37660770E+03</pdfrwt>
<pdfrwt beam="2">  1       -1 0.88171371E-01 0.37660770E+03</pdfrwt>
<totfact> 0.49536110E+01</totfact>
</mgrwt>
</event>
<event>
 4    1  0.1852677E-008  0.5168059E+03  0.7818608E-02  0.1009483E+00
         -1   -1    0    0    0  501 -0.00000000000E+00  0.00000000000E+00  0.28371329840E+03  0.28371329845E+03  0.50400000000E-02 0.  1.
          1   -1    0    0  501    0  0.00000000000E+00 -0.00000000000E+00 -0.10817377472E+04  0.10817377472E+04  0.50400000000E-02 0. -1.
    8880022    1    1    2    0    0 -0.13207532878E+03 -0.47566042026E+03 -0.64491797132E+03  0.82644272072E+03  0.15294330000E+03 0.  0.
    8880022    1    1    2    0    0  0.13207532878E+03  0.47566042026E+03 -0.15310647745E+03  0.53900832492E+03  0.15294330000E+03 0.  0.
<mgrwt>
<rscale>  0 0.51680594E+03</rscale>
<asrwt>0</asrwt>
<pdfrwt beam="1">  1        1 0.16642119E+00 0.51680594E+03</pdfrwt>
<pdfrwt beam="2">  1       -1 0.43648200E-01 0.51680594E+03</pdfrwt>
<totfact> 0.71171922E+01</totfact>
</mgrwt>
</event>
<event>
 4    1  0.1852677E-008  0.7630835E+03  0.7818608E-02  0.9615045E-01
          1   -1    0    0  501    0  0.00000000000E+00  0.00000000000E+00  0.27548253636E+04  0.27548253636E+04  0.50400000000E-02 0. -1.
         -1   -1    0    0    0  501 -0.00000000000E+00 -0.00000000000E+00 -0.26643595084E+03  0.26643595088E+03  0.50400000000E-02 0.  1.
    8880022    1    1    2    0    0  0.67326770239E+03 -0.32498515203E+03  0.55745743079E+03  0.94501597250E+03  0.15294330000E+03 0.  0.
    8880022    1    1    2    0    0 -0.67326770239E+03  0.32498515203E+03  0.19309319820E+04  0.20762453420E+04  0.15294330000E+03 0.  0.
<mgrwt>
<rscale>  0 0.76308348E+03</rscale>
<asrwt>0</asrwt>
<pdfrwt beam="1">  1        1 0.42381932E+00 0.76308348E+03</pdfrwt>
<pdfrwt beam="2">  1       -1 0.40990143E-01 0.76308348E+03</pdfrwt>
<totfact> 0.55396314E+00</totfact>
</mgrwt>
</event>
<event>
 4    1  0.1852677E-008  0.9668289E+03  0.7818608E-02  0.9345694E-01
         -1   -1    0    0    0  501 -0.00000000000E+00  0.00000000000E+00  0.49950048982E+03  0.49950048985E+03  0.50400000000E-02 0.  1.
          1   -1    0    0  501    0  0.00000000000E+00 -0.00000000000E+00 -0.26030216807E+04  0.26030216807E+04  0.50400000000E-02 0. -1.
    8880022    1    1    2    0    0 -0.53002812486E+03  0.79400039226E+03 -0.22934085924E+03  0.99365754603E+03  0.15294330000E+03 0.  0.
    8880022    1    1    2    0    0  0.53002812486E+03 -0.79400039226E+03 -0.18741803316E+04  0.21088646245E+04  0.15294330000E+03 0.  0.
<mgrwt>
<rscale>  0 0.96682888E+03</rscale>
<asrwt>0</asrwt>
<pdfrwt beam="1">  1        1 0.40046487E+00 0.96682888E+03</pdfrwt>
<pdfrwt beam="2">  1       -1 0.76846231E-01 0.96682888E+03</pdfrwt>
<totfact> 0.20010074E+00</totfact>
</mgrwt>
</event>
<event>
 4    1  0.1852677E-008  0.4896560E+03  0.7818608E-02  0.1016515E+00
         -1   -1    0    0    0  501 -0.00000000000E+00  0.00000000000E+00  0.21277429556E+03  0.21277429561E+03  0.50400000000E-02 0.  1.
          1   -1    0    0  501    0  0.00000000000E+00 -0.00000000000E+00 -0.14952572867E+04  0.14952572867E+04  0.50400000000E-02 0. -1.
    8880022    1    1    2    0    0 -0.14919839253E+03 -0.44058047103E+03 -0.10651546481E+04  0.11723128376E+04  0.15294330000E+03 0.  0.
    8880022    1    1    2    0    0  0.14919839253E+03  0.44058047103E+03 -0.21732834310E+03  0.53571874479E+03  0.15294330000E+03 0.  0.
<mgrwt>
<rscale>  0 0.48965597E+03</rscale>
<asrwt>0</asrwt>
<pdfrwt beam="1">  1        1 0.23003958E+00 0.48965597E+03</pdfrwt>
<pdfrwt beam="2">  1       -1 0.32734508E-01 0.48965597E+03</pdfrwt>
<totfact> 0.61196061E+01</totfact>
</mgrwt>
</event>
<event>
 4    1  0.1852677E-008  0.2809546E+03  0.7818608E-02  0.1095169E+00
          1   -1    0    0  501    0  0.00000000000E+00  0.00000000000E+00  0.73206747932E+03  0.73206747934E+03  0.50400000000E-02 0. -1.
         -1   -1    0    0    0  501 -0.00000000000E+00 -0.00000000000E+00 -0.51123590688E+03  0.51123590691E+03  0.50400000000E-02 0.  1.
    8880022    1    1    2    0    0  0.87653633062E+02  0.21877088309E+03 -0.44180152545E+03  0.52356861974E+03  0.15294330000E+03 0.  0.
    8880022    1    1    2    0    0 -0.87653633062E+02 -0.21877088309E+03  0.66263309789E+03  0.71973476650E+03  0.15294330000E+03 0.  0.
<mgrwt>
<rscale>  0 0.28095464E+03</rscale>
<asrwt>0</asrwt>
<pdfrwt beam="1">  1        1 0.11262577E+00 0.28095464E+03</pdfrwt>
<pdfrwt beam="2">  1       -1 0.78651678E-01 0.28095464E+03</pdfrwt>
<totfact> 0.45171887E+01</totfact>
</mgrwt>
</event>
<event>
 4    1  0.1852677E-008  0.1246300E+04  0.7818608E-02  0.9073269E-01
         -1   -1    0    0    0  501 -0.00000000000E+00  0.00000000000E+00  0.12004276030E+04  0.12004276030E+04  0.50400000000E-02 0.  1.
          1   -1    0    0  501    0  0.00000000000E+00 -0.00000000000E+00 -0.13701525734E+04  0.13701525734E+04  0.50400000000E-02 0. -1.
    8880022    1    1    2    0    0  0.12199928590E+04 -0.20368815495E+03  0.21829842223E+03  0.12652736046E+04  0.15294330000E+03 0.  0.
    8880022    1    1    2    0    0 -0.12199928590E+04  0.20368815495E+03 -0.38802339263E+03  0.13053065719E+04  0.15294330000E+03 0.  0.
<mgrwt>
<rscale>  0 0.12462998E+04</rscale>
<asrwt>0</asrwt>
<pdfrwt beam="1">  1        1 0.21079270E+00 0.12462998E+04</pdfrwt>
<pdfrwt beam="2">  1       -1 0.18468117E+00 0.12462998E+04</pdfrwt>
<totfact> 0.15145344E+00</totfact>
</mgrwt>
</event>
<event>
 4    1  0.1852677E-008  0.6477595E+03  0.7818608E-02  0.9810992E-01
          1   -1    0    0  501    0  0.00000000000E+00  0.00000000000E+00  0.26143444033E+04  0.26143444033E+04  0.50400000000E-02 0. -1.
         -1   -1    0    0    0  501 -0.00000000000E+00 -0.00000000000E+00 -0.27877293795E+03  0.27877293799E+03  0.50400000000E-02 0.  1.
    8880022    1    1    2    0    0 -0.62890405706E+03  0.26084252569E+02  0.21100232821E+04  0.22072133121E+04  0.15294330000E+03 0.  0.
    8880022    1    1    2    0    0  0.62890405706E+03 -0.26084252569E+02  0.22554818322E+03  0.68590402913E+03  0.15294330000E+03 0.  0.
<mgrwt>
<rscale>  0 0.64775949E+03</rscale>
<asrwt>0</asrwt>
<pdfrwt beam="1">  1        1 0.40220682E+00 0.64775949E+03</pdfrwt>
<pdfrwt beam="2">  1       -1 0.42888146E-01 0.64775949E+03</pdfrwt>
<totfact> 0.65200524E+00</totfact>
</mgrwt>
</event>
<event>
 4    1  0.1852677E-008  0.4367568E+03  0.7818608E-02  0.1031747E+00
          1   -1    0    0  501    0  0.00000000000E+00  0.00000000000E+00  0.17737947300E+04  0.17737947300E+04  0.50400000000E-02 0. -1.
         -1   -1    0    0    0  501 -0.00000000000E+00 -0.00000000000E+00 -0.16984921714E+03  0.16984921722E+03  0.50400000000E-02 0.  1.
    8880022    1    1    2    0    0 -0.30783850353E+03  0.26944445330E+03  0.13905804428E+04  0.14575563381E+04  0.15294330000E+03 0.  0.
    8880022    1    1    2    0    0  0.30783850353E+03 -0.26944445330E+03  0.21336507008E+03  0.48608760920E+03  0.15294330000E+03 0.  0.
<mgrwt>
<rscale>  0 0.43675681E+03</rscale>
<asrwt>0</asrwt>
<pdfrwt beam="1">  1        1 0.27289149E+00 0.43675681E+03</pdfrwt>
<pdfrwt beam="2">  1       -1 0.26130650E-01 0.43675681E+03</pdfrwt>
<totfact> 0.59346859E+01</totfact>
</mgrwt>
</event>
<event>
 4    1  0.1852677E-008  0.3735994E+03  0.7818608E-02  0.1053325E+00
         -1   -1    0    0    0  501 -0.00000000000E+00  0.00000000000E+00  0.10575064222E+04  0.10575064222E+04  0.50400000000E-02 0.  1.
          1   -1    0    0  501    0  0.00000000000E+00 -0.00000000000E+00 -0.37938239106E+03  0.37938239110E+03  0.50400000000E-02 0. -1.
    8880022    1    1    2    0    0  0.20739328807E+03  0.27050480184E+03 -0.24110215313E+03  0.44464224385E+03  0.15294330000E+03 0. -1.
    8880022    1    1    2    0    0 -0.20739328807E+03 -0.27050480184E+03  0.91922618428E+03  0.99224656948E+03  0.15294330000E+03 0.  0.
<mgrwt>
<rscale>  0 0.37359935E+03</rscale>
<asrwt>0</asrwt>
<pdfrwt beam="1">  1        1 0.58366523E-01 0.37359935E+03</pdfrwt>
<pdfrwt beam="2">  1       -1 0.16269329E+00 0.37359935E+03</pdfrwt>
<totfact> 0.19479751E+01</totfact>
</mgrwt>
</event>
<event>
 4    1  0.1852677E-008  0.1187723E+04  0.7818608E-02  0.9123671E-01
         -1   -1    0    0    0  501 -0.00000000000E+00  0.00000000000E+00  0.10109083203E+04  0.10109083203E+04  0.50400000000E-02 0.  1.
          1   -1    0    0  501    0  0.00000000000E+00 -0.00000000000E+00 -0.23982898135E+04  0.23982898135E+04  0.50400000000E-02 0. -1.
    8880022    1    1    2    0    0  0.55103826137E+03  0.10409855118E+04 -0.17959513297E+04  0.21531666988E+04  0.15294330000E+03 0.  0.
    8880022    1    1    2    0    0 -0.55103826137E+03 -0.10409855118E+04  0.40856983646E+03  0.12560314349E+04  0.15294330000E+03 0.  0.
<mgrwt>
<rscale>  0 0.11877229E+04</rscale>
<asrwt>0</asrwt>
<pdfrwt beam="1">  1        1 0.36896766E+00 0.11877229E+04</pdfrwt>
<pdfrwt beam="2">  1       -1 0.15552436E+00 0.11877229E+04</pdfrwt>
<totfact> 0.49731782E-01</totfact>
</mgrwt>
</event>
<event>
 4    1  0.1852677E-008  0.1576132E+03  0.7818608E-02  0.1191418E+00
         -1   -1    0    0    0  501 -0.00000000000E+00  0.00000000000E+00  0.33283355808E+03  0.33283355812E+03  0.50400000000E-02 0.  1.
          1   -1    0    0  501    0  0.00000000000E+00 -0.00000000000E+00 -0.18970008027E+03  0.18970008034E+03  0.50400000000E-02 0. -1.
    8880022    1    1    2    0    0 -0.16358902675E+02  0.34389763192E+02  0.27504462973E+03  0.31700389724E+03  0.15294330000E+03 0.  1.
    8880022    1    1    2    0    0  0.16358902675E+02 -0.34389763192E+02 -0.13191115192E+03  0.20552974122E+03  0.15294330000E+03 0.  0.
<mgrwt>
<rscale>  0 0.15761321E+03</rscale>
<asrwt>0</asrwt>
<pdfrwt beam="1">  1        1 0.29184628E-01 0.15761321E+03</pdfrwt>
<pdfrwt beam="2">  1       -1 0.51205162E-01 0.15761321E+03</pdfrwt>
<totfact> 0.61755479E+02</totfact>
</mgrwt>
</event>
<event>
 4    1  0.1852677E-008  0.1432899E+04  0.7818608E-02  0.8930343E-01
         -1   -1    0    0    0  501 -0.00000000000E+00  0.00000000000E+00  0.18541008140E+04  0.18541008140E+04  0.50400000000E-02 0.  1.
          1   -1    0    0  501    0  0.00000000000E+00 -0.00000000000E+00 -0.13442477912E+04  0.13442477912E+04  0.50400000000E-02 0. -1.
    8880022    1    1    2    0    0  0.60738821146E+03  0.12887537951E+04  0.92621164120E+03  0.17061847617E+04  0.15294330000E+03 0.  0.
    8880022    1    1    2    0    0 -0.60738821146E+03 -0.12887537951E+04 -0.41635861845E+03  0.14921638435E+04  0.15294330000E+03 0.  0.
<mgrwt>
<rscale>  0 0.14328986E+04</rscale>
<asrwt>0</asrwt>
<pdfrwt beam="1">  1        1 0.20680735E+00 0.14328986E+04</pdfrwt>
<pdfrwt beam="2">  1       -1 0.28524628E+00 0.14328986E+04</pdfrwt>
<totfact> 0.33038453E-01</totfact>
</mgrwt>
</event>
<event>
 4    1  0.1852677E-008  0.1149129E+04  0.7818608E-02  0.9158587E-01
          1   -1    0    0  501    0  0.00000000000E+00  0.00000000000E+00  0.13325688486E+04  0.13325688486E+04  0.50400000000E-02 0. -1.
         -1   -1    0    0    0  501 -0.00000000000E+00 -0.00000000000E+00 -0.24961709585E+04  0.24961709585E+04  0.50400000000E-02 0.  1.
    8880022    1    1    2    0    0  0.10563653583E+04 -0.42567353368E+03 -0.20683872384E+04  0.23661621137E+04  0.15294330000E+03 0.  0.
    8880022    1    1    2    0    0 -0.10563653583E+04  0.42567353368E+03  0.90478512852E+03  0.14625776934E+04  0.15294330000E+03 0.  0.
<mgrwt>
<rscale>  0 0.11491290E+04</rscale>
<asrwt>0</asrwt>
<pdfrwt beam="1">  1        1 0.20501059E+00 0.11491290E+04</pdfrwt>
<pdfrwt beam="2">  1       -1 0.38402630E+00 0.11491290E+04</pdfrwt>
<totfact> 0.78673406E-02</totfact>
</mgrwt>
</event>
<event>
 4    1  0.1852677E-008  0.6824070E+03  0.7818608E-02  0.9747801E-01
          1   -1    0    0  501    0  0.00000000000E+00  0.00000000000E+00  0.20757844717E+04  0.20757844717E+04  0.50400000000E-02 0. -1.
         -1   -1    0    0    0  501 -0.00000000000E+00 -0.00000000000E+00 -0.35033521007E+03  0.35033521011E+03  0.50400000000E-02 0.  1.
    8880022    1    1    2    0    0  0.38488298543E+03  0.54235851354E+03  0.15902014296E+04  0.17304392244E+04  0.15294330000E+03 0. -1.
    8880022    1    1    2    0    0 -0.38488298543E+03 -0.54235851354E+03  0.13524783201E+03  0.69568045737E+03  0.15294330000E+03 0.  0.
<mgrwt>
<rscale>  0 0.68240701E+03</rscale>
<asrwt>0</asrwt>
<pdfrwt beam="1">  1        1 0.31935146E+00 0.68240701E+03</pdfrwt>
<pdfrwt beam="2">  1       -1 0.53897724E-01 0.68240701E+03</pdfrwt>
<totfact> 0.97424619E+00</totfact>
</mgrwt>
</event>
<event>
 4    1  0.1852677E-008  0.7385883E+03  0.7818608E-02  0.9653425E-01
         -1   -1    0    0    0  501 -0.00000000000E+00  0.00000000000E+00  0.89124287080E+03  0.89124287081E+03  0.50400000000E-02 0.  1.
          1   -1    0    0  501    0  0.00000000000E+00 -0.00000000000E+00 -0.86771377198E+03  0.86771377200E+03  0.50400000000E-02 0. -1.
    8880022    1    1    2    0    0  0.48506601521E+03 -0.53556703515E+03  0.48912368742E+03  0.88586382862E+03  0.15294330000E+03 0.  0.
    8880022    1    1    2    0    0 -0.48506601521E+03  0.53556703515E+03 -0.46559458860E+03  0.87309281419E+03  0.15294330000E+03 0.  0.
<mgrwt>
<rscale>  0 0.73858834E+03</rscale>
<asrwt>0</asrwt>
<pdfrwt beam="1">  1        1 0.13349443E+00 0.73858834E+03</pdfrwt>
<pdfrwt beam="2">  1       -1 0.13711429E+00 0.73858834E+03</pdfrwt>
<totfact> 0.88547374E+00</totfact>
</mgrwt>
</event>
<event>
 4    1  0.1852677E-008  0.3971281E+03  0.7818608E-02  0.1044779E+00
         -1   -1    0    0    0  501 -0.00000000000E+00  0.00000000000E+00  0.64730253635E+03  0.64730253637E+03  0.50400000000E-02 0.  1.
          1   -1    0    0  501    0  0.00000000000E+00 -0.00000000000E+00 -0.27697047453E+03  0.27697047458E+03  0.50400000000E-02 0. -1.
    8880022    1    1    2    0    0  0.16269837047E+02  0.36613439620E+03  0.24858290927E+02  0.39790537986E+03  0.15294330000E+03 0.  0.
    8880022    1    1    2    0    0 -0.16269837047E+02 -0.36613439620E+03  0.34547377089E+03  0.52636763109E+03  0.15294330000E+03 0.  0.
<mgrwt>
<rscale>  0 0.39712814E+03</rscale>
<asrwt>0</asrwt>
<pdfrwt beam="1">  1        1 0.42610843E-01 0.39712814E+03</pdfrwt>
<pdfrwt beam="2">  1       -1 0.99585005E-01 0.39712814E+03</pdfrwt>
<totfact> 0.97964989E+01</totfact>
</mgrwt>
</event>
<event>
 4    1  0.1852677E-008  0.4660201E+03  0.7818608E-02  0.1023050E+00
         -1   -1    0    0    0  501 -0.00000000000E+00  0.00000000000E+00  0.11618342528E+04  0.11618342528E+04  0.50400000000E-02 0.  1.
          1   -1    0    0  501    0  0.00000000000E+00 -0.00000000000E+00 -0.97324622374E+03  0.97324622375E+03  0.50400000000E-02 0. -1.
    8880022    1    1    2    0    0 -0.16781770818E+03  0.40696469602E+03  0.10538562920E+04  0.11522967431E+04  0.15294330000E+03 0.  1.
    8880022    1    1    2    0    0  0.16781770818E+03 -0.40696469602E+03 -0.86526826290E+03  0.98278373348E+03  0.15294330000E+03 0.  0.
<mgrwt>
<rscale>  0 0.46602006E+03</rscale>
<asrwt>0</asrwt>
<pdfrwt beam="1">  1        1 0.14973019E+00 0.46602006E+03</pdfrwt>
<pdfrwt beam="2">  1       -1 0.17874373E+00 0.46602006E+03</pdfrwt>
<totfact> 0.37215899E+00</totfact>
</mgrwt>
</event>
<event>
 4    1  0.1852677E-008  0.4038108E+03  0.7818608E-02  0.1042468E+00
          1   -1    0    0  501    0  0.00000000000E+00  0.00000000000E+00  0.12280046126E+04  0.12280046126E+04  0.50400000000E-02 0. -1.
         -1   -1    0    0    0  501 -0.00000000000E+00 -0.00000000000E+00 -0.35926786444E+03  0.35926786448E+03  0.50400000000E-02 0.  1.
    8880022    1    1    2    0    0 -0.28995175572E+03  0.23579552002E+03  0.10644951608E+04  0.11385135696E+04  0.15294330000E+03 0.  0.
    8880022    1    1    2    0    0  0.28995175572E+03 -0.23579552002E+03 -0.19575841261E+03  0.44875890747E+03  0.15294330000E+03 0.  0.
<mgrwt>
<rscale>  0 0.40381085E+03</rscale>
<asrwt>0</asrwt>
<pdfrwt beam="1">  1        1 0.18892378E+00 0.40381085E+03</pdfrwt>
<pdfrwt beam="2">  1       -1 0.55271981E-01 0.40381085E+03</pdfrwt>
<totfact> 0.36566090E+01</totfact>
</mgrwt>
</event>
<event>
 4    1  0.1852677E-008  0.4162789E+03  0.7818608E-02  0.1038284E+00
          1   -1    0    0  501    0  0.00000000000E+00  0.00000000000E+00  0.32274312809E+04  0.32274312809E+04  0.50400000000E-02 0. -1.
         -1   -1    0    0    0  501 -0.00000000000E+00 -0.00000000000E+00 -0.97415528124E+02  0.97415528254E+02  0.50400000000E-02 0.  1.
    8880022    1    1    2    0    0 -0.36860317678E+03 -0.11844056410E+03  0.26787478116E+04  0.27108998433E+04  0.15294330000E+03 0.  0.
    8880022    1    1    2    0    0  0.36860317678E+03  0.11844056410E+03  0.45126794118E+03  0.61394696587E+03  0.15294330000E+03 0.  0.
<mgrwt>
<rscale>  0 0.41627890E+03</rscale>
<asrwt>0</asrwt>
<pdfrwt beam="1">  1        1 0.49652789E+00 0.41627890E+03</pdfrwt>
<pdfrwt beam="2">  1       -1 0.14987004E-01 0.41627890E+03</pdfrwt>
<totfact> 0.15290821E+01</totfact>
</mgrwt>
</event>
<event>
 4    1  0.1863557E-008  0.9004175E+03  0.7818608E-02  0.9425060E-01
          1   -1    0    0  501    0  0.00000000000E+00  0.00000000000E+00  0.13992918402E+04  0.13992918402E+04  0.50400000000E-02 0. -1.
         -1   -1    0    0    0  501 -0.00000000000E+00 -0.00000000000E+00 -0.12943527706E+04  0.12943527706E+04  0.50400000000E-02 0.  1.
    8880022    1    1    2    0    0 -0.51066038760E+03 -0.72566250634E+03 -0.94850308922E+03  0.13078263906E+04  0.15294330000E+03 0.  0.
    8880022    1    1    2    0    0  0.51066038760E+03  0.72566250634E+03  0.10534421588E+04  0.13858182202E+04  0.15294330000E+03 0.  0.
<mgrwt>
<rscale>  0 0.90041755E+03</rscale>
<asrwt>0</asrwt>
<pdfrwt beam="1">  1        1 0.21527567E+00 0.90041755E+03</pdfrwt>
<pdfrwt beam="2">  1       -1 0.19913120E+00 0.90041755E+03</pdfrwt>
<totfact> 0.11996605E+00</totfact>
</mgrwt>
</event>
<event>
 4    1  0.1852677E-008  0.2390498E+03  0.7818608E-02  0.1120427E+00
         -1   -1    0    0    0  501 -0.00000000000E+00  0.00000000000E+00  0.14052731650E+04  0.14052731651E+04  0.50400000000E-02 0.  1.
          1   -1    0    0  501    0  0.00000000000E+00 -0.00000000000E+00 -0.55421846305E+03  0.55421846308E+03  0.50400000000E-02 0. -1.
    8880022    1    1    2    0    0  0.17457666181E+03  0.57237413934E+02 -0.51759046250E+03  0.57012689139E+03  0.15294330000E+03 0.  0.
    8880022    1    1    2    0    0 -0.17457666181E+03 -0.57237413934E+02  0.13686451645E+04  0.13893647367E+04  0.15294330000E+03 0.  1.
<mgrwt>
<rscale>  0 0.23904976E+03</rscale>
<asrwt>0</asrwt>
<pdfrwt beam="1">  1        1 0.85264381E-01 0.23904976E+03</pdfrwt>
<pdfrwt beam="2">  1       -1 0.21619587E+00 0.23904976E+03</pdfrwt>
<totfact> 0.52881299E+00</totfact>
</mgrwt>
</event>
<event>
 4    1  0.1852677E-008  0.3027680E+03  0.7818608E-02  0.1083865E+00
          1   -1    0    0  501    0  0.00000000000E+00  0.00000000000E+00  0.25798243698E+03  0.25798243703E+03  0.50400000000E-02 0. -1.
         -1   -1    0    0    0  501 -0.00000000000E+00 -0.00000000000E+00 -0.64892942013E+03  0.64892942015E+03  0.50400000000E-02 0.  1.
    8880022    1    1    2    0    0 -0.22069654804E+03  0.13989224938E+03  0.10953730077E+03  0.32197341664E+03  0.15294330000E+03 0.  0.
    8880022    1    1    2    0    0  0.22069654804E+03 -0.13989224938E+03 -0.50048428392E+03  0.58493844054E+03  0.15294330000E+03 0.  0.
<mgrwt>
<rscale>  0 0.30276800E+03</rscale>
<asrwt>0</asrwt>
<pdfrwt beam="1">  1        1 0.39689606E-01 0.30276800E+03</pdfrwt>
<pdfrwt beam="2">  1       -1 0.99835295E-01 0.30276800E+03</pdfrwt>
<totfact> 0.10785073E+02</totfact>
</mgrwt>
</event>
<event>
 4    1  0.1852677E-008  0.3318561E+03  0.7818608E-02  0.1070319E+00
          1   -1    0    0  501    0  0.00000000000E+00  0.00000000000E+00  0.25866673380E+03  0.25866673385E+03  0.50400000000E-02 0. -1.
         -1   -1    0    0    0  501 -0.00000000000E+00 -0.00000000000E+00 -0.74158925524E+03  0.74158925526E+03  0.50400000000E-02 0.  1.
    8880022    1    1    2    0    0  0.13669751434E+03  0.26086516311E+03  0.84923210396E+02  0.34254992108E+03  0.15294330000E+03 0. -1.
    8880022    1    1    2    0    0 -0.13669751434E+03 -0.26086516311E+03 -0.56784573183E+03  0.65770606803E+03  0.15294330000E+03 0.  0.
<mgrwt>
<rscale>  0 0.33185614E+03</rscale>
<asrwt>0</asrwt>
<pdfrwt beam="1">  1        1 0.39794882E-01 0.33185614E+03</pdfrwt>
<pdfrwt beam="2">  1       -1 0.11409065E+00 0.33185614E+03</pdfrwt>
<totfact> 0.78814672E+01</totfact>
</mgrwt>
</event>
<event>
 4    1  0.1852677E-008  0.6370866E+03  0.7818608E-02  0.9831316E-01
         -1   -1    0    0    0  501 -0.00000000000E+00  0.00000000000E+00  0.13409471796E+04  0.13409471796E+04  0.50400000000E-02 0.  1.
          1   -1    0    0  501    0  0.00000000000E+00 -0.00000000000E+00 -0.55943834268E+03  0.55943834270E+03  0.50400000000E-02 0. -1.
    8880022    1    1    2    0    0 -0.30132740363E+03  0.54008289480E+03 -0.25296548905E+03  0.68547131894E+03  0.15294330000E+03 0.  0.
    8880022    1    1    2    0    0  0.30132740363E+03 -0.54008289480E+03  0.10344743260E+04  0.12149142034E+04  0.15294330000E+03 0.  0.
<mgrwt>
<rscale>  0 0.63708664E+03</rscale>
<asrwt>0</asrwt>
<pdfrwt beam="1">  1        1 0.86067437E-01 0.63708664E+03</pdfrwt>
<pdfrwt beam="2">  1       -1 0.20629957E+00 0.63708664E+03</pdfrwt>
<totfact> 0.54391217E+00</totfact>
</mgrwt>
</event>
<event>
 4    1  0.1852677E-008  0.4948929E+03  0.7818608E-02  0.1015121E+00
         -1   -1    0    0    0  501 -0.00000000000E+00  0.00000000000E+00  0.17111952410E+04  0.17111952410E+04  0.50400000000E-02 0.  1.
          1   -1    0    0  501    0  0.00000000000E+00 -0.00000000000E+00 -0.38783858257E+03  0.38783858260E+03  0.50400000000E-02 0. -1.
    8880022    1    1    2    0    0 -0.20438177298E+03  0.42397569311E+03 -0.17198525407E+03  0.52392545090E+03  0.15294330000E+03 0.  0.
    8880022    1    1    2    0    0  0.20438177298E+03 -0.42397569311E+03  0.14953419125E+04  0.15751083727E+04  0.15294330000E+03 0.  0.
<mgrwt>
<rscale>  0 0.49489287E+03</rscale>
<asrwt>0</asrwt>
<pdfrwt beam="1">  1        1 0.59667476E-01 0.49489287E+03</pdfrwt>
<pdfrwt beam="2">  1       -1 0.26326080E+00 0.49489287E+03</pdfrwt>
<totfact> 0.39051737E+00</totfact>
</mgrwt>
</event>
<event>
 4    1  0.1852677E-008  0.2076875E+03  0.7818608E-02  0.1143410E+00
          1   -1    0    0  501    0  0.00000000000E+00  0.00000000000E+00  0.86116204329E+03  0.86116204330E+03  0.50400000000E-02 0. -1.
         -1   -1    0    0    0  501 -0.00000000000E+00 -0.00000000000E+00 -0.18263347863E+03  0.18263347870E+03  0.50400000000E-02 0.  1.
    8880022    1    1    2    0    0  0.83473760917E+02  0.11302471460E+03 -0.10534371664E+03  0.23287637605E+03  0.15294330000E+03 0.  1.
    8880022    1    1    2    0    0 -0.83473760917E+02 -0.11302471460E+03  0.78387228130E+03  0.81091914595E+03  0.15294330000E+03 0.  0.
<mgrwt>
<rscale>  0 0.20768752E+03</rscale>
<asrwt>0</asrwt>
<pdfrwt beam="1">  1        1 0.13248647E+00 0.20768752E+03</pdfrwt>
<pdfrwt beam="2">  1       -1 0.28097458E-01 0.20768752E+03</pdfrwt>
<totfact> 0.23901318E+02</totfact>
</mgrwt>
</event>
<event>
 4    1  0.1852677E-008  0.7483032E+03  0.7818608E-02  0.9638016E-01
         -1   -1    0    0    0  501 -0.00000000000E+00  0.00000000000E+00  0.89576505243E+03  0.89576505244E+03  0.50400000000E-02 0.  1.
          1   -1    0    0  501    0  0.00000000000E+00 -0.00000000000E+00 -0.20393032750E+04  0.20393032750E+04  0.50400000000E-02 0. -1.
    8880022    1    1    2    0    0  0.24479407872E+03 -0.69039253724E+03 -0.17938520317E+04  0.19436724933E+04  0.15294330000E+03 0.  0.
    8880022    1    1    2    0    0 -0.24479407872E+03  0.69039253724E+03  0.65031380919E+03  0.99139583411E+03  0.15294330000E+03 0.  0.
<mgrwt>
<rscale>  0 0.74830318E+03</rscale>
<asrwt>0</asrwt>
<pdfrwt beam="1">  1        1 0.31373896E+00 0.74830318E+03</pdfrwt>
<pdfrwt beam="2">  1       -1 0.13781001E+00 0.74830318E+03</pdfrwt>
<totfact> 0.12950028E+00</totfact>
</mgrwt>
</event>
<event>
 4    1  0.1852677E-008  0.1101759E+04  0.7818608E-02  0.9203479E-01
          1   -1    0    0  501    0  0.00000000000E+00  0.00000000000E+00  0.14659141680E+04  0.14659141680E+04  0.50400000000E-02 0. -1.
         -1   -1    0    0    0  501 -0.00000000000E+00 -0.00000000000E+00 -0.98763251376E+03  0.98763251378E+03  0.50400000000E-02 0.  1.
    8880022    1    1    2    0    0 -0.47049188213E+03  0.98443823088E+03  0.73224451330E+03  0.13228964139E+04  0.15294330000E+03 0.  0.
    8880022    1    1    2    0    0  0.47049188213E+03 -0.98443823088E+03 -0.25396285905E+03  0.11306502679E+04  0.15294330000E+03 0.  0.
<mgrwt>
<rscale>  0 0.11017590E+04</rscale>
<asrwt>0</asrwt>
<pdfrwt beam="1">  1        1 0.22552526E+00 0.11017590E+04</pdfrwt>
<pdfrwt beam="2">  1       -1 0.15194346E+00 0.11017590E+04</pdfrwt>
<totfact> 0.23097393E+00</totfact>
</mgrwt>
</event>
<event>
 4    1  0.4523818E-008  0.1006719E+04  0.7818608E-02  0.9301206E-01
          1   -1    0    0  501    0  0.00000000000E+00  0.00000000000E+00  0.28194943790E+04  0.28194943790E+04  0.50400000000E-02 0. -1.
         -1   -1    0    0    0  501 -0.00000000000E+00 -0.00000000000E+00 -0.16248116084E+04  0.16248116084E+04  0.50400000000E-02 0.  1.
    8880022    1    1    2    0    0  0.62732301492E+03 -0.77237131498E+03  0.25583468422E+04  0.27492947880E+04  0.15294330000E+03 0.  0.
    8880022    1    1    2    0    0 -0.62732301492E+03  0.77237131498E+03 -0.13636640716E+04  0.16950111995E+04  0.15294330000E+03 0.  0.
<mgrwt>
<rscale>  0 0.10067191E+04</rscale>
<asrwt>0</asrwt>
<pdfrwt beam="1">  1        1 0.43376837E+00 0.10067191E+04</pdfrwt>
<pdfrwt beam="2">  1       -1 0.24997102E+00 0.10067191E+04</pdfrwt>
<totfact> 0.57900948E-02</totfact>
</mgrwt>
</event>
<event>
 4    1  0.1852677E-008  0.1686733E+03  0.7818608E-02  0.1179238E+00
          1   -1    0    0  501    0  0.00000000000E+00  0.00000000000E+00  0.16873401963E+03  0.16873401971E+03  0.50400000000E-02 0. -1.
         -1   -1    0    0    0  501 -0.00000000000E+00 -0.00000000000E+00 -0.28121595996E+03  0.28121596001E+03  0.50400000000E-02 0.  1.
    8880022    1    1    2    0    0  0.71117051777E+02 -0.11843397031E+01 -0.19860157714E+03  0.26056338417E+03  0.15294330000E+03 0.  1.
    8880022    1    1    2    0    0 -0.71117051777E+02  0.11843397031E+01  0.86119636805E+02  0.18938659555E+03  0.15294330000E+03 0.  0.
<mgrwt>
<rscale>  0 0.16867333E+03</rscale>
<asrwt>0</asrwt>
<pdfrwt beam="1">  1        1 0.25959080E-01 0.16867333E+03</pdfrwt>
<pdfrwt beam="2">  1       -1 0.43263994E-01 0.16867333E+03</pdfrwt>
<totfact> 0.97166912E+02</totfact>
</mgrwt>
</event>
<event>
 4    1  0.1852677E-008  0.1123322E+04  0.7818608E-02  0.9182754E-01
         -1   -1    0    0    0  501 -0.00000000000E+00  0.00000000000E+00  0.11627338356E+04  0.11627338356E+04  0.50400000000E-02 0.  1.
          1   -1    0    0  501    0  0.00000000000E+00 -0.00000000000E+00 -0.13471502070E+04  0.13471502070E+04  0.50400000000E-02 0. -1.
    8880022    1    1    2    0    0  0.10030348895E+04  0.48206071031E+03 -0.64554074664E+03  0.12955987136E+04  0.15294330000E+03 0.  0.
    8880022    1    1    2    0    0 -0.10030348895E+04 -0.48206071031E+03  0.46112437525E+03  0.12142853291E+04  0.15294330000E+03 0.  0.
<mgrwt>
<rscale>  0 0.11233224E+04</rscale>
<asrwt>0</asrwt>
<pdfrwt beam="1">  1        1 0.20725388E+00 0.11233224E+04</pdfrwt>
<pdfrwt beam="2">  1       -1 0.17888213E+00 0.11233224E+04</pdfrwt>
<totfact> 0.17554809E+00</totfact>
</mgrwt>
</event>
<event>
 4    1  0.1852677E-008  0.4323683E+03  0.7818608E-02  0.1033114E+00
         -1   -1    0    0    0  501 -0.00000000000E+00  0.00000000000E+00  0.10836243060E+04  0.10836243060E+04  0.50400000000E-02 0.  1.
          1   -1    0    0  501    0  0.00000000000E+00 -0.00000000000E+00 -0.75907919066E+03  0.75907919067E+03  0.50400000000E-02 0. -1.
    8880022    1    1    2    0    0  0.22949305598E+03 -0.33299190129E+03  0.97218747019E+03  0.10639975560E+04  0.15294330000E+03 0.  1.
    8880022    1    1    2    0    0 -0.22949305598E+03  0.33299190129E+03 -0.64764235488E+03  0.77870594060E+03  0.15294330000E+03 0.  0.
<mgrwt>
<rscale>  0 0.43236827E+03</rscale>
<asrwt>0</asrwt>
<pdfrwt beam="1">  1        1 0.11678141E+00 0.43236827E+03</pdfrwt>
<pdfrwt beam="2">  1       -1 0.16671143E+00 0.43236827E+03</pdfrwt>
<totfact> 0.68652373E+00</totfact>
</mgrwt>
</event>
<event>
 4    1  0.1852677E-008  0.5257055E+03  0.7818608E-02  0.1007279E+00
         -1   -1    0    0    0  501 -0.00000000000E+00  0.00000000000E+00  0.25350423032E+04  0.25350423032E+04  0.50400000000E-02 0.  1.
          1   -1    0    0  501    0  0.00000000000E+00 -0.00000000000E+00 -0.53355728672E+03  0.53355728674E+03  0.50400000000E-02 0. -1.
    8880022    1    1    2    0    0  0.77830898699E+02 -0.49690740293E+03 -0.36786347730E+03  0.64163058439E+03  0.15294330000E+03 0.  0.
    8880022    1    1    2    0    0 -0.77830898699E+02  0.49690740293E+03  0.23693484937E+04  0.24269690055E+04  0.15294330000E+03 0.  0.
<mgrwt>
<rscale>  0 0.52570550E+03</rscale>
<asrwt>0</asrwt>
<pdfrwt beam="1">  1        1 0.82085738E-01 0.52570550E+03</pdfrwt>
<pdfrwt beam="2">  1       -1 0.39000650E+00 0.52570550E+03</pdfrwt>
<totfact> 0.38490851E-01</totfact>
</mgrwt>
</event>
<event>
 4    1  0.1852677E-008  0.6739570E+03  0.7818608E-02  0.9762836E-01
          1   -1    0    0  501    0  0.00000000000E+00  0.00000000000E+00  0.23996756552E+04  0.23996756552E+04  0.50400000000E-02 0. -1.
         -1   -1    0    0    0  501 -0.00000000000E+00 -0.00000000000E+00 -0.27511023039E+03  0.27511023044E+03  0.50400000000E-02 0.  1.
    8880022    1    1    2    0    0 -0.65145617538E+03 -0.80194740750E+02  0.31528717927E+03  0.74405913966E+03  0.15294330000E+03 0.  0.
    8880022    1    1    2    0    0  0.65145617538E+03  0.80194740750E+02  0.18092782455E+04  0.19307267460E+04  0.15294330000E+03 0.  0.
<mgrwt>
<rscale>  0 0.67395697E+03</rscale>
<asrwt>0</asrwt>
<pdfrwt beam="1">  1        1 0.36918088E+00 0.67395697E+03</pdfrwt>
<pdfrwt beam="2">  1       -1 0.42324650E-01 0.67395697E+03</pdfrwt>
<totfact> 0.93065787E+00</totfact>
</mgrwt>
</event>
<event>
 4    1  0.1852677E-008  0.9648549E+03  0.7818608E-02  0.9347954E-01
          1   -1    0    0  501    0  0.00000000000E+00  0.00000000000E+00  0.24787472266E+04  0.24787472266E+04  0.50400000000E-02 0. -1.
         -1   -1    0    0    0  501 -0.00000000000E+00 -0.00000000000E+00 -0.42010579927E+03  0.42010579930E+03  0.50400000000E-02 0.  1.
    8880022    1    1    2    0    0 -0.54396121518E+03 -0.78208660274E+03  0.15012402085E+04  0.17845635529E+04  0.15294330000E+03 0.  0.
    8880022    1    1    2    0    0  0.54396121518E+03  0.78208660274E+03  0.55740121883E+03  0.11142894730E+04  0.15294330000E+03 0.  0.
<mgrwt>
<rscale>  0 0.96485487E+03</rscale>
<asrwt>0</asrwt>
<pdfrwt beam="1">  1        1 0.38134574E+00 0.96485487E+03</pdfrwt>
<pdfrwt beam="2">  1       -1 0.64631659E-01 0.96485487E+03</pdfrwt>
<totfact> 0.34822892E+00</totfact>
</mgrwt>
</event>
<event>
 4    1  0.1852677E-008  0.9226619E+03  0.7818608E-02  0.9397688E-01
          1   -1    0    0  501    0  0.00000000000E+00  0.00000000000E+00  0.79069206244E+03  0.79069206246E+03  0.50400000000E-02 0. -1.
         -1   -1    0    0    0  501 -0.00000000000E+00 -0.00000000000E+00 -0.12907009299E+04  0.12907009299E+04  0.50400000000E-02 0.  1.
    8880022    1    1    2    0    0 -0.37271348360E+03  0.83005901788E+03  0.17379627910E+03  0.93888770024E+03  0.15294330000E+03 0.  0.
    8880022    1    1    2    0    0  0.37271348360E+03 -0.83005901788E+03 -0.67380514658E+03  0.11425052922E+04  0.15294330000E+03 0.  0.
<mgrwt>
<rscale>  0 0.92266189E+03</rscale>
<asrwt>0</asrwt>
<pdfrwt beam="1">  1        1 0.12164493E+00 0.92266189E+03</pdfrwt>
<pdfrwt beam="2">  1       -1 0.19856937E+00 0.92266189E+03</pdfrwt>
<totfact> 0.35156250E+00</totfact>
</mgrwt>
</event>
<event>
 4    1  0.1852677E-008  0.4261859E+03  0.7818608E-02  0.1035072E+00
         -1   -1    0    0    0  501 -0.00000000000E+00  0.00000000000E+00  0.37765450571E+03  0.37765450574E+03  0.50400000000E-02 0.  1.
          1   -1    0    0  501    0  0.00000000000E+00 -0.00000000000E+00 -0.63815211357E+03  0.63815211359E+03  0.50400000000E-02 0. -1.
    8880022    1    1    2    0    0  0.17108722893E+02 -0.39742931048E+03  0.12183369787E+03  0.44325824096E+03  0.15294330000E+03 0.  0.
    8880022    1    1    2    0    0 -0.17108722893E+02  0.39742931048E+03 -0.38233130573E+03  0.57254837838E+03  0.15294330000E+03 0.  0.
<mgrwt>
<rscale>  0 0.42618590E+03</rscale>
<asrwt>0</asrwt>
<pdfrwt beam="1">  1        1 0.98177248E-01 0.42618590E+03</pdfrwt>
<pdfrwt beam="2">  1       -1 0.58100693E-01 0.42618590E+03</pdfrwt>
<totfact> 0.98605385E+01</totfact>
</mgrwt>
</event>
<event>
 4    1  0.1852677E-008  0.7081716E+03  0.7818608E-02  0.9703359E-01
         -1   -1    0    0    0  501 -0.00000000000E+00  0.00000000000E+00  0.76584528324E+03  0.76584528326E+03  0.50400000000E-02 0.  1.
          1   -1    0    0  501    0  0.00000000000E+00 -0.00000000000E+00 -0.72735483432E+03  0.72735483434E+03  0.50400000000E-02 0. -1.
    8880022    1    1    2    0    0  0.42315653262E+03  0.54685819222E+03  0.25498068543E+03  0.75267664801E+03  0.15294330000E+03 0.  0.
    8880022    1    1    2    0    0 -0.42315653262E+03 -0.54685819222E+03 -0.21649023651E+03  0.74052346959E+03  0.15294330000E+03 0.  0.
<mgrwt>
<rscale>  0 0.70817158E+03</rscale>
<asrwt>0</asrwt>
<pdfrwt beam="1">  1        1 0.11190074E+00 0.70817158E+03</pdfrwt>
<pdfrwt beam="2">  1       -1 0.11782235E+00 0.70817158E+03</pdfrwt>
<totfact> 0.17179950E+01</totfact>
</mgrwt>
</event>
<event>
 4    1  0.1852677E-008  0.4476685E+03  0.7818608E-02  0.1028420E+00
         -1   -1    0    0    0  501 -0.00000000000E+00  0.00000000000E+00  0.44468475476E+03  0.44468475479E+03  0.50400000000E-02 0.  1.
          1   -1    0    0  501    0  0.00000000000E+00 -0.00000000000E+00 -0.60102806841E+03  0.60102806843E+03  0.50400000000E-02 0. -1.
    8880022    1    1    2    0    0 -0.30786363258E+02  0.41960410264E+03 -0.33968584410E+03  0.56195509501E+03  0.15294330000E+03 0.  0.
    8880022    1    1    2    0    0  0.30786363258E+02 -0.41960410264E+03  0.18334253044E+03  0.48375772821E+03  0.15294330000E+03 0.  0.
<mgrwt>
<rscale>  0 0.44766847E+03</rscale>
<asrwt>0</asrwt>
<pdfrwt beam="1">  1        1 0.92465857E-01 0.44766847E+03</pdfrwt>
<pdfrwt beam="2">  1       -1 0.68413039E-01 0.44766847E+03</pdfrwt>
<totfact> 0.77603003E+01</totfact>
</mgrwt>
</event>
<event>
 4    1  0.1852677E-008  0.7016808E+03  0.7818608E-02  0.9714362E-01
          1   -1    0    0  501    0  0.00000000000E+00  0.00000000000E+00  0.13085277972E+04  0.13085277972E+04  0.50400000000E-02 0. -1.
         -1   -1    0    0    0  501 -0.00000000000E+00 -0.00000000000E+00 -0.90623889037E+03  0.90623889038E+03  0.50400000000E-02 0.  1.
    8880022    1    1    2    0    0  0.28015997501E+03 -0.62487967736E+03 -0.64569881974E+03  0.95356323420E+03  0.15294330000E+03 0.  0.
    8880022    1    1    2    0    0 -0.28015997501E+03  0.62487967736E+03  0.10479877265E+04  0.12612034534E+04  0.15294330000E+03 0.  0.
<mgrwt>
<rscale>  0 0.70168075E+03</rscale>
<asrwt>0</asrwt>
<pdfrwt beam="1">  1        1 0.20131197E+00 0.70168075E+03</pdfrwt>
<pdfrwt beam="2">  1       -1 0.13942137E+00 0.70168075E+03</pdfrwt>
<totfact> 0.39669271E+00</totfact>
</mgrwt>
</event>
<event>
 4    1  0.1852677E-008  0.3811909E+03  0.7818608E-02  0.1050494E+00
         -1   -1    0    0    0  501 -0.00000000000E+00  0.00000000000E+00  0.38319429264E+03  0.38319429268E+03  0.50400000000E-02 0.  1.
          1   -1    0    0  501    0  0.00000000000E+00 -0.00000000000E+00 -0.58783303165E+03  0.58783303167E+03  0.50400000000E-02 0. -1.
    8880022    1    1    2    0    0 -0.34625428513E+03 -0.44976129264E+02  0.18692706095E+03  0.42455654665E+03  0.15294330000E+03 0.  0.
    8880022    1    1    2    0    0  0.34625428513E+03  0.44976129264E+02 -0.39156579996E+03  0.54647077770E+03  0.15294330000E+03 0.  0.
<mgrwt>
<rscale>  0 0.38119094E+03</rscale>
<asrwt>0</asrwt>
<pdfrwt beam="1">  1        1 0.90435851E-01 0.38119094E+03</pdfrwt>
<pdfrwt beam="2">  1       -1 0.58952968E-01 0.38119094E+03</pdfrwt>
<totfact> 0.10835445E+02</totfact>
</mgrwt>
</event>
<event>
 4    1  0.1852677E-008  0.2279218E+03  0.7818608E-02  0.1128111E+00
         -1   -1    0    0    0  501 -0.00000000000E+00  0.00000000000E+00  0.23599680537E+03  0.23599680542E+03  0.50400000000E-02 0.  1.
          1   -1    0    0  501    0  0.00000000000E+00 -0.00000000000E+00 -0.36865444052E+03  0.36865444055E+03  0.50400000000E-02 0. -1.
    8880022    1    1    2    0    0  0.61193477708E+02  0.15751846098E+03  0.12557083944E+03  0.26022374219E+03  0.15294330000E+03 0.  0.
    8880022    1    1    2    0    0 -0.61193477708E+02 -0.15751846098E+03 -0.25822847459E+03  0.34442750379E+03  0.15294330000E+03 0. -1.
<mgrwt>
<rscale>  0 0.22792183E+03</rscale>
<asrwt>0</asrwt>
<pdfrwt beam="1">  1        1 0.56716068E-01 0.22792183E+03</pdfrwt>
<pdfrwt beam="2">  1       -1 0.36307201E-01 0.22792183E+03</pdfrwt>
<totfact> 0.49702477E+02</totfact>
</mgrwt>
</event>
<event>
 4    1  0.1852677E-008  0.5845663E+03  0.7818608E-02  0.9937954E-01
          1   -1    0    0  501    0  0.00000000000E+00  0.00000000000E+00  0.16686212339E+04  0.16686212339E+04  0.50400000000E-02 0. -1.
         -1   -1    0    0    0  501 -0.00000000000E+00 -0.00000000000E+00 -0.24369370305E+03  0.24369370310E+03  0.50400000000E-02 0.  1.
    8880022    1    1    2    0    0  0.39465263782E+03  0.40320638101E+03  0.10944960453E+04  0.12408220406E+04  0.15294330000E+03 0.  0.
    8880022    1    1    2    0    0 -0.39465263782E+03 -0.40320638101E+03  0.33043148547E+03  0.67149289633E+03  0.15294330000E+03 0.  0.
<mgrwt>
<rscale>  0 0.58456629E+03</rscale>
<asrwt>0</asrwt>
<pdfrwt beam="1">  1        1 0.25671096E+00 0.58456629E+03</pdfrwt>
<pdfrwt beam="2">  1       -1 0.37491340E-01 0.58456629E+03</pdfrwt>
<totfact> 0.36243991E+01</totfact>
</mgrwt>
</event>
<event>
 4    1  0.1852677E-008  0.8147645E+03  0.7818608E-02  0.9538889E-01
         -1   -1    0    0    0  501 -0.00000000000E+00  0.00000000000E+00  0.94885884170E+03  0.94885884171E+03  0.50400000000E-02 0.  1.
          1   -1    0    0  501    0  0.00000000000E+00 -0.00000000000E+00 -0.11678921639E+04  0.11678921639E+04  0.50400000000E-02 0. -1.
    8880022    1    1    2    0    0  0.72726445096E+02  0.79696954317E+03 -0.77969019904E+03  0.11277225049E+04  0.15294330000E+03 0.  0.
    8880022    1    1    2    0    0 -0.72726445096E+02 -0.79696954317E+03  0.56065687688E+03  0.98902850068E+03  0.15294330000E+03 0.  0.
<mgrwt>
<rscale>  0 0.81476453E+03</rscale>
<asrwt>0</asrwt>
<pdfrwt beam="1">  1        1 0.17967572E+00 0.81476453E+03</pdfrwt>
<pdfrwt beam="2">  1       -1 0.14597828E+00 0.81476453E+03</pdfrwt>
<totfact> 0.43543440E+00</totfact>
</mgrwt>
</event>
<event>
 4    1  0.1852677E-008  0.4101313E+03  0.7818608E-02  0.1040327E+00
         -1   -1    0    0    0  501 -0.00000000000E+00  0.00000000000E+00  0.14467842337E+04  0.14467842337E+04  0.50400000000E-02 0.  1.
          1   -1    0    0  501    0  0.00000000000E+00 -0.00000000000E+00 -0.32062851145E+03  0.32062851149E+03  0.50400000000E-02 0. -1.
    8880022    1    1    2    0    0  0.92089733330E+00  0.38054585806E+03 -0.14244418896E+03  0.43416356149E+03  0.15294330000E+03 0.  0.
    8880022    1    1    2    0    0 -0.92089733330E+00 -0.38054585806E+03  0.12685999112E+04  0.13332491837E+04  0.15294330000E+03 0.  1.
<mgrwt>
<rscale>  0 0.41013126E+03</rscale>
<asrwt>0</asrwt>
<pdfrwt beam="1">  1        1 0.49327463E-01 0.41013126E+03</pdfrwt>
<pdfrwt beam="2">  1       -1 0.22258219E+00 0.41013126E+03</pdfrwt>
<totfact> 0.92961426E+00</totfact>
</mgrwt>
</event>
<event>
 4    1  0.1852677E-008  0.3847595E+03  0.7818608E-02  0.1049188E+00
          1   -1    0    0  501    0  0.00000000000E+00  0.00000000000E+00  0.16329382168E+04  0.16329382168E+04  0.50400000000E-02 0. -1.
         -1   -1    0    0    0  501 -0.00000000000E+00 -0.00000000000E+00 -0.17453632016E+03  0.17453632023E+03  0.50400000000E-02 0.  1.
    8880022    1    1    2    0    0  0.35225123407E+03  0.23818516548E+02  0.13557031062E+04  0.14092447690E+04  0.15294330000E+03 0. -1.
    8880022    1    1    2    0    0 -0.35225123407E+03 -0.23818516548E+02  0.10269879046E+03  0.39822976811E+03  0.15294330000E+03 0.  0.
<mgrwt>
<rscale>  0 0.38475954E+03</rscale>
<asrwt>0</asrwt>
<pdfrwt beam="1">  1        1 0.25122127E+00 0.38475954E+03</pdfrwt>
<pdfrwt beam="2">  1       -1 0.26851740E-01 0.38475954E+03</pdfrwt>
<totfact> 0.70963530E+01</totfact>
</mgrwt>
</event>
<event>
 4    1  0.1852677E-008  0.6532271E+03  0.7818608E-02  0.9800743E-01
         -1   -1    0    0    0  501 -0.00000000000E+00  0.00000000000E+00  0.28568146561E+03  0.28568146565E+03  0.50400000000E-02 0.  1.
          1   -1    0    0  501    0  0.00000000000E+00 -0.00000000000E+00 -0.22141105793E+04  0.22141105793E+04  0.50400000000E-02 0. -1.
    8880022    1    1    2    0    0  0.42225099109E+03  0.47436071702E+03 -0.25122698590E+03  0.69987187455E+03  0.15294330000E+03 0.  0.
    8880022    1    1    2    0    0 -0.42225099109E+03 -0.47436071702E+03 -0.16772021278E+04  0.17999201704E+04  0.15294330000E+03 0.  0.
<mgrwt>
<rscale>  0 0.65322710E+03</rscale>
<asrwt>0</asrwt>
<pdfrwt beam="1">  1        1 0.34063239E+00 0.65322710E+03</pdfrwt>
<pdfrwt beam="2">  1       -1 0.43950996E-01 0.65322710E+03</pdfrwt>
<totfact> 0.11618474E+01</totfact>
</mgrwt>
</event>
<event>
 4    1  0.1852677E-008  0.1616385E+03  0.7818608E-02  0.1186859E+00
         -1   -1    0    0    0  501 -0.00000000000E+00  0.00000000000E+00  0.58955229753E+03  0.58955229755E+03  0.50400000000E-02 0.  1.
          1   -1    0    0  501    0  0.00000000000E+00 -0.00000000000E+00 -0.12555781845E+03  0.12555781855E+03  0.50400000000E-02 0. -1.
    8880022    1    1    2    0    0 -0.96193258722E+01 -0.51408348326E+02  0.51961058635E+03  0.54417107987E+03  0.15294330000E+03 0.  0.
    8880022    1    1    2    0    0  0.96193258722E+01  0.51408348326E+02 -0.55616107268E+02  0.17093903624E+03  0.15294330000E+03 0. -1.
<mgrwt>
<rscale>  0 0.16163849E+03</rscale>
<asrwt>0</asrwt>
<pdfrwt beam="1">  1        1 0.19316587E-01 0.16163849E+03</pdfrwt>
<pdfrwt beam="2">  1       -1 0.90700354E-01 0.16163849E+03</pdfrwt>
<totfact> 0.33668221E+02</totfact>
</mgrwt>
</event>
<event>
 4    1  0.1852677E-008  0.2731811E+03  0.7818608E-02  0.1099473E+00
          1   -1    0    0  501    0  0.00000000000E+00  0.00000000000E+00  0.63300385109E+03  0.63300385111E+03  0.50400000000E-02 0. -1.
         -1   -1    0    0    0  501 -0.00000000000E+00 -0.00000000000E+00 -0.31158961520E+03  0.31158961524E+03  0.50400000000E-02 0.  1.
    8880022    1    1    2    0    0  0.11172101934E+03 -0.19686207813E+03  0.53308369493E+03  0.59900429280E+03  0.15294330000E+03 0.  0.
    8880022    1    1    2    0    0 -0.11172101934E+03  0.19686207813E+03 -0.21166945904E+03  0.34558917355E+03  0.15294330000E+03 0.  1.
<mgrwt>
<rscale>  0 0.27318111E+03</rscale>
<asrwt>0</asrwt>
<pdfrwt beam="1">  1        1 0.97385206E-01 0.27318111E+03</pdfrwt>
<pdfrwt beam="2">  1       -1 0.47936865E-01 0.27318111E+03</pdfrwt>
<totfact> 0.14649612E+02</totfact>
</mgrwt>
</event>
<event>
 4    1  0.1852677E-008  0.5047192E+03  0.7818608E-02  0.1012554E+00
         -1   -1    0    0    0  501 -0.00000000000E+00  0.00000000000E+00  0.82314150881E+03  0.82314150883E+03  0.50400000000E-02 0.  1.
          1   -1    0    0  501    0  0.00000000000E+00 -0.00000000000E+00 -0.55263122014E+03  0.55263122017E+03  0.50400000000E-02 0. -1.
    8880022    1    1    2    0    0 -0.53311140487E+00  0.48098810567E+03 -0.32103588116E+03  0.59816848129E+03  0.15294330000E+03 0.  0.
    8880022    1    1    2    0    0  0.53311140487E+00 -0.48098810567E+03  0.59154616982E+03  0.77760424771E+03  0.15294330000E+03 0.  0.
<mgrwt>
<rscale>  0 0.50471922E+03</rscale>
<asrwt>0</asrwt>
<pdfrwt beam="1">  1        1 0.85020188E-01 0.50471922E+03</pdfrwt>
<pdfrwt beam="2">  1       -1 0.12663716E+00 0.50471922E+03</pdfrwt>
<totfact> 0.22104852E+01</totfact>
</mgrwt>
</event>
<event>
 4    1  0.1852677E-008  0.9203875E+03  0.7818608E-02  0.9400449E-01
         -1   -1    0    0    0  501 -0.00000000000E+00  0.00000000000E+00  0.11385615244E+04  0.11385615244E+04  0.50400000000E-02 0.  1.
          1   -1    0    0  501    0  0.00000000000E+00 -0.00000000000E+00 -0.19732299032E+04  0.19732299032E+04  0.50400000000E-02 0. -1.
    8880022    1    1    2    0    0 -0.26094490842E+03 -0.86926936752E+03  0.81068336355E+03  0.12265075000E+04  0.15294330000E+03 0.  0.
    8880022    1    1    2    0    0  0.26094490842E+03  0.86926936752E+03 -0.16453517424E+04  0.18852839276E+04  0.15294330000E+03 0.  0.
<mgrwt>
<rscale>  0 0.92038749E+03</rscale>
<asrwt>0</asrwt>
<pdfrwt beam="1">  1        1 0.30357383E+00 0.92038749E+03</pdfrwt>
<pdfrwt beam="2">  1       -1 0.17516331E+00 0.92038749E+03</pdfrwt>
<totfact> 0.71854424E-01</totfact>
</mgrwt>
</event>
<event>
 4    1  0.1852677E-008  0.2890161E+03  0.7818608E-02  0.1090864E+00
          1   -1    0    0  501    0  0.00000000000E+00  0.00000000000E+00  0.23301943873E+04  0.23301943873E+04  0.50400000000E-02 0. -1.
         -1   -1    0    0    0  501 -0.00000000000E+00 -0.00000000000E+00 -0.33296421204E+03  0.33296421207E+03  0.50400000000E-02 0.  1.
    8880022    1    1    2    0    0  0.60071609289E+02  0.23776044992E+03 -0.25924467169E+03  0.38825002589E+03  0.15294330000E+03 0.  0.
    8880022    1    1    2    0    0 -0.60071609289E+02 -0.23776044992E+03  0.22564748469E+04  0.22749085735E+04  0.15294330000E+03 0.  0.
<mgrwt>
<rscale>  0 0.28901606E+03</rscale>
<asrwt>0</asrwt>
<pdfrwt beam="1">  1        1 0.35849143E+00 0.28901606E+03</pdfrwt>
<pdfrwt beam="2">  1       -1 0.51225265E-01 0.28901606E+03</pdfrwt>
<totfact> 0.81198270E+00</totfact>
</mgrwt>
</event>
<event>
 4    1  0.1852677E-008  0.9883462E+03  0.7818608E-02  0.9321420E-01
          1   -1    0    0  501    0  0.00000000000E+00  0.00000000000E+00  0.72834256776E+03  0.72834256777E+03  0.50400000000E-02 0. -1.
         -1   -1    0    0    0  501 -0.00000000000E+00 -0.00000000000E+00 -0.16772027502E+04  0.16772027502E+04  0.50400000000E-02 0.  1.
    8880022    1    1    2    0    0  0.83058712392E+03  0.51338244982E+03  0.63944138368E+02  0.99041254841E+03  0.15294330000E+03 0.  0.
    8880022    1    1    2    0    0 -0.83058712392E+03 -0.51338244982E+03 -0.10128043208E+04  0.14151327695E+04  0.15294330000E+03 0.  0.
<mgrwt>
<rscale>  0 0.98834618E+03</rscale>
<asrwt>0</asrwt>
<pdfrwt beam="1">  1        1 0.11205270E+00 0.98834618E+03</pdfrwt>
<pdfrwt beam="2">  1       -1 0.25803119E+00 0.98834618E+03</pdfrwt>
<totfact> 0.16006696E+00</totfact>
</mgrwt>
</event>
<event>
 4    1  0.1852677E-008  0.5924402E+03  0.7818608E-02  0.9921216E-01
         -1   -1    0    0    0  501 -0.00000000000E+00  0.00000000000E+00  0.31775755627E+03  0.31775755631E+03  0.50400000000E-02 0.  1.
          1   -1    0    0  501    0  0.00000000000E+00 -0.00000000000E+00 -0.11375427071E+04  0.11375427071E+04  0.50400000000E-02 0. -1.
    8880022    1    1    2    0    0  0.50022439038E+03 -0.27815330935E+03 -0.53377744601E+03  0.79743571472E+03  0.15294330000E+03 0. -1.
    8880022    1    1    2    0    0 -0.50022439038E+03  0.27815330935E+03 -0.28600770485E+03  0.65786454874E+03  0.15294330000E+03 0.  1.
<mgrwt>
<rscale>  0 0.59244017E+03</rscale>
<asrwt>0</asrwt>
<pdfrwt beam="1">  1        1 0.17500657E+00 0.59244017E+03</pdfrwt>
<pdfrwt beam="2">  1       -1 0.48885778E-01 0.59244017E+03</pdfrwt>
<totfact> 0.51946390E+01</totfact>
</mgrwt>
</event>
<event>
 4    1  0.1852677E-008  0.4569360E+03  0.7818608E-02  0.1025674E+00
          1   -1    0    0  501    0  0.00000000000E+00  0.00000000000E+00  0.93921127863E+03  0.93921127865E+03  0.50400000000E-02 0. -1.
         -1   -1    0    0    0  501 -0.00000000000E+00 -0.00000000000E+00 -0.54756683516E+03  0.54756683518E+03  0.50400000000E-02 0.  1.
    8880022    1    1    2    0    0 -0.36277928663E+03  0.23192676178E+03  0.76876964800E+03  0.89431384778E+03  0.15294330000E+03 0.  0.
    8880022    1    1    2    0    0  0.36277928663E+03 -0.23192676178E+03 -0.37712520453E+03  0.59246426605E+03  0.15294330000E+03 0.  0.
<mgrwt>
<rscale>  0 0.45693598E+03</rscale>
<asrwt>0</asrwt>
<pdfrwt beam="1">  1        1 0.14449404E+00 0.45693598E+03</pdfrwt>
<pdfrwt beam="2">  1       -1 0.84241051E-01 0.45693598E+03</pdfrwt>
<totfact> 0.25320045E+01</totfact>
</mgrwt>
</event>
<event>
 4    1  0.1852677E-008  0.1091235E+04  0.7818608E-02  0.9213777E-01
         -1   -1    0    0    0  501 -0.00000000000E+00  0.00000000000E+00  0.89340753504E+03  0.89340753505E+03  0.50400000000E-02 0.  1.
          1   -1    0    0  501    0  0.00000000000E+00 -0.00000000000E+00 -0.16037985450E+04  0.16037985451E+04  0.50400000000E-02 0. -1.
    8880022    1    1    2    0    0 -0.10795226280E+04  0.45098644338E+02 -0.86838548601E+03  0.13945924127E+04  0.15294330000E+03 0.  0.
    8880022    1    1    2    0    0  0.10795226280E+04 -0.45098644338E+02  0.15799447600E+03  0.11026136674E+04  0.15294330000E+03 0.  0.
<mgrwt>
<rscale>  0 0.10912354E+04</rscale>
<asrwt>0</asrwt>
<pdfrwt beam="1">  1        1 0.24673824E+00 0.10912354E+04</pdfrwt>
<pdfrwt beam="2">  1       -1 0.13744731E+00 0.10912354E+04</pdfrwt>
<totfact> 0.24259016E+00</totfact>
</mgrwt>
</event>
<event>
 4    1  0.1852677E-008  0.4127630E+03  0.7818608E-02  0.1039448E+00
         -1   -1    0    0    0  501 -0.00000000000E+00  0.00000000000E+00  0.48434094898E+03  0.48434094900E+03  0.50400000000E-02 0.  1.
          1   -1    0    0  501    0  0.00000000000E+00 -0.00000000000E+00 -0.12532789603E+04  0.12532789603E+04  0.50400000000E-02 0. -1.
    8880022    1    1    2    0    0 -0.26855186065E+03  0.27360834524E+03 -0.11213334410E+04  0.11948899394E+04  0.15294330000E+03 0.  0.
    8880022    1    1    2    0    0  0.26855186065E+03 -0.27360834524E+03  0.35239542961E+03  0.54272996994E+03  0.15294330000E+03 0.  0.
<mgrwt>
<rscale>  0 0.41276298E+03</rscale>
<asrwt>0</asrwt>
<pdfrwt beam="1">  1        1 0.19281215E+00 0.41276298E+03</pdfrwt>
<pdfrwt beam="2">  1       -1 0.74513993E-01 0.41276298E+03</pdfrwt>
<totfact> 0.19386057E+01</totfact>
</mgrwt>
</event>
<event>
 4    1  0.1852677E-008  0.4385486E+03  0.7818608E-02  0.1031193E+00
         -1   -1    0    0    0  501 -0.00000000000E+00  0.00000000000E+00  0.36062945115E+04  0.36062945115E+04  0.50400000000E-02 0.  1.
          1   -1    0    0  501    0  0.00000000000E+00 -0.00000000000E+00 -0.77409132895E+02  0.77409133059E+02  0.50400000000E-02 0. -1.
    8880022    1    1    2    0    0 -0.11868176128E+03  0.39350714156E+03  0.73719301028E+03  0.85777527263E+03  0.15294330000E+03 0.  0.
    8880022    1    1    2    0    0  0.11868176128E+03 -0.39350714156E+03  0.27916923683E+04  0.28259283719E+04  0.15294330000E+03 0.  0.
<mgrwt>
<rscale>  0 0.43854861E+03</rscale>
<asrwt>0</asrwt>
<pdfrwt beam="1">  1        1 0.11909098E-01 0.43854861E+03</pdfrwt>
<pdfrwt beam="2">  1       -1 0.55481452E+00 0.43854861E+03</pdfrwt>
<totfact> 0.40826723E-01</totfact>
</mgrwt>
</event>
<event>
 4    1  0.1852677E-008  0.7086403E+03  0.7818608E-02  0.9702569E-01
          1   -1    0    0  501    0  0.00000000000E+00  0.00000000000E+00  0.24751431023E+04  0.24751431023E+04  0.50400000000E-02 0. -1.
         -1   -1    0    0    0  501 -0.00000000000E+00 -0.00000000000E+00 -0.35295699264E+03  0.35295699268E+03  0.50400000000E-02 0.  1.
    8880022    1    1    2    0    0 -0.48875041583E+03 -0.48979836233E+03  0.19831393897E+04  0.21059470309E+04  0.15294330000E+03 0.  0.
    8880022    1    1    2    0    0  0.48875041583E+03  0.48979836233E+03  0.13904671995E+03  0.72215306414E+03  0.15294330000E+03 0.  0.
<mgrwt>
<rscale>  0 0.70864029E+03</rscale>
<asrwt>0</asrwt>
<pdfrwt beam="1">  1        1 0.38079124E+00 0.70864029E+03</pdfrwt>
<pdfrwt beam="2">  1       -1 0.54301077E-01 0.70864029E+03</pdfrwt>
<totfact> 0.51477895E+00</totfact>
</mgrwt>
</event>
<event>
 4    1  0.1852677E-008  0.3096276E+03  0.7818608E-02  0.1080525E+00
          1   -1    0    0  501    0  0.00000000000E+00  0.00000000000E+00  0.88283209380E+03  0.88283209382E+03  0.50400000000E-02 0. -1.
         -1   -1    0    0    0  501 -0.00000000000E+00 -0.00000000000E+00 -0.26723161536E+03  0.26723161540E+03  0.50400000000E-02 0.  1.
    8880022    1    1    2    0    0 -0.29087521420E+02  0.26764065987E+03  0.75085013180E+03  0.81218543459E+03  0.15294330000E+03 0. -1.
    8880022    1    1    2    0    0  0.29087521420E+02 -0.26764065987E+03 -0.13524965335E+03  0.33787827463E+03  0.15294330000E+03 0.  0.
<mgrwt>
<rscale>  0 0.30962761E+03</rscale>
<asrwt>0</asrwt>
<pdfrwt beam="1">  1        1 0.13582032E+00 0.30962761E+03</pdfrwt>
<pdfrwt beam="2">  1       -1 0.41112557E-01 0.30962761E+03</pdfrwt>
<totfact> 0.11643974E+02</totfact>
</mgrwt>
</event>
<event>
 4    1  0.1852677E-008  0.6332983E+03  0.7818608E-02  0.9838634E-01
         -1   -1    0    0    0  501 -0.00000000000E+00  0.00000000000E+00  0.28101269854E+03  0.28101269859E+03  0.50400000000E-02 0.  1.
          1   -1    0    0  501    0  0.00000000000E+00 -0.00000000000E+00 -0.17072485561E+04  0.17072485561E+04  0.50400000000E-02 0. -1.
    8880022    1    1    2    0    0 -0.61449558768E+03 -0.83800334730E+01 -0.11157393664E+04  0.12829423366E+04  0.15294330000E+03 0.  0.
    8880022    1    1    2    0    0  0.61449558768E+03  0.83800334730E+01 -0.31049649120E+03  0.70531891816E+03  0.15294330000E+03 0.  0.
<mgrwt>
<rscale>  0 0.63329828E+03</rscale>
<asrwt>0</asrwt>
<pdfrwt beam="1">  1        1 0.26265362E+00 0.63329828E+03</pdfrwt>
<pdfrwt beam="2">  1       -1 0.43232724E-01 0.63329828E+03</pdfrwt>
<totfact> 0.26171425E+01</totfact>
</mgrwt>
</event>
<event>
 4    1  0.1852677E-008  0.4169774E+03  0.7818608E-02  0.1038055E+00
          1   -1    0    0  501    0  0.00000000000E+00  0.00000000000E+00  0.17107289071E+04  0.17107289071E+04  0.50400000000E-02 0. -1.
         -1   -1    0    0    0  501 -0.00000000000E+00 -0.00000000000E+00 -0.15534257909E+03  0.15534257917E+03  0.50400000000E-02 0.  1.
    8880022    1    1    2    0    0  0.38642646806E+03 -0.33956862535E+02  0.13263115160E+04  0.13903137683E+04  0.15294330000E+03 0.  0.
    8880022    1    1    2    0    0 -0.38642646806E+03  0.33956862535E+02  0.22907481201E+03  0.47575771801E+03  0.15294330000E+03 0.  1.
<mgrwt>
<rscale>  0 0.41697738E+03</rscale>
<asrwt>0</asrwt>
<pdfrwt beam="1">  1        1 0.26318905E+00 0.41697738E+03</pdfrwt>
<pdfrwt beam="2">  1       -1 0.23898860E-01 0.41697738E+03</pdfrwt>
<totfact> 0.76224845E+01</totfact>
</mgrwt>
</event>
<event>
 4    1  0.1852677E-008  0.4503894E+03  0.7818608E-02  0.1027606E+00
          1   -1    0    0  501    0  0.00000000000E+00  0.00000000000E+00  0.11634302742E+04  0.11634302742E+04  0.50400000000E-02 0. -1.
         -1   -1    0    0    0  501 -0.00000000000E+00 -0.00000000000E+00 -0.70513428985E+03  0.70513428986E+03  0.50400000000E-02 0.  1.
    8880022    1    1    2    0    0 -0.39280725834E+03  0.15862350737E+03 -0.58143768309E+03  0.73547290339E+03  0.15294330000E+03 0.  0.
    8880022    1    1    2    0    0  0.39280725834E+03 -0.15862350737E+03  0.10397336675E+04  0.11330916607E+04  0.15294330000E+03 0. -1.
<mgrwt>
<rscale>  0 0.45038940E+03</rscale>
<asrwt>0</asrwt>
<pdfrwt beam="1">  1        1 0.17898927E+00 0.45038940E+03</pdfrwt>
<pdfrwt beam="2">  1       -1 0.10848220E+00 0.45038940E+03</pdfrwt>
<totfact> 0.98087788E+00</totfact>
</mgrwt>
</event>
<event>
 4    1  0.1852677E-008  0.4929392E+03  0.7818608E-02  0.1015638E+00
         -1   -1    0    0    0  501 -0.00000000000E+00  0.00000000000E+00  0.14089373196E+03  0.14089373205E+03  0.50400000000E-02 0.  1.
          1   -1    0    0  501    0  0.00000000000E+00 -0.00000000000E+00 -0.21044836819E+04  0.21044836819E+04  0.50400000000E-02 0. -1.
    8880022    1    1    2    0    0  0.28935822365E+03  0.36860442328E+03 -0.14587712504E+04  0.15398060321E+04  0.15294330000E+03 0.  0.
    8880022    1    1    2    0    0 -0.28935822365E+03 -0.36860442328E+03 -0.50481869949E+03  0.70557138181E+03  0.15294330000E+03 0.  0.
<mgrwt>
<rscale>  0 0.49293920E+03</rscale>
<asrwt>0</asrwt>
<pdfrwt beam="1">  1        1 0.32376670E+00 0.49293920E+03</pdfrwt>
<pdfrwt beam="2">  1       -1 0.21675960E-01 0.49293920E+03</pdfrwt>
<totfact> 0.48617146E+01</totfact>
</mgrwt>
</event>
<event>
 4    1  0.1852677E-008  0.3965491E+03  0.7818608E-02  0.1044981E+00
          1   -1    0    0  501    0  0.00000000000E+00  0.00000000000E+00  0.87151030023E+03  0.87151030024E+03  0.50400000000E-02 0. -1.
         -1   -1    0    0    0  501 -0.00000000000E+00 -0.00000000000E+00 -0.94218125466E+03  0.94218125467E+03  0.50400000000E-02 0.  1.
    8880022    1    1    2    0    0  0.27246878660E+03 -0.24417272826E+03  0.78006561060E+03  0.87507346592E+03  0.15294330000E+03 0.  0.
    8880022    1    1    2    0    0 -0.27246878660E+03  0.24417272826E+03 -0.85073656503E+03  0.93861808900E+03  0.15294330000E+03 0.  0.
<mgrwt>
<rscale>  0 0.39654913E+03</rscale>
<asrwt>0</asrwt>
<pdfrwt beam="1">  1        1 0.13407851E+00 0.39654913E+03</pdfrwt>
<pdfrwt beam="2">  1       -1 0.14495096E+00 0.39654913E+03</pdfrwt>
<totfact> 0.81317588E+00</totfact>
</mgrwt>
</event>
<event>
 4    1  0.1852677E-008  0.6779415E+03  0.7818608E-02  0.9755717E-01
         -1   -1    0    0    0  501 -0.00000000000E+00  0.00000000000E+00  0.56331300386E+03  0.56331300388E+03  0.50400000000E-02 0.  1.
          1   -1    0    0  501    0  0.00000000000E+00 -0.00000000000E+00 -0.11125384936E+04  0.11125384936E+04  0.50400000000E-02 0. -1.
    8880022    1    1    2    0    0 -0.32516478028E+03 -0.57487471053E+03  0.15806527434E+03  0.69612452271E+03  0.15294330000E+03 0.  0.
    8880022    1    1    2    0    0  0.32516478028E+03  0.57487471053E+03 -0.70729076411E+03  0.97972697480E+03  0.15294330000E+03 0.  0.
<mgrwt>
<rscale>  0 0.67794153E+03</rscale>
<asrwt>0</asrwt>
<pdfrwt beam="1">  1        1 0.17115977E+00 0.67794153E+03</pdfrwt>
<pdfrwt beam="2">  1       -1 0.86663539E-01 0.67794153E+03</pdfrwt>
<totfact> 0.16953583E+01</totfact>
</mgrwt>
</event>
<event>
 4    1  0.1852677E-008  0.3497527E+03  0.7818608E-02  0.1062717E+00
          1   -1    0    0  501    0  0.00000000000E+00  0.00000000000E+00  0.13906105169E+04  0.13906105169E+04  0.50400000000E-02 0. -1.
         -1   -1    0    0    0  501 -0.00000000000E+00 -0.00000000000E+00 -0.67800748926E+03  0.67800748928E+03  0.50400000000E-02 0.  1.
    8880022    1    1    2    0    0 -0.19050456420E+03  0.25028640961E+03  0.13211835181E+04  0.13666941199E+04  0.15294330000E+03 0.  0.
    8880022    1    1    2    0    0  0.19050456420E+03 -0.25028640961E+03 -0.60858049044E+03  0.70192388631E+03  0.15294330000E+03 0.  0.
<mgrwt>
<rscale>  0 0.34975267E+03</rscale>
<asrwt>0</asrwt>
<pdfrwt beam="1">  1        1 0.21394008E+00 0.34975267E+03</pdfrwt>
<pdfrwt beam="2">  1       -1 0.10430884E+00 0.34975267E+03</pdfrwt>
<totfact> 0.76745673E+00</totfact>
</mgrwt>
</event>
<event>
 4    1  0.1852677E-008  0.6214450E+03  0.7818608E-02  0.9861887E-01
          1   -1    0    0  501    0  0.00000000000E+00  0.00000000000E+00  0.21815868691E+04  0.21815868691E+04  0.50400000000E-02 0. -1.
         -1   -1    0    0    0  501 -0.00000000000E+00 -0.00000000000E+00 -0.25959463800E+03  0.25959463805E+03  0.50400000000E-02 0.  1.
    8880022    1    1    2    0    0 -0.53693060697E+03 -0.27296103553E+03  0.16493856931E+04  0.17625739761E+04  0.15294330000E+03 0.  0.
    8880022    1    1    2    0    0  0.53693060697E+03  0.27296103553E+03  0.27260653798E+03  0.67860753104E+03  0.15294330000E+03 0.  0.
<mgrwt>
<rscale>  0 0.62144497E+03</rscale>
<asrwt>0</asrwt>
<pdfrwt beam="1">  1        1 0.33562875E+00 0.62144497E+03</pdfrwt>
<pdfrwt beam="2">  1       -1 0.39937637E-01 0.62144497E+03</pdfrwt>
<totfact> 0.14636592E+01</totfact>
</mgrwt>
</event>
<event>
 4    1  0.1852677E-008  0.9506825E+03  0.7818608E-02  0.9364353E-01
          1   -1    0    0  501    0  0.00000000000E+00  0.00000000000E+00  0.48485132308E+03  0.48485132311E+03  0.50400000000E-02 0. -1.
         -1   -1    0    0    0  501 -0.00000000000E+00 -0.00000000000E+00 -0.26540468056E+04  0.26540468056E+04  0.50400000000E-02 0.  1.
    8880022    1    1    2    0    0 -0.87130476479E+03 -0.34818619780E+03 -0.22834920698E+03  0.97772216648E+03  0.15294330000E+03 0.  0.
    8880022    1    1    2    0    0  0.87130476479E+03  0.34818619780E+03 -0.19408462756E+04  0.21611759623E+04  0.15294330000E+03 0.  0.
<mgrwt>
<rscale>  0 0.95068253E+03</rscale>
<asrwt>0</asrwt>
<pdfrwt beam="1">  1        1 0.74592513E-01 0.95068253E+03</pdfrwt>
<pdfrwt beam="2">  1       -1 0.40831488E+00 0.95068253E+03</pdfrwt>
<totfact> 0.30023946E-01</totfact>
</mgrwt>
</event>
<event>
 4    1  0.1852677E-008  0.4462638E+03  0.7818608E-02  0.1028842E+00
         -1   -1    0    0    0  501 -0.00000000000E+00  0.00000000000E+00  0.57291313032E+03  0.57291313034E+03  0.50400000000E-02 0.  1.
          1   -1    0    0  501    0  0.00000000000E+00 -0.00000000000E+00 -0.21403222113E+04  0.21403222113E+04  0.50400000000E-02 0. -1.
    8880022    1    1    2    0    0  0.41512372856E+03  0.58583163130E+02  0.45787047309E+03  0.63937212964E+03  0.15294330000E+03 0.  0.
    8880022    1    1    2    0    0 -0.41512372856E+03 -0.58583163130E+02 -0.20252795541E+04  0.20738632120E+04  0.15294330000E+03 0. -1.
<mgrwt>
<rscale>  0 0.44626377E+03</rscale>
<asrwt>0</asrwt>
<pdfrwt beam="1">  1        1 0.32928034E+00 0.44626377E+03</pdfrwt>
<pdfrwt beam="2">  1       -1 0.88140483E-01 0.44626377E+03</pdfrwt>
<totfact> 0.34384596E+00</totfact>
</mgrwt>
</event>
<event>
 4    1  0.1852677E-008  0.2803950E+03  0.7818608E-02  0.1095473E+00
         -1   -1    0    0    0  501 -0.00000000000E+00  0.00000000000E+00  0.29589539301E+03  0.29589539305E+03  0.50400000000E-02 0.  1.
          1   -1    0    0  501    0  0.00000000000E+00 -0.00000000000E+00 -0.74494775512E+03  0.74494775514E+03  0.50400000000E-02 0. -1.
    8880022    1    1    2    0    0  0.14202117917E+03  0.18724231731E+03  0.19289015824E+03  0.34033508030E+03  0.15294330000E+03 0.  0.
    8880022    1    1    2    0    0 -0.14202117917E+03 -0.18724231731E+03 -0.64194252035E+03  0.70050806789E+03  0.15294330000E+03 0.  0.
<mgrwt>
<rscale>  0 0.28039500E+03</rscale>
<asrwt>0</asrwt>
<pdfrwt beam="1">  1        1 0.11460735E+00 0.28039500E+03</pdfrwt>
<pdfrwt beam="2">  1       -1 0.45522368E-01 0.28039500E+03</pdfrwt>
<totfact> 0.12686956E+02</totfact>
</mgrwt>
</event>
<event>
 4    1  0.1852677E-008  0.3065603E+03  0.7818608E-02  0.1082006E+00
         -1   -1    0    0    0  501 -0.00000000000E+00  0.00000000000E+00  0.10564039266E+04  0.10564039266E+04  0.50400000000E-02 0.  1.
          1   -1    0    0  501    0  0.00000000000E+00 -0.00000000000E+00 -0.18242996357E+04  0.18242996357E+04  0.50400000000E-02 0. -1.
    8880022    1    1    2    0    0 -0.64645985284E+02  0.25769844325E+03 -0.17887415444E+04  0.18148210812E+04  0.15294330000E+03 0.  0.
    8880022    1    1    2    0    0  0.64645985284E+02 -0.25769844325E+03  0.10208458353E+04  0.10658824811E+04  0.15294330000E+03 0.  0.
<mgrwt>
<rscale>  0 0.30656034E+03</rscale>
<asrwt>0</asrwt>
<pdfrwt beam="1">  1        1 0.28066148E+00 0.30656034E+03</pdfrwt>
<pdfrwt beam="2">  1       -1 0.16252368E+00 0.30656034E+03</pdfrwt>
<totfact> 0.13380672E+00</totfact>
</mgrwt>
</event>
<event>
 4    1  0.2204706E-008  0.1301755E+04  0.7818608E-02  0.9028174E-01
          1   -1    0    0  501    0  0.00000000000E+00  0.00000000000E+00  0.19526222398E+04  0.19526222398E+04  0.50400000000E-02 0. -1.
         -1   -1    0    0    0  501 -0.00000000000E+00 -0.00000000000E+00 -0.14304720047E+04  0.14304720047E+04  0.50400000000E-02 0.  1.
    8880022    1    1    2    0    0  0.12920294567E+04  0.42840483972E+02 -0.79977972985E+03  0.15278136972E+04  0.15294330000E+03 0.  0.
    8880022    1    1    2    0    0 -0.12920294567E+04 -0.42840483972E+02  0.13219299650E+04  0.18552805473E+04  0.15294330000E+03 0.  0.
<mgrwt>
<rscale>  0 0.13017554E+04</rscale>
<asrwt>0</asrwt>
<pdfrwt beam="1">  1        1 0.30040342E+00 0.13017554E+04</pdfrwt>
<pdfrwt beam="2">  1       -1 0.22007262E+00 0.13017554E+04</pdfrwt>
<totfact> 0.34140611E-01</totfact>
</mgrwt>
</event>
<event>
 4    1  0.1852677E-008  0.7776036E+03  0.7818608E-02  0.9593013E-01
          1   -1    0    0  501    0  0.00000000000E+00  0.00000000000E+00  0.29816190724E+04  0.29816190724E+04  0.50400000000E-02 0. -1.
         -1   -1    0    0    0  501 -0.00000000000E+00 -0.00000000000E+00 -0.42790797870E+03  0.42790797873E+03  0.50400000000E-02 0.  1.
    8880022    1    1    2    0    0 -0.74964400671E+03  0.13895888843E+03  0.25133324539E+04  0.26308757832E+04  0.15294330000E+03 0.  0.
    8880022    1    1    2    0    0  0.74964400671E+03 -0.13895888843E+03  0.40378639729E+02  0.77865126792E+03  0.15294330000E+03 0.  0.
<mgrwt>
<rscale>  0 0.77760360E+03</rscale>
<asrwt>0</asrwt>
<pdfrwt beam="1">  1        1 0.45871063E+00 0.77760360E+03</pdfrwt>
<pdfrwt beam="2">  1       -1 0.65831996E-01 0.77760360E+03</pdfrwt>
<totfact> 0.15422684E+00</totfact>
</mgrwt>
</event>
<event>
 4    1  0.1852677E-008  0.9561799E+03  0.7818608E-02  0.9357956E-01
          1   -1    0    0  501    0  0.00000000000E+00  0.00000000000E+00  0.15426794385E+04  0.15426794385E+04  0.50400000000E-02 0. -1.
         -1   -1    0    0    0  501 -0.00000000000E+00 -0.00000000000E+00 -0.11656697988E+04  0.11656697988E+04  0.50400000000E-02 0.  1.
    8880022    1    1    2    0    0  0.94201814065E+03  0.59076975553E+02 -0.76093845217E+03  0.12220095120E+04  0.15294330000E+03 0.  0.
    8880022    1    1    2    0    0 -0.94201814065E+03 -0.59076975553E+02  0.11379480918E+04  0.14863397253E+04  0.15294330000E+03 0.  0.
<mgrwt>
<rscale>  0 0.95617986E+03</rscale>
<asrwt>0</asrwt>
<pdfrwt beam="1">  1        1 0.23733530E+00 0.95617986E+03</pdfrwt>
<pdfrwt beam="2">  1       -1 0.17933382E+00 0.95617986E+03</pdfrwt>
<totfact> 0.13031341E+00</totfact>
</mgrwt>
</event>
<event>
 4    1  0.1852677E-008  0.1032731E+04  0.7818608E-02  0.9273357E-01
          1   -1    0    0  501    0  0.00000000000E+00  0.00000000000E+00  0.89306304865E+03  0.89306304866E+03  0.50400000000E-02 0. -1.
         -1   -1    0    0    0  501 -0.00000000000E+00 -0.00000000000E+00 -0.13135943347E+04  0.13135943347E+04  0.50400000000E-02 0.  1.
    8880022    1    1    2    0    0 -0.80236574804E+03  0.63194236773E+03 -0.54284043470E+03  0.11667087641E+04  0.15294330000E+03 0.  0.
    8880022    1    1    2    0    0  0.80236574804E+03 -0.63194236773E+03  0.12230914866E+03  0.10399486192E+04  0.15294330000E+03 0.  0.
<mgrwt>
<rscale>  0 0.10327311E+04</rscale>
<asrwt>0</asrwt>
<pdfrwt beam="1">  1        1 0.13739432E+00 0.10327311E+04</pdfrwt>
<pdfrwt beam="2">  1       -1 0.20209144E+00 0.10327311E+04</pdfrwt>
<totfact> 0.26847724E+00</totfact>
</mgrwt>
</event>
<event>
 4    1  0.1852677E-008  0.4887060E+03  0.7818608E-02  0.1016770E+00
         -1   -1    0    0    0  501 -0.00000000000E+00  0.00000000000E+00  0.84596478957E+02  0.84596479107E+02  0.50400000000E-02 0.  1.
          1   -1    0    0  501    0  0.00000000000E+00 -0.00000000000E+00 -0.30594261991E+04  0.30594261991E+04  0.50400000000E-02 0. -1.
    8880022    1    1    2    0    0 -0.31723911858E+03 -0.33882326795E+03 -0.10506057492E+04  0.11587087462E+04  0.15294330000E+03 0.  0.
    8880022    1    1    2    0    0  0.31723911858E+03  0.33882326795E+03 -0.19242239710E+04  0.19853139320E+04  0.15294330000E+03 0.  0.
<mgrwt>
<rscale>  0 0.48870596E+03</rscale>
<asrwt>0</asrwt>
<pdfrwt beam="1">  1        1 0.47068087E+00 0.48870596E+03</pdfrwt>
<pdfrwt beam="2">  1       -1 0.13014845E-01 0.48870596E+03</pdfrwt>
<totfact> 0.24879364E+01</totfact>
</mgrwt>
</event>
<event>
 4    1  0.1852677E-008  0.2904911E+03  0.7818608E-02  0.1090093E+00
          1   -1    0    0  501    0  0.00000000000E+00  0.00000000000E+00  0.80039082558E+03  0.80039082560E+03  0.50400000000E-02 0. -1.
         -1   -1    0    0    0  501 -0.00000000000E+00 -0.00000000000E+00 -0.16848636561E+04  0.16848636561E+04  0.50400000000E-02 0.  1.
    8880022    1    1    2    0    0 -0.71156481774E+02 -0.23649567932E+03  0.76088428794E+03  0.81445073754E+03  0.15294330000E+03 0.  0.
    8880022    1    1    2    0    0  0.71156481774E+02  0.23649567932E+03 -0.16453571185E+04  0.16708037442E+04  0.15294330000E+03 0.  1.
<mgrwt>
<rscale>  0 0.29049114E+03</rscale>
<asrwt>0</asrwt>
<pdfrwt beam="1">  1        1 0.12313705E+00 0.29049114E+03</pdfrwt>
<pdfrwt beam="2">  1       -1 0.25920979E+00 0.29049114E+03</pdfrwt>
<totfact> 0.16130252E+00</totfact>
</mgrwt>
</event>
<event>
 4    1  0.1852677E-008  0.3715201E+03  0.7818608E-02  0.1054113E+00
          1   -1    0    0  501    0  0.00000000000E+00  0.00000000000E+00  0.42582851398E+03  0.42582851401E+03  0.50400000000E-02 0. -1.
         -1   -1    0    0    0  501 -0.00000000000E+00 -0.00000000000E+00 -0.87605011101E+03  0.87605011102E+03  0.50400000000E-02 0.  1.
    8880022    1    1    2    0    0 -0.33350960999E+03 -0.58368136944E+02 -0.74177816913E+03  0.82961557638E+03  0.15294330000E+03 0.  1.
    8880022    1    1    2    0    0  0.33350960999E+03  0.58368136944E+02  0.29155657210E+03  0.47226304864E+03  0.15294330000E+03 0.  0.
<mgrwt>
<rscale>  0 0.37152006E+03</rscale>
<asrwt>0</asrwt>
<pdfrwt beam="1">  1        1 0.65512079E-01 0.37152006E+03</pdfrwt>
<pdfrwt beam="2">  1       -1 0.13477694E+00 0.37152006E+03</pdfrwt>
<totfact> 0.27534680E+01</totfact>
</mgrwt>
</event>
<event>
 4    1  0.1852677E-008  0.3680910E+03  0.7818608E-02  0.1055425E+00
          1   -1    0    0  501    0  0.00000000000E+00  0.00000000000E+00  0.31152694802E+04  0.31152694802E+04  0.50400000000E-02 0. -1.
         -1   -1    0    0    0  501 -0.00000000000E+00 -0.00000000000E+00 -0.13712796892E+03  0.13712796901E+03  0.50400000000E-02 0.  1.
    8880022    1    1    2    0    0  0.16804440695E+02 -0.33439041111E+03  0.28328585481E+04  0.28566726349E+04  0.15294330000E+03 0.  0.
    8880022    1    1    2    0    0 -0.16804440695E+02  0.33439041111E+03  0.14528296316E+03  0.39572481432E+03  0.15294330000E+03 0.  0.
<mgrwt>
<rscale>  0 0.36809101E+03</rscale>
<asrwt>0</asrwt>
<pdfrwt beam="1">  1        1 0.47927215E+00 0.36809101E+03</pdfrwt>
<pdfrwt beam="2">  1       -1 0.21096614E-01 0.36809101E+03</pdfrwt>
<totfact> 0.10728808E+01</totfact>
</mgrwt>
</event>
<event>
 4    1  0.1852677E-008  0.8395784E+03  0.7818608E-02  0.9504432E-01
          1   -1    0    0  501    0  0.00000000000E+00  0.00000000000E+00  0.16453770311E+04  0.16453770311E+04  0.50400000000E-02 0. -1.
         -1   -1    0    0    0  501 -0.00000000000E+00 -0.00000000000E+00 -0.60509566892E+03  0.60509566894E+03  0.50400000000E-02 0.  1.
    8880022    1    1    2    0    0  0.78120509081E+03 -0.26686855113E+03  0.11281853130E+04  0.14063050775E+04  0.15294330000E+03 0.  0.
    8880022    1    1    2    0    0 -0.78120509081E+03  0.26686855113E+03 -0.87903950758E+02  0.84416762261E+03  0.15294330000E+03 0.  0.
<mgrwt>
<rscale>  0 0.83957839E+03</rscale>
<asrwt>0</asrwt>
<pdfrwt beam="1">  1        1 0.25313493E+00 0.83957839E+03</pdfrwt>
<pdfrwt beam="2">  1       -1 0.93091642E-01 0.83957839E+03</pdfrwt>
<totfact> 0.59877003E+00</totfact>
</mgrwt>
</event>
<event>
 4    1  0.1852677E-008  0.7076580E+03  0.7818608E-02  0.9704225E-01
          1   -1    0    0  501    0  0.00000000000E+00  0.00000000000E+00  0.13270899714E+04  0.13270899714E+04  0.50400000000E-02 0. -1.
         -1   -1    0    0    0  501 -0.00000000000E+00 -0.00000000000E+00 -0.90474244761E+03  0.90474244762E+03  0.50400000000E-02 0.  1.
    8880022    1    1    2    0    0  0.50098004408E+02  0.68911423892E+03  0.10631652999E+04  0.12771453920E+04  0.15294330000E+03 0.  0.
    8880022    1    1    2    0    0 -0.50098004408E+02 -0.68911423892E+03 -0.64081777615E+03  0.95468702702E+03  0.15294330000E+03 0.  0.
<mgrwt>
<rscale>  0 0.70765804E+03</rscale>
<asrwt>0</asrwt>
<pdfrwt beam="1">  1        1 0.20416769E+00 0.70765804E+03</pdfrwt>
<pdfrwt beam="2">  1       -1 0.13919115E+00 0.70765804E+03</pdfrwt>
<totfact> 0.38617841E+00</totfact>
</mgrwt>
</event>
<event>
 4    1  0.1852677E-008  0.3465622E+03  0.7818608E-02  0.1064035E+00
          1   -1    0    0  501    0  0.00000000000E+00  0.00000000000E+00  0.59084145166E+03  0.59084145168E+03  0.50400000000E-02 0. -1.
         -1   -1    0    0    0  501 -0.00000000000E+00 -0.00000000000E+00 -0.13012742653E+04  0.13012742653E+04  0.50400000000E-02 0.  1.
    8880022    1    1    2    0    0  0.31061063988E+03 -0.15320277022E+02  0.51381129350E+03  0.61976397027E+03  0.15294330000E+03 0.  0.
    8880022    1    1    2    0    0 -0.31061063988E+03  0.15320277022E+02 -0.12242441071E+04  0.12723517467E+04  0.15294330000E+03 0.  1.
<mgrwt>
<rscale>  0 0.34656216E+03</rscale>
<asrwt>0</asrwt>
<pdfrwt beam="1">  1        1 0.90898685E-01 0.34656216E+03</pdfrwt>
<pdfrwt beam="2">  1       -1 0.20019604E+00 0.34656216E+03</pdfrwt>
<totfact> 0.59204092E+00</totfact>
</mgrwt>
</event>
<event>
 4    1  0.1852677E-008  0.8060809E+03  0.7818608E-02  0.9551257E-01
         -1   -1    0    0    0  501 -0.00000000000E+00  0.00000000000E+00  0.56976042635E+03  0.56976042638E+03  0.50400000000E-02 0.  1.
          1   -1    0    0  501    0  0.00000000000E+00 -0.00000000000E+00 -0.12069223859E+04  0.12069223859E+04  0.50400000000E-02 0. -1.
    8880022    1    1    2    0    0 -0.39279750062E+03  0.68708439071E+03 -0.52710548779E+03  0.96312340056E+03  0.15294330000E+03 0.  0.
    8880022    1    1    2    0    0  0.39279750062E+03 -0.68708439071E+03 -0.11005647179E+03  0.81355941175E+03  0.15294330000E+03 0.  0.
<mgrwt>
<rscale>  0 0.80608094E+03</rscale>
<asrwt>0</asrwt>
<pdfrwt beam="1">  1        1 0.18568037E+00 0.80608094E+03</pdfrwt>
<pdfrwt beam="2">  1       -1 0.87655450E-01 0.80608094E+03</pdfrwt>
<totfact> 0.13867199E+01</totfact>
</mgrwt>
</event>
<event>
 4    1  0.1852677E-008  0.5394408E+03  0.7818608E-02  0.1003968E+00
         -1   -1    0    0    0  501 -0.00000000000E+00  0.00000000000E+00  0.35359314160E+03  0.35359314164E+03  0.50400000000E-02 0.  1.
          1   -1    0    0  501    0  0.00000000000E+00 -0.00000000000E+00 -0.13706086922E+04  0.13706086923E+04  0.50400000000E-02 0. -1.
    8880022    1    1    2    0    0  0.50541463303E+03 -0.11027575103E+03 -0.10534477350E+04  0.11835322031E+04  0.15294330000E+03 0.  0.
    8880022    1    1    2    0    0 -0.50541463303E+03  0.11027575103E+03  0.36432184323E+02  0.54066963075E+03  0.15294330000E+03 0.  0.
<mgrwt>
<rscale>  0 0.53944077E+03</rscale>
<asrwt>0</asrwt>
<pdfrwt beam="1">  1        1 0.21086287E+00 0.53944077E+03</pdfrwt>
<pdfrwt beam="2">  1       -1 0.54398946E-01 0.53944077E+03</pdfrwt>
<totfact> 0.29217575E+01</totfact>
</mgrwt>
</event>
<event>
 4    1  0.1852677E-008  0.2342357E+03  0.7818608E-02  0.1123693E+00
         -1   -1    0    0    0  501 -0.00000000000E+00  0.00000000000E+00  0.19231748509E+03  0.19231748515E+03  0.50400000000E-02 0.  1.
          1   -1    0    0  501    0  0.00000000000E+00 -0.00000000000E+00 -0.48617715759E+03  0.48617715761E+03  0.50400000000E-02 0. -1.
    8880022    1    1    2    0    0 -0.14800770406E+03 -0.97818425087E+02  0.71139474534E+02  0.24480033211E+03  0.15294330000E+03 0.  0.
    8880022    1    1    2    0    0  0.14800770406E+03  0.97818425087E+02 -0.36499914703E+03  0.43369431066E+03  0.15294330000E+03 0.  0.
<mgrwt>
<rscale>  0 0.23423573E+03</rscale>
<asrwt>0</asrwt>
<pdfrwt beam="1">  1        1 0.74796485E-01 0.23423573E+03</pdfrwt>
<pdfrwt beam="2">  1       -1 0.29587306E-01 0.23423573E+03</pdfrwt>
<totfact> 0.49420128E+02</totfact>
</mgrwt>
</event>
<event>
 4    1  0.1852677E-008  0.3556601E+03  0.7818608E-02  0.1060316E+00
          1   -1    0    0  501    0  0.00000000000E+00  0.00000000000E+00  0.95017351372E+03  0.95017351373E+03  0.50400000000E-02 0. -1.
         -1   -1    0    0    0  501 -0.00000000000E+00 -0.00000000000E+00 -0.18550017298E+03  0.18550017305E+03  0.50400000000E-02 0.  1.
    8880022    1    1    2    0    0 -0.24671927550E+03 -0.20550447035E+03  0.68405669980E+03  0.77099138114E+03  0.15294330000E+03 0.  0.
    8880022    1    1    2    0    0  0.24671927550E+03  0.20550447035E+03  0.80616640939E+02  0.36468230564E+03  0.15294330000E+03 0.  0.
<mgrwt>
<rscale>  0 0.35566015E+03</rscale>
<asrwt>0</asrwt>
<pdfrwt beam="1">  1        1 0.14618054E+00 0.35566015E+03</pdfrwt>
<pdfrwt beam="2">  1       -1 0.28538488E-01 0.35566015E+03</pdfrwt>
<totfact> 0.19374958E+02</totfact>
</mgrwt>
</event>
<event>
 4    1  0.1852677E-008  0.1956565E+03  0.7818608E-02  0.1153456E+00
          1   -1    0    0  501    0  0.00000000000E+00  0.00000000000E+00  0.20822146889E+03  0.20822146895E+03  0.50400000000E-02 0. -1.
         -1   -1    0    0    0  501 -0.00000000000E+00 -0.00000000000E+00 -0.66811854618E+03  0.66811854620E+03  0.50400000000E-02 0.  1.
    8880022    1    1    2    0    0  0.11451285705E+03 -0.42150108488E+02  0.14309463412E+03  0.24239957385E+03  0.15294330000E+03 0. -1.
    8880022    1    1    2    0    0 -0.11451285705E+03  0.42150108488E+02 -0.60299171141E+03  0.63394044130E+03  0.15294330000E+03 0.  0.
<mgrwt>
<rscale>  0 0.19565653E+03</rscale>
<asrwt>0</asrwt>
<pdfrwt beam="1">  1        1 0.32034072E-01 0.19565653E+03</pdfrwt>
<pdfrwt beam="2">  1       -1 0.10278747E+00 0.19565653E+03</pdfrwt>
<totfact> 0.13449359E+02</totfact>
</mgrwt>
</event>
<event>
 4    1  0.1852677E-008  0.5353801E+03  0.7818608E-02  0.1004936E+00
         -1   -1    0    0    0  501 -0.00000000000E+00  0.00000000000E+00  0.22326256478E+03  0.22326256483E+03  0.50400000000E-02 0.  1.
          1   -1    0    0  501    0  0.00000000000E+00 -0.00000000000E+00 -0.28455312029E+04  0.28455312029E+04  0.50400000000E-02 0. -1.
    8880022    1    1    2    0    0  0.20441265460E+03  0.47059078098E+03 -0.17441151175E+03  0.56307303696E+03  0.15294330000E+03 0.  0.
    8880022    1    1    2    0    0 -0.20441265460E+03 -0.47059078098E+03 -0.24478571264E+04  0.25057207308E+04  0.15294330000E+03 0.  0.
<mgrwt>
<rscale>  0 0.53538012E+03</rscale>
<asrwt>0</asrwt>
<pdfrwt beam="1">  1        1 0.43777400E+00 0.53538012E+03</pdfrwt>
<pdfrwt beam="2">  1       -1 0.34348089E-01 0.53538012E+03</pdfrwt>
<totfact> 0.68986833E+00</totfact>
</mgrwt>
</event>
<event>
 4    1  0.1852677E-008  0.4409899E+03  0.7818608E-02  0.1030444E+00
         -1   -1    0    0    0  501 -0.00000000000E+00  0.00000000000E+00  0.41197181670E+03  0.41197181673E+03  0.50400000000E-02 0.  1.
          1   -1    0    0  501    0  0.00000000000E+00 -0.00000000000E+00 -0.10598460089E+04  0.10598460089E+04  0.50400000000E-02 0. -1.
    8880022    1    1    2    0    0  0.38383600200E+03  0.15411157855E+03  0.22410670116E+03  0.49466748589E+03  0.15294330000E+03 0.  0.
    8880022    1    1    2    0    0 -0.38383600200E+03 -0.15411157855E+03 -0.87198089334E+03  0.97715033973E+03  0.15294330000E+03 0.  0.
<mgrwt>
<rscale>  0 0.44098992E+03</rscale>
<asrwt>0</asrwt>
<pdfrwt beam="1">  1        1 0.16305323E+00 0.44098992E+03</pdfrwt>
<pdfrwt beam="2">  1       -1 0.63380280E-01 0.44098992E+03</pdfrwt>
<totfact> 0.36818794E+01</totfact>
</mgrwt>
</event>
<event>
 4    1  0.1852677E-008  0.6312147E+03  0.7818608E-02  0.9842681E-01
          1   -1    0    0  501    0  0.00000000000E+00  0.00000000000E+00  0.73268640667E+03  0.73268640669E+03  0.50400000000E-02 0. -1.
         -1   -1    0    0    0  501 -0.00000000000E+00 -0.00000000000E+00 -0.10208575653E+04  0.10208575653E+04  0.50400000000E-02 0.  1.
    8880022    1    1    2    0    0  0.48392421166E+03 -0.37531008942E+03 -0.74345045730E+03  0.97526947113E+03  0.15294330000E+03 0.  0.
    8880022    1    1    2    0    0 -0.48392421166E+03  0.37531008942E+03  0.45527929869E+03  0.77827450085E+03  0.15294330000E+03 0.  0.
<mgrwt>
<rscale>  0 0.63121467E+03</rscale>
<asrwt>0</asrwt>
<pdfrwt beam="1">  1        1 0.11272098E+00 0.63121467E+03</pdfrwt>
<pdfrwt beam="2">  1       -1 0.15705501E+00 0.63121467E+03</pdfrwt>
<totfact> 0.82125676E+00</totfact>
</mgrwt>
</event>
<event>
 4    1  0.1852677E-008  0.1851621E+03  0.7818608E-02  0.1162899E+00
         -1   -1    0    0    0  501 -0.00000000000E+00  0.00000000000E+00  0.80068636364E+03  0.80068636365E+03  0.50400000000E-02 0.  1.
          1   -1    0    0  501    0  0.00000000000E+00 -0.00000000000E+00 -0.22952187681E+03  0.22952187687E+03  0.50400000000E-02 0. -1.
    8880022    1    1    2    0    0  0.40138751679E+02 -0.96344383517E+02 -0.17899493358E+03  0.25753484984E+03  0.15294330000E+03 0.  0.
    8880022    1    1    2    0    0 -0.40138751679E+02  0.96344383517E+02  0.75015942040E+03  0.77267339068E+03  0.15294330000E+03 0.  0.
<mgrwt>
<rscale>  0 0.18516213E+03</rscale>
<asrwt>0</asrwt>
<pdfrwt beam="1">  1        1 0.35311058E-01 0.18516213E+03</pdfrwt>
<pdfrwt beam="2">  1       -1 0.12318252E+00 0.18516213E+03</pdfrwt>
<totfact> 0.78503372E+01</totfact>
</mgrwt>
</event>
<event>
 4    1  0.1852677E-008  0.6439854E+03  0.7818608E-02  0.9818131E-01
          1   -1    0    0  501    0  0.00000000000E+00  0.00000000000E+00  0.23295490871E+04  0.23295490872E+04  0.50400000000E-02 0. -1.
         -1   -1    0    0    0  501 -0.00000000000E+00 -0.00000000000E+00 -0.21744610738E+03  0.21744610744E+03  0.50400000000E-02 0.  1.
    8880022    1    1    2    0    0  0.44059936287E+03 -0.44406947167E+03  0.15982879065E+04  0.17231486818E+04  0.15294330000E+03 0.  0.
    8880022    1    1    2    0    0 -0.44059936287E+03  0.44406947167E+03  0.51381507321E+03  0.82384651283E+03  0.15294330000E+03 0.  0.
<mgrwt>
<rscale>  0 0.64398536E+03</rscale>
<asrwt>0</asrwt>
<pdfrwt beam="1">  1        1 0.35839217E+00 0.64398536E+03</pdfrwt>
<pdfrwt beam="2">  1       -1 0.33453247E-01 0.64398536E+03</pdfrwt>
<totfact> 0.15923935E+01</totfact>
</mgrwt>
</event>
<event>
 4    1  0.1852677E-008  0.1562977E+03  0.7818608E-02  0.1192941E+00
         -1   -1    0    0    0  501 -0.00000000000E+00  0.00000000000E+00  0.11161807638E+03  0.11161807650E+03  0.50400000000E-02 0.  1.
          1   -1    0    0  501    0  0.00000000000E+00 -0.00000000000E+00 -0.58199290699E+03  0.58199290701E+03  0.50400000000E-02 0. -1.
    8880022    1    1    2    0    0  0.28646980904E+02 -0.14719222393E+02 -0.50912947292E+03  0.53258030215E+03  0.15294330000E+03 0. -1.
    8880022    1    1    2    0    0 -0.28646980904E+02  0.14719222393E+02  0.38754642321E+02  0.16103068136E+03  0.15294330000E+03 0.  0.
<mgrwt>
<rscale>  0 0.15629766E+03</rscale>
<asrwt>0</asrwt>
<pdfrwt beam="1">  1        1 0.89537369E-01 0.15629766E+03</pdfrwt>
<pdfrwt beam="2">  1       -1 0.17172012E-01 0.15629766E+03</pdfrwt>
<totfact> 0.94963948E+02</totfact>
</mgrwt>
</event>
<event>
 4    1  0.1852677E-008  0.5900963E+03  0.7818608E-02  0.9926169E-01
         -1   -1    0    0    0  501 -0.00000000000E+00  0.00000000000E+00  0.15534805808E+04  0.15534805808E+04  0.50400000000E-02 0.  1.
          1   -1    0    0  501    0  0.00000000000E+00 -0.00000000000E+00 -0.98815063581E+03  0.98815063582E+03  0.50400000000E-02 0. -1.
    8880022    1    1    2    0    0 -0.35118262965E+03 -0.44887940828E+03 -0.83475814124E+03  0.10222694214E+04  0.15294330000E+03 0.  0.
    8880022    1    1    2    0    0  0.35118262965E+03  0.44887940828E+03  0.14000880862E+04  0.15193617952E+04  0.15294330000E+03 0.  0.
<mgrwt>
<rscale>  0 0.59009628E+03</rscale>
<asrwt>0</asrwt>
<pdfrwt beam="1">  1        1 0.15202318E+00 0.59009628E+03</pdfrwt>
<pdfrwt beam="2">  1       -1 0.23899701E+00 0.59009628E+03</pdfrwt>
<totfact> 0.13817657E+00</totfact>
</mgrwt>
</event>
<event>
 4    1  0.1852677E-008  0.4319507E+03  0.7818608E-02  0.1033246E+00
         -1   -1    0    0    0  501 -0.00000000000E+00  0.00000000000E+00  0.74848327638E+03  0.74848327640E+03  0.50400000000E-02 0.  1.
          1   -1    0    0  501    0  0.00000000000E+00 -0.00000000000E+00 -0.31704551041E+03  0.31704551045E+03  0.50400000000E-02 0. -1.
    8880022    1    1    2    0    0 -0.35154492732E+03  0.19901230815E+03  0.46202828258E+03  0.63249626215E+03  0.15294330000E+03 0.  1.
    8880022    1    1    2    0    0  0.35154492732E+03 -0.19901230815E+03 -0.30590516606E+02  0.43303252469E+03  0.15294330000E+03 0.  0.
<mgrwt>
<rscale>  0 0.43195068E+03</rscale>
<asrwt>0</asrwt>
<pdfrwt beam="1">  1        1 0.48776233E-01 0.43195068E+03</pdfrwt>
<pdfrwt beam="2">  1       -1 0.11515127E+00 0.43195068E+03</pdfrwt>
<totfact> 0.58687897E+01</totfact>
</mgrwt>
</event>
<event>
 4    1  0.1852677E-008  0.6287886E+03  0.7818608E-02  0.9847416E-01
         -1   -1    0    0    0  501 -0.00000000000E+00  0.00000000000E+00  0.14149733464E+04  0.14149733464E+04  0.50400000000E-02 0.  1.
          1   -1    0    0  501    0  0.00000000000E+00 -0.00000000000E+00 -0.23292422733E+04  0.23292422733E+04  0.50400000000E-02 0. -1.
    8880022    1    1    2    0    0  0.46246127211E+03 -0.39763431831E+03 -0.22133644235E+04  0.23009470232E+04  0.15294330000E+03 0.  0.
    8880022    1    1    2    0    0 -0.46246127211E+03  0.39763431831E+03  0.12990954967E+04  0.14432685965E+04  0.15294330000E+03 0.  0.
<mgrwt>
<rscale>  0 0.62878862E+03</rscale>
<asrwt>0</asrwt>
<pdfrwt beam="1">  1        1 0.35834496E+00 0.62878862E+03</pdfrwt>
<pdfrwt beam="2">  1       -1 0.21768821E+00 0.62878862E+03</pdfrwt>
<totfact> 0.22584839E-01</totfact>
</mgrwt>
</event>
<event>
 4    1  0.1852677E-008  0.3329290E+03  0.7818608E-02  0.1069848E+00
          1   -1    0    0  501    0  0.00000000000E+00  0.00000000000E+00  0.15157567686E+03  0.15157567695E+03  0.50400000000E-02 0. -1.
         -1   -1    0    0    0  501 -0.00000000000E+00 -0.00000000000E+00 -0.81731750728E+03  0.81731750730E+03  0.50400000000E-02 0.  1.
    8880022    1    1    2    0    0  0.18548389674E+03 -0.23031672420E+03 -0.17567665656E+03  0.37643593090E+03  0.15294330000E+03 0.  0.
    8880022    1    1    2    0    0 -0.18548389674E+03  0.23031672420E+03 -0.49006517386E+03  0.59245725334E+03  0.15294330000E+03 0.  0.
<mgrwt>
<rscale>  0 0.33292901E+03</rscale>
<asrwt>0</asrwt>
<pdfrwt beam="1">  1        1 0.23319335E-01 0.33292901E+03</pdfrwt>
<pdfrwt beam="2">  1       -1 0.12574115E+00 0.33292901E+03</pdfrwt>
<totfact> 0.12348046E+02</totfact>
</mgrwt>
</event>
<event>
 4    1  0.1852677E-008  0.3264539E+03  0.7818608E-02  0.1072717E+00
         -1   -1    0    0    0  501 -0.00000000000E+00  0.00000000000E+00  0.16408786549E+03  0.16408786557E+03  0.50400000000E-02 0.  1.
          1   -1    0    0  501    0  0.00000000000E+00 -0.00000000000E+00 -0.11720182837E+04  0.11720182837E+04  0.50400000000E-02 0. -1.
    8880022    1    1    2    0    0  0.53531997590E+02  0.28339868987E+03 -0.57896331336E+02  0.33154808156E+03  0.15294330000E+03 0.  0.
    8880022    1    1    2    0    0 -0.53531997590E+02 -0.28339868987E+03 -0.95003408684E+03  0.10045580677E+04  0.15294330000E+03 0.  0.
<mgrwt>
<rscale>  0 0.32645389E+03</rscale>
<asrwt>0</asrwt>
<pdfrwt beam="1">  1        1 0.18031050E+00 0.32645389E+03</pdfrwt>
<pdfrwt beam="2">  1       -1 0.25244288E-01 0.32645389E+03</pdfrwt>
<totfact> 0.16410161E+02</totfact>
</mgrwt>
</event>
<event>
 4    1  0.1852677E-008  0.1045646E+04  0.7818608E-02  0.9259851E-01
          1   -1    0    0  501    0  0.00000000000E+00  0.00000000000E+00  0.23662319102E+04  0.23662319102E+04  0.50400000000E-02 0. -1.
         -1   -1    0    0    0  501 -0.00000000000E+00 -0.00000000000E+00 -0.77426257248E+03  0.77426257250E+03  0.50400000000E-02 0.  1.
    8880022    1    1    2    0    0 -0.59216967292E+02  0.10327041039E+04  0.17930689518E+04  0.20756859913E+04  0.15294330000E+03 0.  0.
    8880022    1    1    2    0    0  0.59216967292E+02 -0.10327041039E+04 -0.20109961412E+03  0.10648084914E+04  0.15294330000E+03 0.  0.
<mgrwt>
<rscale>  0 0.10456462E+04</rscale>
<asrwt>0</asrwt>
<pdfrwt beam="1">  1        1 0.36403568E+00 0.10456462E+04</pdfrwt>
<pdfrwt beam="2">  1       -1 0.11911732E+00 0.10456462E+04</pdfrwt>
<totfact> 0.10661033E+00</totfact>
</mgrwt>
</event>
<event>
 4    1  0.1852677E-008  0.5749401E+03  0.7818608E-02  0.9958806E-01
         -1   -1    0    0    0  501 -0.00000000000E+00  0.00000000000E+00  0.29199434202E+03  0.29199434207E+03  0.50400000000E-02 0.  1.
          1   -1    0    0  501    0  0.00000000000E+00 -0.00000000000E+00 -0.17982601960E+04  0.17982601960E+04  0.50400000000E-02 0. -1.
    8880022    1    1    2    0    0  0.78581954628E+02 -0.54862498665E+03 -0.13892603722E+04  0.15035293593E+04  0.15294330000E+03 0.  0.
    8880022    1    1    2    0    0 -0.78581954628E+02  0.54862498665E+03 -0.11700548174E+03  0.58672517872E+03  0.15294330000E+03 0.  0.
<mgrwt>
<rscale>  0 0.57494013E+03</rscale>
<asrwt>0</asrwt>
<pdfrwt beam="1">  1        1 0.27665541E+00 0.57494013E+03</pdfrwt>
<pdfrwt beam="2">  1       -1 0.44922208E-01 0.57494013E+03</pdfrwt>
<totfact> 0.21410674E+01</totfact>
</mgrwt>
</event>
<event>
 4    1  0.1852677E-008  0.2387754E+03  0.7818608E-02  0.1120611E+00
          1   -1    0    0  501    0  0.00000000000E+00  0.00000000000E+00  0.11139467240E+04  0.11139467240E+04  0.50400000000E-02 0. -1.
         -1   -1    0    0    0  501 -0.00000000000E+00 -0.00000000000E+00 -0.26740325143E+03  0.26740325148E+03  0.50400000000E-02 0.  1.
    8880022    1    1    2    0    0  0.70213639409E+02  0.16938733496E+03  0.10443407830E+04  0.10712895726E+04  0.15294330000E+03 0.  0.
    8880022    1    1    2    0    0 -0.70213639409E+02 -0.16938733496E+03 -0.19779731041E+03  0.31006040287E+03  0.15294330000E+03 0.  1.
<mgrwt>
<rscale>  0 0.23877537E+03</rscale>
<asrwt>0</asrwt>
<pdfrwt beam="1">  1        1 0.17137642E+00 0.23877537E+03</pdfrwt>
<pdfrwt beam="2">  1       -1 0.41138962E-01 0.23877537E+03</pdfrwt>
<totfact> 0.79150382E+01</totfact>
</mgrwt>
</event>
<event>
 4    1  0.1852677E-008  0.5838524E+03  0.7818608E-02  0.9939485E-01
          1   -1    0    0  501    0  0.00000000000E+00  0.00000000000E+00  0.15960644840E+04  0.15960644840E+04  0.50400000000E-02 0. -1.
         -1   -1    0    0    0  501 -0.00000000000E+00 -0.00000000000E+00 -0.47481086893E+03  0.47481086896E+03  0.50400000000E-02 0.  1.
    8880022    1    1    2    0    0  0.31229309461E+02  0.56259816942E+03  0.13286562687E+04  0.14512791266E+04  0.15294330000E+03 0.  0.
    8880022    1    1    2    0    0 -0.31229309461E+02 -0.56259816942E+03 -0.20740265359E+03  0.61959622638E+03  0.15294330000E+03 0.  0.
<mgrwt>
<rscale>  0 0.58385240E+03</rscale>
<asrwt>0</asrwt>
<pdfrwt beam="1">  1        1 0.24554838E+00 0.58385240E+03</pdfrwt>
<pdfrwt beam="2">  1       -1 0.73047827E-01 0.58385240E+03</pdfrwt>
<totfact> 0.11338005E+01</totfact>
</mgrwt>
</event>
<event>
 4    1  0.1852677E-008  0.5961545E+03  0.7818608E-02  0.9913416E-01
          1   -1    0    0  501    0  0.00000000000E+00  0.00000000000E+00  0.23009410713E+04  0.23009410713E+04  0.50400000000E-02 0. -1.
         -1   -1    0    0    0  501 -0.00000000000E+00 -0.00000000000E+00 -0.44083895511E+03  0.44083895514E+03  0.50400000000E-02 0.  1.
    8880022    1    1    2    0    0 -0.44901327774E+03 -0.36110340298E+03  0.20349796368E+04  0.21205052149E+04  0.15294330000E+03 0.  0.
    8880022    1    1    2    0    0  0.44901327774E+03  0.36110340298E+03 -0.17487752061E+03  0.62127481155E+03  0.15294330000E+03 0.  0.
<mgrwt>
<rscale>  0 0.59615455E+03</rscale>
<asrwt>0</asrwt>
<pdfrwt beam="1">  1        1 0.35399094E+00 0.59615455E+03</pdfrwt>
<pdfrwt beam="2">  1       -1 0.67821377E-01 0.59615455E+03</pdfrwt>
<totfact> 0.44586675E+00</totfact>
</mgrwt>
</event>
<event>
 4    1  0.1852677E-008  0.3334604E+03  0.7818608E-02  0.1069616E+00
          1   -1    0    0  501    0  0.00000000000E+00  0.00000000000E+00  0.49602818064E+03  0.49602818067E+03  0.50400000000E-02 0. -1.
         -1   -1    0    0    0  501 -0.00000000000E+00 -0.00000000000E+00 -0.28176449248E+03  0.28176449252E+03  0.50400000000E-02 0.  1.
    8880022    1    1    2    0    0 -0.26727469502E+03  0.12793926064E+03  0.28295328224E+03  0.43733103018E+03  0.15294330000E+03 0.  0.
    8880022    1    1    2    0    0  0.26727469502E+03 -0.12793926064E+03 -0.68689594079E+02  0.34046164301E+03  0.15294330000E+03 0.  0.
<mgrwt>
<rscale>  0 0.33346045E+03</rscale>
<asrwt>0</asrwt>
<pdfrwt beam="1">  1        1 0.76312028E-01 0.33346045E+03</pdfrwt>
<pdfrwt beam="2">  1       -1 0.43348383E-01 0.33346045E+03</pdfrwt>
<totfact> 0.24445809E+02</totfact>
</mgrwt>
</event>
<event>
 4    1  0.3149253E-008  0.5211777E+03  0.7818608E-02  0.1008394E+00
         -1   -1    0    0    0  501 -0.00000000000E+00  0.00000000000E+00  0.10095171083E+04  0.10095171083E+04  0.50400000000E-02 0.  1.
          1   -1    0    0  501    0  0.00000000000E+00 -0.00000000000E+00 -0.24597046041E+04  0.24597046041E+04  0.50400000000E-02 0. -1.
    8880022    1    1    2    0    0  0.47299177915E+02 -0.49598118794E+03 -0.23620836601E+04  0.24188975632E+04  0.15294330000E+03 0. -1.
    8880022    1    1    2    0    0 -0.47299177915E+02  0.49598118794E+03  0.91189616426E+03  0.10503241492E+04  0.15294330000E+03 0.  0.
<mgrwt>
<rscale>  0 0.52117771E+03</rscale>
<asrwt>0</asrwt>
<pdfrwt beam="1">  1        1 0.37841609E+00 0.52117771E+03</pdfrwt>
<pdfrwt beam="2">  1       -1 0.15531032E+00 0.52117771E+03</pdfrwt>
<totfact> 0.52464535E-01</totfact>
</mgrwt>
</event>
<event>
 4    1  0.1852677E-008  0.2387723E+03  0.7818608E-02  0.1120613E+00
          1   -1    0    0  501    0  0.00000000000E+00  0.00000000000E+00  0.92054051287E+03  0.92054051288E+03  0.50400000000E-02 0. -1.
         -1   -1    0    0    0  501 -0.00000000000E+00 -0.00000000000E+00 -0.16462730399E+03  0.16462730406E+03  0.50400000000E-02 0.  1.
    8880022    1    1    2    0    0  0.18115259022E+03 -0.28360038826E+02  0.80649358401E+03  0.84109696635E+03  0.15294330000E+03 0.  0.
    8880022    1    1    2    0    0 -0.18115259022E+03  0.28360038826E+02 -0.50580375131E+02  0.24407085059E+03  0.15294330000E+03 0.  0.
<mgrwt>
<rscale>  0 0.23877229E+03</rscale>
<asrwt>0</asrwt>
<pdfrwt beam="1">  1        1 0.14162161E+00 0.23877229E+03</pdfrwt>
<pdfrwt beam="2">  1       -1 0.25327279E-01 0.23877229E+03</pdfrwt>
<totfact> 0.25406270E+02</totfact>
</mgrwt>
</event>
<event>
 4    1  0.1852677E-008  0.3652379E+03  0.7818608E-02  0.1056529E+00
         -1   -1    0    0    0  501 -0.00000000000E+00  0.00000000000E+00  0.59168684809E+03  0.59168684811E+03  0.50400000000E-02 0.  1.
          1   -1    0    0  501    0  0.00000000000E+00 -0.00000000000E+00 -0.37294554418E+03  0.37294554422E+03  0.50400000000E-02 0. -1.
    8880022    1    1    2    0    0 -0.66208627506E+02 -0.32499763267E+03 -0.19394259420E+03  0.41353648745E+03  0.15294330000E+03 0.  0.
    8880022    1    1    2    0    0  0.66208627506E+02  0.32499763267E+03  0.41268389811E+03  0.55109590487E+03  0.15294330000E+03 0.  0.
<mgrwt>
<rscale>  0 0.36523786E+03</rscale>
<asrwt>0</asrwt>
<pdfrwt beam="1">  1        1 0.57376238E-01 0.36523786E+03</pdfrwt>
<pdfrwt beam="2">  1       -1 0.91028746E-01 0.36523786E+03</pdfrwt>
<totfact> 0.81948604E+01</totfact>
</mgrwt>
</event>
<event>
 4    1  0.1852677E-008  0.1964094E+03  0.7818608E-02  0.1152804E+00
         -1   -1    0    0    0  501 -0.00000000000E+00  0.00000000000E+00  0.79864938012E+02  0.79864938171E+02  0.50400000000E-02 0.  1.
          1   -1    0    0  501    0  0.00000000000E+00 -0.00000000000E+00 -0.11737881156E+04  0.11737881156E+04  0.50400000000E-02 0. -1.
    8880022    1    1    2    0    0 -0.82734122763E+02 -0.91324017514E+02 -0.66102901286E+02  0.20723478911E+03  0.15294330000E+03 0.  1.
    8880022    1    1    2    0    0  0.82734122763E+02  0.91324017514E+02 -0.10278202763E+04  0.10464182647E+04  0.15294330000E+03 0.  0.
<mgrwt>
<rscale>  0 0.19640943E+03</rscale>
<asrwt>0</asrwt>
<pdfrwt beam="1">  1        1 0.18058277E+00 0.19640943E+03</pdfrwt>
<pdfrwt beam="2">  1       -1 0.12286914E-01 0.19640943E+03</pdfrwt>
<totfact> 0.53366712E+02</totfact>
</mgrwt>
</event>
<event>
 4    1  0.1852677E-008  0.3968858E+03  0.7818608E-02  0.1044863E+00
         -1   -1    0    0    0  501 -0.00000000000E+00  0.00000000000E+00  0.25578685240E+03  0.25578685245E+03  0.50400000000E-02 0.  1.
          1   -1    0    0  501    0  0.00000000000E+00 -0.00000000000E+00 -0.17254856778E+04  0.17254856778E+04  0.50400000000E-02 0. -1.
    8880022    1    1    2    0    0 -0.13664794271E+03  0.33978527299E+03  0.59579168541E+02  0.40133280743E+03  0.15294330000E+03 0.  0.
    8880022    1    1    2    0    0  0.13664794271E+03 -0.33978527299E+03 -0.15292779939E+04  0.15799397228E+04  0.15294330000E+03 0. -1.
<mgrwt>
<rscale>  0 0.39688581E+03</rscale>
<asrwt>0</asrwt>
<pdfrwt beam="1">  1        1 0.26545933E+00 0.39688581E+03</pdfrwt>
<pdfrwt beam="2">  1       -1 0.39351824E-01 0.39688581E+03</pdfrwt>
<totfact> 0.31592672E+01</totfact>
</mgrwt>
</event>
<event>
 4    1  0.1857654E-008  0.1030239E+04  0.7818608E-02  0.9275987E-01
         -1   -1    0    0    0  501 -0.00000000000E+00  0.00000000000E+00  0.17482382812E+04  0.17482382812E+04  0.50400000000E-02 0.  1.
          1   -1    0    0  501    0  0.00000000000E+00 -0.00000000000E+00 -0.12736594696E+04  0.12736594696E+04  0.50400000000E-02 0. -1.
    8880022    1    1    2    0    0  0.97873953257E+03 -0.28296546747E+03 -0.85574973472E+03  0.13392907787E+04  0.15294330000E+03 0.  0.
    8880022    1    1    2    0    0 -0.97873953257E+03  0.28296546747E+03  0.13303285463E+04  0.16826069721E+04  0.15294330000E+03 0.  0.
<mgrwt>
<rscale>  0 0.10302389E+04</rscale>
<asrwt>0</asrwt>
<pdfrwt beam="1">  1        1 0.19594761E+00 0.10302389E+04</pdfrwt>
<pdfrwt beam="2">  1       -1 0.26895974E+00 0.10302389E+04</pdfrwt>
<totfact> 0.49908991E-01</totfact>
</mgrwt>
</event>
<event>
 4    1  0.1852677E-008  0.5523436E+03  0.7818608E-02  0.1000953E+00
          1   -1    0    0  501    0  0.00000000000E+00  0.00000000000E+00  0.22015175730E+04  0.22015175731E+04  0.50400000000E-02 0. -1.
         -1   -1    0    0    0  501 -0.00000000000E+00 -0.00000000000E+00 -0.13904618302E+03  0.13904618312E+03  0.50400000000E-02 0.  1.
    8880022    1    1    2    0    0 -0.14684569007E+03  0.51002756104E+03  0.10990932538E+04  0.12300769908E+04  0.15294330000E+03 0.  0.
    8880022    1    1    2    0    0  0.14684569007E+03 -0.51002756104E+03  0.96337813618E+03  0.11104867653E+04  0.15294330000E+03 0.  0.
<mgrwt>
<rscale>  0 0.55234357E+03</rscale>
<asrwt>0</asrwt>
<pdfrwt beam="1">  1        1 0.33869498E+00 0.55234357E+03</pdfrwt>
<pdfrwt beam="2">  1       -1 0.21391722E-01 0.55234357E+03</pdfrwt>
<totfact> 0.42396572E+01</totfact>
</mgrwt>
</event>
<event>
 4    1  0.1852677E-008  0.8671531E+03  0.7818608E-02  0.9467599E-01
         -1   -1    0    0    0  501 -0.00000000000E+00  0.00000000000E+00  0.63335677730E+03  0.63335677732E+03  0.50400000000E-02 0.  1.
          1   -1    0    0  501    0  0.00000000000E+00 -0.00000000000E+00 -0.21189145517E+04  0.21189145517E+04  0.50400000000E-02 0. -1.
    8880022    1    1    2    0    0 -0.63706538808E+03 -0.56807624372E+03  0.16972279067E+03  0.88360647692E+03  0.15294330000E+03 0.  0.
    8880022    1    1    2    0    0  0.63706538808E+03  0.56807624372E+03 -0.16552805650E+04  0.18686648521E+04  0.15294330000E+03 0.  0.
<mgrwt>
<rscale>  0 0.86715315E+03</rscale>
<asrwt>0</asrwt>
<pdfrwt beam="1">  1        1 0.32598685E+00 0.86715315E+03</pdfrwt>
<pdfrwt beam="2">  1       -1 0.97439506E-01 0.86715315E+03</pdfrwt>
<totfact> 0.25853171E+00</totfact>
</mgrwt>
</event>
<event>
 4    1  0.1852677E-008  0.6788092E+03  0.7818608E-02  0.9754174E-01
          1   -1    0    0  501    0  0.00000000000E+00  0.00000000000E+00  0.22809335998E+04  0.22809335998E+04  0.50400000000E-02 0. -1.
         -1   -1    0    0    0  501 -0.00000000000E+00 -0.00000000000E+00 -0.43816076503E+03  0.43816076506E+03  0.50400000000E-02 0.  1.
    8880022    1    1    2    0    0  0.20513559982E+03 -0.62873655757E+03  0.19194724420E+04  0.20359657123E+04  0.15294330000E+03 0.  0.
    8880022    1    1    2    0    0 -0.20513559982E+03  0.62873655757E+03 -0.76699607239E+02  0.68312865252E+03  0.15294330000E+03 0.  0.
<mgrwt>
<rscale>  0 0.67880920E+03</rscale>
<asrwt>0</asrwt>
<pdfrwt beam="1">  1        1 0.35091285E+00 0.67880920E+03</pdfrwt>
<pdfrwt beam="2">  1       -1 0.67409350E-01 0.67880920E+03</pdfrwt>
<totfact> 0.45735834E+00</totfact>
</mgrwt>
</event>
<event>
 4    1  0.1852677E-008  0.3507526E+03  0.7818608E-02  0.1062307E+00
         -1   -1    0    0    0  501 -0.00000000000E+00  0.00000000000E+00  0.15614145241E+04  0.15614145241E+04  0.50400000000E-02 0.  1.
          1   -1    0    0  501    0  0.00000000000E+00 -0.00000000000E+00 -0.29316945669E+03  0.29316945673E+03  0.50400000000E-02 0. -1.
    8880022    1    1    2    0    0 -0.23863994015E+03  0.20660760841E+03 -0.15882863227E+03  0.38503754666E+03  0.15294330000E+03 0.  0.
    8880022    1    1    2    0    0  0.23863994015E+03 -0.20660760841E+03  0.14270736997E+04  0.14695464342E+04  0.15294330000E+03 0.  0.
<mgrwt>
<rscale>  0 0.35075259E+03</rscale>
<asrwt>0</asrwt>
<pdfrwt beam="1">  1        1 0.45102993E-01 0.35075259E+03</pdfrwt>
<pdfrwt beam="2">  1       -1 0.24021762E+00 0.35075259E+03</pdfrwt>
<totfact> 0.81415213E+00</totfact>
</mgrwt>
</event>
<event>
 4    1  0.2550491E-008  0.7065651E+03  0.7818608E-02  0.9706070E-01
         -1   -1    0    0    0  501 -0.00000000000E+00  0.00000000000E+00  0.16004720436E+04  0.16004720436E+04  0.50400000000E-02 0.  1.
          1   -1    0    0  501    0  0.00000000000E+00 -0.00000000000E+00 -0.19688356834E+04  0.19688356834E+04  0.50400000000E-02 0. -1.
    8880022    1    1    2    0    0  0.10685117355E+03 -0.68148767009E+03  0.14530049788E+04  0.16156911026E+04  0.15294330000E+03 0.  0.
    8880022    1    1    2    0    0 -0.10685117355E+03  0.68148767009E+03 -0.18213686186E+04  0.19536166245E+04  0.15294330000E+03 0.  0.
<mgrwt>
<rscale>  0 0.70656512E+03</rscale>
<asrwt>0</asrwt>
<pdfrwt beam="1">  1        1 0.30289780E+00 0.70656512E+03</pdfrwt>
<pdfrwt beam="2">  1       -1 0.24622647E+00 0.70656512E+03</pdfrwt>
<totfact> 0.25036074E-01</totfact>
</mgrwt>
</event>
<event>
 4    1  0.1852677E-008  0.3369401E+03  0.7818608E-02  0.1068107E+00
          1   -1    0    0  501    0  0.00000000000E+00  0.00000000000E+00  0.95243318708E+03  0.95243318709E+03  0.50400000000E-02 0. -1.
         -1   -1    0    0    0  501 -0.00000000000E+00 -0.00000000000E+00 -0.19091998041E+03  0.19091998047E+03  0.50400000000E-02 0.  1.
    8880022    1    1    2    0    0 -0.13982086874E+03 -0.26568235260E+03  0.30368599393E+02  0.33830591579E+03  0.15294330000E+03 0.  0.
    8880022    1    1    2    0    0  0.13982086874E+03  0.26568235260E+03  0.73114460728E+03  0.80504725177E+03  0.15294330000E+03 0.  0.
<mgrwt>
<rscale>  0 0.33694011E+03</rscale>
<asrwt>0</asrwt>
<pdfrwt beam="1">  1        1 0.14652818E+00 0.33694011E+03</pdfrwt>
<pdfrwt beam="2">  1       -1 0.29372306E-01 0.33694011E+03</pdfrwt>
<totfact> 0.18416302E+02</totfact>
</mgrwt>
</event>
<event>
 4    1  0.1852677E-008  0.6299975E+03  0.7818608E-02  0.9845054E-01
         -1   -1    0    0    0  501 -0.00000000000E+00  0.00000000000E+00  0.11208013495E+04  0.11208013495E+04  0.50400000000E-02 0.  1.
          1   -1    0    0  501    0  0.00000000000E+00 -0.00000000000E+00 -0.66945747800E+03  0.66945747802E+03  0.50400000000E-02 0. -1.
    8880022    1    1    2    0    0 -0.16957565206E+03 -0.58715358667E+03  0.84001776459E+03  0.10500127304E+04  0.15294330000E+03 0.  0.
    8880022    1    1    2    0    0  0.16957565206E+03  0.58715358667E+03 -0.38867389312E+03  0.74024609713E+03  0.15294330000E+03 0.  0.
<mgrwt>
<rscale>  0 0.62999753E+03</rscale>
<asrwt>0</asrwt>
<pdfrwt beam="1">  1        1 0.10299346E+00 0.62999753E+03</pdfrwt>
<pdfrwt beam="2">  1       -1 0.17243098E+00 0.62999753E+03</pdfrwt>
<totfact> 0.72406994E+00</totfact>
</mgrwt>
</event>
<event>
 4    1  0.1852677E-008  0.5613762E+03  0.7818608E-02  0.9988946E-01
         -1   -1    0    0    0  501 -0.00000000000E+00  0.00000000000E+00  0.20301178377E+03  0.20301178384E+03  0.50400000000E-02 0.  1.
          1   -1    0    0  501    0  0.00000000000E+00 -0.00000000000E+00 -0.40923870945E+04  0.40923870945E+04  0.50400000000E-02 0. -1.
    8880022    1    1    2    0    0 -0.51255110711E+03  0.17041975452E+03 -0.25266532855E+03  0.61561591223E+03  0.15294330000E+03 0.  0.
    8880022    1    1    2    0    0  0.51255110711E+03 -0.17041975452E+03 -0.36367099821E+04  0.36797829661E+04  0.15294330000E+03 0.  0.
<mgrwt>
<rscale>  0 0.56137615E+03</rscale>
<asrwt>0</asrwt>
<pdfrwt beam="1">  1        1 0.62959795E+00 0.56137615E+03</pdfrwt>
<pdfrwt beam="2">  1       -1 0.31232585E-01 0.56137615E+03</pdfrwt>
<totfact> 0.88160153E-01</totfact>
</mgrwt>
</event>
<event>
 4    1  0.1852677E-008  0.5524947E+03  0.7818608E-02  0.1000918E+00
          1   -1    0    0  501    0  0.00000000000E+00  0.00000000000E+00  0.78005106196E+03  0.78005106197E+03  0.50400000000E-02 0. -1.
         -1   -1    0    0    0  501 -0.00000000000E+00 -0.00000000000E+00 -0.45955881465E+03  0.45955881468E+03  0.50400000000E-02 0.  1.
    8880022    1    1    2    0    0 -0.15198205478E+03 -0.50868474732E+03 -0.78588343719E+02  0.55805599890E+03  0.15294330000E+03 0.  0.
    8880022    1    1    2    0    0  0.15198205478E+03  0.50868474732E+03  0.39908059103E+03  0.68155387775E+03  0.15294330000E+03 0.  0.
<mgrwt>
<rscale>  0 0.55249468E+03</rscale>
<asrwt>0</asrwt>
<pdfrwt beam="1">  1        1 0.12000785E+00 0.55249468E+03</pdfrwt>
<pdfrwt beam="2">  1       -1 0.70701358E-01 0.55249468E+03</pdfrwt>
<totfact> 0.48635187E+01</totfact>
</mgrwt>
</event>
<event>
 4    1  0.1852677E-008  0.3736942E+03  0.7818608E-02  0.1053289E+00
          1   -1    0    0  501    0  0.00000000000E+00  0.00000000000E+00  0.26176485010E+04  0.26176485010E+04  0.50400000000E-02 0. -1.
         -1   -1    0    0    0  501 -0.00000000000E+00 -0.00000000000E+00 -0.66088067965E+02  0.66088068157E+02  0.50400000000E-02 0.  1.
    8880022    1    1    2    0    0  0.28252543632E+03  0.19087972216E+03  0.68662799571E+03  0.78173227387E+03  0.15294330000E+03 0.  0.
    8880022    1    1    2    0    0 -0.28252543632E+03 -0.19087972216E+03  0.18649324373E+04  0.19020042953E+04  0.15294330000E+03 0. -1.
<mgrwt>
<rscale>  0 0.37369418E+03</rscale>
<asrwt>0</asrwt>
<pdfrwt beam="1">  1        1 0.40271508E+00 0.37369418E+03</pdfrwt>
<pdfrwt beam="2">  1       -1 0.10167397E-01 0.37369418E+03</pdfrwt>
<totfact> 0.76583088E+01</totfact>
</mgrwt>
</event>
<event>
 4    1  0.1852677E-008  0.5672058E+03  0.7818608E-02  0.9975881E-01
          1   -1    0    0  501    0  0.00000000000E+00  0.00000000000E+00  0.70658299016E+03  0.70658299018E+03  0.50400000000E-02 0. -1.
         -1   -1    0    0    0  501 -0.00000000000E+00 -0.00000000000E+00 -0.22922361694E+04  0.22922361694E+04  0.50400000000E-02 0.  1.
    8880022    1    1    2    0    0  0.40133614824E+03 -0.37048621195E+03 -0.21350817988E+04  0.22091393522E+04  0.15294330000E+03 0.  0.
    8880022    1    1    2    0    0 -0.40133614824E+03  0.37048621195E+03  0.54942861954E+03  0.78967980734E+03  0.15294330000E+03 0.  0.
<mgrwt>
<rscale>  0 0.56720577E+03</rscale>
<asrwt>0</asrwt>
<pdfrwt beam="1">  1        1 0.10870508E+00 0.56720577E+03</pdfrwt>
<pdfrwt beam="2">  1       -1 0.35265171E+00 0.56720577E+03</pdfrwt>
<totfact> 0.44821143E-01</totfact>
</mgrwt>
</event>
<event>
 4    1  0.1852677E-008  0.5736444E+03  0.7818608E-02  0.9961646E-01
          1   -1    0    0  501    0  0.00000000000E+00  0.00000000000E+00  0.17382210403E+04  0.17382210403E+04  0.50400000000E-02 0. -1.
         -1   -1    0    0    0  501 -0.00000000000E+00 -0.00000000000E+00 -0.28040892273E+03  0.28040892278E+03  0.50400000000E-02 0.  1.
    8880022    1    1    2    0    0  0.13160789280E+03  0.53698754903E+03  0.15362487787E+03  0.59385900799E+03  0.15294330000E+03 0.  0.
    8880022    1    1    2    0    0 -0.13160789280E+03 -0.53698754903E+03  0.13041872397E+04  0.14247709551E+04  0.15294330000E+03 0.  1.
<mgrwt>
<rscale>  0 0.57364442E+03</rscale>
<asrwt>0</asrwt>
<pdfrwt beam="1">  1        1 0.26741863E+00 0.57364442E+03</pdfrwt>
<pdfrwt beam="2">  1       -1 0.43139834E-01 0.57364442E+03</pdfrwt>
<totfact> 0.25297307E+01</totfact>
</mgrwt>
</event>
<event>
 4    1  0.1852677E-008  0.1384906E+04  0.7818608E-02  0.8964817E-01
          1   -1    0    0  501    0  0.00000000000E+00  0.00000000000E+00  0.20854244170E+04  0.20854244170E+04  0.50400000000E-02 0. -1.
         -1   -1    0    0    0  501 -0.00000000000E+00 -0.00000000000E+00 -0.13443861641E+04  0.13443861641E+04  0.50400000000E-02 0.  1.
    8880022    1    1    2    0    0 -0.90854172433E+03  0.10339856034E+04 -0.59333632308E+03  0.15066565429E+04  0.15294330000E+03 0.  0.
    8880022    1    1    2    0    0  0.90854172433E+03 -0.10339856034E+04  0.13343745759E+04  0.19231540382E+04  0.15294330000E+03 0.  0.
<mgrwt>
<rscale>  0 0.13849065E+04</rscale>
<asrwt>0</asrwt>
<pdfrwt beam="1">  1        1 0.32083452E+00 0.13849065E+04</pdfrwt>
<pdfrwt beam="2">  1       -1 0.20682864E+00 0.13849065E+04</pdfrwt>
<totfact> 0.33750272E-01</totfact>
</mgrwt>
</event>
<event>
 4    1  0.1852677E-008  0.5948476E+03  0.7818608E-02  0.9916154E-01
         -1   -1    0    0    0  501 -0.00000000000E+00  0.00000000000E+00  0.75323325804E+03  0.75323325806E+03  0.50400000000E-02 0.  1.
          1   -1    0    0  501    0  0.00000000000E+00 -0.00000000000E+00 -0.67526910623E+03  0.67526910625E+03  0.50400000000E-02 0. -1.
    8880022    1    1    2    0    0  0.43462450441E+02 -0.57320417637E+03  0.43300484144E+03  0.73575597730E+03  0.15294330000E+03 0.  0.
    8880022    1    1    2    0    0 -0.43462450441E+02  0.57320417637E+03 -0.35504068963E+03  0.69274638701E+03  0.15294330000E+03 0.  0.
<mgrwt>
<rscale>  0 0.59484760E+03</rscale>
<asrwt>0</asrwt>
<pdfrwt beam="1">  1        1 0.10388755E+00 0.59484760E+03</pdfrwt>
<pdfrwt beam="2">  1       -1 0.11588204E+00 0.59484760E+03</pdfrwt>
<totfact> 0.20299464E+01</totfact>
</mgrwt>
</event>
<event>
 4    1  0.1852677E-008  0.1728937E+03  0.7818608E-02  0.1174863E+00
         -1   -1    0    0    0  501 -0.00000000000E+00  0.00000000000E+00  0.16026233054E+03  0.16026233062E+03  0.50400000000E-02 0.  1.
          1   -1    0    0  501    0  0.00000000000E+00 -0.00000000000E+00 -0.35652741202E+03  0.35652741206E+03  0.50400000000E-02 0. -1.
    8880022    1    1    2    0    0 -0.16660554013E+02 -0.78886126130E+02  0.80298501917E+02  0.19063078812E+03  0.15294330000E+03 0.  1.
    8880022    1    1    2    0    0  0.16660554013E+02  0.78886126130E+02 -0.27656358340E+03  0.32615895455E+03  0.15294330000E+03 0.  0.
<mgrwt>
<rscale>  0 0.17289375E+03</rscale>
<asrwt>0</asrwt>
<pdfrwt beam="1">  1        1 0.54850371E-01 0.17289375E+03</pdfrwt>
<pdfrwt beam="2">  1       -1 0.24655743E-01 0.17289375E+03</pdfrwt>
<totfact> 0.99925726E+02</totfact>
</mgrwt>
</event>
<event>
 4    1  0.1852677E-008  0.5230170E+03  0.7818608E-02  0.1007940E+00
         -1   -1    0    0    0  501 -0.00000000000E+00  0.00000000000E+00  0.39008955651E+03  0.39008955655E+03  0.50400000000E-02 0.  1.
          1   -1    0    0  501    0  0.00000000000E+00 -0.00000000000E+00 -0.16205309583E+04  0.16205309583E+04  0.50400000000E-02 0. -1.
    8880022    1    1    2    0    0  0.24604901981E+03  0.43544804356E+03 -0.13723982308E+04  0.14686809305E+04  0.15294330000E+03 0.  0.
    8880022    1    1    2    0    0 -0.24604901981E+03 -0.43544804356E+03  0.14195682897E+03  0.54193958436E+03  0.15294330000E+03 0.  0.
<mgrwt>
<rscale>  0 0.52301699E+03</rscale>
<asrwt>0</asrwt>
<pdfrwt beam="1">  1        1 0.24931245E+00 0.52301699E+03</pdfrwt>
<pdfrwt beam="2">  1       -1 0.60013779E-01 0.52301699E+03</pdfrwt>
<totfact> 0.16393762E+01</totfact>
</mgrwt>
</event>
<event>
 4    1  0.1852677E-008  0.1821107E+03  0.7818608E-02  0.1165776E+00
          1   -1    0    0  501    0  0.00000000000E+00  0.00000000000E+00  0.97269018271E+03  0.97269018272E+03  0.50400000000E-02 0. -1.
         -1   -1    0    0    0  501 -0.00000000000E+00 -0.00000000000E+00 -0.83380478289E+02  0.83380478442E+02  0.50400000000E-02 0.  1.
    8880022    1    1    2    0    0 -0.40435207862E+02 -0.90208920787E+02  0.85061957940E+03  0.86989538296E+03  0.15294330000E+03 0. -1.
    8880022    1    1    2    0    0  0.40435207862E+02  0.90208920787E+02  0.38690125019E+02  0.18617527820E+03  0.15294330000E+03 0.  0.
<mgrwt>
<rscale>  0 0.18211070E+03</rscale>
<asrwt>0</asrwt>
<pdfrwt beam="1">  1        1 0.14964464E+00 0.18211070E+03</pdfrwt>
<pdfrwt beam="2">  1       -1 0.12827766E-01 0.18211070E+03</pdfrwt>
<totfact> 0.69785413E+02</totfact>
</mgrwt>
</event>
<event>
 4    1  0.1852677E-008  0.1745516E+03  0.7818608E-02  0.1173183E+00
         -1   -1    0    0    0  501 -0.00000000000E+00  0.00000000000E+00  0.42967169018E+02  0.42967169314E+02  0.50400000000E-02 0.  1.
          1   -1    0    0  501    0  0.00000000000E+00 -0.00000000000E+00 -0.14348146983E+04  0.14348146984E+04  0.50400000000E-02 0. -1.
    8880022    1    1    2    0    0 -0.40786216828E+02 -0.73573674951E+02 -0.17043461149E+03  0.24395944527E+03  0.15294330000E+03 0.  0.
    8880022    1    1    2    0    0  0.40786216828E+02  0.73573674951E+02 -0.12214129178E+04  0.12338224224E+04  0.15294330000E+03 0.  0.
<mgrwt>
<rscale>  0 0.17455158E+03</rscale>
<asrwt>0</asrwt>
<pdfrwt beam="1">  1        1 0.22074069E+00 0.17455158E+03</pdfrwt>
<pdfrwt beam="2">  1       -1 0.66103348E-02 0.17455158E+03</pdfrwt>
<totfact> 0.91976534E+02</totfact>
</mgrwt>
</event>
<event>
 4    1  0.1852677E-008  0.3872629E+03  0.7818608E-02  0.1048282E+00
          1   -1    0    0  501    0  0.00000000000E+00  0.00000000000E+00  0.97738168192E+03  0.97738168193E+03  0.50400000000E-02 0. -1.
         -1   -1    0    0    0  501 -0.00000000000E+00 -0.00000000000E+00 -0.22850263612E+03  0.22850263618E+03  0.50400000000E-02 0.  1.
    8880022    1    1    2    0    0  0.33850733659E+03  0.10951584732E+03  0.72000682339E+03  0.81754658367E+03  0.15294330000E+03 0.  0.
    8880022    1    1    2    0    0 -0.33850733659E+03 -0.10951584732E+03  0.28872222410E+02  0.38833773443E+03  0.15294330000E+03 0.  0.
<mgrwt>
<rscale>  0 0.38726295E+03</rscale>
<asrwt>0</asrwt>
<pdfrwt beam="1">  1        1 0.15036642E+00 0.38726295E+03</pdfrwt>
<pdfrwt beam="2">  1       -1 0.35154251E-01 0.38726295E+03</pdfrwt>
<totfact> 0.12809854E+02</totfact>
</mgrwt>
</event>
<event>
 4    1  0.1852677E-008  0.4225019E+03  0.7818608E-02  0.1036255E+00
          1   -1    0    0  501    0  0.00000000000E+00  0.00000000000E+00  0.53399574083E+03  0.53399574086E+03  0.50400000000E-02 0. -1.
         -1   -1    0    0    0  501 -0.00000000000E+00 -0.00000000000E+00 -0.11238289670E+04  0.11238289670E+04  0.50400000000E-02 0.  1.
    8880022    1    1    2    0    0  0.31570430844E+03  0.23547185672E+03 -0.98969467746E+03  0.10761056701E+04  0.15294330000E+03 0.  0.
    8880022    1    1    2    0    0 -0.31570430844E+03 -0.23547185672E+03  0.39986145127E+03  0.58171903777E+03  0.15294330000E+03 0.  0.
<mgrwt>
<rscale>  0 0.42250190E+03</rscale>
<asrwt>0</asrwt>
<pdfrwt beam="1">  1        1 0.82153191E-01 0.42250190E+03</pdfrwt>
<pdfrwt beam="2">  1       -1 0.17289676E+00 0.42250190E+03</pdfrwt>
<totfact> 0.10319110E+01</totfact>
</mgrwt>
</event>
<event>
 4    1  0.1852677E-008  0.5950302E+03  0.7818608E-02  0.9915771E-01
          1   -1    0    0  501    0  0.00000000000E+00  0.00000000000E+00  0.57816057671E+03  0.57816057673E+03  0.50400000000E-02 0. -1.
         -1   -1    0    0    0  501 -0.00000000000E+00 -0.00000000000E+00 -0.13514156971E+04  0.13514156972E+04  0.50400000000E-02 0.  1.
    8880022    1    1    2    0    0  0.21470963019E+03  0.53345016119E+03  0.32682752314E+03  0.67887935797E+03  0.15294330000E+03 0.  0.
    8880022    1    1    2    0    0 -0.21470963019E+03 -0.53345016119E+03 -0.11000826436E+04  0.12506969159E+04  0.15294330000E+03 0.  0.
<mgrwt>
<rscale>  0 0.59503021E+03</rscale>
<asrwt>0</asrwt>
<pdfrwt beam="1">  1        1 0.88947781E-01 0.59503021E+03</pdfrwt>
<pdfrwt beam="2">  1       -1 0.20791011E+00 0.59503021E+03</pdfrwt>
<totfact> 0.51021813E+00</totfact>
</mgrwt>
</event>
<event>
 4    1  0.1852677E-008  0.4536176E+03  0.7818608E-02  0.1026649E+00
         -1   -1    0    0    0  501 -0.00000000000E+00  0.00000000000E+00  0.87117938099E+03  0.87117938101E+03  0.50400000000E-02 0.  1.
          1   -1    0    0  501    0  0.00000000000E+00 -0.00000000000E+00 -0.14756677930E+04  0.14756677930E+04  0.50400000000E-02 0. -1.
    8880022    1    1    2    0    0  0.33051371865E+03  0.27044029232E+03 -0.13776660927E+04  0.14504250363E+04  0.15294330000E+03 0.  0.
    8880022    1    1    2    0    0 -0.33051371865E+03 -0.27044029232E+03  0.77317768073E+03  0.89642213768E+03  0.15294330000E+03 0.  0.
<mgrwt>
<rscale>  0 0.45361760E+03</rscale>
<asrwt>0</asrwt>
<pdfrwt beam="1">  1        1 0.22702581E+00 0.45361760E+03</pdfrwt>
<pdfrwt beam="2">  1       -1 0.13402760E+00 0.45361760E+03</pdfrwt>
<totfact> 0.35641224E+00</totfact>
</mgrwt>
</event>
<event>
 4    1  0.1852677E-008  0.5261354E+03  0.7818608E-02  0.1007174E+00
         -1   -1    0    0    0  501 -0.00000000000E+00  0.00000000000E+00  0.95927597829E+03  0.95927597830E+03  0.50400000000E-02 0.  1.
          1   -1    0    0  501    0  0.00000000000E+00 -0.00000000000E+00 -0.52351777894E+03  0.52351777897E+03  0.50400000000E-02 0. -1.
    8880022    1    1    2    0    0  0.28841403260E+02  0.50258828087E+03 -0.27879386873E+03  0.59543637852E+03  0.15294330000E+03 0.  0.
    8880022    1    1    2    0    0 -0.28841403260E+02 -0.50258828087E+03  0.71455206807E+03  0.88735737875E+03  0.15294330000E+03 0.  0.
<mgrwt>
<rscale>  0 0.52613540E+03</rscale>
<asrwt>0</asrwt>
<pdfrwt beam="1">  1        1 0.80541197E-01 0.52613540E+03</pdfrwt>
<pdfrwt beam="2">  1       -1 0.14758092E+00 0.52613540E+03</pdfrwt>
<totfact> 0.16054876E+01</totfact>
</mgrwt>
</event>
<event>
 4    1  0.1852677E-008  0.5414604E+03  0.7818608E-02  0.1003490E+00
         -1   -1    0    0    0  501 -0.00000000000E+00  0.00000000000E+00  0.71717091595E+03  0.71717091596E+03  0.50400000000E-02 0.  1.
          1   -1    0    0  501    0  0.00000000000E+00 -0.00000000000E+00 -0.13234663075E+04  0.13234663075E+04  0.50400000000E-02 0. -1.
    8880022    1    1    2    0    0 -0.42733506018E+03 -0.29524988823E+03  0.54507663759E+03  0.76830198751E+03  0.15294330000E+03 0.  0.
    8880022    1    1    2    0    0  0.42733506018E+03  0.29524988823E+03 -0.11513720291E+04  0.12723352359E+04  0.15294330000E+03 0.  0.
<mgrwt>
<rscale>  0 0.54146044E+03</rscale>
<asrwt>0</asrwt>
<pdfrwt beam="1">  1        1 0.20361020E+00 0.54146044E+03</pdfrwt>
<pdfrwt beam="2">  1       -1 0.11033399E+00 0.54146044E+03</pdfrwt>
<totfact> 0.71123575E+00</totfact>
</mgrwt>
</event>
<event>
 4    1  0.1852677E-008  0.3594884E+03  0.7818608E-02  0.1058787E+00
          1   -1    0    0  501    0  0.00000000000E+00  0.00000000000E+00  0.81598571905E+03  0.81598571906E+03  0.50400000000E-02 0. -1.
         -1   -1    0    0    0  501 -0.00000000000E+00 -0.00000000000E+00 -0.17577009370E+03  0.17577009377E+03  0.50400000000E-02 0.  1.
    8880022    1    1    2    0    0  0.19838036374E+03  0.25784774654E+03  0.16411181623E+03  0.39517663184E+03  0.15294330000E+03 0.  0.
    8880022    1    1    2    0    0 -0.19838036374E+03 -0.25784774654E+03  0.47610380912E+03  0.59657918099E+03  0.15294330000E+03 0. -1.
<mgrwt>
<rscale>  0 0.35948836E+03</rscale>
<asrwt>0</asrwt>
<pdfrwt beam="1">  1        1 0.12553626E+00 0.35948836E+03</pdfrwt>
<pdfrwt beam="2">  1       -1 0.27041553E-01 0.35948836E+03</pdfrwt>
<totfact> 0.27212622E+02</totfact>
</mgrwt>
</event>
<event>
 4    1  0.1852677E-008  0.6795082E+03  0.7818608E-02  0.9752932E-01
          1   -1    0    0  501    0  0.00000000000E+00  0.00000000000E+00  0.13231696859E+04  0.13231696859E+04  0.50400000000E-02 0. -1.
         -1   -1    0    0    0  501 -0.00000000000E+00 -0.00000000000E+00 -0.11174769754E+04  0.11174769754E+04  0.50400000000E-02 0.  1.
    8880022    1    1    2    0    0  0.42456872734E+03  0.50801687928E+03  0.11148515875E+04  0.13056130625E+04  0.15294330000E+03 0.  0.
    8880022    1    1    2    0    0 -0.42456872734E+03 -0.50801687928E+03 -0.90915887692E+03  0.11350335988E+04  0.15294330000E+03 0.  0.
<mgrwt>
<rscale>  0 0.67950821E+03</rscale>
<asrwt>0</asrwt>
<pdfrwt beam="1">  1        1 0.20356457E+00 0.67950821E+03</pdfrwt>
<pdfrwt beam="2">  1       -1 0.17191953E+00 0.67950821E+03</pdfrwt>
<totfact> 0.21973500E+00</totfact>
</mgrwt>
</event>
<event>
 4    1  0.1852677E-008  0.2351080E+03  0.7818608E-02  0.1123095E+00
          1   -1    0    0  501    0  0.00000000000E+00  0.00000000000E+00  0.17488397884E+04  0.17488397884E+04  0.50400000000E-02 0. -1.
         -1   -1    0    0    0  501 -0.00000000000E+00 -0.00000000000E+00 -0.14429031680E+03  0.14429031688E+03  0.50400000000E-02 0.  1.
    8880022    1    1    2    0    0  0.90802968687E+02  0.15374959258E+03  0.16387661238E+04  0.16555452812E+04  0.15294330000E+03 0. -1.
    8880022    1    1    2    0    0 -0.90802968687E+02 -0.15374959258E+03 -0.34216652250E+02  0.23758482411E+03  0.15294330000E+03 0.  0.
<mgrwt>
<rscale>  0 0.23510800E+03</rscale>
<asrwt>0</asrwt>
<pdfrwt beam="1">  1        1 0.26905226E+00 0.23510800E+03</pdfrwt>
<pdfrwt beam="2">  1       -1 0.22198511E-01 0.23510800E+03</pdfrwt>
<totfact> 0.85068463E+01</totfact>
</mgrwt>
</event>
<event>
 4    1  0.1852677E-008  0.1194071E+04  0.7818608E-02  0.9118062E-01
          1   -1    0    0  501    0  0.00000000000E+00  0.00000000000E+00  0.14155495694E+04  0.14155495695E+04  0.50400000000E-02 0. -1.
         -1   -1    0    0    0  501 -0.00000000000E+00 -0.00000000000E+00 -0.12240774805E+04  0.12240774805E+04  0.50400000000E-02 0.  1.
    8880022    1    1    2    0    0  0.71676466999E+03 -0.94268843563E+03 -0.45974678513E+03  0.12795201594E+04  0.15294330000E+03 0.  0.
    8880022    1    1    2    0    0 -0.71676466999E+03  0.94268843563E+03  0.65121887407E+03  0.13601068906E+04  0.15294330000E+03 0.  0.
<mgrwt>
<rscale>  0 0.11940707E+04</rscale>
<asrwt>0</asrwt>
<pdfrwt beam="1">  1        1 0.21777685E+00 0.11940707E+04</pdfrwt>
<pdfrwt beam="2">  1       -1 0.18831961E+00 0.11940707E+04</pdfrwt>
<totfact> 0.13339929E+00</totfact>
</mgrwt>
</event>
<event>
 4    1  0.1852677E-008  0.4987523E+03  0.7818608E-02  0.1014105E+00
          1   -1    0    0  501    0  0.00000000000E+00  0.00000000000E+00  0.14130339911E+04  0.14130339911E+04  0.50400000000E-02 0. -1.
         -1   -1    0    0    0  501 -0.00000000000E+00 -0.00000000000E+00 -0.21203941211E+03  0.21203941217E+03  0.50400000000E-02 0.  1.
    8880022    1    1    2    0    0  0.45764132227E+03  0.12620054466E+03  0.93528405394E+03  0.10599575802E+04  0.15294330000E+03 0.  0.
    8880022    1    1    2    0    0 -0.45764132227E+03 -0.12620054466E+03  0.26571052505E+03  0.56511582304E+03  0.15294330000E+03 0.  1.
<mgrwt>
<rscale>  0 0.49875225E+03</rscale>
<asrwt>0</asrwt>
<pdfrwt beam="1">  1        1 0.21738984E+00 0.49875225E+03</pdfrwt>
<pdfrwt beam="2">  1       -1 0.32621449E-01 0.49875225E+03</pdfrwt>
<totfact> 0.69935379E+01</totfact>
</mgrwt>
</event>
<event>
 4    1  0.1852677E-008  0.1971368E+03  0.7818608E-02  0.1152177E+00
         -1   -1    0    0    0  501 -0.00000000000E+00  0.00000000000E+00  0.14620759118E+03  0.14620759127E+03  0.50400000000E-02 0.  1.
          1   -1    0    0  501    0  0.00000000000E+00 -0.00000000000E+00 -0.17051220300E+04  0.17051220300E+04  0.50400000000E-02 0. -1.
    8880022    1    1    2    0    0 -0.95144944534E+02  0.80116916490E+02  0.71003033641E+02  0.20953368364E+03  0.15294330000E+03 0.  1.
    8880022    1    1    2    0    0  0.95144944534E+02 -0.80116916490E+02 -0.16299174725E+04  0.16417959377E+04  0.15294330000E+03 0.  0.
<mgrwt>
<rscale>  0 0.19713684E+03</rscale>
<asrwt>0</asrwt>
<pdfrwt beam="1">  1        1 0.26232645E+00 0.19713684E+03</pdfrwt>
<pdfrwt beam="2">  1       -1 0.22493477E-01 0.19713684E+03</pdfrwt>
<totfact> 0.90065937E+01</totfact>
</mgrwt>
</event>
<event>
 4    1  0.1852677E-008  0.5801405E+03  0.7818608E-02  0.9947487E-01
         -1   -1    0    0    0  501 -0.00000000000E+00  0.00000000000E+00  0.28738006388E+03  0.28738006393E+03  0.50400000000E-02 0.  1.
          1   -1    0    0  501    0  0.00000000000E+00 -0.00000000000E+00 -0.16566473272E+04  0.16566473272E+04  0.50400000000E-02 0. -1.
    8880022    1    1    2    0    0 -0.22004691662E+03 -0.51453932174E+03 -0.15842966277E+03  0.60138421179E+03  0.15294330000E+03 0.  0.
    8880022    1    1    2    0    0  0.22004691662E+03  0.51453932174E+03 -0.12108376006E+04  0.13426431794E+04  0.15294330000E+03 0.  0.
<mgrwt>
<rscale>  0 0.58014051E+03</rscale>
<asrwt>0</asrwt>
<pdfrwt beam="1">  1        1 0.25486881E+00 0.58014051E+03</pdfrwt>
<pdfrwt beam="2">  1       -1 0.44212318E-01 0.58014051E+03</pdfrwt>
<totfact> 0.27384938E+01</totfact>
</mgrwt>
</event>
<event>
 4    1  0.1852677E-008  0.3247293E+03  0.7818608E-02  0.1073493E+00
         -1   -1    0    0    0  501 -0.00000000000E+00  0.00000000000E+00  0.20038334167E+03  0.20038334173E+03  0.50400000000E-02 0.  1.
          1   -1    0    0  501    0  0.00000000000E+00 -0.00000000000E+00 -0.13193416489E+04  0.13193416489E+04  0.50400000000E-02 0. -1.
    8880022    1    1    2    0    0 -0.12551057890E+02 -0.28618160670E+03  0.29665130079E+02  0.32608145305E+03  0.15294330000E+03 0.  1.
    8880022    1    1    2    0    0  0.12551057890E+02  0.28618160670E+03 -0.11486234373E+04  0.11936435375E+04  0.15294330000E+03 0.  0.
<mgrwt>
<rscale>  0 0.32472926E+03</rscale>
<asrwt>0</asrwt>
<pdfrwt beam="1">  1        1 0.20297563E+00 0.32472926E+03</pdfrwt>
<pdfrwt beam="2">  1       -1 0.30828207E-01 0.32472926E+03</pdfrwt>
<totfact> 0.92249189E+01</totfact>
</mgrwt>
</event>
<event>
 4    1  0.1852677E-008  0.1833505E+03  0.7818608E-02  0.1164599E+00
          1   -1    0    0  501    0  0.00000000000E+00  0.00000000000E+00  0.11728116742E+04  0.11728116742E+04  0.50400000000E-02 0. -1.
         -1   -1    0    0    0  501 -0.00000000000E+00 -0.00000000000E+00 -0.93579446355E+02  0.93579446490E+02  0.50400000000E-02 0.  1.
    8880022    1    1    2    0    0 -0.85397756024E+02 -0.54156954857E+02  0.12238313931E+02  0.18375848779E+03  0.15294330000E+03 0.  1.
    8880022    1    1    2    0    0  0.85397756024E+02  0.54156954857E+02  0.10669939139E+04  0.10826326329E+04  0.15294330000E+03 0.  0.
<mgrwt>
<rscale>  0 0.18335050E+03</rscale>
<asrwt>0</asrwt>
<pdfrwt beam="1">  1        1 0.18043257E+00 0.18335050E+03</pdfrwt>
<pdfrwt beam="2">  1       -1 0.14396838E-01 0.18335050E+03</pdfrwt>
<totfact> 0.41778172E+02</totfact>
</mgrwt>
</event>
<event>
 4    1  0.1852677E-008  0.3309465E+03  0.7818608E-02  0.1070719E+00
         -1   -1    0    0    0  501 -0.00000000000E+00  0.00000000000E+00  0.24333382590E+03  0.24333382596E+03  0.50400000000E-02 0.  1.
          1   -1    0    0  501    0  0.00000000000E+00 -0.00000000000E+00 -0.76745185135E+03  0.76745185136E+03  0.50400000000E-02 0. -1.
    8880022    1    1    2    0    0 -0.24820261616E+03 -0.15661871793E+03  0.62931777381E+02  0.33687686636E+03  0.15294330000E+03 0.  0.
    8880022    1    1    2    0    0  0.24820261616E+03  0.15661871793E+03 -0.58704980283E+03  0.67390881096E+03  0.15294330000E+03 0.  0.
<mgrwt>
<rscale>  0 0.33094654E+03</rscale>
<asrwt>0</asrwt>
<pdfrwt beam="1">  1        1 0.11806951E+00 0.33094654E+03</pdfrwt>
<pdfrwt beam="2">  1       -1 0.37435974E-01 0.33094654E+03</pdfrwt>
<totfact> 0.17098965E+02</totfact>
</mgrwt>
</event>
<event>
 4    1  0.1852677E-008  0.9069452E+03  0.7818608E-02  0.9416941E-01
          1   -1    0    0  501    0  0.00000000000E+00  0.00000000000E+00  0.77699290660E+03  0.77699290662E+03  0.50400000000E-02 0. -1.
         -1   -1    0    0    0  501 -0.00000000000E+00 -0.00000000000E+00 -0.13490524228E+04  0.13490524228E+04  0.50400000000E-02 0.  1.
    8880022    1    1    2    0    0  0.87909608339E+03  0.16232055473E+03  0.20719140452E+03  0.93031060267E+03  0.15294330000E+03 0.  0.
    8880022    1    1    2    0    0 -0.87909608339E+03 -0.16232055473E+03 -0.77925092073E+03  0.11957347268E+04  0.15294330000E+03 0.  0.
<mgrwt>
<rscale>  0 0.90694517E+03</rscale>
<asrwt>0</asrwt>
<pdfrwt beam="1">  1        1 0.11953737E+00 0.90694517E+03</pdfrwt>
<pdfrwt beam="2">  1       -1 0.20754653E+00 0.90694517E+03</pdfrwt>
<totfact> 0.31452016E+00</totfact>
</mgrwt>
</event>
<event>
 4    1  0.1852677E-008  0.2283538E+03  0.7818608E-02  0.1127804E+00
          1   -1    0    0  501    0  0.00000000000E+00  0.00000000000E+00  0.39828226054E+03  0.39828226057E+03  0.50400000000E-02 0. -1.
         -1   -1    0    0    0  501 -0.00000000000E+00 -0.00000000000E+00 -0.41870394644E+03  0.41870394647E+03  0.50400000000E-02 0.  1.
    8880022    1    1    2    0    0  0.54737958665E+02 -0.16049165479E+03  0.32844613013E+03  0.40002791002E+03  0.15294330000E+03 0.  0.
    8880022    1    1    2    0    0 -0.54737958665E+02  0.16049165479E+03 -0.34886781604E+03  0.41695829703E+03  0.15294330000E+03 0.  1.
<mgrwt>
<rscale>  0 0.22835382E+03</rscale>
<asrwt>0</asrwt>
<pdfrwt beam="1">  1        1 0.61274194E-01 0.22835382E+03</pdfrwt>
<pdfrwt beam="2">  1       -1 0.64415992E-01 0.22835382E+03</pdfrwt>
<totfact> 0.15667150E+02</totfact>
</mgrwt>
</event>
<event>
 4    1  0.1852677E-008  0.5858678E+03  0.7818608E-02  0.9935167E-01
          1   -1    0    0  501    0  0.00000000000E+00  0.00000000000E+00  0.50359311695E+03  0.50359311697E+03  0.50400000000E-02 0. -1.
         -1   -1    0    0    0  501 -0.00000000000E+00 -0.00000000000E+00 -0.92274945163E+03  0.92274945164E+03  0.50400000000E-02 0.  1.
    8880022    1    1    2    0    0  0.38820397037E+03 -0.41127498804E+03 -0.57417202923E+03  0.82031372692E+03  0.15294330000E+03 0.  0.
    8880022    1    1    2    0    0 -0.38820397037E+03  0.41127498804E+03  0.15501569455E+03  0.60602884170E+03  0.15294330000E+03 0.  0.
<mgrwt>
<rscale>  0 0.58586781E+03</rscale>
<asrwt>0</asrwt>
<pdfrwt beam="1">  1        1 0.77475864E-01 0.58586781E+03</pdfrwt>
<pdfrwt beam="2">  1       -1 0.14196145E+00 0.58586781E+03</pdfrwt>
<totfact> 0.18579924E+01</totfact>
</mgrwt>
</event>
<event>
 4    1  0.1852677E-008  0.4064485E+03  0.7818608E-02  0.1041569E+00
          1   -1    0    0  501    0  0.00000000000E+00  0.00000000000E+00  0.32950966184E+03  0.32950966187E+03  0.50400000000E-02 0. -1.
         -1   -1    0    0    0  501 -0.00000000000E+00 -0.00000000000E+00 -0.73230440461E+03  0.73230440463E+03  0.50400000000E-02 0.  1.
    8880022    1    1    2    0    0 -0.29322587931E+03  0.23627810615E+03 -0.49954657795E+03  0.64400869272E+03  0.15294330000E+03 0.  0.
    8880022    1    1    2    0    0  0.29322587931E+03 -0.23627810615E+03  0.96751835171E+02  0.41780537379E+03  0.15294330000E+03 0.  0.
<mgrwt>
<rscale>  0 0.40644854E+03</rscale>
<asrwt>0</asrwt>
<pdfrwt beam="1">  1        1 0.50693794E-01 0.40644854E+03</pdfrwt>
<pdfrwt beam="2">  1       -1 0.11266222E+00 0.40644854E+03</pdfrwt>
<totfact> 0.59007412E+01</totfact>
</mgrwt>
</event>
<event>
 4    1  0.1852677E-008  0.4892400E+03  0.7818608E-02  0.1016626E+00
         -1   -1    0    0    0  501 -0.00000000000E+00  0.00000000000E+00  0.17045382042E+03  0.17045382050E+03  0.50400000000E-02 0.  1.
          1   -1    0    0  501    0  0.00000000000E+00 -0.00000000000E+00 -0.24664498953E+04  0.24664498953E+04  0.50400000000E-02 0. -1.
    8880022    1    1    2    0    0 -0.44629188448E+03  0.12956716439E+03 -0.20132370360E+04  0.20718298947E+04  0.15294330000E+03 0.  0.
    8880022    1    1    2    0    0  0.44629188448E+03 -0.12956716439E+03 -0.28275903884E+03  0.56507382111E+03  0.15294330000E+03 0.  0.
<mgrwt>
<rscale>  0 0.48923997E+03</rscale>
<asrwt>0</asrwt>
<pdfrwt beam="1">  1        1 0.37945380E+00 0.48923997E+03</pdfrwt>
<pdfrwt beam="2">  1       -1 0.26223667E-01 0.48923997E+03</pdfrwt>
<totfact> 0.20250592E+01</totfact>
</mgrwt>
</event>
<event>
 4    1  0.1852677E-008  0.6859242E+03  0.7818608E-02  0.9741611E-01
         -1   -1    0    0    0  501 -0.00000000000E+00  0.00000000000E+00  0.37803190944E+03  0.37803190947E+03  0.50400000000E-02 0.  1.
          1   -1    0    0  501    0  0.00000000000E+00 -0.00000000000E+00 -0.28368026936E+04  0.28368026936E+04  0.50400000000E-02 0. -1.
    8880022    1    1    2    0    0 -0.38410344978E+03  0.54732519247E+03 -0.25138295173E+02  0.68638466864E+03  0.15294330000E+03 0.  0.
    8880022    1    1    2    0    0  0.38410344978E+03 -0.54732519247E+03 -0.24336324889E+04  0.25284499344E+04  0.15294330000E+03 0.  0.
<mgrwt>
<rscale>  0 0.68592418E+03</rscale>
<asrwt>0</asrwt>
<pdfrwt beam="1">  1        1 0.43643117E+00 0.68592418E+03</pdfrwt>
<pdfrwt beam="2">  1       -1 0.58158757E-01 0.68592418E+03</pdfrwt>
<totfact> 0.25476028E+00</totfact>
</mgrwt>
</event>
<event>
 4    1  0.2345575E-008  0.5681013E+03  0.7818608E-02  0.9973889E-01
         -1   -1    0    0    0  501 -0.00000000000E+00  0.00000000000E+00  0.13199639813E+04  0.13199639813E+04  0.50400000000E-02 0.  1.
          1   -1    0    0  501    0  0.00000000000E+00 -0.00000000000E+00 -0.19257950975E+04  0.19257950975E+04  0.50400000000E-02 0. -1.
    8880022    1    1    2    0    0 -0.53461677029E+03  0.11632881816E+03 -0.18192759868E+04  0.19059129713E+04  0.15294330000E+03 0.  0.
    8880022    1    1    2    0    0  0.53461677029E+03 -0.11632881816E+03  0.12134448705E+04  0.13398461075E+04  0.15294330000E+03 0.  1.
<mgrwt>
<rscale>  0 0.56810134E+03</rscale>
<asrwt>0</asrwt>
<pdfrwt beam="1">  1        1 0.29627617E+00 0.56810134E+03</pdfrwt>
<pdfrwt beam="2">  1       -1 0.20307138E+00 0.56810134E+03</pdfrwt>
<totfact> 0.53563555E-01</totfact>
</mgrwt>
</event>
<event>
 4    1  0.1852677E-008  0.6930518E+03  0.7818608E-02  0.9729189E-01
         -1   -1    0    0    0  501 -0.00000000000E+00  0.00000000000E+00  0.44258506643E+03  0.44258506646E+03  0.50400000000E-02 0.  1.
          1   -1    0    0  501    0  0.00000000000E+00 -0.00000000000E+00 -0.16812788533E+04  0.16812788533E+04  0.50400000000E-02 0. -1.
    8880022    1    1    2    0    0  0.11207625904E+03  0.66660940853E+03 -0.12516218963E+04  0.14306915166E+04  0.15294330000E+03 0.  0.
    8880022    1    1    2    0    0 -0.11207625904E+03 -0.66660940853E+03  0.12928109488E+02  0.69317240310E+03  0.15294330000E+03 0.  0.
<mgrwt>
<rscale>  0 0.69305183E+03</rscale>
<asrwt>0</asrwt>
<pdfrwt beam="1">  1        1 0.25865828E+00 0.69305183E+03</pdfrwt>
<pdfrwt beam="2">  1       -1 0.68090011E-01 0.69305183E+03</pdfrwt>
<totfact> 0.11251301E+01</totfact>
</mgrwt>
</event>
<event>
 4    1  0.1852677E-008  0.1344702E+04  0.7818608E-02  0.8994848E-01
         -1   -1    0    0    0  501 -0.00000000000E+00  0.00000000000E+00  0.14623352041E+04  0.14623352041E+04  0.50400000000E-02 0.  1.
          1   -1    0    0  501    0  0.00000000000E+00 -0.00000000000E+00 -0.15858137651E+04  0.15858137651E+04  0.50400000000E-02 0. -1.
    8880022    1    1    2    0    0  0.11034492903E+04  0.75314787907E+03 -0.77700645463E+03  0.15530494994E+04  0.15294330000E+03 0.  0.
    8880022    1    1    2    0    0 -0.11034492903E+04 -0.75314787907E+03  0.65352789366E+03  0.14950994698E+04  0.15294330000E+03 0.  0.
<mgrwt>
<rscale>  0 0.13447021E+04</rscale>
<asrwt>0</asrwt>
<pdfrwt beam="1">  1        1 0.24397135E+00 0.13447021E+04</pdfrwt>
<pdfrwt beam="2">  1       -1 0.22497465E+00 0.13447021E+04</pdfrwt>
<totfact> 0.55997386E-01</totfact>
</mgrwt>
</event>
<event>
 4    1  0.1852677E-008  0.1551282E+03  0.7818608E-02  0.1194309E+00
         -1   -1    0    0    0  501 -0.00000000000E+00  0.00000000000E+00  0.38252442228E+03  0.38252442231E+03  0.50400000000E-02 0.  1.
          1   -1    0    0  501    0  0.00000000000E+00 -0.00000000000E+00 -0.89916946817E+03  0.89916946819E+03  0.50400000000E-02 0. -1.
    8880022    1    1    2    0    0  0.15955772867E+02 -0.20457948431E+02 -0.87634455934E+03  0.88996885004E+03  0.15294330000E+03 0.  0.
    8880022    1    1    2    0    0 -0.15955772867E+02  0.20457948431E+02  0.35969951344E+03  0.39172504047E+03  0.15294330000E+03 0.  1.
<mgrwt>
<rscale>  0 0.15512823E+03</rscale>
<asrwt>0</asrwt>
<pdfrwt beam="1">  1        1 0.13833376E+00 0.15512823E+03</pdfrwt>
<pdfrwt beam="2">  1       -1 0.58849911E-01 0.15512823E+03</pdfrwt>
<totfact> 0.60955539E+01</totfact>
</mgrwt>
</event>
<event>
 4    1  0.1852677E-008  0.5661057E+03  0.7818608E-02  0.9978333E-01
          1   -1    0    0  501    0  0.00000000000E+00  0.00000000000E+00  0.33302719713E+03  0.33302719717E+03  0.50400000000E-02 0. -1.
         -1   -1    0    0    0  501 -0.00000000000E+00 -0.00000000000E+00 -0.14294112159E+04  0.14294112160E+04  0.50400000000E-02 0.  1.
    8880022    1    1    2    0    0  0.37353028342E+03  0.39693720244E+03 -0.10519367081E+04  0.11945905182E+04  0.15294330000E+03 0.  0.
    8880022    1    1    2    0    0 -0.37353028342E+03 -0.39693720244E+03 -0.44447310710E+02  0.56784789491E+03  0.15294330000E+03 0.  0.
<mgrwt>
<rscale>  0 0.56610570E+03</rscale>
<asrwt>0</asrwt>
<pdfrwt beam="1">  1        1 0.51234954E-01 0.56610570E+03</pdfrwt>
<pdfrwt beam="2">  1       -1 0.21990941E+00 0.56610570E+03</pdfrwt>
<totfact> 0.89406621E+00</totfact>
</mgrwt>
</event>
<event>
 4    1  0.1852677E-008  0.8733400E+03  0.7818608E-02  0.9459535E-01
         -1   -1    0    0    0  501 -0.00000000000E+00  0.00000000000E+00  0.90324058156E+03  0.90324058158E+03  0.50400000000E-02 0.  1.
          1   -1    0    0  501    0  0.00000000000E+00 -0.00000000000E+00 -0.85737787199E+03  0.85737787201E+03  0.50400000000E-02 0. -1.
    8880022    1    1    2    0    0  0.27486309855E+03 -0.81472775671E+03 -0.85252451449E+02  0.87749112474E+03  0.15294330000E+03 0.  0.
    8880022    1    1    2    0    0 -0.27486309855E+03  0.81472775671E+03  0.13111516102E+03  0.88312732885E+03  0.15294330000E+03 0.  0.
<mgrwt>
<rscale>  0 0.87333996E+03</rscale>
<asrwt>0</asrwt>
<pdfrwt beam="1">  1        1 0.13190429E+00 0.87333996E+03</pdfrwt>
<pdfrwt beam="2">  1       -1 0.13896009E+00 0.87333996E+03</pdfrwt>
<totfact> 0.85750584E+00</totfact>
</mgrwt>
</event>
<event>
 4    1  0.1852677E-008  0.5599174E+03  0.7818608E-02  0.9992241E-01
          1   -1    0    0  501    0  0.00000000000E+00  0.00000000000E+00  0.86429139149E+03  0.86429139151E+03  0.50400000000E-02 0. -1.
         -1   -1    0    0    0  501 -0.00000000000E+00 -0.00000000000E+00 -0.49040273296E+03  0.49040273299E+03  0.50400000000E-02 0.  1.
    8880022    1    1    2    0    0 -0.51546195697E+03 -0.15625249385E+03 -0.15865888501E+03  0.58196234047E+03  0.15294330000E+03 0.  0.
    8880022    1    1    2    0    0  0.51546195697E+03  0.15625249385E+03  0.53254754354E+03  0.77273178403E+03  0.15294330000E+03 0.  0.
<mgrwt>
<rscale>  0 0.55991743E+03</rscale>
<asrwt>0</asrwt>
<pdfrwt beam="1">  1        1 0.13296791E+00 0.55991743E+03</pdfrwt>
<pdfrwt beam="2">  1       -1 0.75446574E-01 0.55991743E+03</pdfrwt>
<totfact> 0.36073390E+01</totfact>
</mgrwt>
</event>
<event>
 4    1  0.1852677E-008  0.4418721E+03  0.7818608E-02  0.1030174E+00
         -1   -1    0    0    0  501 -0.00000000000E+00  0.00000000000E+00  0.13136389601E+04  0.13136389601E+04  0.50400000000E-02 0.  1.
          1   -1    0    0  501    0  0.00000000000E+00 -0.00000000000E+00 -0.99226924702E+03  0.99226924703E+03  0.50400000000E-02 0. -1.
    8880022    1    1    2    0    0  0.12219141953E+03  0.39614204623E+03  0.12237863027E+04  0.13011163789E+04  0.15294330000E+03 0.  0.
    8880022    1    1    2    0    0 -0.12219141953E+03 -0.39614204623E+03 -0.90241658963E+03  0.10047918282E+04  0.15294330000E+03 0.  0.
<mgrwt>
<rscale>  0 0.44187206E+03</rscale>
<asrwt>0</asrwt>
<pdfrwt beam="1">  1        1 0.15265681E+00 0.44187206E+03</pdfrwt>
<pdfrwt beam="2">  1       -1 0.20209830E+00 0.44187206E+03</pdfrwt>
<totfact> 0.25000971E+00</totfact>
</mgrwt>
</event>
<event>
 4    1  0.1852677E-008  0.3119193E+03  0.7818608E-02  0.1079430E+00
          1   -1    0    0  501    0  0.00000000000E+00  0.00000000000E+00  0.92969618402E+03  0.92969618403E+03  0.50400000000E-02 0. -1.
         -1   -1    0    0    0  501 -0.00000000000E+00 -0.00000000000E+00 -0.51028589253E+03  0.51028589256E+03  0.50400000000E-02 0.  1.
    8880022    1    1    2    0    0  0.25949011023E+03 -0.81036227294E+02 -0.43222527891E+03  0.53302188715E+03  0.15294330000E+03 0.  1.
    8880022    1    1    2    0    0 -0.25949011023E+03  0.81036227294E+02  0.85163557040E+03  0.90696018944E+03  0.15294330000E+03 0.  0.
<mgrwt>
<rscale>  0 0.31191929E+03</rscale>
<asrwt>0</asrwt>
<pdfrwt beam="1">  1        1 0.14303018E+00 0.31191929E+03</pdfrwt>
<pdfrwt beam="2">  1       -1 0.78505524E-01 0.31191929E+03</pdfrwt>
<totfact> 0.30875912E+01</totfact>
</mgrwt>
</event>
<event>
 4    1  0.1852677E-008  0.1830010E+03  0.7818608E-02  0.1164930E+00
         -1   -1    0    0    0  501 -0.00000000000E+00  0.00000000000E+00  0.91647151183E+03  0.91647151184E+03  0.50400000000E-02 0.  1.
          1   -1    0    0  501    0  0.00000000000E+00 -0.00000000000E+00 -0.24780545052E+03  0.24780545057E+03  0.50400000000E-02 0. -1.
    8880022    1    1    2    0    0  0.55868491963E+02 -0.83524974512E+02  0.87183919098E+03  0.89083833421E+03  0.15294330000E+03 0.  0.
    8880022    1    1    2    0    0 -0.55868491963E+02  0.83524974512E+02 -0.20317312966E+03  0.27343862820E+03  0.15294330000E+03 0.  0.
<mgrwt>
<rscale>  0 0.18300099E+03</rscale>
<asrwt>0</asrwt>
<pdfrwt beam="1">  1        1 0.38123916E-01 0.18300099E+03</pdfrwt>
<pdfrwt beam="2">  1       -1 0.14099561E+00 0.18300099E+03</pdfrwt>
<totfact> 0.51196762E+01</totfact>
</mgrwt>
</event>
<event>
 4    1  0.1852677E-008  0.4200316E+03  0.7818608E-02  0.1037056E+00
          1   -1    0    0  501    0  0.00000000000E+00  0.00000000000E+00  0.86291186741E+03  0.86291186743E+03  0.50400000000E-02 0. -1.
         -1   -1    0    0    0  501 -0.00000000000E+00 -0.00000000000E+00 -0.41317445389E+03  0.41317445392E+03  0.50400000000E-02 0.  1.
    8880022    1    1    2    0    0  0.35366441483E+03  0.16720155061E+03 -0.22861838706E+03  0.47821846134E+03  0.15294330000E+03 0.  0.
    8880022    1    1    2    0    0 -0.35366441483E+03 -0.16720155061E+03  0.67835580058E+03  0.79786786001E+03  0.15294330000E+03 0.  0.
<mgrwt>
<rscale>  0 0.42003158E+03</rscale>
<asrwt>0</asrwt>
<pdfrwt beam="1">  1        1 0.13275567E+00 0.42003158E+03</pdfrwt>
<pdfrwt beam="2">  1       -1 0.63565301E-01 0.42003158E+03</pdfrwt>
<totfact> 0.52274253E+01</totfact>
</mgrwt>
</event>
<event>
 4    1  0.1852677E-008  0.1212655E+04  0.7818608E-02  0.9101851E-01
         -1   -1    0    0    0  501 -0.00000000000E+00  0.00000000000E+00  0.70498872683E+03  0.70498872685E+03  0.50400000000E-02 0.  1.
          1   -1    0    0  501    0  0.00000000000E+00 -0.00000000000E+00 -0.23613145010E+04  0.23613145010E+04  0.50400000000E-02 0. -1.
    8880022    1    1    2    0    0  0.26700786904E+03  0.11729653716E+04 -0.30455599473E+03  0.12503147492E+04  0.15294330000E+03 0.  0.
    8880022    1    1    2    0    0 -0.26700786904E+03 -0.11729653716E+04 -0.13517697795E+04  0.18159884787E+04  0.15294330000E+03 0.  0.
<mgrwt>
<rscale>  0 0.12126552E+04</rscale>
<asrwt>0</asrwt>
<pdfrwt beam="1">  1        1 0.36327915E+00 0.12126552E+04</pdfrwt>
<pdfrwt beam="2">  1       -1 0.10845981E+00 0.12126552E+04</pdfrwt>
<totfact> 0.13150035E+00</totfact>
</mgrwt>
</event>
<event>
 4    1  0.1852677E-008  0.5656356E+03  0.7818608E-02  0.9979383E-01
         -1   -1    0    0    0  501 -0.00000000000E+00  0.00000000000E+00  0.90808001159E+03  0.90808001160E+03  0.50400000000E-02 0.  1.
          1   -1    0    0  501    0  0.00000000000E+00 -0.00000000000E+00 -0.59371281380E+03  0.59371281382E+03  0.50400000000E-02 0. -1.
    8880022    1    1    2    0    0 -0.50870615735E+03 -0.19434497608E+03 -0.32160658957E+03  0.65067224908E+03  0.15294330000E+03 0.  0.
    8880022    1    1    2    0    0  0.50870615735E+03  0.19434497608E+03  0.63597378736E+03  0.85112057634E+03  0.15294330000E+03 0.  0.
<mgrwt>
<rscale>  0 0.56563555E+03</rscale>
<asrwt>0</asrwt>
<pdfrwt beam="1">  1        1 0.91340433E-01 0.56563555E+03</pdfrwt>
<pdfrwt beam="2">  1       -1 0.13970462E+00 0.56563555E+03</pdfrwt>
<totfact> 0.15444938E+01</totfact>
</mgrwt>
</event>
<event>
 4    1  0.1852677E-008  0.2063909E+03  0.7818608E-02  0.1144456E+00
          1   -1    0    0  501    0  0.00000000000E+00  0.00000000000E+00  0.20858641294E+03  0.20858641300E+03  0.50400000000E-02 0. -1.
         -1   -1    0    0    0  501 -0.00000000000E+00 -0.00000000000E+00 -0.54446405965E+03  0.54446405967E+03  0.50400000000E-02 0.  1.
    8880022    1    1    2    0    0  0.13026094021E+03 -0.47303535047E+02  0.12971108859E+03  0.24376660249E+03  0.15294330000E+03 0. -1.
    8880022    1    1    2    0    0 -0.13026094021E+03  0.47303535047E+02 -0.46558873530E+03  0.50928387018E+03  0.15294330000E+03 0.  0.
<mgrwt>
<rscale>  0 0.20639087E+03</rscale>
<asrwt>0</asrwt>
<pdfrwt beam="1">  1        1 0.32090218E-01 0.20639087E+03</pdfrwt>
<pdfrwt beam="2">  1       -1 0.83763701E-01 0.20639087E+03</pdfrwt>
<totfact> 0.20867082E+02</totfact>
</mgrwt>
</event>
<event>
 4    1  0.1852677E-008  0.8784485E+03  0.7818608E-02  0.9452930E-01
          1   -1    0    0  501    0  0.00000000000E+00  0.00000000000E+00  0.35272290452E+04  0.35272290452E+04  0.50400000000E-02 0. -1.
         -1   -1    0    0    0  501 -0.00000000000E+00 -0.00000000000E+00 -0.28912163767E+03  0.28912163772E+03  0.50400000000E-02 0.  1.
    8880022    1    1    2    0    0 -0.56136227722E+03 -0.65814325945E+03  0.67781958136E+03  0.11095545026E+04  0.15294330000E+03 0.  0.
    8880022    1    1    2    0    0  0.56136227722E+03  0.65814325945E+03  0.25602878261E+04  0.27067961803E+04  0.15294330000E+03 0.  0.
<mgrwt>
<rscale>  0 0.87844852E+03</rscale>
<asrwt>0</asrwt>
<pdfrwt beam="1">  1        1 0.54265059E+00 0.87844852E+03</pdfrwt>
<pdfrwt beam="2">  1       -1 0.44480254E-01 0.87844852E+03</pdfrwt>
<totfact> 0.12639807E+00</totfact>
</mgrwt>
</event>
<event>
 4    1  0.1852677E-008  0.1084653E+04  0.7818608E-02  0.9220281E-01
         -1   -1    0    0    0  501 -0.00000000000E+00  0.00000000000E+00  0.20466559208E+04  0.20466559208E+04  0.50400000000E-02 0.  1.
          1   -1    0    0  501    0  0.00000000000E+00 -0.00000000000E+00 -0.64479623464E+03  0.64479623466E+03  0.50400000000E-02 0. -1.
    8880022    1    1    2    0    0 -0.30110700487E+03  0.10307350792E+04  0.11442329758E+04  0.15766232866E+04  0.15294330000E+03 0.  0.
    8880022    1    1    2    0    0  0.30110700487E+03 -0.10307350792E+04  0.25762671035E+03  0.11148288689E+04  0.15294330000E+03 0.  0.
<mgrwt>
<rscale>  0 0.10846529E+04</rscale>
<asrwt>0</asrwt>
<pdfrwt beam="1">  1        1 0.99199420E-01 0.10846529E+04</pdfrwt>
<pdfrwt beam="2">  1       -1 0.31487014E+00 0.10846529E+04</pdfrwt>
<totfact> 0.81817622E-01</totfact>
</mgrwt>
</event>
<event>
 4    1  0.1852677E-008  0.4289531E+03  0.7818608E-02  0.1034191E+00
          1   -1    0    0  501    0  0.00000000000E+00  0.00000000000E+00  0.84297548536E+03  0.84297548538E+03  0.50400000000E-02 0. -1.
         -1   -1    0    0    0  501 -0.00000000000E+00 -0.00000000000E+00 -0.33017391643E+03  0.33017391646E+03  0.50400000000E-02 0.  1.
    8880022    1    1    2    0    0  0.33852733575E+03  0.21449551360E+03  0.59788000872E+03  0.73584049919E+03  0.15294330000E+03 0. -1.
    8880022    1    1    2    0    0 -0.33852733575E+03 -0.21449551360E+03 -0.85078439781E+02  0.43730890265E+03  0.15294330000E+03 0.  0.
<mgrwt>
<rscale>  0 0.42895307E+03</rscale>
<asrwt>0</asrwt>
<pdfrwt beam="1">  1        1 0.12968853E+00 0.42895307E+03</pdfrwt>
<pdfrwt beam="2">  1       -1 0.50795988E-01 0.42895307E+03</pdfrwt>
<totfact> 0.83482391E+01</totfact>
</mgrwt>
</event>
<event>
 4    1  0.1852677E-008  0.1072916E+04  0.7818608E-02  0.9231999E-01
          1   -1    0    0  501    0  0.00000000000E+00  0.00000000000E+00  0.26572266348E+04  0.26572266348E+04  0.50400000000E-02 0. -1.
         -1   -1    0    0    0  501 -0.00000000000E+00 -0.00000000000E+00 -0.11342143762E+04  0.11342143762E+04  0.50400000000E-02 0.  1.
    8880022    1    1    2    0    0 -0.10558279508E+04 -0.11395018936E+03  0.22518473781E+04  0.24943868134E+04  0.15294330000E+03 0.  0.
    8880022    1    1    2    0    0  0.10558279508E+04  0.11395018936E+03 -0.72883511951E+03  0.12970541977E+04  0.15294330000E+03 0.  0.
<mgrwt>
<rscale>  0 0.10729161E+04</rscale>
<asrwt>0</asrwt>
<pdfrwt beam="1">  1        1 0.40880410E+00 0.10729161E+04</pdfrwt>
<pdfrwt beam="2">  1       -1 0.17449452E+00 0.10729161E+04</pdfrwt>
<totfact> 0.24197312E-01</totfact>
</mgrwt>
</event>
<event>
 4    1  0.1852677E-008  0.4450621E+03  0.7818608E-02  0.1029205E+00
         -1   -1    0    0    0  501 -0.00000000000E+00  0.00000000000E+00  0.45154874498E+03  0.45154874501E+03  0.50400000000E-02 0.  1.
          1   -1    0    0  501    0  0.00000000000E+00 -0.00000000000E+00 -0.22416334225E+04  0.22416334225E+04  0.50400000000E-02 0. -1.
    8880022    1    1    2    0    0  0.10053266048E+03  0.40568680832E+03  0.31262428724E+03  0.54388804019E+03  0.15294330000E+03 0.  1.
    8880022    1    1    2    0    0 -0.10053266048E+03 -0.40568680832E+03 -0.21027089647E+04  0.21492941273E+04  0.15294330000E+03 0.  0.
<mgrwt>
<rscale>  0 0.44506208E+03</rscale>
<asrwt>0</asrwt>
<pdfrwt beam="1">  1        1 0.34486667E+00 0.44506208E+03</pdfrwt>
<pdfrwt beam="2">  1       -1 0.69469039E-01 0.44506208E+03</pdfrwt>
<totfact> 0.48468508E+00</totfact>
</mgrwt>
</event>
<event>
 4    1  0.1852677E-008  0.1828113E+03  0.7818608E-02  0.1165110E+00
         -1   -1    0    0    0  501 -0.00000000000E+00  0.00000000000E+00  0.86344117464E+03  0.86344117465E+03  0.50400000000E-02 0.  1.
          1   -1    0    0  501    0  0.00000000000E+00 -0.00000000000E+00 -0.39006935591E+03  0.39006935595E+03  0.50400000000E-02 0. -1.
    8880022    1    1    2    0    0 -0.66388898433E+02 -0.74972305802E+02  0.83153331468E+03  0.85139158964E+03  0.15294330000E+03 0.  1.
    8880022    1    1    2    0    0  0.66388898433E+02  0.74972305802E+02 -0.35816149596E+03  0.40211894095E+03  0.15294330000E+03 0.  0.
<mgrwt>
<rscale>  0 0.18281134E+03</rscale>
<asrwt>0</asrwt>
<pdfrwt beam="1">  1        1 0.60010671E-01 0.18281134E+03</pdfrwt>
<pdfrwt beam="2">  1       -1 0.13283710E+00 0.18281134E+03</pdfrwt>
<totfact> 0.33648000E+01</totfact>
</mgrwt>
</event>
<event>
 4    1  0.1852677E-008  0.6290792E+03  0.7818608E-02  0.9846847E-01
         -1   -1    0    0    0  501 -0.00000000000E+00  0.00000000000E+00  0.37352746229E+03  0.37352746233E+03  0.50400000000E-02 0.  1.
          1   -1    0    0  501    0  0.00000000000E+00 -0.00000000000E+00 -0.13734931794E+04  0.13734931794E+04  0.50400000000E-02 0. -1.
    8880022    1    1    2    0    0 -0.92996449889E+02  0.60307595233E+03 -0.91765609405E+03  0.11125795720E+04  0.15294330000E+03 0.  0.
    8880022    1    1    2    0    0  0.92996449889E+02 -0.60307595233E+03 -0.82309623065E+02  0.63444106979E+03  0.15294330000E+03 0.  0.
<mgrwt>
<rscale>  0 0.62907917E+03</rscale>
<asrwt>0</asrwt>
<pdfrwt beam="1">  1        1 0.21130664E+00 0.62907917E+03</pdfrwt>
<pdfrwt beam="2">  1       -1 0.57465764E-01 0.62907917E+03</pdfrwt>
<totfact> 0.25794165E+01</totfact>
</mgrwt>
</event>
<event>
 4    1  0.1852677E-008  0.5631736E+03  0.7818608E-02  0.9984899E-01
         -1   -1    0    0    0  501 -0.00000000000E+00  0.00000000000E+00  0.47589289776E+03  0.47589289779E+03  0.50400000000E-02 0.  1.
          1   -1    0    0  501    0  0.00000000000E+00 -0.00000000000E+00 -0.20081583577E+04  0.20081583577E+04  0.50400000000E-02 0. -1.
    8880022    1    1    2    0    0 -0.14189254396E+03  0.52310550982E+03  0.24908385208E+03  0.61579808933E+03  0.15294330000E+03 0.  0.
    8880022    1    1    2    0    0  0.14189254396E+03 -0.52310550982E+03 -0.17813493120E+04  0.18682531661E+04  0.15294330000E+03 0. -1.
<mgrwt>
<rscale>  0 0.56317362E+03</rscale>
<asrwt>0</asrwt>
<pdfrwt beam="1">  1        1 0.30894743E+00 0.56317362E+03</pdfrwt>
<pdfrwt beam="2">  1       -1 0.73214293E-01 0.56317362E+03</pdfrwt>
<totfact> 0.60238443E+00</totfact>
</mgrwt>
</event>
<event>
 4    1  0.1852677E-008  0.4984108E+03  0.7818608E-02  0.1014195E+00
          1   -1    0    0  501    0  0.00000000000E+00  0.00000000000E+00  0.10601945181E+04  0.10601945182E+04  0.50400000000E-02 0. -1.
         -1   -1    0    0    0  501 -0.00000000000E+00 -0.00000000000E+00 -0.58433900253E+03  0.58433900255E+03  0.50400000000E-02 0.  1.
    8880022    1    1    2    0    0 -0.60730304090E+02  0.47046094437E+03  0.87433162834E+03  0.10064139900E+04  0.15294330000E+03 0.  0.
    8880022    1    1    2    0    0  0.60730304090E+02 -0.47046094437E+03 -0.39847611272E+03  0.63811953068E+03  0.15294330000E+03 0.  0.
<mgrwt>
<rscale>  0 0.49841080E+03</rscale>
<asrwt>0</asrwt>
<pdfrwt beam="1">  1        1 0.16310685E+00 0.49841080E+03</pdfrwt>
<pdfrwt beam="2">  1       -1 0.89898310E-01 0.49841080E+03</pdfrwt>
<totfact> 0.17638275E+01</totfact>
</mgrwt>
</event>
<event>
 4    1  0.1852677E-008  0.2731341E+03  0.7818608E-02  0.1099499E+00
          1   -1    0    0  501    0  0.00000000000E+00  0.00000000000E+00  0.39561348446E+03  0.39561348449E+03  0.50400000000E-02 0. -1.
         -1   -1    0    0    0  501 -0.00000000000E+00 -0.00000000000E+00 -0.24240367729E+03  0.24240367735E+03  0.50400000000E-02 0.  1.
    8880022    1    1    2    0    0 -0.15875368395E+03 -0.16126942507E+03  0.22693493131E+03  0.35510797752E+03  0.15294330000E+03 0.  0.
    8880022    1    1    2    0    0  0.15875368395E+03  0.16126942507E+03 -0.73725124146E+02  0.28290918432E+03  0.15294330000E+03 0.  0.
<mgrwt>
<rscale>  0 0.27313406E+03</rscale>
<asrwt>0</asrwt>
<pdfrwt beam="1">  1        1 0.60863612E-01 0.27313406E+03</pdfrwt>
<pdfrwt beam="2">  1       -1 0.37292874E-01 0.27313406E+03</pdfrwt>
<totfact> 0.43236236E+02</totfact>
</mgrwt>
</event>
<event>
 4    1  0.1852677E-008  0.7873289E+03  0.7818608E-02  0.9578541E-01
          1   -1    0    0  501    0  0.00000000000E+00  0.00000000000E+00  0.23392232597E+04  0.23392232597E+04  0.50400000000E-02 0. -1.
         -1   -1    0    0    0  501 -0.00000000000E+00 -0.00000000000E+00 -0.35893508281E+03  0.35893508284E+03  0.50400000000E-02 0.  1.
    8880022    1    1    2    0    0  0.71856216299E+03 -0.28313174773E+03  0.29998271456E+03  0.84254166111E+03  0.15294330000E+03 0.  0.
    8880022    1    1    2    0    0 -0.71856216299E+03  0.28313174773E+03  0.16803054623E+04  0.18556166814E+04  0.15294330000E+03 0.  0.
<mgrwt>
<rscale>  0 0.78732892E+03</rscale>
<asrwt>0</asrwt>
<pdfrwt beam="1">  1        1 0.35988048E+00 0.78732892E+03</pdfrwt>
<pdfrwt beam="2">  1       -1 0.55220785E-01 0.78732892E+03</pdfrwt>
<totfact> 0.60772975E+00</totfact>
</mgrwt>
</event>
<event>
 4    1  0.1852677E-008  0.2137895E+03  0.7818608E-02  0.1138600E+00
          1   -1    0    0  501    0  0.00000000000E+00  0.00000000000E+00  0.16746863157E+03  0.16746863164E+03  0.50400000000E-02 0. -1.
         -1   -1    0    0    0  501 -0.00000000000E+00 -0.00000000000E+00 -0.14175833602E+04  0.14175833602E+04  0.50400000000E-02 0.  1.
    8880022    1    1    2    0    0 -0.25070719056E+02  0.14726088766E+03  0.87102712246E+02  0.23085243227E+03  0.15294330000E+03 0. -1.
    8880022    1    1    2    0    0  0.25070719056E+02 -0.14726088766E+03 -0.13372174409E+04  0.13541995596E+04  0.15294330000E+03 0.  0.
<mgrwt>
<rscale>  0 0.21378953E+03</rscale>
<asrwt>0</asrwt>
<pdfrwt beam="1">  1        1 0.25764406E-01 0.21378953E+03</pdfrwt>
<pdfrwt beam="2">  1       -1 0.21808974E+00 0.21378953E+03</pdfrwt>
<totfact> 0.23934826E+01</totfact>
</mgrwt>
</event>
<event>
 4    1  0.1852677E-008  0.3199231E+03  0.7818608E-02  0.1075685E+00
         -1   -1    0    0    0  501 -0.00000000000E+00  0.00000000000E+00  0.46763329312E+03  0.46763329315E+03  0.50400000000E-02 0.  1.
          1   -1    0    0  501    0  0.00000000000E+00 -0.00000000000E+00 -0.36082390965E+03  0.36082390968E+03  0.50400000000E-02 0. -1.
    8880022    1    1    2    0    0  0.26682325092E+03  0.88116377177E+02  0.31322102157E+03  0.44772559065E+03  0.15294330000E+03 0.  0.
    8880022    1    1    2    0    0 -0.26682325092E+03 -0.88116377177E+02 -0.20641163810E+03  0.38073161218E+03  0.15294330000E+03 0.  0.
<mgrwt>
<rscale>  0 0.31992311E+03</rscale>
<asrwt>0</asrwt>
<pdfrwt beam="1">  1        1 0.55511371E-01 0.31992311E+03</pdfrwt>
<pdfrwt beam="2">  1       -1 0.71943584E-01 0.31992311E+03</pdfrwt>
<totfact> 0.14093100E+02</totfact>
</mgrwt>
</event>
<event>
 4    1  0.1852677E-008  0.1209737E+04  0.7818608E-02  0.9104376E-01
          1   -1    0    0  501    0  0.00000000000E+00  0.00000000000E+00  0.34608566987E+04  0.34608566987E+04  0.50400000000E-02 0. -1.
         -1   -1    0    0    0  501 -0.00000000000E+00 -0.00000000000E+00 -0.44804676656E+03  0.44804676658E+03  0.50400000000E-02 0.  1.
    8880022    1    1    2    0    0  0.41253896216E+03 -0.11268914246E+04  0.10430291410E+04  0.15973021380E+04  0.15294330000E+03 0.  0.
    8880022    1    1    2    0    0 -0.41253896216E+03  0.11268914246E+04  0.19697807912E+04  0.23116013273E+04  0.15294330000E+03 0.  0.
<mgrwt>
<rscale>  0 0.12097373E+04</rscale>
<asrwt>0</asrwt>
<pdfrwt beam="1">  1        1 0.53243946E+00 0.12097373E+04</pdfrwt>
<pdfrwt beam="2">  1       -1 0.68930276E-01 0.12097373E+04</pdfrwt>
<totfact> 0.57408373E-01</totfact>
</mgrwt>
</event>
<event>
 4    1  0.1852677E-008  0.6548479E+03  0.7818608E-02  0.9797725E-01
         -1   -1    0    0    0  501 -0.00000000000E+00  0.00000000000E+00  0.12686020612E+04  0.12686020612E+04  0.50400000000E-02 0.  1.
          1   -1    0    0  501    0  0.00000000000E+00 -0.00000000000E+00 -0.45536674729E+03  0.45536674732E+03  0.50400000000E-02 0. -1.
    8880022    1    1    2    0    0 -0.30866209053E+02  0.63598847629E+03 -0.30940249844E+02  0.65557838350E+03  0.15294330000E+03 0.  0.
    8880022    1    1    2    0    0  0.30866209053E+02 -0.63598847629E+03  0.84417556379E+03  0.10683904251E+04  0.15294330000E+03 0.  0.
<mgrwt>
<rscale>  0 0.65484786E+03</rscale>
<asrwt>0</asrwt>
<pdfrwt beam="1">  1        1 0.70056422E-01 0.65484786E+03</pdfrwt>
<pdfrwt beam="2">  1       -1 0.19516955E+00 0.65484786E+03</pdfrwt>
<totfact> 0.85678694E+00</totfact>
</mgrwt>
</event>
<event>
 4    1  0.1852677E-008  0.6850032E+03  0.7818608E-02  0.9743228E-01
          1   -1    0    0  501    0  0.00000000000E+00  0.00000000000E+00  0.16789272991E+04  0.16789272991E+04  0.50400000000E-02 0. -1.
         -1   -1    0    0    0  501 -0.00000000000E+00 -0.00000000000E+00 -0.52554190882E+03  0.52554190885E+03  0.50400000000E-02 0.  1.
    8880022    1    1    2    0    0 -0.29615098396E+03  0.59844162283E+03  0.13309005821E+04  0.14968385998E+04  0.15294330000E+03 0.  0.
    8880022    1    1    2    0    0  0.29615098396E+03 -0.59844162283E+03 -0.17751519188E+03  0.70763060816E+03  0.15294330000E+03 0.  0.
<mgrwt>
<rscale>  0 0.68500324E+03</rscale>
<asrwt>0</asrwt>
<pdfrwt beam="1">  1        1 0.25829651E+00 0.68500324E+03</pdfrwt>
<pdfrwt beam="2">  1       -1 0.80852602E-01 0.68500324E+03</pdfrwt>
<totfact> 0.79160288E+00</totfact>
</mgrwt>
</event>
<event>
 4    1  0.1852677E-008  0.3050556E+03  0.7818608E-02  0.1082740E+00
          1   -1    0    0  501    0  0.00000000000E+00  0.00000000000E+00  0.57031281387E+03  0.57031281389E+03  0.50400000000E-02 0. -1.
         -1   -1    0    0    0  501 -0.00000000000E+00 -0.00000000000E+00 -0.64599697457E+03  0.64599697459E+03  0.50400000000E-02 0.  1.
    8880022    1    1    2    0    0  0.17648734864E+03  0.19626373269E+03  0.48792571274E+03  0.57543930277E+03  0.15294330000E+03 0.  0.
    8880022    1    1    2    0    0 -0.17648734864E+03 -0.19626373269E+03 -0.56360987344E+03  0.64087048571E+03  0.15294330000E+03 0.  0.
<mgrwt>
<rscale>  0 0.30505555E+03</rscale>
<asrwt>0</asrwt>
<pdfrwt beam="1">  1        1 0.87740433E-01 0.30505555E+03</pdfrwt>
<pdfrwt beam="2">  1       -1 0.99384150E-01 0.30505555E+03</pdfrwt>
<totfact> 0.38840878E+01</totfact>
</mgrwt>
</event>
<event>
 4    1  0.1852677E-008  0.4155442E+03  0.7818608E-02  0.1038526E+00
          1   -1    0    0  501    0  0.00000000000E+00  0.00000000000E+00  0.82878338804E+03  0.82878338806E+03  0.50400000000E-02 0. -1.
         -1   -1    0    0    0  501 -0.00000000000E+00 -0.00000000000E+00 -0.35478010114E+03  0.35478010117E+03  0.50400000000E-02 0.  1.
    8880022    1    1    2    0    0 -0.23044096143E+03  0.31013272190E+03  0.61718855479E+03  0.74404214066E+03  0.15294330000E+03 0.  0.
    8880022    1    1    2    0    0  0.23044096143E+03 -0.31013272190E+03 -0.14318526788E+03  0.43952134858E+03  0.15294330000E+03 0.  1.
<mgrwt>
<rscale>  0 0.41554422E+03</rscale>
<asrwt>0</asrwt>
<pdfrwt beam="1">  1        1 0.12750514E+00 0.41554422E+03</pdfrwt>
<pdfrwt beam="2">  1       -1 0.54581555E-01 0.41554422E+03</pdfrwt>
<totfact> 0.75017340E+01</totfact>
</mgrwt>
</event>
<event>
 4    1  0.1852677E-008  0.9720210E+03  0.7818608E-02  0.9339775E-01
          1   -1    0    0  501    0  0.00000000000E+00  0.00000000000E+00  0.14819111935E+04  0.14819111935E+04  0.50400000000E-02 0. -1.
         -1   -1    0    0    0  501 -0.00000000000E+00 -0.00000000000E+00 -0.85565557484E+03  0.85565557486E+03  0.50400000000E-02 0.  1.
    8880022    1    1    2    0    0  0.79226117445E+03  0.54199197965E+03 -0.27693229903E+03  0.10107008587E+04  0.15294330000E+03 0.  0.
    8880022    1    1    2    0    0 -0.79226117445E+03 -0.54199197965E+03  0.90318791770E+03  0.13268659097E+04  0.15294330000E+03 0.  0.
<mgrwt>
<rscale>  0 0.97202095E+03</rscale>
<asrwt>0</asrwt>
<pdfrwt beam="1">  1        1 0.22798634E+00 0.97202095E+03</pdfrwt>
<pdfrwt beam="2">  1       -1 0.13163932E+00 0.97202095E+03</pdfrwt>
<totfact> 0.33378319E+00</totfact>
</mgrwt>
</event>
<event>
 4    1  0.1852677E-008  0.4997001E+03  0.7818608E-02  0.1013857E+00
         -1   -1    0    0    0  501 -0.00000000000E+00  0.00000000000E+00  0.35408277553E+03  0.35408277556E+03  0.50400000000E-02 0.  1.
          1   -1    0    0  501    0  0.00000000000E+00 -0.00000000000E+00 -0.89836231082E+03  0.89836231084E+03  0.50400000000E-02 0. -1.
    8880022    1    1    2    0    0 -0.45857763043E+03 -0.12655081333E+03  0.18236325714E+02  0.50003276700E+03  0.15294330000E+03 0.  0.
    8880022    1    1    2    0    0  0.45857763043E+03  0.12655081333E+03 -0.56251586101E+03  0.75241231940E+03  0.15294330000E+03 0.  0.
<mgrwt>
<rscale>  0 0.49970011E+03</rscale>
<asrwt>0</asrwt>
<pdfrwt beam="1">  1        1 0.13820959E+00 0.49970011E+03</pdfrwt>
<pdfrwt beam="2">  1       -1 0.54474273E-01 0.49970011E+03</pdfrwt>
<totfact> 0.65251309E+01</totfact>
</mgrwt>
</event>
<event>
 4    1  0.1852677E-008  0.2981806E+03  0.7818608E-02  0.1086154E+00
          1   -1    0    0  501    0  0.00000000000E+00  0.00000000000E+00  0.11434917244E+03  0.11434917255E+03  0.50400000000E-02 0. -1.
         -1   -1    0    0    0  501 -0.00000000000E+00 -0.00000000000E+00 -0.83573500956E+03  0.83573500957E+03  0.50400000000E-02 0.  1.
    8880022    1    1    2    0    0 -0.43873202885E+01 -0.25593122663E+03 -0.23534422232E+03  0.37986655201E+03  0.15294330000E+03 0.  0.
    8880022    1    1    2    0    0  0.43873202885E+01  0.25593122663E+03 -0.48604161480E+03  0.57021763010E+03  0.15294330000E+03 0.  0.
<mgrwt>
<rscale>  0 0.29818064E+03</rscale>
<asrwt>0</asrwt>
<pdfrwt beam="1">  1        1 0.17592181E-01 0.29818064E+03</pdfrwt>
<pdfrwt beam="2">  1       -1 0.12857461E+00 0.29818064E+03</pdfrwt>
<totfact> 0.16920430E+02</totfact>
</mgrwt>
</event>
<event>
 4    1  0.1852677E-008  0.3703183E+03  0.7818608E-02  0.1054571E+00
         -1   -1    0    0    0  501 -0.00000000000E+00  0.00000000000E+00  0.30990244884E+03  0.30990244888E+03  0.50400000000E-02 0.  1.
          1   -1    0    0  501    0  0.00000000000E+00 -0.00000000000E+00 -0.25047199035E+04  0.25047199035E+04  0.50400000000E-02 0. -1.
    8880022    1    1    2    0    0 -0.28274696275E+03  0.18384266959E+03 -0.23743671353E+04  0.24030719753E+04  0.15294330000E+03 0.  0.
    8880022    1    1    2    0    0  0.28274696275E+03 -0.18384266959E+03  0.17954968062E+03  0.41155037715E+03  0.15294330000E+03 0.  0.
<mgrwt>
<rscale>  0 0.37031828E+03</rscale>
<asrwt>0</asrwt>
<pdfrwt beam="1">  1        1 0.38534151E+00 0.37031828E+03</pdfrwt>
<pdfrwt beam="2">  1       -1 0.47677302E-01 0.37031828E+03</pdfrwt>
<totfact> 0.68670366E+00</totfact>
</mgrwt>
</event>
<event>
 4    1  0.1852677E-008  0.6870014E+03  0.7818608E-02  0.9739723E-01
          1   -1    0    0  501    0  0.00000000000E+00  0.00000000000E+00  0.20534561968E+04  0.20534561968E+04  0.50400000000E-02 0. -1.
         -1   -1    0    0    0  501 -0.00000000000E+00 -0.00000000000E+00 -0.39167155777E+03  0.39167155780E+03  0.50400000000E-02 0.  1.
    8880022    1    1    2    0    0 -0.10084763804E+03  0.66212463988E+03  0.16167414302E+04  0.17566513001E+04  0.15294330000E+03 0.  0.
    8880022    1    1    2    0    0  0.10084763804E+03 -0.66212463988E+03  0.45043208861E+02  0.68847645459E+03  0.15294330000E+03 0.  0.
<mgrwt>
<rscale>  0 0.68700141E+03</rscale>
<asrwt>0</asrwt>
<pdfrwt beam="1">  1        1 0.31591634E+00 0.68700141E+03</pdfrwt>
<pdfrwt beam="2">  1       -1 0.60257162E-01 0.68700141E+03</pdfrwt>
<totfact> 0.81103321E+00</totfact>
</mgrwt>
</event>
<event>
 4    1  0.1852677E-008  0.4460570E+03  0.7818608E-02  0.1028904E+00
          1   -1    0    0  501    0  0.00000000000E+00  0.00000000000E+00  0.17306272393E+04  0.17306272393E+04  0.50400000000E-02 0. -1.
         -1   -1    0    0    0  501 -0.00000000000E+00 -0.00000000000E+00 -0.14419055374E+03  0.14419055383E+03  0.50400000000E-02 0.  1.
    8880022    1    1    2    0    0 -0.10108907988E+03 -0.40664016502E+03  0.12152249071E+04  0.12945031687E+04  0.15294330000E+03 0.  0.
    8880022    1    1    2    0    0  0.10108907988E+03  0.40664016502E+03  0.37121177847E+03  0.58031462446E+03  0.15294330000E+03 0.  0.
<mgrwt>
<rscale>  0 0.44605704E+03</rscale>
<asrwt>0</asrwt>
<pdfrwt beam="1">  1        1 0.26625035E+00 0.44605704E+03</pdfrwt>
<pdfrwt beam="2">  1       -1 0.22183162E-01 0.44605704E+03</pdfrwt>
<totfact> 0.83322543E+01</totfact>
</mgrwt>
</event>
<event>
 4    1  0.1852677E-008  0.1047450E+04  0.7818608E-02  0.9257980E-01
         -1   -1    0    0    0  501 -0.00000000000E+00  0.00000000000E+00  0.94330676544E+03  0.94330676545E+03  0.50400000000E-02 0.  1.
          1   -1    0    0  501    0  0.00000000000E+00 -0.00000000000E+00 -0.14756923667E+04  0.14756923667E+04  0.50400000000E-02 0. -1.
    8880022    1    1    2    0    0 -0.91297921415E+03 -0.49013195564E+03 -0.82286934924E+03  0.13320157650E+04  0.15294330000E+03 0.  0.
    8880022    1    1    2    0    0  0.91297921415E+03  0.49013195564E+03  0.29048374802E+03  0.10869833671E+04  0.15294330000E+03 0.  0.
<mgrwt>
<rscale>  0 0.10474503E+04</rscale>
<asrwt>0</asrwt>
<pdfrwt beam="1">  1        1 0.22702960E+00 0.10474503E+04</pdfrwt>
<pdfrwt beam="2">  1       -1 0.14512412E+00 0.10474503E+04</pdfrwt>
<totfact> 0.25901566E+00</totfact>
</mgrwt>
</event>
<event>
 4    1  0.1852677E-008  0.2945509E+03  0.7818608E-02  0.1087997E+00
         -1   -1    0    0    0  501 -0.00000000000E+00  0.00000000000E+00  0.15640910954E+04  0.15640910954E+04  0.50400000000E-02 0.  1.
          1   -1    0    0  501    0  0.00000000000E+00 -0.00000000000E+00 -0.16750382797E+03  0.16750382805E+03  0.50400000000E-02 0. -1.
    8880022    1    1    2    0    0  0.17007835658E+03  0.18558544825E+03  0.14063671836E+04  0.14368816633E+04  0.15294330000E+03 0.  0.
    8880022    1    1    2    0    0 -0.17007835658E+03 -0.18558544825E+03 -0.97799161835E+01  0.29471326023E+03  0.15294330000E+03 0. -1.
<mgrwt>
<rscale>  0 0.29455094E+03</rscale>
<asrwt>0</asrwt>
<pdfrwt beam="1">  1        1 0.25769820E-01 0.29455094E+03</pdfrwt>
<pdfrwt beam="2">  1       -1 0.24062940E+00 0.29455094E+03</pdfrwt>
<totfact> 0.16747529E+01</totfact>
</mgrwt>
</event>
<event>
 4    1  0.1852677E-008  0.5166116E+03  0.7818608E-02  0.1009532E+00
          1   -1    0    0  501    0  0.00000000000E+00  0.00000000000E+00  0.80241350112E+03  0.80241350114E+03  0.50400000000E-02 0. -1.
         -1   -1    0    0    0  501 -0.00000000000E+00 -0.00000000000E+00 -0.36670987503E+03  0.36670987507E+03  0.50400000000E-02 0.  1.
    8880022    1    1    2    0    0 -0.49288087183E+03 -0.23755512585E+02  0.39584787011E+02  0.51812593698E+03  0.15294330000E+03 0.  0.
    8880022    1    1    2    0    0  0.49288087183E+03  0.23755512585E+02  0.39611883908E+03  0.65099743923E+03  0.15294330000E+03 0.  0.
<mgrwt>
<rscale>  0 0.51661159E+03</rscale>
<asrwt>0</asrwt>
<pdfrwt beam="1">  1        1 0.12344823E+00 0.51661159E+03</pdfrwt>
<pdfrwt beam="2">  1       -1 0.56416904E-01 0.51661159E+03</pdfrwt>
<totfact> 0.73103806E+01</totfact>
</mgrwt>
</event>
<event>
 4    1  0.1852677E-008  0.5473450E+03  0.7818608E-02  0.1002110E+00
          1   -1    0    0  501    0  0.00000000000E+00  0.00000000000E+00  0.98400002465E+03  0.98400002466E+03  0.50400000000E-02 0. -1.
         -1   -1    0    0    0  501 -0.00000000000E+00 -0.00000000000E+00 -0.32914249659E+03  0.32914249663E+03  0.50400000000E-02 0.  1.
    8880022    1    1    2    0    0  0.18744689997E+03  0.49097719547E+03  0.14762336023E+03  0.56690321597E+03  0.15294330000E+03 0.  0.
    8880022    1    1    2    0    0 -0.18744689997E+03 -0.49097719547E+03  0.50723416782E+03  0.74623930532E+03  0.15294330000E+03 0.  0.
<mgrwt>
<rscale>  0 0.54734505E+03</rscale>
<asrwt>0</asrwt>
<pdfrwt beam="1">  1        1 0.15138462E+00 0.54734505E+03</pdfrwt>
<pdfrwt beam="2">  1       -1 0.50637308E-01 0.54734505E+03</pdfrwt>
<totfact> 0.63772661E+01</totfact>
</mgrwt>
</event>
<event>
 4    1  0.1852677E-008  0.7020328E+03  0.7818608E-02  0.9713762E-01
         -1   -1    0    0    0  501 -0.00000000000E+00  0.00000000000E+00  0.84823533184E+03  0.84823533186E+03  0.50400000000E-02 0.  1.
          1   -1    0    0  501    0  0.00000000000E+00 -0.00000000000E+00 -0.59339594756E+03  0.59339594759E+03  0.50400000000E-02 0. -1.
    8880022    1    1    2    0    0  0.67973634159E+03 -0.86121443500E+02  0.23147594827E+03  0.73920982457E+03  0.15294330000E+03 0.  0.
    8880022    1    1    2    0    0 -0.67973634159E+03  0.86121443500E+02  0.23363436010E+02  0.70242145487E+03  0.15294330000E+03 0.  0.
<mgrwt>
<rscale>  0 0.70203280E+03</rscale>
<asrwt>0</asrwt>
<pdfrwt beam="1">  1        1 0.91291684E-01 0.70203280E+03</pdfrwt>
<pdfrwt beam="2">  1       -1 0.13049774E+00 0.70203280E+03</pdfrwt>
<totfact> 0.18050620E+01</totfact>
</mgrwt>
</event>
<event>
 4    1  0.1852677E-008  0.3388971E+03  0.7818608E-02  0.1067267E+00
         -1   -1    0    0    0  501 -0.00000000000E+00  0.00000000000E+00  0.71721873256E+03  0.71721873258E+03  0.50400000000E-02 0.  1.
          1   -1    0    0  501    0  0.00000000000E+00 -0.00000000000E+00 -0.44506922747E+03  0.44506922750E+03  0.50400000000E-02 0. -1.
    8880022    1    1    2    0    0 -0.69985251287E+02 -0.29421366802E+03  0.60106394154E+03  0.69002111032E+03  0.15294330000E+03 0.  0.
    8880022    1    1    2    0    0  0.69985251287E+02  0.29421366802E+03 -0.32891443645E+03  0.47226684975E+03  0.15294330000E+03 0.  0.
<mgrwt>
<rscale>  0 0.33889714E+03</rscale>
<asrwt>0</asrwt>
<pdfrwt beam="1">  1        1 0.68472189E-01 0.33889714E+03</pdfrwt>
<pdfrwt beam="2">  1       -1 0.11034134E+00 0.33889714E+03</pdfrwt>
<totfact> 0.42412065E+01</totfact>
</mgrwt>
</event>
<event>
 4    1  0.1852677E-008  0.5412887E+03  0.7818608E-02  0.1003531E+00
         -1   -1    0    0    0  501 -0.00000000000E+00  0.00000000000E+00  0.11402648589E+04  0.11402648589E+04  0.50400000000E-02 0.  1.
          1   -1    0    0  501    0  0.00000000000E+00 -0.00000000000E+00 -0.49445249849E+03  0.49445249851E+03  0.50400000000E-02 0. -1.
    8880022    1    1    2    0    0 -0.81923440699E+02  0.51272838395E+03  0.88938349490E+03  0.10411515259E+04  0.15294330000E+03 0.  0.
    8880022    1    1    2    0    0  0.81923440699E+02 -0.51272838395E+03 -0.24357113446E+03  0.59356583156E+03  0.15294330000E+03 0.  0.
<mgrwt>
<rscale>  0 0.54128874E+03</rscale>
<asrwt>0</asrwt>
<pdfrwt beam="1">  1        1 0.76069615E-01 0.54128874E+03</pdfrwt>
<pdfrwt beam="2">  1       -1 0.17542536E+00 0.54128874E+03</pdfrwt>
<totfact> 0.10737402E+01</totfact>
</mgrwt>
</event>
<event>
 4    1  0.1852677E-008  0.2070582E+03  0.7818608E-02  0.1143917E+00
         -1   -1    0    0    0  501 -0.00000000000E+00  0.00000000000E+00  0.16862096606E+03  0.16862096614E+03  0.50400000000E-02 0.  1.
          1   -1    0    0  501    0  0.00000000000E+00 -0.00000000000E+00 -0.36398353352E+03  0.36398353355E+03  0.50400000000E-02 0. -1.
    8880022    1    1    2    0    0 -0.12684644144E+02  0.13899843502E+03 -0.24389534015E+03  0.31993445437E+03  0.15294330000E+03 0. -1.
    8880022    1    1    2    0    0  0.12684644144E+02 -0.13899843502E+03  0.48532772689E+02  0.21267004532E+03  0.15294330000E+03 0.  0.
<mgrwt>
<rscale>  0 0.20705825E+03</rscale>
<asrwt>0</asrwt>
<pdfrwt beam="1">  1        1 0.55997467E-01 0.20705825E+03</pdfrwt>
<pdfrwt beam="2">  1       -1 0.25941687E-01 0.20705825E+03</pdfrwt>
<totfact> 0.89616885E+02</totfact>
</mgrwt>
</event>
<event>
 4    1  0.1852677E-008  0.7443276E+03  0.7818608E-02  0.9644292E-01
         -1   -1    0    0    0  501 -0.00000000000E+00  0.00000000000E+00  0.48357820210E+03  0.48357820212E+03  0.50400000000E-02 0.  1.
          1   -1    0    0  501    0  0.00000000000E+00 -0.00000000000E+00 -0.18222031831E+04  0.18222031831E+04  0.50400000000E-02 0. -1.
    8880022    1    1    2    0    0  0.53018232724E+03 -0.49953844213E+03 -0.13717902494E+04  0.15607152517E+04  0.15294330000E+03 0.  0.
    8880022    1    1    2    0    0 -0.53018232724E+03  0.49953844213E+03  0.33165268481E+02  0.74506613353E+03  0.15294330000E+03 0.  0.
<mgrwt>
<rscale>  0 0.74432762E+03</rscale>
<asrwt>0</asrwt>
<pdfrwt beam="1">  1        1 0.28033895E+00 0.74432762E+03</pdfrwt>
<pdfrwt beam="2">  1       -1 0.74396647E-01 0.74432762E+03</pdfrwt>
<totfact> 0.74823760E+00</totfact>
</mgrwt>
</event>
<event>
 4    1  0.1852677E-008  0.7970494E+03  0.7818608E-02  0.9564298E-01
          1   -1    0    0  501    0  0.00000000000E+00  0.00000000000E+00  0.25771092563E+04  0.25771092563E+04  0.50400000000E-02 0. -1.
         -1   -1    0    0    0  501 -0.00000000000E+00 -0.00000000000E+00 -0.41620593818E+03  0.41620593821E+03  0.50400000000E-02 0.  1.
    8880022    1    1    2    0    0  0.30854876490E+02  0.78162913506E+03  0.12479526755E+03  0.80675996430E+03  0.15294330000E+03 0.  0.
    8880022    1    1    2    0    0 -0.30854876490E+02 -0.78162913506E+03  0.20361080506E+04  0.21865552302E+04  0.15294330000E+03 0.  0.
<mgrwt>
<rscale>  0 0.79704942E+03</rscale>
<asrwt>0</asrwt>
<pdfrwt beam="1">  1        1 0.39647834E+00 0.79704942E+03</pdfrwt>
<pdfrwt beam="2">  1       -1 0.64031683E-01 0.79704942E+03</pdfrwt>
<totfact> 0.31204777E+00</totfact>
</mgrwt>
</event>
<event>
 4    1  0.1852677E-008  0.5399253E+03  0.7818608E-02  0.1003853E+00
         -1   -1    0    0    0  501 -0.00000000000E+00  0.00000000000E+00  0.20569138676E+04  0.20569138676E+04  0.50400000000E-02 0.  1.
          1   -1    0    0  501    0  0.00000000000E+00 -0.00000000000E+00 -0.51327690990E+03  0.51327690992E+03  0.50400000000E-02 0. -1.
    8880022    1    1    2    0    0  0.50584376065E+03  0.11067844770E+03 -0.32155453698E+03  0.62842390330E+03  0.15294330000E+03 0.  0.
    8880022    1    1    2    0    0 -0.50584376065E+03 -0.11067844770E+03  0.18651914946E+04  0.19417668742E+04  0.15294330000E+03 0.  0.
<mgrwt>
<rscale>  0 0.53992526E+03</rscale>
<asrwt>0</asrwt>
<pdfrwt beam="1">  1        1 0.78965678E-01 0.53992526E+03</pdfrwt>
<pdfrwt beam="2">  1       -1 0.31644829E+00 0.53992526E+03</pdfrwt>
<totfact> 0.12213062E+00</totfact>
</mgrwt>
</event>
<event>
 4    1  0.1852677E-008  0.6958304E+03  0.7818608E-02  0.9724389E-01
          1   -1    0    0  501    0  0.00000000000E+00  0.00000000000E+00  0.13968186253E+04  0.13968186253E+04  0.50400000000E-02 0. -1.
         -1   -1    0    0    0  501 -0.00000000000E+00 -0.00000000000E+00 -0.41358946247E+03  0.41358946250E+03  0.50400000000E-02 0.  1.
    8880022    1    1    2    0    0  0.59900243931E+03 -0.31934989455E+03  0.85583654333E+03  0.11030122934E+04  0.15294330000E+03 0.  0.
    8880022    1    1    2    0    0 -0.59900243931E+03  0.31934989455E+03  0.12739261950E+03  0.70739579442E+03  0.15294330000E+03 0.  0.
<mgrwt>
<rscale>  0 0.69583039E+03</rscale>
<asrwt>0</asrwt>
<pdfrwt beam="1">  1        1 0.21489518E+00 0.69583039E+03</pdfrwt>
<pdfrwt beam="2">  1       -1 0.63629147E-01 0.69583039E+03</pdfrwt>
<totfact> 0.20136732E+01</totfact>
</mgrwt>
</event>
<event>
 4    1  0.1125890E-007  0.8885410E+03  0.7818608E-02  0.9440020E-01
          1   -1    0    0  501    0  0.00000000000E+00  0.00000000000E+00  0.26443215654E+04  0.26443215654E+04  0.50400000000E-02 0. -1.
         -1   -1    0    0    0  501 -0.00000000000E+00 -0.00000000000E+00 -0.23460112302E+04  0.23460112302E+04  0.50400000000E-02 0.  1.
    8880022    1    1    2    0    0 -0.87296007962E+03  0.63671838688E+02 -0.21818358208E+04  0.23558252493E+04  0.15294330000E+03 0.  0.
    8880022    1    1    2    0    0  0.87296007962E+03 -0.63671838688E+02  0.24801461559E+04  0.26345075462E+04  0.15294330000E+03 0.  0.
<mgrwt>
<rscale>  0 0.88854097E+03</rscale>
<asrwt>0</asrwt>
<pdfrwt beam="1">  1        1 0.40681871E+00 0.88854097E+03</pdfrwt>
<pdfrwt beam="2">  1       -1 0.36092480E+00 0.88854097E+03</pdfrwt>
<totfact> 0.15120677E-02</totfact>
</mgrwt>
</event>
<event>
 4    1  0.1852677E-008  0.2517861E+03  0.7818608E-02  0.1112181E+00
         -1   -1    0    0    0  501 -0.00000000000E+00  0.00000000000E+00  0.14500660831E+04  0.14500660831E+04  0.50400000000E-02 0.  1.
          1   -1    0    0  501    0  0.00000000000E+00 -0.00000000000E+00 -0.11202603339E+03  0.11202603350E+03  0.50400000000E-02 0. -1.
    8880022    1    1    2    0    0 -0.65852946590E+02  0.18885962637E+03  0.59134731204E+02  0.25863707874E+03  0.15294330000E+03 0.  0.
    8880022    1    1    2    0    0  0.65852946590E+02 -0.18885962637E+03  0.12789053185E+04  0.13034550379E+04  0.15294330000E+03 0.  0.
<mgrwt>
<rscale>  0 0.25178606E+03</rscale>
<asrwt>0</asrwt>
<pdfrwt beam="1">  1        1 0.17234775E-01 0.25178606E+03</pdfrwt>
<pdfrwt beam="2">  1       -1 0.22308708E+00 0.25178606E+03</pdfrwt>
<totfact> 0.36875248E+01</totfact>
</mgrwt>
</event>
<event>
 4    1  0.1852677E-008  0.6925308E+03  0.7818608E-02  0.9730091E-01
         -1   -1    0    0    0  501 -0.00000000000E+00  0.00000000000E+00  0.21217946232E+03  0.21217946238E+03  0.50400000000E-02 0.  1.
          1   -1    0    0  501    0  0.00000000000E+00 -0.00000000000E+00 -0.30084495074E+04  0.30084495074E+04  0.50400000000E-02 0. -1.
    8880022    1    1    2    0    0 -0.19111608781E+03  0.64782857941E+03 -0.22011438950E+04  0.23075167013E+04  0.15294330000E+03 0.  0.
    8880022    1    1    2    0    0  0.19111608781E+03 -0.64782857941E+03 -0.59512615011E+03  0.91311226850E+03  0.15294330000E+03 0.  0.
<mgrwt>
<rscale>  0 0.69253078E+03</rscale>
<asrwt>0</asrwt>
<pdfrwt beam="1">  1        1 0.46283835E+00 0.69253078E+03</pdfrwt>
<pdfrwt beam="2">  1       -1 0.32642997E-01 0.69253078E+03</pdfrwt>
<totfact> 0.55871454E+00</totfact>
</mgrwt>
</event>
<event>
 4    1  0.1852677E-008  0.6401725E+03  0.7818608E-02  0.9825397E-01
          1   -1    0    0  501    0  0.00000000000E+00  0.00000000000E+00  0.17055716402E+04  0.17055716402E+04  0.50400000000E-02 0. -1.
         -1   -1    0    0    0  501 -0.00000000000E+00 -0.00000000000E+00 -0.86643910816E+03  0.86643910817E+03  0.50400000000E-02 0.  1.
    8880022    1    1    2    0    0  0.56538815115E+03  0.25838997185E+03 -0.67367214818E+03  0.92933038004E+03  0.15294330000E+03 0.  0.
    8880022    1    1    2    0    0 -0.56538815115E+03 -0.25838997185E+03  0.15128046802E+04  0.16426803683E+04  0.15294330000E+03 0.  0.
<mgrwt>
<rscale>  0 0.64017247E+03</rscale>
<asrwt>0</asrwt>
<pdfrwt beam="1">  1        1 0.26239564E+00 0.64017247E+03</pdfrwt>
<pdfrwt beam="2">  1       -1 0.13329832E+00 0.64017247E+03</pdfrwt>
<totfact> 0.24119723E+00</totfact>
</mgrwt>
</event>
<event>
 4    1  0.1852677E-008  0.4561531E+03  0.7818608E-02  0.1025903E+00
          1   -1    0    0  501    0  0.00000000000E+00  0.00000000000E+00  0.26972439677E+04  0.26972439677E+04  0.50400000000E-02 0. -1.
         -1   -1    0    0    0  501 -0.00000000000E+00 -0.00000000000E+00 -0.26292817595E+03  0.26292817600E+03  0.50400000000E-02 0.  1.
    8880022    1    1    2    0    0  0.40800773966E+03 -0.13495823141E+03  0.24613085797E+04  0.25032210485E+04  0.15294330000E+03 0.  0.
    8880022    1    1    2    0    0 -0.40800773966E+03  0.13495823141E+03 -0.26992787940E+02  0.45695109527E+03  0.15294330000E+03 0.  0.
<mgrwt>
<rscale>  0 0.45615315E+03</rscale>
<asrwt>0</asrwt>
<pdfrwt beam="1">  1        1 0.41496063E+00 0.45615315E+03</pdfrwt>
<pdfrwt beam="2">  1       -1 0.40450486E-01 0.45615315E+03</pdfrwt>
<totfact> 0.66711636E+00</totfact>
</mgrwt>
</event>
<event>
 4    1  0.1852677E-008  0.5858852E+03  0.7818608E-02  0.9935130E-01
          1   -1    0    0  501    0  0.00000000000E+00  0.00000000000E+00  0.15725532958E+04  0.15725532958E+04  0.50400000000E-02 0. -1.
         -1   -1    0    0    0  501 -0.00000000000E+00 -0.00000000000E+00 -0.32371869842E+03  0.32371869846E+03  0.50400000000E-02 0.  1.
    8880022    1    1    2    0    0  0.48612912915E+03  0.28904728469E+03  0.83313280272E+02  0.59177919757E+03  0.15294330000E+03 0.  0.
    8880022    1    1    2    0    0 -0.48612912915E+03 -0.28904728469E+03  0.11655213171E+04  0.13044927967E+04  0.15294330000E+03 0.  0.
<mgrwt>
<rscale>  0 0.58588524E+03</rscale>
<asrwt>0</asrwt>
<pdfrwt beam="1">  1        1 0.24193127E+00 0.58588524E+03</pdfrwt>
<pdfrwt beam="2">  1       -1 0.49802878E-01 0.58588524E+03</pdfrwt>
<totfact> 0.24964192E+01</totfact>
</mgrwt>
</event>
<event>
 4    1  0.1852677E-008  0.5103496E+03  0.7818608E-02  0.1011112E+00
          1   -1    0    0  501    0  0.00000000000E+00  0.00000000000E+00  0.22644242279E+04  0.22644242279E+04  0.50400000000E-02 0. -1.
         -1   -1    0    0    0  501 -0.00000000000E+00 -0.00000000000E+00 -0.26290961441E+03  0.26290961446E+03  0.50400000000E-02 0.  1.
    8880022    1    1    2    0    0  0.46020926610E+03  0.15897321899E+03  0.53001366339E+02  0.51309438781E+03  0.15294330000E+03 0.  0.
    8880022    1    1    2    0    0 -0.46020926610E+03 -0.15897321899E+03  0.19485132472E+04  0.20142394546E+04  0.15294330000E+03 0.  0.
<mgrwt>
<rscale>  0 0.51034959E+03</rscale>
<asrwt>0</asrwt>
<pdfrwt beam="1">  1        1 0.34837296E+00 0.51034959E+03</pdfrwt>
<pdfrwt beam="2">  1       -1 0.40447633E-01 0.51034959E+03</pdfrwt>
<totfact> 0.12887792E+01</totfact>
</mgrwt>
</event>
<event>
 4    1  0.1852677E-008  0.8343504E+03  0.7818608E-02  0.9511585E-01
         -1   -1    0    0    0  501 -0.00000000000E+00  0.00000000000E+00  0.79773597327E+03  0.79773597328E+03  0.50400000000E-02 0.  1.
          1   -1    0    0  501    0  0.00000000000E+00 -0.00000000000E+00 -0.23401036203E+04  0.23401036203E+04  0.50400000000E-02 0. -1.
    8880022    1    1    2    0    0 -0.40446502805E+03 -0.71355235885E+03 -0.20135970900E+04  0.21796132275E+04  0.15294330000E+03 0.  0.
    8880022    1    1    2    0    0  0.40446502805E+03  0.71355235885E+03  0.47122944295E+03  0.95822636608E+03  0.15294330000E+03 0.  0.
<mgrwt>
<rscale>  0 0.83435039E+03</rscale>
<asrwt>0</asrwt>
<pdfrwt beam="1">  1        1 0.36001594E+00 0.83435039E+03</pdfrwt>
<pdfrwt beam="2">  1       -1 0.12272861E+00 0.83435039E+03</pdfrwt>
<totfact> 0.10699966E+00</totfact>
</mgrwt>
</event>
<event>
 4    1  0.1852677E-008  0.5187802E+03  0.7818608E-02  0.1008990E+00
          1   -1    0    0  501    0  0.00000000000E+00  0.00000000000E+00  0.18504842291E+04  0.18504842291E+04  0.50400000000E-02 0. -1.
         -1   -1    0    0    0  501 -0.00000000000E+00 -0.00000000000E+00 -0.11978604559E+04  0.11978604560E+04  0.50400000000E-02 0.  1.
    8880022    1    1    2    0    0 -0.45814991580E+03 -0.18931428864E+03  0.17549616496E+04  0.18300336854E+04  0.15294330000E+03 0.  0.
    8880022    1    1    2    0    0  0.45814991580E+03  0.18931428864E+03 -0.11023378764E+04  0.12183109997E+04  0.15294330000E+03 0.  0.
<mgrwt>
<rscale>  0 0.51878020E+03</rscale>
<asrwt>0</asrwt>
<pdfrwt beam="1">  1        1 0.28468988E+00 0.51878020E+03</pdfrwt>
<pdfrwt beam="2">  1       -1 0.18428623E+00 0.51878020E+03</pdfrwt>
<totfact> 0.82200677E-01</totfact>
</mgrwt>
</event>
<event>
 4    1  0.1852677E-008  0.5453383E+03  0.7818608E-02  0.1002579E+00
          1   -1    0    0  501    0  0.00000000000E+00  0.00000000000E+00  0.91930710619E+03  0.91930710621E+03  0.50400000000E-02 0. -1.
         -1   -1    0    0    0  501 -0.00000000000E+00 -0.00000000000E+00 -0.44846061692E+03  0.44846061694E+03  0.50400000000E-02 0.  1.
    8880022    1    1    2    0    0 -0.11182177379E+03  0.51136887653E+03 -0.12557948300E+03  0.55961066514E+03  0.15294330000E+03 0.  0.
    8880022    1    1    2    0    0  0.11182177379E+03 -0.51136887653E+03  0.59642597228E+03  0.80815705801E+03  0.15294330000E+03 0.  0.
<mgrwt>
<rscale>  0 0.54533833E+03</rscale>
<asrwt>0</asrwt>
<pdfrwt beam="1">  1        1 0.14143186E+00 0.54533833E+03</pdfrwt>
<pdfrwt beam="2">  1       -1 0.68993943E-01 0.54533833E+03</pdfrwt>
<totfact> 0.39185679E+01</totfact>
</mgrwt>
</event>
<event>
 4    1  0.1852677E-008  0.5509551E+03  0.7818608E-02  0.1001273E+00
          1   -1    0    0  501    0  0.00000000000E+00  0.00000000000E+00  0.81208184524E+03  0.81208184526E+03  0.50400000000E-02 0. -1.
         -1   -1    0    0    0  501 -0.00000000000E+00 -0.00000000000E+00 -0.57896207367E+03  0.57896207370E+03  0.50400000000E-02 0.  1.
    8880022    1    1    2    0    0  0.45876436698E+03  0.26399825333E+03 -0.29747837790E+03  0.62613485808E+03  0.15294330000E+03 0.  0.
    8880022    1    1    2    0    0 -0.45876436698E+03 -0.26399825333E+03  0.53059814947E+03  0.76490906087E+03  0.15294330000E+03 0.  0.
<mgrwt>
<rscale>  0 0.55095506E+03</rscale>
<asrwt>0</asrwt>
<pdfrwt beam="1">  1        1 0.12493567E+00 0.55095506E+03</pdfrwt>
<pdfrwt beam="2">  1       -1 0.89071088E-01 0.55095506E+03</pdfrwt>
<totfact> 0.28063337E+01</totfact>
</mgrwt>
</event>
<event>
 4    1  0.1852677E-008  0.3859327E+03  0.7818608E-02  0.1048763E+00
         -1   -1    0    0    0  501 -0.00000000000E+00  0.00000000000E+00  0.18471974288E+03  0.18471974295E+03  0.50400000000E-02 0.  1.
          1   -1    0    0  501    0  0.00000000000E+00 -0.00000000000E+00 -0.85615619640E+03  0.85615619642E+03  0.50400000000E-02 0. -1.
    8880022    1    1    2    0    0  0.34644402299E+03 -0.74356686490E+02 -0.21015980123E+03  0.43944416364E+03  0.15294330000E+03 0.  0.
    8880022    1    1    2    0    0 -0.34644402299E+03  0.74356686490E+02 -0.46127665229E+03  0.60143177573E+03  0.15294330000E+03 0.  0.
<mgrwt>
<rscale>  0 0.38593268E+03</rscale>
<asrwt>0</asrwt>
<pdfrwt beam="1">  1        1 0.13171634E+00 0.38593268E+03</pdfrwt>
<pdfrwt beam="2">  1       -1 0.28418422E-01 0.38593268E+03</pdfrwt>
<totfact> 0.23101262E+02</totfact>
</mgrwt>
</event>
<event>
 4    1  0.1852677E-008  0.8868345E+03  0.7818608E-02  0.9442190E-01
          1   -1    0    0  501    0  0.00000000000E+00  0.00000000000E+00  0.15242960294E+04  0.15242960294E+04  0.50400000000E-02 0. -1.
         -1   -1    0    0    0  501 -0.00000000000E+00 -0.00000000000E+00 -0.10634454473E+04  0.10634454474E+04  0.50400000000E-02 0.  1.
    8880022    1    1    2    0    0 -0.62652297625E+03 -0.60873044054E+03  0.11587922186E+04  0.14592034978E+04  0.15294330000E+03 0.  0.
    8880022    1    1    2    0    0  0.62652297625E+03  0.60873044054E+03 -0.69794163654E+03  0.11285379790E+04  0.15294330000E+03 0.  0.
<mgrwt>
<rscale>  0 0.88683451E+03</rscale>
<asrwt>0</asrwt>
<pdfrwt beam="1">  1        1 0.23450708E+00 0.88683451E+03</pdfrwt>
<pdfrwt beam="2">  1       -1 0.16360699E+00 0.88683451E+03</pdfrwt>
<totfact> 0.17676372E+00</totfact>
</mgrwt>
</event>
<event>
 4    1  0.1852677E-008  0.2326721E+03  0.7818608E-02  0.1124773E+00
         -1   -1    0    0    0  501 -0.00000000000E+00  0.00000000000E+00  0.11071991897E+04  0.11071991897E+04  0.50400000000E-02 0.  1.
          1   -1    0    0  501    0  0.00000000000E+00 -0.00000000000E+00 -0.84629144875E+02  0.84629145025E+02  0.50400000000E-02 0. -1.
    8880022    1    1    2    0    0  0.38111765065E+02  0.17114948539E+03  0.12405723005E+03  0.26367878627E+03  0.15294330000E+03 0.  0.
    8880022    1    1    2    0    0 -0.38111765065E+02 -0.17114948539E+03  0.89851281473E+03  0.92814954842E+03  0.15294330000E+03 0.  0.
<mgrwt>
<rscale>  0 0.23267210E+03</rscale>
<asrwt>0</asrwt>
<pdfrwt beam="1">  1        1 0.13019869E-01 0.23267210E+03</pdfrwt>
<pdfrwt beam="2">  1       -1 0.17033833E+00 0.23267210E+03</pdfrwt>
<totfact> 0.12133737E+02</totfact>
</mgrwt>
</event>
<event>
 4    1  0.1852677E-008  0.7507266E+03  0.7818608E-02  0.9634211E-01
         -1   -1    0    0    0  501 -0.00000000000E+00  0.00000000000E+00  0.18941230945E+04  0.18941230945E+04  0.50400000000E-02 0.  1.
          1   -1    0    0  501    0  0.00000000000E+00 -0.00000000000E+00 -0.16626361690E+04  0.16626361690E+04  0.50400000000E-02 0. -1.
    8880022    1    1    2    0    0 -0.45853080487E+03 -0.57441122298E+03 -0.14956677979E+04  0.16735030824E+04  0.15294330000E+03 0.  0.
    8880022    1    1    2    0    0  0.45853080487E+03  0.57441122298E+03  0.17271547234E+04  0.18832561811E+04  0.15294330000E+03 0.  0.
<mgrwt>
<rscale>  0 0.75072658E+03</rscale>
<asrwt>0</asrwt>
<pdfrwt beam="1">  1        1 0.25579018E+00 0.75072658E+03</pdfrwt>
<pdfrwt beam="2">  1       -1 0.29140355E+00 0.75072658E+03</pdfrwt>
<totfact> 0.20383958E-01</totfact>
</mgrwt>
</event>
<event>
 4    1  0.1852677E-008  0.3952549E+03  0.7818608E-02  0.1045435E+00
         -1   -1    0    0    0  501 -0.00000000000E+00  0.00000000000E+00  0.40430703439E+03  0.40430703442E+03  0.50400000000E-02 0.  1.
          1   -1    0    0  501    0  0.00000000000E+00 -0.00000000000E+00 -0.11274312083E+04  0.11274312083E+04  0.50400000000E-02 0. -1.
    8880022    1    1    2    0    0 -0.25505244201E+03 -0.26035182619E+03  0.25934434964E+03  0.47274302351E+03  0.15294330000E+03 0.  0.
    8880022    1    1    2    0    0  0.25505244201E+03  0.26035182619E+03 -0.98246852355E+03  0.10589952192E+04  0.15294330000E+03 0. -1.
<mgrwt>
<rscale>  0 0.39525495E+03</rscale>
<asrwt>0</asrwt>
<pdfrwt beam="1">  1        1 0.17345095E+00 0.39525495E+03</pdfrwt>
<pdfrwt beam="2">  1       -1 0.62201083E-01 0.39525495E+03</pdfrwt>
<totfact> 0.34392469E+01</totfact>
</mgrwt>
</event>
<event>
 4    1  0.1852677E-008  0.2386391E+03  0.7818608E-02  0.1120703E+00
          1   -1    0    0  501    0  0.00000000000E+00  0.00000000000E+00  0.19319961936E+04  0.19319961936E+04  0.50400000000E-02 0. -1.
         -1   -1    0    0    0  501 -0.00000000000E+00 -0.00000000000E+00 -0.75511281545E+02  0.75511281714E+02  0.50400000000E-02 0.  1.
    8880022    1    1    2    0    0 -0.17378556610E+03 -0.57927175185E+02  0.17119678837E+04  0.17285203697E+04  0.15294330000E+03 0.  0.
    8880022    1    1    2    0    0  0.17378556610E+03  0.57927175185E+02  0.14451702836E+03  0.27898710563E+03  0.15294330000E+03 0.  0.
<mgrwt>
<rscale>  0 0.23863913E+03</rscale>
<asrwt>0</asrwt>
<pdfrwt beam="1">  1        1 0.29723014E+00 0.23863913E+03</pdfrwt>
<pdfrwt beam="2">  1       -1 0.11617122E-01 0.23863913E+03</pdfrwt>
<totfact> 0.18208424E+02</totfact>
</mgrwt>
</event>
<event>
 4    1  0.1852677E-008  0.2341982E+03  0.7818608E-02  0.1123719E+00
         -1   -1    0    0    0  501 -0.00000000000E+00  0.00000000000E+00  0.64643651935E+02  0.64643652132E+02  0.50400000000E-02 0.  1.
          1   -1    0    0  501    0  0.00000000000E+00 -0.00000000000E+00 -0.20587241435E+04  0.20587241435E+04  0.50400000000E-02 0. -1.
    8880022    1    1    2    0    0 -0.12168230316E+03 -0.12903704829E+03 -0.18302453730E+03  0.29723185732E+03  0.15294330000E+03 0.  0.
    8880022    1    1    2    0    0  0.12168230316E+03  0.12903704829E+03 -0.18110559542E+04  0.18261359383E+04  0.15294330000E+03 0. -1.
<mgrwt>
<rscale>  0 0.23419820E+03</rscale>
<asrwt>0</asrwt>
<pdfrwt beam="1">  1        1 0.31672674E+00 0.23419820E+03</pdfrwt>
<pdfrwt beam="2">  1       -1 0.99451788E-02 0.23419820E+03</pdfrwt>
<totfact> 0.19212864E+02</totfact>
</mgrwt>
</event>
<event>
 4    1  0.1852677E-008  0.4661324E+03  0.7818608E-02  0.1023018E+00
          1   -1    0    0  501    0  0.00000000000E+00  0.00000000000E+00  0.76590919452E+03  0.76590919454E+03  0.50400000000E-02 0. -1.
         -1   -1    0    0    0  501 -0.00000000000E+00 -0.00000000000E+00 -0.51397074417E+03  0.51397074420E+03  0.50400000000E-02 0.  1.
    8880022    1    1    2    0    0 -0.35401380955E+03 -0.26184340948E+03  0.55432097489E+03  0.72425903146E+03  0.15294330000E+03 0. -1.
    8880022    1    1    2    0    0  0.35401380955E+03  0.26184340948E+03 -0.30238252454E+03  0.55562090727E+03  0.15294330000E+03 0.  0.
<mgrwt>
<rscale>  0 0.46613239E+03</rscale>
<asrwt>0</asrwt>
<pdfrwt beam="1">  1        1 0.11783218E+00 0.46613239E+03</pdfrwt>
<pdfrwt beam="2">  1       -1 0.79072423E-01 0.46613239E+03</pdfrwt>
<totfact> 0.40194306E+01</totfact>
</mgrwt>
</event>
<event>
 4    1  0.1852677E-008  0.4391701E+03  0.7818608E-02  0.1031002E+00
          1   -1    0    0  501    0  0.00000000000E+00  0.00000000000E+00  0.23628143663E+04  0.23628143663E+04  0.50400000000E-02 0. -1.
         -1   -1    0    0    0  501 -0.00000000000E+00 -0.00000000000E+00 -0.23270545463E+03  0.23270545468E+03  0.50400000000E-02 0.  1.
    8880022    1    1    2    0    0 -0.18270604703E+03  0.36891353654E+03  0.19391336170E+02  0.43959796860E+03  0.15294330000E+03 0.  0.
    8880022    1    1    2    0    0  0.18270604703E+03 -0.36891353654E+03  0.21107175755E+04  0.21559218524E+04  0.15294330000E+03 0. -1.
<mgrwt>
<rscale>  0 0.43917007E+03</rscale>
<asrwt>0</asrwt>
<pdfrwt beam="1">  1        1 0.36350991E+00 0.43917007E+03</pdfrwt>
<pdfrwt beam="2">  1       -1 0.35800838E-01 0.43917007E+03</pdfrwt>
<totfact> 0.14032385E+01</totfact>
</mgrwt>
</event>
<event>
 4    1  0.1852677E-008  0.3993260E+03  0.7818608E-02  0.1044013E+00
          1   -1    0    0  501    0  0.00000000000E+00  0.00000000000E+00  0.15767947460E+04  0.15767947460E+04  0.50400000000E-02 0. -1.
         -1   -1    0    0    0  501 -0.00000000000E+00 -0.00000000000E+00 -0.13448265031E+03  0.13448265040E+03  0.50400000000E-02 0.  1.
    8880022    1    1    2    0    0  0.31963574351E+03 -0.18412659946E+03  0.11472667168E+04  0.12147765990E+04  0.15294330000E+03 0. -1.
    8880022    1    1    2    0    0 -0.31963574351E+03  0.18412659946E+03  0.29504537895E+03  0.49650079739E+03  0.15294330000E+03 0.  1.
<mgrwt>
<rscale>  0 0.39932601E+03</rscale>
<asrwt>0</asrwt>
<pdfrwt beam="1">  1        1 0.24258380E+00 0.39932601E+03</pdfrwt>
<pdfrwt beam="2">  1       -1 0.20689639E-01 0.39932601E+03</pdfrwt>
<totfact> 0.11929243E+02</totfact>
</mgrwt>
</event>
<event>
 4    1  0.1852677E-008  0.3987373E+03  0.7818608E-02  0.1044218E+00
         -1   -1    0    0    0  501 -0.00000000000E+00  0.00000000000E+00  0.82063407910E+03  0.82063407911E+03  0.50400000000E-02 0.  1.
          1   -1    0    0  501    0  0.00000000000E+00 -0.00000000000E+00 -0.30571357544E+03  0.30571357548E+03  0.50400000000E-02 0. -1.
    8880022    1    1    2    0    0  0.33278471126E+03  0.15765189129E+03  0.59829090400E+03  0.71898778967E+03  0.15294330000E+03 0.  1.
    8880022    1    1    2    0    0 -0.33278471126E+03 -0.15765189129E+03 -0.83370400339E+02  0.40735986491E+03  0.15294330000E+03 0.  0.
<mgrwt>
<rscale>  0 0.39873730E+03</rscale>
<asrwt>0</asrwt>
<pdfrwt beam="1">  1        1 0.47032858E-01 0.39873730E+03</pdfrwt>
<pdfrwt beam="2">  1       -1 0.12625140E+00 0.39873730E+03</pdfrwt>
<totfact> 0.49464632E+01</totfact>
</mgrwt>
</event>
<event>
 4    1  0.1852677E-008  0.4528253E+03  0.7818608E-02  0.1026883E+00
          1   -1    0    0  501    0  0.00000000000E+00  0.00000000000E+00  0.76953559898E+03  0.76953559899E+03  0.50400000000E-02 0. -1.
         -1   -1    0    0    0  501 -0.00000000000E+00 -0.00000000000E+00 -0.57293582763E+03  0.57293582765E+03  0.50400000000E-02 0.  1.
    8880022    1    1    2    0    0  0.14654351879E+03 -0.40023000809E+03  0.58923030051E+03  0.74313058229E+03  0.15294330000E+03 0.  0.
    8880022    1    1    2    0    0 -0.14654351879E+03  0.40023000809E+03 -0.39263052916E+03  0.59934084436E+03  0.15294330000E+03 0.  0.
<mgrwt>
<rscale>  0 0.45282526E+03</rscale>
<asrwt>0</asrwt>
<pdfrwt beam="1">  1        1 0.11839009E+00 0.45282526E+03</pdfrwt>
<pdfrwt beam="2">  1       -1 0.88143974E-01 0.45282526E+03</pdfrwt>
<totfact> 0.31733735E+01</totfact>
</mgrwt>
</event>
<event>
 4    1  0.1852677E-008  0.7098290E+03  0.7818608E-02  0.9700569E-01
          1   -1    0    0  501    0  0.00000000000E+00  0.00000000000E+00  0.41134103636E+03  0.41134103639E+03  0.50400000000E-02 0. -1.
         -1   -1    0    0    0  501 -0.00000000000E+00 -0.00000000000E+00 -0.18900731121E+04  0.18900731122E+04  0.50400000000E-02 0.  1.
    8880022    1    1    2    0    0 -0.42683374613E+03 -0.54614874292E+03 -0.56731200801E+02  0.71209239456E+03  0.15294330000E+03 0.  0.
    8880022    1    1    2    0    0  0.42683374613E+03  0.54614874292E+03 -0.14220008750E+04  0.15893217540E+04  0.15294330000E+03 0.  0.
<mgrwt>
<rscale>  0 0.70982896E+03</rscale>
<asrwt>0</asrwt>
<pdfrwt beam="1">  1        1 0.63283237E-01 0.70982896E+03</pdfrwt>
<pdfrwt beam="2">  1       -1 0.29078047E+00 0.70982896E+03</pdfrwt>
<totfact> 0.23139786E+00</totfact>
</mgrwt>
</event>
<event>
 4    1  0.1852677E-008  0.9478155E+03  0.7818608E-02  0.9367708E-01
         -1   -1    0    0    0  501 -0.00000000000E+00  0.00000000000E+00  0.17076340162E+04  0.17076340162E+04  0.50400000000E-02 0.  1.
          1   -1    0    0  501    0  0.00000000000E+00 -0.00000000000E+00 -0.10241121333E+04  0.10241121333E+04  0.50400000000E-02 0. -1.
    8880022    1    1    2    0    0 -0.27639033375E+03  0.89362798330E+03  0.12942603711E+04  0.16042020292E+04  0.15294330000E+03 0.  0.
    8880022    1    1    2    0    0  0.27639033375E+03 -0.89362798330E+03 -0.61073848830E+03  0.11275441203E+04  0.15294330000E+03 0.  0.
<mgrwt>
<rscale>  0 0.94781551E+03</rscale>
<asrwt>0</asrwt>
<pdfrwt beam="1">  1        1 0.15755571E+00 0.94781551E+03</pdfrwt>
<pdfrwt beam="2">  1       -1 0.26271292E+00 0.94781551E+03</pdfrwt>
<totfact> 0.84973998E-01</totfact>
</mgrwt>
</event>
<event>
 4    1  0.1852677E-008  0.2902230E+03  0.7818608E-02  0.1090233E+00
          1   -1    0    0  501    0  0.00000000000E+00  0.00000000000E+00  0.15514055979E+04  0.15514055979E+04  0.50400000000E-02 0. -1.
         -1   -1    0    0    0  501 -0.00000000000E+00 -0.00000000000E+00 -0.66188401370E+02  0.66188401561E+02  0.50400000000E-02 0.  1.
    8880022    1    1    2    0    0 -0.22538040379E+03 -0.10020677815E+03  0.10854955188E+04  0.11236235576E+04  0.15294330000E+03 0.  1.
    8880022    1    1    2    0    0  0.22538040379E+03  0.10020677815E+03  0.39972167773E+03  0.49397044189E+03  0.15294330000E+03 0.  0.
<mgrwt>
<rscale>  0 0.29022298E+03</rscale>
<asrwt>0</asrwt>
<pdfrwt beam="1">  1        1 0.23867776E+00 0.29022298E+03</pdfrwt>
<pdfrwt beam="2">  1       -1 0.10182832E-01 0.29022298E+03</pdfrwt>
<totfact> 0.39208860E+02</totfact>
</mgrwt>
</event>
<event>
 4    1  0.1852677E-008  0.4425321E+03  0.7818608E-02  0.1029973E+00
          1   -1    0    0  501    0  0.00000000000E+00  0.00000000000E+00  0.10437464567E+04  0.10437464567E+04  0.50400000000E-02 0. -1.
         -1   -1    0    0    0  501 -0.00000000000E+00 -0.00000000000E+00 -0.29505921561E+03  0.29505921566E+03  0.50400000000E-02 0.  1.
    8880022    1    1    2    0    0  0.28466674275E+03  0.30233729568E+03  0.77826880919E+03  0.89528598065E+03  0.15294330000E+03 0.  0.
    8880022    1    1    2    0    0 -0.28466674275E+03 -0.30233729568E+03 -0.29581568067E+02  0.44351969175E+03  0.15294330000E+03 0.  0.
<mgrwt>
<rscale>  0 0.44253209E+03</rscale>
<asrwt>0</asrwt>
<pdfrwt beam="1">  1        1 0.16057637E+00 0.44253209E+03</pdfrwt>
<pdfrwt beam="2">  1       -1 0.45393726E-01 0.44253209E+03</pdfrwt>
<totfact> 0.71449679E+01</totfact>
</mgrwt>
</event>
<event>
 4    1  0.1852677E-008  0.3453534E+03  0.7818608E-02  0.1064539E+00
         -1   -1    0    0    0  501 -0.00000000000E+00  0.00000000000E+00  0.11123298609E+03  0.11123298621E+03  0.50400000000E-02 0.  1.
          1   -1    0    0  501    0  0.00000000000E+00 -0.00000000000E+00 -0.20223932624E+04  0.20223932624E+04  0.50400000000E-02 0. -1.
    8880022    1    1    2    0    0  0.29219715737E+03 -0.10246044332E+03 -0.16868056151E+04  0.17217962009E+04  0.15294330000E+03 0.  0.
    8880022    1    1    2    0    0 -0.29219715737E+03  0.10246044332E+03 -0.22435466127E+03  0.41183004779E+03  0.15294330000E+03 0.  0.
<mgrwt>
<rscale>  0 0.34535340E+03</rscale>
<asrwt>0</asrwt>
<pdfrwt beam="1">  1        1 0.31113740E+00 0.34535340E+03</pdfrwt>
<pdfrwt beam="2">  1       -1 0.17112769E-01 0.34535340E+03</pdfrwt>
<totfact> 0.83692448E+01</totfact>
</mgrwt>
</event>
<event>
 4    1  0.1852677E-008  0.5849182E+03  0.7818608E-02  0.9937200E-01
          1   -1    0    0  501    0  0.00000000000E+00  0.00000000000E+00  0.45829489817E+03  0.45829489819E+03  0.50400000000E-02 0. -1.
         -1   -1    0    0    0  501 -0.00000000000E+00 -0.00000000000E+00 -0.15476000603E+04  0.15476000603E+04  0.50400000000E-02 0.  1.
    8880022    1    1    2    0    0  0.42139821431E+03  0.37571431484E+03  0.17692823888E+03  0.61109161026E+03  0.15294330000E+03 0.  0.
    8880022    1    1    2    0    0 -0.42139821431E+03 -0.37571431484E+03 -0.12662334010E+04  0.13948033482E+04  0.15294330000E+03 0.  0.
<mgrwt>
<rscale>  0 0.58491825E+03</rscale>
<asrwt>0</asrwt>
<pdfrwt beam="1">  1        1 0.70506908E-01 0.58491825E+03</pdfrwt>
<pdfrwt beam="2">  1       -1 0.23809232E+00 0.58491825E+03</pdfrwt>
<totfact> 0.44538362E+00</totfact>
</mgrwt>
</event>
<event>
 4    1  0.1852677E-008  0.1068440E+04  0.7818608E-02  0.9236511E-01
         -1   -1    0    0    0  501 -0.00000000000E+00  0.00000000000E+00  0.85818041940E+03  0.85818041941E+03  0.50400000000E-02 0.  1.
          1   -1    0    0  501    0  0.00000000000E+00 -0.00000000000E+00 -0.23184709285E+04  0.23184709285E+04  0.50400000000E-02 0. -1.
    8880022    1    1    2    0    0 -0.10139483557E+04  0.30013415378E+03 -0.17671331999E+04  0.20650237717E+04  0.15294330000E+03 0. -1.
    8880022    1    1    2    0    0  0.10139483557E+04 -0.30013415378E+03  0.30684269081E+03  0.11116275762E+04  0.15294330000E+03 0.  0.
<mgrwt>
<rscale>  0 0.10684397E+04</rscale>
<asrwt>0</asrwt>
<pdfrwt beam="1">  1        1 0.35668783E+00 0.10684397E+04</pdfrwt>
<pdfrwt beam="2">  1       -1 0.13202776E+00 0.10684397E+04</pdfrwt>
<totfact> 0.88553314E-01</totfact>
</mgrwt>
</event>
<event>
 4    1  0.1852677E-008  0.7322848E+03  0.7818608E-02  0.9663560E-01
          1   -1    0    0  501    0  0.00000000000E+00  0.00000000000E+00  0.14717462537E+04  0.14717462538E+04  0.50400000000E-02 0. -1.
         -1   -1    0    0    0  501 -0.00000000000E+00 -0.00000000000E+00 -0.43994225821E+03  0.43994225824E+03  0.50400000000E-02 0.  1.
    8880022    1    1    2    0    0 -0.63431784295E+03  0.33240066432E+03  0.11970791904E+03  0.74200469433E+03  0.15294330000E+03 0.  0.
    8880022    1    1    2    0    0  0.63431784295E+03 -0.33240066432E+03  0.91209607649E+03  0.11696838177E+04  0.15294330000E+03 0.  0.
<mgrwt>
<rscale>  0 0.73228477E+03</rscale>
<asrwt>0</asrwt>
<pdfrwt beam="1">  1        1 0.22642250E+00 0.73228477E+03</pdfrwt>
<pdfrwt beam="2">  1       -1 0.67683424E-01 0.73228477E+03</pdfrwt>
<totfact> 0.15707303E+01</totfact>
</mgrwt>
</event>
<event>
 4    1  0.1852677E-008  0.2459693E+03  0.7818608E-02  0.1115879E+00
          1   -1    0    0  501    0  0.00000000000E+00  0.00000000000E+00  0.53051476730E+03  0.53051476732E+03  0.50400000000E-02 0. -1.
         -1   -1    0    0    0  501 -0.00000000000E+00 -0.00000000000E+00 -0.18917025107E+03  0.18917025114E+03  0.50400000000E-02 0.  1.
    8880022    1    1    2    0    0  0.46730751899E+02  0.18688355368E+03  0.39744359269E+03  0.46739949528E+03  0.15294330000E+03 0.  0.
    8880022    1    1    2    0    0 -0.46730751899E+02 -0.18688355368E+03 -0.56099076456E+02  0.25228552317E+03  0.15294330000E+03 0.  0.
<mgrwt>
<rscale>  0 0.24596926E+03</rscale>
<asrwt>0</asrwt>
<pdfrwt beam="1">  1        1 0.81617655E-01 0.24596926E+03</pdfrwt>
<pdfrwt beam="2">  1       -1 0.29103116E-01 0.24596926E+03</pdfrwt>
<totfact> 0.45207128E+02</totfact>
</mgrwt>
</event>
<event>
 4    1  0.1852677E-008  0.5495287E+03  0.7818608E-02  0.1001603E+00
         -1   -1    0    0    0  501 -0.00000000000E+00  0.00000000000E+00  0.80107039737E+03  0.80107039739E+03  0.50400000000E-02 0.  1.
          1   -1    0    0  501    0  0.00000000000E+00 -0.00000000000E+00 -0.64163452300E+03  0.64163452302E+03  0.50400000000E-02 0. -1.
    8880022    1    1    2    0    0 -0.51196222083E+03 -0.12839316976E+03 -0.38356808690E+03  0.67015390165E+03  0.15294330000E+03 0.  0.
    8880022    1    1    2    0    0  0.51196222083E+03  0.12839316976E+03  0.54300396128E+03  0.77255101875E+03  0.15294330000E+03 0.  0.
<mgrwt>
<rscale>  0 0.54952868E+03</rscale>
<asrwt>0</asrwt>
<pdfrwt beam="1">  1        1 0.98713004E-01 0.54952868E+03</pdfrwt>
<pdfrwt beam="2">  1       -1 0.12324160E+00 0.54952868E+03</pdfrwt>
<totfact> 0.18979552E+01</totfact>
</mgrwt>
</event>
<event>
 4    1  0.1852677E-008  0.4094659E+03  0.7818608E-02  0.1040550E+00
          1   -1    0    0  501    0  0.00000000000E+00  0.00000000000E+00  0.19311592485E+04  0.19311592485E+04  0.50400000000E-02 0. -1.
         -1   -1    0    0    0  501 -0.00000000000E+00 -0.00000000000E+00 -0.20006526547E+03  0.20006526553E+03  0.50400000000E-02 0.  1.
    8880022    1    1    2    0    0 -0.19354169667E+03 -0.32682142125E+03  0.63823990602E+02  0.41441016461E+03  0.15294330000E+03 0.  0.
    8880022    1    1    2    0    0  0.19354169667E+03  0.32682142125E+03  0.16672699925E+04  0.17168143495E+04  0.15294330000E+03 0.  0.
<mgrwt>
<rscale>  0 0.40946585E+03</rscale>
<asrwt>0</asrwt>
<pdfrwt beam="1">  1        1 0.29710142E+00 0.40946585E+03</pdfrwt>
<pdfrwt beam="2">  1       -1 0.30779272E-01 0.40946585E+03</pdfrwt>
<totfact> 0.35522429E+01</totfact>
</mgrwt>
</event>
<event>
 4    1  0.1852677E-008  0.4503908E+03  0.7818608E-02  0.1027606E+00
         -1   -1    0    0    0  501 -0.00000000000E+00  0.00000000000E+00  0.17595416884E+04  0.17595416884E+04  0.50400000000E-02 0.  1.
          1   -1    0    0  501    0  0.00000000000E+00 -0.00000000000E+00 -0.15916873979E+03  0.15916873987E+03  0.50400000000E-02 0. -1.
    8880022    1    1    2    0    0 -0.25395701067E+03  0.33906638976E+03  0.29646120796E+03  0.53920411791E+03  0.15294330000E+03 0.  0.
    8880022    1    1    2    0    0  0.25395701067E+03 -0.33906638976E+03  0.13039117407E+04  0.13795063104E+04  0.15294330000E+03 0.  0.
<mgrwt>
<rscale>  0 0.45039076E+03</rscale>
<asrwt>0</asrwt>
<pdfrwt beam="1">  1        1 0.24487498E-01 0.45039076E+03</pdfrwt>
<pdfrwt beam="2">  1       -1 0.27069873E+00 0.45039076E+03</pdfrwt>
<totfact> 0.11129906E+01</totfact>
</mgrwt>
</event>
<event>
 4    1  0.1964767E-008  0.7175649E+03  0.7818608E-02  0.9687657E-01
         -1   -1    0    0    0  501 -0.00000000000E+00  0.00000000000E+00  0.17093910638E+04  0.17093910638E+04  0.50400000000E-02 0.  1.
          1   -1    0    0  501    0  0.00000000000E+00 -0.00000000000E+00 -0.93319438904E+03  0.93319438905E+03  0.50400000000E-02 0. -1.
    8880022    1    1    2    0    0 -0.57982759296E+03 -0.39409088938E+03 -0.69923679107E+03  0.10019138734E+04  0.15294330000E+03 0.  0.
    8880022    1    1    2    0    0  0.57982759296E+03  0.39409088938E+03  0.14754334658E+04  0.16406715795E+04  0.15294330000E+03 0.  0.
<mgrwt>
<rscale>  0 0.71756485E+03</rscale>
<asrwt>0</asrwt>
<pdfrwt beam="1">  1        1 0.14356837E+00 0.71756485E+03</pdfrwt>
<pdfrwt beam="2">  1       -1 0.26298324E+00 0.71756485E+03</pdfrwt>
<totfact> 0.10396830E+00</totfact>
</mgrwt>
</event>
<event>
 4    1  0.1852677E-008  0.6410112E+03  0.7818608E-02  0.9823794E-01
          1   -1    0    0  501    0  0.00000000000E+00  0.00000000000E+00  0.24688421526E+04  0.24688421526E+04  0.50400000000E-02 0. -1.
         -1   -1    0    0    0  501 -0.00000000000E+00 -0.00000000000E+00 -0.36757717830E+03  0.36757717833E+03  0.50400000000E-02 0.  1.
    8880022    1    1    2    0    0 -0.25636338694E+03 -0.56725788791E+03  0.20997413143E+04  0.21954063263E+04  0.15294330000E+03 0.  0.
    8880022    1    1    2    0    0  0.25636338694E+03  0.56725788791E+03  0.15236600024E+01  0.64101300464E+03  0.15294330000E+03 0.  0.
<mgrwt>
<rscale>  0 0.64101119E+03</rscale>
<asrwt>0</asrwt>
<pdfrwt beam="1">  1        1 0.37982185E+00 0.64101119E+03</pdfrwt>
<pdfrwt beam="2">  1       -1 0.56550337E-01 0.64101119E+03</pdfrwt>
<totfact> 0.48735734E+00</totfact>
</mgrwt>
</event>
<event>
 4    1  0.1852677E-008  0.3807026E+03  0.7818608E-02  0.1050674E+00
         -1   -1    0    0    0  501 -0.00000000000E+00  0.00000000000E+00  0.20534276966E+03  0.20534276973E+03  0.50400000000E-02 0.  1.
          1   -1    0    0  501    0  0.00000000000E+00 -0.00000000000E+00 -0.10205354589E+04  0.10205354589E+04  0.50400000000E-02 0. -1.
    8880022    1    1    2    0    0 -0.14172005318E+03 -0.31852514867E+03 -0.67216270120E+02  0.38659089978E+03  0.15294330000E+03 0.  0.
    8880022    1    1    2    0    0  0.14172005318E+03  0.31852514867E+03 -0.74797641909E+03  0.83928732883E+03  0.15294330000E+03 0.  0.
<mgrwt>
<rscale>  0 0.38070264E+03</rscale>
<asrwt>0</asrwt>
<pdfrwt beam="1">  1        1 0.15700545E+00 0.38070264E+03</pdfrwt>
<pdfrwt beam="2">  1       -1 0.31591196E-01 0.38070264E+03</pdfrwt>
<totfact> 0.14327238E+02</totfact>
</mgrwt>
</event>
<event>
 4    1  0.1852677E-008  0.5276650E+03  0.7818608E-02  0.1006800E+00
          1   -1    0    0  501    0  0.00000000000E+00  0.00000000000E+00  0.93674594452E+03  0.93674594453E+03  0.50400000000E-02 0. -1.
         -1   -1    0    0    0  501 -0.00000000000E+00 -0.00000000000E+00 -0.46287621614E+03  0.46287621616E+03  0.50400000000E-02 0.  1.
    8880022    1    1    2    0    0 -0.42948069795E+03  0.26567848473E+03 -0.18170174666E+03  0.55807338667E+03  0.15294330000E+03 0.  0.
    8880022    1    1    2    0    0  0.42948069795E+03 -0.26567848473E+03  0.65557147504E+03  0.84154877402E+03  0.15294330000E+03 0.  0.
<mgrwt>
<rscale>  0 0.52766503E+03</rscale>
<asrwt>0</asrwt>
<pdfrwt beam="1">  1        1 0.14411476E+00 0.52766503E+03</pdfrwt>
<pdfrwt beam="2">  1       -1 0.71211727E-01 0.52766503E+03</pdfrwt>
<totfact> 0.35682481E+01</totfact>
</mgrwt>
</event>
<event>
 4    1  0.1852677E-008  0.2811834E+03  0.7818608E-02  0.1095044E+00
          1   -1    0    0  501    0  0.00000000000E+00  0.00000000000E+00  0.23298052492E+04  0.23298052492E+04  0.50400000000E-02 0. -1.
         -1   -1    0    0    0  501 -0.00000000000E+00 -0.00000000000E+00 -0.13894868909E+04  0.13894868909E+04  0.50400000000E-02 0.  1.
    8880022    1    1    2    0    0 -0.47008262124E+02  0.23121998046E+03 -0.13666371141E+04  0.13952638140E+04  0.15294330000E+03 0.  0.
    8880022    1    1    2    0    0  0.47008262124E+02 -0.23121998046E+03  0.23069554724E+04  0.23240283261E+04  0.15294330000E+03 0. -1.
<mgrwt>
<rscale>  0 0.28118341E+03</rscale>
<asrwt>0</asrwt>
<pdfrwt beam="1">  1        1 0.35843158E+00 0.28118341E+03</pdfrwt>
<pdfrwt beam="2">  1       -1 0.21376721E+00 0.28118341E+03</pdfrwt>
<totfact> 0.28196833E-01</totfact>
</mgrwt>
</event>
<event>
 4    1  0.1852677E-008  0.3736003E+03  0.7818608E-02  0.1053325E+00
         -1   -1    0    0    0  501 -0.00000000000E+00  0.00000000000E+00  0.71869002868E+03  0.71869002869E+03  0.50400000000E-02 0.  1.
          1   -1    0    0  501    0  0.00000000000E+00 -0.00000000000E+00 -0.66699961434E+03  0.66699961436E+03  0.50400000000E-02 0. -1.
    8880022    1    1    2    0    0  0.29598684032E+03 -0.16904820081E+03  0.60916526976E+03  0.71460442396E+03  0.15294330000E+03 0.  0.
    8880022    1    1    2    0    0 -0.29598684032E+03  0.16904820081E+03 -0.55747485543E+03  0.67108521910E+03  0.15294330000E+03 0. -1.
<mgrwt>
<rscale>  0 0.37360026E+03</rscale>
<asrwt>0</asrwt>
<pdfrwt beam="1">  1        1 0.10261533E+00 0.37360026E+03</pdfrwt>
<pdfrwt beam="2">  1       -1 0.11056770E+00 0.37360026E+03</pdfrwt>
<totfact> 0.24010000E+01</totfact>
</mgrwt>
</event>
<event>
 4    1  0.1852677E-008  0.3548806E+03  0.7818608E-02  0.1060629E+00
         -1   -1    0    0    0  501 -0.00000000000E+00  0.00000000000E+00  0.15602340175E+04  0.15602340175E+04  0.50400000000E-02 0.  1.
          1   -1    0    0  501    0  0.00000000000E+00 -0.00000000000E+00 -0.11355033871E+04  0.11355033871E+04  0.50400000000E-02 0. -1.
    8880022    1    1    2    0    0  0.24715769095E+03 -0.20362141261E+03 -0.10867127637E+04  0.11431906611E+04  0.15294330000E+03 0.  0.
    8880022    1    1    2    0    0 -0.24715769095E+03  0.20362141261E+03  0.15114433941E+04  0.15525467434E+04  0.15294330000E+03 0.  0.
<mgrwt>
<rscale>  0 0.35488062E+03</rscale>
<asrwt>0</asrwt>
<pdfrwt beam="1">  1        1 0.17469283E+00 0.35488062E+03</pdfrwt>
<pdfrwt beam="2">  1       -1 0.24003600E+00 0.35488062E+03</pdfrwt>
<totfact> 0.11414210E+00</totfact>
</mgrwt>
</event>
<event>
 4    1  0.1852677E-008  0.3748385E+03  0.7818608E-02  0.1052858E+00
          1   -1    0    0  501    0  0.00000000000E+00  0.00000000000E+00  0.12671033180E+04  0.12671033180E+04  0.50400000000E-02 0. -1.
         -1   -1    0    0    0  501 -0.00000000000E+00 -0.00000000000E+00 -0.22805549628E+03  0.22805549633E+03  0.50400000000E-02 0.  1.
    8880022    1    1    2    0    0  0.10952185694E+03 -0.32421782912E+03  0.10553755040E+04  0.11199648857E+04  0.15294330000E+03 0.  0.
    8880022    1    1    2    0    0 -0.10952185694E+03  0.32421782912E+03 -0.16327682226E+02  0.37519392864E+03  0.15294330000E+03 0.  0.
<mgrwt>
<rscale>  0 0.37483849E+03</rscale>
<asrwt>0</asrwt>
<pdfrwt beam="1">  1        1 0.19493897E+00 0.37483849E+03</pdfrwt>
<pdfrwt beam="2">  1       -1 0.35085461E-01 0.37483849E+03</pdfrwt>
<totfact> 0.79265220E+01</totfact>
</mgrwt>
</event>
<event>
 4    1  0.1852677E-008  0.8686916E+03  0.7818608E-02  0.9465587E-01
          1   -1    0    0  501    0  0.00000000000E+00  0.00000000000E+00  0.18666593512E+04  0.18666593512E+04  0.50400000000E-02 0. -1.
         -1   -1    0    0    0  501 -0.00000000000E+00 -0.00000000000E+00 -0.63671581757E+03  0.63671581759E+03  0.50400000000E-02 0.  1.
    8880022    1    1    2    0    0 -0.48360541979E+02  0.85375331022E+03  0.13712622412E+04  0.16232637629E+04  0.15294330000E+03 0.  0.
    8880022    1    1    2    0    0  0.48360541979E+02 -0.85375331022E+03 -0.14131870756E+03  0.88011140593E+03  0.15294330000E+03 0.  0.
<mgrwt>
<rscale>  0 0.86869161E+03</rscale>
<asrwt>0</asrwt>
<pdfrwt beam="1">  1        1 0.28717836E+00 0.86869161E+03</pdfrwt>
<pdfrwt beam="2">  1       -1 0.97956279E-01 0.86869161E+03</pdfrwt>
<totfact> 0.37714684E+00</totfact>
</mgrwt>
</event>
<event>
 4    1  0.1852677E-008  0.3304697E+03  0.7818608E-02  0.1070929E+00
          1   -1    0    0  501    0  0.00000000000E+00  0.00000000000E+00  0.13901270220E+04  0.13901270220E+04  0.50400000000E-02 0. -1.
         -1   -1    0    0    0  501 -0.00000000000E+00 -0.00000000000E+00 -0.10577726523E+03  0.10577726535E+03  0.50400000000E-02 0.  1.
    8880022    1    1    2    0    0 -0.20875371653E+03 -0.20552482246E+03  0.10215678848E+04  0.10736904410E+04  0.15294330000E+03 0.  0.
    8880022    1    1    2    0    0  0.20875371653E+03  0.20552482246E+03  0.26278187198E+03  0.42221384637E+03  0.15294330000E+03 0.  0.
<mgrwt>
<rscale>  0 0.33046970E+03</rscale>
<asrwt>0</asrwt>
<pdfrwt beam="1">  1        1 0.21386566E+00 0.33046970E+03</pdfrwt>
<pdfrwt beam="2">  1       -1 0.16273428E-01 0.33046970E+03</pdfrwt>
<totfact> 0.23814057E+02</totfact>
</mgrwt>
</event>
<event>
 4    1  0.1852677E-008  0.4641505E+03  0.7818608E-02  0.1023584E+00
         -1   -1    0    0    0  501 -0.00000000000E+00  0.00000000000E+00  0.13913745906E+03  0.13913745915E+03  0.50400000000E-02 0.  1.
          1   -1    0    0  501    0  0.00000000000E+00 -0.00000000000E+00 -0.24261249857E+04  0.24261249857E+04  0.50400000000E-02 0. -1.
    8880022    1    1    2    0    0 -0.42932540069E+03 -0.87884583718E+02 -0.37199902602E+03  0.59482680514E+03  0.15294330000E+03 0.  0.
    8880022    1    1    2    0    0  0.42932540069E+03  0.87884583718E+02 -0.19149885006E+04  0.19704356397E+04  0.15294330000E+03 0.  0.
<mgrwt>
<rscale>  0 0.46415046E+03</rscale>
<asrwt>0</asrwt>
<pdfrwt beam="1">  1        1 0.37324997E+00 0.46415046E+03</pdfrwt>
<pdfrwt beam="2">  1       -1 0.21405765E-01 0.46415046E+03</pdfrwt>
<totfact> 0.30494788E+01</totfact>
</mgrwt>
</event>
<event>
 4    1  0.1852677E-008  0.4540458E+03  0.7818608E-02  0.1026522E+00
         -1   -1    0    0    0  501 -0.00000000000E+00  0.00000000000E+00  0.20416781807E+03  0.20416781813E+03  0.50400000000E-02 0.  1.
          1   -1    0    0  501    0  0.00000000000E+00 -0.00000000000E+00 -0.19535823836E+04  0.19535823836E+04  0.50400000000E-02 0. -1.
    8880022    1    1    2    0    0 -0.42705955101E+03  0.19648899997E+02 -0.16246079041E+04  0.16868634902E+04  0.15294330000E+03 0.  1.
    8880022    1    1    2    0    0  0.42705955101E+03 -0.19648899997E+02 -0.12480666144E+03  0.47088671157E+03  0.15294330000E+03 0.  0.
<mgrwt>
<rscale>  0 0.45404580E+03</rscale>
<asrwt>0</asrwt>
<pdfrwt beam="1">  1        1 0.30055112E+00 0.45404580E+03</pdfrwt>
<pdfrwt beam="2">  1       -1 0.31410435E-01 0.45404580E+03</pdfrwt>
<totfact> 0.32817689E+01</totfact>
</mgrwt>
</event>
<event>
 4    1  0.1852677E-008  0.4348923E+03  0.7818608E-02  0.1032326E+00
         -1   -1    0    0    0  501 -0.00000000000E+00  0.00000000000E+00  0.76468051335E+03  0.76468051336E+03  0.50400000000E-02 0.  1.
          1   -1    0    0  501    0  0.00000000000E+00 -0.00000000000E+00 -0.50497614109E+03  0.50497614112E+03  0.50400000000E-02 0. -1.
    8880022    1    1    2    0    0  0.25901019148E+03 -0.31409132809E+03 -0.32359794638E+03  0.54207649422E+03  0.15294330000E+03 0.  0.
    8880022    1    1    2    0    0 -0.25901019148E+03  0.31409132809E+03  0.58330231864E+03  0.72758016026E+03  0.15294330000E+03 0.  0.
<mgrwt>
<rscale>  0 0.43489228E+03</rscale>
<asrwt>0</asrwt>
<pdfrwt beam="1">  1        1 0.77688637E-01 0.43489228E+03</pdfrwt>
<pdfrwt beam="2">  1       -1 0.11764316E+00 0.43489228E+03</pdfrwt>
<totfact> 0.30280339E+01</totfact>
</mgrwt>
</event>
<event>
 4    1  0.1852677E-008  0.4640760E+03  0.7818608E-02  0.1023606E+00
         -1   -1    0    0    0  501 -0.00000000000E+00  0.00000000000E+00  0.18445420692E+03  0.18445420699E+03  0.50400000000E-02 0.  1.
          1   -1    0    0  501    0  0.00000000000E+00 -0.00000000000E+00 -0.14923170994E+04  0.14923170994E+04  0.50400000000E-02 0. -1.
    8880022    1    1    2    0    0  0.31810662036E+03 -0.30130229659E+03 -0.26284409091E+03  0.53334188377E+03  0.15294330000E+03 0.  0.
    8880022    1    1    2    0    0 -0.31810662036E+03  0.30130229659E+03 -0.10450188015E+04  0.11434294226E+04  0.15294330000E+03 0.  0.
<mgrwt>
<rscale>  0 0.46407602E+03</rscale>
<asrwt>0</asrwt>
<pdfrwt beam="1">  1        1 0.22958724E+00 0.46407602E+03</pdfrwt>
<pdfrwt beam="2">  1       -1 0.28377571E-01 0.46407602E+03</pdfrwt>
<totfact> 0.79059705E+01</totfact>
</mgrwt>
</event>
<event>
 4    1  0.1852677E-008  0.4895432E+03  0.7818608E-02  0.1016545E+00
         -1   -1    0    0    0  501 -0.00000000000E+00  0.00000000000E+00  0.62616482483E+03  0.62616482485E+03  0.50400000000E-02 0.  1.
          1   -1    0    0  501    0  0.00000000000E+00 -0.00000000000E+00 -0.92725861083E+03  0.92725861085E+03  0.50400000000E-02 0. -1.
    8880022    1    1    2    0    0  0.45172991432E+03 -0.11045788408E+03  0.44466210138E+03  0.66134476415E+03  0.15294330000E+03 0.  0.
    8880022    1    1    2    0    0 -0.45172991432E+03  0.11045788408E+03 -0.74575588739E+03  0.89207867155E+03  0.15294330000E+03 0.  0.
<mgrwt>
<rscale>  0 0.48954317E+03</rscale>
<asrwt>0</asrwt>
<pdfrwt beam="1">  1        1 0.14265517E+00 0.48954317E+03</pdfrwt>
<pdfrwt beam="2">  1       -1 0.96333050E-01 0.48954317E+03</pdfrwt>
<totfact> 0.19191713E+01</totfact>
</mgrwt>
</event>
<event>
 4    1  0.1852677E-008  0.9433850E+03  0.7818608E-02  0.9372916E-01
         -1   -1    0    0    0  501 -0.00000000000E+00  0.00000000000E+00  0.52603449318E+03  0.52603449320E+03  0.50400000000E-02 0.  1.
          1   -1    0    0  501    0  0.00000000000E+00 -0.00000000000E+00 -0.23442732163E+04  0.23442732163E+04  0.50400000000E-02 0. -1.
    8880022    1    1    2    0    0  0.49762204553E+02 -0.92957370881E+03 -0.15201337902E+03  0.95555391137E+03  0.15294330000E+03 0.  0.
    8880022    1    1    2    0    0 -0.49762204553E+02  0.92957370881E+03 -0.16662253441E+04  0.19147537981E+04  0.15294330000E+03 0.  0.
<mgrwt>
<rscale>  0 0.94338497E+03</rscale>
<asrwt>0</asrwt>
<pdfrwt beam="1">  1        1 0.36065741E+00 0.94338497E+03</pdfrwt>
<pdfrwt beam="2">  1       -1 0.80928385E-01 0.94338497E+03</pdfrwt>
<totfact> 0.27066628E+00</totfact>
</mgrwt>
</event>
<event>
 4    1  0.1852677E-008  0.4019631E+03  0.7818608E-02  0.1043102E+00
          1   -1    0    0  501    0  0.00000000000E+00  0.00000000000E+00  0.18107662098E+04  0.18107662098E+04  0.50400000000E-02 0. -1.
         -1   -1    0    0    0  501 -0.00000000000E+00 -0.00000000000E+00 -0.71974696574E+03  0.71974696576E+03  0.50400000000E-02 0.  1.
    8880022    1    1    2    0    0  0.72358438309E+02  0.36461889565E+03  0.17297425639E+04  0.17758332334E+04  0.15294330000E+03 0. -1.
    8880022    1    1    2    0    0 -0.72358438309E+02 -0.36461889565E+03 -0.63872331985E+03  0.75467994210E+03  0.15294330000E+03 0.  0.
<mgrwt>
<rscale>  0 0.40196310E+03</rscale>
<asrwt>0</asrwt>
<pdfrwt beam="1">  1        1 0.27857941E+00 0.40196310E+03</pdfrwt>
<pdfrwt beam="2">  1       -1 0.11073030E+00 0.40196310E+03</pdfrwt>
<totfact> 0.34463832E+00</totfact>
</mgrwt>
</event>
<event>
 4    1  0.1852677E-008  0.5993999E+03  0.7818608E-02  0.9906652E-01
          1   -1    0    0  501    0  0.00000000000E+00  0.00000000000E+00  0.85136987945E+03  0.85136987947E+03  0.50400000000E-02 0. -1.
         -1   -1    0    0    0  501 -0.00000000000E+00 -0.00000000000E+00 -0.63039254311E+03  0.63039254313E+03  0.50400000000E-02 0.  1.
    8880022    1    1    2    0    0 -0.55585060293E+03 -0.16406919700E+03 -0.31548376399E+03  0.67735533699E+03  0.15294330000E+03 0.  0.
    8880022    1    1    2    0    0  0.55585060293E+03  0.16406919700E+03  0.53646110034E+03  0.80440708561E+03  0.15294330000E+03 0.  0.
<mgrwt>
<rscale>  0 0.59939991E+03</rscale>
<asrwt>0</asrwt>
<pdfrwt beam="1">  1        1 0.13097998E+00 0.59939991E+03</pdfrwt>
<pdfrwt beam="2">  1       -1 0.96983469E-01 0.59939991E+03</pdfrwt>
<totfact> 0.21391222E+01</totfact>
</mgrwt>
</event>
<event>
 4    1  0.1852677E-008  0.6242290E+03  0.7818608E-02  0.9856376E-01
          1   -1    0    0  501    0  0.00000000000E+00  0.00000000000E+00  0.16443721654E+04  0.16443721654E+04  0.50400000000E-02 0. -1.
         -1   -1    0    0    0  501 -0.00000000000E+00 -0.00000000000E+00 -0.96349717546E+03  0.96349717547E+03  0.50400000000E-02 0.  1.
    8880022    1    1    2    0    0  0.39190827070E+03 -0.46117035093E+03  0.14727269344E+04  0.15995582082E+04  0.15294330000E+03 0.  0.
    8880022    1    1    2    0    0 -0.39190827070E+03  0.46117035093E+03 -0.79185194447E+03  0.10083111326E+04  0.15294330000E+03 0.  0.
<mgrwt>
<rscale>  0 0.62422900E+03</rscale>
<asrwt>0</asrwt>
<pdfrwt beam="1">  1        1 0.25298033E+00 0.62422900E+03</pdfrwt>
<pdfrwt beam="2">  1       -1 0.14823034E+00 0.62422900E+03</pdfrwt>
<totfact> 0.20193347E+00</totfact>
</mgrwt>
</event>
<event>
 4    1  0.1852677E-008  0.3222411E+03  0.7818608E-02  0.1074623E+00
         -1   -1    0    0    0  501 -0.00000000000E+00  0.00000000000E+00  0.15199202135E+03  0.15199202143E+03  0.50400000000E-02 0.  1.
          1   -1    0    0  501    0  0.00000000000E+00 -0.00000000000E+00 -0.10534275191E+04  0.10534275191E+04  0.50400000000E-02 0. -1.
    8880022    1    1    2    0    0  0.12657611166E+03 -0.25382303387E+03 -0.80802894361E+03  0.86991382981E+03  0.15294330000E+03 0.  0.
    8880022    1    1    2    0    0 -0.12657611166E+03  0.25382303387E+03 -0.93406554140E+02  0.33550571074E+03  0.15294330000E+03 0.  0.
<mgrwt>
<rscale>  0 0.32224106E+03</rscale>
<asrwt>0</asrwt>
<pdfrwt beam="1">  1        1 0.16206577E+00 0.32224106E+03</pdfrwt>
<pdfrwt beam="2">  1       -1 0.23383389E-01 0.32224106E+03</pdfrwt>
<totfact> 0.22744031E+02</totfact>
</mgrwt>
</event>
<event>
 4    1  0.1852677E-008  0.6777948E+03  0.7818608E-02  0.9755978E-01
         -1   -1    0    0    0  501 -0.00000000000E+00  0.00000000000E+00  0.11248904699E+04  0.11248904699E+04  0.50400000000E-02 0.  1.
          1   -1    0    0  501    0  0.00000000000E+00 -0.00000000000E+00 -0.10143783921E+04  0.10143783921E+04  0.50400000000E-02 0. -1.
    8880022    1    1    2    0    0 -0.28005016941E+03 -0.59798500165E+03 -0.77147410914E+03  0.10269265376E+04  0.15294330000E+03 0.  0.
    8880022    1    1    2    0    0  0.28005016941E+03  0.59798500165E+03  0.88198618692E+03  0.11123423243E+04  0.15294330000E+03 0.  0.
<mgrwt>
<rscale>  0 0.67779482E+03</rscale>
<asrwt>0</asrwt>
<pdfrwt beam="1">  1        1 0.15605822E+00 0.67779482E+03</pdfrwt>
<pdfrwt beam="2">  1       -1 0.17306007E+00 0.67779482E+03</pdfrwt>
<totfact> 0.36254164E+00</totfact>
</mgrwt>
</event>
<event>
 4    1  0.1852677E-008  0.2647811E+03  0.7818608E-02  0.1104304E+00
          1   -1    0    0  501    0  0.00000000000E+00  0.00000000000E+00  0.53796205116E+03  0.53796205118E+03  0.50400000000E-02 0. -1.
         -1   -1    0    0    0  501 -0.00000000000E+00 -0.00000000000E+00 -0.66502103798E+03  0.66502103800E+03  0.50400000000E-02 0.  1.
    8880022    1    1    2    0    0 -0.16774109689E+03  0.13630952184E+03  0.47581467746E+03  0.54452605229E+03  0.15294330000E+03 0. -1.
    8880022    1    1    2    0    0  0.16774109689E+03 -0.13630952184E+03 -0.60287366428E+03  0.65845703688E+03  0.15294330000E+03 0.  0.
<mgrwt>
<rscale>  0 0.26478107E+03</rscale>
<asrwt>0</asrwt>
<pdfrwt beam="1">  1        1 0.82763392E-01 0.26478107E+03</pdfrwt>
<pdfrwt beam="2">  1       -1 0.10231093E+00 0.26478107E+03</pdfrwt>
<totfact> 0.39813277E+01</totfact>
</mgrwt>
</event>
<event>
 4    1  0.1852677E-008  0.7503697E+03  0.7818608E-02  0.9634771E-01
         -1   -1    0    0    0  501 -0.00000000000E+00  0.00000000000E+00  0.46015097368E+03  0.46015097370E+03  0.50400000000E-02 0.  1.
          1   -1    0    0  501    0  0.00000000000E+00 -0.00000000000E+00 -0.19702910866E+04  0.19702910866E+04  0.50400000000E-02 0. -1.
    8880022    1    1    2    0    0  0.32524338273E+03 -0.65869552414E+03 -0.15031564105E+04  0.16800398504E+04  0.15294330000E+03 0.  0.
    8880022    1    1    2    0    0 -0.32524338273E+03  0.65869552414E+03 -0.69837024371E+01  0.75040220991E+03  0.15294330000E+03 0.  0.
<mgrwt>
<rscale>  0 0.75036971E+03</rscale>
<asrwt>0</asrwt>
<pdfrwt beam="1">  1        1 0.30312170E+00 0.75036971E+03</pdfrwt>
<pdfrwt beam="2">  1       -1 0.70792459E-01 0.75036971E+03</pdfrwt>
<totfact> 0.65938681E+00</totfact>
</mgrwt>
</event>
<event>
 4    1  0.1852677E-008  0.6670767E+03  0.7818608E-02  0.9775253E-01
         -1   -1    0    0    0  501 -0.00000000000E+00  0.00000000000E+00  0.18975121239E+04  0.18975121239E+04  0.50400000000E-02 0.  1.
          1   -1    0    0  501    0  0.00000000000E+00 -0.00000000000E+00 -0.19626704224E+04  0.19626704224E+04  0.50400000000E-02 0. -1.
    8880022    1    1    2    0    0  0.33303903142E+03 -0.55739090288E+03  0.17785349364E+04  0.18995204100E+04  0.15294330000E+03 0.  1.
    8880022    1    1    2    0    0 -0.33303903142E+03  0.55739090288E+03 -0.18436932349E+04  0.19606621362E+04  0.15294330000E+03 0.  0.
<mgrwt>
<rscale>  0 0.66707666E+03</rscale>
<asrwt>0</asrwt>
<pdfrwt beam="1">  1        1 0.30194930E+00 0.66707666E+03</pdfrwt>
<pdfrwt beam="2">  1       -1 0.29192494E+00 0.66707666E+03</pdfrwt>
<totfact> 0.13041175E-01</totfact>
</mgrwt>
</event>
<event>
 4    1  0.1852677E-008  0.7397059E+03  0.7818608E-02  0.9651640E-01
          1   -1    0    0  501    0  0.00000000000E+00  0.00000000000E+00  0.40765127502E+04  0.40765127502E+04  0.50400000000E-02 0. -1.
         -1   -1    0    0    0  501 -0.00000000000E+00 -0.00000000000E+00 -0.33618583664E+03  0.33618583667E+03  0.50400000000E-02 0.  1.
    8880022    1    1    2    0    0  0.12770778406E+03  0.71236503392E+03  0.35802554531E+04  0.36558711659E+04  0.15294330000E+03 0.  0.
    8880022    1    1    2    0    0 -0.12770778406E+03 -0.71236503392E+03  0.16007146054E+03  0.75682742098E+03  0.15294330000E+03 0.  0.
<mgrwt>
<rscale>  0 0.73970594E+03</rscale>
<asrwt>0</asrwt>
<pdfrwt beam="1">  1        1 0.62715583E+00 0.73970594E+03</pdfrwt>
<pdfrwt beam="2">  1       -1 0.51720896E-01 0.73970594E+03</pdfrwt>
<totfact> 0.34549175E-01</totfact>
</mgrwt>
</event>
<event>
 4    1  0.1852677E-008  0.1017652E+04  0.7818608E-02  0.9289393E-01
          1   -1    0    0  501    0  0.00000000000E+00  0.00000000000E+00  0.13440958808E+04  0.13440958808E+04  0.50400000000E-02 0. -1.
         -1   -1    0    0    0  501 -0.00000000000E+00 -0.00000000000E+00 -0.23368756719E+04  0.23368756719E+04  0.50400000000E-02 0.  1.
    8880022    1    1    2    0    0 -0.34184329893E+03  0.94623881960E+03 -0.20032176261E+04  0.22468861242E+04  0.15294330000E+03 0.  0.
    8880022    1    1    2    0    0  0.34184329893E+03 -0.94623881960E+03  0.10104378350E+04  0.14340854285E+04  0.15294330000E+03 0.  0.
<mgrwt>
<rscale>  0 0.10176524E+04</rscale>
<asrwt>0</asrwt>
<pdfrwt beam="1">  1        1 0.20678398E+00 0.10176524E+04</pdfrwt>
<pdfrwt beam="2">  1       -1 0.35951934E+00 0.10176524E+04</pdfrwt>
<totfact> 0.11526837E-01</totfact>
</mgrwt>
</event>
<event>
 4    1  0.1852677E-008  0.6153570E+03  0.7818608E-02  0.9874048E-01
          1   -1    0    0  501    0  0.00000000000E+00  0.00000000000E+00  0.84232399252E+03  0.84232399253E+03  0.50400000000E-02 0. -1.
         -1   -1    0    0    0  501 -0.00000000000E+00 -0.00000000000E+00 -0.11377455062E+04  0.11377455062E+04  0.50400000000E-02 0.  1.
    8880022    1    1    2    0    0 -0.56956234151E+03  0.17570229576E+03 -0.91770014811E+03  0.11049152784E+04  0.15294330000E+03 0.  0.
    8880022    1    1    2    0    0  0.56956234151E+03 -0.17570229576E+03  0.62227863439E+03  0.87515422037E+03  0.15294330000E+03 0.  0.
<mgrwt>
<rscale>  0 0.61535698E+03</rscale>
<asrwt>0</asrwt>
<pdfrwt beam="1">  1        1 0.12958831E+00 0.61535698E+03</pdfrwt>
<pdfrwt beam="2">  1       -1 0.17503777E+00 0.61535698E+03</pdfrwt>
<totfact> 0.48721642E+00</totfact>
</mgrwt>
</event>
<event>
 4    1  0.1852677E-008  0.1036068E+04  0.7818608E-02  0.9269847E-01
         -1   -1    0    0    0  501 -0.00000000000E+00  0.00000000000E+00  0.79077796522E+03  0.79077796524E+03  0.50400000000E-02 0.  1.
          1   -1    0    0  501    0  0.00000000000E+00 -0.00000000000E+00 -0.22675251034E+04  0.22675251034E+04  0.50400000000E-02 0. -1.
    8880022    1    1    2    0    0 -0.24871219414E+03 -0.99407654940E+03 -0.17071292960E+04  0.19969296502E+04  0.15294330000E+03 0.  0.
    8880022    1    1    2    0    0  0.24871219414E+03  0.99407654940E+03  0.23038215788E+03  0.10613734184E+04  0.15294330000E+03 0.  0.
<mgrwt>
<rscale>  0 0.10360683E+04</rscale>
<asrwt>0</asrwt>
<pdfrwt beam="1">  1        1 0.34885001E+00 0.10360683E+04</pdfrwt>
<pdfrwt beam="2">  1       -1 0.12165815E+00 0.10360683E+04</pdfrwt>
<totfact> 0.11831282E+00</totfact>
</mgrwt>
</event>
<event>
 4    1  0.1852677E-008  0.6500790E+03  0.7818608E-02  0.9806631E-01
         -1   -1    0    0    0  501 -0.00000000000E+00  0.00000000000E+00  0.62393538972E+03  0.62393538975E+03  0.50400000000E-02 0.  1.
          1   -1    0    0  501    0  0.00000000000E+00 -0.00000000000E+00 -0.10622713543E+04  0.10622713544E+04  0.50400000000E-02 0. -1.
    8880022    1    1    2    0    0  0.46919154514E+03 -0.42316710930E+03  0.28836826347E+03  0.71116736204E+03  0.15294330000E+03 0.  0.
    8880022    1    1    2    0    0 -0.46919154514E+03  0.42316710930E+03 -0.72670422809E+03  0.97503938206E+03  0.15294330000E+03 0.  0.
<mgrwt>
<rscale>  0 0.65007904E+03</rscale>
<asrwt>0</asrwt>
<pdfrwt beam="1">  1        1 0.16342636E+00 0.65007904E+03</pdfrwt>
<pdfrwt beam="2">  1       -1 0.95990060E-01 0.65007904E+03</pdfrwt>
<totfact> 0.14815814E+01</totfact>
</mgrwt>
</event>
<event>
 4    1  0.1852677E-008  0.9730642E+03  0.7818608E-02  0.9338591E-01
          1   -1    0    0  501    0  0.00000000000E+00  0.00000000000E+00  0.11587781781E+04  0.11587781781E+04  0.50400000000E-02 0. -1.
         -1   -1    0    0    0  501 -0.00000000000E+00 -0.00000000000E+00 -0.12612804881E+04  0.12612804881E+04  0.50400000000E-02 0.  1.
    8880022    1    1    2    0    0 -0.96096546369E+03 -0.27622048731E+01 -0.76931480131E+03  0.12404431340E+04  0.15294330000E+03 0.  0.
    8880022    1    1    2    0    0  0.96096546369E+03  0.27622048731E+01  0.66681249136E+03  0.11796155322E+04  0.15294330000E+03 0.  0.
<mgrwt>
<rscale>  0 0.97306418E+03</rscale>
<asrwt>0</asrwt>
<pdfrwt beam="1">  1        1 0.17827357E+00 0.97306418E+03</pdfrwt>
<pdfrwt beam="2">  1       -1 0.19404315E+00 0.97306418E+03</pdfrwt>
<totfact> 0.19127464E+00</totfact>
</mgrwt>
</event>
<event>
 4    1  0.1852677E-008  0.2709909E+03  0.7818608E-02  0.1100714E+00
          1   -1    0    0  501    0  0.00000000000E+00  0.00000000000E+00  0.15041854397E+04  0.15041854398E+04  0.50400000000E-02 0. -1.
         -1   -1    0    0    0  501 -0.00000000000E+00 -0.00000000000E+00 -0.39436579721E+03  0.39436579724E+03  0.50400000000E-02 0.  1.
    8880022    1    1    2    0    0  0.11154276096E+03  0.19391396030E+03  0.14434862522E+04  0.14687030418E+04  0.15294330000E+03 0. -1.
    8880022    1    1    2    0    0 -0.11154276096E+03 -0.19391396030E+03 -0.33366660967E+03  0.42984819523E+03  0.15294330000E+03 0.  0.
<mgrwt>
<rscale>  0 0.27099089E+03</rscale>
<asrwt>0</asrwt>
<pdfrwt beam="1">  1        1 0.23141315E+00 0.27099089E+03</pdfrwt>
<pdfrwt beam="2">  1       -1 0.60671661E-01 0.27099089E+03</pdfrwt>
<totfact> 0.20576698E+01</totfact>
</mgrwt>
</event>
<event>
 4    1  0.3017070E-008  0.9940933E+03  0.7818608E-02  0.9315047E-01
          1   -1    0    0  501    0  0.00000000000E+00  0.00000000000E+00  0.21475594480E+04  0.21475594480E+04  0.50400000000E-02 0. -1.
         -1   -1    0    0    0  501 -0.00000000000E+00 -0.00000000000E+00 -0.17718513577E+04  0.17718513577E+04  0.50400000000E-02 0.  1.
    8880022    1    1    2    0    0 -0.96178196439E+02 -0.97753750236E+03  0.18739913470E+04  0.21213356725E+04  0.15294330000E+03 0.  0.
    8880022    1    1    2    0    0  0.96178196439E+02  0.97753750236E+03 -0.14982832567E+04  0.17980751331E+04  0.15294330000E+03 0.  0.
<mgrwt>
<rscale>  0 0.99409329E+03</rscale>
<asrwt>0</asrwt>
<pdfrwt beam="1">  1        1 0.33039376E+00 0.99409329E+03</pdfrwt>
<pdfrwt beam="2">  1       -1 0.27259252E+00 0.99409329E+03</pdfrwt>
<totfact> 0.12022358E-01</totfact>
</mgrwt>
</event>
<event>
 4    1  0.1852677E-008  0.8872027E+03  0.7818608E-02  0.9441722E-01
          1   -1    0    0  501    0  0.00000000000E+00  0.00000000000E+00  0.22304516495E+04  0.22304516495E+04  0.50400000000E-02 0. -1.
         -1   -1    0    0    0  501 -0.00000000000E+00 -0.00000000000E+00 -0.61978851877E+03  0.61978851879E+03  0.50400000000E-02 0.  1.
    8880022    1    1    2    0    0 -0.66230808874E+03 -0.57016223302E+03  0.17405085821E+04  0.19535861266E+04  0.15294330000E+03 0.  0.
    8880022    1    1    2    0    0  0.66230808874E+03  0.57016223302E+03 -0.12984545136E+03  0.89665404178E+03  0.15294330000E+03 0.  0.
<mgrwt>
<rscale>  0 0.88720270E+03</rscale>
<asrwt>0</asrwt>
<pdfrwt beam="1">  1        1 0.34314641E+00 0.88720270E+03</pdfrwt>
<pdfrwt beam="2">  1       -1 0.95352079E-01 0.88720270E+03</pdfrwt>
<totfact> 0.22761585E+00</totfact>
</mgrwt>
</event>
<event>
 4    1  0.1852677E-008  0.6329090E+03  0.7818608E-02  0.9839389E-01
         -1   -1    0    0    0  501 -0.00000000000E+00  0.00000000000E+00  0.22436459890E+03  0.22436459896E+03  0.50400000000E-02 0.  1.
          1   -1    0    0  501    0  0.00000000000E+00 -0.00000000000E+00 -0.18801416996E+04  0.18801416996E+04  0.50400000000E-02 0. -1.
    8880022    1    1    2    0    0 -0.37562879605E+03  0.48588588672E+03 -0.59164218684E+03  0.86637994991E+03  0.15294330000E+03 0.  0.
    8880022    1    1    2    0    0  0.37562879605E+03 -0.48588588672E+03 -0.10641349138E+04  0.12381263486E+04  0.15294330000E+03 0.  0.
<mgrwt>
<rscale>  0 0.63290895E+03</rscale>
<asrwt>0</asrwt>
<pdfrwt beam="1">  1        1 0.28925256E+00 0.63290895E+03</pdfrwt>
<pdfrwt beam="2">  1       -1 0.34517632E-01 0.63290895E+03</pdfrwt>
<totfact> 0.30116497E+01</totfact>
</mgrwt>
</event>
<event>
 4    1  0.1852677E-008  0.2819526E+03  0.7818608E-02  0.1094627E+00
         -1   -1    0    0    0  501 -0.00000000000E+00  0.00000000000E+00  0.11599682342E+03  0.11599682353E+03  0.50400000000E-02 0.  1.
          1   -1    0    0  501    0  0.00000000000E+00 -0.00000000000E+00 -0.24889579359E+04  0.24889579359E+04  0.50400000000E-02 0. -1.
    8880022    1    1    2    0    0 -0.36325464265E+02 -0.23406426555E+03 -0.77730451940E+02  0.29247101725E+03  0.15294330000E+03 0.  1.
    8880022    1    1    2    0    0  0.36325464265E+02  0.23406426555E+03 -0.22952306605E+04  0.23124837422E+04  0.15294330000E+03 0.  0.
<mgrwt>
<rscale>  0 0.28195261E+03</rscale>
<asrwt>0</asrwt>
<pdfrwt beam="1">  1        1 0.38291657E+00 0.28195261E+03</pdfrwt>
<pdfrwt beam="2">  1       -1 0.17845667E-01 0.28195261E+03</pdfrwt>
<totfact> 0.39267727E+01</totfact>
</mgrwt>
</event>
<event>
 4    1  0.1852677E-008  0.7419974E+03  0.7818608E-02  0.9647990E-01
          1   -1    0    0  501    0  0.00000000000E+00  0.00000000000E+00  0.21377482791E+04  0.21377482791E+04  0.50400000000E-02 0. -1.
         -1   -1    0    0    0  501 -0.00000000000E+00 -0.00000000000E+00 -0.40478930199E+03  0.40478930202E+03  0.50400000000E-02 0.  1.
    8880022    1    1    2    0    0  0.38376290557E+02  0.72504876710E+03  0.99742440408E+02  0.74867126416E+03  0.15294330000E+03 0.  0.
    8880022    1    1    2    0    0 -0.38376290557E+02 -0.72504876710E+03  0.16332165367E+04  0.17938663170E+04  0.15294330000E+03 0.  0.
<mgrwt>
<rscale>  0 0.74199738E+03</rscale>
<asrwt>0</asrwt>
<pdfrwt beam="1">  1        1 0.32888435E+00 0.74199738E+03</pdfrwt>
<pdfrwt beam="2">  1       -1 0.62275277E-01 0.74199738E+03</pdfrwt>
<totfact> 0.66096039E+00</totfact>
</mgrwt>
</event>
<event>
 4    1  0.1852677E-008  0.9862041E+03  0.7818608E-02  0.9323807E-01
         -1   -1    0    0    0  501 -0.00000000000E+00  0.00000000000E+00  0.13134107115E+04  0.13134107115E+04  0.50400000000E-02 0.  1.
          1   -1    0    0  501    0  0.00000000000E+00 -0.00000000000E+00 -0.10891609531E+04  0.10891609532E+04  0.50400000000E-02 0. -1.
    8880022    1    1    2    0    0 -0.38479603089E+00  0.97427244546E+03 -0.56753785776E+03  0.11378478892E+04  0.15294330000E+03 0.  0.
    8880022    1    1    2    0    0  0.38479603089E+00 -0.97427244546E+03  0.79178761607E+03  0.12647237754E+04  0.15294330000E+03 0.  0.
<mgrwt>
<rscale>  0 0.98620414E+03</rscale>
<asrwt>0</asrwt>
<pdfrwt beam="1">  1        1 0.16756323E+00 0.98620414E+03</pdfrwt>
<pdfrwt beam="2">  1       -1 0.20206318E+00 0.98620414E+03</pdfrwt>
<totfact> 0.18942912E+00</totfact>
</mgrwt>
</event>
<event>
 4    1  0.1852677E-008  0.4041243E+03  0.7818608E-02  0.1042361E+00
         -1   -1    0    0    0  501 -0.00000000000E+00  0.00000000000E+00  0.28417821523E+03  0.28417821527E+03  0.50400000000E-02 0.  1.
          1   -1    0    0  501    0  0.00000000000E+00 -0.00000000000E+00 -0.16617410702E+04  0.16617410702E+04  0.50400000000E-02 0. -1.
    8880022    1    1    2    0    0 -0.26594425868E+03 -0.26305591428E+03  0.98149640718E+02  0.41587229741E+03  0.15294330000E+03 0.  0.
    8880022    1    1    2    0    0  0.26594425868E+03  0.26305591428E+03 -0.14757124957E+04  0.15300469881E+04  0.15294330000E+03 0.  0.
<mgrwt>
<rscale>  0 0.40412426E+03</rscale>
<asrwt>0</asrwt>
<pdfrwt beam="1">  1        1 0.25565247E+00 0.40412426E+03</pdfrwt>
<pdfrwt beam="2">  1       -1 0.43719726E-01 0.40412426E+03</pdfrwt>
<totfact> 0.28728881E+01</totfact>
</mgrwt>
</event>
<event>
 4    1  0.1852677E-008  0.2385884E+03  0.7818608E-02  0.1120737E+00
         -1   -1    0    0    0  501 -0.00000000000E+00  0.00000000000E+00  0.88607318690E+03  0.88607318692E+03  0.50400000000E-02 0.  1.
          1   -1    0    0  501    0  0.00000000000E+00 -0.00000000000E+00 -0.32603462544E+03  0.32603462548E+03  0.50400000000E-02 0. -1.
    8880022    1    1    2    0    0 -0.90467168968E+02  0.15921206625E+03 -0.26305201836E+03  0.35513491532E+03  0.15294330000E+03 0.  0.
    8880022    1    1    2    0    0  0.90467168968E+02 -0.15921206625E+03  0.82309057983E+03  0.85697289707E+03  0.15294330000E+03 0.  0.
<mgrwt>
<rscale>  0 0.23858844E+03</rscale>
<asrwt>0</asrwt>
<pdfrwt beam="1">  1        1 0.50159174E-01 0.23858844E+03</pdfrwt>
<pdfrwt beam="2">  1       -1 0.13631895E+00 0.23858844E+03</pdfrwt>
<totfact> 0.38894570E+01</totfact>
</mgrwt>
</event>
<event>
 4    1  0.1852677E-008  0.3167455E+03  0.7818608E-02  0.1077157E+00
          1   -1    0    0  501    0  0.00000000000E+00  0.00000000000E+00  0.10721739376E+04  0.10721739376E+04  0.50400000000E-02 0. -1.
         -1   -1    0    0    0  501 -0.00000000000E+00 -0.00000000000E+00 -0.52970340701E+03  0.52970340704E+03  0.50400000000E-02 0.  1.
    8880022    1    1    2    0    0 -0.22970741958E+03  0.15546884134E+03  0.99799442747E+03  0.10470532888E+04  0.15294330000E+03 0. -1.
    8880022    1    1    2    0    0  0.22970741958E+03 -0.15546884134E+03 -0.45552389693E+03  0.55482405584E+03  0.15294330000E+03 0.  0.
<mgrwt>
<rscale>  0 0.31674550E+03</rscale>
<asrwt>0</asrwt>
<pdfrwt beam="1">  1        1 0.16494984E+00 0.31674550E+03</pdfrwt>
<pdfrwt beam="2">  1       -1 0.81492832E-01 0.31674550E+03</pdfrwt>
<totfact> 0.22265022E+01</totfact>
</mgrwt>
</event>
<event>
 4    1  0.1852677E-008  0.1040625E+04  0.7818608E-02  0.9265077E-01
          1   -1    0    0  501    0  0.00000000000E+00  0.00000000000E+00  0.13666521523E+04  0.13666521523E+04  0.50400000000E-02 0. -1.
         -1   -1    0    0    0  501 -0.00000000000E+00 -0.00000000000E+00 -0.11932374293E+04  0.11932374293E+04  0.50400000000E-02 0.  1.
    8880022    1    1    2    0    0 -0.90842505205E+02  0.10253077737E+04 -0.65515930640E+03  0.12296884814E+04  0.15294330000E+03 0.  0.
    8880022    1    1    2    0    0  0.90842505205E+02 -0.10253077737E+04  0.82857402942E+03  0.13302011002E+04  0.15294330000E+03 0.  0.
<mgrwt>
<rscale>  0 0.10406248E+04</rscale>
<asrwt>0</asrwt>
<pdfrwt beam="1">  1        1 0.21025418E+00 0.10406248E+04</pdfrwt>
<pdfrwt beam="2">  1       -1 0.18357499E+00 0.10406248E+04</pdfrwt>
<totfact> 0.15907383E+00</totfact>
</mgrwt>
</event>
<event>
 4    1  0.1852677E-008  0.5971108E+03  0.7818608E-02  0.9911419E-01
         -1   -1    0    0    0  501 -0.00000000000E+00  0.00000000000E+00  0.79354285316E+03  0.79354285317E+03  0.50400000000E-02 0.  1.
          1   -1    0    0  501    0  0.00000000000E+00 -0.00000000000E+00 -0.68864680158E+03  0.68864680160E+03  0.50400000000E-02 0. -1.
    8880022    1    1    2    0    0  0.43795990298E+03  0.37595309244E+03  0.48935253183E+03  0.77201499840E+03  0.15294330000E+03 0.  0.
    8880022    1    1    2    0    0 -0.43795990298E+03 -0.37595309244E+03 -0.38445648025E+03  0.71017465637E+03  0.15294330000E+03 0.  0.
<mgrwt>
<rscale>  0 0.59711076E+03</rscale>
<asrwt>0</asrwt>
<pdfrwt beam="1">  1        1 0.10594566E+00 0.59711076E+03</pdfrwt>
<pdfrwt beam="2">  1       -1 0.12208351E+00 0.59711076E+03</pdfrwt>
<totfact> 0.17374745E+01</totfact>
</mgrwt>
</event>
<event>
 4    1  0.1852677E-008  0.2596367E+03  0.7818608E-02  0.1107362E+00
          1   -1    0    0  501    0  0.00000000000E+00  0.00000000000E+00  0.18252681888E+04  0.18252681888E+04  0.50400000000E-02 0. -1.
         -1   -1    0    0    0  501 -0.00000000000E+00 -0.00000000000E+00 -0.24007763784E+03  0.24007763789E+03  0.50400000000E-02 0.  1.
    8880022    1    1    2    0    0 -0.95347501259E+02  0.18689142899E+03  0.17425227462E+04  0.17617595540E+04  0.15294330000E+03 0.  0.
    8880022    1    1    2    0    0  0.95347501259E+02 -0.18689142899E+03 -0.15733219529E+03  0.30358627261E+03  0.15294330000E+03 0.  0.
<mgrwt>
<rscale>  0 0.25963668E+03</rscale>
<asrwt>0</asrwt>
<pdfrwt beam="1">  1        1 0.28081049E+00 0.25963668E+03</pdfrwt>
<pdfrwt beam="2">  1       -1 0.36935021E-01 0.25963668E+03</pdfrwt>
<totfact> 0.31718998E+01</totfact>
</mgrwt>
</event>
<event>
 4    1  0.1852677E-008  0.7992820E+03  0.7818608E-02  0.9561057E-01
          1   -1    0    0  501    0  0.00000000000E+00  0.00000000000E+00  0.21978961877E+04  0.21978961877E+04  0.50400000000E-02 0. -1.
         -1   -1    0    0    0  501 -0.00000000000E+00 -0.00000000000E+00 -0.38189944349E+03  0.38189944352E+03  0.50400000000E-02 0.  1.
    8880022    1    1    2    0    0  0.39819167784E+03 -0.67594638138E+03  0.15384618081E+04  0.17337002368E+04  0.15294330000E+03 0.  0.
    8880022    1    1    2    0    0 -0.39819167784E+03  0.67594638138E+03  0.27753493609E+03  0.84609539448E+03  0.15294330000E+03 0.  0.
<mgrwt>
<rscale>  0 0.79928204E+03</rscale>
<asrwt>0</asrwt>
<pdfrwt beam="1">  1        1 0.33813787E+00 0.79928204E+03</pdfrwt>
<pdfrwt beam="2">  1       -1 0.58753761E-01 0.79928204E+03</pdfrwt>
<totfact> 0.66937169E+00</totfact>
</mgrwt>
</event>
<event>
 4    1  0.1852677E-008  0.1778807E+03  0.7818608E-02  0.1169870E+00
         -1   -1    0    0    0  501 -0.00000000000E+00  0.00000000000E+00  0.10449606452E+03  0.10449606464E+03  0.50400000000E-02 0.  1.
          1   -1    0    0  501    0  0.00000000000E+00 -0.00000000000E+00 -0.63565177261E+03  0.63565177263E+03  0.50400000000E-02 0. -1.
    8880022    1    1    2    0    0 -0.90256347012E+02  0.10182168022E+02 -0.53337347862E+03  0.56225332852E+03  0.15294330000E+03 0. -1.
    8880022    1    1    2    0    0  0.90256347012E+02 -0.10182168022E+02  0.22177705325E+01  0.17789450875E+03  0.15294330000E+03 0.  0.
<mgrwt>
<rscale>  0 0.17788068E+03</rscale>
<asrwt>0</asrwt>
<pdfrwt beam="1">  1        1 0.97792578E-01 0.17788068E+03</pdfrwt>
<pdfrwt beam="2">  1       -1 0.16076318E-01 0.17788068E+03</pdfrwt>
<totfact> 0.93427242E+02</totfact>
</mgrwt>
</event>
<event>
 4    1  0.1852677E-008  0.5939903E+03  0.7818608E-02  0.9917953E-01
          1   -1    0    0  501    0  0.00000000000E+00  0.00000000000E+00  0.87969916433E+03  0.87969916435E+03  0.50400000000E-02 0. -1.
         -1   -1    0    0    0  501 -0.00000000000E+00 -0.00000000000E+00 -0.11216951671E+04  0.11216951671E+04  0.50400000000E-02 0.  1.
    8880022    1    1    2    0    0  0.40288827808E+03  0.40879556792E+03 -0.92307998726E+03  0.10976798699E+04  0.15294330000E+03 0.  0.
    8880022    1    1    2    0    0 -0.40288827808E+03 -0.40879556792E+03  0.68108398451E+03  0.90371446150E+03  0.15294330000E+03 0. -1.
<mgrwt>
<rscale>  0 0.59399026E+03</rscale>
<asrwt>0</asrwt>
<pdfrwt beam="1">  1        1 0.13533833E+00 0.59399026E+03</pdfrwt>
<pdfrwt beam="2">  1       -1 0.17256849E+00 0.59399026E+03</pdfrwt>
<totfact> 0.47467317E+00</totfact>
</mgrwt>
</event>
<event>
 4    1  0.1852677E-008  0.6333257E+03  0.7818608E-02  0.9838580E-01
         -1   -1    0    0    0  501 -0.00000000000E+00  0.00000000000E+00  0.39272547979E+03  0.39272547983E+03  0.50400000000E-02 0.  1.
          1   -1    0    0  501    0  0.00000000000E+00 -0.00000000000E+00 -0.19328050844E+04  0.19328050844E+04  0.50400000000E-02 0. -1.
    8880022    1    1    2    0    0 -0.43942596083E+03 -0.42966798033E+03  0.28452954502E+02  0.63396448797E+03  0.15294330000E+03 0.  0.
    8880022    1    1    2    0    0  0.43942596083E+03  0.42966798033E+03 -0.15685325591E+04  0.16915660762E+04  0.15294330000E+03 0.  0.
<mgrwt>
<rscale>  0 0.63332567E+03</rscale>
<asrwt>0</asrwt>
<pdfrwt beam="1">  1        1 0.29735462E+00 0.63332567E+03</pdfrwt>
<pdfrwt beam="2">  1       -1 0.60419306E-01 0.63332567E+03</pdfrwt>
<totfact> 0.98042955E+00</totfact>
</mgrwt>
</event>
<event>
 4    1  0.1852677E-008  0.6277469E+03  0.7818608E-02  0.9849455E-01
         -1   -1    0    0    0  501 -0.00000000000E+00  0.00000000000E+00  0.70832999027E+03  0.70832999029E+03  0.50400000000E-02 0.  1.
          1   -1    0    0  501    0  0.00000000000E+00 -0.00000000000E+00 -0.91329115758E+03  0.91329115759E+03  0.50400000000E-02 0. -1.
    8880022    1    1    2    0    0 -0.16868010303E+03  0.58499705388E+03 -0.60938308441E+03  0.87487937842E+03  0.15294330000E+03 0.  0.
    8880022    1    1    2    0    0  0.16868010303E+03 -0.58499705388E+03  0.40442191710E+03  0.74674176946E+03  0.15294330000E+03 0.  0.
<mgrwt>
<rscale>  0 0.62774691E+03</rscale>
<asrwt>0</asrwt>
<pdfrwt beam="1">  1        1 0.14050633E+00 0.62774691E+03</pdfrwt>
<pdfrwt beam="2">  1       -1 0.10897384E+00 0.62774691E+03</pdfrwt>
<totfact> 0.14508426E+01</totfact>
</mgrwt>
</event>
<event>
 4    1  0.1852677E-008  0.5202789E+03  0.7818608E-02  0.1008617E+00
         -1   -1    0    0    0  501 -0.00000000000E+00  0.00000000000E+00  0.12879147997E+03  0.12879148007E+03  0.50400000000E-02 0.  1.
          1   -1    0    0  501    0  0.00000000000E+00 -0.00000000000E+00 -0.30782742633E+04  0.30782742633E+04  0.50400000000E-02 0. -1.
    8880022    1    1    2    0    0  0.45839801523E+03 -0.19279443317E+03 -0.57158855041E+03  0.77291885589E+03  0.15294330000E+03 0.  1.
    8880022    1    1    2    0    0 -0.45839801523E+03  0.19279443317E+03 -0.23778942329E+04  0.24341468875E+04  0.15294330000E+03 0.  0.
<mgrwt>
<rscale>  0 0.52027885E+03</rscale>
<asrwt>0</asrwt>
<pdfrwt beam="1">  1        1 0.47358060E+00 0.52027885E+03</pdfrwt>
<pdfrwt beam="2">  1       -1 0.19814076E-01 0.52027885E+03</pdfrwt>
<totfact> 0.12099163E+01</totfact>
</mgrwt>
</event>
<event>
 4    1  0.1852677E-008  0.1764715E+04  0.7818608E-02  0.8725292E-01
          1   -1    0    0  501    0  0.00000000000E+00  0.00000000000E+00  0.23847889613E+04  0.23847889613E+04  0.50400000000E-02 0. -1.
         -1   -1    0    0    0  501 -0.00000000000E+00 -0.00000000000E+00 -0.18008972674E+04  0.18008972674E+04  0.50400000000E-02 0.  1.
    8880022    1    1    2    0    0  0.85680394134E+03  0.15351596294E+04 -0.80530927248E+03  0.19397790490E+04  0.15294330000E+03 0.  0.
    8880022    1    1    2    0    0 -0.85680394134E+03 -0.15351596294E+04  0.13892009664E+04  0.22459071797E+04  0.15294330000E+03 0.  0.
<mgrwt>
<rscale>  0 0.17647152E+04</rscale>
<asrwt>0</asrwt>
<pdfrwt beam="1">  1        1 0.36689061E+00 0.17647152E+04</pdfrwt>
<pdfrwt beam="2">  1       -1 0.27706112E+00 0.17647152E+04</pdfrwt>
<totfact> 0.69074856E-02</totfact>
</mgrwt>
</event>
<event>
 4    1  0.1852677E-008  0.7499340E+03  0.7818608E-02  0.9635454E-01
         -1   -1    0    0    0  501 -0.00000000000E+00  0.00000000000E+00  0.45911868842E+03  0.45911868845E+03  0.50400000000E-02 0.  1.
          1   -1    0    0  501    0  0.00000000000E+00 -0.00000000000E+00 -0.18798528029E+04  0.18798528029E+04  0.50400000000E-02 0. -1.
    8880022    1    1    2    0    0  0.73368656376E+03 -0.26708958122E+02 -0.14006368457E+04  0.15887682552E+04  0.15294330000E+03 0.  0.
    8880022    1    1    2    0    0 -0.73368656376E+03  0.26708958122E+02 -0.20097268802E+02  0.75020323614E+03  0.15294330000E+03 0.  0.
<mgrwt>
<rscale>  0 0.74993399E+03</rscale>
<asrwt>0</asrwt>
<pdfrwt beam="1">  1        1 0.28920812E+00 0.74993399E+03</pdfrwt>
<pdfrwt beam="2">  1       -1 0.70633645E-01 0.74993399E+03</pdfrwt>
<totfact> 0.76142652E+00</totfact>
</mgrwt>
</event>
<event>
 4    1  0.1852677E-008  0.8888373E+03  0.7818608E-02  0.9439644E-01
         -1   -1    0    0    0  501 -0.00000000000E+00  0.00000000000E+00  0.11916569791E+04  0.11916569791E+04  0.50400000000E-02 0.  1.
          1   -1    0    0  501    0  0.00000000000E+00 -0.00000000000E+00 -0.12696328258E+04  0.12696328258E+04  0.50400000000E-02 0. -1.
    8880022    1    1    2    0    0  0.45298959140E+03  0.74929336955E+03  0.81169495808E+03  0.12036945134E+04  0.15294330000E+03 0.  0.
    8880022    1    1    2    0    0 -0.45298959140E+03 -0.74929336955E+03 -0.88967080475E+03  0.12575952916E+04  0.15294330000E+03 0.  0.
<mgrwt>
<rscale>  0 0.88883732E+03</rscale>
<asrwt>0</asrwt>
<pdfrwt beam="1">  1        1 0.19532813E+00 0.88883732E+03</pdfrwt>
<pdfrwt beam="2">  1       -1 0.18333184E+00 0.88883732E+03</pdfrwt>
<totfact> 0.19130407E+00</totfact>
</mgrwt>
</event>
<event>
 4    1  0.1852677E-008  0.9838579E+03  0.7818608E-02  0.9326429E-01
          1   -1    0    0  501    0  0.00000000000E+00  0.00000000000E+00  0.67664289195E+03  0.67664289197E+03  0.50400000000E-02 0. -1.
         -1   -1    0    0    0  501 -0.00000000000E+00 -0.00000000000E+00 -0.18275016198E+04  0.18275016198E+04  0.50400000000E-02 0.  1.
    8880022    1    1    2    0    0  0.19640565154E+03 -0.95184532401E+03  0.81035581579E+01  0.98389126506E+03  0.15294330000E+03 0.  0.
    8880022    1    1    2    0    0 -0.19640565154E+03  0.95184532401E+03 -0.11589622860E+04  0.15202532468E+04  0.15294330000E+03 0.  0.
<mgrwt>
<rscale>  0 0.98385789E+03</rscale>
<asrwt>0</asrwt>
<pdfrwt beam="1">  1        1 0.10409891E+00 0.98385789E+03</pdfrwt>
<pdfrwt beam="2">  1       -1 0.28115409E+00 0.98385789E+03</pdfrwt>
<totfact> 0.12720955E+00</totfact>
</mgrwt>
</event>
<event>
 4    1  0.1852677E-008  0.5771116E+03  0.7818608E-02  0.9954064E-01
          1   -1    0    0  501    0  0.00000000000E+00  0.00000000000E+00  0.90871905718E+03  0.90871905720E+03  0.50400000000E-02 0. -1.
         -1   -1    0    0    0  501 -0.00000000000E+00 -0.00000000000E+00 -0.45745725041E+03  0.45745725044E+03  0.50400000000E-02 0.  1.
    8880022    1    1    2    0    0  0.95700071232E+02 -0.54818573832E+03 -0.78939736790E+02  0.58248540101E+03  0.15294330000E+03 0.  0.
    8880022    1    1    2    0    0 -0.95700071232E+02  0.54818573832E+03  0.53020154356E+03  0.78369090663E+03  0.15294330000E+03 0.  0.
<mgrwt>
<rscale>  0 0.57711157E+03</rscale>
<asrwt>0</asrwt>
<pdfrwt beam="1">  1        1 0.13980293E+00 0.57711157E+03</pdfrwt>
<pdfrwt beam="2">  1       -1 0.70378039E-01 0.57711157E+03</pdfrwt>
<totfact> 0.38208606E+01</totfact>
</mgrwt>
</event>
<event>
 4    1  0.1852677E-008  0.2130914E+03  0.7818608E-02  0.1139141E+00
         -1   -1    0    0    0  501 -0.00000000000E+00  0.00000000000E+00  0.51696879661E+02  0.51696879906E+02  0.50400000000E-02 0.  1.
          1   -1    0    0  501    0  0.00000000000E+00 -0.00000000000E+00 -0.11207420984E+04  0.11207420984E+04  0.50400000000E-02 0. -1.
    8880022    1    1    2    0    0  0.13458552545E+03 -0.62474181289E+02 -0.80714836851E+03  0.83480322759E+03  0.15294330000E+03 0.  0.
    8880022    1    1    2    0    0 -0.13458552545E+03  0.62474181289E+02 -0.26189685019E+03  0.33763575068E+03  0.15294330000E+03 0.  1.
<mgrwt>
<rscale>  0 0.21309139E+03</rscale>
<asrwt>0</asrwt>
<pdfrwt beam="1">  1        1 0.17242184E+00 0.21309139E+03</pdfrwt>
<pdfrwt beam="2">  1       -1 0.79533670E-02 0.21309139E+03</pdfrwt>
<totfact> 0.11356143E+03</totfact>
</mgrwt>
</event>
<event>
 4    1  0.1852677E-008  0.5166451E+03  0.7818608E-02  0.1009523E+00
         -1   -1    0    0    0  501 -0.00000000000E+00  0.00000000000E+00  0.47121386451E+03  0.47121386454E+03  0.50400000000E-02 0.  1.
          1   -1    0    0  501    0  0.00000000000E+00 -0.00000000000E+00 -0.89137765172E+03  0.89137765174E+03  0.50400000000E-02 0. -1.
    8880022    1    1    2    0    0 -0.45920188028E+03  0.18073236617E+03  0.20125127691E+03  0.55445855075E+03  0.15294330000E+03 0.  0.
    8880022    1    1    2    0    0  0.45920188028E+03 -0.18073236617E+03 -0.62141506412E+03  0.80813296552E+03  0.15294330000E+03 0. -1.
<mgrwt>
<rscale>  0 0.51664515E+03</rscale>
<asrwt>0</asrwt>
<pdfrwt beam="1">  1        1 0.13713502E+00 0.51664515E+03</pdfrwt>
<pdfrwt beam="2">  1       -1 0.72494441E-01 0.51664515E+03</pdfrwt>
<totfact> 0.37460651E+01</totfact>
</mgrwt>
</event>
<event>
 4    1  0.1852677E-008  0.5321948E+03  0.7818608E-02  0.1005701E+00
         -1   -1    0    0    0  501 -0.00000000000E+00  0.00000000000E+00  0.26091394647E+03  0.26091394651E+03  0.50400000000E-02 0.  1.
          1   -1    0    0  501    0  0.00000000000E+00 -0.00000000000E+00 -0.12236671571E+04  0.12236671571E+04  0.50400000000E-02 0. -1.
    8880022    1    1    2    0    0 -0.47853414870E+03  0.17562669973E+03 -0.73077236657E+03  0.90402410028E+03  0.15294330000E+03 0.  0.
    8880022    1    1    2    0    0  0.47853414870E+03 -0.17562669973E+03 -0.23198084410E+03  0.58055700338E+03  0.15294330000E+03 0.  0.
<mgrwt>
<rscale>  0 0.53219482E+03</rscale>
<asrwt>0</asrwt>
<pdfrwt beam="1">  1        1 0.18825648E+00 0.53219482E+03</pdfrwt>
<pdfrwt beam="2">  1       -1 0.40140608E-01 0.53219482E+03</pdfrwt>
<totfact> 0.65244857E+01</totfact>
</mgrwt>
</event>
<event>
 4    1  0.1852677E-008  0.4992113E+03  0.7818608E-02  0.1013985E+00
         -1   -1    0    0    0  501 -0.00000000000E+00  0.00000000000E+00  0.35102420674E+03  0.35102420678E+03  0.50400000000E-02 0.  1.
          1   -1    0    0  501    0  0.00000000000E+00 -0.00000000000E+00 -0.87247484170E+03  0.87247484171E+03  0.50400000000E-02 0. -1.
    8880022    1    1    2    0    0 -0.33255646634E+03 -0.33945022631E+03  0.33017142741E+01  0.49922220882E+03  0.15294330000E+03 0.  0.
    8880022    1    1    2    0    0  0.33255646634E+03  0.33945022631E+03 -0.52475234923E+03  0.72427683967E+03  0.15294330000E+03 0.  0.
<mgrwt>
<rscale>  0 0.49921129E+03</rscale>
<asrwt>0</asrwt>
<pdfrwt beam="1">  1        1 0.13422690E+00 0.49921129E+03</pdfrwt>
<pdfrwt beam="2">  1       -1 0.54003724E-01 0.49921129E+03</pdfrwt>
<totfact> 0.69630793E+01</totfact>
</mgrwt>
</event>
<event>
 4    1  0.1936541E-008  0.7364202E+03  0.7818608E-02  0.9656899E-01
         -1   -1    0    0    0  501 -0.00000000000E+00  0.00000000000E+00  0.15034316183E+04  0.15034316183E+04  0.50400000000E-02 0.  1.
          1   -1    0    0  501    0  0.00000000000E+00 -0.00000000000E+00 -0.10066459807E+04  0.10066459807E+04  0.50400000000E-02 0. -1.
    8880022    1    1    2    0    0 -0.59050643673E+03  0.41258348808E+03 -0.75694232736E+03  0.10560664403E+04  0.15294330000E+03 0.  0.
    8880022    1    1    2    0    0  0.59050643673E+03 -0.41258348808E+03  0.12537279650E+04  0.14540111587E+04  0.15294330000E+03 0.  0.
<mgrwt>
<rscale>  0 0.73642015E+03</rscale>
<asrwt>0</asrwt>
<pdfrwt beam="1">  1        1 0.15486861E+00 0.73642015E+03</pdfrwt>
<pdfrwt beam="2">  1       -1 0.23129717E+00 0.73642015E+03</pdfrwt>
<totfact> 0.14536508E+00</totfact>
</mgrwt>
</event>
<event>
 4    1  0.1852677E-008  0.4477725E+03  0.7818608E-02  0.1028388E+00
          1   -1    0    0  501    0  0.00000000000E+00  0.00000000000E+00  0.34869058808E+03  0.34869058812E+03  0.50400000000E-02 0. -1.
         -1   -1    0    0    0  501 -0.00000000000E+00 -0.00000000000E+00 -0.10255967950E+04  0.10255967950E+04  0.50400000000E-02 0.  1.
    8880022    1    1    2    0    0 -0.28544891192E+03  0.30923686140E+03  0.11700562046E+03  0.46280718015E+03  0.15294330000E+03 0. -1.
    8880022    1    1    2    0    0  0.28544891192E+03 -0.30923686140E+03 -0.79391182740E+03  0.91148020300E+03  0.15294330000E+03 0.  0.
<mgrwt>
<rscale>  0 0.44777245E+03</rscale>
<asrwt>0</asrwt>
<pdfrwt beam="1">  1        1 0.53644706E-01 0.44777245E+03</pdfrwt>
<pdfrwt beam="2">  1       -1 0.15778412E+00 0.44777245E+03</pdfrwt>
<totfact> 0.23299301E+01</totfact>
</mgrwt>
</event>
<event>
 4    1  0.1852677E-008  0.3724853E+03  0.7818608E-02  0.1053747E+00
         -1   -1    0    0    0  501 -0.00000000000E+00  0.00000000000E+00  0.13966365071E+03  0.13966365080E+03  0.50400000000E-02 0.  1.
          1   -1    0    0  501    0  0.00000000000E+00 -0.00000000000E+00 -0.16655713897E+04  0.16655713897E+04  0.50400000000E-02 0. -1.
    8880022    1    1    2    0    0 -0.20979866646E+03  0.26709207247E+03 -0.18955848579E+03  0.41794464726E+03  0.15294330000E+03 0.  0.
    8880022    1    1    2    0    0  0.20979866646E+03 -0.26709207247E+03 -0.13363492532E+04  0.13872903933E+04  0.15294330000E+03 0.  0.
<mgrwt>
<rscale>  0 0.37248531E+03</rscale>
<asrwt>0</asrwt>
<pdfrwt beam="1">  1        1 0.25624174E+00 0.37248531E+03</pdfrwt>
<pdfrwt beam="2">  1       -1 0.21486717E-01 0.37248531E+03</pdfrwt>
<totfact> 0.98322355E+01</totfact>
</mgrwt>
</event>
<event>
 4    1  0.1852677E-008  0.4524278E+03  0.7818608E-02  0.1027001E+00
          1   -1    0    0  501    0  0.00000000000E+00  0.00000000000E+00  0.27220058889E+03  0.27220058893E+03  0.50400000000E-02 0. -1.
         -1   -1    0    0    0  501 -0.00000000000E+00 -0.00000000000E+00 -0.13878824841E+04  0.13878824841E+04  0.50400000000E-02 0.  1.
    8880022    1    1    2    0    0  0.89344637427E+02 -0.41631333512E+03  0.40044698288E+01  0.45244551719E+03  0.15294330000E+03 0.  0.
    8880022    1    1    2    0    0 -0.89344637427E+02  0.41631333512E+03 -0.11196863651E+04  0.12076375559E+04  0.15294330000E+03 0.  0.
<mgrwt>
<rscale>  0 0.45242780E+03</rscale>
<asrwt>0</asrwt>
<pdfrwt beam="1">  1        1 0.41877015E-01 0.45242780E+03</pdfrwt>
<pdfrwt beam="2">  1       -1 0.21352038E+00 0.45242780E+03</pdfrwt>
<totfact> 0.13032667E+01</totfact>
</mgrwt>
</event>
<event>
 4    1  0.1852677E-008  0.5575021E+03  0.7818608E-02  0.9997723E-01
          1   -1    0    0  501    0  0.00000000000E+00  0.00000000000E+00  0.35765012870E+03  0.35765012873E+03  0.50400000000E-02 0. -1.
         -1   -1    0    0    0  501 -0.00000000000E+00 -0.00000000000E+00 -0.10604806335E+04  0.10604806335E+04  0.50400000000E-02 0.  1.
    8880022    1    1    2    0    0  0.31207734195E+03  0.43591813327E+03 -0.65269073965E+03  0.85837855339E+03  0.15294330000E+03 0.  0.
    8880022    1    1    2    0    0 -0.31207734195E+03 -0.43591813327E+03 -0.50139765177E+02  0.55975220888E+03  0.15294330000E+03 0.  0.
<mgrwt>
<rscale>  0 0.55750205E+03</rscale>
<asrwt>0</asrwt>
<pdfrwt beam="1">  1        1 0.55023097E-01 0.55750205E+03</pdfrwt>
<pdfrwt beam="2">  1       -1 0.16315087E+00 0.55750205E+03</pdfrwt>
<totfact> 0.20216601E+01</totfact>
</mgrwt>
</event>
<event>
 4    1  0.1852677E-008  0.8951894E+03  0.7818608E-02  0.9431615E-01
          1   -1    0    0  501    0  0.00000000000E+00  0.00000000000E+00  0.10927132884E+04  0.10927132884E+04  0.50400000000E-02 0. -1.
         -1   -1    0    0    0  501 -0.00000000000E+00 -0.00000000000E+00 -0.89729361015E+03  0.89729361017E+03  0.50400000000E-02 0.  1.
    8880022    1    1    2    0    0 -0.48322411852E+03  0.73787995088E+03 -0.32757214733E+03  0.95324054433E+03  0.15294330000E+03 0.  0.
    8880022    1    1    2    0    0  0.48322411852E+03 -0.73787995088E+03  0.52299182554E+03  0.10367663542E+04  0.15294330000E+03 0.  0.
<mgrwt>
<rscale>  0 0.89518938E+03</rscale>
<asrwt>0</asrwt>
<pdfrwt beam="1">  1        1 0.16810974E+00 0.89518938E+03</pdfrwt>
<pdfrwt beam="2">  1       -1 0.13804517E+00 0.89518938E+03</pdfrwt>
<totfact> 0.56701614E+00</totfact>
</mgrwt>
</event>
<event>
 4    1  0.1852677E-008  0.3627471E+03  0.7818608E-02  0.1057501E+00
          1   -1    0    0  501    0  0.00000000000E+00  0.00000000000E+00  0.21009707202E+04  0.21009707203E+04  0.50400000000E-02 0. -1.
         -1   -1    0    0    0  501 -0.00000000000E+00 -0.00000000000E+00 -0.28032994581E+03  0.28032994585E+03  0.50400000000E-02 0.  1.
    8880022    1    1    2    0    0  0.12082111730E+03 -0.30593479320E+03  0.19595676529E+04  0.19928599748E+04  0.15294330000E+03 0.  0.
    8880022    1    1    2    0    0 -0.12082111730E+03  0.30593479320E+03 -0.13892687843E+03  0.38844069128E+03  0.15294330000E+03 0.  1.
<mgrwt>
<rscale>  0 0.36274715E+03</rscale>
<asrwt>0</asrwt>
<pdfrwt beam="1">  1        1 0.32322627E+00 0.36274715E+03</pdfrwt>
<pdfrwt beam="2">  1       -1 0.43127684E-01 0.36274715E+03</pdfrwt>
<totfact> 0.15323215E+01</totfact>
</mgrwt>
</event>
<event>
 4    1  0.1852677E-008  0.5816044E+03  0.7818608E-02  0.9944323E-01
         -1   -1    0    0    0  501 -0.00000000000E+00  0.00000000000E+00  0.73860119145E+03  0.73860119147E+03  0.50400000000E-02 0.  1.
          1   -1    0    0  501    0  0.00000000000E+00 -0.00000000000E+00 -0.77768554205E+03  0.77768554207E+03  0.50400000000E-02 0. -1.
    8880022    1    1    2    0    0  0.50098930032E+03  0.25274845965E+03  0.46655735137E+03  0.74561349105E+03  0.15294330000E+03 0.  1.
    8880022    1    1    2    0    0 -0.50098930032E+03 -0.25274845965E+03 -0.50564170197E+03  0.77067324249E+03  0.15294330000E+03 0.  0.
<mgrwt>
<rscale>  0 0.58160443E+03</rscale>
<asrwt>0</asrwt>
<pdfrwt beam="1">  1        1 0.11964393E+00 0.58160443E+03</pdfrwt>
<pdfrwt beam="2">  1       -1 0.11363095E+00 0.58160443E+03</pdfrwt>
<totfact> 0.17190760E+01</totfact>
</mgrwt>
</event>
<event>
 4    1  0.1852677E-008  0.5405821E+03  0.7818608E-02  0.1003698E+00
         -1   -1    0    0    0  501 -0.00000000000E+00  0.00000000000E+00  0.43011654441E+03  0.43011654444E+03  0.50400000000E-02 0.  1.
          1   -1    0    0  501    0  0.00000000000E+00 -0.00000000000E+00 -0.15007743873E+04  0.15007743873E+04  0.50400000000E-02 0. -1.
    8880022    1    1    2    0    0 -0.49734818533E+03 -0.14656802419E+03 -0.12495551254E+04  0.13614760621E+04  0.15294330000E+03 0.  0.
    8880022    1    1    2    0    0  0.49734818533E+03  0.14656802419E+03  0.17889728247E+03  0.56941486971E+03  0.15294330000E+03 0.  0.
<mgrwt>
<rscale>  0 0.54058215E+03</rscale>
<asrwt>0</asrwt>
<pdfrwt beam="1">  1        1 0.23088837E+00 0.54058215E+03</pdfrwt>
<pdfrwt beam="2">  1       -1 0.66171777E-01 0.54058215E+03</pdfrwt>
<totfact> 0.16211524E+01</totfact>
</mgrwt>
</event>
<event>
 4    1  0.1852677E-008  0.6598425E+03  0.7818608E-02  0.9788484E-01
          1   -1    0    0  501    0  0.00000000000E+00  0.00000000000E+00  0.99265026899E+03  0.99265026901E+03  0.50400000000E-02 0. -1.
         -1   -1    0    0    0  501 -0.00000000000E+00 -0.00000000000E+00 -0.96186396777E+03  0.96186396779E+03  0.50400000000E-02 0.  1.
    8880022    1    1    2    0    0 -0.59388396620E+03  0.24352052760E+03 -0.70539208755E+03  0.96590375446E+03  0.15294330000E+03 0.  0.
    8880022    1    1    2    0    0  0.59388396620E+03 -0.24352052760E+03  0.73617838877E+03  0.98861048234E+03  0.15294330000E+03 0.  0.
<mgrwt>
<rscale>  0 0.65984246E+03</rscale>
<asrwt>0</asrwt>
<pdfrwt beam="1">  1        1 0.15271543E+00 0.65984246E+03</pdfrwt>
<pdfrwt beam="2">  1       -1 0.14797907E+00 0.65984246E+03</pdfrwt>
<totfact> 0.58313809E+00</totfact>
</mgrwt>
</event>
<event>
 4    1  0.1852677E-008  0.4149464E+03  0.7818608E-02  0.1038724E+00
          1   -1    0    0  501    0  0.00000000000E+00  0.00000000000E+00  0.43044563986E+03  0.43044563989E+03  0.50400000000E-02 0. -1.
         -1   -1    0    0    0  501 -0.00000000000E+00 -0.00000000000E+00 -0.15585388280E+04  0.15585388280E+04  0.50400000000E-02 0.  1.
    8880022    1    1    2    0    0 -0.27910390541E+03  0.26625157349E+03 -0.14214730580E+04  0.14807991755E+04  0.15294330000E+03 0.  0.
    8880022    1    1    2    0    0  0.27910390541E+03 -0.26625157349E+03  0.29337986985E+03  0.50818529244E+03  0.15294330000E+03 0.  0.
<mgrwt>
<rscale>  0 0.41494643E+03</rscale>
<asrwt>0</asrwt>
<pdfrwt beam="1">  1        1 0.66222407E-01 0.41494643E+03</pdfrwt>
<pdfrwt beam="2">  1       -1 0.23977520E+00 0.41494643E+03</pdfrwt>
<totfact> 0.49054672E+00</totfact>
</mgrwt>
</event>
<event>
 4    1  0.1852677E-008  0.4789896E+03  0.7818608E-02  0.1019413E+00
          1   -1    0    0  501    0  0.00000000000E+00  0.00000000000E+00  0.43120042740E+04  0.43120042740E+04  0.50400000000E-02 0. -1.
         -1   -1    0    0    0  501 -0.00000000000E+00 -0.00000000000E+00 -0.22832998438E+03  0.22832998443E+03  0.50400000000E-02 0.  1.
    8880022    1    1    2    0    0  0.24132835829E+03 -0.38444770545E+03  0.53695677707E+02  0.48198993097E+03  0.15294330000E+03 0.  0.
    8880022    1    1    2    0    0 -0.24132835829E+03  0.38444770545E+03  0.40299786119E+04  0.40583443274E+04  0.15294330000E+03 0. -1.
<mgrwt>
<rscale>  0 0.47898963E+03</rscale>
<asrwt>0</asrwt>
<pdfrwt beam="1">  1        1 0.66338521E+00 0.47898963E+03</pdfrwt>
<pdfrwt beam="2">  1       -1 0.35127693E-01 0.47898963E+03</pdfrwt>
<totfact> 0.46774914E-01</totfact>
</mgrwt>
</event>
<event>
 4    1  0.1852677E-008  0.4006531E+03  0.7818608E-02  0.1043554E+00
          1   -1    0    0  501    0  0.00000000000E+00  0.00000000000E+00  0.15228005198E+03  0.15228005207E+03  0.50400000000E-02 0. -1.
         -1   -1    0    0    0  501 -0.00000000000E+00 -0.00000000000E+00 -0.14297822386E+04  0.14297822387E+04  0.50400000000E-02 0.  1.
    8880022    1    1    2    0    0 -0.37013734668E+03  0.11385259721E+02 -0.10442145999E+04  0.11184395662E+04  0.15294330000E+03 0.  0.
    8880022    1    1    2    0    0  0.37013734668E+03 -0.11385259721E+02 -0.23328758672E+03  0.46362272450E+03  0.15294330000E+03 0.  0.
<mgrwt>
<rscale>  0 0.40065313E+03</rscale>
<asrwt>0</asrwt>
<pdfrwt beam="1">  1        1 0.23427701E-01 0.40065313E+03</pdfrwt>
<pdfrwt beam="2">  1       -1 0.21996649E+00 0.40065313E+03</pdfrwt>
<totfact> 0.25144156E+01</totfact>
</mgrwt>
</event>
<event>
 4    1  0.1852677E-008  0.1912026E+03  0.7818608E-02  0.1157381E+00
          1   -1    0    0  501    0  0.00000000000E+00  0.00000000000E+00  0.11306730694E+03  0.11306730705E+03  0.50400000000E-02 0. -1.
         -1   -1    0    0    0  501 -0.00000000000E+00 -0.00000000000E+00 -0.72037132140E+03  0.72037132142E+03  0.50400000000E-02 0.  1.
    8880022    1    1    2    0    0 -0.95201967962E+02 -0.64057629740E+02  0.57202486652E+01  0.19128818283E+03  0.15294330000E+03 0.  0.
    8880022    1    1    2    0    0  0.95201967962E+02  0.64057629740E+02 -0.61302426313E+03  0.64215044564E+03  0.15294330000E+03 0.  0.
<mgrwt>
<rscale>  0 0.19120264E+03</rscale>
<asrwt>0</asrwt>
<pdfrwt beam="1">  1        1 0.17394971E-01 0.19120264E+03</pdfrwt>
<pdfrwt beam="2">  1       -1 0.11082635E+00 0.19120264E+03</pdfrwt>
<totfact> 0.24671672E+02</totfact>
</mgrwt>
</event>
<event>
 4    1  0.1852677E-008  0.2176468E+03  0.7818608E-02  0.1135650E+00
          1   -1    0    0  501    0  0.00000000000E+00  0.00000000000E+00  0.14686467270E+04  0.14686467270E+04  0.50400000000E-02 0. -1.
         -1   -1    0    0    0  501 -0.00000000000E+00 -0.00000000000E+00 -0.15636779679E+03  0.15636779687E+03  0.50400000000E-02 0.  1.
    8880022    1    1    2    0    0  0.64463249711E+02  0.14079410149E+03  0.13800137247E+04  0.13970712305E+04  0.15294330000E+03 0. -1.
    8880022    1    1    2    0    0 -0.64463249711E+02 -0.14079410149E+03 -0.67734794555E+02  0.22794329336E+03  0.15294330000E+03 0.  0.
<mgrwt>
<rscale>  0 0.21764683E+03</rscale>
<asrwt>0</asrwt>
<pdfrwt beam="1">  1        1 0.22594566E+00 0.21764683E+03</pdfrwt>
<pdfrwt beam="2">  1       -1 0.24056583E-01 0.21764683E+03</pdfrwt>
<totfact> 0.11425308E+02</totfact>
</mgrwt>
</event>
<event>
 4    1  0.1852677E-008  0.9790549E+03  0.7818608E-02  0.9331820E-01
          1   -1    0    0  501    0  0.00000000000E+00  0.00000000000E+00  0.23516759547E+04  0.23516759547E+04  0.50400000000E-02 0. -1.
         -1   -1    0    0    0  501 -0.00000000000E+00 -0.00000000000E+00 -0.97266651182E+03  0.97266651184E+03  0.50400000000E-02 0.  1.
    8880022    1    1    2    0    0  0.41770482252E+03 -0.87216944499E+03  0.19564057351E+04  0.21877092843E+04  0.15294330000E+03 0.  0.
    8880022    1    1    2    0    0 -0.41770482252E+03  0.87216944499E+03 -0.57739629223E+03  0.11366331822E+04  0.15294330000E+03 0.  0.
<mgrwt>
<rscale>  0 0.97905491E+03</rscale>
<asrwt>0</asrwt>
<pdfrwt beam="1">  1        1 0.36179630E+00 0.97905491E+03</pdfrwt>
<pdfrwt beam="2">  1       -1 0.14964100E+00 0.97905491E+03</pdfrwt>
<totfact> 0.61423333E-01</totfact>
</mgrwt>
</event>
<event>
 4    1  0.1852677E-008  0.5110641E+03  0.7818608E-02  0.1010931E+00
         -1   -1    0    0    0  501 -0.00000000000E+00  0.00000000000E+00  0.48951366404E+03  0.48951366406E+03  0.50400000000E-02 0.  1.
          1   -1    0    0  501    0  0.00000000000E+00 -0.00000000000E+00 -0.10813974765E+04  0.10813974765E+04  0.50400000000E-02 0. -1.
    8880022    1    1    2    0    0  0.27603635317E+03 -0.40199356120E+03 -0.85499556500E+03  0.99609435331E+03  0.15294330000E+03 0. -1.
    8880022    1    1    2    0    0 -0.27603635317E+03  0.40199356120E+03  0.26311175257E+03  0.57481678723E+03  0.15294330000E+03 0.  0.
<mgrwt>
<rscale>  0 0.51106413E+03</rscale>
<asrwt>0</asrwt>
<pdfrwt beam="1">  1        1 0.16636884E+00 0.51106413E+03</pdfrwt>
<pdfrwt beam="2">  1       -1 0.75309795E-01 0.51106413E+03</pdfrwt>
<totfact> 0.24720031E+01</totfact>
</mgrwt>
</event>
<event>
 4    1  0.1852677E-008  0.7123406E+03  0.7818608E-02  0.9696358E-01
          1   -1    0    0  501    0  0.00000000000E+00  0.00000000000E+00  0.91602690052E+03  0.91602690053E+03  0.50400000000E-02 0. -1.
         -1   -1    0    0    0  501 -0.00000000000E+00 -0.00000000000E+00 -0.98937549401E+03  0.98937549402E+03  0.50400000000E-02 0.  1.
    8880022    1    1    2    0    0  0.58611533903E+03 -0.37484170283E+03  0.59535209936E+03  0.92837129860E+03  0.15294330000E+03 0.  0.
    8880022    1    1    2    0    0 -0.58611533903E+03  0.37484170283E+03 -0.66870069286E+03  0.97703109596E+03  0.15294330000E+03 0.  0.
<mgrwt>
<rscale>  0 0.71234061E+03</rscale>
<asrwt>0</asrwt>
<pdfrwt beam="1">  1        1 0.14092721E+00 0.71234061E+03</pdfrwt>
<pdfrwt beam="2">  1       -1 0.15221162E+00 0.71234061E+03</pdfrwt>
<totfact> 0.61615758E+00</totfact>
</mgrwt>
</event>
<event>
 4    1  0.1852677E-008  0.3953882E+03  0.7818608E-02  0.1045388E+00
          1   -1    0    0  501    0  0.00000000000E+00  0.00000000000E+00  0.14423838699E+04  0.14423838699E+04  0.50400000000E-02 0. -1.
         -1   -1    0    0    0  501 -0.00000000000E+00 -0.00000000000E+00 -0.23520086166E+03  0.23520086171E+03  0.50400000000E-02 0.  1.
    8880022    1    1    2    0    0  0.33214784457E+03  0.15039270217E+03 -0.12326574141E+02  0.39558027373E+03  0.15294330000E+03 0.  0.
    8880022    1    1    2    0    0 -0.33214784457E+03 -0.15039270217E+03  0.12195095824E+04  0.12820044579E+04  0.15294330000E+03 0.  0.
<mgrwt>
<rscale>  0 0.39538817E+03</rscale>
<asrwt>0</asrwt>
<pdfrwt beam="1">  1        1 0.22190521E+00 0.39538817E+03</pdfrwt>
<pdfrwt beam="2">  1       -1 0.36184748E-01 0.39538817E+03</pdfrwt>
<totfact> 0.56678550E+01</totfact>
</mgrwt>
</event>
<event>
 4    1  0.1852677E-008  0.1892211E+03  0.7818608E-02  0.1159166E+00
          1   -1    0    0  501    0  0.00000000000E+00  0.00000000000E+00  0.24317905806E+04  0.24317905806E+04  0.50400000000E-02 0. -1.
         -1   -1    0    0    0  501 -0.00000000000E+00 -0.00000000000E+00 -0.29230378833E+03  0.29230378837E+03  0.50400000000E-02 0.  1.
    8880022    1    1    2    0    0  0.21353313941E+02  0.10934805754E+03 -0.25755691165E+03  0.31959376943E+03  0.15294330000E+03 0.  1.
    8880022    1    1    2    0    0 -0.21353313941E+02 -0.10934805754E+03  0.23970437040E+04  0.24045005996E+04  0.15294330000E+03 0.  0.
<mgrwt>
<rscale>  0 0.18922107E+03</rscale>
<asrwt>0</asrwt>
<pdfrwt beam="1">  1        1 0.37412162E+00 0.18922107E+03</pdfrwt>
<pdfrwt beam="2">  1       -1 0.44969814E-01 0.18922107E+03</pdfrwt>
<totfact> 0.93703834E+00</totfact>
</mgrwt>
</event>
<event>
 4    1  0.1852677E-008  0.2174816E+03  0.7818608E-02  0.1135775E+00
         -1   -1    0    0    0  501 -0.00000000000E+00  0.00000000000E+00  0.21530278086E+03  0.21530278091E+03  0.50400000000E-02 0.  1.
          1   -1    0    0  501    0  0.00000000000E+00 -0.00000000000E+00 -0.63598935283E+03  0.63598935285E+03  0.50400000000E-02 0. -1.
    8880022    1    1    2    0    0  0.15348736846E+03 -0.18660521092E+02 -0.55471741133E+03  0.59582685973E+03  0.15294330000E+03 0.  0.
    8880022    1    1    2    0    0 -0.15348736846E+03  0.18660521092E+02  0.13403083936E+03  0.25546527404E+03  0.15294330000E+03 0.  0.
<mgrwt>
<rscale>  0 0.21748159E+03</rscale>
<asrwt>0</asrwt>
<pdfrwt beam="1">  1        1 0.97844515E-01 0.21748159E+03</pdfrwt>
<pdfrwt beam="2">  1       -1 0.33123505E-01 0.21748159E+03</pdfrwt>
<totfact> 0.28309588E+02</totfact>
</mgrwt>
</event>
<event>
 4    1  0.1852677E-008  0.5697156E+03  0.7818608E-02  0.9970308E-01
         -1   -1    0    0    0  501 -0.00000000000E+00  0.00000000000E+00  0.13618944540E+04  0.13618944540E+04  0.50400000000E-02 0.  1.
          1   -1    0    0  501    0  0.00000000000E+00 -0.00000000000E+00 -0.80680526874E+03  0.80680526875E+03  0.50400000000E-02 0. -1.
    8880022    1    1    2    0    0 -0.16764079559E+03 -0.52257133976E+03  0.11877556151E+04  0.13173227758E+04  0.15294330000E+03 0.  0.
    8880022    1    1    2    0    0  0.16764079559E+03  0.52257133976E+03 -0.63266642978E+03  0.85137694699E+03  0.15294330000E+03 0.  0.
<mgrwt>
<rscale>  0 0.56971563E+03</rscale>
<asrwt>0</asrwt>
<pdfrwt beam="1">  1        1 0.12412389E+00 0.56971563E+03</pdfrwt>
<pdfrwt beam="2">  1       -1 0.20952222E+00 0.56971563E+03</pdfrwt>
<totfact> 0.30423809E+00</totfact>
</mgrwt>
</event>
<event>
 4    1  0.1852677E-008  0.6931444E+03  0.7818608E-02  0.9729029E-01
          1   -1    0    0  501    0  0.00000000000E+00  0.00000000000E+00  0.17743810911E+04  0.17743810911E+04  0.50400000000E-02 0. -1.
         -1   -1    0    0    0  501 -0.00000000000E+00 -0.00000000000E+00 -0.39342942187E+03  0.39342942190E+03  0.50400000000E-02 0.  1.
    8880022    1    1    2    0    0  0.65159222367E+03 -0.18023603114E+03  0.85262589720E+02  0.69836868135E+03  0.15294330000E+03 0.  0.
    8880022    1    1    2    0    0 -0.65159222367E+03  0.18023603114E+03  0.12956890795E+04  0.14694418317E+04  0.15294330000E+03 0.  0.
<mgrwt>
<rscale>  0 0.69314436E+03</rscale>
<asrwt>0</asrwt>
<pdfrwt beam="1">  1        1 0.27298171E+00 0.69314436E+03</pdfrwt>
<pdfrwt beam="2">  1       -1 0.60527603E-01 0.69314436E+03</pdfrwt>
<totfact> 0.12331419E+01</totfact>
</mgrwt>
</event>
<event>
 4    1  0.1852677E-008  0.5430391E+03  0.7818608E-02  0.1003118E+00
          1   -1    0    0  501    0  0.00000000000E+00  0.00000000000E+00  0.20822256668E+04  0.20822256668E+04  0.50400000000E-02 0. -1.
         -1   -1    0    0    0  501 -0.00000000000E+00 -0.00000000000E+00 -0.33896451377E+03  0.33896451381E+03  0.50400000000E-02 0.  1.
    8880022    1    1    2    0    0 -0.15960229359E+03 -0.49601105637E+03  0.17953302108E+04  0.18756604381E+04  0.15294330000E+03 0.  0.
    8880022    1    1    2    0    0  0.15960229359E+03  0.49601105637E+03 -0.52069057803E+02  0.54552974250E+03  0.15294330000E+03 0.  0.
<mgrwt>
<rscale>  0 0.54303915E+03</rscale>
<asrwt>0</asrwt>
<pdfrwt beam="1">  1        1 0.32034241E+00 0.54303915E+03</pdfrwt>
<pdfrwt beam="2">  1       -1 0.52148387E-01 0.54303915E+03</pdfrwt>
<totfact> 0.10561218E+01</totfact>
</mgrwt>
</event>
<event>
 4    1  0.1852677E-008  0.3324428E+03  0.7818608E-02  0.1070061E+00
         -1   -1    0    0    0  501 -0.00000000000E+00  0.00000000000E+00  0.41934023955E+03  0.41934023958E+03  0.50400000000E-02 0.  1.
          1   -1    0    0  501    0  0.00000000000E+00 -0.00000000000E+00 -0.53272780596E+03  0.53272780598E+03  0.50400000000E-02 0. -1.
    8880022    1    1    2    0    0 -0.52754858361E+02  0.29041950481E+03  0.28168476694E+03  0.43573446593E+03  0.15294330000E+03 0.  0.
    8880022    1    1    2    0    0  0.52754858361E+02 -0.29041950481E+03 -0.39507233335E+03  0.51633357963E+03  0.15294330000E+03 0.  0.
<mgrwt>
<rscale>  0 0.33244280E+03</rscale>
<asrwt>0</asrwt>
<pdfrwt beam="1">  1        1 0.81958124E-01 0.33244280E+03</pdfrwt>
<pdfrwt beam="2">  1       -1 0.64513883E-01 0.33244280E+03</pdfrwt>
<totfact> 0.10479247E+02</totfact>
</mgrwt>
</event>
<event>
 4    1  0.1852677E-008  0.7163283E+03  0.7818608E-02  0.9689709E-01
          1   -1    0    0  501    0  0.00000000000E+00  0.00000000000E+00  0.10715135738E+04  0.10715135738E+04  0.50400000000E-02 0. -1.
         -1   -1    0    0    0  501 -0.00000000000E+00 -0.00000000000E+00 -0.77141283188E+03  0.77141283189E+03  0.50400000000E-02 0.  1.
    8880022    1    1    2    0    0  0.67573012943E+02 -0.69654035867E+03  0.71749305712E+03  0.10138651406E+04  0.15294330000E+03 0.  0.
    8880022    1    1    2    0    0 -0.67573012943E+02  0.69654035867E+03 -0.41739231524E+03  0.82906126503E+03  0.15294330000E+03 0.  0.
<mgrwt>
<rscale>  0 0.71632830E+03</rscale>
<asrwt>0</asrwt>
<pdfrwt beam="1">  1        1 0.16484824E+00 0.71632830E+03</pdfrwt>
<pdfrwt beam="2">  1       -1 0.11867890E+00 0.71632830E+03</pdfrwt>
<totfact> 0.88065433E+00</totfact>
</mgrwt>
</event>
<event>
 4    1  0.1852677E-008  0.4554603E+03  0.7818608E-02  0.1026106E+00
          1   -1    0    0  501    0  0.00000000000E+00  0.00000000000E+00  0.29246607927E+04  0.29246607927E+04  0.50400000000E-02 0. -1.
         -1   -1    0    0    0  501 -0.00000000000E+00 -0.00000000000E+00 -0.10721407474E+03  0.10721407485E+03  0.50400000000E-02 0.  1.
    8880022    1    1    2    0    0 -0.41834519625E+03 -0.95077321007E+02  0.52682654126E+03  0.69641241932E+03  0.15294330000E+03 0.  0.
    8880022    1    1    2    0    0  0.41834519625E+03  0.95077321007E+02  0.22906201767E+04  0.23354624482E+04  0.15294330000E+03 0.  0.
<mgrwt>
<rscale>  0 0.45546027E+03</rscale>
<asrwt>0</asrwt>
<pdfrwt beam="1">  1        1 0.44994773E+00 0.45546027E+03</pdfrwt>
<pdfrwt beam="2">  1       -1 0.16494476E-01 0.45546027E+03</pdfrwt>
<totfact> 0.21343558E+01</totfact>
</mgrwt>
</event>
<event>
 4    1  0.1852677E-008  0.2473753E+03  0.7818608E-02  0.1114975E+00
          1   -1    0    0  501    0  0.00000000000E+00  0.00000000000E+00  0.22400775366E+03  0.22400775372E+03  0.50400000000E-02 0. -1.
         -1   -1    0    0    0  501 -0.00000000000E+00 -0.00000000000E+00 -0.61204719681E+03  0.61204719683E+03  0.50400000000E-02 0.  1.
    8880022    1    1    2    0    0 -0.18682260197E+03 -0.53853454429E+02 -0.50506733010E+03  0.56239447020E+03  0.15294330000E+03 0.  1.
    8880022    1    1    2    0    0  0.18682260197E+03  0.53853454429E+02  0.11702788696E+03  0.27366048035E+03  0.15294330000E+03 0.  0.
<mgrwt>
<rscale>  0 0.24737529E+03</rscale>
<asrwt>0</asrwt>
<pdfrwt beam="1">  1        1 0.34462732E-01 0.24737529E+03</pdfrwt>
<pdfrwt beam="2">  1       -1 0.94161107E-01 0.24737529E+03</pdfrwt>
<totfact> 0.14778693E+02</totfact>
</mgrwt>
</event>
<event>
 4    1  0.1852677E-008  0.1823073E+03  0.7818608E-02  0.1165589E+00
          1   -1    0    0  501    0  0.00000000000E+00  0.00000000000E+00  0.66059972368E+03  0.66059972370E+03  0.50400000000E-02 0. -1.
         -1   -1    0    0    0  501 -0.00000000000E+00 -0.00000000000E+00 -0.16314534335E+03  0.16314534343E+03  0.50400000000E-02 0.  1.
    8880022    1    1    2    0    0 -0.97068823682E+02  0.20540995000E+02 -0.93799690311E+02  0.20502274002E+03  0.15294330000E+03 0.  1.
    8880022    1    1    2    0    0  0.97068823682E+02 -0.20540995000E+02  0.59125407064E+03  0.61872232711E+03  0.15294330000E+03 0.  0.
<mgrwt>
<rscale>  0 0.18230727E+03</rscale>
<asrwt>0</asrwt>
<pdfrwt beam="1">  1        1 0.10163073E+00 0.18230727E+03</pdfrwt>
<pdfrwt beam="2">  1       -1 0.25099284E-01 0.18230727E+03</pdfrwt>
<totfact> 0.43023815E+02</totfact>
</mgrwt>
</event>
<event>
 4    1  0.1852677E-008  0.6723267E+03  0.7818608E-02  0.9765764E-01
         -1   -1    0    0    0  501 -0.00000000000E+00  0.00000000000E+00  0.17439490972E+03  0.17439490979E+03  0.50400000000E-02 0.  1.
          1   -1    0    0  501    0  0.00000000000E+00 -0.00000000000E+00 -0.37922426600E+04  0.37922426600E+04  0.50400000000E-02 0. -1.
    8880022    1    1    2    0    0  0.26306456175E+02 -0.65417087380E+03 -0.29247273255E+04  0.30010086877E+04  0.15294330000E+03 0.  0.
    8880022    1    1    2    0    0 -0.26306456175E+02  0.65417087380E+03 -0.69312042478E+03  0.96562888214E+03  0.15294330000E+03 0.  0.
<mgrwt>
<rscale>  0 0.67232672E+03</rscale>
<asrwt>0</asrwt>
<pdfrwt beam="1">  1        1 0.58342189E+00 0.67232672E+03</pdfrwt>
<pdfrwt beam="2">  1       -1 0.26829989E-01 0.67232672E+03</pdfrwt>
<totfact> 0.19961812E+00</totfact>
</mgrwt>
</event>
<event>
 4    1  0.1852677E-008  0.6043850E+03  0.7818608E-02  0.9896350E-01
          1   -1    0    0  501    0  0.00000000000E+00  0.00000000000E+00  0.16432228165E+04  0.16432228165E+04  0.50400000000E-02 0. -1.
         -1   -1    0    0    0  501 -0.00000000000E+00 -0.00000000000E+00 -0.64681473002E+03  0.64681473004E+03  0.50400000000E-02 0.  1.
    8880022    1    1    2    0    0  0.28813719506E+03  0.50878932690E+03 -0.42941844015E+03  0.74140506614E+03  0.15294330000E+03 0.  0.
    8880022    1    1    2    0    0 -0.28813719506E+03 -0.50878932690E+03  0.14258265266E+04  0.15486324804E+04  0.15294330000E+03 0.  0.
<mgrwt>
<rscale>  0 0.60438504E+03</rscale>
<asrwt>0</asrwt>
<pdfrwt beam="1">  1        1 0.25280351E+00 0.60438504E+03</pdfrwt>
<pdfrwt beam="2">  1       -1 0.99509958E-01 0.60438504E+03</pdfrwt>
<totfact> 0.53889178E+00</totfact>
</mgrwt>
</event>
<event>
 4    1  0.1852677E-008  0.5886171E+03  0.7818608E-02  0.9929307E-01
         -1   -1    0    0    0  501 -0.00000000000E+00  0.00000000000E+00  0.24106213294E+03  0.24106213300E+03  0.50400000000E-02 0.  1.
          1   -1    0    0  501    0  0.00000000000E+00 -0.00000000000E+00 -0.24510149551E+04  0.24510149551E+04  0.50400000000E-02 0. -1.
    8880022    1    1    2    0    0  0.15041630915E+03  0.54813631851E+03 -0.19706416144E+04  0.20566717081E+04  0.15294330000E+03 0.  0.
    8880022    1    1    2    0    0 -0.15041630915E+03 -0.54813631851E+03 -0.23931120781E+03  0.63540538000E+03  0.15294330000E+03 0.  0.
<mgrwt>
<rscale>  0 0.58861714E+03</rscale>
<asrwt>0</asrwt>
<pdfrwt beam="1">  1        1 0.37707921E+00 0.58861714E+03</pdfrwt>
<pdfrwt beam="2">  1       -1 0.37086484E-01 0.58861714E+03</pdfrwt>
<totfact> 0.11096083E+01</totfact>
</mgrwt>
</event>
<event>
 4    1  0.1852677E-008  0.5798315E+03  0.7818608E-02  0.9948156E-01
          1   -1    0    0  501    0  0.00000000000E+00  0.00000000000E+00  0.12014806352E+04  0.12014806352E+04  0.50400000000E-02 0. -1.
         -1   -1    0    0    0  501 -0.00000000000E+00 -0.00000000000E+00 -0.79808135707E+03  0.79808135708E+03  0.50400000000E-02 0.  1.
    8880022    1    1    2    0    0 -0.55087492852E+03  0.96693937205E+02 -0.60396356694E+03  0.83724342193E+03  0.15294330000E+03 0.  0.
    8880022    1    1    2    0    0  0.55087492852E+03 -0.96693937205E+02  0.10073628450E+04  0.11623185703E+04  0.15294330000E+03 0.  0.
<mgrwt>
<rscale>  0 0.57983149E+03</rscale>
<asrwt>0</asrwt>
<pdfrwt beam="1">  1        1 0.18484317E+00 0.57983149E+03</pdfrwt>
<pdfrwt beam="2">  1       -1 0.12278175E+00 0.57983149E+03</pdfrwt>
<totfact> 0.66624312E+00</totfact>
</mgrwt>
</event>
<event>
 4    1  0.1852677E-008  0.4732741E+03  0.7818608E-02  0.1021000E+00
         -1   -1    0    0    0  501 -0.00000000000E+00  0.00000000000E+00  0.71493954950E+03  0.71493954951E+03  0.50400000000E-02 0.  1.
          1   -1    0    0  501    0  0.00000000000E+00 -0.00000000000E+00 -0.16533019222E+04  0.16533019222E+04  0.50400000000E-02 0. -1.
    8880022    1    1    2    0    0  0.39385427029E+03 -0.21324996276E+03  0.59685784184E+03  0.76172676809E+03  0.15294330000E+03 0.  1.
    8880022    1    1    2    0    0 -0.39385427029E+03  0.21324996276E+03 -0.15352202146E+04  0.16065147037E+04  0.15294330000E+03 0.  0.
<mgrwt>
<rscale>  0 0.47327411E+03</rscale>
<asrwt>0</asrwt>
<pdfrwt beam="1">  1        1 0.25435414E+00 0.47327411E+03</pdfrwt>
<pdfrwt beam="2">  1       -1 0.10999070E+00 0.47327411E+03</pdfrwt>
<totfact> 0.43504979E+00</totfact>
</mgrwt>
</event>
<event>
 4    1  0.1852677E-008  0.1703981E+03  0.7818608E-02  0.1177433E+00
          1   -1    0    0  501    0  0.00000000000E+00  0.00000000000E+00  0.14824481330E+04  0.14824481330E+04  0.50400000000E-02 0. -1.
         -1   -1    0    0    0  501 -0.00000000000E+00 -0.00000000000E+00 -0.35734767165E+03  0.35734767168E+03  0.50400000000E-02 0.  1.
    8880022    1    1    2    0    0  0.21031045899E+02 -0.72121910176E+02  0.14568831220E+04  0.14668142210E+04  0.15294330000E+03 0.  0.
    8880022    1    1    2    0    0 -0.21031045899E+02  0.72121910176E+02 -0.33178266066E+03  0.37298158366E+03  0.15294330000E+03 0.  0.
<mgrwt>
<rscale>  0 0.17039815E+03</rscale>
<asrwt>0</asrwt>
<pdfrwt beam="1">  1        1 0.22806895E+00 0.17039815E+03</pdfrwt>
<pdfrwt beam="2">  1       -1 0.54976564E-01 0.17039815E+03</pdfrwt>
<totfact> 0.26921852E+01</totfact>
</mgrwt>
</event>
<event>
 4    1  0.1852677E-008  0.4101443E+03  0.7818608E-02  0.1040323E+00
          1   -1    0    0  501    0  0.00000000000E+00  0.00000000000E+00  0.15829369024E+04  0.15829369024E+04  0.50400000000E-02 0. -1.
         -1   -1    0    0    0  501 -0.00000000000E+00 -0.00000000000E+00 -0.26070316136E+03  0.26070316141E+03  0.50400000000E-02 0.  1.
    8880022    1    1    2    0    0  0.79709021498E+02  0.37211983335E+03 -0.48368732798E+02  0.41298654434E+03  0.15294330000E+03 0.  0.
    8880022    1    1    2    0    0 -0.79709021498E+02 -0.37211983335E+03  0.13706024738E+04  0.14306535194E+04  0.15294330000E+03 0.  0.
<mgrwt>
<rscale>  0 0.41014431E+03</rscale>
<asrwt>0</asrwt>
<pdfrwt beam="1">  1        1 0.24352875E+00 0.41014431E+03</pdfrwt>
<pdfrwt beam="2">  1       -1 0.40108180E-01 0.41014431E+03</pdfrwt>
<totfact> 0.37839704E+01</totfact>
</mgrwt>
</event>
<event>
 4    1  0.1852677E-008  0.1104319E+04  0.7818608E-02  0.9200993E-01
         -1   -1    0    0    0  501 -0.00000000000E+00  0.00000000000E+00  0.18961740601E+04  0.18961740601E+04  0.50400000000E-02 0.  1.
          1   -1    0    0  501    0  0.00000000000E+00 -0.00000000000E+00 -0.13017375704E+04  0.13017375704E+04  0.50400000000E-02 0. -1.
    8880022    1    1    2    0    0 -0.28603568059E+01 -0.10936725845E+04 -0.84010087691E+03  0.13875478514E+04  0.15294330000E+03 0.  0.
    8880022    1    1    2    0    0  0.28603568059E+01  0.10936725845E+04  0.14345373666E+04  0.18103637791E+04  0.15294330000E+03 0.  0.
<mgrwt>
<rscale>  0 0.11043186E+04</rscale>
<asrwt>0</asrwt>
<pdfrwt beam="1">  1        1 0.20026732E+00 0.11043186E+04</pdfrwt>
<pdfrwt beam="2">  1       -1 0.29171909E+00 0.11043186E+04</pdfrwt>
<totfact> 0.33621337E-01</totfact>
</mgrwt>
</event>
<event>
 4    1  0.1852677E-008  0.2042798E+03  0.7818608E-02  0.1146178E+00
         -1   -1    0    0    0  501 -0.00000000000E+00  0.00000000000E+00  0.21988118419E+03  0.21988118425E+03  0.50400000000E-02 0.  1.
          1   -1    0    0  501    0  0.00000000000E+00 -0.00000000000E+00 -0.46495135911E+03  0.46495135913E+03  0.50400000000E-02 0. -1.
    8880022    1    1    2    0    0 -0.10407259632E+03  0.86645661891E+02 -0.38595464777E+03  0.43668205732E+03  0.15294330000E+03 0.  0.
    8880022    1    1    2    0    0  0.10407259632E+03 -0.86645661891E+02  0.14088447286E+03  0.24815048607E+03  0.15294330000E+03 0.  1.
<mgrwt>
<rscale>  0 0.20427978E+03</rscale>
<asrwt>0</asrwt>
<pdfrwt beam="1">  1        1 0.71530978E-01 0.20427978E+03</pdfrwt>
<pdfrwt beam="2">  1       -1 0.33827875E-01 0.20427978E+03</pdfrwt>
<totfact> 0.41741607E+02</totfact>
</mgrwt>
</event>
<event>
 4    1  0.1852677E-008  0.5755803E+03  0.7818608E-02  0.9957406E-01
          1   -1    0    0  501    0  0.00000000000E+00  0.00000000000E+00  0.21295798801E+04  0.21295798801E+04  0.50400000000E-02 0. -1.
         -1   -1    0    0    0  501 -0.00000000000E+00 -0.00000000000E+00 -0.40717349433E+03  0.40717349436E+03  0.50400000000E-02 0.  1.
    8880022    1    1    2    0    0  0.55346866132E+03 -0.39667471059E+02 -0.13585217534E+03  0.59139541247E+03  0.15294330000E+03 0.  0.
    8880022    1    1    2    0    0 -0.55346866132E+03  0.39667471059E+02  0.18582585611E+04  0.19453579620E+04  0.15294330000E+03 0.  0.
<mgrwt>
<rscale>  0 0.57558033E+03</rscale>
<asrwt>0</asrwt>
<pdfrwt beam="1">  1        1 0.32762767E+00 0.57558033E+03</pdfrwt>
<pdfrwt beam="2">  1       -1 0.62642076E-01 0.57558033E+03</pdfrwt>
<totfact> 0.68348964E+00</totfact>
</mgrwt>
</event>
<event>
 4    1  0.1852677E-008  0.6714129E+03  0.7818608E-02  0.9767409E-01
         -1   -1    0    0    0  501 -0.00000000000E+00  0.00000000000E+00  0.13830710478E+04  0.13830710478E+04  0.50400000000E-02 0.  1.
          1   -1    0    0  501    0  0.00000000000E+00 -0.00000000000E+00 -0.70063570753E+03  0.70063570755E+03  0.50400000000E-02 0. -1.
    8880022    1    1    2    0    0  0.31398950993E+03 -0.57342325329E+03  0.11031230464E+04  0.12913852052E+04  0.15294330000E+03 0.  0.
    8880022    1    1    2    0    0 -0.31398950993E+03  0.57342325329E+03 -0.42068770610E+03  0.79232155016E+03  0.15294330000E+03 0.  0.
<mgrwt>
<rscale>  0 0.67141291E+03</rscale>
<asrwt>0</asrwt>
<pdfrwt beam="1">  1        1 0.10779011E+00 0.67141291E+03</pdfrwt>
<pdfrwt beam="2">  1       -1 0.21278016E+00 0.67141291E+03</pdfrwt>
<totfact> 0.35271989E+00</totfact>
</mgrwt>
</event>
<event>
 4    1  0.1852677E-008  0.2992653E+03  0.7818608E-02  0.1085608E+00
         -1   -1    0    0    0  501 -0.00000000000E+00  0.00000000000E+00  0.93050489212E+03  0.93050489214E+03  0.50400000000E-02 0.  1.
          1   -1    0    0  501    0  0.00000000000E+00 -0.00000000000E+00 -0.29843889354E+03  0.29843889358E+03  0.50400000000E-02 0. -1.
    8880022    1    1    2    0    0  0.17427723404E+03 -0.18919709870E+03 -0.18973868707E+03  0.35434519730E+03  0.15294330000E+03 0.  0.
    8880022    1    1    2    0    0 -0.17427723404E+03  0.18919709870E+03  0.82180468566E+03  0.87459858841E+03  0.15294330000E+03 0.  0.
<mgrwt>
<rscale>  0 0.29926535E+03</rscale>
<asrwt>0</asrwt>
<pdfrwt beam="1">  1        1 0.45913676E-01 0.29926535E+03</pdfrwt>
<pdfrwt beam="2">  1       -1 0.14315460E+00 0.29926535E+03</pdfrwt>
<totfact> 0.37846113E+01</totfact>
</mgrwt>
</event>
<event>
 4    1  0.1852677E-008  0.1798201E+03  0.7818608E-02  0.1167977E+00
         -1   -1    0    0    0  501 -0.00000000000E+00  0.00000000000E+00  0.39365154560E+02  0.39365154883E+02  0.50400000000E-02 0.  1.
          1   -1    0    0  501    0  0.00000000000E+00 -0.00000000000E+00 -0.16742879418E+04  0.16742879418E+04  0.50400000000E-02 0. -1.
    8880022    1    1    2    0    0 -0.69016636553E+02  0.64655509116E+02 -0.14289931331E+04  0.14402627047E+04  0.15294330000E+03 0.  0.
    8880022    1    1    2    0    0  0.69016636553E+02 -0.64655509116E+02 -0.20592965411E+03  0.27339039200E+03  0.15294330000E+03 0.  1.
<mgrwt>
<rscale>  0 0.17982014E+03</rscale>
<asrwt>0</asrwt>
<pdfrwt beam="1">  1        1 0.25758271E+00 0.17982014E+03</pdfrwt>
<pdfrwt beam="2">  1       -1 0.60561789E-02 0.17982014E+03</pdfrwt>
<totfact> 0.73211341E+02</totfact>
</mgrwt>
</event>
<event>
 4    1  0.1852677E-008  0.4245639E+03  0.7818608E-02  0.1035591E+00
          1   -1    0    0  501    0  0.00000000000E+00  0.00000000000E+00  0.28196177404E+03  0.28196177409E+03  0.50400000000E-02 0. -1.
         -1   -1    0    0    0  501 -0.00000000000E+00 -0.00000000000E+00 -0.18621681216E+04  0.18621681216E+04  0.50400000000E-02 0.  1.
    8880022    1    1    2    0    0  0.36716272222E+03 -0.14850716999E+03  0.78664739964E+02  0.43179003978E+03  0.15294330000E+03 0.  0.
    8880022    1    1    2    0    0 -0.36716272222E+03  0.14850716999E+03 -0.16588710876E+04  0.17123398559E+04  0.15294330000E+03 0.  1.
<mgrwt>
<rscale>  0 0.42456389E+03</rscale>
<asrwt>0</asrwt>
<pdfrwt beam="1">  1        1 0.43378736E-01 0.42456389E+03</pdfrwt>
<pdfrwt beam="2">  1       -1 0.28648740E+00 0.42456389E+03</pdfrwt>
<totfact> 0.42736800E+00</totfact>
</mgrwt>
</event>
<event>
 4    1  0.1852677E-008  0.4821859E+03  0.7818608E-02  0.1018536E+00
         -1   -1    0    0    0  501 -0.00000000000E+00  0.00000000000E+00  0.22323812284E+03  0.22323812290E+03  0.50400000000E-02 0.  1.
          1   -1    0    0  501    0  0.00000000000E+00 -0.00000000000E+00 -0.21033956731E+04  0.21033956731E+04  0.50400000000E-02 0. -1.
    8880022    1    1    2    0    0  0.21330855161E+03 -0.40448864567E+03 -0.11351230049E+03  0.49536683179E+03  0.15294330000E+03 0.  0.
    8880022    1    1    2    0    0 -0.21330855161E+03  0.40448864567E+03 -0.17666452497E+04  0.18312669642E+04  0.15294330000E+03 0.  0.
<mgrwt>
<rscale>  0 0.48218591E+03</rscale>
<asrwt>0</asrwt>
<pdfrwt beam="1">  1        1 0.32359932E+00 0.48218591E+03</pdfrwt>
<pdfrwt beam="2">  1       -1 0.34344328E-01 0.48218591E+03</pdfrwt>
<totfact> 0.22214946E+01</totfact>
</mgrwt>
</event>
<event>
 4    1  0.1852677E-008  0.4359795E+03  0.7818608E-02  0.1031988E+00
          1   -1    0    0  501    0  0.00000000000E+00  0.00000000000E+00  0.18233009302E+04  0.18233009302E+04  0.50400000000E-02 0. -1.
         -1   -1    0    0    0  501 -0.00000000000E+00 -0.00000000000E+00 -0.19889538391E+03  0.19889538398E+03  0.50400000000E-02 0.  1.
    8880022    1    1    2    0    0 -0.26262980406E+03  0.31258930855E+03  0.15096830281E+04  0.15713755083E+04  0.15294330000E+03 0.  0.
    8880022    1    1    2    0    0  0.26262980406E+03 -0.31258930855E+03  0.11472251818E+03  0.45082080586E+03  0.15294330000E+03 0.  0.
<mgrwt>
<rscale>  0 0.43597952E+03</rscale>
<asrwt>0</asrwt>
<pdfrwt beam="1">  1        1 0.28050784E+00 0.43597952E+03</pdfrwt>
<pdfrwt beam="2">  1       -1 0.30599289E-01 0.43597952E+03</pdfrwt>
<totfact> 0.42012424E+01</totfact>
</mgrwt>
</event>
<event>
 4    1  0.1852677E-008  0.3173905E+03  0.7818608E-02  0.1076857E+00
          1   -1    0    0  501    0  0.00000000000E+00  0.00000000000E+00  0.61907564887E+02  0.61907565092E+02  0.50400000000E-02 0. -1.
         -1   -1    0    0    0  501 -0.00000000000E+00 -0.00000000000E+00 -0.17633768267E+04  0.17633768267E+04  0.50400000000E-02 0.  1.
    8880022    1    1    2    0    0  0.21806527444E+02  0.27725354201E+03 -0.11043415985E+04  0.11490461568E+04  0.15294330000E+03 0.  0.
    8880022    1    1    2    0    0 -0.21806527444E+02 -0.27725354201E+03 -0.59712766324E+03  0.67623823495E+03  0.15294330000E+03 0.  0.
<mgrwt>
<rscale>  0 0.31739046E+03</rscale>
<asrwt>0</asrwt>
<pdfrwt beam="1">  1        1 0.95242421E-02 0.31739046E+03</pdfrwt>
<pdfrwt beam="2">  1       -1 0.27128870E+00 0.31739046E+03</pdfrwt>
<totfact> 0.39685606E+01</totfact>
</mgrwt>
</event>
<event>
 4    1  0.1852677E-008  0.2305088E+03  0.7818608E-02  0.1126282E+00
          1   -1    0    0  501    0  0.00000000000E+00  0.00000000000E+00  0.19547241791E+03  0.19547241798E+03  0.50400000000E-02 0. -1.
         -1   -1    0    0    0  501 -0.00000000000E+00 -0.00000000000E+00 -0.15502206434E+04  0.15502206434E+04  0.50400000000E-02 0.  1.
    8880022    1    1    2    0    0 -0.58600270719E+02  0.16219944616E+03 -0.14700100521E+04  0.14879730704E+04  0.15294330000E+03 0.  1.
    8880022    1    1    2    0    0  0.58600270719E+02 -0.16219944616E+03  0.11526182658E+03  0.25771999097E+03  0.15294330000E+03 0.  0.
<mgrwt>
<rscale>  0 0.23050880E+03</rscale>
<asrwt>0</asrwt>
<pdfrwt beam="1">  1        1 0.30072681E-01 0.23050880E+03</pdfrwt>
<pdfrwt beam="2">  1       -1 0.23849548E+00 0.23050880E+03</pdfrwt>
<totfact> 0.14487434E+01</totfact>
</mgrwt>
</event>
<event>
 4    1  0.1852677E-008  0.4541914E+03  0.7818608E-02  0.1026479E+00
          1   -1    0    0  501    0  0.00000000000E+00  0.00000000000E+00  0.67235752803E+03  0.67235752805E+03  0.50400000000E-02 0. -1.
         -1   -1    0    0    0  501 -0.00000000000E+00 -0.00000000000E+00 -0.10678969349E+04  0.10678969349E+04  0.50400000000E-02 0.  1.
    8880022    1    1    2    0    0 -0.39214563026E+03 -0.17064565402E+03  0.53680103160E+03  0.70316792810E+03  0.15294330000E+03 0.  0.
    8880022    1    1    2    0    0  0.39214563026E+03  0.17064565402E+03 -0.93234043850E+03  0.10370865349E+04  0.15294330000E+03 0.  1.
<mgrwt>
<rscale>  0 0.45419136E+03</rscale>
<asrwt>0</asrwt>
<pdfrwt beam="1">  1        1 0.10343962E+00 0.45419136E+03</pdfrwt>
<pdfrwt beam="2">  1       -1 0.16429184E+00 0.45419136E+03</pdfrwt>
<totfact> 0.85338964E+00</totfact>
</mgrwt>
</event>
<event>
 4    1  0.1852677E-008  0.1019274E+04  0.7818608E-02  0.9287654E-01
         -1   -1    0    0    0  501 -0.00000000000E+00  0.00000000000E+00  0.16059754710E+04  0.16059754710E+04  0.50400000000E-02 0.  1.
          1   -1    0    0  501    0  0.00000000000E+00 -0.00000000000E+00 -0.96506772359E+03  0.96506772360E+03  0.50400000000E-02 0. -1.
    8880022    1    1    2    0    0 -0.10065485271E+04 -0.48865977693E+02 -0.41765872322E+03  0.11015254347E+04  0.15294330000E+03 0.  0.
    8880022    1    1    2    0    0  0.10065485271E+04  0.48865977693E+02  0.10585664707E+04  0.14695177600E+04  0.15294330000E+03 0.  0.
<mgrwt>
<rscale>  0 0.10192740E+04</rscale>
<asrwt>0</asrwt>
<pdfrwt beam="1">  1        1 0.14847196E+00 0.10192740E+04</pdfrwt>
<pdfrwt beam="2">  1       -1 0.24707315E+00 0.10192740E+04</pdfrwt>
<totfact> 0.11807312E+00</totfact>
</mgrwt>
</event>
<event>
 4    1  0.1852677E-008  0.8899894E+03  0.7818608E-02  0.9438182E-01
         -1   -1    0    0    0  501 -0.00000000000E+00  0.00000000000E+00  0.91249147871E+03  0.91249147873E+03  0.50400000000E-02 0.  1.
          1   -1    0    0  501    0  0.00000000000E+00 -0.00000000000E+00 -0.17694232768E+04  0.17694232768E+04  0.50400000000E-02 0. -1.
    8880022    1    1    2    0    0  0.13871283852E+02 -0.87663959749E+03  0.52862533901E+03  0.10351453031E+04  0.15294330000E+03 0.  0.
    8880022    1    1    2    0    0 -0.13871283852E+02  0.87663959749E+03 -0.13855571371E+04  0.16467694525E+04  0.15294330000E+03 0.  0.
<mgrwt>
<rscale>  0 0.88998935E+03</rscale>
<asrwt>0</asrwt>
<pdfrwt beam="1">  1        1 0.27221897E+00 0.88998935E+03</pdfrwt>
<pdfrwt beam="2">  1       -1 0.14038330E+00 0.88998935E+03</pdfrwt>
<totfact> 0.18235798E+00</totfact>
</mgrwt>
</event>
<event>
 4    1  0.1852677E-008  0.6787691E+03  0.7818608E-02  0.9754245E-01
          1   -1    0    0  501    0  0.00000000000E+00  0.00000000000E+00  0.43713891034E+03  0.43713891037E+03  0.50400000000E-02 0. -1.
         -1   -1    0    0    0  501 -0.00000000000E+00 -0.00000000000E+00 -0.18716959372E+04  0.18716959372E+04  0.50400000000E-02 0.  1.
    8880022    1    1    2    0    0  0.39319445061E+03  0.53172738628E+03  0.45768666919E+02  0.68031045354E+03  0.15294330000E+03 0.  0.
    8880022    1    1    2    0    0 -0.39319445061E+03 -0.53172738628E+03 -0.14803256938E+04  0.16285243940E+04  0.15294330000E+03 0.  0.
<mgrwt>
<rscale>  0 0.67876914E+03</rscale>
<asrwt>0</asrwt>
<pdfrwt beam="1">  1        1 0.67252141E-01 0.67876914E+03</pdfrwt>
<pdfrwt beam="2">  1       -1 0.28795322E+00 0.67876914E+03</pdfrwt>
<totfact> 0.22365706E+00</totfact>
</mgrwt>
</event>
<event>
 4    1  0.1852677E-008  0.7212311E+03  0.7818608E-02  0.9681598E-01
         -1   -1    0    0    0  501 -0.00000000000E+00  0.00000000000E+00  0.75735036007E+03  0.75735036008E+03  0.50400000000E-02 0.  1.
          1   -1    0    0  501    0  0.00000000000E+00 -0.00000000000E+00 -0.88542867407E+03  0.88542867409E+03  0.50400000000E-02 0. -1.
    8880022    1    1    2    0    0 -0.50834187702E+03 -0.48823268413E+03 -0.45304465516E+03  0.85171810499E+03  0.15294330000E+03 0.  0.
    8880022    1    1    2    0    0  0.50834187702E+03  0.48823268413E+03  0.32496634115E+03  0.79106092918E+03  0.15294330000E+03 0.  0.
<mgrwt>
<rscale>  0 0.72123108E+03</rscale>
<asrwt>0</asrwt>
<pdfrwt beam="1">  1        1 0.13621980E+00 0.72123108E+03</pdfrwt>
<pdfrwt beam="2">  1       -1 0.11651544E+00 0.72123108E+03</pdfrwt>
<totfact> 0.12868258E+01</totfact>
</mgrwt>
</event>
<event>
 4    1  0.1852677E-008  0.2191390E+03  0.7818608E-02  0.1134527E+00
          1   -1    0    0  501    0  0.00000000000E+00  0.00000000000E+00  0.25691082081E+04  0.25691082081E+04  0.50400000000E-02 0. -1.
         -1   -1    0    0    0  501 -0.00000000000E+00 -0.00000000000E+00 -0.15977878672E+03  0.15977878680E+03  0.50400000000E-02 0.  1.
    8880022    1    1    2    0    0 -0.12202620757E+02  0.15646520457E+03  0.24868154286E+04  0.24964520610E+04  0.15294330000E+03 0. -1.
    8880022    1    1    2    0    0  0.12202620757E+02 -0.15646520457E+03 -0.77486007141E+02  0.23243493393E+03  0.15294330000E+03 0.  0.
<mgrwt>
<rscale>  0 0.21913904E+03</rscale>
<asrwt>0</asrwt>
<pdfrwt beam="1">  1        1 0.39524738E+00 0.21913904E+03</pdfrwt>
<pdfrwt beam="2">  1       -1 0.24581354E-01 0.21913904E+03</pdfrwt>
<totfact> 0.21143537E+01</totfact>
</mgrwt>
</event>
<event>
 4    1  0.1852677E-008  0.5409709E+03  0.7818608E-02  0.1003606E+00
         -1   -1    0    0    0  501 -0.00000000000E+00  0.00000000000E+00  0.41301768698E+03  0.41301768701E+03  0.50400000000E-02 0.  1.
          1   -1    0    0  501    0  0.00000000000E+00 -0.00000000000E+00 -0.21617380914E+04  0.21617380914E+04  0.50400000000E-02 0. -1.
    8880022    1    1    2    0    0 -0.25538654261E+03 -0.45170298491E+03 -0.19298725279E+04  0.20042598383E+04  0.15294330000E+03 0.  0.
    8880022    1    1    2    0    0  0.25538654261E+03  0.45170298491E+03  0.18115212350E+03  0.57049594003E+03  0.15294330000E+03 0.  0.
<mgrwt>
<rscale>  0 0.54097091E+03</rscale>
<asrwt>0</asrwt>
<pdfrwt beam="1">  1        1 0.33257508E+00 0.54097091E+03</pdfrwt>
<pdfrwt beam="2">  1       -1 0.63541184E-01 0.54097091E+03</pdfrwt>
<totfact> 0.63767613E+00</totfact>
</mgrwt>
</event>
<event>
 4    1  0.1852677E-008  0.4794419E+03  0.7818608E-02  0.1019289E+00
         -1   -1    0    0    0  501 -0.00000000000E+00  0.00000000000E+00  0.42314473102E+03  0.42314473105E+03  0.50400000000E-02 0.  1.
          1   -1    0    0  501    0  0.00000000000E+00 -0.00000000000E+00 -0.64358819408E+03  0.64358819410E+03  0.50400000000E-02 0. -1.
    8880022    1    1    2    0    0 -0.26979057571E+03 -0.36563089210E+03 -0.32084187547E+03  0.57689172820E+03  0.15294330000E+03 0.  0.
    8880022    1    1    2    0    0  0.26979057571E+03  0.36563089210E+03  0.10039841240E+03  0.48984119695E+03  0.15294330000E+03 0.  0.
<mgrwt>
<rscale>  0 0.47944192E+03</rscale>
<asrwt>0</asrwt>
<pdfrwt beam="1">  1        1 0.99013568E-01 0.47944192E+03</pdfrwt>
<pdfrwt beam="2">  1       -1 0.65099189E-01 0.47944192E+03</pdfrwt>
<totfact> 0.77402568E+01</totfact>
</mgrwt>
</event>
<event>
 4    1  0.1852677E-008  0.3533067E+03  0.7818608E-02  0.1061266E+00
         -1   -1    0    0    0  501 -0.00000000000E+00  0.00000000000E+00  0.92466847183E+03  0.92466847184E+03  0.50400000000E-02 0.  1.
          1   -1    0    0  501    0  0.00000000000E+00 -0.00000000000E+00 -0.36143021770E+03  0.36143021774E+03  0.50400000000E-02 0. -1.
    8880022    1    1    2    0    0  0.99414412834E+02 -0.30257357409E+03  0.79060301006E+03  0.86595540632E+03  0.15294330000E+03 0.  1.
    8880022    1    1    2    0    0 -0.99414412834E+02  0.30257357409E+03 -0.22736475593E+03  0.42014328326E+03  0.15294330000E+03 0.  0.
<mgrwt>
<rscale>  0 0.35330673E+03</rscale>
<asrwt>0</asrwt>
<pdfrwt beam="1">  1        1 0.55604649E-01 0.35330673E+03</pdfrwt>
<pdfrwt beam="2">  1       -1 0.14225669E+00 0.35330673E+03</pdfrwt>
<totfact> 0.29787793E+01</totfact>
</mgrwt>
</event>
<event>
 4    1  0.1852677E-008  0.2766626E+03  0.7818608E-02  0.1097526E+00
          1   -1    0    0  501    0  0.00000000000E+00  0.00000000000E+00  0.22567882315E+03  0.22567882320E+03  0.50400000000E-02 0. -1.
         -1   -1    0    0    0  501 -0.00000000000E+00 -0.00000000000E+00 -0.11787444619E+04  0.11787444619E+04  0.50400000000E-02 0.  1.
    8880022    1    1    2    0    0 -0.80416058408E+02  0.21606439146E+03  0.11610485735E+03  0.30003758869E+03  0.15294330000E+03 0.  0.
    8880022    1    1    2    0    0  0.80416058408E+02 -0.21606439146E+03 -0.10691704961E+04  0.11043856964E+04  0.15294330000E+03 0.  1.
<mgrwt>
<rscale>  0 0.27666264E+03</rscale>
<asrwt>0</asrwt>
<pdfrwt beam="1">  1        1 0.34719820E-01 0.27666264E+03</pdfrwt>
<pdfrwt beam="2">  1       -1 0.18134530E+00 0.27666264E+03</pdfrwt>
<totfact> 0.28378697E+01</totfact>
</mgrwt>
</event>
<event>
 4    1  0.1852677E-008  0.8408899E+03  0.7818608E-02  0.9502647E-01
         -1   -1    0    0    0  501 -0.00000000000E+00  0.00000000000E+00  0.14079691680E+04  0.14079691680E+04  0.50400000000E-02 0.  1.
          1   -1    0    0  501    0  0.00000000000E+00 -0.00000000000E+00 -0.53590307807E+03  0.53590307810E+03  0.50400000000E-02 0. -1.
    8880022    1    1    2    0    0 -0.82592854683E+03  0.39320884693E+02  0.19232661640E+03  0.86260377743E+03  0.15294330000E+03 0.  0.
    8880022    1    1    2    0    0  0.82592854683E+03 -0.39320884693E+02  0.67973947348E+03  0.10812684686E+04  0.15294330000E+03 0.  1.
<mgrwt>
<rscale>  0 0.84088986E+03</rscale>
<asrwt>0</asrwt>
<pdfrwt beam="1">  1        1 0.82446630E-01 0.84088986E+03</pdfrwt>
<pdfrwt beam="2">  1       -1 0.21661064E+00 0.84088986E+03</pdfrwt>
<totfact> 0.47807117E+00</totfact>
</mgrwt>
</event>
<event>
 4    1  0.1852677E-008  0.6720649E+03  0.7818608E-02  0.9766235E-01
         -1   -1    0    0    0  501 -0.00000000000E+00  0.00000000000E+00  0.23858299692E+04  0.23858299692E+04  0.50400000000E-02 0.  1.
          1   -1    0    0  501    0  0.00000000000E+00 -0.00000000000E+00 -0.45685234879E+03  0.45685234881E+03  0.50400000000E-02 0. -1.
    8880022    1    1    2    0    0 -0.65430901191E+03  0.12621796213E+02  0.20521743229E+04  0.21594190648E+04  0.15294330000E+03 0.  0.
    8880022    1    1    2    0    0  0.65430901191E+03 -0.12621796213E+02 -0.12319670241E+03  0.68326325330E+03  0.15294330000E+03 0.  0.
<mgrwt>
<rscale>  0 0.67206491E+03</rscale>
<asrwt>0</asrwt>
<pdfrwt beam="1">  1        1 0.70284978E-01 0.67206491E+03</pdfrwt>
<pdfrwt beam="2">  1       -1 0.36705076E+00 0.67206491E+03</pdfrwt>
<totfact> 0.65066631E-01</totfact>
</mgrwt>
</event>
<event>
 4    1  0.1852677E-008  0.3613913E+03  0.7818608E-02  0.1058034E+00
          1   -1    0    0  501    0  0.00000000000E+00  0.00000000000E+00  0.17554747868E+04  0.17554747868E+04  0.50400000000E-02 0. -1.
         -1   -1    0    0    0  501 -0.00000000000E+00 -0.00000000000E+00 -0.19002412895E+03  0.19002412902E+03  0.50400000000E-02 0.  1.
    8880022    1    1    2    0    0 -0.28790931077E+03 -0.15594961403E+03  0.23929858717E+02  0.36218275014E+03  0.15294330000E+03 0.  0.
    8880022    1    1    2    0    0  0.28790931077E+03  0.15594961403E+03  0.15415207992E+04  0.15833161657E+04  0.15294330000E+03 0.  0.
<mgrwt>
<rscale>  0 0.36139135E+03</rscale>
<asrwt>0</asrwt>
<pdfrwt beam="1">  1        1 0.27007304E+00 0.36139135E+03</pdfrwt>
<pdfrwt beam="2">  1       -1 0.29234482E-01 0.36139135E+03</pdfrwt>
<totfact> 0.51223308E+01</totfact>
</mgrwt>
</event>
<event>
 4    1  0.1852677E-008  0.7806153E+03  0.7818608E-02  0.9588507E-01
         -1   -1    0    0    0  501 -0.00000000000E+00  0.00000000000E+00  0.81433720792E+03  0.81433720794E+03  0.50400000000E-02 0.  1.
          1   -1    0    0  501    0  0.00000000000E+00 -0.00000000000E+00 -0.12146777721E+04  0.12146777721E+04  0.50400000000E-02 0. -1.
    8880022    1    1    2    0    0  0.75619933946E+03  0.11887478907E+03 -0.82880496620E+03  0.11385420420E+04  0.15294330000E+03 0.  0.
    8880022    1    1    2    0    0 -0.75619933946E+03 -0.11887478907E+03  0.42846440203E+03  0.89047293800E+03  0.15294330000E+03 0.  0.
<mgrwt>
<rscale>  0 0.78061534E+03</rscale>
<asrwt>0</asrwt>
<pdfrwt beam="1">  1        1 0.18687350E+00 0.78061534E+03</pdfrwt>
<pdfrwt beam="2">  1       -1 0.12528265E+00 0.78061534E+03</pdfrwt>
<totfact> 0.59903411E+00</totfact>
</mgrwt>
</event>
<event>
 4    1  0.1852677E-008  0.2064532E+03  0.7818608E-02  0.1144406E+00
         -1   -1    0    0    0  501 -0.00000000000E+00  0.00000000000E+00  0.81371481390E+02  0.81371481546E+02  0.50400000000E-02 0.  1.
          1   -1    0    0  501    0  0.00000000000E+00 -0.00000000000E+00 -0.26131867244E+04  0.26131867244E+04  0.50400000000E-02 0. -1.
    8880022    1    1    2    0    0  0.57149872920E+00  0.13867564991E+03 -0.61201585935E+02  0.21533357756E+03  0.15294330000E+03 0.  1.
    8880022    1    1    2    0    0 -0.57149872920E+00 -0.13867564991E+03 -0.24706136571E+04  0.24792246284E+04  0.15294330000E+03 0.  0.
<mgrwt>
<rscale>  0 0.20645318E+03</rscale>
<asrwt>0</asrwt>
<pdfrwt beam="1">  1        1 0.40202866E+00 0.20645318E+03</pdfrwt>
<pdfrwt beam="2">  1       -1 0.12518692E-01 0.20645318E+03</pdfrwt>
<totfact> 0.58802670E+01</totfact>
</mgrwt>
</event>
<event>
 4    1  0.1852677E-008  0.5149173E+03  0.7818608E-02  0.1009957E+00
         -1   -1    0    0    0  501 -0.00000000000E+00  0.00000000000E+00  0.12532860941E+04  0.12532860941E+04  0.50400000000E-02 0.  1.
          1   -1    0    0  501    0  0.00000000000E+00 -0.00000000000E+00 -0.50652508626E+03  0.50652508629E+03  0.50400000000E-02 0. -1.
    8880022    1    1    2    0    0 -0.33372998569E+03 -0.36107128984E+03  0.10448465557E+04  0.11648365368E+04  0.15294330000E+03 0.  0.
    8880022    1    1    2    0    0  0.33372998569E+03  0.36107128984E+03 -0.29808554778E+03  0.59497464358E+03  0.15294330000E+03 0.  0.
<mgrwt>
<rscale>  0 0.51491731E+03</rscale>
<asrwt>0</asrwt>
<pdfrwt beam="1">  1        1 0.77926936E-01 0.51491731E+03</pdfrwt>
<pdfrwt beam="2">  1       -1 0.19281325E+00 0.51491731E+03</pdfrwt>
<totfact> 0.78839459E+00</totfact>
</mgrwt>
</event>
<event>
 4    1  0.1852677E-008  0.5542317E+03  0.7818608E-02  0.1000519E+00
          1   -1    0    0  501    0  0.00000000000E+00  0.00000000000E+00  0.17373217390E+04  0.17373217390E+04  0.50400000000E-02 0. -1.
         -1   -1    0    0    0  501 -0.00000000000E+00 -0.00000000000E+00 -0.27094940274E+03  0.27094940279E+03  0.50400000000E-02 0.  1.
    8880022    1    1    2    0    0  0.32094769856E+03 -0.42517484989E+03  0.14130009404E+03  0.57196018024E+03  0.15294330000E+03 0.  0.
    8880022    1    1    2    0    0 -0.32094769856E+03  0.42517484989E+03  0.13250722422E+04  0.14363109616E+04  0.15294330000E+03 0.  0.
<mgrwt>
<rscale>  0 0.55423166E+03</rscale>
<asrwt>0</asrwt>
<pdfrwt beam="1">  1        1 0.26728026E+00 0.55423166E+03</pdfrwt>
<pdfrwt beam="2">  1       -1 0.41684525E-01 0.55423166E+03</pdfrwt>
<totfact> 0.27064331E+01</totfact>
</mgrwt>
</event>
<event>
 4    1  0.1852677E-008  0.3815889E+03  0.7818608E-02  0.1050348E+00
          1   -1    0    0  501    0  0.00000000000E+00  0.00000000000E+00  0.11021622723E+04  0.11021622723E+04  0.50400000000E-02 0. -1.
         -1   -1    0    0    0  501 -0.00000000000E+00 -0.00000000000E+00 -0.56839068771E+03  0.56839068773E+03  0.50400000000E-02 0.  1.
    8880022    1    1    2    0    0  0.77492379920E+02 -0.34090085414E+03 -0.46490713737E+03  0.60145553509E+03  0.15294330000E+03 0.  0.
    8880022    1    1    2    0    0 -0.77492379920E+02  0.34090085414E+03  0.99867872195E+03  0.10690974249E+04  0.15294330000E+03 0.  0.
<mgrwt>
<rscale>  0 0.38158893E+03</rscale>
<asrwt>0</asrwt>
<pdfrwt beam="1">  1        1 0.16956343E+00 0.38158893E+03</pdfrwt>
<pdfrwt beam="2">  1       -1 0.87444722E-01 0.38158893E+03</pdfrwt>
<totfact> 0.17898618E+01</totfact>
</mgrwt>
</event>
<event>
 4    1  0.1852677E-008  0.9184839E+03  0.7818608E-02  0.9402766E-01
          1   -1    0    0  501    0  0.00000000000E+00  0.00000000000E+00  0.24971837827E+04  0.24971837827E+04  0.50400000000E-02 0. -1.
         -1   -1    0    0    0  501 -0.00000000000E+00 -0.00000000000E+00 -0.66296827766E+03  0.66296827768E+03  0.50400000000E-02 0.  1.
    8880022    1    1    2    0    0  0.66496398916E+03 -0.61485272269E+03  0.20236515142E+04  0.22223361765E+04  0.15294330000E+03 0.  0.
    8880022    1    1    2    0    0 -0.66496398916E+03  0.61485272269E+03 -0.18943600915E+03  0.93781588388E+03  0.15294330000E+03 0.  0.
<mgrwt>
<rscale>  0 0.91848388E+03</rscale>
<asrwt>0</asrwt>
<pdfrwt beam="1">  1        1 0.38418212E+00 0.91848388E+03</pdfrwt>
<pdfrwt beam="2">  1       -1 0.10199512E+00 0.91848388E+03</pdfrwt>
<totfact> 0.12794041E+00</totfact>
</mgrwt>
</event>
<event>
 4    1  0.1852677E-008  0.2597975E+03  0.7818608E-02  0.1107265E+00
          1   -1    0    0  501    0  0.00000000000E+00  0.00000000000E+00  0.30957599702E+03  0.30957599706E+03  0.50400000000E-02 0. -1.
         -1   -1    0    0    0  501 -0.00000000000E+00 -0.00000000000E+00 -0.72157543931E+03  0.72157543933E+03  0.50400000000E-02 0.  1.
    8880022    1    1    2    0    0 -0.16029810551E+03 -0.13567462304E+03  0.22469928012E+03  0.34348872684E+03  0.15294330000E+03 0.  0.
    8880022    1    1    2    0    0  0.16029810551E+03  0.13567462304E+03 -0.63669872241E+03  0.68766270955E+03  0.15294330000E+03 0.  1.
<mgrwt>
<rscale>  0 0.25979750E+03</rscale>
<asrwt>0</asrwt>
<pdfrwt beam="1">  1        1 0.47627077E-01 0.25979750E+03</pdfrwt>
<pdfrwt beam="2">  1       -1 0.11101161E+00 0.25979750E+03</pdfrwt>
<totfact> 0.67750282E+01</totfact>
</mgrwt>
</event>
<event>
 4    1  0.1852677E-008  0.5796748E+03  0.7818608E-02  0.9948495E-01
         -1   -1    0    0    0  501 -0.00000000000E+00  0.00000000000E+00  0.41150595350E+03  0.41150595353E+03  0.50400000000E-02 0.  1.
          1   -1    0    0  501    0  0.00000000000E+00 -0.00000000000E+00 -0.23823912987E+04  0.23823912987E+04  0.50400000000E-02 0. -1.
    8880022    1    1    2    0    0  0.38818548536E+03 -0.40242169489E+03 -0.21179608428E+04  0.21958554087E+04  0.15294330000E+03 0. -1.
    8880022    1    1    2    0    0 -0.38818548536E+03  0.40242169489E+03  0.14707549758E+03  0.59804184349E+03  0.15294330000E+03 0.  0.
<mgrwt>
<rscale>  0 0.57967477E+03</rscale>
<asrwt>0</asrwt>
<pdfrwt beam="1">  1        1 0.36652173E+00 0.57967477E+03</pdfrwt>
<pdfrwt beam="2">  1       -1 0.63308609E-01 0.57967477E+03</pdfrwt>
<totfact> 0.45301945E+00</totfact>
</mgrwt>
</event>
<event>
 4    1  0.1852677E-008  0.6348220E+03  0.7818608E-02  0.9835684E-01
         -1   -1    0    0    0  501 -0.00000000000E+00  0.00000000000E+00  0.79637635152E+03  0.79637635154E+03  0.50400000000E-02 0.  1.
          1   -1    0    0  501    0  0.00000000000E+00 -0.00000000000E+00 -0.87407245072E+03  0.87407245074E+03  0.50400000000E-02 0. -1.
    8880022    1    1    2    0    0 -0.29125227459E+03 -0.54293597795E+03 -0.58081396630E+03  0.86043237972E+03  0.15294330000E+03 0. -1.
    8880022    1    1    2    0    0  0.29125227459E+03  0.54293597795E+03  0.50311786710E+03  0.81001642256E+03  0.15294330000E+03 0.  0.
<mgrwt>
<rscale>  0 0.63482204E+03</rscale>
<asrwt>0</asrwt>
<pdfrwt beam="1">  1        1 0.13447268E+00 0.63482204E+03</pdfrwt>
<pdfrwt beam="2">  1       -1 0.12251944E+00 0.63482204E+03</pdfrwt>
<totfact> 0.11783626E+01</totfact>
</mgrwt>
</event>
<event>
 4    1  0.1852677E-008  0.3568516E+03  0.7818608E-02  0.1059837E+00
         -1   -1    0    0    0  501 -0.00000000000E+00  0.00000000000E+00  0.10660555634E+04  0.10660555634E+04  0.50400000000E-02 0.  1.
          1   -1    0    0  501    0  0.00000000000E+00 -0.00000000000E+00 -0.20951779951E+03  0.20951779957E+03  0.50400000000E-02 0. -1.
    8880022    1    1    2    0    0 -0.29212215023E+03 -0.13644065389E+03  0.10107799202E+02  0.35699471047E+03  0.15294330000E+03 0.  0.
    8880022    1    1    2    0    0  0.29212215023E+03  0.13644065389E+03  0.84642996466E+03  0.91857865247E+03  0.15294330000E+03 0.  0.
<mgrwt>
<rscale>  0 0.35685159E+03</rscale>
<asrwt>0</asrwt>
<pdfrwt beam="1">  1        1 0.32233508E-01 0.35685159E+03</pdfrwt>
<pdfrwt beam="2">  1       -1 0.16400855E+00 0.35685159E+03</pdfrwt>
<totfact> 0.40784958E+01</totfact>
</mgrwt>
</event>
<event>
 4    1  0.1852677E-008  0.1253426E+04  0.7818608E-02  0.9067336E-01
          1   -1    0    0  501    0  0.00000000000E+00  0.00000000000E+00  0.23736584533E+04  0.23736584533E+04  0.50400000000E-02 0. -1.
         -1   -1    0    0    0  501 -0.00000000000E+00 -0.00000000000E+00 -0.98106665252E+03  0.98106665253E+03  0.50400000000E-02 0.  1.
    8880022    1    1    2    0    0  0.12433070100E+04  0.43285535956E+02  0.16530490230E+04  0.20745237246E+04  0.15294330000E+03 0.  0.
    8880022    1    1    2    0    0 -0.12433070100E+04 -0.43285535956E+02 -0.26045722219E+03  0.12802013812E+04  0.15294330000E+03 0.  0.
<mgrwt>
<rscale>  0 0.12534263E+04</rscale>
<asrwt>0</asrwt>
<pdfrwt beam="1">  1        1 0.36517822E+00 0.12534263E+04</pdfrwt>
<pdfrwt beam="2">  1       -1 0.15093333E+00 0.12534263E+04</pdfrwt>
<totfact> 0.55604963E-01</totfact>
</mgrwt>
</event>
<event>
 4    1  0.1852677E-008  0.2532860E+03  0.7818608E-02  0.1111246E+00
         -1   -1    0    0    0  501 -0.00000000000E+00  0.00000000000E+00  0.82944148437E+02  0.82944148591E+02  0.50400000000E-02 0.  1.
          1   -1    0    0  501    0  0.00000000000E+00 -0.00000000000E+00 -0.28400425944E+04  0.28400425944E+04  0.50400000000E-02 0. -1.
    8880022    1    1    2    0    0  0.65246569077E+00  0.20189532429E+03 -0.26252465703E+04  0.26374368913E+04  0.15294330000E+03 0.  0.
    8880022    1    1    2    0    0 -0.65246569077E+00 -0.20189532429E+03 -0.13185187569E+03  0.28554985172E+03  0.15294330000E+03 0.  0.
<mgrwt>
<rscale>  0 0.25328601E+03</rscale>
<asrwt>0</asrwt>
<pdfrwt beam="1">  1        1 0.43692955E+00 0.25328601E+03</pdfrwt>
<pdfrwt beam="2">  1       -1 0.12760640E-01 0.25328601E+03</pdfrwt>
<totfact> 0.39275172E+01</totfact>
</mgrwt>
</event>
<event>
 4    1  0.1852677E-008  0.6387718E+03  0.7818608E-02  0.9828079E-01
         -1   -1    0    0    0  501 -0.00000000000E+00  0.00000000000E+00  0.10757540729E+04  0.10757540730E+04  0.50400000000E-02 0.  1.
          1   -1    0    0  501    0  0.00000000000E+00 -0.00000000000E+00 -0.81136268348E+03  0.81136268349E+03  0.50400000000E-02 0. -1.
    8880022    1    1    2    0    0  0.78688897061E+02 -0.61517949794E+03  0.82074740250E+03  0.10400267828E+04  0.15294330000E+03 0.  0.
    8880022    1    1    2    0    0 -0.78688897061E+02  0.61517949794E+03 -0.55635601303E+03  0.84708997365E+03  0.15294330000E+03 0.  0.
<mgrwt>
<rscale>  0 0.63877180E+03</rscale>
<asrwt>0</asrwt>
<pdfrwt beam="1">  1        1 0.12482503E+00 0.63877180E+03</pdfrwt>
<pdfrwt beam="2">  1       -1 0.16550063E+00 0.63877180E+03</pdfrwt>
<totfact> 0.60467696E+00</totfact>
</mgrwt>
</event>
<event>
 4    1  0.1852677E-008  0.5801582E+03  0.7818608E-02  0.9947449E-01
         -1   -1    0    0    0  501 -0.00000000000E+00  0.00000000000E+00  0.14232435375E+04  0.14232435375E+04  0.50400000000E-02 0.  1.
          1   -1    0    0  501    0  0.00000000000E+00 -0.00000000000E+00 -0.38972931209E+03  0.38972931212E+03  0.50400000000E-02 0. -1.
    8880022    1    1    2    0    0 -0.28723554415E+03 -0.48029955611E+03  0.10851703180E+04  0.12305194812E+04  0.15294330000E+03 0.  0.
    8880022    1    1    2    0    0  0.28723554415E+03  0.48029955611E+03 -0.51656092683E+02  0.58245336839E+03  0.15294330000E+03 0.  0.
<mgrwt>
<rscale>  0 0.58015823E+03</rscale>
<asrwt>0</asrwt>
<pdfrwt beam="1">  1        1 0.59958356E-01 0.58015823E+03</pdfrwt>
<pdfrwt beam="2">  1       -1 0.21896054E+00 0.58015823E+03</pdfrwt>
<totfact> 0.73715920E+00</totfact>
</mgrwt>
</event>
<event>
 4    1  0.1852677E-008  0.5151717E+03  0.7818608E-02  0.1009893E+00
         -1   -1    0    0    0  501 -0.00000000000E+00  0.00000000000E+00  0.15914427494E+04  0.15914427494E+04  0.50400000000E-02 0.  1.
          1   -1    0    0  501    0  0.00000000000E+00 -0.00000000000E+00 -0.52715754126E+03  0.52715754129E+03  0.50400000000E-02 0. -1.
    8880022    1    1    2    0    0  0.34888355905E+03 -0.34682921244E+03 -0.34371770392E+03  0.61930909358E+03  0.15294330000E+03 0. -1.
    8880022    1    1    2    0    0 -0.34888355905E+03  0.34682921244E+03  0.14080029121E+04  0.14992911971E+04  0.15294330000E+03 0.  0.
<mgrwt>
<rscale>  0 0.51517171E+03</rscale>
<asrwt>0</asrwt>
<pdfrwt beam="1">  1        1 0.81101162E-01 0.51517171E+03</pdfrwt>
<pdfrwt beam="2">  1       -1 0.24483734E+00 0.51517171E+03</pdfrwt>
<totfact> 0.33807020E+00</totfact>
</mgrwt>
</event>
<event>
 4    1  0.1852677E-008  0.3601539E+03  0.7818608E-02  0.1058523E+00
         -1   -1    0    0    0  501 -0.00000000000E+00  0.00000000000E+00  0.12926178119E+03  0.12926178129E+03  0.50400000000E-02 0.  1.
          1   -1    0    0  501    0  0.00000000000E+00 -0.00000000000E+00 -0.17209417497E+04  0.17209417497E+04  0.50400000000E-02 0. -1.
    8880022    1    1    2    0    0 -0.60433034875E+01 -0.32601020778E+03 -0.19851919268E+03  0.41124287225E+03  0.15294330000E+03 0.  0.
    8880022    1    1    2    0    0  0.60433034875E+01  0.32601020778E+03 -0.13931607758E+04  0.14389606587E+04  0.15294330000E+03 0.  0.
<mgrwt>
<rscale>  0 0.36015390E+03</rscale>
<asrwt>0</asrwt>
<pdfrwt beam="1">  1        1 0.26476025E+00 0.36015390E+03</pdfrwt>
<pdfrwt beam="2">  1       -1 0.19886429E-01 0.36015390E+03</pdfrwt>
<totfact> 0.10294092E+02</totfact>
</mgrwt>
</event>
<event>
 4    1  0.1852677E-008  0.1114566E+04  0.7818608E-02  0.9191110E-01
         -1   -1    0    0    0  501 -0.00000000000E+00  0.00000000000E+00  0.15017242718E+04  0.15017242718E+04  0.50400000000E-02 0.  1.
          1   -1    0    0  501    0  0.00000000000E+00 -0.00000000000E+00 -0.10318857336E+04  0.10318857336E+04  0.50400000000E-02 0. -1.
    8880022    1    1    2    0    0  0.10275375748E+04 -0.40377133233E+03  0.79909771926E+03  0.13714275680E+04  0.15294330000E+03 0.  0.
    8880022    1    1    2    0    0 -0.10275375748E+04  0.40377133233E+03 -0.32925918105E+03  0.11621824374E+04  0.15294330000E+03 0.  0.
<mgrwt>
<rscale>  0 0.11145656E+04</rscale>
<asrwt>0</asrwt>
<pdfrwt beam="1">  1        1 0.15875165E+00 0.11145656E+04</pdfrwt>
<pdfrwt beam="2">  1       -1 0.23103450E+00 0.11145656E+04</pdfrwt>
<totfact> 0.13164849E+00</totfact>
</mgrwt>
</event>
<event>
 4    1  0.1852677E-008  0.7013678E+03  0.7818608E-02  0.9714896E-01
          1   -1    0    0  501    0  0.00000000000E+00  0.00000000000E+00  0.87095527627E+03  0.87095527629E+03  0.50400000000E-02 0. -1.
         -1   -1    0    0    0  501 -0.00000000000E+00 -0.00000000000E+00 -0.13264401084E+04  0.13264401084E+04  0.50400000000E-02 0.  1.
    8880022    1    1    2    0    0  0.47166057323E+02 -0.68286199516E+03  0.60480481759E+03  0.92612399915E+03  0.15294330000E+03 0.  0.
    8880022    1    1    2    0    0 -0.47166057323E+02  0.68286199516E+03 -0.10602896497E+04  0.12712713856E+04  0.15294330000E+03 0.  0.
<mgrwt>
<rscale>  0 0.70136780E+03</rscale>
<asrwt>0</asrwt>
<pdfrwt beam="1">  1        1 0.13399312E+00 0.70136780E+03</pdfrwt>
<pdfrwt beam="2">  1       -1 0.20406771E+00 0.70136780E+03</pdfrwt>
<totfact> 0.28489230E+00</totfact>
</mgrwt>
</event>
<event>
 4    1  0.1852677E-008  0.4675359E+03  0.7818608E-02  0.1022618E+00
         -1   -1    0    0    0  501 -0.00000000000E+00  0.00000000000E+00  0.21433482054E+03  0.21433482060E+03  0.50400000000E-02 0.  1.
          1   -1    0    0  501    0  0.00000000000E+00 -0.00000000000E+00 -0.17794341715E+04  0.17794341715E+04  0.50400000000E-02 0. -1.
    8880022    1    1    2    0    0 -0.23414876996E+03  0.37466326791E+03 -0.13123454282E+03  0.48560515755E+03  0.15294330000E+03 0.  0.
    8880022    1    1    2    0    0  0.23414876996E+03 -0.37466326791E+03 -0.14338648081E+04  0.15081638345E+04  0.15294330000E+03 0.  0.
<mgrwt>
<rscale>  0 0.46753595E+03</rscale>
<asrwt>0</asrwt>
<pdfrwt beam="1">  1        1 0.27375909E+00 0.46753595E+03</pdfrwt>
<pdfrwt beam="2">  1       -1 0.32974589E-01 0.46753595E+03</pdfrwt>
<totfact> 0.39181695E+01</totfact>
</mgrwt>
</event>
<event>
 4    1  0.1852677E-008  0.3970346E+03  0.7818608E-02  0.1044811E+00
         -1   -1    0    0    0  501 -0.00000000000E+00  0.00000000000E+00  0.15017409286E+04  0.15017409286E+04  0.50400000000E-02 0.  1.
          1   -1    0    0  501    0  0.00000000000E+00 -0.00000000000E+00 -0.58199275602E+03  0.58199275605E+03  0.50400000000E-02 0. -1.
    8880022    1    1    2    0    0  0.34945622386E+03  0.11011436353E+03  0.14031165843E+04  0.14582087051E+04  0.15294330000E+03 0.  0.
    8880022    1    1    2    0    0 -0.34945622386E+03 -0.11011436353E+03 -0.48336841179E+03  0.62552497950E+03  0.15294330000E+03 0.  0.
<mgrwt>
<rscale>  0 0.39703461E+03</rscale>
<asrwt>0</asrwt>
<pdfrwt beam="1">  1        1 0.89537347E-01 0.39703461E+03</pdfrwt>
<pdfrwt beam="2">  1       -1 0.23103707E+00 0.39703461E+03</pdfrwt>
<totfact> 0.37306571E+00</totfact>
</mgrwt>
</event>
<event>
 4    1  0.1852677E-008  0.7935065E+03  0.7818608E-02  0.9569464E-01
         -1   -1    0    0    0  501 -0.00000000000E+00  0.00000000000E+00  0.88805360493E+03  0.88805360494E+03  0.50400000000E-02 0.  1.
          1   -1    0    0  501    0  0.00000000000E+00 -0.00000000000E+00 -0.10183538953E+04  0.10183538953E+04  0.50400000000E-02 0. -1.
    8880022    1    1    2    0    0  0.24216118443E+03 -0.74001273652E+03 -0.59049726798E+03  0.98911049230E+03  0.15294330000E+03 0.  0.
    8880022    1    1    2    0    0 -0.24216118443E+03  0.74001273652E+03  0.46019697766E+03  0.91729700791E+03  0.15294330000E+03 0.  0.
<mgrwt>
<rscale>  0 0.79350649E+03</rscale>
<asrwt>0</asrwt>
<pdfrwt beam="1">  1        1 0.15666983E+00 0.79350649E+03</pdfrwt>
<pdfrwt beam="2">  1       -1 0.13662363E+00 0.79350649E+03</pdfrwt>
<totfact> 0.67254396E+00</totfact>
</mgrwt>
</event>
<event>
 4    1  0.1852677E-008  0.4569950E+03  0.7818608E-02  0.1025656E+00
          1   -1    0    0  501    0  0.00000000000E+00  0.00000000000E+00  0.13612551042E+04  0.13612551043E+04  0.50400000000E-02 0. -1.
         -1   -1    0    0    0  501 -0.00000000000E+00 -0.00000000000E+00 -0.31540178038E+03  0.31540178043E+03  0.50400000000E-02 0.  1.
    8880022    1    1    2    0    0 -0.29655398674E+03 -0.31226358564E+03  0.11237053478E+04  0.12130779759E+04  0.15294330000E+03 0.  0.
    8880022    1    1    2    0    0  0.29655398674E+03  0.31226358564E+03 -0.77852023968E+02  0.46357890873E+03  0.15294330000E+03 0.  0.
<mgrwt>
<rscale>  0 0.45699504E+03</rscale>
<asrwt>0</asrwt>
<pdfrwt beam="1">  1        1 0.20942387E+00 0.45699504E+03</pdfrwt>
<pdfrwt beam="2">  1       -1 0.48523350E-01 0.45699504E+03</pdfrwt>
<totfact> 0.37354253E+01</totfact>
</mgrwt>
</event>
<event>
 4    1  0.1852677E-008  0.4942226E+03  0.7818608E-02  0.1015298E+00
          1   -1    0    0  501    0  0.00000000000E+00  0.00000000000E+00  0.68974273425E+03  0.68974273426E+03  0.50400000000E-02 0. -1.
         -1   -1    0    0    0  501 -0.00000000000E+00 -0.00000000000E+00 -0.46667484930E+03  0.46667484932E+03  0.50400000000E-02 0.  1.
    8880022    1    1    2    0    0 -0.62192279840E+02 -0.46582879660E+03  0.39548766159E+03  0.63298222005E+03  0.15294330000E+03 0.  0.
    8880022    1    1    2    0    0  0.62192279840E+02  0.46582879660E+03 -0.17241977664E+03  0.52343536354E+03  0.15294330000E+03 0.  0.
<mgrwt>
<rscale>  0 0.49422262E+03</rscale>
<asrwt>0</asrwt>
<pdfrwt beam="1">  1        1 0.10611427E+00 0.49422262E+03</pdfrwt>
<pdfrwt beam="2">  1       -1 0.71796131E-01 0.49422262E+03</pdfrwt>
<totfact> 0.57278035E+01</totfact>
</mgrwt>
</event>
<event>
 4    1  0.1852677E-008  0.6260582E+03  0.7818608E-02  0.9852771E-01
         -1   -1    0    0    0  501 -0.00000000000E+00  0.00000000000E+00  0.67221684664E+03  0.67221684666E+03  0.50400000000E-02 0.  1.
          1   -1    0    0  501    0  0.00000000000E+00 -0.00000000000E+00 -0.13558430630E+04  0.13558430630E+04  0.50400000000E-02 0. -1.
    8880022    1    1    2    0    0 -0.46120601033E+03 -0.39477370174E+03  0.42373466252E+03  0.75597617475E+03  0.15294330000E+03 0.  0.
    8880022    1    1    2    0    0  0.46120601033E+03  0.39477370174E+03 -0.11073608788E+04  0.12720837349E+04  0.15294330000E+03 0.  0.
<mgrwt>
<rscale>  0 0.62605823E+03</rscale>
<asrwt>0</asrwt>
<pdfrwt beam="1">  1        1 0.20859124E+00 0.62605823E+03</pdfrwt>
<pdfrwt beam="2">  1       -1 0.10341798E+00 0.62605823E+03</pdfrwt>
<totfact> 0.77156367E+00</totfact>
</mgrwt>
</event>
<event>
 4    1  0.1852677E-008  0.9600260E+03  0.7818608E-02  0.9353508E-01
         -1   -1    0    0    0  501 -0.00000000000E+00  0.00000000000E+00  0.14036691677E+04  0.14036691677E+04  0.50400000000E-02 0.  1.
          1   -1    0    0  501    0  0.00000000000E+00 -0.00000000000E+00 -0.73184706821E+03  0.73184706823E+03  0.50400000000E-02 0. -1.
    8880022    1    1    2    0    0  0.56197166742E+03  0.76318158460E+03  0.67828911643E+03  0.11754684447E+04  0.15294330000E+03 0.  0.
    8880022    1    1    2    0    0 -0.56197166742E+03 -0.76318158460E+03 -0.64670169522E+01  0.96004779120E+03  0.15294330000E+03 0.  0.
<mgrwt>
<rscale>  0 0.96002601E+03</rscale>
<asrwt>0</asrwt>
<pdfrwt beam="1">  1        1 0.11259186E+00 0.96002601E+03</pdfrwt>
<pdfrwt beam="2">  1       -1 0.21594910E+00 0.96002601E+03</pdfrwt>
<totfact> 0.30112593E+00</totfact>
</mgrwt>
</event>
<event>
 4    1  0.1852677E-008  0.6367806E+03  0.7818608E-02  0.9831905E-01
         -1   -1    0    0    0  501 -0.00000000000E+00  0.00000000000E+00  0.42647257606E+03  0.42647257609E+03  0.50400000000E-02 0.  1.
          1   -1    0    0  501    0  0.00000000000E+00 -0.00000000000E+00 -0.21378559936E+04  0.21378559936E+04  0.50400000000E-02 0. -1.
    8880022    1    1    2    0    0  0.41519697327E+03  0.45794039813E+03 -0.18111028130E+04  0.19197872244E+04  0.15294330000E+03 0.  0.
    8880022    1    1    2    0    0 -0.41519697327E+03 -0.45794039813E+03  0.99719395489E+02  0.64454134523E+03  0.15294330000E+03 0.  0.
<mgrwt>
<rscale>  0 0.63678064E+03</rscale>
<asrwt>0</asrwt>
<pdfrwt beam="1">  1        1 0.32890092E+00 0.63678064E+03</pdfrwt>
<pdfrwt beam="2">  1       -1 0.65611166E-01 0.63678064E+03</pdfrwt>
<totfact> 0.60732517E+00</totfact>
</mgrwt>
</event>
<event>
 4    1  0.1852677E-008  0.1871778E+03  0.7818608E-02  0.1161032E+00
         -1   -1    0    0    0  501 -0.00000000000E+00  0.00000000000E+00  0.23813628111E+03  0.23813628117E+03  0.50400000000E-02 0.  1.
          1   -1    0    0  501    0  0.00000000000E+00 -0.00000000000E+00 -0.22727107875E+03  0.22727107881E+03  0.50400000000E-02 0. -1.
    8880022    1    1    2    0    0  0.23084334731E+01  0.10788208817E+03  0.14362221917E+03  0.23592979606E+03  0.15294330000E+03 0.  1.
    8880022    1    1    2    0    0 -0.23084334731E+01 -0.10788208817E+03 -0.13275701681E+03  0.22947756392E+03  0.15294330000E+03 0. -1.
<mgrwt>
<rscale>  0 0.18717779E+03</rscale>
<asrwt>0</asrwt>
<pdfrwt beam="1">  1        1 0.34964781E-01 0.18717779E+03</pdfrwt>
<pdfrwt beam="2">  1       -1 0.36636351E-01 0.18717779E+03</pdfrwt>
<totfact> 0.89797667E+02</totfact>
</mgrwt>
</event>
<event>
 4    1  0.1852677E-008  0.2178076E+03  0.7818608E-02  0.1135528E+00
         -1   -1    0    0    0  501 -0.00000000000E+00  0.00000000000E+00  0.86495037866E+02  0.86495038013E+02  0.50400000000E-02 0.  1.
          1   -1    0    0  501    0  0.00000000000E+00 -0.00000000000E+00 -0.34059374510E+04  0.34059374510E+04  0.50400000000E-02 0. -1.
    8880022    1    1    2    0    0 -0.29982306179E+02  0.15214975467E+03 -0.60273096868E+02  0.22599333121E+03  0.15294330000E+03 0.  1.
    8880022    1    1    2    0    0  0.29982306179E+02 -0.15214975467E+03 -0.32591693163E+04  0.32664391578E+04  0.15294330000E+03 0.  0.
<mgrwt>
<rscale>  0 0.21780757E+03</rscale>
<asrwt>0</asrwt>
<pdfrwt beam="1">  1        1 0.52399027E+00 0.21780757E+03</pdfrwt>
<pdfrwt beam="2">  1       -1 0.13306932E-01 0.21780757E+03</pdfrwt>
<totfact> 0.14833540E+01</totfact>
</mgrwt>
</event>
<event>
 4    1  0.1852677E-008  0.9148787E+03  0.7818608E-02  0.9407171E-01
          1   -1    0    0  501    0  0.00000000000E+00  0.00000000000E+00  0.27013740068E+04  0.27013740068E+04  0.50400000000E-02 0. -1.
         -1   -1    0    0    0  501 -0.00000000000E+00 -0.00000000000E+00 -0.76221948856E+03  0.76221948858E+03  0.50400000000E-02 0.  1.
    8880022    1    1    2    0    0 -0.89736383197E+03  0.91375325403E+02  0.23037335498E+04  0.24787479134E+04  0.15294330000E+03 0.  0.
    8880022    1    1    2    0    0  0.89736383197E+03 -0.91375325403E+02 -0.36457903154E+03  0.98484558194E+03  0.15294330000E+03 0.  0.
<mgrwt>
<rscale>  0 0.91487865E+03</rscale>
<asrwt>0</asrwt>
<pdfrwt beam="1">  1        1 0.41559600E+00 0.91487865E+03</pdfrwt>
<pdfrwt beam="2">  1       -1 0.11726454E+00 0.91487865E+03</pdfrwt>
<totfact> 0.66538055E-01</totfact>
</mgrwt>
</event>
<event>
 4    1  0.1852677E-008  0.6321025E+03  0.7818608E-02  0.9840954E-01
          1   -1    0    0  501    0  0.00000000000E+00  0.00000000000E+00  0.15205270861E+04  0.15205270861E+04  0.50400000000E-02 0. -1.
         -1   -1    0    0    0  501 -0.00000000000E+00 -0.00000000000E+00 -0.55910720647E+03  0.55910720649E+03  0.50400000000E-02 0.  1.
    8880022    1    1    2    0    0 -0.25430966268E+02  0.61279298402E+03  0.12377175462E+04  0.13897835632E+04  0.15294330000E+03 0.  0.
    8880022    1    1    2    0    0  0.25430966268E+02 -0.61279298402E+03 -0.27629766657E+03  0.68985072942E+03  0.15294330000E+03 0.  0.
<mgrwt>
<rscale>  0 0.63210255E+03</rscale>
<asrwt>0</asrwt>
<pdfrwt beam="1">  1        1 0.23392725E+00 0.63210255E+03</pdfrwt>
<pdfrwt beam="2">  1       -1 0.86016493E-01 0.63210255E+03</pdfrwt>
<totfact> 0.89536852E+00</totfact>
</mgrwt>
</event>
<event>
 4    1  0.1852677E-008  0.1019473E+04  0.7818608E-02  0.9287441E-01
         -1   -1    0    0    0  501 -0.00000000000E+00  0.00000000000E+00  0.52079486995E+03  0.52079486997E+03  0.50400000000E-02 0.  1.
          1   -1    0    0  501    0  0.00000000000E+00 -0.00000000000E+00 -0.22042994835E+04  0.22042994835E+04  0.50400000000E-02 0. -1.
    8880022    1    1    2    0    0  0.10065280461E+04  0.53249816452E+02 -0.42255192874E+03  0.11035742096E+04  0.15294330000E+03 0.  0.
    8880022    1    1    2    0    0 -0.10065280461E+04 -0.53249816452E+02 -0.12609526848E+04  0.16215201438E+04  0.15294330000E+03 0.  0.
<mgrwt>
<rscale>  0 0.10194733E+04</rscale>
<asrwt>0</asrwt>
<pdfrwt beam="1">  1        1 0.33912299E+00 0.10194733E+04</pdfrwt>
<pdfrwt beam="2">  1       -1 0.80122289E-01 0.10194733E+04</pdfrwt>
<totfact> 0.34031517E+00</totfact>
</mgrwt>
</event>
<event>
 4    1  0.1852677E-008  0.6489282E+03  0.7818608E-02  0.9808792E-01
         -1   -1    0    0    0  501 -0.00000000000E+00  0.00000000000E+00  0.53896657239E+03  0.53896657241E+03  0.50400000000E-02 0.  1.
          1   -1    0    0  501    0  0.00000000000E+00 -0.00000000000E+00 -0.12081632999E+04  0.12081632999E+04  0.50400000000E-02 0. -1.
    8880022    1    1    2    0    0  0.57917761047E+03 -0.24953852482E+03 -0.85383374314E+03  0.10724457533E+04  0.15294330000E+03 0.  0.
    8880022    1    1    2    0    0 -0.57917761047E+03  0.24953852482E+03  0.18463701566E+03  0.67468411899E+03  0.15294330000E+03 0.  0.
<mgrwt>
<rscale>  0 0.64892822E+03</rscale>
<asrwt>0</asrwt>
<pdfrwt beam="1">  1        1 0.18587128E+00 0.64892822E+03</pdfrwt>
<pdfrwt beam="2">  1       -1 0.82917934E-01 0.64892822E+03</pdfrwt>
<totfact> 0.15947196E+01</totfact>
</mgrwt>
</event>
<event>
 4    1  0.1852677E-008  0.7062507E+03  0.7818608E-02  0.9706602E-01
         -1   -1    0    0    0  501 -0.00000000000E+00  0.00000000000E+00  0.38497487733E+03  0.38497487736E+03  0.50400000000E-02 0.  1.
          1   -1    0    0  501    0  0.00000000000E+00 -0.00000000000E+00 -0.16863476696E+04  0.16863476696E+04  0.50400000000E-02 0. -1.
    8880022    1    1    2    0    0  0.61251717201E+03 -0.31657707848E+03 -0.11491902354E+04  0.13488618101E+04  0.15294330000E+03 0.  0.
    8880022    1    1    2    0    0 -0.61251717201E+03  0.31657707848E+03 -0.15218255683E+03  0.72246073682E+03  0.15294330000E+03 0.  0.
<mgrwt>
<rscale>  0 0.70625065E+03</rscale>
<asrwt>0</asrwt>
<pdfrwt beam="1">  1        1 0.25943810E+00 0.70625065E+03</pdfrwt>
<pdfrwt beam="2">  1       -1 0.59226905E-01 0.70625065E+03</pdfrwt>
<totfact> 0.14713760E+01</totfact>
</mgrwt>
</event>
<event>
 4    1  0.1852677E-008  0.4500127E+03  0.7818608E-02  0.1027718E+00
         -1   -1    0    0    0  501 -0.00000000000E+00  0.00000000000E+00  0.56866285828E+03  0.56866285831E+03  0.50400000000E-02 0.  1.
          1   -1    0    0  501    0  0.00000000000E+00 -0.00000000000E+00 -0.97284918154E+03  0.97284918156E+03  0.50400000000E-02 0. -1.
    8880022    1    1    2    0    0 -0.39036272643E+03 -0.16351369018E+03 -0.81577306023E+03  0.93166363237E+03  0.15294330000E+03 0.  0.
    8880022    1    1    2    0    0  0.39036272643E+03  0.16351369018E+03  0.41158673697E+03  0.60984840750E+03  0.15294330000E+03 0.  0.
<mgrwt>
<rscale>  0 0.45001271E+03</rscale>
<asrwt>0</asrwt>
<pdfrwt beam="1">  1        1 0.14966911E+00 0.45001271E+03</pdfrwt>
<pdfrwt beam="2">  1       -1 0.87486593E-01 0.45001271E+03</pdfrwt>
<totfact> 0.22009287E+01</totfact>
</mgrwt>
</event>
<event>
 4    1  0.1852677E-008  0.6825669E+03  0.7818608E-02  0.9747518E-01
         -1   -1    0    0    0  501 -0.00000000000E+00  0.00000000000E+00  0.57735244603E+03  0.57735244606E+03  0.50400000000E-02 0.  1.
          1   -1    0    0  501    0  0.00000000000E+00 -0.00000000000E+00 -0.10810890890E+04  0.10810890890E+04  0.50400000000E-02 0. -1.
    8880022    1    1    2    0    0 -0.62490661729E+03 -0.22802997439E+03  0.16569345010E+03  0.70239014940E+03  0.15294330000E+03 0.  0.
    8880022    1    1    2    0    0  0.62490661729E+03  0.22802997439E+03 -0.66943009309E+03  0.95605138570E+03  0.15294330000E+03 0.  0.
<mgrwt>
<rscale>  0 0.68256692E+03</rscale>
<asrwt>0</asrwt>
<pdfrwt beam="1">  1        1 0.16632140E+00 0.68256692E+03</pdfrwt>
<pdfrwt beam="2">  1       -1 0.88823453E-01 0.68256692E+03</pdfrwt>
<totfact> 0.16947869E+01</totfact>
</mgrwt>
</event>
<event>
 4    1  0.1852677E-008  0.4897820E+03  0.7818608E-02  0.1016481E+00
          1   -1    0    0  501    0  0.00000000000E+00  0.00000000000E+00  0.48151499494E+03  0.48151499497E+03  0.50400000000E-02 0. -1.
         -1   -1    0    0    0  501 -0.00000000000E+00 -0.00000000000E+00 -0.94758155091E+03  0.94758155092E+03  0.50400000000E-02 0.  1.
    8880022    1    1    2    0    0  0.33239057984E+01  0.46527814196E+03 -0.72511272946E+03  0.87502852592E+03  0.15294330000E+03 0.  0.
    8880022    1    1    2    0    0 -0.33239057984E+01 -0.46527814196E+03  0.25904617349E+03  0.55406801997E+03  0.15294330000E+03 0.  0.
<mgrwt>
<rscale>  0 0.48978204E+03</rscale>
<asrwt>0</asrwt>
<pdfrwt beam="1">  1        1 0.74079230E-01 0.48978204E+03</pdfrwt>
<pdfrwt beam="2">  1       -1 0.14578178E+00 0.48978204E+03</pdfrwt>
<totfact> 0.18694837E+01</totfact>
</mgrwt>
</event>
<event>
 4    1  0.1852677E-008  0.6255673E+03  0.7818608E-02  0.9853737E-01
         -1   -1    0    0    0  501 -0.00000000000E+00  0.00000000000E+00  0.46518611751E+03  0.46518611754E+03  0.50400000000E-02 0.  1.
          1   -1    0    0  501    0  0.00000000000E+00 -0.00000000000E+00 -0.90246869066E+03  0.90246869067E+03  0.50400000000E-02 0. -1.
    8880022    1    1    2    0    0 -0.33369371431E+03 -0.50654839361E+03 -0.40527162947E+02  0.62687867565E+03  0.15294330000E+03 0.  0.
    8880022    1    1    2    0    0  0.33369371431E+03  0.50654839361E+03 -0.39675541020E+03  0.74077613256E+03  0.15294330000E+03 0.  0.
<mgrwt>
<rscale>  0 0.62556728E+03</rscale>
<asrwt>0</asrwt>
<pdfrwt beam="1">  1        1 0.13884134E+00 0.62556728E+03</pdfrwt>
<pdfrwt beam="2">  1       -1 0.71567095E-01 0.62556728E+03</pdfrwt>
<totfact> 0.37119450E+01</totfact>
</mgrwt>
</event>
<event>
 4    1  0.1852677E-008  0.7431068E+03  0.7818608E-02  0.9646227E-01
          1   -1    0    0  501    0  0.00000000000E+00  0.00000000000E+00  0.95956520505E+03  0.95956520507E+03  0.50400000000E-02 0. -1.
         -1   -1    0    0    0  501 -0.00000000000E+00 -0.00000000000E+00 -0.10725924624E+04  0.10725924624E+04  0.50400000000E-02 0.  1.
    8880022    1    1    2    0    0  0.72064317300E+03  0.97414117081E+02  0.63521962124E+03  0.97760509063E+03  0.15294330000E+03 0.  0.
    8880022    1    1    2    0    0 -0.72064317300E+03 -0.97414117081E+02 -0.74824687855E+03  0.10545525768E+04  0.15294330000E+03 0.  0.
<mgrwt>
<rscale>  0 0.74310682E+03</rscale>
<asrwt>0</asrwt>
<pdfrwt beam="1">  1        1 0.14762542E+00 0.74310682E+03</pdfrwt>
<pdfrwt beam="2">  1       -1 0.16501423E+00 0.74310682E+03</pdfrwt>
<totfact> 0.45299561E+00</totfact>
</mgrwt>
</event>
<event>
 4    1  0.1852677E-008  0.6433375E+03  0.7818608E-02  0.9819362E-01
          1   -1    0    0  501    0  0.00000000000E+00  0.00000000000E+00  0.98592150011E+03  0.98592150012E+03  0.50400000000E-02 0. -1.
         -1   -1    0    0    0  501 -0.00000000000E+00 -0.00000000000E+00 -0.72320648264E+03  0.72320648265E+03  0.50400000000E-02 0.  1.
    8880022    1    1    2    0    0 -0.55498412079E+03  0.28720056409E+03  0.68487416268E+03  0.93964664106E+03  0.15294330000E+03 0.  0.
    8880022    1    1    2    0    0  0.55498412079E+03 -0.28720056409E+03 -0.42215914521E+03  0.76948134171E+03  0.15294330000E+03 0.  0.
<mgrwt>
<rscale>  0 0.64333754E+03</rscale>
<asrwt>0</asrwt>
<pdfrwt beam="1">  1        1 0.15168023E+00 0.64333754E+03</pdfrwt>
<pdfrwt beam="2">  1       -1 0.11126254E+00 0.64333754E+03</pdfrwt>
<totfact> 0.12078075E+01</totfact>
</mgrwt>
</event>
<event>
 4    1  0.1852677E-008  0.1623686E+03  0.7818608E-02  0.1186048E+00
         -1   -1    0    0    0  501 -0.00000000000E+00  0.00000000000E+00  0.14227555765E+03  0.14227555773E+03  0.50400000000E-02 0.  1.
          1   -1    0    0  501    0  0.00000000000E+00 -0.00000000000E+00 -0.89964046875E+03  0.89964046876E+03  0.50400000000E-02 0. -1.
    8880022    1    1    2    0    0 -0.15812492368E+02  0.52171590542E+02 -0.84289948455E+03  0.85839565694E+03  0.15294330000E+03 0.  0.
    8880022    1    1    2    0    0  0.15812492368E+02 -0.52171590542E+02  0.85534573448E+02  0.18352036956E+03  0.15294330000E+03 0.  1.
<mgrwt>
<rscale>  0 0.16236860E+03</rscale>
<asrwt>0</asrwt>
<pdfrwt beam="1">  1        1 0.13840622E+00 0.16236860E+03</pdfrwt>
<pdfrwt beam="2">  1       -1 0.21888548E-01 0.16236860E+03</pdfrwt>
<totfact> 0.33969155E+02</totfact>
</mgrwt>
</event>
<event>
 4    1  0.1852677E-008  0.3986547E+03  0.7818608E-02  0.1044246E+00
          1   -1    0    0  501    0  0.00000000000E+00  0.00000000000E+00  0.32788615656E+03  0.32788615660E+03  0.50400000000E-02 0. -1.
         -1   -1    0    0    0  501 -0.00000000000E+00 -0.00000000000E+00 -0.11080324677E+04  0.11080324677E+04  0.50400000000E-02 0.  1.
    8880022    1    1    2    0    0  0.28614338547E+03 -0.23163745905E+03 -0.92857145070E+03  0.10105298321E+04  0.15294330000E+03 0.  0.
    8880022    1    1    2    0    0 -0.28614338547E+03  0.23163745905E+03  0.14842513955E+03  0.42538879222E+03  0.15294330000E+03 0.  0.
<mgrwt>
<rscale>  0 0.39865474E+03</rscale>
<asrwt>0</asrwt>
<pdfrwt beam="1">  1        1 0.50444024E-01 0.39865474E+03</pdfrwt>
<pdfrwt beam="2">  1       -1 0.17046653E+00 0.39865474E+03</pdfrwt>
<totfact> 0.20527948E+01</totfact>
</mgrwt>
</event>
<event>
 4    1  0.1852677E-008  0.3073828E+03  0.7818608E-02  0.1081607E+00
          1   -1    0    0  501    0  0.00000000000E+00  0.00000000000E+00  0.16332949253E+04  0.16332949253E+04  0.50400000000E-02 0. -1.
         -1   -1    0    0    0  501 -0.00000000000E+00 -0.00000000000E+00 -0.82797047328E+02  0.82797047481E+02  0.50400000000E-02 0.  1.
    8880022    1    1    2    0    0  0.19699137189E+03 -0.17968560767E+03  0.12462512686E+04  0.12835990012E+04  0.15294330000E+03 0. -1.
    8880022    1    1    2    0    0 -0.19699137189E+03  0.17968560767E+03  0.30424660938E+03  0.43249297166E+03  0.15294330000E+03 0.  0.
<mgrwt>
<rscale>  0 0.30738278E+03</rscale>
<asrwt>0</asrwt>
<pdfrwt beam="1">  1        1 0.25127612E+00 0.30738278E+03</pdfrwt>
<pdfrwt beam="2">  1       -1 0.12738009E-01 0.30738278E+03</pdfrwt>
<totfact> 0.24310481E+02</totfact>
</mgrwt>
</event>
<event>
 4    1  0.1852677E-008  0.3510223E+03  0.7818608E-02  0.1062196E+00
         -1   -1    0    0    0  501 -0.00000000000E+00  0.00000000000E+00  0.61763402743E+03  0.61763402745E+03  0.50400000000E-02 0.  1.
          1   -1    0    0  501    0  0.00000000000E+00 -0.00000000000E+00 -0.15362198323E+04  0.15362198323E+04  0.50400000000E-02 0. -1.
    8880022    1    1    2    0    0 -0.31512970458E+03  0.22765129976E+02 -0.14638626729E+04  0.15053606079E+04  0.15294330000E+03 0. -1.
    8880022    1    1    2    0    0  0.31512970458E+03 -0.22765129976E+02  0.54527686801E+03  0.64849325182E+03  0.15294330000E+03 0.  0.
<mgrwt>
<rscale>  0 0.35102227E+03</rscale>
<asrwt>0</asrwt>
<pdfrwt beam="1">  1        1 0.23634151E+00 0.35102227E+03</pdfrwt>
<pdfrwt beam="2">  1       -1 0.95020619E-01 0.35102227E+03</pdfrwt>
<totfact> 0.75467171E+00</totfact>
</mgrwt>
</event>
<event>
 4    1  0.1852677E-008  0.5036700E+03  0.7818608E-02  0.1012825E+00
         -1   -1    0    0    0  501 -0.00000000000E+00  0.00000000000E+00  0.90832122631E+03  0.90832122632E+03  0.50400000000E-02 0.  1.
          1   -1    0    0  501    0  0.00000000000E+00 -0.00000000000E+00 -0.63222972798E+03  0.63222972800E+03  0.50400000000E-02 0. -1.
    8880022    1    1    2    0    0  0.38689052470E+03 -0.28391469153E+03 -0.43747361397E+03  0.66713315471E+03  0.15294330000E+03 0. -1.
    8880022    1    1    2    0    0 -0.38689052470E+03  0.28391469153E+03  0.71356511230E+03  0.87341779961E+03  0.15294330000E+03 0.  0.
<mgrwt>
<rscale>  0 0.50367001E+03</rscale>
<asrwt>0</asrwt>
<pdfrwt beam="1">  1        1 0.97266111E-01 0.50367001E+03</pdfrwt>
<pdfrwt beam="2">  1       -1 0.13974173E+00 0.50367001E+03</pdfrwt>
<totfact> 0.14252402E+01</totfact>
</mgrwt>
</event>
<event>
 4    1  0.1852677E-008  0.7713677E+03  0.7818608E-02  0.9602412E-01
          1   -1    0    0  501    0  0.00000000000E+00  0.00000000000E+00  0.11208773584E+04  0.11208773584E+04  0.50400000000E-02 0. -1.
         -1   -1    0    0    0  501 -0.00000000000E+00 -0.00000000000E+00 -0.92598765606E+03  0.92598765607E+03  0.50400000000E-02 0.  1.
    8880022    1    1    2    0    0 -0.34371603101E+02  0.75527147324E+03 -0.57110772679E+03  0.95977710642E+03  0.15294330000E+03 0.  0.
    8880022    1    1    2    0    0  0.34371603101E+02 -0.75527147324E+03  0.76599742909E+03  0.10870879080E+04  0.15294330000E+03 0. -1.
<mgrwt>
<rscale>  0 0.77136765E+03</rscale>
<asrwt>0</asrwt>
<pdfrwt beam="1">  1        1 0.17244267E+00 0.77136765E+03</pdfrwt>
<pdfrwt beam="2">  1       -1 0.14245964E+00 0.77136765E+03</pdfrwt>
<totfact> 0.50628694E+00</totfact>
</mgrwt>
</event>
<event>
 4    1  0.1890570E-008  0.8771654E+03  0.7818608E-02  0.9454585E-01
         -1   -1    0    0    0  501 -0.00000000000E+00  0.00000000000E+00  0.12643001558E+04  0.12643001558E+04  0.50400000000E-02 0.  1.
          1   -1    0    0  501    0  0.00000000000E+00 -0.00000000000E+00 -0.19145757433E+04  0.19145757433E+04  0.50400000000E-02 0. -1.
    8880022    1    1    2    0    0  0.71236768463E+03 -0.48842588344E+03 -0.16378795817E+04  0.18579743645E+04  0.15294330000E+03 0.  0.
    8880022    1    1    2    0    0 -0.71236768463E+03  0.48842588344E+03  0.98760399428E+03  0.13209015347E+04  0.15294330000E+03 0.  0.
<mgrwt>
<rscale>  0 0.87716544E+03</rscale>
<asrwt>0</asrwt>
<pdfrwt beam="1">  1        1 0.29455011E+00 0.87716544E+03</pdfrwt>
<pdfrwt beam="2">  1       -1 0.19450772E+00 0.87716544E+03</pdfrwt>
<totfact> 0.57850197E-01</totfact>
</mgrwt>
</event>
<event>
 4    1  0.1852677E-008  0.3886182E+03  0.7818608E-02  0.1047794E+00
         -1   -1    0    0    0  501 -0.00000000000E+00  0.00000000000E+00  0.88895115714E+02  0.88895115857E+02  0.50400000000E-02 0.  1.
          1   -1    0    0  501    0  0.00000000000E+00 -0.00000000000E+00 -0.28359164121E+04  0.28359164121E+04  0.50400000000E-02 0. -1.
    8880022    1    1    2    0    0  0.35772525358E+02  0.35546135427E+03 -0.22994960464E+04  0.23321033786E+04  0.15294330000E+03 0.  0.
    8880022    1    1    2    0    0 -0.35772525358E+02 -0.35546135427E+03 -0.44752524998E+03  0.59270814937E+03  0.15294330000E+03 0.  0.
<mgrwt>
<rscale>  0 0.38861819E+03</rscale>
<asrwt>0</asrwt>
<pdfrwt beam="1">  1        1 0.43629476E+00 0.38861819E+03</pdfrwt>
<pdfrwt beam="2">  1       -1 0.13676174E-01 0.38861819E+03</pdfrwt>
<totfact> 0.33859729E+01</totfact>
</mgrwt>
</event>
<event>
 4    1  0.1852677E-008  0.1106206E+04  0.7818608E-02  0.9199164E-01
         -1   -1    0    0    0  501 -0.00000000000E+00  0.00000000000E+00  0.24663920683E+04  0.24663920683E+04  0.50400000000E-02 0.  1.
          1   -1    0    0  501    0  0.00000000000E+00 -0.00000000000E+00 -0.20722309717E+04  0.20722309717E+04  0.50400000000E-02 0. -1.
    8880022    1    1    2    0    0  0.21637962228E+01  0.10955803378E+04 -0.17820057720E+04  0.20974358591E+04  0.15294330000E+03 0.  0.
    8880022    1    1    2    0    0 -0.21637962228E+01 -0.10955803378E+04  0.21761668687E+04  0.24411871808E+04  0.15294330000E+03 0.  0.
<mgrwt>
<rscale>  0 0.11062064E+04</rscale>
<asrwt>0</asrwt>
<pdfrwt beam="1">  1        1 0.31880477E+00 0.11062064E+04</pdfrwt>
<pdfrwt beam="2">  1       -1 0.37944493E+00 0.11062064E+04</pdfrwt>
<totfact> 0.26540452E-02</totfact>
</mgrwt>
</event>
<event>
 4    1  0.1852677E-008  0.9680253E+03  0.7818608E-02  0.9344326E-01
          1   -1    0    0  501    0  0.00000000000E+00  0.00000000000E+00  0.25305308419E+04  0.25305308419E+04  0.50400000000E-02 0. -1.
         -1   -1    0    0    0  501 -0.00000000000E+00 -0.00000000000E+00 -0.47686769443E+03  0.47686769445E+03  0.50400000000E-02 0.  1.
    8880022    1    1    2    0    0 -0.94945608316E+03  0.11051917786E+03  0.31600968785E+03  0.10183001121E+04  0.15294330000E+03 0.  0.
    8880022    1    1    2    0    0  0.94945608316E+03 -0.11051917786E+03  0.17376534596E+04  0.19890984242E+04  0.15294330000E+03 0.  0.
<mgrwt>
<rscale>  0 0.96802531E+03</rscale>
<asrwt>0</asrwt>
<pdfrwt beam="1">  1        1 0.38931243E+00 0.96802531E+03</pdfrwt>
<pdfrwt beam="2">  1       -1 0.73364261E-01 0.96802531E+03</pdfrwt>
<totfact> 0.24739155E+00</totfact>
</mgrwt>
</event>
<event>
 4    1  0.1852677E-008  0.5236477E+03  0.7818608E-02  0.1007784E+00
         -1   -1    0    0    0  501 -0.00000000000E+00  0.00000000000E+00  0.68309895686E+03  0.68309895688E+03  0.50400000000E-02 0.  1.
          1   -1    0    0  501    0  0.00000000000E+00 -0.00000000000E+00 -0.12718652965E+04  0.12718652965E+04  0.50400000000E-02 0. -1.
    8880022    1    1    2    0    0 -0.49506313597E+02  0.49836175290E+03 -0.11030320025E+04  0.12210186581E+04  0.15294330000E+03 0.  0.
    8880022    1    1    2    0    0  0.49506313597E+02 -0.49836175290E+03  0.51426566286E+03  0.73394559530E+03  0.15294330000E+03 0.  0.
<mgrwt>
<rscale>  0 0.52364775E+03</rscale>
<asrwt>0</asrwt>
<pdfrwt beam="1">  1        1 0.19567158E+00 0.52364775E+03</pdfrwt>
<pdfrwt beam="2">  1       -1 0.10509215E+00 0.52364775E+03</pdfrwt>
<totfact> 0.86894878E+00</totfact>
</mgrwt>
</event>
<event>
 4    1  0.1852677E-008  0.3080947E+03  0.7818608E-02  0.1081263E+00
          1   -1    0    0  501    0  0.00000000000E+00  0.00000000000E+00  0.42678680727E+03  0.42678680729E+03  0.50400000000E-02 0. -1.
         -1   -1    0    0    0  501 -0.00000000000E+00 -0.00000000000E+00 -0.11110378293E+04  0.11110378293E+04  0.50400000000E-02 0.  1.
    8880022    1    1    2    0    0 -0.39348867299E+02 -0.26454177133E+03  0.34553163468E+03  0.46294108234E+03  0.15294330000E+03 0.  0.
    8880022    1    1    2    0    0  0.39348867299E+02  0.26454177133E+03 -0.10297826567E+04  0.10748835543E+04  0.15294330000E+03 0.  1.
<mgrwt>
<rscale>  0 0.30809469E+03</rscale>
<asrwt>0</asrwt>
<pdfrwt beam="1">  1        1 0.65659509E-01 0.30809469E+03</pdfrwt>
<pdfrwt beam="2">  1       -1 0.17092890E+00 0.30809469E+03</pdfrwt>
<totfact> 0.14806011E+01</totfact>
</mgrwt>
</event>
<event>
 4    1  0.1852677E-008  0.6758339E+03  0.7818608E-02  0.9759476E-01
         -1   -1    0    0    0  501 -0.00000000000E+00  0.00000000000E+00  0.41069583839E+03  0.41069583843E+03  0.50400000000E-02 0.  1.
          1   -1    0    0  501    0  0.00000000000E+00 -0.00000000000E+00 -0.15793540579E+04  0.15793540579E+04  0.50400000000E-02 0. -1.
    8880022    1    1    2    0    0 -0.10666472670E+03 -0.64960171360E+03 -0.11255219212E+04  0.13128408123E+04  0.15294330000E+03 0.  0.
    8880022    1    1    2    0    0  0.10666472670E+03  0.64960171360E+03 -0.43136298248E+02  0.67720908402E+03  0.15294330000E+03 0.  0.
<mgrwt>
<rscale>  0 0.67583386E+03</rscale>
<asrwt>0</asrwt>
<pdfrwt beam="1">  1        1 0.24297754E+00 0.67583386E+03</pdfrwt>
<pdfrwt beam="2">  1       -1 0.63183976E-01 0.67583386E+03</pdfrwt>
<totfact> 0.15361456E+01</totfact>
</mgrwt>
</event>
<event>
 4    1  0.1852677E-008  0.7600119E+03  0.7818608E-02  0.9619773E-01
         -1   -1    0    0    0  501 -0.00000000000E+00  0.00000000000E+00  0.21707220077E+04  0.21707220077E+04  0.50400000000E-02 0.  1.
          1   -1    0    0  501    0  0.00000000000E+00 -0.00000000000E+00 -0.56512589725E+03  0.56512589728E+03  0.50400000000E-02 0. -1.
    8880022    1    1    2    0    0 -0.72898064110E+03 -0.15104204338E+03  0.17978538429E+04  0.19518956343E+04  0.15294330000E+03 0.  0.
    8880022    1    1    2    0    0  0.72898064110E+03  0.15104204338E+03 -0.19225773242E+03  0.78395227066E+03  0.15294330000E+03 0.  0.
<mgrwt>
<rscale>  0 0.76001193E+03</rscale>
<asrwt>0</asrwt>
<pdfrwt beam="1">  1        1 0.86942447E-01 0.76001193E+03</pdfrwt>
<pdfrwt beam="2">  1       -1 0.33395723E+00 0.76001193E+03</pdfrwt>
<totfact> 0.78460658E-01</totfact>
</mgrwt>
</event>
<event>
 4    1  0.1852677E-008  0.6883112E+03  0.7818608E-02  0.9737433E-01
          1   -1    0    0  501    0  0.00000000000E+00  0.00000000000E+00  0.17725238304E+04  0.17725238304E+04  0.50400000000E-02 0. -1.
         -1   -1    0    0    0  501 -0.00000000000E+00 -0.00000000000E+00 -0.77923104930E+03  0.77923104932E+03  0.50400000000E-02 0.  1.
    8880022    1    1    2    0    0 -0.43729052455E+02  0.66967780695E+03 -0.53751224318E+03  0.87332219698E+03  0.15294330000E+03 0.  0.
    8880022    1    1    2    0    0  0.43729052455E+02 -0.66967780695E+03  0.15308050243E+04  0.16784326827E+04  0.15294330000E+03 0.  0.
<mgrwt>
<rscale>  0 0.68831116E+03</rscale>
<asrwt>0</asrwt>
<pdfrwt beam="1">  1        1 0.27269597E+00 0.68831116E+03</pdfrwt>
<pdfrwt beam="2">  1       -1 0.11988170E+00 0.68831116E+03</pdfrwt>
<totfact> 0.28024209E+00</totfact>
</mgrwt>
</event>
<event>
 4    1  0.1852677E-008  0.2738266E+03  0.7818608E-02  0.1099109E+00
         -1   -1    0    0    0  501 -0.00000000000E+00  0.00000000000E+00  0.15692876066E+03  0.15692876075E+03  0.50400000000E-02 0.  1.
          1   -1    0    0  501    0  0.00000000000E+00 -0.00000000000E+00 -0.50790647180E+03  0.50790647182E+03  0.50400000000E-02 0. -1.
    8880022    1    1    2    0    0  0.44412508446E+02 -0.22274849229E+03 -0.94560395953E+02  0.28969412010E+03  0.15294330000E+03 0. -1.
    8880022    1    1    2    0    0 -0.44412508446E+02  0.22274849229E+03 -0.25641731518E+03  0.37514111247E+03  0.15294330000E+03 0.  0.
<mgrwt>
<rscale>  0 0.27382661E+03</rscale>
<asrwt>0</asrwt>
<pdfrwt beam="1">  1        1 0.78139456E-01 0.27382661E+03</pdfrwt>
<pdfrwt beam="2">  1       -1 0.24142886E-01 0.27382661E+03</pdfrwt>
<totfact> 0.65526999E+02</totfact>
</mgrwt>
</event>
<event>
 4    1  0.1852677E-008  0.5234625E+03  0.7818608E-02  0.1007830E+00
          1   -1    0    0  501    0  0.00000000000E+00  0.00000000000E+00  0.85397251234E+03  0.85397251236E+03  0.50400000000E-02 0. -1.
         -1   -1    0    0    0  501 -0.00000000000E+00 -0.00000000000E+00 -0.91545059510E+03  0.91545059512E+03  0.50400000000E-02 0.  1.
    8880022    1    1    2    0    0 -0.10434452345E+03  0.48962595454E+03  0.68226189731E+03  0.85993854691E+03  0.15294330000E+03 0.  0.
    8880022    1    1    2    0    0  0.10434452345E+03 -0.48962595454E+03 -0.74373998007E+03  0.90948456056E+03  0.15294330000E+03 0.  0.
<mgrwt>
<rscale>  0 0.52346252E+03</rscale>
<asrwt>0</asrwt>
<pdfrwt beam="1">  1        1 0.13138039E+00 0.52346252E+03</pdfrwt>
<pdfrwt beam="2">  1       -1 0.14083855E+00 0.52346252E+03</pdfrwt>
<totfact> 0.87918712E+00</totfact>
</mgrwt>
</event>
<event>
 4    1  0.1852677E-008  0.5017383E+03  0.7818608E-02  0.1013326E+00
         -1   -1    0    0    0  501 -0.00000000000E+00  0.00000000000E+00  0.53126119823E+03  0.53126119826E+03  0.50400000000E-02 0.  1.
          1   -1    0    0  501    0  0.00000000000E+00 -0.00000000000E+00 -0.64838578380E+03  0.64838578382E+03  0.50400000000E-02 0. -1.
    8880022    1    1    2    0    0 -0.41096338272E+03 -0.24384178227E+03  0.24745075913E+03  0.55944012006E+03  0.15294330000E+03 0.  0.
    8880022    1    1    2    0    0  0.41096338272E+03  0.24384178227E+03 -0.36457534470E+03  0.62020686202E+03  0.15294330000E+03 0.  0.
<mgrwt>
<rscale>  0 0.50173835E+03</rscale>
<asrwt>0</asrwt>
<pdfrwt beam="1">  1        1 0.99751659E-01 0.50173835E+03</pdfrwt>
<pdfrwt beam="2">  1       -1 0.81732492E-01 0.50173835E+03</pdfrwt>
<totfact> 0.47855446E+01</totfact>
</mgrwt>
</event>
<event>
 4    1  0.1852677E-008  0.5019797E+03  0.7818608E-02  0.1013263E+00
          1   -1    0    0  501    0  0.00000000000E+00  0.00000000000E+00  0.37397097854E+04  0.37397097854E+04  0.50400000000E-02 0. -1.
         -1   -1    0    0    0  501 -0.00000000000E+00 -0.00000000000E+00 -0.21061959546E+03  0.21061959552E+03  0.50400000000E-02 0.  1.
    8880022    1    1    2    0    0  0.42177242750E+03  0.22516648885E+03  0.33934085671E+04  0.34303360308E+04  0.15294330000E+03 0.  0.
    8880022    1    1    2    0    0 -0.42177242750E+03 -0.22516648885E+03  0.13568162281E+03  0.51999335004E+03  0.15294330000E+03 0.  1.
<mgrwt>
<rscale>  0 0.50197966E+03</rscale>
<asrwt>0</asrwt>
<pdfrwt beam="1">  1        1 0.57533996E+00 0.50197966E+03</pdfrwt>
<pdfrwt beam="2">  1       -1 0.32403015E-01 0.50197966E+03</pdfrwt>
<totfact> 0.16660987E+00</totfact>
</mgrwt>
</event>
<event>
 4    1  0.1852677E-008  0.4429527E+03  0.7818608E-02  0.1029845E+00
         -1   -1    0    0    0  501 -0.00000000000E+00  0.00000000000E+00  0.36212563562E+03  0.36212563565E+03  0.50400000000E-02 0.  1.
          1   -1    0    0  501    0  0.00000000000E+00 -0.00000000000E+00 -0.97384869289E+03  0.97384869290E+03  0.50400000000E-02 0. -1.
    8880022    1    1    2    0    0  0.41431532641E+03 -0.34033700601E+02  0.13905481529E+03  0.46426649367E+03  0.15294330000E+03 0.  0.
    8880022    1    1    2    0    0 -0.41431532641E+03  0.34033700601E+02 -0.75077787255E+03  0.87170783489E+03  0.15294330000E+03 0.  0.
<mgrwt>
<rscale>  0 0.44295275E+03</rscale>
<asrwt>0</asrwt>
<pdfrwt beam="1">  1        1 0.14982288E+00 0.44295275E+03</pdfrwt>
<pdfrwt beam="2">  1       -1 0.55711636E-01 0.44295275E+03</pdfrwt>
<totfact> 0.54967198E+01</totfact>
</mgrwt>
</event>
<event>
 4    1  0.1852677E-008  0.2867918E+03  0.7818608E-02  0.1092036E+00
          1   -1    0    0  501    0  0.00000000000E+00  0.00000000000E+00  0.47124731896E+03  0.47124731899E+03  0.50400000000E-02 0. -1.
         -1   -1    0    0    0  501 -0.00000000000E+00 -0.00000000000E+00 -0.32948986265E+03  0.32948986269E+03  0.50400000000E-02 0.  1.
    8880022    1    1    2    0    0 -0.24256738410E+03  0.43513566865E+01 -0.20368329626E+03  0.35176186310E+03  0.15294330000E+03 0.  0.
    8880022    1    1    2    0    0  0.24256738410E+03 -0.43513566865E+01  0.34544075258E+03  0.44897531858E+03  0.15294330000E+03 0.  0.
<mgrwt>
<rscale>  0 0.28679178E+03</rscale>
<asrwt>0</asrwt>
<pdfrwt beam="1">  1        1 0.72499587E-01 0.28679178E+03</pdfrwt>
<pdfrwt beam="2">  1       -1 0.50690748E-01 0.28679178E+03</pdfrwt>
<totfact> 0.19724865E+02</totfact>
</mgrwt>
</event>
<event>
 4    1  0.1852677E-008  0.5066593E+03  0.7818608E-02  0.1012055E+00
         -1   -1    0    0    0  501 -0.00000000000E+00  0.00000000000E+00  0.14991610412E+04  0.14991610412E+04  0.50400000000E-02 0.  1.
          1   -1    0    0  501    0  0.00000000000E+00 -0.00000000000E+00 -0.22819822046E+03  0.22819822051E+03  0.50400000000E-02 0. -1.
    8880022    1    1    2    0    0  0.37058863421E+03 -0.30980003208E+03  0.10670074626E+04  0.11811894742E+04  0.15294330000E+03 0.  0.
    8880022    1    1    2    0    0 -0.37058863421E+03  0.30980003208E+03  0.20395535814E+03  0.54616978753E+03  0.15294330000E+03 0.  0.
<mgrwt>
<rscale>  0 0.50665930E+03</rscale>
<asrwt>0</asrwt>
<pdfrwt beam="1">  1        1 0.35107418E-01 0.50665930E+03</pdfrwt>
<pdfrwt beam="2">  1       -1 0.23064016E+00 0.50665930E+03</pdfrwt>
<totfact> 0.12491746E+01</totfact>
</mgrwt>
</event>
<event>
 4    1  0.1852677E-008  0.1017627E+04  0.7818608E-02  0.9289420E-01
          1   -1    0    0  501    0  0.00000000000E+00  0.00000000000E+00  0.20753223583E+04  0.20753223583E+04  0.50400000000E-02 0. -1.
         -1   -1    0    0    0  501 -0.00000000000E+00 -0.00000000000E+00 -0.89670984532E+03  0.89670984533E+03  0.50400000000E-02 0.  1.
    8880022    1    1    2    0    0 -0.32943963057E+03  0.95060117414E+03 -0.40035434038E+03  0.10935484961E+04  0.15294330000E+03 0.  0.
    8880022    1    1    2    0    0  0.32943963057E+03 -0.95060117414E+03  0.15789668534E+04  0.18784837075E+04  0.15294330000E+03 0.  0.
<mgrwt>
<rscale>  0 0.10176270E+04</rscale>
<asrwt>0</asrwt>
<pdfrwt beam="1">  1        1 0.31928036E+00 0.10176270E+04</pdfrwt>
<pdfrwt beam="2">  1       -1 0.13795536E+00 0.10176270E+04</pdfrwt>
<totfact> 0.11643793E+00</totfact>
</mgrwt>
</event>
<event>
 4    1  0.1852677E-008  0.2098784E+03  0.7818608E-02  0.1141662E+00
         -1   -1    0    0    0  501 -0.00000000000E+00  0.00000000000E+00  0.11633701932E+03  0.11633701943E+03  0.50400000000E-02 0.  1.
          1   -1    0    0  501    0  0.00000000000E+00 -0.00000000000E+00 -0.77009818142E+03  0.77009818143E+03  0.50400000000E-02 0. -1.
    8880022    1    1    2    0    0  0.38615812318E+02  0.13844169218E+03 -0.64288342357E+03  0.67627511591E+03  0.15294330000E+03 0.  0.
    8880022    1    1    2    0    0 -0.38615812318E+02 -0.13844169218E+03 -0.10877738532E+02  0.21016008495E+03  0.15294330000E+03 0.  0.
<mgrwt>
<rscale>  0 0.20987838E+03</rscale>
<asrwt>0</asrwt>
<pdfrwt beam="1">  1        1 0.11847664E+00 0.20987838E+03</pdfrwt>
<pdfrwt beam="2">  1       -1 0.17898003E-01 0.20987838E+03</pdfrwt>
<totfact> 0.59550404E+02</totfact>
</mgrwt>
</event>
<event>
 4    1  0.1852677E-008  0.5059829E+03  0.7818608E-02  0.1012229E+00
         -1   -1    0    0    0  501 -0.00000000000E+00  0.00000000000E+00  0.23730350818E+03  0.23730350824E+03  0.50400000000E-02 0.  1.
          1   -1    0    0  501    0  0.00000000000E+00 -0.00000000000E+00 -0.15858862483E+04  0.15858862483E+04  0.50400000000E-02 0. -1.
    8880022    1    1    2    0    0 -0.30103817764E+03 -0.37683292451E+03 -0.11897318289E+04  0.12928574999E+04  0.15294330000E+03 0.  0.
    8880022    1    1    2    0    0  0.30103817764E+03  0.37683292451E+03 -0.15885091119E+03  0.53033225660E+03  0.15294330000E+03 0.  0.
<mgrwt>
<rscale>  0 0.50598290E+03</rscale>
<asrwt>0</asrwt>
<pdfrwt beam="1">  1        1 0.24398249E+00 0.50598290E+03</pdfrwt>
<pdfrwt beam="2">  1       -1 0.36508233E-01 0.50598290E+03</pdfrwt>
<totfact> 0.43741306E+01</totfact>
</mgrwt>
</event>
<event>
 4    1  0.2259218E-008  0.8582655E+03  0.7818608E-02  0.9479310E-01
          1   -1    0    0  501    0  0.00000000000E+00  0.00000000000E+00  0.23422170242E+04  0.23422170242E+04  0.50400000000E-02 0. -1.
         -1   -1    0    0    0  501 -0.00000000000E+00 -0.00000000000E+00 -0.12262858473E+04  0.12262858474E+04  0.50400000000E-02 0.  1.
    8880022    1    1    2    0    0 -0.29554642159E+03  0.79112597240E+03 -0.98056945977E+03  0.13031255158E+04  0.15294330000E+03 0.  0.
    8880022    1    1    2    0    0  0.29554642159E+03 -0.79112597240E+03  0.20965006366E+04  0.22653773557E+04  0.15294330000E+03 0.  0.
<mgrwt>
<rscale>  0 0.85826549E+03</rscale>
<asrwt>0</asrwt>
<pdfrwt beam="1">  1        1 0.36034108E+00 0.85826549E+03</pdfrwt>
<pdfrwt beam="2">  1       -1 0.18865936E+00 0.85826549E+03</pdfrwt>
<totfact> 0.32878800E-01</totfact>
</mgrwt>
</event>
<event>
 4    1  0.1852677E-008  0.4414960E+03  0.7818608E-02  0.1030289E+00
          1   -1    0    0  501    0  0.00000000000E+00  0.00000000000E+00  0.26747664113E+04  0.26747664113E+04  0.50400000000E-02 0. -1.
         -1   -1    0    0    0  501 -0.00000000000E+00 -0.00000000000E+00 -0.45011738130E+03  0.45011738133E+03  0.50400000000E-02 0.  1.
    8880022    1    1    2    0    0  0.37503022209E+03 -0.17572531033E+03  0.25427073071E+04  0.25807516646E+04  0.15294330000E+03 0.  0.
    8880022    1    1    2    0    0 -0.37503022209E+03  0.17572531033E+03 -0.31805827702E+03  0.54413212804E+03  0.15294330000E+03 0.  0.
<mgrwt>
<rscale>  0 0.44149599E+03</rscale>
<asrwt>0</asrwt>
<pdfrwt beam="1">  1        1 0.41150253E+00 0.44149599E+03</pdfrwt>
<pdfrwt beam="2">  1       -1 0.69248827E-01 0.44149599E+03</pdfrwt>
<totfact> 0.24972386E+00</totfact>
</mgrwt>
</event>
<event>
 4    1  0.1852677E-008  0.1102645E+04  0.7818608E-02  0.9202617E-01
          1   -1    0    0  501    0  0.00000000000E+00  0.00000000000E+00  0.15719829750E+04  0.15719829750E+04  0.50400000000E-02 0. -1.
         -1   -1    0    0    0  501 -0.00000000000E+00 -0.00000000000E+00 -0.14280629507E+04  0.14280629508E+04  0.50400000000E-02 0.  1.
    8880022    1    1    2    0    0 -0.10522448095E+04 -0.29191731505E+03  0.10875573024E+04  0.15487438126E+04  0.15294330000E+03 0.  0.
    8880022    1    1    2    0    0  0.10522448095E+04  0.29191731505E+03 -0.94363727815E+03  0.14513021132E+04  0.15294330000E+03 0.  0.
<mgrwt>
<rscale>  0 0.11026452E+04</rscale>
<asrwt>0</asrwt>
<pdfrwt beam="1">  1        1 0.24184354E+00 0.11026452E+04</pdfrwt>
<pdfrwt beam="2">  1       -1 0.21970199E+00 0.11026452E+04</pdfrwt>
<totfact> 0.64072352E-01</totfact>
</mgrwt>
</event>
<event>
 4    1  0.1852677E-008  0.9407821E+03  0.7818608E-02  0.9375990E-01
         -1   -1    0    0    0  501 -0.00000000000E+00  0.00000000000E+00  0.14628439782E+04  0.14628439782E+04  0.50400000000E-02 0.  1.
          1   -1    0    0  501    0  0.00000000000E+00 -0.00000000000E+00 -0.78837041815E+03  0.78837041817E+03  0.50400000000E-02 0. -1.
    8880022    1    1    2    0    0 -0.82892706578E+03 -0.41780292670E+03  0.88004388800E+03  0.12882345531E+04  0.15294330000E+03 0.  0.
    8880022    1    1    2    0    0  0.82892706578E+03  0.41780292670E+03 -0.20557032791E+03  0.96297984334E+03  0.15294330000E+03 0.  0.
<mgrwt>
<rscale>  0 0.94078213E+03</rscale>
<asrwt>0</asrwt>
<pdfrwt beam="1">  1        1 0.12128776E+00 0.94078213E+03</pdfrwt>
<pdfrwt beam="2">  1       -1 0.22505292E+00 0.94078213E+03</pdfrwt>
<totfact> 0.23357087E+00</totfact>
</mgrwt>
</event>
<event>
 4    1  0.1852677E-008  0.2957229E+03  0.7818608E-02  0.1087398E+00
          1   -1    0    0  501    0  0.00000000000E+00  0.00000000000E+00  0.14505609683E+03  0.14505609692E+03  0.50400000000E-02 0. -1.
         -1   -1    0    0    0  501 -0.00000000000E+00 -0.00000000000E+00 -0.11663399252E+04  0.11663399253E+04  0.50400000000E-02 0.  1.
    8880022    1    1    2    0    0  0.98626253221E+02 -0.23309488522E+03 -0.54897634151E+02  0.30077527590E+03  0.15294330000E+03 0.  0.
    8880022    1    1    2    0    0 -0.98626253221E+02  0.23309488522E+03 -0.96638619426E+03  0.10106207463E+04  0.15294330000E+03 0.  0.
<mgrwt>
<rscale>  0 0.29572287E+03</rscale>
<asrwt>0</asrwt>
<pdfrwt beam="1">  1        1 0.22316323E-01 0.29572287E+03</pdfrwt>
<pdfrwt beam="2">  1       -1 0.17943691E+00 0.29572287E+03</pdfrwt>
<totfact> 0.51206906E+01</totfact>
</mgrwt>
</event>
<event>
 4    1  0.1852677E-008  0.2905564E+03  0.7818608E-02  0.1090059E+00
         -1   -1    0    0    0  501 -0.00000000000E+00  0.00000000000E+00  0.33033003506E+03  0.33033003510E+03  0.50400000000E-02 0.  1.
          1   -1    0    0  501    0  0.00000000000E+00 -0.00000000000E+00 -0.71368055634E+03  0.71368055636E+03  0.50400000000E-02 0. -1.
    8880022    1    1    2    0    0 -0.13266909759E+03  0.20839927891E+03 -0.60989769924E+03  0.67557250200E+03  0.15294330000E+03 0. -1.
    8880022    1    1    2    0    0  0.13266909759E+03 -0.20839927891E+03  0.22654717796E+03  0.36843808946E+03  0.15294330000E+03 0.  0.
<mgrwt>
<rscale>  0 0.29055637E+03</rscale>
<asrwt>0</asrwt>
<pdfrwt beam="1">  1        1 0.10979701E+00 0.29055637E+03</pdfrwt>
<pdfrwt beam="2">  1       -1 0.50820005E-01 0.29055637E+03</pdfrwt>
<totfact> 0.11019422E+02</totfact>
</mgrwt>
</event>
<event>
 4    1  0.1852677E-008  0.2752228E+03  0.7818608E-02  0.1098327E+00
         -1   -1    0    0    0  501 -0.00000000000E+00  0.00000000000E+00  0.25894507124E+03  0.25894507129E+03  0.50400000000E-02 0.  1.
          1   -1    0    0  501    0  0.00000000000E+00 -0.00000000000E+00 -0.14413452497E+04  0.14413452497E+04  0.50400000000E-02 0. -1.
    8880022    1    1    2    0    0  0.93992573853E+02 -0.20861772949E+03  0.16778864777E+03  0.32233622870E+03  0.15294330000E+03 0.  0.
    8880022    1    1    2    0    0 -0.93992573853E+02  0.20861772949E+03 -0.13501888263E+04  0.13779540923E+04  0.15294330000E+03 0.  0.
<mgrwt>
<rscale>  0 0.27522284E+03</rscale>
<asrwt>0</asrwt>
<pdfrwt beam="1">  1        1 0.22174542E+00 0.27522284E+03</pdfrwt>
<pdfrwt beam="2">  1       -1 0.39837704E-01 0.27522284E+03</pdfrwt>
<totfact> 0.49322534E+01</totfact>
</mgrwt>
</event>
<event>
 4    1  0.1852677E-008  0.2297430E+03  0.7818608E-02  0.1126821E+00
         -1   -1    0    0    0  501 -0.00000000000E+00  0.00000000000E+00  0.21553977778E+03  0.21553977784E+03  0.50400000000E-02 0.  1.
          1   -1    0    0  501    0  0.00000000000E+00 -0.00000000000E+00 -0.46270802375E+03  0.46270802378E+03  0.50400000000E-02 0. -1.
    8880022    1    1    2    0    0  0.14749343602E+03  0.87383470489E+02  0.10909619400E+03  0.25433013416E+03  0.15294330000E+03 0.  0.
    8880022    1    1    2    0    0 -0.14749343602E+03 -0.87383470489E+02 -0.35626443997E+03  0.42391766746E+03  0.15294330000E+03 0.  0.
<mgrwt>
<rscale>  0 0.22974298E+03</rscale>
<asrwt>0</asrwt>
<pdfrwt beam="1">  1        1 0.71185850E-01 0.22974298E+03</pdfrwt>
<pdfrwt beam="2">  1       -1 0.33159966E-01 0.22974298E+03</pdfrwt>
<totfact> 0.43404279E+02</totfact>
</mgrwt>
</event>
<event>
 4    1  0.1852677E-008  0.2741751E+03  0.7818608E-02  0.1098914E+00
         -1   -1    0    0    0  501 -0.00000000000E+00  0.00000000000E+00  0.36876436360E+03  0.36876436364E+03  0.50400000000E-02 0.  1.
          1   -1    0    0  501    0  0.00000000000E+00 -0.00000000000E+00 -0.58832825437E+03  0.58832825439E+03  0.50400000000E-02 0. -1.
    8880022    1    1    2    0    0 -0.22518038034E+03  0.32773894089E+02 -0.49663940425E+03  0.56729417650E+03  0.15294330000E+03 0.  0.
    8880022    1    1    2    0    0  0.22518038034E+03 -0.32773894089E+02  0.27707551349E+03  0.38979844152E+03  0.15294330000E+03 0.  1.
<mgrwt>
<rscale>  0 0.27417510E+03</rscale>
<asrwt>0</asrwt>
<pdfrwt beam="1">  1        1 0.90512039E-01 0.27417510E+03</pdfrwt>
<pdfrwt beam="2">  1       -1 0.56732979E-01 0.27417510E+03</pdfrwt>
<totfact> 0.11840204E+02</totfact>
</mgrwt>
</event>
<event>
 4    1  0.1852677E-008  0.6870419E+03  0.7818608E-02  0.9739653E-01
         -1   -1    0    0    0  501 -0.00000000000E+00  0.00000000000E+00  0.26489719064E+03  0.26489719068E+03  0.50400000000E-02 0.  1.
          1   -1    0    0  501    0  0.00000000000E+00 -0.00000000000E+00 -0.21030318884E+04  0.21030318884E+04  0.50400000000E-02 0. -1.
    8880022    1    1    2    0    0 -0.18584791129E+03 -0.64350248310E+03 -0.13817056147E+04  0.15430933059E+04  0.15294330000E+03 0.  0.
    8880022    1    1    2    0    0  0.18584791129E+03  0.64350248310E+03 -0.45642908300E+03  0.82483577317E+03  0.15294330000E+03 0.  0.
<mgrwt>
<rscale>  0 0.68704188E+03</rscale>
<asrwt>0</asrwt>
<pdfrwt beam="1">  1        1 0.32354336E+00 0.68704188E+03</pdfrwt>
<pdfrwt beam="2">  1       -1 0.40753415E-01 0.68704188E+03</pdfrwt>
<totfact> 0.15740714E+01</totfact>
</mgrwt>
</event>
<event>
 4    1  0.1852677E-008  0.3781961E+03  0.7818608E-02  0.1051603E+00
          1   -1    0    0  501    0  0.00000000000E+00  0.00000000000E+00  0.55004988418E+03  0.55004988420E+03  0.50400000000E-02 0. -1.
         -1   -1    0    0    0  501 -0.00000000000E+00 -0.00000000000E+00 -0.11504749343E+04  0.11504749343E+04  0.50400000000E-02 0.  1.
    8880022    1    1    2    0    0  0.10867910895E+03 -0.32837399860E+03 -0.10482385107E+04  0.11143770726E+04  0.15294330000E+03 0.  0.
    8880022    1    1    2    0    0 -0.10867910895E+03  0.32837399860E+03  0.44781346050E+03  0.58614774596E+03  0.15294330000E+03 0. -1.
<mgrwt>
<rscale>  0 0.37819609E+03</rscale>
<asrwt>0</asrwt>
<pdfrwt beam="1">  1        1 0.84623059E-01 0.37819609E+03</pdfrwt>
<pdfrwt beam="2">  1       -1 0.17699614E+00 0.37819609E+03</pdfrwt>
<totfact> 0.93637954E+00</totfact>
</mgrwt>
</event>
<event>
 4    1  0.1852677E-008  0.1530978E+03  0.7818608E-02  0.1196717E+00
         -1   -1    0    0    0  501 -0.00000000000E+00  0.00000000000E+00  0.11873863781E+03  0.11873863791E+03  0.50400000000E-02 0.  1.
          1   -1    0    0  501    0  0.00000000000E+00 -0.00000000000E+00 -0.36113563447E+03  0.36113563450E+03  0.50400000000E-02 0. -1.
    8880022    1    1    2    0    0 -0.68169147929E+01  0.89428714427E+00 -0.28275886908E+03  0.32154548844E+03  0.15294330000E+03 0. -1.
    8880022    1    1    2    0    0  0.68169147929E+01 -0.89428714427E+00  0.40361872414E+02  0.15832878398E+03  0.15294330000E+03 0.  0.
<mgrwt>
<rscale>  0 0.15309776E+03</rscale>
<asrwt>0</asrwt>
<pdfrwt beam="1">  1        1 0.55559328E-01 0.15309776E+03</pdfrwt>
<pdfrwt beam="2">  1       -1 0.18267483E-01 0.15309776E+03</pdfrwt>
<totfact> 0.15960917E+03</totfact>
</mgrwt>
</event>
<event>
 4    1  0.1852677E-008  0.4276954E+03  0.7818608E-02  0.1034590E+00
          1   -1    0    0  501    0  0.00000000000E+00  0.00000000000E+00  0.73993392659E+03  0.73993392660E+03  0.50400000000E-02 0. -1.
         -1   -1    0    0    0  501 -0.00000000000E+00 -0.00000000000E+00 -0.37855474956E+03  0.37855474959E+03  0.50400000000E-02 0.  1.
    8880022    1    1    2    0    0  0.39360572033E+03  0.67869024663E+02  0.51009755508E+03  0.66567472260E+03  0.15294330000E+03 0.  0.
    8880022    1    1    2    0    0 -0.39360572033E+03 -0.67869024663E+02 -0.14871837806E+03  0.45281395360E+03  0.15294330000E+03 0.  1.
<mgrwt>
<rscale>  0 0.42769536E+03</rscale>
<asrwt>0</asrwt>
<pdfrwt beam="1">  1        1 0.11383599E+00 0.42769536E+03</pdfrwt>
<pdfrwt beam="2">  1       -1 0.58239193E-01 0.42769536E+03</pdfrwt>
<totfact> 0.78852744E+01</totfact>
</mgrwt>
</event>
<event>
 4    1  0.1852677E-008  0.6473397E+03  0.7818608E-02  0.9811784E-01
          1   -1    0    0  501    0  0.00000000000E+00  0.00000000000E+00  0.13490191073E+04  0.13490191073E+04  0.50400000000E-02 0. -1.
         -1   -1    0    0    0  501 -0.00000000000E+00 -0.00000000000E+00 -0.44292843867E+03  0.44292843870E+03  0.50400000000E-02 0.  1.
    8880022    1    1    2    0    0  0.60068357903E+03 -0.18664476828E+03 -0.36623395076E+02  0.64837485896E+03  0.15294330000E+03 0.  0.
    8880022    1    1    2    0    0 -0.60068357903E+03  0.18664476828E+03  0.94271406369E+03  0.11435726870E+04  0.15294330000E+03 0.  0.
<mgrwt>
<rscale>  0 0.64733970E+03</rscale>
<asrwt>0</asrwt>
<pdfrwt beam="1">  1        1 0.20754140E+00 0.64733970E+03</pdfrwt>
<pdfrwt beam="2">  1       -1 0.68142837E-01 0.64733970E+03</pdfrwt>
<totfact> 0.19074419E+01</totfact>
</mgrwt>
</event>
<event>
 4    1  0.1852677E-008  0.6444072E+03  0.7818608E-02  0.9817331E-01
          1   -1    0    0  501    0  0.00000000000E+00  0.00000000000E+00  0.22605014821E+04  0.22605014821E+04  0.50400000000E-02 0. -1.
         -1   -1    0    0    0  501 -0.00000000000E+00 -0.00000000000E+00 -0.25211175554E+03  0.25211175559E+03  0.50400000000E-02 0.  1.
    8880022    1    1    2    0    0  0.62499220726E+03 -0.35407643592E+02  0.16586130384E+04  0.17793981636E+04  0.15294330000E+03 0.  0.
    8880022    1    1    2    0    0 -0.62499220726E+03  0.35407643592E+02  0.34977668820E+03  0.73321507416E+03  0.15294330000E+03 0.  0.
<mgrwt>
<rscale>  0 0.64440718E+03</rscale>
<asrwt>0</asrwt>
<pdfrwt beam="1">  1        1 0.34776947E+00 0.64440718E+03</pdfrwt>
<pdfrwt beam="2">  1       -1 0.38786423E-01 0.64440718E+03</pdfrwt>
<totfact> 0.13608223E+01</totfact>
</mgrwt>
</event>
<event>
 4    1  0.1852677E-008  0.5430957E+03  0.7818608E-02  0.1003105E+00
         -1   -1    0    0    0  501 -0.00000000000E+00  0.00000000000E+00  0.32973917702E+03  0.32973917705E+03  0.50400000000E-02 0.  1.
          1   -1    0    0  501    0  0.00000000000E+00 -0.00000000000E+00 -0.17381332606E+04  0.17381332606E+04  0.50400000000E-02 0. -1.
    8880022    1    1    2    0    0  0.52521480648E+02 -0.51846189361E+03  0.16127354258E+02  0.54333505834E+03  0.15294330000E+03 0.  0.
    8880022    1    1    2    0    0 -0.52521480648E+02  0.51846189361E+03 -0.14245214378E+04  0.15245373793E+04  0.15294330000E+03 0. -1.
<mgrwt>
<rscale>  0 0.54309566E+03</rscale>
<asrwt>0</asrwt>
<pdfrwt beam="1">  1        1 0.26740511E+00 0.54309566E+03</pdfrwt>
<pdfrwt beam="2">  1       -1 0.50729105E-01 0.54309566E+03</pdfrwt>
<totfact> 0.18822056E+01</totfact>
</mgrwt>
</event>
<event>
 4    1  0.1852677E-008  0.3751588E+03  0.7818608E-02  0.1052738E+00
         -1   -1    0    0    0  501 -0.00000000000E+00  0.00000000000E+00  0.97776005337E+03  0.97776005338E+03  0.50400000000E-02 0.  1.
          1   -1    0    0  501    0  0.00000000000E+00 -0.00000000000E+00 -0.99218875551E+03  0.99218875552E+03  0.50400000000E-02 0. -1.
    8880022    1    1    2    0    0 -0.30855150383E+03  0.14882363444E+03  0.90351220989E+03  0.97830387463E+03  0.15294330000E+03 0.  0.
    8880022    1    1    2    0    0  0.30855150383E+03 -0.14882363444E+03 -0.91794091202E+03  0.99164493427E+03  0.15294330000E+03 0.  0.
<mgrwt>
<rscale>  0 0.37515884E+03</rscale>
<asrwt>0</asrwt>
<pdfrwt beam="1">  1        1 0.15264442E+00 0.37515884E+03</pdfrwt>
<pdfrwt beam="2">  1       -1 0.15042462E+00 0.37515884E+03</pdfrwt>
<totfact> 0.59688815E+00</totfact>
</mgrwt>
</event>
<event>
 4    1  0.1852677E-008  0.1062885E+04  0.7818608E-02  0.9242141E-01
          1   -1    0    0  501    0  0.00000000000E+00  0.00000000000E+00  0.98419510285E+03  0.98419510286E+03  0.50400000000E-02 0. -1.
         -1   -1    0    0    0  501 -0.00000000000E+00 -0.00000000000E+00 -0.13674528333E+04  0.13674528333E+04  0.50400000000E-02 0.  1.
    8880022    1    1    2    0    0  0.73482921060E+03 -0.75256809296E+03  0.27955348839E+03  0.10990334432E+04  0.15294330000E+03 0.  0.
    8880022    1    1    2    0    0 -0.73482921060E+03  0.75256809296E+03 -0.66281121887E+03  0.12526144930E+04  0.15294330000E+03 0.  0.
<mgrwt>
<rscale>  0 0.10628849E+04</rscale>
<asrwt>0</asrwt>
<pdfrwt beam="1">  1        1 0.15141463E+00 0.10628849E+04</pdfrwt>
<pdfrwt beam="2">  1       -1 0.21037736E+00 0.10628849E+04</pdfrwt>
<totfact> 0.19835852E+00</totfact>
</mgrwt>
</event>
<event>
 4    1  0.1852677E-008  0.2736100E+03  0.7818608E-02  0.1099231E+00
          1   -1    0    0  501    0  0.00000000000E+00  0.00000000000E+00  0.95727533383E+02  0.95727533516E+02  0.50400000000E-02 0. -1.
         -1   -1    0    0    0  501 -0.00000000000E+00 -0.00000000000E+00 -0.10903738462E+04  0.10903738462E+04  0.50400000000E-02 0.  1.
    8880022    1    1    2    0    0  0.21515192964E+03  0.71975196103E+02 -0.81269077441E+03  0.85751310748E+03  0.15294330000E+03 0.  0.
    8880022    1    1    2    0    0 -0.21515192964E+03 -0.71975196103E+02 -0.18195553840E+03  0.32858827223E+03  0.15294330000E+03 0.  0.
<mgrwt>
<rscale>  0 0.27361000E+03</rscale>
<asrwt>0</asrwt>
<pdfrwt beam="1">  1        1 0.14727314E-01 0.27361000E+03</pdfrwt>
<pdfrwt beam="2">  1       -1 0.16774981E+00 0.27361000E+03</pdfrwt>
<totfact> 0.10700055E+02</totfact>
</mgrwt>
</event>
<event>
 4    1  0.1852677E-008  0.8103316E+03  0.7818608E-02  0.9545182E-01
          1   -1    0    0  501    0  0.00000000000E+00  0.00000000000E+00  0.29996265594E+04  0.29996265594E+04  0.50400000000E-02 0. -1.
         -1   -1    0    0    0  501 -0.00000000000E+00 -0.00000000000E+00 -0.34626885422E+03  0.34626885426E+03  0.50400000000E-02 0.  1.
    8880022    1    1    2    0    0  0.78506469229E+03 -0.13007323529E+03  0.23412826031E+04  0.24775474765E+04  0.15294330000E+03 0.  0.
    8880022    1    1    2    0    0 -0.78506469229E+03  0.13007323529E+03  0.31207510204E+03  0.86834793715E+03  0.15294330000E+03 0.  0.
<mgrwt>
<rscale>  0 0.81033158E+03</rscale>
<asrwt>0</asrwt>
<pdfrwt beam="1">  1        1 0.46148100E+00 0.81033158E+03</pdfrwt>
<pdfrwt beam="2">  1       -1 0.53272132E-01 0.81033158E+03</pdfrwt>
<totfact> 0.22559423E+00</totfact>
</mgrwt>
</event>
<event>
 4    1  0.1852677E-008  0.7269879E+03  0.7818608E-02  0.9672161E-01
          1   -1    0    0  501    0  0.00000000000E+00  0.00000000000E+00  0.15391764472E+04  0.15391764472E+04  0.50400000000E-02 0. -1.
         -1   -1    0    0    0  501 -0.00000000000E+00 -0.00000000000E+00 -0.42697014634E+03  0.42697014637E+03  0.50400000000E-02 0.  1.
    8880022    1    1    2    0    0 -0.41750831095E+03 -0.57515791811E+03  0.12110927531E+03  0.73700673678E+03  0.15294330000E+03 0.  0.
    8880022    1    1    2    0    0  0.41750831095E+03  0.57515791811E+03  0.99109702551E+03  0.12291398568E+04  0.15294330000E+03 0.  0.
<mgrwt>
<rscale>  0 0.72698795E+03</rscale>
<asrwt>0</asrwt>
<pdfrwt beam="1">  1        1 0.23679637E+00 0.72698795E+03</pdfrwt>
<pdfrwt beam="2">  1       -1 0.65687716E-01 0.72698795E+03</pdfrwt>
<totfact> 0.15016718E+01</totfact>
</mgrwt>
</event>
<event>
 4    1  0.1852677E-008  0.5099081E+03  0.7818608E-02  0.1011225E+00
          1   -1    0    0  501    0  0.00000000000E+00  0.00000000000E+00  0.11116489125E+04  0.11116489126E+04  0.50400000000E-02 0. -1.
         -1   -1    0    0    0  501 -0.00000000000E+00 -0.00000000000E+00 -0.92986950698E+03  0.92986950700E+03  0.50400000000E-02 0.  1.
    8880022    1    1    2    0    0  0.36803314601E+03 -0.31806634313E+03  0.97398948288E+03  0.10993915413E+04  0.15294330000E+03 0.  0.
    8880022    1    1    2    0    0 -0.36803314601E+03  0.31806634313E+03 -0.79221007732E+03  0.94212687830E+03  0.15294330000E+03 0.  0.
<mgrwt>
<rscale>  0 0.50990808E+03</rscale>
<asrwt>0</asrwt>
<pdfrwt beam="1">  1        1 0.17102291E+00 0.50990808E+03</pdfrwt>
<pdfrwt beam="2">  1       -1 0.14305685E+00 0.50990808E+03</pdfrwt>
<totfact> 0.53449599E+00</totfact>
</mgrwt>
</event>
<event>
 4    1  0.1852677E-008  0.2493773E+03  0.7818608E-02  0.1113699E+00
          1   -1    0    0  501    0  0.00000000000E+00  0.00000000000E+00  0.22117975664E+04  0.22117975664E+04  0.50400000000E-02 0. -1.
         -1   -1    0    0    0  501 -0.00000000000E+00 -0.00000000000E+00 -0.16594023626E+03  0.16594023634E+03  0.50400000000E-02 0.  1.
    8880022    1    1    2    0    0 -0.19410132473E+03 -0.33496809494E+02  0.21064049422E+04  0.21211154598E+04  0.15294330000E+03 0.  0.
    8880022    1    1    2    0    0  0.19410132473E+03  0.33496809494E+02 -0.60547612085E+02  0.25662234286E+03  0.15294330000E+03 0.  0.
<mgrwt>
<rscale>  0 0.24937725E+03</rscale>
<asrwt>0</asrwt>
<pdfrwt beam="1">  1        1 0.34027653E+00 0.24937725E+03</pdfrwt>
<pdfrwt beam="2">  1       -1 0.25529269E-01 0.24937725E+03</pdfrwt>
<totfact> 0.33621985E+01</totfact>
</mgrwt>
</event>
<event>
 4    1  0.1852677E-008  0.1187246E+04  0.7818608E-02  0.9124094E-01
         -1   -1    0    0    0  501 -0.00000000000E+00  0.00000000000E+00  0.44932069294E+03  0.44932069297E+03  0.50400000000E-02 0.  1.
          1   -1    0    0  501    0  0.00000000000E+00 -0.00000000000E+00 -0.35194291653E+04  0.35194291653E+04  0.50400000000E-02 0. -1.
    8880022    1    1    2    0    0  0.39857385984E+03  0.11078358230E+04 -0.88099032729E+03  0.14784102753E+04  0.15294330000E+03 0.  0.
    8880022    1    1    2    0    0 -0.39857385984E+03 -0.11078358230E+04 -0.21891181451E+04  0.24903395830E+04  0.15294330000E+03 0.  0.
<mgrwt>
<rscale>  0 0.11872460E+04</rscale>
<asrwt>0</asrwt>
<pdfrwt beam="1">  1        1 0.54145062E+00 0.11872460E+04</pdfrwt>
<pdfrwt beam="2">  1       -1 0.69126263E-01 0.11872460E+04</pdfrwt>
<totfact> 0.51548026E-01</totfact>
</mgrwt>
</event>
<event>
 4    1  0.1852677E-008  0.3194806E+03  0.7818608E-02  0.1075889E+00
          1   -1    0    0  501    0  0.00000000000E+00  0.00000000000E+00  0.59687992695E+03  0.59687992697E+03  0.50400000000E-02 0. -1.
         -1   -1    0    0    0  501 -0.00000000000E+00 -0.00000000000E+00 -0.69547336378E+03  0.69547336380E+03  0.50400000000E-02 0.  1.
    8880022    1    1    2    0    0 -0.25304381944E+03 -0.12101661095E+03  0.51184397908E+03  0.60336730655E+03  0.15294330000E+03 0.  0.
    8880022    1    1    2    0    0  0.25304381944E+03  0.12101661095E+03 -0.61043741591E+03  0.68898598421E+03  0.15294330000E+03 0.  0.
<mgrwt>
<rscale>  0 0.31948059E+03</rscale>
<asrwt>0</asrwt>
<pdfrwt beam="1">  1        1 0.91827681E-01 0.31948059E+03</pdfrwt>
<pdfrwt beam="2">  1       -1 0.10699590E+00 0.31948059E+03</pdfrwt>
<totfact> 0.30736073E+01</totfact>
</mgrwt>
</event>
<event>
 4    1  0.1852677E-008  0.2209150E+03  0.7818608E-02  0.1133203E+00
         -1   -1    0    0    0  501 -0.00000000000E+00  0.00000000000E+00  0.83503991447E+03  0.83503991448E+03  0.50400000000E-02 0.  1.
          1   -1    0    0  501    0  0.00000000000E+00 -0.00000000000E+00 -0.88004422519E+03  0.88004422520E+03  0.50400000000E-02 0. -1.
    8880022    1    1    2    0    0 -0.10021934234E+03 -0.12396716459E+03 -0.85108006187E+03  0.87928419707E+03  0.15294330000E+03 0.  0.
    8880022    1    1    2    0    0  0.10021934234E+03  0.12396716459E+03  0.80607575115E+03  0.83579994262E+03  0.15294330000E+03 0.  0.
<mgrwt>
<rscale>  0 0.22091498E+03</rscale>
<asrwt>0</asrwt>
<pdfrwt beam="1">  1        1 0.13539142E+00 0.22091498E+03</pdfrwt>
<pdfrwt beam="2">  1       -1 0.12846768E+00 0.22091498E+03</pdfrwt>
<totfact> 0.11566459E+01</totfact>
</mgrwt>
</event>
<event>
 4    1  0.1852677E-008  0.4269032E+03  0.7818608E-02  0.1034843E+00
          1   -1    0    0  501    0  0.00000000000E+00  0.00000000000E+00  0.45281698595E+03  0.45281698598E+03  0.50400000000E-02 0. -1.
         -1   -1    0    0    0  501 -0.00000000000E+00 -0.00000000000E+00 -0.47153760415E+03  0.47153760418E+03  0.50400000000E-02 0.  1.
    8880022    1    1    2    0    0 -0.13715376576E+03  0.37422392062E+03  0.16752021077E+03  0.45859499807E+03  0.15294330000E+03 0.  0.
    8880022    1    1    2    0    0  0.13715376576E+03 -0.37422392062E+03 -0.18624082897E+03  0.46575959208E+03  0.15294330000E+03 0.  0.
<mgrwt>
<rscale>  0 0.42690321E+03</rscale>
<asrwt>0</asrwt>
<pdfrwt beam="1">  1        1 0.69664152E-01 0.42690321E+03</pdfrwt>
<pdfrwt beam="2">  1       -1 0.72544247E-01 0.42690321E+03</pdfrwt>
<totfact> 0.10177653E+02</totfact>
</mgrwt>
</event>
<event>
 4    1  0.1852677E-008  0.7028036E+03  0.7818608E-02  0.9712450E-01
          1   -1    0    0  501    0  0.00000000000E+00  0.00000000000E+00  0.11463215334E+04  0.11463215334E+04  0.50400000000E-02 0. -1.
         -1   -1    0    0    0  501 -0.00000000000E+00 -0.00000000000E+00 -0.60594497612E+03  0.60594497614E+03  0.50400000000E-02 0.  1.
    8880022    1    1    2    0    0 -0.46545538142E+03  0.50387745859E+03 -0.20073145505E+03  0.73090763810E+03  0.15294330000E+03 0.  0.
    8880022    1    1    2    0    0  0.46545538142E+03 -0.50387745859E+03  0.74110801234E+03  0.10213588715E+04  0.15294330000E+03 0.  0.
<mgrwt>
<rscale>  0 0.70280357E+03</rscale>
<asrwt>0</asrwt>
<pdfrwt beam="1">  1        1 0.17635715E+00 0.70280357E+03</pdfrwt>
<pdfrwt beam="2">  1       -1 0.93222306E-01 0.70280357E+03</pdfrwt>
<totfact> 0.13590525E+01</totfact>
</mgrwt>
</event>
<event>
 4    1  0.1852677E-008  0.4015456E+03  0.7818608E-02  0.1043246E+00
         -1   -1    0    0    0  501 -0.00000000000E+00  0.00000000000E+00  0.58386819236E+03  0.58386819238E+03  0.50400000000E-02 0.  1.
          1   -1    0    0  501    0  0.00000000000E+00 -0.00000000000E+00 -0.66192012003E+03  0.66192012005E+03  0.50400000000E-02 0. -1.
    8880022    1    1    2    0    0  0.37125866447E+03 -0.37676984011E+01  0.43649782281E+03  0.59310133521E+03  0.15294330000E+03 0.  0.
    8880022    1    1    2    0    0 -0.37125866447E+03  0.37676984011E+01 -0.51454975048E+03  0.65268697722E+03  0.15294330000E+03 0.  0.
<mgrwt>
<rscale>  0 0.40154557E+03</rscale>
<asrwt>0</asrwt>
<pdfrwt beam="1">  1        1 0.10183386E+00 0.40154557E+03</pdfrwt>
<pdfrwt beam="2">  1       -1 0.89825876E-01 0.40154557E+03</pdfrwt>
<totfact> 0.38522305E+01</totfact>
</mgrwt>
</event>
<event>
 4    1  0.1852677E-008  0.3148227E+03  0.7818608E-02  0.1078057E+00
          1   -1    0    0  501    0  0.00000000000E+00  0.00000000000E+00  0.32368086648E+04  0.32368086648E+04  0.50400000000E-02 0. -1.
         -1   -1    0    0    0  501 -0.00000000000E+00 -0.00000000000E+00 -0.41382395364E+03  0.41382395367E+03  0.50400000000E-02 0.  1.
    8880022    1    1    2    0    0  0.25597725987E+03  0.10098165284E+03  0.31679792865E+04  0.31835838397E+04  0.15294330000E+03 0. -1.
    8880022    1    1    2    0    0 -0.25597725987E+03 -0.10098165284E+03 -0.34499457530E+03  0.46704877880E+03  0.15294330000E+03 0.  0.
<mgrwt>
<rscale>  0 0.31482266E+03</rscale>
<asrwt>0</asrwt>
<pdfrwt beam="1">  1        1 0.49797057E+00 0.31482266E+03</pdfrwt>
<pdfrwt beam="2">  1       -1 0.63665223E-01 0.31482266E+03</pdfrwt>
<totfact> 0.12585673E+00</totfact>
</mgrwt>
</event>
<event>
 4    1  0.1852677E-008  0.3245418E+03  0.7818608E-02  0.1073578E+00
         -1   -1    0    0    0  501 -0.00000000000E+00  0.00000000000E+00  0.47514771595E+03  0.47514771598E+03  0.50400000000E-02 0.  1.
          1   -1    0    0  501    0  0.00000000000E+00 -0.00000000000E+00 -0.94988511718E+03  0.94988511720E+03  0.50400000000E-02 0. -1.
    8880022    1    1    2    0    0 -0.28515870973E+03  0.24904499530E+02  0.38649298012E+03  0.50468227681E+03  0.15294330000E+03 0.  0.
    8880022    1    1    2    0    0  0.28515870973E+03 -0.24904499530E+02 -0.86123038135E+03  0.92035055637E+03  0.15294330000E+03 0.  0.
<mgrwt>
<rscale>  0 0.32454180E+03</rscale>
<asrwt>0</asrwt>
<pdfrwt beam="1">  1        1 0.14613617E+00 0.32454180E+03</pdfrwt>
<pdfrwt beam="2">  1       -1 0.73099649E-01 0.32454180E+03</pdfrwt>
<totfact> 0.34369451E+01</totfact>
</mgrwt>
</event>
<event>
 4    1  0.1852677E-008  0.4378818E+03  0.7818608E-02  0.1031399E+00
         -1   -1    0    0    0  501 -0.00000000000E+00  0.00000000000E+00  0.37218398112E+03  0.37218398116E+03  0.50400000000E-02 0.  1.
          1   -1    0    0  501    0  0.00000000000E+00 -0.00000000000E+00 -0.20448804339E+04  0.20448804339E+04  0.50400000000E-02 0. -1.
    8880022    1    1    2    0    0  0.28441143251E+03 -0.29573454705E+03  0.20892051213E+03  0.48516823749E+03  0.15294330000E+03 0.  0.
    8880022    1    1    2    0    0 -0.28441143251E+03  0.29573454705E+03 -0.18816169649E+04  0.19318961775E+04  0.15294330000E+03 0. -1.
<mgrwt>
<rscale>  0 0.43788176E+03</rscale>
<asrwt>0</asrwt>
<pdfrwt beam="1">  1        1 0.31459698E+00 0.43788176E+03</pdfrwt>
<pdfrwt beam="2">  1       -1 0.57259075E-01 0.43788176E+03</pdfrwt>
<totfact> 0.95988031E+00</totfact>
</mgrwt>
</event>
<event>
 4    1  0.1852677E-008  0.7256035E+03  0.7818608E-02  0.9674422E-01
          1   -1    0    0  501    0  0.00000000000E+00  0.00000000000E+00  0.10935979988E+04  0.10935979988E+04  0.50400000000E-02 0. -1.
         -1   -1    0    0    0  501 -0.00000000000E+00 -0.00000000000E+00 -0.99302208993E+03  0.99302208995E+03  0.50400000000E-02 0.  1.
    8880022    1    1    2    0    0 -0.69098790830E+03 -0.16013898866E+03  0.79913330250E+03  0.10794046847E+04  0.15294330000E+03 0.  0.
    8880022    1    1    2    0    0  0.69098790830E+03  0.16013898866E+03 -0.69855739361E+03  0.10072154041E+04  0.15294330000E+03 0.  0.
<mgrwt>
<rscale>  0 0.72560350E+03</rscale>
<asrwt>0</asrwt>
<pdfrwt beam="1">  1        1 0.16824585E+00 0.72560350E+03</pdfrwt>
<pdfrwt beam="2">  1       -1 0.15277263E+00 0.72560350E+03</pdfrwt>
<totfact> 0.44360204E+00</totfact>
</mgrwt>
</event>
<event>
 4    1  0.1852677E-008  0.6454543E+03  0.7818608E-02  0.9815347E-01
         -1   -1    0    0    0  501 -0.00000000000E+00  0.00000000000E+00  0.46387247035E+03  0.46387247038E+03  0.50400000000E-02 0.  1.
          1   -1    0    0  501    0  0.00000000000E+00 -0.00000000000E+00 -0.19737671411E+04  0.19737671411E+04  0.50400000000E-02 0. -1.
    8880022    1    1    2    0    0  0.62496335966E+03  0.51384288454E+02 -0.16547086263E+04  0.17761395882E+04  0.15294330000E+03 0.  0.
    8880022    1    1    2    0    0 -0.62496335966E+03 -0.51384288454E+02  0.14481395553E+03  0.66150002324E+03  0.15294330000E+03 0.  1.
<mgrwt>
<rscale>  0 0.64545426E+03</rscale>
<asrwt>0</asrwt>
<pdfrwt beam="1">  1        1 0.30365648E+00 0.64545426E+03</pdfrwt>
<pdfrwt beam="2">  1       -1 0.71364996E-01 0.64545426E+03</pdfrwt>
<totfact> 0.65754488E+00</totfact>
</mgrwt>
</event>
<event>
 4    1  0.1852677E-008  0.1036378E+04  0.7818608E-02  0.9269522E-01
          1   -1    0    0  501    0  0.00000000000E+00  0.00000000000E+00  0.22808333632E+04  0.22808333632E+04  0.50400000000E-02 0. -1.
         -1   -1    0    0    0  501 -0.00000000000E+00 -0.00000000000E+00 -0.60728867136E+03  0.60728867138E+03  0.50400000000E-02 0.  1.
    8880022    1    1    2    0    0 -0.30719802475E+03  0.97791450783E+03  0.15210824096E+04  0.18405897862E+04  0.15294330000E+03 0.  0.
    8880022    1    1    2    0    0  0.30719802475E+03 -0.97791450783E+03  0.15246228225E+03  0.10475322485E+04  0.15294330000E+03 0.  0.
<mgrwt>
<rscale>  0 0.10363779E+04</rscale>
<asrwt>0</asrwt>
<pdfrwt beam="1">  1        1 0.35089744E+00 0.10363779E+04</pdfrwt>
<pdfrwt beam="2">  1       -1 0.93429027E-01 0.10363779E+04</pdfrwt>
<totfact> 0.21533893E+00</totfact>
</mgrwt>
</event>
<event>
 4    1  0.1852677E-008  0.9024481E+03  0.7818608E-02  0.9422526E-01
          1   -1    0    0  501    0  0.00000000000E+00  0.00000000000E+00  0.81462161981E+03  0.81462161982E+03  0.50400000000E-02 0. -1.
         -1   -1    0    0    0  501 -0.00000000000E+00 -0.00000000000E+00 -0.10592488937E+04  0.10592488937E+04  0.50400000000E-02 0.  1.
    8880022    1    1    2    0    0  0.58697993864E+03 -0.66818816554E+03  0.99756101512E+02  0.90794482527E+03  0.15294330000E+03 0.  0.
    8880022    1    1    2    0    0 -0.58697993864E+03  0.66818816554E+03 -0.34438337537E+03  0.96592568823E+03  0.15294330000E+03 0.  0.
<mgrwt>
<rscale>  0 0.90244807E+03</rscale>
<asrwt>0</asrwt>
<pdfrwt beam="1">  1        1 0.12532640E+00 0.90244807E+03</pdfrwt>
<pdfrwt beam="2">  1       -1 0.16296137E+00 0.90244807E+03</pdfrwt>
<totfact> 0.60419847E+00</totfact>
</mgrwt>
</event>
<event>
 4    1  0.1852677E-008  0.4269368E+03  0.7818608E-02  0.1034832E+00
         -1   -1    0    0    0  501 -0.00000000000E+00  0.00000000000E+00  0.42525712781E+03  0.42525712784E+03  0.50400000000E-02 0.  1.
          1   -1    0    0  501    0  0.00000000000E+00 -0.00000000000E+00 -0.16858016595E+04  0.16858016595E+04  0.50400000000E-02 0. -1.
    8880022    1    1    2    0    0  0.14604359459E+03 -0.37088359692E+03 -0.15417909532E+04  0.15998107295E+04  0.15294330000E+03 0.  0.
    8880022    1    1    2    0    0 -0.14604359459E+03  0.37088359692E+03  0.28124642151E+03  0.51124805780E+03  0.15294330000E+03 0.  0.
<mgrwt>
<rscale>  0 0.42693680E+03</rscale>
<asrwt>0</asrwt>
<pdfrwt beam="1">  1        1 0.25935410E+00 0.42693680E+03</pdfrwt>
<pdfrwt beam="2">  1       -1 0.65424174E-01 0.42693680E+03</pdfrwt>
<totfact> 0.12792825E+01</totfact>
</mgrwt>
</event>
<event>
 4    1  0.1852677E-008  0.6292029E+03  0.7818608E-02  0.9846606E-01
          1   -1    0    0  501    0  0.00000000000E+00  0.00000000000E+00  0.29463225422E+04  0.29463225422E+04  0.50400000000E-02 0. -1.
         -1   -1    0    0    0  501 -0.00000000000E+00 -0.00000000000E+00 -0.24032198501E+03  0.24032198506E+03  0.50400000000E-02 0.  1.
    8880022    1    1    2    0    0  0.55918128068E+03 -0.24458309589E+03  0.29505745877E+03  0.69494974815E+03  0.15294330000E+03 0.  0.
    8880022    1    1    2    0    0 -0.55918128068E+03  0.24458309589E+03  0.24109430984E+04  0.24916947791E+04  0.15294330000E+03 0.  0.
<mgrwt>
<rscale>  0 0.62920287E+03</rscale>
<asrwt>0</asrwt>
<pdfrwt beam="1">  1        1 0.45328037E+00 0.62920287E+03</pdfrwt>
<pdfrwt beam="2">  1       -1 0.36972615E-01 0.62920287E+03</pdfrwt>
<totfact> 0.50265957E+00</totfact>
</mgrwt>
</event>
<event>
 4    1  0.1852677E-008  0.2696632E+03  0.7818608E-02  0.1101473E+00
          1   -1    0    0  501    0  0.00000000000E+00  0.00000000000E+00  0.14659144277E+04  0.14659144277E+04  0.50400000000E-02 0. -1.
         -1   -1    0    0    0  501 -0.00000000000E+00 -0.00000000000E+00 -0.11134287029E+04  0.11134287029E+04  0.50400000000E-02 0.  1.
    8880022    1    1    2    0    0  0.20671163217E+03  0.81221221931E+02 -0.10843723196E+04  0.11173994659E+04  0.15294330000E+03 0.  0.
    8880022    1    1    2    0    0 -0.20671163217E+03 -0.81221221931E+02  0.14368580445E+04  0.14619436647E+04  0.15294330000E+03 0.  0.
<mgrwt>
<rscale>  0 0.26966320E+03</rscale>
<asrwt>0</asrwt>
<pdfrwt beam="1">  1        1 0.22552530E+00 0.26966320E+03</pdfrwt>
<pdfrwt beam="2">  1       -1 0.17129672E+00 0.26966320E+03</pdfrwt>
<totfact> 0.20311291E+00</totfact>
</mgrwt>
</event>
<event>
 4    1  0.1852677E-008  0.3981741E+03  0.7818608E-02  0.1044414E+00
          1   -1    0    0  501    0  0.00000000000E+00  0.00000000000E+00  0.19384333661E+04  0.19384333661E+04  0.50400000000E-02 0. -1.
         -1   -1    0    0    0  501 -0.00000000000E+00 -0.00000000000E+00 -0.24829981546E+03  0.24829981551E+03  0.50400000000E-02 0.  1.
    8880022    1    1    2    0    0  0.35675148047E+03  0.88765701865E+02 -0.50295435545E+02  0.40133807756E+03  0.15294330000E+03 0.  0.
    8880022    1    1    2    0    0 -0.35675148047E+03 -0.88765701865E+02  0.17404289862E+04  0.17853951041E+04  0.15294330000E+03 0.  0.
<mgrwt>
<rscale>  0 0.39817411E+03</rscale>
<asrwt>0</asrwt>
<pdfrwt beam="1">  1        1 0.29822051E+00 0.39817411E+03</pdfrwt>
<pdfrwt beam="2">  1       -1 0.38199973E-01 0.39817411E+03</pdfrwt>
<totfact> 0.24119390E+01</totfact>
</mgrwt>
</event>
<event>
 4    1  0.1852677E-008  0.3021463E+03  0.7818608E-02  0.1084173E+00
          1   -1    0    0  501    0  0.00000000000E+00  0.00000000000E+00  0.14727665713E+04  0.14727665713E+04  0.50400000000E-02 0. -1.
         -1   -1    0    0    0  501 -0.00000000000E+00 -0.00000000000E+00 -0.72215055186E+02  0.72215055362E+02  0.50400000000E-02 0.  1.
    8880022    1    1    2    0    0 -0.26047849193E+03 -0.71903875768E+01  0.40955521353E+03  0.50894780909E+03  0.15294330000E+03 0.  1.
    8880022    1    1    2    0    0  0.26047849193E+03  0.71903875768E+01  0.99099630258E+03  0.10360338176E+04  0.15294330000E+03 0. -1.
<mgrwt>
<rscale>  0 0.30214632E+03</rscale>
<asrwt>0</asrwt>
<pdfrwt beam="1">  1        1 0.22657946E+00 0.30214632E+03</pdfrwt>
<pdfrwt beam="2">  1       -1 0.11110009E-01 0.30214632E+03</pdfrwt>
<totfact> 0.38541799E+02</totfact>
</mgrwt>
</event>
<event>
 4    1  0.1852677E-008  0.1803075E+03  0.7818608E-02  0.1167506E+00
          1   -1    0    0  501    0  0.00000000000E+00  0.00000000000E+00  0.66125358151E+03  0.66125358153E+03  0.50400000000E-02 0. -1.
         -1   -1    0    0    0  501 -0.00000000000E+00 -0.00000000000E+00 -0.14519120978E+03  0.14519120987E+03  0.50400000000E-02 0.  1.
    8880022    1    1    2    0    0  0.63477799636E+02  0.71342175225E+02 -0.69889260209E+02  0.19337864081E+03  0.15294330000E+03 0.  0.
    8880022    1    1    2    0    0 -0.63477799636E+02 -0.71342175225E+02  0.58595163194E+03  0.61306615060E+03  0.15294330000E+03 0. -1.
<mgrwt>
<rscale>  0 0.18030749E+03</rscale>
<asrwt>0</asrwt>
<pdfrwt beam="1">  1        1 0.10173132E+00 0.18030749E+03</pdfrwt>
<pdfrwt beam="2">  1       -1 0.22337109E-01 0.18030749E+03</pdfrwt>
<totfact> 0.52054150E+02</totfact>
</mgrwt>
</event>
<event>
 4    1  0.2515056E-008  0.9116055E+03  0.7818608E-02  0.9411189E-01
          1   -1    0    0  501    0  0.00000000000E+00  0.00000000000E+00  0.98599704217E+03  0.98599704218E+03  0.50400000000E-02 0. -1.
         -1   -1    0    0    0  501 -0.00000000000E+00 -0.00000000000E+00 -0.26617850629E+04  0.26617850629E+04  0.50400000000E-02 0.  1.
    8880022    1    1    2    0    0 -0.85661287975E+03 -0.27174852967E+03 -0.23456247558E+04  0.25165412846E+04  0.15294330000E+03 0.  0.
    8880022    1    1    2    0    0  0.85661287975E+03  0.27174852967E+03  0.66983673511E+03  0.11312408204E+04  0.15294330000E+03 0.  0.
<mgrwt>
<rscale>  0 0.91160548E+03</rscale>
<asrwt>0</asrwt>
<pdfrwt beam="1">  1        1 0.15169185E+00 0.91160548E+03</pdfrwt>
<pdfrwt beam="2">  1       -1 0.40950539E+00 0.91160548E+03</pdfrwt>
<totfact> 0.99779750E-02</totfact>
</mgrwt>
</event>
<event>
 4    1  0.1852677E-008  0.4404058E+03  0.7818608E-02  0.1030622E+00
          1   -1    0    0  501    0  0.00000000000E+00  0.00000000000E+00  0.36606103958E+04  0.36606103958E+04  0.50400000000E-02 0. -1.
         -1   -1    0    0    0  501 -0.00000000000E+00 -0.00000000000E+00 -0.10496495344E+03  0.10496495356E+03  0.50400000000E-02 0.  1.
    8880022    1    1    2    0    0  0.37131491941E+02 -0.41132333901E+03  0.31027660550E+04  0.31338657409E+04  0.15294330000E+03 0.  0.
    8880022    1    1    2    0    0 -0.37131491941E+02  0.41132333901E+03  0.45287938735E+03  0.63170960845E+03  0.15294330000E+03 0.  1.
<mgrwt>
<rscale>  0 0.44040582E+03</rscale>
<asrwt>0</asrwt>
<pdfrwt beam="1">  1        1 0.56317079E+00 0.44040582E+03</pdfrwt>
<pdfrwt beam="2">  1       -1 0.16148456E-01 0.44040582E+03</pdfrwt>
<totfact> 0.63209206E+00</totfact>
</mgrwt>
</event>
<event>
 4    1  0.1852677E-008  0.1102775E+04  0.7818608E-02  0.9202492E-01
         -1   -1    0    0    0  501 -0.00000000000E+00  0.00000000000E+00  0.14781021538E+04  0.14781021538E+04  0.50400000000E-02 0.  1.
          1   -1    0    0  501    0  0.00000000000E+00 -0.00000000000E+00 -0.21000377559E+04  0.21000377559E+04  0.50400000000E-02 0. -1.
    8880022    1    1    2    0    0  0.90076060194E+03  0.61753595764E+03 -0.17062361781E+04  0.20315890011E+04  0.15294330000E+03 0.  0.
    8880022    1    1    2    0    0 -0.90076060194E+03 -0.61753595764E+03  0.10843005759E+04  0.15465509086E+04  0.15294330000E+03 0.  0.
<mgrwt>
<rscale>  0 0.11027747E+04</rscale>
<asrwt>0</asrwt>
<pdfrwt beam="1">  1        1 0.32308273E+00 0.11027747E+04</pdfrwt>
<pdfrwt beam="2">  1       -1 0.22740033E+00 0.11027747E+04</pdfrwt>
<totfact> 0.24978078E-01</totfact>
</mgrwt>
</event>
<event>
 4    1  0.1852677E-008  0.1117135E+04  0.7818608E-02  0.9188650E-01
          1   -1    0    0  501    0  0.00000000000E+00  0.00000000000E+00  0.26705984493E+04  0.26705984493E+04  0.50400000000E-02 0. -1.
         -1   -1    0    0    0  501 -0.00000000000E+00 -0.00000000000E+00 -0.61271006482E+03  0.61271006484E+03  0.50400000000E-02 0.  1.
    8880022    1    1    2    0    0 -0.38551655995E+03  0.10372927113E+04  0.22922017871E+03  0.11404090189E+04  0.15294330000E+03 0.  0.
    8880022    1    1    2    0    0  0.38551655995E+03 -0.10372927113E+04  0.18286682058E+04  0.21428994953E+04  0.15294330000E+03 0.  0.
<mgrwt>
<rscale>  0 0.11171351E+04</rscale>
<asrwt>0</asrwt>
<pdfrwt beam="1">  1        1 0.41086130E+00 0.11171351E+04</pdfrwt>
<pdfrwt beam="2">  1       -1 0.94263086E-01 0.11171351E+04</pdfrwt>
<totfact> 0.11259481E+00</totfact>
</mgrwt>
</event>
<event>
 4    1  0.1852677E-008  0.8095499E+03  0.7818608E-02  0.9546296E-01
          1   -1    0    0  501    0  0.00000000000E+00  0.00000000000E+00  0.10768639883E+04  0.10768639883E+04  0.50400000000E-02 0. -1.
         -1   -1    0    0    0  501 -0.00000000000E+00 -0.00000000000E+00 -0.12833174434E+04  0.12833174434E+04  0.50400000000E-02 0.  1.
    8880022    1    1    2    0    0 -0.40345809763E+03 -0.68498249309E+03  0.75245409728E+03  0.11052412741E+04  0.15294330000E+03 0.  0.
    8880022    1    1    2    0    0  0.40345809763E+03  0.68498249309E+03 -0.95890755231E+03  0.12549401576E+04  0.15294330000E+03 0.  0.
<mgrwt>
<rscale>  0 0.80954994E+03</rscale>
<asrwt>0</asrwt>
<pdfrwt beam="1">  1        1 0.16567138E+00 0.80954994E+03</pdfrwt>
<pdfrwt beam="2">  1       -1 0.19743345E+00 0.80954994E+03</pdfrwt>
<totfact> 0.21380144E+00</totfact>
</mgrwt>
</event>
<event>
 4    1  0.1852677E-008  0.8764125E+03  0.7818608E-02  0.9455557E-01
         -1   -1    0    0    0  501 -0.00000000000E+00  0.00000000000E+00  0.54338647611E+03  0.54338647613E+03  0.50400000000E-02 0.  1.
          1   -1    0    0  501    0  0.00000000000E+00 -0.00000000000E+00 -0.14390189947E+04  0.14390189947E+04  0.50400000000E-02 0. -1.
    8880022    1    1    2    0    0  0.65871333577E+03  0.55749790156E+03 -0.31592511746E+03  0.93161553327E+03  0.15294330000E+03 0.  0.
    8880022    1    1    2    0    0 -0.65871333577E+03 -0.55749790156E+03 -0.57970740115E+03  0.10507899376E+04  0.15294330000E+03 0.  0.
<mgrwt>
<rscale>  0 0.87641247E+03</rscale>
<asrwt>0</asrwt>
<pdfrwt beam="1">  1        1 0.22138754E+00 0.87641247E+03</pdfrwt>
<pdfrwt beam="2">  1       -1 0.83597920E-01 0.87641247E+03</pdfrwt>
<totfact> 0.10440995E+01</totfact>
</mgrwt>
</event>
<event>
 4    1  0.1852677E-008  0.6569829E+03  0.7818608E-02  0.9793764E-01
          1   -1    0    0  501    0  0.00000000000E+00  0.00000000000E+00  0.18922626477E+04  0.18922626477E+04  0.50400000000E-02 0. -1.
         -1   -1    0    0    0  501 -0.00000000000E+00 -0.00000000000E+00 -0.60754530397E+03  0.60754530399E+03  0.50400000000E-02 0.  1.
    8880022    1    1    2    0    0 -0.57206865281E+03 -0.28455645734E+03  0.16301414812E+04  0.17575516558E+04  0.15294330000E+03 0.  0.
    8880022    1    1    2    0    0  0.57206865281E+03  0.28455645734E+03 -0.34542413754E+03  0.74225629587E+03  0.15294330000E+03 0.  0.
<mgrwt>
<rscale>  0 0.65698293E+03</rscale>
<asrwt>0</asrwt>
<pdfrwt beam="1">  1        1 0.29111733E+00 0.65698293E+03</pdfrwt>
<pdfrwt beam="2">  1       -1 0.93468509E-01 0.65698293E+03</pdfrwt>
<totfact> 0.41820262E+00</totfact>
</mgrwt>
</event>
<event>
 4    1  0.1852677E-008  0.1061886E+04  0.7818608E-02  0.9243158E-01
         -1   -1    0    0    0  501 -0.00000000000E+00  0.00000000000E+00  0.72116189736E+03  0.72116189738E+03  0.50400000000E-02 0.  1.
          1   -1    0    0  501    0  0.00000000000E+00 -0.00000000000E+00 -0.17230419426E+04  0.17230419426E+04  0.50400000000E-02 0. -1.
    8880022    1    1    2    0    0  0.19025932222E+03 -0.10334461855E+04 -0.12916956046E+03  0.10697130720E+04  0.15294330000E+03 0.  0.
    8880022    1    1    2    0    0 -0.19025932222E+03  0.10334461855E+04 -0.87271048479E+03  0.13744907680E+04  0.15294330000E+03 0.  0.
<mgrwt>
<rscale>  0 0.10618857E+04</rscale>
<asrwt>0</asrwt>
<pdfrwt beam="1">  1        1 0.26508338E+00 0.10618857E+04</pdfrwt>
<pdfrwt beam="2">  1       -1 0.11094798E+00 0.10618857E+04</pdfrwt>
<totfact> 0.34365180E+00</totfact>
</mgrwt>
</event>
<event>
 4    1  0.1852677E-008  0.4340774E+03  0.7818608E-02  0.1032580E+00
          1   -1    0    0  501    0  0.00000000000E+00  0.00000000000E+00  0.64783496525E+03  0.64783496527E+03  0.50400000000E-02 0. -1.
         -1   -1    0    0    0  501 -0.00000000000E+00 -0.00000000000E+00 -0.74122708014E+03  0.74122708016E+03  0.50400000000E-02 0.  1.
    8880022    1    1    2    0    0 -0.35735527016E+03 -0.19320640494E+03  0.49468603331E+03  0.65813177145E+03  0.15294330000E+03 0.  0.
    8880022    1    1    2    0    0  0.35735527016E+03  0.19320640494E+03 -0.58807814820E+03  0.73093027399E+03  0.15294330000E+03 0.  0.
<mgrwt>
<rscale>  0 0.43407736E+03</rscale>
<asrwt>0</asrwt>
<pdfrwt beam="1">  1        1 0.99666918E-01 0.43407736E+03</pdfrwt>
<pdfrwt beam="2">  1       -1 0.11403493E+00 0.43407736E+03</pdfrwt>
<totfact> 0.23011338E+01</totfact>
</mgrwt>
</event>
<event>
 4    1  0.1852677E-008  0.2083927E+03  0.7818608E-02  0.1142845E+00
          1   -1    0    0  501    0  0.00000000000E+00  0.00000000000E+00  0.56486893712E+03  0.56486893714E+03  0.50400000000E-02 0. -1.
         -1   -1    0    0    0  501 -0.00000000000E+00 -0.00000000000E+00 -0.71610454750E+03  0.71610454752E+03  0.50400000000E-02 0.  1.
    8880022    1    1    2    0    0 -0.14114675952E+03 -0.10652217611E+02  0.52951180788E+03  0.56904330694E+03  0.15294330000E+03 0.  0.
    8880022    1    1    2    0    0  0.14114675952E+03  0.10652217611E+02 -0.68074741827E+03  0.71193017773E+03  0.15294330000E+03 0.  1.
<mgrwt>
<rscale>  0 0.20839273E+03</rscale>
<asrwt>0</asrwt>
<pdfrwt beam="1">  1        1 0.86902913E-01 0.20839273E+03</pdfrwt>
<pdfrwt beam="2">  1       -1 0.11016993E+00 0.20839273E+03</pdfrwt>
<totfact> 0.32040634E+01</totfact>
</mgrwt>
</event>
<event>
 4    1  0.2936589E-008  0.7037020E+03  0.7818608E-02  0.9710922E-01
         -1   -1    0    0    0  501 -0.00000000000E+00  0.00000000000E+00  0.15949006029E+04  0.15949006029E+04  0.50400000000E-02 0.  1.
          1   -1    0    0  501    0  0.00000000000E+00 -0.00000000000E+00 -0.16826177443E+04  0.16826177443E+04  0.50400000000E-02 0. -1.
    8880022    1    1    2    0    0  0.41942788172E+03  0.54395322525E+03  0.14359995869E+04  0.15991533153E+04  0.15294330000E+03 0.  0.
    8880022    1    1    2    0    0 -0.41942788172E+03 -0.54395322525E+03 -0.15237167283E+04  0.16783650319E+04  0.15294330000E+03 0.  0.
<mgrwt>
<rscale>  0 0.70370201E+03</rscale>
<asrwt>0</asrwt>
<pdfrwt beam="1">  1        1 0.25886427E+00 0.70370201E+03</pdfrwt>
<pdfrwt beam="2">  1       -1 0.24536932E+00 0.70370201E+03</pdfrwt>
<totfact> 0.39436431E-01</totfact>
</mgrwt>
</event>
<event>
 4    1  0.1852677E-008  0.1006738E+04  0.7818608E-02  0.9301186E-01
          1   -1    0    0  501    0  0.00000000000E+00  0.00000000000E+00  0.21710513762E+04  0.21710513762E+04  0.50400000000E-02 0. -1.
         -1   -1    0    0    0  501 -0.00000000000E+00 -0.00000000000E+00 -0.73904176516E+03  0.73904176518E+03  0.50400000000E-02 0.  1.
    8880022    1    1    2    0    0 -0.10206246008E+03  0.98980429599E+03  0.15990695186E+04  0.18895883860E+04  0.15294330000E+03 0.  0.
    8880022    1    1    2    0    0  0.10206246008E+03 -0.98980429599E+03 -0.16705990754E+03  0.10205047554E+04  0.15294330000E+03 0.  0.
<mgrwt>
<rscale>  0 0.10067378E+04</rscale>
<asrwt>0</asrwt>
<pdfrwt beam="1">  1        1 0.33400791E+00 0.10067378E+04</pdfrwt>
<pdfrwt beam="2">  1       -1 0.11369873E+00 0.10067378E+04</pdfrwt>
<totfact> 0.16280492E+00</totfact>
</mgrwt>
</event>
<event>
 4    1  0.1852677E-008  0.5443726E+03  0.7818608E-02  0.1002805E+00
         -1   -1    0    0    0  501 -0.00000000000E+00  0.00000000000E+00  0.26958864970E+03  0.26958864975E+03  0.50400000000E-02 0.  1.
          1   -1    0    0  501    0  0.00000000000E+00 -0.00000000000E+00 -0.12332145745E+04  0.12332145745E+04  0.50400000000E-02 0. -1.
    8880022    1    1    2    0    0  0.56793939740E+02 -0.51934985866E+03 -0.72948152713E+03  0.91021139233E+03  0.15294330000E+03 0.  0.
    8880022    1    1    2    0    0 -0.56793939740E+02  0.51934985866E+03 -0.23414439765E+03  0.59259183191E+03  0.15294330000E+03 0.  1.
<mgrwt>
<rscale>  0 0.54437256E+03</rscale>
<asrwt>0</asrwt>
<pdfrwt beam="1">  1        1 0.18972532E+00 0.54437256E+03</pdfrwt>
<pdfrwt beam="2">  1       -1 0.41475178E-01 0.54437256E+03</pdfrwt>
<totfact> 0.60430493E+01</totfact>
</mgrwt>
</event>
<event>
 4    1  0.1852677E-008  0.5407552E+03  0.7818608E-02  0.1003657E+00
         -1   -1    0    0    0  501 -0.00000000000E+00  0.00000000000E+00  0.62743361041E+03  0.62743361043E+03  0.50400000000E-02 0.  1.
          1   -1    0    0  501    0  0.00000000000E+00 -0.00000000000E+00 -0.13201165885E+04  0.13201165885E+04  0.50400000000E-02 0. -1.
    8880022    1    1    2    0    0 -0.31175433669E+03 -0.41452840211E+03 -0.11295872809E+04  0.12523512450E+04  0.15294330000E+03 0.  0.
    8880022    1    1    2    0    0  0.31175433669E+03  0.41452840211E+03  0.43690430289E+03  0.69519895390E+03  0.15294330000E+03 0.  1.
<mgrwt>
<rscale>  0 0.54075523E+03</rscale>
<asrwt>0</asrwt>
<pdfrwt beam="1">  1        1 0.20309486E+00 0.54075523E+03</pdfrwt>
<pdfrwt beam="2">  1       -1 0.96528248E-01 0.54075523E+03</pdfrwt>
<totfact> 0.97158291E+00</totfact>
</mgrwt>
</event>
<event>
 4    1  0.1852677E-008  0.3733469E+03  0.7818608E-02  0.1053421E+00
         -1   -1    0    0    0  501 -0.00000000000E+00  0.00000000000E+00  0.11209545465E+04  0.11209545465E+04  0.50400000000E-02 0.  1.
          1   -1    0    0  501    0  0.00000000000E+00 -0.00000000000E+00 -0.47163264874E+03  0.47163264877E+03  0.50400000000E-02 0. -1.
    8880022    1    1    2    0    0  0.97993109259E+01  0.34044122418E+03  0.10079656250E+04  0.10748872535E+04  0.15294330000E+03 0.  0.
    8880022    1    1    2    0    0 -0.97993109259E+01 -0.34044122418E+03 -0.35864372722E+03  0.51769994177E+03  0.15294330000E+03 0.  0.
<mgrwt>
<rscale>  0 0.37334690E+03</rscale>
<asrwt>0</asrwt>
<pdfrwt beam="1">  1        1 0.72558869E-01 0.37334690E+03</pdfrwt>
<pdfrwt beam="2">  1       -1 0.17245455E+00 0.37334690E+03</pdfrwt>
<totfact> 0.12439359E+01</totfact>
</mgrwt>
</event>
<event>
 4    1  0.1852677E-008  0.4638049E+03  0.7818608E-02  0.1023683E+00
         -1   -1    0    0    0  501 -0.00000000000E+00  0.00000000000E+00  0.75553151986E+03  0.75553151988E+03  0.50400000000E-02 0.  1.
          1   -1    0    0  501    0  0.00000000000E+00 -0.00000000000E+00 -0.45514734873E+03  0.45514734876E+03  0.50400000000E-02 0. -1.
    8880022    1    1    2    0    0  0.13511190433E+03  0.41649505536E+03 -0.22022624739E+03  0.51343413491E+03  0.15294330000E+03 0.  0.
    8880022    1    1    2    0    0 -0.13511190433E+03 -0.41649505536E+03  0.52061041852E+03  0.69724473373E+03  0.15294330000E+03 0.  0.
<mgrwt>
<rscale>  0 0.46380493E+03</rscale>
<asrwt>0</asrwt>
<pdfrwt beam="1">  1        1 0.70022669E-01 0.46380493E+03</pdfrwt>
<pdfrwt beam="2">  1       -1 0.11623562E+00 0.46380493E+03</pdfrwt>
<totfact> 0.35667726E+01</totfact>
</mgrwt>
</event>
<event>
 4    1  0.1852677E-008  0.1621575E+03  0.7818608E-02  0.1186282E+00
          1   -1    0    0  501    0  0.00000000000E+00  0.00000000000E+00  0.14578510149E+04  0.14578510149E+04  0.50400000000E-02 0. -1.
         -1   -1    0    0    0  501 -0.00000000000E+00 -0.00000000000E+00 -0.10815888968E+03  0.10815888979E+03  0.50400000000E-02 0.  1.
    8880022    1    1    2    0    0 -0.52215558543E+02  0.13301914538E+02 -0.39895232022E+02  0.16699307781E+03  0.15294330000E+03 0.  1.
    8880022    1    1    2    0    0  0.52215558543E+02 -0.13301914538E+02  0.13895873572E+04  0.13990168269E+04  0.15294330000E+03 0.  0.
<mgrwt>
<rscale>  0 0.16215751E+03</rscale>
<asrwt>0</asrwt>
<pdfrwt beam="1">  1        1 0.22428477E+00 0.16215751E+03</pdfrwt>
<pdfrwt beam="2">  1       -1 0.16639830E-01 0.16215751E+03</pdfrwt>
<totfact> 0.21465103E+02</totfact>
</mgrwt>
</event>
<event>
 4    1  0.1852677E-008  0.2947880E+03  0.7818608E-02  0.1087875E+00
          1   -1    0    0  501    0  0.00000000000E+00  0.00000000000E+00  0.11084629793E+04  0.11084629794E+04  0.50400000000E-02 0. -1.
         -1   -1    0    0    0  501 -0.00000000000E+00 -0.00000000000E+00 -0.86437686895E+02  0.86437687042E+02  0.50400000000E-02 0.  1.
    8880022    1    1    2    0    0 -0.16165827871E+03  0.19332597577E+03  0.69323488483E+03  0.75330909363E+03  0.15294330000E+03 0. -1.
    8880022    1    1    2    0    0  0.16165827871E+03 -0.19332597577E+03  0.32879040762E+03  0.44159157277E+03  0.15294330000E+03 0.  0.
<mgrwt>
<rscale>  0 0.29478803E+03</rscale>
<asrwt>0</asrwt>
<pdfrwt beam="1">  1        1 0.17053276E+00 0.29478803E+03</pdfrwt>
<pdfrwt beam="2">  1       -1 0.13298107E-01 0.29478803E+03</pdfrwt>
<totfact> 0.51899543E+02</totfact>
</mgrwt>
</event>
<event>
 4    1  0.1852677E-008  0.6428953E+03  0.7818608E-02  0.9820203E-01
          1   -1    0    0  501    0  0.00000000000E+00  0.00000000000E+00  0.16000524311E+04  0.16000524311E+04  0.50400000000E-02 0. -1.
         -1   -1    0    0    0  501 -0.00000000000E+00 -0.00000000000E+00 -0.31697580187E+03  0.31697580191E+03  0.50400000000E-02 0.  1.
    8880022    1    1    2    0    0  0.84490028657E+01  0.62438070710E+03  0.22918741463E+03  0.68252558713E+03  0.15294330000E+03 0.  0.
    8880022    1    1    2    0    0 -0.84490028657E+01 -0.62438070710E+03  0.10538892146E+04  0.12345026459E+04  0.15294330000E+03 0.  0.
<mgrwt>
<rscale>  0 0.64289525E+03</rscale>
<asrwt>0</asrwt>
<pdfrwt beam="1">  1        1 0.24616191E+00 0.64289525E+03</pdfrwt>
<pdfrwt beam="2">  1       -1 0.48765509E-01 0.64289525E+03</pdfrwt>
<totfact> 0.24663227E+01</totfact>
</mgrwt>
</event>
<event>
 4    1  0.1852677E-008  0.6168435E+03  0.7818608E-02  0.9871065E-01
          1   -1    0    0  501    0  0.00000000000E+00  0.00000000000E+00  0.86796786510E+03  0.86796786512E+03  0.50400000000E-02 0. -1.
         -1   -1    0    0    0  501 -0.00000000000E+00 -0.00000000000E+00 -0.83380748865E+03  0.83380748867E+03  0.50400000000E-02 0.  1.
    8880022    1    1    2    0    0 -0.18300956843E+03  0.56886880555E+03 -0.56888959482E+03  0.83912528515E+03  0.15294330000E+03 0.  0.
    8880022    1    1    2    0    0  0.18300956843E+03 -0.56886880555E+03  0.60304997127E+03  0.86265006864E+03  0.15294330000E+03 0.  0.
<mgrwt>
<rscale>  0 0.61684348E+03</rscale>
<asrwt>0</asrwt>
<pdfrwt beam="1">  1        1 0.13353352E+00 0.61684348E+03</pdfrwt>
<pdfrwt beam="2">  1       -1 0.12827808E+00 0.61684348E+03</pdfrwt>
<totfact> 0.10670974E+01</totfact>
</mgrwt>
</event>
<event>
 4    1  0.1852677E-008  0.8964673E+03  0.7818608E-02  0.9430008E-01
          1   -1    0    0  501    0  0.00000000000E+00  0.00000000000E+00  0.22701113691E+04  0.22701113691E+04  0.50400000000E-02 0. -1.
         -1   -1    0    0    0  501 -0.00000000000E+00 -0.00000000000E+00 -0.36532753157E+03  0.36532753160E+03  0.50400000000E-02 0.  1.
    8880022    1    1    2    0    0  0.24341555607E+03  0.84912358858E+03  0.72051359612E+03  0.11501276002E+04  0.15294330000E+03 0.  0.
    8880022    1    1    2    0    0 -0.24341555607E+03 -0.84912358858E+03  0.11842702414E+04  0.14853113005E+04  0.15294330000E+03 0.  0.
<mgrwt>
<rscale>  0 0.89646732E+03</rscale>
<asrwt>0</asrwt>
<pdfrwt beam="1">  1        1 0.34924790E+00 0.89646732E+03</pdfrwt>
<pdfrwt beam="2">  1       -1 0.56204236E-01 0.89646732E+03</pdfrwt>
<totfact> 0.64313809E+00</totfact>
</mgrwt>
</event>
<event>
 4    1  0.1852677E-008  0.1018908E+04  0.7818608E-02  0.9288046E-01
         -1   -1    0    0    0  501 -0.00000000000E+00  0.00000000000E+00  0.11863182990E+04  0.11863182990E+04  0.50400000000E-02 0.  1.
          1   -1    0    0  501    0  0.00000000000E+00 -0.00000000000E+00 -0.13316043395E+04  0.13316043396E+04  0.50400000000E-02 0. -1.
    8880022    1    1    2    0    0 -0.30915788360E+03 -0.95875102435E+03  0.66447420805E+03  0.12164290977E+04  0.15294330000E+03 0.  0.
    8880022    1    1    2    0    0  0.30915788360E+03  0.95875102435E+03 -0.80976024857E+03  0.13014935408E+04  0.15294330000E+03 0.  0.
<mgrwt>
<rscale>  0 0.10189081E+04</rscale>
<asrwt>0</asrwt>
<pdfrwt beam="1">  1        1 0.20486221E+00 0.10189081E+04</pdfrwt>
<pdfrwt beam="2">  1       -1 0.18251051E+00 0.10189081E+04</pdfrwt>
<totfact> 0.17188734E+00</totfact>
</mgrwt>
</event>
<event>
 4    1  0.2376511E-008  0.4199073E+03  0.7818608E-02  0.1037096E+00
          1   -1    0    0  501    0  0.00000000000E+00  0.00000000000E+00  0.29891710935E+04  0.29891710935E+04  0.50400000000E-02 0. -1.
         -1   -1    0    0    0  501 -0.00000000000E+00 -0.00000000000E+00 -0.83656011705E+03  0.83656011706E+03  0.50400000000E-02 0.  1.
    8880022    1    1    2    0    0 -0.67635734931E+02 -0.38516993281E+03 -0.76788810782E+03  0.87519955948E+03  0.15294330000E+03 0.  0.
    8880022    1    1    2    0    0  0.67635734931E+02  0.38516993281E+03  0.29204990843E+04  0.29505316511E+04  0.15294330000E+03 0.  0.
<mgrwt>
<rscale>  0 0.41990728E+03</rscale>
<asrwt>0</asrwt>
<pdfrwt beam="1">  1        1 0.45987246E+00 0.41990728E+03</pdfrwt>
<pdfrwt beam="2">  1       -1 0.12870156E+00 0.41990728E+03</pdfrwt>
<totfact> 0.38400060E-01</totfact>
</mgrwt>
</event>
<event>
 4    1  0.1852677E-008  0.8253072E+03  0.7818608E-02  0.9524091E-01
          1   -1    0    0  501    0  0.00000000000E+00  0.00000000000E+00  0.15114890343E+04  0.15114890344E+04  0.50400000000E-02 0. -1.
         -1   -1    0    0    0  501 -0.00000000000E+00 -0.00000000000E+00 -0.85327948606E+03  0.85327948608E+03  0.50400000000E-02 0.  1.
    8880022    1    1    2    0    0  0.13331223940E+03 -0.79998013028E+03 -0.48311413668E+03  0.95631129037E+03  0.15294330000E+03 0.  0.
    8880022    1    1    2    0    0 -0.13331223940E+03  0.79998013028E+03  0.11413236850E+04  0.14084572301E+04  0.15294330000E+03 0.  0.
<mgrwt>
<rscale>  0 0.82530722E+03</rscale>
<asrwt>0</asrwt>
<pdfrwt beam="1">  1        1 0.23253677E+00 0.82530722E+03</pdfrwt>
<pdfrwt beam="2">  1       -1 0.13127377E+00 0.82530722E+03</pdfrwt>
<totfact> 0.32767129E+00</totfact>
</mgrwt>
</event>
<event>
 4    1  0.1852677E-008  0.4910645E+03  0.7818608E-02  0.1016138E+00
          1   -1    0    0  501    0  0.00000000000E+00  0.00000000000E+00  0.28384383043E+04  0.28384383043E+04  0.50400000000E-02 0. -1.
         -1   -1    0    0    0  501 -0.00000000000E+00 -0.00000000000E+00 -0.30923883422E+03  0.30923883426E+03  0.50400000000E-02 0.  1.
    8880022    1    1    2    0    0 -0.22101352018E+02  0.46611612285E+03 -0.75726463818E+02  0.49686905728E+03  0.15294330000E+03 0.  0.
    8880022    1    1    2    0    0  0.22101352018E+02 -0.46611612285E+03  0.26049259339E+04  0.26508080813E+04  0.15294330000E+03 0.  0.
<mgrwt>
<rscale>  0 0.49106452E+03</rscale>
<asrwt>0</asrwt>
<pdfrwt beam="1">  1        1 0.43668284E+00 0.49106452E+03</pdfrwt>
<pdfrwt beam="2">  1       -1 0.47575203E-01 0.49106452E+03</pdfrwt>
<totfact> 0.39162488E+00</totfact>
</mgrwt>
</event>
<event>
 4    1  0.1852677E-008  0.1216214E+04  0.7818608E-02  0.9098782E-01
          1   -1    0    0  501    0  0.00000000000E+00  0.00000000000E+00  0.17405568006E+04  0.17405568006E+04  0.50400000000E-02 0. -1.
         -1   -1    0    0    0  501 -0.00000000000E+00 -0.00000000000E+00 -0.19325695607E+04  0.19325695607E+04  0.50400000000E-02 0.  1.
    8880022    1    1    2    0    0 -0.88415138968E+03  0.82101194783E+03 -0.14706827702E+04  0.19084244187E+04  0.15294330000E+03 0.  0.
    8880022    1    1    2    0    0  0.88415138968E+03 -0.82101194783E+03  0.12786700101E+04  0.17647019426E+04  0.15294330000E+03 0.  0.
<mgrwt>
<rscale>  0 0.12162138E+04</rscale>
<asrwt>0</asrwt>
<pdfrwt beam="1">  1        1 0.26777797E+00 0.12162138E+04</pdfrwt>
<pdfrwt beam="2">  1       -1 0.29731839E+00 0.12162138E+04</pdfrwt>
<totfact> 0.15094022E-01</totfact>
</mgrwt>
</event>
<event>
 4    1  0.1852677E-008  0.2824554E+03  0.7818608E-02  0.1094355E+00
         -1   -1    0    0    0  501 -0.00000000000E+00  0.00000000000E+00  0.12283579846E+03  0.12283579857E+03  0.50400000000E-02 0.  1.
          1   -1    0    0  501    0  0.00000000000E+00 -0.00000000000E+00 -0.68194750002E+03  0.68194750003E+03  0.50400000000E-02 0. -1.
    8880022    1    1    2    0    0 -0.22706977541E+03 -0.69489148286E+02 -0.19177369413E+03  0.34140624981E+03  0.15294330000E+03 0.  1.
    8880022    1    1    2    0    0  0.22706977541E+03  0.69489148286E+02 -0.36733800742E+03  0.46337704879E+03  0.15294330000E+03 0. -1.
<mgrwt>
<rscale>  0 0.28245544E+03</rscale>
<asrwt>0</asrwt>
<pdfrwt beam="1">  1        1 0.10491500E+00 0.28245544E+03</pdfrwt>
<pdfrwt beam="2">  1       -1 0.18897816E-01 0.28245544E+03</pdfrwt>
<totfact> 0.65035362E+02</totfact>
</mgrwt>
</event>
<event>
 4    1  0.1852677E-008  0.6682030E+03  0.7818608E-02  0.9773210E-01
         -1   -1    0    0    0  501 -0.00000000000E+00  0.00000000000E+00  0.10582400641E+04  0.10582400641E+04  0.50400000000E-02 0.  1.
          1   -1    0    0  501    0  0.00000000000E+00 -0.00000000000E+00 -0.10429779057E+04  0.10429779058E+04  0.50400000000E-02 0. -1.
    8880022    1    1    2    0    0 -0.46350558610E+03 -0.45636192245E+03  0.81834705662E+03  0.10564976056E+04  0.15294330000E+03 0.  0.
    8880022    1    1    2    0    0  0.46350558610E+03  0.45636192245E+03 -0.80308489826E+03  0.10447203642E+04  0.15294330000E+03 0.  0.
<mgrwt>
<rscale>  0 0.66820303E+03</rscale>
<asrwt>0</asrwt>
<pdfrwt beam="1">  1        1 0.16045814E+00 0.66820303E+03</pdfrwt>
<pdfrwt beam="2">  1       -1 0.16280616E+00 0.66820303E+03</pdfrwt>
<totfact> 0.41069040E+00</totfact>
</mgrwt>
</event>
<event>
 4    1  0.1852677E-008  0.5652003E+03  0.7818608E-02  0.9980356E-01
          1   -1    0    0  501    0  0.00000000000E+00  0.00000000000E+00  0.72010641223E+03  0.72010641224E+03  0.50400000000E-02 0. -1.
         -1   -1    0    0    0  501 -0.00000000000E+00 -0.00000000000E+00 -0.72185982665E+03  0.72185982667E+03  0.50400000000E-02 0.  1.
    8880022    1    1    2    0    0 -0.41020309115E+03 -0.35748167164E+03 -0.44849798869E+03  0.72152742180E+03  0.15294330000E+03 0.  0.
    8880022    1    1    2    0    0  0.41020309115E+03  0.35748167164E+03  0.44674457426E+03  0.72043881711E+03  0.15294330000E+03 0.  0.
<mgrwt>
<rscale>  0 0.56520030E+03</rscale>
<asrwt>0</asrwt>
<pdfrwt beam="1">  1        1 0.11078560E+00 0.56520030E+03</pdfrwt>
<pdfrwt beam="2">  1       -1 0.11105536E+00 0.56520030E+03</pdfrwt>
<totfact> 0.20478999E+01</totfact>
</mgrwt>
</event>
<event>
 4    1  0.1852677E-008  0.4046254E+03  0.7818608E-02  0.1042190E+00
         -1   -1    0    0    0  501 -0.00000000000E+00  0.00000000000E+00  0.20793768675E+03  0.20793768681E+03  0.50400000000E-02 0.  1.
          1   -1    0    0  501    0  0.00000000000E+00 -0.00000000000E+00 -0.24872409525E+04  0.24872409525E+04  0.50400000000E-02 0. -1.
    8880022    1    1    2    0    0  0.74919448016E+02  0.36703828483E+03 -0.22537100619E+04  0.22897446850E+04  0.15294330000E+03 0.  0.
    8880022    1    1    2    0    0 -0.74919448016E+02 -0.36703828483E+03 -0.25593203817E+02  0.40543395432E+03  0.15294330000E+03 0.  0.
<mgrwt>
<rscale>  0 0.40462536E+03</rscale>
<asrwt>0</asrwt>
<pdfrwt beam="1">  1        1 0.38265243E+00 0.40462536E+03</pdfrwt>
<pdfrwt beam="2">  1       -1 0.31990415E-01 0.40462536E+03</pdfrwt>
<totfact> 0.14247178E+01</totfact>
</mgrwt>
</event>
<event>
 4    1  0.1852677E-008  0.2742814E+03  0.7818608E-02  0.1098854E+00
          1   -1    0    0  501    0  0.00000000000E+00  0.00000000000E+00  0.40392953937E+03  0.40392953940E+03  0.50400000000E-02 0. -1.
         -1   -1    0    0    0  501 -0.00000000000E+00 -0.00000000000E+00 -0.65480582824E+03  0.65480582826E+03  0.50400000000E-02 0.  1.
    8880022    1    1    2    0    0  0.20234366664E+03  0.10438239367E+03 -0.57323768378E+03  0.63547756739E+03  0.15294330000E+03 0.  0.
    8880022    1    1    2    0    0 -0.20234366664E+03 -0.10438239367E+03  0.32236139492E+03  0.42325780026E+03  0.15294330000E+03 0. -1.
<mgrwt>
<rscale>  0 0.27428142E+03</rscale>
<asrwt>0</asrwt>
<pdfrwt beam="1">  1        1 0.62143006E-01 0.27428142E+03</pdfrwt>
<pdfrwt beam="2">  1       -1 0.10073936E+00 0.27428142E+03</pdfrwt>
<totfact> 0.60025913E+01</totfact>
</mgrwt>
</event>
<event>
 4    1  0.1852677E-008  0.1711372E+03  0.7818608E-02  0.1176667E+00
         -1   -1    0    0    0  501 -0.00000000000E+00  0.00000000000E+00  0.14779011856E+03  0.14779011865E+03  0.50400000000E-02 0.  1.
          1   -1    0    0  501    0  0.00000000000E+00 -0.00000000000E+00 -0.25903347389E+04  0.25903347389E+04  0.50400000000E-02 0. -1.
    8880022    1    1    2    0    0 -0.67614396338E+02 -0.36394588117E+02  0.94378476565E+02  0.19543598054E+03  0.15294330000E+03 0.  1.
    8880022    1    1    2    0    0  0.67614396338E+02  0.36394588117E+02 -0.25369230969E+04  0.25426888770E+04  0.15294330000E+03 0.  0.
<mgrwt>
<rscale>  0 0.17113715E+03</rscale>
<asrwt>0</asrwt>
<pdfrwt beam="1">  1        1 0.39851300E+00 0.17113715E+03</pdfrwt>
<pdfrwt beam="2">  1       -1 0.22736943E-01 0.17113715E+03</pdfrwt>
<totfact> 0.23966229E+01</totfact>
</mgrwt>
</event>
<event>
 4    1  0.1852677E-008  0.3184790E+03  0.7818608E-02  0.1076351E+00
         -1   -1    0    0    0  501 -0.00000000000E+00  0.00000000000E+00  0.23139987642E+03  0.23139987648E+03  0.50400000000E-02 0.  1.
          1   -1    0    0  501    0  0.00000000000E+00 -0.00000000000E+00 -0.92741591744E+03  0.92741591745E+03  0.50400000000E-02 0. -1.
    8880022    1    1    2    0    0 -0.27659374595E+03 -0.39155189514E+02 -0.76877428929E+03  0.83213147402E+03  0.15294330000E+03 0.  0.
    8880022    1    1    2    0    0  0.27659374595E+03  0.39155189514E+02  0.72758248276E+02  0.32668431991E+03  0.15294330000E+03 0.  0.
<mgrwt>
<rscale>  0 0.31847901E+03</rscale>
<asrwt>0</asrwt>
<pdfrwt beam="1">  1        1 0.14267937E+00 0.31847901E+03</pdfrwt>
<pdfrwt beam="2">  1       -1 0.35599981E-01 0.31847901E+03</pdfrwt>
<totfact> 0.13841135E+02</totfact>
</mgrwt>
</event>
<event>
 4    1  0.1852677E-008  0.8518646E+03  0.7818608E-02  0.9487838E-01
         -1   -1    0    0    0  501 -0.00000000000E+00  0.00000000000E+00  0.14064445596E+04  0.14064445596E+04  0.50400000000E-02 0.  1.
          1   -1    0    0  501    0  0.00000000000E+00 -0.00000000000E+00 -0.12444556826E+04  0.12444556826E+04  0.50400000000E-02 0. -1.
    8880022    1    1    2    0    0 -0.62661966040E+03  0.55644351271E+03 -0.93311843036E+03  0.12634806052E+04  0.15294330000E+03 0.  0.
    8880022    1    1    2    0    0  0.62661966040E+03 -0.55644351271E+03  0.10951073074E+04  0.13874196370E+04  0.15294330000E+03 0.  0.
<mgrwt>
<rscale>  0 0.85186456E+03</rscale>
<asrwt>0</asrwt>
<pdfrwt beam="1">  1        1 0.19145472E+00 0.85186456E+03</pdfrwt>
<pdfrwt beam="2">  1       -1 0.21637609E+00 0.85186456E+03</pdfrwt>
<totfact> 0.11894257E+00</totfact>
</mgrwt>
</event>
<event>
 4    1  0.1852677E-008  0.3000606E+03  0.7818608E-02  0.1085210E+00
          1   -1    0    0  501    0  0.00000000000E+00  0.00000000000E+00  0.20696399702E+04  0.20696399702E+04  0.50400000000E-02 0. -1.
         -1   -1    0    0    0  501 -0.00000000000E+00 -0.00000000000E+00 -0.16599491384E+03  0.16599491392E+03  0.50400000000E-02 0.  1.
    8880022    1    1    2    0    0 -0.23194937539E+03 -0.11333225848E+03  0.19120552469E+04  0.19354564407E+04  0.15294330000E+03 0. -1.
    8880022    1    1    2    0    0  0.23194937539E+03  0.11333225848E+03 -0.84101905945E+01  0.30017844339E+03  0.15294330000E+03 0.  0.
<mgrwt>
<rscale>  0 0.30006060E+03</rscale>
<asrwt>0</asrwt>
<pdfrwt beam="1">  1        1 0.31840616E+00 0.30006060E+03</pdfrwt>
<pdfrwt beam="2">  1       -1 0.25537678E-01 0.30006060E+03</pdfrwt>
<totfact> 0.40832950E+01</totfact>
</mgrwt>
</event>
<event>
 4    1  0.1852677E-008  0.2771514E+03  0.7818608E-02  0.1097255E+00
          1   -1    0    0  501    0  0.00000000000E+00  0.00000000000E+00  0.62254358869E+03  0.62254358871E+03  0.50400000000E-02 0. -1.
         -1   -1    0    0    0  501 -0.00000000000E+00 -0.00000000000E+00 -0.19441154432E+03  0.19441154438E+03  0.50400000000E-02 0.  1.
    8880022    1    1    2    0    0 -0.22323581137E+03 -0.59891664359E+02  0.46096301648E+03  0.53786596333E+03  0.15294330000E+03 0.  0.
    8880022    1    1    2    0    0  0.22323581137E+03  0.59891664359E+02 -0.32830972100E+02  0.27908916977E+03  0.15294330000E+03 0.  0.
<mgrwt>
<rscale>  0 0.27715139E+03</rscale>
<asrwt>0</asrwt>
<pdfrwt beam="1">  1        1 0.95775939E-01 0.27715139E+03</pdfrwt>
<pdfrwt beam="2">  1       -1 0.29909468E-01 0.27715139E+03</pdfrwt>
<totfact> 0.34534309E+02</totfact>
</mgrwt>
</event>
<event>
 4    1  0.1852677E-008  0.3984411E+03  0.7818608E-02  0.1044321E+00
          1   -1    0    0  501    0  0.00000000000E+00  0.00000000000E+00  0.81745421864E+03  0.81745421866E+03  0.50400000000E-02 0. -1.
         -1   -1    0    0    0  501 -0.00000000000E+00 -0.00000000000E+00 -0.25545184387E+03  0.25545184392E+03  0.50400000000E-02 0.  1.
    8880022    1    1    2    0    0  0.35958752586E+03  0.77848785880E+02  0.54367222678E+03  0.67404359310E+03  0.15294330000E+03 0.  0.
    8880022    1    1    2    0    0 -0.35958752586E+03 -0.77848785880E+02  0.18330147994E+02  0.39886246948E+03  0.15294330000E+03 0.  0.
<mgrwt>
<rscale>  0 0.39844106E+03</rscale>
<asrwt>0</asrwt>
<pdfrwt beam="1">  1        1 0.12576219E+00 0.39844106E+03</pdfrwt>
<pdfrwt beam="2">  1       -1 0.39300284E-01 0.39844106E+03</pdfrwt>
<totfact> 0.14092856E+02</totfact>
</mgrwt>
</event>
<event>
 4    1  0.1852677E-008  0.2002868E+04  0.7818608E-02  0.8605281E-01
         -1   -1    0    0    0  501 -0.00000000000E+00  0.00000000000E+00  0.14366238935E+04  0.14366238935E+04  0.50400000000E-02 0.  1.
          1   -1    0    0  501    0  0.00000000000E+00 -0.00000000000E+00 -0.28188627670E+04  0.28188627670E+04  0.50400000000E-02 0. -1.
    8880022    1    1    2    0    0 -0.16177836225E+04 -0.11708397269E+04 -0.48456232564E+03  0.20606508233E+04  0.15294330000E+03 0.  0.
    8880022    1    1    2    0    0  0.16177836225E+04  0.11708397269E+04 -0.89767654787E+03  0.21948358373E+04  0.15294330000E+03 0.  0.
<mgrwt>
<rscale>  0 0.20028682E+04</rscale>
<asrwt>0</asrwt>
<pdfrwt beam="1">  1        1 0.43367119E+00 0.20028682E+04</pdfrwt>
<pdfrwt beam="2">  1       -1 0.22101906E+00 0.20028682E+04</pdfrwt>
<totfact> 0.78135501E-02</totfact>
</mgrwt>
</event>
<event>
 4    1  0.1852677E-008  0.3505797E+03  0.7818608E-02  0.1062377E+00
         -1   -1    0    0    0  501 -0.00000000000E+00  0.00000000000E+00  0.12324475378E+03  0.12324475389E+03  0.50400000000E-02 0.  1.
          1   -1    0    0  501    0  0.00000000000E+00 -0.00000000000E+00 -0.13754362331E+04  0.13754362331E+04  0.50400000000E-02 0. -1.
    8880022    1    1    2    0    0 -0.16581566901E+03 -0.26836469630E+03 -0.10190215687E+04  0.10776414324E+04  0.15294330000E+03 0. -1.
    8880022    1    1    2    0    0  0.16581566901E+03  0.26836469630E+03 -0.23316991061E+03  0.42103955460E+03  0.15294330000E+03 0.  0.
<mgrwt>
<rscale>  0 0.35057966E+03</rscale>
<asrwt>0</asrwt>
<pdfrwt beam="1">  1        1 0.21160556E+00 0.35057966E+03</pdfrwt>
<pdfrwt beam="2">  1       -1 0.18960732E-01 0.35057966E+03</pdfrwt>
<totfact> 0.18961134E+02</totfact>
</mgrwt>
</event>
<event>
 4    1  0.1852677E-008  0.4864958E+03  0.7818608E-02  0.1017365E+00
         -1   -1    0    0    0  501 -0.00000000000E+00  0.00000000000E+00  0.54540809185E+03  0.54540809187E+03  0.50400000000E-02 0.  1.
          1   -1    0    0  501    0  0.00000000000E+00 -0.00000000000E+00 -0.87955647132E+03  0.87955647134E+03  0.50400000000E-02 0. -1.
    8880022    1    1    2    0    0 -0.17815895150E+03 -0.42608201771E+03  0.34005599354E+03  0.59356232156E+03  0.15294330000E+03 0.  0.
    8880022    1    1    2    0    0  0.17815895150E+03  0.42608201771E+03 -0.67420437302E+03  0.83140224165E+03  0.15294330000E+03 0.  0.
<mgrwt>
<rscale>  0 0.48649579E+03</rscale>
<asrwt>0</asrwt>
<pdfrwt beam="1">  1        1 0.13531638E+00 0.48649579E+03</pdfrwt>
<pdfrwt beam="2">  1       -1 0.83908937E-01 0.48649579E+03</pdfrwt>
<totfact> 0.28342943E+01</totfact>
</mgrwt>
</event>
<event>
 4    1  0.1852677E-008  0.2153901E+03  0.7818608E-02  0.1137367E+00
         -1   -1    0    0    0  501 -0.00000000000E+00  0.00000000000E+00  0.75502097009E+02  0.75502097177E+02  0.50400000000E-02 0.  1.
          1   -1    0    0  501    0  0.00000000000E+00 -0.00000000000E+00 -0.97980360002E+03  0.97980360003E+03  0.50400000000E-02 0. -1.
    8880022    1    1    2    0    0  0.14310139911E+03 -0.50231801375E+02 -0.77435441815E+03  0.80375223932E+03  0.15294330000E+03 0.  0.
    8880022    1    1    2    0    0 -0.14310139911E+03  0.50231801375E+02 -0.12994708487E+03  0.25155345789E+03  0.15294330000E+03 0.  1.
<mgrwt>
<rscale>  0 0.21539010E+03</rscale>
<asrwt>0</asrwt>
<pdfrwt beam="1">  1        1 0.15073901E+00 0.21539010E+03</pdfrwt>
<pdfrwt beam="2">  1       -1 0.11615708E-01 0.21539010E+03</pdfrwt>
<totfact> 0.80299427E+02</totfact>
</mgrwt>
</event>
<event>
 4    1  0.1852677E-008  0.3749943E+03  0.7818608E-02  0.1052800E+00
         -1   -1    0    0    0  501 -0.00000000000E+00  0.00000000000E+00  0.83906659334E+02  0.83906659486E+02  0.50400000000E-02 0.  1.
          1   -1    0    0  501    0  0.00000000000E+00 -0.00000000000E+00 -0.20476543687E+04  0.20476543687E+04  0.50400000000E-02 0. -1.
    8880022    1    1    2    0    0 -0.26251342691E+03  0.21980857321E+03 -0.52776871616E+03  0.64742611852E+03  0.15294330000E+03 0.  0.
    8880022    1    1    2    0    0  0.26251342691E+03 -0.21980857321E+03 -0.14359789932E+04  0.14841349096E+04  0.15294330000E+03 0.  0.
<mgrwt>
<rscale>  0 0.37499435E+03</rscale>
<asrwt>0</asrwt>
<pdfrwt beam="1">  1        1 0.31502371E+00 0.37499435E+03</pdfrwt>
<pdfrwt beam="2">  1       -1 0.12908718E-01 0.37499435E+03</pdfrwt>
<totfact> 0.12577727E+02</totfact>
</mgrwt>
</event>
<event>
 4    1  0.1852677E-008  0.3841612E+03  0.7818608E-02  0.1049406E+00
         -1   -1    0    0    0  501 -0.00000000000E+00  0.00000000000E+00  0.60975897468E+03  0.60975897470E+03  0.50400000000E-02 0.  1.
          1   -1    0    0  501    0  0.00000000000E+00 -0.00000000000E+00 -0.48433459592E+03  0.48433459595E+03  0.50400000000E-02 0. -1.
    8880022    1    1    2    0    0  0.80703191802E+02 -0.34303819919E+03 -0.32421807294E+03  0.50268998708E+03  0.15294330000E+03 0.  0.
    8880022    1    1    2    0    0 -0.80703191802E+02  0.34303819919E+03  0.44964245171E+03  0.59140358357E+03  0.15294330000E+03 0.  0.
<mgrwt>
<rscale>  0 0.38416125E+03</rscale>
<asrwt>0</asrwt>
<pdfrwt beam="1">  1        1 0.74513014E-01 0.38416125E+03</pdfrwt>
<pdfrwt beam="2">  1       -1 0.93809074E-01 0.38416125E+03</pdfrwt>
<totfact> 0.54287155E+01</totfact>
</mgrwt>
</event>
<event>
 4    1  0.1852677E-008  0.2719330E+03  0.7818608E-02  0.1100178E+00
         -1   -1    0    0    0  501 -0.00000000000E+00  0.00000000000E+00  0.14722139136E+04  0.14722139136E+04  0.50400000000E-02 0.  1.
          1   -1    0    0  501    0  0.00000000000E+00 -0.00000000000E+00 -0.60962695857E+03  0.60962695859E+03  0.50400000000E-02 0. -1.
    8880022    1    1    2    0    0 -0.22333180237E+03 -0.26054182102E+02 -0.56582315724E+03  0.62777656267E+03  0.15294330000E+03 0. -1.
    8880022    1    1    2    0    0  0.22333180237E+03  0.26054182102E+02  0.14284101123E+04  0.14540643095E+04  0.15294330000E+03 0.  0.
<mgrwt>
<rscale>  0 0.27193302E+03</rscale>
<asrwt>0</asrwt>
<pdfrwt beam="1">  1        1 0.93788763E-01 0.27193302E+03</pdfrwt>
<pdfrwt beam="2">  1       -1 0.22649445E+00 0.27193302E+03</pdfrwt>
<totfact> 0.39165357E+00</totfact>
</mgrwt>
</event>
<event>
 4    1  0.1852677E-008  0.3816478E+03  0.7818608E-02  0.1050326E+00
         -1   -1    0    0    0  501 -0.00000000000E+00  0.00000000000E+00  0.10441475777E+03  0.10441475789E+03  0.50400000000E-02 0.  1.
          1   -1    0    0  501    0  0.00000000000E+00 -0.00000000000E+00 -0.24589591248E+04  0.24589591248E+04  0.50400000000E-02 0. -1.
    8880022    1    1    2    0    0 -0.18752594728E+03 -0.29512266464E+03 -0.20203656946E+04  0.20560964377E+04  0.15294330000E+03 0.  0.
    8880022    1    1    2    0    0  0.18752594728E+03  0.29512266464E+03 -0.33417867238E+03  0.50727744497E+03  0.15294330000E+03 0.  1.
<mgrwt>
<rscale>  0 0.38164777E+03</rscale>
<asrwt>0</asrwt>
<pdfrwt beam="1">  1        1 0.37830136E+00 0.38164777E+03</pdfrwt>
<pdfrwt beam="2">  1       -1 0.16063811E-01 0.38164777E+03</pdfrwt>
<totfact> 0.47296435E+01</totfact>
</mgrwt>
</event>
<event>
 4    1  0.1852677E-008  0.5198317E+03  0.7818608E-02  0.1008728E+00
         -1   -1    0    0    0  501 -0.00000000000E+00  0.00000000000E+00  0.60594985038E+03  0.60594985040E+03  0.50400000000E-02 0.  1.
          1   -1    0    0  501    0  0.00000000000E+00 -0.00000000000E+00 -0.18380789697E+04  0.18380789697E+04  0.50400000000E-02 0. -1.
    8880022    1    1    2    0    0 -0.44618411915E+03 -0.21852465773E+03  0.44742581803E+03  0.68586792451E+03  0.15294330000E+03 0.  0.
    8880022    1    1    2    0    0  0.44618411915E+03  0.21852465773E+03 -0.16795549373E+04  0.17581608956E+04  0.15294330000E+03 0.  0.
<mgrwt>
<rscale>  0 0.51983165E+03</rscale>
<asrwt>0</asrwt>
<pdfrwt beam="1">  1        1 0.28278138E+00 0.51983165E+03</pdfrwt>
<pdfrwt beam="2">  1       -1 0.93223055E-01 0.51983165E+03</pdfrwt>
<totfact> 0.47163630E+00</totfact>
</mgrwt>
</event>
<event>
 4    1  0.1852677E-008  0.4980994E+03  0.7818608E-02  0.1014276E+00
         -1   -1    0    0    0  501 -0.00000000000E+00  0.00000000000E+00  0.24469986426E+03  0.24469986431E+03  0.50400000000E-02 0.  1.
          1   -1    0    0  501    0  0.00000000000E+00 -0.00000000000E+00 -0.13978225951E+04  0.13978225951E+04  0.50400000000E-02 0. -1.
    8880022    1    1    2    0    0  0.15758983464E+03 -0.44707582764E+03 -0.10069620369E+04  0.11234213584E+04  0.15294330000E+03 0.  0.
    8880022    1    1    2    0    0 -0.15758983464E+03  0.44707582764E+03 -0.14616069393E+03  0.51910110105E+03  0.15294330000E+03 0.  0.
<mgrwt>
<rscale>  0 0.49809939E+03</rscale>
<asrwt>0</asrwt>
<pdfrwt beam="1">  1        1 0.21504963E+00 0.49809939E+03</pdfrwt>
<pdfrwt beam="2">  1       -1 0.37646134E-01 0.49809939E+03</pdfrwt>
<totfact> 0.55615395E+01</totfact>
</mgrwt>
</event>
<event>
 4    1  0.1852677E-008  0.2973145E+03  0.7818608E-02  0.1086591E+00
         -1   -1    0    0    0  501 -0.00000000000E+00  0.00000000000E+00  0.43627294064E+03  0.43627294067E+03  0.50400000000E-02 0.  1.
          1   -1    0    0  501    0  0.00000000000E+00 -0.00000000000E+00 -0.35907499208E+03  0.35907499212E+03  0.50400000000E-02 0. -1.
    8880022    1    1    2    0    0  0.23551398475E+03  0.97659674852E+02 -0.22390432670E+03  0.37219490812E+03  0.15294330000E+03 0.  0.
    8880022    1    1    2    0    0 -0.23551398475E+03 -0.97659674852E+02  0.30110227525E+03  0.42315302467E+03  0.15294330000E+03 0.  0.
<mgrwt>
<rscale>  0 0.29731448E+03</rscale>
<asrwt>0</asrwt>
<pdfrwt beam="1">  1        1 0.55242306E-01 0.29731448E+03</pdfrwt>
<pdfrwt beam="2">  1       -1 0.67118914E-01 0.29731448E+03</pdfrwt>
<totfact> 0.16344681E+02</totfact>
</mgrwt>
</event>
<event>
 4    1  0.1852677E-008  0.6430043E+03  0.7818608E-02  0.9819995E-01
          1   -1    0    0  501    0  0.00000000000E+00  0.00000000000E+00  0.60436312509E+03  0.60436312511E+03  0.50400000000E-02 0. -1.
         -1   -1    0    0    0  501 -0.00000000000E+00 -0.00000000000E+00 -0.73157441452E+03  0.73157441454E+03  0.50400000000E-02 0.  1.
    8880022    1    1    2    0    0  0.93486454230E+02  0.61751366595E+03  0.10652533772E+03  0.65176847527E+03  0.15294330000E+03 0.  0.
    8880022    1    1    2    0    0 -0.93486454230E+02 -0.61751366595E+03 -0.23373662715E+03  0.68416906438E+03  0.15294330000E+03 0.  0.
<mgrwt>
<rscale>  0 0.64300428E+03</rscale>
<asrwt>0</asrwt>
<pdfrwt beam="1">  1        1 0.92978942E-01 0.64300428E+03</pdfrwt>
<pdfrwt beam="2">  1       -1 0.11254991E+00 0.64300428E+03</pdfrwt>
<totfact> 0.25417078E+01</totfact>
</mgrwt>
</event>
<event>
 4    1  0.1852677E-008  0.7891716E+03  0.7818608E-02  0.9575824E-01
         -1   -1    0    0    0  501 -0.00000000000E+00  0.00000000000E+00  0.11404576457E+04  0.11404576457E+04  0.50400000000E-02 0.  1.
          1   -1    0    0  501    0  0.00000000000E+00 -0.00000000000E+00 -0.17014090684E+04  0.17014090684E+04  0.50400000000E-02 0. -1.
    8880022    1    1    2    0    0  0.28270763176E+03  0.72074716680E+03  0.89042599024E+03  0.11898109852E+04  0.15294330000E+03 0.  1.
    8880022    1    1    2    0    0 -0.28270763176E+03 -0.72074716680E+03 -0.14513774129E+04  0.16520557288E+04  0.15294330000E+03 0.  0.
<mgrwt>
<rscale>  0 0.78917155E+03</rscale>
<asrwt>0</asrwt>
<pdfrwt beam="1">  1        1 0.26175524E+00 0.78917155E+03</pdfrwt>
<pdfrwt beam="2">  1       -1 0.17545502E+00 0.78917155E+03</pdfrwt>
<totfact> 0.11160864E+00</totfact>
</mgrwt>
</event>
<event>
 4    1  0.1852677E-008  0.1692186E+03  0.7818608E-02  0.1178665E+00
          1   -1    0    0  501    0  0.00000000000E+00  0.00000000000E+00  0.37637052436E+03  0.37637052439E+03  0.50400000000E-02 0. -1.
         -1   -1    0    0    0  501 -0.00000000000E+00 -0.00000000000E+00 -0.15407516764E+03  0.15407516772E+03  0.50400000000E-02 0.  1.
    8880022    1    1    2    0    0 -0.72410482069E+02 -0.22189640075E-01  0.29984839875E+03  0.34430218364E+03  0.15294330000E+03 0.  0.
    8880022    1    1    2    0    0  0.72410482069E+02  0.22189640075E-01 -0.77553042029E+02  0.18614350848E+03  0.15294330000E+03 0.  1.
<mgrwt>
<rscale>  0 0.16921859E+03</rscale>
<asrwt>0</asrwt>
<pdfrwt beam="1">  1        1 0.57903157E-01 0.16921859E+03</pdfrwt>
<pdfrwt beam="2">  1       -1 0.23703872E-01 0.16921859E+03</pdfrwt>
<totfact> 0.99554605E+02</totfact>
</mgrwt>
</event>
<event>
 4    1  0.1852677E-008  0.6798320E+03  0.7818608E-02  0.9752358E-01
          1   -1    0    0  501    0  0.00000000000E+00  0.00000000000E+00  0.36960695510E+04  0.36960695510E+04  0.50400000000E-02 0. -1.
         -1   -1    0    0    0  501 -0.00000000000E+00 -0.00000000000E+00 -0.41325644062E+03  0.41325644065E+03  0.50400000000E-02 0.  1.
    8880022    1    1    2    0    0 -0.50234381598E+03 -0.43177600936E+03 -0.74474234928E+02  0.68389903962E+03  0.15294330000E+03 0.  0.
    8880022    1    1    2    0    0  0.50234381598E+03  0.43177600936E+03  0.33572873453E+04  0.34254269520E+04  0.15294330000E+03 0.  0.
<mgrwt>
<rscale>  0 0.67983195E+03</rscale>
<asrwt>0</asrwt>
<pdfrwt beam="1">  1        1 0.56862608E+00 0.67983195E+03</pdfrwt>
<pdfrwt beam="2">  1       -1 0.63577915E-01 0.67983195E+03</pdfrwt>
<totfact> 0.48941359E-01</totfact>
</mgrwt>
</event>
<event>
 4    1  0.1852677E-008  0.5960652E+03  0.7818608E-02  0.9913603E-01
          1   -1    0    0  501    0  0.00000000000E+00  0.00000000000E+00  0.17461974054E+04  0.17461974054E+04  0.50400000000E-02 0. -1.
         -1   -1    0    0    0  501 -0.00000000000E+00 -0.00000000000E+00 -0.79918670304E+03  0.79918670305E+03  0.50400000000E-02 0.  1.
    8880022    1    1    2    0    0 -0.70233701495E+02 -0.57181233815E+03 -0.62529842300E+03  0.86388187486E+03  0.15294330000E+03 0.  0.
    8880022    1    1    2    0    0  0.70233701495E+02  0.57181233815E+03  0.15723091253E+04  0.16815022336E+04  0.15294330000E+03 0. -1.
<mgrwt>
<rscale>  0 0.59606524E+03</rscale>
<asrwt>0</asrwt>
<pdfrwt beam="1">  1        1 0.26864575E+00 0.59606524E+03</pdfrwt>
<pdfrwt beam="2">  1       -1 0.12295180E+00 0.59606524E+03</pdfrwt>
<totfact> 0.27993921E+00</totfact>
</mgrwt>
</event>
<event>
 4    1  0.1852677E-008  0.6593155E+03  0.7818608E-02  0.9789455E-01
         -1   -1    0    0    0  501 -0.00000000000E+00  0.00000000000E+00  0.31077610262E+03  0.31077610266E+03  0.50400000000E-02 0.  1.
          1   -1    0    0  501    0  0.00000000000E+00 -0.00000000000E+00 -0.23732953252E+04  0.23732953252E+04  0.50400000000E-02 0. -1.
    8880022    1    1    2    0    0  0.63772946044E+03 -0.67870637837E+02 -0.17127631759E+03  0.68119932338E+03  0.15294330000E+03 0.  0.
    8880022    1    1    2    0    0 -0.63772946044E+03  0.67870637837E+02 -0.18912429050E+04  0.20028721044E+04  0.15294330000E+03 0.  0.
<mgrwt>
<rscale>  0 0.65931551E+03</rscale>
<asrwt>0</asrwt>
<pdfrwt beam="1">  1        1 0.36512235E+00 0.65931551E+03</pdfrwt>
<pdfrwt beam="2">  1       -1 0.47811710E-01 0.65931551E+03</pdfrwt>
<totfact> 0.77574400E+00</totfact>
</mgrwt>
</event>
<event>
 4    1  0.1852677E-008  0.5801013E+03  0.7818608E-02  0.9947572E-01
         -1   -1    0    0    0  501 -0.00000000000E+00  0.00000000000E+00  0.49436067465E+03  0.49436067468E+03  0.50400000000E-02 0.  1.
          1   -1    0    0  501    0  0.00000000000E+00 -0.00000000000E+00 -0.83590742757E+03  0.83590742758E+03  0.50400000000E-02 0. -1.
    8880022    1    1    2    0    0  0.55603518186E+03  0.62854777109E+02 -0.45736851967E+03  0.73871744413E+03  0.15294330000E+03 0.  0.
    8880022    1    1    2    0    0 -0.55603518186E+03 -0.62854777109E+02  0.11582176675E+03  0.59155065813E+03  0.15294330000E+03 0.  0.
<mgrwt>
<rscale>  0 0.58010128E+03</rscale>
<asrwt>0</asrwt>
<pdfrwt beam="1">  1        1 0.12860114E+00 0.58010128E+03</pdfrwt>
<pdfrwt beam="2">  1       -1 0.76055489E-01 0.58010128E+03</pdfrwt>
<totfact> 0.37353251E+01</totfact>
</mgrwt>
</event>
<event>
 4    1  0.1852677E-008  0.7087440E+03  0.7818608E-02  0.9702395E-01
         -1   -1    0    0    0  501 -0.00000000000E+00  0.00000000000E+00  0.19384425475E+04  0.19384425475E+04  0.50400000000E-02 0.  1.
          1   -1    0    0  501    0  0.00000000000E+00 -0.00000000000E+00 -0.65896173562E+03  0.65896173564E+03  0.50400000000E-02 0. -1.
    8880022    1    1    2    0    0 -0.60170636138E+03 -0.34187102831E+03 -0.37187506155E+03  0.80038057182E+03  0.15294330000E+03 0.  0.
    8880022    1    1    2    0    0  0.60170636138E+03  0.34187102831E+03  0.16513558734E+04  0.17970237113E+04  0.15294330000E+03 0.  0.
<mgrwt>
<rscale>  0 0.70874396E+03</rscale>
<asrwt>0</asrwt>
<pdfrwt beam="1">  1        1 0.10137873E+00 0.70874396E+03</pdfrwt>
<pdfrwt beam="2">  1       -1 0.29822193E+00 0.70874396E+03</pdfrwt>
<totfact> 0.10770806E+00</totfact>
</mgrwt>
</event>
<event>
 4    1  0.1852677E-008  0.4473645E+03  0.7818608E-02  0.1028511E+00
         -1   -1    0    0    0  501 -0.00000000000E+00  0.00000000000E+00  0.76412872681E+03  0.76412872683E+03  0.50400000000E-02 0.  1.
          1   -1    0    0  501    0  0.00000000000E+00 -0.00000000000E+00 -0.45828944414E+03  0.45828944416E+03  0.50400000000E-02 0. -1.
    8880022    1    1    2    0    0  0.42009770663E+03 -0.16163778594E+02 -0.24717701535E+03  0.51110809110E+03  0.15294330000E+03 0.  0.
    8880022    1    1    2    0    0 -0.42009770663E+03  0.16163778594E+02  0.55301629802E+03  0.71131007989E+03  0.15294330000E+03 0.  0.
<mgrwt>
<rscale>  0 0.44736451E+03</rscale>
<asrwt>0</asrwt>
<pdfrwt beam="1">  1        1 0.70506069E-01 0.44736451E+03</pdfrwt>
<pdfrwt beam="2">  1       -1 0.11755827E+00 0.44736451E+03</pdfrwt>
<totfact> 0.34488732E+01</totfact>
</mgrwt>
</event>
<event>
 4    1  0.1852677E-008  0.9786727E+03  0.7818608E-02  0.9332250E-01
          1   -1    0    0  501    0  0.00000000000E+00  0.00000000000E+00  0.10584327975E+04  0.10584327975E+04  0.50400000000E-02 0. -1.
         -1   -1    0    0    0  501 -0.00000000000E+00 -0.00000000000E+00 -0.10488322522E+04  0.10488322522E+04  0.50400000000E-02 0.  1.
    8880022    1    1    2    0    0 -0.96630241095E+03 -0.25850987038E+02 -0.38548339409E+03  0.10518544210E+04  0.15294330000E+03 0.  0.
    8880022    1    1    2    0    0  0.96630241095E+03  0.25850987038E+02  0.39508393937E+03  0.10554106287E+04  0.15294330000E+03 0.  0.
<mgrwt>
<rscale>  0 0.97867271E+03</rscale>
<asrwt>0</asrwt>
<pdfrwt beam="1">  1        1 0.16283582E+00 0.97867271E+03</pdfrwt>
<pdfrwt beam="2">  1       -1 0.16135881E+00 0.97867271E+03</pdfrwt>
<totfact> 0.39131655E+00</totfact>
</mgrwt>
</event>
<event>
 4    1  0.1852677E-008  0.4586482E+03  0.7818608E-02  0.1025174E+00
         -1   -1    0    0    0  501 -0.00000000000E+00  0.00000000000E+00  0.34103898788E+03  0.34103898791E+03  0.50400000000E-02 0.  1.
          1   -1    0    0  501    0  0.00000000000E+00 -0.00000000000E+00 -0.22738848555E+04  0.22738848556E+04  0.50400000000E-02 0. -1.
    8880022    1    1    2    0    0 -0.12624548231E+03  0.41355600790E+03 -0.20825538883E+04  0.21324607486E+04  0.15294330000E+03 0. -1.
    8880022    1    1    2    0    0  0.12624548231E+03 -0.41355600790E+03  0.14970802064E+03  0.48246309489E+03  0.15294330000E+03 0.  0.
<mgrwt>
<rscale>  0 0.45864817E+03</rscale>
<asrwt>0</asrwt>
<pdfrwt beam="1">  1        1 0.34982843E+00 0.45864817E+03</pdfrwt>
<pdfrwt beam="2">  1       -1 0.52467538E-01 0.45864817E+03</pdfrwt>
<totfact> 0.79547516E+00</totfact>
</mgrwt>
</event>
<event>
 4    1  0.1852677E-008  0.2302456E+03  0.7818608E-02  0.1126467E+00
         -1   -1    0    0    0  501 -0.00000000000E+00  0.00000000000E+00  0.52724562959E+03  0.52724562961E+03  0.50400000000E-02 0.  1.
          1   -1    0    0  501    0  0.00000000000E+00 -0.00000000000E+00 -0.22592415807E+03  0.22592415813E+03  0.50400000000E-02 0. -1.
    8880022    1    1    2    0    0 -0.36074633873E+02  0.16828550961E+03 -0.12987649853E+03  0.26435005171E+03  0.15294330000E+03 0.  0.
    8880022    1    1    2    0    0  0.36074633873E+02 -0.16828550961E+03  0.43119797004E+03  0.48881973603E+03  0.15294330000E+03 0.  1.
<mgrwt>
<rscale>  0 0.23024562E+03</rscale>
<asrwt>0</asrwt>
<pdfrwt beam="1">  1        1 0.34757563E-01 0.23024562E+03</pdfrwt>
<pdfrwt beam="2">  1       -1 0.81114711E-01 0.23024562E+03</pdfrwt>
<totfact> 0.20131046E+02</totfact>
</mgrwt>
</event>
<event>
 4    1  0.1852677E-008  0.2955592E+03  0.7818608E-02  0.1087482E+00
          1   -1    0    0  501    0  0.00000000000E+00  0.00000000000E+00  0.52489311233E+03  0.52489311236E+03  0.50400000000E-02 0. -1.
         -1   -1    0    0    0  501 -0.00000000000E+00 -0.00000000000E+00 -0.10101130735E+04  0.10101130735E+04  0.50400000000E-02 0.  1.
    8880022    1    1    2    0    0 -0.25048075023E+03 -0.34970932866E+02  0.45882294430E+03  0.54577808642E+03  0.15294330000E+03 0.  0.
    8880022    1    1    2    0    0  0.25048075023E+03  0.34970932866E+02 -0.94404290548E+03  0.98922809947E+03  0.15294330000E+03 0.  0.
<mgrwt>
<rscale>  0 0.29555917E+03</rscale>
<asrwt>0</asrwt>
<pdfrwt beam="1">  1        1 0.80752786E-01 0.29555917E+03</pdfrwt>
<pdfrwt beam="2">  1       -1 0.15540201E+00 0.29555917E+03</pdfrwt>
<totfact> 0.14674265E+01</totfact>
</mgrwt>
</event>
<event>
 4    1  0.1852677E-008  0.9034878E+03  0.7818608E-02  0.9421232E-01
         -1   -1    0    0    0  501 -0.00000000000E+00  0.00000000000E+00  0.13354513513E+04  0.13354513513E+04  0.50400000000E-02 0.  1.
          1   -1    0    0  501    0  0.00000000000E+00 -0.00000000000E+00 -0.10690778865E+04  0.10690778865E+04  0.50400000000E-02 0. -1.
    8880022    1    1    2    0    0 -0.88931813533E+03 -0.44852285013E+02 -0.65358385706E+03  0.11151062660E+04  0.15294330000E+03 0.  0.
    8880022    1    1    2    0    0  0.88931813533E+03  0.44852285013E+02  0.91995732185E+03  0.12894229718E+04  0.15294330000E+03 0.  0.
<mgrwt>
<rscale>  0 0.90348776E+03</rscale>
<asrwt>0</asrwt>
<pdfrwt beam="1">  1        1 0.16447352E+00 0.90348776E+03</pdfrwt>
<pdfrwt beam="2">  1       -1 0.20545405E+00 0.90348776E+03</pdfrwt>
<totfact> 0.18819716E+00</totfact>
</mgrwt>
</event>
<event>
 4    1  0.1852677E-008  0.1082522E+04  0.7818608E-02  0.9222397E-01
          1   -1    0    0  501    0  0.00000000000E+00  0.00000000000E+00  0.24697759996E+04  0.24697759996E+04  0.50400000000E-02 0. -1.
         -1   -1    0    0    0  501 -0.00000000000E+00 -0.00000000000E+00 -0.11559830661E+04  0.11559830661E+04  0.50400000000E-02 0.  1.
    8880022    1    1    2    0    0  0.90732545305E+03  0.57028267058E+03  0.20488600488E+04  0.23172572051E+04  0.15294330000E+03 0. -1.
    8880022    1    1    2    0    0 -0.90732545305E+03 -0.57028267058E+03 -0.73506711530E+03  0.13085018606E+04  0.15294330000E+03 0.  0.
<mgrwt>
<rscale>  0 0.10825218E+04</rscale>
<asrwt>0</asrwt>
<pdfrwt beam="1">  1        1 0.37996554E+00 0.10825218E+04</pdfrwt>
<pdfrwt beam="2">  1       -1 0.17784355E+00 0.10825218E+04</pdfrwt>
<totfact> 0.30791752E-01</totfact>
</mgrwt>
</event>
<event>
 4    1  0.1852677E-008  0.3551224E+03  0.7818608E-02  0.1060532E+00
         -1   -1    0    0    0  501 -0.00000000000E+00  0.00000000000E+00  0.12698749710E+04  0.12698749710E+04  0.50400000000E-02 0.  1.
          1   -1    0    0  501    0  0.00000000000E+00 -0.00000000000E+00 -0.16699738633E+04  0.16699738633E+04  0.50400000000E-02 0. -1.
    8880022    1    1    2    0    0 -0.26578591881E+03 -0.17910368510E+03 -0.16255970413E+04  0.16639343973E+04  0.15294330000E+03 0.  0.
    8880022    1    1    2    0    0  0.26578591881E+03  0.17910368510E+03  0.12254981490E+04  0.12759144371E+04  0.15294330000E+03 0.  0.
<mgrwt>
<rscale>  0 0.35512243E+03</rscale>
<asrwt>0</asrwt>
<pdfrwt beam="1">  1        1 0.25691906E+00 0.35512243E+03</pdfrwt>
<pdfrwt beam="2">  1       -1 0.19536538E+00 0.35512243E+03</pdfrwt>
<totfact> 0.96771613E-01</totfact>
</mgrwt>
</event>
<event>
 4    1  0.1852677E-008  0.4582122E+03  0.7818608E-02  0.1025301E+00
         -1   -1    0    0    0  501 -0.00000000000E+00  0.00000000000E+00  0.24090379660E+03  0.24090379665E+03  0.50400000000E-02 0.  1.
          1   -1    0    0  501    0  0.00000000000E+00 -0.00000000000E+00 -0.14364036998E+04  0.14364036998E+04  0.50400000000E-02 0. -1.
    8880022    1    1    2    0    0  0.55573408799E+02  0.42834369791E+03 -0.11236637140E+04  0.12134984642E+04  0.15294330000E+03 0.  0.
    8880022    1    1    2    0    0 -0.55573408799E+02 -0.42834369791E+03 -0.71836189121E+02  0.46380903224E+03  0.15294330000E+03 0.  0.
<mgrwt>
<rscale>  0 0.45821216E+03</rscale>
<asrwt>0</asrwt>
<pdfrwt beam="1">  1        1 0.22098518E+00 0.45821216E+03</pdfrwt>
<pdfrwt beam="2">  1       -1 0.37062123E-01 0.45821216E+03</pdfrwt>
<totfact> 0.54182112E+01</totfact>
</mgrwt>
</event>
<event>
 4    1  0.1852677E-008  0.1143680E+04  0.7818608E-02  0.9163634E-01
          1   -1    0    0  501    0  0.00000000000E+00  0.00000000000E+00  0.13303501305E+04  0.13303501305E+04  0.50400000000E-02 0. -1.
         -1   -1    0    0    0  501 -0.00000000000E+00 -0.00000000000E+00 -0.12888832639E+04  0.12888832639E+04  0.50400000000E-02 0.  1.
    8880022    1    1    2    0    0  0.11077312106E+04  0.23988330480E+03 -0.61704700124E+03  0.12995195611E+04  0.15294330000E+03 0.  0.
    8880022    1    1    2    0    0 -0.11077312106E+04 -0.23988330480E+03  0.65851386778E+03  0.13197138333E+04  0.15294330000E+03 0.  0.
<mgrwt>
<rscale>  0 0.11436801E+04</rscale>
<asrwt>0</asrwt>
<pdfrwt beam="1">  1        1 0.20466925E+00 0.11436801E+04</pdfrwt>
<pdfrwt beam="2">  1       -1 0.19828973E+00 0.11436801E+04</pdfrwt>
<totfact> 0.13131578E+00</totfact>
</mgrwt>
</event>
<event>
 4    1  0.1852677E-008  0.3666411E+03  0.7818608E-02  0.1055985E+00
         -1   -1    0    0    0  501 -0.00000000000E+00  0.00000000000E+00  0.17267447490E+03  0.17267447497E+03  0.50400000000E-02 0.  1.
          1   -1    0    0  501    0  0.00000000000E+00 -0.00000000000E+00 -0.11232316775E+04  0.11232316775E+04  0.50400000000E-02 0. -1.
    8880022    1    1    2    0    0 -0.38506032061E+01  0.33319544282E+03 -0.11631156334E+03  0.38464797288E+03  0.15294330000E+03 0.  0.
    8880022    1    1    2    0    0  0.38506032061E+01 -0.33319544282E+03 -0.83424563928E+03  0.91125817963E+03  0.15294330000E+03 0.  0.
<mgrwt>
<rscale>  0 0.36664108E+03</rscale>
<asrwt>0</asrwt>
<pdfrwt beam="1">  1        1 0.17280487E+00 0.36664108E+03</pdfrwt>
<pdfrwt beam="2">  1       -1 0.26565305E-01 0.36664108E+03</pdfrwt>
<totfact> 0.16221718E+02</totfact>
</mgrwt>
</event>
<event>
 4    1  0.1852677E-008  0.4756982E+03  0.7818608E-02  0.1020324E+00
         -1   -1    0    0    0  501 -0.00000000000E+00  0.00000000000E+00  0.13342576931E+04  0.13342576931E+04  0.50400000000E-02 0.  1.
          1   -1    0    0  501    0  0.00000000000E+00 -0.00000000000E+00 -0.40003554461E+03  0.40003554465E+03  0.50400000000E-02 0. -1.
    8880022    1    1    2    0    0  0.98763075718E+02 -0.43948037838E+03  0.11252520030E+04  0.12216713435E+04  0.15294330000E+03 0.  0.
    8880022    1    1    2    0    0 -0.98763075718E+02  0.43948037838E+03 -0.19102985459E+03  0.51262189425E+03  0.15294330000E+03 0.  0.
<mgrwt>
<rscale>  0 0.47569822E+03</rscale>
<asrwt>0</asrwt>
<pdfrwt beam="1">  1        1 0.61543930E-01 0.47569822E+03</pdfrwt>
<pdfrwt beam="2">  1       -1 0.20527042E+00 0.47569822E+03</pdfrwt>
<totfact> 0.89592654E+00</totfact>
</mgrwt>
</event>
<event>
 4    1  0.1852677E-008  0.6238272E+03  0.7818608E-02  0.9857169E-01
         -1   -1    0    0    0  501 -0.00000000000E+00  0.00000000000E+00  0.23440625288E+03  0.23440625293E+03  0.50400000000E-02 0.  1.
          1   -1    0    0  501    0  0.00000000000E+00 -0.00000000000E+00 -0.26522097448E+04  0.26522097448E+04  0.50400000000E-02 0. -1.
    8880022    1    1    2    0    0 -0.58930794242E+03 -0.13595904994E+03 -0.20916032959E+04  0.21826508458E+04  0.15294330000E+03 0.  0.
    8880022    1    1    2    0    0  0.58930794242E+03  0.13595904994E+03 -0.32620019604E+03  0.70396515196E+03  0.15294330000E+03 0.  0.
<mgrwt>
<rscale>  0 0.62382719E+03</rscale>
<asrwt>0</asrwt>
<pdfrwt beam="1">  1        1 0.40803225E+00 0.62382719E+03</pdfrwt>
<pdfrwt beam="2">  1       -1 0.36062502E-01 0.62382719E+03</pdfrwt>
<totfact> 0.84432660E+00</totfact>
</mgrwt>
</event>
<event>
 4    1  0.1852677E-008  0.4079399E+03  0.7818608E-02  0.1041065E+00
          1   -1    0    0  501    0  0.00000000000E+00  0.00000000000E+00  0.88713103387E+03  0.88713103389E+03  0.50400000000E-02 0. -1.
         -1   -1    0    0    0  501 -0.00000000000E+00 -0.00000000000E+00 -0.39178376974E+03  0.39178376978E+03  0.50400000000E-02 0.  1.
    8880022    1    1    2    0    0 -0.19228867766E+03  0.32565074871E+03  0.70932266892E+03  0.81826257848E+03  0.15294330000E+03 0.  0.
    8880022    1    1    2    0    0  0.19228867766E+03 -0.32565074871E+03 -0.21397540479E+03  0.46065222518E+03  0.15294330000E+03 0.  0.
<mgrwt>
<rscale>  0 0.40793994E+03</rscale>
<asrwt>0</asrwt>
<pdfrwt beam="1">  1        1 0.13648170E+00 0.40793994E+03</pdfrwt>
<pdfrwt beam="2">  1       -1 0.60274426E-01 0.40793994E+03</pdfrwt>
<totfact> 0.55572633E+01</totfact>
</mgrwt>
</event>
<event>
 4    1  0.1852677E-008  0.1296769E+04  0.7818608E-02  0.9032132E-01
          1   -1    0    0  501    0  0.00000000000E+00  0.00000000000E+00  0.10972897002E+04  0.10972897002E+04  0.50400000000E-02 0. -1.
         -1   -1    0    0    0  501 -0.00000000000E+00 -0.00000000000E+00 -0.16298954251E+04  0.16298954252E+04  0.50400000000E-02 0.  1.
    8880022    1    1    2    0    0 -0.76519462004E+03 -0.10357095525E+04 -0.59961344128E+03  0.14286864651E+04  0.15294330000E+03 0.  0.
    8880022    1    1    2    0    0  0.76519462004E+03  0.10357095525E+04  0.67007716305E+02  0.12984986602E+04  0.15294330000E+03 0.  0.
<mgrwt>
<rscale>  0 0.12967686E+04</rscale>
<asrwt>0</asrwt>
<pdfrwt beam="1">  1        1 0.16881380E+00 0.12967686E+04</pdfrwt>
<pdfrwt beam="2">  1       -1 0.25075314E+00 0.12967686E+04</pdfrwt>
<totfact> 0.85228125E-01</totfact>
</mgrwt>
</event>
<event>
 4    1  0.1852677E-008  0.4178701E+03  0.7818608E-02  0.1037762E+00
          1   -1    0    0  501    0  0.00000000000E+00  0.00000000000E+00  0.70386327173E+03  0.70386327175E+03  0.50400000000E-02 0. -1.
         -1   -1    0    0    0  501 -0.00000000000E+00 -0.00000000000E+00 -0.27267629757E+03  0.27267629761E+03  0.50400000000E-02 0.  1.
    8880022    1    1    2    0    0 -0.28637742790E+03  0.26308129233E+03  0.68951663383E+02  0.42352069900E+03  0.15294330000E+03 0.  1.
    8880022    1    1    2    0    0  0.28637742790E+03 -0.26308129233E+03  0.36223531078E+03  0.55301887036E+03  0.15294330000E+03 0. -1.
<mgrwt>
<rscale>  0 0.41787014E+03</rscale>
<asrwt>0</asrwt>
<pdfrwt beam="1">  1        1 0.10828665E+00 0.41787014E+03</pdfrwt>
<pdfrwt beam="2">  1       -1 0.41950201E-01 0.41787014E+03</pdfrwt>
<totfact> 0.15721576E+02</totfact>
</mgrwt>
</event>
<event>
 4    1  0.1852677E-008  0.6752484E+03  0.7818608E-02  0.9760523E-01
         -1   -1    0    0    0  501 -0.00000000000E+00  0.00000000000E+00  0.30287571644E+03  0.30287571648E+03  0.50400000000E-02 0.  1.
          1   -1    0    0  501    0  0.00000000000E+00 -0.00000000000E+00 -0.22844321671E+04  0.22844321671E+04  0.50400000000E-02 0. -1.
    8880022    1    1    2    0    0  0.43278029576E+03  0.49524733920E+03 -0.17462118548E+04  0.18722222641E+04  0.15294330000E+03 0.  0.
    8880022    1    1    2    0    0 -0.43278029576E+03 -0.49524733920E+03 -0.23534459590E+03  0.71508561950E+03  0.15294330000E+03 0.  0.
<mgrwt>
<rscale>  0 0.67524837E+03</rscale>
<asrwt>0</asrwt>
<pdfrwt beam="1">  1        1 0.35145109E+00 0.67524837E+03</pdfrwt>
<pdfrwt beam="2">  1       -1 0.46596266E-01 0.67524837E+03</pdfrwt>
<totfact> 0.93145397E+00</totfact>
</mgrwt>
</event>
<event>
 4    1  0.1852677E-008  0.6565380E+03  0.7818608E-02  0.9794588E-01
         -1   -1    0    0    0  501 -0.00000000000E+00  0.00000000000E+00  0.54230527512E+03  0.54230527515E+03  0.50400000000E-02 0.  1.
          1   -1    0    0  501    0  0.00000000000E+00 -0.00000000000E+00 -0.15421308284E+04  0.15421308284E+04  0.50400000000E-02 0. -1.
    8880022    1    1    2    0    0 -0.61217617700E+03  0.18135814218E+03 -0.12254252056E+04  0.13902190600E+04  0.15294330000E+03 0.  0.
    8880022    1    1    2    0    0  0.61217617700E+03 -0.18135814218E+03  0.22559965228E+03  0.69421704354E+03  0.15294330000E+03 0.  0.
<mgrwt>
<rscale>  0 0.65653797E+03</rscale>
<asrwt>0</asrwt>
<pdfrwt beam="1">  1        1 0.23725089E+00 0.65653797E+03</pdfrwt>
<pdfrwt beam="2">  1       -1 0.83431582E-01 0.65653797E+03</pdfrwt>
<totfact> 0.92035182E+00</totfact>
</mgrwt>
</event>
<event>
 4    1  0.1852677E-008  0.6900074E+03  0.7818608E-02  0.9734475E-01
          1   -1    0    0  501    0  0.00000000000E+00  0.00000000000E+00  0.13482258794E+04  0.13482258794E+04  0.50400000000E-02 0. -1.
         -1   -1    0    0    0  501 -0.00000000000E+00 -0.00000000000E+00 -0.63708604662E+03  0.63708604664E+03  0.50400000000E-02 0.  1.
    8880022    1    1    2    0    0 -0.57562435506E+03  0.34838934786E+03  0.10182729001E+04  0.12300365393E+04  0.15294330000E+03 0.  0.
    8880022    1    1    2    0    0  0.57562435506E+03 -0.34838934786E+03 -0.30713306731E+03  0.75527538679E+03  0.15294330000E+03 0.  0.
<mgrwt>
<rscale>  0 0.69000738E+03</rscale>
<asrwt>0</asrwt>
<pdfrwt beam="1">  1        1 0.20741937E+00 0.69000738E+03</pdfrwt>
<pdfrwt beam="2">  1       -1 0.98013238E-01 0.69000738E+03</pdfrwt>
<totfact> 0.87302346E+00</totfact>
</mgrwt>
</event>
<event>
 4    1  0.1852677E-008  0.6198837E+03  0.7818608E-02  0.9864991E-01
         -1   -1    0    0    0  501 -0.00000000000E+00  0.00000000000E+00  0.29555572581E+03  0.29555572585E+03  0.50400000000E-02 0.  1.
          1   -1    0    0  501    0  0.00000000000E+00 -0.00000000000E+00 -0.34037637833E+04  0.34037637833E+04  0.50400000000E-02 0. -1.
    8880022    1    1    2    0    0 -0.59880540200E+03 -0.47919050655E+02 -0.99988276784E+02  0.62789605301E+03  0.15294330000E+03 0.  0.
    8880022    1    1    2    0    0  0.59880540200E+03  0.47919050655E+02 -0.30082197807E+04  0.30714234561E+04  0.15294330000E+03 0.  0.
<mgrwt>
<rscale>  0 0.61988370E+03</rscale>
<asrwt>0</asrwt>
<pdfrwt beam="1">  1        1 0.52365594E+00 0.61988370E+03</pdfrwt>
<pdfrwt beam="2">  1       -1 0.45470114E-01 0.61988370E+03</pdfrwt>
<totfact> 0.15988886E+00</totfact>
</mgrwt>
</event>
<event>
 4    1  0.1852677E-008  0.2280041E+03  0.7818608E-02  0.1128052E+00
          1   -1    0    0  501    0  0.00000000000E+00  0.00000000000E+00  0.14533942011E+03  0.14533942019E+03  0.50400000000E-02 0. -1.
         -1   -1    0    0    0  501 -0.00000000000E+00 -0.00000000000E+00 -0.53580747593E+03  0.53580747595E+03  0.50400000000E-02 0.  1.
    8880022    1    1    2    0    0 -0.74133749432E+02 -0.15198159939E+03 -0.39159925020E+03  0.45313998403E+03  0.15294330000E+03 0.  0.
    8880022    1    1    2    0    0  0.74133749432E+02  0.15198159939E+03  0.11311943775E+01  0.22800691212E+03  0.15294330000E+03 0. -1.
<mgrwt>
<rscale>  0 0.22800411E+03</rscale>
<asrwt>0</asrwt>
<pdfrwt beam="1">  1        1 0.22359911E-01 0.22800411E+03</pdfrwt>
<pdfrwt beam="2">  1       -1 0.82431918E-01 0.22800411E+03</pdfrwt>
<totfact> 0.34057544E+02</totfact>
</mgrwt>
</event>
<event>
 4    1  0.1852677E-008  0.3150674E+03  0.7818608E-02  0.1077942E+00
         -1   -1    0    0    0  501 -0.00000000000E+00  0.00000000000E+00  0.11798574434E+03  0.11798574445E+03  0.50400000000E-02 0.  1.
          1   -1    0    0  501    0  0.00000000000E+00 -0.00000000000E+00 -0.18958802469E+04  0.18958802470E+04  0.50400000000E-02 0. -1.
    8880022    1    1    2    0    0 -0.24241293322E+03 -0.13081197780E+03 -0.16399203482E+04  0.16699120351E+04  0.15294330000E+03 0.  0.
    8880022    1    1    2    0    0  0.24241293322E+03  0.13081197780E+03 -0.13797415445E+03  0.34395395628E+03  0.15294330000E+03 0.  0.
<mgrwt>
<rscale>  0 0.31506738E+03</rscale>
<asrwt>0</asrwt>
<pdfrwt beam="1">  1        1 0.29167386E+00 0.31506738E+03</pdfrwt>
<pdfrwt beam="2">  1       -1 0.18151654E-01 0.31506738E+03</pdfrwt>
<totfact> 0.92691119E+01</totfact>
</mgrwt>
</event>
<event>
 4    1  0.1852677E-008  0.8018621E+03  0.7818608E-02  0.9557326E-01
          1   -1    0    0  501    0  0.00000000000E+00  0.00000000000E+00  0.29251193170E+04  0.29251193170E+04  0.50400000000E-02 0. -1.
         -1   -1    0    0    0  501 -0.00000000000E+00 -0.00000000000E+00 -0.51398349564E+03  0.51398349566E+03  0.50400000000E-02 0.  1.
    8880022    1    1    2    0    0 -0.43004631958E+03 -0.65928091354E+03  0.25064538943E+04  0.26315953217E+04  0.15294330000E+03 0.  0.
    8880022    1    1    2    0    0  0.43004631958E+03  0.65928091354E+03 -0.95318072913E+02  0.80750749098E+03  0.15294330000E+03 0.  0.
<mgrwt>
<rscale>  0 0.80186209E+03</rscale>
<asrwt>0</asrwt>
<pdfrwt beam="1">  1        1 0.45001836E+00 0.80186209E+03</pdfrwt>
<pdfrwt beam="2">  1       -1 0.79074383E-01 0.80186209E+03</pdfrwt>
<totfact> 0.11532287E+00</totfact>
</mgrwt>
</event>
<event>
 4    1  0.1852677E-008  0.6914969E+03  0.7818608E-02  0.9731885E-01
         -1   -1    0    0    0  501 -0.00000000000E+00  0.00000000000E+00  0.75647129085E+03  0.75647129087E+03  0.50400000000E-02 0.  1.
          1   -1    0    0  501    0  0.00000000000E+00 -0.00000000000E+00 -0.18407672727E+04  0.18407672727E+04  0.50400000000E-02 0. -1.
    8880022    1    1    2    0    0 -0.14238733807E+03 -0.65916778265E+03 -0.15944374005E+04  0.17379293993E+04  0.15294330000E+03 0.  0.
    8880022    1    1    2    0    0  0.14238733807E+03  0.65916778265E+03  0.51014141868E+03  0.85930916427E+03  0.15294330000E+03 0.  0.
<mgrwt>
<rscale>  0 0.69149691E+03</rscale>
<asrwt>0</asrwt>
<pdfrwt beam="1">  1        1 0.28319496E+00 0.69149691E+03</pdfrwt>
<pdfrwt beam="2">  1       -1 0.11638020E+00 0.69149691E+03</pdfrwt>
<totfact> 0.27085276E+00</totfact>
</mgrwt>
</event>
<event>
 4    1  0.1852677E-008  0.3650895E+03  0.7818608E-02  0.1056587E+00
          1   -1    0    0  501    0  0.00000000000E+00  0.00000000000E+00  0.22538858537E+04  0.22538858538E+04  0.50400000000E-02 0. -1.
         -1   -1    0    0    0  501 -0.00000000000E+00 -0.00000000000E+00 -0.21780827531E+03  0.21780827537E+03  0.50400000000E-02 0.  1.
    8880022    1    1    2    0    0  0.30318469925E+03 -0.13408095016E+03 -0.36773840592E+02  0.36693682211E+03  0.15294330000E+03 0.  1.
    8880022    1    1    2    0    0 -0.30318469925E+03  0.13408095016E+03  0.20728514190E+04  0.21047573070E+04  0.15294330000E+03 0.  0.
<mgrwt>
<rscale>  0 0.36508946E+03</rscale>
<asrwt>0</asrwt>
<pdfrwt beam="1">  1        1 0.34675167E+00 0.36508946E+03</pdfrwt>
<pdfrwt beam="2">  1       -1 0.33508965E-01 0.36508946E+03</pdfrwt>
<totfact> 0.19024719E+01</totfact>
</mgrwt>
</event>
<event>
 4    1  0.1852677E-008  0.1733154E+03  0.7818608E-02  0.1174434E+00
         -1   -1    0    0    0  501 -0.00000000000E+00  0.00000000000E+00  0.50777718059E+03  0.50777718062E+03  0.50400000000E-02 0.  1.
          1   -1    0    0  501    0  0.00000000000E+00 -0.00000000000E+00 -0.58273836736E+03  0.58273836738E+03  0.50400000000E-02 0. -1.
    8880022    1    1    2    0    0 -0.57113788929E+02 -0.58177174520E+02 -0.55432216653E+03  0.58078505994E+03  0.15294330000E+03 0.  0.
    8880022    1    1    2    0    0  0.57113788929E+02  0.58177174520E+02  0.47936097976E+03  0.50973048806E+03  0.15294330000E+03 0.  1.
<mgrwt>
<rscale>  0 0.17331538E+03</rscale>
<asrwt>0</asrwt>
<pdfrwt beam="1">  1        1 0.89652056E-01 0.17331538E+03</pdfrwt>
<pdfrwt beam="2">  1       -1 0.78119567E-01 0.17331538E+03</pdfrwt>
<totfact> 0.65440321E+01</totfact>
</mgrwt>
</event>
<event>
 4    1  0.1852677E-008  0.3945937E+03  0.7818608E-02  0.1045668E+00
          1   -1    0    0  501    0  0.00000000000E+00  0.00000000000E+00  0.82289952168E+03  0.82289952169E+03  0.50400000000E-02 0. -1.
         -1   -1    0    0    0  501 -0.00000000000E+00 -0.00000000000E+00 -0.10128022366E+04  0.10128022366E+04  0.50400000000E-02 0.  1.
    8880022    1    1    2    0    0  0.25747588842E+02  0.36283551261E+03  0.73273317793E+03  0.83222719891E+03  0.15294330000E+03 0.  0.
    8880022    1    1    2    0    0 -0.25747588842E+02 -0.36283551261E+03 -0.92263589284E+03  0.10034745594E+04  0.15294330000E+03 0.  1.
<mgrwt>
<rscale>  0 0.39459372E+03</rscale>
<asrwt>0</asrwt>
<pdfrwt beam="1">  1        1 0.12659993E+00 0.39459372E+03</pdfrwt>
<pdfrwt beam="2">  1       -1 0.15581573E+00 0.39459372E+03</pdfrwt>
<totfact> 0.73649524E+00</totfact>
</mgrwt>
</event>
<event>
 4    1  0.1852677E-008  0.2155003E+03  0.7818608E-02  0.1137283E+00
         -1   -1    0    0    0  501 -0.00000000000E+00  0.00000000000E+00  0.82414653921E+02  0.82414654075E+02  0.50400000000E-02 0.  1.
          1   -1    0    0  501    0  0.00000000000E+00 -0.00000000000E+00 -0.16426779777E+04  0.16426779777E+04  0.50400000000E-02 0. -1.
    8880022    1    1    2    0    0  0.72261916851E+00 -0.15181640662E+03 -0.14792543264E+04  0.14948691443E+04  0.15294330000E+03 0.  0.
    8880022    1    1    2    0    0 -0.72261916851E+00  0.15181640662E+03 -0.81008997362E+02  0.23022348743E+03  0.15294330000E+03 0.  1.
<mgrwt>
<rscale>  0 0.21550034E+03</rscale>
<asrwt>0</asrwt>
<pdfrwt beam="1">  1        1 0.25271966E+00 0.21550034E+03</pdfrwt>
<pdfrwt beam="2">  1       -1 0.12679179E-01 0.21550034E+03</pdfrwt>
<totfact> 0.24594945E+02</totfact>
</mgrwt>
</event>
<event>
 4    1  0.1852677E-008  0.3384680E+03  0.7818608E-02  0.1067450E+00
          1   -1    0    0  501    0  0.00000000000E+00  0.00000000000E+00  0.13402190387E+04  0.13402190387E+04  0.50400000000E-02 0. -1.
         -1   -1    0    0    0  501 -0.00000000000E+00 -0.00000000000E+00 -0.12194563341E+03  0.12194563351E+03  0.50400000000E-02 0.  1.
    8880022    1    1    2    0    0 -0.30185753087E+03 -0.71379736215E+01  0.20934751271E+03  0.39797858448E+03  0.15294330000E+03 0.  0.
    8880022    1    1    2    0    0  0.30185753087E+03  0.71379736215E+01  0.10089258926E+04  0.10641860877E+04  0.15294330000E+03 0.  1.
<mgrwt>
<rscale>  0 0.33846798E+03</rscale>
<asrwt>0</asrwt>
<pdfrwt beam="1">  1        1 0.20618754E+00 0.33846798E+03</pdfrwt>
<pdfrwt beam="2">  1       -1 0.18760867E-01 0.33846798E+03</pdfrwt>
<totfact> 0.20428580E+02</totfact>
</mgrwt>
</event>
<event>
 4    1  0.1852677E-008  0.8569525E+03  0.7818608E-02  0.9481053E-01
         -1   -1    0    0    0  501 -0.00000000000E+00  0.00000000000E+00  0.18273325252E+04  0.18273325252E+04  0.50400000000E-02 0.  1.
          1   -1    0    0  501    0  0.00000000000E+00 -0.00000000000E+00 -0.11129884283E+04  0.11129884283E+04  0.50400000000E-02 0. -1.
    8880022    1    1    2    0    0 -0.12688258084E+03 -0.83359267679E+03 -0.81796215149E+03  0.11846643720E+04  0.15294330000E+03 0.  0.
    8880022    1    1    2    0    0  0.12688258084E+03  0.83359267679E+03  0.15323062484E+04  0.17556565814E+04  0.15294330000E+03 0.  0.
<mgrwt>
<rscale>  0 0.85695250E+03</rscale>
<asrwt>0</asrwt>
<pdfrwt beam="1">  1        1 0.17122899E+00 0.85695250E+03</pdfrwt>
<pdfrwt beam="2">  1       -1 0.28112808E+00 0.85695250E+03</pdfrwt>
<totfact> 0.56282204E-01</totfact>
</mgrwt>
</event>
<event>
 4    1  0.1852677E-008  0.5112929E+03  0.7818608E-02  0.1010873E+00
          1   -1    0    0  501    0  0.00000000000E+00  0.00000000000E+00  0.22954262634E+04  0.22954262634E+04  0.50400000000E-02 0. -1.
         -1   -1    0    0    0  501 -0.00000000000E+00 -0.00000000000E+00 -0.26662051309E+03  0.26662051314E+03  0.50400000000E-02 0.  1.
    8880022    1    1    2    0    0  0.10033882712E+03 -0.47745246854E+03  0.44838348784E+02  0.51325517093E+03  0.15294330000E+03 0.  0.
    8880022    1    1    2    0    0 -0.10033882712E+03  0.47745246854E+03  0.19839674015E+04  0.20487916056E+04  0.15294330000E+03 0.  0.
<mgrwt>
<rscale>  0 0.51129286E+03</rscale>
<asrwt>0</asrwt>
<pdfrwt beam="1">  1        1 0.35314250E+00 0.51129286E+03</pdfrwt>
<pdfrwt beam="2">  1       -1 0.41018541E-01 0.51129286E+03</pdfrwt>
<totfact> 0.11977604E+01</totfact>
</mgrwt>
</event>
<event>
 4    1  0.1852677E-008  0.1912934E+03  0.7818608E-02  0.1157300E+00
         -1   -1    0    0    0  501 -0.00000000000E+00  0.00000000000E+00  0.22673720126E+03  0.22673720132E+03  0.50400000000E-02 0.  1.
          1   -1    0    0  501    0  0.00000000000E+00 -0.00000000000E+00 -0.72704457013E+03  0.72704457014E+03  0.50400000000E-02 0. -1.
    8880022    1    1    2    0    0 -0.57009046135E+02  0.99757198357E+02 -0.67079704944E+03  0.69753986590E+03  0.15294330000E+03 0. -1.
    8880022    1    1    2    0    0  0.57009046135E+02 -0.99757198357E+02  0.17048968058E+03  0.25624190556E+03  0.15294330000E+03 0.  0.
<mgrwt>
<rscale>  0 0.19129345E+03</rscale>
<asrwt>0</asrwt>
<pdfrwt beam="1">  1        1 0.11185301E+00 0.19129345E+03</pdfrwt>
<pdfrwt beam="2">  1       -1 0.34882647E-01 0.19129345E+03</pdfrwt>
<totfact> 0.21450942E+02</totfact>
</mgrwt>
</event>
<event>
 4    1  0.1852677E-008  0.3336938E+03  0.7818608E-02  0.1069514E+00
         -1   -1    0    0    0  501 -0.00000000000E+00  0.00000000000E+00  0.31951640490E+03  0.31951640494E+03  0.50400000000E-02 0.  1.
          1   -1    0    0  501    0  0.00000000000E+00 -0.00000000000E+00 -0.12266995464E+04  0.12266995464E+04  0.50400000000E-02 0. -1.
    8880022    1    1    2    0    0 -0.23637804166E+03 -0.17912373213E+03  0.20054374523E+03  0.38931906806E+03  0.15294330000E+03 0.  0.
    8880022    1    1    2    0    0  0.23637804166E+03  0.17912373213E+03 -0.11077268867E+04  0.11568968833E+04  0.15294330000E+03 0. -1.
<mgrwt>
<rscale>  0 0.33369379E+03</rscale>
<asrwt>0</asrwt>
<pdfrwt beam="1">  1        1 0.18872300E+00 0.33369379E+03</pdfrwt>
<pdfrwt beam="2">  1       -1 0.49156371E-01 0.33369379E+03</pdfrwt>
<totfact> 0.46436739E+01</totfact>
</mgrwt>
</event>
<event>
 4    1  0.1852677E-008  0.1349446E+04  0.7818608E-02  0.8991247E-01
         -1   -1    0    0    0  501 -0.00000000000E+00  0.00000000000E+00  0.98150000545E+03  0.98150000547E+03  0.50400000000E-02 0.  1.
          1   -1    0    0  501    0  0.00000000000E+00 -0.00000000000E+00 -0.27051650711E+04  0.27051650711E+04  0.50400000000E-02 0. -1.
    8880022    1    1    2    0    0 -0.10352093790E+04  0.85202990887E+03 -0.18950089254E+04  0.23263842985E+04  0.15294330000E+03 0.  0.
    8880022    1    1    2    0    0  0.10352093790E+04 -0.85202990887E+03  0.17134385966E+03  0.13602807781E+04  0.15294330000E+03 0.  0.
<mgrwt>
<rscale>  0 0.13494462E+04</rscale>
<asrwt>0</asrwt>
<pdfrwt beam="1">  1        1 0.41617924E+00 0.13494462E+04</pdfrwt>
<pdfrwt beam="2">  1       -1 0.15100000E+00 0.13494462E+04</pdfrwt>
<totfact> 0.32298609E-01</totfact>
</mgrwt>
</event>
<event>
 4    1  0.1852677E-008  0.4661656E+03  0.7818608E-02  0.1023008E+00
          1   -1    0    0  501    0  0.00000000000E+00  0.00000000000E+00  0.10678517147E+04  0.10678517147E+04  0.50400000000E-02 0. -1.
         -1   -1    0    0    0  501 -0.00000000000E+00 -0.00000000000E+00 -0.30743244797E+03  0.30743244802E+03  0.50400000000E-02 0.  1.
    8880022    1    1    2    0    0 -0.25706249794E+03  0.35754386163E+03  0.78002376896E+03  0.90870648396E+03  0.15294330000E+03 0.  0.
    8880022    1    1    2    0    0  0.25706249794E+03 -0.35754386163E+03 -0.19604502192E+02  0.46657767881E+03  0.15294330000E+03 0.  0.
<mgrwt>
<rscale>  0 0.46616563E+03</rscale>
<asrwt>0</asrwt>
<pdfrwt beam="1">  1        1 0.16428488E+00 0.46616563E+03</pdfrwt>
<pdfrwt beam="2">  1       -1 0.47297300E-01 0.46616563E+03</pdfrwt>
<totfact> 0.63304727E+01</totfact>
</mgrwt>
</event>
<event>
 4    1  0.1852677E-008  0.2215991E+03  0.7818608E-02  0.1132696E+00
         -1   -1    0    0    0  501 -0.00000000000E+00  0.00000000000E+00  0.56351109917E+03  0.56351109920E+03  0.50400000000E-02 0.  1.
          1   -1    0    0  501    0  0.00000000000E+00 -0.00000000000E+00 -0.46720391424E+03  0.46720391426E+03  0.50400000000E-02 0. -1.
    8880022    1    1    2    0    0  0.10617336641E+01 -0.16035395075E+03  0.51297042901E+03  0.55878871754E+03  0.15294330000E+03 0.  1.
    8880022    1    1    2    0    0 -0.10617336641E+01  0.16035395075E+03 -0.41666324407E+03  0.47192629592E+03  0.15294330000E+03 0.  0.
<mgrwt>
<rscale>  0 0.22159912E+03</rscale>
<asrwt>0</asrwt>
<pdfrwt beam="1">  1        1 0.71877526E-01 0.22159912E+03</pdfrwt>
<pdfrwt beam="2">  1       -1 0.86694015E-01 0.22159912E+03</pdfrwt>
<totfact> 0.69741003E+01</totfact>
</mgrwt>
</event>
<event>
 4    1  0.1852677E-008  0.3354629E+03  0.7818608E-02  0.1068745E+00
          1   -1    0    0  501    0  0.00000000000E+00  0.00000000000E+00  0.57486585885E+03  0.57486585887E+03  0.50400000000E-02 0. -1.
         -1   -1    0    0    0  501 -0.00000000000E+00 -0.00000000000E+00 -0.41963206216E+03  0.41963206219E+03  0.50400000000E-02 0.  1.
    8880022    1    1    2    0    0  0.29296245369E+02  0.29712859403E+03  0.44081218539E+03  0.55394106833E+03  0.15294330000E+03 0.  0.
    8880022    1    1    2    0    0 -0.29296245369E+02 -0.29712859403E+03 -0.28557838870E+03  0.44055685273E+03  0.15294330000E+03 0.  0.
<mgrwt>
<rscale>  0 0.33546285E+03</rscale>
<asrwt>0</asrwt>
<pdfrwt beam="1">  1        1 0.88440901E-01 0.33546285E+03</pdfrwt>
<pdfrwt beam="2">  1       -1 0.64558779E-01 0.33546285E+03</pdfrwt>
<totfact> 0.94206742E+01</totfact>
</mgrwt>
</event>
<event>
 4    1  0.1852677E-008  0.4564033E+03  0.7818608E-02  0.1025830E+00
          1   -1    0    0  501    0  0.00000000000E+00  0.00000000000E+00  0.42785069384E+03  0.42785069387E+03  0.50400000000E-02 0. -1.
         -1   -1    0    0    0  501 -0.00000000000E+00 -0.00000000000E+00 -0.62451490447E+03  0.62451490449E+03  0.50400000000E-02 0.  1.
    8880022    1    1    2    0    0 -0.41297750771E+03  0.11984101910E+03  0.14870320730E+03  0.48001727949E+03  0.15294330000E+03 0.  0.
    8880022    1    1    2    0    0  0.41297750771E+03 -0.11984101910E+03 -0.34536741793E+03  0.57234831888E+03  0.15294330000E+03 0.  0.
<mgrwt>
<rscale>  0 0.45640327E+03</rscale>
<asrwt>0</asrwt>
<pdfrwt beam="1">  1        1 0.65823183E-01 0.45640327E+03</pdfrwt>
<pdfrwt beam="2">  1       -1 0.96079216E-01 0.45640327E+03</pdfrwt>
<totfact> 0.60095822E+01</totfact>
</mgrwt>
</event>
<event>
 4    1  0.1852677E-008  0.6118927E+03  0.7818608E-02  0.9881035E-01
          1   -1    0    0  501    0  0.00000000000E+00  0.00000000000E+00  0.74663663138E+03  0.74663663140E+03  0.50400000000E-02 0. -1.
         -1   -1    0    0    0  501 -0.00000000000E+00 -0.00000000000E+00 -0.91302467677E+03  0.91302467678E+03  0.50400000000E-02 0.  1.
    8880022    1    1    2    0    0 -0.56714443373E+03 -0.17137173091E+03 -0.64033384999E+03  0.88568627138E+03  0.15294330000E+03 0.  0.
    8880022    1    1    2    0    0  0.56714443373E+03  0.17137173091E+03  0.47394580461E+03  0.77397503680E+03  0.15294330000E+03 0.  0.
<mgrwt>
<rscale>  0 0.61189275E+03</rscale>
<asrwt>0</asrwt>
<pdfrwt beam="1">  1        1 0.11486717E+00 0.61189275E+03</pdfrwt>
<pdfrwt beam="2">  1       -1 0.14046533E+00 0.61189275E+03</pdfrwt>
<totfact> 0.10775062E+01</totfact>
</mgrwt>
</event>
<event>
 4    1  0.1852677E-008  0.3394833E+03  0.7818608E-02  0.1067016E+00
          1   -1    0    0  501    0  0.00000000000E+00  0.00000000000E+00  0.29149899650E+03  0.29149899654E+03  0.50400000000E-02 0. -1.
         -1   -1    0    0    0  501 -0.00000000000E+00 -0.00000000000E+00 -0.11258953179E+04  0.11258953179E+04  0.50400000000E-02 0.  1.
    8880022    1    1    2    0    0  0.23496640877E+03  0.19143670458E+03  0.15366290185E+03  0.37264079961E+03  0.15294330000E+03 0.  0.
    8880022    1    1    2    0    0 -0.23496640877E+03 -0.19143670458E+03 -0.98805922328E+03  0.10447535149E+04  0.15294330000E+03 0.  1.
<mgrwt>
<rscale>  0 0.33948325E+03</rscale>
<asrwt>0</asrwt>
<pdfrwt beam="1">  1        1 0.44846000E-01 0.33948325E+03</pdfrwt>
<pdfrwt beam="2">  1       -1 0.17321466E+00 0.33948325E+03</pdfrwt>
<totfact> 0.23077394E+01</totfact>
</mgrwt>
</event>
<event>
 4    1  0.1852677E-008  0.9059678E+03  0.7818608E-02  0.9418152E-01
          1   -1    0    0  501    0  0.00000000000E+00  0.00000000000E+00  0.20159173486E+04  0.20159173486E+04  0.50400000000E-02 0. -1.
         -1   -1    0    0    0  501 -0.00000000000E+00 -0.00000000000E+00 -0.49127068302E+03  0.49127068305E+03  0.50400000000E-02 0.  1.
    8880022    1    1    2    0    0  0.64350905202E+03 -0.61909775369E+03  0.12810659592E+04  0.15690467085E+04  0.15294330000E+03 0.  0.
    8880022    1    1    2    0    0 -0.64350905202E+03  0.61909775369E+03  0.24358070639E+03  0.93814132315E+03  0.15294330000E+03 0.  0.
<mgrwt>
<rscale>  0 0.90596776E+03</rscale>
<asrwt>0</asrwt>
<pdfrwt beam="1">  1        1 0.31014112E+00 0.90596776E+03</pdfrwt>
<pdfrwt beam="2">  1       -1 0.75580106E-01 0.90596776E+03</pdfrwt>
<totfact> 0.52388021E+00</totfact>
</mgrwt>
</event>
<event>
 4    1  0.1852677E-008  0.2301490E+03  0.7818608E-02  0.1126535E+00
          1   -1    0    0  501    0  0.00000000000E+00  0.00000000000E+00  0.20229044274E+04  0.20229044275E+04  0.50400000000E-02 0. -1.
         -1   -1    0    0    0  501 -0.00000000000E+00 -0.00000000000E+00 -0.53526880881E+02  0.53526881118E+02  0.50400000000E-02 0.  1.
    8880022    1    1    2    0    0  0.12672377508E+03  0.11626681671E+03  0.24266032638E+03  0.33444367964E+03  0.15294330000E+03 0.  0.
    8880022    1    1    2    0    0 -0.12672377508E+03 -0.11626681671E+03  0.17267172202E+04  0.17419876289E+04  0.15294330000E+03 0.  0.
<mgrwt>
<rscale>  0 0.23014895E+03</rscale>
<asrwt>0</asrwt>
<pdfrwt beam="1">  1        1 0.31121609E+00 0.23014895E+03</pdfrwt>
<pdfrwt beam="2">  1       -1 0.82349040E-02 0.23014895E+03</pdfrwt>
<totfact> 0.27118935E+02</totfact>
</mgrwt>
</event>
<event>
 4    1  0.1852677E-008  0.8324977E+03  0.7818608E-02  0.9514134E-01
         -1   -1    0    0    0  501 -0.00000000000E+00  0.00000000000E+00  0.44380330339E+03  0.44380330341E+03  0.50400000000E-02 0.  1.
          1   -1    0    0  501    0  0.00000000000E+00 -0.00000000000E+00 -0.19240353303E+04  0.19240353303E+04  0.50400000000E-02 0. -1.
    8880022    1    1    2    0    0 -0.75201068121E+03  0.32270837057E+03 -0.22628718527E+03  0.86270406300E+03  0.15294330000E+03 0.  0.
    8880022    1    1    2    0    0  0.75201068121E+03 -0.32270837057E+03 -0.12539448417E+04  0.15051345708E+04  0.15294330000E+03 0.  0.
<mgrwt>
<rscale>  0 0.83249769E+03</rscale>
<asrwt>0</asrwt>
<pdfrwt beam="1">  1        1 0.29600543E+00 0.83249769E+03</pdfrwt>
<pdfrwt beam="2">  1       -1 0.68277432E-01 0.83249769E+03</pdfrwt>
<totfact> 0.75274546E+00</totfact>
</mgrwt>
</event>
<event>
 4    1  0.1852677E-008  0.6574476E+03  0.7818608E-02  0.9792904E-01
          1   -1    0    0  501    0  0.00000000000E+00  0.00000000000E+00  0.23465285760E+04  0.23465285760E+04  0.50400000000E-02 0. -1.
         -1   -1    0    0    0  501 -0.00000000000E+00 -0.00000000000E+00 -0.63425289573E+03  0.63425289575E+03  0.50400000000E-02 0.  1.
    8880022    1    1    2    0    0 -0.35793234292E+03  0.52983976436E+03  0.21115874595E+04  0.22115693501E+04  0.15294330000E+03 0.  0.
    8880022    1    1    2    0    0  0.35793234292E+03 -0.52983976436E+03 -0.39931177927E+03  0.76921212165E+03  0.15294330000E+03 0.  0.
<mgrwt>
<rscale>  0 0.65744763E+03</rscale>
<asrwt>0</asrwt>
<pdfrwt beam="1">  1        1 0.36100441E+00 0.65744763E+03</pdfrwt>
<pdfrwt beam="2">  1       -1 0.97577365E-01 0.65744763E+03</pdfrwt>
<totfact> 0.18877815E+00</totfact>
</mgrwt>
</event>
<event>
 4    1  0.1852677E-008  0.5810504E+03  0.7818608E-02  0.9945519E-01
         -1   -1    0    0    0  501 -0.00000000000E+00  0.00000000000E+00  0.19223668109E+03  0.19223668116E+03  0.50400000000E-02 0.  1.
          1   -1    0    0  501    0  0.00000000000E+00 -0.00000000000E+00 -0.23500012608E+04  0.23500012608E+04  0.50400000000E-02 0. -1.
    8880022    1    1    2    0    0 -0.31086545015E+03 -0.46646611224E+03 -0.43996164354E+03  0.72882498775E+03  0.15294330000E+03 0.  0.
    8880022    1    1    2    0    0  0.31086545015E+03  0.46646611224E+03 -0.17178029362E+04  0.18134129543E+04  0.15294330000E+03 0.  0.
<mgrwt>
<rscale>  0 0.58105044E+03</rscale>
<asrwt>0</asrwt>
<pdfrwt beam="1">  1        1 0.36153863E+00 0.58105044E+03</pdfrwt>
<pdfrwt beam="2">  1       -1 0.29574876E-01 0.58105044E+03</pdfrwt>
<totfact> 0.19357147E+01</totfact>
</mgrwt>
</event>
<event>
 4    1  0.1852677E-008  0.8151661E+03  0.7818608E-02  0.9538321E-01
          1   -1    0    0  501    0  0.00000000000E+00  0.00000000000E+00  0.21366318951E+04  0.21366318951E+04  0.50400000000E-02 0. -1.
         -1   -1    0    0    0  501 -0.00000000000E+00 -0.00000000000E+00 -0.49581813473E+03  0.49581813476E+03  0.50400000000E-02 0.  1.
    8880022    1    1    2    0    0  0.54667554456E+03  0.58502132226E+03  0.16807763311E+02  0.81533934803E+03  0.15294330000E+03 0.  0.
    8880022    1    1    2    0    0 -0.54667554456E+03 -0.58502132226E+03  0.16240059970E+04  0.18171106818E+04  0.15294330000E+03 0.  0.
<mgrwt>
<rscale>  0 0.81516609E+03</rscale>
<asrwt>0</asrwt>
<pdfrwt beam="1">  1        1 0.32871260E+00 0.81516609E+03</pdfrwt>
<pdfrwt beam="2">  1       -1 0.76279713E-01 0.81516609E+03</pdfrwt>
<totfact> 0.43233961E+00</totfact>
</mgrwt>
</event>
<event>
 4    1  0.1852677E-008  0.8657925E+03  0.7818608E-02  0.9469382E-01
          1   -1    0    0  501    0  0.00000000000E+00  0.00000000000E+00  0.12820879691E+04  0.12820879692E+04  0.50400000000E-02 0. -1.
         -1   -1    0    0    0  501 -0.00000000000E+00 -0.00000000000E+00 -0.83006635681E+03  0.83006635682E+03  0.50400000000E-02 0.  1.
    8880022    1    1    2    0    0  0.47716580621E+03  0.70605797530E+03  0.80022568136E+03  0.11789647430E+04  0.15294330000E+03 0.  0.
    8880022    1    1    2    0    0 -0.47716580621E+03 -0.70605797530E+03 -0.34820406902E+03  0.93318958299E+03  0.15294330000E+03 0.  0.
<mgrwt>
<rscale>  0 0.86579254E+03</rscale>
<asrwt>0</asrwt>
<pdfrwt beam="1">  1        1 0.19724430E+00 0.86579254E+03</pdfrwt>
<pdfrwt beam="2">  1       -1 0.12770252E+00 0.86579254E+03</pdfrwt>
<totfact> 0.50469416E+00</totfact>
</mgrwt>
</event>
<event>
 4    1  0.1852677E-008  0.2914451E+03  0.7818608E-02  0.1089597E+00
         -1   -1    0    0    0  501 -0.00000000000E+00  0.00000000000E+00  0.27363888046E+03  0.27363888051E+03  0.50400000000E-02 0.  1.
          1   -1    0    0  501    0  0.00000000000E+00 -0.00000000000E+00 -0.25308421940E+04  0.25308421940E+04  0.50400000000E-02 0. -1.
    8880022    1    1    2    0    0 -0.23647517507E+03  0.75020405281E+02 -0.24420371571E+04  0.24593669306E+04  0.15294330000E+03 0.  0.
    8880022    1    1    2    0    0  0.23647517507E+03 -0.75020405281E+02  0.18483384352E+03  0.34511414396E+03  0.15294330000E+03 0.  1.
<mgrwt>
<rscale>  0 0.29144506E+03</rscale>
<asrwt>0</asrwt>
<pdfrwt beam="1">  1        1 0.38936032E+00 0.29144506E+03</pdfrwt>
<pdfrwt beam="2">  1       -1 0.42098291E-01 0.29144506E+03</pdfrwt>
<totfact> 0.85533541E+00</totfact>
</mgrwt>
</event>
<event>
 4    1  0.1852677E-008  0.7189636E+03  0.7818608E-02  0.9685340E-01
          1   -1    0    0  501    0  0.00000000000E+00  0.00000000000E+00  0.18052487432E+04  0.18052487432E+04  0.50400000000E-02 0. -1.
         -1   -1    0    0    0  501 -0.00000000000E+00 -0.00000000000E+00 -0.50154671511E+03  0.50154671514E+03  0.50400000000E-02 0.  1.
    8880022    1    1    2    0    0  0.29175834099E+03 -0.63905714723E+03 -0.10368440789E+03  0.72640145679E+03  0.15294330000E+03 0.  0.
    8880022    1    1    2    0    0 -0.29175834099E+03  0.63905714723E+03  0.14073864360E+04  0.15803940016E+04  0.15294330000E+03 0.  0.
<mgrwt>
<rscale>  0 0.71896357E+03</rscale>
<asrwt>0</asrwt>
<pdfrwt beam="1">  1        1 0.27773058E+00 0.71896357E+03</pdfrwt>
<pdfrwt beam="2">  1       -1 0.77161032E-01 0.71896357E+03</pdfrwt>
<totfact> 0.71466960E+00</totfact>
</mgrwt>
</event>
<event>
 4    1  0.1852677E-008  0.3012282E+03  0.7818608E-02  0.1084628E+00
          1   -1    0    0  501    0  0.00000000000E+00  0.00000000000E+00  0.25223274384E+04  0.25223274384E+04  0.50400000000E-02 0. -1.
         -1   -1    0    0    0  501 -0.00000000000E+00 -0.00000000000E+00 -0.72773807846E+02  0.72773808021E+02  0.50400000000E-02 0.  1.
    8880022    1    1    2    0    0 -0.17437552025E+03  0.19219767354E+03  0.21474736632E+04  0.21684975340E+04  0.15294330000E+03 0.  0.
    8880022    1    1    2    0    0  0.17437552025E+03 -0.19219767354E+03  0.30207996738E+03  0.42660371246E+03  0.15294330000E+03 0.  0.
<mgrwt>
<rscale>  0 0.30122819E+03</rscale>
<asrwt>0</asrwt>
<pdfrwt beam="1">  1        1 0.38805035E+00 0.30122819E+03</pdfrwt>
<pdfrwt beam="2">  1       -1 0.11195971E-01 0.30122819E+03</pdfrwt>
<totfact> 0.77794795E+01</totfact>
</mgrwt>
</event>
<event>
 4    1  0.1852677E-008  0.4818640E+03  0.7818608E-02  0.1018624E+00
         -1   -1    0    0    0  501 -0.00000000000E+00  0.00000000000E+00  0.18316617136E+03  0.18316617143E+03  0.50400000000E-02 0.  1.
          1   -1    0    0  501    0  0.00000000000E+00 -0.00000000000E+00 -0.23922883459E+04  0.23922883459E+04  0.50400000000E-02 0. -1.
    8880022    1    1    2    0    0  0.41826563603E+03 -0.18399765187E+03 -0.22164158480E+03  0.53039412073E+03  0.15294330000E+03 0.  0.
    8880022    1    1    2    0    0 -0.41826563603E+03  0.18399765187E+03 -0.19874805897E+04  0.20450603966E+04  0.15294330000E+03 0.  0.
<mgrwt>
<rscale>  0 0.48186402E+03</rscale>
<asrwt>0</asrwt>
<pdfrwt beam="1">  1        1 0.36804434E+00 0.48186402E+03</pdfrwt>
<pdfrwt beam="2">  1       -1 0.28179413E-01 0.48186402E+03</pdfrwt>
<totfact> 0.20123179E+01</totfact>
</mgrwt>
</event>
<event>
 4    1  0.1852677E-008  0.6720058E+03  0.7818608E-02  0.9766341E-01
          1   -1    0    0  501    0  0.00000000000E+00  0.00000000000E+00  0.20003337742E+04  0.20003337742E+04  0.50400000000E-02 0. -1.
         -1   -1    0    0    0  501 -0.00000000000E+00 -0.00000000000E+00 -0.31983855006E+03  0.31983855010E+03  0.50400000000E-02 0.  1.
    8880022    1    1    2    0    0 -0.57075186047E+03  0.32006626394E+03  0.21106848796E+03  0.70437323854E+03  0.15294330000E+03 0.  0.
    8880022    1    1    2    0    0  0.57075186047E+03 -0.32006626394E+03  0.14694267361E+04  0.16157990857E+04  0.15294330000E+03 0.  0.
<mgrwt>
<rscale>  0 0.67200577E+03</rscale>
<asrwt>0</asrwt>
<pdfrwt beam="1">  1        1 0.30774366E+00 0.67200577E+03</pdfrwt>
<pdfrwt beam="2">  1       -1 0.49205931E-01 0.67200577E+03</pdfrwt>
<totfact> 0.13031636E+01</totfact>
</mgrwt>
</event>
<event>
 4    1  0.1852677E-008  0.1191248E+04  0.7818608E-02  0.9120552E-01
         -1   -1    0    0    0  501 -0.00000000000E+00  0.00000000000E+00  0.12380398701E+04  0.12380398701E+04  0.50400000000E-02 0.  1.
          1   -1    0    0  501    0  0.00000000000E+00 -0.00000000000E+00 -0.16597671328E+04  0.16597671328E+04  0.50400000000E-02 0. -1.
    8880022    1    1    2    0    0 -0.11511156759E+04  0.26573102725E+03 -0.10168060808E+04  0.15661949231E+04  0.15294330000E+03 0.  0.
    8880022    1    1    2    0    0  0.11511156759E+04 -0.26573102725E+03  0.59507881818E+03  0.13316120798E+04  0.15294330000E+03 0.  0.
<mgrwt>
<rscale>  0 0.11912481E+04</rscale>
<asrwt>0</asrwt>
<pdfrwt beam="1">  1        1 0.25534879E+00 0.11912481E+04</pdfrwt>
<pdfrwt beam="2">  1       -1 0.19046767E+00 0.11912481E+04</pdfrwt>
<totfact> 0.87381548E-01</totfact>
</mgrwt>
</event>
<event>
 4    1  0.2110657E-008  0.4844990E+03  0.7818608E-02  0.1017906E+00
          1   -1    0    0  501    0  0.00000000000E+00  0.00000000000E+00  0.19858204503E+04  0.19858204503E+04  0.50400000000E-02 0. -1.
         -1   -1    0    0    0  501 -0.00000000000E+00 -0.00000000000E+00 -0.13726174751E+04  0.13726174751E+04  0.50400000000E-02 0.  1.
    8880022    1    1    2    0    0  0.17619750140E+03  0.42461985443E+03  0.19118869987E+04  0.19723212541E+04  0.15294330000E+03 0.  0.
    8880022    1    1    2    0    0 -0.17619750140E+03 -0.42461985443E+03 -0.12986840236E+04  0.13861166713E+04  0.15294330000E+03 0.  0.
<mgrwt>
<rscale>  0 0.48449895E+03</rscale>
<asrwt>0</asrwt>
<pdfrwt beam="1">  1        1 0.30551084E+00 0.48449895E+03</pdfrwt>
<pdfrwt beam="2">  1       -1 0.21117192E+00 0.48449895E+03</pdfrwt>
<totfact> 0.44394936E-01</totfact>
</mgrwt>
</event>
<event>
 4    1  0.1852677E-008  0.4593585E+03  0.7818608E-02  0.1024967E+00
         -1   -1    0    0    0  501 -0.00000000000E+00  0.00000000000E+00  0.11561189700E+03  0.11561189711E+03  0.50400000000E-02 0.  1.
          1   -1    0    0  501    0  0.00000000000E+00 -0.00000000000E+00 -0.21406275677E+04  0.21406275677E+04  0.50400000000E-02 0. -1.
    8880022    1    1    2    0    0  0.12274860142E+03  0.41539301703E+03 -0.14455815986E+04  0.15168112569E+04  0.15294330000E+03 0.  0.
    8880022    1    1    2    0    0 -0.12274860142E+03 -0.41539301703E+03 -0.57943407204E+03  0.73942820787E+03  0.15294330000E+03 0.  0.
<mgrwt>
<rscale>  0 0.45935850E+03</rscale>
<asrwt>0</asrwt>
<pdfrwt beam="1">  1        1 0.32932729E+00 0.45935850E+03</pdfrwt>
<pdfrwt beam="2">  1       -1 0.17786447E-01 0.45935850E+03</pdfrwt>
<totfact> 0.64162515E+01</totfact>
</mgrwt>
</event>
<event>
 4    1  0.1852677E-008  0.1015913E+04  0.7818608E-02  0.9291262E-01
          1   -1    0    0  501    0  0.00000000000E+00  0.00000000000E+00  0.21539280544E+04  0.21539280544E+04  0.50400000000E-02 0. -1.
         -1   -1    0    0    0  501 -0.00000000000E+00 -0.00000000000E+00 -0.62269634829E+03  0.62269634831E+03  0.50400000000E-02 0.  1.
    8880022    1    1    2    0    0  0.96860407657E+03 -0.26550514805E+03  0.14321590391E+04  0.17558923677E+04  0.15294330000E+03 0.  0.
    8880022    1    1    2    0    0 -0.96860407657E+03  0.26550514805E+03  0.99072666976E+02  0.10207320349E+04  0.15294330000E+03 0.  0.
<mgrwt>
<rscale>  0 0.10159126E+04</rscale>
<asrwt>0</asrwt>
<pdfrwt beam="1">  1        1 0.33137355E+00 0.10159126E+04</pdfrwt>
<pdfrwt beam="2">  1       -1 0.95799438E-01 0.10159126E+04</pdfrwt>
<totfact> 0.24878698E+00</totfact>
</mgrwt>
</event>
<event>
 4    1  0.1852677E-008  0.4839565E+03  0.7818608E-02  0.1018053E+00
          1   -1    0    0  501    0  0.00000000000E+00  0.00000000000E+00  0.43652135046E+03  0.43652135049E+03  0.50400000000E-02 0. -1.
         -1   -1    0    0    0  501 -0.00000000000E+00 -0.00000000000E+00 -0.15588290046E+04  0.15588290046E+04  0.50400000000E-02 0.  1.
    8880022    1    1    2    0    0  0.45770136175E+03  0.36491992279E+02  0.24677939021E+03  0.54324388860E+03  0.15294330000E+03 0.  0.
    8880022    1    1    2    0    0 -0.45770136175E+03 -0.36491992279E+02 -0.13690870443E+04  0.14521064665E+04  0.15294330000E+03 0.  1.
<mgrwt>
<rscale>  0 0.48395646E+03</rscale>
<asrwt>0</asrwt>
<pdfrwt beam="1">  1        1 0.67157132E-01 0.48395646E+03</pdfrwt>
<pdfrwt beam="2">  1       -1 0.23981984E+00 0.48395646E+03</pdfrwt>
<totfact> 0.47307819E+00</totfact>
</mgrwt>
</event>
<event>
 4    1  0.1852677E-008  0.4426558E+03  0.7818608E-02  0.1029935E+00
         -1   -1    0    0    0  501 -0.00000000000E+00  0.00000000000E+00  0.80912088208E+03  0.80912088210E+03  0.50400000000E-02 0.  1.
          1   -1    0    0  501    0  0.00000000000E+00 -0.00000000000E+00 -0.10827419433E+04  0.10827419433E+04  0.50400000000E-02 0. -1.
    8880022    1    1    2    0    0  0.39651931077E+03 -0.12379408754E+03  0.69664955737E+03  0.82538766572E+03  0.15294330000E+03 0.  0.
    8880022    1    1    2    0    0 -0.39651931077E+03  0.12379408754E+03 -0.97027061858E+03  0.10664751597E+04  0.15294330000E+03 0.  0.
<mgrwt>
<rscale>  0 0.44265584E+03</rscale>
<asrwt>0</asrwt>
<pdfrwt beam="1">  1        1 0.16657568E+00 0.44265584E+03</pdfrwt>
<pdfrwt beam="2">  1       -1 0.12448014E+00 0.44265584E+03</pdfrwt>
<totfact> 0.81088455E+00</totfact>
</mgrwt>
</event>
<event>
 4    1  0.1852677E-008  0.7538138E+03  0.7818608E-02  0.9629386E-01
         -1   -1    0    0    0  501 -0.00000000000E+00  0.00000000000E+00  0.25594861920E+03  0.25594861925E+03  0.50400000000E-02 0.  1.
          1   -1    0    0  501    0  0.00000000000E+00 -0.00000000000E+00 -0.24356717974E+04  0.24356717974E+04  0.50400000000E-02 0. -1.
    8880022    1    1    2    0    0 -0.73807566963E+03  0.93734875005E+01 -0.68949675614E+03  0.10215874833E+04  0.15294330000E+03 0.  0.
    8880022    1    1    2    0    0  0.73807566963E+03 -0.93734875005E+01 -0.14902264221E+04  0.16700329333E+04  0.15294330000E+03 0.  0.
<mgrwt>
<rscale>  0 0.75381378E+03</rscale>
<asrwt>0</asrwt>
<pdfrwt beam="1">  1        1 0.37471872E+00 0.75381378E+03</pdfrwt>
<pdfrwt beam="2">  1       -1 0.39376712E-01 0.75381378E+03</pdfrwt>
<totfact> 0.98987699E+00</totfact>
</mgrwt>
</event>
<event>
 4    1  0.1852677E-008  0.1103383E+04  0.7818608E-02  0.9201900E-01
          1   -1    0    0  501    0  0.00000000000E+00  0.00000000000E+00  0.99553506310E+03  0.99553506311E+03  0.50400000000E-02 0. -1.
         -1   -1    0    0    0  501 -0.00000000000E+00 -0.00000000000E+00 -0.25271416961E+04  0.25271416961E+04  0.50400000000E-02 0.  1.
    8880022    1    1    2    0    0 -0.31407817879E+03  0.10466223554E+04 -0.20311353015E+04  0.23114856096E+04  0.15294330000E+03 0.  0.
    8880022    1    1    2    0    0  0.31407817879E+03 -0.10466223554E+04  0.49952866857E+03  0.12111911496E+04  0.15294330000E+03 0.  0.
<mgrwt>
<rscale>  0 0.11033835E+04</rscale>
<asrwt>0</asrwt>
<pdfrwt beam="1">  1        1 0.15315924E+00 0.11033835E+04</pdfrwt>
<pdfrwt beam="2">  1       -1 0.38879103E+00 0.11033835E+04</pdfrwt>
<totfact> 0.13097999E-01</totfact>
</mgrwt>
</event>
<event>
 4    1  0.1852677E-008  0.7797576E+03  0.7818608E-02  0.9589788E-01
         -1   -1    0    0    0  501 -0.00000000000E+00  0.00000000000E+00  0.48727485580E+03  0.48727485582E+03  0.50400000000E-02 0.  1.
          1   -1    0    0  501    0  0.00000000000E+00 -0.00000000000E+00 -0.14827000934E+04  0.14827000935E+04  0.50400000000E-02 0. -1.
    8880022    1    1    2    0    0 -0.22595239923E+03 -0.73046266307E+03 -0.88976592458E+03  0.11830913923E+04  0.15294330000E+03 0.  0.
    8880022    1    1    2    0    0  0.22595239923E+03  0.73046266307E+03 -0.10565931307E+03  0.78688355702E+03  0.15294330000E+03 0.  0.
<mgrwt>
<rscale>  0 0.77975755E+03</rscale>
<asrwt>0</asrwt>
<pdfrwt beam="1">  1        1 0.22810770E+00 0.77975755E+03</pdfrwt>
<pdfrwt beam="2">  1       -1 0.74965363E-01 0.77975755E+03</pdfrwt>
<totfact> 0.12429831E+01</totfact>
</mgrwt>
</event>
<event>
 4    1  0.1852677E-008  0.8694529E+03  0.7818608E-02  0.9464594E-01
         -1   -1    0    0    0  501 -0.00000000000E+00  0.00000000000E+00  0.16991894935E+04  0.16991894935E+04  0.50400000000E-02 0.  1.
          1   -1    0    0  501    0  0.00000000000E+00 -0.00000000000E+00 -0.83727651150E+03  0.83727651151E+03  0.50400000000E-02 0. -1.
    8880022    1    1    2    0    0  0.74716123530E+03  0.41750055782E+03  0.12991628802E+04  0.15632570069E+04  0.15294330000E+03 0.  0.
    8880022    1    1    2    0    0 -0.74716123530E+03 -0.41750055782E+03 -0.43724989828E+03  0.97320899805E+03  0.15294330000E+03 0.  0.
<mgrwt>
<rscale>  0 0.86945286E+03</rscale>
<asrwt>0</asrwt>
<pdfrwt beam="1">  1        1 0.12881177E+00 0.86945286E+03</pdfrwt>
<pdfrwt beam="2">  1       -1 0.26141377E+00 0.86945286E+03</pdfrwt>
<totfact> 0.12412018E+00</totfact>
</mgrwt>
</event>
<event>
 4    1  0.1852677E-008  0.2201942E+03  0.7818608E-02  0.1133738E+00
          1   -1    0    0  501    0  0.00000000000E+00  0.00000000000E+00  0.33669094391E+04  0.33669094391E+04  0.50400000000E-02 0. -1.
         -1   -1    0    0    0  501 -0.00000000000E+00 -0.00000000000E+00 -0.15718729879E+03  0.15718729887E+03  0.50400000000E-02 0.  1.
    8880022    1    1    2    0    0  0.92950099675E+02 -0.12827358838E+03 -0.74534447638E+02  0.23246692540E+03  0.15294330000E+03 0.  1.
    8880022    1    1    2    0    0 -0.92950099675E+02  0.12827358838E+03  0.32842565879E+04  0.32916298125E+04  0.15294330000E+03 0.  0.
<mgrwt>
<rscale>  0 0.22019420E+03</rscale>
<asrwt>0</asrwt>
<pdfrwt beam="1">  1        1 0.51798599E+00 0.22019420E+03</pdfrwt>
<pdfrwt beam="2">  1       -1 0.24182665E-01 0.22019420E+03</pdfrwt>
<totfact> 0.60476984E+00</totfact>
</mgrwt>
</event>
<event>
 4    1  0.1852677E-008  0.4575941E+03  0.7818608E-02  0.1025481E+00
         -1   -1    0    0    0  501 -0.00000000000E+00  0.00000000000E+00  0.29154932196E+03  0.29154932200E+03  0.50400000000E-02 0.  1.
          1   -1    0    0  501    0  0.00000000000E+00 -0.00000000000E+00 -0.14573129146E+04  0.14573129147E+04  0.50400000000E-02 0. -1.
    8880022    1    1    2    0    0 -0.40185861021E+03 -0.15655781559E+03 -0.12056163418E+04  0.12895360053E+04  0.15294330000E+03 0.  0.
    8880022    1    1    2    0    0  0.40185861021E+03  0.15655781559E+03  0.39852749120E+02  0.45932623139E+03  0.15294330000E+03 0.  0.
<mgrwt>
<rscale>  0 0.45759408E+03</rscale>
<asrwt>0</asrwt>
<pdfrwt beam="1">  1        1 0.22420198E+00 0.45759408E+03</pdfrwt>
<pdfrwt beam="2">  1       -1 0.44853743E-01 0.45759408E+03</pdfrwt>
<totfact> 0.37142594E+01</totfact>
</mgrwt>
</event>
<event>
 4    1  0.1852677E-008  0.1022336E+04  0.7818608E-02  0.9284380E-01
         -1   -1    0    0    0  501 -0.00000000000E+00  0.00000000000E+00  0.54774485201E+03  0.54774485203E+03  0.50400000000E-02 0.  1.
          1   -1    0    0  501    0  0.00000000000E+00 -0.00000000000E+00 -0.19262970430E+04  0.19262970430E+04  0.50400000000E-02 0. -1.
    8880022    1    1    2    0    0 -0.95177825969E+03 -0.34043840388E+03 -0.56916512837E+03  0.11700943376E+04  0.15294330000E+03 0.  0.
    8880022    1    1    2    0    0  0.95177825969E+03  0.34043840388E+03 -0.80938706262E+03  0.13039475575E+04  0.15294330000E+03 0.  0.
<mgrwt>
<rscale>  0 0.10223364E+04</rscale>
<asrwt>0</asrwt>
<pdfrwt beam="1">  1        1 0.29635339E+00 0.10223364E+04</pdfrwt>
<pdfrwt beam="2">  1       -1 0.84268440E-01 0.10223364E+04</pdfrwt>
<totfact> 0.46996117E+00</totfact>
</mgrwt>
</event>
<event>
 4    1  0.1852677E-008  0.4015773E+03  0.7818608E-02  0.1043235E+00
          1   -1    0    0  501    0  0.00000000000E+00  0.00000000000E+00  0.16772462870E+04  0.16772462870E+04  0.50400000000E-02 0. -1.
         -1   -1    0    0    0  501 -0.00000000000E+00 -0.00000000000E+00 -0.40219102016E+03  0.40219102019E+03  0.50400000000E-02 0.  1.
    8880022    1    1    2    0    0 -0.30579060999E+03  0.21062950405E+03  0.15444929822E+04  0.15958455158E+04  0.15294330000E+03 0. -1.
    8880022    1    1    2    0    0  0.30579060999E+03 -0.21062950405E+03 -0.26943771544E+03  0.48359179134E+03  0.15294330000E+03 0.  0.
<mgrwt>
<rscale>  0 0.40157731E+03</rscale>
<asrwt>0</asrwt>
<pdfrwt beam="1">  1        1 0.25803789E+00 0.40157731E+03</pdfrwt>
<pdfrwt beam="2">  1       -1 0.61875541E-01 0.40157731E+03</pdfrwt>
<totfact> 0.14570811E+01</totfact>
</mgrwt>
</event>
<event>
 4    1  0.1852677E-008  0.6406048E+03  0.7818608E-02  0.9824570E-01
         -1   -1    0    0    0  501 -0.00000000000E+00  0.00000000000E+00  0.94350917522E+03  0.94350917524E+03  0.50400000000E-02 0.  1.
          1   -1    0    0  501    0  0.00000000000E+00 -0.00000000000E+00 -0.54577527970E+03  0.54577527972E+03  0.50400000000E-02 0. -1.
    8880022    1    1    2    0    0  0.50011547691E+03  0.36995584115E+03 -0.13669307569E+03  0.65502630833E+03  0.15294330000E+03 0.  0.
    8880022    1    1    2    0    0 -0.50011547691E+03 -0.36995584115E+03  0.53442697121E+03  0.83425814663E+03  0.15294330000E+03 0.  0.
<mgrwt>
<rscale>  0 0.64060477E+03</rscale>
<asrwt>0</asrwt>
<pdfrwt beam="1">  1        1 0.83965430E-01 0.64060477E+03</pdfrwt>
<pdfrwt beam="2">  1       -1 0.14515525E+00 0.64060477E+03</pdfrwt>
<totfact> 0.15565775E+01</totfact>
</mgrwt>
</event>
<event>
 4    1  0.1852677E-008  0.4286304E+03  0.7818608E-02  0.1034293E+00
         -1   -1    0    0    0  501 -0.00000000000E+00  0.00000000000E+00  0.22045885537E+03  0.22045885543E+03  0.50400000000E-02 0.  1.
          1   -1    0    0  501    0  0.00000000000E+00 -0.00000000000E+00 -0.15966480168E+04  0.15966480168E+04  0.50400000000E-02 0. -1.
    8880022    1    1    2    0    0  0.37398774502E+03 -0.14305787308E+03 -0.13162786856E+04  0.13843097990E+04  0.15294330000E+03 0.  0.
    8880022    1    1    2    0    0 -0.37398774502E+03  0.14305787308E+03 -0.59910475843E+02  0.43279707324E+03  0.15294330000E+03 0.  0.
<mgrwt>
<rscale>  0 0.42863043E+03</rscale>
<asrwt>0</asrwt>
<pdfrwt beam="1">  1        1 0.24563815E+00 0.42863043E+03</pdfrwt>
<pdfrwt beam="2">  1       -1 0.33916748E-01 0.42863043E+03</pdfrwt>
<totfact> 0.49703380E+01</totfact>
</mgrwt>
</event>
<event>
 4    1  0.1852677E-008  0.3608840E+03  0.7818608E-02  0.1058234E+00
         -1   -1    0    0    0  501 -0.00000000000E+00  0.00000000000E+00  0.17125008366E+03  0.17125008374E+03  0.50400000000E-02 0.  1.
          1   -1    0    0  501    0  0.00000000000E+00 -0.00000000000E+00 -0.10757519418E+04  0.10757519418E+04  0.50400000000E-02 0. -1.
    8880022    1    1    2    0    0  0.31514343374E+03  0.86776701770E+02 -0.78977423646E+03  0.86832054991E+03  0.15294330000E+03 0.  1.
    8880022    1    1    2    0    0 -0.31514343374E+03 -0.86776701770E+02 -0.11472762166E+03  0.37868147563E+03  0.15294330000E+03 0.  0.
<mgrwt>
<rscale>  0 0.36088396E+03</rscale>
<asrwt>0</asrwt>
<pdfrwt beam="1">  1        1 0.16550029E+00 0.36088396E+03</pdfrwt>
<pdfrwt beam="2">  1       -1 0.26346167E-01 0.36088396E+03</pdfrwt>
<totfact> 0.17831707E+02</totfact>
</mgrwt>
</event>
<event>
 4    1  0.1852677E-008  0.9411409E+03  0.7818608E-02  0.9375566E-01
          1   -1    0    0  501    0  0.00000000000E+00  0.00000000000E+00  0.58350765167E+03  0.58350765169E+03  0.50400000000E-02 0. -1.
         -1   -1    0    0    0  501 -0.00000000000E+00 -0.00000000000E+00 -0.19372206415E+04  0.19372206415E+04  0.50400000000E-02 0.  1.
    8880022    1    1    2    0    0  0.62149871506E+03 -0.68999550815E+03 -0.12631893825E+04  0.15752439567E+04  0.15294330000E+03 0.  0.
    8880022    1    1    2    0    0 -0.62149871506E+03  0.68999550815E+03 -0.90523607373E+02  0.94548433651E+03  0.15294330000E+03 0.  0.
<mgrwt>
<rscale>  0 0.94114085E+03</rscale>
<asrwt>0</asrwt>
<pdfrwt beam="1">  1        1 0.89770409E-01 0.94114085E+03</pdfrwt>
<pdfrwt beam="2">  1       -1 0.29803394E+00 0.94114085E+03</pdfrwt>
<totfact> 0.12395425E+00</totfact>
</mgrwt>
</event>
<event>
 4    1  0.1852677E-008  0.3358067E+03  0.7818608E-02  0.1068596E+00
          1   -1    0    0  501    0  0.00000000000E+00  0.00000000000E+00  0.52443859607E+03  0.52443859610E+03  0.50400000000E-02 0. -1.
         -1   -1    0    0    0  501 -0.00000000000E+00 -0.00000000000E+00 -0.46202502689E+03  0.46202502691E+03  0.50400000000E-02 0.  1.
    8880022    1    1    2    0    0  0.27150267312E+03  0.12514319098E+03 -0.32942906928E+03  0.47041437527E+03  0.15294330000E+03 0.  0.
    8880022    1    1    2    0    0 -0.27150267312E+03 -0.12514319098E+03  0.39184263847E+03  0.51604924774E+03  0.15294330000E+03 0.  0.
<mgrwt>
<rscale>  0 0.33580675E+03</rscale>
<asrwt>0</asrwt>
<pdfrwt beam="1">  1        1 0.80682861E-01 0.33580675E+03</pdfrwt>
<pdfrwt beam="2">  1       -1 0.71080773E-01 0.33580675E+03</pdfrwt>
<totfact> 0.88164139E+01</totfact>
</mgrwt>
</event>
<event>
 4    1  0.1852677E-008  0.4771504E+03  0.7818608E-02  0.1019921E+00
          1   -1    0    0  501    0  0.00000000000E+00  0.00000000000E+00  0.35153712537E+03  0.35153712541E+03  0.50400000000E-02 0. -1.
         -1   -1    0    0    0  501 -0.00000000000E+00 -0.00000000000E+00 -0.92484960063E+03  0.92484960065E+03  0.50400000000E-02 0.  1.
    8880022    1    1    2    0    0 -0.65262823974E+02  0.44723776299E+03  0.62736739154E+02  0.48125710831E+03  0.15294330000E+03 0.  0.
    8880022    1    1    2    0    0  0.65262823974E+02 -0.44723776299E+03 -0.63604921442E+03  0.79512961775E+03  0.15294330000E+03 0.  0.
<mgrwt>
<rscale>  0 0.47715040E+03</rscale>
<asrwt>0</asrwt>
<pdfrwt beam="1">  1        1 0.54082635E-01 0.47715040E+03</pdfrwt>
<pdfrwt beam="2">  1       -1 0.14228455E+00 0.47715040E+03</pdfrwt>
<totfact> 0.30211535E+01</totfact>
</mgrwt>
</event>
<event>
 4    1  0.1852677E-008  0.1127070E+04  0.7818608E-02  0.9179202E-01
         -1   -1    0    0    0  501 -0.00000000000E+00  0.00000000000E+00  0.18975570215E+04  0.18975570215E+04  0.50400000000E-02 0.  1.
          1   -1    0    0  501    0  0.00000000000E+00 -0.00000000000E+00 -0.11644877029E+04  0.11644877029E+04  0.50400000000E-02 0. -1.
    8880022    1    1    2    0    0  0.86468428556E+03 -0.70655180478E+03 -0.63171913492E+03  0.12920352491E+04  0.15294330000E+03 0.  0.
    8880022    1    1    2    0    0 -0.86468428556E+03  0.70655180478E+03  0.13647884536E+04  0.17700094753E+04  0.15294330000E+03 0.  0.
<mgrwt>
<rscale>  0 0.11270697E+04</rscale>
<asrwt>0</asrwt>
<pdfrwt beam="1">  1        1 0.17915196E+00 0.11270697E+04</pdfrwt>
<pdfrwt beam="2">  1       -1 0.29193185E+00 0.11270697E+04</pdfrwt>
<totfact> 0.42021530E-01</totfact>
</mgrwt>
</event>
<event>
 4    1  0.1852677E-008  0.1849947E+03  0.7818608E-02  0.1163055E+00
          1   -1    0    0  501    0  0.00000000000E+00  0.00000000000E+00  0.57588993105E+03  0.57588993107E+03  0.50400000000E-02 0. -1.
         -1   -1    0    0    0  501 -0.00000000000E+00 -0.00000000000E+00 -0.26710008284E+03  0.26710008289E+03  0.50400000000E-02 0.  1.
    8880022    1    1    2    0    0  0.10312006287E+03  0.14058307127E+02 -0.21726540577E+03  0.28535467917E+03  0.15294330000E+03 0.  0.
    8880022    1    1    2    0    0 -0.10312006287E+03 -0.14058307127E+02  0.52605525397E+03  0.55763533479E+03  0.15294330000E+03 0. -1.
<mgrwt>
<rscale>  0 0.18499469E+03</rscale>
<asrwt>0</asrwt>
<pdfrwt beam="1">  1        1 0.88598450E-01 0.18499469E+03</pdfrwt>
<pdfrwt beam="2">  1       -1 0.41092321E-01 0.18499469E+03</pdfrwt>
<totfact> 0.22394464E+02</totfact>
</mgrwt>
</event>
<event>
 4    1  0.1852677E-008  0.4980004E+03  0.7818608E-02  0.1014302E+00
          1   -1    0    0  501    0  0.00000000000E+00  0.00000000000E+00  0.17143334682E+04  0.17143334682E+04  0.50400000000E-02 0. -1.
         -1   -1    0    0    0  501 -0.00000000000E+00 -0.00000000000E+00 -0.50213408570E+03  0.50213408572E+03  0.50400000000E-02 0.  1.
    8880022    1    1    2    0    0 -0.30133979427E+03 -0.36579647254E+03  0.15411622292E+04  0.16196250802E+04  0.15294330000E+03 0.  0.
    8880022    1    1    2    0    0  0.30133979427E+03  0.36579647254E+03 -0.32896284664E+03  0.59684247371E+03  0.15294330000E+03 0.  0.
<mgrwt>
<rscale>  0 0.49800039E+03</rscale>
<asrwt>0</asrwt>
<pdfrwt beam="1">  1        1 0.26374361E+00 0.49800039E+03</pdfrwt>
<pdfrwt beam="2">  1       -1 0.77251399E-01 0.49800039E+03</pdfrwt>
<totfact> 0.85736522E+00</totfact>
</mgrwt>
</event>
<event>
 4    1  0.1852677E-008  0.5199888E+03  0.7818608E-02  0.1008689E+00
         -1   -1    0    0    0  501 -0.00000000000E+00  0.00000000000E+00  0.12496633351E+04  0.12496633351E+04  0.50400000000E-02 0.  1.
          1   -1    0    0  501    0  0.00000000000E+00 -0.00000000000E+00 -0.34497066996E+03  0.34497067000E+03  0.50400000000E-02 0. -1.
    8880022    1    1    2    0    0  0.27051442619E+03 -0.41691568988E+03  0.93916054784E+03  0.10735040451E+04  0.15294330000E+03 0.  1.
    8880022    1    1    2    0    0 -0.27051442619E+03  0.41691568988E+03 -0.34467882714E+02  0.52112995998E+03  0.15294330000E+03 0.  0.
<mgrwt>
<rscale>  0 0.51998885E+03</rscale>
<asrwt>0</asrwt>
<pdfrwt beam="1">  1        1 0.53072411E-01 0.51998885E+03</pdfrwt>
<pdfrwt beam="2">  1       -1 0.19225590E+00 0.51998885E+03</pdfrwt>
<totfact> 0.13213324E+01</totfact>
</mgrwt>
</event>
<event>
 4    1  0.1852677E-008  0.4607025E+03  0.7818608E-02  0.1024578E+00
          1   -1    0    0  501    0  0.00000000000E+00  0.00000000000E+00  0.19548261029E+04  0.19548261029E+04  0.50400000000E-02 0. -1.
         -1   -1    0    0    0  501 -0.00000000000E+00 -0.00000000000E+00 -0.38208359620E+03  0.38208359623E+03  0.50400000000E-02 0.  1.
    8880022    1    1    2    0    0 -0.32250563111E+03 -0.29128211110E+03 -0.20222189467E+03  0.50313069678E+03  0.15294330000E+03 0.  0.
    8880022    1    1    2    0    0  0.32250563111E+03  0.29128211110E+03  0.17749644014E+04  0.18337790024E+04  0.15294330000E+03 0.  0.
<mgrwt>
<rscale>  0 0.46070251E+03</rscale>
<asrwt>0</asrwt>
<pdfrwt beam="1">  1        1 0.30074248E+00 0.46070251E+03</pdfrwt>
<pdfrwt beam="2">  1       -1 0.58782091E-01 0.46070251E+03</pdfrwt>
<totfact> 0.10394514E+01</totfact>
</mgrwt>
</event>
<event>
 4    1  0.1852677E-008  0.5391546E+03  0.7818608E-02  0.1004036E+00
          1   -1    0    0  501    0  0.00000000000E+00  0.00000000000E+00  0.10280128876E+04  0.10280128876E+04  0.50400000000E-02 0. -1.
         -1   -1    0    0    0  501 -0.00000000000E+00 -0.00000000000E+00 -0.43617996003E+03  0.43617996006E+03  0.50400000000E-02 0.  1.
    8880022    1    1    2    0    0  0.20023599504E+03  0.47665663094E+03  0.73009375285E+03  0.90759271619E+03  0.15294330000E+03 0.  0.
    8880022    1    1    2    0    0 -0.20023599504E+03 -0.47665663094E+03 -0.13826082529E+03  0.55660013147E+03  0.15294330000E+03 0.  1.
<mgrwt>
<rscale>  0 0.53915457E+03</rscale>
<asrwt>0</asrwt>
<pdfrwt beam="1">  1        1 0.15815583E+00 0.53915457E+03</pdfrwt>
<pdfrwt beam="2">  1       -1 0.67104610E-01 0.53915457E+03</pdfrwt>
<totfact> 0.34148064E+01</totfact>
</mgrwt>
</event>
<event>
 4    1  0.1852677E-008  0.8558601E+03  0.7818608E-02  0.9482505E-01
          1   -1    0    0  501    0  0.00000000000E+00  0.00000000000E+00  0.12596225539E+04  0.12596225539E+04  0.50400000000E-02 0. -1.
         -1   -1    0    0    0  501 -0.00000000000E+00 -0.00000000000E+00 -0.66579384030E+03  0.66579384032E+03  0.50400000000E-02 0.  1.
    8880022    1    1    2    0    0  0.70301040491E+03  0.46355277725E+03  0.63942150286E+03  0.10683427905E+04  0.15294330000E+03 0.  0.
    8880022    1    1    2    0    0 -0.70301040491E+03 -0.46355277725E+03 -0.45592789279E+02  0.85707360369E+03  0.15294330000E+03 0.  0.
<mgrwt>
<rscale>  0 0.85586007E+03</rscale>
<asrwt>0</asrwt>
<pdfrwt beam="1">  1        1 0.19378809E+00 0.85586007E+03</pdfrwt>
<pdfrwt beam="2">  1       -1 0.10242982E+00 0.85586007E+03</pdfrwt>
<totfact> 0.89038297E+00</totfact>
</mgrwt>
</event>
<event>
 4    1  0.1852677E-008  0.8011845E+03  0.7818608E-02  0.9558304E-01
          1   -1    0    0  501    0  0.00000000000E+00  0.00000000000E+00  0.97918625198E+03  0.97918625200E+03  0.50400000000E-02 0. -1.
         -1   -1    0    0    0  501 -0.00000000000E+00 -0.00000000000E+00 -0.18581795900E+04  0.18581795900E+04  0.50400000000E-02 0.  1.
    8880022    1    1    2    0    0 -0.78473808408E+03  0.51875462150E+02  0.70182771099E+03  0.10651097188E+04  0.15294330000E+03 0.  0.
    8880022    1    1    2    0    0  0.78473808408E+03 -0.51875462150E+02 -0.15808210490E+04  0.17722561232E+04  0.15294330000E+03 0.  0.
<mgrwt>
<rscale>  0 0.80118448E+03</rscale>
<asrwt>0</asrwt>
<pdfrwt beam="1">  1        1 0.15064404E+00 0.80118448E+03</pdfrwt>
<pdfrwt beam="2">  1       -1 0.28587378E+00 0.80118448E+03</pdfrwt>
<totfact> 0.67122490E-01</totfact>
</mgrwt>
</event>
<event>
 4    1  0.1852677E-008  0.8029368E+03  0.7818608E-02  0.9555776E-01
         -1   -1    0    0    0  501 -0.00000000000E+00  0.00000000000E+00  0.99147089148E+03  0.99147089150E+03  0.50400000000E-02 0.  1.
          1   -1    0    0  501    0  0.00000000000E+00 -0.00000000000E+00 -0.12904933828E+04  0.12904933828E+04  0.50400000000E-02 0. -1.
    8880022    1    1    2    0    0 -0.62815578804E+03  0.47616828712E+03 -0.95317107206E+03  0.12462915700E+04  0.15294330000E+03 0.  0.
    8880022    1    1    2    0    0  0.62815578804E+03 -0.47616828712E+03  0.65414858078E+03  0.10356727043E+04  0.15294330000E+03 0.  0.
<mgrwt>
<rscale>  0 0.80293685E+03</rscale>
<asrwt>0</asrwt>
<pdfrwt beam="1">  1        1 0.19853745E+00 0.80293685E+03</pdfrwt>
<pdfrwt beam="2">  1       -1 0.15253398E+00 0.80293685E+03</pdfrwt>
<totfact> 0.31639628E+00</totfact>
</mgrwt>
</event>
<event>
 4    1  0.1852677E-008  0.5939296E+03  0.7818608E-02  0.9918081E-01
         -1   -1    0    0    0  501 -0.00000000000E+00  0.00000000000E+00  0.43558113277E+03  0.43558113280E+03  0.50400000000E-02 0.  1.
          1   -1    0    0  501    0  0.00000000000E+00 -0.00000000000E+00 -0.14591173184E+04  0.14591173184E+04  0.50400000000E-02 0. -1.
    8880022    1    1    2    0    0 -0.57388405847E+03 -0.42147848947E+01  0.12017665961E+03  0.60596597223E+03  0.15294330000E+03 0.  0.
    8880022    1    1    2    0    0  0.57388405847E+03  0.42147848947E+01 -0.11437128452E+04  0.12887324790E+04  0.15294330000E+03 0.  0.
<mgrwt>
<rscale>  0 0.59392957E+03</rscale>
<asrwt>0</asrwt>
<pdfrwt beam="1">  1        1 0.22447959E+00 0.59392957E+03</pdfrwt>
<pdfrwt beam="2">  1       -1 0.67012482E-01 0.59392957E+03</pdfrwt>
<totfact> 0.16706610E+01</totfact>
</mgrwt>
</event>
<event>
 4    1  0.1852677E-008  0.2633504E+03  0.7818608E-02  0.1105147E+00
          1   -1    0    0  501    0  0.00000000000E+00  0.00000000000E+00  0.25370118305E+04  0.25370118305E+04  0.50400000000E-02 0. -1.
         -1   -1    0    0    0  501 -0.00000000000E+00 -0.00000000000E+00 -0.45321713759E+03  0.45321713762E+03  0.50400000000E-02 0.  1.
    8880022    1    1    2    0    0  0.48780465549E+02 -0.20876362663E+03  0.24912202369E+04  0.25051011371E+04  0.15294330000E+03 0. -1.
    8880022    1    1    2    0    0 -0.48780465549E+02  0.20876362663E+03 -0.40742554390E+03  0.48512783105E+03  0.15294330000E+03 0.  0.
<mgrwt>
<rscale>  0 0.26335041E+03</rscale>
<asrwt>0</asrwt>
<pdfrwt beam="1">  1        1 0.39030951E+00 0.26335041E+03</pdfrwt>
<pdfrwt beam="2">  1       -1 0.69725714E-01 0.26335041E+03</pdfrwt>
<totfact> 0.33106152E+00</totfact>
</mgrwt>
</event>
<event>
 4    1  0.1852677E-008  0.1978318E+03  0.7818608E-02  0.1151581E+00
          1   -1    0    0  501    0  0.00000000000E+00  0.00000000000E+00  0.10949462441E+04  0.10949462441E+04  0.50400000000E-02 0. -1.
         -1   -1    0    0    0  501 -0.00000000000E+00 -0.00000000000E+00 -0.57328806690E+03  0.57328806692E+03  0.50400000000E-02 0.  1.
    8880022    1    1    2    0    0  0.98643229127E+02  0.77558338336E+02  0.10685247650E+04  0.10866842269E+04  0.15294330000E+03 0. -1.
    8880022    1    1    2    0    0 -0.98643229127E+02 -0.77558338336E+02 -0.54686658781E+03  0.58155008415E+03  0.15294330000E+03 0.  0.
<mgrwt>
<rscale>  0 0.19783184E+03</rscale>
<asrwt>0</asrwt>
<pdfrwt beam="1">  1        1 0.16845327E+00 0.19783184E+03</pdfrwt>
<pdfrwt beam="2">  1       -1 0.88198164E-01 0.19783184E+03</pdfrwt>
<totfact> 0.18993733E+01</totfact>
</mgrwt>
</event>
<event>
 4    1  0.1852677E-008  0.5470392E+03  0.7818608E-02  0.1002182E+00
          1   -1    0    0  501    0  0.00000000000E+00  0.00000000000E+00  0.15312519279E+04  0.15312519279E+04  0.50400000000E-02 0. -1.
         -1   -1    0    0    0  501 -0.00000000000E+00 -0.00000000000E+00 -0.27690138217E+03  0.27690138222E+03  0.50400000000E-02 0.  1.
    8880022    1    1    2    0    0  0.48273724516E+02  0.52300086755E+03  0.11175706519E+04  0.12442733120E+04  0.15294330000E+03 0.  0.
    8880022    1    1    2    0    0 -0.48273724516E+02 -0.52300086755E+03  0.13677989386E+03  0.56387999815E+03  0.15294330000E+03 0.  0.
<mgrwt>
<rscale>  0 0.54703922E+03</rscale>
<asrwt>0</asrwt>
<pdfrwt beam="1">  1        1 0.23557722E+00 0.54703922E+03</pdfrwt>
<pdfrwt beam="2">  1       -1 0.42600212E-01 0.54703922E+03</pdfrwt>
<totfact> 0.35800184E+01</totfact>
</mgrwt>
</event>
<event>
 4    1  0.1852677E-008  0.1279892E+04  0.7818608E-02  0.9045665E-01
         -1   -1    0    0    0  501 -0.00000000000E+00  0.00000000000E+00  0.20237626797E+04  0.20237626797E+04  0.50400000000E-02 0.  1.
          1   -1    0    0  501    0  0.00000000000E+00 -0.00000000000E+00 -0.12891451949E+04  0.12891451949E+04  0.50400000000E-02 0. -1.
    8880022    1    1    2    0    0 -0.66270352717E+03 -0.10842304109E+04  0.13777561235E+04  0.18805145939E+04  0.15294330000E+03 0.  0.
    8880022    1    1    2    0    0  0.66270352717E+03  0.10842304109E+04 -0.64313863878E+03  0.14323932807E+04  0.15294330000E+03 0.  0.
<mgrwt>
<rscale>  0 0.12798919E+04</rscale>
<asrwt>0</asrwt>
<pdfrwt beam="1">  1        1 0.19833003E+00 0.12798919E+04</pdfrwt>
<pdfrwt beam="2">  1       -1 0.31134810E+00 0.12798919E+04</pdfrwt>
<totfact> 0.24996543E-01</totfact>
</mgrwt>
</event>
<event>
 4    1  0.1852677E-008  0.3452243E+03  0.7818608E-02  0.1064592E+00
         -1   -1    0    0    0  501 -0.00000000000E+00  0.00000000000E+00  0.79787075293E+03  0.79787075295E+03  0.50400000000E-02 0.  1.
          1   -1    0    0  501    0  0.00000000000E+00 -0.00000000000E+00 -0.74236109863E+03  0.74236109865E+03  0.50400000000E-02 0. -1.
    8880022    1    1    2    0    0 -0.30316056469E+03 -0.62304260085E+02  0.71604527256E+03  0.79492177866E+03  0.15294330000E+03 0.  0.
    8880022    1    1    2    0    0  0.30316056469E+03  0.62304260085E+02 -0.66053561826E+03  0.74531007293E+03  0.15294330000E+03 0.  0.
<mgrwt>
<rscale>  0 0.34522428E+03</rscale>
<asrwt>0</asrwt>
<pdfrwt beam="1">  1        1 0.11420940E+00 0.34522428E+03</pdfrwt>
<pdfrwt beam="2">  1       -1 0.12274935E+00 0.34522428E+03</pdfrwt>
<totfact> 0.16098494E+01</totfact>
</mgrwt>
</event>
<event>
 4    1  0.1852677E-008  0.5690784E+03  0.7818608E-02  0.9971720E-01
         -1   -1    0    0    0  501 -0.00000000000E+00  0.00000000000E+00  0.54364263230E+03  0.54364263232E+03  0.50400000000E-02 0.  1.
          1   -1    0    0  501    0  0.00000000000E+00 -0.00000000000E+00 -0.28391168293E+04  0.28391168293E+04  0.50400000000E-02 0. -1.
    8880022    1    1    2    0    0 -0.51273240397E+03  0.19381434939E+03  0.35576512473E+03  0.67113262258E+03  0.15294330000E+03 0.  1.
    8880022    1    1    2    0    0  0.51273240397E+03 -0.19381434939E+03 -0.26512393218E+04  0.27116268391E+04  0.15294330000E+03 0.  0.
<mgrwt>
<rscale>  0 0.56907835E+03</rscale>
<asrwt>0</asrwt>
<pdfrwt beam="1">  1        1 0.43678720E+00 0.56907835E+03</pdfrwt>
<pdfrwt beam="2">  1       -1 0.83637330E-01 0.56907835E+03</pdfrwt>
<totfact> 0.12459698E+00</totfact>
</mgrwt>
</event>
<event>
 4    1  0.1852677E-008  0.9608445E+03  0.7818608E-02  0.9352564E-01
          1   -1    0    0  501    0  0.00000000000E+00  0.00000000000E+00  0.61845879036E+03  0.61845879038E+03  0.50400000000E-02 0. -1.
         -1   -1    0    0    0  501 -0.00000000000E+00 -0.00000000000E+00 -0.23443704492E+04  0.23443704493E+04  0.50400000000E-02 0.  1.
    8880022    1    1    2    0    0  0.20690026114E+03 -0.92575526396E+03  0.29895604494E+02  0.96130948555E+03  0.15294330000E+03 0.  0.
    8880022    1    1    2    0    0 -0.20690026114E+03  0.92575526396E+03 -0.17558072634E+04  0.20015197541E+04  0.15294330000E+03 0.  0.
<mgrwt>
<rscale>  0 0.96084451E+03</rscale>
<asrwt>0</asrwt>
<pdfrwt beam="1">  1        1 0.95147507E-01 0.96084451E+03</pdfrwt>
<pdfrwt beam="2">  1       -1 0.36067237E+00 0.96084451E+03</pdfrwt>
<totfact> 0.44459838E-01</totfact>
</mgrwt>
</event>
<event>
 4    1  0.1852677E-008  0.7033813E+03  0.7818608E-02  0.9711467E-01
          1   -1    0    0  501    0  0.00000000000E+00  0.00000000000E+00  0.12881270668E+04  0.12881270668E+04  0.50400000000E-02 0. -1.
         -1   -1    0    0    0  501 -0.00000000000E+00 -0.00000000000E+00 -0.39538292932E+03  0.39538292935E+03  0.50400000000E-02 0.  1.
    8880022    1    1    2    0    0  0.38097928490E+03  0.57114651050E+03  0.58868748616E+03  0.91722307066E+03  0.15294330000E+03 0.  0.
    8880022    1    1    2    0    0 -0.38097928490E+03 -0.57114651050E+03  0.30405665136E+03  0.76628692553E+03  0.15294330000E+03 0.  0.
<mgrwt>
<rscale>  0 0.70338127E+03</rscale>
<asrwt>0</asrwt>
<pdfrwt beam="1">  1        1 0.19817339E+00 0.70338127E+03</pdfrwt>
<pdfrwt beam="2">  1       -1 0.60828144E-01 0.70338127E+03</pdfrwt>
<totfact> 0.26208754E+01</totfact>
</mgrwt>
</event>
<event>
 4    1  0.1852677E-008  0.7380468E+03  0.7818608E-02  0.9654292E-01
          1   -1    0    0  501    0  0.00000000000E+00  0.00000000000E+00  0.26366392255E+04  0.26366392256E+04  0.50400000000E-02 0. -1.
         -1   -1    0    0    0  501 -0.00000000000E+00 -0.00000000000E+00 -0.33147636074E+03  0.33147636077E+03  0.50400000000E-02 0.  1.
    8880022    1    1    2    0    0  0.21485097845E+02 -0.72170619807E+03  0.24167121313E+03  0.77660676925E+03  0.15294330000E+03 0.  0.
    8880022    1    1    2    0    0 -0.21485097845E+02  0.72170619807E+03  0.20634916517E+04  0.21915088171E+04  0.15294330000E+03 0.  0.
<mgrwt>
<rscale>  0 0.73804681E+03</rscale>
<asrwt>0</asrwt>
<pdfrwt beam="1">  1        1 0.40563680E+00 0.73804681E+03</pdfrwt>
<pdfrwt beam="2">  1       -1 0.50996363E-01 0.73804681E+03</pdfrwt>
<totfact> 0.44742722E+00</totfact>
</mgrwt>
</event>
<event>
 4    1  0.1852677E-008  0.2509566E+03  0.7818608E-02  0.1112702E+00
          1   -1    0    0  501    0  0.00000000000E+00  0.00000000000E+00  0.75262485180E+03  0.75262485181E+03  0.50400000000E-02 0. -1.
         -1   -1    0    0    0  501 -0.00000000000E+00 -0.00000000000E+00 -0.13976815539E+03  0.13976815548E+03  0.50400000000E-02 0.  1.
    8880022    1    1    2    0    0  0.26870287294E+02  0.19714343703E+03  0.23771230077E+02  0.25207989110E+03  0.15294330000E+03 0. -1.
    8880022    1    1    2    0    0 -0.26870287294E+02 -0.19714343703E+03  0.58908546633E+03  0.64031311619E+03  0.15294330000E+03 0. -1.
<mgrwt>
<rscale>  0 0.25095657E+03</rscale>
<asrwt>0</asrwt>
<pdfrwt beam="1">  1        1 0.11578843E+00 0.25095657E+03</pdfrwt>
<pdfrwt beam="2">  1       -1 0.21502794E-01 0.25095657E+03</pdfrwt>
<totfact> 0.45619478E+02</totfact>
</mgrwt>
</event>
<event>
 4    1  0.1852677E-008  0.7882535E+03  0.7818608E-02  0.9577177E-01
          1   -1    0    0  501    0  0.00000000000E+00  0.00000000000E+00  0.16559783617E+04  0.16559783618E+04  0.50400000000E-02 0. -1.
         -1   -1    0    0    0  501 -0.00000000000E+00 -0.00000000000E+00 -0.96300375718E+03  0.96300375719E+03  0.50400000000E-02 0.  1.
    8880022    1    1    2    0    0  0.20701495551E+01  0.77327075508E+03  0.13695450495E+04  0.15801889893E+04  0.15294330000E+03 0.  0.
    8880022    1    1    2    0    0 -0.20701495551E+01 -0.77327075508E+03 -0.67657044497E+03  0.10387931296E+04  0.15294330000E+03 0.  0.
<mgrwt>
<rscale>  0 0.78825351E+03</rscale>
<asrwt>0</asrwt>
<pdfrwt beam="1">  1        1 0.25476590E+00 0.78825351E+03</pdfrwt>
<pdfrwt beam="2">  1       -1 0.14815443E+00 0.78825351E+03</pdfrwt>
<totfact> 0.19198409E+00</totfact>
</mgrwt>
</event>
<event>
 4    1  0.1852677E-008  0.5994006E+03  0.7818608E-02  0.9906651E-01
          1   -1    0    0  501    0  0.00000000000E+00  0.00000000000E+00  0.99572961991E+03  0.99572961992E+03  0.50400000000E-02 0. -1.
         -1   -1    0    0    0  501 -0.00000000000E+00 -0.00000000000E+00 -0.86989464643E+03  0.86989464645E+03  0.50400000000E-02 0.  1.
    8880022    1    1    2    0    0 -0.43650449884E+03  0.38125213423E+03  0.77651083832E+03  0.98094347565E+03  0.15294330000E+03 0.  0.
    8880022    1    1    2    0    0  0.43650449884E+03 -0.38125213423E+03 -0.65067586485E+03  0.88468079072E+03  0.15294330000E+03 0.  0.
<mgrwt>
<rscale>  0 0.59940055E+03</rscale>
<asrwt>0</asrwt>
<pdfrwt beam="1">  1        1 0.15318917E+00 0.59940055E+03</pdfrwt>
<pdfrwt beam="2">  1       -1 0.13382995E+00 0.59940055E+03</pdfrwt>
<totfact> 0.76122777E+00</totfact>
</mgrwt>
</event>
<event>
 4    1  0.1852677E-008  0.3497565E+03  0.7818608E-02  0.1062715E+00
         -1   -1    0    0    0  501 -0.00000000000E+00  0.00000000000E+00  0.33317738619E+03  0.33317738623E+03  0.50400000000E-02 0.  1.
          1   -1    0    0  501    0  0.00000000000E+00 -0.00000000000E+00 -0.89761168146E+03  0.89761168148E+03  0.50400000000E-02 0. -1.
    8880022    1    1    2    0    0 -0.14356703728E+03  0.27986868387E+03  0.19086006954E+03  0.39844346344E+03  0.15294330000E+03 0.  1.
    8880022    1    1    2    0    0  0.14356703728E+03 -0.27986868387E+03 -0.75529436481E+03  0.83234560426E+03  0.15294330000E+03 0.  0.
<mgrwt>
<rscale>  0 0.34975653E+03</rscale>
<asrwt>0</asrwt>
<pdfrwt beam="1">  1        1 0.13809410E+00 0.34975653E+03</pdfrwt>
<pdfrwt beam="2">  1       -1 0.51258060E-01 0.34975653E+03</pdfrwt>
<totfact> 0.75071427E+01</totfact>
</mgrwt>
</event>
<event>
 4    1  0.1852677E-008  0.3239624E+03  0.7818608E-02  0.1073840E+00
          1   -1    0    0  501    0  0.00000000000E+00  0.00000000000E+00  0.30782081289E+03  0.30782081293E+03  0.50400000000E-02 0. -1.
         -1   -1    0    0    0  501 -0.00000000000E+00 -0.00000000000E+00 -0.14428242581E+04  0.14428242581E+04  0.50400000000E-02 0.  1.
    8880022    1    1    2    0    0 -0.25373114906E+03  0.13107440264E+03  0.19743818622E+03  0.37938566845E+03  0.15294330000E+03 0.  0.
    8880022    1    1    2    0    0  0.25373114906E+03 -0.13107440264E+03 -0.13324416314E+04  0.13712594026E+04  0.15294330000E+03 0.  0.
<mgrwt>
<rscale>  0 0.32396242E+03</rscale>
<asrwt>0</asrwt>
<pdfrwt beam="1">  1        1 0.47357049E-01 0.32396242E+03</pdfrwt>
<pdfrwt beam="2">  1       -1 0.22197296E+00 0.32396242E+03</pdfrwt>
<totfact> 0.10105476E+01</totfact>
</mgrwt>
</event>
<event>
 4    1  0.1852677E-008  0.3872305E+03  0.7818608E-02  0.1048293E+00
          1   -1    0    0  501    0  0.00000000000E+00  0.00000000000E+00  0.17630595921E+04  0.17630595921E+04  0.50400000000E-02 0. -1.
         -1   -1    0    0    0  501 -0.00000000000E+00 -0.00000000000E+00 -0.18969572996E+03  0.18969573002E+03  0.50400000000E-02 0.  1.
    8880022    1    1    2    0    0 -0.19745133647E+03 -0.29592017963E+03  0.15118701391E+04  0.15606725325E+04  0.15294330000E+03 0.  0.
    8880022    1    1    2    0    0  0.19745133647E+03  0.29592017963E+03  0.61493723051E+02  0.39208278970E+03  0.15294330000E+03 0.  1.
<mgrwt>
<rscale>  0 0.38723047E+03</rscale>
<asrwt>0</asrwt>
<pdfrwt beam="1">  1        1 0.27123994E+00 0.38723047E+03</pdfrwt>
<pdfrwt beam="2">  1       -1 0.29183958E-01 0.38723047E+03</pdfrwt>
<totfact> 0.50481375E+01</totfact>
</mgrwt>
</event>
<event>
 4    1  0.1852677E-008  0.4795130E+03  0.7818608E-02  0.1019269E+00
          1   -1    0    0  501    0  0.00000000000E+00  0.00000000000E+00  0.99216339068E+03  0.99216339069E+03  0.50400000000E-02 0. -1.
         -1   -1    0    0    0  501 -0.00000000000E+00 -0.00000000000E+00 -0.57769591428E+03  0.57769591430E+03  0.50400000000E-02 0.  1.
    8880022    1    1    2    0    0 -0.37446904993E+03 -0.25751505437E+03  0.81464929704E+03  0.94529688604E+03  0.15294330000E+03 0.  0.
    8880022    1    1    2    0    0  0.37446904993E+03  0.25751505437E+03 -0.40018182064E+03  0.62456241895E+03  0.15294330000E+03 0.  0.
<mgrwt>
<rscale>  0 0.47951301E+03</rscale>
<asrwt>0</asrwt>
<pdfrwt beam="1">  1        1 0.15264052E+00 0.47951301E+03</pdfrwt>
<pdfrwt beam="2">  1       -1 0.88876295E-01 0.47951301E+03</pdfrwt>
<totfact> 0.20435074E+01</totfact>
</mgrwt>
</event>
<event>
 4    1  0.1852677E-008  0.3475345E+03  0.7818608E-02  0.1063632E+00
          1   -1    0    0  501    0  0.00000000000E+00  0.00000000000E+00  0.46561191275E+03  0.46561191278E+03  0.50400000000E-02 0. -1.
         -1   -1    0    0    0  501 -0.00000000000E+00 -0.00000000000E+00 -0.21184239050E+04  0.21184239050E+04  0.50400000000E-02 0.  1.
    8880022    1    1    2    0    0 -0.29346817102E+03  0.10613679427E+03  0.38392584479E+03  0.51786030338E+03  0.15294330000E+03 0.  0.
    8880022    1    1    2    0    0  0.29346817102E+03 -0.10613679427E+03 -0.20367378371E+04  0.20661755144E+04  0.15294330000E+03 0.  1.
<mgrwt>
<rscale>  0 0.34753452E+03</rscale>
<asrwt>0</asrwt>
<pdfrwt beam="1">  1        1 0.71632603E-01 0.34753452E+03</pdfrwt>
<pdfrwt beam="2">  1       -1 0.32591137E+00 0.34753452E+03</pdfrwt>
<totfact> 0.12908514E+00</totfact>
</mgrwt>
</event>
<event>
 4    1  0.1852677E-008  0.2559892E+03  0.7818608E-02  0.1109577E+00
         -1   -1    0    0    0  501 -0.00000000000E+00  0.00000000000E+00  0.30515239636E+02  0.30515240052E+02  0.50400000000E-02 0.  1.
          1   -1    0    0  501    0  0.00000000000E+00 -0.00000000000E+00 -0.30052115226E+04  0.30052115226E+04  0.50400000000E-02 0. -1.
    8880022    1    1    2    0    0  0.19820053253E+03  0.53435512911E+02 -0.67643518261E+03  0.72325307772E+03  0.15294330000E+03 0.  1.
    8880022    1    1    2    0    0 -0.19820053253E+03 -0.53435512911E+02 -0.22982611003E+04  0.23124736849E+04  0.15294330000E+03 0.  0.
<mgrwt>
<rscale>  0 0.25598918E+03</rscale>
<asrwt>0</asrwt>
<pdfrwt beam="1">  1        1 0.46234000E+00 0.25598918E+03</pdfrwt>
<pdfrwt beam="2">  1       -1 0.46946547E-02 0.25598918E+03</pdfrwt>
<totfact> 0.13943390E+02</totfact>
</mgrwt>
</event>
<event>
 4    1  0.1852677E-008  0.5144315E+03  0.7818608E-02  0.1010079E+00
          1   -1    0    0  501    0  0.00000000000E+00  0.00000000000E+00  0.19228236385E+04  0.19228236385E+04  0.50400000000E-02 0. -1.
         -1   -1    0    0    0  501 -0.00000000000E+00 -0.00000000000E+00 -0.44753621298E+03  0.44753621300E+03  0.50400000000E-02 0.  1.
    8880022    1    1    2    0    0  0.49029217977E+03 -0.29354072642E+02  0.17238886429E+04  0.17990085573E+04  0.15294330000E+03 0.  0.
    8880022    1    1    2    0    0 -0.49029217977E+03  0.29354072642E+02 -0.24860121735E+03  0.57135129423E+03  0.15294330000E+03 0.  1.
<mgrwt>
<rscale>  0 0.51443147E+03</rscale>
<asrwt>0</asrwt>
<pdfrwt beam="1">  1        1 0.29581903E+00 0.51443147E+03</pdfrwt>
<pdfrwt beam="2">  1       -1 0.68851723E-01 0.51443147E+03</pdfrwt>
<totfact> 0.78687218E+00</totfact>
</mgrwt>
</event>
<event>
 4    1  0.1852677E-008  0.2984555E+03  0.7818608E-02  0.1086015E+00
         -1   -1    0    0    0  501 -0.00000000000E+00  0.00000000000E+00  0.54716479549E+03  0.54716479551E+03  0.50400000000E-02 0.  1.
          1   -1    0    0  501    0  0.00000000000E+00 -0.00000000000E+00 -0.14021362791E+04  0.14021362791E+04  0.50400000000E-02 0. -1.
    8880022    1    1    2    0    0 -0.20873146039E+03 -0.14871175718E+03 -0.13438102041E+04  0.13765542223E+04  0.15294330000E+03 0.  0.
    8880022    1    1    2    0    0  0.20873146039E+03  0.14871175718E+03  0.48883872044E+03  0.57274685237E+03  0.15294330000E+03 0.  0.
<mgrwt>
<rscale>  0 0.29845546E+03</rscale>
<asrwt>0</asrwt>
<pdfrwt beam="1">  1        1 0.21571327E+00 0.29845546E+03</pdfrwt>
<pdfrwt beam="2">  1       -1 0.84179200E-01 0.29845546E+03</pdfrwt>
<totfact> 0.12294915E+01</totfact>
</mgrwt>
</event>
<event>
 4    1  0.1852677E-008  0.1947324E+03  0.7818608E-02  0.1154261E+00
          1   -1    0    0  501    0  0.00000000000E+00  0.00000000000E+00  0.65172671120E+03  0.65172671121E+03  0.50400000000E-02 0. -1.
         -1   -1    0    0    0  501 -0.00000000000E+00 -0.00000000000E+00 -0.63047217716E+03  0.63047217718E+03  0.50400000000E-02 0.  1.
    8880022    1    1    2    0    0 -0.89630218367E+02  0.80594437769E+02  0.62142787442E+03  0.65122445867E+03  0.15294330000E+03 0.  0.
    8880022    1    1    2    0    0  0.89630218367E+02 -0.80594437769E+02 -0.60017334039E+03  0.63097442973E+03  0.15294330000E+03 0.  1.
<mgrwt>
<rscale>  0 0.19473236E+03</rscale>
<asrwt>0</asrwt>
<pdfrwt beam="1">  1        1 0.10026565E+00 0.19473236E+03</pdfrwt>
<pdfrwt beam="2">  1       -1 0.96995720E-01 0.19473236E+03</pdfrwt>
<totfact> 0.35164407E+01</totfact>
</mgrwt>
</event>
<event>
 4    1  0.1852677E-008  0.9678362E+03  0.7818608E-02  0.9344542E-01
          1   -1    0    0  501    0  0.00000000000E+00  0.00000000000E+00  0.18014301163E+04  0.18014301163E+04  0.50400000000E-02 0. -1.
         -1   -1    0    0    0  501 -0.00000000000E+00 -0.00000000000E+00 -0.67444593343E+03  0.67444593345E+03  0.50400000000E-02 0.  1.
    8880022    1    1    2    0    0  0.94903127574E+03  0.11249387256E+03 -0.28945040721E+02  0.96826892034E+03  0.15294330000E+03 0.  0.
    8880022    1    1    2    0    0 -0.94903127574E+03 -0.11249387256E+03  0.11559292236E+04  0.15076071294E+04  0.15294330000E+03 0.  0.
<mgrwt>
<rscale>  0 0.96783619E+03</rscale>
<asrwt>0</asrwt>
<pdfrwt beam="1">  1        1 0.27714309E+00 0.96783619E+03</pdfrwt>
<pdfrwt beam="2">  1       -1 0.10376091E+00 0.96783619E+03</pdfrwt>
<totfact> 0.36040970E+00</totfact>
</mgrwt>
</event>
<event>
 4    1  0.1852677E-008  0.4534053E+03  0.7818608E-02  0.1026711E+00
         -1   -1    0    0    0  501 -0.00000000000E+00  0.00000000000E+00  0.18785942489E+03  0.18785942496E+03  0.50400000000E-02 0.  1.
          1   -1    0    0  501    0  0.00000000000E+00 -0.00000000000E+00 -0.11026552297E+04  0.11026552297E+04  0.50400000000E-02 0. -1.
    8880022    1    1    2    0    0 -0.52275667884E+02  0.42361772893E+03 -0.40126186952E+03  0.60546467004E+03  0.15294330000E+03 0. -1.
    8880022    1    1    2    0    0  0.52275667884E+02 -0.42361772893E+03 -0.51353393525E+03  0.68504998459E+03  0.15294330000E+03 0.  1.
<mgrwt>
<rscale>  0 0.45340531E+03</rscale>
<asrwt>0</asrwt>
<pdfrwt beam="1">  1        1 0.16963926E+00 0.45340531E+03</pdfrwt>
<pdfrwt beam="2">  1       -1 0.28901451E-01 0.45340531E+03</pdfrwt>
<totfact> 0.14376997E+02</totfact>
</mgrwt>
</event>
<event>
 4    1  0.1852677E-008  0.4685973E+03  0.7818608E-02  0.1022317E+00
          1   -1    0    0  501    0  0.00000000000E+00  0.00000000000E+00  0.25966963334E+04  0.25966963334E+04  0.50400000000E-02 0. -1.
         -1   -1    0    0    0  501 -0.00000000000E+00 -0.00000000000E+00 -0.34961406445E+03  0.34961406448E+03  0.50400000000E-02 0.  1.
    8880022    1    1    2    0    0  0.43846653877E+03 -0.62760653646E+02  0.24062235433E+04  0.24514271758E+04  0.15294330000E+03 0. -1.
    8880022    1    1    2    0    0 -0.43846653877E+03  0.62760653646E+02 -0.15914127431E+03  0.49488322205E+03  0.15294330000E+03 0.  0.
<mgrwt>
<rscale>  0 0.46859733E+03</rscale>
<asrwt>0</asrwt>
<pdfrwt beam="1">  1        1 0.39949173E+00 0.46859733E+03</pdfrwt>
<pdfrwt beam="2">  1       -1 0.53786781E-01 0.46859733E+03</pdfrwt>
<totfact> 0.45912318E+00</totfact>
</mgrwt>
</event>
<event>
 4    1  0.1852677E-008  0.6446224E+03  0.7818608E-02  0.9816923E-01
         -1   -1    0    0    0  501 -0.00000000000E+00  0.00000000000E+00  0.12033795354E+04  0.12033795355E+04  0.50400000000E-02 0.  1.
          1   -1    0    0  501    0  0.00000000000E+00 -0.00000000000E+00 -0.70926678785E+03  0.70926678786E+03  0.50400000000E-02 0. -1.
    8880022    1    1    2    0    0 -0.62472945935E+03  0.43121565964E+02 -0.43799833163E+03  0.77934623779E+03  0.15294330000E+03 0.  0.
    8880022    1    1    2    0    0  0.62472945935E+03 -0.43121565964E+02  0.93211107923E+03  0.11333000855E+04  0.15294330000E+03 0.  0.
<mgrwt>
<rscale>  0 0.64462239E+03</rscale>
<asrwt>0</asrwt>
<pdfrwt beam="1">  1        1 0.10911797E+00 0.64462239E+03</pdfrwt>
<pdfrwt beam="2">  1       -1 0.18513531E+00 0.64462239E+03</pdfrwt>
<totfact> 0.53770600E+00</totfact>
</mgrwt>
</event>
<event>
 4    1  0.1852677E-008  0.5846845E+03  0.7818608E-02  0.9937700E-01
         -1   -1    0    0    0  501 -0.00000000000E+00  0.00000000000E+00  0.11542686332E+04  0.11542686332E+04  0.50400000000E-02 0.  1.
          1   -1    0    0  501    0  0.00000000000E+00 -0.00000000000E+00 -0.46859556019E+03  0.46859556022E+03  0.50400000000E-02 0. -1.
    8880022    1    1    2    0    0 -0.11991393317E+03 -0.55143894294E+03 -0.14938215109E+03  0.60346577304E+03  0.15294330000E+03 0.  0.
    8880022    1    1    2    0    0  0.11991393317E+03  0.55143894294E+03  0.83505522408E+03  0.10193984204E+04  0.15294330000E+03 0.  0.
<mgrwt>
<rscale>  0 0.58468446E+03</rscale>
<asrwt>0</asrwt>
<pdfrwt beam="1">  1        1 0.72091626E-01 0.58468446E+03</pdfrwt>
<pdfrwt beam="2">  1       -1 0.17757979E+00 0.58468446E+03</pdfrwt>
<totfact> 0.11064711E+01</totfact>
</mgrwt>
</event>
<event>
 4    1  0.1852677E-008  0.7777431E+03  0.7818608E-02  0.9592804E-01
          1   -1    0    0  501    0  0.00000000000E+00  0.00000000000E+00  0.19339948986E+04  0.19339948986E+04  0.50400000000E-02 0. -1.
         -1   -1    0    0    0  501 -0.00000000000E+00 -0.00000000000E+00 -0.45653839750E+03  0.45653839753E+03  0.50400000000E-02 0.  1.
    8880022    1    1    2    0    0  0.16327863016E+03  0.74487099014E+03  0.14094874400E+04  0.16098258290E+04  0.15294330000E+03 0.  0.
    8880022    1    1    2    0    0 -0.16327863016E+03 -0.74487099014E+03  0.67969061075E+02  0.78070746717E+03  0.15294330000E+03 0.  0.
<mgrwt>
<rscale>  0 0.77774312E+03</rscale>
<asrwt>0</asrwt>
<pdfrwt beam="1">  1        1 0.29753769E+00 0.77774312E+03</pdfrwt>
<pdfrwt beam="2">  1       -1 0.70236674E-01 0.77774312E+03</pdfrwt>
<totfact> 0.70550818E+00</totfact>
</mgrwt>
</event>
<event>
 4    1  0.1852677E-008  0.2273242E+03  0.7818608E-02  0.1128537E+00
          1   -1    0    0  501    0  0.00000000000E+00  0.00000000000E+00  0.30383555940E+03  0.30383555944E+03  0.50400000000E-02 0. -1.
         -1   -1    0    0    0  501 -0.00000000000E+00 -0.00000000000E+00 -0.25627374128E+03  0.25627374133E+03  0.50400000000E-02 0.  1.
    8880022    1    1    2    0    0 -0.73461368725E+02  0.15128800563E+03 -0.13863521568E+03  0.26626304547E+03  0.15294330000E+03 0.  0.
    8880022    1    1    2    0    0  0.73461368725E+02 -0.15128800563E+03  0.18619703380E+03  0.29384625530E+03  0.15294330000E+03 0.  0.
<mgrwt>
<rscale>  0 0.22732419E+03</rscale>
<asrwt>0</asrwt>
<pdfrwt beam="1">  1        1 0.46743932E-01 0.22732419E+03</pdfrwt>
<pdfrwt beam="2">  1       -1 0.39426730E-01 0.22732419E+03</pdfrwt>
<totfact> 0.54910235E+02</totfact>
</mgrwt>
</event>
<event>
 4    1  0.1852677E-008  0.6624804E+03  0.7818608E-02  0.9783638E-01
          1   -1    0    0  501    0  0.00000000000E+00  0.00000000000E+00  0.22039846196E+04  0.22039846196E+04  0.50400000000E-02 0. -1.
         -1   -1    0    0    0  501 -0.00000000000E+00 -0.00000000000E+00 -0.21924799887E+03  0.21924799893E+03  0.50400000000E-02 0.  1.
    8880022    1    1    2    0    0  0.30265403345E+03 -0.56911264071E+03  0.62535190095E+03  0.91101334503E+03  0.15294330000E+03 0.  0.
    8880022    1    1    2    0    0 -0.30265403345E+03  0.56911264071E+03  0.13593847198E+04  0.15122192735E+04  0.15294330000E+03 0.  0.
<mgrwt>
<rscale>  0 0.66248043E+03</rscale>
<asrwt>0</asrwt>
<pdfrwt beam="1">  1        1 0.33907454E+00 0.66248043E+03</pdfrwt>
<pdfrwt beam="2">  1       -1 0.33730463E-01 0.66248043E+03</pdfrwt>
<totfact> 0.18993616E+01</totfact>
</mgrwt>
</event>
<event>
 4    1  0.1852677E-008  0.6560085E+03  0.7818608E-02  0.9795570E-01
          1   -1    0    0  501    0  0.00000000000E+00  0.00000000000E+00  0.43143496496E+03  0.43143496499E+03  0.50400000000E-02 0. -1.
         -1   -1    0    0    0  501 -0.00000000000E+00 -0.00000000000E+00 -0.21328394404E+04  0.21328394404E+04  0.50400000000E-02 0.  1.
    8880022    1    1    2    0    0  0.19068207177E+03 -0.60876582476E+03 -0.17861561169E+04  0.19028139186E+04  0.15294330000E+03 0.  0.
    8880022    1    1    2    0    0 -0.19068207177E+03  0.60876582476E+03  0.84751641420E+02  0.66146048682E+03  0.15294330000E+03 0.  0.
<mgrwt>
<rscale>  0 0.65600849E+03</rscale>
<asrwt>0</asrwt>
<pdfrwt beam="1">  1        1 0.66374611E-01 0.65600849E+03</pdfrwt>
<pdfrwt beam="2">  1       -1 0.32812914E+00 0.65600849E+03</pdfrwt>
<totfact> 0.12650397E+00</totfact>
</mgrwt>
</event>
<event>
 4    1  0.1852677E-008  0.2074845E+03  0.7818608E-02  0.1143574E+00
         -1   -1    0    0    0  501 -0.00000000000E+00  0.00000000000E+00  0.30025599483E+03  0.30025599488E+03  0.50400000000E-02 0.  1.
          1   -1    0    0  501    0  0.00000000000E+00 -0.00000000000E+00 -0.14549991655E+04  0.14549991655E+04  0.50400000000E-02 0. -1.
    8880022    1    1    2    0    0 -0.66172169853E+02 -0.12360986064E+03  0.25589364957E+03  0.32944099110E+03  0.15294330000E+03 0.  0.
    8880022    1    1    2    0    0  0.66172169853E+02  0.12360986064E+03 -0.14106368202E+04  0.14258141693E+04  0.15294330000E+03 0. -1.
<mgrwt>
<rscale>  0 0.20748447E+03</rscale>
<asrwt>0</asrwt>
<pdfrwt beam="1">  1        1 0.22384602E+00 0.20748447E+03</pdfrwt>
<pdfrwt beam="2">  1       -1 0.46193231E-01 0.20748447E+03</pdfrwt>
<totfact> 0.37950180E+01</totfact>
</mgrwt>
</event>
<event>
 4    1  0.1852677E-008  0.8494566E+03  0.7818608E-02  0.9491067E-01
         -1   -1    0    0    0  501 -0.00000000000E+00  0.00000000000E+00  0.65672255311E+03  0.65672255313E+03  0.50400000000E-02 0.  1.
          1   -1    0    0  501    0  0.00000000000E+00 -0.00000000000E+00 -0.14259177557E+04  0.14259177557E+04  0.50400000000E-02 0. -1.
    8880022    1    1    2    0    0 -0.32724672704E+01  0.83556819111E+03  0.11419453261E+03  0.85709798467E+03  0.15294330000E+03 0.  0.
    8880022    1    1    2    0    0  0.32724672704E+01 -0.83556819111E+03 -0.88338973517E+03  0.12255423241E+04  0.15294330000E+03 0.  0.
<mgrwt>
<rscale>  0 0.84945663E+03</rscale>
<asrwt>0</asrwt>
<pdfrwt beam="1">  1        1 0.21937196E+00 0.84945663E+03</pdfrwt>
<pdfrwt beam="2">  1       -1 0.10103424E+00 0.84945663E+03</pdfrwt>
<totfact> 0.70236410E+00</totfact>
</mgrwt>
</event>
<event>
 4    1  0.1852677E-008  0.5218607E+03  0.7818608E-02  0.1008225E+00
         -1   -1    0    0    0  501 -0.00000000000E+00  0.00000000000E+00  0.25641328198E+03  0.25641328203E+03  0.50400000000E-02 0.  1.
          1   -1    0    0  501    0  0.00000000000E+00 -0.00000000000E+00 -0.22232184077E+04  0.22232184077E+04  0.50400000000E-02 0. -1.
    8880022    1    1    2    0    0  0.46716961896E+03 -0.17521260318E+03 -0.87413099084E+02  0.52913099710E+03  0.15294330000E+03 0.  0.
    8880022    1    1    2    0    0 -0.46716961896E+03  0.17521260318E+03 -0.18793920266E+04  0.19505006926E+04  0.15294330000E+03 0.  0.
<mgrwt>
<rscale>  0 0.52186067E+03</rscale>
<asrwt>0</asrwt>
<pdfrwt beam="1">  1        1 0.34203359E+00 0.52186067E+03</pdfrwt>
<pdfrwt beam="2">  1       -1 0.39448199E-01 0.52186067E+03</pdfrwt>
<totfact> 0.14325994E+01</totfact>
</mgrwt>
</event>
<event>
 4    1  0.1852677E-008  0.8010856E+03  0.7818608E-02  0.9558447E-01
          1   -1    0    0  501    0  0.00000000000E+00  0.00000000000E+00  0.22326031369E+04  0.22326031369E+04  0.50400000000E-02 0. -1.
         -1   -1    0    0    0  501 -0.00000000000E+00 -0.00000000000E+00 -0.35541179224E+03  0.35541179228E+03  0.50400000000E-02 0.  1.
    8880022    1    1    2    0    0  0.78007230755E+03 -0.99165241623E+02  0.15044921668E+04  0.17044749582E+04  0.15294330000E+03 0.  0.
    8880022    1    1    2    0    0 -0.78007230755E+03  0.99165241623E+02  0.37269917788E+03  0.88353997101E+03  0.15294330000E+03 0.  0.
<mgrwt>
<rscale>  0 0.80108564E+03</rscale>
<asrwt>0</asrwt>
<pdfrwt beam="1">  1        1 0.34347740E+00 0.80108564E+03</pdfrwt>
<pdfrwt beam="2">  1       -1 0.54678737E-01 0.80108564E+03</pdfrwt>
<totfact> 0.72942263E+00</totfact>
</mgrwt>
</event>
<event>
 4    1  0.1852677E-008  0.4824088E+03  0.7818608E-02  0.1018475E+00
         -1   -1    0    0    0  501 -0.00000000000E+00  0.00000000000E+00  0.26280229525E+03  0.26280229529E+03  0.50400000000E-02 0.  1.
          1   -1    0    0  501    0  0.00000000000E+00 -0.00000000000E+00 -0.14421498151E+04  0.14421498151E+04  0.50400000000E-02 0. -1.
    8880022    1    1    2    0    0  0.18878142300E+03  0.41675907737E+03 -0.60061563546E+02  0.48613331368E+03  0.15294330000E+03 0.  0.
    8880022    1    1    2    0    0 -0.18878142300E+03 -0.41675907737E+03 -0.11192859563E+04  0.12188187967E+04  0.15294330000E+03 0.  0.
<mgrwt>
<rscale>  0 0.48240876E+03</rscale>
<asrwt>0</asrwt>
<pdfrwt beam="1">  1        1 0.22186920E+00 0.48240876E+03</pdfrwt>
<pdfrwt beam="2">  1       -1 0.40431123E-01 0.48240876E+03</pdfrwt>
<totfact> 0.45745290E+01</totfact>
</mgrwt>
</event>
<event>
 4    1  0.1852677E-008  0.4432229E+03  0.7818608E-02  0.1029763E+00
         -1   -1    0    0    0  501 -0.00000000000E+00  0.00000000000E+00  0.32575386046E+03  0.32575386050E+03  0.50400000000E-02 0.  1.
          1   -1    0    0  501    0  0.00000000000E+00 -0.00000000000E+00 -0.16732941142E+04  0.16732941142E+04  0.50400000000E-02 0. -1.
    8880022    1    1    2    0    0 -0.41599553056E+03 -0.16045517161E+01 -0.14731406005E+04  0.15383724314E+04  0.15294330000E+03 0.  0.
    8880022    1    1    2    0    0  0.41599553056E+03  0.16045517161E+01  0.12560034675E+03  0.46067554325E+03  0.15294330000E+03 0.  0.
<mgrwt>
<rscale>  0 0.44322287E+03</rscale>
<asrwt>0</asrwt>
<pdfrwt beam="1">  1        1 0.25742986E+00 0.44322287E+03</pdfrwt>
<pdfrwt beam="2">  1       -1 0.50115980E-01 0.44322287E+03</pdfrwt>
<totfact> 0.21723982E+01</totfact>
</mgrwt>
</event>
<event>
 4    1  0.1852677E-008  0.3888444E+03  0.7818608E-02  0.1047712E+00
          1   -1    0    0  501    0  0.00000000000E+00  0.00000000000E+00  0.73716361774E+03  0.73716361776E+03  0.50400000000E-02 0. -1.
         -1   -1    0    0    0  501 -0.00000000000E+00 -0.00000000000E+00 -0.23485102111E+03  0.23485102117E+03  0.50400000000E-02 0.  1.
    8880022    1    1    2    0    0 -0.14225766385E+03  0.32798028490E+03  0.42410655759E+03  0.57538364194E+03  0.15294330000E+03 0.  0.
    8880022    1    1    2    0    0  0.14225766385E+03 -0.32798028490E+03  0.78206039040E+02  0.39663099698E+03  0.15294330000E+03 0.  0.
<mgrwt>
<rscale>  0 0.38884439E+03</rscale>
<asrwt>0</asrwt>
<pdfrwt beam="1">  1        1 0.11340979E+00 0.38884439E+03</pdfrwt>
<pdfrwt beam="2">  1       -1 0.36130927E-01 0.38884439E+03</pdfrwt>
<totfact> 0.19220937E+02</totfact>
</mgrwt>
</event>
<event>
 4    1  0.1852677E-008  0.1325548E+04  0.7818608E-02  0.9009547E-01
          1   -1    0    0  501    0  0.00000000000E+00  0.00000000000E+00  0.13913555170E+04  0.13913555170E+04  0.50400000000E-02 0. -1.
         -1   -1    0    0    0  501 -0.00000000000E+00 -0.00000000000E+00 -0.18631232101E+04  0.18631232101E+04  0.50400000000E-02 0.  1.
    8880022    1    1    2    0    0  0.60512616927E+03 -0.11694046552E+04 -0.11595271476E+04  0.17611302585E+04  0.15294330000E+03 0.  0.
    8880022    1    1    2    0    0 -0.60512616927E+03  0.11694046552E+04  0.68775945449E+03  0.14933484686E+04  0.15294330000E+03 0.  0.
<mgrwt>
<rscale>  0 0.13255477E+04</rscale>
<asrwt>0</asrwt>
<pdfrwt beam="1">  1        1 0.21405469E+00 0.13255477E+04</pdfrwt>
<pdfrwt beam="2">  1       -1 0.28663434E+00 0.13255477E+04</pdfrwt>
<totfact> 0.30359278E-01</totfact>
</mgrwt>
</event>
<event>
 4    1  0.1852677E-008  0.4016862E+03  0.7818608E-02  0.1043197E+00
         -1   -1    0    0    0  501 -0.00000000000E+00  0.00000000000E+00  0.14968993583E+03  0.14968993591E+03  0.50400000000E-02 0.  1.
          1   -1    0    0  501    0  0.00000000000E+00 -0.00000000000E+00 -0.16141191496E+04  0.16141191496E+04  0.50400000000E-02 0. -1.
    8880022    1    1    2    0    0 -0.11037122398E+03 -0.35465241566E+03 -0.22391215935E+03  0.45987873525E+03  0.15294330000E+03 0.  1.
    8880022    1    1    2    0    0  0.11037122398E+03  0.35465241566E+03 -0.12405170544E+04  0.13039303503E+04  0.15294330000E+03 0.  0.
<mgrwt>
<rscale>  0 0.40168619E+03</rscale>
<asrwt>0</asrwt>
<pdfrwt beam="1">  1        1 0.24832601E+00 0.40168619E+03</pdfrwt>
<pdfrwt beam="2">  1       -1 0.23029222E-01 0.40168619E+03</pdfrwt>
<totfact> 0.94259983E+01</totfact>
</mgrwt>
</event>
<event>
 4    1  0.1852677E-008  0.3497354E+03  0.7818608E-02  0.1062724E+00
         -1   -1    0    0    0  501 -0.00000000000E+00  0.00000000000E+00  0.26402636948E+03  0.26402636953E+03  0.50400000000E-02 0.  1.
          1   -1    0    0  501    0  0.00000000000E+00 -0.00000000000E+00 -0.58033130613E+03  0.58033130616E+03  0.50400000000E-02 0. -1.
    8880022    1    1    2    0    0  0.40205408207E+02 -0.31194028401E+03  0.31461161524E+02  0.35114765176E+03  0.15294330000E+03 0.  0.
    8880022    1    1    2    0    0 -0.40205408207E+02  0.31194028401E+03 -0.34776609818E+03  0.49321002392E+03  0.15294330000E+03 0.  0.
<mgrwt>
<rscale>  0 0.34973543E+03</rscale>
<asrwt>0</asrwt>
<pdfrwt beam="1">  1        1 0.89281739E-01 0.34973543E+03</pdfrwt>
<pdfrwt beam="2">  1       -1 0.40619442E-01 0.34973543E+03</pdfrwt>
<totfact> 0.22151719E+02</totfact>
</mgrwt>
</event>
<event>
 4    1  0.1852677E-008  0.1207801E+04  0.7818608E-02  0.9106056E-01
          1   -1    0    0  501    0  0.00000000000E+00  0.00000000000E+00  0.18784463171E+04  0.18784463171E+04  0.50400000000E-02 0. -1.
         -1   -1    0    0    0  501 -0.00000000000E+00 -0.00000000000E+00 -0.78415084312E+03  0.78415084314E+03  0.50400000000E-02 0.  1.
    8880022    1    1    2    0    0  0.11811572545E+04  0.20064524148E+03  0.41642209882E+03  0.12775719119E+04  0.15294330000E+03 0.  1.
    8880022    1    1    2    0    0 -0.11811572545E+04 -0.20064524148E+03  0.67787337520E+03  0.13850252484E+04  0.15294330000E+03 0. -1.
<mgrwt>
<rscale>  0 0.12078007E+04</rscale>
<asrwt>0</asrwt>
<pdfrwt beam="1">  1        1 0.28899174E+00 0.12078007E+04</pdfrwt>
<pdfrwt beam="2">  1       -1 0.12063859E+00 0.12078007E+04</pdfrwt>
<totfact> 0.21645807E+00</totfact>
</mgrwt>
</event>
<event>
 4    1  0.1852677E-008  0.2312150E+03  0.7818608E-02  0.1125788E+00
          1   -1    0    0  501    0  0.00000000000E+00  0.00000000000E+00  0.37819946055E+04  0.37819946055E+04  0.50400000000E-02 0. -1.
         -1   -1    0    0    0  501 -0.00000000000E+00 -0.00000000000E+00 -0.74033534222E+02  0.74033534393E+02  0.50400000000E-02 0.  1.
    8880022    1    1    2    0    0  0.14545561652E+03 -0.94400109727E+02  0.35881928137E+04  0.35956345808E+04  0.15294330000E+03 0.  0.
    8880022    1    1    2    0    0 -0.14545561652E+03  0.94400109727E+02  0.11976825756E+03  0.26039355912E+03  0.15294330000E+03 0.  1.
<mgrwt>
<rscale>  0 0.23121499E+03</rscale>
<asrwt>0</asrwt>
<pdfrwt beam="1">  1        1 0.58184532E+00 0.23121499E+03</pdfrwt>
<pdfrwt beam="2">  1       -1 0.11389775E-01 0.23121499E+03</pdfrwt>
<totfact> 0.96606525E+00</totfact>
</mgrwt>
</event>
<event>
 4    1  0.1852677E-008  0.3545522E+03  0.7818608E-02  0.1060762E+00
          1   -1    0    0  501    0  0.00000000000E+00  0.00000000000E+00  0.21432351139E+04  0.21432351139E+04  0.50400000000E-02 0. -1.
         -1   -1    0    0    0  501 -0.00000000000E+00 -0.00000000000E+00 -0.25763891058E+03  0.25763891063E+03  0.50400000000E-02 0.  1.
    8880022    1    1    2    0    0  0.13177136764E+03 -0.29146511657E+03  0.19977794149E+04  0.20289972526E+04  0.15294330000E+03 0. -1.
    8880022    1    1    2    0    0 -0.13177136764E+03  0.29146511657E+03 -0.11218321160E+03  0.37187677191E+03  0.15294330000E+03 0.  0.
<mgrwt>
<rscale>  0 0.35455220E+03</rscale>
<asrwt>0</asrwt>
<pdfrwt beam="1">  1        1 0.32972848E+00 0.35455220E+03</pdfrwt>
<pdfrwt beam="2">  1       -1 0.39636755E-01 0.35455220E+03</pdfrwt>
<totfact> 0.16781815E+01</totfact>
</mgrwt>
</event>
<event>
 4    1  0.1852677E-008  0.4147264E+03  0.7818608E-02  0.1038796E+00
          1   -1    0    0  501    0  0.00000000000E+00  0.00000000000E+00  0.10858569119E+04  0.10858569119E+04  0.50400000000E-02 0. -1.
         -1   -1    0    0    0  501 -0.00000000000E+00 -0.00000000000E+00 -0.22467984307E+03  0.22467984312E+03  0.50400000000E-02 0.  1.
    8880022    1    1    2    0    0 -0.37807456855E+03 -0.75272684729E+02  0.78649271998E+03  0.88913936368E+03  0.15294330000E+03 0.  0.
    8880022    1    1    2    0    0  0.37807456855E+03  0.75272684729E+02  0.74684348841E+02  0.42139739134E+03  0.15294330000E+03 0.  0.
<mgrwt>
<rscale>  0 0.41472643E+03</rscale>
<asrwt>0</asrwt>
<pdfrwt beam="1">  1        1 0.16705491E+00 0.41472643E+03</pdfrwt>
<pdfrwt beam="2">  1       -1 0.34566129E-01 0.41472643E+03</pdfrwt>
<totfact> 0.10894919E+02</totfact>
</mgrwt>
</event>
<event>
 4    1  0.1852677E-008  0.3926349E+03  0.7818608E-02  0.1046360E+00
          1   -1    0    0  501    0  0.00000000000E+00  0.00000000000E+00  0.22487076525E+04  0.22487076525E+04  0.50400000000E-02 0. -1.
         -1   -1    0    0    0  501 -0.00000000000E+00 -0.00000000000E+00 -0.42311728579E+03  0.42311728582E+03  0.50400000000E-02 0.  1.
    8880022    1    1    2    0    0  0.23657170565E+03 -0.27350387497E+03 -0.31011154008E+03  0.50033125212E+03  0.15294330000E+03 0.  1.
    8880022    1    1    2    0    0 -0.23657170565E+03  0.27350387497E+03  0.21357019068E+04  0.21714936862E+04  0.15294330000E+03 0.  0.
<mgrwt>
<rscale>  0 0.39263494E+03</rscale>
<asrwt>0</asrwt>
<pdfrwt beam="1">  1        1 0.34595503E+00 0.39263494E+03</pdfrwt>
<pdfrwt beam="2">  1       -1 0.65094966E-01 0.39263494E+03</pdfrwt>
<totfact> 0.55581645E+00</totfact>
</mgrwt>
</event>
<event>
 4    1  0.1852677E-008  0.5470188E+03  0.7818608E-02  0.1002186E+00
          1   -1    0    0  501    0  0.00000000000E+00  0.00000000000E+00  0.14037863032E+04  0.14037863032E+04  0.50400000000E-02 0. -1.
         -1   -1    0    0    0  501 -0.00000000000E+00 -0.00000000000E+00 -0.32862868258E+03  0.32862868262E+03  0.50400000000E-02 0.  1.
    8880022    1    1    2    0    0  0.12606761313E+03 -0.50984784303E+03  0.10510350204E+04  0.11848646055E+04  0.15294330000E+03 0.  0.
    8880022    1    1    2    0    0 -0.12606761313E+03  0.50984784303E+03  0.24122600133E+02  0.54755038031E+03  0.15294330000E+03 0.  0.
<mgrwt>
<rscale>  0 0.54701876E+03</rscale>
<asrwt>0</asrwt>
<pdfrwt beam="1">  1        1 0.21596713E+00 0.54701876E+03</pdfrwt>
<pdfrwt beam="2">  1       -1 0.50558258E-01 0.54701876E+03</pdfrwt>
<totfact> 0.31817289E+01</totfact>
</mgrwt>
</event>
<event>
 4    1  0.1852677E-008  0.2527471E+03  0.7818608E-02  0.1111581E+00
         -1   -1    0    0    0  501 -0.00000000000E+00  0.00000000000E+00  0.11367061246E+03  0.11367061257E+03  0.50400000000E-02 0.  1.
          1   -1    0    0  501    0  0.00000000000E+00 -0.00000000000E+00 -0.13822024527E+04  0.13822024527E+04  0.50400000000E-02 0. -1.
    8880022    1    1    2    0    0  0.68044314466E+02  0.18936578367E+03 -0.12104266404E+04  0.12365329488E+04  0.15294330000E+03 0.  0.
    8880022    1    1    2    0    0 -0.68044314466E+02 -0.18936578367E+03 -0.58105199890E+02  0.25934011650E+03  0.15294330000E+03 0.  1.
<mgrwt>
<rscale>  0 0.25274707E+03</rscale>
<asrwt>0</asrwt>
<pdfrwt beam="1">  1        1 0.21264652E+00 0.25274707E+03</pdfrwt>
<pdfrwt beam="2">  1       -1 0.17487788E-01 0.25274707E+03</pdfrwt>
<totfact> 0.21761639E+02</totfact>
</mgrwt>
</event>
<event>
 4    1  0.1852677E-008  0.1977046E+03  0.7818608E-02  0.1151690E+00
          1   -1    0    0  501    0  0.00000000000E+00  0.00000000000E+00  0.48437829883E+03  0.48437829886E+03  0.50400000000E-02 0. -1.
         -1   -1    0    0    0  501 -0.00000000000E+00 -0.00000000000E+00 -0.23630548163E+03  0.23630548168E+03  0.50400000000E-02 0.  1.
    8880022    1    1    2    0    0  0.72834642296E+02  0.10193413443E+03  0.41644942737E+03  0.46099591262E+03  0.15294330000E+03 0.  0.
    8880022    1    1    2    0    0 -0.72834642296E+02 -0.10193413443E+03 -0.16837661016E+03  0.25968786792E+03  0.15294330000E+03 0.  1.
<mgrwt>
<rscale>  0 0.19770459E+03</rscale>
<asrwt>0</asrwt>
<pdfrwt beam="1">  1        1 0.74519738E-01 0.19770459E+03</pdfrwt>
<pdfrwt beam="2">  1       -1 0.36354690E-01 0.19770459E+03</pdfrwt>
<totfact> 0.34939648E+02</totfact>
</mgrwt>
</event>
<event>
 4    1  0.1852677E-008  0.4712592E+03  0.7818608E-02  0.1021565E+00
         -1   -1    0    0    0  501 -0.00000000000E+00  0.00000000000E+00  0.23575768061E+03  0.23575768066E+03  0.50400000000E-02 0.  1.
          1   -1    0    0  501    0  0.00000000000E+00 -0.00000000000E+00 -0.28340416620E+04  0.28340416621E+04  0.50400000000E-02 0. -1.
    8880022    1    1    2    0    0  0.18565639015E+03 -0.40524719139E+03 -0.45015054641E+02  0.47340425589E+03  0.15294330000E+03 0.  0.
    8880022    1    1    2    0    0 -0.18565639015E+03  0.40524719139E+03 -0.25532689268E+04  0.25963950868E+04  0.15294330000E+03 0.  0.
<mgrwt>
<rscale>  0 0.47125920E+03</rscale>
<asrwt>0</asrwt>
<pdfrwt beam="1">  1        1 0.43600639E+00 0.47125920E+03</pdfrwt>
<pdfrwt beam="2">  1       -1 0.36270414E-01 0.47125920E+03</pdfrwt>
<totfact> 0.64937571E+00</totfact>
</mgrwt>
</event>
<event>
 4    1  0.1852677E-008  0.7130536E+03  0.7818608E-02  0.9695166E-01
         -1   -1    0    0    0  501 -0.00000000000E+00  0.00000000000E+00  0.94792242923E+03  0.94792242925E+03  0.50400000000E-02 0.  1.
          1   -1    0    0  501    0  0.00000000000E+00 -0.00000000000E+00 -0.11628089542E+04  0.11628089542E+04  0.50400000000E-02 0. -1.
    8880022    1    1    2    0    0 -0.14253249130E+03 -0.68171711377E+03 -0.88205692914E+03  0.11342265266E+04  0.15294330000E+03 0.  0.
    8880022    1    1    2    0    0  0.14253249130E+03  0.68171711377E+03  0.66717040419E+03  0.97650485689E+03  0.15294330000E+03 0.  0.
<mgrwt>
<rscale>  0 0.71305357E+03</rscale>
<asrwt>0</asrwt>
<pdfrwt beam="1">  1        1 0.17889369E+00 0.71305357E+03</pdfrwt>
<pdfrwt beam="2">  1       -1 0.14583422E+00 0.71305357E+03</pdfrwt>
<totfact> 0.44751556E+00</totfact>
</mgrwt>
</event>
<event>
 4    1  0.1852677E-008  0.3596278E+03  0.7818608E-02  0.1058731E+00
          1   -1    0    0  501    0  0.00000000000E+00  0.00000000000E+00  0.20530594381E+04  0.20530594381E+04  0.50400000000E-02 0. -1.
         -1   -1    0    0    0  501 -0.00000000000E+00 -0.00000000000E+00 -0.38037643063E+03  0.38037643066E+03  0.50400000000E-02 0.  1.
    8880022    1    1    2    0    0 -0.32142882762E+02  0.32389398740E+03 -0.27506768311E+03  0.45276303216E+03  0.15294330000E+03 0.  0.
    8880022    1    1    2    0    0  0.32142882762E+02 -0.32389398740E+03  0.19477506906E+04  0.19806728366E+04  0.15294330000E+03 0. -1.
<mgrwt>
<rscale>  0 0.35962777E+03</rscale>
<asrwt>0</asrwt>
<pdfrwt beam="1">  1        1 0.31585529E+00 0.35962777E+03</pdfrwt>
<pdfrwt beam="2">  1       -1 0.58519452E-01 0.35962777E+03</pdfrwt>
<totfact> 0.93186790E+00</totfact>
</mgrwt>
</event>
<event>
 4    1  0.1852677E-008  0.2091708E+03  0.7818608E-02  0.1142224E+00
          1   -1    0    0  501    0  0.00000000000E+00  0.00000000000E+00  0.44941815425E+03  0.44941815427E+03  0.50400000000E-02 0. -1.
         -1   -1    0    0    0  501 -0.00000000000E+00 -0.00000000000E+00 -0.20456544821E+03  0.20456544828E+03  0.50400000000E-02 0.  1.
    8880022    1    1    2    0    0 -0.99145520431E+02 -0.10262030742E+03  0.35915040547E+03  0.41562173725E+03  0.15294330000E+03 0.  0.
    8880022    1    1    2    0    0  0.99145520431E+02  0.10262030742E+03 -0.11429769944E+03  0.23836186530E+03  0.15294330000E+03 0.  1.
<mgrwt>
<rscale>  0 0.20917078E+03</rscale>
<asrwt>0</asrwt>
<pdfrwt beam="1">  1        1 0.69141254E-01 0.20917078E+03</pdfrwt>
<pdfrwt beam="2">  1       -1 0.31471608E-01 0.20917078E+03</pdfrwt>
<totfact> 0.49371289E+02</totfact>
</mgrwt>
</event>
<event>
 4    1  0.1852677E-008  0.4189171E+03  0.7818608E-02  0.1037419E+00
         -1   -1    0    0    0  501 -0.00000000000E+00  0.00000000000E+00  0.78063564738E+03  0.78063564739E+03  0.50400000000E-02 0.  1.
          1   -1    0    0  501    0  0.00000000000E+00 -0.00000000000E+00 -0.36981751735E+03  0.36981751738E+03  0.50400000000E-02 0. -1.
    8880022    1    1    2    0    0 -0.38671450507E+03 -0.50514880298E+02 -0.15479331407E+03  0.44660103522E+03  0.15294330000E+03 0.  0.
    8880022    1    1    2    0    0  0.38671450507E+03  0.50514880298E+02  0.56561144410E+03  0.70385212955E+03  0.15294330000E+03 0.  0.
<mgrwt>
<rscale>  0 0.41891707E+03</rscale>
<asrwt>0</asrwt>
<pdfrwt beam="1">  1        1 0.56895003E-01 0.41891707E+03</pdfrwt>
<pdfrwt beam="2">  1       -1 0.12009779E+00 0.41891707E+03</pdfrwt>
<totfact> 0.43603644E+01</totfact>
</mgrwt>
</event>
<event>
 4    1  0.1852677E-008  0.7967681E+03  0.7818608E-02  0.9564707E-01
         -1   -1    0    0    0  501 -0.00000000000E+00  0.00000000000E+00  0.38222660168E+03  0.38222660172E+03  0.50400000000E-02 0.  1.
          1   -1    0    0  501    0  0.00000000000E+00 -0.00000000000E+00 -0.21280552854E+04  0.21280552854E+04  0.50400000000E-02 0. -1.
    8880022    1    1    2    0    0  0.43211783916E+03  0.65170690649E+03 -0.28483944813E+03  0.84615180855E+03  0.15294330000E+03 0.  0.
    8880022    1    1    2    0    0 -0.43211783916E+03 -0.65170690649E+03 -0.14609892356E+04  0.16641300786E+04  0.15294330000E+03 0.  0.
<mgrwt>
<rscale>  0 0.79676808E+03</rscale>
<asrwt>0</asrwt>
<pdfrwt beam="1">  1        1 0.32739311E+00 0.79676808E+03</pdfrwt>
<pdfrwt beam="2">  1       -1 0.58804094E-01 0.79676808E+03</pdfrwt>
<totfact> 0.74475364E+00</totfact>
</mgrwt>
</event>
<event>
 4    1  0.1852677E-008  0.4530635E+03  0.7818608E-02  0.1026812E+00
         -1   -1    0    0    0  501 -0.00000000000E+00  0.00000000000E+00  0.55387237052E+03  0.55387237054E+03  0.50400000000E-02 0.  1.
          1   -1    0    0  501    0  0.00000000000E+00 -0.00000000000E+00 -0.79479380201E+03  0.79479380203E+03  0.50400000000E-02 0. -1.
    8880022    1    1    2    0    0  0.25273526885E+03  0.34351099877E+03 -0.61309885283E+03  0.76233639474E+03  0.15294330000E+03 0. -1.
    8880022    1    1    2    0    0 -0.25273526885E+03 -0.34351099877E+03  0.37217742133E+03  0.58632977783E+03  0.15294330000E+03 0.  0.
<mgrwt>
<rscale>  0 0.45306354E+03</rscale>
<asrwt>0</asrwt>
<pdfrwt beam="1">  1        1 0.12227597E+00 0.45306354E+03</pdfrwt>
<pdfrwt beam="2">  1       -1 0.85211134E-01 0.45306354E+03</pdfrwt>
<totfact> 0.32457318E+01</totfact>
</mgrwt>
</event>
<event>
 4    1  0.1852677E-008  0.1372052E+04  0.7818608E-02  0.8974301E-01
          1   -1    0    0  501    0  0.00000000000E+00  0.00000000000E+00  0.36907167592E+04  0.36907167592E+04  0.50400000000E-02 0. -1.
         -1   -1    0    0    0  501 -0.00000000000E+00 -0.00000000000E+00 -0.58739499290E+03  0.58739499292E+03  0.50400000000E-02 0.  1.
    8880022    1    1    2    0    0 -0.12918679690E+04 -0.43613324925E+03  0.77556601639E+03  0.15760803784E+04  0.15294330000E+03 0.  0.
    8880022    1    1    2    0    0  0.12918679690E+04  0.43613324925E+03  0.23277557499E+04  0.27020313737E+04  0.15294330000E+03 0.  0.
<mgrwt>
<rscale>  0 0.13720520E+04</rscale>
<asrwt>0</asrwt>
<pdfrwt beam="1">  1        1 0.56780258E+00 0.13720520E+04</pdfrwt>
<pdfrwt beam="2">  1       -1 0.90368460E-01 0.13720520E+04</pdfrwt>
<totfact> 0.20671032E-01</totfact>
</mgrwt>
</event>
<event>
 4    1  0.1852677E-008  0.1570072E+03  0.7818608E-02  0.1192118E+00
          1   -1    0    0  501    0  0.00000000000E+00  0.00000000000E+00  0.91500371155E+03  0.91500371156E+03  0.50400000000E-02 0. -1.
         -1   -1    0    0    0  501 -0.00000000000E+00 -0.00000000000E+00 -0.15624896021E+03  0.15624896030E+03  0.50400000000E-02 0.  1.
    8880022    1    1    2    0    0 -0.63380727783E+01 -0.34920296812E+02  0.86664295622E+03  0.88075039874E+03  0.15294330000E+03 0. -1.
    8880022    1    1    2    0    0  0.63380727783E+01  0.34920296812E+02 -0.10788820489E+03  0.19050227312E+03  0.15294330000E+03 0.  0.
<mgrwt>
<rscale>  0 0.15700717E+03</rscale>
<asrwt>0</asrwt>
<pdfrwt beam="1">  1        1 0.14076980E+00 0.15700717E+03</pdfrwt>
<pdfrwt beam="2">  1       -1 0.24038302E-01 0.15700717E+03</pdfrwt>
<totfact> 0.28392870E+02</totfact>
</mgrwt>
</event>
<event>
 4    1  0.1852677E-008  0.9501960E+03  0.7818608E-02  0.9364922E-01
          1   -1    0    0  501    0  0.00000000000E+00  0.00000000000E+00  0.11789856472E+04  0.11789856472E+04  0.50400000000E-02 0. -1.
         -1   -1    0    0    0  501 -0.00000000000E+00 -0.00000000000E+00 -0.13279294902E+04  0.13279294902E+04  0.50400000000E-02 0.  1.
    8880022    1    1    2    0    0  0.55795002326E+03  0.75377216908E+03  0.74105560576E+03  0.12050044710E+04  0.15294330000E+03 0.  0.
    8880022    1    1    2    0    0 -0.55795002326E+03 -0.75377216908E+03 -0.88999944879E+03  0.13019106664E+04  0.15294330000E+03 0.  0.
<mgrwt>
<rscale>  0 0.95019596E+03</rscale>
<asrwt>0</asrwt>
<pdfrwt beam="1">  1        1 0.18138241E+00 0.95019596E+03</pdfrwt>
<pdfrwt beam="2">  1       -1 0.20429685E+00 0.95019596E+03</pdfrwt>
<totfact> 0.15761529E+00</totfact>
</mgrwt>
</event>
<event>
 4    1  0.1852677E-008  0.5662600E+03  0.7818608E-02  0.9977989E-01
          1   -1    0    0  501    0  0.00000000000E+00  0.00000000000E+00  0.91514262508E+03  0.91514262509E+03  0.50400000000E-02 0. -1.
         -1   -1    0    0    0  501 -0.00000000000E+00 -0.00000000000E+00 -0.77243115169E+03  0.77243115171E+03  0.50400000000E-02 0.  1.
    8880022    1    1    2    0    0  0.54236394243E+03 -0.55678749224E+02  0.69506742341E+03  0.89653173133E+03  0.15294330000E+03 0.  0.
    8880022    1    1    2    0    0 -0.54236394243E+03  0.55678749224E+02 -0.55235595003E+03  0.79104204548E+03  0.15294330000E+03 0.  0.
<mgrwt>
<rscale>  0 0.56626003E+03</rscale>
<asrwt>0</asrwt>
<pdfrwt beam="1">  1        1 0.14079117E+00 0.56626003E+03</pdfrwt>
<pdfrwt beam="2">  1       -1 0.11883556E+00 0.56626003E+03</pdfrwt>
<totfact> 0.11890957E+01</totfact>
</mgrwt>
</event>
<event>
 4    1  0.1852677E-008  0.3575629E+03  0.7818608E-02  0.1059553E+00
          1   -1    0    0  501    0  0.00000000000E+00  0.00000000000E+00  0.14447446990E+04  0.14447446990E+04  0.50400000000E-02 0. -1.
         -1   -1    0    0    0  501 -0.00000000000E+00 -0.00000000000E+00 -0.39432077235E+03  0.39432077238E+03  0.50400000000E-02 0.  1.
    8880022    1    1    2    0    0 -0.32310299977E+03  0.80019052063E+01  0.13350163413E+04  0.13820708605E+04  0.15294330000E+03 0.  0.
    8880022    1    1    2    0    0  0.32310299977E+03 -0.80019052063E+01 -0.28459241460E+03  0.45699461092E+03  0.15294330000E+03 0.  0.
<mgrwt>
<rscale>  0 0.35756291E+03</rscale>
<asrwt>0</asrwt>
<pdfrwt beam="1">  1        1 0.22226842E+00 0.35756291E+03</pdfrwt>
<pdfrwt beam="2">  1       -1 0.60664733E-01 0.35756291E+03</pdfrwt>
<totfact> 0.21918751E+01</totfact>
</mgrwt>
</event>
<event>
 4    1  0.1852677E-008  0.6008914E+03  0.7818608E-02  0.9903558E-01
          1   -1    0    0  501    0  0.00000000000E+00  0.00000000000E+00  0.12262512072E+04  0.12262512072E+04  0.50400000000E-02 0. -1.
         -1   -1    0    0    0  501 -0.00000000000E+00 -0.00000000000E+00 -0.76695490448E+03  0.76695490450E+03  0.50400000000E-02 0.  1.
    8880022    1    1    2    0    0 -0.51694839146E+03 -0.26541139743E+03  0.10118883815E+04  0.11768553857E+04  0.15294330000E+03 0.  0.
    8880022    1    1    2    0    0  0.51694839146E+03  0.26541139743E+03 -0.55259207875E+03  0.81635072599E+03  0.15294330000E+03 0.  0.
<mgrwt>
<rscale>  0 0.60089142E+03</rscale>
<asrwt>0</asrwt>
<pdfrwt beam="1">  1        1 0.18865403E+00 0.60089142E+03</pdfrwt>
<pdfrwt beam="2">  1       -1 0.11799306E+00 0.60089142E+03</pdfrwt>
<totfact> 0.70160520E+00</totfact>
</mgrwt>
</event>
<event>
 4    1  0.1852677E-008  0.1385377E+04  0.7818608E-02  0.8964472E-01
         -1   -1    0    0    0  501 -0.00000000000E+00  0.00000000000E+00  0.92464858914E+03  0.92464858915E+03  0.50400000000E-02 0.  1.
          1   -1    0    0  501    0  0.00000000000E+00 -0.00000000000E+00 -0.32147984376E+04  0.32147984376E+04  0.50400000000E-02 0. -1.
    8880022    1    1    2    0    0  0.12127858650E+04  0.65194184812E+03 -0.23771040433E+04  0.27513438559E+04  0.15294330000E+03 0.  0.
    8880022    1    1    2    0    0 -0.12127858650E+04 -0.65194184812E+03  0.86954194869E+02  0.13881031708E+04  0.15294330000E+03 0.  0.
<mgrwt>
<rscale>  0 0.13853770E+04</rscale>
<asrwt>0</asrwt>
<pdfrwt beam="1">  1        1 0.49458437E+00 0.13853770E+04</pdfrwt>
<pdfrwt beam="2">  1       -1 0.14225363E+00 0.13853770E+04</pdfrwt>
<totfact> 0.16139417E-01</totfact>
</mgrwt>
</event>
<event>
 4    1  0.1852677E-008  0.4031352E+03  0.7818608E-02  0.1042699E+00
         -1   -1    0    0    0  501 -0.00000000000E+00  0.00000000000E+00  0.11692552698E+04  0.11692552698E+04  0.50400000000E-02 0.  1.
          1   -1    0    0  501    0  0.00000000000E+00 -0.00000000000E+00 -0.38764922938E+03  0.38764922941E+03  0.50400000000E-02 0. -1.
    8880022    1    1    2    0    0  0.32311393052E+03  0.18634311529E+03  0.10142684730E+04  0.10914479177E+04  0.15294330000E+03 0.  0.
    8880022    1    1    2    0    0 -0.32311393052E+03 -0.18634311529E+03 -0.23266243260E+03  0.46545658151E+03  0.15294330000E+03 0.  0.
<mgrwt>
<rscale>  0 0.40313524E+03</rscale>
<asrwt>0</asrwt>
<pdfrwt beam="1">  1        1 0.59638342E-01 0.40313524E+03</pdfrwt>
<pdfrwt beam="2">  1       -1 0.17988543E+00 0.40313524E+03</pdfrwt>
<totfact> 0.14157213E+01</totfact>
</mgrwt>
</event>
<event>
 4    1  0.1852677E-008  0.6499353E+03  0.7818608E-02  0.9806901E-01
         -1   -1    0    0    0  501 -0.00000000000E+00  0.00000000000E+00  0.92855299325E+03  0.92855299327E+03  0.50400000000E-02 0.  1.
          1   -1    0    0  501    0  0.00000000000E+00 -0.00000000000E+00 -0.68573891804E+03  0.68573891806E+03  0.50400000000E-02 0. -1.
    8880022    1    1    2    0    0 -0.61691482784E+03  0.13579534163E+03  0.58969154504E+03  0.87758307352E+03  0.15294330000E+03 0.  1.
    8880022    1    1    2    0    0  0.61691482784E+03 -0.13579534163E+03 -0.34687746982E+03  0.73670883781E+03  0.15294330000E+03 0.  0.
<mgrwt>
<rscale>  0 0.64993533E+03</rscale>
<asrwt>0</asrwt>
<pdfrwt beam="1">  1        1 0.10549829E+00 0.64993533E+03</pdfrwt>
<pdfrwt beam="2">  1       -1 0.14285431E+00 0.64993533E+03</pdfrwt>
<totfact> 0.11663761E+01</totfact>
</mgrwt>
</event>
<event>
 4    1  0.1852677E-008  0.5229477E+03  0.7818608E-02  0.1007957E+00
         -1   -1    0    0    0  501 -0.00000000000E+00  0.00000000000E+00  0.19573091523E+03  0.19573091530E+03  0.50400000000E-02 0.  1.
          1   -1    0    0  501    0  0.00000000000E+00 -0.00000000000E+00 -0.14671582519E+04  0.14671582519E+04  0.50400000000E-02 0. -1.
    8880022    1    1    2    0    0 -0.46221596051E+03  0.19089013588E+03 -0.45414986687E+03  0.69262283584E+03  0.15294330000E+03 0.  0.
    8880022    1    1    2    0    0  0.46221596051E+03 -0.19089013588E+03 -0.81727746978E+03  0.97026633135E+03  0.15294330000E+03 0.  0.
<mgrwt>
<rscale>  0 0.52294769E+03</rscale>
<asrwt>0</asrwt>
<pdfrwt beam="1">  1        1 0.22571665E+00 0.52294769E+03</pdfrwt>
<pdfrwt beam="2">  1       -1 0.30112450E-01 0.52294769E+03</pdfrwt>
<totfact> 0.73574473E+01</totfact>
</mgrwt>
</event>
<event>
 4    1  0.1852677E-008  0.2920642E+03  0.7818608E-02  0.1089276E+00
          1   -1    0    0  501    0  0.00000000000E+00  0.00000000000E+00  0.25136251374E+04  0.25136251374E+04  0.50400000000E-02 0. -1.
         -1   -1    0    0    0  501 -0.00000000000E+00 -0.00000000000E+00 -0.87116041034E+02  0.87116041180E+02  0.50400000000E-02 0.  1.
    8880022    1    1    2    0    0 -0.55553560808E+02  0.24253586351E+03  0.22292548739E+04  0.22483057597E+04  0.15294330000E+03 0.  0.
    8880022    1    1    2    0    0  0.55553560808E+02 -0.24253586351E+03  0.19725422249E+03  0.35243541893E+03  0.15294330000E+03 0.  1.
<mgrwt>
<rscale>  0 0.29206420E+03</rscale>
<asrwt>0</asrwt>
<pdfrwt beam="1">  1        1 0.38671149E+00 0.29206420E+03</pdfrwt>
<pdfrwt beam="2">  1       -1 0.13402470E-01 0.29206420E+03</pdfrwt>
<totfact> 0.59565269E+01</totfact>
</mgrwt>
</event>
<event>
 4    1  0.1852677E-008  0.7227754E+03  0.7818608E-02  0.9679057E-01
          1   -1    0    0  501    0  0.00000000000E+00  0.00000000000E+00  0.27263845077E+04  0.27263845077E+04  0.50400000000E-02 0. -1.
         -1   -1    0    0    0  501 -0.00000000000E+00 -0.00000000000E+00 -0.35261958793E+03  0.35261958796E+03  0.50400000000E-02 0.  1.
    8880022    1    1    2    0    0 -0.29726552091E+03  0.64081651556E+03  0.22271668350E+04  0.23415115547E+04  0.15294330000E+03 0.  0.
    8880022    1    1    2    0    0  0.29726552091E+03 -0.64081651556E+03  0.14659808471E+03  0.73749254098E+03  0.15294330000E+03 0.  0.
<mgrwt>
<rscale>  0 0.72277538E+03</rscale>
<asrwt>0</asrwt>
<pdfrwt beam="1">  1        1 0.41944377E+00 0.72277538E+03</pdfrwt>
<pdfrwt beam="2">  1       -1 0.54249168E-01 0.72277538E+03</pdfrwt>
<totfact> 0.34551838E+00</totfact>
</mgrwt>
</event>
<event>
 4    1  0.1852677E-008  0.1938337E+03  0.7818608E-02  0.1155048E+00
         -1   -1    0    0    0  501 -0.00000000000E+00  0.00000000000E+00  0.16423980226E+03  0.16423980234E+03  0.50400000000E-02 0.  1.
          1   -1    0    0  501    0  0.00000000000E+00 -0.00000000000E+00 -0.43791293871E+03  0.43791293874E+03  0.50400000000E-02 0. -1.
    8880022    1    1    2    0    0  0.11543889013E+03 -0.29218598000E+02 -0.34490904877E+03  0.39564348694E+03  0.15294330000E+03 0. -1.
    8880022    1    1    2    0    0 -0.11543889013E+03  0.29218598000E+02  0.71235912316E+02  0.20650925413E+03  0.15294330000E+03 0.  0.
<mgrwt>
<rscale>  0 0.19383374E+03</rscale>
<asrwt>0</asrwt>
<pdfrwt beam="1">  1        1 0.67371221E-01 0.19383374E+03</pdfrwt>
<pdfrwt beam="2">  1       -1 0.25267662E-01 0.19383374E+03</pdfrwt>
<totfact> 0.73913049E+02</totfact>
</mgrwt>
</event>
<event>
 4    1  0.1852677E-008  0.6424936E+03  0.7818608E-02  0.9820967E-01
         -1   -1    0    0    0  501 -0.00000000000E+00  0.00000000000E+00  0.40509645546E+03  0.40509645549E+03  0.50400000000E-02 0.  1.
          1   -1    0    0  501    0  0.00000000000E+00 -0.00000000000E+00 -0.14088935806E+04  0.14088935806E+04  0.50400000000E-02 0. -1.
    8880022    1    1    2    0    0  0.50138813268E+03 -0.37150549350E+03 -0.97902371283E+03  0.11710189898E+04  0.15294330000E+03 0.  0.
    8880022    1    1    2    0    0 -0.50138813268E+03  0.37150549350E+03 -0.24773412281E+02  0.64297104621E+03  0.15294330000E+03 0.  0.
<mgrwt>
<rscale>  0 0.64249361E+03</rscale>
<asrwt>0</asrwt>
<pdfrwt beam="1">  1        1 0.21675286E+00 0.64249361E+03</pdfrwt>
<pdfrwt beam="2">  1       -1 0.62322532E-01 0.64249361E+03</pdfrwt>
<totfact> 0.20746971E+01</totfact>
</mgrwt>
</event>
<event>
 4    1  0.1852677E-008  0.1295257E+04  0.7818608E-02  0.9033335E-01
         -1   -1    0    0    0  501 -0.00000000000E+00  0.00000000000E+00  0.12344929350E+04  0.12344929350E+04  0.50400000000E-02 0.  1.
          1   -1    0    0  501    0  0.00000000000E+00 -0.00000000000E+00 -0.19037651242E+04  0.19037651242E+04  0.50400000000E-02 0. -1.
    8880022    1    1    2    0    0  0.12324671023E+04 -0.36786307769E+03 -0.11740034042E+04  0.17481344480E+04  0.15294330000E+03 0.  0.
    8880022    1    1    2    0    0 -0.12324671023E+04  0.36786307769E+03  0.50473121507E+03  0.13901236113E+04  0.15294330000E+03 0.  0.
<mgrwt>
<rscale>  0 0.12952568E+04</rscale>
<asrwt>0</asrwt>
<pdfrwt beam="1">  1        1 0.29288694E+00 0.12952568E+04</pdfrwt>
<pdfrwt beam="2">  1       -1 0.18992199E+00 0.12952568E+04</pdfrwt>
<totfact> 0.59383254E-01</totfact>
</mgrwt>
</event>
<event>
 4    1  0.1852677E-008  0.3205674E+03  0.7818608E-02  0.1075388E+00
         -1   -1    0    0    0  501 -0.00000000000E+00  0.00000000000E+00  0.46582598510E+03  0.46582598512E+03  0.50400000000E-02 0.  1.
          1   -1    0    0  501    0  0.00000000000E+00 -0.00000000000E+00 -0.14409271176E+04  0.14409271177E+04  0.50400000000E-02 0. -1.
    8880022    1    1    2    0    0  0.23658754564E+03  0.15296441734E+03 -0.13649164474E+04  0.14020557554E+04  0.15294330000E+03 0. -1.
    8880022    1    1    2    0    0 -0.23658754564E+03 -0.15296441734E+03  0.38981531489E+03  0.50469734739E+03  0.15294330000E+03 0.  0.
<mgrwt>
<rscale>  0 0.32056736E+03</rscale>
<asrwt>0</asrwt>
<pdfrwt beam="1">  1        1 0.22168109E+00 0.32056736E+03</pdfrwt>
<pdfrwt beam="2">  1       -1 0.71665537E-01 0.32056736E+03</pdfrwt>
<totfact> 0.16021976E+01</totfact>
</mgrwt>
</event>
<event>
 4    1  0.1852677E-008  0.7144910E+03  0.7818608E-02  0.9692767E-01
         -1   -1    0    0    0  501 -0.00000000000E+00  0.00000000000E+00  0.73833082019E+03  0.73833082021E+03  0.50400000000E-02 0.  1.
          1   -1    0    0  501    0  0.00000000000E+00 -0.00000000000E+00 -0.14397984253E+04  0.14397984253E+04  0.50400000000E-02 0. -1.
    8880022    1    1    2    0    0 -0.55473251788E+03 -0.42352996807E+03  0.43443518076E+03  0.83620056180E+03  0.15294330000E+03 0.  0.
    8880022    1    1    2    0    0  0.55473251788E+03  0.42352996807E+03 -0.11359027859E+04  0.13419286837E+04  0.15294330000E+03 0.  0.
<mgrwt>
<rscale>  0 0.71449104E+03</rscale>
<asrwt>0</asrwt>
<pdfrwt beam="1">  1        1 0.22150745E+00 0.71449104E+03</pdfrwt>
<pdfrwt beam="2">  1       -1 0.11358936E+00 0.71449104E+03</pdfrwt>
<totfact> 0.53333466E+00</totfact>
</mgrwt>
</event>
<event>
 4    1  0.1852677E-008  0.7911486E+03  0.7818608E-02  0.9572918E-01
         -1   -1    0    0    0  501 -0.00000000000E+00  0.00000000000E+00  0.73288442793E+03  0.73288442795E+03  0.50400000000E-02 0.  1.
          1   -1    0    0  501    0  0.00000000000E+00 -0.00000000000E+00 -0.13570847680E+04  0.13570847680E+04  0.50400000000E-02 0. -1.
    8880022    1    1    2    0    0  0.73938725863E+03  0.23628577697E+03  0.32412030961E+03  0.85496790275E+03  0.15294330000E+03 0.  0.
    8880022    1    1    2    0    0 -0.73938725863E+03 -0.23628577697E+03 -0.94832064972E+03  0.12350012932E+04  0.15294330000E+03 0.  0.
<mgrwt>
<rscale>  0 0.79114862E+03</rscale>
<asrwt>0</asrwt>
<pdfrwt beam="1">  1        1 0.20878227E+00 0.79114862E+03</pdfrwt>
<pdfrwt beam="2">  1       -1 0.11275145E+00 0.79114862E+03</pdfrwt>
<totfact> 0.61204564E+00</totfact>
</mgrwt>
</event>
<event>
 4    1  0.1852677E-008  0.4409348E+03  0.7818608E-02  0.1030460E+00
          1   -1    0    0  501    0  0.00000000000E+00  0.00000000000E+00  0.17257082870E+04  0.17257082870E+04  0.50400000000E-02 0. -1.
         -1   -1    0    0    0  501 -0.00000000000E+00 -0.00000000000E+00 -0.30386672645E+03  0.30386672649E+03  0.50400000000E-02 0.  1.
    8880022    1    1    2    0    0 -0.59755204898E+02  0.40922021654E+03  0.15158944614E+04  0.15787208560E+04  0.15294330000E+03 0.  0.
    8880022    1    1    2    0    0  0.59755204898E+02 -0.40922021654E+03 -0.94052900842E+02  0.45085415747E+03  0.15294330000E+03 0.  0.
<mgrwt>
<rscale>  0 0.44093483E+03</rscale>
<asrwt>0</asrwt>
<pdfrwt beam="1">  1        1 0.26549358E+00 0.44093483E+03</pdfrwt>
<pdfrwt beam="2">  1       -1 0.46748727E-01 0.44093483E+03</pdfrwt>
<totfact> 0.22839501E+01</totfact>
</mgrwt>
</event>
<event>
 4    1  0.1852677E-008  0.4031959E+03  0.7818608E-02  0.1042679E+00
          1   -1    0    0  501    0  0.00000000000E+00  0.00000000000E+00  0.13722859114E+04  0.13722859114E+04  0.50400000000E-02 0. -1.
         -1   -1    0    0    0  501 -0.00000000000E+00 -0.00000000000E+00 -0.21669342058E+03  0.21669342064E+03  0.50400000000E-02 0.  1.
    8880022    1    1    2    0    0  0.24326970082E+03  0.28283410588E+03  0.42880415074E+02  0.40546968049E+03  0.15294330000E+03 0.  1.
    8880022    1    1    2    0    0 -0.24326970082E+03 -0.28283410588E+03  0.11127120758E+04  0.11835096516E+04  0.15294330000E+03 0.  0.
<mgrwt>
<rscale>  0 0.40319590E+03</rscale>
<asrwt>0</asrwt>
<pdfrwt beam="1">  1        1 0.21112091E+00 0.40319590E+03</pdfrwt>
<pdfrwt beam="2">  1       -1 0.33337449E-01 0.40319590E+03</pdfrwt>
<totfact> 0.72948339E+01</totfact>
</mgrwt>
</event>
<event>
 4    1  0.1852677E-008  0.7031595E+03  0.7818608E-02  0.9711844E-01
         -1   -1    0    0    0  501 -0.00000000000E+00  0.00000000000E+00  0.42221611441E+03  0.42221611444E+03  0.50400000000E-02 0.  1.
          1   -1    0    0  501    0  0.00000000000E+00 -0.00000000000E+00 -0.21891359245E+04  0.21891359245E+04  0.50400000000E-02 0. -1.
    8880022    1    1    2    0    0 -0.54200547128E+03  0.42103639315E+03 -0.17738755290E+04  0.19081581750E+04  0.15294330000E+03 0.  0.
    8880022    1    1    2    0    0  0.54200547128E+03 -0.42103639315E+03  0.69557189538E+01  0.70319386394E+03  0.15294330000E+03 0.  0.
<mgrwt>
<rscale>  0 0.70315946E+03</rscale>
<asrwt>0</asrwt>
<pdfrwt beam="1">  1        1 0.33679013E+00 0.70315946E+03</pdfrwt>
<pdfrwt beam="2">  1       -1 0.64956327E-01 0.70315946E+03</pdfrwt>
<totfact> 0.56521409E+00</totfact>
</mgrwt>
</event>
<event>
 4    1  0.1852677E-008  0.6053707E+03  0.7818608E-02  0.9894326E-01
         -1   -1    0    0    0  501 -0.00000000000E+00  0.00000000000E+00  0.30524809396E+04  0.30524809396E+04  0.50400000000E-02 0.  1.
          1   -1    0    0  501    0  0.00000000000E+00 -0.00000000000E+00 -0.14431242097E+03  0.14431242106E+03  0.50400000000E-02 0. -1.
    8880022    1    1    2    0    0 -0.53290070529E+03  0.24310250079E+03  0.79879742579E+03  0.10022729010E+04  0.15294330000E+03 0.  0.
    8880022    1    1    2    0    0  0.53290070529E+03 -0.24310250079E+03  0.21093710928E+04  0.21945204597E+04  0.15294330000E+03 0.  0.
<mgrwt>
<rscale>  0 0.60537066E+03</rscale>
<asrwt>0</asrwt>
<pdfrwt beam="1">  1        1 0.22201909E-01 0.60537066E+03</pdfrwt>
<pdfrwt beam="2">  1       -1 0.46961248E+00 0.60537066E+03</pdfrwt>
<totfact> 0.59350970E-01</totfact>
</mgrwt>
</event>
<event>
 4    1  0.1852677E-008  0.7857844E+03  0.7818608E-02  0.9580825E-01
         -1   -1    0    0    0  501 -0.00000000000E+00  0.00000000000E+00  0.48108134489E+03  0.48108134492E+03  0.50400000000E-02 0.  1.
          1   -1    0    0  501    0  0.00000000000E+00 -0.00000000000E+00 -0.21683411358E+04  0.21683411358E+04  0.50400000000E-02 0. -1.
    8880022    1    1    2    0    0  0.55752870845E+03 -0.53219097221E+03 -0.16898738103E+04  0.18636337192E+04  0.15294330000E+03 0.  0.
    8880022    1    1    2    0    0 -0.55752870845E+03  0.53219097221E+03  0.26140193562E+01  0.78578876154E+03  0.15294330000E+03 0.  0.
<mgrwt>
<rscale>  0 0.78578441E+03</rscale>
<asrwt>0</asrwt>
<pdfrwt beam="1">  1        1 0.33359094E+00 0.78578441E+03</pdfrwt>
<pdfrwt beam="2">  1       -1 0.74012516E-01 0.78578441E+03</pdfrwt>
<totfact> 0.44059873E+00</totfact>
</mgrwt>
</event>
<event>
 4    1  0.1852677E-008  0.3817383E+03  0.7818608E-02  0.1050293E+00
          1   -1    0    0  501    0  0.00000000000E+00  0.00000000000E+00  0.11261562638E+04  0.11261562638E+04  0.50400000000E-02 0. -1.
         -1   -1    0    0    0  501 -0.00000000000E+00 -0.00000000000E+00 -0.21577854810E+03  0.21577854816E+03  0.50400000000E-02 0.  1.
    8880022    1    1    2    0    0  0.32466436861E+03 -0.13009827232E+03  0.87971188818E+03  0.95896672097E+03  0.15294330000E+03 0.  0.
    8880022    1    1    2    0    0 -0.32466436861E+03  0.13009827232E+03  0.30665827493E+02  0.38296809097E+03  0.15294330000E+03 0.  0.
<mgrwt>
<rscale>  0 0.38173835E+03</rscale>
<asrwt>0</asrwt>
<pdfrwt beam="1">  1        1 0.17325481E+00 0.38173835E+03</pdfrwt>
<pdfrwt beam="2">  1       -1 0.33196700E-01 0.38173835E+03</pdfrwt>
<totfact> 0.10983054E+02</totfact>
</mgrwt>
</event>
<event>
 4    1  0.1852677E-008  0.6048335E+03  0.7818608E-02  0.9895428E-01
         -1   -1    0    0    0  501 -0.00000000000E+00  0.00000000000E+00  0.30557751823E+03  0.30557751828E+03  0.50400000000E-02 0.  1.
          1   -1    0    0  501    0  0.00000000000E+00 -0.00000000000E+00 -0.14178027041E+04  0.14178027041E+04  0.50400000000E-02 0. -1.
    8880022    1    1    2    0    0 -0.39995993294E+02 -0.58380840973E+03 -0.89604542716E+03  0.10810740027E+04  0.15294330000E+03 0.  0.
    8880022    1    1    2    0    0  0.39995993294E+02  0.58380840973E+03 -0.21617975870E+03  0.64230621968E+03  0.15294330000E+03 0.  0.
<mgrwt>
<rscale>  0 0.60483352E+03</rscale>
<asrwt>0</asrwt>
<pdfrwt beam="1">  1        1 0.21812349E+00 0.60483352E+03</pdfrwt>
<pdfrwt beam="2">  1       -1 0.47011927E-01 0.60483352E+03</pdfrwt>
<totfact> 0.35346955E+01</totfact>
</mgrwt>
</event>
<event>
 4    1  0.1852677E-008  0.2735651E+03  0.7818608E-02  0.1099256E+00
          1   -1    0    0  501    0  0.00000000000E+00  0.00000000000E+00  0.52547860642E+03  0.52547860644E+03  0.50400000000E-02 0. -1.
         -1   -1    0    0    0  501 -0.00000000000E+00 -0.00000000000E+00 -0.14817088540E+04  0.14817088540E+04  0.50400000000E-02 0.  1.
    8880022    1    1    2    0    0 -0.20999411545E+03  0.85724463784E+02  0.47602876913E+03  0.54903666022E+03  0.15294330000E+03 0.  0.
    8880022    1    1    2    0    0  0.20999411545E+03 -0.85724463784E+02 -0.14322590167E+04  0.14581508002E+04  0.15294330000E+03 0.  0.
<mgrwt>
<rscale>  0 0.27356510E+03</rscale>
<asrwt>0</asrwt>
<pdfrwt beam="1">  1        1 0.80842863E-01 0.27356510E+03</pdfrwt>
<pdfrwt beam="2">  1       -1 0.22795521E+00 0.27356510E+03</pdfrwt>
<totfact> 0.46971978E+00</totfact>
</mgrwt>
</event>
<event>
 4    1  0.1852677E-008  0.4769700E+03  0.7818608E-02  0.1019971E+00
         -1   -1    0    0    0  501 -0.00000000000E+00  0.00000000000E+00  0.38273771858E+03  0.38273771861E+03  0.50400000000E-02 0.  1.
          1   -1    0    0  501    0  0.00000000000E+00 -0.00000000000E+00 -0.17319815423E+04  0.17319815423E+04  0.50400000000E-02 0. -1.
    8880022    1    1    2    0    0 -0.15160545525E+03  0.42558730768E+03 -0.15315449197E+04  0.16040979598E+04  0.15294330000E+03 0.  0.
    8880022    1    1    2    0    0  0.15160545525E+03 -0.42558730768E+03  0.18230109601E+03  0.51062130110E+03  0.15294330000E+03 0.  0.
<mgrwt>
<rscale>  0 0.47697004E+03</rscale>
<asrwt>0</asrwt>
<pdfrwt beam="1">  1        1 0.26645869E+00 0.47697004E+03</pdfrwt>
<pdfrwt beam="2">  1       -1 0.58882727E-01 0.47697004E+03</pdfrwt>
<totfact> 0.14484162E+01</totfact>
</mgrwt>
</event>
<event>
 4    1  0.1852677E-008  0.3444441E+03  0.7818608E-02  0.1064919E+00
          1   -1    0    0  501    0  0.00000000000E+00  0.00000000000E+00  0.63643449817E+03  0.63643449819E+03  0.50400000000E-02 0. -1.
         -1   -1    0    0    0  501 -0.00000000000E+00 -0.00000000000E+00 -0.27247580417E+03  0.27247580421E+03  0.50400000000E-02 0.  1.
    8880022    1    1    2    0    0  0.23562983491E+03  0.19932047989E+03 -0.73424027796E+02  0.35218292644E+03  0.15294330000E+03 0.  0.
    8880022    1    1    2    0    0 -0.23562983491E+03 -0.19932047989E+03  0.43738272180E+03  0.55672737596E+03  0.15294330000E+03 0.  0.
<mgrwt>
<rscale>  0 0.34444408E+03</rscale>
<asrwt>0</asrwt>
<pdfrwt beam="1">  1        1 0.97912999E-01 0.34444408E+03</pdfrwt>
<pdfrwt beam="2">  1       -1 0.41919355E-01 0.34444408E+03</pdfrwt>
<totfact> 0.18384511E+02</totfact>
</mgrwt>
</event>
<event>
 4    1  0.1852677E-008  0.6146223E+03  0.7818608E-02  0.9875525E-01
         -1   -1    0    0    0  501 -0.00000000000E+00  0.00000000000E+00  0.25360435084E+03  0.25360435089E+03  0.50400000000E-02 0.  1.
          1   -1    0    0  501    0  0.00000000000E+00 -0.00000000000E+00 -0.29423086968E+04  0.29423086968E+04  0.50400000000E-02 0. -1.
    8880022    1    1    2    0    0  0.93810831366E+02 -0.58785068265E+03 -0.24671850339E+04  0.25425897313E+04  0.15294330000E+03 0.  0.
    8880022    1    1    2    0    0 -0.93810831366E+02  0.58785068265E+03 -0.22151931211E+03  0.65332331646E+03  0.15294330000E+03 0.  0.
<mgrwt>
<rscale>  0 0.61462228E+03</rscale>
<asrwt>0</asrwt>
<pdfrwt beam="1">  1        1 0.45266285E+00 0.61462228E+03</pdfrwt>
<pdfrwt beam="2">  1       -1 0.39016056E-01 0.61462228E+03</pdfrwt>
<totfact> 0.46085351E+00</totfact>
</mgrwt>
</event>
<event>
 4    1  0.1852677E-008  0.7655076E+03  0.7818608E-02  0.9611331E-01
          1   -1    0    0  501    0  0.00000000000E+00  0.00000000000E+00  0.36428632160E+04  0.36428632160E+04  0.50400000000E-02 0. -1.
         -1   -1    0    0    0  501 -0.00000000000E+00 -0.00000000000E+00 -0.21578180402E+03  0.21578180408E+03  0.50400000000E-02 0.  1.
    8880022    1    1    2    0    0 -0.11746109139E+03 -0.74081920994E+03  0.74021542572E+03  0.10648571450E+04  0.15294330000E+03 0.  1.
    8880022    1    1    2    0    0  0.11746109139E+03  0.74081920994E+03  0.26868659863E+04  0.27937878751E+04  0.15294330000E+03 0.  0.
<mgrwt>
<rscale>  0 0.76550759E+03</rscale>
<asrwt>0</asrwt>
<pdfrwt beam="1">  1        1 0.56044045E+00 0.76550759E+03</pdfrwt>
<pdfrwt beam="2">  1       -1 0.33197203E-01 0.76550759E+03</pdfrwt>
<totfact> 0.17806491E+00</totfact>
</mgrwt>
</event>
<event>
 4    1  0.1852677E-008  0.1084555E+04  0.7818608E-02  0.9220378E-01
         -1   -1    0    0    0  501 -0.00000000000E+00  0.00000000000E+00  0.11134275859E+04  0.11134275859E+04  0.50400000000E-02 0.  1.
          1   -1    0    0  501    0  0.00000000000E+00 -0.00000000000E+00 -0.21913332398E+04  0.21913332398E+04  0.50400000000E-02 0. -1.
    8880022    1    1    2    0    0 -0.72557833287E+03 -0.79145684971E+03 -0.17280984313E+04  0.20402410896E+04  0.15294330000E+03 0.  0.
    8880022    1    1    2    0    0  0.72557833287E+03  0.79145684971E+03  0.65019277744E+03  0.12645197361E+04  0.15294330000E+03 0.  0.
<mgrwt>
<rscale>  0 0.10845550E+04</rscale>
<asrwt>0</asrwt>
<pdfrwt beam="1">  1        1 0.33712819E+00 0.10845550E+04</pdfrwt>
<pdfrwt beam="2">  1       -1 0.17129655E+00 0.10845550E+04</pdfrwt>
<totfact> 0.53176143E-01</totfact>
</mgrwt>
</event>
<event>
 4    1  0.1852677E-008  0.8599931E+03  0.7818608E-02  0.9477022E-01
          1   -1    0    0  501    0  0.00000000000E+00  0.00000000000E+00  0.11496634874E+04  0.11496634874E+04  0.50400000000E-02 0. -1.
         -1   -1    0    0    0  501 -0.00000000000E+00 -0.00000000000E+00 -0.11341620571E+04  0.11341620571E+04  0.50400000000E-02 0.  1.
    8880022    1    1    2    0    0 -0.41143057238E+03  0.73954131020E+03 -0.74347667164E+03  0.11368138281E+04  0.15294330000E+03 0.  0.
    8880022    1    1    2    0    0  0.41143057238E+03 -0.73954131020E+03  0.75897810200E+03  0.11470117165E+04  0.15294330000E+03 0.  0.
<mgrwt>
<rscale>  0 0.85999309E+03</rscale>
<asrwt>0</asrwt>
<pdfrwt beam="1">  1        1 0.17687130E+00 0.85999309E+03</pdfrwt>
<pdfrwt beam="2">  1       -1 0.17448647E+00 0.85999309E+03</pdfrwt>
<totfact> 0.27174862E+00</totfact>
</mgrwt>
</event>
<event>
 4    1  0.1852677E-008  0.3290404E+03  0.7818608E-02  0.1071562E+00
         -1   -1    0    0    0  501 -0.00000000000E+00  0.00000000000E+00  0.22940878129E+03  0.22940878134E+03  0.50400000000E-02 0.  1.
          1   -1    0    0  501    0  0.00000000000E+00 -0.00000000000E+00 -0.78834002907E+03  0.78834002909E+03  0.50400000000E-02 0. -1.
    8880022    1    1    2    0    0 -0.19192440787E+03  0.21918239999E+03 -0.60184774775E+03  0.68592147312E+03  0.15294330000E+03 0.  0.
    8880022    1    1    2    0    0  0.19192440787E+03 -0.21918239999E+03  0.42916499965E+02  0.33182733731E+03  0.15294330000E+03 0.  0.
<mgrwt>
<rscale>  0 0.32904036E+03</rscale>
<asrwt>0</asrwt>
<pdfrwt beam="1">  1        1 0.12128308E+00 0.32904036E+03</pdfrwt>
<pdfrwt beam="2">  1       -1 0.35293659E-01 0.32904036E+03</pdfrwt>
<totfact> 0.18207218E+02</totfact>
</mgrwt>
</event>
<event>
 4    1  0.1852677E-008  0.6150177E+03  0.7818608E-02  0.9874730E-01
          1   -1    0    0  501    0  0.00000000000E+00  0.00000000000E+00  0.43542569901E+04  0.43542569901E+04  0.50400000000E-02 0. -1.
         -1   -1    0    0    0  501 -0.00000000000E+00 -0.00000000000E+00 -0.46858269830E+03  0.46858269833E+03  0.50400000000E-02 0.  1.
    8880022    1    1    2    0    0 -0.38731079567E+03  0.45259860931E+03 -0.23361433278E+03  0.65789244036E+03  0.15294330000E+03 0.  0.
    8880022    1    1    2    0    0  0.38731079567E+03 -0.45259860931E+03  0.41192886246E+04  0.41649472481E+04  0.15294330000E+03 0.  0.
<mgrwt>
<rscale>  0 0.61501773E+03</rscale>
<asrwt>0</asrwt>
<pdfrwt beam="1">  1        1 0.66988568E+00 0.61501773E+03</pdfrwt>
<pdfrwt beam="2">  1       -1 0.72089647E-01 0.61501773E+03</pdfrwt>
<totfact> 0.10382037E-01</totfact>
</mgrwt>
</event>
<event>
 4    1  0.1852677E-008  0.3999199E+03  0.7818608E-02  0.1043807E+00
         -1   -1    0    0    0  501 -0.00000000000E+00  0.00000000000E+00  0.16801032309E+04  0.16801032309E+04  0.50400000000E-02 0.  1.
          1   -1    0    0  501    0  0.00000000000E+00 -0.00000000000E+00 -0.25759078522E+03  0.25759078527E+03  0.50400000000E-02 0. -1.
    8880022    1    1    2    0    0 -0.24550859255E+03  0.27616990796E+03 -0.58013431762E+02  0.40410580095E+03  0.15294330000E+03 0. -1.
    8880022    1    1    2    0    0  0.24550859255E+03 -0.27616990796E+03  0.14805258774E+04  0.15335882152E+04  0.15294330000E+03 0. -1.
<mgrwt>
<rscale>  0 0.39991992E+03</rscale>
<asrwt>0</asrwt>
<pdfrwt beam="1">  1        1 0.39629354E-01 0.39991992E+03</pdfrwt>
<pdfrwt beam="2">  1       -1 0.25847741E+00 0.39991992E+03</pdfrwt>
<totfact> 0.72521044E+00</totfact>
</mgrwt>
</event>
<event>
 4    1  0.1852677E-008  0.9096451E+03  0.7818608E-02  0.9413604E-01
         -1   -1    0    0    0  501 -0.00000000000E+00  0.00000000000E+00  0.66537495895E+03  0.66537495897E+03  0.50400000000E-02 0.  1.
          1   -1    0    0  501    0  0.00000000000E+00 -0.00000000000E+00 -0.14303255903E+04  0.14303255903E+04  0.50400000000E-02 0. -1.
    8880022    1    1    2    0    0 -0.28460852378E+03  0.85032962545E+03 -0.76108739673E+03  0.11860472850E+04  0.15294330000E+03 0.  0.
    8880022    1    1    2    0    0  0.28460852378E+03 -0.85032962545E+03 -0.38632346649E+01  0.90965326434E+03  0.15294330000E+03 0.  0.
<mgrwt>
<rscale>  0 0.90964506E+03</rscale>
<asrwt>0</asrwt>
<pdfrwt beam="1">  1        1 0.22005009E+00 0.90964506E+03</pdfrwt>
<pdfrwt beam="2">  1       -1 0.10236538E+00 0.90964506E+03</pdfrwt>
<totfact> 0.67135634E+00</totfact>
</mgrwt>
</event>
<event>
 4    1  0.1852677E-008  0.9729121E+03  0.7818608E-02  0.9338764E-01
          1   -1    0    0  501    0  0.00000000000E+00  0.00000000000E+00  0.18913574256E+04  0.18913574256E+04  0.50400000000E-02 0. -1.
         -1   -1    0    0    0  501 -0.00000000000E+00 -0.00000000000E+00 -0.59796012675E+03  0.59796012677E+03  0.50400000000E-02 0.  1.
    8880022    1    1    2    0    0  0.96073474563E+03  0.12451771431E+02  0.11492794957E+04  0.15057892649E+04  0.15294330000E+03 0.  0.
    8880022    1    1    2    0    0 -0.96073474563E+03 -0.12451771431E+02  0.14411780315E+03  0.98352828748E+03  0.15294330000E+03 0.  0.
<mgrwt>
<rscale>  0 0.97291210E+03</rscale>
<asrwt>0</asrwt>
<pdfrwt beam="1">  1        1 0.29097807E+00 0.97291210E+03</pdfrwt>
<pdfrwt beam="2">  1       -1 0.91993865E-01 0.97291210E+03</pdfrwt>
<totfact> 0.41183439E+00</totfact>
</mgrwt>
</event>
<event>
 4    1  0.1852677E-008  0.6095998E+03  0.7818608E-02  0.9885687E-01
          1   -1    0    0  501    0  0.00000000000E+00  0.00000000000E+00  0.87980555306E+03  0.87980555307E+03  0.50400000000E-02 0. -1.
         -1   -1    0    0    0  501 -0.00000000000E+00 -0.00000000000E+00 -0.89139919882E+03  0.89139919883E+03  0.50400000000E-02 0.  1.
    8880022    1    1    2    0    0 -0.48252865573E+03 -0.33968574505E+03  0.63659222108E+03  0.88139753684E+03  0.15294330000E+03 0.  0.
    8880022    1    1    2    0    0  0.48252865573E+03  0.33968574505E+03 -0.64818586684E+03  0.88980721506E+03  0.15294330000E+03 0.  0.
<mgrwt>
<rscale>  0 0.60959984E+03</rscale>
<asrwt>0</asrwt>
<pdfrwt beam="1">  1        1 0.13535470E+00 0.60959984E+03</pdfrwt>
<pdfrwt beam="2">  1       -1 0.13713834E+00 0.60959984E+03</pdfrwt>
<totfact> 0.88248454E+00</totfact>
</mgrwt>
</event>
<event>
 4    1  0.1852677E-008  0.7414781E+03  0.7818608E-02  0.9648815E-01
          1   -1    0    0  501    0  0.00000000000E+00  0.00000000000E+00  0.28432016008E+04  0.28432016008E+04  0.50400000000E-02 0. -1.
         -1   -1    0    0    0  501 -0.00000000000E+00 -0.00000000000E+00 -0.21894196898E+03  0.21894196904E+03  0.50400000000E-02 0.  1.
    8880022    1    1    2    0    0 -0.61114663994E+03 -0.39102167948E+03  0.18353847604E+04  0.19795017153E+04  0.15294330000E+03 0.  0.
    8880022    1    1    2    0    0  0.61114663994E+03  0.39102167948E+03  0.78887487141E+03  0.10826418545E+04  0.15294330000E+03 0.  0.
<mgrwt>
<rscale>  0 0.74147813E+03</rscale>
<asrwt>0</asrwt>
<pdfrwt beam="1">  1        1 0.43741561E+00 0.74147813E+03</pdfrwt>
<pdfrwt beam="2">  1       -1 0.33683381E-01 0.74147813E+03</pdfrwt>
<totfact> 0.68624767E+00</totfact>
</mgrwt>
</event>
<event>
 4    1  0.1852677E-008  0.3358246E+03  0.7818608E-02  0.1068588E+00
          1   -1    0    0  501    0  0.00000000000E+00  0.00000000000E+00  0.19309456723E+04  0.19309456723E+04  0.50400000000E-02 0. -1.
         -1   -1    0    0    0  501 -0.00000000000E+00 -0.00000000000E+00 -0.21973322834E+03  0.21973322840E+03  0.50400000000E-02 0.  1.
    8880022    1    1    2    0    0 -0.23012337499E+03  0.19086584224E+03  0.17770142265E+04  0.18084683441E+04  0.15294330000E+03 0.  0.
    8880022    1    1    2    0    0  0.23012337499E+03 -0.19086584224E+03 -0.65801782538E+02  0.34221055660E+03  0.15294330000E+03 0.  0.
<mgrwt>
<rscale>  0 0.33582464E+03</rscale>
<asrwt>0</asrwt>
<pdfrwt beam="1">  1        1 0.29706858E+00 0.33582464E+03</pdfrwt>
<pdfrwt beam="2">  1       -1 0.33805110E-01 0.33582464E+03</pdfrwt>
<totfact> 0.30794245E+01</totfact>
</mgrwt>
</event>
<event>
 4    1  0.1852677E-008  0.3523685E+03  0.7818608E-02  0.1061647E+00
         -1   -1    0    0    0  501 -0.00000000000E+00  0.00000000000E+00  0.32547068699E+03  0.32547068703E+03  0.50400000000E-02 0.  1.
          1   -1    0    0  501    0  0.00000000000E+00 -0.00000000000E+00 -0.10441903347E+04  0.10441903347E+04  0.50400000000E-02 0. -1.
    8880022    1    1    2    0    0 -0.72500314705E-01 -0.31744588444E+03 -0.90493189246E+03  0.97111548119E+03  0.15294330000E+03 0.  0.
    8880022    1    1    2    0    0  0.72500314705E-01  0.31744588444E+03  0.18621224473E+03  0.39854554057E+03  0.15294330000E+03 0.  0.
<mgrwt>
<rscale>  0 0.35236848E+03</rscale>
<asrwt>0</asrwt>
<pdfrwt beam="1">  1        1 0.16064467E+00 0.35236848E+03</pdfrwt>
<pdfrwt beam="2">  1       -1 0.50072414E-01 0.35236848E+03</pdfrwt>
<totfact> 0.60489498E+01</totfact>
</mgrwt>
</event>
<event>
 4    1  0.1852677E-008  0.6201982E+03  0.7818608E-02  0.9864365E-01
         -1   -1    0    0    0  501 -0.00000000000E+00  0.00000000000E+00  0.27254888321E+04  0.27254888321E+04  0.50400000000E-02 0.  1.
          1   -1    0    0  501    0  0.00000000000E+00 -0.00000000000E+00 -0.14885028945E+03  0.14885028953E+03  0.50400000000E-02 0. -1.
    8880022    1    1    2    0    0  0.43638160964E+02 -0.59945800049E+03  0.96099760557E+03  0.11437492008E+04  0.15294330000E+03 0.  0.
    8880022    1    1    2    0    0 -0.43638160964E+02  0.59945800049E+03  0.16156409371E+04  0.17305899208E+04  0.15294330000E+03 0.  0.
<mgrwt>
<rscale>  0 0.62019822E+03</rscale>
<asrwt>0</asrwt>
<pdfrwt beam="1">  1        1 0.22900047E-01 0.62019822E+03</pdfrwt>
<pdfrwt beam="2">  1       -1 0.41930594E+00 0.62019822E+03</pdfrwt>
<totfact> 0.12608154E+00</totfact>
</mgrwt>
</event>
<event>
 4    1  0.1852677E-008  0.7512048E+03  0.7818608E-02  0.9633462E-01
          1   -1    0    0  501    0  0.00000000000E+00  0.00000000000E+00  0.13305113530E+04  0.13305113530E+04  0.50400000000E-02 0. -1.
         -1   -1    0    0    0  501 -0.00000000000E+00 -0.00000000000E+00 -0.75411467361E+03  0.75411467363E+03  0.50400000000E-02 0.  1.
    8880022    1    1    2    0    0 -0.62780219640E+03  0.38312061918E+03  0.97768664299E+03  0.12329557298E+04  0.15294330000E+03 0.  0.
    8880022    1    1    2    0    0  0.62780219640E+03 -0.38312061918E+03 -0.40128996362E+03  0.85167029686E+03  0.15294330000E+03 0.  0.
<mgrwt>
<rscale>  0 0.75120481E+03</rscale>
<asrwt>0</asrwt>
<pdfrwt beam="1">  1        1 0.20469405E+00 0.75120481E+03</pdfrwt>
<pdfrwt beam="2">  1       -1 0.11601764E+00 0.75120481E+03</pdfrwt>
<totfact> 0.60043818E+00</totfact>
</mgrwt>
</event>
<event>
 4    1  0.1852677E-008  0.1564457E+03  0.7818608E-02  0.1192769E+00
         -1   -1    0    0    0  501 -0.00000000000E+00  0.00000000000E+00  0.55293882577E+03  0.55293882579E+03  0.50400000000E-02 0.  1.
          1   -1    0    0  501    0  0.00000000000E+00 -0.00000000000E+00 -0.76607707660E+03  0.76607707662E+03  0.50400000000E-02 0. -1.
    8880022    1    1    2    0    0  0.30091489488E+02 -0.13345677473E+02  0.53360215896E+03  0.55606341537E+03  0.15294330000E+03 0.  1.
    8880022    1    1    2    0    0 -0.30091489488E+02  0.13345677473E+02 -0.74674040980E+03  0.76295248704E+03  0.15294330000E+03 0.  0.
<mgrwt>
<rscale>  0 0.15644570E+03</rscale>
<asrwt>0</asrwt>
<pdfrwt beam="1">  1        1 0.11785801E+00 0.15644570E+03</pdfrwt>
<pdfrwt beam="2">  1       -1 0.85067511E-01 0.15644570E+03</pdfrwt>
<totfact> 0.37479625E+01</totfact>
</mgrwt>
</event>
<event>
 4    1  0.1852677E-008  0.3312565E+03  0.7818608E-02  0.1070582E+00
          1   -1    0    0  501    0  0.00000000000E+00  0.00000000000E+00  0.18212066106E+04  0.18212066106E+04  0.50400000000E-02 0. -1.
         -1   -1    0    0    0  501 -0.00000000000E+00 -0.00000000000E+00 -0.26500926095E+03  0.26500926100E+03  0.50400000000E-02 0.  1.
    8880022    1    1    2    0    0 -0.12543271831E+02  0.29356750003E+03 -0.13879432572E+03  0.35915836147E+03  0.15294330000E+03 0.  1.
    8880022    1    1    2    0    0  0.12543271831E+02 -0.29356750003E+03  0.16949916753E+04  0.17270575101E+04  0.15294330000E+03 0.  0.
<mgrwt>
<rscale>  0 0.33125649E+03</rscale>
<asrwt>0</asrwt>
<pdfrwt beam="1">  1        1 0.28018561E+00 0.33125649E+03</pdfrwt>
<pdfrwt beam="2">  1       -1 0.40770658E-01 0.33125649E+03</pdfrwt>
<totfact> 0.26118645E+01</totfact>
</mgrwt>
</event>
<event>
 4    1  0.1852677E-008  0.8627003E+03  0.7818608E-02  0.9473448E-01
         -1   -1    0    0    0  501 -0.00000000000E+00  0.00000000000E+00  0.98122841451E+03  0.98122841453E+03  0.50400000000E-02 0.  1.
          1   -1    0    0  501    0  0.00000000000E+00 -0.00000000000E+00 -0.16813388900E+04  0.16813388900E+04  0.50400000000E-02 0. -1.
    8880022    1    1    2    0    0 -0.51044648118E+03 -0.67845753356E+03 -0.13363535260E+04  0.15906264912E+04  0.15294330000E+03 0.  0.
    8880022    1    1    2    0    0  0.51044648118E+03  0.67845753356E+03  0.63624305051E+03  0.10719408134E+04  0.15294330000E+03 0.  0.
<mgrwt>
<rscale>  0 0.86270035E+03</rscale>
<asrwt>0</asrwt>
<pdfrwt beam="1">  1        1 0.25866752E+00 0.86270035E+03</pdfrwt>
<pdfrwt beam="2">  1       -1 0.15095822E+00 0.86270035E+03</pdfrwt>
<totfact> 0.17319843E+00</totfact>
</mgrwt>
</event>
<event>
 4    1  0.1852677E-008  0.4860822E+03  0.7818608E-02  0.1017477E+00
         -1   -1    0    0    0  501 -0.00000000000E+00  0.00000000000E+00  0.66185879094E+03  0.66185879096E+03  0.50400000000E-02 0.  1.
          1   -1    0    0  501    0  0.00000000000E+00 -0.00000000000E+00 -0.29994196345E+04  0.29994196345E+04  0.50400000000E-02 0. -1.
    8880022    1    1    2    0    0 -0.18022048018E+02  0.46104175770E+03 -0.28870289797E+04  0.29276632797E+04  0.15294330000E+03 0.  0.
    8880022    1    1    2    0    0  0.18022048018E+02 -0.46104175770E+03  0.54946813611E+03  0.73361514581E+03  0.15294330000E+03 0.  0.
<mgrwt>
<rscale>  0 0.48608225E+03</rscale>
<asrwt>0</asrwt>
<pdfrwt beam="1">  1        1 0.46144916E+00 0.48608225E+03</pdfrwt>
<pdfrwt beam="2">  1       -1 0.10182443E+00 0.48608225E+03</pdfrwt>
<totfact> 0.64008305E-01</totfact>
</mgrwt>
</event>
<event>
 4    1  0.1852677E-008  0.9040532E+03  0.7818608E-02  0.9420529E-01
         -1   -1    0    0    0  501 -0.00000000000E+00  0.00000000000E+00  0.45451389797E+03  0.45451389800E+03  0.50400000000E-02 0.  1.
          1   -1    0    0  501    0  0.00000000000E+00 -0.00000000000E+00 -0.33068628042E+04  0.33068628042E+04  0.50400000000E-02 0. -1.
    8880022    1    1    2    0    0 -0.77305349374E+03  0.44306758093E+03 -0.15588367818E+03  0.91739411356E+03  0.15294330000E+03 0.  0.
    8880022    1    1    2    0    0  0.77305349374E+03 -0.44306758093E+03 -0.26964652280E+04  0.28439825886E+04  0.15294330000E+03 0.  0.
<mgrwt>
<rscale>  0 0.90405323E+03</rscale>
<asrwt>0</asrwt>
<pdfrwt beam="1">  1        1 0.50874811E+00 0.90405323E+03</pdfrwt>
<pdfrwt beam="2">  1       -1 0.69925217E-01 0.90405323E+03</pdfrwt>
<totfact> 0.76837060E-01</totfact>
</mgrwt>
</event>
<event>
 4    1  0.1852677E-008  0.2256397E+03  0.7818608E-02  0.1129747E+00
         -1   -1    0    0    0  501 -0.00000000000E+00  0.00000000000E+00  0.31479801293E+03  0.31479801297E+03  0.50400000000E-02 0.  1.
          1   -1    0    0  501    0  0.00000000000E+00 -0.00000000000E+00 -0.14552803612E+04  0.14552803612E+04  0.50400000000E-02 0. -1.
    8880022    1    1    2    0    0  0.12942638499E+03 -0.10378058781E+03  0.26417040031E+03  0.34741798018E+03  0.15294330000E+03 0.  0.
    8880022    1    1    2    0    0 -0.12942638499E+03  0.10378058781E+03 -0.14046527486E+04  0.14226603940E+04  0.15294330000E+03 0. -1.
<mgrwt>
<rscale>  0 0.22563965E+03</rscale>
<asrwt>0</asrwt>
<pdfrwt beam="1">  1        1 0.22388928E+00 0.22563965E+03</pdfrwt>
<pdfrwt beam="2">  1       -1 0.48430464E-01 0.22563965E+03</pdfrwt>
<totfact> 0.34523333E+01</totfact>
</mgrwt>
</event>
<event>
 4    1  0.1852677E-008  0.5528353E+03  0.7818608E-02  0.1000840E+00
         -1   -1    0    0    0  501 -0.00000000000E+00  0.00000000000E+00  0.73946641473E+03  0.73946641475E+03  0.50400000000E-02 0.  1.
          1   -1    0    0  501    0  0.00000000000E+00 -0.00000000000E+00 -0.60551981648E+03  0.60551981650E+03  0.50400000000E-02 0. -1.
    8880022    1    1    2    0    0 -0.26533961929E+03  0.46025008910E+03  0.44586442000E+03  0.71022671882E+03  0.15294330000E+03 0.  0.
    8880022    1    1    2    0    0  0.26533961929E+03 -0.46025008910E+03 -0.31191782174E+03  0.63475951243E+03  0.15294330000E+03 0.  0.
<mgrwt>
<rscale>  0 0.55283534E+03</rscale>
<asrwt>0</asrwt>
<pdfrwt beam="1">  1        1 0.93156895E-01 0.55283534E+03</pdfrwt>
<pdfrwt beam="2">  1       -1 0.11376406E+00 0.55283534E+03</pdfrwt>
<totfact> 0.25007962E+01</totfact>
</mgrwt>
</event>
<event>
 4    1  0.1852677E-008  0.3074050E+03  0.7818608E-02  0.1081596E+00
         -1   -1    0    0    0  501 -0.00000000000E+00  0.00000000000E+00  0.32980810393E+03  0.32980810397E+03  0.50400000000E-02 0.  1.
          1   -1    0    0  501    0  0.00000000000E+00 -0.00000000000E+00 -0.68362699893E+03  0.68362699895E+03  0.50400000000E-02 0. -1.
    8880022    1    1    2    0    0 -0.23511953067E+03 -0.12579747502E+03 -0.56310571306E+03  0.64154960488E+03  0.15294330000E+03 0. -1.
    8880022    1    1    2    0    0  0.23511953067E+03  0.12579747502E+03  0.20928681806E+03  0.37188549804E+03  0.15294330000E+03 0.  0.
<mgrwt>
<rscale>  0 0.30740503E+03</rscale>
<asrwt>0</asrwt>
<pdfrwt beam="1">  1        1 0.10517338E+00 0.30740503E+03</pdfrwt>
<pdfrwt beam="2">  1       -1 0.50739708E-01 0.30740503E+03</pdfrwt>
<totfact> 0.11738922E+02</totfact>
</mgrwt>
</event>
<event>
 4    1  0.1852677E-008  0.5865960E+03  0.7818608E-02  0.9933612E-01
         -1   -1    0    0    0  501 -0.00000000000E+00  0.00000000000E+00  0.49133491034E+03  0.49133491037E+03  0.50400000000E-02 0.  1.
          1   -1    0    0  501    0  0.00000000000E+00 -0.00000000000E+00 -0.73206214108E+03  0.73206214110E+03  0.50400000000E-02 0. -1.
    8880022    1    1    2    0    0  0.21341709105E+03 -0.52455350371E+03 -0.24772468833E+03  0.63675930086E+03  0.15294330000E+03 0.  0.
    8880022    1    1    2    0    0 -0.21341709105E+03  0.52455350371E+03  0.69974575870E+01  0.58663775061E+03  0.15294330000E+03 0.  0.
<mgrwt>
<rscale>  0 0.58659602E+03</rscale>
<asrwt>0</asrwt>
<pdfrwt beam="1">  1        1 0.11262494E+00 0.58659602E+03</pdfrwt>
<pdfrwt beam="2">  1       -1 0.75589986E-01 0.58659602E+03</pdfrwt>
<totfact> 0.46549688E+01</totfact>
</mgrwt>
</event>
<event>
 4    1  0.1852677E-008  0.4508418E+03  0.7818608E-02  0.1027471E+00
         -1   -1    0    0    0  501 -0.00000000000E+00  0.00000000000E+00  0.41376864777E+03  0.41376864780E+03  0.50400000000E-02 0.  1.
          1   -1    0    0  501    0  0.00000000000E+00 -0.00000000000E+00 -0.12228598197E+04  0.12228598197E+04  0.50400000000E-02 0. -1.
    8880022    1    1    2    0    0 -0.42163337525E+03 -0.45738310218E+02  0.22841326220E+03  0.50540178819E+03  0.15294330000E+03 0.  0.
    8880022    1    1    2    0    0  0.42163337525E+03  0.45738310218E+02 -0.10375044341E+04  0.11312266793E+04  0.15294330000E+03 0.  0.
<mgrwt>
<rscale>  0 0.45084182E+03</rscale>
<asrwt>0</asrwt>
<pdfrwt beam="1">  1        1 0.18813228E+00 0.45084182E+03</pdfrwt>
<pdfrwt beam="2">  1       -1 0.63656716E-01 0.45084182E+03</pdfrwt>
<totfact> 0.27748183E+01</totfact>
</mgrwt>
</event>
<event>
 4    1  0.1852677E-008  0.8091382E+03  0.7818608E-02  0.9546883E-01
          1   -1    0    0  501    0  0.00000000000E+00  0.00000000000E+00  0.17246522481E+04  0.17246522481E+04  0.50400000000E-02 0. -1.
         -1   -1    0    0    0  501 -0.00000000000E+00 -0.00000000000E+00 -0.66189620364E+03  0.66189620366E+03  0.50400000000E-02 0.  1.
    8880022    1    1    2    0    0 -0.67366870739E+03  0.42128792849E+03 -0.24788832685E+03  0.84625842484E+03  0.15294330000E+03 0.  0.
    8880022    1    1    2    0    0  0.67366870739E+03 -0.42128792849E+03  0.13106443713E+04  0.15402900269E+04  0.15294330000E+03 0.  0.
<mgrwt>
<rscale>  0 0.80913824E+03</rscale>
<asrwt>0</asrwt>
<pdfrwt beam="1">  1        1 0.26533112E+00 0.80913824E+03</pdfrwt>
<pdfrwt beam="2">  1       -1 0.10183018E+00 0.80913824E+03</pdfrwt>
<totfact> 0.43409398E+00</totfact>
</mgrwt>
</event>
<event>
 4    1  0.1852677E-008  0.4763157E+03  0.7818608E-02  0.1020153E+00
         -1   -1    0    0    0  501 -0.00000000000E+00  0.00000000000E+00  0.31708559085E+04  0.31708559085E+04  0.50400000000E-02 0.  1.
          1   -1    0    0  501    0  0.00000000000E+00 -0.00000000000E+00 -0.27396654951E+03  0.27396654956E+03  0.50400000000E-02 0. -1.
    8880022    1    1    2    0    0  0.43271966588E+03 -0.12743126560E+03  0.29289515505E+04  0.29674288324E+04  0.15294330000E+03 0.  0.
    8880022    1    1    2    0    0 -0.43271966588E+03  0.12743126560E+03 -0.32062191569E+02  0.47739362568E+03  0.15294330000E+03 0.  0.
<mgrwt>
<rscale>  0 0.47631575E+03</rscale>
<asrwt>0</asrwt>
<pdfrwt beam="1">  1        1 0.42148699E-01 0.47631575E+03</pdfrwt>
<pdfrwt beam="2">  1       -1 0.48782399E+00 0.47631575E+03</pdfrwt>
<totfact> 0.20168715E-01</totfact>
</mgrwt>
</event>
<event>
 4    1  0.1852677E-008  0.4943701E+03  0.7818608E-02  0.1015259E+00
          1   -1    0    0  501    0  0.00000000000E+00  0.00000000000E+00  0.21281921284E+04  0.21281921285E+04  0.50400000000E-02 0. -1.
         -1   -1    0    0    0  501 -0.00000000000E+00 -0.00000000000E+00 -0.52935699102E+03  0.52935699104E+03  0.50400000000E-02 0.  1.
    8880022    1    1    2    0    0  0.25226176478E+03 -0.39670415411E+03 -0.37642203699E+03  0.62136574319E+03  0.15294330000E+03 0.  1.
    8880022    1    1    2    0    0 -0.25226176478E+03  0.39670415411E+03  0.19752571744E+04  0.20361833763E+04  0.15294330000E+03 0.  0.
<mgrwt>
<rscale>  0 0.49437014E+03</rscale>
<asrwt>0</asrwt>
<pdfrwt beam="1">  1        1 0.32741417E+00 0.49437014E+03</pdfrwt>
<pdfrwt beam="2">  1       -1 0.81439538E-01 0.49437014E+03</pdfrwt>
<totfact> 0.40873313E+00</totfact>
</mgrwt>
</event>
<event>
 4    1  0.1852677E-008  0.2033041E+03  0.7818608E-02  0.1146981E+00
         -1   -1    0    0    0  501 -0.00000000000E+00  0.00000000000E+00  0.11617285557E+03  0.11617285568E+03  0.50400000000E-02 0.  1.
          1   -1    0    0  501    0  0.00000000000E+00 -0.00000000000E+00 -0.41611595537E+03  0.41611595540E+03  0.50400000000E-02 0. -1.
    8880022    1    1    2    0    0  0.71265943582E+02  0.11341105670E+03 -0.48631671087E+02  0.20903969706E+03  0.15294330000E+03 0.  1.
    8880022    1    1    2    0    0 -0.71265943582E+02 -0.11341105670E+03 -0.25131142872E+03  0.32324911403E+03  0.15294330000E+03 0.  0.
<mgrwt>
<rscale>  0 0.20330410E+03</rscale>
<asrwt>0</asrwt>
<pdfrwt beam="1">  1        1 0.64017839E-01 0.20330410E+03</pdfrwt>
<pdfrwt beam="2">  1       -1 0.17872747E-01 0.20330410E+03</pdfrwt>
<totfact> 0.13888092E+03</totfact>
</mgrwt>
</event>
<event>
 4    1  0.1852677E-008  0.6677199E+03  0.7818608E-02  0.9774086E-01
         -1   -1    0    0    0  501 -0.00000000000E+00  0.00000000000E+00  0.82879935684E+03  0.82879935685E+03  0.50400000000E-02 0.  1.
          1   -1    0    0  501    0  0.00000000000E+00 -0.00000000000E+00 -0.89458020389E+03  0.89458020390E+03  0.50400000000E-02 0. -1.
    8880022    1    1    2    0    0  0.64227584085E+03 -0.99699254266E+02  0.51117658542E+03  0.84092291653E+03  0.15294330000E+03 0.  0.
    8880022    1    1    2    0    0 -0.64227584085E+03  0.99699254266E+02 -0.57695743247E+03  0.88245664423E+03  0.15294330000E+03 0.  0.
<mgrwt>
<rscale>  0 0.66771989E+03</rscale>
<asrwt>0</asrwt>
<pdfrwt beam="1">  1        1 0.13762772E+00 0.66771989E+03</pdfrwt>
<pdfrwt beam="2">  1       -1 0.12750759E+00 0.66771989E+03</pdfrwt>
<totfact> 0.10220093E+01</totfact>
</mgrwt>
</event>
<event>
 4    1  0.1852677E-008  0.9427610E+03  0.7818608E-02  0.9373652E-01
          1   -1    0    0  501    0  0.00000000000E+00  0.00000000000E+00  0.13574324972E+04  0.13574324972E+04  0.50400000000E-02 0. -1.
         -1   -1    0    0    0  501 -0.00000000000E+00 -0.00000000000E+00 -0.81029025460E+03  0.81029025461E+03  0.50400000000E-02 0.  1.
    8880022    1    1    2    0    0 -0.22643767744E+03 -0.90229295443E+03  0.74841950183E+03  0.12037150830E+04  0.15294330000E+03 0.  0.
    8880022    1    1    2    0    0  0.22643767744E+03  0.90229295443E+03 -0.20127725923E+03  0.96400766879E+03  0.15294330000E+03 0.  0.
<mgrwt>
<rscale>  0 0.94276097E+03</rscale>
<asrwt>0</asrwt>
<pdfrwt beam="1">  1        1 0.20883577E+00 0.94276097E+03</pdfrwt>
<pdfrwt beam="2">  1       -1 0.12466004E+00 0.94276097E+03</pdfrwt>
<totfact> 0.46922312E+00</totfact>
</mgrwt>
</event>
<event>
 4    1  0.1852677E-008  0.3878570E+03  0.7818608E-02  0.1048067E+00
         -1   -1    0    0    0  501 -0.00000000000E+00  0.00000000000E+00  0.12167091710E+03  0.12167091720E+03  0.50400000000E-02 0.  1.
          1   -1    0    0  501    0  0.00000000000E+00 -0.00000000000E+00 -0.15697285834E+04  0.15697285834E+04  0.50400000000E-02 0. -1.
    8880022    1    1    2    0    0  0.14070820003E+01 -0.35642590216E+03 -0.33431588923E+03  0.51205485098E+03  0.15294330000E+03 0.  0.
    8880022    1    1    2    0    0 -0.14070820003E+01  0.35642590216E+03 -0.11137417770E+04  0.11793446496E+04  0.15294330000E+03 0.  0.
<mgrwt>
<rscale>  0 0.38785701E+03</rscale>
<asrwt>0</asrwt>
<pdfrwt beam="1">  1        1 0.24149669E+00 0.38785701E+03</pdfrwt>
<pdfrwt beam="2">  1       -1 0.18718604E-01 0.38785701E+03</pdfrwt>
<totfact> 0.14243101E+02</totfact>
</mgrwt>
</event>
<event>
 4    1  0.1852677E-008  0.4730081E+03  0.7818608E-02  0.1021075E+00
         -1   -1    0    0    0  501 -0.00000000000E+00  0.00000000000E+00  0.52724684261E+03  0.52724684263E+03  0.50400000000E-02 0.  1.
          1   -1    0    0  501    0  0.00000000000E+00 -0.00000000000E+00 -0.83331510867E+03  0.83331510869E+03  0.50400000000E-02 0. -1.
    8880022    1    1    2    0    0  0.28252453198E+03 -0.34716690241E+03 -0.62960490758E+03  0.78748902339E+03  0.15294330000E+03 0.  0.
    8880022    1    1    2    0    0 -0.28252453198E+03  0.34716690241E+03  0.32353664152E+03  0.57307292793E+03  0.15294330000E+03 0.  0.
<mgrwt>
<rscale>  0 0.47300806E+03</rscale>
<asrwt>0</asrwt>
<pdfrwt beam="1">  1        1 0.12820232E+00 0.47300806E+03</pdfrwt>
<pdfrwt beam="2">  1       -1 0.81114899E-01 0.47300806E+03</pdfrwt>
<totfact> 0.33324111E+01</totfact>
</mgrwt>
</event>
<event>
 4    1  0.1852677E-008  0.8711197E+03  0.7818608E-02  0.9462421E-01
         -1   -1    0    0    0  501 -0.00000000000E+00  0.00000000000E+00  0.85388393412E+03  0.85388393414E+03  0.50400000000E-02 0.  1.
          1   -1    0    0  501    0  0.00000000000E+00 -0.00000000000E+00 -0.20653095715E+04  0.20653095715E+04  0.50400000000E-02 0. -1.
    8880022    1    1    2    0    0 -0.70596456126E+03  0.48690033234E+03 -0.17073938509E+04  0.19167794110E+04  0.15294330000E+03 0.  0.
    8880022    1    1    2    0    0  0.70596456126E+03 -0.48690033234E+03  0.49596821348E+03  0.10024140947E+04  0.15294330000E+03 0.  0.
<mgrwt>
<rscale>  0 0.87111971E+03</rscale>
<asrwt>0</asrwt>
<pdfrwt beam="1">  1        1 0.31773993E+00 0.87111971E+03</pdfrwt>
<pdfrwt beam="2">  1       -1 0.13136676E+00 0.87111971E+03</pdfrwt>
<totfact> 0.13731513E+00</totfact>
</mgrwt>
</event>
<event>
 4    1  0.1852677E-008  0.1757394E+03  0.7818608E-02  0.1171991E+00
         -1   -1    0    0    0  501 -0.00000000000E+00  0.00000000000E+00  0.52202681301E+03  0.52202681304E+03  0.50400000000E-02 0.  1.
          1   -1    0    0  501    0  0.00000000000E+00 -0.00000000000E+00 -0.29914463092E+03  0.29914463097E+03  0.50400000000E-02 0. -1.
    8880022    1    1    2    0    0 -0.86529480318E+02 -0.23055465820E+01  0.47919123245E+03  0.51040038869E+03  0.15294330000E+03 0.  0.
    8880022    1    1    2    0    0  0.86529480318E+02  0.23055465820E+01 -0.25630905036E+03  0.31077105531E+03  0.15294330000E+03 0. -1.
<mgrwt>
<rscale>  0 0.17573935E+03</rscale>
<asrwt>0</asrwt>
<pdfrwt beam="1">  1        1 0.46022251E-01 0.17573935E+03</pdfrwt>
<pdfrwt beam="2">  1       -1 0.80311816E-01 0.17573935E+03</pdfrwt>
<totfact> 0.14577000E+02</totfact>
</mgrwt>
</event>
<event>
 4    1  0.1852677E-008  0.9577143E+03  0.7818608E-02  0.9356179E-01
          1   -1    0    0  501    0  0.00000000000E+00  0.00000000000E+00  0.30395493468E+04  0.30395493468E+04  0.50400000000E-02 0. -1.
         -1   -1    0    0    0  501 -0.00000000000E+00 -0.00000000000E+00 -0.80119763483E+03  0.80119763484E+03  0.50400000000E-02 0.  1.
    8880022    1    1    2    0    0 -0.94255431640E+03  0.73596650087E+02  0.26353747296E+04  0.28040001293E+04  0.15294330000E+03 0.  0.
    8880022    1    1    2    0    0  0.94255431640E+03 -0.73596650087E+02 -0.39702301770E+03  0.10367468524E+04  0.15294330000E+03 0.  0.
<mgrwt>
<rscale>  0 0.95771434E+03</rscale>
<asrwt>0</asrwt>
<pdfrwt beam="1">  1        1 0.46762298E+00 0.95771434E+03</pdfrwt>
<pdfrwt beam="2">  1       -1 0.12326117E+00 0.95771434E+03</pdfrwt>
<totfact> 0.33597786E-01</totfact>
</mgrwt>
</event>
<event>
 4    1  0.1852677E-008  0.2721927E+03  0.7818608E-02  0.1100031E+00
          1   -1    0    0  501    0  0.00000000000E+00  0.00000000000E+00  0.15463641249E+03  0.15463641257E+03  0.50400000000E-02 0. -1.
         -1   -1    0    0    0  501 -0.00000000000E+00 -0.00000000000E+00 -0.62832861520E+03  0.62832861522E+03  0.50400000000E-02 0.  1.
    8880022    1    1    2    0    0  0.12677784899E+03  0.18607688731E+03 -0.46071420301E+02  0.27606423124E+03  0.15294330000E+03 0.  0.
    8880022    1    1    2    0    0 -0.12677784899E+03 -0.18607688731E+03 -0.42762078240E+03  0.50690079655E+03  0.15294330000E+03 0.  0.
<mgrwt>
<rscale>  0 0.27219273E+03</rscale>
<asrwt>0</asrwt>
<pdfrwt beam="1">  1        1 0.23790218E-01 0.27219273E+03</pdfrwt>
<pdfrwt beam="2">  1       -1 0.96665940E-01 0.27219273E+03</pdfrwt>
<totfact> 0.22280467E+02</totfact>
</mgrwt>
</event>
<event>
 4    1  0.1852677E-008  0.6262938E+03  0.7818608E-02  0.9852308E-01
          1   -1    0    0  501    0  0.00000000000E+00  0.00000000000E+00  0.12180887497E+04  0.12180887497E+04  0.50400000000E-02 0. -1.
         -1   -1    0    0    0  501 -0.00000000000E+00 -0.00000000000E+00 -0.33206811493E+03  0.33206811497E+03  0.50400000000E-02 0.  1.
    8880022    1    1    2    0    0 -0.52775767365E+03  0.30053979121E+03  0.57786384306E+03  0.85215644241E+03  0.15294330000E+03 0.  0.
    8880022    1    1    2    0    0  0.52775767365E+03 -0.30053979121E+03  0.30815679169E+03  0.69800042226E+03  0.15294330000E+03 0.  0.
<mgrwt>
<rscale>  0 0.62629385E+03</rscale>
<asrwt>0</asrwt>
<pdfrwt beam="1">  1        1 0.18739827E+00 0.62629385E+03</pdfrwt>
<pdfrwt beam="2">  1       -1 0.51087402E-01 0.62629385E+03</pdfrwt>
<totfact> 0.41614062E+01</totfact>
</mgrwt>
</event>
<event>
 4    1  0.1852677E-008  0.3314619E+03  0.7818608E-02  0.1070492E+00
          1   -1    0    0  501    0  0.00000000000E+00  0.00000000000E+00  0.49180099863E+03  0.49180099865E+03  0.50400000000E-02 0. -1.
         -1   -1    0    0    0  501 -0.00000000000E+00 -0.00000000000E+00 -0.30244400279E+03  0.30244400283E+03  0.50400000000E-02 0.  1.
    8880022    1    1    2    0    0 -0.22153075112E+03  0.19338947683E+03 -0.10834386539E+03  0.34871967198E+03  0.15294330000E+03 0.  0.
    8880022    1    1    2    0    0  0.22153075112E+03 -0.19338947683E+03  0.29770086123E+03  0.44552532951E+03  0.15294330000E+03 0.  0.
<mgrwt>
<rscale>  0 0.33146194E+03</rscale>
<asrwt>0</asrwt>
<pdfrwt beam="1">  1        1 0.75661692E-01 0.33146194E+03</pdfrwt>
<pdfrwt beam="2">  1       -1 0.46529847E-01 0.33146194E+03</pdfrwt>
<totfact> 0.21731470E+02</totfact>
</mgrwt>
</event>
<event>
 4    1  0.1852677E-008  0.1302581E+04  0.7818608E-02  0.9027521E-01
          1   -1    0    0  501    0  0.00000000000E+00  0.00000000000E+00  0.28259639173E+04  0.28259639173E+04  0.50400000000E-02 0. -1.
         -1   -1    0    0    0  501 -0.00000000000E+00 -0.00000000000E+00 -0.85236771742E+03  0.85236771743E+03  0.50400000000E-02 0.  1.
    8880022    1    1    2    0    0  0.12787756611E+04 -0.19508839200E+03  0.19867449500E+04  0.23756838639E+04  0.15294330000E+03 0.  0.
    8880022    1    1    2    0    0 -0.12787756611E+04  0.19508839200E+03 -0.13148750029E+02  0.13026477708E+04  0.15294330000E+03 0.  0.
<mgrwt>
<rscale>  0 0.13025814E+04</rscale>
<asrwt>0</asrwt>
<pdfrwt beam="1">  1        1 0.43476368E+00 0.13025814E+04</pdfrwt>
<pdfrwt beam="2">  1       -1 0.13113349E+00 0.13025814E+04</pdfrwt>
<totfact> 0.38715008E-01</totfact>
</mgrwt>
</event>
<event>
 4    1  0.1852677E-008  0.5636771E+03  0.7818608E-02  0.9983769E-01
         -1   -1    0    0    0  501 -0.00000000000E+00  0.00000000000E+00  0.44038144668E+03  0.44038144671E+03  0.50400000000E-02 0.  1.
          1   -1    0    0  501    0  0.00000000000E+00 -0.00000000000E+00 -0.10247553722E+04  0.10247553723E+04  0.50400000000E-02 0. -1.
    8880022    1    1    2    0    0  0.54085086523E+03 -0.42667694154E+02 -0.69070484735E+03  0.89151838439E+03  0.15294330000E+03 0.  0.
    8880022    1    1    2    0    0 -0.54085086523E+03  0.42667694154E+02  0.10633092178E+03  0.57361843458E+03  0.15294330000E+03 0.  0.
<mgrwt>
<rscale>  0 0.56367707E+03</rscale>
<asrwt>0</asrwt>
<pdfrwt beam="1">  1        1 0.15765467E+00 0.56367707E+03</pdfrwt>
<pdfrwt beam="2">  1       -1 0.67750992E-01 0.56367707E+03</pdfrwt>
<totfact> 0.33562658E+01</totfact>
</mgrwt>
</event>
<event>
 4    1  0.1852677E-008  0.4641841E+03  0.7818608E-02  0.1023575E+00
          1   -1    0    0  501    0  0.00000000000E+00  0.00000000000E+00  0.12588303082E+04  0.12588303082E+04  0.50400000000E-02 0. -1.
         -1   -1    0    0    0  501 -0.00000000000E+00 -0.00000000000E+00 -0.33303521443E+03  0.33303521447E+03  0.50400000000E-02 0.  1.
    8880022    1    1    2    0    0 -0.21970881300E+03 -0.37921403579E+03 -0.92003589856E+02  0.47321407525E+03  0.15294330000E+03 0.  0.
    8880022    1    1    2    0    0  0.21970881300E+03  0.37921403579E+03  0.10177986836E+04  0.11186514474E+04  0.15294330000E+03 0.  0.
<mgrwt>
<rscale>  0 0.46418412E+03</rscale>
<asrwt>0</asrwt>
<pdfrwt beam="1">  1        1 0.19366620E+00 0.46418412E+03</pdfrwt>
<pdfrwt beam="2">  1       -1 0.51236187E-01 0.46418412E+03</pdfrwt>
<totfact> 0.39692428E+01</totfact>
</mgrwt>
</event>
<event>
 4    1  0.1852677E-008  0.6406379E+03  0.7818608E-02  0.9824507E-01
          1   -1    0    0  501    0  0.00000000000E+00  0.00000000000E+00  0.14540222876E+04  0.14540222876E+04  0.50400000000E-02 0. -1.
         -1   -1    0    0    0  501 -0.00000000000E+00 -0.00000000000E+00 -0.97288404161E+03  0.97288404162E+03  0.50400000000E-02 0.  1.
    8880022    1    1    2    0    0 -0.59738468544E+03 -0.17365727298E+03 -0.78181082558E+03  0.10107646268E+04  0.15294330000E+03 0.  0.
    8880022    1    1    2    0    0  0.59738468544E+03  0.17365727298E+03  0.12629490716E+04  0.14161417024E+04  0.15294330000E+03 0.  0.
<mgrwt>
<rscale>  0 0.64063794E+03</rscale>
<asrwt>0</asrwt>
<pdfrwt beam="1">  1        1 0.22369574E+00 0.64063794E+03</pdfrwt>
<pdfrwt beam="2">  1       -1 0.14967447E+00 0.64063794E+03</pdfrwt>
<totfact> 0.26392331E+00</totfact>
</mgrwt>
</event>
<event>
 4    1  0.1852677E-008  0.5639941E+03  0.7818608E-02  0.9983058E-01
          1   -1    0    0  501    0  0.00000000000E+00  0.00000000000E+00  0.14264567247E+04  0.14264567247E+04  0.50400000000E-02 0. -1.
         -1   -1    0    0    0  501 -0.00000000000E+00 -0.00000000000E+00 -0.27288318667E+03  0.27288318672E+03  0.50400000000E-02 0.  1.
    8880022    1    1    2    0    0  0.48035514153E+03  0.25289651003E+03  0.21348210171E+03  0.60304557667E+03  0.15294330000E+03 0.  0.
    8880022    1    1    2    0    0 -0.48035514153E+03 -0.25289651003E+03  0.94009143634E+03  0.10962943348E+04  0.15294330000E+03 0.  0.
<mgrwt>
<rscale>  0 0.56399411E+03</rscale>
<asrwt>0</asrwt>
<pdfrwt beam="1">  1        1 0.21945489E+00 0.56399411E+03</pdfrwt>
<pdfrwt beam="2">  1       -1 0.41982028E-01 0.56399411E+03</pdfrwt>
<totfact> 0.43217888E+01</totfact>
</mgrwt>
</event>
<event>
 4    1  0.1852677E-008  0.4721529E+03  0.7818608E-02  0.1021314E+00
          1   -1    0    0  501    0  0.00000000000E+00  0.00000000000E+00  0.11782017590E+04  0.11782017590E+04  0.50400000000E-02 0. -1.
         -1   -1    0    0    0  501 -0.00000000000E+00 -0.00000000000E+00 -0.36134155114E+03  0.36134155117E+03  0.50400000000E-02 0.  1.
    8880022    1    1    2    0    0  0.41439647109E+03 -0.16677014056E+03 -0.12286074238E+03  0.48787614213E+03  0.15294330000E+03 0.  0.
    8880022    1    1    2    0    0 -0.41439647109E+03  0.16677014056E+03  0.93972095024E+03  0.10516671681E+04  0.15294330000E+03 0.  0.
<mgrwt>
<rscale>  0 0.47215291E+03</rscale>
<asrwt>0</asrwt>
<pdfrwt beam="1">  1        1 0.18126181E+00 0.47215291E+03</pdfrwt>
<pdfrwt beam="2">  1       -1 0.55591008E-01 0.47215291E+03</pdfrwt>
<totfact> 0.38725705E+01</totfact>
</mgrwt>
</event>
<event>
 4    1  0.1852677E-008  0.5179679E+03  0.7818608E-02  0.1009193E+00
         -1   -1    0    0    0  501 -0.00000000000E+00  0.00000000000E+00  0.95261458495E+03  0.95261458496E+03  0.50400000000E-02 0.  1.
          1   -1    0    0  501    0  0.00000000000E+00 -0.00000000000E+00 -0.32995352255E+03  0.32995352258E+03  0.50400000000E-02 0. -1.
    8880022    1    1    2    0    0 -0.44201397363E+03 -0.22253699517E+03  0.65929922363E+02  0.52214698580E+03  0.15294330000E+03 0.  0.
    8880022    1    1    2    0    0  0.44201397363E+03  0.22253699517E+03  0.55673114004E+03  0.76042112175E+03  0.15294330000E+03 0.  0.
<mgrwt>
<rscale>  0 0.51796788E+03</rscale>
<asrwt>0</asrwt>
<pdfrwt beam="1">  1        1 0.50762081E-01 0.51796788E+03</pdfrwt>
<pdfrwt beam="2">  1       -1 0.14655609E+00 0.51796788E+03</pdfrwt>
<totfact> 0.30175209E+01</totfact>
</mgrwt>
</event>
<event>
 4    1  0.1852677E-008  0.7344269E+03  0.7818608E-02  0.9660104E-01
         -1   -1    0    0    0  501 -0.00000000000E+00  0.00000000000E+00  0.27447898864E+03  0.27447898869E+03  0.50400000000E-02 0.  1.
          1   -1    0    0  501    0  0.00000000000E+00 -0.00000000000E+00 -0.21442885517E+04  0.21442885517E+04  0.50400000000E-02 0. -1.
    8880022    1    1    2    0    0 -0.71634810984E+03 -0.53259138480E+02 -0.58531449156E+03  0.93913569699E+03  0.15294330000E+03 0.  0.
    8880022    1    1    2    0    0  0.71634810984E+03  0.53259138480E+02 -0.12844950715E+04  0.14796318434E+04  0.15294330000E+03 0.  0.
<mgrwt>
<rscale>  0 0.73442685E+03</rscale>
<asrwt>0</asrwt>
<pdfrwt beam="1">  1        1 0.32989054E+00 0.73442685E+03</pdfrwt>
<pdfrwt beam="2">  1       -1 0.42227538E-01 0.73442685E+03</pdfrwt>
<totfact> 0.13738299E+01</totfact>
</mgrwt>
</event>
<event>
 4    1  0.1852677E-008  0.4190445E+03  0.7818608E-02  0.1037378E+00
          1   -1    0    0  501    0  0.00000000000E+00  0.00000000000E+00  0.12748135208E+04  0.12748135208E+04  0.50400000000E-02 0. -1.
         -1   -1    0    0    0  501 -0.00000000000E+00 -0.00000000000E+00 -0.47791691033E+03  0.47791691036E+03  0.50400000000E-02 0.  1.
    8880022    1    1    2    0    0 -0.24292336188E+02 -0.38937969029E+03 -0.34091619565E+03  0.54020567035E+03  0.15294330000E+03 0.  0.
    8880022    1    1    2    0    0  0.24292336188E+02  0.38937969029E+03  0.11378128061E+04  0.12125247608E+04  0.15294330000E+03 0.  0.
<mgrwt>
<rscale>  0 0.41904452E+03</rscale>
<asrwt>0</asrwt>
<pdfrwt beam="1">  1        1 0.19612515E+00 0.41904452E+03</pdfrwt>
<pdfrwt beam="2">  1       -1 0.73525680E-01 0.41904452E+03</pdfrwt>
<totfact> 0.19216268E+01</totfact>
</mgrwt>
</event>
<event>
 4    1  0.1852677E-008  0.6829033E+03  0.7818608E-02  0.9746925E-01
          1   -1    0    0  501    0  0.00000000000E+00  0.00000000000E+00  0.19779919571E+04  0.19779919571E+04  0.50400000000E-02 0. -1.
         -1   -1    0    0    0  501 -0.00000000000E+00 -0.00000000000E+00 -0.59964698867E+03  0.59964698869E+03  0.50400000000E-02 0.  1.
    8880022    1    1    2    0    0  0.66514287816E+03  0.23457974503E+02  0.16931403271E+04  0.18256727924E+04  0.15294330000E+03 0.  0.
    8880022    1    1    2    0    0 -0.66514287816E+03 -0.23457974503E+02 -0.31479535864E+03  0.75196615334E+03  0.15294330000E+03 0.  0.
<mgrwt>
<rscale>  0 0.68290334E+03</rscale>
<asrwt>0</asrwt>
<pdfrwt beam="1">  1        1 0.30430646E+00 0.68290334E+03</pdfrwt>
<pdfrwt beam="2">  1       -1 0.92253383E-01 0.68290334E+03</pdfrwt>
<totfact> 0.37545641E+00</totfact>
</mgrwt>
</event>
<event>
 4    1  0.1852677E-008  0.7819236E+03  0.7818608E-02  0.9586557E-01
          1   -1    0    0  501    0  0.00000000000E+00  0.00000000000E+00  0.97891556901E+03  0.97891556902E+03  0.50400000000E-02 0. -1.
         -1   -1    0    0    0  501 -0.00000000000E+00 -0.00000000000E+00 -0.81221634869E+03  0.81221634871E+03  0.50400000000E-02 0.  1.
    8880022    1    1    2    0    0 -0.69963588051E+03  0.31388302264E+03 -0.34710553524E+03  0.85550384149E+03  0.15294330000E+03 0.  0.
    8880022    1    1    2    0    0  0.69963588051E+03 -0.31388302264E+03  0.51380475556E+03  0.93562807624E+03  0.15294330000E+03 0.  0.
<mgrwt>
<rscale>  0 0.78192363E+03</rscale>
<asrwt>0</asrwt>
<pdfrwt beam="1">  1        1 0.15060240E+00 0.78192363E+03</pdfrwt>
<pdfrwt beam="2">  1       -1 0.12495636E+00 0.78192363E+03</pdfrwt>
<totfact> 0.90552739E+00</totfact>
</mgrwt>
</event>
<event>
 4    1  0.1852677E-008  0.5029695E+03  0.7818608E-02  0.1013007E+00
          1   -1    0    0  501    0  0.00000000000E+00  0.00000000000E+00  0.53064802937E+04  0.53064802937E+04  0.50400000000E-02 0. -1.
         -1   -1    0    0    0  501 -0.00000000000E+00 -0.00000000000E+00 -0.11479141869E+03  0.11479141880E+03  0.50400000000E-02 0.  1.
    8880022    1    1    2    0    0  0.15883441084E+03 -0.45206009409E+03  0.52314757087E+03  0.72571463583E+03  0.15294330000E+03 0.  0.
    8880022    1    1    2    0    0 -0.15883441084E+03  0.45206009409E+03  0.46685413041E+04  0.46955570767E+04  0.15294330000E+03 0.  0.
<mgrwt>
<rscale>  0 0.50296953E+03</rscale>
<asrwt>0</asrwt>
<pdfrwt beam="1">  1        1 0.81638124E+00 0.50296953E+03</pdfrwt>
<pdfrwt beam="2">  1       -1 0.17660226E-01 0.50296953E+03</pdfrwt>
<totfact> 0.10490425E-01</totfact>
</mgrwt>
</event>
<event>
 4    1  0.1852677E-008  0.5310902E+03  0.7818608E-02  0.1005968E+00
          1   -1    0    0  501    0  0.00000000000E+00  0.00000000000E+00  0.12497596418E+04  0.12497596418E+04  0.50400000000E-02 0. -1.
         -1   -1    0    0    0  501 -0.00000000000E+00 -0.00000000000E+00 -0.95555491360E+03  0.95555491361E+03  0.50400000000E-02 0.  1.
    8880022    1    1    2    0    0 -0.49390991428E+03 -0.12131831780E+03  0.11107856235E+04  0.12312195142E+04  0.15294330000E+03 0.  0.
    8880022    1    1    2    0    0  0.49390991428E+03  0.12131831780E+03 -0.81658089535E+03  0.97409504122E+03  0.15294330000E+03 0.  0.
<mgrwt>
<rscale>  0 0.53109019E+03</rscale>
<asrwt>0</asrwt>
<pdfrwt beam="1">  1        1 0.19227071E+00 0.53109019E+03</pdfrwt>
<pdfrwt beam="2">  1       -1 0.14700845E+00 0.53109019E+03</pdfrwt>
<totfact> 0.39371385E+00</totfact>
</mgrwt>
</event>
<event>
 4    1  0.1852677E-008  0.5496816E+03  0.7818608E-02  0.1001568E+00
         -1   -1    0    0    0  501 -0.00000000000E+00  0.00000000000E+00  0.31377940601E+03  0.31377940606E+03  0.50400000000E-02 0.  1.
          1   -1    0    0  501    0  0.00000000000E+00 -0.00000000000E+00 -0.23427413791E+04  0.23427413791E+04  0.50400000000E-02 0. -1.
    8880022    1    1    2    0    0 -0.24186555970E+03 -0.46931785862E+03 -0.20338461334E+04  0.21068174930E+04  0.15294330000E+03 0.  0.
    8880022    1    1    2    0    0  0.24186555970E+03  0.46931785862E+03  0.48841603145E+01  0.54970329217E+03  0.15294330000E+03 0.  0.
<mgrwt>
<rscale>  0 0.54968159E+03</rscale>
<asrwt>0</asrwt>
<pdfrwt beam="1">  1        1 0.36042174E+00 0.54968159E+03</pdfrwt>
<pdfrwt beam="2">  1       -1 0.48273756E-01 0.54968159E+03</pdfrwt>
<totfact> 0.81764735E+00</totfact>
</mgrwt>
</event>
<event>
 4    1  0.1852677E-008  0.2979621E+03  0.7818608E-02  0.1086264E+00
          1   -1    0    0  501    0  0.00000000000E+00  0.00000000000E+00  0.12416823395E+04  0.12416823395E+04  0.50400000000E-02 0. -1.
         -1   -1    0    0    0  501 -0.00000000000E+00 -0.00000000000E+00 -0.59762408443E+03  0.59762408445E+03  0.50400000000E-02 0.  1.
    8880022    1    1    2    0    0  0.20005041927E+03  0.15927827198E+03 -0.54085756409E+03  0.61750165654E+03  0.15294330000E+03 0.  1.
    8880022    1    1    2    0    0 -0.20005041927E+03 -0.15927827198E+03  0.11849158191E+04  0.12218047674E+04  0.15294330000E+03 0.  0.
<mgrwt>
<rscale>  0 0.29796206E+03</rscale>
<asrwt>0</asrwt>
<pdfrwt beam="1">  1        1 0.19102805E+00 0.29796206E+03</pdfrwt>
<pdfrwt beam="2">  1       -1 0.91942168E-01 0.29796206E+03</pdfrwt>
<totfact> 0.13107348E+01</totfact>
</mgrwt>
</event>
<event>
 4    1  0.1852677E-008  0.3955246E+03  0.7818608E-02  0.1045340E+00
          1   -1    0    0  501    0  0.00000000000E+00  0.00000000000E+00  0.11060469543E+04  0.11060469543E+04  0.50400000000E-02 0. -1.
         -1   -1    0    0    0  501 -0.00000000000E+00 -0.00000000000E+00 -0.20720463454E+03  0.20720463460E+03  0.50400000000E-02 0.  1.
    8880022    1    1    2    0    0  0.34594509840E+03  0.11562884116E+03  0.79496585356E+02  0.40343450536E+03  0.15294330000E+03 0.  0.
    8880022    1    1    2    0    0 -0.34594509840E+03 -0.11562884116E+03  0.81934573439E+03  0.90981708353E+03  0.15294330000E+03 0. -1.
<mgrwt>
<rscale>  0 0.39552458E+03</rscale>
<asrwt>0</asrwt>
<pdfrwt beam="1">  1        1 0.17016107E+00 0.39552458E+03</pdfrwt>
<pdfrwt beam="2">  1       -1 0.31877636E-01 0.39552458E+03</pdfrwt>
<totfact> 0.12163530E+02</totfact>
</mgrwt>
</event>
<event>
 4    1  0.1852677E-008  0.4040446E+03  0.7818608E-02  0.1042388E+00
         -1   -1    0    0    0  501 -0.00000000000E+00  0.00000000000E+00  0.34960847966E+03  0.34960847970E+03  0.50400000000E-02 0.  1.
          1   -1    0    0  501    0  0.00000000000E+00 -0.00000000000E+00 -0.12558442334E+04  0.12558442334E+04  0.50400000000E-02 0. -1.
    8880022    1    1    2    0    0  0.14387777157E+03 -0.34519494655E+03 -0.10893376832E+04  0.11618556732E+04  0.15294330000E+03 0.  0.
    8880022    1    1    2    0    0 -0.14387777157E+03  0.34519494655E+03  0.18310192943E+03  0.44359703995E+03  0.15294330000E+03 0.  0.
<mgrwt>
<rscale>  0 0.40404457E+03</rscale>
<asrwt>0</asrwt>
<pdfrwt beam="1">  1        1 0.19320680E+00 0.40404457E+03</pdfrwt>
<pdfrwt beam="2">  1       -1 0.53785921E-01 0.40404457E+03</pdfrwt>
<totfact> 0.36815066E+01</totfact>
</mgrwt>
</event>
<event>
 4    1  0.1852677E-008  0.4281641E+03  0.7818608E-02  0.1034441E+00
          1   -1    0    0  501    0  0.00000000000E+00  0.00000000000E+00  0.12432246050E+04  0.12432246050E+04  0.50400000000E-02 0. -1.
         -1   -1    0    0    0  501 -0.00000000000E+00 -0.00000000000E+00 -0.27926180121E+03  0.27926180126E+03  0.50400000000E-02 0.  1.
    8880022    1    1    2    0    0 -0.38103335869E+03  0.12143493019E+03  0.10049554861E+04  0.10923644285E+04  0.15294330000E+03 0.  0.
    8880022    1    1    2    0    0  0.38103335869E+03 -0.12143493019E+03 -0.40992682301E+02  0.43012197772E+03  0.15294330000E+03 0.  0.
<mgrwt>
<rscale>  0 0.42816412E+03</rscale>
<asrwt>0</asrwt>
<pdfrwt beam="1">  1        1 0.19126533E+00 0.42816412E+03</pdfrwt>
<pdfrwt beam="2">  1       -1 0.42963353E-01 0.42816412E+03</pdfrwt>
<totfact> 0.56782982E+01</totfact>
</mgrwt>
</event>
<event>
 4    1  0.1852677E-008  0.3792145E+03  0.7818608E-02  0.1051224E+00
          1   -1    0    0  501    0  0.00000000000E+00  0.00000000000E+00  0.27858753055E+03  0.27858753060E+03  0.50400000000E-02 0. -1.
         -1   -1    0    0    0  501 -0.00000000000E+00 -0.00000000000E+00 -0.70252888134E+03  0.70252888136E+03  0.50400000000E-02 0.  1.
    8880022    1    1    2    0    0 -0.12812346384E+03 -0.32248467780E+03  0.40675133778E+02  0.38138970741E+03  0.15294330000E+03 0.  0.
    8880022    1    1    2    0    0  0.12812346384E+03  0.32248467780E+03 -0.46461648456E+03  0.59972670454E+03  0.15294330000E+03 0.  0.
<mgrwt>
<rscale>  0 0.37921451E+03</rscale>
<asrwt>0</asrwt>
<pdfrwt beam="1">  1        1 0.42859620E-01 0.37921451E+03</pdfrwt>
<pdfrwt beam="2">  1       -1 0.10808137E+00 0.37921451E+03</pdfrwt>
<totfact> 0.80840950E+01</totfact>
</mgrwt>
</event>
<event>
 4    1  0.1852677E-008  0.4006443E+03  0.7818608E-02  0.1043557E+00
          1   -1    0    0  501    0  0.00000000000E+00  0.00000000000E+00  0.39069354763E+03  0.39069354766E+03  0.50400000000E-02 0. -1.
         -1   -1    0    0    0  501 -0.00000000000E+00 -0.00000000000E+00 -0.24544868020E+04  0.24544868020E+04  0.50400000000E-02 0.  1.
    8880022    1    1    2    0    0  0.36770771931E+03  0.43763685629E+02 -0.23299766467E+04  0.23641715365E+04  0.15294330000E+03 0.  0.
    8880022    1    1    2    0    0 -0.36770771931E+03 -0.43763685629E+02  0.26618339227E+03  0.48100881318E+03  0.15294330000E+03 0.  0.
<mgrwt>
<rscale>  0 0.40064433E+03</rscale>
<asrwt>0</asrwt>
<pdfrwt beam="1">  1        1 0.60106701E-01 0.40064433E+03</pdfrwt>
<pdfrwt beam="2">  1       -1 0.37761334E+00 0.40064433E+03</pdfrwt>
<totfact> 0.73654353E-01</totfact>
</mgrwt>
</event>
<event>
 4    1  0.1852677E-008  0.8352793E+03  0.7818608E-02  0.9510310E-01
         -1   -1    0    0    0  501 -0.00000000000E+00  0.00000000000E+00  0.88528403163E+03  0.88528403164E+03  0.50400000000E-02 0.  1.
          1   -1    0    0  501    0  0.00000000000E+00 -0.00000000000E+00 -0.12405331001E+04  0.12405331001E+04  0.50400000000E-02 0. -1.
    8880022    1    1    2    0    0  0.51458189845E+03  0.63992603696E+03  0.46427840386E+03  0.95563902824E+03  0.15294330000E+03 0.  0.
    8880022    1    1    2    0    0 -0.51458189845E+03 -0.63992603696E+03 -0.81952747229E+03  0.11701781035E+04  0.15294330000E+03 0.  0.
<mgrwt>
<rscale>  0 0.83527930E+03</rscale>
<asrwt>0</asrwt>
<pdfrwt beam="1">  1        1 0.19085125E+00 0.83527930E+03</pdfrwt>
<pdfrwt beam="2">  1       -1 0.13619754E+00 0.83527930E+03</pdfrwt>
<totfact> 0.46101880E+00</totfact>
</mgrwt>
</event>
<event>
 4    1  0.1852677E-008  0.4109485E+03  0.7818608E-02  0.1040053E+00
         -1   -1    0    0    0  501 -0.00000000000E+00  0.00000000000E+00  0.24083522210E+03  0.24083522215E+03  0.50400000000E-02 0.  1.
          1   -1    0    0  501    0  0.00000000000E+00 -0.00000000000E+00 -0.99242786846E+03  0.99242786847E+03  0.50400000000E-02 0. -1.
    8880022    1    1    2    0    0  0.34995145026E+03 -0.15172668552E+03 -0.70981999695E+03  0.82019697983E+03  0.15294330000E+03 0. -1.
    8880022    1    1    2    0    0 -0.34995145026E+03  0.15172668552E+03 -0.41772649408E+02  0.41306611080E+03  0.15294330000E+03 0.  0.
<mgrwt>
<rscale>  0 0.41094849E+03</rscale>
<asrwt>0</asrwt>
<pdfrwt beam="1">  1        1 0.15268121E+00 0.41094849E+03</pdfrwt>
<pdfrwt beam="2">  1       -1 0.37051573E-01 0.41094849E+03</pdfrwt>
<totfact> 0.11329862E+02</totfact>
</mgrwt>
</event>
<event>
 4    1  0.1852677E-008  0.5122686E+03  0.7818608E-02  0.1010625E+00
         -1   -1    0    0    0  501 -0.00000000000E+00  0.00000000000E+00  0.44624562503E+03  0.44624562506E+03  0.50400000000E-02 0.  1.
          1   -1    0    0  501    0  0.00000000000E+00 -0.00000000000E+00 -0.23593714535E+04  0.23593714535E+04  0.50400000000E-02 0. -1.
    8880022    1    1    2    0    0  0.45550253353E+03  0.17760887736E+03 -0.21720426631E+04  0.22316335843E+04  0.15294330000E+03 0.  0.
    8880022    1    1    2    0    0 -0.45550253353E+03 -0.17760887736E+03  0.25891683464E+03  0.57398349422E+03  0.15294330000E+03 0.  0.
<mgrwt>
<rscale>  0 0.51226861E+03</rscale>
<asrwt>0</asrwt>
<pdfrwt beam="1">  1        1 0.36298022E+00 0.51226861E+03</pdfrwt>
<pdfrwt beam="2">  1       -1 0.68653174E-01 0.51226861E+03</pdfrwt>
<totfact> 0.40611616E+00</totfact>
</mgrwt>
</event>
<event>
 4    1  0.1852677E-008  0.4932404E+03  0.7818608E-02  0.1015558E+00
          1   -1    0    0  501    0  0.00000000000E+00  0.00000000000E+00  0.22952349513E+04  0.22952349513E+04  0.50400000000E-02 0. -1.
         -1   -1    0    0    0  501 -0.00000000000E+00 -0.00000000000E+00 -0.14380900485E+03  0.14380900494E+03  0.50400000000E-02 0.  1.
    8880022    1    1    2    0    0  0.39880788496E+03  0.24667121106E+03  0.45037280763E+03  0.66792344946E+03  0.15294330000E+03 0.  0.
    8880022    1    1    2    0    0 -0.39880788496E+03 -0.24667121106E+03  0.17010531388E+04  0.17711205068E+04  0.15294330000E+03 0.  0.
<mgrwt>
<rscale>  0 0.49324038E+03</rscale>
<asrwt>0</asrwt>
<pdfrwt beam="1">  1        1 0.35311307E+00 0.49324038E+03</pdfrwt>
<pdfrwt beam="2">  1       -1 0.22124462E-01 0.49324038E+03</pdfrwt>
<totfact> 0.35090631E+01</totfact>
</mgrwt>
</event>
<event>
 4    1  0.1852677E-008  0.6910029E+03  0.7818608E-02  0.9732743E-01
         -1   -1    0    0    0  501 -0.00000000000E+00  0.00000000000E+00  0.52337928416E+03  0.52337928418E+03  0.50400000000E-02 0.  1.
          1   -1    0    0  501    0  0.00000000000E+00 -0.00000000000E+00 -0.23251812802E+04  0.23251812802E+04  0.50400000000E-02 0. -1.
    8880022    1    1    2    0    0  0.43772189160E+03 -0.51234055710E+03  0.20934218937E+03  0.72201738629E+03  0.15294330000E+03 0.  0.
    8880022    1    1    2    0    0 -0.43772189160E+03  0.51234055710E+03 -0.20111441854E+04  0.21265431781E+04  0.15294330000E+03 0. -1.
<mgrwt>
<rscale>  0 0.69100286E+03</rscale>
<asrwt>0</asrwt>
<pdfrwt beam="1">  1        1 0.35772019E+00 0.69100286E+03</pdfrwt>
<pdfrwt beam="2">  1       -1 0.80519891E-01 0.69100286E+03</pdfrwt>
<totfact> 0.29477781E+00</totfact>
</mgrwt>
</event>
<event>
 4    1  0.1852677E-008  0.2104337E+03  0.7818608E-02  0.1141223E+00
         -1   -1    0    0    0  501 -0.00000000000E+00  0.00000000000E+00  0.72812599140E+03  0.72812599141E+03  0.50400000000E-02 0.  1.
          1   -1    0    0  501    0  0.00000000000E+00 -0.00000000000E+00 -0.95816224345E+03  0.95816224346E+03  0.50400000000E-02 0. -1.
    8880022    1    1    2    0    0 -0.17259016504E+02 -0.14350203959E+03 -0.93096539950E+03  0.95445216595E+03  0.15294330000E+03 0. -1.
    8880022    1    1    2    0    0  0.17259016504E+02  0.14350203959E+03  0.70092914745E+03  0.73183606892E+03  0.15294330000E+03 0.  0.
<mgrwt>
<rscale>  0 0.21043375E+03</rscale>
<asrwt>0</asrwt>
<pdfrwt beam="1">  1        1 0.14740958E+00 0.21043375E+03</pdfrwt>
<pdfrwt beam="2">  1       -1 0.11201938E+00 0.21043375E+03</pdfrwt>
<totfact> 0.14006398E+01</totfact>
</mgrwt>
</event>
<event>
 4    1  0.1852677E-008  0.3250257E+03  0.7818608E-02  0.1073359E+00
          1   -1    0    0  501    0  0.00000000000E+00  0.00000000000E+00  0.27045031820E+03  0.27045031824E+03  0.50400000000E-02 0. -1.
         -1   -1    0    0    0  501 -0.00000000000E+00 -0.00000000000E+00 -0.31919169392E+04  0.31919169392E+04  0.50400000000E-02 0.  1.
    8880022    1    1    2    0    0 -0.28656616705E+03 -0.11397064781E+02 -0.30825336035E+04  0.30996217723E+04  0.15294330000E+03 0.  1.
    8880022    1    1    2    0    0  0.28656616705E+03  0.11397064781E+02  0.16106698249E+03  0.36274548522E+03  0.15294330000E+03 0.  0.
<mgrwt>
<rscale>  0 0.32502571E+03</rscale>
<asrwt>0</asrwt>
<pdfrwt beam="1">  1        1 0.41607743E-01 0.32502571E+03</pdfrwt>
<pdfrwt beam="2">  1       -1 0.49106412E+00 0.32502571E+03</pdfrwt>
<totfact> 0.20689117E-01</totfact>
</mgrwt>
</event>
<event>
 4    1  0.1852677E-008  0.1807568E+03  0.7818608E-02  0.1167073E+00
          1   -1    0    0  501    0  0.00000000000E+00  0.00000000000E+00  0.57123955958E+03  0.57123955961E+03  0.50400000000E-02 0. -1.
         -1   -1    0    0    0  501 -0.00000000000E+00 -0.00000000000E+00 -0.10393661375E+03  0.10393661387E+03  0.50400000000E-02 0.  1.
    8880022    1    1    2    0    0  0.95089330436E+02  0.15471657343E+02  0.46003607262E+03  0.49427340013E+03  0.15294330000E+03 0.  0.
    8880022    1    1    2    0    0 -0.95089330436E+02 -0.15471657343E+02  0.72668732169E+01  0.18090277335E+03  0.15294330000E+03 0.  1.
<mgrwt>
<rscale>  0 0.18075676E+03</rscale>
<asrwt>0</asrwt>
<pdfrwt beam="1">  1        1 0.87883010E-01 0.18075676E+03</pdfrwt>
<pdfrwt beam="2">  1       -1 0.15990248E-01 0.18075676E+03</pdfrwt>
<totfact> 0.10917011E+03</totfact>
</mgrwt>
</event>
<event>
 4    1  0.1852677E-008  0.2350912E+03  0.7818608E-02  0.1123107E+00
         -1   -1    0    0    0  501 -0.00000000000E+00  0.00000000000E+00  0.14408392864E+04  0.14408392864E+04  0.50400000000E-02 0.  1.
          1   -1    0    0  501    0  0.00000000000E+00 -0.00000000000E+00 -0.85695841593E+02  0.85695841741E+02  0.50400000000E-02 0. -1.
    8880022    1    1    2    0    0 -0.17034510036E+03 -0.53467442980E+02  0.11028757365E+03  0.25967522522E+03  0.15294330000E+03 0. -1.
    8880022    1    1    2    0    0  0.17034510036E+03  0.53467442980E+02  0.12448558712E+04  0.12668599029E+04  0.15294330000E+03 0.  0.
<mgrwt>
<rscale>  0 0.23509120E+03</rscale>
<asrwt>0</asrwt>
<pdfrwt beam="1">  1        1 0.13183976E-01 0.23509120E+03</pdfrwt>
<pdfrwt beam="2">  1       -1 0.22166758E+00 0.23509120E+03</pdfrwt>
<totfact> 0.53767218E+01</totfact>
</mgrwt>
</event>
<event>
 4    1  0.1852677E-008  0.3156313E+03  0.7818608E-02  0.1077678E+00
         -1   -1    0    0    0  501 -0.00000000000E+00  0.00000000000E+00  0.11393144410E+03  0.11393144421E+03  0.50400000000E-02 0.  1.
          1   -1    0    0  501    0  0.00000000000E+00 -0.00000000000E+00 -0.12558075296E+04  0.12558075297E+04  0.50400000000E-02 0. -1.
    8880022    1    1    2    0    0  0.21394702346E+03 -0.17452256541E+03 -0.19351045032E+03  0.37022885096E+03  0.15294330000E+03 0.  0.
    8880022    1    1    2    0    0 -0.21394702346E+03  0.17452256541E+03 -0.94836563523E+03  0.99951012290E+03  0.15294330000E+03 0.  0.
<mgrwt>
<rscale>  0 0.31563128E+03</rscale>
<asrwt>0</asrwt>
<pdfrwt beam="1">  1        1 0.19320115E+00 0.31563128E+03</pdfrwt>
<pdfrwt beam="2">  1       -1 0.17527915E-01 0.31563128E+03</pdfrwt>
<totfact> 0.26175530E+02</totfact>
</mgrwt>
</event>
<event>
 4    1  0.1852677E-008  0.5387458E+03  0.7818608E-02  0.1004133E+00
          1   -1    0    0  501    0  0.00000000000E+00  0.00000000000E+00  0.69328476250E+03  0.69328476252E+03  0.50400000000E-02 0. -1.
         -1   -1    0    0    0  501 -0.00000000000E+00 -0.00000000000E+00 -0.88672085636E+03  0.88672085638E+03  0.50400000000E-02 0.  1.
    8880022    1    1    2    0    0  0.51067352936E+03 -0.77896882375E+02  0.47725133112E+03  0.71973318941E+03  0.15294330000E+03 0.  0.
    8880022    1    1    2    0    0 -0.51067352936E+03  0.77896882375E+02 -0.67068742499E+03  0.86027242948E+03  0.15294330000E+03 0.  0.
<mgrwt>
<rscale>  0 0.53874579E+03</rscale>
<asrwt>0</asrwt>
<pdfrwt beam="1">  1        1 0.10665919E+00 0.53874579E+03</pdfrwt>
<pdfrwt beam="2">  1       -1 0.13641859E+00 0.53874579E+03</pdfrwt>
<totfact> 0.13160417E+01</totfact>
</mgrwt>
</event>
<event>
 4    1  0.1852677E-008  0.4172767E+03  0.7818608E-02  0.1037956E+00
          1   -1    0    0  501    0  0.00000000000E+00  0.00000000000E+00  0.32686745850E+03  0.32686745854E+03  0.50400000000E-02 0. -1.
         -1   -1    0    0    0  501 -0.00000000000E+00 -0.00000000000E+00 -0.10221308220E+04  0.10221308220E+04  0.50400000000E-02 0.  1.
    8880022    1    1    2    0    0  0.38811839354E+03 -0.96093015891E+01  0.11911054674E+03  0.43394377682E+03  0.15294330000E+03 0.  1.
    8880022    1    1    2    0    0 -0.38811839354E+03  0.96093015891E+01 -0.81437391021E+03  0.91505450370E+03  0.15294330000E+03 0.  0.
<mgrwt>
<rscale>  0 0.41727674E+03</rscale>
<asrwt>0</asrwt>
<pdfrwt beam="1">  1        1 0.50287302E-01 0.41727674E+03</pdfrwt>
<pdfrwt beam="2">  1       -1 0.15725089E+00 0.41727674E+03</pdfrwt>
<totfact> 0.25690123E+01</totfact>
</mgrwt>
</event>
<event>
 4    1  0.1852677E-008  0.3715898E+03  0.7818608E-02  0.1054087E+00
         -1   -1    0    0    0  501 -0.00000000000E+00  0.00000000000E+00  0.33634020443E+03  0.33634020447E+03  0.50400000000E-02 0.  1.
          1   -1    0    0  501    0  0.00000000000E+00 -0.00000000000E+00 -0.10816826038E+04  0.10816826038E+04  0.50400000000E-02 0. -1.
    8880022    1    1    2    0    0  0.26415458734E+03  0.21191908538E+03 -0.93115776680E+03  0.10025636062E+04  0.15294330000E+03 0.  0.
    8880022    1    1    2    0    0 -0.26415458734E+03 -0.21191908538E+03  0.18581536748E+03  0.41545920205E+03  0.15294330000E+03 0.  0.
<mgrwt>
<rscale>  0 0.37158982E+03</rscale>
<asrwt>0</asrwt>
<pdfrwt beam="1">  1        1 0.16641271E+00 0.37158982E+03</pdfrwt>
<pdfrwt beam="2">  1       -1 0.51744647E-01 0.37158982E+03</pdfrwt>
<totfact> 0.53152602E+01</totfact>
</mgrwt>
</event>
<event>
 4    1  0.1852677E-008  0.7277089E+03  0.7818608E-02  0.9670985E-01
          1   -1    0    0  501    0  0.00000000000E+00  0.00000000000E+00  0.62875332223E+03  0.62875332225E+03  0.50400000000E-02 0. -1.
         -1   -1    0    0    0  501 -0.00000000000E+00 -0.00000000000E+00 -0.11379569228E+04  0.11379569228E+04  0.50400000000E-02 0.  1.
    8880022    1    1    2    0    0 -0.70751978432E+03  0.74728788733E+02  0.19570817790E+03  0.75356617559E+03  0.15294330000E+03 0.  0.
    8880022    1    1    2    0    0  0.70751978432E+03 -0.74728788733E+02 -0.70491177847E+03  0.10131440695E+04  0.15294330000E+03 0.  0.
<mgrwt>
<rscale>  0 0.72770893E+03</rscale>
<asrwt>0</asrwt>
<pdfrwt beam="1">  1        1 0.96731280E-01 0.72770893E+03</pdfrwt>
<pdfrwt beam="2">  1       -1 0.17507030E+00 0.72770893E+03</pdfrwt>
<totfact> 0.74861376E+00</totfact>
</mgrwt>
</event>
<event>
 4    1  0.1852677E-008  0.6645196E+03  0.7818608E-02  0.9779909E-01
         -1   -1    0    0    0  501 -0.00000000000E+00  0.00000000000E+00  0.19206640496E+03  0.19206640502E+03  0.50400000000E-02 0.  1.
          1   -1    0    0  501    0  0.00000000000E+00 -0.00000000000E+00 -0.24945711465E+04  0.24945711465E+04  0.50400000000E-02 0. -1.
    8880022    1    1    2    0    0  0.11147131403E+03  0.63699983998E+03 -0.15272501386E+04  0.16655567504E+04  0.15294330000E+03 0.  0.
    8880022    1    1    2    0    0 -0.11147131403E+03 -0.63699983998E+03 -0.77525460290E+03  0.10210808011E+04  0.15294330000E+03 0.  0.
<mgrwt>
<rscale>  0 0.66451960E+03</rscale>
<asrwt>0</asrwt>
<pdfrwt beam="1">  1        1 0.38378015E+00 0.66451960E+03</pdfrwt>
<pdfrwt beam="2">  1       -1 0.29548679E-01 0.66451960E+03</pdfrwt>
<totfact> 0.15247195E+01</totfact>
</mgrwt>
</event>
<event>
 4    1  0.1852677E-008  0.1388246E+04  0.7818608E-02  0.8962371E-01
          1   -1    0    0  501    0  0.00000000000E+00  0.00000000000E+00  0.17848922515E+04  0.17848922515E+04  0.50400000000E-02 0. -1.
         -1   -1    0    0    0  501 -0.00000000000E+00 -0.00000000000E+00 -0.11177077714E+04  0.11177077714E+04  0.50400000000E-02 0.  1.
    8880022    1    1    2    0    0 -0.12370261333E+04 -0.61122883537E+03  0.60106526515E+03  0.15127807011E+04  0.15294330000E+03 0.  0.
    8880022    1    1    2    0    0  0.12370261333E+04  0.61122883537E+03  0.66119214955E+02  0.13898193218E+04  0.15294330000E+03 0.  0.
<mgrwt>
<rscale>  0 0.13882457E+04</rscale>
<asrwt>0</asrwt>
<pdfrwt beam="1">  1        1 0.27459880E+00 0.13882457E+04</pdfrwt>
<pdfrwt beam="2">  1       -1 0.17195504E+00 0.13882457E+04</pdfrwt>
<totfact> 0.95287697E-01</totfact>
</mgrwt>
</event>
<event>
 4    1  0.1852677E-008  0.1814611E+03  0.7818608E-02  0.1166396E+00
         -1   -1    0    0    0  501 -0.00000000000E+00  0.00000000000E+00  0.38807617974E+02  0.38807618302E+02  0.50400000000E-02 0.  1.
          1   -1    0    0  501    0  0.00000000000E+00 -0.00000000000E+00 -0.27107969607E+04  0.27107969607E+04  0.50400000000E-02 0. -1.
    8880022    1    1    2    0    0  0.89319918755E+02  0.39477089110E+02 -0.24755005948E+04  0.24821424891E+04  0.15294330000E+03 0.  0.
    8880022    1    1    2    0    0 -0.89319918755E+02 -0.39477089110E+02 -0.19648874795E+03  0.26746208991E+03  0.15294330000E+03 0.  1.
<mgrwt>
<rscale>  0 0.18146113E+03</rscale>
<asrwt>0</asrwt>
<pdfrwt beam="1">  1        1 0.41704554E+00 0.18146113E+03</pdfrwt>
<pdfrwt beam="2">  1       -1 0.59704049E-02 0.18146113E+03</pdfrwt>
<totfact> 0.15868333E+02</totfact>
</mgrwt>
</event>
<event>
 4    1  0.1852677E-008  0.4327938E+03  0.7818608E-02  0.1032981E+00
          1   -1    0    0  501    0  0.00000000000E+00  0.00000000000E+00  0.22751387221E+04  0.22751387221E+04  0.50400000000E-02 0. -1.
         -1   -1    0    0    0  501 -0.00000000000E+00 -0.00000000000E+00 -0.24041836761E+03  0.24041836766E+03  0.50400000000E-02 0.  1.
    8880022    1    1    2    0    0  0.20616116817E+03 -0.34844861321E+03  0.20372924096E+04  0.20827555974E+04  0.15294330000E+03 0.  0.
    8880022    1    1    2    0    0 -0.20616116817E+03  0.34844861321E+03 -0.25720551096E+01  0.43280149236E+03  0.15294330000E+03 0.  0.
<mgrwt>
<rscale>  0 0.43279385E+03</rscale>
<asrwt>0</asrwt>
<pdfrwt beam="1">  1        1 0.35002134E+00 0.43279385E+03</pdfrwt>
<pdfrwt beam="2">  1       -1 0.36987441E-01 0.43279385E+03</pdfrwt>
<totfact> 0.15176131E+01</totfact>
</mgrwt>
</event>
<event>
 4    1  0.1852677E-008  0.3184464E+03  0.7818608E-02  0.1076367E+00
          1   -1    0    0  501    0  0.00000000000E+00  0.00000000000E+00  0.43198623580E+03  0.43198623583E+03  0.50400000000E-02 0. -1.
         -1   -1    0    0    0  501 -0.00000000000E+00 -0.00000000000E+00 -0.55246776974E+03  0.55246776976E+03  0.50400000000E-02 0.  1.
    8880022    1    1    2    0    0  0.14525292806E+03  0.23857500443E+03 -0.43351995259E+03  0.53791044622E+03  0.15294330000E+03 0.  0.
    8880022    1    1    2    0    0 -0.14525292806E+03 -0.23857500443E+03  0.31303841866E+03  0.44654355937E+03  0.15294330000E+03 0.  0.
<mgrwt>
<rscale>  0 0.31844638E+03</rscale>
<asrwt>0</asrwt>
<pdfrwt beam="1">  1        1 0.66459421E-01 0.31844638E+03</pdfrwt>
<pdfrwt beam="2">  1       -1 0.84995041E-01 0.31844638E+03</pdfrwt>
<totfact> 0.79023664E+01</totfact>
</mgrwt>
</event>
<event>
 4    1  0.1852677E-008  0.2891817E+03  0.7818608E-02  0.1090777E+00
         -1   -1    0    0    0  501 -0.00000000000E+00  0.00000000000E+00  0.25322472278E+03  0.25322472283E+03  0.50400000000E-02 0.  1.
          1   -1    0    0  501    0  0.00000000000E+00 -0.00000000000E+00 -0.43381995582E+03  0.43381995585E+03  0.50400000000E-02 0. -1.
    8880022    1    1    2    0    0 -0.23574356228E+03  0.68259567058E+02 -0.25815051358E+03  0.38764382664E+03  0.15294330000E+03 0.  0.
    8880022    1    1    2    0    0  0.23574356228E+03 -0.68259567058E+02  0.77555280537E+02  0.29940085205E+03  0.15294330000E+03 0.  0.
<mgrwt>
<rscale>  0 0.28918169E+03</rscale>
<asrwt>0</asrwt>
<pdfrwt beam="1">  1        1 0.66741532E-01 0.28918169E+03</pdfrwt>
<pdfrwt beam="2">  1       -1 0.38957650E-01 0.28918169E+03</pdfrwt>
<totfact> 0.35480258E+02</totfact>
</mgrwt>
</event>
<event>
 4    1  0.1852677E-008  0.1046642E+04  0.7818608E-02  0.9258818E-01
         -1   -1    0    0    0  501 -0.00000000000E+00  0.00000000000E+00  0.63554727582E+03  0.63554727584E+03  0.50400000000E-02 0.  1.
          1   -1    0    0  501    0  0.00000000000E+00 -0.00000000000E+00 -0.33431097292E+04  0.33431097292E+04  0.50400000000E-02 0. -1.
    8880022    1    1    2    0    0 -0.68349897160E+03  0.77775083929E+03  0.30794550123E+02  0.10470946325E+04  0.15294330000E+03 0.  0.
    8880022    1    1    2    0    0  0.68349897160E+03 -0.77775083929E+03 -0.27383570035E+04  0.29315623725E+04  0.15294330000E+03 0.  0.
<mgrwt>
<rscale>  0 0.10466417E+04</rscale>
<asrwt>0</asrwt>
<pdfrwt beam="1">  1        1 0.51432456E+00 0.10466417E+04</pdfrwt>
<pdfrwt beam="2">  1       -1 0.97776506E-01 0.10466417E+04</pdfrwt>
<totfact> 0.34103532E-01</totfact>
</mgrwt>
</event>
<event>
 4    1  0.1852677E-008  0.3633121E+03  0.7818608E-02  0.1057280E+00
          1   -1    0    0  501    0  0.00000000000E+00  0.00000000000E+00  0.30424738998E+04  0.30424738998E+04  0.50400000000E-02 0. -1.
         -1   -1    0    0    0  501 -0.00000000000E+00 -0.00000000000E+00 -0.10419819997E+03  0.10419820009E+03  0.50400000000E-02 0.  1.
    8880022    1    1    2    0    0 -0.29814294379E+03 -0.14040933653E+03  0.26717026551E+03  0.45097184003E+03  0.15294330000E+03 0.  0.
    8880022    1    1    2    0    0  0.29814294379E+03  0.14040933653E+03  0.26711054343E+04  0.26957002598E+04  0.15294330000E+03 0.  0.
<mgrwt>
<rscale>  0 0.36331206E+03</rscale>
<asrwt>0</asrwt>
<pdfrwt beam="1">  1        1 0.46807296E+00 0.36331206E+03</pdfrwt>
<pdfrwt beam="2">  1       -1 0.16030490E-01 0.36331206E+03</pdfrwt>
<totfact> 0.18951517E+01</totfact>
</mgrwt>
</event>
<event>
 4    1  0.1852677E-008  0.4218102E+03  0.7818608E-02  0.1036479E+00
          1   -1    0    0  501    0  0.00000000000E+00  0.00000000000E+00  0.68156957183E+03  0.68156957185E+03  0.50400000000E-02 0. -1.
         -1   -1    0    0    0  501 -0.00000000000E+00 -0.00000000000E+00 -0.40885005685E+03  0.40885005688E+03  0.50400000000E-02 0.  1.
    8880022    1    1    2    0    0  0.39274562152E+03 -0.16825835797E+02  0.46416705299E+03  0.62719609219E+03  0.15294330000E+03 0.  0.
    8880022    1    1    2    0    0 -0.39274562152E+03  0.16825835797E+02 -0.19144753800E+03  0.46322353653E+03  0.15294330000E+03 0.  0.
<mgrwt>
<rscale>  0 0.42181025E+03</rscale>
<asrwt>0</asrwt>
<pdfrwt beam="1">  1        1 0.10485686E+00 0.42181025E+03</pdfrwt>
<pdfrwt beam="2">  1       -1 0.62900009E-01 0.42181025E+03</pdfrwt>
<totfact> 0.76772056E+01</totfact>
</mgrwt>
</event>
<event>
 4    1  0.1852677E-008  0.2544106E+03  0.7818608E-02  0.1110549E+00
          1   -1    0    0  501    0  0.00000000000E+00  0.00000000000E+00  0.54095058675E+03  0.54095058677E+03  0.50400000000E-02 0. -1.
         -1   -1    0    0    0  501 -0.00000000000E+00 -0.00000000000E+00 -0.21400879648E+03  0.21400879654E+03  0.50400000000E-02 0.  1.
    8880022    1    1    2    0    0  0.20221811804E+03 -0.20998099852E+02  0.41412161950E+03  0.48602618881E+03  0.15294330000E+03 0.  0.
    8880022    1    1    2    0    0 -0.20221811804E+03  0.20998099852E+02 -0.87179829233E+02  0.26893319450E+03  0.15294330000E+03 0.  0.
<mgrwt>
<rscale>  0 0.25441057E+03</rscale>
<asrwt>0</asrwt>
<pdfrwt beam="1">  1        1 0.83223167E-01 0.25441057E+03</pdfrwt>
<pdfrwt beam="2">  1       -1 0.32924430E-01 0.25441057E+03</pdfrwt>
<totfact> 0.35627428E+02</totfact>
</mgrwt>
</event>
<event>
 4    1  0.1852677E-008  0.4415011E+03  0.7818608E-02  0.1030287E+00
         -1   -1    0    0    0  501 -0.00000000000E+00  0.00000000000E+00  0.20167314555E+03  0.20167314561E+03  0.50400000000E-02 0.  1.
          1   -1    0    0  501    0  0.00000000000E+00 -0.00000000000E+00 -0.10950615238E+04  0.10950615238E+04  0.50400000000E-02 0. -1.
    8880022    1    1    2    0    0  0.38929066273E+03  0.14136603380E+03 -0.66882356577E+03  0.80140388740E+03  0.15294330000E+03 0.  1.
    8880022    1    1    2    0    0 -0.38929066273E+03 -0.14136603380E+03 -0.22456481249E+03  0.49533078202E+03  0.15294330000E+03 0. -1.
<mgrwt>
<rscale>  0 0.44150111E+03</rscale>
<asrwt>0</asrwt>
<pdfrwt beam="1">  1        1 0.16847100E+00 0.44150111E+03</pdfrwt>
<pdfrwt beam="2">  1       -1 0.31026638E-01 0.44150111E+03</pdfrwt>
<totfact> 0.12903851E+02</totfact>
</mgrwt>
</event>
<event>
 4    1  0.1852677E-008  0.2481863E+03  0.7818608E-02  0.1114456E+00
         -1   -1    0    0    0  501 -0.00000000000E+00  0.00000000000E+00  0.56727255347E+02  0.56727255571E+02  0.50400000000E-02 0.  1.
          1   -1    0    0  501    0  0.00000000000E+00 -0.00000000000E+00 -0.20343623427E+04  0.20343623427E+04  0.50400000000E-02 0. -1.
    8880022    1    1    2    0    0  0.19494604009E+03 -0.14172179335E+02 -0.17027437553E+04  0.17207361095E+04  0.15294330000E+03 0.  0.
    8880022    1    1    2    0    0 -0.19494604009E+03  0.14172179335E+02 -0.27489133204E+03  0.37035348879E+03  0.15294330000E+03 0.  0.
<mgrwt>
<rscale>  0 0.24818635E+03</rscale>
<asrwt>0</asrwt>
<pdfrwt beam="1">  1        1 0.31297877E+00 0.24818635E+03</pdfrwt>
<pdfrwt beam="2">  1       -1 0.87272717E-02 0.24818635E+03</pdfrwt>
<totfact> 0.24286077E+02</totfact>
</mgrwt>
</event>
<event>
 4    1  0.1852677E-008  0.2393489E+03  0.7818608E-02  0.1120227E+00
         -1   -1    0    0    0  501 -0.00000000000E+00  0.00000000000E+00  0.20978400043E+03  0.20978400049E+03  0.50400000000E-02 0.  1.
          1   -1    0    0  501    0  0.00000000000E+00 -0.00000000000E+00 -0.40868421836E+03  0.40868421839E+03  0.50400000000E-02 0. -1.
    8880022    1    1    2    0    0 -0.18116780846E+03  0.32779214703E+02 -0.27757695235E+03  0.36651994384E+03  0.15294330000E+03 0.  0.
    8880022    1    1    2    0    0  0.18116780846E+03 -0.32779214703E+02  0.78676734417E+02  0.25194827504E+03  0.15294330000E+03 0.  1.
<mgrwt>
<rscale>  0 0.23934892E+03</rscale>
<asrwt>0</asrwt>
<pdfrwt beam="1">  1        1 0.62874495E-01 0.23934892E+03</pdfrwt>
<pdfrwt beam="2">  1       -1 0.32274462E-01 0.23934892E+03</pdfrwt>
<totfact> 0.53399436E+02</totfact>
</mgrwt>
</event>
<event>
 4    1  0.1852677E-008  0.6518777E+03  0.7818608E-02  0.9803262E-01
          1   -1    0    0  501    0  0.00000000000E+00  0.00000000000E+00  0.22122266277E+04  0.22122266277E+04  0.50400000000E-02 0. -1.
         -1   -1    0    0    0  501 -0.00000000000E+00 -0.00000000000E+00 -0.25583260592E+03  0.25583260597E+03  0.50400000000E-02 0.  1.
    8880022    1    1    2    0    0  0.60057707756E+03 -0.20213870817E+03  0.15941757755E+04  0.17223068657E+04  0.15294330000E+03 0.  0.
    8880022    1    1    2    0    0 -0.60057707756E+03  0.20213870817E+03  0.36221824633E+03  0.74575236803E+03  0.15294330000E+03 0.  0.
<mgrwt>
<rscale>  0 0.65187770E+03</rscale>
<asrwt>0</asrwt>
<pdfrwt beam="1">  1        1 0.34034255E+00 0.65187770E+03</pdfrwt>
<pdfrwt beam="2">  1       -1 0.39358863E-01 0.65187770E+03</pdfrwt>
<totfact> 0.14258412E+01</totfact>
</mgrwt>
</event>
<event>
 4    1  0.1852677E-008  0.4138804E+03  0.7818608E-02  0.1039077E+00
          1   -1    0    0  501    0  0.00000000000E+00  0.00000000000E+00  0.14094544919E+04  0.14094544919E+04  0.50400000000E-02 0. -1.
         -1   -1    0    0    0  501 -0.00000000000E+00 -0.00000000000E+00 -0.22442707114E+03  0.22442707119E+03  0.50400000000E-02 0.  1.
    8880022    1    1    2    0    0  0.19853422263E+03 -0.32937741925E+03  0.11456670295E+04  0.12181337847E+04  0.15294330000E+03 0.  0.
    8880022    1    1    2    0    0 -0.19853422263E+03  0.32937741925E+03  0.39360391286E+02  0.41574777845E+03  0.15294330000E+03 0.  0.
<mgrwt>
<rscale>  0 0.41388039E+03</rscale>
<asrwt>0</asrwt>
<pdfrwt beam="1">  1        1 0.21683916E+00 0.41388039E+03</pdfrwt>
<pdfrwt beam="2">  1       -1 0.34527241E-01 0.41388039E+03</pdfrwt>
<totfact> 0.64578579E+01</totfact>
</mgrwt>
</event>
<event>
 4    1  0.1852677E-008  0.6102088E+03  0.7818608E-02  0.9884449E-01
          1   -1    0    0  501    0  0.00000000000E+00  0.00000000000E+00  0.20028885935E+04  0.20028885935E+04  0.50400000000E-02 0. -1.
         -1   -1    0    0    0  501 -0.00000000000E+00 -0.00000000000E+00 -0.53464989793E+03  0.53464989795E+03  0.50400000000E-02 0.  1.
    8880022    1    1    2    0    0  0.57621155856E+03 -0.13016674558E+03 -0.29058695676E+03  0.67586653588E+03  0.15294330000E+03 0.  0.
    8880022    1    1    2    0    0 -0.57621155856E+03  0.13016674558E+03  0.17588256524E+04  0.18616719556E+04  0.15294330000E+03 0.  0.
<mgrwt>
<rscale>  0 0.61020881E+03</rscale>
<asrwt>0</asrwt>
<pdfrwt beam="1">  1        1 0.30813671E+00 0.61020881E+03</pdfrwt>
<pdfrwt beam="2">  1       -1 0.82253831E-01 0.61020881E+03</pdfrwt>
<totfact> 0.47078744E+00</totfact>
</mgrwt>
</event>
<event>
 4    1  0.1852677E-008  0.6076725E+03  0.7818608E-02  0.9889615E-01
          1   -1    0    0  501    0  0.00000000000E+00  0.00000000000E+00  0.93586508805E+03  0.93586508807E+03  0.50400000000E-02 0. -1.
         -1   -1    0    0    0  501 -0.00000000000E+00 -0.00000000000E+00 -0.41374244509E+03  0.41374244512E+03  0.50400000000E-02 0.  1.
    8880022    1    1    2    0    0  0.18391313792E+03 -0.55861451669E+03  0.11580601098E+03  0.61860884713E+03  0.15294330000E+03 0.  0.
    8880022    1    1    2    0    0 -0.18391313792E+03  0.55861451669E+03  0.40631663199E+03  0.73099868605E+03  0.15294330000E+03 0.  0.
<mgrwt>
<rscale>  0 0.60767251E+03</rscale>
<asrwt>0</asrwt>
<pdfrwt beam="1">  1        1 0.14397924E+00 0.60767251E+03</pdfrwt>
<pdfrwt beam="2">  1       -1 0.63652684E-01 0.60767251E+03</pdfrwt>
<totfact> 0.44323409E+01</totfact>
</mgrwt>
</event>
<event>
 4    1  0.1852677E-008  0.2520289E+03  0.7818608E-02  0.1112029E+00
          1   -1    0    0  501    0  0.00000000000E+00  0.00000000000E+00  0.97617928269E+03  0.97617928271E+03  0.50400000000E-02 0. -1.
         -1   -1    0    0    0  501 -0.00000000000E+00 -0.00000000000E+00 -0.21557770062E+03  0.21557770067E+03  0.50400000000E-02 0.  1.
    8880022    1    1    2    0    0  0.90926445650E+02  0.17849169554E+03 -0.11759363528E+03  0.27811296260E+03  0.15294330000E+03 0.  0.
    8880022    1    1    2    0    0 -0.90926445650E+02 -0.17849169554E+03  0.87819521736E+03  0.91364402078E+03  0.15294330000E+03 0. -1.
<mgrwt>
<rscale>  0 0.25202888E+03</rscale>
<asrwt>0</asrwt>
<pdfrwt beam="1">  1        1 0.15018143E+00 0.25202888E+03</pdfrwt>
<pdfrwt beam="2">  1       -1 0.33165799E-01 0.25202888E+03</pdfrwt>
<totfact> 0.14539739E+02</totfact>
</mgrwt>
</event>
<event>
 4    1  0.1852677E-008  0.4438949E+03  0.7818608E-02  0.1029558E+00
         -1   -1    0    0    0  501 -0.00000000000E+00  0.00000000000E+00  0.64577533368E+03  0.64577533370E+03  0.50400000000E-02 0.  1.
          1   -1    0    0  501    0  0.00000000000E+00 -0.00000000000E+00 -0.11153698894E+04  0.11153698894E+04  0.50400000000E-02 0. -1.
    8880022    1    1    2    0    0 -0.25841804561E+03  0.32691152944E+03 -0.98531968502E+03  0.10806930966E+04  0.15294330000E+03 0.  0.
    8880022    1    1    2    0    0  0.25841804561E+03 -0.32691152944E+03  0.51572512933E+03  0.68045212646E+03  0.15294330000E+03 0.  0.
<mgrwt>
<rscale>  0 0.44389491E+03</rscale>
<asrwt>0</asrwt>
<pdfrwt beam="1">  1        1 0.17159537E+00 0.44389491E+03</pdfrwt>
<pdfrwt beam="2">  1       -1 0.99350051E-01 0.44389491E+03</pdfrwt>
<totfact> 0.13019026E+01</totfact>
</mgrwt>
</event>
<event>
 4    1  0.1852677E-008  0.3588337E+03  0.7818608E-02  0.1059047E+00
         -1   -1    0    0    0  501 -0.00000000000E+00  0.00000000000E+00  0.34281550414E+03  0.34281550418E+03  0.50400000000E-02 0.  1.
          1   -1    0    0  501    0  0.00000000000E+00 -0.00000000000E+00 -0.12499917403E+04  0.12499917403E+04  0.50400000000E-02 0. -1.
    8880022    1    1    2    0    0 -0.32442489964E+03  0.10885137460E+02  0.21250135272E+03  0.41703534580E+03  0.15294330000E+03 0.  0.
    8880022    1    1    2    0    0  0.32442489964E+03 -0.10885137460E+02 -0.11196775889E+04  0.11757718987E+04  0.15294330000E+03 0.  0.
<mgrwt>
<rscale>  0 0.35883374E+03</rscale>
<asrwt>0</asrwt>
<pdfrwt beam="1">  1        1 0.19230642E+00 0.35883374E+03</pdfrwt>
<pdfrwt beam="2">  1       -1 0.52740847E-01 0.35883374E+03</pdfrwt>
<totfact> 0.38966875E+01</totfact>
</mgrwt>
</event>
<event>
 4    1  0.1852677E-008  0.3203225E+03  0.7818608E-02  0.1075501E+00
          1   -1    0    0  501    0  0.00000000000E+00  0.00000000000E+00  0.75992914193E+03  0.75992914194E+03  0.50400000000E-02 0. -1.
         -1   -1    0    0    0  501 -0.00000000000E+00 -0.00000000000E+00 -0.25599641740E+03  0.25599641745E+03  0.50400000000E-02 0.  1.
    8880022    1    1    2    0    0 -0.18845163996E+03 -0.20904750521E+03  0.60115747376E+03  0.68117313608E+03  0.15294330000E+03 0.  0.
    8880022    1    1    2    0    0  0.18845163996E+03  0.20904750521E+03 -0.97224749239E+02  0.33475242332E+03  0.15294330000E+03 0.  0.
<mgrwt>
<rscale>  0 0.32032255E+03</rscale>
<asrwt>0</asrwt>
<pdfrwt beam="1">  1        1 0.11691217E+00 0.32032255E+03</pdfrwt>
<pdfrwt beam="2">  1       -1 0.39384065E-01 0.32032255E+03</pdfrwt>
<totfact> 0.15885018E+02</totfact>
</mgrwt>
</event>
<event>
 4    1  0.1852677E-008  0.3450936E+03  0.7818608E-02  0.1064647E+00
         -1   -1    0    0    0  501 -0.00000000000E+00  0.00000000000E+00  0.39163375553E+03  0.39163375556E+03  0.50400000000E-02 0.  1.
          1   -1    0    0  501    0  0.00000000000E+00 -0.00000000000E+00 -0.11281737694E+04  0.11281737694E+04  0.50400000000E-02 0. -1.
    8880022    1    1    2    0    0 -0.10693681183E+03  0.29027999698E+03 -0.10177381028E+04  0.10746536452E+04  0.15294330000E+03 0. -1.
    8880022    1    1    2    0    0  0.10693681183E+03 -0.29027999698E+03  0.28119808894E+03  0.44515387970E+03  0.15294330000E+03 0.  0.
<mgrwt>
<rscale>  0 0.34509363E+03</rscale>
<asrwt>0</asrwt>
<pdfrwt beam="1">  1        1 0.17356519E+00 0.34509363E+03</pdfrwt>
<pdfrwt beam="2">  1       -1 0.60251347E-01 0.34509363E+03</pdfrwt>
<totfact> 0.36978140E+01</totfact>
</mgrwt>
</event>
<event>
 4    1  0.1852677E-008  0.3204259E+03  0.7818608E-02  0.1075453E+00
         -1   -1    0    0    0  501 -0.00000000000E+00  0.00000000000E+00  0.36787555503E+03  0.36787555506E+03  0.50400000000E-02 0.  1.
          1   -1    0    0  501    0  0.00000000000E+00 -0.00000000000E+00 -0.16349502757E+04  0.16349502758E+04  0.50400000000E-02 0. -1.
    8880022    1    1    2    0    0  0.26167849628E+03  0.10394935178E+03  0.27840492047E+03  0.42447856943E+03  0.15294330000E+03 0.  0.
    8880022    1    1    2    0    0 -0.26167849628E+03 -0.10394935178E+03 -0.15454796412E+04  0.15783472614E+04  0.15294330000E+03 0. -1.
<mgrwt>
<rscale>  0 0.32042590E+03</rscale>
<asrwt>0</asrwt>
<pdfrwt beam="1">  1        1 0.25153081E+00 0.32042590E+03</pdfrwt>
<pdfrwt beam="2">  1       -1 0.56596240E-01 0.32042590E+03</pdfrwt>
<totfact> 0.18933746E+01</totfact>
</mgrwt>
</event>
<event>
 4    1  0.1852677E-008  0.4496461E+03  0.7818608E-02  0.1027828E+00
          1   -1    0    0  501    0  0.00000000000E+00  0.00000000000E+00  0.45920458993E+03  0.45920458996E+03  0.50400000000E-02 0. -1.
         -1   -1    0    0    0  501 -0.00000000000E+00 -0.00000000000E+00 -0.18151264620E+04  0.18151264620E+04  0.50400000000E-02 0.  1.
    8880022    1    1    2    0    0  0.42046026187E+03  0.44756680219E+02 -0.16676443519E+04  0.17271998523E+04  0.15294330000E+03 0.  1.
    8880022    1    1    2    0    0 -0.42046026187E+03 -0.44756680219E+02  0.31172247984E+03  0.54713119970E+03  0.15294330000E+03 0.  0.
<mgrwt>
<rscale>  0 0.44964613E+03</rscale>
<asrwt>0</asrwt>
<pdfrwt beam="1">  1        1 0.70646861E-01 0.44964613E+03</pdfrwt>
<pdfrwt beam="2">  1       -1 0.27925022E+00 0.44964613E+03</pdfrwt>
<totfact> 0.25039491E+00</totfact>
</mgrwt>
</event>
<event>
 4    1  0.1852677E-008  0.9717289E+03  0.7818608E-02  0.9340107E-01
          1   -1    0    0  501    0  0.00000000000E+00  0.00000000000E+00  0.13233028854E+04  0.13233028854E+04  0.50400000000E-02 0. -1.
         -1   -1    0    0    0  501 -0.00000000000E+00 -0.00000000000E+00 -0.73201369481E+03  0.73201369483E+03  0.50400000000E-02 0.  1.
    8880022    1    1    2    0    0  0.52005009558E+03  0.80648207377E+03  0.45880739949E+03  0.10745982133E+04  0.15294330000E+03 0.  0.
    8880022    1    1    2    0    0 -0.52005009558E+03 -0.80648207377E+03  0.13248179109E+03  0.98071836692E+03  0.15294330000E+03 0.  0.
<mgrwt>
<rscale>  0 0.97172892E+03</rscale>
<asrwt>0</asrwt>
<pdfrwt beam="1">  1        1 0.20358506E+00 0.97172892E+03</pdfrwt>
<pdfrwt beam="2">  1       -1 0.11261749E+00 0.97172892E+03</pdfrwt>
<totfact> 0.63296875E+00</totfact>
</mgrwt>
</event>
<event>
 4    1  0.1852677E-008  0.5836902E+03  0.7818608E-02  0.9939833E-01
          1   -1    0    0  501    0  0.00000000000E+00  0.00000000000E+00  0.12032197186E+04  0.12032197186E+04  0.50400000000E-02 0. -1.
         -1   -1    0    0    0  501 -0.00000000000E+00 -0.00000000000E+00 -0.38757848032E+03  0.38757848036E+03  0.50400000000E-02 0.  1.
    8880022    1    1    2    0    0  0.38799841659E+02  0.56195838442E+03  0.82068762550E+03  0.10070861359E+04  0.15294330000E+03 0.  0.
    8880022    1    1    2    0    0 -0.38799841659E+02 -0.56195838442E+03 -0.50463871908E+01  0.58371206307E+03  0.15294330000E+03 0.  0.
<mgrwt>
<rscale>  0 0.58369025E+03</rscale>
<asrwt>0</asrwt>
<pdfrwt beam="1">  1        1 0.18511073E+00 0.58369025E+03</pdfrwt>
<pdfrwt beam="2">  1       -1 0.59627459E-01 0.58369025E+03</pdfrwt>
<totfact> 0.31855090E+01</totfact>
</mgrwt>
</event>
<event>
 4    1  0.1852677E-008  0.5723919E+03  0.7818608E-02  0.9964400E-01
         -1   -1    0    0    0  501 -0.00000000000E+00  0.00000000000E+00  0.10514203727E+04  0.10514203727E+04  0.50400000000E-02 0.  1.
          1   -1    0    0  501    0  0.00000000000E+00 -0.00000000000E+00 -0.58890583473E+03  0.58890583475E+03  0.50400000000E-02 0. -1.
    8880022    1    1    2    0    0 -0.48020207796E+03  0.27137944810E+03 -0.33153668842E+03  0.66147491964E+03  0.15294330000E+03 0.  0.
    8880022    1    1    2    0    0  0.48020207796E+03 -0.27137944810E+03  0.79405122635E+03  0.97885128779E+03  0.15294330000E+03 0.  1.
<mgrwt>
<rscale>  0 0.57239191E+03</rscale>
<asrwt>0</asrwt>
<pdfrwt beam="1">  1        1 0.90600898E-01 0.57239191E+03</pdfrwt>
<pdfrwt beam="2">  1       -1 0.16175698E+00 0.57239191E+03</pdfrwt>
<totfact> 0.10543485E+01</totfact>
</mgrwt>
</event>
<event>
 4    1  0.1852677E-008  0.7141622E+03  0.7818608E-02  0.9693315E-01
         -1   -1    0    0    0  501 -0.00000000000E+00  0.00000000000E+00  0.18588447325E+04  0.18588447325E+04  0.50400000000E-02 0.  1.
          1   -1    0    0  501    0  0.00000000000E+00 -0.00000000000E+00 -0.40587620268E+03  0.40587620271E+03  0.50400000000E-02 0. -1.
    8880022    1    1    2    0    0 -0.82833698468E+02  0.69265765485E+03  0.81949435648E+02  0.71884867075E+03  0.15294330000E+03 0.  0.
    8880022    1    1    2    0    0  0.82833698468E+02 -0.69265765485E+03  0.13710190942E+04  0.15458722645E+04  0.15294330000E+03 0.  0.
<mgrwt>
<rscale>  0 0.71416224E+03</rscale>
<asrwt>0</asrwt>
<pdfrwt beam="1">  1        1 0.62442493E-01 0.71416224E+03</pdfrwt>
<pdfrwt beam="2">  1       -1 0.28597611E+00 0.71416224E+03</pdfrwt>
<totfact> 0.25258222E+00</totfact>
</mgrwt>
</event>
<event>
 4    1  0.1852677E-008  0.4788397E+03  0.7818608E-02  0.1019455E+00
         -1   -1    0    0    0  501 -0.00000000000E+00  0.00000000000E+00  0.10305044175E+04  0.10305044175E+04  0.50400000000E-02 0.  1.
          1   -1    0    0  501    0  0.00000000000E+00 -0.00000000000E+00 -0.47642733878E+03  0.47642733881E+03  0.50400000000E-02 0. -1.
    8880022    1    1    2    0    0  0.77667450893E+02  0.44706102222E+03 -0.27303380143E+03  0.55121220981E+03  0.15294330000E+03 0.  0.
    8880022    1    1    2    0    0 -0.77667450893E+02 -0.44706102222E+03  0.82711088015E+03  0.95571954651E+03  0.15294330000E+03 0.  0.
<mgrwt>
<rscale>  0 0.47883968E+03</rscale>
<asrwt>0</asrwt>
<pdfrwt beam="1">  1        1 0.73296513E-01 0.47883968E+03</pdfrwt>
<pdfrwt beam="2">  1       -1 0.15853914E+00 0.47883968E+03</pdfrwt>
<totfact> 0.15175403E+01</totfact>
</mgrwt>
</event>
<event>
 4    1  0.1852677E-008  0.5487995E+03  0.7818608E-02  0.1001772E+00
          1   -1    0    0  501    0  0.00000000000E+00  0.00000000000E+00  0.67275549708E+03  0.67275549710E+03  0.50400000000E-02 0. -1.
         -1   -1    0    0    0  501 -0.00000000000E+00 -0.00000000000E+00 -0.61185622994E+03  0.61185622996E+03  0.50400000000E-02 0.  1.
    8880022    1    1    2    0    0 -0.51528055636E+03  0.11079328689E+03 -0.30226280480E+03  0.62653304810E+03  0.15294330000E+03 0.  0.
    8880022    1    1    2    0    0  0.51528055636E+03 -0.11079328689E+03  0.36316207195E+03  0.65807867896E+03  0.15294330000E+03 0.  0.
<mgrwt>
<rscale>  0 0.54879947E+03</rscale>
<asrwt>0</asrwt>
<pdfrwt beam="1">  1        1 0.10350085E+00 0.54879947E+03</pdfrwt>
<pdfrwt beam="2">  1       -1 0.94131727E-01 0.54879947E+03</pdfrwt>
<totfact> 0.33163310E+01</totfact>
</mgrwt>
</event>
<event>
 4    1  0.1852677E-008  0.4401482E+03  0.7818608E-02  0.1030701E+00
         -1   -1    0    0    0  501 -0.00000000000E+00  0.00000000000E+00  0.63880554976E+03  0.63880554978E+03  0.50400000000E-02 0.  1.
          1   -1    0    0  501    0  0.00000000000E+00 -0.00000000000E+00 -0.45790268939E+03  0.45790268942E+03  0.50400000000E-02 0. -1.
    8880022    1    1    2    0    0  0.35898524112E+02 -0.41115703739E+03  0.40910983055E+03  0.60091706574E+03  0.15294330000E+03 0.  0.
    8880022    1    1    2    0    0 -0.35898524112E+02  0.41115703739E+03 -0.22820697018E+03  0.49579117346E+03  0.15294330000E+03 0.  0.
<mgrwt>
<rscale>  0 0.44014823E+03</rscale>
<asrwt>0</asrwt>
<pdfrwt beam="1">  1        1 0.70446568E-01 0.44014823E+03</pdfrwt>
<pdfrwt beam="2">  1       -1 0.98277777E-01 0.44014823E+03</pdfrwt>
<totfact> 0.52329659E+01</totfact>
</mgrwt>
</event>
<event>
 4    1  0.1852677E-008  0.6445793E+03  0.7818608E-02  0.9817004E-01
         -1   -1    0    0    0  501 -0.00000000000E+00  0.00000000000E+00  0.78332632758E+03  0.78332632760E+03  0.50400000000E-02 0.  1.
          1   -1    0    0  501    0  0.00000000000E+00 -0.00000000000E+00 -0.14137292796E+04  0.14137292796E+04  0.50400000000E-02 0. -1.
    8880022    1    1    2    0    0 -0.37437768857E+02  0.62505138362E+03  0.55313350749E+03  0.84937574066E+03  0.15294330000E+03 0.  0.
    8880022    1    1    2    0    0  0.37437768857E+02 -0.62505138362E+03 -0.11835364595E+04  0.13476798665E+04  0.15294330000E+03 0.  0.
<mgrwt>
<rscale>  0 0.64457930E+03</rscale>
<asrwt>0</asrwt>
<pdfrwt beam="1">  1        1 0.21749681E+00 0.64457930E+03</pdfrwt>
<pdfrwt beam="2">  1       -1 0.12051174E+00 0.64457930E+03</pdfrwt>
<totfact> 0.48837588E+00</totfact>
</mgrwt>
</event>
<event>
 4    1  0.1852677E-008  0.3185355E+03  0.7818608E-02  0.1076325E+00
         -1   -1    0    0    0  501 -0.00000000000E+00  0.00000000000E+00  0.50773255352E+03  0.50773255355E+03  0.50400000000E-02 0.  1.
          1   -1    0    0  501    0  0.00000000000E+00 -0.00000000000E+00 -0.16971471290E+04  0.16971471290E+04  0.50400000000E-02 0. -1.
    8880022    1    1    2    0    0 -0.22735335135E+03  0.16243058422E+03 -0.16302087286E+04  0.16610374448E+04  0.15294330000E+03 0.  0.
    8880022    1    1    2    0    0  0.22735335135E+03 -0.16243058422E+03  0.44079415318E+03  0.54384223775E+03  0.15294330000E+03 0.  1.
<mgrwt>
<rscale>  0 0.31853555E+03</rscale>
<asrwt>0</asrwt>
<pdfrwt beam="1">  1        1 0.26109956E+00 0.31853555E+03</pdfrwt>
<pdfrwt beam="2">  1       -1 0.78112701E-01 0.31853555E+03</pdfrwt>
<totfact> 0.90871823E+00</totfact>
</mgrwt>
</event>
<event>
 4    1  0.1852677E-008  0.4516195E+03  0.7818608E-02  0.1027240E+00
          1   -1    0    0  501    0  0.00000000000E+00  0.00000000000E+00  0.37771138237E+03  0.37771138240E+03  0.50400000000E-02 0. -1.
         -1   -1    0    0    0  501 -0.00000000000E+00 -0.00000000000E+00 -0.88422620031E+03  0.88422620032E+03  0.50400000000E-02 0.  1.
    8880022    1    1    2    0    0  0.19753498363E+03 -0.37622927069E+03 -0.64694775363E+03  0.78898769497E+03  0.15294330000E+03 0.  1.
    8880022    1    1    2    0    0 -0.19753498363E+03  0.37622927069E+03  0.14043293569E+03  0.47294988775E+03  0.15294330000E+03 0.  0.
<mgrwt>
<rscale>  0 0.45161952E+03</rscale>
<asrwt>0</asrwt>
<pdfrwt beam="1">  1        1 0.58109444E-01 0.45161952E+03</pdfrwt>
<pdfrwt beam="2">  1       -1 0.13603480E+00 0.45161952E+03</pdfrwt>
<totfact> 0.31012765E+01</totfact>
</mgrwt>
</event>
<event>
 4    1  0.1852677E-008  0.6421525E+03  0.7818608E-02  0.9821617E-01
         -1   -1    0    0    0  501 -0.00000000000E+00  0.00000000000E+00  0.25796178288E+03  0.25796178293E+03  0.50400000000E-02 0.  1.
          1   -1    0    0  501    0  0.00000000000E+00 -0.00000000000E+00 -0.19047081199E+04  0.19047081199E+04  0.50400000000E-02 0. -1.
    8880022    1    1    2    0    0 -0.44945432560E+03  0.43238751671E+03 -0.38982968653E+03  0.75121700787E+03  0.15294330000E+03 0.  0.
    8880022    1    1    2    0    0  0.44945432560E+03 -0.43238751671E+03 -0.12569166504E+04  0.14114528949E+04  0.15294330000E+03 0.  0.
<mgrwt>
<rscale>  0 0.64215248E+03</rscale>
<asrwt>0</asrwt>
<pdfrwt beam="1">  1        1 0.29303201E+00 0.64215248E+03</pdfrwt>
<pdfrwt beam="2">  1       -1 0.39686430E-01 0.64215248E+03</pdfrwt>
<totfact> 0.22557781E+01</totfact>
</mgrwt>
</event>
<event>
 4    1  0.1852677E-008  0.5864273E+03  0.7818608E-02  0.9933972E-01
         -1   -1    0    0    0  501 -0.00000000000E+00  0.00000000000E+00  0.10924659990E+04  0.10924659990E+04  0.50400000000E-02 0.  1.
          1   -1    0    0  501    0  0.00000000000E+00 -0.00000000000E+00 -0.54436002827E+03  0.54436002830E+03  0.50400000000E-02 0. -1.
    8880022    1    1    2    0    0 -0.56119686124E+03  0.74588180266E+02  0.80553351263E+03  0.99638406585E+03  0.15294330000E+03 0.  0.
    8880022    1    1    2    0    0  0.56119686124E+03 -0.74588180266E+02 -0.25742754187E+03  0.64044196149E+03  0.15294330000E+03 0.  0.
<mgrwt>
<rscale>  0 0.58642729E+03</rscale>
<asrwt>0</asrwt>
<pdfrwt beam="1">  1        1 0.83747697E-01 0.58642729E+03</pdfrwt>
<pdfrwt beam="2">  1       -1 0.16807169E+00 0.58642729E+03</pdfrwt>
<totfact> 0.10553375E+01</totfact>
</mgrwt>
</event>
<event>
 4    1  0.1852677E-008  0.2994731E+03  0.7818608E-02  0.1085504E+00
         -1   -1    0    0    0  501 -0.00000000000E+00  0.00000000000E+00  0.39162409386E+03  0.39162409389E+03  0.50400000000E-02 0.  1.
          1   -1    0    0  501    0  0.00000000000E+00 -0.00000000000E+00 -0.32986481848E+03  0.32986481851E+03  0.50400000000E-02 0. -1.
    8880022    1    1    2    0    0  0.25624687256E+03 -0.25100717077E+02  0.23035497185E+03  0.37781949628E+03  0.15294330000E+03 0.  0.
    8880022    1    1    2    0    0 -0.25624687256E+03  0.25100717077E+02 -0.16859569647E+03  0.34366941612E+03  0.15294330000E+03 0.  0.
<mgrwt>
<rscale>  0 0.29947314E+03</rscale>
<asrwt>0</asrwt>
<pdfrwt beam="1">  1        1 0.50748434E-01 0.29947314E+03</pdfrwt>
<pdfrwt beam="2">  1       -1 0.60249860E-01 0.29947314E+03</pdfrwt>
<totfact> 0.22506038E+02</totfact>
</mgrwt>
</event>
<event>
 4    1  0.1852677E-008  0.5723457E+03  0.7818608E-02  0.9964501E-01
         -1   -1    0    0    0  501 -0.00000000000E+00  0.00000000000E+00  0.10576542457E+04  0.10576542457E+04  0.50400000000E-02 0.  1.
          1   -1    0    0  501    0  0.00000000000E+00 -0.00000000000E+00 -0.11536600094E+04  0.11536600094E+04  0.50400000000E-02 0. -1.
    8880022    1    1    2    0    0  0.28628403721E+03  0.47141209788E+03 -0.99366639822E+03  0.11467137742E+04  0.15294330000E+03 0.  0.
    8880022    1    1    2    0    0 -0.28628403721E+03 -0.47141209788E+03  0.89766063458E+03  0.10646004809E+04  0.15294330000E+03 0.  1.
<mgrwt>
<rscale>  0 0.57234567E+03</rscale>
<asrwt>0</asrwt>
<pdfrwt beam="1">  1        1 0.17748616E+00 0.57234567E+03</pdfrwt>
<pdfrwt beam="2">  1       -1 0.16271604E+00 0.57234567E+03</pdfrwt>
<totfact> 0.34707289E+00</totfact>
</mgrwt>
</event>
<event>
 4    1  0.1852677E-008  0.1694940E+03  0.7818608E-02  0.1178377E+00
          1   -1    0    0  501    0  0.00000000000E+00  0.00000000000E+00  0.77777302873E+03  0.77777302875E+03  0.50400000000E-02 0. -1.
         -1   -1    0    0    0  501 -0.00000000000E+00 -0.00000000000E+00 -0.62341728370E+02  0.62341728573E+02  0.50400000000E-02 0.  1.
    8880022    1    1    2    0    0  0.66944460043E+02  0.29240318460E+02  0.89563805259E+02  0.19170259566E+03  0.15294330000E+03 0.  0.
    8880022    1    1    2    0    0 -0.66944460043E+02 -0.29240318460E+02  0.62586749510E+03  0.64841216167E+03  0.15294330000E+03 0. -1.
<mgrwt>
<rscale>  0 0.16949398E+03</rscale>
<asrwt>0</asrwt>
<pdfrwt beam="1">  1        1 0.11965740E+00 0.16949398E+03</pdfrwt>
<pdfrwt beam="2">  1       -1 0.95910346E-02 0.16949398E+03</pdfrwt>
<totfact> 0.15588764E+03</totfact>
</mgrwt>
</event>
<event>
 4    1  0.1852677E-008  0.6299533E+03  0.7818608E-02  0.9845140E-01
          1   -1    0    0  501    0  0.00000000000E+00  0.00000000000E+00  0.14005313011E+04  0.14005313011E+04  0.50400000000E-02 0. -1.
         -1   -1    0    0    0  501 -0.00000000000E+00 -0.00000000000E+00 -0.32786405305E+03  0.32786405309E+03  0.50400000000E-02 0.  1.
    8880022    1    1    2    0    0 -0.41121405865E+03 -0.45205366044E+03  0.85476260959E+03  0.10618193282E+04  0.15294330000E+03 0.  0.
    8880022    1    1    2    0    0  0.41121405865E+03  0.45205366044E+03  0.21790463844E+03  0.66657602598E+03  0.15294330000E+03 0.  1.
<mgrwt>
<rscale>  0 0.62995331E+03</rscale>
<asrwt>0</asrwt>
<pdfrwt beam="1">  1        1 0.21546635E+00 0.62995331E+03</pdfrwt>
<pdfrwt beam="2">  1       -1 0.50440624E-01 0.62995331E+03</pdfrwt>
<totfact> 0.31717236E+01</totfact>
</mgrwt>
</event>
<event>
 4    1  0.1852677E-008  0.3301180E+03  0.7818608E-02  0.1071085E+00
          1   -1    0    0  501    0  0.00000000000E+00  0.00000000000E+00  0.38660371413E+03  0.38660371416E+03  0.50400000000E-02 0. -1.
         -1   -1    0    0    0  501 -0.00000000000E+00 -0.00000000000E+00 -0.12539117423E+04  0.12539117423E+04  0.50400000000E-02 0.  1.
    8880022    1    1    2    0    0 -0.26659296429E+03 -0.12047582269E+03 -0.11558513740E+04  0.12020691679E+04  0.15294330000E+03 0.  0.
    8880022    1    1    2    0    0  0.26659296429E+03  0.12047582269E+03  0.28854334591E+03  0.43844628856E+03  0.15294330000E+03 0.  0.
<mgrwt>
<rscale>  0 0.33011799E+03</rscale>
<asrwt>0</asrwt>
<pdfrwt beam="1">  1        1 0.59477495E-01 0.33011799E+03</pdfrwt>
<pdfrwt beam="2">  1       -1 0.19290950E+00 0.33011799E+03</pdfrwt>
<totfact> 0.11751759E+01</totfact>
</mgrwt>
</event>
<event>
 4    1  0.1852677E-008  0.3264418E+03  0.7818608E-02  0.1072722E+00
          1   -1    0    0  501    0  0.00000000000E+00  0.00000000000E+00  0.72077804276E+03  0.72077804277E+03  0.50400000000E-02 0. -1.
         -1   -1    0    0    0  501 -0.00000000000E+00 -0.00000000000E+00 -0.29559158959E+03  0.29559158963E+03  0.50400000000E-02 0.  1.
    8880022    1    1    2    0    0 -0.47752878765E+02  0.28441563877E+03 -0.14668650396E+03  0.35788430598E+03  0.15294330000E+03 0.  0.
    8880022    1    1    2    0    0  0.47752878765E+02 -0.28441563877E+03  0.57187295713E+03  0.65848532642E+03  0.15294330000E+03 0.  0.
<mgrwt>
<rscale>  0 0.32644180E+03</rscale>
<asrwt>0</asrwt>
<pdfrwt beam="1">  1        1 0.11088893E+00 0.32644180E+03</pdfrwt>
<pdfrwt beam="2">  1       -1 0.45475629E-01 0.32644180E+03</pdfrwt>
<totfact> 0.13253620E+02</totfact>
</mgrwt>
</event>
<event>
 4    1  0.1852677E-008  0.1754330E+03  0.7818608E-02  0.1172298E+00
          1   -1    0    0  501    0  0.00000000000E+00  0.00000000000E+00  0.10500160392E+04  0.10500160392E+04  0.50400000000E-02 0. -1.
         -1   -1    0    0    0  501 -0.00000000000E+00 -0.00000000000E+00 -0.88041409845E+02  0.88041409990E+02  0.50400000000E-02 0.  1.
    8880022    1    1    2    0    0  0.73366206741E+02  0.44749231699E+02  0.94574135436E+03  0.96187496921E+03  0.15294330000E+03 0.  0.
    8880022    1    1    2    0    0 -0.73366206741E+02 -0.44749231699E+02  0.16233275010E+02  0.17618248001E+03  0.15294330000E+03 0.  0.
<mgrwt>
<rscale>  0 0.17543303E+03</rscale>
<asrwt>0</asrwt>
<pdfrwt beam="1">  1        1 0.16154093E+00 0.17543303E+03</pdfrwt>
<pdfrwt beam="2">  1       -1 0.13544832E-01 0.17543303E+03</pdfrwt>
<totfact> 0.56256505E+02</totfact>
</mgrwt>
</event>
<event>
 4    1  0.1852677E-008  0.5477620E+03  0.7818608E-02  0.1002013E+00
         -1   -1    0    0    0  501 -0.00000000000E+00  0.00000000000E+00  0.22468472390E+03  0.22468472395E+03  0.50400000000E-02 0.  1.
          1   -1    0    0  501    0  0.00000000000E+00 -0.00000000000E+00 -0.19788215449E+04  0.19788215449E+04  0.50400000000E-02 0. -1.
    8880022    1    1    2    0    0  0.47301013488E+03  0.23002823287E+03 -0.24882215572E+03  0.60162753744E+03  0.15294330000E+03 0.  0.
    8880022    1    1    2    0    0 -0.47301013488E+03 -0.23002823287E+03 -0.15053146652E+04  0.16018787314E+04  0.15294330000E+03 0. -1.
<mgrwt>
<rscale>  0 0.54776202E+03</rscale>
<asrwt>0</asrwt>
<pdfrwt beam="1">  1        1 0.30443407E+00 0.54776202E+03</pdfrwt>
<pdfrwt beam="2">  1       -1 0.34566882E-01 0.54776202E+03</pdfrwt>
<totfact> 0.26206628E+01</totfact>
</mgrwt>
</event>
<event>
 4    1  0.1852677E-008  0.6102561E+03  0.7818608E-02  0.9884353E-01
          1   -1    0    0  501    0  0.00000000000E+00  0.00000000000E+00  0.13759360701E+04  0.13759360702E+04  0.50400000000E-02 0. -1.
         -1   -1    0    0    0  501 -0.00000000000E+00 -0.00000000000E+00 -0.56481005770E+03  0.56481005772E+03  0.50400000000E-02 0.  1.
    8880022    1    1    2    0    0  0.55439856885E+03  0.20411550484E+03  0.11058419597E+04  0.12630514658E+04  0.15294330000E+03 0.  0.
    8880022    1    1    2    0    0 -0.55439856885E+03 -0.20411550484E+03 -0.29471594722E+03  0.67769466208E+03  0.15294330000E+03 0.  0.
<mgrwt>
<rscale>  0 0.61025615E+03</rscale>
<asrwt>0</asrwt>
<pdfrwt beam="1">  1        1 0.21168247E+00 0.61025615E+03</pdfrwt>
<pdfrwt beam="2">  1       -1 0.86893855E-01 0.61025615E+03</pdfrwt>
<totfact> 0.11049681E+01</totfact>
</mgrwt>
</event>
<event>
 4    1  0.1852677E-008  0.2023318E+03  0.7818608E-02  0.1147786E+00
         -1   -1    0    0    0  501 -0.00000000000E+00  0.00000000000E+00  0.76798798500E+02  0.76798798665E+02  0.50400000000E-02 0.  1.
          1   -1    0    0  501    0  0.00000000000E+00 -0.00000000000E+00 -0.21876857544E+04  0.21876857544E+04  0.50400000000E-02 0. -1.
    8880022    1    1    2    0    0  0.77664229121E+02 -0.10730696664E+03 -0.20401280285E+04  0.20501367133E+04  0.15294330000E+03 0.  0.
    8880022    1    1    2    0    0 -0.77664229121E+02  0.10730696664E+03 -0.70758927353E+02  0.21434783971E+03  0.15294330000E+03 0.  1.
<mgrwt>
<rscale>  0 0.20233183E+03</rscale>
<asrwt>0</asrwt>
<pdfrwt beam="1">  1        1 0.33656699E+00 0.20233183E+03</pdfrwt>
<pdfrwt beam="2">  1       -1 0.11815201E-01 0.20233183E+03</pdfrwt>
<totfact> 0.12257510E+02</totfact>
</mgrwt>
</event>
<event>
 4    1  0.1852677E-008  0.2997365E+03  0.7818608E-02  0.1085372E+00
          1   -1    0    0  501    0  0.00000000000E+00  0.00000000000E+00  0.12224525336E+04  0.12224525336E+04  0.50400000000E-02 0. -1.
         -1   -1    0    0    0  501 -0.00000000000E+00 -0.00000000000E+00 -0.91107630418E+02  0.91107630557E+02  0.50400000000E-02 0.  1.
    8880022    1    1    2    0    0 -0.19489996991E+03  0.16871377588E+03  0.27688621690E+03  0.40805387704E+03  0.15294330000E+03 0.  1.
    8880022    1    1    2    0    0  0.19489996991E+03 -0.16871377588E+03  0.85445868626E+03  0.90550628710E+03  0.15294330000E+03 0.  0.
<mgrwt>
<rscale>  0 0.29973653E+03</rscale>
<asrwt>0</asrwt>
<pdfrwt beam="1">  1        1 0.18806959E+00 0.29973653E+03</pdfrwt>
<pdfrwt beam="2">  1       -1 0.14016561E-01 0.29973653E+03</pdfrwt>
<totfact> 0.39601466E+02</totfact>
</mgrwt>
</event>
<event>
 4    1  0.1852677E-008  0.5124104E+03  0.7818608E-02  0.1010589E+00
         -1   -1    0    0    0  501 -0.00000000000E+00  0.00000000000E+00  0.49312938125E+03  0.49312938128E+03  0.50400000000E-02 0.  1.
          1   -1    0    0  501    0  0.00000000000E+00 -0.00000000000E+00 -0.15171890100E+04  0.15171890100E+04  0.50400000000E-02 0. -1.
    8880022    1    1    2    0    0 -0.33871072326E+03 -0.35277163693E+03  0.29776801387E+03  0.59264679614E+03  0.15294330000E+03 0.  1.
    8880022    1    1    2    0    0  0.33871072326E+03  0.35277163693E+03 -0.13218276427E+04  0.14176715952E+04  0.15294330000E+03 0.  0.
<mgrwt>
<rscale>  0 0.51241042E+03</rscale>
<asrwt>0</asrwt>
<pdfrwt beam="1">  1        1 0.23341369E+00 0.51241042E+03</pdfrwt>
<pdfrwt beam="2">  1       -1 0.75866060E-01 0.51241042E+03</pdfrwt>
<totfact> 0.12026213E+01</totfact>
</mgrwt>
</event>
<event>
 4    1  0.1852677E-008  0.6797502E+03  0.7818608E-02  0.9752503E-01
         -1   -1    0    0    0  501 -0.00000000000E+00  0.00000000000E+00  0.50418438975E+03  0.50418438977E+03  0.50400000000E-02 0.  1.
          1   -1    0    0  501    0  0.00000000000E+00 -0.00000000000E+00 -0.13339117212E+04  0.13339117212E+04  0.50400000000E-02 0. -1.
    8880022    1    1    2    0    0 -0.83142022293E+02  0.65708154180E+03  0.99277489220E+02  0.68696173207E+03  0.15294330000E+03 0.  0.
    8880022    1    1    2    0    0  0.83142022293E+02 -0.65708154180E+03 -0.92900482063E+03  0.11511343789E+04  0.15294330000E+03 0. -1.
<mgrwt>
<rscale>  0 0.67975025E+03</rscale>
<asrwt>0</asrwt>
<pdfrwt beam="1">  1        1 0.20521719E+00 0.67975025E+03</pdfrwt>
<pdfrwt beam="2">  1       -1 0.77566830E-01 0.67975025E+03</pdfrwt>
<totfact> 0.14888232E+01</totfact>
</mgrwt>
</event>
<event>
 4    1  0.1852677E-008  0.1162489E+04  0.7818608E-02  0.9146339E-01
          1   -1    0    0  501    0  0.00000000000E+00  0.00000000000E+00  0.24999126778E+04  0.24999126778E+04  0.50400000000E-02 0. -1.
         -1   -1    0    0    0  501 -0.00000000000E+00 -0.00000000000E+00 -0.10159408068E+04  0.10159408068E+04  0.50400000000E-02 0.  1.
    8880022    1    1    2    0    0  0.10412718603E+04 -0.49370251942E+03  0.19444780965E+04  0.22654747815E+04  0.15294330000E+03 0.  0.
    8880022    1    1    2    0    0 -0.10412718603E+04  0.49370251942E+03 -0.46050622549E+03  0.12503787032E+04  0.15294330000E+03 0.  0.
<mgrwt>
<rscale>  0 0.11624891E+04</rscale>
<asrwt>0</asrwt>
<pdfrwt beam="1">  1        1 0.38460195E+00 0.11624891E+04</pdfrwt>
<pdfrwt beam="2">  1       -1 0.15629859E+00 0.11624891E+04</pdfrwt>
<totfact> 0.41922071E-01</totfact>
</mgrwt>
</event>
<event>
 4    1  0.1852677E-008  0.3144560E+03  0.7818608E-02  0.1078229E+00
         -1   -1    0    0    0  501 -0.00000000000E+00  0.00000000000E+00  0.87474179084E+02  0.87474179230E+02  0.50400000000E-02 0.  1.
          1   -1    0    0  501    0  0.00000000000E+00 -0.00000000000E+00 -0.24863174874E+04  0.24863174874E+04  0.50400000000E-02 0. -1.
    8880022    1    1    2    0    0  0.25722364394E+03  0.96575896802E+02 -0.24908269482E+03  0.40115427047E+03  0.15294330000E+03 0.  1.
    8880022    1    1    2    0    0 -0.25722364394E+03 -0.96575896802E+02 -0.21497606135E+04  0.21726373961E+04  0.15294330000E+03 0.  0.
<mgrwt>
<rscale>  0 0.31445597E+03</rscale>
<asrwt>0</asrwt>
<pdfrwt beam="1">  1        1 0.38251033E+00 0.31445597E+03</pdfrwt>
<pdfrwt beam="2">  1       -1 0.13457568E-01 0.31445597E+03</pdfrwt>
<totfact> 0.61297259E+01</totfact>
</mgrwt>
</event>
<event>
 4    1  0.1852677E-008  0.2897596E+03  0.7818608E-02  0.1090475E+00
         -1   -1    0    0    0  501 -0.00000000000E+00  0.00000000000E+00  0.30584579816E+03  0.30584579820E+03  0.50400000000E-02 0.  1.
          1   -1    0    0  501    0  0.00000000000E+00 -0.00000000000E+00 -0.55534650762E+03  0.55534650764E+03  0.50400000000E-02 0. -1.
    8880022    1    1    2    0    0 -0.23313171500E+03  0.78857872497E+02 -0.43095206677E+03  0.51930751724E+03  0.15294330000E+03 0. -1.
    8880022    1    1    2    0    0  0.23313171500E+03 -0.78857872497E+02  0.18145135731E+03  0.34188478860E+03  0.15294330000E+03 0.  0.
<mgrwt>
<rscale>  0 0.28975958E+03</rscale>
<asrwt>0</asrwt>
<pdfrwt beam="1">  1        1 0.85437924E-01 0.28975958E+03</pdfrwt>
<pdfrwt beam="2">  1       -1 0.47053200E-01 0.28975958E+03</pdfrwt>
<totfact> 0.18146167E+02</totfact>
</mgrwt>
</event>
<event>
 4    1  0.1852677E-008  0.2610785E+03  0.7818608E-02  0.1106497E+00
          1   -1    0    0  501    0  0.00000000000E+00  0.00000000000E+00  0.17264005741E+03  0.17264005748E+03  0.50400000000E-02 0. -1.
         -1   -1    0    0    0  501 -0.00000000000E+00 -0.00000000000E+00 -0.62021397346E+03  0.62021397348E+03  0.50400000000E-02 0.  1.
    8880022    1    1    2    0    0 -0.20266102536E+03  0.60817954519E+02 -0.46276741649E+03  0.53133384004E+03  0.15294330000E+03 0.  0.
    8880022    1    1    2    0    0  0.20266102536E+03 -0.60817954519E+02  0.15193500434E+02  0.26152019093E+03  0.15294330000E+03 0.  0.
<mgrwt>
<rscale>  0 0.26107847E+03</rscale>
<asrwt>0</asrwt>
<pdfrwt beam="1">  1        1 0.26560009E-01 0.26107847E+03</pdfrwt>
<pdfrwt beam="2">  1       -1 0.95417533E-01 0.26107847E+03</pdfrwt>
<totfact> 0.19934745E+02</totfact>
</mgrwt>
</event>
<event>
 4    1  0.1852677E-008  0.4448641E+03  0.7818608E-02  0.1029265E+00
          1   -1    0    0  501    0  0.00000000000E+00  0.00000000000E+00  0.17326392917E+04  0.17326392917E+04  0.50400000000E-02 0. -1.
         -1   -1    0    0    0  501 -0.00000000000E+00 -0.00000000000E+00 -0.42856285458E+03  0.42856285461E+03  0.50400000000E-02 0.  1.
    8880022    1    1    2    0    0 -0.81357694001E+02  0.40974787698E+03  0.15775013762E+04  0.16390285666E+04  0.15294330000E+03 0.  0.
    8880022    1    1    2    0    0  0.81357694001E+02 -0.40974787698E+03 -0.27342493908E+03  0.52217357975E+03  0.15294330000E+03 0.  0.
<mgrwt>
<rscale>  0 0.44486408E+03</rscale>
<asrwt>0</asrwt>
<pdfrwt beam="1">  1        1 0.26655989E+00 0.44486408E+03</pdfrwt>
<pdfrwt beam="2">  1       -1 0.65932748E-01 0.44486408E+03</pdfrwt>
<totfact> 0.11672821E+01</totfact>
</mgrwt>
</event>
<event>
 4    1  0.1852677E-008  0.9353234E+03  0.7818608E-02  0.9382472E-01
          1   -1    0    0  501    0  0.00000000000E+00  0.00000000000E+00  0.18192893483E+04  0.18192893483E+04  0.50400000000E-02 0. -1.
         -1   -1    0    0    0  501 -0.00000000000E+00 -0.00000000000E+00 -0.11235518786E+04  0.11235518786E+04  0.50400000000E-02 0.  1.
    8880022    1    1    2    0    0 -0.77429846076E+03 -0.50189646134E+03 -0.76499117906E+03  0.12083216961E+04  0.15294330000E+03 0.  0.
    8880022    1    1    2    0    0  0.77429846076E+03  0.50189646134E+03  0.14607286488E+04  0.17345195308E+04  0.15294330000E+03 0.  0.
<mgrwt>
<rscale>  0 0.93532338E+03</rscale>
<asrwt>0</asrwt>
<pdfrwt beam="1">  1        1 0.27989066E+00 0.93532338E+03</pdfrwt>
<pdfrwt beam="2">  1       -1 0.17285414E+00 0.93532338E+03</pdfrwt>
<totfact> 0.94543376E-01</totfact>
</mgrwt>
</event>
<event>
 4    1  0.1852677E-008  0.3760941E+03  0.7818608E-02  0.1052387E+00
         -1   -1    0    0    0  501 -0.00000000000E+00  0.00000000000E+00  0.24221951397E+03  0.24221951403E+03  0.50400000000E-02 0.  1.
          1   -1    0    0  501    0  0.00000000000E+00 -0.00000000000E+00 -0.10088716814E+04  0.10088716814E+04  0.50400000000E-02 0. -1.
    8880022    1    1    2    0    0 -0.28342440851E+03  0.19423112374E+03  0.22640017709E+02  0.37677493041E+03  0.15294330000E+03 0.  0.
    8880022    1    1    2    0    0  0.28342440851E+03 -0.19423112374E+03 -0.78929218515E+03  0.87431626505E+03  0.15294330000E+03 0.  0.
<mgrwt>
<rscale>  0 0.37609411E+03</rscale>
<asrwt>0</asrwt>
<pdfrwt beam="1">  1        1 0.15521103E+00 0.37609411E+03</pdfrwt>
<pdfrwt beam="2">  1       -1 0.37264541E-01 0.37609411E+03</pdfrwt>
<totfact> 0.10954021E+02</totfact>
</mgrwt>
</event>
<event>
 4    1  0.1852677E-008  0.7728574E+03  0.7818608E-02  0.9600158E-01
          1   -1    0    0  501    0  0.00000000000E+00  0.00000000000E+00  0.40739670281E+04  0.40739670281E+04  0.50400000000E-02 0. -1.
         -1   -1    0    0    0  501 -0.00000000000E+00 -0.00000000000E+00 -0.48508264341E+03  0.48508264344E+03  0.50400000000E-02 0.  1.
    8880022    1    1    2    0    0 -0.74947868993E+03 -0.11044730089E+03  0.36985626835E+04  0.37784486882E+04  0.15294330000E+03 0.  0.
    8880022    1    1    2    0    0  0.74947868993E+03  0.11044730089E+03 -0.10967829877E+03  0.78060098333E+03  0.15294330000E+03 0.  0.
<mgrwt>
<rscale>  0 0.77285740E+03</rscale>
<asrwt>0</asrwt>
<pdfrwt beam="1">  1        1 0.62676412E+00 0.77285740E+03</pdfrwt>
<pdfrwt beam="2">  1       -1 0.74628103E-01 0.77285740E+03</pdfrwt>
<totfact> 0.16599918E-01</totfact>
</mgrwt>
</event>
<event>
 4    1  0.1852677E-008  0.5515870E+03  0.7818608E-02  0.1001127E+00
          1   -1    0    0  501    0  0.00000000000E+00  0.00000000000E+00  0.28416419182E+04  0.28416419182E+04  0.50400000000E-02 0. -1.
         -1   -1    0    0    0  501 -0.00000000000E+00 -0.00000000000E+00 -0.35034252109E+03  0.35034252112E+03  0.50400000000E-02 0.  1.
    8880022    1    1    2    0    0  0.35165023089E+03  0.39648289724E+03  0.25755922293E+04  0.26339938415E+04  0.15294330000E+03 0.  0.
    8880022    1    1    2    0    0 -0.35165023089E+03 -0.39648289724E+03 -0.84292832142E+02  0.55799059782E+03  0.15294330000E+03 0.  0.
<mgrwt>
<rscale>  0 0.55158701E+03</rscale>
<asrwt>0</asrwt>
<pdfrwt beam="1">  1        1 0.43717570E+00 0.55158701E+03</pdfrwt>
<pdfrwt beam="2">  1       -1 0.53898847E-01 0.55158701E+03</pdfrwt>
<totfact> 0.30263494E+00</totfact>
</mgrwt>
</event>
<event>
 4    1  0.1852677E-008  0.1003701E+04  0.7818608E-02  0.9304495E-01
          1   -1    0    0  501    0  0.00000000000E+00  0.00000000000E+00  0.27045238363E+04  0.27045238363E+04  0.50400000000E-02 0. -1.
         -1   -1    0    0    0  501 -0.00000000000E+00 -0.00000000000E+00 -0.75677426449E+03  0.75677426451E+03  0.50400000000E-02 0.  1.
    8880022    1    1    2    0    0  0.52568854925E+03 -0.84123480878E+03 -0.25937331525E+03  0.10366728626E+04  0.15294330000E+03 0.  0.
    8880022    1    1    2    0    0 -0.52568854925E+03  0.84123480878E+03  0.22071228870E+04  0.24246252382E+04  0.15294330000E+03 0. -1.
<mgrwt>
<rscale>  0 0.10037012E+04</rscale>
<asrwt>0</asrwt>
<pdfrwt beam="1">  1        1 0.41608059E+00 0.10037012E+04</pdfrwt>
<pdfrwt beam="2">  1       -1 0.11642681E+00 0.10037012E+04</pdfrwt>
<totfact> 0.66301308E-01</totfact>
</mgrwt>
</event>
<event>
 4    1  0.1852677E-008  0.2580143E+03  0.7818608E-02  0.1108342E+00
         -1   -1    0    0    0  501 -0.00000000000E+00  0.00000000000E+00  0.40945280107E+02  0.40945280417E+02  0.50400000000E-02 0.  1.
          1   -1    0    0  501    0  0.00000000000E+00 -0.00000000000E+00 -0.25437227868E+04  0.25437227868E+04  0.50400000000E-02 0. -1.
    8880022    1    1    2    0    0  0.12982075180E+03 -0.16225385569E+03 -0.47509124986E+03  0.54063212075E+03  0.15294330000E+03 0.  1.
    8880022    1    1    2    0    0 -0.12982075180E+03  0.16225385569E+03 -0.20276862568E+04  0.20440359465E+04  0.15294330000E+03 0.  1.
<mgrwt>
<rscale>  0 0.25801433E+03</rscale>
<asrwt>0</asrwt>
<pdfrwt beam="1">  1        1 0.39134184E+00 0.25801433E+03</pdfrwt>
<pdfrwt beam="2">  1       -1 0.62992759E-02 0.25801433E+03</pdfrwt>
<totfact> 0.18465378E+02</totfact>
</mgrwt>
</event>
<event>
 4    1  0.1852677E-008  0.2207362E+03  0.7818608E-02  0.1133335E+00
          1   -1    0    0  501    0  0.00000000000E+00  0.00000000000E+00  0.11551634678E+04  0.11551634678E+04  0.50400000000E-02 0. -1.
         -1   -1    0    0    0  501 -0.00000000000E+00 -0.00000000000E+00 -0.36144407384E+03  0.36144407387E+03  0.50400000000E-02 0.  1.
    8880022    1    1    2    0    0  0.11216643051E+03 -0.11292252151E+03 -0.31582574227E+03  0.38531851304E+03  0.15294330000E+03 0.  1.
    8880022    1    1    2    0    0 -0.11216643051E+03  0.11292252151E+03  0.11095451362E+04  0.11312890286E+04  0.15294330000E+03 0.  0.
<mgrwt>
<rscale>  0 0.22073617E+03</rscale>
<asrwt>0</asrwt>
<pdfrwt beam="1">  1        1 0.17771745E+00 0.22073617E+03</pdfrwt>
<pdfrwt beam="2">  1       -1 0.55606782E-01 0.22073617E+03</pdfrwt>
<totfact> 0.42830273E+01</totfact>
</mgrwt>
</event>
<event>
 4    1  0.1852677E-008  0.6667933E+03  0.7818608E-02  0.9775768E-01
          1   -1    0    0  501    0  0.00000000000E+00  0.00000000000E+00  0.76261867297E+03  0.76261867299E+03  0.50400000000E-02 0. -1.
         -1   -1    0    0    0  501 -0.00000000000E+00 -0.00000000000E+00 -0.13769638284E+04  0.13769638284E+04  0.50400000000E-02 0.  1.
    8880022    1    1    2    0    0  0.44052397949E+03  0.47661334611E+03  0.50516353138E+03  0.83654258986E+03  0.15294330000E+03 0. -1.
    8880022    1    1    2    0    0 -0.44052397949E+03 -0.47661334611E+03 -0.11195086868E+04  0.13030399116E+04  0.15294330000E+03 0.  0.
<mgrwt>
<rscale>  0 0.66679330E+03</rscale>
<asrwt>0</asrwt>
<pdfrwt beam="1">  1        1 0.11732595E+00 0.66679330E+03</pdfrwt>
<pdfrwt beam="2">  1       -1 0.21184059E+00 0.66679330E+03</pdfrwt>
<totfact> 0.31455191E+00</totfact>
</mgrwt>
</event>
<event>
 4    1  0.1852677E-008  0.2784972E+03  0.7818608E-02  0.1096513E+00
         -1   -1    0    0    0  501 -0.00000000000E+00  0.00000000000E+00  0.20384742729E+03  0.20384742736E+03  0.50400000000E-02 0.  1.
          1   -1    0    0  501    0  0.00000000000E+00 -0.00000000000E+00 -0.91721775855E+03  0.91721775857E+03  0.50400000000E-02 0. -1.
    8880022    1    1    2    0    0 -0.19801503624E+03  0.12230722381E+03  0.72104330839E+02  0.28767985525E+03  0.15294330000E+03 0.  1.
    8880022    1    1    2    0    0  0.19801503624E+03 -0.12230722381E+03 -0.78547466210E+03  0.83338533068E+03  0.15294330000E+03 0.  0.
<mgrwt>
<rscale>  0 0.27849715E+03</rscale>
<asrwt>0</asrwt>
<pdfrwt beam="1">  1        1 0.14111042E+00 0.27849715E+03</pdfrwt>
<pdfrwt beam="2">  1       -1 0.31361143E-01 0.27849715E+03</pdfrwt>
<totfact> 0.17686106E+02</totfact>
</mgrwt>
</event>
<event>
 4    1  0.1852677E-008  0.2068121E+03  0.7818608E-02  0.1144116E+00
         -1   -1    0    0    0  501 -0.00000000000E+00  0.00000000000E+00  0.62107020486E+02  0.62107020690E+02  0.50400000000E-02 0.  1.
          1   -1    0    0  501    0  0.00000000000E+00 -0.00000000000E+00 -0.11573122806E+04  0.11573122806E+04  0.50400000000E-02 0. -1.
    8880022    1    1    2    0    0  0.83988542237E+02  0.11102033382E+03 -0.15961443165E+03  0.26124320002E+03  0.15294330000E+03 0.  1.
    8880022    1    1    2    0    0 -0.83988542237E+02 -0.11102033382E+03 -0.93559082843E+03  0.95817610125E+03  0.15294330000E+03 0. -1.
<mgrwt>
<rscale>  0 0.20681210E+03</rscale>
<asrwt>0</asrwt>
<pdfrwt beam="1">  1        1 0.17804803E+00 0.20681210E+03</pdfrwt>
<pdfrwt beam="2">  1       -1 0.95549271E-02 0.20681210E+03</pdfrwt>
<totfact> 0.80814060E+02</totfact>
</mgrwt>
</event>
<event>
 4    1  0.1852677E-008  0.1965858E+03  0.7818608E-02  0.1152652E+00
          1   -1    0    0  501    0  0.00000000000E+00  0.00000000000E+00  0.58055713219E+02  0.58055713438E+02  0.50400000000E-02 0. -1.
         -1   -1    0    0    0  501 -0.00000000000E+00 -0.00000000000E+00 -0.69157341900E+03  0.69157341901E+03  0.50400000000E-02 0.  1.
    8880022    1    1    2    0    0  0.10880578507E+03 -0.58443210312E+02 -0.38929823244E+03  0.43611818868E+03  0.15294330000E+03 0. -1.
    8880022    1    1    2    0    0 -0.10880578507E+03  0.58443210312E+02 -0.24421947333E+03  0.31351094378E+03  0.15294330000E+03 0.  1.
<mgrwt>
<rscale>  0 0.19658576E+03</rscale>
<asrwt>0</asrwt>
<pdfrwt beam="1">  1        1 0.89316487E-02 0.19658576E+03</pdfrwt>
<pdfrwt beam="2">  1       -1 0.10639590E+00 0.19658576E+03</pdfrwt>
<totfact> 0.65355620E+02</totfact>
</mgrwt>
</event>
<event>
 4    1  0.1852677E-008  0.3671097E+03  0.7818608E-02  0.1055804E+00
          1   -1    0    0  501    0  0.00000000000E+00  0.00000000000E+00  0.22170481199E+04  0.22170481199E+04  0.50400000000E-02 0. -1.
         -1   -1    0    0    0  501 -0.00000000000E+00 -0.00000000000E+00 -0.25456649009E+03  0.25456649014E+03  0.50400000000E-02 0.  1.
    8880022    1    1    2    0    0  0.18469682037E+03 -0.27796576531E+03 -0.96968599651E+02  0.37970046678E+03  0.15294330000E+03 0.  1.
    8880022    1    1    2    0    0 -0.18469682037E+03  0.27796576531E+03  0.20594502294E+04  0.20919141432E+04  0.15294330000E+03 0.  0.
<mgrwt>
<rscale>  0 0.36710970E+03</rscale>
<asrwt>0</asrwt>
<pdfrwt beam="1">  1        1 0.34108434E+00 0.36710970E+03</pdfrwt>
<pdfrwt beam="2">  1       -1 0.39164074E-01 0.36710970E+03</pdfrwt>
<totfact> 0.15268916E+01</totfact>
</mgrwt>
</event>
<event>
 4    1  0.1852677E-008  0.6744239E+03  0.7818608E-02  0.9761999E-01
         -1   -1    0    0    0  501 -0.00000000000E+00  0.00000000000E+00  0.83039980420E+03  0.83039980421E+03  0.50400000000E-02 0.  1.
          1   -1    0    0  501    0  0.00000000000E+00 -0.00000000000E+00 -0.81719496099E+03  0.81719496100E+03  0.50400000000E-02 0. -1.
    8880022    1    1    2    0    0  0.50590902413E+03  0.41894153096E+03  0.47964080155E+03  0.82758860468E+03  0.15294330000E+03 0.  0.
    8880022    1    1    2    0    0 -0.50590902413E+03 -0.41894153096E+03 -0.46643595834E+03  0.82000616054E+03  0.15294330000E+03 0.  0.
<mgrwt>
<rscale>  0 0.67442390E+03</rscale>
<asrwt>0</asrwt>
<pdfrwt beam="1">  1        1 0.12572230E+00 0.67442390E+03</pdfrwt>
<pdfrwt beam="2">  1       -1 0.12775382E+00 0.67442390E+03</pdfrwt>
<totfact> 0.11785942E+01</totfact>
</mgrwt>
</event>
<event>
 4    1  0.1852677E-008  0.1155287E+04  0.7818608E-02  0.9152920E-01
          1   -1    0    0  501    0  0.00000000000E+00  0.00000000000E+00  0.14513226122E+04  0.14513226122E+04  0.50400000000E-02 0. -1.
         -1   -1    0    0    0  501 -0.00000000000E+00 -0.00000000000E+00 -0.13170366146E+04  0.13170366146E+04  0.50400000000E-02 0.  1.
    8880022    1    1    2    0    0 -0.19721157023E+03 -0.11280091854E+04  0.82748274684E+03  0.14210617422E+04  0.15294330000E+03 0.  0.
    8880022    1    1    2    0    0  0.19721157023E+03  0.11280091854E+04 -0.69319674926E+03  0.13472974846E+04  0.15294330000E+03 0.  0.
<mgrwt>
<rscale>  0 0.11552873E+04</rscale>
<asrwt>0</asrwt>
<pdfrwt beam="1">  1        1 0.22328040E+00 0.11552873E+04</pdfrwt>
<pdfrwt beam="2">  1       -1 0.20262102E+00 0.11552873E+04</pdfrwt>
<totfact> 0.10061976E+00</totfact>
</mgrwt>
</event>
<event>
 4    1  0.1852677E-008  0.5232581E+03  0.7818608E-02  0.1007880E+00
         -1   -1    0    0    0  501 -0.00000000000E+00  0.00000000000E+00  0.65182520163E+03  0.65182520165E+03  0.50400000000E-02 0.  1.
          1   -1    0    0  501    0  0.00000000000E+00 -0.00000000000E+00 -0.14208423569E+04  0.14208423570E+04  0.50400000000E-02 0. -1.
    8880022    1    1    2    0    0 -0.49310527389E+03  0.85173682387E+02  0.48525005565E+03  0.71362920122E+03  0.15294330000E+03 0.  0.
    8880022    1    1    2    0    0  0.49310527389E+03 -0.85173682387E+02 -0.12542672110E+04  0.13590383574E+04  0.15294330000E+03 0.  0.
<mgrwt>
<rscale>  0 0.52325808E+03</rscale>
<asrwt>0</asrwt>
<pdfrwt beam="1">  1        1 0.21859113E+00 0.52325808E+03</pdfrwt>
<pdfrwt beam="2">  1       -1 0.10028080E+00 0.52325808E+03</pdfrwt>
<totfact> 0.76252582E+00</totfact>
</mgrwt>
</event>
<event>
 4    1  0.1852677E-008  0.6614756E+03  0.7818608E-02  0.9785481E-01
          1   -1    0    0  501    0  0.00000000000E+00  0.00000000000E+00  0.42301004716E+03  0.42301004719E+03  0.50400000000E-02 0. -1.
         -1   -1    0    0    0  501 -0.00000000000E+00 -0.00000000000E+00 -0.16462925821E+04  0.16462925822E+04  0.50400000000E-02 0.  1.
    8880022    1    1    2    0    0  0.44390521521E+03  0.46594684750E+03  0.19153174754E+02  0.66175282538E+03  0.15294330000E+03 0.  0.
    8880022    1    1    2    0    0 -0.44390521521E+03 -0.46594684750E+03 -0.12424357097E+04  0.14075498040E+04  0.15294330000E+03 0.  0.
<mgrwt>
<rscale>  0 0.66147559E+03</rscale>
<asrwt>0</asrwt>
<pdfrwt beam="1">  1        1 0.65078470E-01 0.66147559E+03</pdfrwt>
<pdfrwt beam="2">  1       -1 0.25327578E+00 0.66147559E+03</pdfrwt>
<totfact> 0.39033512E+00</totfact>
</mgrwt>
</event>
<event>
 4    1  0.1852677E-008  0.4316647E+03  0.7818608E-02  0.1033335E+00
         -1   -1    0    0    0  501 -0.00000000000E+00  0.00000000000E+00  0.35998803605E+03  0.35998803608E+03  0.50400000000E-02 0.  1.
          1   -1    0    0  501    0  0.00000000000E+00 -0.00000000000E+00 -0.85092168494E+03  0.85092168495E+03  0.50400000000E-02 0. -1.
    8880022    1    1    2    0    0 -0.33765900943E+03  0.22119932645E+03  0.13346444462E+03  0.45182647074E+03  0.15294330000E+03 0.  0.
    8880022    1    1    2    0    0  0.33765900943E+03 -0.22119932645E+03 -0.62439809351E+03  0.75908325029E+03  0.15294330000E+03 0.  0.
<mgrwt>
<rscale>  0 0.43166469E+03</rscale>
<asrwt>0</asrwt>
<pdfrwt beam="1">  1        1 0.13091103E+00 0.43166469E+03</pdfrwt>
<pdfrwt beam="2">  1       -1 0.55382775E-01 0.43166469E+03</pdfrwt>
<totfact> 0.69769792E+01</totfact>
</mgrwt>
</event>
<event>
 4    1  0.1852677E-008  0.5855485E+03  0.7818608E-02  0.9935850E-01
          1   -1    0    0  501    0  0.00000000000E+00  0.00000000000E+00  0.66895688328E+03  0.66895688330E+03  0.50400000000E-02 0. -1.
         -1   -1    0    0    0  501 -0.00000000000E+00 -0.00000000000E+00 -0.89464538792E+03  0.89464538793E+03  0.50400000000E-02 0.  1.
    8880022    1    1    2    0    0 -0.55275997586E+03  0.11803325842E+03 -0.62377550787E+03  0.85554834945E+03  0.15294330000E+03 0.  0.
    8880022    1    1    2    0    0  0.55275997586E+03 -0.11803325842E+03  0.39808700323E+03  0.70805392179E+03  0.15294330000E+03 0.  0.
<mgrwt>
<rscale>  0 0.58554854E+03</rscale>
<asrwt>0</asrwt>
<pdfrwt beam="1">  1        1 0.10291644E+00 0.58554854E+03</pdfrwt>
<pdfrwt beam="2">  1       -1 0.13763775E+00 0.58554854E+03</pdfrwt>
<totfact> 0.13459264E+01</totfact>
</mgrwt>
</event>
<event>
 4    1  0.1852677E-008  0.4417471E+03  0.7818608E-02  0.1030212E+00
          1   -1    0    0  501    0  0.00000000000E+00  0.00000000000E+00  0.11519549951E+04  0.11519549951E+04  0.50400000000E-02 0. -1.
         -1   -1    0    0    0  501 -0.00000000000E+00 -0.00000000000E+00 -0.24985308892E+03  0.24985308897E+03  0.50400000000E-02 0.  1.
    8880022    1    1    2    0    0  0.35060455786E+03 -0.22096450902E+03  0.84878163466E+03  0.95685463190E+03  0.15294330000E+03 0.  0.
    8880022    1    1    2    0    0 -0.35060455786E+03  0.22096450902E+03  0.53320271530E+02  0.44495345218E+03  0.15294330000E+03 0.  0.
<mgrwt>
<rscale>  0 0.44174713E+03</rscale>
<asrwt>0</asrwt>
<pdfrwt beam="1">  1        1 0.17722385E+00 0.44174713E+03</pdfrwt>
<pdfrwt beam="2">  1       -1 0.38438937E-01 0.44174713E+03</pdfrwt>
<totfact> 0.80449788E+01</totfact>
</mgrwt>
</event>
<event>
 4    1  0.1852677E-008  0.4597231E+03  0.7818608E-02  0.1024862E+00
         -1   -1    0    0    0  501 -0.00000000000E+00  0.00000000000E+00  0.87525456682E+03  0.87525456683E+03  0.50400000000E-02 0.  1.
          1   -1    0    0  501    0  0.00000000000E+00 -0.00000000000E+00 -0.10050172183E+04  0.10050172183E+04  0.50400000000E-02 0. -1.
    8880022    1    1    2    0    0  0.11727853283E+03  0.41737209361E+03 -0.88433158143E+03  0.99668837543E+03  0.15294330000E+03 0.  0.
    8880022    1    1    2    0    0 -0.11727853283E+03 -0.41737209361E+03  0.75456892997E+03  0.88358340969E+03  0.15294330000E+03 0.  0.
<mgrwt>
<rscale>  0 0.45972315E+03</rscale>
<asrwt>0</asrwt>
<pdfrwt beam="1">  1        1 0.15461803E+00 0.45972315E+03</pdfrwt>
<pdfrwt beam="2">  1       -1 0.13465455E+00 0.45972315E+03</pdfrwt>
<totfact> 0.75947078E+00</totfact>
</mgrwt>
</event>
<event>
 4    1  0.2203064E-008  0.1002995E+04  0.7818608E-02  0.9305266E-01
          1   -1    0    0  501    0  0.00000000000E+00  0.00000000000E+00  0.16323637442E+04  0.16323637442E+04  0.50400000000E-02 0. -1.
         -1   -1    0    0    0  501 -0.00000000000E+00 -0.00000000000E+00 -0.14162253967E+04  0.14162253967E+04  0.50400000000E-02 0.  1.
    8880022    1    1    2    0    0  0.96507363521E+02 -0.98655669521E+03  0.12536660909E+04  0.16055149032E+04  0.15294330000E+03 0.  0.
    8880022    1    1    2    0    0 -0.96507363521E+02  0.98655669521E+03 -0.10375277433E+04  0.14430742376E+04  0.15294330000E+03 0.  0.
<mgrwt>
<rscale>  0 0.10029952E+04</rscale>
<asrwt>0</asrwt>
<pdfrwt beam="1">  1        1 0.25113288E+00 0.10029952E+04</pdfrwt>
<pdfrwt beam="2">  1       -1 0.21788083E+00 0.10029952E+04</pdfrwt>
<totfact> 0.60841489E-01</totfact>
</mgrwt>
</event>
<event>
 4    1  0.1852677E-008  0.2970040E+03  0.7818608E-02  0.1086748E+00
          1   -1    0    0  501    0  0.00000000000E+00  0.00000000000E+00  0.17107592253E+04  0.17107592253E+04  0.50400000000E-02 0. -1.
         -1   -1    0    0    0  501 -0.00000000000E+00 -0.00000000000E+00 -0.13497471168E+03  0.13497471177E+03  0.50400000000E-02 0.  1.
    8880022    1    1    2    0    0 -0.23433268288E+03  0.99538545849E+02  0.62409374054E+02  0.30349021625E+03  0.15294330000E+03 0.  0.
    8880022    1    1    2    0    0  0.23433268288E+03 -0.99538545849E+02  0.15133751396E+04  0.15422437208E+04  0.15294330000E+03 0.  0.
<mgrwt>
<rscale>  0 0.29700401E+03</rscale>
<asrwt>0</asrwt>
<pdfrwt beam="1">  1        1 0.26319375E+00 0.29700401E+03</pdfrwt>
<pdfrwt beam="2">  1       -1 0.20765339E-01 0.29700401E+03</pdfrwt>
<totfact> 0.98751954E+01</totfact>
</mgrwt>
</event>
<event>
 4    1  0.1852677E-008  0.5317493E+03  0.7818608E-02  0.1005809E+00
          1   -1    0    0  501    0  0.00000000000E+00  0.00000000000E+00  0.11172343093E+04  0.11172343093E+04  0.50400000000E-02 0. -1.
         -1   -1    0    0    0  501 -0.00000000000E+00 -0.00000000000E+00 -0.25881557069E+03  0.25881557074E+03  0.50400000000E-02 0.  1.
    8880022    1    1    2    0    0  0.47229191626E+03 -0.19054130116E+03  0.32684745542E+03  0.62416869013E+03  0.15294330000E+03 0.  0.
    8880022    1    1    2    0    0 -0.47229191626E+03  0.19054130116E+03  0.53157128319E+03  0.75188118991E+03  0.15294330000E+03 0.  0.
<mgrwt>
<rscale>  0 0.53174928E+03</rscale>
<asrwt>0</asrwt>
<pdfrwt beam="1">  1        1 0.17188220E+00 0.53174928E+03</pdfrwt>
<pdfrwt beam="2">  1       -1 0.39817780E-01 0.53174928E+03</pdfrwt>
<totfact> 0.79039413E+01</totfact>
</mgrwt>
</event>
<event>
 4    1  0.1852677E-008  0.5502202E+03  0.7818608E-02  0.1001443E+00
          1   -1    0    0  501    0  0.00000000000E+00  0.00000000000E+00  0.12013799286E+04  0.12013799286E+04  0.50400000000E-02 0. -1.
         -1   -1    0    0    0  501 -0.00000000000E+00 -0.00000000000E+00 -0.27773026956E+03  0.27773026960E+03  0.50400000000E-02 0.  1.
    8880022    1    1    2    0    0 -0.92281723150E+02 -0.52041785305E+03  0.68694750558E+03  0.88013589100E+03  0.15294330000E+03 0.  0.
    8880022    1    1    2    0    0  0.92281723150E+02  0.52041785305E+03  0.23670215343E+03  0.59897430717E+03  0.15294330000E+03 0.  0.
<mgrwt>
<rscale>  0 0.55022024E+03</rscale>
<asrwt>0</asrwt>
<pdfrwt beam="1">  1        1 0.18482768E+00 0.55022024E+03</pdfrwt>
<pdfrwt beam="2">  1       -1 0.42727733E-01 0.55022024E+03</pdfrwt>
<totfact> 0.60265771E+01</totfact>
</mgrwt>
</event>
<event>
 4    1  0.1852677E-008  0.8524224E+03  0.7818608E-02  0.9487091E-01
         -1   -1    0    0    0  501 -0.00000000000E+00  0.00000000000E+00  0.82182328336E+03  0.82182328337E+03  0.50400000000E-02 0.  1.
          1   -1    0    0  501    0  0.00000000000E+00 -0.00000000000E+00 -0.17359759352E+04  0.17359759352E+04  0.50400000000E-02 0. -1.
    8880022    1    1    2    0    0  0.40985567007E+03 -0.73160828183E+03  0.43877771920E+03  0.95872305084E+03  0.15294330000E+03 0.  0.
    8880022    1    1    2    0    0 -0.40985567007E+03  0.73160828183E+03 -0.13529303710E+04  0.15990761677E+04  0.15294330000E+03 0.  0.
<mgrwt>
<rscale>  0 0.85242243E+03</rscale>
<asrwt>0</asrwt>
<pdfrwt beam="1">  1        1 0.26707322E+00 0.85242243E+03</pdfrwt>
<pdfrwt beam="2">  1       -1 0.12643435E+00 0.85242243E+03</pdfrwt>
<totfact> 0.25239494E+00</totfact>
</mgrwt>
</event>
<event>
 4    1  0.1852677E-008  0.6395525E+03  0.7818608E-02  0.9826583E-01
          1   -1    0    0  501    0  0.00000000000E+00  0.00000000000E+00  0.47123459110E+03  0.47123459113E+03  0.50400000000E-02 0. -1.
         -1   -1    0    0    0  501 -0.00000000000E+00 -0.00000000000E+00 -0.16859651951E+04  0.16859651951E+04  0.50400000000E-02 0.  1.
    8880022    1    1    2    0    0 -0.26014220422E+03  0.56388101027E+03  0.14392166608E+03  0.65554622960E+03  0.15294330000E+03 0.  0.
    8880022    1    1    2    0    0  0.26014220422E+03 -0.56388101027E+03 -0.13586522700E+04  0.15016535566E+04  0.15294330000E+03 0.  0.
<mgrwt>
<rscale>  0 0.63955251E+03</rscale>
<asrwt>0</asrwt>
<pdfrwt beam="1">  1        1 0.72497630E-01 0.63955251E+03</pdfrwt>
<pdfrwt beam="2">  1       -1 0.25937926E+00 0.63955251E+03</pdfrwt>
<totfact> 0.30980404E+00</totfact>
</mgrwt>
</event>
<event>
 4    1  0.1852677E-008  0.4970183E+03  0.7818608E-02  0.1014560E+00
          1   -1    0    0  501    0  0.00000000000E+00  0.00000000000E+00  0.16637166995E+04  0.16637166995E+04  0.50400000000E-02 0. -1.
         -1   -1    0    0    0  501 -0.00000000000E+00 -0.00000000000E+00 -0.67820472246E+03  0.67820472248E+03  0.50400000000E-02 0.  1.
    8880022    1    1    2    0    0 -0.10195537512E+03 -0.46177987570E+03  0.15276298008E+04  0.16064495055E+04  0.15294330000E+03 0.  0.
    8880022    1    1    2    0    0  0.10195537512E+03  0.46177987570E+03 -0.54211782380E+03  0.73547191654E+03  0.15294330000E+03 0.  0.
<mgrwt>
<rscale>  0 0.49701831E+03</rscale>
<asrwt>0</asrwt>
<pdfrwt beam="1">  1        1 0.25595641E+00 0.49701831E+03</pdfrwt>
<pdfrwt beam="2">  1       -1 0.10433919E+00 0.49701831E+03</pdfrwt>
<totfact> 0.48063544E+00</totfact>
</mgrwt>
</event>
<event>
 4    1  0.1852677E-008  0.5918876E+03  0.7818608E-02  0.9922381E-01
         -1   -1    0    0    0  501 -0.00000000000E+00  0.00000000000E+00  0.47066164472E+03  0.47066164475E+03  0.50400000000E-02 0.  1.
          1   -1    0    0  501    0  0.00000000000E+00 -0.00000000000E+00 -0.12159357014E+04  0.12159357014E+04  0.50400000000E-02 0. -1.
    8880022    1    1    2    0    0  0.55607838380E+03  0.13310202184E+03 -0.89782203697E+03  0.10753675559E+04  0.15294330000E+03 0.  0.
    8880022    1    1    2    0    0 -0.55607838380E+03 -0.13310202184E+03  0.15254798034E+03  0.61122979024E+03  0.15294330000E+03 0.  0.
<mgrwt>
<rscale>  0 0.59188763E+03</rscale>
<asrwt>0</asrwt>
<pdfrwt beam="1">  1        1 0.18706703E+00 0.59188763E+03</pdfrwt>
<pdfrwt beam="2">  1       -1 0.72409484E-01 0.59188763E+03</pdfrwt>
<totfact> 0.21102780E+01</totfact>
</mgrwt>
</event>
<event>
 4    1  0.1852677E-008  0.6955711E+03  0.7818608E-02  0.9724836E-01
         -1   -1    0    0    0  501 -0.00000000000E+00  0.00000000000E+00  0.18874949489E+04  0.18874949489E+04  0.50400000000E-02 0.  1.
          1   -1    0    0  501    0  0.00000000000E+00 -0.00000000000E+00 -0.37522134201E+03  0.37522134204E+03  0.50400000000E-02 0. -1.
    8880022    1    1    2    0    0 -0.28095841815E+03 -0.61764862621E+03  0.11929165359E+03  0.70572629951E+03  0.15294330000E+03 0.  0.
    8880022    1    1    2    0    0  0.28095841815E+03  0.61764862621E+03  0.13929819533E+04  0.15569899914E+04  0.15294330000E+03 0.  0.
<mgrwt>
<rscale>  0 0.69557107E+03</rscale>
<asrwt>0</asrwt>
<pdfrwt beam="1">  1        1 0.57726359E-01 0.69557107E+03</pdfrwt>
<pdfrwt beam="2">  1       -1 0.29038384E+00 0.69557107E+03</pdfrwt>
<totfact> 0.26345317E+00</totfact>
</mgrwt>
</event>
<event>
 4    1  0.1852677E-008  0.2147203E+03  0.7818608E-02  0.1137882E+00
          1   -1    0    0  501    0  0.00000000000E+00  0.00000000000E+00  0.17982842030E+03  0.17982842037E+03  0.50400000000E-02 0. -1.
         -1   -1    0    0    0  501 -0.00000000000E+00 -0.00000000000E+00 -0.69993438644E+03  0.69993438646E+03  0.50400000000E-02 0.  1.
    8880022    1    1    2    0    0  0.42784982313E+02  0.14450807466E+03  0.90117341768E+02  0.23286461014E+03  0.15294330000E+03 0. -1.
    8880022    1    1    2    0    0 -0.42784982313E+02 -0.14450807466E+03 -0.61022330790E+03  0.64689819669E+03  0.15294330000E+03 0.  0.
<mgrwt>
<rscale>  0 0.21472026E+03</rscale>
<asrwt>0</asrwt>
<pdfrwt beam="1">  1        1 0.27665911E-01 0.21472026E+03</pdfrwt>
<pdfrwt beam="2">  1       -1 0.10768221E+00 0.21472026E+03</pdfrwt>
<totfact> 0.14517469E+02</totfact>
</mgrwt>
</event>
<event>
 4    1  0.1852677E-008  0.7226281E+03  0.7818608E-02  0.9679299E-01
          1   -1    0    0  501    0  0.00000000000E+00  0.00000000000E+00  0.12352519799E+04  0.12352519799E+04  0.50400000000E-02 0. -1.
         -1   -1    0    0    0  501 -0.00000000000E+00 -0.00000000000E+00 -0.85931541424E+03  0.85931541425E+03  0.50400000000E-02 0.  1.
    8880022    1    1    2    0    0 -0.64461060069E+03 -0.28857734059E+03 -0.55851021276E+03  0.91330445022E+03  0.15294330000E+03 0.  0.
    8880022    1    1    2    0    0  0.64461060069E+03  0.28857734059E+03  0.93444677844E+03  0.11812629440E+04  0.15294330000E+03 0.  0.
<mgrwt>
<rscale>  0 0.72262809E+03</rscale>
<asrwt>0</asrwt>
<pdfrwt beam="1">  1        1 0.19003877E+00 0.72262809E+03</pdfrwt>
<pdfrwt beam="2">  1       -1 0.13220237E+00 0.72262809E+03</pdfrwt>
<totfact> 0.51058622E+00</totfact>
</mgrwt>
</event>
<event>
 4    1  0.1852677E-008  0.1241107E+04  0.7818608E-02  0.9077617E-01
          1   -1    0    0  501    0  0.00000000000E+00  0.00000000000E+00  0.20460413848E+04  0.20460413848E+04  0.50400000000E-02 0. -1.
         -1   -1    0    0    0  501 -0.00000000000E+00 -0.00000000000E+00 -0.11636144146E+04  0.11636144146E+04  0.50400000000E-02 0.  1.
    8880022    1    1    2    0    0 -0.11297193209E+04  0.49060113370E+03  0.13947213982E+04  0.18669747315E+04  0.15294330000E+03 0.  0.
    8880022    1    1    2    0    0  0.11297193209E+04 -0.49060113370E+03 -0.51229442796E+03  0.13426810680E+04  0.15294330000E+03 0.  0.
<mgrwt>
<rscale>  0 0.12411071E+04</rscale>
<asrwt>0</asrwt>
<pdfrwt beam="1">  1        1 0.31477560E+00 0.12411071E+04</pdfrwt>
<pdfrwt beam="2">  1       -1 0.17901760E+00 0.12411071E+04</pdfrwt>
<totfact> 0.57290026E-01</totfact>
</mgrwt>
</event>
<event>
 4    1  0.1852677E-008  0.5794138E+03  0.7818608E-02  0.9949061E-01
         -1   -1    0    0    0  501 -0.00000000000E+00  0.00000000000E+00  0.50527053949E+03  0.50527053952E+03  0.50400000000E-02 0.  1.
          1   -1    0    0  501    0  0.00000000000E+00 -0.00000000000E+00 -0.13070205063E+04  0.13070205063E+04  0.50400000000E-02 0. -1.
    8880022    1    1    2    0    0 -0.51541626680E+03 -0.21604357736E+03 -0.10362374524E+04  0.11872272176E+04  0.15294330000E+03 0.  0.
    8880022    1    1    2    0    0  0.51541626680E+03  0.21604357736E+03  0.23448748563E+03  0.62506382821E+03  0.15294330000E+03 0.  0.
<mgrwt>
<rscale>  0 0.57941385E+03</rscale>
<asrwt>0</asrwt>
<pdfrwt beam="1">  1        1 0.20108008E+00 0.57941385E+03</pdfrwt>
<pdfrwt beam="2">  1       -1 0.77733930E-01 0.57941385E+03</pdfrwt>
<totfact> 0.15733313E+01</totfact>
</mgrwt>
</event>
<event>
 4    1  0.1852677E-008  0.3379961E+03  0.7818608E-02  0.1067653E+00
         -1   -1    0    0    0  501 -0.00000000000E+00  0.00000000000E+00  0.74688555722E+03  0.74688555723E+03  0.50400000000E-02 0.  1.
          1   -1    0    0  501    0  0.00000000000E+00 -0.00000000000E+00 -0.11275746222E+04  0.11275746222E+04  0.50400000000E-02 0. -1.
    8880022    1    1    2    0    0 -0.83116321618E+02  0.28972640588E+03 -0.10616906670E+04  0.11141940758E+04  0.15294330000E+03 0.  0.
    8880022    1    1    2    0    0  0.83116321618E+02 -0.28972640588E+03  0.68100160208E+03  0.76026610356E+03  0.15294330000E+03 0.  1.
<mgrwt>
<rscale>  0 0.33799610E+03</rscale>
<asrwt>0</asrwt>
<pdfrwt beam="1">  1        1 0.17347302E+00 0.33799610E+03</pdfrwt>
<pdfrwt beam="2">  1       -1 0.11490547E+00 0.33799610E+03</pdfrwt>
<totfact> 0.93974029E+00</totfact>
</mgrwt>
</event>
<event>
 4    1  0.1852677E-008  0.7408195E+03  0.7818608E-02  0.9649864E-01
         -1   -1    0    0    0  501 -0.00000000000E+00  0.00000000000E+00  0.80782963627E+03  0.80782963629E+03  0.50400000000E-02 0.  1.
          1   -1    0    0  501    0  0.00000000000E+00 -0.00000000000E+00 -0.21543579588E+04  0.21543579588E+04  0.50400000000E-02 0. -1.
    8880022    1    1    2    0    0  0.65590566810E+03  0.30856054262E+03  0.55224956574E+03  0.92400924767E+03  0.15294330000E+03 0.  0.
    8880022    1    1    2    0    0 -0.65590566810E+03 -0.30856054262E+03 -0.18987778883E+04  0.20381783474E+04  0.15294330000E+03 0.  0.
<mgrwt>
<rscale>  0 0.74081948E+03</rscale>
<asrwt>0</asrwt>
<pdfrwt beam="1">  1        1 0.33143968E+00 0.74081948E+03</pdfrwt>
<pdfrwt beam="2">  1       -1 0.12428148E+00 0.74081948E+03</pdfrwt>
<totfact> 0.14099613E+00</totfact>
</mgrwt>
</event>
<event>
 4    1  0.1852677E-008  0.1220096E+04  0.7818608E-02  0.9095446E-01
         -1   -1    0    0    0  501 -0.00000000000E+00  0.00000000000E+00  0.16681829313E+04  0.16681829313E+04  0.50400000000E-02 0.  1.
          1   -1    0    0  501    0  0.00000000000E+00 -0.00000000000E+00 -0.15189681282E+04  0.15189681282E+04  0.50400000000E-02 0. -1.
    8880022    1    1    2    0    0  0.57957243409E+02 -0.12090835335E+04  0.10981205651E+04  0.16414939724E+04  0.15294330000E+03 0.  0.
    8880022    1    1    2    0    0 -0.57957243409E+02  0.12090835335E+04 -0.94890576199E+03  0.15456570872E+04  0.15294330000E+03 0.  0.
<mgrwt>
<rscale>  0 0.12200958E+04</rscale>
<asrwt>0</asrwt>
<pdfrwt beam="1">  1        1 0.23368741E+00 0.12200958E+04</pdfrwt>
<pdfrwt beam="2">  1       -1 0.25664353E+00 0.12200958E+04</pdfrwt>
<totfact> 0.39188231E-01</totfact>
</mgrwt>
</event>
<event>
 4    1  0.1852677E-008  0.6745640E+03  0.7818608E-02  0.9761748E-01
          1   -1    0    0  501    0  0.00000000000E+00  0.00000000000E+00  0.10283091074E+04  0.10283091074E+04  0.50400000000E-02 0. -1.
         -1   -1    0    0    0  501 -0.00000000000E+00 -0.00000000000E+00 -0.62864540875E+03  0.62864540877E+03  0.50400000000E-02 0.  1.
    8880022    1    1    2    0    0  0.53697256476E+03 -0.37855700560E+03  0.65064102536E+03  0.93721413705E+03  0.15294330000E+03 0.  0.
    8880022    1    1    2    0    0 -0.53697256476E+03  0.37855700560E+03 -0.25097732672E+03  0.71974037912E+03  0.15294330000E+03 0.  0.
<mgrwt>
<rscale>  0 0.67456400E+03</rscale>
<asrwt>0</asrwt>
<pdfrwt beam="1">  1        1 0.15820140E+00 0.67456400E+03</pdfrwt>
<pdfrwt beam="2">  1       -1 0.96714680E-01 0.67456400E+03</pdfrwt>
<totfact> 0.15402436E+01</totfact>
</mgrwt>
</event>
<event>
 4    1  0.1852677E-008  0.1455428E+04  0.7818608E-02  0.8914646E-01
         -1   -1    0    0    0  501 -0.00000000000E+00  0.00000000000E+00  0.15137688943E+04  0.15137688943E+04  0.50400000000E-02 0.  1.
          1   -1    0    0  501    0  0.00000000000E+00 -0.00000000000E+00 -0.15009321340E+04  0.15009321340E+04  0.50400000000E-02 0. -1.
    8880022    1    1    2    0    0 -0.12174705102E+04 -0.78271570155E+03  0.39858824084E+03  0.15090203947E+04  0.15294330000E+03 0.  0.
    8880022    1    1    2    0    0  0.12174705102E+04  0.78271570155E+03 -0.38575148056E+03  0.15056806336E+04  0.15294330000E+03 0.  0.
<mgrwt>
<rscale>  0 0.14554278E+04</rscale>
<asrwt>0</asrwt>
<pdfrwt beam="1">  1        1 0.23091263E+00 0.14554278E+04</pdfrwt>
<pdfrwt beam="2">  1       -1 0.23288752E+00 0.14554278E+04</pdfrwt>
<totfact> 0.56093873E-01</totfact>
</mgrwt>
</event>
<event>
 4    1  0.1852677E-008  0.3155351E+03  0.7818608E-02  0.1077723E+00
          1   -1    0    0  501    0  0.00000000000E+00  0.00000000000E+00  0.18707316763E+04  0.18707316763E+04  0.50400000000E-02 0. -1.
         -1   -1    0    0    0  501 -0.00000000000E+00 -0.00000000000E+00 -0.36951301639E+03  0.36951301642E+03  0.50400000000E-02 0.  1.
    8880022    1    1    2    0    0  0.24687215543E+03 -0.12338910847E+03 -0.28571248727E+03  0.42566889905E+03  0.15294330000E+03 0.  0.
    8880022    1    1    2    0    0 -0.24687215543E+03  0.12338910847E+03  0.17869311472E+04  0.18145757937E+04  0.15294330000E+03 0.  0.
<mgrwt>
<rscale>  0 0.31553508E+03</rscale>
<asrwt>0</asrwt>
<pdfrwt beam="1">  1        1 0.28780488E+00 0.31553508E+03</pdfrwt>
<pdfrwt beam="2">  1       -1 0.56848155E-01 0.31553508E+03</pdfrwt>
<totfact> 0.13176178E+01</totfact>
</mgrwt>
</event>
<event>
 4    1  0.1852677E-008  0.1904590E+03  0.7818608E-02  0.1158048E+00
         -1   -1    0    0    0  501 -0.00000000000E+00  0.00000000000E+00  0.10209097603E+04  0.10209097603E+04  0.50400000000E-02 0.  1.
          1   -1    0    0  501    0  0.00000000000E+00 -0.00000000000E+00 -0.16643733734E+03  0.16643733742E+03  0.50400000000E-02 0. -1.
    8880022    1    1    2    0    0  0.80741100674E+02  0.79773842661E+02  0.95374002213E+03  0.97257116661E+03  0.15294330000E+03 0.  0.
    8880022    1    1    2    0    0 -0.80741100674E+02 -0.79773842661E+02 -0.99267599192E+02  0.21477593109E+03  0.15294330000E+03 0. -1.
<mgrwt>
<rscale>  0 0.19045904E+03</rscale>
<asrwt>0</asrwt>
<pdfrwt beam="1">  1        1 0.25605744E-01 0.19045904E+03</pdfrwt>
<pdfrwt beam="2">  1       -1 0.15706304E+00 0.19045904E+03</pdfrwt>
<totfact> 0.63596905E+01</totfact>
</mgrwt>
</event>
<event>
 4    1  0.1852677E-008  0.4471091E+03  0.7818608E-02  0.1028588E+00
         -1   -1    0    0    0  501 -0.00000000000E+00  0.00000000000E+00  0.46631988544E+03  0.46631988546E+03  0.50400000000E-02 0.  1.
          1   -1    0    0  501    0  0.00000000000E+00 -0.00000000000E+00 -0.11058944598E+04  0.11058944598E+04  0.50400000000E-02 0. -1.
    8880022    1    1    2    0    0 -0.42013577798E+03  0.90452317534E+00 -0.93494278656E+03  0.10363515607E+04  0.15294330000E+03 0.  0.
    8880022    1    1    2    0    0  0.42013577798E+03 -0.90452317534E+00  0.29536821223E+03  0.53586278459E+03  0.15294330000E+03 0.  0.
<mgrwt>
<rscale>  0 0.44710910E+03</rscale>
<asrwt>0</asrwt>
<pdfrwt beam="1">  1        1 0.17013761E+00 0.44710910E+03</pdfrwt>
<pdfrwt beam="2">  1       -1 0.71741521E-01 0.44710910E+03</pdfrwt>
<totfact> 0.26517367E+01</totfact>
</mgrwt>
</event>
<event>
 4    1  0.1852677E-008  0.3405671E+03  0.7818608E-02  0.1066555E+00
          1   -1    0    0  501    0  0.00000000000E+00  0.00000000000E+00  0.28328458020E+03  0.28328458025E+03  0.50400000000E-02 0. -1.
         -1   -1    0    0    0  501 -0.00000000000E+00 -0.00000000000E+00 -0.63602379355E+03  0.63602379357E+03  0.50400000000E-02 0.  1.
    8880022    1    1    2    0    0  0.34447593437E+02  0.30233701810E+03 -0.45072656846E+03  0.56492512932E+03  0.15294330000E+03 0.  0.
    8880022    1    1    2    0    0 -0.34447593437E+02 -0.30233701810E+03  0.97987355107E+02  0.35438324450E+03  0.15294330000E+03 0.  0.
<mgrwt>
<rscale>  0 0.34056712E+03</rscale>
<asrwt>0</asrwt>
<pdfrwt beam="1">  1        1 0.43582243E-01 0.34056712E+03</pdfrwt>
<pdfrwt beam="2">  1       -1 0.97849814E-01 0.34056712E+03</pdfrwt>
<totfact> 0.99686214E+01</totfact>
</mgrwt>
</event>
<event>
 4    1  0.1852677E-008  0.3383499E+03  0.7818608E-02  0.1067501E+00
         -1   -1    0    0    0  501 -0.00000000000E+00  0.00000000000E+00  0.28584172667E+03  0.28584172671E+03  0.50400000000E-02 0.  1.
          1   -1    0    0  501    0  0.00000000000E+00 -0.00000000000E+00 -0.27806872278E+04  0.27806872278E+04  0.50400000000E-02 0. -1.
    8880022    1    1    2    0    0 -0.13134056005E+03  0.27173269396E+03  0.17113241941E+03  0.37916613466E+03  0.15294330000E+03 0.  0.
    8880022    1    1    2    0    0  0.13134056005E+03 -0.27173269396E+03 -0.26659779206E+04  0.26873628199E+04  0.15294330000E+03 0.  0.
<mgrwt>
<rscale>  0 0.33834990E+03</rscale>
<asrwt>0</asrwt>
<pdfrwt beam="1">  1        1 0.42779802E+00 0.33834990E+03</pdfrwt>
<pdfrwt beam="2">  1       -1 0.43975652E-01 0.33834990E+03</pdfrwt>
<totfact> 0.52419974E+00</totfact>
</mgrwt>
</event>
<event>
 4    1  0.1852677E-008  0.2100237E+03  0.7818608E-02  0.1141547E+00
          1   -1    0    0  501    0  0.00000000000E+00  0.00000000000E+00  0.93924182427E+03  0.93924182428E+03  0.50400000000E-02 0. -1.
         -1   -1    0    0    0  501 -0.00000000000E+00 -0.00000000000E+00 -0.65325675838E+03  0.65325675840E+03  0.50400000000E-02 0.  1.
    8880022    1    1    2    0    0 -0.14392560211E+03 -0.19337441607E+01 -0.62410134267E+03  0.65849256430E+03  0.15294330000E+03 0.  0.
    8880022    1    1    2    0    0  0.14392560211E+03  0.19337441607E+01  0.91008640856E+03  0.93400601838E+03  0.15294330000E+03 0. -1.
<mgrwt>
<rscale>  0 0.21002374E+03</rscale>
<asrwt>0</asrwt>
<pdfrwt beam="1">  1        1 0.14449874E+00 0.21002374E+03</pdfrwt>
<pdfrwt beam="2">  1       -1 0.10050104E+00 0.21002374E+03</pdfrwt>
<totfact> 0.18525244E+01</totfact>
</mgrwt>
</event>
<event>
 4    1  0.1852677E-008  0.1015518E+04  0.7818608E-02  0.9291687E-01
         -1   -1    0    0    0  501 -0.00000000000E+00  0.00000000000E+00  0.12538472207E+04  0.12538472207E+04  0.50400000000E-02 0.  1.
          1   -1    0    0  501    0  0.00000000000E+00 -0.00000000000E+00 -0.87661885317E+03  0.87661885318E+03  0.50400000000E-02 0. -1.
    8880022    1    1    2    0    0  0.31689487990E+03  0.95260805760E+03 -0.76086939525E+02  0.10183640566E+04  0.15294330000E+03 0.  0.
    8880022    1    1    2    0    0 -0.31689487990E+03 -0.95260805760E+03  0.45331530706E+03  0.11121020173E+04  0.15294330000E+03 0.  0.
<mgrwt>
<rscale>  0 0.10155177E+04</rscale>
<asrwt>0</asrwt>
<pdfrwt beam="1">  1        1 0.13486444E+00 0.10155177E+04</pdfrwt>
<pdfrwt beam="2">  1       -1 0.19289957E+00 0.10155177E+04</pdfrwt>
<totfact> 0.32137368E+00</totfact>
</mgrwt>
</event>
<event>
 4    1  0.1852677E-008  0.1026859E+04  0.7818608E-02  0.9279568E-01
          1   -1    0    0  501    0  0.00000000000E+00  0.00000000000E+00  0.31458088126E+04  0.31458088126E+04  0.50400000000E-02 0. -1.
         -1   -1    0    0    0  501 -0.00000000000E+00 -0.00000000000E+00 -0.38600734426E+03  0.38600734430E+03  0.50400000000E-02 0.  1.
    8880022    1    1    2    0    0  0.95749711728E+03 -0.33800351311E+03  0.20206423700E+04  0.22665909081E+04  0.15294330000E+03 0.  0.
    8880022    1    1    2    0    0 -0.95749711728E+03  0.33800351311E+03  0.73915909842E+03  0.12652252488E+04  0.15294330000E+03 0.  0.
<mgrwt>
<rscale>  0 0.10268587E+04</rscale>
<asrwt>0</asrwt>
<pdfrwt beam="1">  1        1 0.48397061E+00 0.10268587E+04</pdfrwt>
<pdfrwt beam="2">  1       -1 0.59385743E-01 0.10268587E+04</pdfrwt>
<totfact> 0.13774580E+00</totfact>
</mgrwt>
</event>
<event>
 4    1  0.1852677E-008  0.8092263E+03  0.7818608E-02  0.9546758E-01
         -1   -1    0    0    0  501 -0.00000000000E+00  0.00000000000E+00  0.55941673166E+03  0.55941673169E+03  0.50400000000E-02 0.  1.
          1   -1    0    0  501    0  0.00000000000E+00 -0.00000000000E+00 -0.20892480783E+04  0.20892480783E+04  0.50400000000E-02 0. -1.
    8880022    1    1    2    0    0  0.25311419608E+03 -0.75325215811E+03  0.11325535519E+03  0.81711323478E+03  0.15294330000E+03 0.  0.
    8880022    1    1    2    0    0 -0.25311419608E+03  0.75325215811E+03 -0.16430867019E+04  0.18315515753E+04  0.15294330000E+03 0.  0.
<mgrwt>
<rscale>  0 0.80922634E+03</rscale>
<asrwt>0</asrwt>
<pdfrwt beam="1">  1        1 0.32142278E+00 0.80922634E+03</pdfrwt>
<pdfrwt beam="2">  1       -1 0.86064114E-01 0.80922634E+03</pdfrwt>
<totfact> 0.35991428E+00</totfact>
</mgrwt>
</event>
<event>
 4    1  0.1852677E-008  0.9590065E+03  0.7818608E-02  0.9354685E-01
         -1   -1    0    0    0  501 -0.00000000000E+00  0.00000000000E+00  0.76823516489E+03  0.76823516491E+03  0.50400000000E-02 0.  1.
          1   -1    0    0  501    0  0.00000000000E+00 -0.00000000000E+00 -0.14720561137E+04  0.14720561137E+04  0.50400000000E-02 0. -1.
    8880022    1    1    2    0    0 -0.81159039684E+03 -0.48746578238E+03  0.13215454551E+03  0.96806938705E+03  0.15294330000E+03 0.  0.
    8880022    1    1    2    0    0  0.81159039684E+03  0.48746578238E+03 -0.83597549427E+03  0.12722218915E+04  0.15294330000E+03 0.  0.
<mgrwt>
<rscale>  0 0.95900652E+03</rscale>
<asrwt>0</asrwt>
<pdfrwt beam="1">  1        1 0.22647017E+00 0.95900652E+03</pdfrwt>
<pdfrwt beam="2">  1       -1 0.11819003E+00 0.95900652E+03</pdfrwt>
<totfact> 0.44414026E+00</totfact>
</mgrwt>
</event>
<event>
 4    1  0.1852677E-008  0.7709245E+03  0.7818608E-02  0.9603083E-01
          1   -1    0    0  501    0  0.00000000000E+00  0.00000000000E+00  0.33920283359E+03  0.33920283362E+03  0.50400000000E-02 0. -1.
         -1   -1    0    0    0  501 -0.00000000000E+00 -0.00000000000E+00 -0.20521271380E+04  0.20521271380E+04  0.50400000000E-02 0.  1.
    8880022    1    1    2    0    0  0.72420916039E+03  0.21553182252E+03 -0.13136263320E+04  0.15231344877E+04  0.15294330000E+03 0.  0.
    8880022    1    1    2    0    0 -0.72420916039E+03 -0.21553182252E+03 -0.39929797242E+03  0.86819548393E+03  0.15294330000E+03 0.  0.
<mgrwt>
<rscale>  0 0.77092446E+03</rscale>
<asrwt>0</asrwt>
<pdfrwt beam="1">  1        1 0.52185053E-01 0.77092446E+03</pdfrwt>
<pdfrwt beam="2">  1       -1 0.31571186E+00 0.77092446E+03</pdfrwt>
<totfact> 0.20449525E+00</totfact>
</mgrwt>
</event>
<event>
 4    1  0.1852677E-008  0.4248744E+03  0.7818608E-02  0.1035491E+00
          1   -1    0    0  501    0  0.00000000000E+00  0.00000000000E+00  0.46649942009E+03  0.46649942012E+03  0.50400000000E-02 0. -1.
         -1   -1    0    0    0  501 -0.00000000000E+00 -0.00000000000E+00 -0.45604269939E+03  0.45604269941E+03  0.50400000000E-02 0.  1.
    8880022    1    1    2    0    0  0.41690181114E+02 -0.39419357163E+03  0.18475412279E+03  0.46330592703E+03  0.15294330000E+03 0.  0.
    8880022    1    1    2    0    0 -0.41690181114E+02  0.39419357163E+03 -0.17429740208E+03  0.45923619250E+03  0.15294330000E+03 0.  0.
<mgrwt>
<rscale>  0 0.42487445E+03</rscale>
<asrwt>0</asrwt>
<pdfrwt beam="1">  1        1 0.71769141E-01 0.42487445E+03</pdfrwt>
<pdfrwt beam="2">  1       -1 0.70160416E-01 0.42487445E+03</pdfrwt>
<totfact> 0.10472244E+02</totfact>
</mgrwt>
</event>
<event>
 4    1  0.1852677E-008  0.2211776E+03  0.7818608E-02  0.1133008E+00
         -1   -1    0    0    0  501 -0.00000000000E+00  0.00000000000E+00  0.17774875581E+03  0.17774875589E+03  0.50400000000E-02 0.  1.
          1   -1    0    0  501    0  0.00000000000E+00 -0.00000000000E+00 -0.99544165175E+03  0.99544165177E+03  0.50400000000E-02 0. -1.
    8880022    1    1    2    0    0 -0.17472950310E+02  0.15881609536E+03 -0.90780508411E+03  0.93436051922E+03  0.15294330000E+03 0. -1.
    8880022    1    1    2    0    0  0.17472950310E+02 -0.15881609536E+03  0.90112188166E+02  0.23882988843E+03  0.15294330000E+03 0.  0.
<mgrwt>
<rscale>  0 0.22117755E+03</rscale>
<asrwt>0</asrwt>
<pdfrwt beam="1">  1        1 0.15314487E+00 0.22117755E+03</pdfrwt>
<pdfrwt beam="2">  1       -1 0.27345963E-01 0.22117755E+03</pdfrwt>
<totfact> 0.19660098E+02</totfact>
</mgrwt>
</event>
<event>
 4    1  0.1852677E-008  0.5749890E+03  0.7818608E-02  0.9958699E-01
         -1   -1    0    0    0  501 -0.00000000000E+00  0.00000000000E+00  0.39430808991E+03  0.39430808994E+03  0.50400000000E-02 0.  1.
          1   -1    0    0  501    0  0.00000000000E+00 -0.00000000000E+00 -0.98145388560E+03  0.98145388562E+03  0.50400000000E-02 0. -1.
    8880022    1    1    2    0    0  0.21670956437E+03  0.51015449626E+03 -0.31009459359E+02  0.57582452616E+03  0.15294330000E+03 0.  0.
    8880022    1    1    2    0    0 -0.21670956437E+03 -0.51015449626E+03 -0.55613633633E+03  0.79993744940E+03  0.15294330000E+03 0.  0.
<mgrwt>
<rscale>  0 0.57498895E+03</rscale>
<asrwt>0</asrwt>
<pdfrwt beam="1">  1        1 0.15099290E+00 0.57498895E+03</pdfrwt>
<pdfrwt beam="2">  1       -1 0.60662783E-01 0.57498895E+03</pdfrwt>
<totfact> 0.45083484E+01</totfact>
</mgrwt>
</event>
<event>
 4    1  0.1852677E-008  0.5757781E+03  0.7818608E-02  0.9956973E-01
         -1   -1    0    0    0  501 -0.00000000000E+00  0.00000000000E+00  0.38604613316E+03  0.38604613320E+03  0.50400000000E-02 0.  1.
          1   -1    0    0  501    0  0.00000000000E+00 -0.00000000000E+00 -0.12730804977E+04  0.12730804977E+04  0.50400000000E-02 0. -1.
    8880022    1    1    2    0    0  0.32815291730E+03  0.44771023136E+03  0.29732731448E+02  0.57654529460E+03  0.15294330000E+03 0. -1.
    8880022    1    1    2    0    0 -0.32815291730E+03 -0.44771023136E+03 -0.91676709594E+03  0.10825813363E+04  0.15294330000E+03 0.  0.
<mgrwt>
<rscale>  0 0.57577812E+03</rscale>
<asrwt>0</asrwt>
<pdfrwt beam="1">  1        1 0.19585854E+00 0.57577812E+03</pdfrwt>
<pdfrwt beam="2">  1       -1 0.59391714E-01 0.57577812E+03</pdfrwt>
<totfact> 0.28664907E+01</totfact>
</mgrwt>
</event>
<event>
 4    1  0.1852677E-008  0.3751741E+03  0.7818608E-02  0.1052732E+00
          1   -1    0    0  501    0  0.00000000000E+00  0.00000000000E+00  0.11067863846E+04  0.11067863846E+04  0.50400000000E-02 0. -1.
         -1   -1    0    0    0  501 -0.00000000000E+00 -0.00000000000E+00 -0.14608325453E+04  0.14608325453E+04  0.50400000000E-02 0.  1.
    8880022    1    1    2    0    0 -0.22182778054E+03  0.26106772699E+03 -0.14036783138E+04  0.14529516110E+04  0.15294330000E+03 0.  1.
    8880022    1    1    2    0    0  0.22182778054E+03 -0.26106772699E+03  0.10496321530E+04  0.11146673190E+04  0.15294330000E+03 0.  0.
<mgrwt>
<rscale>  0 0.37517406E+03</rscale>
<asrwt>0</asrwt>
<pdfrwt beam="1">  1        1 0.17027483E+00 0.37517406E+03</pdfrwt>
<pdfrwt beam="2">  1       -1 0.22474347E+00 0.37517406E+03</pdfrwt>
<totfact> 0.14894669E+00</totfact>
</mgrwt>
</event>
<event>
 4    1  0.1852677E-008  0.8699750E+03  0.7818608E-02  0.9463913E-01
         -1   -1    0    0    0  501 -0.00000000000E+00  0.00000000000E+00  0.11220970362E+04  0.11220970362E+04  0.50400000000E-02 0.  1.
          1   -1    0    0  501    0  0.00000000000E+00 -0.00000000000E+00 -0.11903828312E+04  0.11903828312E+04  0.50400000000E-02 0. -1.
    8880022    1    1    2    0    0  0.84010062808E+03  0.16642048268E+03 -0.79530894499E+03  0.11787165959E+04  0.15294330000E+03 0.  0.
    8880022    1    1    2    0    0 -0.84010062808E+03 -0.16642048268E+03  0.72702314999E+03  0.11337632716E+04  0.15294330000E+03 0.  0.
<mgrwt>
<rscale>  0 0.86997500E+03</rscale>
<asrwt>0</asrwt>
<pdfrwt beam="1">  1        1 0.18313582E+00 0.86997500E+03</pdfrwt>
<pdfrwt beam="2">  1       -1 0.17263031E+00 0.86997500E+03</pdfrwt>
<totfact> 0.26130118E+00</totfact>
</mgrwt>
</event>
<event>
 4    1  0.1852677E-008  0.3740079E+03  0.7818608E-02  0.1053171E+00
         -1   -1    0    0    0  501 -0.00000000000E+00  0.00000000000E+00  0.26343821587E+03  0.26343821591E+03  0.50400000000E-02 0.  1.
          1   -1    0    0  501    0  0.00000000000E+00 -0.00000000000E+00 -0.83185517110E+03  0.83185517111E+03  0.50400000000E-02 0. -1.
    8880022    1    1    2    0    0 -0.37254117591E+02  0.33926742265E+03 -0.61356458658E+03  0.71857039201E+03  0.15294330000E+03 0.  0.
    8880022    1    1    2    0    0  0.37254117591E+02 -0.33926742265E+03  0.45147631347E+02  0.37672299502E+03  0.15294330000E+03 0.  0.
<mgrwt>
<rscale>  0 0.37400790E+03</rscale>
<asrwt>0</asrwt>
<pdfrwt beam="1">  1        1 0.12797772E+00 0.37400790E+03</pdfrwt>
<pdfrwt beam="2">  1       -1 0.40528957E-01 0.37400790E+03</pdfrwt>
<totfact> 0.13012993E+02</totfact>
</mgrwt>
</event>
<event>
 4    1  0.1852677E-008  0.6651023E+03  0.7818608E-02  0.9778846E-01
          1   -1    0    0  501    0  0.00000000000E+00  0.00000000000E+00  0.97663067285E+03  0.97663067286E+03  0.50400000000E-02 0. -1.
         -1   -1    0    0    0  501 -0.00000000000E+00 -0.00000000000E+00 -0.12065066048E+04  0.12065066048E+04  0.50400000000E-02 0.  1.
    8880022    1    1    2    0    0 -0.63652668727E+03 -0.11748697205E+03 -0.97760908527E+03  0.11824045792E+04  0.15294330000E+03 0.  0.
    8880022    1    1    2    0    0  0.63652668727E+03  0.11748697205E+03  0.74773315334E+03  0.10007326985E+04  0.15294330000E+03 0.  0.
<mgrwt>
<rscale>  0 0.66510230E+03</rscale>
<asrwt>0</asrwt>
<pdfrwt beam="1">  1        1 0.15025087E+00 0.66510230E+03</pdfrwt>
<pdfrwt beam="2">  1       -1 0.18561640E+00 0.66510230E+03</pdfrwt>
<totfact> 0.31628866E+00</totfact>
</mgrwt>
</event>
<event>
 4    1  0.1852677E-008  0.3828923E+03  0.7818608E-02  0.1049870E+00
         -1   -1    0    0    0  501 -0.00000000000E+00  0.00000000000E+00  0.37507827507E+03  0.37507827510E+03  0.50400000000E-02 0.  1.
          1   -1    0    0  501    0  0.00000000000E+00 -0.00000000000E+00 -0.24544326010E+04  0.24544326010E+04  0.50400000000E-02 0. -1.
    8880022    1    1    2    0    0 -0.37862156395E+02  0.34897181676E+03  0.25754610725E+03  0.46145045471E+03  0.15294330000E+03 0.  0.
    8880022    1    1    2    0    0  0.37862156395E+02 -0.34897181676E+03 -0.23369004332E+04  0.23680604214E+04  0.15294330000E+03 0.  0.
<mgrwt>
<rscale>  0 0.38289231E+03</rscale>
<asrwt>0</asrwt>
<pdfrwt beam="1">  1        1 0.37760501E+00 0.38289231E+03</pdfrwt>
<pdfrwt beam="2">  1       -1 0.57704351E-01 0.38289231E+03</pdfrwt>
<totfact> 0.51521188E+00</totfact>
</mgrwt>
</event>
<event>
 4    1  0.1852677E-008  0.2499792E+03  0.7818608E-02  0.1113318E+00
          1   -1    0    0  501    0  0.00000000000E+00  0.00000000000E+00  0.10141047877E+03  0.10141047889E+03  0.50400000000E-02 0. -1.
         -1   -1    0    0    0  501 -0.00000000000E+00 -0.00000000000E+00 -0.13653409688E+04  0.13653409688E+04  0.50400000000E-02 0.  1.
    8880022    1    1    2    0    0  0.19896002078E+02  0.19672853430E+03 -0.11751985176E+04  0.12014912301E+04  0.15294330000E+03 0.  0.
    8880022    1    1    2    0    0 -0.19896002078E+02 -0.19672853430E+03 -0.88731972389E+02  0.26526021760E+03  0.15294330000E+03 0.  0.
<mgrwt>
<rscale>  0 0.24997924E+03</rscale>
<asrwt>0</asrwt>
<pdfrwt beam="1">  1        1 0.15601613E-01 0.24997924E+03</pdfrwt>
<pdfrwt beam="2">  1       -1 0.21005244E+00 0.24997924E+03</pdfrwt>
<totfact> 0.51088354E+01</totfact>
</mgrwt>
</event>
<event>
 4    1  0.1852677E-008  0.4231134E+03  0.7818608E-02  0.1036058E+00
         -1   -1    0    0    0  501 -0.00000000000E+00  0.00000000000E+00  0.15456489547E+04  0.15456489547E+04  0.50400000000E-02 0.  1.
          1   -1    0    0  501    0  0.00000000000E+00 -0.00000000000E+00 -0.44616066458E+03  0.44616066461E+03  0.50400000000E-02 0. -1.
    8880022    1    1    2    0    0 -0.10432428878E+02  0.39436587422E+03  0.14066830553E+04  0.14689391238E+04  0.15294330000E+03 0.  0.
    8880022    1    1    2    0    0  0.10432428878E+02 -0.39436587422E+03 -0.30719476518E+03  0.52287049552E+03  0.15294330000E+03 0. -1.
<mgrwt>
<rscale>  0 0.42311338E+03</rscale>
<asrwt>0</asrwt>
<pdfrwt beam="1">  1        1 0.68640103E-01 0.42311338E+03</pdfrwt>
<pdfrwt beam="2">  1       -1 0.23779214E+00 0.42311338E+03</pdfrwt>
<totfact> 0.48072879E+00</totfact>
</mgrwt>
</event>
<event>
 4    1  0.1852677E-008  0.4653999E+03  0.7818608E-02  0.1023227E+00
         -1   -1    0    0    0  501 -0.00000000000E+00  0.00000000000E+00  0.19527034671E+03  0.19527034677E+03  0.50400000000E-02 0.  1.
          1   -1    0    0  501    0  0.00000000000E+00 -0.00000000000E+00 -0.15495809062E+04  0.15495809062E+04  0.50400000000E-02 0. -1.
    8880022    1    1    2    0    0 -0.36003621052E+03  0.25214942382E+03 -0.21207548435E+03  0.51144214619E+03  0.15294330000E+03 0.  0.
    8880022    1    1    2    0    0  0.36003621052E+03 -0.25214942382E+03 -0.11422350752E+04  0.12334091068E+04  0.15294330000E+03 0.  0.
<mgrwt>
<rscale>  0 0.46539989E+03</rscale>
<asrwt>0</asrwt>
<pdfrwt beam="1">  1        1 0.23839705E+00 0.46539989E+03</pdfrwt>
<pdfrwt beam="2">  1       -1 0.30041593E-01 0.46539989E+03</pdfrwt>
<totfact> 0.65565112E+01</totfact>
</mgrwt>
</event>
<event>
 4    1  0.1852677E-008  0.1120045E+04  0.7818608E-02  0.9185872E-01
         -1   -1    0    0    0  501 -0.00000000000E+00  0.00000000000E+00  0.11339255714E+04  0.11339255714E+04  0.50400000000E-02 0.  1.
          1   -1    0    0  501    0  0.00000000000E+00 -0.00000000000E+00 -0.12789376480E+04  0.12789376480E+04  0.50400000000E-02 0. -1.
    8880022    1    1    2    0    0 -0.76400447956E+03  0.80461533055E+03  0.37069737998E+03  0.11797952685E+04  0.15294330000E+03 0.  0.
    8880022    1    1    2    0    0  0.76400447956E+03 -0.80461533055E+03 -0.51570945660E+03  0.12330679509E+04  0.15294330000E+03 0.  0.
<mgrwt>
<rscale>  0 0.11200448E+04</rscale>
<asrwt>0</asrwt>
<pdfrwt beam="1">  1        1 0.19675964E+00 0.11200448E+04</pdfrwt>
<pdfrwt beam="2">  1       -1 0.17445009E+00 0.11200448E+04</pdfrwt>
<totfact> 0.21152286E+00</totfact>
</mgrwt>
</event>
<event>
 4    1  0.1852677E-008  0.3030747E+03  0.7818608E-02  0.1083714E+00
          1   -1    0    0  501    0  0.00000000000E+00  0.00000000000E+00  0.10151282121E+04  0.10151282122E+04  0.50400000000E-02 0. -1.
         -1   -1    0    0    0  501 -0.00000000000E+00 -0.00000000000E+00 -0.10815509191E+04  0.10815509191E+04  0.50400000000E-02 0.  1.
    8880022    1    1    2    0    0  0.58835619202E+02 -0.25495289621E+03 -0.10367397801E+04  0.10801313041E+04  0.15294330000E+03 0.  0.
    8880022    1    1    2    0    0 -0.58835619202E+02  0.25495289621E+03  0.97031707318E+03  0.10165478272E+04  0.15294330000E+03 0.  0.
<mgrwt>
<rscale>  0 0.30307468E+03</rscale>
<asrwt>0</asrwt>
<pdfrwt beam="1">  1        1 0.15617357E+00 0.30307468E+03</pdfrwt>
<pdfrwt beam="2">  1       -1 0.16639245E+00 0.30307468E+03</pdfrwt>
<totfact> 0.44783226E+00</totfact>
</mgrwt>
</event>
<event>
 4    1  0.1852677E-008  0.3081564E+03  0.7818608E-02  0.1081233E+00
         -1   -1    0    0    0  501 -0.00000000000E+00  0.00000000000E+00  0.25498764840E+03  0.25498764845E+03  0.50400000000E-02 0.  1.
          1   -1    0    0  501    0  0.00000000000E+00 -0.00000000000E+00 -0.13172499080E+04  0.13172499081E+04  0.50400000000E-02 0. -1.
    8880022    1    1    2    0    0  0.47412443451E+02  0.26328842941E+03  0.13465202090E+03  0.33629088094E+03  0.15294330000E+03 0.  0.
    8880022    1    1    2    0    0 -0.47412443451E+02 -0.26328842941E+03 -0.11969142805E+04  0.12359466756E+04  0.15294330000E+03 0.  0.
<mgrwt>
<rscale>  0 0.30815644E+03</rscale>
<asrwt>0</asrwt>
<pdfrwt beam="1">  1        1 0.20265383E+00 0.30815644E+03</pdfrwt>
<pdfrwt beam="2">  1       -1 0.39228870E-01 0.30815644E+03</pdfrwt>
<totfact> 0.60952492E+01</totfact>
</mgrwt>
</event>
<event>
 4    1  0.1852677E-008  0.2757047E+03  0.7818608E-02  0.1098058E+00
         -1   -1    0    0    0  501 -0.00000000000E+00  0.00000000000E+00  0.38959753013E+03  0.38959753017E+03  0.50400000000E-02 0.  1.
          1   -1    0    0  501    0  0.00000000000E+00 -0.00000000000E+00 -0.61200683604E+03  0.61200683606E+03  0.50400000000E-02 0. -1.
    8880022    1    1    2    0    0 -0.22662741059E+02 -0.22827142238E+03  0.30213215979E+03  0.40901948255E+03  0.15294330000E+03 0.  0.
    8880022    1    1    2    0    0  0.22662741059E+02  0.22827142238E+03 -0.52454146570E+03  0.59258488368E+03  0.15294330000E+03 0.  0.
<mgrwt>
<rscale>  0 0.27570472E+03</rscale>
<asrwt>0</asrwt>
<pdfrwt beam="1">  1        1 0.94154898E-01 0.27570472E+03</pdfrwt>
<pdfrwt beam="2">  1       -1 0.59938082E-01 0.27570472E+03</pdfrwt>
<totfact> 0.10081726E+02</totfact>
</mgrwt>
</event>
<event>
 4    1  0.1852677E-008  0.2299999E+03  0.7818608E-02  0.1126640E+00
         -1   -1    0    0    0  501 -0.00000000000E+00  0.00000000000E+00  0.70434831174E+03  0.70434831175E+03  0.50400000000E-02 0.  1.
          1   -1    0    0  501    0  0.00000000000E+00 -0.00000000000E+00 -0.13266830263E+04  0.13266830263E+04  0.50400000000E-02 0. -1.
    8880022    1    1    2    0    0  0.15085204805E+03 -0.82170344552E+02  0.67518488700E+03  0.71328436866E+03  0.15294330000E+03 0.  1.
    8880022    1    1    2    0    0 -0.15085204805E+03  0.82170344552E+02 -0.12975196016E+04  0.13177469694E+04  0.15294330000E+03 0.  0.
<mgrwt>
<rscale>  0 0.22999991E+03</rscale>
<asrwt>0</asrwt>
<pdfrwt beam="1">  1        1 0.20410508E+00 0.22999991E+03</pdfrwt>
<pdfrwt beam="2">  1       -1 0.10836128E+00 0.22999991E+03</pdfrwt>
<totfact> 0.81847367E+00</totfact>
</mgrwt>
</event>
<event>
 4    1  0.1852677E-008  0.1627138E+03  0.7818608E-02  0.1185667E+00
         -1   -1    0    0    0  501 -0.00000000000E+00  0.00000000000E+00  0.69215894490E+02  0.69215894674E+02  0.50400000000E-02 0.  1.
          1   -1    0    0  501    0  0.00000000000E+00 -0.00000000000E+00 -0.22914257110E+04  0.22914257110E+04  0.50400000000E-02 0. -1.
    8880022    1    1    2    0    0  0.12161693894E+02  0.54186856763E+02 -0.33795280285E+02  0.16618632985E+03  0.15294330000E+03 0.  0.
    8880022    1    1    2    0    0 -0.12161693894E+02 -0.54186856763E+02 -0.21884145362E+04  0.21944552758E+04  0.15294330000E+03 0. -1.
<mgrwt>
<rscale>  0 0.16271378E+03</rscale>
<asrwt>0</asrwt>
<pdfrwt beam="1">  1        1 0.35252697E+00 0.16271378E+03</pdfrwt>
<pdfrwt beam="2">  1       -1 0.10648601E-01 0.16271378E+03</pdfrwt>
<totfact> 0.12538366E+02</totfact>
</mgrwt>
</event>
<event>
 4    1  0.1852677E-008  0.2653832E+03  0.7818608E-02  0.1103951E+00
          1   -1    0    0  501    0  0.00000000000E+00  0.00000000000E+00  0.27702593197E+03  0.27702593202E+03  0.50400000000E-02 0. -1.
         -1   -1    0    0    0  501 -0.00000000000E+00 -0.00000000000E+00 -0.35848655878E+03  0.35848655882E+03  0.50400000000E-02 0.  1.
    8880022    1    1    2    0    0  0.21104805378E+03  0.49953253576E+02 -0.21209039457E+03  0.33972135204E+03  0.15294330000E+03 0.  1.
    8880022    1    1    2    0    0 -0.21104805378E+03 -0.49953253576E+02  0.13062976776E+03  0.29579113879E+03  0.15294330000E+03 0.  0.
<mgrwt>
<rscale>  0 0.26538324E+03</rscale>
<asrwt>0</asrwt>
<pdfrwt beam="1">  1        1 0.42619374E-01 0.26538324E+03</pdfrwt>
<pdfrwt beam="2">  1       -1 0.55151778E-01 0.26538324E+03</pdfrwt>
<totfact> 0.33338479E+02</totfact>
</mgrwt>
</event>
<event>
 4    1  0.1852677E-008  0.3750075E+03  0.7818608E-02  0.1052795E+00
          1   -1    0    0  501    0  0.00000000000E+00  0.00000000000E+00  0.12040474649E+04  0.12040474649E+04  0.50400000000E-02 0. -1.
         -1   -1    0    0    0  501 -0.00000000000E+00 -0.00000000000E+00 -0.68931392099E+03  0.68931392101E+03  0.50400000000E-02 0.  1.
    8880022    1    1    2    0    0  0.29892385360E+03  0.16698350005E+03 -0.60539062678E+03  0.71212949914E+03  0.15294330000E+03 0.  0.
    8880022    1    1    2    0    0 -0.29892385360E+03 -0.16698350005E+03  0.11201241707E+04  0.11812318868E+04  0.15294330000E+03 0.  0.
<mgrwt>
<rscale>  0 0.37500748E+03</rscale>
<asrwt>0</asrwt>
<pdfrwt beam="1">  1        1 0.18523807E+00 0.37500748E+03</pdfrwt>
<pdfrwt beam="2">  1       -1 0.10604830E+00 0.37500748E+03</pdfrwt>
<totfact> 0.98692443E+00</totfact>
</mgrwt>
</event>
<event>
 4    1  0.1852677E-008  0.4586336E+03  0.7818608E-02  0.1025178E+00
         -1   -1    0    0    0  501 -0.00000000000E+00  0.00000000000E+00  0.40237842429E+03  0.40237842432E+03  0.50400000000E-02 0.  1.
          1   -1    0    0  501    0  0.00000000000E+00 -0.00000000000E+00 -0.82997181834E+03  0.82997181836E+03  0.50400000000E-02 0. -1.
    8880022    1    1    2    0    0  0.22738729735E+03  0.36776099691E+03  0.16108646937E+03  0.48610043970E+03  0.15294330000E+03 0.  0.
    8880022    1    1    2    0    0 -0.22738729735E+03 -0.36776099691E+03 -0.58867986342E+03  0.74624980298E+03  0.15294330000E+03 0.  0.
<mgrwt>
<rscale>  0 0.45863361E+03</rscale>
<asrwt>0</asrwt>
<pdfrwt beam="1">  1        1 0.12768797E+00 0.45863361E+03</pdfrwt>
<pdfrwt beam="2">  1       -1 0.61904373E-01 0.45863361E+03</pdfrwt>
<totfact> 0.58278768E+01</totfact>
</mgrwt>
</event>
<event>
 4    1  0.1852677E-008  0.6606714E+03  0.7818608E-02  0.9786958E-01
          1   -1    0    0  501    0  0.00000000000E+00  0.00000000000E+00  0.19651962409E+04  0.19651962409E+04  0.50400000000E-02 0. -1.
         -1   -1    0    0    0  501 -0.00000000000E+00 -0.00000000000E+00 -0.52293875400E+03  0.52293875403E+03  0.50400000000E-02 0.  1.
    8880022    1    1    2    0    0 -0.29447858610E+03 -0.57129455175E+03  0.16647099829E+04  0.17910181693E+04  0.15294330000E+03 0.  0.
    8880022    1    1    2    0    0  0.29447858610E+03  0.57129455175E+03 -0.22245249604E+03  0.69711682561E+03  0.15294330000E+03 0.  0.
<mgrwt>
<rscale>  0 0.66067144E+03</rscale>
<asrwt>0</asrwt>
<pdfrwt beam="1">  1        1 0.30233788E+00 0.66067144E+03</pdfrwt>
<pdfrwt beam="2">  1       -1 0.80452117E-01 0.66067144E+03</pdfrwt>
<totfact> 0.51735382E+00</totfact>
</mgrwt>
</event>
<event>
 4    1  0.1852677E-008  0.6533213E+03  0.7818608E-02  0.9800567E-01
         -1   -1    0    0    0  501 -0.00000000000E+00  0.00000000000E+00  0.20474573751E+03  0.20474573757E+03  0.50400000000E-02 0.  1.
          1   -1    0    0  501    0  0.00000000000E+00 -0.00000000000E+00 -0.20970446448E+04  0.20970446448E+04  0.50400000000E-02 0. -1.
    8880022    1    1    2    0    0 -0.63314698197E+03 -0.50616249512E+02 -0.85776558916E+03  0.10782349301E+04  0.15294330000E+03 0.  0.
    8880022    1    1    2    0    0  0.63314698197E+03  0.50616249512E+02 -0.10345333181E+04  0.12235554523E+04  0.15294330000E+03 0.  0.
<mgrwt>
<rscale>  0 0.65332133E+03</rscale>
<asrwt>0</asrwt>
<pdfrwt beam="1">  1        1 0.32262224E+00 0.65332133E+03</pdfrwt>
<pdfrwt beam="2">  1       -1 0.31499346E-01 0.65332133E+03</pdfrwt>
<totfact> 0.25291204E+01</totfact>
</mgrwt>
</event>
<event>
 4    1  0.1852677E-008  0.3920782E+03  0.7818608E-02  0.1046558E+00
          1   -1    0    0  501    0  0.00000000000E+00  0.00000000000E+00  0.20595578804E+04  0.20595578805E+04  0.50400000000E-02 0. -1.
         -1   -1    0    0    0  501 -0.00000000000E+00 -0.00000000000E+00 -0.15867482288E+03  0.15867482296E+03  0.50400000000E-02 0.  1.
    8880022    1    1    2    0    0 -0.34203803257E+02 -0.35939363369E+03  0.14329418709E+03  0.41744288372E+03  0.15294330000E+03 0.  0.
    8880022    1    1    2    0    0  0.34203803257E+02  0.35939363369E+03  0.17575888705E+04  0.18007898197E+04  0.15294330000E+03 0.  0.
<mgrwt>
<rscale>  0 0.39207823E+03</rscale>
<asrwt>0</asrwt>
<pdfrwt beam="1">  1        1 0.31685505E+00 0.39207823E+03</pdfrwt>
<pdfrwt beam="2">  1       -1 0.24411512E-01 0.39207823E+03</pdfrwt>
<totfact> 0.43587169E+01</totfact>
</mgrwt>
</event>
<event>
 4    1  0.1852677E-008  0.2996135E+03  0.7818608E-02  0.1085434E+00
         -1   -1    0    0    0  501 -0.00000000000E+00  0.00000000000E+00  0.77237046966E+03  0.77237046967E+03  0.50400000000E-02 0.  1.
          1   -1    0    0  501    0  0.00000000000E+00 -0.00000000000E+00 -0.38136698625E+03  0.38136698628E+03  0.50400000000E-02 0. -1.
    8880022    1    1    2    0    0 -0.24931484417E+03  0.64951440960E+02 -0.28549845837E+03  0.41385698490E+03  0.15294330000E+03 0.  0.
    8880022    1    1    2    0    0  0.24931484417E+03 -0.64951440960E+02  0.67650194178E+03  0.73988047106E+03  0.15294330000E+03 0.  1.
<mgrwt>
<rscale>  0 0.29961347E+03</rscale>
<asrwt>0</asrwt>
<pdfrwt beam="1">  1        1 0.58671844E-01 0.29961347E+03</pdfrwt>
<pdfrwt beam="2">  1       -1 0.11882623E+00 0.29961347E+03</pdfrwt>
<totfact> 0.43914968E+01</totfact>
</mgrwt>
</event>
<event>
 4    1  0.1852677E-008  0.7425478E+03  0.7818608E-02  0.9647115E-01
          1   -1    0    0  501    0  0.00000000000E+00  0.00000000000E+00  0.18371490408E+04  0.18371490408E+04  0.50400000000E-02 0. -1.
         -1   -1    0    0    0  501 -0.00000000000E+00 -0.00000000000E+00 -0.67006795567E+03  0.67006795569E+03  0.50400000000E-02 0.  1.
    8880022    1    1    2    0    0  0.65388525355E+03  0.31689057511E+03 -0.34792966874E+03  0.82001967587E+03  0.15294330000E+03 0.  0.
    8880022    1    1    2    0    0 -0.65388525355E+03 -0.31689057511E+03  0.15150107538E+04  0.16871973206E+04  0.15294330000E+03 0.  0.
<mgrwt>
<rscale>  0 0.74254779E+03</rscale>
<asrwt>0</asrwt>
<pdfrwt beam="1">  1        1 0.28263831E+00 0.74254779E+03</pdfrwt>
<pdfrwt beam="2">  1       -1 0.10308738E+00 0.74254779E+03</pdfrwt>
<totfact> 0.35870070E+00</totfact>
</mgrwt>
</event>
<event>
 4    1  0.1852677E-008  0.5065194E+03  0.7818608E-02  0.1012091E+00
          1   -1    0    0  501    0  0.00000000000E+00  0.00000000000E+00  0.14439796424E+04  0.14439796424E+04  0.50400000000E-02 0. -1.
         -1   -1    0    0    0  501 -0.00000000000E+00 -0.00000000000E+00 -0.82532783257E+03  0.82532783258E+03  0.50400000000E-02 0.  1.
    8880022    1    1    2    0    0  0.31406869497E+03 -0.36678479729E+03 -0.69580027823E+03  0.86063924666E+03  0.15294330000E+03 0.  0.
    8880022    1    1    2    0    0 -0.31406869497E+03  0.36678479729E+03  0.13144520881E+04  0.14086682283E+04  0.15294330000E+03 0.  0.
<mgrwt>
<rscale>  0 0.50651938E+03</rscale>
<asrwt>0</asrwt>
<pdfrwt beam="1">  1        1 0.22215071E+00 0.50651938E+03</pdfrwt>
<pdfrwt beam="2">  1       -1 0.12697351E+00 0.50651938E+03</pdfrwt>
<totfact> 0.42238106E+00</totfact>
</mgrwt>
</event>
<event>
 4    1  0.1852677E-008  0.6726210E+03  0.7818608E-02  0.9765235E-01
         -1   -1    0    0    0  501 -0.00000000000E+00  0.00000000000E+00  0.11914742266E+04  0.11914742266E+04  0.50400000000E-02 0.  1.
          1   -1    0    0  501    0  0.00000000000E+00 -0.00000000000E+00 -0.77625765717E+03  0.77625765719E+03  0.50400000000E-02 0. -1.
    8880022    1    1    2    0    0 -0.34135728900E+03 -0.55901923882E+03 -0.49559145997E+03  0.83548181090E+03  0.15294330000E+03 0.  0.
    8880022    1    1    2    0    0  0.34135728900E+03  0.55901923882E+03  0.91080802937E+03  0.11322500729E+04  0.15294330000E+03 0.  0.
<mgrwt>
<rscale>  0 0.67262096E+03</rscale>
<asrwt>0</asrwt>
<pdfrwt beam="1">  1        1 0.11942426E+00 0.67262096E+03</pdfrwt>
<pdfrwt beam="2">  1       -1 0.18330373E+00 0.67262096E+03</pdfrwt>
<totfact> 0.47973187E+00</totfact>
</mgrwt>
</event>
<event>
 4    1  0.1852677E-008  0.1895132E+03  0.7818608E-02  0.1158901E+00
          1   -1    0    0  501    0  0.00000000000E+00  0.00000000000E+00  0.37612731975E+03  0.37612731978E+03  0.50400000000E-02 0. -1.
         -1   -1    0    0    0  501 -0.00000000000E+00 -0.00000000000E+00 -0.69569979682E+03  0.69569979683E+03  0.50400000000E-02 0.  1.
    8880022    1    1    2    0    0 -0.20927627892E+02  0.10993465716E+03 -0.65756510303E+03  0.68432968092E+03  0.15294330000E+03 0.  0.
    8880022    1    1    2    0    0  0.20927627892E+02 -0.10993465716E+03  0.33799262596E+03  0.38749743570E+03  0.15294330000E+03 0. -1.
<mgrwt>
<rscale>  0 0.18951319E+03</rscale>
<asrwt>0</asrwt>
<pdfrwt beam="1">  1        1 0.57865741E-01 0.18951319E+03</pdfrwt>
<pdfrwt beam="2">  1       -1 0.10703074E+00 0.18951319E+03</pdfrwt>
<totfact> 0.58579009E+01</totfact>
</mgrwt>
</event>
<event>
 4    1  0.1852677E-008  0.7319753E+03  0.7818608E-02  0.9664060E-01
          1   -1    0    0  501    0  0.00000000000E+00  0.00000000000E+00  0.18430618967E+04  0.18430618967E+04  0.50400000000E-02 0. -1.
         -1   -1    0    0    0  501 -0.00000000000E+00 -0.00000000000E+00 -0.49926234325E+03  0.49926234328E+03  0.50400000000E-02 0.  1.
    8880022    1    1    2    0    0 -0.71580422601E+03  0.45335687731E+01 -0.85046440192E+02  0.73689944580E+03  0.15294330000E+03 0.  0.
    8880022    1    1    2    0    0  0.71580422601E+03 -0.45335687731E+01  0.14288459936E+04  0.16054247942E+04  0.15294330000E+03 0. -1.
<mgrwt>
<rscale>  0 0.73197534E+03</rscale>
<asrwt>0</asrwt>
<pdfrwt beam="1">  1        1 0.28354797E+00 0.73197534E+03</pdfrwt>
<pdfrwt beam="2">  1       -1 0.76809594E-01 0.73197534E+03</pdfrwt>
<totfact> 0.67923040E+00</totfact>
</mgrwt>
</event>
<event>
 4    1  0.1852677E-008  0.1311539E+04  0.7818608E-02  0.9020465E-01
         -1   -1    0    0    0  501 -0.00000000000E+00  0.00000000000E+00  0.77528674838E+03  0.77528674840E+03  0.50400000000E-02 0.  1.
          1   -1    0    0  501    0  0.00000000000E+00 -0.00000000000E+00 -0.23600808863E+04  0.23600808863E+04  0.50400000000E-02 0. -1.
    8880022    1    1    2    0    0 -0.71228646726E+03  0.10905916265E+04 -0.11760869745E+04  0.17616226417E+04  0.15294330000E+03 0.  0.
    8880022    1    1    2    0    0  0.71228646726E+03 -0.10905916265E+04 -0.40870716341E+03  0.13737449930E+04  0.15294330000E+03 0.  0.
<mgrwt>
<rscale>  0 0.13115387E+04</rscale>
<asrwt>0</asrwt>
<pdfrwt beam="1">  1        1 0.36308936E+00 0.13115387E+04</pdfrwt>
<pdfrwt beam="2">  1       -1 0.11927489E+00 0.13115387E+04</pdfrwt>
<totfact> 0.10355569E+00</totfact>
</mgrwt>
</event>
<event>
 4    1  0.1852677E-008  0.2240786E+03  0.7818608E-02  0.1130878E+00
         -1   -1    0    0    0  501 -0.00000000000E+00  0.00000000000E+00  0.59369025020E+03  0.59369025023E+03  0.50400000000E-02 0.  1.
          1   -1    0    0  501    0  0.00000000000E+00 -0.00000000000E+00 -0.47437953186E+03  0.47437953189E+03  0.50400000000E-02 0. -1.
    8880022    1    1    2    0    0  0.25904393461E+02  0.16170512415E+03  0.54374992930E+03  0.58811157394E+03  0.15294330000E+03 0.  0.
    8880022    1    1    2    0    0 -0.25904393461E+02 -0.16170512415E+03 -0.42443921096E+03  0.47995820817E+03  0.15294330000E+03 0. -1.
<mgrwt>
<rscale>  0 0.22407864E+03</rscale>
<asrwt>0</asrwt>
<pdfrwt beam="1">  1        1 0.72981466E-01 0.22407864E+03</pdfrwt>
<pdfrwt beam="2">  1       -1 0.91336962E-01 0.22407864E+03</pdfrwt>
<totfact> 0.61104946E+01</totfact>
</mgrwt>
</event>
<event>
 4    1  0.1852677E-008  0.1322449E+04  0.7818608E-02  0.9011950E-01
          1   -1    0    0  501    0  0.00000000000E+00  0.00000000000E+00  0.23243545695E+04  0.23243545695E+04  0.50400000000E-02 0. -1.
         -1   -1    0    0    0  501 -0.00000000000E+00 -0.00000000000E+00 -0.79257350391E+03  0.79257350392E+03  0.50400000000E-02 0.  1.
    8880022    1    1    2    0    0 -0.12500392764E+04 -0.40358614840E+03  0.11167098471E+04  0.17308704479E+04  0.15294330000E+03 0.  0.
    8880022    1    1    2    0    0  0.12500392764E+04  0.40358614840E+03  0.41507121845E+03  0.13860576255E+04  0.15294330000E+03 0.  0.
<mgrwt>
<rscale>  0 0.13224491E+04</rscale>
<asrwt>0</asrwt>
<pdfrwt beam="1">  1        1 0.35759302E+00 0.13224491E+04</pdfrwt>
<pdfrwt beam="2">  1       -1 0.12193438E+00 0.13224491E+04</pdfrwt>
<totfact> 0.10361230E+00</totfact>
</mgrwt>
</event>
<event>
 4    1  0.1852677E-008  0.2565506E+03  0.7818608E-02  0.1109234E+00
         -1   -1    0    0    0  501 -0.00000000000E+00  0.00000000000E+00  0.95806532578E+02  0.95806532711E+02  0.50400000000E-02 0.  1.
          1   -1    0    0  501    0  0.00000000000E+00 -0.00000000000E+00 -0.84706315053E+03  0.84706315054E+03  0.50400000000E-02 0. -1.
    8880022    1    1    2    0    0  0.22080098459E+02 -0.20479019678E+03 -0.17069058195E+03  0.30814523074E+03  0.15294330000E+03 0.  0.
    8880022    1    1    2    0    0 -0.22080098459E+02  0.20479019678E+03 -0.58056603600E+03  0.63472445251E+03  0.15294330000E+03 0.  0.
<mgrwt>
<rscale>  0 0.25655060E+03</rscale>
<asrwt>0</asrwt>
<pdfrwt beam="1">  1        1 0.13031740E+00 0.25655060E+03</pdfrwt>
<pdfrwt beam="2">  1       -1 0.14739467E-01 0.25655060E+03</pdfrwt>
<totfact> 0.69907467E+02</totfact>
</mgrwt>
</event>
<event>
 4    1  0.1852677E-008  0.6419912E+03  0.7818608E-02  0.9821924E-01
         -1   -1    0    0    0  501 -0.00000000000E+00  0.00000000000E+00  0.42909446813E+03  0.42909446816E+03  0.50400000000E-02 0.  1.
          1   -1    0    0  501    0  0.00000000000E+00 -0.00000000000E+00 -0.19426196323E+04  0.19426196323E+04  0.50400000000E-02 0. -1.
    8880022    1    1    2    0    0  0.19590220151E+02  0.62319923277E+03  0.86410623127E+02  0.64778044834E+03  0.15294330000E+03 0.  0.
    8880022    1    1    2    0    0 -0.19590220151E+02 -0.62319923277E+03 -0.15999357873E+04  0.17239336522E+04  0.15294330000E+03 0.  0.
<mgrwt>
<rscale>  0 0.64199121E+03</rscale>
<asrwt>0</asrwt>
<pdfrwt beam="1">  1        1 0.29886455E+00 0.64199121E+03</pdfrwt>
<pdfrwt beam="2">  1       -1 0.66014535E-01 0.64199121E+03</pdfrwt>
<totfact> 0.80848724E+00</totfact>
</mgrwt>
</event>
<event>
 4    1  0.1852677E-008  0.9921491E+03  0.7818608E-02  0.9317198E-01
          1   -1    0    0  501    0  0.00000000000E+00  0.00000000000E+00  0.16285496912E+04  0.16285496913E+04  0.50400000000E-02 0. -1.
         -1   -1    0    0    0  501 -0.00000000000E+00 -0.00000000000E+00 -0.81318519926E+03  0.81318519927E+03  0.50400000000E-02 0.  1.
    8880022    1    1    2    0    0  0.86445161028E+03 -0.46226788623E+03 -0.21087870444E+03  0.10143124105E+04  0.15294330000E+03 0.  0.
    8880022    1    1    2    0    0 -0.86445161028E+03  0.46226788623E+03  0.10262431964E+04  0.14274224800E+04  0.15294330000E+03 0.  0.
<mgrwt>
<rscale>  0 0.99214910E+03</rscale>
<asrwt>0</asrwt>
<pdfrwt beam="1">  1        1 0.25054610E+00 0.99214910E+03</pdfrwt>
<pdfrwt beam="2">  1       -1 0.12510542E+00 0.99214910E+03</pdfrwt>
<totfact> 0.30016451E+00</totfact>
</mgrwt>
</event>
<event>
 4    1  0.1852677E-008  0.3997236E+03  0.7818608E-02  0.1043875E+00
          1   -1    0    0  501    0  0.00000000000E+00  0.00000000000E+00  0.29501039392E+03  0.29501039396E+03  0.50400000000E-02 0. -1.
         -1   -1    0    0    0  501 -0.00000000000E+00 -0.00000000000E+00 -0.67233720527E+03  0.67233720529E+03  0.50400000000E-02 0.  1.
    8880022    1    1    2    0    0 -0.35732456694E+03  0.93308206296E+02 -0.40194398871E+03  0.56686673088E+03  0.15294330000E+03 0.  0.
    8880022    1    1    2    0    0  0.35732456694E+03 -0.93308206296E+02  0.24617177353E+02  0.40048086838E+03  0.15294330000E+03 0.  0.
<mgrwt>
<rscale>  0 0.39972356E+03</rscale>
<asrwt>0</asrwt>
<pdfrwt beam="1">  1        1 0.45386215E-01 0.39972356E+03</pdfrwt>
<pdfrwt beam="2">  1       -1 0.10343649E+00 0.39972356E+03</pdfrwt>
<totfact> 0.82914955E+01</totfact>
</mgrwt>
</event>
<event>
 4    1  0.1852677E-008  0.2495592E+03  0.7818608E-02  0.1113584E+00
         -1   -1    0    0    0  501 -0.00000000000E+00  0.00000000000E+00  0.84726664873E+03  0.84726664874E+03  0.50400000000E-02 0.  1.
          1   -1    0    0  501    0  0.00000000000E+00 -0.00000000000E+00 -0.33426663054E+03  0.33426663058E+03  0.50400000000E-02 0. -1.
    8880022    1    1    2    0    0  0.18732179577E+03  0.61633512394E+02  0.77828292709E+03  0.81731518561E+03  0.15294330000E+03 0.  0.
    8880022    1    1    2    0    0 -0.18732179577E+03 -0.61633512394E+02 -0.26528290890E+03  0.36421809371E+03  0.15294330000E+03 0.  0.
<mgrwt>
<rscale>  0 0.24955921E+03</rscale>
<asrwt>0</asrwt>
<pdfrwt beam="1">  1        1 0.51425637E-01 0.24955921E+03</pdfrwt>
<pdfrwt beam="2">  1       -1 0.13034871E+00 0.24955921E+03</pdfrwt>
<totfact> 0.42000076E+01</totfact>
</mgrwt>
</event>
<event>
 4    1  0.1852677E-008  0.7856681E+03  0.7818608E-02  0.9580997E-01
         -1   -1    0    0    0  501 -0.00000000000E+00  0.00000000000E+00  0.49386104807E+03  0.49386104809E+03  0.50400000000E-02 0.  1.
          1   -1    0    0  501    0  0.00000000000E+00 -0.00000000000E+00 -0.35655869443E+04  0.35655869443E+04  0.50400000000E-02 0. -1.
    8880022    1    1    2    0    0 -0.69031814410E+03 -0.34255454163E+03 -0.31715939021E+04  0.32674580773E+04  0.15294330000E+03 0.  0.
    8880022    1    1    2    0    0  0.69031814410E+03  0.34255454163E+03  0.99868005830E+02  0.79198991513E+03  0.15294330000E+03 0.  0.
<mgrwt>
<rscale>  0 0.78566813E+03</rscale>
<asrwt>0</asrwt>
<pdfrwt beam="1">  1        1 0.54855182E+00 0.78566813E+03</pdfrwt>
<pdfrwt beam="2">  1       -1 0.75978625E-01 0.78566813E+03</pdfrwt>
<totfact> 0.42006802E-01</totfact>
</mgrwt>
</event>
<event>
 4    1  0.1852677E-008  0.5520994E+03  0.7818608E-02  0.1001009E+00
         -1   -1    0    0    0  501 -0.00000000000E+00  0.00000000000E+00  0.27816934198E+04  0.27816934198E+04  0.50400000000E-02 0.  1.
          1   -1    0    0  501    0  0.00000000000E+00 -0.00000000000E+00 -0.69713586521E+03  0.69713586523E+03  0.50400000000E-02 0. -1.
    8880022    1    1    2    0    0  0.17090865960E+03 -0.50220739761E+03  0.26391487665E+04  0.26962788997E+04  0.15294330000E+03 0.  0.
    8880022    1    1    2    0    0 -0.17090865960E+03  0.50220739761E+03 -0.55459121195E+03  0.78255038530E+03  0.15294330000E+03 0.  0.
<mgrwt>
<rscale>  0 0.55209935E+03</rscale>
<asrwt>0</asrwt>
<pdfrwt beam="1">  1        1 0.10725167E+00 0.55209935E+03</pdfrwt>
<pdfrwt beam="2">  1       -1 0.42795284E+00 0.55209935E+03</pdfrwt>
<totfact> 0.14373568E-01</totfact>
</mgrwt>
</event>
<event>
 4    1  0.1852677E-008  0.8618459E+03  0.7818608E-02  0.9474574E-01
         -1   -1    0    0    0  501 -0.00000000000E+00  0.00000000000E+00  0.11470191505E+04  0.11470191505E+04  0.50400000000E-02 0.  1.
          1   -1    0    0  501    0  0.00000000000E+00 -0.00000000000E+00 -0.14280024595E+04  0.14280024595E+04  0.50400000000E-02 0. -1.
    8880022    1    1    2    0    0  0.76278743038E+03 -0.37086658175E+03  0.81132500812E+03  0.11836496978E+04  0.15294330000E+03 0.  0.
    8880022    1    1    2    0    0 -0.76278743038E+03  0.37086658175E+03 -0.10923083171E+04  0.13913719121E+04  0.15294330000E+03 0.  0.
<mgrwt>
<rscale>  0 0.86184589E+03</rscale>
<asrwt>0</asrwt>
<pdfrwt beam="1">  1        1 0.21969269E+00 0.86184589E+03</pdfrwt>
<pdfrwt beam="2">  1       -1 0.17646448E+00 0.86184589E+03</pdfrwt>
<totfact> 0.16644638E+00</totfact>
</mgrwt>
</event>
<event>
 4    1  0.1852677E-008  0.5024561E+03  0.7818608E-02  0.1013140E+00
          1   -1    0    0  501    0  0.00000000000E+00  0.00000000000E+00  0.16953674696E+04  0.16953674696E+04  0.50400000000E-02 0. -1.
         -1   -1    0    0    0  501 -0.00000000000E+00 -0.00000000000E+00 -0.23025652341E+03  0.23025652346E+03  0.50400000000E-02 0.  1.
    8880022    1    1    2    0    0  0.28755981218E+03 -0.38259612432E+03  0.16029036356E+03  0.52740410843E+03  0.15294330000E+03 0.  0.
    8880022    1    1    2    0    0 -0.28755981218E+03  0.38259612432E+03  0.13048205826E+04  0.13982198846E+04  0.15294330000E+03 0.  0.
<mgrwt>
<rscale>  0 0.50245606E+03</rscale>
<asrwt>0</asrwt>
<pdfrwt beam="1">  1        1 0.26082576E+00 0.50245606E+03</pdfrwt>
<pdfrwt beam="2">  1       -1 0.35424081E-01 0.50245606E+03</pdfrwt>
<totfact> 0.39014823E+01</totfact>
</mgrwt>
</event>
<event>
 4    1  0.1852677E-008  0.7555323E+03  0.7818608E-02  0.9626711E-01
          1   -1    0    0  501    0  0.00000000000E+00  0.00000000000E+00  0.52646759043E+03  0.52646759045E+03  0.50400000000E-02 0. -1.
         -1   -1    0    0    0  501 -0.00000000000E+00 -0.00000000000E+00 -0.11282538443E+04  0.11282538443E+04  0.50400000000E-02 0.  1.
    8880022    1    1    2    0    0 -0.21031719865E+03 -0.70936883546E+03 -0.46426398041E+03  0.88677514923E+03  0.15294330000E+03 0.  0.
    8880022    1    1    2    0    0  0.21031719865E+03  0.70936883546E+03 -0.13752227347E+03  0.76794628555E+03  0.15294330000E+03 0.  0.
<mgrwt>
<rscale>  0 0.75553234E+03</rscale>
<asrwt>0</asrwt>
<pdfrwt beam="1">  1        1 0.80995014E-01 0.75553234E+03</pdfrwt>
<pdfrwt beam="2">  1       -1 0.17357751E+00 0.75553234E+03</pdfrwt>
<totfact> 0.98434669E+00</totfact>
</mgrwt>
</event>
<event>
 4    1  0.1852677E-008  0.8129681E+03  0.7818608E-02  0.9541434E-01
         -1   -1    0    0    0  501 -0.00000000000E+00  0.00000000000E+00  0.19899483891E+03  0.19899483897E+03  0.50400000000E-02 0.  1.
          1   -1    0    0  501    0  0.00000000000E+00 -0.00000000000E+00 -0.34504011749E+04  0.34504011749E+04  0.50400000000E-02 0. -1.
    8880022    1    1    2    0    0 -0.53304712330E+03  0.59446292617E+03 -0.19786906672E+04  0.21391899906E+04  0.15294330000E+03 0.  0.
    8880022    1    1    2    0    0  0.53304712330E+03 -0.59446292617E+03 -0.12727156688E+04  0.15102060233E+04  0.15294330000E+03 0.  0.
<mgrwt>
<rscale>  0 0.81296806E+03</rscale>
<asrwt>0</asrwt>
<pdfrwt beam="1">  1        1 0.53083091E+00 0.81296806E+03</pdfrwt>
<pdfrwt beam="2">  1       -1 0.30614593E-01 0.81296806E+03</pdfrwt>
<totfact> 0.28759128E+00</totfact>
</mgrwt>
</event>
<event>
 4    1  0.1852677E-008  0.6961036E+03  0.7818608E-02  0.9723919E-01
         -1   -1    0    0    0  501 -0.00000000000E+00  0.00000000000E+00  0.30853942000E+03  0.30853942004E+03  0.50400000000E-02 0.  1.
          1   -1    0    0  501    0  0.00000000000E+00 -0.00000000000E+00 -0.19250078266E+04  0.19250078267E+04  0.50400000000E-02 0. -1.
    8880022    1    1    2    0    0 -0.56737252206E+03  0.37317149423E+03 -0.32898243463E+03  0.76992833317E+03  0.15294330000E+03 0.  0.
    8880022    1    1    2    0    0  0.56737252206E+03 -0.37317149423E+03 -0.12874859720E+04  0.14636189135E+04  0.15294330000E+03 0.  0.
<mgrwt>
<rscale>  0 0.69610358E+03</rscale>
<asrwt>0</asrwt>
<pdfrwt beam="1">  1        1 0.29615504E+00 0.69610358E+03</pdfrwt>
<pdfrwt beam="2">  1       -1 0.47467604E-01 0.69610358E+03</pdfrwt>
<totfact> 0.15589959E+01</totfact>
</mgrwt>
</event>
<event>
 4    1  0.1852677E-008  0.2044203E+03  0.7818608E-02  0.1146062E+00
          1   -1    0    0  501    0  0.00000000000E+00  0.00000000000E+00  0.16189555654E+04  0.16189555654E+04  0.50400000000E-02 0. -1.
         -1   -1    0    0    0  501 -0.00000000000E+00 -0.00000000000E+00 -0.21735321910E+03  0.21735321916E+03  0.50400000000E-02 0.  1.
    8880022    1    1    2    0    0  0.75859089235E+01 -0.13541952590E+03  0.15627160672E+04  0.15760295536E+04  0.15294330000E+03 0. -1.
    8880022    1    1    2    0    0 -0.75859089235E+01  0.13541952590E+03 -0.16111372090E+03  0.26027923099E+03  0.15294330000E+03 0.  0.
<mgrwt>
<rscale>  0 0.20442027E+03</rscale>
<asrwt>0</asrwt>
<pdfrwt beam="1">  1        1 0.24907009E+00 0.20442027E+03</pdfrwt>
<pdfrwt beam="2">  1       -1 0.33438957E-01 0.20442027E+03</pdfrwt>
<totfact> 0.52505238E+01</totfact>
</mgrwt>
</event>
<event>
 4    1  0.1852677E-008  0.9493818E+03  0.7818608E-02  0.9365873E-01
          1   -1    0    0  501    0  0.00000000000E+00  0.00000000000E+00  0.11068639296E+04  0.11068639297E+04  0.50400000000E-02 0. -1.
         -1   -1    0    0    0  501 -0.00000000000E+00 -0.00000000000E+00 -0.14238340420E+04  0.14238340420E+04  0.50400000000E-02 0.  1.
    8880022    1    1    2    0    0  0.25460741695E+03 -0.90172572653E+03 -0.98638432876E+03  0.13690434324E+04  0.15294330000E+03 0.  0.
    8880022    1    1    2    0    0 -0.25460741695E+03  0.90172572653E+03  0.66941421637E+03  0.11616545393E+04  0.15294330000E+03 0.  0.
<mgrwt>
<rscale>  0 0.94938184E+03</rscale>
<asrwt>0</asrwt>
<pdfrwt beam="1">  1        1 0.17028676E+00 0.94938184E+03</pdfrwt>
<pdfrwt beam="2">  1       -1 0.21905139E+00 0.94938184E+03</pdfrwt>
<totfact> 0.14177274E+00</totfact>
</mgrwt>
</event>
<event>
 4    1  0.1852677E-008  0.6960212E+03  0.7818608E-02  0.9724061E-01
          1   -1    0    0  501    0  0.00000000000E+00  0.00000000000E+00  0.29997007026E+04  0.29997007026E+04  0.50400000000E-02 0. -1.
         -1   -1    0    0    0  501 -0.00000000000E+00 -0.00000000000E+00 -0.19588474488E+03  0.19588474495E+03  0.50400000000E-02 0.  1.
    8880022    1    1    2    0    0  0.38341835280E+03  0.56039654421E+03  0.73246150782E+03  0.10104184447E+04  0.15294330000E+03 0.  0.
    8880022    1    1    2    0    0 -0.38341835280E+03 -0.56039654421E+03  0.20713544499E+04  0.21851670029E+04  0.15294330000E+03 0.  0.
<mgrwt>
<rscale>  0 0.69602124E+03</rscale>
<asrwt>0</asrwt>
<pdfrwt beam="1">  1        1 0.46149237E+00 0.69602124E+03</pdfrwt>
<pdfrwt beam="2">  1       -1 0.30136118E-01 0.69602124E+03</pdfrwt>
<totfact> 0.65153590E+00</totfact>
</mgrwt>
</event>
<event>
 4    1  0.1852677E-008  0.5782610E+03  0.7818608E-02  0.9951563E-01
         -1   -1    0    0    0  501 -0.00000000000E+00  0.00000000000E+00  0.52898979946E+03  0.52898979948E+03  0.50400000000E-02 0.  1.
          1   -1    0    0  501    0  0.00000000000E+00 -0.00000000000E+00 -0.10195824414E+04  0.10195824414E+04  0.50400000000E-02 0. -1.
    8880022    1    1    2    0    0  0.42660650662E+03  0.35916717696E+03 -0.72261042251E+03  0.92550075539E+03  0.15294330000E+03 0.  0.
    8880022    1    1    2    0    0 -0.42660650662E+03 -0.35916717696E+03  0.23201778059E+03  0.62307148548E+03  0.15294330000E+03 0.  0.
<mgrwt>
<rscale>  0 0.57826104E+03</rscale>
<asrwt>0</asrwt>
<pdfrwt beam="1">  1        1 0.15685884E+00 0.57826104E+03</pdfrwt>
<pdfrwt beam="2">  1       -1 0.81383046E-01 0.57826104E+03</pdfrwt>
<totfact> 0.23127437E+01</totfact>
</mgrwt>
</event>
<event>
 4    1  0.1852677E-008  0.5333781E+03  0.7818608E-02  0.1005416E+00
         -1   -1    0    0    0  501 -0.00000000000E+00  0.00000000000E+00  0.24761353396E+03  0.24761353401E+03  0.50400000000E-02 0.  1.
          1   -1    0    0  501    0  0.00000000000E+00 -0.00000000000E+00 -0.15256258638E+04  0.15256258638E+04  0.50400000000E-02 0. -1.
    8880022    1    1    2    0    0  0.48289694758E+03 -0.16706607540E+03 -0.10795662257E+04  0.12041409487E+04  0.15294330000E+03 0.  0.
    8880022    1    1    2    0    0 -0.48289694758E+03  0.16706607540E+03 -0.19844610409E+03  0.56909844911E+03  0.15294330000E+03 0.  0.
<mgrwt>
<rscale>  0 0.53337809E+03</rscale>
<asrwt>0</asrwt>
<pdfrwt beam="1">  1        1 0.23471167E+00 0.53337809E+03</pdfrwt>
<pdfrwt beam="2">  1       -1 0.38094391E-01 0.53337809E+03</pdfrwt>
<totfact> 0.44313332E+01</totfact>
</mgrwt>
</event>
<event>
 4    1  0.1852677E-008  0.1084831E+04  0.7818608E-02  0.9220104E-01
          1   -1    0    0  501    0  0.00000000000E+00  0.00000000000E+00  0.96473773720E+03  0.96473773721E+03  0.50400000000E-02 0. -1.
         -1   -1    0    0    0  501 -0.00000000000E+00 -0.00000000000E+00 -0.17131036516E+04  0.17131036516E+04  0.50400000000E-02 0.  1.
    8880022    1    1    2    0    0 -0.94318410224E+03  0.51368296288E+03  0.34425257162E+03  0.11381423123E+04  0.15294330000E+03 0.  0.
    8880022    1    1    2    0    0  0.94318410224E+03 -0.51368296288E+03 -0.10926184860E+04  0.15396990765E+04  0.15294330000E+03 0.  0.
<mgrwt>
<rscale>  0 0.10848309E+04</rscale>
<asrwt>0</asrwt>
<pdfrwt beam="1">  1        1 0.14842119E+00 0.10848309E+04</pdfrwt>
<pdfrwt beam="2">  1       -1 0.26355441E+00 0.10848309E+04</pdfrwt>
<totfact> 0.91565818E-01</totfact>
</mgrwt>
</event>
<event>
 4    1  0.1852677E-008  0.6242921E+03  0.7818608E-02  0.9856251E-01
         -1   -1    0    0    0  501 -0.00000000000E+00  0.00000000000E+00  0.10169662228E+04  0.10169662228E+04  0.50400000000E-02 0.  1.
          1   -1    0    0  501    0  0.00000000000E+00 -0.00000000000E+00 -0.88257439071E+03  0.88257439073E+03  0.50400000000E-02 0. -1.
    8880022    1    1    2    0    0  0.58719318015E+03  0.14680977934E+03 -0.64720059486E+03  0.89922700422E+03  0.15294330000E+03 0.  0.
    8880022    1    1    2    0    0 -0.58719318015E+03 -0.14680977934E+03  0.78159242697E+03  0.10003136093E+04  0.15294330000E+03 0.  0.
<mgrwt>
<rscale>  0 0.62429208E+03</rscale>
<asrwt>0</asrwt>
<pdfrwt beam="1">  1        1 0.13578068E+00 0.62429208E+03</pdfrwt>
<pdfrwt beam="2">  1       -1 0.15645634E+00 0.62429208E+03</pdfrwt>
<totfact> 0.61776005E+00</totfact>
</mgrwt>
</event>
<event>
 4    1  0.1852677E-008  0.7132642E+03  0.7818608E-02  0.9694814E-01
         -1   -1    0    0    0  501 -0.00000000000E+00  0.00000000000E+00  0.11265505930E+04  0.11265505930E+04  0.50400000000E-02 0.  1.
          1   -1    0    0  501    0  0.00000000000E+00 -0.00000000000E+00 -0.76012749491E+03  0.76012749492E+03  0.50400000000E-02 0. -1.
    8880022    1    1    2    0    0 -0.44875887364E+03 -0.53288796588E+03 -0.41778824993E+03  0.82661525854E+03  0.15294330000E+03 0.  0.
    8880022    1    1    2    0    0  0.44875887364E+03  0.53288796588E+03  0.78421134800E+03  0.10600628294E+04  0.15294330000E+03 0.  0.
<mgrwt>
<rscale>  0 0.71326416E+03</rscale>
<asrwt>0</asrwt>
<pdfrwt beam="1">  1        1 0.11694269E+00 0.71326416E+03</pdfrwt>
<pdfrwt beam="2">  1       -1 0.17331548E+00 0.71326416E+03</pdfrwt>
<totfact> 0.58055334E+00</totfact>
</mgrwt>
</event>
<event>
 4    1  0.1852677E-008  0.4899480E+03  0.7818608E-02  0.1016436E+00
          1   -1    0    0  501    0  0.00000000000E+00  0.00000000000E+00  0.20816633982E+04  0.20816633982E+04  0.50400000000E-02 0. -1.
         -1   -1    0    0    0  501 -0.00000000000E+00 -0.00000000000E+00 -0.12856291086E+03  0.12856291095E+03  0.50400000000E-02 0.  1.
    8880022    1    1    2    0    0 -0.33183098994E+03  0.32641316912E+03  0.13312875321E+04  0.14185822179E+04  0.15294330000E+03 0.  0.
    8880022    1    1    2    0    0  0.33183098994E+03 -0.32641316912E+03  0.62181295524E+03  0.79164409123E+03  0.15294330000E+03 0.  0.
<mgrwt>
<rscale>  0 0.48994797E+03</rscale>
<asrwt>0</asrwt>
<pdfrwt beam="1">  1        1 0.32025590E+00 0.48994797E+03</pdfrwt>
<pdfrwt beam="2">  1       -1 0.19778910E-01 0.48994797E+03</pdfrwt>
<totfact> 0.58628989E+01</totfact>
</mgrwt>
</event>
<event>
 4    1  0.1852677E-008  0.1211238E+04  0.7818608E-02  0.9103077E-01
         -1   -1    0    0    0  501 -0.00000000000E+00  0.00000000000E+00  0.62726892611E+03  0.62726892613E+03  0.50400000000E-02 0.  1.
          1   -1    0    0  501    0  0.00000000000E+00 -0.00000000000E+00 -0.26819876116E+04  0.26819876116E+04  0.50400000000E-02 0. -1.
    8880022    1    1    2    0    0 -0.48869568170E+03 -0.10976712028E+04 -0.16191892011E+04  0.20220956606E+04  0.15294330000E+03 0.  0.
    8880022    1    1    2    0    0  0.48869568170E+03  0.10976712028E+04 -0.43552948434E+03  0.12871608771E+04  0.15294330000E+03 0.  0.
<mgrwt>
<rscale>  0 0.12112379E+04</rscale>
<asrwt>0</asrwt>
<pdfrwt beam="1">  1        1 0.41261347E+00 0.12112379E+04</pdfrwt>
<pdfrwt beam="2">  1       -1 0.96502913E-01 0.12112379E+04</pdfrwt>
<totfact> 0.10349594E+00</totfact>
</mgrwt>
</event>
<event>
 4    1  0.1852677E-008  0.7923777E+03  0.7818608E-02  0.9571116E-01
          1   -1    0    0  501    0  0.00000000000E+00  0.00000000000E+00  0.30649508763E+04  0.30649508763E+04  0.50400000000E-02 0. -1.
         -1   -1    0    0    0  501 -0.00000000000E+00 -0.00000000000E+00 -0.28030783143E+03  0.28030783147E+03  0.50400000000E-02 0.  1.
    8880022    1    1    2    0    0  0.53924944505E+02  0.77560486257E+03  0.52450596036E+03  0.95024678792E+03  0.15294330000E+03 0.  0.
    8880022    1    1    2    0    0 -0.53924944505E+02 -0.77560486257E+03  0.22601370845E+04  0.23950119199E+04  0.15294330000E+03 0.  0.
<mgrwt>
<rscale>  0 0.79237772E+03</rscale>
<asrwt>0</asrwt>
<pdfrwt beam="1">  1        1 0.47153090E+00 0.79237772E+03</pdfrwt>
<pdfrwt beam="2">  1       -1 0.43124282E-01 0.79237772E+03</pdfrwt>
<totfact> 0.30227386E+00</totfact>
</mgrwt>
</event>
<event>
 4    1  0.1852677E-008  0.5929442E+03  0.7818608E-02  0.9920154E-01
          1   -1    0    0  501    0  0.00000000000E+00  0.00000000000E+00  0.15812567423E+04  0.15812567423E+04  0.50400000000E-02 0. -1.
         -1   -1    0    0    0  501 -0.00000000000E+00 -0.00000000000E+00 -0.12824681609E+04  0.12824681610E+04  0.50400000000E-02 0.  1.
    8880022    1    1    2    0    0  0.49936575521E+03 -0.28075793785E+03  0.14512306180E+04  0.15676903829E+04  0.15294330000E+03 0.  0.
    8880022    1    1    2    0    0 -0.49936575521E+03  0.28075793785E+03 -0.11524420366E+04  0.12960345203E+04  0.15294330000E+03 0.  1.
<mgrwt>
<rscale>  0 0.59294420E+03</rscale>
<asrwt>0</asrwt>
<pdfrwt beam="1">  1        1 0.24327027E+00 0.59294420E+03</pdfrwt>
<pdfrwt beam="2">  1       -1 0.19730279E+00 0.59294420E+03</pdfrwt>
<totfact> 0.98826960E-01</totfact>
</mgrwt>
</event>
<event>
 4    1  0.1852677E-008  0.5598534E+03  0.7818608E-02  0.9992386E-01
         -1   -1    0    0    0  501 -0.00000000000E+00  0.00000000000E+00  0.49720414455E+03  0.49720414457E+03  0.50400000000E-02 0.  1.
          1   -1    0    0  501    0  0.00000000000E+00 -0.00000000000E+00 -0.82626913028E+03  0.82626913029E+03  0.50400000000E-02 0. -1.
    8880022    1    1    2    0    0  0.18047475216E+03 -0.50741797741E+03 -0.48672186010E+03  0.74184497173E+03  0.15294330000E+03 0.  0.
    8880022    1    1    2    0    0 -0.18047475216E+03  0.50741797741E+03  0.15765687437E+03  0.58162830314E+03  0.15294330000E+03 0.  0.
<mgrwt>
<rscale>  0 0.55985337E+03</rscale>
<asrwt>0</asrwt>
<pdfrwt beam="1">  1        1 0.12711833E+00 0.55985337E+03</pdfrwt>
<pdfrwt beam="2">  1       -1 0.76492945E-01 0.55985337E+03</pdfrwt>
<totfact> 0.37707737E+01</totfact>
</mgrwt>
</event>
<event>
 4    1  0.1852677E-008  0.1935905E+03  0.7818608E-02  0.1155262E+00
          1   -1    0    0  501    0  0.00000000000E+00  0.00000000000E+00  0.38060544426E+04  0.38060544426E+04  0.50400000000E-02 0. -1.
         -1   -1    0    0    0  501 -0.00000000000E+00 -0.00000000000E+00 -0.35685798573E+02  0.35685798929E+02  0.50400000000E-02 0.  1.
    8880022    1    1    2    0    0 -0.98252385788E+02 -0.66574110716E+02  0.25067092462E+03  0.31672260575E+03  0.15294330000E+03 0.  1.
    8880022    1    1    2    0    0  0.98252385788E+02  0.66574110716E+02  0.35196977194E+04  0.35250176357E+04  0.15294330000E+03 0.  0.
<mgrwt>
<rscale>  0 0.19359054E+03</rscale>
<asrwt>0</asrwt>
<pdfrwt beam="1">  1        1 0.58554651E+00 0.19359054E+03</pdfrwt>
<pdfrwt beam="2">  1       -1 0.54901259E-02 0.19359054E+03</pdfrwt>
<totfact> 0.28791204E+01</totfact>
</mgrwt>
</event>
<event>
 4    1  0.1852677E-008  0.1082501E+04  0.7818608E-02  0.9222417E-01
          1   -1    0    0  501    0  0.00000000000E+00  0.00000000000E+00  0.26534303344E+04  0.26534303344E+04  0.50400000000E-02 0. -1.
         -1   -1    0    0    0  501 -0.00000000000E+00 -0.00000000000E+00 -0.69883904195E+03  0.69883904197E+03  0.50400000000E-02 0.  1.
    8880022    1    1    2    0    0  0.10043660980E+04 -0.37371861575E+03 -0.39589018341E+02  0.10832247255E+04  0.15294330000E+03 0.  0.
    8880022    1    1    2    0    0 -0.10043660980E+04  0.37371861575E+03  0.19941803108E+04  0.22690446508E+04  0.15294330000E+03 0.  0.
<mgrwt>
<rscale>  0 0.10825010E+04</rscale>
<asrwt>0</asrwt>
<pdfrwt beam="1">  1        1 0.40822005E+00 0.10825010E+04</pdfrwt>
<pdfrwt beam="2">  1       -1 0.10751370E+00 0.10825010E+04</pdfrwt>
<totfact> 0.85933815E-01</totfact>
</mgrwt>
</event>
<event>
 4    1  0.1852677E-008  0.5855928E+03  0.7818608E-02  0.9935756E-01
          1   -1    0    0  501    0  0.00000000000E+00  0.00000000000E+00  0.22209326294E+04  0.22209326295E+04  0.50400000000E-02 0. -1.
         -1   -1    0    0    0  501 -0.00000000000E+00 -0.00000000000E+00 -0.19684949142E+03  0.19684949149E+03  0.50400000000E-02 0.  1.
    8880022    1    1    2    0    0  0.60956727316E+02 -0.56197110703E+03  0.15734001475E+04  0.16788409469E+04  0.15294330000E+03 0.  0.
    8880022    1    1    2    0    0 -0.60956727316E+02  0.56197110703E+03  0.45068299049E+03  0.73894117403E+03  0.15294330000E+03 0.  0.
<mgrwt>
<rscale>  0 0.58559278E+03</rscale>
<asrwt>0</asrwt>
<pdfrwt beam="1">  1        1 0.34168195E+00 0.58559278E+03</pdfrwt>
<pdfrwt beam="2">  1       -1 0.30284537E-01 0.58559278E+03</pdfrwt>
<totfact> 0.22648748E+01</totfact>
</mgrwt>
</event>
<event>
 4    1  0.1852677E-008  0.8677576E+03  0.7818608E-02  0.9466808E-01
          1   -1    0    0  501    0  0.00000000000E+00  0.00000000000E+00  0.14237272205E+04  0.14237272205E+04  0.50400000000E-02 0. -1.
         -1   -1    0    0    0  501 -0.00000000000E+00 -0.00000000000E+00 -0.60853520096E+03  0.60853520098E+03  0.50400000000E-02 0.  1.
    8880022    1    1    2    0    0  0.63944704000E+03  0.56632059337E+03  0.39999615644E+02  0.86867897045E+03  0.15294330000E+03 0.  0.
    8880022    1    1    2    0    0 -0.63944704000E+03 -0.56632059337E+03  0.77519240387E+03  0.11635834510E+04  0.15294330000E+03 0.  0.
<mgrwt>
<rscale>  0 0.86775756E+03</rscale>
<asrwt>0</asrwt>
<pdfrwt beam="1">  1        1 0.21903496E+00 0.86775756E+03</pdfrwt>
<pdfrwt beam="2">  1       -1 0.93620801E-01 0.86775756E+03</pdfrwt>
<totfact> 0.83542763E+00</totfact>
</mgrwt>
</event>
<event>
 4    1  0.1852677E-008  0.4001512E+03  0.7818608E-02  0.1043727E+00
         -1   -1    0    0    0  501 -0.00000000000E+00  0.00000000000E+00  0.32930451474E+03  0.32930451477E+03  0.50400000000E-02 0.  1.
          1   -1    0    0  501    0  0.00000000000E+00 -0.00000000000E+00 -0.11142304867E+04  0.11142304867E+04  0.50400000000E-02 0. -1.
    8880022    1    1    2    0    0 -0.36316665636E+03 -0.69565368486E+02 -0.93432206062E+03  0.10164048046E+04  0.15294330000E+03 0.  0.
    8880022    1    1    2    0    0  0.36316665636E+03  0.69565368486E+02  0.14939608867E+03  0.42713019690E+03  0.15294330000E+03 0.  0.
<mgrwt>
<rscale>  0 0.40015124E+03</rscale>
<asrwt>0</asrwt>
<pdfrwt beam="1">  1        1 0.17142007E+00 0.40015124E+03</pdfrwt>
<pdfrwt beam="2">  1       -1 0.50662233E-01 0.40015124E+03</pdfrwt>
<totfact> 0.52059200E+01</totfact>
</mgrwt>
</event>
<event>
 4    1  0.1852677E-008  0.2041670E+03  0.7818608E-02  0.1146270E+00
         -1   -1    0    0    0  501 -0.00000000000E+00  0.00000000000E+00  0.92527645768E+02  0.92527645905E+02  0.50400000000E-02 0.  1.
          1   -1    0    0  501    0  0.00000000000E+00 -0.00000000000E+00 -0.96186292536E+03  0.96186292538E+03  0.50400000000E-02 0. -1.
    8880022    1    1    2    0    0 -0.13353879636E+03 -0.21445316757E+02 -0.50272903801E+02  0.21026537903E+03  0.15294330000E+03 0.  0.
    8880022    1    1    2    0    0  0.13353879636E+03  0.21445316757E+02 -0.81906237579E+03  0.84412519226E+03  0.15294330000E+03 0. -1.
<mgrwt>
<rscale>  0 0.20416700E+03</rscale>
<asrwt>0</asrwt>
<pdfrwt beam="1">  1        1 0.14797891E+00 0.20416700E+03</pdfrwt>
<pdfrwt beam="2">  1       -1 0.14235023E-01 0.20416700E+03</pdfrwt>
<totfact> 0.60285809E+02</totfact>
</mgrwt>
</event>
<event>
 4    1  0.2882606E-008  0.5850303E+03  0.7818608E-02  0.9936959E-01
          1   -1    0    0  501    0  0.00000000000E+00  0.00000000000E+00  0.20904892057E+04  0.20904892057E+04  0.50400000000E-02 0. -1.
         -1   -1    0    0    0  501 -0.00000000000E+00 -0.00000000000E+00 -0.11481585585E+04  0.11481585585E+04  0.50400000000E-02 0.  1.
    8880022    1    1    2    0    0  0.46187006977E+03  0.32487669552E+03  0.19705963927E+04  0.20556046859E+04  0.15294330000E+03 0.  0.
    8880022    1    1    2    0    0 -0.46187006977E+03 -0.32487669552E+03 -0.10282657455E+04  0.11830430783E+04  0.15294330000E+03 0.  0.
<mgrwt>
<rscale>  0 0.58503033E+03</rscale>
<asrwt>0</asrwt>
<pdfrwt beam="1">  1        1 0.32161372E+00 0.58503033E+03</pdfrwt>
<pdfrwt beam="2">  1       -1 0.17663978E+00 0.58503033E+03</pdfrwt>
<totfact> 0.63216500E-01</totfact>
</mgrwt>
</event>
<event>
 4    1  0.1852677E-008  0.3340315E+03  0.7818608E-02  0.1069367E+00
         -1   -1    0    0    0  501 -0.00000000000E+00  0.00000000000E+00  0.23593265898E+03  0.23593265904E+03  0.50400000000E-02 0.  1.
          1   -1    0    0  501    0  0.00000000000E+00 -0.00000000000E+00 -0.57198455980E+03  0.57198455982E+03  0.50400000000E-02 0. -1.
    8880022    1    1    2    0    0  0.24500926419E+03 -0.16779713013E+03  0.88778687096E-01  0.33403155137E+03  0.15294330000E+03 0.  0.
    8880022    1    1    2    0    0 -0.24500926419E+03  0.16779713013E+03 -0.33614067950E+03  0.47388566748E+03  0.15294330000E+03 0.  0.
<mgrwt>
<rscale>  0 0.33403154E+03</rscale>
<asrwt>0</asrwt>
<pdfrwt beam="1">  1        1 0.87997624E-01 0.33403154E+03</pdfrwt>
<pdfrwt beam="2">  1       -1 0.36297332E-01 0.33403154E+03</pdfrwt>
<totfact> 0.27650053E+02</totfact>
</mgrwt>
</event>
<event>
 4    1  0.1852677E-008  0.2834168E+03  0.7818608E-02  0.1093837E+00
          1   -1    0    0  501    0  0.00000000000E+00  0.00000000000E+00  0.88643196665E+03  0.88643196667E+03  0.50400000000E-02 0. -1.
         -1   -1    0    0    0  501 -0.00000000000E+00 -0.00000000000E+00 -0.54240644201E+03  0.54240644204E+03  0.50400000000E-02 0.  1.
    8880022    1    1    2    0    0 -0.23860688590E+03  0.40114614633E+00  0.82403009972E+03  0.87140729006E+03  0.15294330000E+03 0.  0.
    8880022    1    1    2    0    0  0.23860688590E+03 -0.40114614633E+00 -0.48000457508E+03  0.55743111864E+03  0.15294330000E+03 0.  1.
<mgrwt>
<rscale>  0 0.28341676E+03</rscale>
<asrwt>0</asrwt>
<pdfrwt beam="1">  1        1 0.13637415E+00 0.28341676E+03</pdfrwt>
<pdfrwt beam="2">  1       -1 0.83447146E-01 0.28341676E+03</pdfrwt>
<totfact> 0.29633112E+01</totfact>
</mgrwt>
</event>
<event>
 4    1  0.1852677E-008  0.5785028E+03  0.7818608E-02  0.9951038E-01
         -1   -1    0    0    0  501 -0.00000000000E+00  0.00000000000E+00  0.49452042281E+03  0.49452042284E+03  0.50400000000E-02 0.  1.
          1   -1    0    0  501    0  0.00000000000E+00 -0.00000000000E+00 -0.77923118090E+03  0.77923118091E+03  0.50400000000E-02 0. -1.
    8880022    1    1    2    0    0 -0.16184967075E+03 -0.53392744504E+03 -0.37332179480E+03  0.68850174144E+03  0.15294330000E+03 0.  0.
    8880022    1    1    2    0    0  0.16184967075E+03  0.53392744504E+03  0.88611036716E+02  0.58524986231E+03  0.15294330000E+03 0.  0.
<mgrwt>
<rscale>  0 0.57850280E+03</rscale>
<asrwt>0</asrwt>
<pdfrwt beam="1">  1        1 0.11988172E+00 0.57850280E+03</pdfrwt>
<pdfrwt beam="2">  1       -1 0.76080065E-01 0.57850280E+03</pdfrwt>
<totfact> 0.41745312E+01</totfact>
</mgrwt>
</event>
<event>
 4    1  0.1852677E-008  0.9214708E+03  0.7818608E-02  0.9399133E-01
         -1   -1    0    0    0  501 -0.00000000000E+00  0.00000000000E+00  0.74264596277E+03  0.74264596279E+03  0.50400000000E-02 0.  1.
          1   -1    0    0  501    0  0.00000000000E+00 -0.00000000000E+00 -0.17111005441E+04  0.17111005441E+04  0.50400000000E-02 0. -1.
    8880022    1    1    2    0    0 -0.67431666410E+03 -0.60910908896E+03  0.22247830709E+03  0.94794783394E+03  0.15294330000E+03 0.  1.
    8880022    1    1    2    0    0  0.67431666410E+03  0.60910908896E+03 -0.11909328884E+04  0.15057986729E+04  0.15294330000E+03 0.  0.
<mgrwt>
<rscale>  0 0.92147083E+03</rscale>
<asrwt>0</asrwt>
<pdfrwt beam="1">  1        1 0.26324624E+00 0.92147083E+03</pdfrwt>
<pdfrwt beam="2">  1       -1 0.11425323E+00 0.92147083E+03</pdfrwt>
<totfact> 0.33260551E+00</totfact>
</mgrwt>
</event>
<event>
 4    1  0.1852677E-008  0.1329484E+04  0.7818608E-02  0.9006506E-01
          1   -1    0    0  501    0  0.00000000000E+00  0.00000000000E+00  0.93607880087E+03  0.93607880088E+03  0.50400000000E-02 0. -1.
         -1   -1    0    0    0  501 -0.00000000000E+00 -0.00000000000E+00 -0.22292580434E+04  0.22292580434E+04  0.50400000000E-02 0.  1.
    8880022    1    1    2    0    0 -0.10869762260E+04  0.75007868232E+03 -0.12656147303E+04  0.18355673902E+04  0.15294330000E+03 0.  0.
    8880022    1    1    2    0    0  0.10869762260E+04 -0.75007868232E+03 -0.27564512189E+02  0.13297694540E+04  0.15294330000E+03 0.  0.
<mgrwt>
<rscale>  0 0.13294837E+04</rscale>
<asrwt>0</asrwt>
<pdfrwt beam="1">  1        1 0.14401212E+00 0.13294837E+04</pdfrwt>
<pdfrwt beam="2">  1       -1 0.34296277E+00 0.13294837E+04</pdfrwt>
<totfact> 0.28607334E-01</totfact>
</mgrwt>
</event>
<event>
 4    1  0.1852677E-008  0.6029049E+03  0.7818608E-02  0.9899397E-01
          1   -1    0    0  501    0  0.00000000000E+00  0.00000000000E+00  0.11479305247E+04  0.11479305247E+04  0.50400000000E-02 0. -1.
         -1   -1    0    0    0  501 -0.00000000000E+00 -0.00000000000E+00 -0.95098228957E+03  0.95098228958E+03  0.50400000000E-02 0.  1.
    8880022    1    1    2    0    0  0.35641040240E+03  0.46159976509E+03  0.95558291168E+03  0.11298818842E+04  0.15294330000E+03 0.  0.
    8880022    1    1    2    0    0 -0.35641040240E+03 -0.46159976509E+03 -0.75863467654E+03  0.96903093012E+03  0.15294330000E+03 0.  0.
<mgrwt>
<rscale>  0 0.60290494E+03</rscale>
<asrwt>0</asrwt>
<pdfrwt beam="1">  1        1 0.17660470E+00 0.60290494E+03</pdfrwt>
<pdfrwt beam="2">  1       -1 0.14630497E+00 0.60290494E+03</pdfrwt>
<totfact> 0.46440177E+00</totfact>
</mgrwt>
</event>
<event>
 4    1  0.1852677E-008  0.3886112E+03  0.7818608E-02  0.1047796E+00
          1   -1    0    0  501    0  0.00000000000E+00  0.00000000000E+00  0.25962918474E+03  0.25962918479E+03  0.50400000000E-02 0. -1.
         -1   -1    0    0    0  501 -0.00000000000E+00 -0.00000000000E+00 -0.62447942664E+03  0.62447942666E+03  0.50400000000E-02 0.  1.
    8880022    1    1    2    0    0 -0.12343490248E+03 -0.33524737603E+03 -0.66685021128E+02  0.39429116569E+03  0.15294330000E+03 0. -1.
    8880022    1    1    2    0    0  0.12343490248E+03  0.33524737603E+03 -0.29816522077E+03  0.48981744576E+03  0.15294330000E+03 0.  1.
<mgrwt>
<rscale>  0 0.38861116E+03</rscale>
<asrwt>0</asrwt>
<pdfrwt beam="1">  1        1 0.39942952E-01 0.38861116E+03</pdfrwt>
<pdfrwt beam="2">  1       -1 0.96073757E-01 0.38861116E+03</pdfrwt>
<totfact> 0.11535397E+02</totfact>
</mgrwt>
</event>
<event>
 4    1  0.1852677E-008  0.6865129E+03  0.7818608E-02  0.9740579E-01
          1   -1    0    0  501    0  0.00000000000E+00  0.00000000000E+00  0.65660718415E+03  0.65660718417E+03  0.50400000000E-02 0. -1.
         -1   -1    0    0    0  501 -0.00000000000E+00 -0.00000000000E+00 -0.13794052896E+04  0.13794052896E+04  0.50400000000E-02 0.  1.
    8880022    1    1    2    0    0  0.66381684974E+03  0.85179216698E+02  0.34363535962E+03  0.76771428432E+03  0.15294330000E+03 0. -1.
    8880022    1    1    2    0    0 -0.66381684974E+03 -0.85179216698E+02 -0.10664334651E+04  0.12682981895E+04  0.15294330000E+03 0.  0.
<mgrwt>
<rscale>  0 0.68651290E+03</rscale>
<asrwt>0</asrwt>
<pdfrwt beam="1">  1        1 0.10101649E+00 0.68651290E+03</pdfrwt>
<pdfrwt beam="2">  1       -1 0.21221620E+00 0.68651290E+03</pdfrwt>
<totfact> 0.39093717E+00</totfact>
</mgrwt>
</event>
<event>
 4    1  0.1852677E-008  0.9904740E+03  0.7818608E-02  0.9319055E-01
         -1   -1    0    0    0  501 -0.00000000000E+00  0.00000000000E+00  0.15213110899E+04  0.15213110899E+04  0.50400000000E-02 0.  1.
          1   -1    0    0  501    0  0.00000000000E+00 -0.00000000000E+00 -0.72505398760E+03  0.72505398762E+03  0.50400000000E-02 0. -1.
    8880022    1    1    2    0    0 -0.10916908616E+03  0.97248613552E+03  0.24598870543E+02  0.99077945608E+03  0.15294330000E+03 0.  0.
    8880022    1    1    2    0    0  0.10916908616E+03 -0.97248613552E+03  0.77165823176E+03  0.12555856215E+04  0.15294330000E+03 0.  0.
<mgrwt>
<rscale>  0 0.99047404E+03</rscale>
<asrwt>0</asrwt>
<pdfrwt beam="1">  1        1 0.11154677E+00 0.99047404E+03</pdfrwt>
<pdfrwt beam="2">  1       -1 0.23404786E+00 0.99047404E+03</pdfrwt>
<totfact> 0.23084871E+00</totfact>
</mgrwt>
</event>
<event>
 4    1  0.1852677E-008  0.2249009E+03  0.7818608E-02  0.1130281E+00
         -1   -1    0    0    0  501 -0.00000000000E+00  0.00000000000E+00  0.97404595237E+03  0.97404595239E+03  0.50400000000E-02 0.  1.
          1   -1    0    0  501    0  0.00000000000E+00 -0.00000000000E+00 -0.62836377734E+03  0.62836377736E+03  0.50400000000E-02 0. -1.
    8880022    1    1    2    0    0 -0.13823239101E+03  0.89892000138E+02 -0.59454409439E+03  0.63565957776E+03  0.15294330000E+03 0.  0.
    8880022    1    1    2    0    0  0.13823239101E+03 -0.89892000138E+02  0.94022626943E+03  0.96675015198E+03  0.15294330000E+03 0.  0.
<mgrwt>
<rscale>  0 0.22490091E+03</rscale>
<asrwt>0</asrwt>
<pdfrwt beam="1">  1        1 0.96671351E-01 0.22490091E+03</pdfrwt>
<pdfrwt beam="2">  1       -1 0.14985322E+00 0.22490091E+03</pdfrwt>
<totfact> 0.12939820E+01</totfact>
</mgrwt>
</event>
<event>
 4    1  0.1852677E-008  0.3562337E+03  0.7818608E-02  0.1060085E+00
         -1   -1    0    0    0  501 -0.00000000000E+00  0.00000000000E+00  0.81806802884E+03  0.81806802886E+03  0.50400000000E-02 0.  1.
          1   -1    0    0  501    0  0.00000000000E+00 -0.00000000000E+00 -0.13332258013E+04  0.13332258013E+04  0.50400000000E-02 0. -1.
    8880022    1    1    2    0    0  0.11055894197E+03 -0.30213829820E+03  0.75355619561E+03  0.83351630089E+03  0.15294330000E+03 0.  0.
    8880022    1    1    2    0    0 -0.11055894197E+03  0.30213829820E+03 -0.12687139681E+04  0.13177775293E+04  0.15294330000E+03 0.  0.
<mgrwt>
<rscale>  0 0.35623375E+03</rscale>
<asrwt>0</asrwt>
<pdfrwt beam="1">  1        1 0.20511166E+00 0.35623375E+03</pdfrwt>
<pdfrwt beam="2">  1       -1 0.12585662E+00 0.35623375E+03</pdfrwt>
<totfact> 0.53802348E+00</totfact>
</mgrwt>
</event>
<event>
 4    1  0.1852677E-008  0.6926089E+03  0.7818608E-02  0.9729956E-01
          1   -1    0    0  501    0  0.00000000000E+00  0.00000000000E+00  0.13210526905E+04  0.13210526905E+04  0.50400000000E-02 0. -1.
         -1   -1    0    0    0  501 -0.00000000000E+00 -0.00000000000E+00 -0.60567608520E+03  0.60567608522E+03  0.50400000000E-02 0.  1.
    8880022    1    1    2    0    0 -0.50767280904E+03 -0.44562740410E+03  0.96732637531E+03  0.11897173756E+04  0.15294330000E+03 0.  0.
    8880022    1    1    2    0    0  0.50767280904E+03  0.44562740410E+03 -0.25194977003E+03  0.73701140016E+03  0.15294330000E+03 0.  0.
<mgrwt>
<rscale>  0 0.69260892E+03</rscale>
<asrwt>0</asrwt>
<pdfrwt beam="1">  1        1 0.20323887E+00 0.69260892E+03</pdfrwt>
<pdfrwt beam="2">  1       -1 0.93180938E-01 0.69260892E+03</pdfrwt>
<totfact> 0.10210836E+01</totfact>
</mgrwt>
</event>
<event>
 4    1  0.1852677E-008  0.6833085E+03  0.7818608E-02  0.9746210E-01
         -1   -1    0    0    0  501 -0.00000000000E+00  0.00000000000E+00  0.88862630320E+03  0.88862630322E+03  0.50400000000E-02 0.  1.
          1   -1    0    0  501    0  0.00000000000E+00 -0.00000000000E+00 -0.86737650801E+03  0.86737650803E+03  0.50400000000E-02 0. -1.
    8880022    1    1    2    0    0  0.35387538313E+03 -0.56417290742E+03  0.56190302587E+03  0.88467254945E+03  0.15294330000E+03 0.  0.
    8880022    1    1    2    0    0 -0.35387538313E+03  0.56417290742E+03 -0.54065323068E+03  0.87133026179E+03  0.15294330000E+03 0.  0.
<mgrwt>
<rscale>  0 0.68330850E+03</rscale>
<asrwt>0</asrwt>
<pdfrwt beam="1">  1        1 0.13344254E+00 0.68330850E+03</pdfrwt>
<pdfrwt beam="2">  1       -1 0.13671174E+00 0.68330850E+03</pdfrwt>
<totfact> 0.90000711E+00</totfact>
</mgrwt>
</event>
<event>
 4    1  0.1852677E-008  0.4019657E+03  0.7818608E-02  0.1043101E+00
          1   -1    0    0  501    0  0.00000000000E+00  0.00000000000E+00  0.10654653826E+04  0.10654653826E+04  0.50400000000E-02 0. -1.
         -1   -1    0    0    0  501 -0.00000000000E+00 -0.00000000000E+00 -0.90247828380E+03  0.90247828381E+03  0.50400000000E-02 0.  1.
    8880022    1    1    2    0    0 -0.19970606345E+03 -0.31353187287E+03  0.97899464092E+03  0.10583037877E+04  0.15294330000E+03 0.  0.
    8880022    1    1    2    0    0  0.19970606345E+03  0.31353187287E+03 -0.81600754214E+03  0.90963987870E+03  0.15294330000E+03 0.  0.
<mgrwt>
<rscale>  0 0.40196567E+03</rscale>
<asrwt>0</asrwt>
<pdfrwt beam="1">  1        1 0.16391775E+00 0.40196567E+03</pdfrwt>
<pdfrwt beam="2">  1       -1 0.13884281E+00 0.40196567E+03</pdfrwt>
<totfact> 0.64263080E+00</totfact>
</mgrwt>
</event>
<event>
 4    1  0.1852677E-008  0.5958538E+03  0.7818608E-02  0.9914046E-01
         -1   -1    0    0    0  501 -0.00000000000E+00  0.00000000000E+00  0.80519857289E+03  0.80519857291E+03  0.50400000000E-02 0.  1.
          1   -1    0    0  501    0  0.00000000000E+00 -0.00000000000E+00 -0.16480329350E+04  0.16480329351E+04  0.50400000000E-02 0. -1.
    8880022    1    1    2    0    0  0.54924417211E+03 -0.17314987162E+03 -0.14711928978E+04  0.15872776172E+04  0.15294330000E+03 0.  0.
    8880022    1    1    2    0    0 -0.54924417211E+03  0.17314987162E+03  0.62835853561E+03  0.86595389076E+03  0.15294330000E+03 0.  0.
<mgrwt>
<rscale>  0 0.59585375E+03</rscale>
<asrwt>0</asrwt>
<pdfrwt beam="1">  1        1 0.25354353E+00 0.59585375E+03</pdfrwt>
<pdfrwt beam="2">  1       -1 0.12387670E+00 0.59585375E+03</pdfrwt>
<totfact> 0.31971590E+00</totfact>
</mgrwt>
</event>
<event>
 4    1  0.1852677E-008  0.1246259E+04  0.7818608E-02  0.9073303E-01
          1   -1    0    0  501    0  0.00000000000E+00  0.00000000000E+00  0.28783425015E+04  0.28783425015E+04  0.50400000000E-02 0. -1.
         -1   -1    0    0    0  501 -0.00000000000E+00 -0.00000000000E+00 -0.12836780156E+04  0.12836780156E+04  0.50400000000E-02 0.  1.
    8880022    1    1    2    0    0  0.24326270413E+03  0.12126799221E+04 -0.78703063462E+03  0.14739668278E+04  0.15294330000E+03 0.  0.
    8880022    1    1    2    0    0 -0.24326270413E+03 -0.12126799221E+04  0.23816951205E+04  0.26880536893E+04  0.15294330000E+03 0.  0.
<mgrwt>
<rscale>  0 0.12462588E+04</rscale>
<asrwt>0</asrwt>
<pdfrwt beam="1">  1        1 0.44282192E+00 0.12462588E+04</pdfrwt>
<pdfrwt beam="2">  1       -1 0.19748893E+00 0.12462588E+04</pdfrwt>
<totfact> 0.11270568E-01</totfact>
</mgrwt>
</event>
<event>
 4    1  0.1852677E-008  0.4240803E+03  0.7818608E-02  0.1035746E+00
          1   -1    0    0  501    0  0.00000000000E+00  0.00000000000E+00  0.11694985155E+04  0.11694985155E+04  0.50400000000E-02 0. -1.
         -1   -1    0    0    0  501 -0.00000000000E+00 -0.00000000000E+00 -0.59852376878E+03  0.59852376880E+03  0.50400000000E-02 0.  1.
    8880022    1    1    2    0    0  0.39303326145E+03 -0.44466844410E+02 -0.47654347322E+03  0.63791674986E+03  0.15294330000E+03 0.  1.
    8880022    1    1    2    0    0 -0.39303326145E+03  0.44466844410E+02  0.10475182199E+04  0.11301055344E+04  0.15294330000E+03 0.  0.
<mgrwt>
<rscale>  0 0.42408030E+03</rscale>
<asrwt>0</asrwt>
<pdfrwt beam="1">  1        1 0.17992285E+00 0.42408030E+03</pdfrwt>
<pdfrwt beam="2">  1       -1 0.92080580E-01 0.42408030E+03</pdfrwt>
<totfact> 0.14148592E+01</totfact>
</mgrwt>
</event>
<event>
 4    1  0.1852677E-008  0.3522821E+03  0.7818608E-02  0.1061682E+00
         -1   -1    0    0    0  501 -0.00000000000E+00  0.00000000000E+00  0.19980065402E+03  0.19980065409E+03  0.50400000000E-02 0.  1.
          1   -1    0    0  501    0  0.00000000000E+00 -0.00000000000E+00 -0.15374500895E+04  0.15374500895E+04  0.50400000000E-02 0. -1.
    8880022    1    1    2    0    0 -0.11999778276E+03  0.29378829841E+03  0.17620858976E+01  0.35228651707E+03  0.15294330000E+03 0.  0.
    8880022    1    1    2    0    0  0.11999778276E+03 -0.29378829841E+03 -0.13394115214E+04  0.13849642265E+04  0.15294330000E+03 0.  0.
<mgrwt>
<rscale>  0 0.35228211E+03</rscale>
<asrwt>0</asrwt>
<pdfrwt beam="1">  1        1 0.23653078E+00 0.35228211E+03</pdfrwt>
<pdfrwt beam="2">  1       -1 0.30738563E-01 0.35228211E+03</pdfrwt>
<totfact> 0.65639941E+01</totfact>
</mgrwt>
</event>
<event>
 4    1  0.1852677E-008  0.2842004E+03  0.7818608E-02  0.1093417E+00
          1   -1    0    0  501    0  0.00000000000E+00  0.00000000000E+00  0.24721992780E+03  0.24721992785E+03  0.50400000000E-02 0. -1.
         -1   -1    0    0    0  501 -0.00000000000E+00 -0.00000000000E+00 -0.17268635073E+04  0.17268635073E+04  0.50400000000E-02 0.  1.
    8880022    1    1    2    0    0 -0.23773135212E+03 -0.29359836256E+02  0.14895752047E+03  0.32087098916E+03  0.15294330000E+03 0. -1.
    8880022    1    1    2    0    0  0.23773135212E+03  0.29359836256E+02 -0.16286011000E+04  0.16532124460E+04  0.15294330000E+03 0.  0.
<mgrwt>
<rscale>  0 0.28420037E+03</rscale>
<asrwt>0</asrwt>
<pdfrwt beam="1">  1        1 0.38033836E-01 0.28420037E+03</pdfrwt>
<pdfrwt beam="2">  1       -1 0.26567130E+00 0.28420037E+03</pdfrwt>
<totfact> 0.71244299E+00</totfact>
</mgrwt>
</event>
<event>
 4    1  0.1852677E-008  0.3636535E+03  0.7818608E-02  0.1057147E+00
         -1   -1    0    0    0  501 -0.00000000000E+00  0.00000000000E+00  0.14816371389E+03  0.14816371398E+03  0.50400000000E-02 0.  1.
          1   -1    0    0  501    0  0.00000000000E+00 -0.00000000000E+00 -0.16423849798E+04  0.16423849799E+04  0.50400000000E-02 0. -1.
    8880022    1    1    2    0    0 -0.11370933489E+03 -0.30971338213E+03 -0.13520347189E+04  0.14000863280E+04  0.15294330000E+03 0.  0.
    8880022    1    1    2    0    0  0.11370933489E+03  0.30971338213E+03 -0.14218654708E+03  0.39046236579E+03  0.15294330000E+03 0.  0.
<mgrwt>
<rscale>  0 0.36365347E+03</rscale>
<asrwt>0</asrwt>
<pdfrwt beam="1">  1        1 0.25267460E+00 0.36365347E+03</pdfrwt>
<pdfrwt beam="2">  1       -1 0.22794419E-01 0.36365347E+03</pdfrwt>
<totfact> 0.92504763E+01</totfact>
</mgrwt>
</event>
<event>
 4    1  0.1852677E-008  0.5771966E+03  0.7818608E-02  0.9953879E-01
          1   -1    0    0  501    0  0.00000000000E+00  0.00000000000E+00  0.19985810238E+04  0.19985810238E+04  0.50400000000E-02 0. -1.
         -1   -1    0    0    0  501 -0.00000000000E+00 -0.00000000000E+00 -0.45997487845E+03  0.45997487848E+03  0.50400000000E-02 0.  1.
    8880022    1    1    2    0    0  0.55371465575E+03 -0.56252241827E+02  0.17508775810E+04  0.18435639916E+04  0.15294330000E+03 0.  0.
    8880022    1    1    2    0    0 -0.55371465575E+03  0.56252241827E+02 -0.21227143566E+03  0.61499191061E+03  0.15294330000E+03 0.  0.
<mgrwt>
<rscale>  0 0.57719658E+03</rscale>
<asrwt>0</asrwt>
<pdfrwt beam="1">  1        1 0.30747400E+00 0.57719658E+03</pdfrwt>
<pdfrwt beam="2">  1       -1 0.70765368E-01 0.57719658E+03</pdfrwt>
<totfact> 0.65332943E+00</totfact>
</mgrwt>
</event>
<event>
 4    1  0.1852677E-008  0.2651419E+03  0.7818608E-02  0.1104093E+00
          1   -1    0    0  501    0  0.00000000000E+00  0.00000000000E+00  0.53586056637E+03  0.53586056640E+03  0.50400000000E-02 0. -1.
         -1   -1    0    0    0  501 -0.00000000000E+00 -0.00000000000E+00 -0.21348248848E+03  0.21348248854E+03  0.50400000000E-02 0.  1.
    8880022    1    1    2    0    0  0.29765324687E+02  0.21452878386E+03 -0.71430567644E+02  0.27459525245E+03  0.15294330000E+03 0.  1.
    8880022    1    1    2    0    0 -0.29765324687E+02 -0.21452878386E+03  0.39380864554E+03  0.47474780249E+03  0.15294330000E+03 0.  0.
<mgrwt>
<rscale>  0 0.26514190E+03</rscale>
<asrwt>0</asrwt>
<pdfrwt beam="1">  1        1 0.82440086E-01 0.26514190E+03</pdfrwt>
<pdfrwt beam="2">  1       -1 0.32843460E-01 0.26514190E+03</pdfrwt>
<totfact> 0.36208540E+02</totfact>
</mgrwt>
</event>
<event>
 4    1  0.1852677E-008  0.1130848E+04  0.7818608E-02  0.9175636E-01
          1   -1    0    0  501    0  0.00000000000E+00  0.00000000000E+00  0.90251196054E+03  0.90251196055E+03  0.50400000000E-02 0. -1.
         -1   -1    0    0    0  501 -0.00000000000E+00 -0.00000000000E+00 -0.28343649801E+04  0.28343649801E+04  0.50400000000E-02 0.  1.
    8880022    1    1    2    0    0 -0.65128551861E+03 -0.91173064981E+03  0.35536585340E+03  0.11853700466E+04  0.15294330000E+03 0.  0.
    8880022    1    1    2    0    0  0.65128551861E+03  0.91173064981E+03 -0.22872188729E+04  0.25515068940E+04  0.15294330000E+03 0.  0.
<mgrwt>
<rscale>  0 0.11308480E+04</rscale>
<asrwt>0</asrwt>
<pdfrwt beam="1">  1        1 0.13884800E+00 0.11308480E+04</pdfrwt>
<pdfrwt beam="2">  1       -1 0.43605615E+00 0.11308480E+04</pdfrwt>
<totfact> 0.73430450E-02</totfact>
</mgrwt>
</event>
<event>
 4    1  0.1852677E-008  0.8166300E+03  0.7818608E-02  0.9536253E-01
          1   -1    0    0  501    0  0.00000000000E+00  0.00000000000E+00  0.69942231958E+03  0.69942231960E+03  0.50400000000E-02 0. -1.
         -1   -1    0    0    0  501 -0.00000000000E+00 -0.00000000000E+00 -0.13394833918E+04  0.13394833918E+04  0.50400000000E-02 0.  1.
    8880022    1    1    2    0    0 -0.44250896859E+03 -0.66908794966E+03 -0.86729163523E+03  0.11912511512E+04  0.15294330000E+03 0.  1.
    8880022    1    1    2    0    0  0.44250896859E+03  0.66908794966E+03  0.22723056302E+03  0.84765456021E+03  0.15294330000E+03 0.  0.
<mgrwt>
<rscale>  0 0.81662998E+03</rscale>
<asrwt>0</asrwt>
<pdfrwt beam="1">  1        1 0.10760343E+00 0.81662998E+03</pdfrwt>
<pdfrwt beam="2">  1       -1 0.20607437E+00 0.81662998E+03</pdfrwt>
<totfact> 0.38345477E+00</totfact>
</mgrwt>
</event>
<event>
 4    1  0.1852677E-008  0.7599303E+03  0.7818608E-02  0.9619899E-01
         -1   -1    0    0    0  501 -0.00000000000E+00  0.00000000000E+00  0.85924362539E+03  0.85924362541E+03  0.50400000000E-02 0.  1.
          1   -1    0    0  501    0  0.00000000000E+00 -0.00000000000E+00 -0.12693835845E+04  0.12693835846E+04  0.50400000000E-02 0. -1.
    8880022    1    1    2    0    0 -0.41676832410E+03  0.61677102792E+03  0.52500087135E+03  0.92364490189E+03  0.15294330000E+03 0.  0.
    8880022    1    1    2    0    0  0.41676832410E+03 -0.61677102792E+03 -0.93514083051E+03  0.12049823081E+04  0.15294330000E+03 0.  0.
<mgrwt>
<rscale>  0 0.75993025E+03</rscale>
<asrwt>0</asrwt>
<pdfrwt beam="1">  1        1 0.19528978E+00 0.75993025E+03</pdfrwt>
<pdfrwt beam="2">  1       -1 0.13219133E+00 0.75993025E+03</pdfrwt>
<totfact> 0.47989512E+00</totfact>
</mgrwt>
</event>
<event>
 4    1  0.1852677E-008  0.7537459E+03  0.7818608E-02  0.9629492E-01
         -1   -1    0    0    0  501 -0.00000000000E+00  0.00000000000E+00  0.28191557658E+03  0.28191557662E+03  0.50400000000E-02 0.  1.
          1   -1    0    0  501    0  0.00000000000E+00 -0.00000000000E+00 -0.34608905681E+04  0.34608905681E+04  0.50400000000E-02 0. -1.
    8880022    1    1    2    0    0  0.52778088418E+03  0.51593460069E+03 -0.27989774253E+04  0.28986906448E+04  0.15294330000E+03 0.  0.
    8880022    1    1    2    0    0 -0.52778088418E+03 -0.51593460069E+03 -0.37999756626E+03  0.84411549996E+03  0.15294330000E+03 0.  0.
<mgrwt>
<rscale>  0 0.75374586E+03</rscale>
<asrwt>0</asrwt>
<pdfrwt beam="1">  1        1 0.53244467E+00 0.75374586E+03</pdfrwt>
<pdfrwt beam="2">  1       -1 0.43371630E-01 0.75374586E+03</pdfrwt>
<totfact> 0.15285971E+00</totfact>
</mgrwt>
</event>
<event>
 4    1  0.1852677E-008  0.5613377E+03  0.7818608E-02  0.9989032E-01
          1   -1    0    0  501    0  0.00000000000E+00  0.00000000000E+00  0.22832263983E+04  0.22832263983E+04  0.50400000000E-02 0. -1.
         -1   -1    0    0    0  501 -0.00000000000E+00 -0.00000000000E+00 -0.37583069917E+03  0.37583069920E+03  0.50400000000E-02 0.  1.
    8880022    1    1    2    0    0 -0.41095589070E+03  0.35046196173E+03  0.20113177231E+04  0.20881807793E+04  0.15294330000E+03 0.  0.
    8880022    1    1    2    0    0  0.41095589070E+03 -0.35046196173E+03 -0.10392202389E+03  0.57087631829E+03  0.15294330000E+03 0.  0.
<mgrwt>
<rscale>  0 0.56133767E+03</rscale>
<asrwt>0</asrwt>
<pdfrwt beam="1">  1        1 0.35126559E+00 0.56133767E+03</pdfrwt>
<pdfrwt beam="2">  1       -1 0.57820108E-01 0.56133767E+03</pdfrwt>
<totfact> 0.63378983E+00</totfact>
</mgrwt>
</event>
<event>
 4    1  0.1852677E-008  0.6802139E+03  0.7818608E-02  0.9751680E-01
         -1   -1    0    0    0  501 -0.00000000000E+00  0.00000000000E+00  0.16288496289E+04  0.16288496289E+04  0.50400000000E-02 0.  1.
          1   -1    0    0  501    0  0.00000000000E+00 -0.00000000000E+00 -0.49526847533E+03  0.49526847536E+03  0.50400000000E-02 0. -1.
    8880022    1    1    2    0    0  0.74667222073E+02  0.65857728977E+03  0.12603506379E+04  0.14321922442E+04  0.15294330000E+03 0.  0.
    8880022    1    1    2    0    0 -0.74667222073E+02 -0.65857728977E+03 -0.12676948440E+03  0.69192586008E+03  0.15294330000E+03 0.  0.
<mgrwt>
<rscale>  0 0.68021386E+03</rscale>
<asrwt>0</asrwt>
<pdfrwt beam="1">  1        1 0.76195152E-01 0.68021386E+03</pdfrwt>
<pdfrwt beam="2">  1       -1 0.25059224E+00 0.68021386E+03</pdfrwt>
<totfact> 0.32728656E+00</totfact>
</mgrwt>
</event>
<event>
 4    1  0.1852677E-008  0.4180032E+03  0.7818608E-02  0.1037718E+00
          1   -1    0    0  501    0  0.00000000000E+00  0.00000000000E+00  0.11637217747E+04  0.11637217748E+04  0.50400000000E-02 0. -1.
         -1   -1    0    0    0  501 -0.00000000000E+00 -0.00000000000E+00 -0.35790235585E+03  0.35790235588E+03  0.50400000000E-02 0.  1.
    8880022    1    1    2    0    0  0.38877873892E+03  0.13642743787E+02  0.98257007354E+03  0.10677877292E+04  0.15294330000E+03 0.  0.
    8880022    1    1    2    0    0 -0.38877873892E+03 -0.13642743787E+02 -0.17675065464E+03  0.45383640139E+03  0.15294330000E+03 0.  0.
<mgrwt>
<rscale>  0 0.41800321E+03</rscale>
<asrwt>0</asrwt>
<pdfrwt beam="1">  1        1 0.17903412E+00 0.41800321E+03</pdfrwt>
<pdfrwt beam="2">  1       -1 0.55061900E-01 0.41800321E+03</pdfrwt>
<totfact> 0.40806977E+01</totfact>
</mgrwt>
</event>
<event>
 4    1  0.1852677E-008  0.1656438E+03  0.7818608E-02  0.1182468E+00
         -1   -1    0    0    0  501 -0.00000000000E+00  0.00000000000E+00  0.39332121282E+03  0.39332121285E+03  0.50400000000E-02 0.  1.
          1   -1    0    0  501    0  0.00000000000E+00 -0.00000000000E+00 -0.19184026443E+04  0.19184026443E+04  0.50400000000E-02 0. -1.
    8880022    1    1    2    0    0  0.49345971669E+02  0.40139639526E+02  0.37211113573E+03  0.40731384205E+03  0.15294330000E+03 0.  0.
    8880022    1    1    2    0    0 -0.49345971669E+02 -0.40139639526E+02 -0.18971925672E+04  0.19044100151E+04  0.15294330000E+03 0. -1.
<mgrwt>
<rscale>  0 0.16564380E+03</rscale>
<asrwt>0</asrwt>
<pdfrwt beam="1">  1        1 0.29513886E+00 0.16564380E+03</pdfrwt>
<pdfrwt beam="2">  1       -1 0.60510957E-01 0.16564380E+03</pdfrwt>
<totfact> 0.11796674E+01</totfact>
</mgrwt>
</event>
<event>
 4    1  0.1852677E-008  0.4262802E+03  0.7818608E-02  0.1035042E+00
          1   -1    0    0  501    0  0.00000000000E+00  0.00000000000E+00  0.16826078716E+04  0.16826078716E+04  0.50400000000E-02 0. -1.
         -1   -1    0    0    0  501 -0.00000000000E+00 -0.00000000000E+00 -0.17154568407E+03  0.17154568414E+03  0.50400000000E-02 0.  1.
    8880022    1    1    2    0    0 -0.13912167762E+03  0.37278448735E+03  0.19126648688E+03  0.46722332691E+03  0.15294330000E+03 0.  0.
    8880022    1    1    2    0    0  0.13912167762E+03 -0.37278448735E+03  0.13197957006E+04  0.13869302288E+04  0.15294330000E+03 0.  0.
<mgrwt>
<rscale>  0 0.42628015E+03</rscale>
<asrwt>0</asrwt>
<pdfrwt beam="1">  1        1 0.25886275E+00 0.42628015E+03</pdfrwt>
<pdfrwt beam="2">  1       -1 0.26391643E-01 0.42628015E+03</pdfrwt>
<totfact> 0.67186815E+01</totfact>
</mgrwt>
</event>
<event>
 4    1  0.1852677E-008  0.6827110E+03  0.7818608E-02  0.9747264E-01
         -1   -1    0    0    0  501 -0.00000000000E+00  0.00000000000E+00  0.18114613688E+04  0.18114613689E+04  0.50400000000E-02 0.  1.
          1   -1    0    0  501    0  0.00000000000E+00 -0.00000000000E+00 -0.44219236500E+03  0.44219236502E+03  0.50400000000E-02 0. -1.
    8880022    1    1    2    0    0 -0.29239758651E+03  0.59766743052E+03 -0.43996413777E+02  0.68412721299E+03  0.15294330000E+03 0.  0.
    8880022    1    1    2    0    0  0.29239758651E+03 -0.59766743052E+03  0.14132654176E+04  0.15695265209E+04  0.15294330000E+03 0.  0.
<mgrwt>
<rscale>  0 0.68271104E+03</rscale>
<asrwt>0</asrwt>
<pdfrwt beam="1">  1        1 0.68029594E-01 0.68271104E+03</pdfrwt>
<pdfrwt beam="2">  1       -1 0.27868637E+00 0.68271104E+03</pdfrwt>
<totfact> 0.25213876E+00</totfact>
</mgrwt>
</event>
<event>
 4    1  0.1852677E-008  0.3874533E+03  0.7818608E-02  0.1048213E+00
          1   -1    0    0  501    0  0.00000000000E+00  0.00000000000E+00  0.13092348050E+04  0.13092348050E+04  0.50400000000E-02 0. -1.
         -1   -1    0    0    0  501 -0.00000000000E+00 -0.00000000000E+00 -0.19322398102E+03  0.19322398109E+03  0.50400000000E-02 0.  1.
    8880022    1    1    2    0    0  0.17179022282E+03  0.31179563563E+03  0.10370181552E+04  0.11070350972E+04  0.15294330000E+03 0.  0.
    8880022    1    1    2    0    0 -0.17179022282E+03 -0.31179563563E+03  0.78992668765E+02  0.39542368896E+03  0.15294330000E+03 0.  0.
<mgrwt>
<rscale>  0 0.38745329E+03</rscale>
<asrwt>0</asrwt>
<pdfrwt beam="1">  1        1 0.20142074E+00 0.38745329E+03</pdfrwt>
<pdfrwt beam="2">  1       -1 0.29726766E-01 0.38745329E+03</pdfrwt>
<totfact> 0.98605856E+01</totfact>
</mgrwt>
</event>
<event>
 4    1  0.1852677E-008  0.4256473E+03  0.7818608E-02  0.1035244E+00
         -1   -1    0    0    0  501 -0.00000000000E+00  0.00000000000E+00  0.81392040066E+03  0.81392040068E+03  0.50400000000E-02 0.  1.
          1   -1    0    0  501    0  0.00000000000E+00 -0.00000000000E+00 -0.91029783293E+03  0.91029783294E+03  0.50400000000E-02 0. -1.
    8880022    1    1    2    0    0  0.15329631502E+03  0.36644806099E+03 -0.79751421016E+03  0.90399364490E+03  0.15294330000E+03 0.  0.
    8880022    1    1    2    0    0 -0.15329631502E+03 -0.36644806099E+03  0.70113677789E+03  0.82022458871E+03  0.15294330000E+03 0.  0.
<mgrwt>
<rscale>  0 0.42564727E+03</rscale>
<asrwt>0</asrwt>
<pdfrwt beam="1">  1        1 0.14004582E+00 0.42564727E+03</pdfrwt>
<pdfrwt beam="2">  1       -1 0.12521852E+00 0.42564727E+03</pdfrwt>
<totfact> 0.10874175E+01</totfact>
</mgrwt>
</event>
<event>
 4    1  0.1852677E-008  0.3628975E+03  0.7818608E-02  0.1057442E+00
         -1   -1    0    0    0  501 -0.00000000000E+00  0.00000000000E+00  0.72358921945E+03  0.72358921946E+03  0.50400000000E-02 0.  1.
          1   -1    0    0  501    0  0.00000000000E+00 -0.00000000000E+00 -0.29406163439E+03  0.29406163443E+03  0.50400000000E-02 0. -1.
    8880022    1    1    2    0    0 -0.32213420840E+03  0.67323568230E+02  0.52886857372E+03  0.64140200526E+03  0.15294330000E+03 0.  1.
    8880022    1    1    2    0    0  0.32213420840E+03 -0.67323568230E+02 -0.99340988666E+02  0.37624884864E+03  0.15294330000E+03 0. -1.
<mgrwt>
<rscale>  0 0.36289746E+03</rscale>
<asrwt>0</asrwt>
<pdfrwt beam="1">  1        1 0.45240252E-01 0.36289746E+03</pdfrwt>
<pdfrwt beam="2">  1       -1 0.11132142E+00 0.36289746E+03</pdfrwt>
<totfact> 0.70616147E+01</totfact>
</mgrwt>
</event>
<event>
 4    1  0.1852677E-008  0.5101616E+03  0.7818608E-02  0.1011160E+00
         -1   -1    0    0    0  501 -0.00000000000E+00  0.00000000000E+00  0.12873162169E+04  0.12873162169E+04  0.50400000000E-02 0.  1.
          1   -1    0    0  501    0  0.00000000000E+00 -0.00000000000E+00 -0.65515952387E+03  0.65515952389E+03  0.50400000000E-02 0. -1.
    8880022    1    1    2    0    0  0.28228195825E+03 -0.39647210804E+03  0.11236724058E+04  0.12340601951E+04  0.15294330000E+03 0.  0.
    8880022    1    1    2    0    0 -0.28228195825E+03  0.39647210804E+03 -0.49151571284E+03  0.70841554570E+03  0.15294330000E+03 0.  0.
<mgrwt>
<rscale>  0 0.51016163E+03</rscale>
<asrwt>0</asrwt>
<pdfrwt beam="1">  1        1 0.10079377E+00 0.51016163E+03</pdfrwt>
<pdfrwt beam="2">  1       -1 0.19804865E+00 0.51016163E+03</pdfrwt>
<totfact> 0.50568119E+00</totfact>
</mgrwt>
</event>
<event>
 4    1  0.1852677E-008  0.5209232E+03  0.7818608E-02  0.1008457E+00
          1   -1    0    0  501    0  0.00000000000E+00  0.00000000000E+00  0.23833853333E+04  0.23833853333E+04  0.50400000000E-02 0. -1.
         -1   -1    0    0    0  501 -0.00000000000E+00 -0.00000000000E+00 -0.17591026034E+03  0.17591026042E+03  0.50400000000E-02 0.  1.
    8880022    1    1    2    0    0  0.15466554711E+03  0.47333700192E+03  0.34370323560E+03  0.62409367569E+03  0.15294330000E+03 0.  0.
    8880022    1    1    2    0    0 -0.15466554711E+03 -0.47333700192E+03  0.18637718374E+04  0.19352019181E+04  0.15294330000E+03 0.  0.
<mgrwt>
<rscale>  0 0.52092322E+03</rscale>
<asrwt>0</asrwt>
<pdfrwt beam="1">  1        1 0.36667468E+00 0.52092322E+03</pdfrwt>
<pdfrwt beam="2">  1       -1 0.27063116E-01 0.52092322E+03</pdfrwt>
<totfact> 0.21676346E+01</totfact>
</mgrwt>
</event>
<event>
 4    1  0.1852677E-008  0.3769458E+03  0.7818608E-02  0.1052068E+00
         -1   -1    0    0    0  501 -0.00000000000E+00  0.00000000000E+00  0.28428004016E+03  0.28428004020E+03  0.50400000000E-02 0.  1.
          1   -1    0    0  501    0  0.00000000000E+00 -0.00000000000E+00 -0.89732301190E+03  0.89732301191E+03  0.50400000000E-02 0. -1.
    8880022    1    1    2    0    0 -0.21348153646E+03 -0.27041098801E+03 -0.69974439892E+03  0.79481466122E+03  0.15294330000E+03 0.  0.
    8880022    1    1    2    0    0  0.21348153646E+03  0.27041098801E+03  0.86701427184E+02  0.38678839090E+03  0.15294330000E+03 0.  0.
<mgrwt>
<rscale>  0 0.37694578E+03</rscale>
<asrwt>0</asrwt>
<pdfrwt beam="1">  1        1 0.13804969E+00 0.37694578E+03</pdfrwt>
<pdfrwt beam="2">  1       -1 0.43735391E-01 0.37694578E+03</pdfrwt>
<totfact> 0.10024880E+02</totfact>
</mgrwt>
</event>
<event>
 4    1  0.1852677E-008  0.1857184E+03  0.7818608E-02  0.1162381E+00
         -1   -1    0    0    0  501 -0.00000000000E+00  0.00000000000E+00  0.33541240943E+03  0.33541240947E+03  0.50400000000E-02 0.  1.
          1   -1    0    0  501    0  0.00000000000E+00 -0.00000000000E+00 -0.34835684499E+03  0.34835684502E+03  0.50400000000E-02 0. -1.
    8880022    1    1    2    0    0 -0.14135212078E+02  0.10440244834E+03  0.28054939180E+03  0.33645102124E+03  0.15294330000E+03 0.  1.
    8880022    1    1    2    0    0  0.14135212078E+02 -0.10440244834E+03 -0.29349382736E+03  0.34731823325E+03  0.15294330000E+03 0.  0.
<mgrwt>
<rscale>  0 0.18571841E+03</rscale>
<asrwt>0</asrwt>
<pdfrwt beam="1">  1        1 0.53593361E-01 0.18571841E+03</pdfrwt>
<pdfrwt beam="2">  1       -1 0.51601909E-01 0.18571841E+03</pdfrwt>
<totfact> 0.28478636E+02</totfact>
</mgrwt>
</event>
<event>
 4    1  0.1852677E-008  0.4866581E+03  0.7818608E-02  0.1017321E+00
          1   -1    0    0  501    0  0.00000000000E+00  0.00000000000E+00  0.18282752880E+04  0.18282752880E+04  0.50400000000E-02 0. -1.
         -1   -1    0    0    0  501 -0.00000000000E+00 -0.00000000000E+00 -0.28295586376E+03  0.28295586380E+03  0.50400000000E-02 0.  1.
    8880022    1    1    2    0    0  0.19373093796E+03  0.41941955984E+03  0.15499451953E+04  0.16245510780E+04  0.15294330000E+03 0. -1.
    8880022    1    1    2    0    0 -0.19373093796E+03 -0.41941955984E+03 -0.46257710520E+01  0.48668007384E+03  0.15294330000E+03 0.  0.
<mgrwt>
<rscale>  0 0.48665809E+03</rscale>
<asrwt>0</asrwt>
<pdfrwt beam="1">  1        1 0.28127311E+00 0.48665809E+03</pdfrwt>
<pdfrwt beam="2">  1       -1 0.43531673E-01 0.48665809E+03</pdfrwt>
<totfact> 0.22046425E+01</totfact>
</mgrwt>
</event>
<event>
 4    1  0.1852677E-008  0.2011372E+03  0.7818608E-02  0.1148783E+00
         -1   -1    0    0    0  501 -0.00000000000E+00  0.00000000000E+00  0.34751911386E+03  0.34751911389E+03  0.50400000000E-02 0.  1.
          1   -1    0    0  501    0  0.00000000000E+00 -0.00000000000E+00 -0.44233796365E+03  0.44233796368E+03  0.50400000000E-02 0. -1.
    8880022    1    1    2    0    0  0.84461485602E+02 -0.99653333546E+02 -0.38640917718E+03  0.43562396016E+03  0.15294330000E+03 0.  0.
    8880022    1    1    2    0    0 -0.84461485602E+02  0.99653333546E+02  0.29159032739E+03  0.35423311742E+03  0.15294330000E+03 0.  1.
<mgrwt>
<rscale>  0 0.20113722E+03</rscale>
<asrwt>0</asrwt>
<pdfrwt beam="1">  1        1 0.68051995E-01 0.20113722E+03</pdfrwt>
<pdfrwt beam="2">  1       -1 0.53464479E-01 0.20113722E+03</pdfrwt>
<totfact> 0.19625035E+02</totfact>
</mgrwt>
</event>
<event>
 4    1  0.1852677E-008  0.4456181E+03  0.7818608E-02  0.1029037E+00
         -1   -1    0    0    0  501 -0.00000000000E+00  0.00000000000E+00  0.16203041927E+04  0.16203041927E+04  0.50400000000E-02 0.  1.
          1   -1    0    0  501    0  0.00000000000E+00 -0.00000000000E+00 -0.19604281077E+03  0.19604281084E+03  0.50400000000E-02 0. -1.
    8880022    1    1    2    0    0 -0.33562303269E+02  0.41720184466E+03  0.15609496243E+03  0.47216638773E+03  0.15294330000E+03 0.  0.
    8880022    1    1    2    0    0  0.33562303269E+02 -0.41720184466E+03  0.12681664194E+04  0.13441806158E+04  0.15294330000E+03 0.  0.
<mgrwt>
<rscale>  0 0.44561807E+03</rscale>
<asrwt>0</asrwt>
<pdfrwt beam="1">  1        1 0.30160433E-01 0.44561807E+03</pdfrwt>
<pdfrwt beam="2">  1       -1 0.24927756E+00 0.44561807E+03</pdfrwt>
<totfact> 0.11646002E+01</totfact>
</mgrwt>
</event>
<event>
 4    1  0.1852677E-008  0.6399190E+03  0.7818608E-02  0.9825881E-01
         -1   -1    0    0    0  501 -0.00000000000E+00  0.00000000000E+00  0.93741314301E+03  0.93741314302E+03  0.50400000000E-02 0.  1.
          1   -1    0    0  501    0  0.00000000000E+00 -0.00000000000E+00 -0.99302838301E+03  0.99302838302E+03  0.50400000000E-02 0. -1.
    8880022    1    1    2    0    0 -0.61817543971E+03 -0.62959010635E+02  0.69455973509E+03  0.94440965153E+03  0.15294330000E+03 0.  0.
    8880022    1    1    2    0    0  0.61817543971E+03  0.62959010635E+02 -0.75017497509E+03  0.98603187451E+03  0.15294330000E+03 0.  0.
<mgrwt>
<rscale>  0 0.63991903E+03</rscale>
<asrwt>0</asrwt>
<pdfrwt beam="1">  1        1 0.15277360E+00 0.63991903E+03</pdfrwt>
<pdfrwt beam="2">  1       -1 0.14421741E+00 0.63991903E+03</pdfrwt>
<totfact> 0.62600310E+00</totfact>
</mgrwt>
</event>
<event>
 4    1  0.1852677E-008  0.3057646E+03  0.7818608E-02  0.1082394E+00
          1   -1    0    0  501    0  0.00000000000E+00  0.00000000000E+00  0.27604763859E+04  0.27604763859E+04  0.50400000000E-02 0. -1.
         -1   -1    0    0    0  501 -0.00000000000E+00 -0.00000000000E+00 -0.86287765483E+02  0.86287765631E+02  0.50400000000E-02 0.  1.
    8880022    1    1    2    0    0  0.50824899027E+02 -0.25984063256E+03  0.24465096664E+04  0.24655428460E+04  0.15294330000E+03 0.  0.
    8880022    1    1    2    0    0 -0.50824899027E+02  0.25984063256E+03  0.22767895407E+03  0.38122130558E+03  0.15294330000E+03 0.  0.
<mgrwt>
<rscale>  0 0.30576458E+03</rscale>
<asrwt>0</asrwt>
<pdfrwt beam="1">  1        1 0.42468873E+00 0.30576458E+03</pdfrwt>
<pdfrwt beam="2">  1       -1 0.13275039E-01 0.30576458E+03</pdfrwt>
<totfact> 0.41020779E+01</totfact>
</mgrwt>
</event>
<event>
 4    1  0.1852677E-008  0.2717449E+03  0.7818608E-02  0.1100285E+00
         -1   -1    0    0    0  501 -0.00000000000E+00  0.00000000000E+00  0.36629440984E+03  0.36629440988E+03  0.50400000000E-02 0.  1.
          1   -1    0    0  501    0  0.00000000000E+00 -0.00000000000E+00 -0.51555095744E+03  0.51555095746E+03  0.50400000000E-02 0. -1.
    8880022    1    1    2    0    0  0.39864960243E+01 -0.22458346436E+03 -0.41870629840E+03  0.49915953557E+03  0.15294330000E+03 0.  0.
    8880022    1    1    2    0    0 -0.39864960243E+01  0.22458346436E+03  0.26944975080E+03  0.38268583177E+03  0.15294330000E+03 0.  1.
<mgrwt>
<rscale>  0 0.27174488E+03</rscale>
<asrwt>0</asrwt>
<pdfrwt beam="1">  1        1 0.79315532E-01 0.27174488E+03</pdfrwt>
<pdfrwt beam="2">  1       -1 0.56352986E-01 0.27174488E+03</pdfrwt>
<totfact> 0.14366317E+02</totfact>
</mgrwt>
</event>
<event>
 4    1  0.1852677E-008  0.4367376E+03  0.7818608E-02  0.1031753E+00
         -1   -1    0    0    0  501 -0.00000000000E+00  0.00000000000E+00  0.46117792718E+03  0.46117792721E+03  0.50400000000E-02 0.  1.
          1   -1    0    0  501    0  0.00000000000E+00 -0.00000000000E+00 -0.17849341470E+04  0.17849341470E+04  0.50400000000E-02 0. -1.
    8880022    1    1    2    0    0  0.49287111623E+02  0.40610200300E+03  0.32250276711E+03  0.54290675445E+03  0.15294330000E+03 0.  1.
    8880022    1    1    2    0    0 -0.49287111623E+02 -0.40610200300E+03 -0.16462589870E+04  0.17032053198E+04  0.15294330000E+03 0.  0.
<mgrwt>
<rscale>  0 0.43673757E+03</rscale>
<asrwt>0</asrwt>
<pdfrwt beam="1">  1        1 0.27460525E+00 0.43673757E+03</pdfrwt>
<pdfrwt beam="2">  1       -1 0.70950451E-01 0.43673757E+03</pdfrwt>
<totfact> 0.93198858E+00</totfact>
</mgrwt>
</event>
<event>
 4    1  0.1852677E-008  0.5542769E+03  0.7818608E-02  0.1000509E+00
          1   -1    0    0  501    0  0.00000000000E+00  0.00000000000E+00  0.16913393868E+04  0.16913393868E+04  0.50400000000E-02 0. -1.
         -1   -1    0    0    0  501 -0.00000000000E+00 -0.00000000000E+00 -0.38850856947E+03  0.38850856950E+03  0.50400000000E-02 0.  1.
    8880022    1    1    2    0    0 -0.40356926505E+03 -0.34779752784E+03 -0.10741295776E+03  0.56458876058E+03  0.15294330000E+03 0.  0.
    8880022    1    1    2    0    0  0.40356926505E+03  0.34779752784E+03  0.14102437751E+04  0.15152591958E+04  0.15294330000E+03 0.  0.
<mgrwt>
<rscale>  0 0.55427694E+03</rscale>
<asrwt>0</asrwt>
<pdfrwt beam="1">  1        1 0.26020606E+00 0.55427694E+03</pdfrwt>
<pdfrwt beam="2">  1       -1 0.59770549E-01 0.55427694E+03</pdfrwt>
<totfact> 0.14724816E+01</totfact>
</mgrwt>
</event>
<event>
 4    1  0.1852677E-008  0.3931159E+03  0.7818608E-02  0.1046190E+00
          1   -1    0    0  501    0  0.00000000000E+00  0.00000000000E+00  0.15063830864E+04  0.15063830864E+04  0.50400000000E-02 0. -1.
         -1   -1    0    0    0  501 -0.00000000000E+00 -0.00000000000E+00 -0.11855362356E+03  0.11855362366E+03  0.50400000000E-02 0.  1.
    8880022    1    1    2    0    0 -0.25858182889E+03  0.25354262547E+03  0.99204950567E+03  0.10670999484E+04  0.15294330000E+03 0.  0.
    8880022    1    1    2    0    0  0.25858182889E+03 -0.25354262547E+03  0.39577995720E+03  0.55783676170E+03  0.15294330000E+03 0.  0.
<mgrwt>
<rscale>  0 0.39311586E+03</rscale>
<asrwt>0</asrwt>
<pdfrwt beam="1">  1        1 0.23175125E+00 0.39311586E+03</pdfrwt>
<pdfrwt beam="2">  1       -1 0.18239018E-01 0.39311586E+03</pdfrwt>
<totfact> 0.16369381E+02</totfact>
</mgrwt>
</event>
<event>
 4    1  0.1852677E-008  0.1620025E+03  0.7818608E-02  0.1186454E+00
          1   -1    0    0  501    0  0.00000000000E+00  0.00000000000E+00  0.53677335255E+03  0.53677335257E+03  0.50400000000E-02 0. -1.
         -1   -1    0    0    0  501 -0.00000000000E+00 -0.00000000000E+00 -0.66669040083E+02  0.66669040274E+02  0.50400000000E-02 0.  1.
    8880022    1    1    2    0    0  0.53391199678E+02 -0.15900071461E+01  0.79257178818E+02  0.18035105138E+03  0.15294330000E+03 0.  1.
    8880022    1    1    2    0    0 -0.53391199678E+02  0.15900071461E+01  0.39084713365E+03  0.42309134146E+03  0.15294330000E+03 0.  0.
<mgrwt>
<rscale>  0 0.16200247E+03</rscale>
<asrwt>0</asrwt>
<pdfrwt beam="1">  1        1 0.82580519E-01 0.16200247E+03</pdfrwt>
<pdfrwt beam="2">  1       -1 0.10256775E-01 0.16200247E+03</pdfrwt>
<totfact> 0.23675331E+03</totfact>
</mgrwt>
</event>
<event>
 4    1  0.1852677E-008  0.4696135E+03  0.7818608E-02  0.1022029E+00
          1   -1    0    0  501    0  0.00000000000E+00  0.00000000000E+00  0.11409039637E+04  0.11409039637E+04  0.50400000000E-02 0. -1.
         -1   -1    0    0    0  501 -0.00000000000E+00 -0.00000000000E+00 -0.10452960384E+04  0.10452960384E+04  0.50400000000E-02 0.  1.
    8880022    1    1    2    0    0 -0.34773838932E+03 -0.27608548534E+03 -0.93906390354E+03  0.10499418320E+04  0.15294330000E+03 0.  0.
    8880022    1    1    2    0    0  0.34773838932E+03  0.27608548534E+03  0.10346718288E+04  0.11362581701E+04  0.15294330000E+03 0.  0.
<mgrwt>
<rscale>  0 0.46961350E+03</rscale>
<asrwt>0</asrwt>
<pdfrwt beam="1">  1        1 0.17552369E+00 0.46961350E+03</pdfrwt>
<pdfrwt beam="2">  1       -1 0.16081477E+00 0.46961350E+03</pdfrwt>
<totfact> 0.37578965E+00</totfact>
</mgrwt>
</event>
<event>
 4    1  0.1852677E-008  0.3123404E+03  0.7818608E-02  0.1079229E+00
          1   -1    0    0  501    0  0.00000000000E+00  0.00000000000E+00  0.43159086377E+03  0.43159086380E+03  0.50400000000E-02 0. -1.
         -1   -1    0    0    0  501 -0.00000000000E+00 -0.00000000000E+00 -0.64158101711E+03  0.64158101713E+03  0.50400000000E-02 0.  1.
    8880022    1    1    2    0    0 -0.22479395000E+03 -0.15372873576E+03  0.32684291835E+03  0.45208714917E+03  0.15294330000E+03 0.  0.
    8880022    1    1    2    0    0  0.22479395000E+03  0.15372873576E+03 -0.53683307168E+03  0.62108473176E+03  0.15294330000E+03 0.  0.
<mgrwt>
<rscale>  0 0.31234035E+03</rscale>
<asrwt>0</asrwt>
<pdfrwt beam="1">  1        1 0.66398595E-01 0.31234035E+03</pdfrwt>
<pdfrwt beam="2">  1       -1 0.98704772E-01 0.31234035E+03</pdfrwt>
<totfact> 0.57211315E+01</totfact>
</mgrwt>
</event>
<event>
 4    1  0.1852677E-008  0.3341094E+03  0.7818608E-02  0.1069333E+00
         -1   -1    0    0    0  501 -0.00000000000E+00  0.00000000000E+00  0.75353151605E+03  0.75353151607E+03  0.50400000000E-02 0.  1.
          1   -1    0    0  501    0  0.00000000000E+00 -0.00000000000E+00 -0.17817522780E+04  0.17817522780E+04  0.50400000000E-02 0. -1.
    8880022    1    1    2    0    0  0.72734620819E+02 -0.28800540854E+03 -0.17279107156E+04  0.17599160590E+04  0.15294330000E+03 0.  0.
    8880022    1    1    2    0    0 -0.72734620819E+02  0.28800540854E+03  0.69968995366E+03  0.77536773513E+03  0.15294330000E+03 0.  1.
<mgrwt>
<rscale>  0 0.33410940E+03</rscale>
<asrwt>0</asrwt>
<pdfrwt beam="1">  1        1 0.27411573E+00 0.33410940E+03</pdfrwt>
<pdfrwt beam="2">  1       -1 0.11592793E+00 0.33410940E+03</pdfrwt>
<totfact> 0.33213236E+00</totfact>
</mgrwt>
</event>
<event>
 4    1  0.1852677E-008  0.7787850E+03  0.7818608E-02  0.9591243E-01
         -1   -1    0    0    0  501 -0.00000000000E+00  0.00000000000E+00  0.50943716442E+03  0.50943716445E+03  0.50400000000E-02 0.  1.
          1   -1    0    0  501    0  0.00000000000E+00 -0.00000000000E+00 -0.19427583596E+04  0.19427583596E+04  0.50400000000E-02 0. -1.
    8880022    1    1    2    0    0 -0.16429553295E+03 -0.74573544094E+03 -0.14795951319E+04  0.16720370144E+04  0.15294330000E+03 0.  0.
    8880022    1    1    2    0    0  0.16429553295E+03  0.74573544094E+03  0.46273936721E+02  0.78015850970E+03  0.15294330000E+03 0.  0.
<mgrwt>
<rscale>  0 0.77878497E+03</rscale>
<asrwt>0</asrwt>
<pdfrwt beam="1">  1        1 0.29888590E+00 0.77878497E+03</pdfrwt>
<pdfrwt beam="2">  1       -1 0.78374950E-01 0.77878497E+03</pdfrwt>
<totfact> 0.55402750E+00</totfact>
</mgrwt>
</event>
<event>
 4    1  0.1852677E-008  0.1128286E+04  0.7818608E-02  0.9178053E-01
          1   -1    0    0  501    0  0.00000000000E+00  0.00000000000E+00  0.23042180709E+04  0.23042180709E+04  0.50400000000E-02 0. -1.
         -1   -1    0    0    0  501 -0.00000000000E+00 -0.00000000000E+00 -0.10003985228E+04  0.10003985229E+04  0.50400000000E-02 0.  1.
    8880022    1    1    2    0    0 -0.32599708473E+03  0.10692813788E+04 -0.45370881535E+03  0.12160921463E+04  0.15294330000E+03 0.  0.
    8880022    1    1    2    0    0  0.32599708473E+03 -0.10692813788E+04  0.17575283634E+04  0.20885244474E+04  0.15294330000E+03 0.  0.
<mgrwt>
<rscale>  0 0.11282856E+04</rscale>
<asrwt>0</asrwt>
<pdfrwt beam="1">  1        1 0.35449509E+00 0.11282856E+04</pdfrwt>
<pdfrwt beam="2">  1       -1 0.15390747E+00 0.11282856E+04</pdfrwt>
<totfact> 0.59857951E-01</totfact>
</mgrwt>
</event>
<event>
 4    1  0.1852677E-008  0.8856156E+03  0.7818608E-02  0.9443743E-01
         -1   -1    0    0    0  501 -0.00000000000E+00  0.00000000000E+00  0.43360327359E+03  0.43360327362E+03  0.50400000000E-02 0.  1.
          1   -1    0    0  501    0  0.00000000000E+00 -0.00000000000E+00 -0.26282284091E+04  0.26282284091E+04  0.50400000000E-02 0. -1.
    8880022    1    1    2    0    0 -0.14120044899E+03 -0.86080530692E+03 -0.24250750420E+03  0.91821832144E+03  0.15294330000E+03 0.  0.
    8880022    1    1    2    0    0  0.14120044899E+03  0.86080530692E+03 -0.19521176313E+04  0.21436133613E+04  0.15294330000E+03 0.  0.
<mgrwt>
<rscale>  0 0.88561560E+03</rscale>
<asrwt>0</asrwt>
<pdfrwt beam="1">  1        1 0.40434282E+00 0.88561560E+03</pdfrwt>
<pdfrwt beam="2">  1       -1 0.66708197E-01 0.88561560E+03</pdfrwt>
<totfact> 0.26086902E+00</totfact>
</mgrwt>
</event>
<event>
 4    1  0.1852677E-008  0.3638061E+03  0.7818608E-02  0.1057087E+00
         -1   -1    0    0    0  501 -0.00000000000E+00  0.00000000000E+00  0.10459273908E+04  0.10459273909E+04  0.50400000000E-02 0.  1.
          1   -1    0    0  501    0  0.00000000000E+00 -0.00000000000E+00 -0.74519552817E+03  0.74519552819E+03  0.50400000000E-02 0. -1.
    8880022    1    1    2    0    0 -0.32887098226E+03  0.28409820286E+02  0.96635367673E+03  0.10325668610E+04  0.15294330000E+03 0.  0.
    8880022    1    1    2    0    0  0.32887098226E+03 -0.28409820286E+02 -0.66562181405E+03  0.75855605806E+03  0.15294330000E+03 0. -1.
<mgrwt>
<rscale>  0 0.36380612E+03</rscale>
<asrwt>0</asrwt>
<pdfrwt beam="1">  1        1 0.11464547E+00 0.36380612E+03</pdfrwt>
<pdfrwt beam="2">  1       -1 0.16091191E+00 0.36380612E+03</pdfrwt>
<totfact> 0.79373809E+00</totfact>
</mgrwt>
</event>
<event>
 4    1  0.1852677E-008  0.4298190E+03  0.7818608E-02  0.1033917E+00
          1   -1    0    0  501    0  0.00000000000E+00  0.00000000000E+00  0.46470512903E+03  0.46470512906E+03  0.50400000000E-02 0. -1.
         -1   -1    0    0    0  501 -0.00000000000E+00 -0.00000000000E+00 -0.10209902356E+04  0.10209902356E+04  0.50400000000E-02 0.  1.
    8880022    1    1    2    0    0 -0.36650467714E+03 -0.16439894185E+03  0.30233546433E+03  0.52550078635E+03  0.15294330000E+03 0. -1.
    8880022    1    1    2    0    0  0.36650467714E+03  0.16439894185E+03 -0.85862057091E+03  0.96019457833E+03  0.15294330000E+03 0.  0.
<mgrwt>
<rscale>  0 0.42981897E+03</rscale>
<asrwt>0</asrwt>
<pdfrwt beam="1">  1        1 0.71493097E-01 0.42981897E+03</pdfrwt>
<pdfrwt beam="2">  1       -1 0.15707542E+00 0.42981897E+03</pdfrwt>
<totfact> 0.16243572E+01</totfact>
</mgrwt>
</event>
<event>
 4    1  0.1852677E-008  0.4372107E+03  0.7818608E-02  0.1031606E+00
          1   -1    0    0  501    0  0.00000000000E+00  0.00000000000E+00  0.12128045174E+04  0.12128045174E+04  0.50400000000E-02 0. -1.
         -1   -1    0    0    0  501 -0.00000000000E+00 -0.00000000000E+00 -0.32847248705E+03  0.32847248709E+03  0.50400000000E-02 0.  1.
    8880022    1    1    2    0    0  0.20425371224E+03  0.35502384428E+03 -0.11363761363E+03  0.45173738966E+03  0.15294330000E+03 0.  0.
    8880022    1    1    2    0    0 -0.20425371224E+03 -0.35502384428E+03  0.99796964393E+03  0.10895396148E+04  0.15294330000E+03 0.  0.
<mgrwt>
<rscale>  0 0.43721066E+03</rscale>
<asrwt>0</asrwt>
<pdfrwt beam="1">  1        1 0.18658531E+00 0.43721066E+03</pdfrwt>
<pdfrwt beam="2">  1       -1 0.50534229E-01 0.43721066E+03</pdfrwt>
<totfact> 0.44122764E+01</totfact>
</mgrwt>
</event>
<event>
 4    1  0.1852677E-008  0.7568507E+03  0.7818608E-02  0.9624664E-01
          1   -1    0    0  501    0  0.00000000000E+00  0.00000000000E+00  0.84376242957E+03  0.84376242958E+03  0.50400000000E-02 0. -1.
         -1   -1    0    0    0  501 -0.00000000000E+00 -0.00000000000E+00 -0.80258369972E+03  0.80258369974E+03  0.50400000000E-02 0.  1.
    8880022    1    1    2    0    0 -0.53716839793E+03 -0.51076559656E+03 -0.30257045762E+03  0.81509012827E+03  0.15294330000E+03 0.  0.
    8880022    1    1    2    0    0  0.53716839793E+03  0.51076559656E+03  0.34374918747E+03  0.83125600104E+03  0.15294330000E+03 0.  0.
<mgrwt>
<rscale>  0 0.75685074E+03</rscale>
<asrwt>0</asrwt>
<pdfrwt beam="1">  1        1 0.12980960E+00 0.75685074E+03</pdfrwt>
<pdfrwt beam="2">  1       -1 0.12347442E+00 0.75685074E+03</pdfrwt>
<totfact> 0.12042064E+01</totfact>
</mgrwt>
</event>
<event>
 4    1  0.1852677E-008  0.2107785E+03  0.7818608E-02  0.1140951E+00
         -1   -1    0    0    0  501 -0.00000000000E+00  0.00000000000E+00  0.22854360430E+03  0.22854360435E+03  0.50400000000E-02 0.  1.
          1   -1    0    0  501    0  0.00000000000E+00 -0.00000000000E+00 -0.10380234381E+04  0.10380234381E+04  0.50400000000E-02 0. -1.
    8880022    1    1    2    0    0 -0.14044012809E+03 -0.36228299872E+02  0.16617369148E+03  0.26840504474E+03  0.15294330000E+03 0.  0.
    8880022    1    1    2    0    0  0.14044012809E+03  0.36228299872E+02 -0.97565352523E+03  0.99816199768E+03  0.15294330000E+03 0. -1.
<mgrwt>
<rscale>  0 0.21077849E+03</rscale>
<asrwt>0</asrwt>
<pdfrwt beam="1">  1        1 0.15969591E+00 0.21077849E+03</pdfrwt>
<pdfrwt beam="2">  1       -1 0.35160555E-01 0.21077849E+03</pdfrwt>
<totfact> 0.11935600E+02</totfact>
</mgrwt>
</event>
<event>
 4    1  0.1852677E-008  0.7106606E+03  0.7818608E-02  0.9699173E-01
          1   -1    0    0  501    0  0.00000000000E+00  0.00000000000E+00  0.26755222793E+04  0.26755222793E+04  0.50400000000E-02 0. -1.
         -1   -1    0    0    0  501 -0.00000000000E+00 -0.00000000000E+00 -0.45678906598E+03  0.45678906601E+03  0.50400000000E-02 0.  1.
    8880022    1    1    2    0    0  0.18510554377E+02 -0.69376085584E+03  0.23090480888E+04  0.24159349111E+04  0.15294330000E+03 0.  0.
    8880022    1    1    2    0    0 -0.18510554377E+02  0.69376085584E+03 -0.90314875415E+02  0.71637643418E+03  0.15294330000E+03 0.  0.
<mgrwt>
<rscale>  0 0.71066055E+03</rscale>
<asrwt>0</asrwt>
<pdfrwt beam="1">  1        1 0.41161881E+00 0.71066055E+03</pdfrwt>
<pdfrwt beam="2">  1       -1 0.70275241E-01 0.71066055E+03</pdfrwt>
<totfact> 0.22484682E+00</totfact>
</mgrwt>
</event>
<event>
 4    1  0.1852677E-008  0.6041829E+03  0.7818608E-02  0.9896766E-01
         -1   -1    0    0    0  501 -0.00000000000E+00  0.00000000000E+00  0.21592696220E+03  0.21592696226E+03  0.50400000000E-02 0.  1.
          1   -1    0    0  501    0  0.00000000000E+00 -0.00000000000E+00 -0.23863680288E+04  0.23863680288E+04  0.50400000000E-02 0. -1.
    8880022    1    1    2    0    0  0.30834915463E+03  0.49655419310E+03 -0.17878127797E+04  0.18871437296E+04  0.15294330000E+03 0.  0.
    8880022    1    1    2    0    0 -0.30834915463E+03 -0.49655419310E+03 -0.38262828691E+03  0.71515126148E+03  0.15294330000E+03 0.  0.
<mgrwt>
<rscale>  0 0.60418285E+03</rscale>
<asrwt>0</asrwt>
<pdfrwt beam="1">  1        1 0.36713352E+00 0.60418285E+03</pdfrwt>
<pdfrwt beam="2">  1       -1 0.33219534E-01 0.60418285E+03</pdfrwt>
<totfact> 0.14870005E+01</totfact>
</mgrwt>
</event>
<event>
 4    1  0.1852677E-008  0.4445276E+03  0.7818608E-02  0.1029367E+00
          1   -1    0    0  501    0  0.00000000000E+00  0.00000000000E+00  0.12846779688E+04  0.12846779689E+04  0.50400000000E-02 0. -1.
         -1   -1    0    0    0  501 -0.00000000000E+00 -0.00000000000E+00 -0.63045739964E+03  0.63045739966E+03  0.50400000000E-02 0.  1.
    8880022    1    1    2    0    0 -0.22481332553E+03  0.35167049665E+03  0.11597118178E+04  0.12419888578E+04  0.15294330000E+03 0.  0.
    8880022    1    1    2    0    0  0.22481332553E+03 -0.35167049665E+03 -0.50549124855E+03  0.67314651074E+03  0.15294330000E+03 0.  1.
<mgrwt>
<rscale>  0 0.44452764E+03</rscale>
<asrwt>0</asrwt>
<pdfrwt beam="1">  1        1 0.19764276E+00 0.44452764E+03</pdfrwt>
<pdfrwt beam="2">  1       -1 0.96993447E-01 0.44452764E+03</pdfrwt>
<totfact> 0.10401579E+01</totfact>
</mgrwt>
</event>
<event>
 4    1  0.1852677E-008  0.3715480E+03  0.7818608E-02  0.1054103E+00
          1   -1    0    0  501    0  0.00000000000E+00  0.00000000000E+00  0.12298073562E+04  0.12298073562E+04  0.50400000000E-02 0. -1.
         -1   -1    0    0    0  501 -0.00000000000E+00 -0.00000000000E+00 -0.73470893026E+03  0.73470893028E+03  0.50400000000E-02 0.  1.
    8880022    1    1    2    0    0  0.20285305640E+03 -0.27112159577E+03  0.11516622787E+04  0.12101131928E+04  0.15294330000E+03 0.  0.
    8880022    1    1    2    0    0 -0.20285305640E+03  0.27112159577E+03 -0.65656385270E+03  0.75440309376E+03  0.15294330000E+03 0.  1.
<mgrwt>
<rscale>  0 0.37154803E+03</rscale>
<asrwt>0</asrwt>
<pdfrwt beam="1">  1        1 0.18920113E+00 0.37154803E+03</pdfrwt>
<pdfrwt beam="2">  1       -1 0.11303214E+00 0.37154803E+03</pdfrwt>
<totfact> 0.81709909E+00</totfact>
</mgrwt>
</event>
<event>
 4    1  0.1852677E-008  0.1187446E+04  0.7818608E-02  0.9123917E-01
         -1   -1    0    0    0  501 -0.00000000000E+00  0.00000000000E+00  0.12528818123E+04  0.12528818123E+04  0.50400000000E-02 0.  1.
          1   -1    0    0  501    0  0.00000000000E+00 -0.00000000000E+00 -0.17723912587E+04  0.17723912587E+04  0.50400000000E-02 0. -1.
    8880022    1    1    2    0    0 -0.11590074833E+04  0.20817539307E+03  0.65413740710E+03  0.13557000926E+04  0.15294330000E+03 0.  0.
    8880022    1    1    2    0    0  0.11590074833E+04 -0.20817539307E+03 -0.11736468535E+04  0.16695729784E+04  0.15294330000E+03 0.  0.
<mgrwt>
<rscale>  0 0.11874456E+04</rscale>
<asrwt>0</asrwt>
<pdfrwt beam="1">  1        1 0.27267558E+00 0.11874456E+04</pdfrwt>
<pdfrwt beam="2">  1       -1 0.19275105E+00 0.11874456E+04</pdfrwt>
<totfact> 0.70626229E-01</totfact>
</mgrwt>
</event>
<event>
 4    1  0.1852677E-008  0.5604065E+03  0.7818608E-02  0.9991135E-01
         -1   -1    0    0    0  501 -0.00000000000E+00  0.00000000000E+00  0.25700388040E+03  0.25700388045E+03  0.50400000000E-02 0.  1.
          1   -1    0    0  501    0  0.00000000000E+00 -0.00000000000E+00 -0.37874260067E+04  0.37874260067E+04  0.50400000000E-02 0. -1.
    8880022    1    1    2    0    0 -0.53739157624E+03  0.43291053710E+02 -0.10089402395E+03  0.56941643691E+03  0.15294330000E+03 0.  0.
    8880022    1    1    2    0    0  0.53739157624E+03 -0.43291053710E+02 -0.34295281024E+04  0.34750134503E+04  0.15294330000E+03 0.  0.
<mgrwt>
<rscale>  0 0.56040653E+03</rscale>
<asrwt>0</asrwt>
<pdfrwt beam="1">  1        1 0.58268088E+00 0.56040653E+03</pdfrwt>
<pdfrwt beam="2">  1       -1 0.39539061E-01 0.56040653E+03</pdfrwt>
<totfact> 0.10505706E+00</totfact>
</mgrwt>
</event>
<event>
 4    1  0.1852677E-008  0.8166557E+03  0.7818608E-02  0.9536217E-01
          1   -1    0    0  501    0  0.00000000000E+00  0.00000000000E+00  0.14921699184E+04  0.14921699184E+04  0.50400000000E-02 0. -1.
         -1   -1    0    0    0  501 -0.00000000000E+00 -0.00000000000E+00 -0.45399412498E+03  0.45399412500E+03  0.50400000000E-02 0.  1.
    8880022    1    1    2    0    0  0.74130210003E+03 -0.30660411463E+03  0.64029084355E+03  0.10377373964E+04  0.15294330000E+03 0.  0.
    8880022    1    1    2    0    0 -0.74130210003E+03  0.30660411463E+03  0.39788494991E+03  0.90842664701E+03  0.15294330000E+03 0.  0.
<mgrwt>
<rscale>  0 0.81665570E+03</rscale>
<asrwt>0</asrwt>
<pdfrwt beam="1">  1        1 0.22956460E+00 0.81665570E+03</pdfrwt>
<pdfrwt beam="2">  1       -1 0.69845250E-01 0.81665570E+03</pdfrwt>
<totfact> 0.14103622E+01</totfact>
</mgrwt>
</event>
<event>
 4    1  0.1852677E-008  0.3044521E+03  0.7818608E-02  0.1083036E+00
         -1   -1    0    0    0  501 -0.00000000000E+00  0.00000000000E+00  0.56279838870E+03  0.56279838872E+03  0.50400000000E-02 0.  1.
          1   -1    0    0  501    0  0.00000000000E+00 -0.00000000000E+00 -0.22530108355E+03  0.22530108361E+03  0.50400000000E-02 0. -1.
    8880022    1    1    2    0    0  0.14484512815E+03 -0.21981653930E+03  0.37312055133E+03  0.48157036966E+03  0.15294330000E+03 0.  0.
    8880022    1    1    2    0    0 -0.14484512815E+03  0.21981653930E+03 -0.35623246181E+02  0.30652910267E+03  0.15294330000E+03 0.  0.
<mgrwt>
<rscale>  0 0.30445209E+03</rscale>
<asrwt>0</asrwt>
<pdfrwt beam="1">  1        1 0.34661705E-01 0.30445209E+03</pdfrwt>
<pdfrwt beam="2">  1       -1 0.86584368E-01 0.30445209E+03</pdfrwt>
<totfact> 0.17469803E+02</totfact>
</mgrwt>
</event>
<event>
 4    1  0.1852677E-008  0.2449195E+03  0.7818608E-02  0.1116558E+00
          1   -1    0    0  501    0  0.00000000000E+00  0.00000000000E+00  0.75381293436E+03  0.75381293438E+03  0.50400000000E-02 0. -1.
         -1   -1    0    0    0  501 -0.00000000000E+00 -0.00000000000E+00 -0.67056660524E+03  0.67056660526E+03  0.50400000000E-02 0.  1.
    8880022    1    1    2    0    0  0.56714196688E+02  0.18269480235E+03 -0.62697471900E+03  0.67311428613E+03  0.15294330000E+03 0.  0.
    8880022    1    1    2    0    0 -0.56714196688E+02 -0.18269480235E+03  0.71022104812E+03  0.75126525350E+03  0.15294330000E+03 0.  0.
<mgrwt>
<rscale>  0 0.24491946E+03</rscale>
<asrwt>0</asrwt>
<pdfrwt beam="1">  1        1 0.11597122E+00 0.24491946E+03</pdfrwt>
<pdfrwt beam="2">  1       -1 0.10316409E+00 0.24491946E+03</pdfrwt>
<totfact> 0.24345495E+01</totfact>
</mgrwt>
</event>
<event>
 4    1  0.1852677E-008  0.6639961E+03  0.7818608E-02  0.9780865E-01
         -1   -1    0    0    0  501 -0.00000000000E+00  0.00000000000E+00  0.82502677377E+03  0.82502677378E+03  0.50400000000E-02 0.  1.
          1   -1    0    0  501    0  0.00000000000E+00 -0.00000000000E+00 -0.65357903700E+03  0.65357903702E+03  0.50400000000E-02 0. -1.
    8880022    1    1    2    0    0  0.42694778076E+03 -0.48498944114E+03 -0.22998079555E+03  0.70269622516E+03  0.15294330000E+03 0.  0.
    8880022    1    1    2    0    0 -0.42694778076E+03  0.48498944114E+03  0.40142853232E+03  0.77590958564E+03  0.15294330000E+03 0.  0.
<mgrwt>
<rscale>  0 0.66399610E+03</rscale>
<asrwt>0</asrwt>
<pdfrwt beam="1">  1        1 0.10055062E+00 0.66399610E+03</pdfrwt>
<pdfrwt beam="2">  1       -1 0.12692720E+00 0.66399610E+03</pdfrwt>
<totfact> 0.16898906E+01</totfact>
</mgrwt>
</event>
<event>
 4    1  0.1852677E-008  0.3054372E+03  0.7818608E-02  0.1082554E+00
         -1   -1    0    0    0  501 -0.00000000000E+00  0.00000000000E+00  0.38921885883E+03  0.38921885887E+03  0.50400000000E-02 0.  1.
          1   -1    0    0  501    0  0.00000000000E+00 -0.00000000000E+00 -0.13682728722E+04  0.13682728723E+04  0.50400000000E-02 0. -1.
    8880022    1    1    2    0    0  0.12277126190E+03 -0.23415256432E+03 -0.12876019366E+04  0.13233331426E+04  0.15294330000E+03 0.  0.
    8880022    1    1    2    0    0 -0.12277126190E+03  0.23415256432E+03  0.30854792316E+03  0.43415858856E+03  0.15294330000E+03 0.  0.
<mgrwt>
<rscale>  0 0.30543716E+03</rscale>
<asrwt>0</asrwt>
<pdfrwt beam="1">  1        1 0.21050352E+00 0.30543716E+03</pdfrwt>
<pdfrwt beam="2">  1       -1 0.59879825E-01 0.30543716E+03</pdfrwt>
<totfact> 0.25724358E+01</totfact>
</mgrwt>
</event>
<event>
 4    1  0.1852677E-008  0.7210174E+03  0.7818608E-02  0.9681950E-01
         -1   -1    0    0    0  501 -0.00000000000E+00  0.00000000000E+00  0.76073864510E+03  0.76073864511E+03  0.50400000000E-02 0.  1.
          1   -1    0    0  501    0  0.00000000000E+00 -0.00000000000E+00 -0.13551559676E+04  0.13551559676E+04  0.50400000000E-02 0. -1.
    8880022    1    1    2    0    0  0.61190376069E+03  0.34935391313E+03  0.44766880646E+03  0.84868921417E+03  0.15294330000E+03 0.  0.
    8880022    1    1    2    0    0 -0.61190376069E+03 -0.34935391313E+03 -0.10420861290E+04  0.12672053986E+04  0.15294330000E+03 0.  0.
<mgrwt>
<rscale>  0 0.72101735E+03</rscale>
<asrwt>0</asrwt>
<pdfrwt beam="1">  1        1 0.20848553E+00 0.72101735E+03</pdfrwt>
<pdfrwt beam="2">  1       -1 0.11703672E+00 0.72101735E+03</pdfrwt>
<totfact> 0.56779005E+00</totfact>
</mgrwt>
</event>
<event>
 4    1  0.1852677E-008  0.1665009E+03  0.7818608E-02  0.1181547E+00
         -1   -1    0    0    0  501 -0.00000000000E+00  0.00000000000E+00  0.54326719220E+03  0.54326719222E+03  0.50400000000E-02 0.  1.
          1   -1    0    0  501    0  0.00000000000E+00 -0.00000000000E+00 -0.30301309566E+03  0.30301309570E+03  0.50400000000E-02 0. -1.
    8880022    1    1    2    0    0 -0.60573676423E+02  0.25724290985E+02 -0.26574187985E+03  0.31359417907E+03  0.15294330000E+03 0. -1.
    8880022    1    1    2    0    0  0.60573676423E+02 -0.25724290985E+02  0.50599597639E+03  0.53268610885E+03  0.15294330000E+03 0.  0.
<mgrwt>
<rscale>  0 0.16650094E+03</rscale>
<asrwt>0</asrwt>
<pdfrwt beam="1">  1        1 0.46617400E-01 0.16650094E+03</pdfrwt>
<pdfrwt beam="2">  1       -1 0.83579567E-01 0.16650094E+03</pdfrwt>
<totfact> 0.13231966E+02</totfact>
</mgrwt>
</event>
<event>
 4    1  0.1852677E-008  0.2996063E+03  0.7818608E-02  0.1085438E+00
         -1   -1    0    0    0  501 -0.00000000000E+00  0.00000000000E+00  0.19788659855E+03  0.19788659861E+03  0.50400000000E-02 0.  1.
          1   -1    0    0  501    0  0.00000000000E+00 -0.00000000000E+00 -0.99404110928E+03  0.99404110929E+03  0.50400000000E-02 0. -1.
    8880022    1    1    2    0    0  0.22560431204E+03 -0.12439843653E+03  0.41349726779E+02  0.30244624240E+03  0.15294330000E+03 0.  1.
    8880022    1    1    2    0    0 -0.22560431204E+03  0.12439843653E+03 -0.83750423751E+03  0.88948146551E+03  0.15294330000E+03 0.  0.
<mgrwt>
<rscale>  0 0.29960629E+03</rscale>
<asrwt>0</asrwt>
<pdfrwt beam="1">  1        1 0.15292940E+00 0.29960629E+03</pdfrwt>
<pdfrwt beam="2">  1       -1 0.30444093E-01 0.29960629E+03</pdfrwt>
<totfact> 0.16189459E+02</totfact>
</mgrwt>
</event>
<event>
 4    1  0.1852677E-008  0.1208382E+04  0.7818608E-02  0.9105552E-01
          1   -1    0    0  501    0  0.00000000000E+00  0.00000000000E+00  0.31257275770E+04  0.31257275770E+04  0.50400000000E-02 0. -1.
         -1   -1    0    0    0  501 -0.00000000000E+00 -0.00000000000E+00 -0.64204342915E+03  0.64204342917E+03  0.50400000000E-02 0.  1.
    8880022    1    1    2    0    0  0.88873940295E+03  0.80432368039E+03  0.25860527440E+03  0.12357437640E+04  0.15294330000E+03 0.  0.
    8880022    1    1    2    0    0 -0.88873940295E+03 -0.80432368039E+03  0.22250788734E+04  0.25320272422E+04  0.15294330000E+03 0.  0.
<mgrwt>
<rscale>  0 0.12083815E+04</rscale>
<asrwt>0</asrwt>
<pdfrwt beam="1">  1        1 0.48088117E+00 0.12083815E+04</pdfrwt>
<pdfrwt beam="2">  1       -1 0.98775912E-01 0.12083815E+04</pdfrwt>
<totfact> 0.47197736E-01</totfact>
</mgrwt>
</event>
<event>
 4    1  0.1852677E-008  0.1022827E+04  0.7818608E-02  0.9283857E-01
         -1   -1    0    0    0  501 -0.00000000000E+00  0.00000000000E+00  0.56743283706E+03  0.56743283708E+03  0.50400000000E-02 0.  1.
          1   -1    0    0  501    0  0.00000000000E+00 -0.00000000000E+00 -0.30075750757E+04  0.30075750757E+04  0.50400000000E-02 0. -1.
    8880022    1    1    2    0    0  0.27367155608E+03 -0.97359480419E+03 -0.23320393675E+04  0.25464842878E+04  0.15294330000E+03 0.  0.
    8880022    1    1    2    0    0 -0.27367155608E+03  0.97359480419E+03 -0.10810287109E+03  0.10285236250E+04  0.15294330000E+03 0.  0.
<mgrwt>
<rscale>  0 0.10228268E+04</rscale>
<asrwt>0</asrwt>
<pdfrwt beam="1">  1        1 0.46270385E+00 0.10228268E+04</pdfrwt>
<pdfrwt beam="2">  1       -1 0.87297361E-01 0.10228268E+04</pdfrwt>
<totfact> 0.78091136E-01</totfact>
</mgrwt>
</event>
<event>
 4    1  0.1852677E-008  0.4142827E+03  0.7818608E-02  0.1038943E+00
          1   -1    0    0  501    0  0.00000000000E+00  0.00000000000E+00  0.25471143614E+04  0.25471143614E+04  0.50400000000E-02 0. -1.
         -1   -1    0    0    0  501 -0.00000000000E+00 -0.00000000000E+00 -0.90882196018E+02  0.90882196158E+02  0.50400000000E-02 0.  1.
    8880022    1    1    2    0    0  0.17839477701E+03 -0.34119465434E+03  0.18988323163E+04  0.19435005292E+04  0.15294330000E+03 0.  0.
    8880022    1    1    2    0    0 -0.17839477701E+03  0.34119465434E+03  0.55739984907E+03  0.69449602833E+03  0.15294330000E+03 0.  0.
<mgrwt>
<rscale>  0 0.41428268E+03</rscale>
<asrwt>0</asrwt>
<pdfrwt beam="1">  1        1 0.39186373E+00 0.41428268E+03</pdfrwt>
<pdfrwt beam="2">  1       -1 0.13981877E-01 0.41428268E+03</pdfrwt>
<totfact> 0.51164381E+01</totfact>
</mgrwt>
</event>
<event>
 4    1  0.1852677E-008  0.8985613E+03  0.7818608E-02  0.9427382E-01
          1   -1    0    0  501    0  0.00000000000E+00  0.00000000000E+00  0.24458336381E+04  0.24458336382E+04  0.50400000000E-02 0. -1.
         -1   -1    0    0    0  501 -0.00000000000E+00 -0.00000000000E+00 -0.39577818024E+03  0.39577818027E+03  0.50400000000E-02 0.  1.
    8880022    1    1    2    0    0 -0.80091399718E+03  0.37756793663E+03  0.16037385389E+04  0.18383116526E+04  0.15294330000E+03 0.  0.
    8880022    1    1    2    0    0  0.80091399718E+03 -0.37756793663E+03  0.44631691898E+03  0.10033001659E+04  0.15294330000E+03 0.  0.
<mgrwt>
<rscale>  0 0.89856131E+03</rscale>
<asrwt>0</asrwt>
<pdfrwt beam="1">  1        1 0.37628211E+00 0.89856131E+03</pdfrwt>
<pdfrwt beam="2">  1       -1 0.60888949E-01 0.89856131E+03</pdfrwt>
<totfact> 0.41728483E+00</totfact>
</mgrwt>
</event>
<event>
 4    1  0.1852677E-008  0.4078456E+03  0.7818608E-02  0.1041096E+00
         -1   -1    0    0    0  501 -0.00000000000E+00  0.00000000000E+00  0.15272566334E+03  0.15272566342E+03  0.50400000000E-02 0.  1.
          1   -1    0    0  501    0  0.00000000000E+00 -0.00000000000E+00 -0.13271674541E+04  0.13271674541E+04  0.50400000000E-02 0. -1.
    8880022    1    1    2    0    0  0.52748327016E+02  0.37438483826E+03 -0.27384869009E+03  0.49125467041E+03  0.15294330000E+03 0.  0.
    8880022    1    1    2    0    0 -0.52748327016E+02 -0.37438483826E+03 -0.90059310069E+03  0.98863844713E+03  0.15294330000E+03 0.  0.
<mgrwt>
<rscale>  0 0.40784562E+03</rscale>
<asrwt>0</asrwt>
<pdfrwt beam="1">  1        1 0.20417960E+00 0.40784562E+03</pdfrwt>
<pdfrwt beam="2">  1       -1 0.23496257E-01 0.40784562E+03</pdfrwt>
<totfact> 0.14231868E+02</totfact>
</mgrwt>
</event>
<event>
 4    1  0.1852677E-008  0.3315558E+03  0.7818608E-02  0.1070451E+00
          1   -1    0    0  501    0  0.00000000000E+00  0.00000000000E+00  0.98554461766E+03  0.98554461768E+03  0.50400000000E-02 0. -1.
         -1   -1    0    0    0  501 -0.00000000000E+00 -0.00000000000E+00 -0.12515140402E+03  0.12515140412E+03  0.50400000000E-02 0.  1.
    8880022    1    1    2    0    0  0.12209638652E+03 -0.26763790039E+03  0.61333240626E+03  0.69721292796E+03  0.15294330000E+03 0.  0.
    8880022    1    1    2    0    0 -0.12209638652E+03  0.26763790039E+03  0.24706080738E+03  0.41348309384E+03  0.15294330000E+03 0.  0.
<mgrwt>
<rscale>  0 0.33155577E+03</rscale>
<asrwt>0</asrwt>
<pdfrwt beam="1">  1        1 0.15162225E+00 0.33155577E+03</pdfrwt>
<pdfrwt beam="2">  1       -1 0.19254062E-01 0.33155577E+03</pdfrwt>
<totfact> 0.35187591E+02</totfact>
</mgrwt>
</event>
<event>
 4    1  0.1852677E-008  0.5268191E+03  0.7818608E-02  0.1007006E+00
          1   -1    0    0  501    0  0.00000000000E+00  0.00000000000E+00  0.10591771539E+04  0.10591771539E+04  0.50400000000E-02 0. -1.
         -1   -1    0    0    0  501 -0.00000000000E+00 -0.00000000000E+00 -0.64572557509E+03  0.64572557511E+03  0.50400000000E-02 0.  1.
    8880022    1    1    2    0    0  0.18103518762E+03  0.47050285314E+03 -0.45038389796E+03  0.69309738315E+03  0.15294330000E+03 0.  0.
    8880022    1    1    2    0    0 -0.18103518762E+03 -0.47050285314E+03  0.86383547674E+03  0.10118053458E+04  0.15294330000E+03 0.  0.
<mgrwt>
<rscale>  0 0.52681906E+03</rscale>
<asrwt>0</asrwt>
<pdfrwt beam="1">  1        1 0.16295033E+00 0.52681906E+03</pdfrwt>
<pdfrwt beam="2">  1       -1 0.99342397E-01 0.52681906E+03</pdfrwt>
<totfact> 0.14079850E+01</totfact>
</mgrwt>
</event>
<event>
 4    1  0.1852677E-008  0.9140886E+03  0.7818608E-02  0.9408139E-01
         -1   -1    0    0    0  501 -0.00000000000E+00  0.00000000000E+00  0.92609908129E+03  0.92609908130E+03  0.50400000000E-02 0.  1.
          1   -1    0    0  501    0  0.00000000000E+00 -0.00000000000E+00 -0.19035032048E+04  0.19035032048E+04  0.50400000000E-02 0. -1.
    8880022    1    1    2    0    0  0.62326501373E+03 -0.65092786767E+03  0.53740821994E+03  0.10603610772E+04  0.15294330000E+03 0.  0.
    8880022    1    1    2    0    0 -0.62326501373E+03  0.65092786767E+03 -0.15148123435E+04  0.17692412089E+04  0.15294330000E+03 0.  0.
<mgrwt>
<rscale>  0 0.91408863E+03</rscale>
<asrwt>0</asrwt>
<pdfrwt beam="1">  1        1 0.29284665E+00 0.91408863E+03</pdfrwt>
<pdfrwt beam="2">  1       -1 0.14247678E+00 0.91408863E+03</pdfrwt>
<totfact> 0.14195603E+00</totfact>
</mgrwt>
</event>
<event>
 4    1  0.1852677E-008  0.8800846E+03  0.7818608E-02  0.9450825E-01
          1   -1    0    0  501    0  0.00000000000E+00  0.00000000000E+00  0.86286942619E+03  0.86286942621E+03  0.50400000000E-02 0. -1.
         -1   -1    0    0    0  501 -0.00000000000E+00 -0.00000000000E+00 -0.17469327952E+04  0.17469327952E+04  0.50400000000E-02 0.  1.
    8880022    1    1    2    0    0 -0.86464010745E+03 -0.59622291406E+02  0.46781322599E+03  0.99669363420E+03  0.15294330000E+03 0.  0.
    8880022    1    1    2    0    0  0.86464010745E+03  0.59622291406E+02 -0.13518765950E+04  0.16131085872E+04  0.15294330000E+03 0.  0.
<mgrwt>
<rscale>  0 0.88008465E+03</rscale>
<asrwt>0</asrwt>
<pdfrwt beam="1">  1        1 0.13274914E+00 0.88008465E+03</pdfrwt>
<pdfrwt beam="2">  1       -1 0.26875889E+00 0.88008465E+03</pdfrwt>
<totfact> 0.10576684E+00</totfact>
</mgrwt>
</event>
<event>
 4    1  0.1852677E-008  0.2544515E+03  0.7818608E-02  0.1110523E+00
         -1   -1    0    0    0  501 -0.00000000000E+00  0.00000000000E+00  0.36688622113E+02  0.36688622459E+02  0.50400000000E-02 0.  1.
          1   -1    0    0  501    0  0.00000000000E+00 -0.00000000000E+00 -0.19809035958E+04  0.19809035958E+04  0.50400000000E-02 0. -1.
    8880022    1    1    2    0    0 -0.67454640214E+02 -0.19184305816E+03 -0.63885585576E+03  0.68766441300E+03  0.15294330000E+03 0.  0.
    8880022    1    1    2    0    0  0.67454640214E+02  0.19184305816E+03 -0.13053591179E+04  0.13299278053E+04  0.15294330000E+03 0.  0.
<mgrwt>
<rscale>  0 0.25445145E+03</rscale>
<asrwt>0</asrwt>
<pdfrwt beam="1">  1        1 0.30475432E+00 0.25445145E+03</pdfrwt>
<pdfrwt beam="2">  1       -1 0.56444050E-02 0.25445145E+03</pdfrwt>
<totfact> 0.51006715E+02</totfact>
</mgrwt>
</event>
<event>
 4    1  0.1852677E-008  0.5235002E+03  0.7818608E-02  0.1007821E+00
          1   -1    0    0  501    0  0.00000000000E+00  0.00000000000E+00  0.17033521204E+04  0.17033521204E+04  0.50400000000E-02 0. -1.
         -1   -1    0    0    0  501 -0.00000000000E+00 -0.00000000000E+00 -0.20532823698E+03  0.20532823704E+03  0.50400000000E-02 0.  1.
    8880022    1    1    2    0    0  0.49735412507E+03  0.57443238968E+02  0.30503873847E+03  0.60588871619E+03  0.15294330000E+03 0.  0.
    8880022    1    1    2    0    0 -0.49735412507E+03 -0.57443238968E+02  0.11929851450E+04  0.13027916413E+04  0.15294330000E+03 0.  0.
<mgrwt>
<rscale>  0 0.52350024E+03</rscale>
<asrwt>0</asrwt>
<pdfrwt beam="1">  1        1 0.26205416E+00 0.52350024E+03</pdfrwt>
<pdfrwt beam="2">  1       -1 0.31588961E-01 0.52350024E+03</pdfrwt>
<totfact> 0.46962918E+01</totfact>
</mgrwt>
</event>
<event>
 4    1  0.1852677E-008  0.4594592E+03  0.7818608E-02  0.1024938E+00
         -1   -1    0    0    0  501 -0.00000000000E+00  0.00000000000E+00  0.29701691534E+03  0.29701691538E+03  0.50400000000E-02 0.  1.
          1   -1    0    0  501    0  0.00000000000E+00 -0.00000000000E+00 -0.90658159824E+03  0.90658159825E+03  0.50400000000E-02 0. -1.
    8880022    1    1    2    0    0  0.31556903128E+03  0.29686240095E+03 -0.25079340303E+02  0.46014315699E+03  0.15294330000E+03 0.  0.
    8880022    1    1    2    0    0 -0.31556903128E+03 -0.29686240095E+03 -0.58448534260E+03  0.74345535665E+03  0.15294330000E+03 0.  0.
<mgrwt>
<rscale>  0 0.45945919E+03</rscale>
<asrwt>0</asrwt>
<pdfrwt beam="1">  1        1 0.13947409E+00 0.45945919E+03</pdfrwt>
<pdfrwt beam="2">  1       -1 0.45694911E-01 0.45945919E+03</pdfrwt>
<totfact> 0.89874639E+01</totfact>
</mgrwt>
</event>
<event>
 4    1  0.1852677E-008  0.8828269E+03  0.7818608E-02  0.9447307E-01
          1   -1    0    0  501    0  0.00000000000E+00  0.00000000000E+00  0.10341512734E+04  0.10341512734E+04  0.50400000000E-02 0. -1.
         -1   -1    0    0    0  501 -0.00000000000E+00 -0.00000000000E+00 -0.92824552369E+03  0.92824552370E+03  0.50400000000E-02 0.  1.
    8880022    1    1    2    0    0 -0.13356784771E+03  0.85915730265E+03 -0.37259432813E+03  0.95823265808E+03  0.15294330000E+03 0.  0.
    8880022    1    1    2    0    0  0.13356784771E+03 -0.85915730265E+03  0.47850007787E+03  0.10041641391E+04  0.15294330000E+03 0.  0.
<mgrwt>
<rscale>  0 0.88282688E+03</rscale>
<asrwt>0</asrwt>
<pdfrwt beam="1">  1        1 0.15910019E+00 0.88282688E+03</pdfrwt>
<pdfrwt beam="2">  1       -1 0.14280700E+00 0.88282688E+03</pdfrwt>
<totfact> 0.57576798E+00</totfact>
</mgrwt>
</event>
<event>
 4    1  0.1852677E-008  0.2436237E+03  0.7818608E-02  0.1117402E+00
         -1   -1    0    0    0  501 -0.00000000000E+00  0.00000000000E+00  0.17615965670E+03  0.17615965677E+03  0.50400000000E-02 0.  1.
          1   -1    0    0  501    0  0.00000000000E+00 -0.00000000000E+00 -0.62247043274E+03  0.62247043276E+03  0.50400000000E-02 0. -1.
    8880022    1    1    2    0    0 -0.15014416485E+03  0.11583439202E+03  0.47299097906E+02  0.24817279120E+03  0.15294330000E+03 0.  1.
    8880022    1    1    2    0    0  0.15014416485E+03 -0.11583439202E+03 -0.49360987395E+03  0.55045729834E+03  0.15294330000E+03 0.  0.
<mgrwt>
<rscale>  0 0.24362375E+03</rscale>
<asrwt>0</asrwt>
<pdfrwt beam="1">  1        1 0.95764681E-01 0.24362375E+03</pdfrwt>
<pdfrwt beam="2">  1       -1 0.27101486E-01 0.24362375E+03</pdfrwt>
<totfact> 0.40939542E+02</totfact>
</mgrwt>
</event>
<event>
 4    1  0.1852677E-008  0.5905219E+03  0.7818608E-02  0.9925268E-01
         -1   -1    0    0    0  501 -0.00000000000E+00  0.00000000000E+00  0.48387172912E+03  0.48387172914E+03  0.50400000000E-02 0.  1.
          1   -1    0    0  501    0  0.00000000000E+00 -0.00000000000E+00 -0.12780450187E+04  0.12780450187E+04  0.50400000000E-02 0. -1.
    8880022    1    1    2    0    0 -0.15761455617E+03  0.54816247802E+03 -0.97885839441E+03  0.11431884621E+04  0.15294330000E+03 0. -1.
    8880022    1    1    2    0    0  0.15761455617E+03 -0.54816247802E+03  0.18468510480E+03  0.61872828574E+03  0.15294330000E+03 0.  0.
<mgrwt>
<rscale>  0 0.59052189E+03</rscale>
<asrwt>0</asrwt>
<pdfrwt beam="1">  1        1 0.19662231E+00 0.59052189E+03</pdfrwt>
<pdfrwt beam="2">  1       -1 0.74441805E-01 0.59052189E+03</pdfrwt>
<totfact> 0.18009399E+01</totfact>
</mgrwt>
</event>
<event>
 4    1  0.1852677E-008  0.5540438E+03  0.7818608E-02  0.1000562E+00
          1   -1    0    0  501    0  0.00000000000E+00  0.00000000000E+00  0.22948073459E+04  0.22948073459E+04  0.50400000000E-02 0. -1.
         -1   -1    0    0    0  501 -0.00000000000E+00 -0.00000000000E+00 -0.27480546733E+03  0.27480546738E+03  0.50400000000E-02 0.  1.
    8880022    1    1    2    0    0 -0.23690996967E+03  0.47691350585E+03  0.89557378269E+02  0.56123524730E+03  0.15294330000E+03 0.  0.
    8880022    1    1    2    0    0  0.23690996967E+03 -0.47691350585E+03  0.19304445003E+04  0.20083775660E+04  0.15294330000E+03 0.  0.
<mgrwt>
<rscale>  0 0.55404375E+03</rscale>
<asrwt>0</asrwt>
<pdfrwt beam="1">  1        1 0.35304727E+00 0.55404375E+03</pdfrwt>
<pdfrwt beam="2">  1       -1 0.42277766E-01 0.55404375E+03</pdfrwt>
<totfact> 0.11237476E+01</totfact>
</mgrwt>
</event>
<event>
 4    1  0.1852677E-008  0.1277067E+04  0.7818608E-02  0.9047951E-01
          1   -1    0    0  501    0  0.00000000000E+00  0.00000000000E+00  0.28520028905E+04  0.28520028905E+04  0.50400000000E-02 0. -1.
         -1   -1    0    0    0  501 -0.00000000000E+00 -0.00000000000E+00 -0.12115095100E+04  0.12115095100E+04  0.50400000000E-02 0.  1.
    8880022    1    1    2    0    0  0.11181997172E+04 -0.59761090687E+03  0.22965806497E+04  0.26277716295E+04  0.15294330000E+03 0.  0.
    8880022    1    1    2    0    0 -0.11181997172E+04  0.59761090687E+03 -0.65608726920E+03  0.14357407710E+04  0.15294330000E+03 0.  0.
<mgrwt>
<rscale>  0 0.12770674E+04</rscale>
<asrwt>0</asrwt>
<pdfrwt beam="1">  1        1 0.43876967E+00 0.12770674E+04</pdfrwt>
<pdfrwt beam="2">  1       -1 0.18638608E+00 0.12770674E+04</pdfrwt>
<totfact> 0.14014016E-01</totfact>
</mgrwt>
</event>
<event>
 4    1  0.1852677E-008  0.8454379E+03  0.7818608E-02  0.9496481E-01
         -1   -1    0    0    0  501 -0.00000000000E+00  0.00000000000E+00  0.10381917038E+04  0.10381917038E+04  0.50400000000E-02 0.  1.
          1   -1    0    0  501    0  0.00000000000E+00 -0.00000000000E+00 -0.80361070934E+03  0.80361070936E+03  0.50400000000E-02 0. -1.
    8880022    1    1    2    0    0 -0.40917664752E+01  0.83147868377E+03 -0.23128926826E+03  0.87650437691E+03  0.15294330000E+03 0.  0.
    8880022    1    1    2    0    0  0.40917664752E+01 -0.83147868377E+03  0.46587026273E+03  0.96529803627E+03  0.15294330000E+03 0.  0.
<mgrwt>
<rscale>  0 0.84543787E+03</rscale>
<asrwt>0</asrwt>
<pdfrwt beam="1">  1        1 0.12363242E+00 0.84543787E+03</pdfrwt>
<pdfrwt beam="2">  1       -1 0.15972180E+00 0.84543787E+03</pdfrwt>
<totfact> 0.65782978E+00</totfact>
</mgrwt>
</event>
<event>
 4    1  0.1852677E-008  0.7889762E+03  0.7818608E-02  0.9576112E-01
          1   -1    0    0  501    0  0.00000000000E+00  0.00000000000E+00  0.23732764148E+04  0.23732764148E+04  0.50400000000E-02 0. -1.
         -1   -1    0    0    0  501 -0.00000000000E+00 -0.00000000000E+00 -0.36224757793E+03  0.36224757796E+03  0.50400000000E-02 0.  1.
    8880022    1    1    2    0    0 -0.64554242847E+03  0.42704416005E+03  0.17240009781E+04  0.18959595900E+04  0.15294330000E+03 0.  0.
    8880022    1    1    2    0    0  0.64554242847E+03 -0.42704416005E+03  0.28702785877E+03  0.83956440272E+03  0.15294330000E+03 0.  0.
<mgrwt>
<rscale>  0 0.78897617E+03</rscale>
<asrwt>0</asrwt>
<pdfrwt beam="1">  1        1 0.36511946E+00 0.78897617E+03</pdfrwt>
<pdfrwt beam="2">  1       -1 0.55730395E-01 0.78897617E+03</pdfrwt>
<totfact> 0.56598600E+00</totfact>
</mgrwt>
</event>
<event>
 4    1  0.1852677E-008  0.5653331E+03  0.7818608E-02  0.9980059E-01
         -1   -1    0    0    0  501 -0.00000000000E+00  0.00000000000E+00  0.19834015244E+04  0.19834015244E+04  0.50400000000E-02 0.  1.
          1   -1    0    0  501    0  0.00000000000E+00 -0.00000000000E+00 -0.31874051115E+03  0.31874051119E+03  0.50400000000E-02 0. -1.
    8880022    1    1    2    0    0  0.44823269550E+03 -0.30870255940E+03  0.16417338083E+04  0.17363442544E+04  0.15294330000E+03 0.  0.
    8880022    1    1    2    0    0 -0.44823269550E+03  0.30870255940E+03  0.22927204990E+02  0.56579778122E+03  0.15294330000E+03 0.  0.
<mgrwt>
<rscale>  0 0.56533306E+03</rscale>
<asrwt>0</asrwt>
<pdfrwt beam="1">  1        1 0.49037001E-01 0.56533306E+03</pdfrwt>
<pdfrwt beam="2">  1       -1 0.30513870E+00 0.56533306E+03</pdfrwt>
<totfact> 0.26905869E+00</totfact>
</mgrwt>
</event>
<event>
 4    1  0.1852677E-008  0.4364912E+03  0.7818608E-02  0.1031829E+00
          1   -1    0    0  501    0  0.00000000000E+00  0.00000000000E+00  0.13106634770E+04  0.13106634770E+04  0.50400000000E-02 0. -1.
         -1   -1    0    0    0  501 -0.00000000000E+00 -0.00000000000E+00 -0.30887337763E+03  0.30887337767E+03  0.50400000000E-02 0.  1.
    8880022    1    1    2    0    0 -0.40697029507E+03 -0.38834351357E+02 -0.88274945658E+02  0.44532802176E+03  0.15294330000E+03 0.  0.
    8880022    1    1    2    0    0  0.40697029507E+03  0.38834351357E+02  0.10900650450E+04  0.11742088329E+04  0.15294330000E+03 0.  0.
<mgrwt>
<rscale>  0 0.43649122E+03</rscale>
<asrwt>0</asrwt>
<pdfrwt beam="1">  1        1 0.20164053E+00 0.43649122E+03</pdfrwt>
<pdfrwt beam="2">  1       -1 0.47518982E-01 0.43649122E+03</pdfrwt>
<totfact> 0.42260059E+01</totfact>
</mgrwt>
</event>
<event>
 4    1  0.1852677E-008  0.4664526E+03  0.7818608E-02  0.1022926E+00
          1   -1    0    0  501    0  0.00000000000E+00  0.00000000000E+00  0.21515182352E+03  0.21515182357E+03  0.50400000000E-02 0. -1.
         -1   -1    0    0    0  501 -0.00000000000E+00 -0.00000000000E+00 -0.14187088818E+04  0.14187088818E+04  0.50400000000E-02 0.  1.
    8880022    1    1    2    0    0 -0.44046776554E+03 -0.13209956000E+02 -0.16398826707E+03  0.49443923810E+03  0.15294330000E+03 0.  0.
    8880022    1    1    2    0    0  0.44046776554E+03  0.13209956000E+02 -0.10395687912E+04  0.11394214672E+04  0.15294330000E+03 0.  0.
<mgrwt>
<rscale>  0 0.46645258E+03</rscale>
<asrwt>0</asrwt>
<pdfrwt beam="1">  1        1 0.33100281E-01 0.46645258E+03</pdfrwt>
<pdfrwt beam="2">  1       -1 0.21826290E+00 0.46645258E+03</pdfrwt>
<totfact> 0.16342706E+01</totfact>
</mgrwt>
</event>
<event>
 4    1  0.1852677E-008  0.7789789E+03  0.7818608E-02  0.9590953E-01
          1   -1    0    0  501    0  0.00000000000E+00  0.00000000000E+00  0.10669312835E+04  0.10669312835E+04  0.50400000000E-02 0. -1.
         -1   -1    0    0    0  501 -0.00000000000E+00 -0.00000000000E+00 -0.72561809454E+03  0.72561809455E+03  0.50400000000E-02 0.  1.
    8880022    1    1    2    0    0  0.71257982944E+03  0.27503897476E+03  0.58739751780E+03  0.97562490123E+03  0.15294330000E+03 0.  0.
    8880022    1    1    2    0    0 -0.71257982944E+03 -0.27503897476E+03 -0.24608432883E+03  0.81692447685E+03  0.15294330000E+03 0.  0.
<mgrwt>
<rscale>  0 0.77897889E+03</rscale>
<asrwt>0</asrwt>
<pdfrwt beam="1">  1        1 0.16414327E+00 0.77897889E+03</pdfrwt>
<pdfrwt beam="2">  1       -1 0.11163355E+00 0.77897889E+03</pdfrwt>
<totfact> 0.10186588E+01</totfact>
</mgrwt>
</event>
<event>
 4    1  0.1852677E-008  0.3994840E+03  0.7818608E-02  0.1043959E+00
          1   -1    0    0  501    0  0.00000000000E+00  0.00000000000E+00  0.18489953055E+04  0.18489953055E+04  0.50400000000E-02 0. -1.
         -1   -1    0    0    0  501 -0.00000000000E+00 -0.00000000000E+00 -0.13952083662E+03  0.13952083671E+03  0.50400000000E-02 0.  1.
    8880022    1    1    2    0    0  0.80633027338E+02  0.36013068569E+03  0.24072338451E+03  0.46640668599E+03  0.15294330000E+03 0.  0.
    8880022    1    1    2    0    0 -0.80633027338E+02 -0.36013068569E+03  0.14687510843E+04  0.15221094562E+04  0.15294330000E+03 0.  0.
<mgrwt>
<rscale>  0 0.39948398E+03</rscale>
<asrwt>0</asrwt>
<pdfrwt beam="1">  1        1 0.28446078E+00 0.39948398E+03</pdfrwt>
<pdfrwt beam="2">  1       -1 0.21464747E-01 0.39948398E+03</pdfrwt>
<totfact> 0.74162529E+01</totfact>
</mgrwt>
</event>
<event>
 4    1  0.1852677E-008  0.9800470E+03  0.7818608E-02  0.9330704E-01
          1   -1    0    0  501    0  0.00000000000E+00  0.00000000000E+00  0.12749266959E+04  0.12749266959E+04  0.50400000000E-02 0. -1.
         -1   -1    0    0    0  501 -0.00000000000E+00 -0.00000000000E+00 -0.82065852206E+03  0.82065852207E+03  0.50400000000E-02 0.  1.
    8880022    1    1    2    0    0  0.57188208234E+03  0.78105779866E+03 -0.72894919945E+02  0.98275415202E+03  0.15294330000E+03 0.  0.
    8880022    1    1    2    0    0 -0.57188208234E+03 -0.78105779866E+03  0.52716309382E+03  0.11128310660E+04  0.15294330000E+03 0.  0.
<mgrwt>
<rscale>  0 0.98004697E+03</rscale>
<asrwt>0</asrwt>
<pdfrwt beam="1">  1        1 0.19614257E+00 0.98004697E+03</pdfrwt>
<pdfrwt beam="2">  1       -1 0.12625516E+00 0.98004697E+03</pdfrwt>
<totfact> 0.51779025E+00</totfact>
</mgrwt>
</event>
<event>
 4    1  0.1852677E-008  0.4912272E+03  0.7818608E-02  0.1016094E+00
         -1   -1    0    0    0  501 -0.00000000000E+00  0.00000000000E+00  0.12835946182E+03  0.12835946191E+03  0.50400000000E-02 0.  1.
          1   -1    0    0  501    0  0.00000000000E+00 -0.00000000000E+00 -0.28155264910E+04  0.28155264910E+04  0.50400000000E-02 0. -1.
    8880022    1    1    2    0    0 -0.31537603698E+03 -0.34416627420E+03 -0.49506696614E+03  0.69742054958E+03  0.15294330000E+03 0.  0.
    8880022    1    1    2    0    0  0.31537603698E+03  0.34416627420E+03 -0.21921000630E+04  0.22464654033E+04  0.15294330000E+03 0.  0.
<mgrwt>
<rscale>  0 0.49122716E+03</rscale>
<asrwt>0</asrwt>
<pdfrwt beam="1">  1        1 0.43315788E+00 0.49122716E+03</pdfrwt>
<pdfrwt beam="2">  1       -1 0.19747612E-01 0.49122716E+03</pdfrwt>
<totfact> 0.18783336E+01</totfact>
</mgrwt>
</event>
<event>
 4    1  0.1852677E-008  0.1108397E+04  0.7818608E-02  0.9197046E-01
          1   -1    0    0  501    0  0.00000000000E+00  0.00000000000E+00  0.27259375791E+04  0.27259375791E+04  0.50400000000E-02 0. -1.
         -1   -1    0    0    0  501 -0.00000000000E+00 -0.00000000000E+00 -0.67429443088E+03  0.67429443090E+03  0.50400000000E-02 0.  1.
    8880022    1    1    2    0    0  0.65889483265E+03  0.87807197188E+03  0.46789426628E+02  0.11093843751E+04  0.15294330000E+03 0.  0.
    8880022    1    1    2    0    0 -0.65889483265E+03 -0.87807197188E+03  0.20048537216E+04  0.22908476349E+04  0.15294330000E+03 0.  0.
<mgrwt>
<rscale>  0 0.11083972E+04</rscale>
<asrwt>0</asrwt>
<pdfrwt beam="1">  1        1 0.41937501E+00 0.11083972E+04</pdfrwt>
<pdfrwt beam="2">  1       -1 0.10373761E+00 0.11083972E+04</pdfrwt>
<totfact> 0.82823375E-01</totfact>
</mgrwt>
</event>
<event>
 4    1  0.1852677E-008  0.8283471E+03  0.7818608E-02  0.9519869E-01
          1   -1    0    0  501    0  0.00000000000E+00  0.00000000000E+00  0.12608269067E+04  0.12608269067E+04  0.50400000000E-02 0. -1.
         -1   -1    0    0    0  501 -0.00000000000E+00 -0.00000000000E+00 -0.15942623019E+04  0.15942623019E+04  0.50400000000E-02 0.  1.
    8880022    1    1    2    0    0  0.49797972313E+03  0.64403686282E+03  0.99183169621E+03  0.12922418705E+04  0.15294330000E+03 0.  0.
    8880022    1    1    2    0    0 -0.49797972313E+03 -0.64403686282E+03 -0.13252670914E+04  0.15628473380E+04  0.15294330000E+03 0.  0.
<mgrwt>
<rscale>  0 0.82834711E+03</rscale>
<asrwt>0</asrwt>
<pdfrwt beam="1">  1        1 0.19397337E+00 0.82834711E+03</pdfrwt>
<pdfrwt beam="2">  1       -1 0.24527112E+00 0.82834711E+03</pdfrwt>
<totfact> 0.75083559E-01</totfact>
</mgrwt>
</event>
<event>
 4    1  0.1852677E-008  0.6251774E+03  0.7818608E-02  0.9854505E-01
          1   -1    0    0  501    0  0.00000000000E+00  0.00000000000E+00  0.13380961535E+04  0.13380961535E+04  0.50400000000E-02 0. -1.
         -1   -1    0    0    0  501 -0.00000000000E+00 -0.00000000000E+00 -0.29944749929E+03  0.29944749933E+03  0.50400000000E-02 0.  1.
    8880022    1    1    2    0    0  0.56911075663E+03 -0.20872959817E+03  0.39099730512E+03  0.73737754515E+03  0.15294330000E+03 0.  0.
    8880022    1    1    2    0    0 -0.56911075663E+03  0.20872959817E+03  0.64765134908E+03  0.90016610769E+03  0.15294330000E+03 0.  0.
<mgrwt>
<rscale>  0 0.62517738E+03</rscale>
<asrwt>0</asrwt>
<pdfrwt beam="1">  1        1 0.20586095E+00 0.62517738E+03</pdfrwt>
<pdfrwt beam="2">  1       -1 0.46068846E-01 0.62517738E+03</pdfrwt>
<totfact> 0.41566527E+01</totfact>
</mgrwt>
</event>
<event>
 4    1  0.1852677E-008  0.4932981E+03  0.7818608E-02  0.1015543E+00
         -1   -1    0    0    0  501 -0.00000000000E+00  0.00000000000E+00  0.58475145053E+03  0.58475145055E+03  0.50400000000E-02 0.  1.
          1   -1    0    0  501    0  0.00000000000E+00 -0.00000000000E+00 -0.26797773917E+04  0.26797773917E+04  0.50400000000E-02 0. -1.
    8880022    1    1    2    0    0 -0.30356530809E+03  0.35749044878E+03  0.45266866926E+03  0.66951616439E+03  0.15294330000E+03 0.  0.
    8880022    1    1    2    0    0  0.30356530809E+03 -0.35749044878E+03 -0.25476946104E+04  0.25950126779E+04  0.15294330000E+03 0.  0.
<mgrwt>
<rscale>  0 0.49329805E+03</rscale>
<asrwt>0</asrwt>
<pdfrwt beam="1">  1        1 0.41227344E+00 0.49329805E+03</pdfrwt>
<pdfrwt beam="2">  1       -1 0.89961763E-01 0.49329805E+03</pdfrwt>
<totfact> 0.14055349E+00</totfact>
</mgrwt>
</event>
<event>
 4    1  0.1852677E-008  0.4791267E+03  0.7818608E-02  0.1019375E+00
          1   -1    0    0  501    0  0.00000000000E+00  0.00000000000E+00  0.19145788546E+04  0.19145788546E+04  0.50400000000E-02 0. -1.
         -1   -1    0    0    0  501 -0.00000000000E+00 -0.00000000000E+00 -0.18432058161E+03  0.18432058168E+03  0.50400000000E-02 0.  1.
    8880022    1    1    2    0    0 -0.21995587282E+03 -0.39722810823E+03  0.14855398456E+04  0.15608943083E+04  0.15294330000E+03 0.  0.
    8880022    1    1    2    0    0  0.21995587282E+03  0.39722810823E+03  0.24471842740E+03  0.53800512794E+03  0.15294330000E+03 0.  0.
<mgrwt>
<rscale>  0 0.47912671E+03</rscale>
<asrwt>0</asrwt>
<pdfrwt beam="1">  1        1 0.29455059E+00 0.47912671E+03</pdfrwt>
<pdfrwt beam="2">  1       -1 0.28357013E-01 0.47912671E+03</pdfrwt>
<totfact> 0.41332242E+01</totfact>
</mgrwt>
</event>
<event>
 4    1  0.1852677E-008  0.1118407E+04  0.7818608E-02  0.9187434E-01
         -1   -1    0    0    0  501 -0.00000000000E+00  0.00000000000E+00  0.23126569148E+04  0.23126569148E+04  0.50400000000E-02 0.  1.
          1   -1    0    0  501    0  0.00000000000E+00 -0.00000000000E+00 -0.10257480180E+04  0.10257480180E+04  0.50400000000E-02 0. -1.
    8880022    1    1    2    0    0  0.93276722117E+03  0.59781954555E+03 -0.50418979820E+03  0.12268014931E+04  0.15294330000E+03 0. -1.
    8880022    1    1    2    0    0 -0.93276722117E+03 -0.59781954555E+03  0.17910986950E+04  0.21116034396E+04  0.15294330000E+03 0.  1.
<mgrwt>
<rscale>  0 0.11184071E+04</rscale>
<asrwt>0</asrwt>
<pdfrwt beam="1">  1        1 0.15780739E+00 0.11184071E+04</pdfrwt>
<pdfrwt beam="2">  1       -1 0.35579337E+00 0.11184071E+04</pdfrwt>
<totfact> 0.20578611E-01</totfact>
</mgrwt>
</event>
<event>
 4    1  0.1852677E-008  0.5689137E+03  0.7818608E-02  0.9972085E-01
         -1   -1    0    0    0  501 -0.00000000000E+00  0.00000000000E+00  0.54345019717E+03  0.54345019719E+03  0.50400000000E-02 0.  1.
          1   -1    0    0  501    0  0.00000000000E+00 -0.00000000000E+00 -0.87681790254E+03  0.87681790255E+03  0.50400000000E-02 0. -1.
    8880022    1    1    2    0    0  0.52503243092E+03  0.15688257421E+03  0.23550494867E+03  0.61573162130E+03  0.15294330000E+03 0.  0.
    8880022    1    1    2    0    0 -0.52503243092E+03 -0.15688257421E+03 -0.56887265405E+03  0.80453647844E+03  0.15294330000E+03 0.  0.
<mgrwt>
<rscale>  0 0.56891374E+03</rscale>
<asrwt>0</asrwt>
<pdfrwt beam="1">  1        1 0.13489506E+00 0.56891374E+03</pdfrwt>
<pdfrwt beam="2">  1       -1 0.83607723E-01 0.56891374E+03</pdfrwt>
<totfact> 0.28337889E+01</totfact>
</mgrwt>
</event>
<event>
 4    1  0.1852677E-008  0.7826811E+03  0.7818608E-02  0.9585429E-01
          1   -1    0    0  501    0  0.00000000000E+00  0.00000000000E+00  0.26456119780E+04  0.26456119780E+04  0.50400000000E-02 0. -1.
         -1   -1    0    0    0  501 -0.00000000000E+00 -0.00000000000E+00 -0.46136493606E+03  0.46136493609E+03  0.50400000000E-02 0.  1.
    8880022    1    1    2    0    0  0.22076923072E+02 -0.76727486878E+03  0.21885397762E+04  0.23242840016E+04  0.15294330000E+03 0.  0.
    8880022    1    1    2    0    0 -0.22076923072E+02  0.76727486878E+03 -0.42927342471E+01  0.78269291256E+03  0.15294330000E+03 0.  0.
<mgrwt>
<rscale>  0 0.78268114E+03</rscale>
<asrwt>0</asrwt>
<pdfrwt beam="1">  1        1 0.40701722E+00 0.78268114E+03</pdfrwt>
<pdfrwt beam="2">  1       -1 0.70979222E-01 0.78268114E+03</pdfrwt>
<totfact> 0.22770651E+00</totfact>
</mgrwt>
</event>
<event>
 4    1  0.1852677E-008  0.5518004E+03  0.7818608E-02  0.1001078E+00
         -1   -1    0    0    0  501 -0.00000000000E+00  0.00000000000E+00  0.37192008798E+03  0.37192008801E+03  0.50400000000E-02 0.  1.
          1   -1    0    0  501    0  0.00000000000E+00 -0.00000000000E+00 -0.15488490458E+04  0.15488490458E+04  0.50400000000E-02 0. -1.
    8880022    1    1    2    0    0 -0.40793364942E+03 -0.33864749445E+03  0.70940546468E+02  0.55634180319E+03  0.15294330000E+03 0.  0.
    8880022    1    1    2    0    0  0.40793364942E+03  0.33864749445E+03 -0.12478695043E+04  0.13644273306E+04  0.15294330000E+03 0.  0.
<mgrwt>
<rscale>  0 0.55180036E+03</rscale>
<asrwt>0</asrwt>
<pdfrwt beam="1">  1        1 0.23828446E+00 0.55180036E+03</pdfrwt>
<pdfrwt beam="2">  1       -1 0.57218476E-01 0.55180036E+03</pdfrwt>
<totfact> 0.19989708E+01</totfact>
</mgrwt>
</event>
<event>
 4    1  0.1852677E-008  0.9156541E+03  0.7818608E-02  0.9406222E-01
          1   -1    0    0  501    0  0.00000000000E+00  0.00000000000E+00  0.11161086926E+04  0.11161086926E+04  0.50400000000E-02 0. -1.
         -1   -1    0    0    0  501 -0.00000000000E+00 -0.00000000000E+00 -0.10774419099E+04  0.10774419099E+04  0.50400000000E-02 0.  1.
    8880022    1    1    2    0    0 -0.29277167825E+03  0.85399973143E+03 -0.58418380724E+03  0.10861368102E+04  0.15294330000E+03 0.  0.
    8880022    1    1    2    0    0  0.29277167825E+03 -0.85399973143E+03  0.62285058995E+03  0.11074137923E+04  0.15294330000E+03 0.  0.
<mgrwt>
<rscale>  0 0.91565411E+03</rscale>
<asrwt>0</asrwt>
<pdfrwt beam="1">  1        1 0.17170903E+00 0.91565411E+03</pdfrwt>
<pdfrwt beam="2">  1       -1 0.16576029E+00 0.91565411E+03</pdfrwt>
<totfact> 0.33082452E+00</totfact>
</mgrwt>
</event>
<event>
 4    1  0.1852677E-008  0.6319499E+03  0.7818608E-02  0.9841251E-01
         -1   -1    0    0    0  501 -0.00000000000E+00  0.00000000000E+00  0.27640756778E+03  0.27640756783E+03  0.50400000000E-02 0.  1.
          1   -1    0    0  501    0  0.00000000000E+00 -0.00000000000E+00 -0.17303273034E+04  0.17303273034E+04  0.50400000000E-02 0. -1.
    8880022    1    1    2    0    0  0.32659732287E+03  0.51894434525E+03 -0.31939164843E+03  0.70807607139E+03  0.15294330000E+03 0.  0.
    8880022    1    1    2    0    0 -0.32659732287E+03 -0.51894434525E+03 -0.11345280872E+04  0.12986587998E+04  0.15294330000E+03 0.  0.
<mgrwt>
<rscale>  0 0.63194992E+03</rscale>
<asrwt>0</asrwt>
<pdfrwt beam="1">  1        1 0.26620419E+00 0.63194992E+03</pdfrwt>
<pdfrwt beam="2">  1       -1 0.42524242E-01 0.63194992E+03</pdfrwt>
<totfact> 0.26040035E+01</totfact>
</mgrwt>
</event>
<event>
 4    1  0.3469197E-008  0.9456924E+03  0.7818608E-02  0.9370200E-01
          1   -1    0    0  501    0  0.00000000000E+00  0.00000000000E+00  0.25208346982E+04  0.25208346982E+04  0.50400000000E-02 0. -1.
         -1   -1    0    0    0  501 -0.00000000000E+00 -0.00000000000E+00 -0.10915467687E+04  0.10915467688E+04  0.50400000000E-02 0.  1.
    8880022    1    1    2    0    0  0.87621565569E+03  0.32122983750E+03  0.21985566195E+04  0.23933209868E+04  0.15294330000E+03 0.  0.
    8880022    1    1    2    0    0 -0.87621565569E+03 -0.32122983750E+03 -0.76926869004E+03  0.12190604802E+04  0.15294330000E+03 0.  0.
<mgrwt>
<rscale>  0 0.94569241E+03</rscale>
<asrwt>0</asrwt>
<pdfrwt beam="1">  1        1 0.38782072E+00 0.94569241E+03</pdfrwt>
<pdfrwt beam="2">  1       -1 0.16793027E+00 0.94569241E+03</pdfrwt>
<totfact> 0.34387504E-01</totfact>
</mgrwt>
</event>
<event>
 4    1  0.1852677E-008  0.6147868E+03  0.7818608E-02  0.9875194E-01
          1   -1    0    0  501    0  0.00000000000E+00  0.00000000000E+00  0.12387979726E+04  0.12387979726E+04  0.50400000000E-02 0. -1.
         -1   -1    0    0    0  501 -0.00000000000E+00 -0.00000000000E+00 -0.35128823274E+03  0.35128823278E+03  0.50400000000E-02 0.  1.
    8880022    1    1    2    0    0  0.42187399443E+03 -0.42023029615E+03  0.73202752104E+03  0.95594304933E+03  0.15294330000E+03 0.  0.
    8880022    1    1    2    0    0 -0.42187399443E+03  0.42023029615E+03  0.15548221881E+03  0.63414315605E+03  0.15294330000E+03 0.  0.
<mgrwt>
<rscale>  0 0.61478681E+03</rscale>
<asrwt>0</asrwt>
<pdfrwt beam="1">  1        1 0.19058430E+00 0.61478681E+03</pdfrwt>
<pdfrwt beam="2">  1       -1 0.54044344E-01 0.61478681E+03</pdfrwt>
<totfact> 0.36184087E+01</totfact>
</mgrwt>
</event>
<event>
 4    1  0.1852677E-008  0.2819328E+03  0.7818608E-02  0.1094638E+00
          1   -1    0    0  501    0  0.00000000000E+00  0.00000000000E+00  0.97830446757E+03  0.97830446759E+03  0.50400000000E-02 0. -1.
         -1   -1    0    0    0  501 -0.00000000000E+00 -0.00000000000E+00 -0.20520705539E+03  0.20520705545E+03  0.50400000000E-02 0.  1.
    8880022    1    1    2    0    0  0.18755835310E+03 -0.14462478805E+03 -0.73373079275E+02  0.29132409258E+03  0.15294330000E+03 0.  1.
    8880022    1    1    2    0    0 -0.18755835310E+03  0.14462478805E+03  0.84647049146E+03  0.89218743046E+03  0.15294330000E+03 0.  0.
<mgrwt>
<rscale>  0 0.28193283E+03</rscale>
<asrwt>0</asrwt>
<pdfrwt beam="1">  1        1 0.15050838E+00 0.28193283E+03</pdfrwt>
<pdfrwt beam="2">  1       -1 0.31570317E-01 0.28193283E+03</pdfrwt>
<totfact> 0.15681025E+02</totfact>
</mgrwt>
</event>
<event>
 4    1  0.1852677E-008  0.5090630E+03  0.7818608E-02  0.1011440E+00
         -1   -1    0    0    0  501 -0.00000000000E+00  0.00000000000E+00  0.10744311173E+04  0.10744311173E+04  0.50400000000E-02 0.  1.
          1   -1    0    0  501    0  0.00000000000E+00 -0.00000000000E+00 -0.32400359179E+03  0.32400359183E+03  0.50400000000E-02 0. -1.
    8880022    1    1    2    0    0 -0.39547227185E+03 -0.28170045512E+03  0.21720948331E+02  0.50952616893E+03  0.15294330000E+03 0.  0.
    8880022    1    1    2    0    0  0.39547227185E+03  0.28170045512E+03  0.72870657721E+03  0.88890854023E+03  0.15294330000E+03 0.  0.
<mgrwt>
<rscale>  0 0.50906298E+03</rscale>
<asrwt>0</asrwt>
<pdfrwt beam="1">  1        1 0.49846706E-01 0.50906298E+03</pdfrwt>
<pdfrwt beam="2">  1       -1 0.16529710E+00 0.50906298E+03</pdfrwt>
<totfact> 0.22309230E+01</totfact>
</mgrwt>
</event>
<event>
 4    1  0.1852677E-008  0.5183835E+03  0.7818608E-02  0.1009089E+00
          1   -1    0    0  501    0  0.00000000000E+00  0.00000000000E+00  0.87207370004E+03  0.87207370006E+03  0.50400000000E-02 0. -1.
         -1   -1    0    0    0  501 -0.00000000000E+00 -0.00000000000E+00 -0.52880822721E+03  0.52880822724E+03  0.50400000000E-02 0.  1.
    8880022    1    1    2    0    0  0.90775118054E+02 -0.48691856951E+03  0.62410459410E+03  0.81131252473E+03  0.15294330000E+03 0.  0.
    8880022    1    1    2    0    0 -0.90775118054E+02  0.48691856951E+03 -0.28083912126E+03  0.58956940256E+03  0.15294330000E+03 0.  0.
<mgrwt>
<rscale>  0 0.51838351E+03</rscale>
<asrwt>0</asrwt>
<pdfrwt beam="1">  1        1 0.13416518E+00 0.51838351E+03</pdfrwt>
<pdfrwt beam="2">  1       -1 0.81355112E-01 0.51838351E+03</pdfrwt>
<totfact> 0.30536152E+01</totfact>
</mgrwt>
</event>
<event>
 4    1  0.1852677E-008  0.2146303E+03  0.7818608E-02  0.1137951E+00
         -1   -1    0    0    0  501 -0.00000000000E+00  0.00000000000E+00  0.59791000542E+02  0.59791000754E+02  0.50400000000E-02 0.  1.
          1   -1    0    0  501    0  0.00000000000E+00 -0.00000000000E+00 -0.77169520897E+03  0.77169520898E+03  0.50400000000E-02 0. -1.
    8880022    1    1    2    0    0  0.14486207642E+03  0.41103421787E+02 -0.37263115290E+03  0.43002341982E+03  0.15294330000E+03 0.  1.
    8880022    1    1    2    0    0 -0.14486207642E+03 -0.41103421787E+02 -0.33927305553E+03  0.40146278992E+03  0.15294330000E+03 0. -1.
<mgrwt>
<rscale>  0 0.21463030E+03</rscale>
<asrwt>0</asrwt>
<pdfrwt beam="1">  1        1 0.11872233E+00 0.21463030E+03</pdfrwt>
<pdfrwt beam="2">  1       -1 0.91986161E-02 0.21463030E+03</pdfrwt>
<totfact> 0.16861454E+03</totfact>
</mgrwt>
</event>
<event>
 4    1  0.1852677E-008  0.3568499E+03  0.7818608E-02  0.1059838E+00
          1   -1    0    0  501    0  0.00000000000E+00  0.00000000000E+00  0.23569627711E+04  0.23569627711E+04  0.50400000000E-02 0. -1.
         -1   -1    0    0    0  501 -0.00000000000E+00 -0.00000000000E+00 -0.11936280646E+03  0.11936280656E+03  0.50400000000E-02 0.  1.
    8880022    1    1    2    0    0  0.26864197164E+02 -0.32129194437E+03  0.20275725909E+03  0.41042947961E+03  0.15294330000E+03 0.  0.
    8880022    1    1    2    0    0 -0.26864197164E+02  0.32129194437E+03  0.20348427055E+04  0.20658960980E+04  0.15294330000E+03 0. -1.
<mgrwt>
<rscale>  0 0.35684990E+03</rscale>
<asrwt>0</asrwt>
<pdfrwt beam="1">  1        1 0.36260962E+00 0.35684990E+03</pdfrwt>
<pdfrwt beam="2">  1       -1 0.18363511E-01 0.35684990E+03</pdfrwt>
<totfact> 0.44815122E+01</totfact>
</mgrwt>
</event>
<event>
 4    1  0.1852677E-008  0.8003015E+03  0.7818608E-02  0.9559581E-01
          1   -1    0    0  501    0  0.00000000000E+00  0.00000000000E+00  0.51934065797E+03  0.51934065799E+03  0.50400000000E-02 0. -1.
         -1   -1    0    0    0  501 -0.00000000000E+00 -0.00000000000E+00 -0.21152766367E+04  0.21152766367E+04  0.50400000000E-02 0.  1.
    8880022    1    1    2    0    0  0.41888402903E+03 -0.66455018429E+03 -0.16486008763E+04  0.18325848629E+04  0.15294330000E+03 0.  0.
    8880022    1    1    2    0    0 -0.41888402903E+03  0.66455018429E+03  0.52664897601E+02  0.80203243181E+03  0.15294330000E+03 0. -1.
<mgrwt>
<rscale>  0 0.80030146E+03</rscale>
<asrwt>0</asrwt>
<pdfrwt beam="1">  1        1 0.79898564E-01 0.80030146E+03</pdfrwt>
<pdfrwt beam="2">  1       -1 0.32542717E+00 0.80030146E+03</pdfrwt>
<totfact> 0.99558070E-01</totfact>
</mgrwt>
</event>
<event>
 4    1  0.1852677E-008  0.6092080E+03  0.7818608E-02  0.9886484E-01
          1   -1    0    0  501    0  0.00000000000E+00  0.00000000000E+00  0.17179879078E+04  0.17179879079E+04  0.50400000000E-02 0. -1.
         -1   -1    0    0    0  501 -0.00000000000E+00 -0.00000000000E+00 -0.28821757020E+03  0.28821757025E+03  0.50400000000E-02 0.  1.
    8880022    1    1    2    0    0  0.58403092936E+03 -0.81551090963E+02  0.12169050286E+04  0.13608792043E+04  0.15294330000E+03 0.  0.
    8880022    1    1    2    0    0 -0.58403092936E+03  0.81551090963E+02  0.21286530900E+03  0.64532627382E+03  0.15294330000E+03 0.  0.
<mgrwt>
<rscale>  0 0.60920798E+03</rscale>
<asrwt>0</asrwt>
<pdfrwt beam="1">  1        1 0.26430584E+00 0.60920798E+03</pdfrwt>
<pdfrwt beam="2">  1       -1 0.44341164E-01 0.60920798E+03</pdfrwt>
<totfact> 0.24662852E+01</totfact>
</mgrwt>
</event>
<event>
 4    1  0.1852677E-008  0.1034567E+04  0.7818608E-02  0.9271424E-01
         -1   -1    0    0    0  501 -0.00000000000E+00  0.00000000000E+00  0.53849468071E+03  0.53849468074E+03  0.50400000000E-02 0.  1.
          1   -1    0    0  501    0  0.00000000000E+00 -0.00000000000E+00 -0.21732088512E+04  0.21732088512E+04  0.50400000000E-02 0. -1.
    8880022    1    1    2    0    0  0.76528067261E+03 -0.67917873208E+03 -0.12135639200E+04  0.15946997519E+04  0.15294330000E+03 0.  0.
    8880022    1    1    2    0    0 -0.76528067261E+03  0.67917873208E+03 -0.42115025049E+03  0.11170037800E+04  0.15294330000E+03 0.  0.
<mgrwt>
<rscale>  0 0.10345675E+04</rscale>
<asrwt>0</asrwt>
<pdfrwt beam="1">  1        1 0.33433982E+00 0.10345675E+04</pdfrwt>
<pdfrwt beam="2">  1       -1 0.82845337E-01 0.10345675E+04</pdfrwt>
<totfact> 0.33179876E+00</totfact>
</mgrwt>
</event>
<event>
 4    1  0.1969903E-008  0.9426823E+03  0.7818608E-02  0.9373745E-01
         -1   -1    0    0    0  501 -0.00000000000E+00  0.00000000000E+00  0.11715437373E+04  0.11715437373E+04  0.50400000000E-02 0.  1.
          1   -1    0    0  501    0  0.00000000000E+00 -0.00000000000E+00 -0.20934108051E+04  0.20934108051E+04  0.50400000000E-02 0. -1.
    8880022    1    1    2    0    0  0.78474628995E+03  0.49943117430E+03  0.84265736773E+03  0.12644055243E+04  0.15294330000E+03 0.  0.
    8880022    1    1    2    0    0 -0.78474628995E+03 -0.49943117430E+03 -0.17645244355E+04  0.20005490181E+04  0.15294330000E+03 0.  0.
<mgrwt>
<rscale>  0 0.94268229E+03</rscale>
<asrwt>0</asrwt>
<pdfrwt beam="1">  1        1 0.32206320E+00 0.94268229E+03</pdfrwt>
<pdfrwt beam="2">  1       -1 0.18023750E+00 0.94268229E+03</pdfrwt>
<totfact> 0.54620856E-01</totfact>
</mgrwt>
</event>
<event>
 4    1  0.1852677E-008  0.5940227E+03  0.7818608E-02  0.9917885E-01
          1   -1    0    0  501    0  0.00000000000E+00  0.00000000000E+00  0.14172460839E+04  0.14172460839E+04  0.50400000000E-02 0. -1.
         -1   -1    0    0    0  501 -0.00000000000E+00 -0.00000000000E+00 -0.41344134270E+03  0.41344134273E+03  0.50400000000E-02 0.  1.
    8880022    1    1    2    0    0  0.37189823440E+03  0.43722198836E+03 -0.75411353293E+02  0.59879035486E+03  0.15294330000E+03 0.  0.
    8880022    1    1    2    0    0 -0.37189823440E+03 -0.43722198836E+03  0.10792160945E+04  0.12318970718E+04  0.15294330000E+03 0.  0.
<mgrwt>
<rscale>  0 0.59402274E+03</rscale>
<asrwt>0</asrwt>
<pdfrwt beam="1">  1        1 0.21803786E+00 0.59402274E+03</pdfrwt>
<pdfrwt beam="2">  1       -1 0.63606361E-01 0.59402274E+03</pdfrwt>
<totfact> 0.19813124E+01</totfact>
</mgrwt>
</event>
<event>
 4    1  0.1852677E-008  0.1113254E+04  0.7818608E-02  0.9192369E-01
         -1   -1    0    0    0  501 -0.00000000000E+00  0.00000000000E+00  0.10989038839E+04  0.10989038840E+04  0.50400000000E-02 0.  1.
          1   -1    0    0  501    0  0.00000000000E+00 -0.00000000000E+00 -0.14591167750E+04  0.14591167750E+04  0.50400000000E-02 0. -1.
    8880022    1    1    2    0    0 -0.17169426108E+03  0.10892491739E+04 -0.78958213093E+03  0.13648348899E+04  0.15294330000E+03 0.  0.
    8880022    1    1    2    0    0  0.17169426108E+03 -0.10892491739E+04  0.42936923991E+03  0.11931857690E+04  0.15294330000E+03 0.  0.
<mgrwt>
<rscale>  0 0.11132539E+04</rscale>
<asrwt>0</asrwt>
<pdfrwt beam="1">  1        1 0.22447950E+00 0.11132539E+04</pdfrwt>
<pdfrwt beam="2">  1       -1 0.16906214E+00 0.11132539E+04</pdfrwt>
<totfact> 0.17297529E+00</totfact>
</mgrwt>
</event>
<event>
 4    1  0.1852677E-008  0.5220769E+03  0.7818608E-02  0.1008172E+00
         -1   -1    0    0    0  501 -0.00000000000E+00  0.00000000000E+00  0.36360199503E+03  0.36360199507E+03  0.50400000000E-02 0.  1.
          1   -1    0    0  501    0  0.00000000000E+00 -0.00000000000E+00 -0.12909452523E+04  0.12909452524E+04  0.50400000000E-02 0. -1.
    8880022    1    1    2    0    0  0.34169648891E+03 -0.36389033607E+03 -0.99937368537E+03  0.11275247595E+04  0.15294330000E+03 0.  0.
    8880022    1    1    2    0    0 -0.34169648891E+03  0.36389033607E+03  0.72030428049E+02  0.52702248795E+03  0.15294330000E+03 0.  0.
<mgrwt>
<rscale>  0 0.52207693E+03</rscale>
<asrwt>0</asrwt>
<pdfrwt beam="1">  1        1 0.19860696E+00 0.52207693E+03</pdfrwt>
<pdfrwt beam="2">  1       -1 0.55938769E-01 0.52207693E+03</pdfrwt>
<totfact> 0.31555934E+01</totfact>
</mgrwt>
</event>
<event>
 4    1  0.1852677E-008  0.2995587E+03  0.7818608E-02  0.1085461E+00
          1   -1    0    0  501    0  0.00000000000E+00  0.00000000000E+00  0.42016524993E+03  0.42016524996E+03  0.50400000000E-02 0. -1.
         -1   -1    0    0    0  501 -0.00000000000E+00 -0.00000000000E+00 -0.30255910752E+03  0.30255910756E+03  0.50400000000E-02 0.  1.
    8880022    1    1    2    0    0 -0.25415188872E+02  0.25631583234E+03 -0.13717250541E+03  0.32947183034E+03  0.15294330000E+03 0.  0.
    8880022    1    1    2    0    0  0.25415188872E+02 -0.25631583234E+03  0.25477864782E+03  0.39325252718E+03  0.15294330000E+03 0.  0.
<mgrwt>
<rscale>  0 0.29955866E+03</rscale>
<asrwt>0</asrwt>
<pdfrwt beam="1">  1        1 0.64640807E-01 0.29955866E+03</pdfrwt>
<pdfrwt beam="2">  1       -1 0.46547555E-01 0.29955866E+03</pdfrwt>
<totfact> 0.26805173E+02</totfact>
</mgrwt>
</event>
<event>
 4    1  0.1852677E-008  0.4130435E+03  0.7818608E-02  0.1039354E+00
         -1   -1    0    0    0  501 -0.00000000000E+00  0.00000000000E+00  0.30216107385E+03  0.30216107389E+03  0.50400000000E-02 0.  1.
          1   -1    0    0  501    0  0.00000000000E+00 -0.00000000000E+00 -0.24827525848E+04  0.24827525848E+04  0.50400000000E-02 0. -1.
    8880022    1    1    2    0    0 -0.28610382531E+03 -0.25565182942E+03 -0.23142207608E+04  0.23507919175E+04  0.15294330000E+03 0.  0.
    8880022    1    1    2    0    0  0.28610382531E+03  0.25565182942E+03  0.13362924984E+03  0.43412174119E+03  0.15294330000E+03 0.  0.
<mgrwt>
<rscale>  0 0.41304347E+03</rscale>
<asrwt>0</asrwt>
<pdfrwt beam="1">  1        1 0.38196192E+00 0.41304347E+03</pdfrwt>
<pdfrwt beam="2">  1       -1 0.46486321E-01 0.41304347E+03</pdfrwt>
<totfact> 0.73338362E+00</totfact>
</mgrwt>
</event>
<event>
 4    1  0.1852677E-008  0.5605532E+03  0.7818608E-02  0.9990804E-01
          1   -1    0    0  501    0  0.00000000000E+00  0.00000000000E+00  0.37971940203E+04  0.37971940203E+04  0.50400000000E-02 0. -1.
         -1   -1    0    0    0  501 -0.00000000000E+00 -0.00000000000E+00 -0.38556941520E+03  0.38556941523E+03  0.50400000000E-02 0.  1.
    8880022    1    1    2    0    0 -0.48087216187E+03  0.24411104805E+03  0.35592307563E+04  0.36031019233E+04  0.15294330000E+03 0.  0.
    8880022    1    1    2    0    0  0.48087216187E+03 -0.24411104805E+03 -0.14760615125E+03  0.57966151222E+03  0.15294330000E+03 0.  0.
<mgrwt>
<rscale>  0 0.56055320E+03</rscale>
<asrwt>0</asrwt>
<pdfrwt beam="1">  1        1 0.58418367E+00 0.56055320E+03</pdfrwt>
<pdfrwt beam="2">  1       -1 0.59318374E-01 0.56055320E+03</pdfrwt>
<totfact> 0.48215550E-01</totfact>
</mgrwt>
</event>
<event>
 4    1  0.1852677E-008  0.3586688E+03  0.7818608E-02  0.1059112E+00
         -1   -1    0    0    0  501 -0.00000000000E+00  0.00000000000E+00  0.77060786559E+03  0.77060786561E+03  0.50400000000E-02 0.  1.
          1   -1    0    0  501    0  0.00000000000E+00 -0.00000000000E+00 -0.93996107011E+03  0.93996107013E+03  0.50400000000E-02 0. -1.
    8880022    1    1    2    0    0 -0.29967803410E+03  0.12427675250E+03  0.69094883281E+03  0.77849443024E+03  0.15294330000E+03 0.  0.
    8880022    1    1    2    0    0  0.29967803410E+03 -0.12427675250E+03 -0.86030203734E+03  0.93207450550E+03  0.15294330000E+03 0. -1.
<mgrwt>
<rscale>  0 0.35866877E+03</rscale>
<asrwt>0</asrwt>
<pdfrwt beam="1">  1        1 0.14460940E+00 0.35866877E+03</pdfrwt>
<pdfrwt beam="2">  1       -1 0.11855506E+00 0.35866877E+03</pdfrwt>
<totfact> 0.11977158E+01</totfact>
</mgrwt>
</event>
<event>
 4    1  0.1852677E-008  0.6822687E+03  0.7818608E-02  0.9748045E-01
         -1   -1    0    0    0  501 -0.00000000000E+00  0.00000000000E+00  0.53918455065E+03  0.53918455068E+03  0.50400000000E-02 0.  1.
          1   -1    0    0  501    0  0.00000000000E+00 -0.00000000000E+00 -0.11374684463E+04  0.11374684463E+04  0.50400000000E-02 0. -1.
    8880022    1    1    2    0    0 -0.33994005942E+02 -0.66403565193E+03  0.11241864617E+03  0.69146839732E+03  0.15294330000E+03 0.  0.
    8880022    1    1    2    0    0  0.33994005942E+02  0.66403565193E+03 -0.71070254184E+03  0.98518459969E+03  0.15294330000E+03 0.  0.
<mgrwt>
<rscale>  0 0.68226871E+03</rscale>
<asrwt>0</asrwt>
<pdfrwt beam="1">  1        1 0.17499515E+00 0.68226871E+03</pdfrwt>
<pdfrwt beam="2">  1       -1 0.82951469E-01 0.68226871E+03</pdfrwt>
<totfact> 0.17847673E+01</totfact>
</mgrwt>
</event>
<event>
 4    1  0.1852677E-008  0.4555771E+03  0.7818608E-02  0.1026072E+00
         -1   -1    0    0    0  501 -0.00000000000E+00  0.00000000000E+00  0.32605000677E+03  0.32605000681E+03  0.50400000000E-02 0.  1.
          1   -1    0    0  501    0  0.00000000000E+00 -0.00000000000E+00 -0.99629279918E+03  0.99629279919E+03  0.50400000000E-02 0. -1.
    8880022    1    1    2    0    0 -0.14603725973E+03  0.40352443641E+03 -0.73241390423E+03  0.86254311900E+03  0.15294330000E+03 0.  0.
    8880022    1    1    2    0    0  0.14603725973E+03 -0.40352443641E+03  0.62171111829E+02  0.45979968700E+03  0.15294330000E+03 0.  0.
<mgrwt>
<rscale>  0 0.45557711E+03</rscale>
<asrwt>0</asrwt>
<pdfrwt beam="1">  1        1 0.15327581E+00 0.45557711E+03</pdfrwt>
<pdfrwt beam="2">  1       -1 0.50161540E-01 0.45557711E+03</pdfrwt>
<totfact> 0.64332889E+01</totfact>
</mgrwt>
</event>
<event>
 4    1  0.1852677E-008  0.3575790E+03  0.7818608E-02  0.1059547E+00
          1   -1    0    0  501    0  0.00000000000E+00  0.00000000000E+00  0.11812305747E+04  0.11812305747E+04  0.50400000000E-02 0. -1.
         -1   -1    0    0    0  501 -0.00000000000E+00 -0.00000000000E+00 -0.44015975698E+03  0.44015975701E+03  0.50400000000E-02 0.  1.
    8880022    1    1    2    0    0 -0.20946172089E+02 -0.32254049722E+03  0.10745237076E+04  0.11324592556E+04  0.15294330000E+03 0.  0.
    8880022    1    1    2    0    0  0.20946172089E+02  0.32254049722E+03 -0.33345288982E+03  0.48893107614E+03  0.15294330000E+03 0.  0.
<mgrwt>
<rscale>  0 0.35757904E+03</rscale>
<asrwt>0</asrwt>
<pdfrwt beam="1">  1        1 0.18172778E+00 0.35757904E+03</pdfrwt>
<pdfrwt beam="2">  1       -1 0.67716886E-01 0.35757904E+03</pdfrwt>
<totfact> 0.26828796E+01</totfact>
</mgrwt>
</event>
<event>
 4    1  0.1852677E-008  0.6021208E+03  0.7818608E-02  0.9901016E-01
         -1   -1    0    0    0  501 -0.00000000000E+00  0.00000000000E+00  0.50420793589E+03  0.50420793592E+03  0.50400000000E-02 0.  1.
          1   -1    0    0  501    0  0.00000000000E+00 -0.00000000000E+00 -0.15485045176E+04  0.15485045176E+04  0.50400000000E-02 0. -1.
    8880022    1    1    2    0    0 -0.18149678404E+03 -0.55336847279E+03 -0.12733193614E+04  0.14085068684E+04  0.15294330000E+03 0.  0.
    8880022    1    1    2    0    0  0.18149678404E+03  0.55336847279E+03  0.22902277966E+03  0.64420558513E+03  0.15294330000E+03 0.  0.
<mgrwt>
<rscale>  0 0.60212075E+03</rscale>
<asrwt>0</asrwt>
<pdfrwt beam="1">  1        1 0.23823146E+00 0.60212075E+03</pdfrwt>
<pdfrwt beam="2">  1       -1 0.77570452E-01 0.60212075E+03</pdfrwt>
<totfact> 0.10738228E+01</totfact>
</mgrwt>
</event>
<event>
 4    1  0.1852677E-008  0.2864798E+03  0.7818608E-02  0.1092202E+00
         -1   -1    0    0    0  501 -0.00000000000E+00  0.00000000000E+00  0.14288318492E+03  0.14288318501E+03  0.50400000000E-02 0.  1.
          1   -1    0    0  501    0  0.00000000000E+00 -0.00000000000E+00 -0.77556529214E+03  0.77556529216E+03  0.50400000000E-02 0. -1.
    8880022    1    1    2    0    0 -0.15905864510E+03  0.18270028500E+03 -0.82455856536E+02  0.29811016087E+03  0.15294330000E+03 0.  1.
    8880022    1    1    2    0    0  0.15905864510E+03 -0.18270028500E+03 -0.55022625068E+03  0.62033831630E+03  0.15294330000E+03 0.  0.
<mgrwt>
<rscale>  0 0.28647984E+03</rscale>
<asrwt>0</asrwt>
<pdfrwt beam="1">  1        1 0.11931773E+00 0.28647984E+03</pdfrwt>
<pdfrwt beam="2">  1       -1 0.21982029E-01 0.28647984E+03</pdfrwt>
<totfact> 0.41913928E+02</totfact>
</mgrwt>
</event>
<event>
 4    1  0.1852677E-008  0.8151738E+03  0.7818608E-02  0.9538310E-01
         -1   -1    0    0    0  501 -0.00000000000E+00  0.00000000000E+00  0.14048482246E+04  0.14048482246E+04  0.50400000000E-02 0.  1.
          1   -1    0    0  501    0  0.00000000000E+00 -0.00000000000E+00 -0.74591145848E+03  0.74591145850E+03  0.50400000000E-02 0. -1.
    8880022    1    1    2    0    0  0.78639239824E+03  0.15067731964E+03  0.97992836662E+03  0.12746638441E+04  0.15294330000E+03 0.  0.
    8880022    1    1    2    0    0 -0.78639239824E+03 -0.15067731964E+03 -0.32099160046E+03  0.87609583907E+03  0.15294330000E+03 0.  0.
<mgrwt>
<rscale>  0 0.81517379E+03</rscale>
<asrwt>0</asrwt>
<pdfrwt beam="1">  1        1 0.11475561E+00 0.81517379E+03</pdfrwt>
<pdfrwt beam="2">  1       -1 0.21613049E+00 0.81517379E+03</pdfrwt>
<totfact> 0.29736324E+00</totfact>
</mgrwt>
</event>
<event>
 4    1  0.1852677E-008  0.1822865E+03  0.7818608E-02  0.1165608E+00
         -1   -1    0    0    0  501 -0.00000000000E+00  0.00000000000E+00  0.70078637799E+03  0.70078637801E+03  0.50400000000E-02 0.  1.
          1   -1    0    0  501    0  0.00000000000E+00 -0.00000000000E+00 -0.38422716205E+03  0.38422716208E+03  0.50400000000E-02 0. -1.
    8880022    1    1    2    0    0 -0.99043807818E+02  0.51989101324E+01 -0.34965112079E+03  0.39431492975E+03  0.15294330000E+03 0.  0.
    8880022    1    1    2    0    0  0.99043807818E+02 -0.51989101324E+01  0.66621033674E+03  0.69069861034E+03  0.15294330000E+03 0.  1.
<mgrwt>
<rscale>  0 0.18228647E+03</rscale>
<asrwt>0</asrwt>
<pdfrwt beam="1">  1        1 0.59111872E-01 0.18228647E+03</pdfrwt>
<pdfrwt beam="2">  1       -1 0.10781329E+00 0.18228647E+03</pdfrwt>
<totfact> 0.56207836E+01</totfact>
</mgrwt>
</event>
<event>
 4    1  0.1852677E-008  0.4137146E+03  0.7818608E-02  0.1039132E+00
          1   -1    0    0  501    0  0.00000000000E+00  0.00000000000E+00  0.29814975619E+04  0.29814975619E+04  0.50400000000E-02 0. -1.
         -1   -1    0    0    0  501 -0.00000000000E+00 -0.00000000000E+00 -0.16338919339E+03  0.16338919346E+03  0.50400000000E-02 0.  1.
    8880022    1    1    2    0    0 -0.32613658306E+03 -0.20347729025E+03  0.26754783353E+04  0.27072761318E+04  0.15294330000E+03 0.  0.
    8880022    1    1    2    0    0  0.32613658306E+03  0.20347729025E+03  0.14263003329E+03  0.43761062358E+03  0.15294330000E+03 0.  0.
<mgrwt>
<rscale>  0 0.41371455E+03</rscale>
<asrwt>0</asrwt>
<pdfrwt beam="1">  1        1 0.45869193E+00 0.41371455E+03</pdfrwt>
<pdfrwt beam="2">  1       -1 0.25136799E-01 0.41371455E+03</pdfrwt>
<totfact> 0.98163635E+00</totfact>
</mgrwt>
</event>
<event>
 4    1  0.1852677E-008  0.5746435E+03  0.7818608E-02  0.9959455E-01
         -1   -1    0    0    0  501 -0.00000000000E+00  0.00000000000E+00  0.11264609868E+04  0.11264609868E+04  0.50400000000E-02 0.  1.
          1   -1    0    0  501    0  0.00000000000E+00 -0.00000000000E+00 -0.14747579885E+04  0.14747579885E+04  0.50400000000E-02 0. -1.
    8880022    1    1    2    0    0  0.31243121165E+03  0.45739508791E+03  0.99004284602E+03  0.11447270497E+04  0.15294330000E+03 0.  1.
    8880022    1    1    2    0    0 -0.31243121165E+03 -0.45739508791E+03 -0.13383398477E+04  0.14564919256E+04  0.15294330000E+03 0.  0.
<mgrwt>
<rscale>  0 0.57464353E+03</rscale>
<asrwt>0</asrwt>
<pdfrwt beam="1">  1        1 0.22688584E+00 0.57464353E+03</pdfrwt>
<pdfrwt beam="2">  1       -1 0.17330169E+00 0.57464353E+03</pdfrwt>
<totfact> 0.17281659E+00</totfact>
</mgrwt>
</event>
<event>
 4    1  0.1852677E-008  0.2482165E+03  0.7818608E-02  0.1114437E+00
          1   -1    0    0  501    0  0.00000000000E+00  0.00000000000E+00  0.49885750744E+03  0.49885750747E+03  0.50400000000E-02 0. -1.
         -1   -1    0    0    0  501 -0.00000000000E+00 -0.00000000000E+00 -0.90303999378E+03  0.90303999379E+03  0.50400000000E-02 0.  1.
    8880022    1    1    2    0    0  0.17629847043E+03  0.84490524751E+02 -0.85334546277E+03  0.88871251330E+03  0.15294330000E+03 0.  1.
    8880022    1    1    2    0    0 -0.17629847043E+03 -0.84490524751E+02  0.44916297644E+03  0.51318498796E+03  0.15294330000E+03 0.  0.
<mgrwt>
<rscale>  0 0.24821654E+03</rscale>
<asrwt>0</asrwt>
<pdfrwt beam="1">  1        1 0.76747309E-01 0.24821654E+03</pdfrwt>
<pdfrwt beam="2">  1       -1 0.13892923E+00 0.24821654E+03</pdfrwt>
<totfact> 0.21357554E+01</totfact>
</mgrwt>
</event>
<event>
 4    1  0.1852677E-008  0.3936822E+03  0.7818608E-02  0.1045990E+00
         -1   -1    0    0    0  501 -0.00000000000E+00  0.00000000000E+00  0.11517544149E+03  0.11517544160E+03  0.50400000000E-02 0.  1.
          1   -1    0    0  501    0  0.00000000000E+00 -0.00000000000E+00 -0.21132115201E+04  0.21132115201E+04  0.50400000000E-02 0. -1.
    8880022    1    1    2    0    0  0.35878491502E+03  0.53548050079E+02 -0.16705182379E+04  0.17162799437E+04  0.15294330000E+03 0.  0.
    8880022    1    1    2    0    0 -0.35878491502E+03 -0.53548050079E+02 -0.32751784072E+03  0.51210701803E+03  0.15294330000E+03 0.  0.
<mgrwt>
<rscale>  0 0.39368218E+03</rscale>
<asrwt>0</asrwt>
<pdfrwt beam="1">  1        1 0.32510944E+00 0.39368218E+03</pdfrwt>
<pdfrwt beam="2">  1       -1 0.17719300E-01 0.39368218E+03</pdfrwt>
<totfact> 0.68203333E+01</totfact>
</mgrwt>
</event>
<event>
 4    1  0.1852677E-008  0.2109673E+03  0.7818608E-02  0.1140802E+00
         -1   -1    0    0    0  501 -0.00000000000E+00  0.00000000000E+00  0.51352245915E+03  0.51352245917E+03  0.50400000000E-02 0.  1.
          1   -1    0    0  501    0  0.00000000000E+00 -0.00000000000E+00 -0.18577880728E+03  0.18577880734E+03  0.50400000000E-02 0. -1.
    8880022    1    1    2    0    0 -0.39806658321E+02 -0.13975331592E+03  0.41925449210E+03  0.46934160429E+03  0.15294330000E+03 0.  1.
    8880022    1    1    2    0    0  0.39806658321E+02  0.13975331592E+03 -0.91510840228E+02  0.22995966223E+03  0.15294330000E+03 0.  0.
<mgrwt>
<rscale>  0 0.21096733E+03</rscale>
<asrwt>0</asrwt>
<pdfrwt beam="1">  1        1 0.28581356E-01 0.21096733E+03</pdfrwt>
<pdfrwt beam="2">  1       -1 0.79003454E-01 0.21096733E+03</pdfrwt>
<totfact> 0.27250793E+02</totfact>
</mgrwt>
</event>
<event>
 4    1  0.1852677E-008  0.8130387E+03  0.7818608E-02  0.9541334E-01
         -1   -1    0    0    0  501 -0.00000000000E+00  0.00000000000E+00  0.11063938671E+04  0.11063938671E+04  0.50400000000E-02 0.  1.
          1   -1    0    0  501    0  0.00000000000E+00 -0.00000000000E+00 -0.68765062973E+03  0.68765062975E+03  0.50400000000E-02 0. -1.
    8880022    1    1    2    0    0 -0.13592869458E+03  0.78686956345E+03  0.53422483989E+03  0.97284538980E+03  0.15294330000E+03 0.  0.
    8880022    1    1    2    0    0  0.13592869458E+03 -0.78686956345E+03 -0.11548160252E+03  0.82119910706E+03  0.15294330000E+03 0.  0.
<mgrwt>
<rscale>  0 0.81303873E+03</rscale>
<asrwt>0</asrwt>
<pdfrwt beam="1">  1        1 0.10579240E+00 0.81303873E+03</pdfrwt>
<pdfrwt beam="2">  1       -1 0.17021444E+00 0.81303873E+03</pdfrwt>
<totfact> 0.70305480E+00</totfact>
</mgrwt>
</event>
<event>
 4    1  0.1852677E-008  0.8867730E+03  0.7818608E-02  0.9442268E-01
         -1   -1    0    0    0  501 -0.00000000000E+00  0.00000000000E+00  0.93062354839E+03  0.93062354841E+03  0.50400000000E-02 0.  1.
          1   -1    0    0  501    0  0.00000000000E+00 -0.00000000000E+00 -0.32464463343E+04  0.32464463343E+04  0.50400000000E-02 0. -1.
    8880022    1    1    2    0    0 -0.70347754026E+03  0.51777804922E+03  0.63837298658E+03  0.10926511250E+04  0.15294330000E+03 0.  0.
    8880022    1    1    2    0    0  0.70347754026E+03 -0.51777804922E+03 -0.29541957725E+04  0.30844187577E+04  0.15294330000E+03 0. -1.
<mgrwt>
<rscale>  0 0.88677303E+03</rscale>
<asrwt>0</asrwt>
<pdfrwt beam="1">  1        1 0.49945328E+00 0.88677303E+03</pdfrwt>
<pdfrwt beam="2">  1       -1 0.14317286E+00 0.88677303E+03</pdfrwt>
<totfact> 0.16399173E-01</totfact>
</mgrwt>
</event>
<event>
 4    1  0.1852677E-008  0.6067947E+03  0.7818608E-02  0.9891409E-01
          1   -1    0    0  501    0  0.00000000000E+00  0.00000000000E+00  0.60500300044E+03  0.60500300046E+03  0.50400000000E-02 0. -1.
         -1   -1    0    0    0  501 -0.00000000000E+00 -0.00000000000E+00 -0.80263976648E+03  0.80263976650E+03  0.50400000000E-02 0.  1.
    8880022    1    1    2    0    0  0.58709953951E+03 -0.11057510145E+02 -0.44488268815E+03  0.75240972685E+03  0.15294330000E+03 0.  0.
    8880022    1    1    2    0    0 -0.58709953951E+03  0.11057510145E+02  0.24724592211E+03  0.65523304010E+03  0.15294330000E+03 0.  0.
<mgrwt>
<rscale>  0 0.60679469E+03</rscale>
<asrwt>0</asrwt>
<pdfrwt beam="1">  1        1 0.93077385E-01 0.60679469E+03</pdfrwt>
<pdfrwt beam="2">  1       -1 0.12348304E+00 0.60679469E+03</pdfrwt>
<totfact> 0.20390237E+01</totfact>
</mgrwt>
</event>
<event>
 4    1  0.1852677E-008  0.8972550E+03  0.7818608E-02  0.9429019E-01
         -1   -1    0    0    0  501 -0.00000000000E+00  0.00000000000E+00  0.16320001363E+04  0.16320001363E+04  0.50400000000E-02 0.  1.
          1   -1    0    0  501    0  0.00000000000E+00 -0.00000000000E+00 -0.54755003070E+03  0.54755003072E+03  0.50400000000E-02 0. -1.
    8880022    1    1    2    0    0  0.22226199486E+03  0.85573036387E+03  0.19920231056E+03  0.91910176997E+03  0.15294330000E+03 0.  0.
    8880022    1    1    2    0    0 -0.22226199486E+03 -0.85573036387E+03  0.88524779504E+03  0.12604483971E+04  0.15294330000E+03 0.  0.
<mgrwt>
<rscale>  0 0.89725498E+03</rscale>
<asrwt>0</asrwt>
<pdfrwt beam="1">  1        1 0.84238466E-01 0.89725498E+03</pdfrwt>
<pdfrwt beam="2">  1       -1 0.25107695E+00 0.89725498E+03</pdfrwt>
<totfact> 0.27355861E+00</totfact>
</mgrwt>
</event>
<event>
 4    1  0.1852677E-008  0.2604534E+03  0.7818608E-02  0.1106871E+00
         -1   -1    0    0    0  501 -0.00000000000E+00  0.00000000000E+00  0.18898564033E+03  0.18898564039E+03  0.50400000000E-02 0.  1.
          1   -1    0    0  501    0  0.00000000000E+00 -0.00000000000E+00 -0.10982696060E+04  0.10982696060E+04  0.50400000000E-02 0. -1.
    8880022    1    1    2    0    0  0.12074961347E+03  0.17281160711E+03 -0.98271862692E+03  0.10166473693E+04  0.15294330000E+03 0. -1.
    8880022    1    1    2    0    0 -0.12074961347E+03 -0.17281160711E+03  0.73434661223E+02  0.27060787717E+03  0.15294330000E+03 0.  0.
<mgrwt>
<rscale>  0 0.26045340E+03</rscale>
<asrwt>0</asrwt>
<pdfrwt beam="1">  1        1 0.16896455E+00 0.26045340E+03</pdfrwt>
<pdfrwt beam="2">  1       -1 0.29074714E-01 0.26045340E+03</pdfrwt>
<totfact> 0.14778152E+02</totfact>
</mgrwt>
</event>
<event>
 4    1  0.1852677E-008  0.8261711E+03  0.7818608E-02  0.9522889E-01
         -1   -1    0    0    0  501 -0.00000000000E+00  0.00000000000E+00  0.19148760805E+04  0.19148760805E+04  0.50400000000E-02 0.  1.
          1   -1    0    0  501    0  0.00000000000E+00 -0.00000000000E+00 -0.16024589972E+04  0.16024589972E+04  0.50400000000E-02 0. -1.
    8880022    1    1    2    0    0  0.55182781982E+03  0.59552754215E+03 -0.13945735472E+04  0.16209238192E+04  0.15294330000E+03 0.  0.
    8880022    1    1    2    0    0 -0.55182781982E+03 -0.59552754215E+03  0.17069906305E+04  0.18964112586E+04  0.15294330000E+03 0.  0.
<mgrwt>
<rscale>  0 0.82617108E+03</rscale>
<asrwt>0</asrwt>
<pdfrwt beam="1">  1        1 0.24653215E+00 0.82617108E+03</pdfrwt>
<pdfrwt beam="2">  1       -1 0.29459632E+00 0.82617108E+03</pdfrwt>
<totfact> 0.20977198E-01</totfact>
</mgrwt>
</event>
<event>
 4    1  0.1852677E-008  0.9972790E+03  0.7818608E-02  0.9311534E-01
          1   -1    0    0  501    0  0.00000000000E+00  0.00000000000E+00  0.15275408718E+04  0.15275408718E+04  0.50400000000E-02 0. -1.
         -1   -1    0    0    0  501 -0.00000000000E+00 -0.00000000000E+00 -0.84497750432E+03  0.84497750433E+03  0.50400000000E-02 0.  1.
    8880022    1    1    2    0    0  0.15847494228E+03 -0.97265589092E+03  0.90952294364E+03  0.13497397629E+04  0.15294330000E+03 0.  0.
    8880022    1    1    2    0    0 -0.15847494228E+03  0.97265589092E+03 -0.22695957617E+03  0.10227786132E+04  0.15294330000E+03 0.  0.
<mgrwt>
<rscale>  0 0.99727902E+03</rscale>
<asrwt>0</asrwt>
<pdfrwt beam="1">  1        1 0.23500629E+00 0.99727902E+03</pdfrwt>
<pdfrwt beam="2">  1       -1 0.12999654E+00 0.99727902E+03</pdfrwt>
<totfact> 0.31942927E+00</totfact>
</mgrwt>
</event>
<event>
 4    1  0.1852677E-008  0.4657761E+03  0.7818608E-02  0.1023119E+00
         -1   -1    0    0    0  501 -0.00000000000E+00  0.00000000000E+00  0.15146350740E+03  0.15146350748E+03  0.50400000000E-02 0.  1.
          1   -1    0    0  501    0  0.00000000000E+00 -0.00000000000E+00 -0.29738301505E+04  0.29738301505E+04  0.50400000000E-02 0. -1.
    8880022    1    1    2    0    0  0.43893940386E+03  0.29798220100E+02 -0.25362363557E+04  0.25786512441E+04  0.15294330000E+03 0.  0.
    8880022    1    1    2    0    0 -0.43893940386E+03 -0.29798220100E+02 -0.28613028740E+03  0.54664241380E+03  0.15294330000E+03 0.  0.
<mgrwt>
<rscale>  0 0.46577611E+03</rscale>
<asrwt>0</asrwt>
<pdfrwt beam="1">  1        1 0.45751229E+00 0.46577611E+03</pdfrwt>
<pdfrwt beam="2">  1       -1 0.23302080E-01 0.46577611E+03</pdfrwt>
<totfact> 0.11118866E+01</totfact>
</mgrwt>
</event>
<event>
 4    1  0.1852677E-008  0.5735452E+03  0.7818608E-02  0.9961864E-01
         -1   -1    0    0    0  501 -0.00000000000E+00  0.00000000000E+00  0.54261599783E+03  0.54261599786E+03  0.50400000000E-02 0.  1.
          1   -1    0    0  501    0  0.00000000000E+00 -0.00000000000E+00 -0.69388623185E+03  0.69388623187E+03  0.50400000000E-02 0. -1.
    8880022    1    1    2    0    0  0.42906736048E+03 -0.34851634591E+03 -0.29536742131E+03  0.64513255211E+03  0.15294330000E+03 0.  0.
    8880022    1    1    2    0    0 -0.42906736048E+03  0.34851634591E+03  0.14409718729E+03  0.59136967762E+03  0.15294330000E+03 0.  0.
<mgrwt>
<rscale>  0 0.57354520E+03</rscale>
<asrwt>0</asrwt>
<pdfrwt beam="1">  1        1 0.10675173E+00 0.57354520E+03</pdfrwt>
<pdfrwt beam="2">  1       -1 0.83479384E-01 0.57354520E+03</pdfrwt>
<totfact> 0.41007171E+01</totfact>
</mgrwt>
</event>
<event>
 4    1  0.1852677E-008  0.1784701E+03  0.7818608E-02  0.1169292E+00
         -1   -1    0    0    0  501 -0.00000000000E+00  0.00000000000E+00  0.10715376617E+04  0.10715376617E+04  0.50400000000E-02 0.  1.
          1   -1    0    0  501    0  0.00000000000E+00 -0.00000000000E+00 -0.13989769890E+03  0.13989769899E+03  0.50400000000E-02 0. -1.
    8880022    1    1    2    0    0  0.91940271169E+02 -0.26320727200E+01  0.10033487426E+04  0.10190977841E+04  0.15294330000E+03 0.  1.
    8880022    1    1    2    0    0 -0.91940271169E+02  0.26320727200E+01 -0.71708779776E+02  0.19233757662E+03  0.15294330000E+03 0.  0.
<mgrwt>
<rscale>  0 0.17847015E+03</rscale>
<asrwt>0</asrwt>
<pdfrwt beam="1">  1        1 0.21522722E-01 0.17847015E+03</pdfrwt>
<pdfrwt beam="2">  1       -1 0.16485196E+00 0.17847015E+03</pdfrwt>
<totfact> 0.69793722E+01</totfact>
</mgrwt>
</event>
<event>
 4    1  0.1852677E-008  0.6736344E+03  0.7818608E-02  0.9763414E-01
         -1   -1    0    0    0  501 -0.00000000000E+00  0.00000000000E+00  0.30501171606E+03  0.30501171610E+03  0.50400000000E-02 0.  1.
          1   -1    0    0  501    0  0.00000000000E+00 -0.00000000000E+00 -0.21823106402E+04  0.21823106402E+04  0.50400000000E-02 0. -1.
    8880022    1    1    2    0    0  0.40134192431E+03 -0.51895693372E+03 -0.16402609842E+04  0.17732003238E+04  0.15294330000E+03 0. -1.
    8880022    1    1    2    0    0 -0.40134192431E+03  0.51895693372E+03 -0.23703793998E+03  0.71412203248E+03  0.15294330000E+03 0.  0.
<mgrwt>
<rscale>  0 0.67363439E+03</rscale>
<asrwt>0</asrwt>
<pdfrwt beam="1">  1        1 0.33574009E+00 0.67363439E+03</pdfrwt>
<pdfrwt beam="2">  1       -1 0.46924881E-01 0.67363439E+03</pdfrwt>
<totfact> 0.10766337E+01</totfact>
</mgrwt>
</event>
<event>
 4    1  0.1852677E-008  0.2160485E+03  0.7818608E-02  0.1136864E+00
         -1   -1    0    0    0  501 -0.00000000000E+00  0.00000000000E+00  0.78017690867E+03  0.78017690869E+03  0.50400000000E-02 0.  1.
          1   -1    0    0  501    0  0.00000000000E+00 -0.00000000000E+00 -0.81023011937E+03  0.81023011938E+03  0.50400000000E-02 0. -1.
    8880022    1    1    2    0    0 -0.14568897718E+03  0.45387293565E+02 -0.78030761118E+03  0.80966468712E+03  0.15294330000E+03 0.  0.
    8880022    1    1    2    0    0  0.14568897718E+03 -0.45387293565E+02  0.75025440049E+03  0.78074234095E+03  0.15294330000E+03 0.  1.
<mgrwt>
<rscale>  0 0.21604846E+03</rscale>
<asrwt>0</asrwt>
<pdfrwt beam="1">  1        1 0.12465079E+00 0.21604846E+03</pdfrwt>
<pdfrwt beam="2">  1       -1 0.12002722E+00 0.21604846E+03</pdfrwt>
<totfact> 0.15551997E+01</totfact>
</mgrwt>
</event>
<event>
 4    1  0.1852677E-008  0.1302499E+04  0.7818608E-02  0.9027586E-01
          1   -1    0    0  501    0  0.00000000000E+00  0.00000000000E+00  0.26650133007E+04  0.26650133007E+04  0.50400000000E-02 0. -1.
         -1   -1    0    0    0  501 -0.00000000000E+00 -0.00000000000E+00 -0.85531029742E+03  0.85531029743E+03  0.50400000000E-02 0.  1.
    8880022    1    1    2    0    0  0.29604411085E+03  0.12591547462E+04  0.17949567965E+04  0.22177408200E+04  0.15294330000E+03 0.  0.
    8880022    1    1    2    0    0 -0.29604411085E+03 -0.12591547462E+04  0.14746206791E+02  0.13025827782E+04  0.15294330000E+03 0.  0.
<mgrwt>
<rscale>  0 0.13024993E+04</rscale>
<asrwt>0</asrwt>
<pdfrwt beam="1">  1        1 0.41000205E+00 0.13024993E+04</pdfrwt>
<pdfrwt beam="2">  1       -1 0.13158620E+00 0.13024993E+04</pdfrwt>
<totfact> 0.49847203E-01</totfact>
</mgrwt>
</event>
<event>
 4    1  0.1852677E-008  0.4180886E+03  0.7818608E-02  0.1037690E+00
         -1   -1    0    0    0  501 -0.00000000000E+00  0.00000000000E+00  0.51312611383E+03  0.51312611385E+03  0.50400000000E-02 0.  1.
          1   -1    0    0  501    0  0.00000000000E+00 -0.00000000000E+00 -0.12760259475E+04  0.12760259475E+04  0.50400000000E-02 0. -1.
    8880022    1    1    2    0    0 -0.38299137307E+03  0.68731871884E+02 -0.11473636076E+04  0.12211639378E+04  0.15294330000E+03 0. -1.
    8880022    1    1    2    0    0  0.38299137307E+03 -0.68731871884E+02  0.38446377388E+03  0.56798812355E+03  0.15294330000E+03 0.  0.
<mgrwt>
<rscale>  0 0.41808864E+03</rscale>
<asrwt>0</asrwt>
<pdfrwt beam="1">  1        1 0.19631168E+00 0.41808864E+03</pdfrwt>
<pdfrwt beam="2">  1       -1 0.78942479E-01 0.41808864E+03</pdfrwt>
<totfact> 0.16558561E+01</totfact>
</mgrwt>
</event>
<event>
 4    1  0.1852677E-008  0.2098697E+03  0.7818608E-02  0.1141669E+00
         -1   -1    0    0    0  501 -0.00000000000E+00  0.00000000000E+00  0.38469438293E+02  0.38469438623E+02  0.50400000000E-02 0.  1.
          1   -1    0    0  501    0  0.00000000000E+00 -0.00000000000E+00 -0.12814467222E+04  0.12814467222E+04  0.50400000000E-02 0. -1.
    8880022    1    1    2    0    0 -0.12805439197E+03  0.65235669559E+02 -0.83688583115E+03  0.86279961015E+03  0.15294330000E+03 0.  0.
    8880022    1    1    2    0    0  0.12805439197E+03 -0.65235669559E+02 -0.40609145271E+03  0.45711655064E+03  0.15294330000E+03 0.  1.
<mgrwt>
<rscale>  0 0.20986966E+03</rscale>
<asrwt>0</asrwt>
<pdfrwt beam="1">  1        1 0.19714562E+00 0.20986966E+03</pdfrwt>
<pdfrwt beam="2">  1       -1 0.59183761E-02 0.20986966E+03</pdfrwt>
<totfact> 0.13736746E+03</totfact>
</mgrwt>
</event>
<event>
 4    1  0.1852677E-008  0.3434619E+03  0.7818608E-02  0.1065331E+00
         -1   -1    0    0    0  501 -0.00000000000E+00  0.00000000000E+00  0.18675696115E+03  0.18675696122E+03  0.50400000000E-02 0.  1.
          1   -1    0    0  501    0  0.00000000000E+00 -0.00000000000E+00 -0.41910082620E+04  0.41910082620E+04  0.50400000000E-02 0. -1.
    8880022    1    1    2    0    0  0.14019954124E+03  0.27371249386E+03 -0.40193245311E+04  0.40339727044E+04  0.15294330000E+03 0.  0.
    8880022    1    1    2    0    0 -0.14019954124E+03 -0.27371249386E+03  0.15073230314E+02  0.34379251875E+03  0.15294330000E+03 0.  0.
<mgrwt>
<rscale>  0 0.34346192E+03</rscale>
<asrwt>0</asrwt>
<pdfrwt beam="1">  1        1 0.64477043E+00 0.34346192E+03</pdfrwt>
<pdfrwt beam="2">  1       -1 0.28731843E-01 0.34346192E+03</pdfrwt>
<totfact> 0.91162279E-01</totfact>
</mgrwt>
</event>
<event>
 4    1  0.1852677E-008  0.6911340E+03  0.7818608E-02  0.9732516E-01
          1   -1    0    0  501    0  0.00000000000E+00  0.00000000000E+00  0.13432553499E+04  0.13432553499E+04  0.50400000000E-02 0. -1.
         -1   -1    0    0    0  501 -0.00000000000E+00 -0.00000000000E+00 -0.70209272818E+03  0.70209272820E+03  0.50400000000E-02 0.  1.
    8880022    1    1    2    0    0  0.54971165599E+03 -0.38998921389E+03  0.10390121012E+04  0.12478831240E+04  0.15294330000E+03 0.  0.
    8880022    1    1    2    0    0 -0.54971165599E+03  0.38998921389E+03 -0.39784947949E+03  0.79746495411E+03  0.15294330000E+03 0.  0.
<mgrwt>
<rscale>  0 0.69113396E+03</rscale>
<asrwt>0</asrwt>
<pdfrwt beam="1">  1        1 0.20665467E+00 0.69113396E+03</pdfrwt>
<pdfrwt beam="2">  1       -1 0.10801427E+00 0.69113396E+03</pdfrwt>
<totfact> 0.70359842E+00</totfact>
</mgrwt>
</event>
<event>
 4    1  0.1852677E-008  0.2948671E+03  0.7818608E-02  0.1087835E+00
          1   -1    0    0  501    0  0.00000000000E+00  0.00000000000E+00  0.15402610137E+04  0.15402610138E+04  0.50400000000E-02 0. -1.
         -1   -1    0    0    0  501 -0.00000000000E+00 -0.00000000000E+00 -0.74281436489E+02  0.74281436660E+02  0.50400000000E-02 0.  1.
    8880022    1    1    2    0    0 -0.25180432986E+03 -0.12229173362E+02  0.11285214487E+04  0.11664078559E+04  0.15294330000E+03 0.  1.
    8880022    1    1    2    0    0  0.25180432986E+03  0.12229173362E+02  0.33745812856E+03  0.44813459447E+03  0.15294330000E+03 0.  0.
<mgrwt>
<rscale>  0 0.29486713E+03</rscale>
<asrwt>0</asrwt>
<pdfrwt beam="1">  1        1 0.23696322E+00 0.29486713E+03</pdfrwt>
<pdfrwt beam="2">  1       -1 0.11427914E-01 0.29486713E+03</pdfrwt>
<totfact> 0.33286034E+02</totfact>
</mgrwt>
</event>
<event>
 4    1  0.1852677E-008  0.2504184E+03  0.7818608E-02  0.1113041E+00
          1   -1    0    0  501    0  0.00000000000E+00  0.00000000000E+00  0.62368728876E+03  0.62368728878E+03  0.50400000000E-02 0. -1.
         -1   -1    0    0    0  501 -0.00000000000E+00 -0.00000000000E+00 -0.22376554057E+03  0.22376554063E+03  0.50400000000E-02 0.  1.
    8880022    1    1    2    0    0 -0.19621276404E+03  0.28605559857E+02 -0.11447232546E+03  0.27534213833E+03  0.15294330000E+03 0.  0.
    8880022    1    1    2    0    0  0.19621276404E+03 -0.28605559857E+02  0.51439407364E+03  0.57211069108E+03  0.15294330000E+03 0. -1.
<mgrwt>
<rscale>  0 0.25041841E+03</rscale>
<asrwt>0</asrwt>
<pdfrwt beam="1">  1        1 0.95951891E-01 0.25041841E+03</pdfrwt>
<pdfrwt beam="2">  1       -1 0.34425468E-01 0.25041841E+03</pdfrwt>
<totfact> 0.27110919E+02</totfact>
</mgrwt>
</event>
<event>
 4    1  0.1852677E-008  0.7402898E+03  0.7818608E-02  0.9650709E-01
          1   -1    0    0  501    0  0.00000000000E+00  0.00000000000E+00  0.86108395105E+03  0.86108395106E+03  0.50400000000E-02 0. -1.
         -1   -1    0    0    0  501 -0.00000000000E+00 -0.00000000000E+00 -0.78717534550E+03  0.78717534552E+03  0.50400000000E-02 0.  1.
    8880022    1    1    2    0    0 -0.70782944284E+03 -0.15367092415E+03  0.39758795408E+03  0.84030060533E+03  0.15294330000E+03 0. -1.
    8880022    1    1    2    0    0  0.70782944284E+03  0.15367092415E+03 -0.32367934853E+03  0.80795869125E+03  0.15294330000E+03 0.  1.
<mgrwt>
<rscale>  0 0.74028976E+03</rscale>
<asrwt>0</asrwt>
<pdfrwt beam="1">  1        1 0.13247445E+00 0.74028976E+03</pdfrwt>
<pdfrwt beam="2">  1       -1 0.12110390E+00 0.74028976E+03</pdfrwt>
<totfact> 0.12241555E+01</totfact>
</mgrwt>
</event>
<event>
 4    1  0.1852677E-008  0.2083342E+03  0.7818608E-02  0.1142892E+00
         -1   -1    0    0    0  501 -0.00000000000E+00  0.00000000000E+00  0.19884830872E+03  0.19884830879E+03  0.50400000000E-02 0.  1.
          1   -1    0    0  501    0  0.00000000000E+00 -0.00000000000E+00 -0.72635187707E+03  0.72635187708E+03  0.50400000000E-02 0. -1.
    8880022    1    1    2    0    0  0.30609411704E+02 -0.13811069002E+03 -0.65065103961E+03  0.68319098878E+03  0.15294330000E+03 0.  0.
    8880022    1    1    2    0    0 -0.30609411704E+02  0.13811069002E+03  0.12314747127E+03  0.24200919709E+03  0.15294330000E+03 0.  0.
<mgrwt>
<rscale>  0 0.20833423E+03</rscale>
<asrwt>0</asrwt>
<pdfrwt beam="1">  1        1 0.11174644E+00 0.20833423E+03</pdfrwt>
<pdfrwt beam="2">  1       -1 0.30592048E-01 0.20833423E+03</pdfrwt>
<totfact> 0.26827175E+02</totfact>
</mgrwt>
</event>
<event>
 4    1  0.1852677E-008  0.1767532E+03  0.7818608E-02  0.1170983E+00
          1   -1    0    0  501    0  0.00000000000E+00  0.00000000000E+00  0.18639846917E+04  0.18639846917E+04  0.50400000000E-02 0. -1.
         -1   -1    0    0    0  501 -0.00000000000E+00 -0.00000000000E+00 -0.39280314686E+03  0.39280314689E+03  0.50400000000E-02 0.  1.
    8880022    1    1    2    0    0  0.88565870852E+02  0.24785684581E+01  0.18396482570E+04  0.18481199688E+04  0.15294330000E+03 0. -1.
    8880022    1    1    2    0    0 -0.88565870852E+02 -0.24785684581E+01 -0.36846671216E+03  0.40866786975E+03  0.15294330000E+03 0.  0.
<mgrwt>
<rscale>  0 0.17675325E+03</rscale>
<asrwt>0</asrwt>
<pdfrwt beam="1">  1        1 0.28676687E+00 0.17675325E+03</pdfrwt>
<pdfrwt beam="2">  1       -1 0.60431255E-01 0.17675325E+03</pdfrwt>
<totfact> 0.12709420E+01</totfact>
</mgrwt>
</event>
<event>
 4    1  0.1852677E-008  0.3629841E+03  0.7818608E-02  0.1057409E+00
          1   -1    0    0  501    0  0.00000000000E+00  0.00000000000E+00  0.22329761650E+04  0.22329761651E+04  0.50400000000E-02 0. -1.
         -1   -1    0    0    0  501 -0.00000000000E+00 -0.00000000000E+00 -0.30753194962E+03  0.30753194967E+03  0.50400000000E-02 0.  1.
    8880022    1    1    2    0    0  0.71906938412E+02 -0.32124004687E+03  0.21046323086E+04  0.21357047041E+04  0.15294330000E+03 0.  0.
    8880022    1    1    2    0    0 -0.71906938412E+02  0.32124004687E+03 -0.17918809320E+03  0.40480341064E+03  0.15294330000E+03 0.  0.
<mgrwt>
<rscale>  0 0.36298406E+03</rscale>
<asrwt>0</asrwt>
<pdfrwt beam="1">  1        1 0.34353479E+00 0.36298406E+03</pdfrwt>
<pdfrwt beam="2">  1       -1 0.47312608E-01 0.36298406E+03</pdfrwt>
<totfact> 0.10587101E+01</totfact>
</mgrwt>
</event>
<event>
 4    1  0.1852677E-008  0.4754297E+03  0.7818608E-02  0.1020399E+00
         -1   -1    0    0    0  501 -0.00000000000E+00  0.00000000000E+00  0.41245200562E+03  0.41245200565E+03  0.50400000000E-02 0.  1.
          1   -1    0    0  501    0  0.00000000000E+00 -0.00000000000E+00 -0.10050228394E+04  0.10050228394E+04  0.50400000000E-02 0. -1.
    8880022    1    1    2    0    0 -0.37171772544E+03 -0.25390480501E+03  0.18163458818E+03  0.50894449014E+03  0.15294330000E+03 0.  0.
    8880022    1    1    2    0    0  0.37171772544E+03  0.25390480501E+03 -0.77420542193E+03  0.90853035490E+03  0.15294330000E+03 0.  0.
<mgrwt>
<rscale>  0 0.47542967E+03</rscale>
<asrwt>0</asrwt>
<pdfrwt beam="1">  1        1 0.15461890E+00 0.47542967E+03</pdfrwt>
<pdfrwt beam="2">  1       -1 0.63454155E-01 0.47542967E+03</pdfrwt>
<totfact> 0.40155962E+01</totfact>
</mgrwt>
</event>
<event>
 4    1  0.1852677E-008  0.5987587E+03  0.7818608E-02  0.9907985E-01
          1   -1    0    0  501    0  0.00000000000E+00  0.00000000000E+00  0.53005962830E+03  0.53005962832E+03  0.50400000000E-02 0. -1.
         -1   -1    0    0    0  501 -0.00000000000E+00 -0.00000000000E+00 -0.11888150695E+04  0.11888150695E+04  0.50400000000E-02 0.  1.
    8880022    1    1    2    0    0  0.18822473681E+03 -0.54744113081E+03 -0.89364423287E+03  0.10756914108E+04  0.15294330000E+03 0.  0.
    8880022    1    1    2    0    0 -0.18822473681E+03  0.54744113081E+03  0.23488879169E+03  0.64318328704E+03  0.15294330000E+03 0.  0.
<mgrwt>
<rscale>  0 0.59875871E+03</rscale>
<asrwt>0</asrwt>
<pdfrwt beam="1">  1        1 0.81547636E-01 0.59875871E+03</pdfrwt>
<pdfrwt beam="2">  1       -1 0.18289462E+00 0.59875871E+03</pdfrwt>
<totfact> 0.85535987E+00</totfact>
</mgrwt>
</event>
<event>
 4    1  0.1852677E-008  0.6435529E+03  0.7818608E-02  0.9818953E-01
         -1   -1    0    0    0  501 -0.00000000000E+00  0.00000000000E+00  0.19664276356E+03  0.19664276362E+03  0.50400000000E-02 0.  1.
          1   -1    0    0  501    0  0.00000000000E+00 -0.00000000000E+00 -0.34090005496E+04  0.34090005496E+04  0.50400000000E-02 0. -1.
    8880022    1    1    2    0    0 -0.47783790466E+02 -0.62328591898E+03 -0.27206930219E+04  0.27957701622E+04  0.15294330000E+03 0. -1.
    8880022    1    1    2    0    0  0.47783790466E+02  0.62328591898E+03 -0.49166476413E+03  0.80987315101E+03  0.15294330000E+03 0.  0.
<mgrwt>
<rscale>  0 0.64355286E+03</rscale>
<asrwt>0</asrwt>
<pdfrwt beam="1">  1        1 0.52446158E+00 0.64355286E+03</pdfrwt>
<pdfrwt beam="2">  1       -1 0.30252735E-01 0.64355286E+03</pdfrwt>
<totfact> 0.32706281E+00</totfact>
</mgrwt>
</event>
<event>
 4    1  0.1852677E-008  0.5154554E+03  0.7818608E-02  0.1009822E+00
          1   -1    0    0  501    0  0.00000000000E+00  0.00000000000E+00  0.92720616480E+03  0.92720616481E+03  0.50400000000E-02 0. -1.
         -1   -1    0    0    0  501 -0.00000000000E+00 -0.00000000000E+00 -0.49160894848E+03  0.49160894851E+03  0.50400000000E-02 0.  1.
    8880022    1    1    2    0    0  0.30223471832E+03  0.38853160370E+03  0.67596312096E+03  0.85007083584E+03  0.15294330000E+03 0.  0.
    8880022    1    1    2    0    0 -0.30223471832E+03 -0.38853160370E+03 -0.24036590465E+03  0.56874427748E+03  0.15294330000E+03 0.  1.
<mgrwt>
<rscale>  0 0.51545542E+03</rscale>
<asrwt>0</asrwt>
<pdfrwt beam="1">  1        1 0.14264710E+00 0.51545542E+03</pdfrwt>
<pdfrwt beam="2">  1       -1 0.75632145E-01 0.51545542E+03</pdfrwt>
<totfact> 0.32137009E+01</totfact>
</mgrwt>
</event>
<event>
 4    1  0.1852677E-008  0.5839844E+03  0.7818608E-02  0.9939202E-01
         -1   -1    0    0    0  501 -0.00000000000E+00  0.00000000000E+00  0.64039980603E+03  0.64039980605E+03  0.50400000000E-02 0.  1.
          1   -1    0    0  501    0  0.00000000000E+00 -0.00000000000E+00 -0.13520972894E+04  0.13520972894E+04  0.50400000000E-02 0. -1.
    8880022    1    1    2    0    0  0.49426887072E+03 -0.27082172053E+03 -0.11314771274E+04  0.12732942566E+04  0.15294330000E+03 0.  0.
    8880022    1    1    2    0    0 -0.49426887072E+03  0.27082172053E+03  0.41977964407E+03  0.71920283889E+03  0.15294330000E+03 0.  0.
<mgrwt>
<rscale>  0 0.58398440E+03</rscale>
<asrwt>0</asrwt>
<pdfrwt beam="1">  1        1 0.20801497E+00 0.58398440E+03</pdfrwt>
<pdfrwt beam="2">  1       -1 0.98523047E-01 0.58398440E+03</pdfrwt>
<totfact> 0.87389960E+00</totfact>
</mgrwt>
</event>
<event>
 4    1  0.4420155E-008  0.8160136E+03  0.7818608E-02  0.9537123E-01
          1   -1    0    0  501    0  0.00000000000E+00  0.00000000000E+00  0.12305137542E+04  0.12305137542E+04  0.50400000000E-02 0. -1.
         -1   -1    0    0    0  501 -0.00000000000E+00 -0.00000000000E+00 -0.20034926720E+04  0.20034926721E+04  0.50400000000E-02 0.  1.
    8880022    1    1    2    0    0 -0.41933331514E+03 -0.68311498334E+03 -0.17679653578E+04  0.19471979019E+04  0.15294330000E+03 0.  0.
    8880022    1    1    2    0    0  0.41933331514E+03  0.68311498334E+03  0.99498643997E+03  0.12868085244E+04  0.15294330000E+03 0.  0.
<mgrwt>
<rscale>  0 0.81601358E+03</rscale>
<asrwt>0</asrwt>
<pdfrwt beam="1">  1        1 0.18930981E+00 0.81601358E+03</pdfrwt>
<pdfrwt beam="2">  1       -1 0.30822964E+00 0.81601358E+03</pdfrwt>
<totfact> 0.31208801E-01</totfact>
</mgrwt>
</event>
<event>
 4    1  0.1852677E-008  0.8591065E+03  0.7818608E-02  0.9478195E-01
          1   -1    0    0  501    0  0.00000000000E+00  0.00000000000E+00  0.76161627013E+03  0.76161627015E+03  0.50400000000E-02 0. -1.
         -1   -1    0    0    0  501 -0.00000000000E+00 -0.00000000000E+00 -0.21400690486E+04  0.21400690486E+04  0.50400000000E-02 0.  1.
    8880022    1    1    2    0    0 -0.84121608730E+03 -0.83831799948E+02  0.38398089399E+03  0.94101288842E+03  0.15294330000E+03 0.  0.
    8880022    1    1    2    0    0  0.84121608730E+03  0.83831799948E+02 -0.17624336724E+04  0.19606724303E+04  0.15294330000E+03 0.  0.
<mgrwt>
<rscale>  0 0.85910647E+03</rscale>
<asrwt>0</asrwt>
<pdfrwt beam="1">  1        1 0.11717173E+00 0.85910647E+03</pdfrwt>
<pdfrwt beam="2">  1       -1 0.32924139E+00 0.85910647E+03</pdfrwt>
<totfact> 0.53048918E-01</totfact>
</mgrwt>
</event>
<event>
 4    1  0.1852677E-008  0.2211732E+03  0.7818608E-02  0.1133011E+00
          1   -1    0    0  501    0  0.00000000000E+00  0.00000000000E+00  0.15970198034E+04  0.15970198034E+04  0.50400000000E-02 0. -1.
         -1   -1    0    0    0  501 -0.00000000000E+00 -0.00000000000E+00 -0.10830382860E+03  0.10830382872E+03  0.50400000000E-02 0.  1.
    8880022    1    1    2    0    0  0.54955768550E+02  0.15001925311E+03  0.22268903367E+02  0.22229140755E+03  0.15294330000E+03 0.  1.
    8880022    1    1    2    0    0 -0.54955768550E+02 -0.15001925311E+03  0.14664470714E+04  0.14830322245E+04  0.15294330000E+03 0.  0.
<mgrwt>
<rscale>  0 0.22117316E+03</rscale>
<asrwt>0</asrwt>
<pdfrwt beam="1">  1        1 0.24569534E+00 0.22117316E+03</pdfrwt>
<pdfrwt beam="2">  1       -1 0.16662128E-01 0.22117316E+03</pdfrwt>
<totfact> 0.17072779E+02</totfact>
</mgrwt>
</event>
<event>
 4    1  0.1852677E-008  0.5501570E+03  0.7818608E-02  0.1001458E+00
         -1   -1    0    0    0  501 -0.00000000000E+00  0.00000000000E+00  0.13976508292E+04  0.13976508292E+04  0.50400000000E-02 0.  1.
          1   -1    0    0  501    0  0.00000000000E+00 -0.00000000000E+00 -0.46690900177E+03  0.46690900180E+03  0.50400000000E-02 0. -1.
    8880022    1    1    2    0    0 -0.52569386667E+03 -0.54102505080E+02 -0.21728943892E+03  0.59151287035E+03  0.15294330000E+03 0.  0.
    8880022    1    1    2    0    0  0.52569386667E+03  0.54102505080E+02  0.11480312664E+04  0.12730469607E+04  0.15294330000E+03 0.  0.
<mgrwt>
<rscale>  0 0.55015705E+03</rscale>
<asrwt>0</asrwt>
<pdfrwt beam="1">  1        1 0.71832154E-01 0.55015705E+03</pdfrwt>
<pdfrwt beam="2">  1       -1 0.21502321E+00 0.55015705E+03</pdfrwt>
<totfact> 0.61913941E+00</totfact>
</mgrwt>
</event>
<event>
 4    1  0.2024020E-008  0.9968822E+03  0.7818608E-02  0.9311971E-01
          1   -1    0    0  501    0  0.00000000000E+00  0.00000000000E+00  0.16551929068E+04  0.16551929068E+04  0.50400000000E-02 0. -1.
         -1   -1    0    0    0  501 -0.00000000000E+00 -0.00000000000E+00 -0.14109193371E+04  0.14109193371E+04  0.50400000000E-02 0.  1.
    8880022    1    1    2    0    0  0.48455158311E+03  0.85766674388E+03  0.12840916218E+04  0.16256277023E+04  0.15294330000E+03 0.  0.
    8880022    1    1    2    0    0 -0.48455158311E+03 -0.85766674388E+03 -0.10398180521E+04  0.14404845416E+04  0.15294330000E+03 0.  0.
<mgrwt>
<rscale>  0 0.99688221E+03</rscale>
<asrwt>0</asrwt>
<pdfrwt beam="1">  1        1 0.25464506E+00 0.99688221E+03</pdfrwt>
<pdfrwt beam="2">  1       -1 0.21706451E+00 0.99688221E+03</pdfrwt>
<totfact> 0.59506273E-01</totfact>
</mgrwt>
</event>
<event>
 4    1  0.1852677E-008  0.2613870E+03  0.7818608E-02  0.1106313E+00
          1   -1    0    0  501    0  0.00000000000E+00  0.00000000000E+00  0.11698437361E+04  0.11698437361E+04  0.50400000000E-02 0. -1.
         -1   -1    0    0    0  501 -0.00000000000E+00 -0.00000000000E+00 -0.34292286518E+03  0.34292286521E+03  0.50400000000E-02 0.  1.
    8880022    1    1    2    0    0  0.18353861949E+03  0.10604296229E+03 -0.27550824943E+03  0.37977359468E+03  0.15294330000E+03 0.  0.
    8880022    1    1    2    0    0 -0.18353861949E+03 -0.10604296229E+03  0.11024291203E+04  0.11329930066E+04  0.15294330000E+03 0.  0.
<mgrwt>
<rscale>  0 0.26138705E+03</rscale>
<asrwt>0</asrwt>
<pdfrwt beam="1">  1        1 0.17997596E+00 0.26138705E+03</pdfrwt>
<pdfrwt beam="2">  1       -1 0.52757365E-01 0.26138705E+03</pdfrwt>
<totfact> 0.45528310E+01</totfact>
</mgrwt>
</event>
<event>
 4    1  0.1852677E-008  0.7262788E+03  0.7818608E-02  0.9673318E-01
          1   -1    0    0  501    0  0.00000000000E+00  0.00000000000E+00  0.28076018061E+04  0.28076018061E+04  0.50400000000E-02 0. -1.
         -1   -1    0    0    0  501 -0.00000000000E+00 -0.00000000000E+00 -0.49544023219E+03  0.49544023221E+03  0.50400000000E-02 0.  1.
    8880022    1    1    2    0    0  0.49736462378E+03 -0.50667313517E+03 -0.14515623695E+03  0.74064243805E+03  0.15294330000E+03 0.  0.
    8880022    1    1    2    0    0 -0.49736462378E+03  0.50667313517E+03  0.24573178109E+04  0.25623996003E+04  0.15294330000E+03 0.  0.
<mgrwt>
<rscale>  0 0.72627879E+03</rscale>
<asrwt>0</asrwt>
<pdfrwt beam="1">  1        1 0.43193875E+00 0.72627879E+03</pdfrwt>
<pdfrwt beam="2">  1       -1 0.76221572E-01 0.72627879E+03</pdfrwt>
<totfact> 0.15326787E+00</totfact>
</mgrwt>
</event>
<event>
 4    1  0.1852677E-008  0.6957648E+03  0.7818608E-02  0.9724503E-01
          1   -1    0    0  501    0  0.00000000000E+00  0.00000000000E+00  0.75298698720E+03  0.75298698722E+03  0.50400000000E-02 0. -1.
         -1   -1    0    0    0  501 -0.00000000000E+00 -0.00000000000E+00 -0.12506503674E+04  0.12506503674E+04  0.50400000000E-02 0.  1.
    8880022    1    1    2    0    0  0.20970282318E+03  0.64553985528E+03  0.44954054009E+03  0.82835700577E+03  0.15294330000E+03 0.  0.
    8880022    1    1    2    0    0 -0.20970282318E+03 -0.64553985528E+03 -0.94720392033E+03  0.11752803489E+04  0.15294330000E+03 0.  0.
<mgrwt>
<rscale>  0 0.69576478E+03</rscale>
<asrwt>0</asrwt>
<pdfrwt beam="1">  1        1 0.11584415E+00 0.69576478E+03</pdfrwt>
<pdfrwt beam="2">  1       -1 0.19240775E+00 0.69576478E+03</pdfrwt>
<totfact> 0.43280342E+00</totfact>
</mgrwt>
</event>
<event>
 4    1  0.1852677E-008  0.3761645E+03  0.7818608E-02  0.1052361E+00
          1   -1    0    0  501    0  0.00000000000E+00  0.00000000000E+00  0.35753046842E+04  0.35753046842E+04  0.50400000000E-02 0. -1.
         -1   -1    0    0    0  501 -0.00000000000E+00 -0.00000000000E+00 -0.12143009895E+03  0.12143009905E+03  0.50400000000E-02 0.  1.
    8880022    1    1    2    0    0  0.17591624824E+03 -0.29523132905E+03  0.20938811608E+03  0.43051492450E+03  0.15294330000E+03 0.  0.
    8880022    1    1    2    0    0 -0.17591624824E+03  0.29523132905E+03  0.32444864692E+04  0.32662198587E+04  0.15294330000E+03 0.  0.
<mgrwt>
<rscale>  0 0.37616448E+03</rscale>
<asrwt>0</asrwt>
<pdfrwt beam="1">  1        1 0.55004676E+00 0.37616448E+03</pdfrwt>
<pdfrwt beam="2">  1       -1 0.18681558E-01 0.37616448E+03</pdfrwt>
<totfact> 0.59477503E+00</totfact>
</mgrwt>
</event>
<event>
 4    1  0.1852677E-008  0.8074756E+03  0.7818608E-02  0.9549259E-01
         -1   -1    0    0    0  501 -0.00000000000E+00  0.00000000000E+00  0.77232040276E+03  0.77232040277E+03  0.50400000000E-02 0.  1.
          1   -1    0    0  501    0  0.00000000000E+00 -0.00000000000E+00 -0.14180456238E+04  0.14180456238E+04  0.50400000000E-02 0. -1.
    8880022    1    1    2    0    0  0.72249560112E+03  0.32653536569E+03 -0.10195330303E+04  0.13005631440E+04  0.15294330000E+03 0.  0.
    8880022    1    1    2    0    0 -0.72249560112E+03 -0.32653536569E+03  0.37380780920E+03  0.88980288262E+03  0.15294330000E+03 0.  1.
<mgrwt>
<rscale>  0 0.80747563E+03</rscale>
<asrwt>0</asrwt>
<pdfrwt beam="1">  1        1 0.21816086E+00 0.80747563E+03</pdfrwt>
<pdfrwt beam="2">  1       -1 0.11881852E+00 0.80747563E+03</pdfrwt>
<totfact> 0.48816980E+00</totfact>
</mgrwt>
</event>
<event>
 4    1  0.1852677E-008  0.1460785E+04  0.7818608E-02  0.8910957E-01
         -1   -1    0    0    0  501 -0.00000000000E+00  0.00000000000E+00  0.10190258709E+04  0.10190258709E+04  0.50400000000E-02 0.  1.
          1   -1    0    0  501    0  0.00000000000E+00 -0.00000000000E+00 -0.32257441267E+04  0.32257441267E+04  0.50400000000E-02 0. -1.
    8880022    1    1    2    0    0 -0.13971919548E+04 -0.39794065378E+03 -0.23604690138E+04  0.27759156580E+04  0.15294330000E+03 0.  0.
    8880022    1    1    2    0    0  0.13971919548E+04  0.39794065378E+03  0.15375075795E+03  0.14688543396E+04  0.15294330000E+03 0.  0.
<mgrwt>
<rscale>  0 0.14607853E+04</rscale>
<asrwt>0</asrwt>
<pdfrwt beam="1">  1        1 0.49626832E+00 0.14607853E+04</pdfrwt>
<pdfrwt beam="2">  1       -1 0.15677321E+00 0.14607853E+04</pdfrwt>
<totfact> 0.12043398E-01</totfact>
</mgrwt>
</event>
<event>
 4    1  0.1852677E-008  0.1080500E+04  0.7818608E-02  0.9224409E-01
          1   -1    0    0  501    0  0.00000000000E+00  0.00000000000E+00  0.11035561939E+04  0.11035561939E+04  0.50400000000E-02 0. -1.
         -1   -1    0    0    0  501 -0.00000000000E+00 -0.00000000000E+00 -0.11638294179E+04  0.11638294180E+04  0.50400000000E-02 0.  1.
    8880022    1    1    2    0    0  0.84891957702E+03 -0.65070985396E+03 -0.37212256521E+03  0.11427837148E+04  0.15294330000E+03 0.  0.
    8880022    1    1    2    0    0 -0.84891957702E+03  0.65070985396E+03  0.31184934117E+03  0.11246018971E+04  0.15294330000E+03 0.  0.
<mgrwt>
<rscale>  0 0.10804996E+04</rscale>
<asrwt>0</asrwt>
<pdfrwt beam="1">  1        1 0.16977788E+00 0.10804996E+04</pdfrwt>
<pdfrwt beam="2">  1       -1 0.17905068E+00 0.10804996E+04</pdfrwt>
<totfact> 0.26474751E+00</totfact>
</mgrwt>
</event>
<event>
 4    1  0.1852677E-008  0.4827818E+03  0.7818608E-02  0.1018373E+00
         -1   -1    0    0    0  501 -0.00000000000E+00  0.00000000000E+00  0.40692890230E+03  0.40692890233E+03  0.50400000000E-02 0.  1.
          1   -1    0    0  501    0  0.00000000000E+00 -0.00000000000E+00 -0.94506338702E+03  0.94506338703E+03  0.50400000000E-02 0. -1.
    8880022    1    1    2    0    0  0.34786733904E+02 -0.45659230325E+03 -0.69334871640E+03  0.84487321166E+03  0.15294330000E+03 0.  0.
    8880022    1    1    2    0    0 -0.34786733904E+02  0.45659230325E+03  0.15521423168E+03  0.50711907770E+03  0.15294330000E+03 0.  0.
<mgrwt>
<rscale>  0 0.48278184E+03</rscale>
<asrwt>0</asrwt>
<pdfrwt beam="1">  1        1 0.14539437E+00 0.48278184E+03</pdfrwt>
<pdfrwt beam="2">  1       -1 0.62604447E-01 0.48278184E+03</pdfrwt>
<totfact> 0.45833747E+01</totfact>
</mgrwt>
</event>
<event>
 4    1  0.1852677E-008  0.1268757E+04  0.7818608E-02  0.9054715E-01
          1   -1    0    0  501    0  0.00000000000E+00  0.00000000000E+00  0.21040325492E+04  0.21040325492E+04  0.50400000000E-02 0. -1.
         -1   -1    0    0    0  501 -0.00000000000E+00 -0.00000000000E+00 -0.91740026524E+03  0.91740026526E+03  0.50400000000E-02 0.  1.
    8880022    1    1    2    0    0  0.98915127836E+02 -0.12556150691E+04 -0.22268663223E+02  0.12689526983E+04  0.15294330000E+03 0.  0.
    8880022    1    1    2    0    0 -0.98915127836E+02  0.12556150691E+04  0.12089009471E+04  0.17524801161E+04  0.15294330000E+03 0.  0.
<mgrwt>
<rscale>  0 0.12687573E+04</rscale>
<asrwt>0</asrwt>
<pdfrwt beam="1">  1        1 0.32369731E+00 0.12687573E+04</pdfrwt>
<pdfrwt beam="2">  1       -1 0.14113850E+00 0.12687573E+04</pdfrwt>
<totfact> 0.10136597E+00</totfact>
</mgrwt>
</event>
<event>
 4    1  0.1852677E-008  0.1061742E+04  0.7818608E-02  0.9243305E-01
          1   -1    0    0  501    0  0.00000000000E+00  0.00000000000E+00  0.13552969779E+04  0.13552969779E+04  0.50400000000E-02 0. -1.
         -1   -1    0    0    0  501 -0.00000000000E+00 -0.00000000000E+00 -0.13076502731E+04  0.13076502731E+04  0.50400000000E-02 0.  1.
    8880022    1    1    2    0    0  0.37992822326E+03 -0.97957031988E+03  0.82704554314E+03  0.13458452548E+04  0.15294330000E+03 0.  0.
    8880022    1    1    2    0    0 -0.37992822326E+03  0.97957031988E+03 -0.77939883835E+03  0.13171019963E+04  0.15294330000E+03 0.  0.
<mgrwt>
<rscale>  0 0.10617416E+04</rscale>
<asrwt>0</asrwt>
<pdfrwt beam="1">  1        1 0.20850723E+00 0.10617416E+04</pdfrwt>
<pdfrwt beam="2">  1       -1 0.20117697E+00 0.10617416E+04</pdfrwt>
<totfact> 0.12171601E+00</totfact>
</mgrwt>
</event>
<event>
 4    1  0.1852677E-008  0.4882253E+03  0.7818608E-02  0.1016899E+00
         -1   -1    0    0    0  501 -0.00000000000E+00  0.00000000000E+00  0.19057380844E+03  0.19057380851E+03  0.50400000000E-02 0.  1.
          1   -1    0    0  501    0  0.00000000000E+00 -0.00000000000E+00 -0.15186357586E+04  0.15186357586E+04  0.50400000000E-02 0. -1.
    8880022    1    1    2    0    0  0.29680775224E+03 -0.35619864918E+03 -0.30511132433E+03  0.57572293051E+03  0.15294330000E+03 0.  0.
    8880022    1    1    2    0    0 -0.29680775224E+03  0.35619864918E+03 -0.10229506258E+04  0.11334866366E+04  0.15294330000E+03 0.  0.
<mgrwt>
<rscale>  0 0.48822533E+03</rscale>
<asrwt>0</asrwt>
<pdfrwt beam="1">  1        1 0.23363626E+00 0.48822533E+03</pdfrwt>
<pdfrwt beam="2">  1       -1 0.29319048E-01 0.48822533E+03</pdfrwt>
<totfact> 0.71471751E+01</totfact>
</mgrwt>
</event>
<event>
 4    1  0.1852677E-008  0.2153895E+03  0.7818608E-02  0.1137368E+00
          1   -1    0    0  501    0  0.00000000000E+00  0.00000000000E+00  0.65434029150E+03  0.65434029152E+03  0.50400000000E-02 0. -1.
         -1   -1    0    0    0  501 -0.00000000000E+00 -0.00000000000E+00 -0.66782213421E+03  0.66782213423E+03  0.50400000000E-02 0.  1.
    8880022    1    1    2    0    0  0.74748337379E+02  0.13196079133E+03  0.61826382137E+03  0.65470815653E+03  0.15294330000E+03 0. -1.
    8880022    1    1    2    0    0 -0.74748337379E+02 -0.13196079133E+03 -0.63174566409E+03  0.66745426922E+03  0.15294330000E+03 0.  0.
<mgrwt>
<rscale>  0 0.21538946E+03</rscale>
<asrwt>0</asrwt>
<pdfrwt beam="1">  1        1 0.10066774E+00 0.21538946E+03</pdfrwt>
<pdfrwt beam="2">  1       -1 0.10274187E+00 0.21538946E+03</pdfrwt>
<totfact> 0.30532252E+01</totfact>
</mgrwt>
</event>
<event>
 4    1  0.1852677E-008  0.4704807E+03  0.7818608E-02  0.1021785E+00
         -1   -1    0    0    0  501 -0.00000000000E+00  0.00000000000E+00  0.17688978472E+04  0.17688978472E+04  0.50400000000E-02 0.  1.
          1   -1    0    0  501    0  0.00000000000E+00 -0.00000000000E+00 -0.57590183909E+03  0.57590183911E+03  0.50400000000E-02 0. -1.
    8880022    1    1    2    0    0 -0.26369996888E+03  0.35836126126E+03 -0.44073709000E+03  0.64467146879E+03  0.15294330000E+03 0.  0.
    8880022    1    1    2    0    0  0.26369996888E+03 -0.35836126126E+03  0.16337330981E+04  0.17001282175E+04  0.15294330000E+03 0.  0.
<mgrwt>
<rscale>  0 0.47048073E+03</rscale>
<asrwt>0</asrwt>
<pdfrwt beam="1">  1        1 0.88600284E-01 0.47048073E+03</pdfrwt>
<pdfrwt beam="2">  1       -1 0.27213813E+00 0.47048073E+03</pdfrwt>
<totfact> 0.20263925E+00</totfact>
</mgrwt>
</event>
<event>
 4    1  0.1852677E-008  0.2214587E+03  0.7818608E-02  0.1132800E+00
          1   -1    0    0  501    0  0.00000000000E+00  0.00000000000E+00  0.81317607142E+02  0.81317607298E+02  0.50400000000E-02 0. -1.
         -1   -1    0    0    0  501 -0.00000000000E+00 -0.00000000000E+00 -0.12235716645E+04  0.12235716645E+04  0.50400000000E-02 0.  1.
    8880022    1    1    2    0    0  0.15480501494E+03 -0.41081976281E+02 -0.10652165227E+03  0.24574547166E+03  0.15294330000E+03 0. -1.
    8880022    1    1    2    0    0 -0.15480501494E+03  0.41081976281E+02 -0.10357324051E+04  0.10591438001E+04  0.15294330000E+03 0.  1.
<mgrwt>
<rscale>  0 0.22145874E+03</rscale>
<asrwt>0</asrwt>
<pdfrwt beam="1">  1        1 0.12510402E-01 0.22145874E+03</pdfrwt>
<pdfrwt beam="2">  1       -1 0.18824178E+00 0.22145874E+03</pdfrwt>
<totfact> 0.96154887E+01</totfact>
</mgrwt>
</event>
<event>
 4    1  0.1852677E-008  0.4073452E+03  0.7818608E-02  0.1041266E+00
         -1   -1    0    0    0  501 -0.00000000000E+00  0.00000000000E+00  0.11195380024E+03  0.11195380035E+03  0.50400000000E-02 0.  1.
          1   -1    0    0  501    0  0.00000000000E+00 -0.00000000000E+00 -0.16305523120E+04  0.16305523120E+04  0.50400000000E-02 0. -1.
    8880022    1    1    2    0    0 -0.34749267349E+03  0.14760525290E+03 -0.10221602069E+04  0.11003370440E+04  0.15294330000E+03 0.  0.
    8880022    1    1    2    0    0  0.34749267349E+03 -0.14760525290E+03 -0.49643830488E+03  0.64216906838E+03  0.15294330000E+03 0.  1.
<mgrwt>
<rscale>  0 0.40734521E+03</rscale>
<asrwt>0</asrwt>
<pdfrwt beam="1">  1        1 0.25085419E+00 0.40734521E+03</pdfrwt>
<pdfrwt beam="2">  1       -1 0.17223663E-01 0.40734521E+03</pdfrwt>
<totfact> 0.14814056E+02</totfact>
</mgrwt>
</event>
<event>
 4    1  0.1852677E-008  0.1196351E+04  0.7818608E-02  0.9116056E-01
         -1   -1    0    0    0  501 -0.00000000000E+00  0.00000000000E+00  0.12327442479E+04  0.12327442479E+04  0.50400000000E-02 0.  1.
          1   -1    0    0  501    0  0.00000000000E+00 -0.00000000000E+00 -0.14367572781E+04  0.14367572781E+04  0.50400000000E-02 0. -1.
    8880022    1    1    2    0    0 -0.69371663052E+03  0.96261192068E+03  0.48271137137E+03  0.12900644923E+04  0.15294330000E+03 0.  0.
    8880022    1    1    2    0    0  0.69371663052E+03 -0.96261192068E+03 -0.68672440157E+03  0.13794370337E+04  0.15294330000E+03 0.  0.
<mgrwt>
<rscale>  0 0.11963512E+04</rscale>
<asrwt>0</asrwt>
<pdfrwt beam="1">  1        1 0.22103958E+00 0.11963512E+04</pdfrwt>
<pdfrwt beam="2">  1       -1 0.18965296E+00 0.11963512E+04</pdfrwt>
<totfact> 0.12612029E+00</totfact>
</mgrwt>
</event>
<event>
 4    1  0.1852677E-008  0.4473011E+03  0.7818608E-02  0.1028530E+00
          1   -1    0    0  501    0  0.00000000000E+00  0.00000000000E+00  0.10648083957E+04  0.10648083957E+04  0.50400000000E-02 0. -1.
         -1   -1    0    0    0  501 -0.00000000000E+00 -0.00000000000E+00 -0.35048749164E+03  0.35048749167E+03  0.50400000000E-02 0.  1.
    8880022    1    1    2    0    0  0.39967620600E+03 -0.13017508613E+03  0.83913441416E+03  0.95090737758E+03  0.15294330000E+03 0.  0.
    8880022    1    1    2    0    0 -0.39967620600E+03  0.13017508613E+03 -0.12481351012E+03  0.46438850978E+03  0.15294330000E+03 0.  0.
<mgrwt>
<rscale>  0 0.44730110E+03</rscale>
<asrwt>0</asrwt>
<pdfrwt beam="1">  1        1 0.16381667E+00 0.44730110E+03</pdfrwt>
<pdfrwt beam="2">  1       -1 0.53921154E-01 0.44730110E+03</pdfrwt>
<totfact> 0.49890045E+01</totfact>
</mgrwt>
</event>
<event>
 4    1  0.1852677E-008  0.1239982E+04  0.7818608E-02  0.9078563E-01
          1   -1    0    0  501    0  0.00000000000E+00  0.00000000000E+00  0.12849403530E+04  0.12849403530E+04  0.50400000000E-02 0. -1.
         -1   -1    0    0    0  501 -0.00000000000E+00 -0.00000000000E+00 -0.12901290050E+04  0.12901290050E+04  0.50400000000E-02 0.  1.
    8880022    1    1    2    0    0  0.45998087255E+03  0.11413063313E+04  0.34408291458E+03  0.12868361396E+04  0.15294330000E+03 0.  0.
    8880022    1    1    2    0    0 -0.45998087255E+03 -0.11413063313E+04 -0.34927156661E+03  0.12882332185E+04  0.15294330000E+03 0.  0.
<mgrwt>
<rscale>  0 0.12399815E+04</rscale>
<asrwt>0</asrwt>
<pdfrwt beam="1">  1        1 0.19768313E+00 0.12399815E+04</pdfrwt>
<pdfrwt beam="2">  1       -1 0.19848139E+00 0.12399815E+04</pdfrwt>
<totfact> 0.13946884E+00</totfact>
</mgrwt>
</event>
<event>
 4    1  0.1852677E-008  0.3231652E+03  0.7818608E-02  0.1074202E+00
          1   -1    0    0  501    0  0.00000000000E+00  0.00000000000E+00  0.13271241391E+04  0.13271241391E+04  0.50400000000E-02 0. -1.
         -1   -1    0    0    0  501 -0.00000000000E+00 -0.00000000000E+00 -0.11450803920E+03  0.11450803931E+03  0.50400000000E-02 0.  1.
    8880022    1    1    2    0    0 -0.15468707894E+03  0.23898958848E+03  0.20318519437E+03  0.38173288045E+03  0.15294330000E+03 0.  0.
    8880022    1    1    2    0    0  0.15468707894E+03 -0.23898958848E+03  0.10094309055E+04  0.10598992979E+04  0.15294330000E+03 0. -1.
<mgrwt>
<rscale>  0 0.32316523E+03</rscale>
<asrwt>0</asrwt>
<pdfrwt beam="1">  1        1 0.20417293E+00 0.32316523E+03</pdfrwt>
<pdfrwt beam="2">  1       -1 0.17616622E-01 0.32316523E+03</pdfrwt>
<totfact> 0.23154898E+02</totfact>
</mgrwt>
</event>
<event>
 4    1  0.1852677E-008  0.8731167E+03  0.7818608E-02  0.9459825E-01
         -1   -1    0    0    0  501 -0.00000000000E+00  0.00000000000E+00  0.10164072284E+04  0.10164072284E+04  0.50400000000E-02 0.  1.
          1   -1    0    0  501    0  0.00000000000E+00 -0.00000000000E+00 -0.10071481335E+04  0.10071481336E+04  0.50400000000E-02 0. -1.
    8880022    1    1    2    0    0 -0.85765372455E+03 -0.58062330249E+02 -0.50658989300E+03  0.10094385163E+04  0.15294330000E+03 0.  0.
    8880022    1    1    2    0    0  0.85765372455E+03  0.58062330249E+02  0.51584898784E+03  0.10141168457E+04  0.15294330000E+03 0.  0.
<mgrwt>
<rscale>  0 0.87311672E+03</rscale>
<asrwt>0</asrwt>
<pdfrwt beam="1">  1        1 0.15494587E+00 0.87311672E+03</pdfrwt>
<pdfrwt beam="2">  1       -1 0.15637034E+00 0.87311672E+03</pdfrwt>
<totfact> 0.47392028E+00</totfact>
</mgrwt>
</event>
<event>
 4    1  0.1852677E-008  0.6415406E+03  0.7818608E-02  0.9822783E-01
         -1   -1    0    0    0  501 -0.00000000000E+00  0.00000000000E+00  0.22496835096E+04  0.22496835096E+04  0.50400000000E-02 0.  1.
          1   -1    0    0  501    0  0.00000000000E+00 -0.00000000000E+00 -0.31356745111E+03  0.31356745115E+03  0.50400000000E-02 0. -1.
    8880022    1    1    2    0    0  0.17870072451E+03 -0.59686578241E+03  0.17952382007E+04  0.19064245491E+04  0.15294330000E+03 0.  0.
    8880022    1    1    2    0    0 -0.17870072451E+03  0.59686578241E+03  0.14087785775E+03  0.65682641160E+03  0.15294330000E+03 0.  0.
<mgrwt>
<rscale>  0 0.64154062E+03</rscale>
<asrwt>0</asrwt>
<pdfrwt beam="1">  1        1 0.48241144E-01 0.64154062E+03</pdfrwt>
<pdfrwt beam="2">  1       -1 0.34610517E+00 0.64154062E+03</pdfrwt>
<totfact> 0.14748992E+00</totfact>
</mgrwt>
</event>
<event>
 4    1  0.1852677E-008  0.2938782E+03  0.7818608E-02  0.1088341E+00
          1   -1    0    0  501    0  0.00000000000E+00  0.00000000000E+00  0.46083428154E+03  0.46083428157E+03  0.50400000000E-02 0. -1.
         -1   -1    0    0    0  501 -0.00000000000E+00 -0.00000000000E+00 -0.37061431001E+03  0.37061431005E+03  0.50400000000E-02 0.  1.
    8880022    1    1    2    0    0 -0.20676732535E+03  0.14219718944E+03 -0.24717972421E+03  0.38400812048E+03  0.15294330000E+03 0.  0.
    8880022    1    1    2    0    0  0.20676732535E+03 -0.14219718944E+03  0.33739969574E+03  0.44744047114E+03  0.15294330000E+03 0.  0.
<mgrwt>
<rscale>  0 0.29387824E+03</rscale>
<asrwt>0</asrwt>
<pdfrwt beam="1">  1        1 0.70897581E-01 0.29387824E+03</pdfrwt>
<pdfrwt beam="2">  1       -1 0.57017587E-01 0.29387824E+03</pdfrwt>
<totfact> 0.16259677E+02</totfact>
</mgrwt>
</event>
<event>
 4    1  0.1852677E-008  0.5497527E+03  0.7818608E-02  0.1001551E+00
          1   -1    0    0  501    0  0.00000000000E+00  0.00000000000E+00  0.50714635660E+03  0.50714635663E+03  0.50400000000E-02 0. -1.
         -1   -1    0    0    0  501 -0.00000000000E+00 -0.00000000000E+00 -0.65728564367E+03  0.65728564369E+03  0.50400000000E-02 0.  1.
    8880022    1    1    2    0    0 -0.33232844569E+03 -0.41035862459E+03  0.10280095348E+03  0.55928175873E+03  0.15294330000E+03 0.  0.
    8880022    1    1    2    0    0  0.33232844569E+03  0.41035862459E+03 -0.25294024055E+03  0.60515024159E+03  0.15294330000E+03 0.  0.
<mgrwt>
<rscale>  0 0.54975272E+03</rscale>
<asrwt>0</asrwt>
<pdfrwt beam="1">  1        1 0.78022516E-01 0.54975272E+03</pdfrwt>
<pdfrwt beam="2">  1       -1 0.10112087E+00 0.54975272E+03</pdfrwt>
<totfact> 0.42140229E+01</totfact>
</mgrwt>
</event>
<event>
 4    1  0.1852677E-008  0.4552798E+03  0.7818608E-02  0.1026159E+00
         -1   -1    0    0    0  501 -0.00000000000E+00  0.00000000000E+00  0.43632029398E+03  0.43632029401E+03  0.50400000000E-02 0.  1.
          1   -1    0    0  501    0  0.00000000000E+00 -0.00000000000E+00 -0.19165629273E+04  0.19165629273E+04  0.50400000000E-02 0. -1.
    8880022    1    1    2    0    0 -0.19969677746E+03  0.37948554016E+03 -0.17603936550E+04  0.18183139310E+04  0.15294330000E+03 0. -1.
    8880022    1    1    2    0    0  0.19969677746E+03 -0.37948554016E+03  0.28015102171E+03  0.53456929027E+03  0.15294330000E+03 0.  0.
<mgrwt>
<rscale>  0 0.45527984E+03</rscale>
<asrwt>0</asrwt>
<pdfrwt beam="1">  1        1 0.29485583E+00 0.45527984E+03</pdfrwt>
<pdfrwt beam="2">  1       -1 0.67126200E-01 0.45527984E+03</pdfrwt>
<totfact> 0.84899870E+00</totfact>
</mgrwt>
</event>
<event>
 4    1  0.1852677E-008  0.6086863E+03  0.7818608E-02  0.9887547E-01
          1   -1    0    0  501    0  0.00000000000E+00  0.00000000000E+00  0.24921059019E+04  0.24921059019E+04  0.50400000000E-02 0. -1.
         -1   -1    0    0    0  501 -0.00000000000E+00 -0.00000000000E+00 -0.22893058475E+03  0.22893058481E+03  0.50400000000E-02 0.  1.
    8880022    1    1    2    0    0 -0.28428245435E+03  0.51603379174E+03  0.32601231590E+03  0.69049480173E+03  0.15294330000E+03 0.  0.
    8880022    1    1    2    0    0  0.28428245435E+03 -0.51603379174E+03  0.19371630013E+04  0.20305416850E+04  0.15294330000E+03 0.  0.
<mgrwt>
<rscale>  0 0.60868632E+03</rscale>
<asrwt>0</asrwt>
<pdfrwt beam="1">  1        1 0.38340090E+00 0.60868632E+03</pdfrwt>
<pdfrwt beam="2">  1       -1 0.35220090E-01 0.60868632E+03</pdfrwt>
<totfact> 0.11363440E+01</totfact>
</mgrwt>
</event>
<event>
 4    1  0.1852677E-008  0.3332805E+03  0.7818608E-02  0.1069695E+00
         -1   -1    0    0    0  501 -0.00000000000E+00  0.00000000000E+00  0.32842692188E+03  0.32842692192E+03  0.50400000000E-02 0.  1.
          1   -1    0    0  501    0  0.00000000000E+00 -0.00000000000E+00 -0.10061304960E+04  0.10061304960E+04  0.50400000000E-02 0. -1.
    8880022    1    1    2    0    0 -0.35668961367E+02  0.29395911259E+03 -0.88253242204E+03  0.94336597545E+03  0.15294330000E+03 0. -1.
    8880022    1    1    2    0    0  0.35668961367E+02 -0.29395911259E+03  0.20482884795E+03  0.39119144245E+03  0.15294330000E+03 0.  0.
<mgrwt>
<rscale>  0 0.33328049E+03</rscale>
<asrwt>0</asrwt>
<pdfrwt beam="1">  1        1 0.15478931E+00 0.33328049E+03</pdfrwt>
<pdfrwt beam="2">  1       -1 0.50527219E-01 0.33328049E+03</pdfrwt>
<totfact> 0.63764525E+01</totfact>
</mgrwt>
</event>
<event>
 4    1  0.1852677E-008  0.2741655E+03  0.7818608E-02  0.1098919E+00
          1   -1    0    0  501    0  0.00000000000E+00  0.00000000000E+00  0.72314087366E+03  0.72314087368E+03  0.50400000000E-02 0. -1.
         -1   -1    0    0    0  501 -0.00000000000E+00 -0.00000000000E+00 -0.16817481984E+04  0.16817481984E+04  0.50400000000E-02 0.  1.
    8880022    1    1    2    0    0 -0.52928770988E+02 -0.22129981487E+03  0.68538812897E+03  0.73818940876E+03  0.15294330000E+03 0.  0.
    8880022    1    1    2    0    0  0.52928770988E+02  0.22129981487E+03 -0.16439954537E+04  0.16666996633E+04  0.15294330000E+03 0.  0.
<mgrwt>
<rscale>  0 0.27416549E+03</rscale>
<asrwt>0</asrwt>
<pdfrwt beam="1">  1        1 0.11125244E+00 0.27416549E+03</pdfrwt>
<pdfrwt beam="2">  1       -1 0.25873049E+00 0.27416549E+03</pdfrwt>
<totfact> 0.19101939E+00</totfact>
</mgrwt>
</event>
<event>
 4    1  0.1852677E-008  0.5242661E+03  0.7818608E-02  0.1007632E+00
         -1   -1    0    0    0  501 -0.00000000000E+00  0.00000000000E+00  0.56356246297E+03  0.56356246300E+03  0.50400000000E-02 0.  1.
          1   -1    0    0  501    0  0.00000000000E+00 -0.00000000000E+00 -0.71017229528E+03  0.71017229530E+03  0.50400000000E-02 0. -1.
    8880022    1    1    2    0    0 -0.50102356589E+03 -0.20943818129E+02 -0.42975242904E+03  0.67789531668E+03  0.15294330000E+03 0.  0.
    8880022    1    1    2    0    0  0.50102356589E+03  0.20943818129E+02  0.28314259673E+03  0.59583944162E+03  0.15294330000E+03 0.  0.
<mgrwt>
<rscale>  0 0.52426607E+03</rscale>
<asrwt>0</asrwt>
<pdfrwt beam="1">  1        1 0.10925728E+00 0.52426607E+03</pdfrwt>
<pdfrwt beam="2">  1       -1 0.86701917E-01 0.52426607E+03</pdfrwt>
<totfact> 0.36749249E+01</totfact>
</mgrwt>
</event>
<event>
 4    1  0.1852677E-008  0.2852215E+03  0.7818608E-02  0.1092871E+00
          1   -1    0    0  501    0  0.00000000000E+00  0.00000000000E+00  0.17532381607E+04  0.17532381607E+04  0.50400000000E-02 0. -1.
         -1   -1    0    0    0  501 -0.00000000000E+00 -0.00000000000E+00 -0.22671060272E+03  0.22671060277E+03  0.50400000000E-02 0.  1.
    8880022    1    1    2    0    0 -0.24073579004E+03  0.24342444983E+01  0.16461362043E+04  0.16706632522E+04  0.15294330000E+03 0. -1.
    8880022    1    1    2    0    0  0.24073579004E+03 -0.24342444983E+01 -0.11960864636E+03  0.30928551123E+03  0.15294330000E+03 0.  0.
<mgrwt>
<rscale>  0 0.28522149E+03</rscale>
<asrwt>0</asrwt>
<pdfrwt beam="1">  1        1 0.26972895E+00 0.28522149E+03</pdfrwt>
<pdfrwt beam="2">  1       -1 0.34878554E-01 0.28522149E+03</pdfrwt>
<totfact> 0.38705557E+01</totfact>
</mgrwt>
</event>
<event>
 4    1  0.1852677E-008  0.4148321E+03  0.7818608E-02  0.1038762E+00
          1   -1    0    0  501    0  0.00000000000E+00  0.00000000000E+00  0.19367385280E+04  0.19367385280E+04  0.50400000000E-02 0. -1.
         -1   -1    0    0    0  501 -0.00000000000E+00 -0.00000000000E+00 -0.11501048292E+03  0.11501048303E+03  0.50400000000E-02 0.  1.
    8880022    1    1    2    0    0 -0.16018940950E+03 -0.35076116113E+03  0.14001025547E+04  0.14602646527E+04  0.15294330000E+03 0.  0.
    8880022    1    1    2    0    0  0.16018940950E+03  0.35076116113E+03  0.42162549037E+03  0.59148435839E+03  0.15294330000E+03 0.  0.
<mgrwt>
<rscale>  0 0.41483213E+03</rscale>
<asrwt>0</asrwt>
<pdfrwt beam="1">  1        1 0.29795977E+00 0.41483213E+03</pdfrwt>
<pdfrwt beam="2">  1       -1 0.17693921E-01 0.41483213E+03</pdfrwt>
<totfact> 0.88925810E+01</totfact>
</mgrwt>
</event>
<event>
 4    1  0.1852677E-008  0.5088319E+03  0.7818608E-02  0.1011499E+00
          1   -1    0    0  501    0  0.00000000000E+00  0.00000000000E+00  0.12667138003E+04  0.12667138003E+04  0.50400000000E-02 0. -1.
         -1   -1    0    0    0  501 -0.00000000000E+00 -0.00000000000E+00 -0.39671202600E+03  0.39671202604E+03  0.50400000000E-02 0.  1.
    8880022    1    1    2    0    0 -0.25232230527E+03 -0.41455004898E+03  0.10140890015E+04  0.11345864643E+04  0.15294330000E+03 0.  0.
    8880022    1    1    2    0    0  0.25232230527E+03  0.41455004898E+03 -0.14408722722E+03  0.52883936210E+03  0.15294330000E+03 0.  0.
<mgrwt>
<rscale>  0 0.50883194E+03</rscale>
<asrwt>0</asrwt>
<pdfrwt beam="1">  1        1 0.19487904E+00 0.50883194E+03</pdfrwt>
<pdfrwt beam="2">  1       -1 0.61032621E-01 0.50883194E+03</pdfrwt>
<totfact> 0.27765106E+01</totfact>
</mgrwt>
</event>
<event>
 4    1  0.1852677E-008  0.4833257E+03  0.7818608E-02  0.1018225E+00
          1   -1    0    0  501    0  0.00000000000E+00  0.00000000000E+00  0.21294509577E+04  0.21294509577E+04  0.50400000000E-02 0. -1.
         -1   -1    0    0    0  501 -0.00000000000E+00 -0.00000000000E+00 -0.20529172427E+03  0.20529172433E+03  0.50400000000E-02 0.  1.
    8880022    1    1    2    0    0 -0.45060235391E+03  0.84673688040E+02  0.17586611896E+04  0.18238675796E+04  0.15294330000E+03 0.  0.
    8880022    1    1    2    0    0  0.45060235391E+03 -0.84673688040E+02  0.16549804375E+03  0.51087510245E+03  0.15294330000E+03 0.  0.
<mgrwt>
<rscale>  0 0.48332574E+03</rscale>
<asrwt>0</asrwt>
<pdfrwt beam="1">  1        1 0.32760784E+00 0.48332574E+03</pdfrwt>
<pdfrwt beam="2">  1       -1 0.31583342E-01 0.48332574E+03</pdfrwt>
<totfact> 0.24717520E+01</totfact>
</mgrwt>
</event>
<event>
 4    1  0.1852677E-008  0.4105847E+03  0.7818608E-02  0.1040175E+00
         -1   -1    0    0    0  501 -0.00000000000E+00  0.00000000000E+00  0.19045393075E+04  0.19045393075E+04  0.50400000000E-02 0.  1.
          1   -1    0    0  501    0  0.00000000000E+00 -0.00000000000E+00 -0.68602109257E+03  0.68602109259E+03  0.50400000000E-02 0. -1.
    8880022    1    1    2    0    0  0.37321903407E+03 -0.76783377168E+02 -0.59957375702E+03  0.72668320300E+03  0.15294330000E+03 0. -1.
    8880022    1    1    2    0    0 -0.37321903407E+03  0.76783377168E+02  0.18180919719E+04  0.18638771971E+04  0.15294330000E+03 0.  0.
<mgrwt>
<rscale>  0 0.41058469E+03</rscale>
<asrwt>0</asrwt>
<pdfrwt beam="1">  1        1 0.10554171E+00 0.41058469E+03</pdfrwt>
<pdfrwt beam="2">  1       -1 0.29300604E+00 0.41058469E+03</pdfrwt>
<totfact> 0.11858710E+00</totfact>
</mgrwt>
</event>
<event>
 4    1  0.1852677E-008  0.5770288E+03  0.7818608E-02  0.9954244E-01
          1   -1    0    0  501    0  0.00000000000E+00  0.00000000000E+00  0.78991735771E+03  0.78991735773E+03  0.50400000000E-02 0. -1.
         -1   -1    0    0    0  501 -0.00000000000E+00 -0.00000000000E+00 -0.85656488056E+03  0.85656488058E+03  0.50400000000E-02 0.  1.
    8880022    1    1    2    0    0  0.30862539368E+03 -0.46294813276E+03  0.55337651686E+03  0.79949223241E+03  0.15294330000E+03 0. -1.
    8880022    1    1    2    0    0 -0.30862539368E+03  0.46294813276E+03 -0.62002403971E+03  0.84699000590E+03  0.15294330000E+03 0.  0.
<mgrwt>
<rscale>  0 0.57702882E+03</rscale>
<asrwt>0</asrwt>
<pdfrwt beam="1">  1        1 0.12152575E+00 0.57702882E+03</pdfrwt>
<pdfrwt beam="2">  1       -1 0.13177921E+00 0.57702882E+03</pdfrwt>
<totfact> 0.11686053E+01</totfact>
</mgrwt>
</event>
<event>
 4    1  0.1852677E-008  0.1929755E+03  0.7818608E-02  0.1155805E+00
         -1   -1    0    0    0  501 -0.00000000000E+00  0.00000000000E+00  0.19511088739E+03  0.19511088746E+03  0.50400000000E-02 0.  1.
          1   -1    0    0  501    0  0.00000000000E+00 -0.00000000000E+00 -0.26713362637E+03  0.26713362642E+03  0.50400000000E-02 0. -1.
    8880022    1    1    2    0    0 -0.10812020133E+03 -0.46453331545E+02  0.87485167622E+02  0.21188014894E+03  0.15294330000E+03 0.  0.
    8880022    1    1    2    0    0  0.10812020133E+03  0.46453331545E+02 -0.15950790660E+03  0.25036436494E+03  0.15294330000E+03 0.  0.
<mgrwt>
<rscale>  0 0.19297550E+03</rscale>
<asrwt>0</asrwt>
<pdfrwt beam="1">  1        1 0.41097481E-01 0.19297550E+03</pdfrwt>
<pdfrwt beam="2">  1       -1 0.30017060E-01 0.19297550E+03</pdfrwt>
<totfact> 0.10336300E+03</totfact>
</mgrwt>
</event>
<event>
 4    1  0.1852677E-008  0.7933469E+03  0.7818608E-02  0.9569697E-01
          1   -1    0    0  501    0  0.00000000000E+00  0.00000000000E+00  0.15653821747E+04  0.15653821747E+04  0.50400000000E-02 0. -1.
         -1   -1    0    0    0  501 -0.00000000000E+00 -0.00000000000E+00 -0.45311094814E+03  0.45311094817E+03  0.50400000000E-02 0.  1.
    8880022    1    1    2    0    0 -0.38934328717E+03  0.67410639302E+03  0.89485330369E+03  0.11958936878E+04  0.15294330000E+03 0.  0.
    8880022    1    1    2    0    0  0.38934328717E+03 -0.67410639302E+03  0.21741792285E+03  0.82259943506E+03  0.15294330000E+03 0.  0.
<mgrwt>
<rscale>  0 0.79334688E+03</rscale>
<asrwt>0</asrwt>
<pdfrwt beam="1">  1        1 0.24082803E+00 0.79334688E+03</pdfrwt>
<pdfrwt beam="2">  1       -1 0.69709377E-01 0.79334688E+03</pdfrwt>
<totfact> 0.12656996E+01</totfact>
</mgrwt>
</event>
<event>
 4    1  0.1852677E-008  0.3870819E+03  0.7818608E-02  0.1048347E+00
          1   -1    0    0  501    0  0.00000000000E+00  0.00000000000E+00  0.37536945708E+03  0.37536945711E+03  0.50400000000E-02 0. -1.
         -1   -1    0    0    0  501 -0.00000000000E+00 -0.00000000000E+00 -0.69125952899E+03  0.69125952901E+03  0.50400000000E-02 0.  1.
    8880022    1    1    2    0    0  0.30961173511E+03 -0.17487521378E+03  0.18873461681E+03  0.43064274696E+03  0.15294330000E+03 0.  0.
    8880022    1    1    2    0    0 -0.30961173511E+03  0.17487521378E+03 -0.50462468872E+03  0.63598623916E+03  0.15294330000E+03 0.  0.
<mgrwt>
<rscale>  0 0.38708193E+03</rscale>
<asrwt>0</asrwt>
<pdfrwt beam="1">  1        1 0.57749147E-01 0.38708193E+03</pdfrwt>
<pdfrwt beam="2">  1       -1 0.10634762E+00 0.38708193E+03</pdfrwt>
<totfact> 0.57199951E+01</totfact>
</mgrwt>
</event>
<event>
 4    1  0.1852677E-008  0.3911459E+03  0.7818608E-02  0.1046889E+00
         -1   -1    0    0    0  501 -0.00000000000E+00  0.00000000000E+00  0.19570054469E+03  0.19570054475E+03  0.50400000000E-02 0.  1.
          1   -1    0    0  501    0  0.00000000000E+00 -0.00000000000E+00 -0.34071818954E+04  0.34071818954E+04  0.50400000000E-02 0. -1.
    8880022    1    1    2    0    0  0.51098659705E+02 -0.35635992512E+03 -0.24419140324E+02  0.39190740831E+03  0.15294330000E+03 0.  1.
    8880022    1    1    2    0    0 -0.51098659705E+02  0.35635992512E+03 -0.31870622104E+04  0.32109750319E+04  0.15294330000E+03 0.  0.
<mgrwt>
<rscale>  0 0.39114591E+03</rscale>
<asrwt>0</asrwt>
<pdfrwt beam="1">  1        1 0.52418179E+00 0.39114591E+03</pdfrwt>
<pdfrwt beam="2">  1       -1 0.30107779E-01 0.39114591E+03</pdfrwt>
<totfact> 0.35698445E+00</totfact>
</mgrwt>
</event>
<event>
 4    1  0.1852677E-008  0.2962014E+03  0.7818608E-02  0.1087155E+00
          1   -1    0    0  501    0  0.00000000000E+00  0.00000000000E+00  0.98769774059E+03  0.98769774060E+03  0.50400000000E-02 0. -1.
         -1   -1    0    0    0  501 -0.00000000000E+00 -0.00000000000E+00 -0.48617955749E+03  0.48617955752E+03  0.50400000000E-02 0.  1.
    8880022    1    1    2    0    0 -0.23644660189E+03  0.91851154991E+02  0.91698329906E+03  0.96363564379E+03  0.15294330000E+03 0.  0.
    8880022    1    1    2    0    0  0.23644660189E+03 -0.91851154991E+02 -0.41546511596E+03  0.51024165433E+03  0.15294330000E+03 0.  1.
<mgrwt>
<rscale>  0 0.29620142E+03</rscale>
<asrwt>0</asrwt>
<pdfrwt beam="1">  1        1 0.15195350E+00 0.29620142E+03</pdfrwt>
<pdfrwt beam="2">  1       -1 0.74796855E-01 0.29620142E+03</pdfrwt>
<totfact> 0.30922300E+01</totfact>
</mgrwt>
</event>
<event>
 4    1  0.1852677E-008  0.2353530E+03  0.7818608E-02  0.1122928E+00
          1   -1    0    0  501    0  0.00000000000E+00  0.00000000000E+00  0.22589470316E+03  0.22589470321E+03  0.50400000000E-02 0. -1.
         -1   -1    0    0    0  501 -0.00000000000E+00 -0.00000000000E+00 -0.34833405778E+03  0.34833405782E+03  0.50400000000E-02 0.  1.
    8880022    1    1    2    0    0  0.50735049218E+02  0.17153819526E+03 -0.21744177594E+03  0.32042468162E+03  0.15294330000E+03 0.  0.
    8880022    1    1    2    0    0 -0.50735049218E+02 -0.17153819526E+03  0.95002421316E+02  0.25380407941E+03  0.15294330000E+03 0.  0.
<mgrwt>
<rscale>  0 0.23535303E+03</rscale>
<asrwt>0</asrwt>
<pdfrwt beam="1">  1        1 0.34753031E-01 0.23535303E+03</pdfrwt>
<pdfrwt beam="2">  1       -1 0.53589855E-01 0.23535303E+03</pdfrwt>
<totfact> 0.45567174E+02</totfact>
</mgrwt>
</event>
<event>
 4    1  0.1852677E-008  0.3113285E+03  0.7818608E-02  0.1079711E+00
          1   -1    0    0  501    0  0.00000000000E+00  0.00000000000E+00  0.10267603716E+04  0.10267603716E+04  0.50400000000E-02 0. -1.
         -1   -1    0    0    0  501 -0.00000000000E+00 -0.00000000000E+00 -0.29834037737E+03  0.29834037741E+03  0.50400000000E-02 0.  1.
    8880022    1    1    2    0    0  0.67406777190E+02  0.26265965682E+03 -0.18358149255E+03  0.36142438538E+03  0.15294330000E+03 0.  0.
    8880022    1    1    2    0    0 -0.67406777190E+02 -0.26265965682E+03  0.91200148674E+03  0.96367636360E+03  0.15294330000E+03 0. -1.
<mgrwt>
<rscale>  0 0.31132848E+03</rscale>
<asrwt>0</asrwt>
<pdfrwt beam="1">  1        1 0.15796313E+00 0.31132848E+03</pdfrwt>
<pdfrwt beam="2">  1       -1 0.45898520E-01 0.31132848E+03</pdfrwt>
<totfact> 0.73844278E+01</totfact>
</mgrwt>
</event>
<event>
 4    1  0.1852677E-008  0.3776323E+03  0.7818608E-02  0.1051812E+00
          1   -1    0    0  501    0  0.00000000000E+00  0.00000000000E+00  0.17781192918E+04  0.17781192918E+04  0.50400000000E-02 0. -1.
         -1   -1    0    0    0  501 -0.00000000000E+00 -0.00000000000E+00 -0.26293602944E+03  0.26293602949E+03  0.50400000000E-02 0.  1.
    8880022    1    1    2    0    0 -0.26220331244E+03 -0.22464177290E+03 -0.93176398180E+02  0.38895757787E+03  0.15294330000E+03 0.  0.
    8880022    1    1    2    0    0  0.26220331244E+03  0.22464177290E+03  0.16083596606E+04  0.16520977435E+04  0.15294330000E+03 0.  0.
<mgrwt>
<rscale>  0 0.37763230E+03</rscale>
<asrwt>0</asrwt>
<pdfrwt beam="1">  1        1 0.27355680E+00 0.37763230E+03</pdfrwt>
<pdfrwt beam="2">  1       -1 0.40451699E-01 0.37763230E+03</pdfrwt>
<totfact> 0.27897075E+01</totfact>
</mgrwt>
</event>
<event>
 4    1  0.1852677E-008  0.5367072E+03  0.7818608E-02  0.1004618E+00
         -1   -1    0    0    0  501 -0.00000000000E+00  0.00000000000E+00  0.77207023998E+03  0.77207024000E+03  0.50400000000E-02 0.  1.
          1   -1    0    0  501    0  0.00000000000E+00 -0.00000000000E+00 -0.72458092163E+03  0.72458092164E+03  0.50400000000E-02 0. -1.
    8880022    1    1    2    0    0 -0.77989725769E+01  0.51439493648E+03 -0.49745226767E+03  0.73178780140E+03  0.15294330000E+03 0.  0.
    8880022    1    1    2    0    0  0.77989725769E+01 -0.51439493648E+03  0.54494158603E+03  0.76486336025E+03  0.15294330000E+03 0.  0.
<mgrwt>
<rscale>  0 0.53670721E+03</rscale>
<asrwt>0</asrwt>
<pdfrwt beam="1">  1        1 0.11147399E+00 0.53670721E+03</pdfrwt>
<pdfrwt beam="2">  1       -1 0.11878004E+00 0.53670721E+03</pdfrwt>
<totfact> 0.17368584E+01</totfact>
</mgrwt>
</event>
<event>
 4    1  0.1852677E-008  0.1686079E+03  0.7818608E-02  0.1179307E+00
          1   -1    0    0  501    0  0.00000000000E+00  0.00000000000E+00  0.25222531332E+04  0.25222531332E+04  0.50400000000E-02 0. -1.
         -1   -1    0    0    0  501 -0.00000000000E+00 -0.00000000000E+00 -0.45545255458E+03  0.45545255461E+03  0.50400000000E-02 0.  1.
    8880022    1    1    2    0    0 -0.62858804998E+02 -0.32950366562E+02  0.25037153526E+04  0.25093862149E+04  0.15294330000E+03 0.  0.
    8880022    1    1    2    0    0  0.62858804998E+02  0.32950366562E+02 -0.43691477391E+03  0.46831947290E+03  0.15294330000E+03 0.  1.
<mgrwt>
<rscale>  0 0.16860786E+03</rscale>
<asrwt>0</asrwt>
<pdfrwt beam="1">  1        1 0.38803893E+00 0.16860786E+03</pdfrwt>
<pdfrwt beam="2">  1       -1 0.70069625E-01 0.16860786E+03</pdfrwt>
<totfact> 0.36021691E+00</totfact>
</mgrwt>
</event>
<event>
 4    1  0.1852677E-008  0.6539685E+03  0.7818608E-02  0.9799361E-01
          1   -1    0    0  501    0  0.00000000000E+00  0.00000000000E+00  0.20632591103E+04  0.20632591103E+04  0.50400000000E-02 0. -1.
         -1   -1    0    0    0  501 -0.00000000000E+00 -0.00000000000E+00 -0.93555397805E+03  0.93555397806E+03  0.50400000000E-02 0.  1.
    8880022    1    1    2    0    0 -0.32785386978E+03 -0.54478897722E+03 -0.75906265357E+03  0.10019236272E+04  0.15294330000E+03 0.  0.
    8880022    1    1    2    0    0  0.32785386978E+03  0.54478897722E+03  0.18867677859E+04  0.19968894612E+04  0.15294330000E+03 0.  0.
<mgrwt>
<rscale>  0 0.65396853E+03</rscale>
<asrwt>0</asrwt>
<pdfrwt beam="1">  1        1 0.31742448E+00 0.65396853E+03</pdfrwt>
<pdfrwt beam="2">  1       -1 0.14393138E+00 0.65396853E+03</pdfrwt>
<totfact> 0.11386691E+00</totfact>
</mgrwt>
</event>
<event>
 4    1  0.1852677E-008  0.2085450E+04  0.7818608E-02  0.8567680E-01
          1   -1    0    0  501    0  0.00000000000E+00  0.00000000000E+00  0.38512225429E+04  0.38512225429E+04  0.50400000000E-02 0. -1.
         -1   -1    0    0    0  501 -0.00000000000E+00 -0.00000000000E+00 -0.15656180492E+04  0.15656180492E+04  0.50400000000E-02 0.  1.
    8880022    1    1    2    0    0  0.14765843111E+04  0.14647210331E+04  0.25726366009E+04  0.33117306149E+04  0.15294330000E+03 0.  0.
    8880022    1    1    2    0    0 -0.14765843111E+04 -0.14647210331E+04 -0.28703210713E+03  0.21051099772E+04  0.15294330000E+03 0.  0.
<mgrwt>
<rscale>  0 0.20854497E+04</rscale>
<asrwt>0</asrwt>
<pdfrwt beam="1">  1        1 0.59249577E+00 0.20854497E+04</pdfrwt>
<pdfrwt beam="2">  1       -1 0.24086432E+00 0.20854497E+04</pdfrwt>
<totfact> 0.91034444E-03</totfact>
</mgrwt>
</event>
<event>
 4    1  0.1852677E-008  0.3357279E+03  0.7818608E-02  0.1068630E+00
          1   -1    0    0  501    0  0.00000000000E+00  0.00000000000E+00  0.76058573952E+03  0.76058573954E+03  0.50400000000E-02 0. -1.
         -1   -1    0    0    0  501 -0.00000000000E+00 -0.00000000000E+00 -0.21235866135E+03  0.21235866141E+03  0.50400000000E-02 0.  1.
    8880022    1    1    2    0    0  0.16915807163E+03 -0.24638812494E+03  0.67048168766E+01  0.33579483154E+03  0.15294330000E+03 0.  0.
    8880022    1    1    2    0    0 -0.16915807163E+03  0.24638812494E+03  0.54152226129E+03  0.63714956941E+03  0.15294330000E+03 0.  0.
<mgrwt>
<rscale>  0 0.33572789E+03</rscale>
<asrwt>0</asrwt>
<pdfrwt beam="1">  1        1 0.11701319E+00 0.33572789E+03</pdfrwt>
<pdfrwt beam="2">  1       -1 0.32670564E-01 0.33572789E+03</pdfrwt>
<totfact> 0.21992855E+02</totfact>
</mgrwt>
</event>
<event>
 4    1  0.1852677E-008  0.3496672E+03  0.7818608E-02  0.1062752E+00
          1   -1    0    0  501    0  0.00000000000E+00  0.00000000000E+00  0.10033533258E+04  0.10033533258E+04  0.50400000000E-02 0. -1.
         -1   -1    0    0    0  501 -0.00000000000E+00 -0.00000000000E+00 -0.15751466037E+03  0.15751466045E+03  0.50400000000E-02 0.  1.
    8880022    1    1    2    0    0 -0.22086520874E+03  0.22381693968E+03  0.69907866809E+03  0.78165088122E+03  0.15294330000E+03 0. -1.
    8880022    1    1    2    0    0  0.22086520874E+03 -0.22381693968E+03  0.14675999733E+03  0.37921710504E+03  0.15294330000E+03 0.  0.
<mgrwt>
<rscale>  0 0.34966715E+03</rscale>
<asrwt>0</asrwt>
<pdfrwt beam="1">  1        1 0.15436206E+00 0.34966715E+03</pdfrwt>
<pdfrwt beam="2">  1       -1 0.24233024E-01 0.34966715E+03</pdfrwt>
<totfact> 0.23274471E+02</totfact>
</mgrwt>
</event>
<event>
 4    1  0.1852677E-008  0.3780541E+03  0.7818608E-02  0.1051655E+00
          1   -1    0    0  501    0  0.00000000000E+00  0.00000000000E+00  0.36026870184E+04  0.36026870185E+04  0.50400000000E-02 0. -1.
         -1   -1    0    0    0  501 -0.00000000000E+00 -0.00000000000E+00 -0.43986094315E+02  0.43986094603E+02  0.50400000000E-02 0.  1.
    8880022    1    1    2    0    0  0.34492283888E+03  0.23695734932E+02  0.12083105685E+04  0.12660724053E+04  0.15294330000E+03 0.  1.
    8880022    1    1    2    0    0 -0.34492283888E+03 -0.23695734932E+02  0.23503903557E+04  0.23806007077E+04  0.15294330000E+03 0. -1.
<mgrwt>
<rscale>  0 0.37805410E+03</rscale>
<asrwt>0</asrwt>
<pdfrwt beam="1">  1        1 0.55425944E+00 0.37805410E+03</pdfrwt>
<pdfrwt beam="2">  1       -1 0.67670926E-02 0.37805410E+03</pdfrwt>
<totfact> 0.28072709E+01</totfact>
</mgrwt>
</event>
<event>
 4    1  0.1852677E-008  0.6370711E+03  0.7818608E-02  0.9831346E-01
         -1   -1    0    0    0  501 -0.00000000000E+00  0.00000000000E+00  0.26397819365E+03  0.26397819370E+03  0.50400000000E-02 0.  1.
          1   -1    0    0  501    0  0.00000000000E+00 -0.00000000000E+00 -0.27028398435E+04  0.27028398435E+04  0.50400000000E-02 0. -1.
    8880022    1    1    2    0    0  0.54366060675E+03 -0.29478998585E+03 -0.24537942072E+03  0.68269371186E+03  0.15294330000E+03 0.  0.
    8880022    1    1    2    0    0 -0.54366060675E+03  0.29478998585E+03 -0.21934822291E+04  0.22841243253E+04  0.15294330000E+03 0.  0.
<mgrwt>
<rscale>  0 0.63707115E+03</rscale>
<asrwt>0</asrwt>
<pdfrwt beam="1">  1        1 0.41582150E+00 0.63707115E+03</pdfrwt>
<pdfrwt beam="2">  1       -1 0.40612032E-01 0.63707115E+03</pdfrwt>
<totfact> 0.62735061E+00</totfact>
</mgrwt>
</event>
<event>
 4    1  0.1852677E-008  0.7029277E+03  0.7818608E-02  0.9712239E-01
         -1   -1    0    0    0  501 -0.00000000000E+00  0.00000000000E+00  0.14241988970E+04  0.14241988970E+04  0.50400000000E-02 0.  1.
          1   -1    0    0  501    0  0.00000000000E+00 -0.00000000000E+00 -0.93515815451E+03  0.93515815452E+03  0.50400000000E-02 0. -1.
    8880022    1    1    2    0    0 -0.53677638390E+03 -0.42730170776E+03 -0.69108231884E+03  0.98574949161E+03  0.15294330000E+03 0.  0.
    8880022    1    1    2    0    0  0.53677638390E+03  0.42730170776E+03  0.11801230613E+04  0.13736075599E+04  0.15294330000E+03 0.  1.
<mgrwt>
<rscale>  0 0.70292766E+03</rscale>
<asrwt>0</asrwt>
<pdfrwt beam="1">  1        1 0.14387049E+00 0.70292766E+03</pdfrwt>
<pdfrwt beam="2">  1       -1 0.21910752E+00 0.70292766E+03</pdfrwt>
<totfact> 0.20027978E+00</totfact>
</mgrwt>
</event>
<event>
 4    1  0.1852677E-008  0.9754560E+03  0.7818608E-02  0.9335882E-01
         -1   -1    0    0    0  501 -0.00000000000E+00  0.00000000000E+00  0.10119129753E+04  0.10119129753E+04  0.50400000000E-02 0.  1.
          1   -1    0    0  501    0  0.00000000000E+00 -0.00000000000E+00 -0.13841980825E+04  0.13841980825E+04  0.50400000000E-02 0. -1.
    8880022    1    1    2    0    0  0.40166070871E+03  0.87566625438E+03 -0.86458556182E+03  0.13034655963E+04  0.15294330000E+03 0.  0.
    8880022    1    1    2    0    0 -0.40166070871E+03 -0.87566625438E+03  0.49230045466E+03  0.10926454616E+04  0.15294330000E+03 0.  0.
<mgrwt>
<rscale>  0 0.97545598E+03</rscale>
<asrwt>0</asrwt>
<pdfrwt beam="1">  1        1 0.21295355E+00 0.97545598E+03</pdfrwt>
<pdfrwt beam="2">  1       -1 0.15567892E+00 0.97545598E+03</pdfrwt>
<totfact> 0.25052974E+00</totfact>
</mgrwt>
</event>
<event>
 4    1  0.1852677E-008  0.5332468E+03  0.7818608E-02  0.1005448E+00
          1   -1    0    0  501    0  0.00000000000E+00  0.00000000000E+00  0.79477400654E+03  0.79477400656E+03  0.50400000000E-02 0. -1.
         -1   -1    0    0    0  501 -0.00000000000E+00 -0.00000000000E+00 -0.41082877483E+03  0.41082877486E+03  0.50400000000E-02 0.  1.
    8880022    1    1    2    0    0 -0.24998644755E+03  0.44549669904E+03 -0.24644165243E+02  0.53381599893E+03  0.15294330000E+03 0.  0.
    8880022    1    1    2    0    0  0.24998644755E+03 -0.44549669904E+03  0.40858939695E+03  0.67178678249E+03  0.15294330000E+03 0.  0.
<mgrwt>
<rscale>  0 0.53324683E+03</rscale>
<asrwt>0</asrwt>
<pdfrwt beam="1">  1        1 0.12227292E+00 0.53324683E+03</pdfrwt>
<pdfrwt beam="2">  1       -1 0.63204428E-01 0.53324683E+03</pdfrwt>
<totfact> 0.59310062E+01</totfact>
</mgrwt>
</event>
<event>
 4    1  0.1852677E-008  0.7736821E+03  0.7818608E-02  0.9598912E-01
          1   -1    0    0  501    0  0.00000000000E+00  0.00000000000E+00  0.18389312119E+04  0.18389312120E+04  0.50400000000E-02 0. -1.
         -1   -1    0    0    0  501 -0.00000000000E+00 -0.00000000000E+00 -0.49794496599E+03  0.49794496602E+03  0.50400000000E-02 0.  1.
    8880022    1    1    2    0    0 -0.21776407039E+03  0.72647858391E+03  0.13580872635E+04  0.15630051157E+04  0.15294330000E+03 0.  0.
    8880022    1    1    2    0    0  0.21776407039E+03 -0.72647858391E+03 -0.17101017589E+02  0.77387106229E+03  0.15294330000E+03 0.  0.
<mgrwt>
<rscale>  0 0.77368209E+03</rscale>
<asrwt>0</asrwt>
<pdfrwt beam="1">  1        1 0.28291249E+00 0.77368209E+03</pdfrwt>
<pdfrwt beam="2">  1       -1 0.76606918E-01 0.77368209E+03</pdfrwt>
<totfact> 0.68271081E+00</totfact>
</mgrwt>
</event>
<event>
 4    1  0.1852677E-008  0.7202453E+03  0.7818608E-02  0.9683223E-01
          1   -1    0    0  501    0  0.00000000000E+00  0.00000000000E+00  0.16903013383E+04  0.16903013384E+04  0.50400000000E-02 0. -1.
         -1   -1    0    0    0  501 -0.00000000000E+00 -0.00000000000E+00 -0.72338310839E+03  0.72338310841E+03  0.50400000000E-02 0.  1.
    8880022    1    1    2    0    0  0.69026918936E+03  0.13744103429E+03  0.13991841414E+04  0.15736802427E+04  0.15294330000E+03 0.  0.
    8880022    1    1    2    0    0 -0.69026918936E+03 -0.13744103429E+03 -0.43226591143E+03  0.84000420409E+03  0.15294330000E+03 0.  0.
<mgrwt>
<rscale>  0 0.72024527E+03</rscale>
<asrwt>0</asrwt>
<pdfrwt beam="1">  1        1 0.26004636E+00 0.72024527E+03</pdfrwt>
<pdfrwt beam="2">  1       -1 0.11128971E+00 0.72024527E+03</pdfrwt>
<totfact> 0.37785706E+00</totfact>
</mgrwt>
</event>
<event>
 4    1  0.1852677E-008  0.3339453E+03  0.7818608E-02  0.1069404E+00
         -1   -1    0    0    0  501 -0.00000000000E+00  0.00000000000E+00  0.86209121168E+03  0.86209121169E+03  0.50400000000E-02 0.  1.
          1   -1    0    0  501    0  0.00000000000E+00 -0.00000000000E+00 -0.37792492347E+03  0.37792492350E+03  0.50400000000E-02 0. -1.
    8880022    1    1    2    0    0  0.27904295019E+03 -0.10130552774E+03 -0.26073992248E+03  0.42367999503E+03  0.15294330000E+03 0.  0.
    8880022    1    1    2    0    0 -0.27904295019E+03  0.10130552774E+03  0.74490621069E+03  0.81633614016E+03  0.15294330000E+03 0.  0.
<mgrwt>
<rscale>  0 0.33394525E+03</rscale>
<asrwt>0</asrwt>
<pdfrwt beam="1">  1        1 0.58142297E-01 0.33394525E+03</pdfrwt>
<pdfrwt beam="2">  1       -1 0.13262942E+00 0.33394525E+03</pdfrwt>
<totfact> 0.33732337E+01</totfact>
</mgrwt>
</event>
<event>
 4    1  0.1852677E-008  0.1233127E+04  0.7818608E-02  0.9084344E-01
         -1   -1    0    0    0  501 -0.00000000000E+00  0.00000000000E+00  0.48049527690E+03  0.48049527693E+03  0.50400000000E-02 0.  1.
          1   -1    0    0  501    0  0.00000000000E+00 -0.00000000000E+00 -0.37770217702E+04  0.37770217702E+04  0.50400000000E-02 0. -1.
    8880022    1    1    2    0    0 -0.92939267260E+03 -0.79588977768E+03 -0.79111367055E+03  0.14650814895E+04  0.15294330000E+03 0.  0.
    8880022    1    1    2    0    0  0.92939267260E+03  0.79588977768E+03 -0.25054128227E+04  0.27924355576E+04  0.15294330000E+03 0.  0.
<mgrwt>
<rscale>  0 0.12331273E+04</rscale>
<asrwt>0</asrwt>
<pdfrwt beam="1">  1        1 0.58108025E+00 0.12331273E+04</pdfrwt>
<pdfrwt beam="2">  1       -1 0.73922353E-01 0.12331273E+04</pdfrwt>
<totfact> 0.27647964E-01</totfact>
</mgrwt>
</event>
<event>
 4    1  0.1852677E-008  0.6106844E+03  0.7818608E-02  0.9883484E-01
         -1   -1    0    0    0  501 -0.00000000000E+00  0.00000000000E+00  0.56639292378E+03  0.56639292380E+03  0.50400000000E-02 0.  1.
          1   -1    0    0  501    0  0.00000000000E+00 -0.00000000000E+00 -0.89287548665E+03  0.89287548666E+03  0.50400000000E-02 0. -1.
    8880022    1    1    2    0    0  0.30606669316E+03  0.50583291778E+03  0.21062988365E+03  0.64598789638E+03  0.15294330000E+03 0.  0.
    8880022    1    1    2    0    0 -0.30606669316E+03 -0.50583291778E+03 -0.53711244651E+03  0.81328051408E+03  0.15294330000E+03 0. -1.
<mgrwt>
<rscale>  0 0.61068438E+03</rscale>
<asrwt>0</asrwt>
<pdfrwt beam="1">  1        1 0.13736546E+00 0.61068438E+03</pdfrwt>
<pdfrwt beam="2">  1       -1 0.87137373E-01 0.61068438E+03</pdfrwt>
<totfact> 0.25003869E+01</totfact>
</mgrwt>
</event>
<event>
 4    1  0.1852677E-008  0.5629771E+03  0.7818608E-02  0.9985341E-01
         -1   -1    0    0    0  501 -0.00000000000E+00  0.00000000000E+00  0.64779820393E+03  0.64779820395E+03  0.50400000000E-02 0.  1.
          1   -1    0    0  501    0  0.00000000000E+00 -0.00000000000E+00 -0.64739699073E+03  0.64739699075E+03  0.50400000000E-02 0. -1.
    8880022    1    1    2    0    0 -0.31954597968E+03 -0.43754072974E+03  0.32026222780E+03  0.64769674299E+03  0.15294330000E+03 0.  0.
    8880022    1    1    2    0    0  0.31954597968E+03  0.43754072974E+03 -0.31986101459E+03  0.64749845172E+03  0.15294330000E+03 0.  0.
<mgrwt>
<rscale>  0 0.56297707E+03</rscale>
<asrwt>0</asrwt>
<pdfrwt beam="1">  1        1 0.99599537E-01 0.56297707E+03</pdfrwt>
<pdfrwt beam="2">  1       -1 0.99661263E-01 0.56297707E+03</pdfrwt>
<totfact> 0.30817160E+01</totfact>
</mgrwt>
</event>
<event>
 4    1  0.1852677E-008  0.3377503E+03  0.7818608E-02  0.1067758E+00
         -1   -1    0    0    0  501 -0.00000000000E+00  0.00000000000E+00  0.33526879235E+03  0.33526879238E+03  0.50400000000E-02 0.  1.
          1   -1    0    0  501    0  0.00000000000E+00 -0.00000000000E+00 -0.12636494494E+04  0.12636494494E+04  0.50400000000E-02 0. -1.
    8880022    1    1    2    0    0 -0.21681446734E+03 -0.20898581205E+03 -0.11475946812E+04  0.11962645143E+04  0.15294330000E+03 0.  0.
    8880022    1    1    2    0    0  0.21681446734E+03  0.20898581205E+03  0.21921402412E+03  0.40265372750E+03  0.15294330000E+03 0.  1.
<mgrwt>
<rscale>  0 0.33775026E+03</rscale>
<asrwt>0</asrwt>
<pdfrwt beam="1">  1        1 0.19440760E+00 0.33775026E+03</pdfrwt>
<pdfrwt beam="2">  1       -1 0.51579815E-01 0.33775026E+03</pdfrwt>
<totfact> 0.39957621E+01</totfact>
</mgrwt>
</event>
<event>
 4    1  0.1852677E-008  0.3640596E+03  0.7818608E-02  0.1056988E+00
         -1   -1    0    0    0  501 -0.00000000000E+00  0.00000000000E+00  0.39056482931E+03  0.39056482934E+03  0.50400000000E-02 0.  1.
          1   -1    0    0  501    0  0.00000000000E+00 -0.00000000000E+00 -0.10760826618E+04  0.10760826618E+04  0.50400000000E-02 0. -1.
    8880022    1    1    2    0    0 -0.30068049336E+03  0.13689048158E+03 -0.94953290665E+03  0.10169327199E+04  0.15294330000E+03 0. -1.
    8880022    1    1    2    0    0  0.30068049336E+03 -0.13689048158E+03  0.26401507417E+03  0.44971477121E+03  0.15294330000E+03 0.  0.
<mgrwt>
<rscale>  0 0.36405963E+03</rscale>
<asrwt>0</asrwt>
<pdfrwt beam="1">  1        1 0.16555118E+00 0.36405963E+03</pdfrwt>
<pdfrwt beam="2">  1       -1 0.60086897E-01 0.36405963E+03</pdfrwt>
<totfact> 0.40391194E+01</totfact>
</mgrwt>
</event>
<event>
 4    1  0.1852677E-008  0.2251425E+03  0.7818608E-02  0.1130106E+00
          1   -1    0    0  501    0  0.00000000000E+00  0.00000000000E+00  0.79503003380E+03  0.79503003382E+03  0.50400000000E-02 0. -1.
         -1   -1    0    0    0  501 -0.00000000000E+00 -0.00000000000E+00 -0.14053263578E+03  0.14053263587E+03  0.50400000000E-02 0.  1.
    8880022    1    1    2    0    0 -0.52898789009E+02 -0.15652230179E+03  0.67300050139E+03  0.70966107455E+03  0.15294330000E+03 0. -1.
    8880022    1    1    2    0    0  0.52898789009E+02  0.15652230179E+03 -0.18503103373E+02  0.22590159514E+03  0.15294330000E+03 0.  0.
<mgrwt>
<rscale>  0 0.22514255E+03</rscale>
<asrwt>0</asrwt>
<pdfrwt beam="1">  1        1 0.12231231E+00 0.22514255E+03</pdfrwt>
<pdfrwt beam="2">  1       -1 0.21620405E-01 0.22514255E+03</pdfrwt>
<totfact> 0.41707910E+02</totfact>
</mgrwt>
</event>
<event>
 4    1  0.1852677E-008  0.3849145E+03  0.7818608E-02  0.1049132E+00
          1   -1    0    0  501    0  0.00000000000E+00  0.00000000000E+00  0.89605302557E+03  0.89605302559E+03  0.50400000000E-02 0. -1.
         -1   -1    0    0    0  501 -0.00000000000E+00 -0.00000000000E+00 -0.29793888943E+03  0.29793888947E+03  0.50400000000E-02 0.  1.
    8880022    1    1    2    0    0  0.11848363546E+03  0.33275993137E+03  0.69731749522E+03  0.79649914372E+03  0.15294330000E+03 0.  0.
    8880022    1    1    2    0    0 -0.11848363546E+03 -0.33275993137E+03 -0.99203359076E+02  0.39749277133E+03  0.15294330000E+03 0.  0.
<mgrwt>
<rscale>  0 0.38491453E+03</rscale>
<asrwt>0</asrwt>
<pdfrwt beam="1">  1        1 0.13785431E+00 0.38491453E+03</pdfrwt>
<pdfrwt beam="2">  1       -1 0.45836754E-01 0.38491453E+03</pdfrwt>
<totfact> 0.92096495E+01</totfact>
</mgrwt>
</event>
<event>
 4    1  0.1852677E-008  0.6979808E+03  0.7818608E-02  0.9720692E-01
         -1   -1    0    0    0  501 -0.00000000000E+00  0.00000000000E+00  0.89614127856E+03  0.89614127857E+03  0.50400000000E-02 0.  1.
          1   -1    0    0  501    0  0.00000000000E+00 -0.00000000000E+00 -0.16402580252E+04  0.16402580252E+04  0.50400000000E-02 0. -1.
    8880022    1    1    2    0    0 -0.45614327245E+03  0.50568651397E+03 -0.14090123166E+04  0.15724162607E+04  0.15294330000E+03 0.  0.
    8880022    1    1    2    0    0  0.45614327245E+03 -0.50568651397E+03  0.66489556998E+03  0.96398304311E+03  0.15294330000E+03 0.  0.
<mgrwt>
<rscale>  0 0.69798079E+03</rscale>
<asrwt>0</asrwt>
<pdfrwt beam="1">  1        1 0.25234739E+00 0.69798079E+03</pdfrwt>
<pdfrwt beam="2">  1       -1 0.13786789E+00 0.69798079E+03</pdfrwt>
<totfact> 0.24182655E+00</totfact>
</mgrwt>
</event>
<event>
 4    1  0.1852677E-008  0.9268309E+03  0.7818608E-02  0.9392649E-01
         -1   -1    0    0    0  501 -0.00000000000E+00  0.00000000000E+00  0.10732299277E+04  0.10732299277E+04  0.50400000000E-02 0.  1.
          1   -1    0    0  501    0  0.00000000000E+00 -0.00000000000E+00 -0.26322171042E+04  0.26322171042E+04  0.50400000000E-02 0. -1.
    8880022    1    1    2    0    0 -0.17488572585E+03 -0.89723952257E+03 -0.23250703264E+04  0.25029917007E+04  0.15294330000E+03 0.  0.
    8880022    1    1    2    0    0  0.17488572585E+03  0.89723952257E+03  0.76608314993E+03  0.12024553312E+04  0.15294330000E+03 0.  0.
<mgrwt>
<rscale>  0 0.92683085E+03</rscale>
<asrwt>0</asrwt>
<pdfrwt beam="1">  1        1 0.40495648E+00 0.92683085E+03</pdfrwt>
<pdfrwt beam="2">  1       -1 0.16511230E+00 0.92683085E+03</pdfrwt>
<totfact> 0.30340055E-01</totfact>
</mgrwt>
</event>
<event>
 4    1  0.1852677E-008  0.3804186E+03  0.7818608E-02  0.1050779E+00
          1   -1    0    0  501    0  0.00000000000E+00  0.00000000000E+00  0.67559486728E+03  0.67559486730E+03  0.50400000000E-02 0. -1.
         -1   -1    0    0    0  501 -0.00000000000E+00 -0.00000000000E+00 -0.34595916720E+03  0.34595916723E+03  0.50400000000E-02 0.  1.
    8880022    1    1    2    0    0 -0.16524120527E+03  0.30663009670E+03  0.48002418885E+03  0.61248799745E+03  0.15294330000E+03 0.  0.
    8880022    1    1    2    0    0  0.16524120527E+03 -0.30663009670E+03 -0.15038848877E+03  0.40906603708E+03  0.15294330000E+03 0.  0.
<mgrwt>
<rscale>  0 0.38041862E+03</rscale>
<asrwt>0</asrwt>
<pdfrwt beam="1">  1        1 0.10393767E+00 0.38041862E+03</pdfrwt>
<pdfrwt beam="2">  1       -1 0.53224487E-01 0.38041862E+03</pdfrwt>
<totfact> 0.10798564E+02</totfact>
</mgrwt>
</event>
<event>
 4    1  0.1852677E-008  0.6021785E+03  0.7818608E-02  0.9900897E-01
         -1   -1    0    0    0  501 -0.00000000000E+00  0.00000000000E+00  0.88524118298E+03  0.88524118300E+03  0.50400000000E-02 0.  1.
          1   -1    0    0  501    0  0.00000000000E+00 -0.00000000000E+00 -0.55739656826E+03  0.55739656829E+03  0.50400000000E-02 0. -1.
    8880022    1    1    2    0    0  0.54611773904E+03 -0.20244172820E+03 -0.20747377654E+03  0.63691778054E+03  0.15294330000E+03 0.  0.
    8880022    1    1    2    0    0 -0.54611773904E+03  0.20244172820E+03  0.53531839126E+03  0.80571997074E+03  0.15294330000E+03 0.  0.
<mgrwt>
<rscale>  0 0.60217845E+03</rscale>
<asrwt>0</asrwt>
<pdfrwt beam="1">  1        1 0.85753319E-01 0.60217845E+03</pdfrwt>
<pdfrwt beam="2">  1       -1 0.13619095E+00 0.60217845E+03</pdfrwt>
<totfact> 0.17930951E+01</totfact>
</mgrwt>
</event>
<event>
 4    1  0.1852677E-008  0.2897142E+03  0.7818608E-02  0.1090498E+00
         -1   -1    0    0    0  501 -0.00000000000E+00  0.00000000000E+00  0.97991312300E+03  0.97991312301E+03  0.50400000000E-02 0.  1.
          1   -1    0    0  501    0  0.00000000000E+00 -0.00000000000E+00 -0.30299764942E+03  0.30299764946E+03  0.50400000000E-02 0. -1.
    8880022    1    1    2    0    0  0.24204711028E+03  0.44225227088E+02  0.88173238438E+03  0.92810900491E+03  0.15294330000E+03 0.  0.
    8880022    1    1    2    0    0 -0.24204711028E+03 -0.44225227088E+02 -0.20481691080E+03  0.35480176757E+03  0.15294330000E+03 0.  0.
<mgrwt>
<rscale>  0 0.28971422E+03</rscale>
<asrwt>0</asrwt>
<pdfrwt beam="1">  1        1 0.46615023E-01 0.28971422E+03</pdfrwt>
<pdfrwt beam="2">  1       -1 0.15075587E+00 0.28971422E+03</pdfrwt>
<totfact> 0.32507688E+01</totfact>
</mgrwt>
</event>
<event>
 4    1  0.1852677E-008  0.4058069E+03  0.7818608E-02  0.1041787E+00
         -1   -1    0    0    0  501 -0.00000000000E+00  0.00000000000E+00  0.83854109835E+02  0.83854109986E+02  0.50400000000E-02 0.  1.
          1   -1    0    0  501    0  0.00000000000E+00 -0.00000000000E+00 -0.28526608003E+04  0.28526608003E+04  0.50400000000E-02 0. -1.
    8880022    1    1    2    0    0 -0.37468991228E+03 -0.29917194422E+02 -0.56485415431E+03  0.69551379393E+03  0.15294330000E+03 0.  0.
    8880022    1    1    2    0    0  0.37468991228E+03  0.29917194422E+02 -0.22039525362E+04  0.22410011164E+04  0.15294330000E+03 0.  0.
<mgrwt>
<rscale>  0 0.40580688E+03</rscale>
<asrwt>0</asrwt>
<pdfrwt beam="1">  1        1 0.43887082E+00 0.40580688E+03</pdfrwt>
<pdfrwt beam="2">  1       -1 0.12900634E-01 0.40580688E+03</pdfrwt>
<totfact> 0.36011289E+01</totfact>
</mgrwt>
</event>
<event>
 4    1  0.1852677E-008  0.3610632E+03  0.7818608E-02  0.1058164E+00
          1   -1    0    0  501    0  0.00000000000E+00  0.00000000000E+00  0.17535074487E+04  0.17535074487E+04  0.50400000000E-02 0. -1.
         -1   -1    0    0    0  501 -0.00000000000E+00 -0.00000000000E+00 -0.19236288996E+03  0.19236289003E+03  0.50400000000E-02 0.  1.
    8880022    1    1    2    0    0  0.18864871932E+03 -0.26718281481E+03  0.18502155760E+02  0.36153696715E+03  0.15294330000E+03 0.  0.
    8880022    1    1    2    0    0 -0.18864871932E+03  0.26718281481E+03  0.15426424030E+04  0.15843333716E+04  0.15294330000E+03 0.  0.
<mgrwt>
<rscale>  0 0.36106322E+03</rscale>
<asrwt>0</asrwt>
<pdfrwt beam="1">  1        1 0.26977037E+00 0.36106322E+03</pdfrwt>
<pdfrwt beam="2">  1       -1 0.29594291E-01 0.36106322E+03</pdfrwt>
<totfact> 0.50314043E+01</totfact>
</mgrwt>
</event>
<event>
 4    1  0.1852677E-008  0.7540139E+03  0.7818608E-02  0.9629074E-01
          1   -1    0    0  501    0  0.00000000000E+00  0.00000000000E+00  0.15627103406E+04  0.15627103406E+04  0.50400000000E-02 0. -1.
         -1   -1    0    0    0  501 -0.00000000000E+00 -0.00000000000E+00 -0.43116230773E+03  0.43116230776E+03  0.50400000000E-02 0.  1.
    8880022    1    1    2    0    0  0.16012851218E+03  0.72076638039E+03  0.95978485189E+03  0.12205424738E+04  0.15294330000E+03 0.  0.
    8880022    1    1    2    0    0 -0.16012851218E+03 -0.72076638039E+03  0.17176318100E+03  0.77333017455E+03  0.15294330000E+03 0.  0.
<mgrwt>
<rscale>  0 0.75401390E+03</rscale>
<asrwt>0</asrwt>
<pdfrwt beam="1">  1        1 0.24041698E+00 0.75401390E+03</pdfrwt>
<pdfrwt beam="2">  1       -1 0.66332663E-01 0.75401390E+03</pdfrwt>
<totfact> 0.14136407E+01</totfact>
</mgrwt>
</event>
<event>
 4    1  0.1852677E-008  0.5010161E+03  0.7818608E-02  0.1013514E+00
          1   -1    0    0  501    0  0.00000000000E+00  0.00000000000E+00  0.13720821096E+04  0.13720821096E+04  0.50400000000E-02 0. -1.
         -1   -1    0    0    0  501 -0.00000000000E+00 -0.00000000000E+00 -0.29419765378E+03  0.29419765383E+03  0.50400000000E-02 0.  1.
    8880022    1    1    2    0    0 -0.34580641041E+03  0.32869950179E+03  0.26610397638E+02  0.50172223614E+03  0.15294330000E+03 0.  0.
    8880022    1    1    2    0    0  0.34580641041E+03 -0.32869950179E+03  0.10512740581E+04  0.11645575273E+04  0.15294330000E+03 0.  0.
<mgrwt>
<rscale>  0 0.50101606E+03</rscale>
<asrwt>0</asrwt>
<pdfrwt beam="1">  1        1 0.21108955E+00 0.50101606E+03</pdfrwt>
<pdfrwt beam="2">  1       -1 0.45261179E-01 0.50101606E+03</pdfrwt>
<totfact> 0.41446075E+01</totfact>
</mgrwt>
</event>
<event>
 4    1  0.1852677E-008  0.4261507E+03  0.7818608E-02  0.1035083E+00
         -1   -1    0    0    0  501 -0.00000000000E+00  0.00000000000E+00  0.29260999492E+03  0.29260999496E+03  0.50400000000E-02 0.  1.
          1   -1    0    0  501    0  0.00000000000E+00 -0.00000000000E+00 -0.68530897692E+03  0.68530897693E+03  0.50400000000E-02 0. -1.
    8880022    1    1    2    0    0  0.26850408578E+03 -0.29345927047E+03 -0.46142743265E+02  0.42864156737E+03  0.15294330000E+03 0.  1.
    8880022    1    1    2    0    0 -0.26850408578E+03  0.29345927047E+03 -0.34655623873E+03  0.54927740453E+03  0.15294330000E+03 0.  0.
<mgrwt>
<rscale>  0 0.42615073E+03</rscale>
<asrwt>0</asrwt>
<pdfrwt beam="1">  1        1 0.10543215E+00 0.42615073E+03</pdfrwt>
<pdfrwt beam="2">  1       -1 0.45016922E-01 0.42615073E+03</pdfrwt>
<totfact> 0.14367680E+02</totfact>
</mgrwt>
</event>
<event>
 4    1  0.1852677E-008  0.7875667E+03  0.7818608E-02  0.9578190E-01
         -1   -1    0    0    0  501 -0.00000000000E+00  0.00000000000E+00  0.80172915411E+03  0.80172915412E+03  0.50400000000E-02 0.  1.
          1   -1    0    0  501    0  0.00000000000E+00 -0.00000000000E+00 -0.12644135761E+04  0.12644135761E+04  0.50400000000E-02 0. -1.
    8880022    1    1    2    0    0 -0.36756858108E+03  0.67953143757E+03  0.41226360815E+03  0.88894463948E+03  0.15294330000E+03 0.  0.
    8880022    1    1    2    0    0  0.36756858108E+03 -0.67953143757E+03 -0.87494803016E+03  0.11771980908E+04  0.15294330000E+03 0.  0.
<mgrwt>
<rscale>  0 0.78756669E+03</rscale>
<asrwt>0</asrwt>
<pdfrwt beam="1">  1        1 0.19452516E+00 0.78756669E+03</pdfrwt>
<pdfrwt beam="2">  1       -1 0.12334295E+00 0.78756669E+03</pdfrwt>
<totfact> 0.57290320E+00</totfact>
</mgrwt>
</event>
<event>
 4    1  0.1852677E-008  0.2110719E+03  0.7818608E-02  0.1140720E+00
         -1   -1    0    0    0  501 -0.00000000000E+00  0.00000000000E+00  0.43964831863E+03  0.43964831866E+03  0.50400000000E-02 0.  1.
          1   -1    0    0  501    0  0.00000000000E+00 -0.00000000000E+00 -0.35031058740E+03  0.35031058744E+03  0.50400000000E-02 0. -1.
    8880022    1    1    2    0    0  0.38556603473E+01  0.14541260955E+03  0.37765571403E+03  0.43263747467E+03  0.15294330000E+03 0.  0.
    8880022    1    1    2    0    0 -0.38556603473E+01 -0.14541260955E+03 -0.28831798281E+03  0.35732143143E+03  0.15294330000E+03 0. -1.
<mgrwt>
<rscale>  0 0.21107190E+03</rscale>
<asrwt>0</asrwt>
<pdfrwt beam="1">  1        1 0.53893936E-01 0.21107190E+03</pdfrwt>
<pdfrwt beam="2">  1       -1 0.67638203E-01 0.21107190E+03</pdfrwt>
<totfact> 0.16804233E+02</totfact>
</mgrwt>
</event>
<event>
 4    1  0.1852677E-008  0.4452071E+03  0.7818608E-02  0.1029161E+00
         -1   -1    0    0    0  501 -0.00000000000E+00  0.00000000000E+00  0.70689778519E+03  0.70689778521E+03  0.50400000000E-02 0.  1.
          1   -1    0    0  501    0  0.00000000000E+00 -0.00000000000E+00 -0.41375193101E+03  0.41375193104E+03  0.50400000000E-02 0. -1.
    8880022    1    1    2    0    0 -0.35984247452E+03  0.21291111660E+03  0.46468520875E+03  0.64353845750E+03  0.15294330000E+03 0.  0.
    8880022    1    1    2    0    0  0.35984247452E+03 -0.21291111660E+03 -0.17153935456E+03  0.47711125874E+03  0.15294330000E+03 0.  0.
<mgrwt>
<rscale>  0 0.44520715E+03</rscale>
<asrwt>0</asrwt>
<pdfrwt beam="1">  1        1 0.63654144E-01 0.44520715E+03</pdfrwt>
<pdfrwt beam="2">  1       -1 0.10875350E+00 0.44520715E+03</pdfrwt>
<totfact> 0.47442251E+01</totfact>
</mgrwt>
</event>
<event>
 4    1  0.1852677E-008  0.3694731E+03  0.7818608E-02  0.1054895E+00
          1   -1    0    0  501    0  0.00000000000E+00  0.00000000000E+00  0.10041789742E+04  0.10041789743E+04  0.50400000000E-02 0. -1.
         -1   -1    0    0    0  501 -0.00000000000E+00 -0.00000000000E+00 -0.18051204287E+03  0.18051204294E+03  0.50400000000E-02 0.  1.
    8880022    1    1    2    0    0 -0.27080509039E+03 -0.19945765971E+03  0.11749838185E+03  0.38770643243E+03  0.15294330000E+03 0.  0.
    8880022    1    1    2    0    0  0.27080509039E+03  0.19945765971E+03  0.70616854953E+03  0.79698458476E+03  0.15294330000E+03 0.  0.
<mgrwt>
<rscale>  0 0.36947315E+03</rscale>
<asrwt>0</asrwt>
<pdfrwt beam="1">  1        1 0.15448907E+00 0.36947315E+03</pdfrwt>
<pdfrwt beam="2">  1       -1 0.27771084E-01 0.36947315E+03</pdfrwt>
<totfact> 0.18419923E+02</totfact>
</mgrwt>
</event>
<event>
 4    1  0.1852677E-008  0.3111691E+03  0.7818608E-02  0.1079787E+00
          1   -1    0    0  501    0  0.00000000000E+00  0.00000000000E+00  0.23251703885E+03  0.23251703891E+03  0.50400000000E-02 0. -1.
         -1   -1    0    0    0  501 -0.00000000000E+00 -0.00000000000E+00 -0.11149903530E+04  0.11149903530E+04  0.50400000000E-02 0.  1.
    8880022    1    1    2    0    0 -0.20365550615E+03  0.17877074540E+03 -0.97453316430E+03  0.10230059071E+04  0.15294330000E+03 0.  0.
    8880022    1    1    2    0    0  0.20365550615E+03 -0.17877074540E+03  0.92059850205E+02  0.32450148479E+03  0.15294330000E+03 0. -1.
<mgrwt>
<rscale>  0 0.31116908E+03</rscale>
<asrwt>0</asrwt>
<pdfrwt beam="1">  1        1 0.35771853E-01 0.31116908E+03</pdfrwt>
<pdfrwt beam="2">  1       -1 0.17153698E+00 0.31116908E+03</pdfrwt>
<totfact> 0.31793410E+01</totfact>
</mgrwt>
</event>
<event>
 4    1  0.1852677E-008  0.7865227E+03  0.7818608E-02  0.9579732E-01
          1   -1    0    0  501    0  0.00000000000E+00  0.00000000000E+00  0.99419701035E+03  0.99419701036E+03  0.50400000000E-02 0. -1.
         -1   -1    0    0    0  501 -0.00000000000E+00 -0.00000000000E+00 -0.72747308127E+03  0.72747308129E+03  0.50400000000E-02 0.  1.
    8880022    1    1    2    0    0 -0.53366390466E+02 -0.76966118760E+03  0.46078619916E+03  0.91156014046E+03  0.15294330000E+03 0.  0.
    8880022    1    1    2    0    0  0.53366390466E+02  0.76966118760E+03 -0.19406227008E+03  0.81010995119E+03  0.15294330000E+03 0.  0.
<mgrwt>
<rscale>  0 0.78652271E+03</rscale>
<asrwt>0</asrwt>
<pdfrwt beam="1">  1        1 0.15295339E+00 0.78652271E+03</pdfrwt>
<pdfrwt beam="2">  1       -1 0.11191894E+00 0.78652271E+03</pdfrwt>
<totfact> 0.11501152E+01</totfact>
</mgrwt>
</event>
<event>
 4    1  0.1852677E-008  0.1070331E+04  0.7818608E-02  0.9234602E-01
          1   -1    0    0  501    0  0.00000000000E+00  0.00000000000E+00  0.95082430370E+03  0.95082430371E+03  0.50400000000E-02 0. -1.
         -1   -1    0    0    0  501 -0.00000000000E+00 -0.00000000000E+00 -0.15047740182E+04  0.15047740182E+04  0.50400000000E-02 0.  1.
    8880022    1    1    2    0    0 -0.67201017328E+03 -0.81891342115E+03  0.27116493630E+03  0.11041462494E+04  0.15294330000E+03 0.  0.
    8880022    1    1    2    0    0  0.67201017328E+03  0.81891342115E+03 -0.82511465076E+03  0.13514520725E+04  0.15294330000E+03 0.  0.
<mgrwt>
<rscale>  0 0.10703310E+04</rscale>
<asrwt>0</asrwt>
<pdfrwt beam="1">  1        1 0.14628066E+00 0.10703310E+04</pdfrwt>
<pdfrwt beam="2">  1       -1 0.23150369E+00 0.10703310E+04</pdfrwt>
<totfact> 0.15223131E+00</totfact>
</mgrwt>
</event>
<event>
 4    1  0.1852677E-008  0.3299695E+03  0.7818608E-02  0.1071150E+00
         -1   -1    0    0    0  501 -0.00000000000E+00  0.00000000000E+00  0.80867870193E+03  0.80867870195E+03  0.50400000000E-02 0.  1.
          1   -1    0    0  501    0  0.00000000000E+00 -0.00000000000E+00 -0.29352640662E+03  0.29352640667E+03  0.50400000000E-02 0. -1.
    8880022    1    1    2    0    0  0.64498210931E+02  0.28518099214E+03  0.66304105389E+03  0.74061009286E+03  0.15294330000E+03 0.  0.
    8880022    1    1    2    0    0 -0.64498210931E+02 -0.28518099214E+03 -0.14788875858E+03  0.36159501576E+03  0.15294330000E+03 0.  0.
<mgrwt>
<rscale>  0 0.32996950E+03</rscale>
<asrwt>0</asrwt>
<pdfrwt beam="1">  1        1 0.45157909E-01 0.32996950E+03</pdfrwt>
<pdfrwt beam="2">  1       -1 0.12441211E+00 0.32996950E+03</pdfrwt>
<totfact> 0.54595640E+01</totfact>
</mgrwt>
</event>
<event>
 4    1  0.1852677E-008  0.6596564E+03  0.7818608E-02  0.9788826E-01
         -1   -1    0    0    0  501 -0.00000000000E+00  0.00000000000E+00  0.72467337827E+03  0.72467337829E+03  0.50400000000E-02 0.  1.
          1   -1    0    0  501    0  0.00000000000E+00 -0.00000000000E+00 -0.83601358517E+03  0.83601358518E+03  0.50400000000E-02 0. -1.
    8880022    1    1    2    0    0 -0.47675506688E+03 -0.42948755950E+03 -0.46987216134E+03  0.80989286858E+03  0.15294330000E+03 0.  0.
    8880022    1    1    2    0    0  0.47675506688E+03  0.42948755950E+03  0.35853195444E+03  0.75079409489E+03  0.15294330000E+03 0.  0.
<mgrwt>
<rscale>  0 0.65965643E+03</rscale>
<asrwt>0</asrwt>
<pdfrwt beam="1">  1        1 0.12861747E+00 0.65965643E+03</pdfrwt>
<pdfrwt beam="2">  1       -1 0.11148821E+00 0.65965643E+03</pdfrwt>
<totfact> 0.15843361E+01</totfact>
</mgrwt>
</event>
<event>
 4    1  0.1852677E-008  0.1263247E+04  0.7818608E-02  0.9059229E-01
         -1   -1    0    0    0  501 -0.00000000000E+00  0.00000000000E+00  0.13412524893E+04  0.13412524893E+04  0.50400000000E-02 0.  1.
          1   -1    0    0  501    0  0.00000000000E+00 -0.00000000000E+00 -0.13147384030E+04  0.13147384030E+04  0.50400000000E-02 0. -1.
    8880022    1    1    2    0    0 -0.12538309181E+04 -0.17607939991E+02  0.42267027729E+03  0.13320825151E+04  0.15294330000E+03 0.  0.
    8880022    1    1    2    0    0  0.12538309181E+04  0.17607939991E+02 -0.39615619106E+03  0.13239083772E+04  0.15294330000E+03 0.  0.
<mgrwt>
<rscale>  0 0.12632473E+04</rscale>
<asrwt>0</asrwt>
<pdfrwt beam="1">  1        1 0.20226745E+00 0.12632473E+04</pdfrwt>
<pdfrwt beam="2">  1       -1 0.20634654E+00 0.12632473E+04</pdfrwt>
<totfact> 0.11690590E+00</totfact>
</mgrwt>
</event>
<event>
 4    1  0.1852677E-008  0.2784802E+03  0.7818608E-02  0.1096522E+00
          1   -1    0    0  501    0  0.00000000000E+00  0.00000000000E+00  0.23478570498E+03  0.23478570504E+03  0.50400000000E-02 0. -1.
         -1   -1    0    0    0  501 -0.00000000000E+00 -0.00000000000E+00 -0.44869697009E+03  0.44869697012E+03  0.50400000000E-02 0.  1.
    8880022    1    1    2    0    0  0.22977612746E+03 -0.36912265044E+02  0.68585694359E+02  0.28680173386E+03  0.15294330000E+03 0. -1.
    8880022    1    1    2    0    0 -0.22977612746E+03  0.36912265044E+02 -0.28249695946E+03  0.39668094129E+03  0.15294330000E+03 0.  1.
<mgrwt>
<rscale>  0 0.27848023E+03</rscale>
<asrwt>0</asrwt>
<pdfrwt beam="1">  1        1 0.36120878E-01 0.27848023E+03</pdfrwt>
<pdfrwt beam="2">  1       -1 0.69030303E-01 0.27848023E+03</pdfrwt>
<totfact> 0.26527983E+02</totfact>
</mgrwt>
</event>
<event>
 4    1  0.1852677E-008  0.7430984E+03  0.7818608E-02  0.9646240E-01
         -1   -1    0    0    0  501 -0.00000000000E+00  0.00000000000E+00  0.11119613610E+04  0.11119613610E+04  0.50400000000E-02 0.  1.
          1   -1    0    0  501    0  0.00000000000E+00 -0.00000000000E+00 -0.74537052320E+03  0.74537052322E+03  0.50400000000E-02 0. -1.
    8880022    1    1    2    0    0  0.65509120424E+03  0.31568839803E+03  0.71980386996E+03  0.10345592853E+04  0.15294330000E+03 0.  0.
    8880022    1    1    2    0    0 -0.65509120424E+03 -0.31568839803E+03 -0.35321303215E+03  0.82277259897E+03  0.15294330000E+03 0.  0.
<mgrwt>
<rscale>  0 0.74309845E+03</rscale>
<asrwt>0</asrwt>
<pdfrwt beam="1">  1        1 0.11467239E+00 0.74309845E+03</pdfrwt>
<pdfrwt beam="2">  1       -1 0.17107098E+00 0.74309845E+03</pdfrwt>
<totfact> 0.61862499E+00</totfact>
</mgrwt>
</event>
<event>
 4    1  0.1852677E-008  0.3437242E+03  0.7818608E-02  0.1065221E+00
         -1   -1    0    0    0  501 -0.00000000000E+00  0.00000000000E+00  0.32164344079E+03  0.32164344083E+03  0.50400000000E-02 0.  1.
          1   -1    0    0  501    0  0.00000000000E+00 -0.00000000000E+00 -0.11475534039E+04  0.11475534039E+04  0.50400000000E-02 0. -1.
    8880022    1    1    2    0    0  0.23936292588E+03 -0.19354608878E+03  0.19277010887E+03  0.39408966830E+03  0.15294330000E+03 0.  1.
    8880022    1    1    2    0    0 -0.23936292588E+03  0.19354608878E+03 -0.10186800720E+04  0.10751071764E+04  0.15294330000E+03 0.  0.
<mgrwt>
<rscale>  0 0.34372424E+03</rscale>
<asrwt>0</asrwt>
<pdfrwt beam="1">  1        1 0.17654668E+00 0.34372424E+03</pdfrwt>
<pdfrwt beam="2">  1       -1 0.49483607E-01 0.34372424E+03</pdfrwt>
<totfact> 0.52071839E+01</totfact>
</mgrwt>
</event>
<event>
 4    1  0.1852677E-008  0.4177943E+03  0.7818608E-02  0.1037787E+00
          1   -1    0    0  501    0  0.00000000000E+00  0.00000000000E+00  0.30538069621E+04  0.30538069621E+04  0.50400000000E-02 0. -1.
         -1   -1    0    0    0  501 -0.00000000000E+00 -0.00000000000E+00 -0.19755290812E+03  0.19755290818E+03  0.50400000000E-02 0.  1.
    8880022    1    1    2    0    0  0.38217954268E+03 -0.71408778647E+02  0.57662785924E+02  0.42175474675E+03  0.15294330000E+03 0.  1.
    8880022    1    1    2    0    0 -0.38217954268E+03  0.71408778647E+02  0.27985912680E+04  0.28296051235E+04  0.15294330000E+03 0.  0.
<mgrwt>
<rscale>  0 0.41779429E+03</rscale>
<asrwt>0</asrwt>
<pdfrwt beam="1">  1        1 0.46981646E+00 0.41779429E+03</pdfrwt>
<pdfrwt beam="2">  1       -1 0.30392755E-01 0.41779429E+03</pdfrwt>
<totfact> 0.63012367E+00</totfact>
</mgrwt>
</event>
<event>
 4    1  0.1852677E-008  0.5585586E+03  0.7818608E-02  0.9995321E-01
          1   -1    0    0  501    0  0.00000000000E+00  0.00000000000E+00  0.11107864446E+04  0.11107864446E+04  0.50400000000E-02 0. -1.
         -1   -1    0    0    0  501 -0.00000000000E+00 -0.00000000000E+00 -0.28276742855E+03  0.28276742859E+03  0.50400000000E-02 0.  1.
    8880022    1    1    2    0    0  0.46881223658E+03 -0.26231885365E+03  0.47107090579E+03  0.73068156228E+03  0.15294330000E+03 0.  1.
    8880022    1    1    2    0    0 -0.46881223658E+03  0.26231885365E+03  0.35694811023E+03  0.66287231090E+03  0.15294330000E+03 0. -1.
<mgrwt>
<rscale>  0 0.55855863E+03</rscale>
<asrwt>0</asrwt>
<pdfrwt beam="1">  1        1 0.17089022E+00 0.55855863E+03</pdfrwt>
<pdfrwt beam="2">  1       -1 0.43502682E-01 0.55855863E+03</pdfrwt>
<totfact> 0.67784266E+01</totfact>
</mgrwt>
</event>
<event>
 4    1  0.1852677E-008  0.3506040E+03  0.7818608E-02  0.1062367E+00
         -1   -1    0    0    0  501 -0.00000000000E+00  0.00000000000E+00  0.24880933447E+03  0.24880933452E+03  0.50400000000E-02 0.  1.
          1   -1    0    0  501    0  0.00000000000E+00 -0.00000000000E+00 -0.13507217599E+04  0.13507217599E+04  0.50400000000E-02 0. -1.
    8880022    1    1    2    0    0  0.30813199598E+03  0.67721542624E+02  0.85968431193E+02  0.36098997003E+03  0.15294330000E+03 0.  0.
    8880022    1    1    2    0    0 -0.30813199598E+03 -0.67721542624E+02 -0.11878808566E+04  0.12385411244E+04  0.15294330000E+03 0.  0.
<mgrwt>
<rscale>  0 0.35060403E+03</rscale>
<asrwt>0</asrwt>
<pdfrwt beam="1">  1        1 0.20780334E+00 0.35060403E+03</pdfrwt>
<pdfrwt beam="2">  1       -1 0.38278360E-01 0.35060403E+03</pdfrwt>
<totfact> 0.59790927E+01</totfact>
</mgrwt>
</event>
<event>
 4    1  0.1852677E-008  0.2588289E+03  0.7818608E-02  0.1107849E+00
          1   -1    0    0  501    0  0.00000000000E+00  0.00000000000E+00  0.52944082095E+03  0.52944082097E+03  0.50400000000E-02 0. -1.
         -1   -1    0    0    0  501 -0.00000000000E+00 -0.00000000000E+00 -0.39196431218E+03  0.39196431221E+03  0.50400000000E-02 0.  1.
    8880022    1    1    2    0    0 -0.64367684529E+02 -0.19863924224E+03  0.44785451997E+03  0.51726789137E+03  0.15294330000E+03 0.  0.
    8880022    1    1    2    0    0  0.64367684529E+02  0.19863924224E+03 -0.31037801121E+03  0.40413724182E+03  0.15294330000E+03 0.  1.
<mgrwt>
<rscale>  0 0.25882890E+03</rscale>
<asrwt>0</asrwt>
<pdfrwt beam="1">  1        1 0.81452434E-01 0.25882890E+03</pdfrwt>
<pdfrwt beam="2">  1       -1 0.60302202E-01 0.25882890E+03</pdfrwt>
<totfact> 0.12199226E+02</totfact>
</mgrwt>
</event>
<event>
 4    1  0.1852677E-008  0.9451256E+03  0.7818608E-02  0.9370866E-01
         -1   -1    0    0    0  501 -0.00000000000E+00  0.00000000000E+00  0.86286877851E+03  0.86286877853E+03  0.50400000000E-02 0.  1.
          1   -1    0    0  501    0  0.00000000000E+00 -0.00000000000E+00 -0.15038181466E+04  0.15038181466E+04  0.50400000000E-02 0. -1.
    8880022    1    1    2    0    0 -0.68409240407E+03  0.63394666480E+03 -0.98103365942E+03  0.13622369416E+04  0.15294330000E+03 0.  0.
    8880022    1    1    2    0    0  0.68409240407E+03 -0.63394666480E+03  0.34008429136E+03  0.10044499835E+04  0.15294330000E+03 0.  0.
<mgrwt>
<rscale>  0 0.94512562E+03</rscale>
<asrwt>0</asrwt>
<pdfrwt beam="1">  1        1 0.23135664E+00 0.94512562E+03</pdfrwt>
<pdfrwt beam="2">  1       -1 0.13274904E+00 0.94512562E+03</pdfrwt>
<totfact> 0.31670836E+00</totfact>
</mgrwt>
</event>
<event>
 4    1  0.1852677E-008  0.9498006E+03  0.7818608E-02  0.9365384E-01
         -1   -1    0    0    0  501 -0.00000000000E+00  0.00000000000E+00  0.70572038913E+03  0.70572038915E+03  0.50400000000E-02 0.  1.
          1   -1    0    0  501    0  0.00000000000E+00 -0.00000000000E+00 -0.18262654180E+04  0.18262654180E+04  0.50400000000E-02 0. -1.
    8880022    1    1    2    0    0 -0.93691975070E+03  0.30182128994E+02 -0.12537406964E+04  0.15728912763E+04  0.15294330000E+03 0.  0.
    8880022    1    1    2    0    0  0.93691975070E+03 -0.30182128994E+02  0.13319566761E+03  0.95909453082E+03  0.15294330000E+03 0.  0.
<mgrwt>
<rscale>  0 0.94980063E+03</rscale>
<asrwt>0</asrwt>
<pdfrwt beam="1">  1        1 0.28096391E+00 0.94980063E+03</pdfrwt>
<pdfrwt beam="2">  1       -1 0.10857237E+00 0.94980063E+03</pdfrwt>
<totfact> 0.31266596E+00</totfact>
</mgrwt>
</event>
<event>
 4    1  0.1852677E-008  0.3825541E+03  0.7818608E-02  0.1049994E+00
         -1   -1    0    0    0  501 -0.00000000000E+00  0.00000000000E+00  0.34732769993E+03  0.34732769997E+03  0.50400000000E-02 0.  1.
          1   -1    0    0  501    0  0.00000000000E+00 -0.00000000000E+00 -0.12169563488E+04  0.12169563488E+04  0.50400000000E-02 0. -1.
    8880022    1    1    2    0    0 -0.32615623674E+03 -0.12875598004E+03 -0.10672208765E+04  0.11337142697E+04  0.15294330000E+03 0. -1.
    8880022    1    1    2    0    0  0.32615623674E+03  0.12875598004E+03  0.19759222766E+03  0.43056977902E+03  0.15294330000E+03 0.  0.
<mgrwt>
<rscale>  0 0.38255411E+03</rscale>
<asrwt>0</asrwt>
<pdfrwt beam="1">  1        1 0.18722405E+00 0.38255411E+03</pdfrwt>
<pdfrwt beam="2">  1       -1 0.53435031E-01 0.38255411E+03</pdfrwt>
<totfact> 0.39885021E+01</totfact>
</mgrwt>
</event>
<event>
 4    1  0.1852677E-008  0.1427814E+04  0.7818608E-02  0.8933928E-01
         -1   -1    0    0    0  501 -0.00000000000E+00  0.00000000000E+00  0.22464406593E+04  0.22464406594E+04  0.50400000000E-02 0.  1.
          1   -1    0    0  501    0  0.00000000000E+00 -0.00000000000E+00 -0.14843065422E+04  0.14843065422E+04  0.50400000000E-02 0. -1.
    8880022    1    1    2    0    0 -0.76687516782E+03 -0.11946399922E+04 -0.78176663689E+03  0.16278246102E+04  0.15294330000E+03 0.  0.
    8880022    1    1    2    0    0  0.76687516782E+03  0.11946399922E+04  0.15439007540E+04  0.21029225914E+04  0.15294330000E+03 0.  0.
<mgrwt>
<rscale>  0 0.14278144E+04</rscale>
<asrwt>0</asrwt>
<pdfrwt beam="1">  1        1 0.22835485E+00 0.14278144E+04</pdfrwt>
<pdfrwt beam="2">  1       -1 0.34560625E+00 0.14278144E+04</pdfrwt>
<totfact> 0.10648793E-01</totfact>
</mgrwt>
</event>
<event>
 4    1  0.1852677E-008  0.2667954E+03  0.7818608E-02  0.1103128E+00
          1   -1    0    0  501    0  0.00000000000E+00  0.00000000000E+00  0.22722509728E+04  0.22722509728E+04  0.50400000000E-02 0. -1.
         -1   -1    0    0    0  501 -0.00000000000E+00 -0.00000000000E+00 -0.27544382319E+03  0.27544382324E+03  0.50400000000E-02 0.  1.
    8880022    1    1    2    0    0 -0.21746401085E+03 -0.22305190316E+02 -0.20082212945E+03  0.33393007984E+03  0.15294330000E+03 0.  0.
    8880022    1    1    2    0    0  0.21746401085E+03  0.22305190316E+02  0.21976292791E+04  0.22137647162E+04  0.15294330000E+03 0. -1.
<mgrwt>
<rscale>  0 0.26679537E+03</rscale>
<asrwt>0</asrwt>
<pdfrwt beam="1">  1        1 0.34957707E+00 0.26679537E+03</pdfrwt>
<pdfrwt beam="2">  1       -1 0.42375973E-01 0.26679537E+03</pdfrwt>
<totfact> 0.12678511E+01</totfact>
</mgrwt>
</event>
<event>
 4    1  0.1852677E-008  0.7154710E+03  0.7818608E-02  0.9691134E-01
          1   -1    0    0  501    0  0.00000000000E+00  0.00000000000E+00  0.87103850231E+03  0.87103850233E+03  0.50400000000E-02 0. -1.
         -1   -1    0    0    0  501 -0.00000000000E+00 -0.00000000000E+00 -0.18478454374E+04  0.18478454375E+04  0.50400000000E-02 0.  1.
    8880022    1    1    2    0    0  0.26153656013E+03 -0.64815568305E+03 -0.16110428369E+04  0.17627699331E+04  0.15294330000E+03 0.  0.
    8880022    1    1    2    0    0 -0.26153656013E+03  0.64815568305E+03  0.63423590173E+03  0.95611400670E+03  0.15294330000E+03 0.  0.
<mgrwt>
<rscale>  0 0.71547104E+03</rscale>
<asrwt>0</asrwt>
<pdfrwt beam="1">  1        1 0.13400592E+00 0.71547104E+03</pdfrwt>
<pdfrwt beam="2">  1       -1 0.28428391E+00 0.71547104E+03</pdfrwt>
<totfact> 0.85408632E-01</totfact>
</mgrwt>
</event>
<event>
 4    1  0.1852677E-008  0.3585712E+03  0.7818608E-02  0.1059151E+00
          1   -1    0    0  501    0  0.00000000000E+00  0.00000000000E+00  0.11552259771E+04  0.11552259771E+04  0.50400000000E-02 0. -1.
         -1   -1    0    0    0  501 -0.00000000000E+00 -0.00000000000E+00 -0.13885974974E+03  0.13885974983E+03  0.50400000000E-02 0.  1.
    8880022    1    1    2    0    0 -0.55280441458E+02  0.31957120539E+03  0.79645687254E+03  0.87345113507E+03  0.15294330000E+03 0. -1.
    8880022    1    1    2    0    0  0.55280441458E+02 -0.31957120539E+03  0.21990935483E+03  0.42063459188E+03  0.15294330000E+03 0.  0.
<mgrwt>
<rscale>  0 0.35857124E+03</rscale>
<asrwt>0</asrwt>
<pdfrwt beam="1">  1        1 0.17772708E+00 0.35857124E+03</pdfrwt>
<pdfrwt beam="2">  1       -1 0.21363038E-01 0.35857124E+03</pdfrwt>
<totfact> 0.22171421E+02</totfact>
</mgrwt>
</event>
<event>
 4    1  0.1852677E-008  0.1336796E+04  0.7818608E-02  0.9000884E-01
         -1   -1    0    0    0  501 -0.00000000000E+00  0.00000000000E+00  0.25609789599E+04  0.25609789599E+04  0.50400000000E-02 0.  1.
          1   -1    0    0  501    0  0.00000000000E+00 -0.00000000000E+00 -0.96857443339E+03  0.96857443340E+03  0.50400000000E-02 0. -1.
    8880022    1    1    2    0    0  0.87888510377E+03 -0.99558628524E+03  0.17293189954E+04  0.21857646072E+04  0.15294330000E+03 0.  0.
    8880022    1    1    2    0    0 -0.87888510377E+03  0.99558628524E+03 -0.13691446890E+03  0.13437887862E+04  0.15294330000E+03 0.  0.
<mgrwt>
<rscale>  0 0.13367957E+04</rscale>
<asrwt>0</asrwt>
<pdfrwt beam="1">  1        1 0.14901145E+00 0.13367957E+04</pdfrwt>
<pdfrwt beam="2">  1       -1 0.39399677E+00 0.13367957E+04</pdfrwt>
<totfact> 0.12254416E-01</totfact>
</mgrwt>
</event>
<event>
 4    1  0.1852677E-008  0.5476956E+03  0.7818608E-02  0.1002029E+00
         -1   -1    0    0    0  501 -0.00000000000E+00  0.00000000000E+00  0.32056831963E+03  0.32056831967E+03  0.50400000000E-02 0.  1.
          1   -1    0    0  501    0  0.00000000000E+00 -0.00000000000E+00 -0.12961493771E+04  0.12961493771E+04  0.50400000000E-02 0. -1.
    8880022    1    1    2    0    0  0.47980723063E+03 -0.21532274136E+03 -0.61533934809E+02  0.55114148788E+03  0.15294330000E+03 0.  0.
    8880022    1    1    2    0    0 -0.47980723063E+03  0.21532274136E+03 -0.91404712263E+03  0.10655762089E+04  0.15294330000E+03 0.  0.
<mgrwt>
<rscale>  0 0.54769564E+03</rscale>
<asrwt>0</asrwt>
<pdfrwt beam="1">  1        1 0.19940759E+00 0.54769564E+03</pdfrwt>
<pdfrwt beam="2">  1       -1 0.49318204E-01 0.54769564E+03</pdfrwt>
<totfact> 0.39593318E+01</totfact>
</mgrwt>
</event>
<event>
 4    1  0.1852677E-008  0.1068376E+04  0.7818608E-02  0.9236575E-01
          1   -1    0    0  501    0  0.00000000000E+00  0.00000000000E+00  0.17044487474E+04  0.17044487474E+04  0.50400000000E-02 0. -1.
         -1   -1    0    0    0  501 -0.00000000000E+00 -0.00000000000E+00 -0.82465361080E+03  0.82465361081E+03  0.50400000000E-02 0.  1.
    8880022    1    1    2    0    0 -0.75383102144E+03 -0.74146812040E+03  0.98809322340E+03  0.14552511995E+04  0.15294330000E+03 0.  0.
    8880022    1    1    2    0    0  0.75383102144E+03  0.74146812040E+03 -0.10829808681E+03  0.10738511587E+04  0.15294330000E+03 0.  0.
<mgrwt>
<rscale>  0 0.10683763E+04</rscale>
<asrwt>0</asrwt>
<pdfrwt beam="1">  1        1 0.26222288E+00 0.10683763E+04</pdfrwt>
<pdfrwt beam="2">  1       -1 0.12686979E+00 0.10683763E+04</pdfrwt>
<totfact> 0.25478775E+00</totfact>
</mgrwt>
</event>
<event>
 4    1  0.1852677E-008  0.3575320E+03  0.7818608E-02  0.1059565E+00
          1   -1    0    0  501    0  0.00000000000E+00  0.00000000000E+00  0.75157198318E+03  0.75157198320E+03  0.50400000000E-02 0. -1.
         -1   -1    0    0    0  501 -0.00000000000E+00 -0.00000000000E+00 -0.10211105579E+04  0.10211105579E+04  0.50400000000E-02 0.  1.
    8880022    1    1    2    0    0 -0.31012834631E+03  0.90872919310E+02  0.67439473611E+03  0.76330687915E+03  0.15294330000E+03 0.  0.
    8880022    1    1    2    0    0  0.31012834631E+03 -0.90872919310E+02 -0.94393331084E+03  0.10093756620E+04  0.15294330000E+03 0.  0.
<mgrwt>
<rscale>  0 0.35753200E+03</rscale>
<asrwt>0</asrwt>
<pdfrwt beam="1">  1        1 0.11562646E+00 0.35753200E+03</pdfrwt>
<pdfrwt beam="2">  1       -1 0.15709393E+00 0.35753200E+03</pdfrwt>
<totfact> 0.83811940E+00</totfact>
</mgrwt>
</event>
<event>
 4    1  0.1852677E-008  0.4608735E+03  0.7818608E-02  0.1024528E+00
         -1   -1    0    0    0  501 -0.00000000000E+00  0.00000000000E+00  0.56249491964E+03  0.56249491966E+03  0.50400000000E-02 0.  1.
          1   -1    0    0  501    0  0.00000000000E+00 -0.00000000000E+00 -0.45082733732E+03  0.45082733735E+03  0.50400000000E-02 0. -1.
    8880022    1    1    2    0    0 -0.39985382307E+03  0.17067408735E+03  0.26001505883E+03  0.52916179733E+03  0.15294330000E+03 0.  0.
    8880022    1    1    2    0    0  0.39985382307E+03 -0.17067408735E+03 -0.14834747651E+03  0.48416045968E+03  0.15294330000E+03 0.  0.
<mgrwt>
<rscale>  0 0.46087349E+03</rscale>
<asrwt>0</asrwt>
<pdfrwt beam="1">  1        1 0.69358052E-01 0.46087349E+03</pdfrwt>
<pdfrwt beam="2">  1       -1 0.86537680E-01 0.46087349E+03</pdfrwt>
<totfact> 0.70453190E+01</totfact>
</mgrwt>
</event>
<event>
 4    1  0.1852677E-008  0.1916948E+03  0.7818608E-02  0.1156942E+00
         -1   -1    0    0    0  501 -0.00000000000E+00  0.00000000000E+00  0.51873969873E+03  0.51873969875E+03  0.50400000000E-02 0.  1.
          1   -1    0    0  501    0  0.00000000000E+00 -0.00000000000E+00 -0.68058684033E+03  0.68058684035E+03  0.50400000000E-02 0. -1.
    8880022    1    1    2    0    0 -0.95155317512E+02 -0.65579696902E+02  0.48667447378E+03  0.52306684806E+03  0.15294330000E+03 0.  1.
    8880022    1    1    2    0    0  0.95155317512E+02  0.65579696902E+02 -0.64852161538E+03  0.67625969104E+03  0.15294330000E+03 0.  0.
<mgrwt>
<rscale>  0 0.19169477E+03</rscale>
<asrwt>0</asrwt>
<pdfrwt beam="1">  1        1 0.10470567E+00 0.19169477E+03</pdfrwt>
<pdfrwt beam="2">  1       -1 0.79806107E-01 0.19169477E+03</pdfrwt>
<totfact> 0.50099467E+01</totfact>
</mgrwt>
</event>
<event>
 4    1  0.1852677E-008  0.1990418E+03  0.7818608E-02  0.1150550E+00
          1   -1    0    0  501    0  0.00000000000E+00  0.00000000000E+00  0.10046732362E+03  0.10046732375E+03  0.50400000000E-02 0. -1.
         -1   -1    0    0    0  501 -0.00000000000E+00 -0.00000000000E+00 -0.12545003787E+04  0.12545003787E+04  0.50400000000E-02 0.  1.
    8880022    1    1    2    0    0 -0.71917826881E+02 -0.10513717381E+03 -0.16026869564E+02  0.19968603532E+03  0.15294330000E+03 0. -1.
    8880022    1    1    2    0    0  0.71917826881E+02  0.10513717381E+03 -0.11380061855E+04  0.11552816671E+04  0.15294330000E+03 0.  0.
<mgrwt>
<rscale>  0 0.19904184E+03</rscale>
<asrwt>0</asrwt>
<pdfrwt beam="1">  1        1 0.15456512E-01 0.19904184E+03</pdfrwt>
<pdfrwt beam="2">  1       -1 0.19300005E+00 0.19904184E+03</pdfrwt>
<totfact> 0.67877746E+01</totfact>
</mgrwt>
</event>
<event>
 4    1  0.1852677E-008  0.1247807E+04  0.7818608E-02  0.9072011E-01
         -1   -1    0    0    0  501 -0.00000000000E+00  0.00000000000E+00  0.12310391143E+04  0.12310391143E+04  0.50400000000E-02 0.  1.
          1   -1    0    0  501    0  0.00000000000E+00 -0.00000000000E+00 -0.26240752895E+04  0.26240752895E+04  0.50400000000E-02 0. -1.
    8880022    1    1    2    0    0 -0.70769659352E+03 -0.10162653242E+04 -0.20838246581E+04  0.24288570432E+04  0.15294330000E+03 0.  0.
    8880022    1    1    2    0    0  0.70769659352E+03  0.10162653242E+04  0.69078848285E+03  0.14262573606E+04  0.15294330000E+03 0.  0.
<mgrwt>
<rscale>  0 0.12478066E+04</rscale>
<asrwt>0</asrwt>
<pdfrwt beam="1">  1        1 0.40370389E+00 0.12478066E+04</pdfrwt>
<pdfrwt beam="2">  1       -1 0.18939063E+00 0.12478066E+04</pdfrwt>
<totfact> 0.19403937E-01</totfact>
</mgrwt>
</event>
<event>
 4    1  0.1852677E-008  0.7760446E+03  0.7818608E-02  0.9595354E-01
          1   -1    0    0  501    0  0.00000000000E+00  0.00000000000E+00  0.25124964397E+04  0.25124964397E+04  0.50400000000E-02 0. -1.
         -1   -1    0    0    0  501 -0.00000000000E+00 -0.00000000000E+00 -0.38206527170E+03  0.38206527174E+03  0.50400000000E-02 0.  1.
    8880022    1    1    2    0    0  0.36434362977E+03 -0.66791261808E+03  0.19486741503E+04  0.20975166610E+04  0.15294330000E+03 0.  0.
    8880022    1    1    2    0    0 -0.36434362977E+03  0.66791261808E+03  0.18175701765E+03  0.79704505044E+03  0.15294330000E+03 0.  0.
<mgrwt>
<rscale>  0 0.77604459E+03</rscale>
<asrwt>0</asrwt>
<pdfrwt beam="1">  1        1 0.38653790E+00 0.77604459E+03</pdfrwt>
<pdfrwt beam="2">  1       -1 0.58779275E-01 0.77604459E+03</pdfrwt>
<totfact> 0.41103758E+00</totfact>
</mgrwt>
</event>
<event>
 4    1  0.1852677E-008  0.5551784E+03  0.7818608E-02  0.1000302E+00
          1   -1    0    0  501    0  0.00000000000E+00  0.00000000000E+00  0.22413891883E+04  0.22413891883E+04  0.50400000000E-02 0. -1.
         -1   -1    0    0    0  501 -0.00000000000E+00 -0.00000000000E+00 -0.30000536602E+03  0.30000536606E+03  0.50400000000E-02 0.  1.
    8880022    1    1    2    0    0  0.50686181194E+03  0.16710040553E+03  0.19058656749E+04  0.19850811232E+04  0.15294330000E+03 0.  0.
    8880022    1    1    2    0    0 -0.50686181194E+03 -0.16710040553E+03  0.35518147423E+02  0.55631343121E+03  0.15294330000E+03 0.  0.
<mgrwt>
<rscale>  0 0.55517844E+03</rscale>
<asrwt>0</asrwt>
<pdfrwt beam="1">  1        1 0.34482909E+00 0.55517844E+03</pdfrwt>
<pdfrwt beam="2">  1       -1 0.46154673E-01 0.55517844E+03</pdfrwt>
<totfact> 0.10378526E+01</totfact>
</mgrwt>
</event>
<event>
 4    1  0.1852677E-008  0.3953614E+03  0.7818608E-02  0.1045398E+00
          1   -1    0    0  501    0  0.00000000000E+00  0.00000000000E+00  0.15686954676E+04  0.15686954676E+04  0.50400000000E-02 0. -1.
         -1   -1    0    0    0  501 -0.00000000000E+00 -0.00000000000E+00 -0.32144037088E+03  0.32144037092E+03  0.50400000000E-02 0.  1.
    8880022    1    1    2    0    0  0.22452579389E+03 -0.28724062529E+03  0.14086648565E+04  0.14630951233E+04  0.15294330000E+03 0.  0.
    8880022    1    1    2    0    0 -0.22452579389E+03  0.28724062529E+03 -0.16140975972E+03  0.42704071525E+03  0.15294330000E+03 0.  1.
<mgrwt>
<rscale>  0 0.39536143E+03</rscale>
<asrwt>0</asrwt>
<pdfrwt beam="1">  1        1 0.24133777E+00 0.39536143E+03</pdfrwt>
<pdfrwt beam="2">  1       -1 0.49452364E-01 0.39536143E+03</pdfrwt>
<totfact> 0.26447716E+01</totfact>
</mgrwt>
</event>
<event>
 4    1  0.1852677E-008  0.3106068E+03  0.7818608E-02  0.1080055E+00
          1   -1    0    0  501    0  0.00000000000E+00  0.00000000000E+00  0.58401946069E+03  0.58401946071E+03  0.50400000000E-02 0. -1.
         -1   -1    0    0    0  501 -0.00000000000E+00 -0.00000000000E+00 -0.19577185916E+04  0.19577185916E+04  0.50400000000E-02 0.  1.
    8880022    1    1    2    0    0 -0.14830749196E+03  0.22603055653E+03 -0.19029185439E+04  0.19281015436E+04  0.15294330000E+03 0.  0.
    8880022    1    1    2    0    0  0.14830749196E+03 -0.22603055653E+03  0.52921941302E+03  0.61363650869E+03  0.15294330000E+03 0.  0.
<mgrwt>
<rscale>  0 0.31060679E+03</rscale>
<asrwt>0</asrwt>
<pdfrwt beam="1">  1        1 0.89849149E-01 0.31060679E+03</pdfrwt>
<pdfrwt beam="2">  1       -1 0.30118747E+00 0.31060679E+03</pdfrwt>
<totfact> 0.13820074E+00</totfact>
</mgrwt>
</event>
<event>
 4    1  0.1852677E-008  0.1652211E+03  0.7818608E-02  0.1182925E+00
          1   -1    0    0  501    0  0.00000000000E+00  0.00000000000E+00  0.90912786147E+03  0.90912786148E+03  0.50400000000E-02 0. -1.
         -1   -1    0    0    0  501 -0.00000000000E+00 -0.00000000000E+00 -0.11068247063E+03  0.11068247074E+03  0.50400000000E-02 0.  1.
    8880022    1    1    2    0    0 -0.32249416307E+02 -0.53538123179E+02 -0.36056601578E+02  0.16910968931E+03  0.15294330000E+03 0.  1.
    8880022    1    1    2    0    0  0.32249416307E+02  0.53538123179E+02  0.83450199242E+03  0.85070064291E+03  0.15294330000E+03 0.  0.
<mgrwt>
<rscale>  0 0.16522109E+03</rscale>
<asrwt>0</asrwt>
<pdfrwt beam="1">  1        1 0.13986582E+00 0.16522109E+03</pdfrwt>
<pdfrwt beam="2">  1       -1 0.17028073E-01 0.16522109E+03</pdfrwt>
<totfact> 0.49997476E+02</totfact>
</mgrwt>
</event>
<event>
 4    1  0.1852677E-008  0.6042341E+03  0.7818608E-02  0.9896660E-01
          1   -1    0    0  501    0  0.00000000000E+00  0.00000000000E+00  0.23535152689E+04  0.23535152689E+04  0.50400000000E-02 0. -1.
         -1   -1    0    0    0  501 -0.00000000000E+00 -0.00000000000E+00 -0.23292764594E+03  0.23292764599E+03  0.50400000000E-02 0.  1.
    8880022    1    1    2    0    0  0.58450840396E+03 -0.75602378356E+01  0.18076848926E+04  0.19059967354E+04  0.15294330000E+03 0.  0.
    8880022    1    1    2    0    0 -0.58450840396E+03  0.75602378356E+01  0.31290273038E+03  0.68044617949E+03  0.15294330000E+03 0.  0.
<mgrwt>
<rscale>  0 0.60423413E+03</rscale>
<asrwt>0</asrwt>
<pdfrwt beam="1">  1        1 0.36207927E+00 0.60423413E+03</pdfrwt>
<pdfrwt beam="2">  1       -1 0.35835023E-01 0.60423413E+03</pdfrwt>
<totfact> 0.13682496E+01</totfact>
</mgrwt>
</event>
<event>
 4    1  0.1852677E-008  0.5477624E+03  0.7818608E-02  0.1002013E+00
         -1   -1    0    0    0  501 -0.00000000000E+00  0.00000000000E+00  0.29275672144E+03  0.29275672149E+03  0.50400000000E-02 0.  1.
          1   -1    0    0  501    0  0.00000000000E+00 -0.00000000000E+00 -0.29239630546E+04  0.29239630546E+04  0.50400000000E-02 0. -1.
    8880022    1    1    2    0    0 -0.45229653175E+03  0.26847690265E+03 -0.26117913091E+04  0.26686134031E+04  0.15294330000E+03 0.  0.
    8880022    1    1    2    0    0  0.45229653175E+03 -0.26847690265E+03 -0.19415024012E+02  0.54810637295E+03  0.15294330000E+03 0.  0.
<mgrwt>
<rscale>  0 0.54776241E+03</rscale>
<asrwt>0</asrwt>
<pdfrwt beam="1">  1        1 0.44984045E+00 0.54776241E+03</pdfrwt>
<pdfrwt beam="2">  1       -1 0.45039498E-01 0.54776241E+03</pdfrwt>
<totfact> 0.37154816E+00</totfact>
</mgrwt>
</event>
<event>
 4    1  0.1852677E-008  0.6133429E+03  0.7818608E-02  0.9878104E-01
          1   -1    0    0  501    0  0.00000000000E+00  0.00000000000E+00  0.89216762226E+03  0.89216762228E+03  0.50400000000E-02 0. -1.
         -1   -1    0    0    0  501 -0.00000000000E+00 -0.00000000000E+00 -0.18239426268E+04  0.18239426269E+04  0.50400000000E-02 0.  1.
    8880022    1    1    2    0    0  0.59079428633E+03  0.61318179817E+02 -0.16566630976E+04  0.17665565601E+04  0.15294330000E+03 0.  1.
    8880022    1    1    2    0    0 -0.59079428633E+03 -0.61318179817E+02  0.72488809304E+03  0.94955368905E+03  0.15294330000E+03 0.  0.
<mgrwt>
<rscale>  0 0.61334286E+03</rscale>
<asrwt>0</asrwt>
<pdfrwt beam="1">  1        1 0.13725656E+00 0.61334286E+03</pdfrwt>
<pdfrwt beam="2">  1       -1 0.28060656E+00 0.61334286E+03</pdfrwt>
<totfact> 0.88673404E-01</totfact>
</mgrwt>
</event>
<event>
 4    1  0.1852677E-008  0.5440673E+03  0.7818608E-02  0.1002877E+00
         -1   -1    0    0    0  501 -0.00000000000E+00  0.00000000000E+00  0.34849816436E+03  0.34849816439E+03  0.50400000000E-02 0.  1.
          1   -1    0    0  501    0  0.00000000000E+00 -0.00000000000E+00 -0.19335381712E+04  0.19335381712E+04  0.50400000000E-02 0. -1.
    8880022    1    1    2    0    0 -0.30406758298E+03 -0.42445321218E+03  0.61880336355E+02  0.54757506644E+03  0.15294330000E+03 0.  0.
    8880022    1    1    2    0    0  0.30406758298E+03  0.42445321218E+03 -0.16469203432E+04  0.17344612692E+04  0.15294330000E+03 0.  0.
<mgrwt>
<rscale>  0 0.54406735E+03</rscale>
<asrwt>0</asrwt>
<pdfrwt beam="1">  1        1 0.29746741E+00 0.54406735E+03</pdfrwt>
<pdfrwt beam="2">  1       -1 0.53615103E-01 0.54406735E+03</pdfrwt>
<totfact> 0.12567592E+01</totfact>
</mgrwt>
</event>
<event>
 4    1  0.1852677E-008  0.2921642E+03  0.7818608E-02  0.1089225E+00
         -1   -1    0    0    0  501 -0.00000000000E+00  0.00000000000E+00  0.97586209478E+03  0.97586209480E+03  0.50400000000E-02 0.  1.
          1   -1    0    0  501    0  0.00000000000E+00 -0.00000000000E+00 -0.12274814084E+03  0.12274814094E+03  0.50400000000E-02 0. -1.
    8880022    1    1    2    0    0 -0.15872192303E+02  0.24842772354E+03  0.72103379199E+03  0.77797791905E+03  0.15294330000E+03 0.  0.
    8880022    1    1    2    0    0  0.15872192303E+02 -0.24842772354E+03  0.13208016195E+03  0.32063231669E+03  0.15294330000E+03 0. -1.
<mgrwt>
<rscale>  0 0.29216419E+03</rscale>
<asrwt>0</asrwt>
<pdfrwt beam="1">  1        1 0.18884329E-01 0.29216419E+03</pdfrwt>
<pdfrwt beam="2">  1       -1 0.15013263E+00 0.29216419E+03</pdfrwt>
<totfact> 0.10403848E+02</totfact>
</mgrwt>
</event>
<event>
 4    1  0.1852677E-008  0.3388697E+03  0.7818608E-02  0.1067278E+00
         -1   -1    0    0    0  501 -0.00000000000E+00  0.00000000000E+00  0.10905673417E+04  0.10905673417E+04  0.50400000000E-02 0.  1.
          1   -1    0    0  501    0  0.00000000000E+00 -0.00000000000E+00 -0.58264589277E+03  0.58264589279E+03  0.50400000000E-02 0. -1.
    8880022    1    1    2    0    0  0.23520687008E+03  0.19004939871E+03  0.10112071499E+04  0.10664767220E+04  0.15294330000E+03 0.  0.
    8880022    1    1    2    0    0 -0.23520687008E+03 -0.19004939871E+03 -0.50328570098E+03  0.60673651243E+03  0.15294330000E+03 0.  0.
<mgrwt>
<rscale>  0 0.33886974E+03</rscale>
<asrwt>0</asrwt>
<pdfrwt beam="1">  1        1 0.89637831E-01 0.33886974E+03</pdfrwt>
<pdfrwt beam="2">  1       -1 0.16777959E+00 0.33886974E+03</pdfrwt>
<totfact> 0.10174409E+01</totfact>
</mgrwt>
</event>
<event>
 4    1  0.1852677E-008  0.3641978E+03  0.7818608E-02  0.1056934E+00
          1   -1    0    0  501    0  0.00000000000E+00  0.00000000000E+00  0.41251139187E+03  0.41251139190E+03  0.50400000000E-02 0. -1.
         -1   -1    0    0    0  501 -0.00000000000E+00 -0.00000000000E+00 -0.10911853508E+04  0.10911853508E+04  0.50400000000E-02 0.  1.
    8880022    1    1    2    0    0 -0.13353483120E+03 -0.30235214531E+03 -0.97076749299E+03  0.10368363175E+04  0.15294330000E+03 0.  0.
    8880022    1    1    2    0    0  0.13353483120E+03  0.30235214531E+03  0.29209353407E+03  0.46686042516E+03  0.15294330000E+03 0.  0.
<mgrwt>
<rscale>  0 0.36419778E+03</rscale>
<asrwt>0</asrwt>
<pdfrwt beam="1">  1        1 0.63463292E-01 0.36419778E+03</pdfrwt>
<pdfrwt beam="2">  1       -1 0.16787467E+00 0.36419778E+03</pdfrwt>
<totfact> 0.16047648E+01</totfact>
</mgrwt>
</event>
<event>
 4    1  0.1852677E-008  0.1132366E+04  0.7818608E-02  0.9174208E-01
         -1   -1    0    0    0  501 -0.00000000000E+00  0.00000000000E+00  0.15431323232E+04  0.15431323232E+04  0.50400000000E-02 0.  1.
          1   -1    0    0  501    0  0.00000000000E+00 -0.00000000000E+00 -0.10434781628E+04  0.10434781628E+04  0.50400000000E-02 0. -1.
    8880022    1    1    2    0    0 -0.89357756976E+03 -0.67851272381E+03 -0.33385547181E+03  0.11805555974E+04  0.15294330000E+03 0.  0.
    8880022    1    1    2    0    0  0.89357756976E+03  0.67851272381E+03  0.83350963220E+03  0.14060548885E+04  0.15294330000E+03 0.  0.
<mgrwt>
<rscale>  0 0.11323657E+04</rscale>
<asrwt>0</asrwt>
<pdfrwt beam="1">  1        1 0.16053510E+00 0.11323657E+04</pdfrwt>
<pdfrwt beam="2">  1       -1 0.23740497E+00 0.11323657E+04</pdfrwt>
<totfact> 0.11682524E+00</totfact>
</mgrwt>
</event>
<event>
 4    1  0.1852677E-008  0.2493140E+03  0.7818608E-02  0.1113739E+00
          1   -1    0    0  501    0  0.00000000000E+00  0.00000000000E+00  0.16917382689E+04  0.16917382689E+04  0.50400000000E-02 0. -1.
         -1   -1    0    0    0  501 -0.00000000000E+00 -0.00000000000E+00 -0.25421922787E+03  0.25421922792E+03  0.50400000000E-02 0.  1.
    8880022    1    1    2    0    0  0.15375254589E+03  0.12298770434E+03  0.16186844274E+04  0.16377718856E+04  0.15294330000E+03 0. -1.
    8880022    1    1    2    0    0 -0.15375254589E+03 -0.12298770434E+03 -0.18116538632E+03  0.30818561128E+03  0.15294330000E+03 0.  0.
<mgrwt>
<rscale>  0 0.24931401E+03</rscale>
<asrwt>0</asrwt>
<pdfrwt beam="1">  1        1 0.26026741E+00 0.24931401E+03</pdfrwt>
<pdfrwt beam="2">  1       -1 0.39110652E-01 0.24931401E+03</pdfrwt>
<totfact> 0.35161482E+01</totfact>
</mgrwt>
</event>
<event>
 4    1  0.1852677E-008  0.1015338E+04  0.7818608E-02  0.9291880E-01
         -1   -1    0    0    0  501 -0.00000000000E+00  0.00000000000E+00  0.26246952026E+03  0.26246952031E+03  0.50400000000E-02 0.  1.
          1   -1    0    0  501    0  0.00000000000E+00 -0.00000000000E+00 -0.40824553887E+04  0.40824553887E+04  0.50400000000E-02 0. -1.
    8880022    1    1    2    0    0 -0.65273776103E+03  0.76253079375E+03 -0.14870698044E+04  0.18006354579E+04  0.15294330000E+03 0.  0.
    8880022    1    1    2    0    0  0.65273776103E+03 -0.76253079375E+03 -0.23329160640E+04  0.25442894511E+04  0.15294330000E+03 0.  0.
<mgrwt>
<rscale>  0 0.10153381E+04</rscale>
<asrwt>0</asrwt>
<pdfrwt beam="1">  1        1 0.62807002E+00 0.10153381E+04</pdfrwt>
<pdfrwt beam="2">  1       -1 0.40379929E-01 0.10153381E+04</pdfrwt>
<totfact> 0.51089510E-01</totfact>
</mgrwt>
</event>
<event>
 4    1  0.1852677E-008  0.2051346E+03  0.7818608E-02  0.1145478E+00
          1   -1    0    0  501    0  0.00000000000E+00  0.00000000000E+00  0.16174834265E+04  0.16174834265E+04  0.50400000000E-02 0. -1.
         -1   -1    0    0    0  501 -0.00000000000E+00 -0.00000000000E+00 -0.10680307915E+03  0.10680307927E+03  0.50400000000E-02 0.  1.
    8880022    1    1    2    0    0 -0.88959326437E+02  0.10380161056E+03  0.55168732402E+01  0.20520873524E+03  0.15294330000E+03 0.  0.
    8880022    1    1    2    0    0  0.88959326437E+02 -0.10380161056E+03  0.15051634741E+04  0.15190777706E+04  0.15294330000E+03 0.  0.
<mgrwt>
<rscale>  0 0.20513456E+03</rscale>
<asrwt>0</asrwt>
<pdfrwt beam="1">  1        1 0.24884361E+00 0.20513456E+03</pdfrwt>
<pdfrwt beam="2">  1       -1 0.16431243E-01 0.20513456E+03</pdfrwt>
<totfact> 0.17005307E+02</totfact>
</mgrwt>
</event>
<event>
 4    1  0.1852677E-008  0.1039022E+04  0.7818608E-02  0.9266752E-01
          1   -1    0    0  501    0  0.00000000000E+00  0.00000000000E+00  0.26296501937E+04  0.26296501937E+04  0.50400000000E-02 0. -1.
         -1   -1    0    0    0  501 -0.00000000000E+00 -0.00000000000E+00 -0.54448266772E+03  0.54448266774E+03  0.50400000000E-02 0.  1.
    8880022    1    1    2    0    0  0.93892605613E+03 -0.41784400506E+03  0.18297531776E+04  0.21041777718E+04  0.15294330000E+03 0.  0.
    8880022    1    1    2    0    0 -0.93892605613E+03  0.41784400506E+03  0.25541434838E+03  0.10699550896E+04  0.15294330000E+03 0.  0.
<mgrwt>
<rscale>  0 0.10390223E+04</rscale>
<asrwt>0</asrwt>
<pdfrwt beam="1">  1        1 0.40456156E+00 0.10390223E+04</pdfrwt>
<pdfrwt beam="2">  1       -1 0.83766566E-01 0.10390223E+04</pdfrwt>
<totfact> 0.15776734E+00</totfact>
</mgrwt>
</event>
<event>
 4    1  0.1852677E-008  0.3233068E+03  0.7818608E-02  0.1074137E+00
         -1   -1    0    0    0  501 -0.00000000000E+00  0.00000000000E+00  0.12026156122E+03  0.12026156133E+03  0.50400000000E-02 0.  1.
          1   -1    0    0  501    0  0.00000000000E+00 -0.00000000000E+00 -0.11255026545E+04  0.11255026545E+04  0.50400000000E-02 0. -1.
    8880022    1    1    2    0    0 -0.23465260714E+03  0.16147377481E+03 -0.79988146670E+03  0.86275004478E+03  0.15294330000E+03 0.  0.
    8880022    1    1    2    0    0  0.23465260714E+03 -0.16147377481E+03 -0.20535962658E+03  0.38301417106E+03  0.15294330000E+03 0.  0.
<mgrwt>
<rscale>  0 0.32330679E+03</rscale>
<asrwt>0</asrwt>
<pdfrwt beam="1">  1        1 0.17315425E+00 0.32330679E+03</pdfrwt>
<pdfrwt beam="2">  1       -1 0.18501779E-01 0.32330679E+03</pdfrwt>
<totfact> 0.29615293E+02</totfact>
</mgrwt>
</event>
<event>
 4    1  0.1852677E-008  0.3073606E+03  0.7818608E-02  0.1081618E+00
         -1   -1    0    0    0  501 -0.00000000000E+00  0.00000000000E+00  0.17097996364E+04  0.17097996364E+04  0.50400000000E-02 0.  1.
          1   -1    0    0  501    0  0.00000000000E+00 -0.00000000000E+00 -0.17918354468E+03  0.17918354475E+03  0.50400000000E-02 0. -1.
    8880022    1    1    2    0    0  0.12902164522E+03  0.23330733570E+03  0.15507954882E+04  0.15809608462E+04  0.15294330000E+03 0.  1.
    8880022    1    1    2    0    0 -0.12902164522E+03 -0.23330733570E+03 -0.20179396446E+02  0.30802233504E+03  0.15294330000E+03 0.  0.
<mgrwt>
<rscale>  0 0.30736062E+03</rscale>
<asrwt>0</asrwt>
<pdfrwt beam="1">  1        1 0.27566700E-01 0.30736062E+03</pdfrwt>
<pdfrwt beam="2">  1       -1 0.26304609E+00 0.30736062E+03</pdfrwt>
<totfact> 0.11049711E+01</totfact>
</mgrwt>
</event>
<event>
 4    1  0.1852677E-008  0.2726089E+03  0.7818608E-02  0.1099796E+00
          1   -1    0    0  501    0  0.00000000000E+00  0.00000000000E+00  0.18703530509E+04  0.18703530509E+04  0.50400000000E-02 0. -1.
         -1   -1    0    0    0  501 -0.00000000000E+00 -0.00000000000E+00 -0.45311326911E+03  0.45311326914E+03  0.50400000000E-02 0.  1.
    8880022    1    1    2    0    0 -0.13890513213E+03  0.17784629224E+03  0.18182484540E+04  0.18385709214E+04  0.15294330000E+03 0. -1.
    8880022    1    1    2    0    0  0.13890513213E+03 -0.17784629224E+03 -0.40100867225E+03  0.48489539865E+03  0.15294330000E+03 0.  0.
<mgrwt>
<rscale>  0 0.27260886E+03</rscale>
<asrwt>0</asrwt>
<pdfrwt beam="1">  1        1 0.28774662E+00 0.27260886E+03</pdfrwt>
<pdfrwt beam="2">  1       -1 0.69709734E-01 0.27260886E+03</pdfrwt>
<totfact> 0.90069719E+00</totfact>
</mgrwt>
</event>
<event>
 4    1  0.1852677E-008  0.6268371E+03  0.7818608E-02  0.9851240E-01
          1   -1    0    0  501    0  0.00000000000E+00  0.00000000000E+00  0.21184537563E+04  0.21184537563E+04  0.50400000000E-02 0. -1.
         -1   -1    0    0    0  501 -0.00000000000E+00 -0.00000000000E+00 -0.48172512051E+03  0.48172512054E+03  0.50400000000E-02 0.  1.
    8880022    1    1    2    0    0  0.24739186559E+03  0.55527505761E+03  0.18378972786E+04  0.19418525136E+04  0.15294330000E+03 0.  0.
    8880022    1    1    2    0    0 -0.24739186559E+03 -0.55527505761E+03 -0.20116864279E+03  0.65832636330E+03  0.15294330000E+03 0.  0.
<mgrwt>
<rscale>  0 0.62683712E+03</rscale>
<asrwt>0</asrwt>
<pdfrwt beam="1">  1        1 0.32591595E+00 0.62683712E+03</pdfrwt>
<pdfrwt beam="2">  1       -1 0.74111559E-01 0.62683712E+03</pdfrwt>
<totfact> 0.48913349E+00</totfact>
</mgrwt>
</event>
<event>
 4    1  0.1852677E-008  0.2255823E+03  0.7818608E-02  0.1129788E+00
         -1   -1    0    0    0  501 -0.00000000000E+00  0.00000000000E+00  0.18299932764E+03  0.18299932771E+03  0.50400000000E-02 0.  1.
          1   -1    0    0  501    0  0.00000000000E+00 -0.00000000000E+00 -0.11652076556E+04  0.11652076556E+04  0.50400000000E-02 0. -1.
    8880022    1    1    2    0    0  0.15568760374E+03 -0.57071062314E+02  0.97088216365E+02  0.24558809190E+03  0.15294330000E+03 0.  0.
    8880022    1    1    2    0    0 -0.15568760374E+03  0.57071062314E+02 -0.10792965443E+04  0.11026188914E+04  0.15294330000E+03 0. -1.
<mgrwt>
<rscale>  0 0.22558233E+03</rscale>
<asrwt>0</asrwt>
<pdfrwt beam="1">  1        1 0.17926271E+00 0.22558233E+03</pdfrwt>
<pdfrwt beam="2">  1       -1 0.28153743E-01 0.22558233E+03</pdfrwt>
<totfact> 0.14094264E+02</totfact>
</mgrwt>
</event>
<event>
 4    1  0.1852677E-008  0.4745388E+03  0.7818608E-02  0.1020647E+00
         -1   -1    0    0    0  501 -0.00000000000E+00  0.00000000000E+00  0.19911536135E+03  0.19911536142E+03  0.50400000000E-02 0.  1.
          1   -1    0    0  501    0  0.00000000000E+00 -0.00000000000E+00 -0.12245914954E+04  0.12245914954E+04  0.50400000000E-02 0. -1.
    8880022    1    1    2    0    0 -0.38906300687E+03 -0.22455601194E+03 -0.31587804179E+03  0.57005790593E+03  0.15294330000E+03 0.  0.
    8880022    1    1    2    0    0  0.38906300687E+03  0.22455601194E+03 -0.70959809227E+03  0.85364895090E+03  0.15294330000E+03 0.  0.
<mgrwt>
<rscale>  0 0.47453881E+03</rscale>
<asrwt>0</asrwt>
<pdfrwt beam="1">  1        1 0.18839869E+00 0.47453881E+03</pdfrwt>
<pdfrwt beam="2">  1       -1 0.30633133E-01 0.47453881E+03</pdfrwt>
<totfact> 0.10590767E+02</totfact>
</mgrwt>
</event>
<event>
 4    1  0.1852677E-008  0.5674005E+03  0.7818608E-02  0.9975448E-01
         -1   -1    0    0    0  501 -0.00000000000E+00  0.00000000000E+00  0.64833184129E+03  0.64833184131E+03  0.50400000000E-02 0.  1.
          1   -1    0    0  501    0  0.00000000000E+00 -0.00000000000E+00 -0.23909438229E+04  0.23909438229E+04  0.50400000000E-02 0. -1.
    8880022    1    1    2    0    0  0.48314820733E+03 -0.25518515668E+03  0.48135213832E+03  0.74407203181E+03  0.15294330000E+03 0.  0.
    8880022    1    1    2    0    0 -0.48314820733E+03  0.25518515668E+03 -0.22239641199E+04  0.22952036324E+04  0.15294330000E+03 0.  0.
<mgrwt>
<rscale>  0 0.56740048E+03</rscale>
<asrwt>0</asrwt>
<pdfrwt beam="1">  1        1 0.36783751E+00 0.56740048E+03</pdfrwt>
<pdfrwt beam="2">  1       -1 0.99743362E-01 0.56740048E+03</pdfrwt>
<totfact> 0.17159927E+00</totfact>
</mgrwt>
</event>
<event>
 4    1  0.1852677E-008  0.4103080E+03  0.7818608E-02  0.1040268E+00
         -1   -1    0    0    0  501 -0.00000000000E+00  0.00000000000E+00  0.14268720637E+04  0.14268720637E+04  0.50400000000E-02 0.  1.
          1   -1    0    0  501    0  0.00000000000E+00 -0.00000000000E+00 -0.26315577631E+03  0.26315577636E+03  0.50400000000E-02 0. -1.
    8880022    1    1    2    0    0 -0.37600343405E+03  0.59853465857E+02  0.12094736767E+04  0.12771762789E+04  0.15294330000E+03 0.  0.
    8880022    1    1    2    0    0  0.37600343405E+03 -0.59853465857E+02 -0.45757389364E+02  0.41285156109E+03  0.15294330000E+03 0.  0.
<mgrwt>
<rscale>  0 0.41030802E+03</rscale>
<asrwt>0</asrwt>
<pdfrwt beam="1">  1        1 0.40485503E-01 0.41030802E+03</pdfrwt>
<pdfrwt beam="2">  1       -1 0.21951878E+00 0.41030802E+03</pdfrwt>
<totfact> 0.12528937E+01</totfact>
</mgrwt>
</event>
<event>
 4    1  0.1852677E-008  0.7506174E+03  0.7818608E-02  0.9634382E-01
         -1   -1    0    0    0  501 -0.00000000000E+00  0.00000000000E+00  0.71130418871E+03  0.71130418873E+03  0.50400000000E-02 0.  1.
          1   -1    0    0  501    0  0.00000000000E+00 -0.00000000000E+00 -0.21293599082E+04  0.21293599082E+04  0.50400000000E-02 0. -1.
    8880022    1    1    2    0    0  0.27946062642E+03 -0.67965915123E+03  0.41654266700E+03  0.85844874630E+03  0.15294330000E+03 0.  0.
    8880022    1    1    2    0    0 -0.27946062642E+03  0.67965915123E+03 -0.18345983865E+04  0.19822153506E+04  0.15294330000E+03 0.  0.
<mgrwt>
<rscale>  0 0.75061738E+03</rscale>
<asrwt>0</asrwt>
<pdfrwt beam="1">  1        1 0.32759383E+00 0.75061738E+03</pdfrwt>
<pdfrwt beam="2">  1       -1 0.10943141E+00 0.75061738E+03</pdfrwt>
<totfact> 0.19871945E+00</totfact>
</mgrwt>
</event>
<event>
 4    1  0.1852677E-008  0.6667488E+03  0.7818608E-02  0.9775849E-01
          1   -1    0    0  501    0  0.00000000000E+00  0.00000000000E+00  0.82226701437E+03  0.82226701438E+03  0.50400000000E-02 0. -1.
         -1   -1    0    0    0  501 -0.00000000000E+00 -0.00000000000E+00 -0.11370647370E+04  0.11370647370E+04  0.50400000000E-02 0.  1.
    8880022    1    1    2    0    0  0.61239470223E+03 -0.21479071792E+03 -0.86691396083E+03  0.10936607300E+04  0.15294330000E+03 0.  0.
    8880022    1    1    2    0    0 -0.61239470223E+03  0.21479071792E+03  0.55211623819E+03  0.86567102141E+03  0.15294330000E+03 0.  0.
<mgrwt>
<rscale>  0 0.66674881E+03</rscale>
<asrwt>0</asrwt>
<pdfrwt beam="1">  1        1 0.12650262E+00 0.66674881E+03</pdfrwt>
<pdfrwt beam="2">  1       -1 0.17493304E+00 0.66674881E+03</pdfrwt>
<totfact> 0.50280208E+00</totfact>
</mgrwt>
</event>
<event>
 4    1  0.1852677E-008  0.6781179E+03  0.7818608E-02  0.9755403E-01
         -1   -1    0    0    0  501 -0.00000000000E+00  0.00000000000E+00  0.71963517456E+03  0.71963517458E+03  0.50400000000E-02 0.  1.
          1   -1    0    0  501    0  0.00000000000E+00 -0.00000000000E+00 -0.86497660961E+03  0.86497660962E+03  0.50400000000E-02 0. -1.
    8880022    1    1    2    0    0 -0.20004078145E+03 -0.62963156469E+03 -0.47764407878E+03  0.82945026403E+03  0.15294330000E+03 0. -1.
    8880022    1    1    2    0    0  0.20004078145E+03  0.62963156469E+03  0.33230264373E+03  0.75516152017E+03  0.15294330000E+03 0.  0.
<mgrwt>
<rscale>  0 0.67811789E+03</rscale>
<asrwt>0</asrwt>
<pdfrwt beam="1">  1        1 0.13307332E+00 0.67811789E+03</pdfrwt>
<pdfrwt beam="2">  1       -1 0.11071310E+00 0.67811789E+03</pdfrwt>
<totfact> 0.15194835E+01</totfact>
</mgrwt>
</event>
<event>
 4    1  0.1852677E-008  0.3938598E+03  0.7818608E-02  0.1045927E+00
          1   -1    0    0  501    0  0.00000000000E+00  0.00000000000E+00  0.17227291728E+04  0.17227291728E+04  0.50400000000E-02 0. -1.
         -1   -1    0    0    0  501 -0.00000000000E+00 -0.00000000000E+00 -0.33009004419E+03  0.33009004423E+03  0.50400000000E-02 0.  1.
    8880022    1    1    2    0    0  0.28420259769E+03  0.22574927570E+03 -0.17896572744E+03  0.43261326451E+03  0.15294330000E+03 0.  0.
    8880022    1    1    2    0    0 -0.28420259769E+03 -0.22574927570E+03  0.15716048561E+04  0.16202059526E+04  0.15294330000E+03 0.  0.
<mgrwt>
<rscale>  0 0.39385975E+03</rscale>
<asrwt>0</asrwt>
<pdfrwt beam="1">  1        1 0.26503525E+00 0.39385975E+03</pdfrwt>
<pdfrwt beam="2">  1       -1 0.50783084E-01 0.39385975E+03</pdfrwt>
<totfact> 0.19897970E+01</totfact>
</mgrwt>
</event>
<event>
 4    1  0.2026836E-008  0.7348028E+03  0.7818608E-02  0.9659499E-01
         -1   -1    0    0    0  501 -0.00000000000E+00  0.00000000000E+00  0.89053500399E+03  0.89053500400E+03  0.50400000000E-02 0.  1.
          1   -1    0    0  501    0  0.00000000000E+00 -0.00000000000E+00 -0.18425163089E+04  0.18425163089E+04  0.50400000000E-02 0. -1.
    8880022    1    1    2    0    0 -0.23769011640E+03 -0.67826756755E+03  0.64334055288E+03  0.97663821583E+03  0.15294330000E+03 0.  1.
    8880022    1    1    2    0    0  0.23769011640E+03  0.67826756755E+03 -0.15953218578E+04  0.17564130971E+04  0.15294330000E+03 0.  0.
<mgrwt>
<rscale>  0 0.73480279E+03</rscale>
<asrwt>0</asrwt>
<pdfrwt beam="1">  1        1 0.28346405E+00 0.73480279E+03</pdfrwt>
<pdfrwt beam="2">  1       -1 0.13700539E+00 0.73480279E+03</pdfrwt>
<totfact> 0.17846817E+00</totfact>
</mgrwt>
</event>
<event>
 4    1  0.1852677E-008  0.7415860E+03  0.7818608E-02  0.9648644E-01
         -1   -1    0    0    0  501 -0.00000000000E+00  0.00000000000E+00  0.69490383894E+03  0.69490383896E+03  0.50400000000E-02 0.  1.
          1   -1    0    0  501    0  0.00000000000E+00 -0.00000000000E+00 -0.12256001855E+04  0.12256001855E+04  0.50400000000E-02 0. -1.
    8880022    1    1    2    0    0 -0.59925831996E+03 -0.40920363666E+03 -0.83689751438E+03  0.11181892742E+04  0.15294330000E+03 0.  0.
    8880022    1    1    2    0    0  0.59925831996E+03  0.40920363666E+03  0.30620116785E+03  0.80231475027E+03  0.15294330000E+03 0.  0.
<mgrwt>
<rscale>  0 0.74158601E+03</rscale>
<asrwt>0</asrwt>
<pdfrwt beam="1">  1        1 0.18855387E+00 0.74158601E+03</pdfrwt>
<pdfrwt beam="2">  1       -1 0.10690828E+00 0.74158601E+03</pdfrwt>
<totfact> 0.86633106E+00</totfact>
</mgrwt>
</event>
<event>
 4    1  0.1852677E-008  0.5389571E+03  0.7818608E-02  0.1004083E+00
         -1   -1    0    0    0  501 -0.00000000000E+00  0.00000000000E+00  0.83557181724E+03  0.83557181725E+03  0.50400000000E-02 0.  1.
          1   -1    0    0  501    0  0.00000000000E+00 -0.00000000000E+00 -0.88700141131E+03  0.88700141132E+03  0.50400000000E-02 0. -1.
    8880022    1    1    2    0    0  0.34946539124E+03  0.38073226640E+03 -0.69734021454E+03  0.88133883733E+03  0.15294330000E+03 0.  0.
    8880022    1    1    2    0    0 -0.34946539124E+03 -0.38073226640E+03  0.64591062047E+03  0.84123439124E+03  0.15294330000E+03 0.  1.
<mgrwt>
<rscale>  0 0.53895711E+03</rscale>
<asrwt>0</asrwt>
<pdfrwt beam="1">  1        1 0.13646176E+00 0.53895711E+03</pdfrwt>
<pdfrwt beam="2">  1       -1 0.12854951E+00 0.53895711E+03</pdfrwt>
<totfact> 0.10383321E+01</totfact>
</mgrwt>
</event>
<event>
 4    1  0.1852677E-008  0.9985886E+03  0.7818608E-02  0.9310094E-01
          1   -1    0    0  501    0  0.00000000000E+00  0.00000000000E+00  0.22904801258E+04  0.22904801258E+04  0.50400000000E-02 0. -1.
         -1   -1    0    0    0  501 -0.00000000000E+00 -0.00000000000E+00 -0.78895786062E+03  0.78895786063E+03  0.50400000000E-02 0.  1.
    8880022    1    1    2    0    0  0.56744862208E+03 -0.80733486636E+03 -0.28002962763E+03  0.10371093339E+04  0.15294330000E+03 0.  0.
    8880022    1    1    2    0    0 -0.56744862208E+03  0.80733486636E+03  0.17815518928E+04  0.20423286525E+04  0.15294330000E+03 0.  0.
<mgrwt>
<rscale>  0 0.99858859E+03</rscale>
<asrwt>0</asrwt>
<pdfrwt beam="1">  1        1 0.35238155E+00 0.99858859E+03</pdfrwt>
<pdfrwt beam="2">  1       -1 0.12137813E+00 0.99858859E+03</pdfrwt>
<totfact> 0.11546619E+00</totfact>
</mgrwt>
</event>
<event>
 4    1  0.1852677E-008  0.9029054E+03  0.7818608E-02  0.9421957E-01
         -1   -1    0    0    0  501 -0.00000000000E+00  0.00000000000E+00  0.57009034625E+03  0.57009034627E+03  0.50400000000E-02 0.  1.
          1   -1    0    0  501    0  0.00000000000E+00 -0.00000000000E+00 -0.31562614972E+04  0.31562614972E+04  0.50400000000E-02 0. -1.
    8880022    1    1    2    0    0  0.85589886234E+03  0.24348231035E+03 -0.26709887169E+04  0.28194713825E+04  0.15294330000E+03 0.  0.
    8880022    1    1    2    0    0 -0.85589886234E+03 -0.24348231035E+03  0.84817565923E+02  0.90688046099E+03  0.15294330000E+03 0.  0.
<mgrwt>
<rscale>  0 0.90290539E+03</rscale>
<asrwt>0</asrwt>
<pdfrwt beam="1">  1        1 0.48557868E+00 0.90290539E+03</pdfrwt>
<pdfrwt beam="2">  1       -1 0.87706209E-01 0.90290539E+03</pdfrwt>
<totfact> 0.61537603E-01</totfact>
</mgrwt>
</event>
<event>
 4    1  0.1852677E-008  0.8843774E+03  0.7818608E-02  0.9445324E-01
          1   -1    0    0  501    0  0.00000000000E+00  0.00000000000E+00  0.17950174016E+04  0.17950174016E+04  0.50400000000E-02 0. -1.
         -1   -1    0    0    0  501 -0.00000000000E+00 -0.00000000000E+00 -0.69492848072E+03  0.69492848074E+03  0.50400000000E-02 0.  1.
    8880022    1    1    2    0    0 -0.36068717157E+03 -0.79286598520E+03  0.13103973795E+04  0.15809062754E+04  0.15294330000E+03 0.  0.
    8880022    1    1    2    0    0  0.36068717157E+03  0.79286598520E+03 -0.21030845867E+03  0.90903960696E+03  0.15294330000E+03 0.  0.
<mgrwt>
<rscale>  0 0.88437739E+03</rscale>
<asrwt>0</asrwt>
<pdfrwt beam="1">  1        1 0.27615652E+00 0.88437739E+03</pdfrwt>
<pdfrwt beam="2">  1       -1 0.10691207E+00 0.88437739E+03</pdfrwt>
<totfact> 0.34355193E+00</totfact>
</mgrwt>
</event>
<event>
 4    1  0.1852677E-008  0.7438584E+03  0.7818608E-02  0.9645035E-01
          1   -1    0    0  501    0  0.00000000000E+00  0.00000000000E+00  0.25313779950E+04  0.25313779950E+04  0.50400000000E-02 0. -1.
         -1   -1    0    0    0  501 -0.00000000000E+00 -0.00000000000E+00 -0.83794862561E+03  0.83794862563E+03  0.50400000000E-02 0.  1.
    8880022    1    1    2    0    0  0.60954831924E+03 -0.39797544825E+03  0.22950753263E+04  0.24126118662E+04  0.15294330000E+03 0.  0.
    8880022    1    1    2    0    0 -0.60954831924E+03  0.39797544825E+03 -0.60164595685E+03  0.95671475441E+03  0.15294330000E+03 0.  0.
<mgrwt>
<rscale>  0 0.74385836E+03</rscale>
<asrwt>0</asrwt>
<pdfrwt beam="1">  1        1 0.38944277E+00 0.74385836E+03</pdfrwt>
<pdfrwt beam="2">  1       -1 0.12891517E+00 0.74385836E+03</pdfrwt>
<totfact> 0.71514819E-01</totfact>
</mgrwt>
</event>
<event>
 4    1  0.2071329E-008  0.5771796E+03  0.7818608E-02  0.9953916E-01
          1   -1    0    0  501    0  0.00000000000E+00  0.00000000000E+00  0.86493564116E+03  0.86493564117E+03  0.50400000000E-02 0. -1.
         -1   -1    0    0    0  501 -0.00000000000E+00 -0.00000000000E+00 -0.17042791437E+04  0.17042791437E+04  0.50400000000E-02 0.  1.
    8880022    1    1    2    0    0  0.15353508229E+03 -0.53495014749E+03  0.71049492345E+03  0.91539028346E+03  0.15294330000E+03 0.  0.
    8880022    1    1    2    0    0 -0.15353508229E+03  0.53495014749E+03 -0.15498384260E+04  0.16538245014E+04  0.15294330000E+03 0.  0.
<mgrwt>
<rscale>  0 0.57717964E+03</rscale>
<asrwt>0</asrwt>
<pdfrwt beam="1">  1        1 0.13306702E+00 0.57717964E+03</pdfrwt>
<pdfrwt beam="2">  1       -1 0.26219679E+00 0.57717964E+03</pdfrwt>
<totfact> 0.12337006E+00</totfact>
</mgrwt>
</event>
<event>
 4    1  0.1852677E-008  0.7726840E+03  0.7818608E-02  0.9600420E-01
         -1   -1    0    0    0  501 -0.00000000000E+00  0.00000000000E+00  0.10456621504E+04  0.10456621504E+04  0.50400000000E-02 0.  1.
          1   -1    0    0  501    0  0.00000000000E+00 -0.00000000000E+00 -0.13922929263E+04  0.13922929263E+04  0.50400000000E-02 0. -1.
    8880022    1    1    2    0    0  0.55024598407E+03  0.52045961229E+03 -0.11095564284E+04  0.13520931816E+04  0.15294330000E+03 0.  0.
    8880022    1    1    2    0    0 -0.55024598407E+03 -0.52045961229E+03  0.76292565246E+03  0.10858618951E+04  0.15294330000E+03 0.  0.
<mgrwt>
<rscale>  0 0.77268396E+03</rscale>
<asrwt>0</asrwt>
<pdfrwt beam="1">  1        1 0.21419891E+00 0.77268396E+03</pdfrwt>
<pdfrwt beam="2">  1       -1 0.16087110E+00 0.77268396E+03</pdfrwt>
<totfact> 0.23305108E+00</totfact>
</mgrwt>
</event>
<event>
 4    1  0.1852677E-008  0.5850742E+03  0.7818608E-02  0.9936865E-01
          1   -1    0    0  501    0  0.00000000000E+00  0.00000000000E+00  0.46116240889E+03  0.46116240892E+03  0.50400000000E-02 0. -1.
         -1   -1    0    0    0  501 -0.00000000000E+00 -0.00000000000E+00 -0.13130099668E+04  0.13130099668E+04  0.50400000000E-02 0.  1.
    8880022    1    1    2    0    0 -0.43405893775E+02  0.56305963455E+03  0.15892951851E+03  0.60627590134E+03  0.15294330000E+03 0.  0.
    8880022    1    1    2    0    0  0.43405893775E+02 -0.56305963455E+03 -0.10107770764E+04  0.11678964744E+04  0.15294330000E+03 0.  0.
<mgrwt>
<rscale>  0 0.58507425E+03</rscale>
<asrwt>0</asrwt>
<pdfrwt beam="1">  1        1 0.70948064E-01 0.58507425E+03</pdfrwt>
<pdfrwt beam="2">  1       -1 0.20200153E+00 0.58507425E+03</pdfrwt>
<totfact> 0.76486381E+00</totfact>
</mgrwt>
</event>
<event>
 4    1  0.1852677E-008  0.3629643E+03  0.7818608E-02  0.1057416E+00
         -1   -1    0    0    0  501 -0.00000000000E+00  0.00000000000E+00  0.26187447790E+03  0.26187447795E+03  0.50400000000E-02 0.  1.
          1   -1    0    0  501    0  0.00000000000E+00 -0.00000000000E+00 -0.98608292292E+03  0.98608292293E+03  0.50400000000E-02 0. -1.
    8880022    1    1    2    0    0 -0.29711192984E+03 -0.14168952075E+03  0.74601815496E+02  0.37055161993E+03  0.15294330000E+03 0.  0.
    8880022    1    1    2    0    0  0.29711192984E+03  0.14168952075E+03 -0.79881026051E+03  0.87740578095E+03  0.15294330000E+03 0.  0.
<mgrwt>
<rscale>  0 0.36296428E+03</rscale>
<asrwt>0</asrwt>
<pdfrwt beam="1">  1        1 0.15170506E+00 0.36296428E+03</pdfrwt>
<pdfrwt beam="2">  1       -1 0.40288382E-01 0.36296428E+03</pdfrwt>
<totfact> 0.99391491E+01</totfact>
</mgrwt>
</event>
<event>
 4    1  0.2246285E-008  0.3709172E+03  0.7818608E-02  0.1054343E+00
          1   -1    0    0  501    0  0.00000000000E+00  0.00000000000E+00  0.27102582737E+04  0.27102582737E+04  0.50400000000E-02 0. -1.
         -1   -1    0    0    0  501 -0.00000000000E+00 -0.00000000000E+00 -0.92802063370E+03  0.92802063371E+03  0.50400000000E-02 0.  1.
    8880022    1    1    2    0    0  0.14596880858E+03  0.30476386182E+03  0.26598053648E+04  0.26855435458E+04  0.15294330000E+03 0.  0.
    8880022    1    1    2    0    0 -0.14596880858E+03 -0.30476386182E+03 -0.87756772485E+03  0.95273536161E+03  0.15294330000E+03 0.  1.
<mgrwt>
<rscale>  0 0.37091718E+03</rscale>
<asrwt>0</asrwt>
<pdfrwt beam="1">  1        1 0.41696281E+00 0.37091718E+03</pdfrwt>
<pdfrwt beam="2">  1       -1 0.14277241E+00 0.37091718E+03</pdfrwt>
<totfact> 0.47271048E-01</totfact>
</mgrwt>
</event>
<event>
 4    1  0.1852677E-008  0.7423332E+03  0.7818608E-02  0.9647456E-01
          1   -1    0    0  501    0  0.00000000000E+00  0.00000000000E+00  0.22037659132E+04  0.22037659132E+04  0.50400000000E-02 0. -1.
         -1   -1    0    0    0  501 -0.00000000000E+00 -0.00000000000E+00 -0.53934117342E+03  0.53934117344E+03  0.50400000000E-02 0.  1.
    8880022    1    1    2    0    0  0.26546171396E+03  0.67616348022E+03 -0.17227897611E+03  0.76206211832E+03  0.15294330000E+03 0.  0.
    8880022    1    1    2    0    0 -0.26546171396E+03 -0.67616348022E+03  0.18367037158E+04  0.19810449683E+04  0.15294330000E+03 0.  0.
<mgrwt>
<rscale>  0 0.74233323E+03</rscale>
<asrwt>0</asrwt>
<pdfrwt beam="1">  1        1 0.33904091E+00 0.74233323E+03</pdfrwt>
<pdfrwt beam="2">  1       -1 0.82975566E-01 0.74233323E+03</pdfrwt>
<totfact> 0.33025001E+00</totfact>
</mgrwt>
</event>
<event>
 4    1  0.1852677E-008  0.5823441E+03  0.7818608E-02  0.9942729E-01
          1   -1    0    0  501    0  0.00000000000E+00  0.00000000000E+00  0.72691163070E+03  0.72691163071E+03  0.50400000000E-02 0. -1.
         -1   -1    0    0    0  501 -0.00000000000E+00 -0.00000000000E+00 -0.11264068968E+04  0.11264068968E+04  0.50400000000E-02 0.  1.
    8880022    1    1    2    0    0  0.46247301539E+03  0.31914222117E+03  0.50951080111E+03  0.77377384084E+03  0.15294330000E+03 0.  0.
    8880022    1    1    2    0    0 -0.46247301539E+03 -0.31914222117E+03 -0.90900606717E+03  0.10795446866E+04  0.15294330000E+03 0.  0.
<mgrwt>
<rscale>  0 0.58234414E+03</rscale>
<asrwt>0</asrwt>
<pdfrwt beam="1">  1        1 0.11183256E+00 0.58234414E+03</pdfrwt>
<pdfrwt beam="2">  1       -1 0.17329337E+00 0.58234414E+03</pdfrwt>
<totfact> 0.63606800E+00</totfact>
</mgrwt>
</event>
<event>
 4    1  0.1852677E-008  0.1262140E+04  0.7818608E-02  0.9060140E-01
         -1   -1    0    0    0  501 -0.00000000000E+00  0.00000000000E+00  0.11713335447E+04  0.11713335447E+04  0.50400000000E-02 0.  1.
          1   -1    0    0  501    0  0.00000000000E+00 -0.00000000000E+00 -0.19786590696E+04  0.19786590696E+04  0.50400000000E-02 0. -1.
    8880022    1    1    2    0    0 -0.12053286174E+04  0.34174222572E+03  0.47703092569E+03  0.13492794306E+04  0.15294330000E+03 0.  0.
    8880022    1    1    2    0    0  0.12053286174E+04 -0.34174222572E+03 -0.12843564506E+04  0.18007131837E+04  0.15294330000E+03 0.  0.
<mgrwt>
<rscale>  0 0.12621396E+04</rscale>
<asrwt>0</asrwt>
<pdfrwt beam="1">  1        1 0.30440909E+00 0.12621396E+04</pdfrwt>
<pdfrwt beam="2">  1       -1 0.18020516E+00 0.12621396E+04</pdfrwt>
<totfact> 0.62218971E-01</totfact>
</mgrwt>
</event>
<event>
 4    1  0.1852677E-008  0.1125420E+04  0.7818608E-02  0.9180764E-01
         -1   -1    0    0    0  501 -0.00000000000E+00  0.00000000000E+00  0.11029716703E+04  0.11029716703E+04  0.50400000000E-02 0.  1.
          1   -1    0    0  501    0  0.00000000000E+00 -0.00000000000E+00 -0.14280925228E+04  0.14280925228E+04  0.50400000000E-02 0. -1.
    8880022    1    1    2    0    0 -0.34877696626E+02 -0.11144335252E+04  0.39757555026E+03  0.11935813785E+04  0.15294330000E+03 0.  0.
    8880022    1    1    2    0    0  0.34877696626E+02  0.11144335252E+04 -0.72269640280E+03  0.13374828147E+04  0.15294330000E+03 0.  0.
<mgrwt>
<rscale>  0 0.11254200E+04</rscale>
<asrwt>0</asrwt>
<pdfrwt beam="1">  1        1 0.21970654E+00 0.11254200E+04</pdfrwt>
<pdfrwt beam="2">  1       -1 0.16968795E+00 0.11254200E+04</pdfrwt>
<totfact> 0.17961866E+00</totfact>
</mgrwt>
</event>
<event>
 4    1  0.1852677E-008  0.4371716E+03  0.7818608E-02  0.1031618E+00
          1   -1    0    0  501    0  0.00000000000E+00  0.00000000000E+00  0.19221323476E+04  0.19221323476E+04  0.50400000000E-02 0. -1.
         -1   -1    0    0    0  501 -0.00000000000E+00 -0.00000000000E+00 -0.22998821151E+03  0.22998821156E+03  0.50400000000E-02 0.  1.
    8880022    1    1    2    0    0 -0.35270775916E+03  0.20814559495E+03  0.16568178720E+04  0.17135239905E+04  0.15294330000E+03 0.  0.
    8880022    1    1    2    0    0  0.35270775916E+03 -0.20814559495E+03  0.35326264069E+02  0.43859656864E+03  0.15294330000E+03 0.  1.
<mgrwt>
<rscale>  0 0.43717160E+03</rscale>
<asrwt>0</asrwt>
<pdfrwt beam="1">  1        1 0.29571268E+00 0.43717160E+03</pdfrwt>
<pdfrwt beam="2">  1       -1 0.35382800E-01 0.43717160E+03</pdfrwt>
<totfact> 0.28049321E+01</totfact>
</mgrwt>
</event>
<event>
 4    1  0.1852677E-008  0.4198234E+03  0.7818608E-02  0.1037124E+00
          1   -1    0    0  501    0  0.00000000000E+00  0.00000000000E+00  0.24208942240E+04  0.24208942240E+04  0.50400000000E-02 0. -1.
         -1   -1    0    0    0  501 -0.00000000000E+00 -0.00000000000E+00 -0.76386821206E+03  0.76386821208E+03  0.50400000000E-02 0.  1.
    8880022    1    1    2    0    0 -0.17775831180E+03  0.34822695255E+03 -0.68608336759E+03  0.80433952296E+03  0.15294330000E+03 0.  0.
    8880022    1    1    2    0    0  0.17775831180E+03 -0.34822695255E+03  0.23431093795E+04  0.23804229131E+04  0.15294330000E+03 0. -1.
<mgrwt>
<rscale>  0 0.41982339E+03</rscale>
<asrwt>0</asrwt>
<pdfrwt beam="1">  1        1 0.37244526E+00 0.41982339E+03</pdfrwt>
<pdfrwt beam="2">  1       -1 0.11751819E+00 0.41982339E+03</pdfrwt>
<totfact> 0.11758555E+00</totfact>
</mgrwt>
</event>
<event>
 4    1  0.1852677E-008  0.1823794E+03  0.7818608E-02  0.1165520E+00
          1   -1    0    0  501    0  0.00000000000E+00  0.00000000000E+00  0.27652293885E+03  0.27652293889E+03  0.50400000000E-02 0. -1.
         -1   -1    0    0    0  501 -0.00000000000E+00 -0.00000000000E+00 -0.59234337219E+03  0.59234337221E+03  0.50400000000E-02 0.  1.
    8880022    1    1    2    0    0 -0.83956253399E+02  0.53121915033E+02 -0.54573263879E+03  0.57540103962E+03  0.15294330000E+03 0.  1.
    8880022    1    1    2    0    0  0.83956253399E+02 -0.53121915033E+02  0.22991220544E+03  0.29346527148E+03  0.15294330000E+03 0.  0.
<mgrwt>
<rscale>  0 0.18237939E+03</rscale>
<asrwt>0</asrwt>
<pdfrwt beam="1">  1        1 0.42541991E-01 0.18237939E+03</pdfrwt>
<pdfrwt beam="2">  1       -1 0.91129750E-01 0.18237939E+03</pdfrwt>
<totfact> 0.12311784E+02</totfact>
</mgrwt>
</event>
<event>
 4    1  0.1852677E-008  0.1874893E+03  0.7818608E-02  0.1160746E+00
          1   -1    0    0  501    0  0.00000000000E+00  0.00000000000E+00  0.22274421106E+04  0.22274421106E+04  0.50400000000E-02 0. -1.
         -1   -1    0    0    0  501 -0.00000000000E+00 -0.00000000000E+00 -0.56809348075E+02  0.56809348298E+02  0.50400000000E-02 0.  1.
    8880022    1    1    2    0    0 -0.21395223072E+02 -0.10631472604E+03  0.11470867756E+03  0.21979606517E+03  0.15294330000E+03 0.  1.
    8880022    1    1    2    0    0  0.21395223072E+02  0.10631472604E+03  0.20559240850E+04  0.20644553937E+04  0.15294330000E+03 0.  0.
<mgrwt>
<rscale>  0 0.18748928E+03</rscale>
<asrwt>0</asrwt>
<pdfrwt beam="1">  1        1 0.34268333E+00 0.18748928E+03</pdfrwt>
<pdfrwt beam="2">  1       -1 0.87399016E-02 0.18748928E+03</pdfrwt>
<totfact> 0.18485019E+02</totfact>
</mgrwt>
</event>
<event>
 4    1  0.1852677E-008  0.8551738E+03  0.7818608E-02  0.9483419E-01
         -1   -1    0    0    0  501 -0.00000000000E+00  0.00000000000E+00  0.66188921584E+03  0.66188921586E+03  0.50400000000E-02 0.  1.
          1   -1    0    0  501    0  0.00000000000E+00 -0.00000000000E+00 -0.13324923683E+04  0.13324923683E+04  0.50400000000E-02 0. -1.
    8880022    1    1    2    0    0  0.62936803386E+03  0.55841416425E+03  0.76818382341E+02  0.85861703789E+03  0.15294330000E+03 0.  0.
    8880022    1    1    2    0    0 -0.62936803386E+03 -0.55841416425E+03 -0.74742153481E+03  0.11357645463E+04  0.15294330000E+03 0.  0.
<mgrwt>
<rscale>  0 0.85517376E+03</rscale>
<asrwt>0</asrwt>
<pdfrwt beam="1">  1        1 0.20499883E+00 0.85517376E+03</pdfrwt>
<pdfrwt beam="2">  1       -1 0.10182911E+00 0.85517376E+03</pdfrwt>
<totfact> 0.80118604E+00</totfact>
</mgrwt>
</event>
<event>
 4    1  0.1852677E-008  0.3905307E+03  0.7818608E-02  0.1047109E+00
          1   -1    0    0  501    0  0.00000000000E+00  0.00000000000E+00  0.21036516930E+03  0.21036516936E+03  0.50400000000E-02 0. -1.
         -1   -1    0    0    0  501 -0.00000000000E+00 -0.00000000000E+00 -0.13295415745E+04  0.13295415745E+04  0.50400000000E-02 0.  1.
    8880022    1    1    2    0    0  0.35745658723E+03  0.36706276648E+02 -0.10787795659E+04  0.11472922763E+04  0.15294330000E+03 0.  0.
    8880022    1    1    2    0    0 -0.35745658723E+03 -0.36706276648E+02 -0.40396839310E+02  0.39261446756E+03  0.15294330000E+03 0. -1.
<mgrwt>
<rscale>  0 0.39053068E+03</rscale>
<asrwt>0</asrwt>
<pdfrwt beam="1">  1        1 0.32363873E-01 0.39053068E+03</pdfrwt>
<pdfrwt beam="2">  1       -1 0.20454485E+00 0.39053068E+03</pdfrwt>
<totfact> 0.21029888E+01</totfact>
</mgrwt>
</event>
<event>
 4    1  0.1852677E-008  0.4245263E+03  0.7818608E-02  0.1035603E+00
          1   -1    0    0  501    0  0.00000000000E+00  0.00000000000E+00  0.92883768003E+03  0.92883768004E+03  0.50400000000E-02 0. -1.
         -1   -1    0    0    0  501 -0.00000000000E+00 -0.00000000000E+00 -0.31434506763E+03  0.31434506767E+03  0.50400000000E-02 0.  1.
    8880022    1    1    2    0    0 -0.24111153573E+03 -0.31415939768E+03 -0.77311222464E+02  0.43150849116E+03  0.15294330000E+03 0.  0.
    8880022    1    1    2    0    0  0.24111153573E+03  0.31415939768E+03  0.69180383486E+03  0.81167425655E+03  0.15294330000E+03 0.  0.
<mgrwt>
<rscale>  0 0.42452627E+03</rscale>
<asrwt>0</asrwt>
<pdfrwt beam="1">  1        1 0.14289810E+00 0.42452627E+03</pdfrwt>
<pdfrwt beam="2">  1       -1 0.48360780E-01 0.42452627E+03</pdfrwt>
<totfact> 0.78074021E+01</totfact>
</mgrwt>
</event>
<event>
 4    1  0.1852677E-008  0.1559990E+03  0.7818608E-02  0.1193289E+00
          1   -1    0    0  501    0  0.00000000000E+00  0.00000000000E+00  0.61616021984E+03  0.61616021986E+03  0.50400000000E-02 0. -1.
         -1   -1    0    0    0  501 -0.00000000000E+00 -0.00000000000E+00 -0.97768586909E+02  0.97768587039E+02  0.50400000000E-02 0.  1.
    8880022    1    1    2    0    0  0.13159251246E+02 -0.27764586906E+02  0.53478263162E+03  0.55707104958E+03  0.15294330000E+03 0. -1.
    8880022    1    1    2    0    0 -0.13159251246E+02  0.27764586906E+02 -0.16390998689E+02  0.15685775732E+03  0.15294330000E+03 0.  0.
<mgrwt>
<rscale>  0 0.15599901E+03</rscale>
<asrwt>0</asrwt>
<pdfrwt beam="1">  1        1 0.94793880E-01 0.15599901E+03</pdfrwt>
<pdfrwt beam="2">  1       -1 0.15041321E-01 0.15599901E+03</pdfrwt>
<totfact> 0.10830080E+03</totfact>
</mgrwt>
</event>
<event>
 4    1  0.1971992E-008  0.8094354E+03  0.7818608E-02  0.9546459E-01
          1   -1    0    0  501    0  0.00000000000E+00  0.00000000000E+00  0.24732275719E+04  0.24732275719E+04  0.50400000000E-02 0. -1.
         -1   -1    0    0    0  501 -0.00000000000E+00 -0.00000000000E+00 -0.94648693700E+03  0.94648693701E+03  0.50400000000E-02 0.  1.
    8880022    1    1    2    0    0 -0.79221562354E+03  0.64717460082E+02 -0.68760363201E+03  0.10620660768E+04  0.15294330000E+03 0.  0.
    8880022    1    1    2    0    0  0.79221562354E+03 -0.64717460082E+02  0.22143442670E+04  0.23576484321E+04  0.15294330000E+03 0.  0.
<mgrwt>
<rscale>  0 0.80943536E+03</rscale>
<asrwt>0</asrwt>
<pdfrwt beam="1">  1        1 0.38049654E+00 0.80943536E+03</pdfrwt>
<pdfrwt beam="2">  1       -1 0.14561338E+00 0.80943536E+03</pdfrwt>
<totfact> 0.56416933E-01</totfact>
</mgrwt>
</event>
<event>
 4    1  0.1852677E-008  0.3178055E+03  0.7818608E-02  0.1076664E+00
          1   -1    0    0  501    0  0.00000000000E+00  0.00000000000E+00  0.15551745357E+04  0.15551745357E+04  0.50400000000E-02 0. -1.
         -1   -1    0    0    0  501 -0.00000000000E+00 -0.00000000000E+00 -0.81194667380E+03  0.81194667382E+03  0.50400000000E-02 0.  1.
    8880022    1    1    2    0    0 -0.21102355095E+03  0.18187293002E+03  0.15068537614E+04  0.15400027964E+04  0.15294330000E+03 0.  0.
    8880022    1    1    2    0    0  0.21102355095E+03 -0.18187293002E+03 -0.76362589955E+03  0.82711841305E+03  0.15294330000E+03 0.  1.
<mgrwt>
<rscale>  0 0.31780553E+03</rscale>
<asrwt>0</asrwt>
<pdfrwt beam="1">  1        1 0.23925762E+00 0.31780553E+03</pdfrwt>
<pdfrwt beam="2">  1       -1 0.12491487E+00 0.31780553E+03</pdfrwt>
<totfact> 0.39431458E+00</totfact>
</mgrwt>
</event>
<event>
 4    1  0.1852677E-008  0.7113982E+03  0.7818608E-02  0.9697936E-01
         -1   -1    0    0    0  501 -0.00000000000E+00  0.00000000000E+00  0.15841357758E+04  0.15841357758E+04  0.50400000000E-02 0.  1.
          1   -1    0    0  501    0  0.00000000000E+00 -0.00000000000E+00 -0.92643470677E+03  0.92643470678E+03  0.50400000000E-02 0. -1.
    8880022    1    1    2    0    0 -0.21216602121E+03  0.66157484133E+03  0.13449025606E+04  0.15214631910E+04  0.15294330000E+03 0.  0.
    8880022    1    1    2    0    0  0.21216602121E+03 -0.66157484133E+03 -0.68720149153E+03  0.98910729156E+03  0.15294330000E+03 0.  0.
<mgrwt>
<rscale>  0 0.71139816E+03</rscale>
<asrwt>0</asrwt>
<pdfrwt beam="1">  1        1 0.14252842E+00 0.71139816E+03</pdfrwt>
<pdfrwt beam="2">  1       -1 0.24371320E+00 0.71139816E+03</pdfrwt>
<totfact> 0.14023735E+00</totfact>
</mgrwt>
</event>
<event>
 4    1  0.1852677E-008  0.2998678E+03  0.7818608E-02  0.1085307E+00
         -1   -1    0    0    0  501 -0.00000000000E+00  0.00000000000E+00  0.65418307045E+03  0.65418307047E+03  0.50400000000E-02 0.  1.
          1   -1    0    0  501    0  0.00000000000E+00 -0.00000000000E+00 -0.12961678830E+04  0.12961678830E+04  0.50400000000E-02 0. -1.
    8880022    1    1    2    0    0  0.25547482257E+03 -0.35520119292E+02  0.60102700843E+03  0.67168011860E+03  0.15294330000E+03 0.  0.
    8880022    1    1    2    0    0 -0.25547482257E+03  0.35520119292E+02 -0.12430118210E+04  0.12786708349E+04  0.15294330000E+03 0. -1.
<mgrwt>
<rscale>  0 0.29986783E+03</rscale>
<asrwt>0</asrwt>
<pdfrwt beam="1">  1        1 0.19941044E+00 0.29986783E+03</pdfrwt>
<pdfrwt beam="2">  1       -1 0.10064355E+00 0.29986783E+03</pdfrwt>
<totfact> 0.98354469E+00</totfact>
</mgrwt>
</event>
<event>
 4    1  0.1852677E-008  0.8209497E+03  0.7818608E-02  0.9530179E-01
          1   -1    0    0  501    0  0.00000000000E+00  0.00000000000E+00  0.26948049706E+04  0.26948049707E+04  0.50400000000E-02 0. -1.
         -1   -1    0    0    0  501 -0.00000000000E+00 -0.00000000000E+00 -0.41645862235E+03  0.41645862238E+03  0.50400000000E-02 0.  1.
    8880022    1    1    2    0    0 -0.50072504612E+03  0.63232998307E+03  0.15595591547E+03  0.83563190454E+03  0.15294330000E+03 0.  0.
    8880022    1    1    2    0    0  0.50072504612E+03 -0.63232998307E+03  0.21223904328E+04  0.22756316885E+04  0.15294330000E+03 0.  0.
<mgrwt>
<rscale>  0 0.82094971E+03</rscale>
<asrwt>0</asrwt>
<pdfrwt beam="1">  1        1 0.41458540E+00 0.82094971E+03</pdfrwt>
<pdfrwt beam="2">  1       -1 0.64070555E-01 0.82094971E+03</pdfrwt>
<totfact> 0.25730001E+00</totfact>
</mgrwt>
</event>
<event>
 4    1  0.1852677E-008  0.3890351E+03  0.7818608E-02  0.1047644E+00
          1   -1    0    0  501    0  0.00000000000E+00  0.00000000000E+00  0.76532901631E+03  0.76532901633E+03  0.50400000000E-02 0. -1.
         -1   -1    0    0    0  501 -0.00000000000E+00 -0.00000000000E+00 -0.14385908146E+04  0.14385908146E+04  0.50400000000E-02 0.  1.
    8880022    1    1    2    0    0 -0.78228694499E+02  0.34905151849E+03 -0.13600514993E+04  0.14145983263E+04  0.15294330000E+03 0.  0.
    8880022    1    1    2    0    0  0.78228694499E+02 -0.34905151849E+03  0.68678970099E+03  0.78932150458E+03  0.15294330000E+03 0.  0.
<mgrwt>
<rscale>  0 0.38903515E+03</rscale>
<asrwt>0</asrwt>
<pdfrwt beam="1">  1        1 0.11774293E+00 0.38903515E+03</pdfrwt>
<pdfrwt beam="2">  1       -1 0.22132166E+00 0.38903515E+03</pdfrwt>
<totfact> 0.28984762E+00</totfact>
</mgrwt>
</event>
<event>
 4    1  0.1852677E-008  0.4927659E+03  0.7818608E-02  0.1015685E+00
          1   -1    0    0  501    0  0.00000000000E+00  0.00000000000E+00  0.98011710728E+03  0.98011710729E+03  0.50400000000E-02 0. -1.
         -1   -1    0    0    0  501 -0.00000000000E+00 -0.00000000000E+00 -0.42539649450E+03  0.42539649453E+03  0.50400000000E-02 0.  1.
    8880022    1    1    2    0    0 -0.27508898166E+03  0.37914728349E+03  0.73150432196E+03  0.88199593903E+03  0.15294330000E+03 0.  0.
    8880022    1    1    2    0    0  0.27508898166E+03 -0.37914728349E+03 -0.17678370918E+03  0.52351766279E+03  0.15294330000E+03 0.  0.
<mgrwt>
<rscale>  0 0.49276593E+03</rscale>
<asrwt>0</asrwt>
<pdfrwt beam="1">  1        1 0.15078725E+00 0.49276593E+03</pdfrwt>
<pdfrwt beam="2">  1       -1 0.65445615E-01 0.49276593E+03</pdfrwt>
<totfact> 0.39350852E+01</totfact>
</mgrwt>
</event>
<event>
 4    1  0.1852677E-008  0.3713612E+03  0.7818608E-02  0.1054174E+00
         -1   -1    0    0    0  501 -0.00000000000E+00  0.00000000000E+00  0.83918338194E+03  0.83918338196E+03  0.50400000000E-02 0.  1.
          1   -1    0    0  501    0  0.00000000000E+00 -0.00000000000E+00 -0.11092896849E+04  0.11092896849E+04  0.50400000000E-02 0. -1.
    8880022    1    1    2    0    0 -0.20526508032E+03 -0.26904226414E+03 -0.10342336571E+04  0.10988850729E+04  0.15294330000E+03 0.  0.
    8880022    1    1    2    0    0  0.20526508032E+03  0.26904226414E+03  0.76412735412E+03  0.84958799392E+03  0.15294330000E+03 0.  0.
<mgrwt>
<rscale>  0 0.37136121E+03</rscale>
<asrwt>0</asrwt>
<pdfrwt beam="1">  1        1 0.17065995E+00 0.37136121E+03</pdfrwt>
<pdfrwt beam="2">  1       -1 0.12910514E+00 0.37136121E+03</pdfrwt>
<totfact> 0.72324085E+00</totfact>
</mgrwt>
</event>
<event>
 4    1  0.1852677E-008  0.6179248E+03  0.7818608E-02  0.9868900E-01
          1   -1    0    0  501    0  0.00000000000E+00  0.00000000000E+00  0.71074602459E+03  0.71074602461E+03  0.50400000000E-02 0. -1.
         -1   -1    0    0    0  501 -0.00000000000E+00 -0.00000000000E+00 -0.89610977198E+03  0.89610977199E+03  0.50400000000E-02 0.  1.
    8880022    1    1    2    0    0 -0.53400978436E+03 -0.27068982675E+03  0.41576238423E+03  0.74477476142E+03  0.15294330000E+03 0.  0.
    8880022    1    1    2    0    0  0.53400978436E+03  0.27068982675E+03 -0.60112613161E+03  0.86208103518E+03  0.15294330000E+03 0.  0.
<mgrwt>
<rscale>  0 0.61792482E+03</rscale>
<asrwt>0</asrwt>
<pdfrwt beam="1">  1        1 0.10934554E+00 0.61792482E+03</pdfrwt>
<pdfrwt beam="2">  1       -1 0.13786304E+00 0.61792482E+03</pdfrwt>
<totfact> 0.12180511E+01</totfact>
</mgrwt>
</event>
<event>
 4    1  0.1852677E-008  0.2447014E+03  0.7818608E-02  0.1116700E+00
          1   -1    0    0  501    0  0.00000000000E+00  0.00000000000E+00  0.14607750981E+04  0.14607750982E+04  0.50400000000E-02 0. -1.
         -1   -1    0    0    0  501 -0.00000000000E+00 -0.00000000000E+00 -0.51552486565E+03  0.51552486567E+03  0.50400000000E-02 0.  1.
    8880022    1    1    2    0    0  0.12962520049E+02  0.19057574810E+03 -0.47542569195E+03  0.53470401558E+03  0.15294330000E+03 0.  1.
    8880022    1    1    2    0    0 -0.12962520049E+02 -0.19057574810E+03  0.14206759245E+04  0.14415959483E+04  0.15294330000E+03 0.  0.
<mgrwt>
<rscale>  0 0.24470144E+03</rscale>
<asrwt>0</asrwt>
<pdfrwt beam="1">  1        1 0.22473463E+00 0.24470144E+03</pdfrwt>
<pdfrwt beam="2">  1       -1 0.79311519E-01 0.24470144E+03</pdfrwt>
<totfact> 0.13015794E+01</totfact>
</mgrwt>
</event>
<event>
 4    1  0.1852677E-008  0.4270568E+03  0.7818608E-02  0.1034794E+00
         -1   -1    0    0    0  501 -0.00000000000E+00  0.00000000000E+00  0.65405030621E+03  0.65405030623E+03  0.50400000000E-02 0.  1.
          1   -1    0    0  501    0  0.00000000000E+00 -0.00000000000E+00 -0.82631856356E+03  0.82631856358E+03  0.50400000000E-02 0. -1.
    8880022    1    1    2    0    0  0.29784290885E+03 -0.26509513152E+03  0.51635398598E+03  0.67007381606E+03  0.15294330000E+03 0.  0.
    8880022    1    1    2    0    0 -0.29784290885E+03  0.26509513152E+03 -0.68862224333E+03  0.81029505375E+03  0.15294330000E+03 0.  0.
<mgrwt>
<rscale>  0 0.42705676E+03</rscale>
<asrwt>0</asrwt>
<pdfrwt beam="1">  1        1 0.12712593E+00 0.42705676E+03</pdfrwt>
<pdfrwt beam="2">  1       -1 0.10062312E+00 0.42705676E+03</pdfrwt>
<totfact> 0.21284804E+01</totfact>
</mgrwt>
</event>
<event>
 4    1  0.1852677E-008  0.3579851E+03  0.7818608E-02  0.1059385E+00
          1   -1    0    0  501    0  0.00000000000E+00  0.00000000000E+00  0.43611733938E+03  0.43611733941E+03  0.50400000000E-02 0. -1.
         -1   -1    0    0    0  501 -0.00000000000E+00 -0.00000000000E+00 -0.66950683886E+03  0.66950683888E+03  0.50400000000E-02 0.  1.
    8880022    1    1    2    0    0 -0.62030262327E+02 -0.31766947110E+03  0.29739586017E+03  0.46540046946E+03  0.15294330000E+03 0.  0.
    8880022    1    1    2    0    0  0.62030262327E+02  0.31766947110E+03 -0.53078535966E+03  0.64022370883E+03  0.15294330000E+03 0.  0.
<mgrwt>
<rscale>  0 0.35798505E+03</rscale>
<asrwt>0</asrwt>
<pdfrwt beam="1">  1        1 0.67094975E-01 0.35798505E+03</pdfrwt>
<pdfrwt beam="2">  1       -1 0.10300105E+00 0.35798505E+03</pdfrwt>
<totfact> 0.50848512E+01</totfact>
</mgrwt>
</event>
<event>
 4    1  0.1852677E-008  0.2521212E+03  0.7818608E-02  0.1111972E+00
          1   -1    0    0  501    0  0.00000000000E+00  0.00000000000E+00  0.19613371214E+04  0.19613371214E+04  0.50400000000E-02 0. -1.
         -1   -1    0    0    0  501 -0.00000000000E+00 -0.00000000000E+00 -0.58858316606E+03  0.58858316608E+03  0.50400000000E-02 0.  1.
    8880022    1    1    2    0    0 -0.77185409642E+02  0.18497527806E+03  0.19257386823E+04  0.19421726407E+04  0.15294330000E+03 0.  0.
    8880022    1    1    2    0    0  0.77185409642E+02 -0.18497527806E+03 -0.55298472692E+03  0.60774764679E+03  0.15294330000E+03 0.  0.
<mgrwt>
<rscale>  0 0.25212119E+03</rscale>
<asrwt>0</asrwt>
<pdfrwt beam="1">  1        1 0.30174417E+00 0.25212119E+03</pdfrwt>
<pdfrwt beam="2">  1       -1 0.90551257E-01 0.25212119E+03</pdfrwt>
<totfact> 0.46173674E+00</totfact>
</mgrwt>
</event>
<event>
 4    1  0.1852677E-008  0.6016653E+03  0.7818608E-02  0.9901957E-01
         -1   -1    0    0    0  501 -0.00000000000E+00  0.00000000000E+00  0.96868366091E+03  0.96868366092E+03  0.50400000000E-02 0.  1.
          1   -1    0    0  501    0  0.00000000000E+00 -0.00000000000E+00 -0.42265230247E+03  0.42265230250E+03  0.50400000000E-02 0. -1.
    8880022    1    1    2    0    0 -0.55735563464E+03  0.16722496634E+03  0.36272019567E+02  0.60275766710E+03  0.15294330000E+03 0.  0.
    8880022    1    1    2    0    0  0.55735563464E+03 -0.16722496634E+03  0.50975933887E+03  0.78857829631E+03  0.15294330000E+03 0.  0.
<mgrwt>
<rscale>  0 0.60166531E+03</rscale>
<asrwt>0</asrwt>
<pdfrwt beam="1">  1        1 0.65023432E-01 0.60166531E+03</pdfrwt>
<pdfrwt beam="2">  1       -1 0.14902825E+00 0.60166531E+03</pdfrwt>
<totfact> 0.20651390E+01</totfact>
</mgrwt>
</event>
<event>
 4    1  0.1852677E-008  0.7924488E+03  0.7818608E-02  0.9571012E-01
          1   -1    0    0  501    0  0.00000000000E+00  0.00000000000E+00  0.47960804407E+03  0.47960804410E+03  0.50400000000E-02 0. -1.
         -1   -1    0    0    0  501 -0.00000000000E+00 -0.00000000000E+00 -0.13878523625E+04  0.13878523625E+04  0.50400000000E-02 0.  1.
    8880022    1    1    2    0    0  0.22832329505E+03  0.74327114312E+03 -0.67619167508E+03  0.10417343009E+04  0.15294330000E+03 0.  0.
    8880022    1    1    2    0    0 -0.22832329505E+03 -0.74327114312E+03 -0.23205264331E+03  0.82572610565E+03  0.15294330000E+03 0.  0.
<mgrwt>
<rscale>  0 0.79244885E+03</rscale>
<asrwt>0</asrwt>
<pdfrwt beam="1">  1        1 0.73785853E-01 0.79244885E+03</pdfrwt>
<pdfrwt beam="2">  1       -1 0.21351575E+00 0.79244885E+03</pdfrwt>
<totfact> 0.58824999E+00</totfact>
</mgrwt>
</event>
<event>
 4    1  0.1852677E-008  0.4240045E+03  0.7818608E-02  0.1035771E+00
         -1   -1    0    0    0  501 -0.00000000000E+00  0.00000000000E+00  0.19132403836E+03  0.19132403842E+03  0.50400000000E-02 0.  1.
          1   -1    0    0  501    0  0.00000000000E+00 -0.00000000000E+00 -0.13052576597E+04  0.13052576597E+04  0.50400000000E-02 0. -1.
    8880022    1    1    2    0    0  0.13960117179E+03 -0.36999952309E+03 -0.95299241310E+03  0.10430600782E+04  0.15294330000E+03 0.  0.
    8880022    1    1    2    0    0 -0.13960117179E+03  0.36999952309E+03 -0.16094120827E+03  0.45352161998E+03  0.15294330000E+03 0.  0.
<mgrwt>
<rscale>  0 0.42400447E+03</rscale>
<asrwt>0</asrwt>
<pdfrwt beam="1">  1        1 0.20080887E+00 0.42400447E+03</pdfrwt>
<pdfrwt beam="2">  1       -1 0.29434468E-01 0.42400447E+03</pdfrwt>
<totfact> 0.10032909E+02</totfact>
</mgrwt>
</event>
<event>
 4    1  0.1852677E-008  0.3597785E+03  0.7818608E-02  0.1058672E+00
          1   -1    0    0  501    0  0.00000000000E+00  0.00000000000E+00  0.30455638407E+04  0.30455638407E+04  0.50400000000E-02 0. -1.
         -1   -1    0    0    0  501 -0.00000000000E+00 -0.00000000000E+00 -0.32753673659E+03  0.32753673663E+03  0.50400000000E-02 0.  1.
    8880022    1    1    2    0    0  0.30167072022E+03 -0.12265287777E+03 -0.21431226451E+03  0.41877243414E+03  0.15294330000E+03 0.  0.
    8880022    1    1    2    0    0 -0.30167072022E+03  0.12265287777E+03  0.29323393686E+04  0.29543281432E+04  0.15294330000E+03 0.  0.
<mgrwt>
<rscale>  0 0.35977855E+03</rscale>
<asrwt>0</asrwt>
<pdfrwt beam="1">  1        1 0.46854827E+00 0.35977855E+03</pdfrwt>
<pdfrwt beam="2">  1       -1 0.50390269E-01 0.35977855E+03</pdfrwt>
<totfact> 0.26402162E+00</totfact>
</mgrwt>
</event>
<event>
 4    1  0.1852677E-008  0.9412580E+03  0.7818608E-02  0.9375427E-01
         -1   -1    0    0    0  501 -0.00000000000E+00  0.00000000000E+00  0.38415590702E+03  0.38415590705E+03  0.50400000000E-02 0.  1.
          1   -1    0    0  501    0  0.00000000000E+00 -0.00000000000E+00 -0.29564167122E+04  0.29564167122E+04  0.50400000000E-02 0. -1.
    8880022    1    1    2    0    0 -0.70311840154E+03  0.60679448086E+03 -0.50285539186E+03  0.10671598881E+04  0.15294330000E+03 0.  0.
    8880022    1    1    2    0    0  0.70311840154E+03 -0.60679448086E+03 -0.20694054134E+04  0.22734127312E+04  0.15294330000E+03 0.  0.
<mgrwt>
<rscale>  0 0.94125803E+03</rscale>
<asrwt>0</asrwt>
<pdfrwt beam="1">  1        1 0.45483332E+00 0.94125803E+03</pdfrwt>
<pdfrwt beam="2">  1       -1 0.59100911E-01 0.94125803E+03</pdfrwt>
<totfact> 0.19348369E+00</totfact>
</mgrwt>
</event>
<event>
 4    1  0.1852677E-008  0.9426087E+03  0.7818608E-02  0.9373832E-01
          1   -1    0    0  501    0  0.00000000000E+00  0.00000000000E+00  0.21549861814E+04  0.21549861814E+04  0.50400000000E-02 0. -1.
         -1   -1    0    0    0  501 -0.00000000000E+00 -0.00000000000E+00 -0.41574443026E+03  0.41574443029E+03  0.50400000000E-02 0.  1.
    8880022    1    1    2    0    0 -0.55426389767E+03  0.74693440440E+03  0.98653577045E+03  0.13644647127E+04  0.15294330000E+03 0.  0.
    8880022    1    1    2    0    0  0.55426389767E+03 -0.74693440440E+03  0.75270598064E+03  0.12062658990E+04  0.15294330000E+03 0.  0.
<mgrwt>
<rscale>  0 0.94260868E+03</rscale>
<asrwt>0</asrwt>
<pdfrwt beam="1">  1        1 0.33153634E+00 0.94260868E+03</pdfrwt>
<pdfrwt beam="2">  1       -1 0.63960682E-01 0.94260868E+03</pdfrwt>
<totfact> 0.59184209E+00</totfact>
</mgrwt>
</event>
<event>
 4    1  0.1852677E-008  0.4495648E+03  0.7818608E-02  0.1027852E+00
          1   -1    0    0  501    0  0.00000000000E+00  0.00000000000E+00  0.12018678678E+04  0.12018678678E+04  0.50400000000E-02 0. -1.
         -1   -1    0    0    0  501 -0.00000000000E+00 -0.00000000000E+00 -0.13188968905E+04  0.13188968905E+04  0.50400000000E-02 0.  1.
    8880022    1    1    2    0    0  0.17060124390E+03  0.38679725394E+03 -0.12358074351E+04  0.13150393795E+04  0.15294330000E+03 0.  0.
    8880022    1    1    2    0    0 -0.17060124390E+03 -0.38679725394E+03  0.11187784123E+04  0.12057253788E+04  0.15294330000E+03 0.  0.
<mgrwt>
<rscale>  0 0.44956485E+03</rscale>
<asrwt>0</asrwt>
<pdfrwt beam="1">  1        1 0.18490275E+00 0.44956485E+03</pdfrwt>
<pdfrwt beam="2">  1       -1 0.20290721E+00 0.44956485E+03</pdfrwt>
<totfact> 0.17261265E+00</totfact>
</mgrwt>
</event>
<event>
 4    1  0.1852677E-008  0.2747448E+03  0.7818608E-02  0.1098594E+00
         -1   -1    0    0    0  501 -0.00000000000E+00  0.00000000000E+00  0.37445411812E+03  0.37445411815E+03  0.50400000000E-02 0.  1.
          1   -1    0    0  501    0  0.00000000000E+00 -0.00000000000E+00 -0.61713174852E+03  0.61713174855E+03  0.50400000000E-02 0. -1.
    8880022    1    1    2    0    0  0.44693323609E+02  0.22382041713E+03 -0.52817613542E+03  0.59536102941E+03  0.15294330000E+03 0.  0.
    8880022    1    1    2    0    0 -0.44693323609E+02 -0.22382041713E+03  0.28549850502E+03  0.39622483729E+03  0.15294330000E+03 0.  0.
<mgrwt>
<rscale>  0 0.27474484E+03</rscale>
<asrwt>0</asrwt>
<pdfrwt beam="1">  1        1 0.94943346E-01 0.27474484E+03</pdfrwt>
<pdfrwt beam="2">  1       -1 0.57608326E-01 0.27474484E+03</pdfrwt>
<totfact> 0.10755227E+02</totfact>
</mgrwt>
</event>
<event>
 4    1  0.1852677E-008  0.4274322E+03  0.7818608E-02  0.1034674E+00
          1   -1    0    0  501    0  0.00000000000E+00  0.00000000000E+00  0.26490999952E+04  0.26490999952E+04  0.50400000000E-02 0. -1.
         -1   -1    0    0    0  501 -0.00000000000E+00 -0.00000000000E+00 -0.19117185692E+03  0.19117185698E+03  0.50400000000E-02 0.  1.
    8880022    1    1    2    0    0  0.35389420696E+03  0.18456852531E+03  0.93525537893E+02  0.43754466002E+03  0.15294330000E+03 0.  0.
    8880022    1    1    2    0    0 -0.35389420696E+03 -0.18456852531E+03  0.23644026003E+04  0.24027271921E+04  0.15294330000E+03 0.  0.
<mgrwt>
<rscale>  0 0.42743222E+03</rscale>
<asrwt>0</asrwt>
<pdfrwt beam="1">  1        1 0.40755379E+00 0.42743222E+03</pdfrwt>
<pdfrwt beam="2">  1       -1 0.29411059E-01 0.42743222E+03</pdfrwt>
<totfact> 0.12718012E+01</totfact>
</mgrwt>
</event>
<event>
 4    1  0.1852677E-008  0.5915289E+03  0.7818608E-02  0.9923139E-01
          1   -1    0    0  501    0  0.00000000000E+00  0.00000000000E+00  0.13337373121E+04  0.13337373121E+04  0.50400000000E-02 0. -1.
         -1   -1    0    0    0  501 -0.00000000000E+00 -0.00000000000E+00 -0.46982459227E+03  0.46982459230E+03  0.50400000000E-02 0.  1.
    8880022    1    1    2    0    0  0.51706821551E+03 -0.24321839754E+03 -0.16730369930E+03  0.61473320165E+03  0.15294330000E+03 0.  0.
    8880022    1    1    2    0    0 -0.51706821551E+03  0.24321839754E+03  0.10312164191E+04  0.11888287027E+04  0.15294330000E+03 0.  0.
<mgrwt>
<rscale>  0 0.59152885E+03</rscale>
<asrwt>0</asrwt>
<pdfrwt beam="1">  1        1 0.20519035E+00 0.59152885E+03</pdfrwt>
<pdfrwt beam="2">  1       -1 0.72280708E-01 0.59152885E+03</pdfrwt>
<totfact> 0.17488309E+01</totfact>
</mgrwt>
</event>
<event>
 4    1  0.1852677E-008  0.7289724E+03  0.7818608E-02  0.9668929E-01
         -1   -1    0    0    0  501 -0.00000000000E+00  0.00000000000E+00  0.75193994937E+03  0.75193994939E+03  0.50400000000E-02 0.  1.
          1   -1    0    0  501    0  0.00000000000E+00 -0.00000000000E+00 -0.23519555871E+04  0.23519555871E+04  0.50400000000E-02 0. -1.
    8880022    1    1    2    0    0 -0.40954079074E+03  0.58333992649E+03  0.49800321305E+03  0.88284085901E+03  0.15294330000E+03 0.  0.
    8880022    1    1    2    0    0  0.40954079074E+03 -0.58333992649E+03 -0.20980188507E+04  0.22210546774E+04  0.15294330000E+03 0.  0.
<mgrwt>
<rscale>  0 0.72897242E+03</rscale>
<asrwt>0</asrwt>
<pdfrwt beam="1">  1        1 0.36183932E+00 0.72897242E+03</pdfrwt>
<pdfrwt beam="2">  1       -1 0.11568307E+00 0.72897242E+03</pdfrwt>
<totfact> 0.12394797E+00</totfact>
</mgrwt>
</event>
<event>
 4    1  0.1852677E-008  0.1959958E+03  0.7818608E-02  0.1153162E+00
         -1   -1    0    0    0  501 -0.00000000000E+00  0.00000000000E+00  0.38659267726E+03  0.38659267729E+03  0.50400000000E-02 0.  1.
          1   -1    0    0  501    0  0.00000000000E+00 -0.00000000000E+00 -0.10281325120E+03  0.10281325133E+03  0.50400000000E-02 0. -1.
    8880022    1    1    2    0    0  0.77063300473E+02  0.95309781899E+02  0.18669403334E+03  0.27068251127E+03  0.15294330000E+03 0.  1.
    8880022    1    1    2    0    0 -0.77063300473E+02 -0.95309781899E+02  0.97085392713E+02  0.21872341735E+03  0.15294330000E+03 0. -1.
<mgrwt>
<rscale>  0 0.19599582E+03</rscale>
<asrwt>0</asrwt>
<pdfrwt beam="1">  1        1 0.15817423E-01 0.19599582E+03</pdfrwt>
<pdfrwt beam="2">  1       -1 0.59475797E-01 0.19599582E+03</pdfrwt>
<totfact> 0.10214698E+03</totfact>
</mgrwt>
</event>
<event>
 4    1  0.1852677E-008  0.3986625E+03  0.7818608E-02  0.1044244E+00
          1   -1    0    0  501    0  0.00000000000E+00  0.00000000000E+00  0.81929916458E+03  0.81929916460E+03  0.50400000000E-02 0. -1.
         -1   -1    0    0    0  501 -0.00000000000E+00 -0.00000000000E+00 -0.59424467217E+03  0.59424467219E+03  0.50400000000E-02 0.  1.
    8880022    1    1    2    0    0  0.36090107524E+03  0.72736151746E+02 -0.46752555653E+03  0.61441999715E+03  0.15294330000E+03 0.  0.
    8880022    1    1    2    0    0 -0.36090107524E+03 -0.72736151746E+02  0.69258004894E+03  0.79912383964E+03  0.15294330000E+03 0.  0.
<mgrwt>
<rscale>  0 0.39866250E+03</rscale>
<asrwt>0</asrwt>
<pdfrwt beam="1">  1        1 0.12604603E+00 0.39866250E+03</pdfrwt>
<pdfrwt beam="2">  1       -1 0.91422257E-01 0.39866250E+03</pdfrwt>
<totfact> 0.26853612E+01</totfact>
</mgrwt>
</event>
<event>
 4    1  0.1852677E-008  0.5558459E+03  0.7818608E-02  0.1000150E+00
          1   -1    0    0  501    0  0.00000000000E+00  0.00000000000E+00  0.55537140516E+03  0.55537140519E+03  0.50400000000E-02 0. -1.
         -1   -1    0    0    0  501 -0.00000000000E+00 -0.00000000000E+00 -0.89752289737E+03  0.89752289739E+03  0.50400000000E-02 0.  1.
    8880022    1    1    2    0    0  0.32351990831E+03 -0.42533264666E+03  0.27683050701E+03  0.62096680588E+03  0.15294330000E+03 0.  0.
    8880022    1    1    2    0    0 -0.32351990831E+03  0.42533264666E+03 -0.61898199922E+03  0.83192749669E+03  0.15294330000E+03 0.  0.
<mgrwt>
<rscale>  0 0.55584588E+03</rscale>
<asrwt>0</asrwt>
<pdfrwt beam="1">  1        1 0.85441755E-01 0.55584588E+03</pdfrwt>
<pdfrwt beam="2">  1       -1 0.13808045E+00 0.55584588E+03</pdfrwt>
<totfact> 0.17515466E+01</totfact>
</mgrwt>
</event>
<event>
 4    1  0.1852677E-008  0.6374340E+03  0.7818608E-02  0.9830648E-01
          1   -1    0    0  501    0  0.00000000000E+00  0.00000000000E+00  0.11704739041E+04  0.11704739041E+04  0.50400000000E-02 0. -1.
         -1   -1    0    0    0  501 -0.00000000000E+00 -0.00000000000E+00 -0.49876826332E+03  0.49876826334E+03  0.50400000000E-02 0.  1.
    8880022    1    1    2    0    0 -0.45858594110E+03 -0.41548696059E+03  0.79603028823E+03  0.10197972115E+04  0.15294330000E+03 0.  0.
    8880022    1    1    2    0    0  0.45858594110E+03  0.41548696059E+03 -0.12432464747E+03  0.64944495593E+03  0.15294330000E+03 0.  0.
<mgrwt>
<rscale>  0 0.63743402E+03</rscale>
<asrwt>0</asrwt>
<pdfrwt beam="1">  1        1 0.18007290E+00 0.63743402E+03</pdfrwt>
<pdfrwt beam="2">  1       -1 0.76733581E-01 0.63743402E+03</pdfrwt>
<totfact> 0.20038688E+01</totfact>
</mgrwt>
</event>
<event>
 4    1  0.1852677E-008  0.2983286E+03  0.7818608E-02  0.1086079E+00
         -1   -1    0    0    0  501 -0.00000000000E+00  0.00000000000E+00  0.72716202667E+03  0.72716202669E+03  0.50400000000E-02 0.  1.
          1   -1    0    0  501    0  0.00000000000E+00 -0.00000000000E+00 -0.38177448899E+03  0.38177448903E+03  0.50400000000E-02 0. -1.
    8880022    1    1    2    0    0 -0.18717001726E+03 -0.17485903387E+03  0.62972118792E+03  0.69681326381E+03  0.15294330000E+03 0.  0.
    8880022    1    1    2    0    0  0.18717001726E+03  0.17485903387E+03 -0.28433365025E+03  0.41212325191E+03  0.15294330000E+03 0. -1.
<mgrwt>
<rscale>  0 0.29832859E+03</rscale>
<asrwt>0</asrwt>
<pdfrwt beam="1">  1        1 0.58734537E-01 0.29832859E+03</pdfrwt>
<pdfrwt beam="2">  1       -1 0.11187108E+00 0.29832859E+03</pdfrwt>
<totfact> 0.50551580E+01</totfact>
</mgrwt>
</event>
<event>
 4    1  0.1852677E-008  0.2631278E+03  0.7818608E-02  0.1105278E+00
         -1   -1    0    0    0  501 -0.00000000000E+00  0.00000000000E+00  0.93420040777E+03  0.93420040778E+03  0.50400000000E-02 0.  1.
          1   -1    0    0  501    0  0.00000000000E+00 -0.00000000000E+00 -0.12355942896E+04  0.12355942896E+04  0.50400000000E-02 0. -1.
    8880022    1    1    2    0    0  0.10090907471E+03 -0.18884372309E+03 -0.12025542774E+04  0.12310048888E+04  0.15294330000E+03 0.  0.
    8880022    1    1    2    0    0 -0.10090907471E+03  0.18884372309E+03  0.90116039558E+03  0.93878980858E+03  0.15294330000E+03 0.  0.
<mgrwt>
<rscale>  0 0.26312781E+03</rscale>
<asrwt>0</asrwt>
<pdfrwt beam="1">  1        1 0.19009143E+00 0.26312781E+03</pdfrwt>
<pdfrwt beam="2">  1       -1 0.14372314E+00 0.26312781E+03</pdfrwt>
<totfact> 0.46847065E+00</totfact>
</mgrwt>
</event>
<event>
 4    1  0.1852677E-008  0.6650351E+03  0.7818608E-02  0.9778969E-01
         -1   -1    0    0    0  501 -0.00000000000E+00  0.00000000000E+00  0.66391890867E+03  0.66391890869E+03  0.50400000000E-02 0.  1.
          1   -1    0    0  501    0  0.00000000000E+00 -0.00000000000E+00 -0.15347097566E+04  0.15347097566E+04  0.50400000000E-02 0. -1.
    8880022    1    1    2    0    0 -0.58652820221E+03 -0.27361425157E+03 -0.12623997863E+04  0.14268584247E+04  0.15294330000E+03 0.  0.
    8880022    1    1    2    0    0  0.58652820221E+03  0.27361425157E+03  0.39160893837E+03  0.77177024060E+03  0.15294330000E+03 0.  0.
<mgrwt>
<rscale>  0 0.66503514E+03</rscale>
<asrwt>0</asrwt>
<pdfrwt beam="1">  1        1 0.23610919E+00 0.66503514E+03</pdfrwt>
<pdfrwt beam="2">  1       -1 0.10214137E+00 0.66503514E+03</pdfrwt>
<totfact> 0.59393716E+00</totfact>
</mgrwt>
</event>
<event>
 4    1  0.1852677E-008  0.5605426E+03  0.7818608E-02  0.9990828E-01
         -1   -1    0    0    0  501 -0.00000000000E+00  0.00000000000E+00  0.65418945668E+03  0.65418945670E+03  0.50400000000E-02 0.  1.
          1   -1    0    0  501    0  0.00000000000E+00 -0.00000000000E+00 -0.26141406263E+04  0.26141406263E+04  0.50400000000E-02 0. -1.
    8880022    1    1    2    0    0 -0.30618560892E+03 -0.44392202518E+03  0.49645250807E+03  0.74878110108E+03  0.15294330000E+03 0.  0.
    8880022    1    1    2    0    0  0.30618560892E+03  0.44392202518E+03 -0.24564036776E+04  0.25195489819E+04  0.15294330000E+03 0. -1.
<mgrwt>
<rscale>  0 0.56054263E+03</rscale>
<asrwt>0</asrwt>
<pdfrwt beam="1">  1        1 0.40217548E+00 0.56054263E+03</pdfrwt>
<pdfrwt beam="2">  1       -1 0.10064453E+00 0.56054263E+03</pdfrwt>
<totfact> 0.11888061E+00</totfact>
</mgrwt>
</event>
<event>
 4    1  0.1852677E-008  0.1769162E+03  0.7818608E-02  0.1170821E+00
          1   -1    0    0  501    0  0.00000000000E+00  0.00000000000E+00  0.15877791138E+04  0.15877791138E+04  0.50400000000E-02 0. -1.
         -1   -1    0    0    0  501 -0.00000000000E+00 -0.00000000000E+00 -0.19919433277E+02  0.19919433914E+02  0.50400000000E-02 0.  1.
    8880022    1    1    2    0    0  0.87070755228E+02 -0.18065795662E+02  0.86583072390E+03  0.88372064865E+03  0.15294330000E+03 0. -1.
    8880022    1    1    2    0    0 -0.87070755228E+02  0.18065795662E+02  0.70202895660E+03  0.72397789905E+03  0.15294330000E+03 0.  1.
<mgrwt>
<rscale>  0 0.17691620E+03</rscale>
<asrwt>0</asrwt>
<pdfrwt beam="1">  1        1 0.24427370E+00 0.17691620E+03</pdfrwt>
<pdfrwt beam="2">  1       -1 0.30645284E-02 0.17691620E+03</pdfrwt>
<totfact> 0.22867100E+03</totfact>
</mgrwt>
</event>
<event>
 4    1  0.1852677E-008  0.3961720E+03  0.7818608E-02  0.1045113E+00
          1   -1    0    0  501    0  0.00000000000E+00  0.00000000000E+00  0.75947989226E+03  0.75947989228E+03  0.50400000000E-02 0. -1.
         -1   -1    0    0    0  501 -0.00000000000E+00 -0.00000000000E+00 -0.37878576384E+03  0.37878576387E+03  0.50400000000E-02 0.  1.
    8880022    1    1    2    0    0  0.32869971317E+03  0.15974083165E+03 -0.19330963621E+03  0.44081844699E+03  0.15294330000E+03 0.  0.
    8880022    1    1    2    0    0 -0.32869971317E+03 -0.15974083165E+03  0.57400376463E+03  0.69744720916E+03  0.15294330000E+03 0.  0.
<mgrwt>
<rscale>  0 0.39617204E+03</rscale>
<asrwt>0</asrwt>
<pdfrwt beam="1">  1        1 0.11684306E+00 0.39617204E+03</pdfrwt>
<pdfrwt beam="2">  1       -1 0.58274733E-01 0.39617204E+03</pdfrwt>
<totfact> 0.76045063E+01</totfact>
</mgrwt>
</event>
<event>
 4    1  0.1852677E-008  0.2890139E+03  0.7818608E-02  0.1090865E+00
         -1   -1    0    0    0  501 -0.00000000000E+00  0.00000000000E+00  0.67500571138E+02  0.67500571326E+02  0.50400000000E-02 0.  1.
          1   -1    0    0  501    0  0.00000000000E+00 -0.00000000000E+00 -0.28198020460E+04  0.28198020460E+04  0.50400000000E-02 0. -1.
    8880022    1    1    2    0    0 -0.10615766303E+03  0.22106086222E+03 -0.24575938770E+04  0.24745295859E+04  0.15294330000E+03 0. -1.
    8880022    1    1    2    0    0  0.10615766303E+03 -0.22106086222E+03 -0.29470759789E+03  0.41277303145E+03  0.15294330000E+03 0.  0.
<mgrwt>
<rscale>  0 0.28901385E+03</rscale>
<asrwt>0</asrwt>
<pdfrwt beam="1">  1        1 0.43381561E+00 0.28901385E+03</pdfrwt>
<pdfrwt beam="2">  1       -1 0.10384705E-01 0.28901385E+03</pdfrwt>
<totfact> 0.55233802E+01</totfact>
</mgrwt>
</event>
<event>
 4    1  0.1852677E-008  0.3611274E+03  0.7818608E-02  0.1058138E+00
         -1   -1    0    0    0  501 -0.00000000000E+00  0.00000000000E+00  0.20052933864E+04  0.20052933864E+04  0.50400000000E-02 0.  1.
          1   -1    0    0  501    0  0.00000000000E+00 -0.00000000000E+00 -0.42463015800E+03  0.42463015803E+03  0.50400000000E-02 0. -1.
    8880022    1    1    2    0    0  0.74755080490E+02  0.31848547428E+03 -0.32772681396E+03  0.48766570209E+03  0.15294330000E+03 0.  0.
    8880022    1    1    2    0    0 -0.74755080490E+02 -0.31848547428E+03  0.19083900423E+04  0.19422578423E+04  0.15294330000E+03 0.  0.
<mgrwt>
<rscale>  0 0.36112736E+03</rscale>
<asrwt>0</asrwt>
<pdfrwt beam="1">  1        1 0.65327717E-01 0.36112736E+03</pdfrwt>
<pdfrwt beam="2">  1       -1 0.30850668E+00 0.36112736E+03</pdfrwt>
<totfact> 0.18683440E+00</totfact>
</mgrwt>
</event>
<event>
 4    1  0.1852677E-008  0.3509767E+03  0.7818608E-02  0.1062215E+00
         -1   -1    0    0    0  501 -0.00000000000E+00  0.00000000000E+00  0.77941128705E+03  0.77941128707E+03  0.50400000000E-02 0.  1.
          1   -1    0    0  501    0  0.00000000000E+00 -0.00000000000E+00 -0.94666138631E+03  0.94666138632E+03  0.50400000000E-02 0. -1.
    8880022    1    1    2    0    0 -0.11220479903E+03  0.29530168578E+03  0.70408018263E+03  0.78671059427E+03  0.15294330000E+03 0.  0.
    8880022    1    1    2    0    0  0.11220479903E+03 -0.29530168578E+03 -0.87133028188E+03  0.93936207912E+03  0.15294330000E+03 0.  0.
<mgrwt>
<rscale>  0 0.35097672E+03</rscale>
<asrwt>0</asrwt>
<pdfrwt beam="1">  1        1 0.14564021E+00 0.35097672E+03</pdfrwt>
<pdfrwt beam="2">  1       -1 0.11990943E+00 0.35097672E+03</pdfrwt>
<totfact> 0.11542093E+01</totfact>
</mgrwt>
</event>
<event>
 4    1  0.1852677E-008  0.4800114E+03  0.7818608E-02  0.1019132E+00
         -1   -1    0    0    0  501 -0.00000000000E+00  0.00000000000E+00  0.66014825975E+03  0.66014825977E+03  0.50400000000E-02 0.  1.
          1   -1    0    0  501    0  0.00000000000E+00 -0.00000000000E+00 -0.58202274475E+03  0.58202274478E+03  0.50400000000E-02 0. -1.
    8880022    1    1    2    0    0 -0.19990125134E+03 -0.40872820313E+03  0.43202743580E+03  0.64580075303E+03  0.15294330000E+03 0.  0.
    8880022    1    1    2    0    0  0.19990125134E+03  0.40872820313E+03 -0.35390192080E+03  0.59637025151E+03  0.15294330000E+03 0.  0.
<mgrwt>
<rscale>  0 0.48001136E+03</rscale>
<asrwt>0</asrwt>
<pdfrwt beam="1">  1        1 0.89541961E-01 0.48001136E+03</pdfrwt>
<pdfrwt beam="2">  1       -1 0.10156127E+00 0.48001136E+03</pdfrwt>
<totfact> 0.34799331E+01</totfact>
</mgrwt>
</event>
<event>
 4    1  0.1852677E-008  0.6647785E+03  0.7818608E-02  0.9779437E-01
         -1   -1    0    0    0  501 -0.00000000000E+00  0.00000000000E+00  0.81252205950E+03  0.81252205952E+03  0.50400000000E-02 0.  1.
          1   -1    0    0  501    0  0.00000000000E+00 -0.00000000000E+00 -0.79948172318E+03  0.79948172320E+03  0.50400000000E-02 0. -1.
    8880022    1    1    2    0    0 -0.43763610939E+03 -0.47645924963E+03  0.46223904323E+03  0.80968843816E+03  0.15294330000E+03 0.  0.
    8880022    1    1    2    0    0  0.43763610939E+03  0.47645924963E+03 -0.44919870690E+03  0.80231534455E+03  0.15294330000E+03 0.  0.
<mgrwt>
<rscale>  0 0.66477848E+03</rscale>
<asrwt>0</asrwt>
<pdfrwt beam="1">  1        1 0.12299719E+00 0.66477848E+03</pdfrwt>
<pdfrwt beam="2">  1       -1 0.12500339E+00 0.66477848E+03</pdfrwt>
<totfact> 0.12901955E+01</totfact>
</mgrwt>
</event>
<event>
 4    1  0.1852677E-008  0.6613766E+03  0.7818608E-02  0.9785663E-01
         -1   -1    0    0    0  501 -0.00000000000E+00  0.00000000000E+00  0.27127995286E+03  0.27127995290E+03  0.50400000000E-02 0.  1.
          1   -1    0    0  501    0  0.00000000000E+00 -0.00000000000E+00 -0.22087975397E+04  0.22087975397E+04  0.50400000000E-02 0. -1.
    8880022    1    1    2    0    0 -0.20035527355E+03  0.61146148129E+03 -0.32441817382E+03  0.73665879704E+03  0.15294330000E+03 0.  0.
    8880022    1    1    2    0    0  0.20035527355E+03 -0.61146148129E+03 -0.16130994130E+04  0.17434186956E+04  0.15294330000E+03 0.  0.
<mgrwt>
<rscale>  0 0.66137662E+03</rscale>
<asrwt>0</asrwt>
<pdfrwt beam="1">  1        1 0.33981499E+00 0.66137662E+03</pdfrwt>
<pdfrwt beam="2">  1       -1 0.41735379E-01 0.66137662E+03</pdfrwt>
<totfact> 0.12862449E+01</totfact>
</mgrwt>
</event>
<event>
 4    1  0.1852677E-008  0.1258463E+04  0.7818608E-02  0.9063168E-01
          1   -1    0    0  501    0  0.00000000000E+00  0.00000000000E+00  0.10177993947E+04  0.10177993947E+04  0.50400000000E-02 0. -1.
         -1   -1    0    0    0  501 -0.00000000000E+00 -0.00000000000E+00 -0.19806281747E+04  0.19806281747E+04  0.50400000000E-02 0.  1.
    8880022    1    1    2    0    0  0.26897607481E+03  0.12198320785E+04 -0.11755579487E+04  0.17221110802E+04  0.15294330000E+03 0.  0.
    8880022    1    1    2    0    0 -0.26897607481E+03 -0.12198320785E+04  0.21272916876E+03  0.12763164893E+04  0.15294330000E+03 0.  0.
<mgrwt>
<rscale>  0 0.12584634E+04</rscale>
<asrwt>0</asrwt>
<pdfrwt beam="1">  1        1 0.15658452E+00 0.12584634E+04</pdfrwt>
<pdfrwt beam="2">  1       -1 0.30471203E+00 0.12584634E+04</pdfrwt>
<totfact> 0.44115960E-01</totfact>
</mgrwt>
</event>
<event>
 4    1  0.1852677E-008  0.5288218E+03  0.7818608E-02  0.1006518E+00
          1   -1    0    0  501    0  0.00000000000E+00  0.00000000000E+00  0.13491977402E+04  0.13491977402E+04  0.50400000000E-02 0. -1.
         -1   -1    0    0    0  501 -0.00000000000E+00 -0.00000000000E+00 -0.64832638107E+03  0.64832638109E+03  0.50400000000E-02 0.  1.
    8880022    1    1    2    0    0  0.50363178089E+03 -0.51145488884E+02  0.11742146230E+04  0.12878014077E+04  0.15294330000E+03 0.  0.
    8880022    1    1    2    0    0 -0.50363178089E+03  0.51145488884E+02 -0.47334326387E+03  0.70972271361E+03  0.15294330000E+03 0.  1.
<mgrwt>
<rscale>  0 0.52882179E+03</rscale>
<asrwt>0</asrwt>
<pdfrwt beam="1">  1        1 0.20756888E+00 0.52882179E+03</pdfrwt>
<pdfrwt beam="2">  1       -1 0.99742520E-01 0.52882179E+03</pdfrwt>
<totfact> 0.86371845E+00</totfact>
</mgrwt>
</event>
<event>
 4    1  0.1852677E-008  0.2805080E+03  0.7818608E-02  0.1095412E+00
         -1   -1    0    0    0  501 -0.00000000000E+00  0.00000000000E+00  0.10934861927E+03  0.10934861939E+03  0.50400000000E-02 0.  1.
          1   -1    0    0  501    0  0.00000000000E+00 -0.00000000000E+00 -0.14362430825E+04  0.14362430825E+04  0.50400000000E-02 0. -1.
    8880022    1    1    2    0    0 -0.11833481646E+01  0.23514178975E+03 -0.12093425055E+04  0.12414483518E+04  0.15294330000E+03 0.  0.
    8880022    1    1    2    0    0  0.11833481646E+01 -0.23514178975E+03 -0.11755195768E+03  0.30414335003E+03  0.15294330000E+03 0.  0.
<mgrwt>
<rscale>  0 0.28050796E+03</rscale>
<asrwt>0</asrwt>
<pdfrwt beam="1">  1        1 0.22096046E+00 0.28050796E+03</pdfrwt>
<pdfrwt beam="2">  1       -1 0.16822865E-01 0.28050796E+03</pdfrwt>
<totfact> 0.21190922E+02</totfact>
</mgrwt>
</event>
<event>
 4    1  0.1852677E-008  0.3063228E+03  0.7818608E-02  0.1082122E+00
         -1   -1    0    0    0  501 -0.00000000000E+00  0.00000000000E+00  0.22287419998E+03  0.22287420003E+03  0.50400000000E-02 0.  1.
          1   -1    0    0  501    0  0.00000000000E+00 -0.00000000000E+00 -0.94278793640E+03  0.94278793641E+03  0.50400000000E-02 0. -1.
    8880022    1    1    2    0    0  0.14201561154E+03  0.22421761923E+03  0.73629879858E+02  0.31504759469E+03  0.15294330000E+03 0.  0.
    8880022    1    1    2    0    0 -0.14201561154E+03 -0.22421761923E+03 -0.79354361628E+03  0.85061454176E+03  0.15294330000E+03 0.  0.
<mgrwt>
<rscale>  0 0.30632275E+03</rscale>
<asrwt>0</asrwt>
<pdfrwt beam="1">  1        1 0.14504430E+00 0.30632275E+03</pdfrwt>
<pdfrwt beam="2">  1       -1 0.34288339E-01 0.30632275E+03</pdfrwt>
<totfact> 0.14408554E+02</totfact>
</mgrwt>
</event>
<event>
 4    1  0.1852677E-008  0.6174538E+03  0.7818608E-02  0.9869842E-01
         -1   -1    0    0    0  501 -0.00000000000E+00  0.00000000000E+00  0.15580091571E+03  0.15580091579E+03  0.50400000000E-02 0.  1.
          1   -1    0    0  501    0  0.00000000000E+00 -0.00000000000E+00 -0.26123613973E+04  0.26123613973E+04  0.50400000000E-02 0. -1.
    8880022    1    1    2    0    0 -0.17313719118E+03 -0.57260898799E+03 -0.88008301406E+03  0.10750792086E+04  0.15294330000E+03 0.  0.
    8880022    1    1    2    0    0  0.17313719118E+03  0.57260898799E+03 -0.15764774675E+04  0.16930831045E+04  0.15294330000E+03 0.  0.
<mgrwt>
<rscale>  0 0.61745380E+03</rscale>
<asrwt>0</asrwt>
<pdfrwt beam="1">  1        1 0.40190172E+00 0.61745380E+03</pdfrwt>
<pdfrwt beam="2">  1       -1 0.23969374E-01 0.61745380E+03</pdfrwt>
<totfact> 0.18283246E+01</totfact>
</mgrwt>
</event>
<event>
 4    1  0.1852677E-008  0.8166046E+03  0.7818608E-02  0.9536289E-01
         -1   -1    0    0    0  501 -0.00000000000E+00  0.00000000000E+00  0.55449607292E+03  0.55449607294E+03  0.50400000000E-02 0.  1.
          1   -1    0    0  501    0  0.00000000000E+00 -0.00000000000E+00 -0.15733039442E+04  0.15733039442E+04  0.50400000000E-02 0. -1.
    8880022    1    1    2    0    0  0.66604456152E+03 -0.44703026320E+03 -0.10258222868E+04  0.13111652952E+04  0.15294330000E+03 0.  0.
    8880022    1    1    2    0    0 -0.66604456152E+03  0.44703026320E+03  0.70144154776E+01  0.81663472201E+03  0.15294330000E+03 0.  0.
<mgrwt>
<rscale>  0 0.81660460E+03</rscale>
<asrwt>0</asrwt>
<pdfrwt beam="1">  1        1 0.24204676E+00 0.81660460E+03</pdfrwt>
<pdfrwt beam="2">  1       -1 0.85307089E-01 0.81660460E+03</pdfrwt>
<totfact> 0.81468078E+00</totfact>
</mgrwt>
</event>
<event>
 4    1  0.1852677E-008  0.2030285E+03  0.7818608E-02  0.1147209E+00
          1   -1    0    0  501    0  0.00000000000E+00  0.00000000000E+00  0.12964444142E+04  0.12964444142E+04  0.50400000000E-02 0. -1.
         -1   -1    0    0    0  501 -0.00000000000E+00 -0.00000000000E+00 -0.11642610957E+03  0.11642610968E+03  0.50400000000E-02 0.  1.
    8880022    1    1    2    0    0 -0.71710832226E+02  0.11263428888E+03 -0.12289564217E+02  0.20340013002E+03  0.15294330000E+03 0.  1.
    8880022    1    1    2    0    0  0.71710832226E+02 -0.11263428888E+03  0.11923078689E+04  0.12094703939E+04  0.15294330000E+03 0.  0.
<mgrwt>
<rscale>  0 0.20302852E+03</rscale>
<asrwt>0</asrwt>
<pdfrwt beam="1">  1        1 0.19945300E+00 0.20302852E+03</pdfrwt>
<pdfrwt beam="2">  1       -1 0.17911708E-01 0.20302852E+03</pdfrwt>
<totfact> 0.24183985E+02</totfact>
</mgrwt>
</event>
<event>
 4    1  0.1852677E-008  0.4763815E+03  0.7818608E-02  0.1020134E+00
         -1   -1    0    0    0  501 -0.00000000000E+00  0.00000000000E+00  0.26354228203E+03  0.26354228208E+03  0.50400000000E-02 0.  1.
          1   -1    0    0  501    0  0.00000000000E+00 -0.00000000000E+00 -0.92896483991E+03  0.92896483993E+03  0.50400000000E-02 0. -1.
    8880022    1    1    2    0    0 -0.43486664379E+03  0.12016108094E+03 -0.17156644092E+03  0.50633425710E+03  0.15294330000E+03 0.  0.
    8880022    1    1    2    0    0  0.43486664379E+03 -0.12016108094E+03 -0.49385611696E+03  0.68617286490E+03  0.15294330000E+03 0.  0.
<mgrwt>
<rscale>  0 0.47638150E+03</rscale>
<asrwt>0</asrwt>
<pdfrwt beam="1">  1        1 0.14291767E+00 0.47638150E+03</pdfrwt>
<pdfrwt beam="2">  1       -1 0.40544967E-01 0.47638150E+03</pdfrwt>
<totfact> 0.10708293E+02</totfact>
</mgrwt>
</event>
<event>
 4    1  0.1852677E-008  0.6538688E+03  0.7818608E-02  0.9799547E-01
         -1   -1    0    0    0  501 -0.00000000000E+00  0.00000000000E+00  0.62733499168E+03  0.62733499170E+03  0.50400000000E-02 0.  1.
          1   -1    0    0  501    0  0.00000000000E+00 -0.00000000000E+00 -0.13612922409E+04  0.13612922409E+04  0.50400000000E-02 0. -1.
    8880022    1    1    2    0    0  0.32371311120E+03 -0.54714037667E+03  0.33565324910E+03  0.73498811337E+03  0.15294330000E+03 0.  0.
    8880022    1    1    2    0    0 -0.32371311120E+03  0.54714037667E+03 -0.10696104983E+04  0.12536391192E+04  0.15294330000E+03 0.  0.
<mgrwt>
<rscale>  0 0.65386881E+03</rscale>
<asrwt>0</asrwt>
<pdfrwt beam="1">  1        1 0.20942957E+00 0.65386881E+03</pdfrwt>
<pdfrwt beam="2">  1       -1 0.96513076E-01 0.65386881E+03</pdfrwt>
<totfact> 0.89051564E+00</totfact>
</mgrwt>
</event>
<event>
 4    1  0.1852677E-008  0.1101528E+04  0.7818608E-02  0.9203704E-01
         -1   -1    0    0    0  501 -0.00000000000E+00  0.00000000000E+00  0.47601764559E+03  0.47601764562E+03  0.50400000000E-02 0.  1.
          1   -1    0    0  501    0  0.00000000000E+00 -0.00000000000E+00 -0.33643833071E+04  0.33643833071E+04  0.50400000000E-02 0. -1.
    8880022    1    1    2    0    0  0.10378762438E+04  0.33583352714E+03 -0.23895012988E+04  0.26311745220E+04  0.15294330000E+03 0.  0.
    8880022    1    1    2    0    0 -0.10378762438E+04 -0.33583352714E+03 -0.49886436278E+03  0.12092264308E+04  0.15294330000E+03 0.  0.
<mgrwt>
<rscale>  0 0.11015275E+04</rscale>
<asrwt>0</asrwt>
<pdfrwt beam="1">  1        1 0.51759742E+00 0.11015275E+04</pdfrwt>
<pdfrwt beam="2">  1       -1 0.73233486E-01 0.11015275E+04</pdfrwt>
<totfact> 0.61053567E-01</totfact>
</mgrwt>
</event>
<event>
 4    1  0.1852677E-008  0.6417709E+03  0.7818608E-02  0.9822344E-01
          1   -1    0    0  501    0  0.00000000000E+00  0.00000000000E+00  0.14863005693E+04  0.14863005693E+04  0.50400000000E-02 0. -1.
         -1   -1    0    0    0  501 -0.00000000000E+00 -0.00000000000E+00 -0.40059078742E+03  0.40059078745E+03  0.50400000000E-02 0.  1.
    8880022    1    1    2    0    0 -0.35080253871E+03 -0.51518527146E+03  0.19055835350E+02  0.64205378511E+03  0.15294330000E+03 0.  0.
    8880022    1    1    2    0    0  0.35080253871E+03  0.51518527146E+03  0.10666539465E+04  0.12448375716E+04  0.15294330000E+03 0.  0.
<mgrwt>
<rscale>  0 0.64177094E+03</rscale>
<asrwt>0</asrwt>
<pdfrwt beam="1">  1        1 0.22866163E+00 0.64177094E+03</pdfrwt>
<pdfrwt beam="2">  1       -1 0.61629351E-01 0.64177094E+03</pdfrwt>
<totfact> 0.18770900E+01</totfact>
</mgrwt>
</event>
<event>
 4    1  0.1852677E-008  0.4699581E+03  0.7818608E-02  0.1021932E+00
         -1   -1    0    0    0  501 -0.00000000000E+00  0.00000000000E+00  0.43719913529E+03  0.43719913532E+03  0.50400000000E-02 0.  1.
          1   -1    0    0  501    0  0.00000000000E+00 -0.00000000000E+00 -0.62234846220E+03  0.62234846222E+03  0.50400000000E-02 0. -1.
    8880022    1    1    2    0    0 -0.39276157650E+03  0.20786378550E+03 -0.32245100495E+03  0.56994325411E+03  0.15294330000E+03 0.  0.
    8880022    1    1    2    0    0  0.39276157650E+03 -0.20786378550E+03  0.13730167804E+03  0.48960434343E+03  0.15294330000E+03 0.  0.
<mgrwt>
<rscale>  0 0.46995815E+03</rscale>
<asrwt>0</asrwt>
<pdfrwt beam="1">  1        1 0.95745917E-01 0.46995815E+03</pdfrwt>
<pdfrwt beam="2">  1       -1 0.67261406E-01 0.46995815E+03</pdfrwt>
<totfact> 0.76190455E+01</totfact>
</mgrwt>
</event>
<event>
 4    1  0.1852677E-008  0.5796462E+03  0.7818608E-02  0.9948557E-01
         -1   -1    0    0    0  501 -0.00000000000E+00  0.00000000000E+00  0.94848759431E+03  0.94848759433E+03  0.50400000000E-02 0.  1.
          1   -1    0    0  501    0  0.00000000000E+00 -0.00000000000E+00 -0.63454427165E+03  0.63454427167E+03  0.50400000000E-02 0. -1.
    8880022    1    1    2    0    0  0.53994119804E+03 -0.14512598423E+03  0.68304420165E+03  0.89584545713E+03  0.15294330000E+03 0.  0.
    8880022    1    1    2    0    0 -0.53994119804E+03  0.14512598423E+03 -0.36910087899E+03  0.68718640887E+03  0.15294330000E+03 0.  0.
<mgrwt>
<rscale>  0 0.57964619E+03</rscale>
<asrwt>0</asrwt>
<pdfrwt beam="1">  1        1 0.97622197E-01 0.57964619E+03</pdfrwt>
<pdfrwt beam="2">  1       -1 0.14592117E+00 0.57964619E+03</pdfrwt>
<totfact> 0.12500010E+01</totfact>
</mgrwt>
</event>
<event>
 4    1  0.1852677E-008  0.2204594E+03  0.7818608E-02  0.1133541E+00
          1   -1    0    0  501    0  0.00000000000E+00  0.00000000000E+00  0.28061743437E+03  0.28061743442E+03  0.50400000000E-02 0. -1.
         -1   -1    0    0    0  501 -0.00000000000E+00 -0.00000000000E+00 -0.57448496830E+03  0.57448496833E+03  0.50400000000E-02 0.  1.
    8880022    1    1    2    0    0 -0.13808050560E+03  0.78386675787E+02 -0.50426944413E+03  0.55035445148E+03  0.15294330000E+03 0.  0.
    8880022    1    1    2    0    0  0.13808050560E+03 -0.78386675787E+02  0.21040191020E+03  0.30474795126E+03  0.15294330000E+03 0. -1.
<mgrwt>
<rscale>  0 0.22045941E+03</rscale>
<asrwt>0</asrwt>
<pdfrwt beam="1">  1        1 0.43171913E-01 0.22045941E+03</pdfrwt>
<pdfrwt beam="2">  1       -1 0.88382302E-01 0.22045941E+03</pdfrwt>
<totfact> 0.12815887E+02</totfact>
</mgrwt>
</event>
<event>
 4    1  0.1852677E-008  0.5124723E+03  0.7818608E-02  0.1010574E+00
         -1   -1    0    0    0  501 -0.00000000000E+00  0.00000000000E+00  0.17127163942E+03  0.17127163950E+03  0.50400000000E-02 0.  1.
          1   -1    0    0  501    0  0.00000000000E+00 -0.00000000000E+00 -0.15346034165E+04  0.15346034165E+04  0.50400000000E-02 0. -1.
    8880022    1    1    2    0    0  0.36466396236E+02  0.48775647687E+03 -0.65777498271E+03  0.83384396603E+03  0.15294330000E+03 0. -1.
    8880022    1    1    2    0    0 -0.36466396236E+02 -0.48775647687E+03 -0.70555679434E+03  0.87203108995E+03  0.15294330000E+03 0.  1.
<mgrwt>
<rscale>  0 0.51247227E+03</rscale>
<asrwt>0</asrwt>
<pdfrwt beam="1">  1        1 0.23609282E+00 0.51247227E+03</pdfrwt>
<pdfrwt beam="2">  1       -1 0.26349484E-01 0.51247227E+03</pdfrwt>
<totfact> 0.83416723E+01</totfact>
</mgrwt>
</event>
<event>
 4    1  0.1852677E-008  0.3241142E+03  0.7818608E-02  0.1073771E+00
          1   -1    0    0  501    0  0.00000000000E+00  0.00000000000E+00  0.10558275451E+04  0.10558275451E+04  0.50400000000E-02 0. -1.
         -1   -1    0    0    0  501 -0.00000000000E+00 -0.00000000000E+00 -0.18324278646E+04  0.18324278646E+04  0.50400000000E-02 0.  1.
    8880022    1    1    2    0    0  0.17724453784E+03 -0.22414891118E+03 -0.17926747776E+04  0.18217389692E+04  0.15294330000E+03 0.  0.
    8880022    1    1    2    0    0 -0.17724453784E+03  0.22414891118E+03  0.10160744580E+04  0.10665164405E+04  0.15294330000E+03 0.  0.
<mgrwt>
<rscale>  0 0.32411420E+03</rscale>
<asrwt>0</asrwt>
<pdfrwt beam="1">  1        1 0.16243501E+00 0.32411420E+03</pdfrwt>
<pdfrwt beam="2">  1       -1 0.28191198E+00 0.32411420E+03</pdfrwt>
<totfact> 0.72060357E-01</totfact>
</mgrwt>
</event>
<event>
 4    1  0.1852677E-008  0.6372435E+03  0.7818608E-02  0.9831015E-01
          1   -1    0    0  501    0  0.00000000000E+00  0.00000000000E+00  0.11175812773E+04  0.11175812774E+04  0.50400000000E-02 0. -1.
         -1   -1    0    0    0  501 -0.00000000000E+00 -0.00000000000E+00 -0.92103049838E+03  0.92103049840E+03  0.50400000000E-02 0.  1.
    8880022    1    1    2    0    0  0.37467939660E+03  0.49224281557E+03  0.89143048453E+03  0.10957771678E+04  0.15294330000E+03 0.  0.
    8880022    1    1    2    0    0 -0.37467939660E+03 -0.49224281557E+03 -0.69487970557E+03  0.94283460795E+03  0.15294330000E+03 0.  0.
<mgrwt>
<rscale>  0 0.63724351E+03</rscale>
<asrwt>0</asrwt>
<pdfrwt beam="1">  1        1 0.17193558E+00 0.63724351E+03</pdfrwt>
<pdfrwt beam="2">  1       -1 0.14169700E+00 0.63724351E+03</pdfrwt>
<totfact> 0.52818422E+00</totfact>
</mgrwt>
</event>
<event>
 4    1  0.1852677E-008  0.7955074E+03  0.7818608E-02  0.9566543E-01
          1   -1    0    0  501    0  0.00000000000E+00  0.00000000000E+00  0.13837912656E+04  0.13837912656E+04  0.50400000000E-02 0. -1.
         -1   -1    0    0    0  501 -0.00000000000E+00 -0.00000000000E+00 -0.93388461158E+03  0.93388461160E+03  0.50400000000E-02 0.  1.
    8880022    1    1    2    0    0 -0.41745679987E+03  0.65967427661E+03 -0.60287088054E+03  0.99814091320E+03  0.15294330000E+03 0.  0.
    8880022    1    1    2    0    0  0.41745679987E+03 -0.65967427661E+03  0.10527775346E+04  0.13195349640E+04  0.15294330000E+03 0.  0.
<mgrwt>
<rscale>  0 0.79550738E+03</rscale>
<asrwt>0</asrwt>
<pdfrwt beam="1">  1        1 0.21289096E+00 0.79550738E+03</pdfrwt>
<pdfrwt beam="2">  1       -1 0.14367456E+00 0.79550738E+03</pdfrwt>
<totfact> 0.31956312E+00</totfact>
</mgrwt>
</event>
<event>
 4    1  0.1852677E-008  0.4605475E+03  0.7818608E-02  0.1024623E+00
         -1   -1    0    0    0  501 -0.00000000000E+00  0.00000000000E+00  0.39444319914E+03  0.39444319917E+03  0.50400000000E-02 0.  1.
          1   -1    0    0  501    0  0.00000000000E+00 -0.00000000000E+00 -0.24419787191E+04  0.24419787191E+04  0.50400000000E-02 0. -1.
    8880022    1    1    2    0    0 -0.43365557978E+03  0.25597390108E+02  0.22859950361E+03  0.51416123377E+03  0.15294330000E+03 0.  0.
    8880022    1    1    2    0    0  0.43365557978E+03 -0.25597390108E+02 -0.22761350235E+04  0.23222606845E+04  0.15294330000E+03 0.  0.
<mgrwt>
<rscale>  0 0.46054755E+03</rscale>
<asrwt>0</asrwt>
<pdfrwt beam="1">  1        1 0.37568902E+00 0.46054755E+03</pdfrwt>
<pdfrwt beam="2">  1       -1 0.60683571E-01 0.46054755E+03</pdfrwt>
<totfact> 0.46389902E+00</totfact>
</mgrwt>
</event>
<event>
 4    1  0.1852677E-008  0.2510651E+03  0.7818608E-02  0.1112634E+00
          1   -1    0    0  501    0  0.00000000000E+00  0.00000000000E+00  0.14941593159E+04  0.14941593159E+04  0.50400000000E-02 0. -1.
         -1   -1    0    0    0  501 -0.00000000000E+00 -0.00000000000E+00 -0.93968851166E+02  0.93968851301E+02  0.50400000000E-02 0.  1.
    8880022    1    1    2    0    0 -0.13083682200E+03 -0.15007910336E+03  0.12895542292E+04  0.13137670167E+04  0.15294330000E+03 0.  0.
    8880022    1    1    2    0    0  0.13083682200E+03  0.15007910336E+03  0.11063623556E+03  0.27436115048E+03  0.15294330000E+03 0.  0.
<mgrwt>
<rscale>  0 0.25106506E+03</rscale>
<asrwt>0</asrwt>
<pdfrwt beam="1">  1        1 0.22987065E+00 0.25106506E+03</pdfrwt>
<pdfrwt beam="2">  1       -1 0.14456747E-01 0.25106506E+03</pdfrwt>
<totfact> 0.24840619E+02</totfact>
</mgrwt>
</event>
<event>
 4    1  0.1852677E-008  0.5898536E+03  0.7818608E-02  0.9926683E-01
          1   -1    0    0  501    0  0.00000000000E+00  0.00000000000E+00  0.51434130714E+03  0.51434130716E+03  0.50400000000E-02 0. -1.
         -1   -1    0    0    0  501 -0.00000000000E+00 -0.00000000000E+00 -0.10187801452E+04  0.10187801452E+04  0.50400000000E-02 0.  1.
    8880022    1    1    2    0    0 -0.32192782049E+03 -0.46999801314E+03 -0.69657179591E+03  0.91276479656E+03  0.15294330000E+03 0.  0.
    8880022    1    1    2    0    0  0.32192782049E+03  0.46999801314E+03  0.19213295782E+03  0.62035665585E+03  0.15294330000E+03 0.  0.
<mgrwt>
<rscale>  0 0.58985363E+03</rscale>
<asrwt>0</asrwt>
<pdfrwt beam="1">  1        1 0.79129432E-01 0.58985363E+03</pdfrwt>
<pdfrwt beam="2">  1       -1 0.15673541E+00 0.58985363E+03</pdfrwt>
<totfact> 0.13854441E+01</totfact>
</mgrwt>
</event>
<event>
 4    1  0.1852677E-008  0.2218062E+03  0.7818608E-02  0.1132544E+00
          1   -1    0    0  501    0  0.00000000000E+00  0.00000000000E+00  0.97546808852E+03  0.97546808853E+03  0.50400000000E-02 0. -1.
         -1   -1    0    0    0  501 -0.00000000000E+00 -0.00000000000E+00 -0.11224918533E+03  0.11224918544E+03  0.50400000000E-02 0.  1.
    8880022    1    1    2    0    0 -0.12493552471E+02  0.16015689362E+03  0.83519689332E+03  0.86414803307E+03  0.15294330000E+03 0.  0.
    8880022    1    1    2    0    0  0.12493552471E+02 -0.16015689362E+03  0.28022009868E+02  0.22356924090E+03  0.15294330000E+03 0.  1.
<mgrwt>
<rscale>  0 0.22180616E+03</rscale>
<asrwt>0</asrwt>
<pdfrwt beam="1">  1        1 0.15007202E+00 0.22180616E+03</pdfrwt>
<pdfrwt beam="2">  1       -1 0.17269105E-01 0.22180616E+03</pdfrwt>
<totfact> 0.43225739E+02</totfact>
</mgrwt>
</event>
<event>
 4    1  0.1852677E-008  0.4372454E+03  0.7818608E-02  0.1031595E+00
          1   -1    0    0  501    0  0.00000000000E+00  0.00000000000E+00  0.23030982504E+04  0.23030982504E+04  0.50400000000E-02 0. -1.
         -1   -1    0    0    0  501 -0.00000000000E+00 -0.00000000000E+00 -0.16964892287E+03  0.16964892294E+03  0.50400000000E-02 0.  1.
    8880022    1    1    2    0    0 -0.39059331583E+03  0.12340479122E+03  0.19502663480E+04  0.19986801550E+04  0.15294330000E+03 0.  0.
    8880022    1    1    2    0    0  0.39059331583E+03 -0.12340479122E+03  0.18318297952E+03  0.47406701833E+03  0.15294330000E+03 0.  0.
<mgrwt>
<rscale>  0 0.43724539E+03</rscale>
<asrwt>0</asrwt>
<pdfrwt beam="1">  1        1 0.35432279E+00 0.43724539E+03</pdfrwt>
<pdfrwt beam="2">  1       -1 0.26099836E-01 0.43724539E+03</pdfrwt>
<totfact> 0.26585970E+01</totfact>
</mgrwt>
</event>
<event>
 4    1  0.1852677E-008  0.6151998E+03  0.7818608E-02  0.9874364E-01
          1   -1    0    0  501    0  0.00000000000E+00  0.00000000000E+00  0.10898710933E+04  0.10898710933E+04  0.50400000000E-02 0. -1.
         -1   -1    0    0    0  501 -0.00000000000E+00 -0.00000000000E+00 -0.52342816017E+03  0.52342816020E+03  0.50400000000E-02 0.  1.
    8880022    1    1    2    0    0 -0.51036081924E+03 -0.30758894866E+03  0.75119110745E+03  0.97095770252E+03  0.15294330000E+03 0.  0.
    8880022    1    1    2    0    0  0.51036081924E+03  0.30758894866E+03 -0.18474817435E+03  0.64234155096E+03  0.15294330000E+03 0.  0.
<mgrwt>
<rscale>  0 0.61519979E+03</rscale>
<asrwt>0</asrwt>
<pdfrwt beam="1">  1        1 0.16767248E+00 0.61519979E+03</pdfrwt>
<pdfrwt beam="2">  1       -1 0.80527410E-01 0.61519979E+03</pdfrwt>
<totfact> 0.20818571E+01</totfact>
</mgrwt>
</event>
<event>
 4    1  0.1852677E-008  0.7329282E+03  0.7818608E-02  0.9662521E-01
         -1   -1    0    0    0  501 -0.00000000000E+00  0.00000000000E+00  0.13534436009E+04  0.13534436009E+04  0.50400000000E-02 0.  1.
          1   -1    0    0  501    0  0.00000000000E+00 -0.00000000000E+00 -0.64227319210E+03  0.64227319212E+03  0.50400000000E-02 0. -1.
    8880022    1    1    2    0    0  0.41397430629E+03 -0.58516433883E+03 -0.26118206851E+03  0.77807438952E+03  0.15294330000E+03 0.  0.
    8880022    1    1    2    0    0 -0.41397430629E+03  0.58516433883E+03  0.97235247734E+03  0.12176424035E+04  0.15294330000E+03 0.  0.
<mgrwt>
<rscale>  0 0.73292816E+03</rscale>
<asrwt>0</asrwt>
<pdfrwt beam="1">  1        1 0.98811262E-01 0.73292816E+03</pdfrwt>
<pdfrwt beam="2">  1       -1 0.20822209E+00 0.73292816E+03</pdfrwt>
<totfact> 0.42635465E+00</totfact>
</mgrwt>
</event>
<event>
 4    1  0.1852677E-008  0.2565773E+03  0.7818608E-02  0.1109217E+00
          1   -1    0    0  501    0  0.00000000000E+00  0.00000000000E+00  0.17190933934E+04  0.17190933934E+04  0.50400000000E-02 0. -1.
         -1   -1    0    0    0  501 -0.00000000000E+00 -0.00000000000E+00 -0.50924716434E+02  0.50924716684E+02  0.50400000000E-02 0.  1.
    8880022    1    1    2    0    0  0.90095960340E+02 -0.18526457432E+03  0.39333867668E+03  0.46962454382E+03  0.15294330000E+03 0.  0.
    8880022    1    1    2    0    0 -0.90095960340E+02  0.18526457432E+03  0.12748300003E+04  0.13003935662E+04  0.15294330000E+03 0.  0.
<mgrwt>
<rscale>  0 0.25657727E+03</rscale>
<asrwt>0</asrwt>
<pdfrwt beam="1">  1        1 0.26447590E+00 0.25657727E+03</pdfrwt>
<pdfrwt beam="2">  1       -1 0.78345720E-02 0.25657727E+03</pdfrwt>
<totfact> 0.45826785E+02</totfact>
</mgrwt>
</event>
<event>
 4    1  0.1852677E-008  0.5845091E+03  0.7818608E-02  0.9938076E-01
          1   -1    0    0  501    0  0.00000000000E+00  0.00000000000E+00  0.24149445527E+04  0.24149445527E+04  0.50400000000E-02 0. -1.
         -1   -1    0    0    0  501 -0.00000000000E+00 -0.00000000000E+00 -0.36660290786E+03  0.36660290789E+03  0.50400000000E-02 0.  1.
    8880022    1    1    2    0    0 -0.56400585032E+03  0.12514066396E+02  0.21140404817E+04  0.21933577027E+04  0.15294330000E+03 0.  0.
    8880022    1    1    2    0    0  0.56400585032E+03 -0.12514066396E+02 -0.65698836842E+02  0.58818975784E+03  0.15294330000E+03 0.  0.
<mgrwt>
<rscale>  0 0.58450907E+03</rscale>
<asrwt>0</asrwt>
<pdfrwt beam="1">  1        1 0.37152992E+00 0.58450907E+03</pdfrwt>
<pdfrwt beam="2">  1       -1 0.56400450E-01 0.58450907E+03</pdfrwt>
<totfact> 0.53952593E+00</totfact>
</mgrwt>
</event>
<event>
 4    1  0.1852677E-008  0.3539406E+03  0.7818608E-02  0.1061009E+00
          1   -1    0    0  501    0  0.00000000000E+00  0.00000000000E+00  0.10267139343E+04  0.10267139343E+04  0.50400000000E-02 0. -1.
         -1   -1    0    0    0  501 -0.00000000000E+00 -0.00000000000E+00 -0.54108112479E+03  0.54108112482E+03  0.50400000000E-02 0.  1.
    8880022    1    1    2    0    0 -0.31824111295E+03 -0.24594242260E+02 -0.44705741942E+03  0.57020546472E+03  0.15294330000E+03 0.  1.
    8880022    1    1    2    0    0  0.31824111295E+03  0.24594242260E+02  0.93269022890E+03  0.99758959438E+03  0.15294330000E+03 0.  0.
<mgrwt>
<rscale>  0 0.35394058E+03</rscale>
<asrwt>0</asrwt>
<pdfrwt beam="1">  1        1 0.15795599E+00 0.35394058E+03</pdfrwt>
<pdfrwt beam="2">  1       -1 0.83243250E-01 0.35394058E+03</pdfrwt>
<totfact> 0.22769568E+01</totfact>
</mgrwt>
</event>
<event>
 4    1  0.1852677E-008  0.7303118E+03  0.7818608E-02  0.9666754E-01
         -1   -1    0    0    0  501 -0.00000000000E+00  0.00000000000E+00  0.21808736387E+04  0.21808736387E+04  0.50400000000E-02 0.  1.
          1   -1    0    0  501    0  0.00000000000E+00 -0.00000000000E+00 -0.43200860037E+03  0.43200860040E+03  0.50400000000E-02 0. -1.
    8880022    1    1    2    0    0  0.19366645293E+03 -0.68735509216E+03  0.13866366870E+02  0.73044345904E+03  0.15294330000E+03 0. -1.
    8880022    1    1    2    0    0 -0.19366645293E+03  0.68735509216E+03  0.17349986715E+04  0.18824387801E+04  0.15294330000E+03 0.  0.
<mgrwt>
<rscale>  0 0.73031183E+03</rscale>
<asrwt>0</asrwt>
<pdfrwt beam="1">  1        1 0.66462863E-01 0.73031183E+03</pdfrwt>
<pdfrwt beam="2">  1       -1 0.33551901E+00 0.73031183E+03</pdfrwt>
<totfact> 0.11146988E+00</totfact>
</mgrwt>
</event>
<event>
 4    1  0.1852677E-008  0.9090382E+03  0.7818608E-02  0.9414353E-01
         -1   -1    0    0    0  501 -0.00000000000E+00  0.00000000000E+00  0.42547525513E+03  0.42547525516E+03  0.50400000000E-02 0.  1.
          1   -1    0    0  501    0  0.00000000000E+00 -0.00000000000E+00 -0.38313106804E+04  0.38313106804E+04  0.50400000000E-02 0. -1.
    8880022    1    1    2    0    0 -0.76960956071E+03  0.45897695956E+03 -0.31974623890E+04  0.33241714919E+04  0.15294330000E+03 0.  0.
    8880022    1    1    2    0    0  0.76960956071E+03 -0.45897695956E+03 -0.20837303629E+03  0.93261444371E+03  0.15294330000E+03 0.  0.
<mgrwt>
<rscale>  0 0.90903816E+03</rscale>
<asrwt>0</asrwt>
<pdfrwt beam="1">  1        1 0.58943239E+00 0.90903816E+03</pdfrwt>
<pdfrwt beam="2">  1       -1 0.65457734E-01 0.90903816E+03</pdfrwt>
<totfact> 0.33899587E-01</totfact>
</mgrwt>
</event>
<event>
 4    1  0.1852677E-008  0.4715375E+03  0.7818608E-02  0.1021487E+00
          1   -1    0    0  501    0  0.00000000000E+00  0.00000000000E+00  0.78013433022E+03  0.78013433023E+03  0.50400000000E-02 0. -1.
         -1   -1    0    0    0  501 -0.00000000000E+00 -0.00000000000E+00 -0.50709729401E+03  0.50709729403E+03  0.50400000000E-02 0.  1.
    8880022    1    1    2    0    0  0.16011300290E+03 -0.41631695808E+03  0.56245120623E+03  0.73396116770E+03  0.15294330000E+03 0.  0.
    8880022    1    1    2    0    0 -0.16011300290E+03  0.41631695808E+03 -0.28941417002E+03  0.55327045657E+03  0.15294330000E+03 0.  0.
<mgrwt>
<rscale>  0 0.47153752E+03</rscale>
<asrwt>0</asrwt>
<pdfrwt beam="1">  1        1 0.12002067E+00 0.47153752E+03</pdfrwt>
<pdfrwt beam="2">  1       -1 0.78014969E-01 0.47153752E+03</pdfrwt>
<totfact> 0.40145359E+01</totfact>
</mgrwt>
</event>
<event>
 4    1  0.1852677E-008  0.7869505E+03  0.7818608E-02  0.9579100E-01
          1   -1    0    0  501    0  0.00000000000E+00  0.00000000000E+00  0.84564431506E+03  0.84564431507E+03  0.50400000000E-02 0. -1.
         -1   -1    0    0    0  501 -0.00000000000E+00 -0.00000000000E+00 -0.11023561776E+04  0.11023561776E+04  0.50400000000E-02 0.  1.
    8880022    1    1    2    0    0 -0.67007314273E+03  0.38327711677E+03  0.43594933287E+03  0.89963483630E+03  0.15294330000E+03 0.  0.
    8880022    1    1    2    0    0  0.67007314273E+03 -0.38327711677E+03 -0.69266119543E+03  0.10483656564E+04  0.15294330000E+03 0.  0.
<mgrwt>
<rscale>  0 0.78695045E+03</rscale>
<asrwt>0</asrwt>
<pdfrwt beam="1">  1        1 0.13009913E+00 0.78695045E+03</pdfrwt>
<pdfrwt beam="2">  1       -1 0.16959326E+00 0.78695045E+03</pdfrwt>
<totfact> 0.51549873E+00</totfact>
</mgrwt>
</event>
<event>
 4    1  0.1852677E-008  0.8222909E+03  0.7818608E-02  0.9528301E-01
         -1   -1    0    0    0  501 -0.00000000000E+00  0.00000000000E+00  0.64993586386E+03  0.64993586388E+03  0.50400000000E-02 0.  1.
          1   -1    0    0  501    0  0.00000000000E+00 -0.00000000000E+00 -0.12239031177E+04  0.12239031177E+04  0.50400000000E-02 0. -1.
    8880022    1    1    2    0    0  0.40980878488E+03 -0.69629555885E+03  0.75849292045E+02  0.82578175903E+03  0.15294330000E+03 0.  0.
    8880022    1    1    2    0    0 -0.40980878488E+03  0.69629555885E+03 -0.64981654590E+03  0.10480572226E+04  0.15294330000E+03 0.  0.
<mgrwt>
<rscale>  0 0.82229095E+03</rscale>
<asrwt>0</asrwt>
<pdfrwt beam="1">  1        1 0.18829279E+00 0.82229095E+03</pdfrwt>
<pdfrwt beam="2">  1       -1 0.99990133E-01 0.82229095E+03</pdfrwt>
<totfact> 0.10027681E+01</totfact>
</mgrwt>
</event>
<event>
 4    1  0.1852677E-008  0.4958074E+03  0.7818608E-02  0.1014879E+00
          1   -1    0    0  501    0  0.00000000000E+00  0.00000000000E+00  0.60816793354E+03  0.60816793356E+03  0.50400000000E-02 0. -1.
         -1   -1    0    0    0  501 -0.00000000000E+00 -0.00000000000E+00 -0.13344433218E+04  0.13344433218E+04  0.50400000000E-02 0.  1.
    8880022    1    1    2    0    0  0.15179591643E+03  0.44653259084E+03  0.44782852605E+03  0.66811331126E+03  0.15294330000E+03 0.  0.
    8880022    1    1    2    0    0 -0.15179591643E+03 -0.44653259084E+03 -0.11741039143E+04  0.12744979441E+04  0.15294330000E+03 0.  0.
<mgrwt>
<rscale>  0 0.49580743E+03</rscale>
<asrwt>0</asrwt>
<pdfrwt beam="1">  1        1 0.93564298E-01 0.49580743E+03</pdfrwt>
<pdfrwt beam="2">  1       -1 0.20529897E+00 0.49580743E+03</pdfrwt>
<totfact> 0.50453363E+00</totfact>
</mgrwt>
</event>
<event>
 4    1  0.1852677E-008  0.4596168E+03  0.7818608E-02  0.1024892E+00
          1   -1    0    0  501    0  0.00000000000E+00  0.00000000000E+00  0.19898732063E+03  0.19898732069E+03  0.50400000000E-02 0. -1.
         -1   -1    0    0    0  501 -0.00000000000E+00 -0.00000000000E+00 -0.15324395737E+04  0.15324395737E+04  0.50400000000E-02 0.  1.
    8880022    1    1    2    0    0  0.39053339039E+03  0.18798835791E+03 -0.11465841779E+04  0.12352744156E+04  0.15294330000E+03 0.  0.
    8880022    1    1    2    0    0 -0.39053339039E+03 -0.18798835791E+03 -0.18686807515E+03  0.49615247882E+03  0.15294330000E+03 0.  0.
<mgrwt>
<rscale>  0 0.45961680E+03</rscale>
<asrwt>0</asrwt>
<pdfrwt beam="1">  1        1 0.30613435E-01 0.45961680E+03</pdfrwt>
<pdfrwt beam="2">  1       -1 0.23575993E+00 0.45961680E+03</pdfrwt>
<totfact> 0.13912919E+01</totfact>
</mgrwt>
</event>
<event>
 4    1  0.1852677E-008  0.6043788E+03  0.7818608E-02  0.9896363E-01
          1   -1    0    0  501    0  0.00000000000E+00  0.00000000000E+00  0.18193367975E+04  0.18193367975E+04  0.50400000000E-02 0. -1.
         -1   -1    0    0    0  501 -0.00000000000E+00 -0.00000000000E+00 -0.46399416814E+03  0.46399416817E+03  0.50400000000E-02 0.  1.
    8880022    1    1    2    0    0 -0.47800648743E+03 -0.33673718789E+03 -0.18221884433E+03  0.63125073939E+03  0.15294330000E+03 0.  0.
    8880022    1    1    2    0    0  0.47800648743E+03  0.33673718789E+03  0.15375614737E+04  0.16520802263E+04  0.15294330000E+03 0.  0.
<mgrwt>
<rscale>  0 0.60437885E+03</rscale>
<asrwt>0</asrwt>
<pdfrwt beam="1">  1        1 0.27989797E+00 0.60437885E+03</pdfrwt>
<pdfrwt beam="2">  1       -1 0.71383719E-01 0.60437885E+03</pdfrwt>
<totfact> 0.83944965E+00</totfact>
</mgrwt>
</event>
<event>
 4    1  0.1852677E-008  0.2685690E+03  0.7818608E-02  0.1102101E+00
         -1   -1    0    0    0  501 -0.00000000000E+00  0.00000000000E+00  0.28653539827E+03  0.28653539831E+03  0.50400000000E-02 0.  1.
          1   -1    0    0  501    0  0.00000000000E+00 -0.00000000000E+00 -0.33764001167E+03  0.33764001171E+03  0.50400000000E-02 0. -1.
    8880022    1    1    2    0    0  0.21224339839E+03 -0.60748452049E+02  0.13187278732E+03  0.29919846195E+03  0.15294330000E+03 0.  0.
    8880022    1    1    2    0    0 -0.21224339839E+03  0.60748452049E+02 -0.18297740072E+03  0.32497694807E+03  0.15294330000E+03 0.  0.
<mgrwt>
<rscale>  0 0.26856896E+03</rscale>
<asrwt>0</asrwt>
<pdfrwt beam="1">  1        1 0.51944618E-01 0.26856896E+03</pdfrwt>
<pdfrwt beam="2">  1       -1 0.44082369E-01 0.26856896E+03</pdfrwt>
<totfact> 0.39283408E+02</totfact>
</mgrwt>
</event>
<event>
 4    1  0.1852677E-008  0.8204330E+03  0.7818608E-02  0.9530903E-01
          1   -1    0    0  501    0  0.00000000000E+00  0.00000000000E+00  0.75372797797E+03  0.75372797799E+03  0.50400000000E-02 0. -1.
         -1   -1    0    0    0  501 -0.00000000000E+00 -0.00000000000E+00 -0.10859520375E+04  0.10859520375E+04  0.50400000000E-02 0.  1.
    8880022    1    1    2    0    0  0.70311097984E+03  0.39414918565E+03 -0.55380244882E+03  0.98985222930E+03  0.15294330000E+03 0.  0.
    8880022    1    1    2    0    0 -0.70311097984E+03 -0.39414918565E+03  0.22157838932E+03  0.84982778617E+03  0.15294330000E+03 0.  0.
<mgrwt>
<rscale>  0 0.82043299E+03</rscale>
<asrwt>0</asrwt>
<pdfrwt beam="1">  1        1 0.11595815E+00 0.82043299E+03</pdfrwt>
<pdfrwt beam="2">  1       -1 0.16706954E+00 0.82043299E+03</pdfrwt>
<totfact> 0.64364747E+00</totfact>
</mgrwt>
</event>
<event>
 4    1  0.1852677E-008  0.3679689E+03  0.7818608E-02  0.1055472E+00
         -1   -1    0    0    0  501 -0.00000000000E+00  0.00000000000E+00  0.66483677444E+03  0.66483677445E+03  0.50400000000E-02 0.  1.
          1   -1    0    0  501    0  0.00000000000E+00 -0.00000000000E+00 -0.46362158950E+03  0.46362158952E+03  0.50400000000E-02 0. -1.
    8880022    1    1    2    0    0 -0.11477125428E+03 -0.31438356062E+03  0.52310858438E+03  0.63956524926E+03  0.15294330000E+03 0.  1.
    8880022    1    1    2    0    0  0.11477125428E+03  0.31438356062E+03 -0.32189339944E+03  0.48889311471E+03  0.15294330000E+03 0.  0.
<mgrwt>
<rscale>  0 0.36796891E+03</rscale>
<asrwt>0</asrwt>
<pdfrwt beam="1">  1        1 0.71326398E-01 0.36796891E+03</pdfrwt>
<pdfrwt beam="2">  1       -1 0.10228258E+00 0.36796891E+03</pdfrwt>
<totfact> 0.47570239E+01</totfact>
</mgrwt>
</event>
<event>
 4    1  0.8159050E-008  0.1022417E+04  0.7818608E-02  0.9284295E-01
          1   -1    0    0  501    0  0.00000000000E+00  0.00000000000E+00  0.16952812444E+04  0.16952812444E+04  0.50400000000E-02 0. -1.
         -1   -1    0    0    0  501 -0.00000000000E+00 -0.00000000000E+00 -0.24462306686E+04  0.24462306686E+04  0.50400000000E-02 0.  1.
    8880022    1    1    2    0    0  0.56200801124E+01  0.10108969790E+04  0.14153791369E+04  0.17460338031E+04  0.15294330000E+03 0.  0.
    8880022    1    1    2    0    0 -0.56200801124E+01 -0.10108969790E+04 -0.21663285611E+04  0.23954781099E+04  0.15294330000E+03 0.  0.
<mgrwt>
<rscale>  0 0.10224167E+04</rscale>
<asrwt>0</asrwt>
<pdfrwt beam="1">  1        1 0.26081250E+00 0.10224167E+04</pdfrwt>
<pdfrwt beam="2">  1       -1 0.37634318E+00 0.10224167E+04</pdfrwt>
<totfact> 0.50907846E-02</totfact>
</mgrwt>
</event>
<event>
 4    1  0.1852677E-008  0.1672036E+03  0.7818608E-02  0.1180796E+00
         -1   -1    0    0    0  501 -0.00000000000E+00  0.00000000000E+00  0.13846279135E+04  0.13846279135E+04  0.50400000000E-02 0.  1.
          1   -1    0    0  501    0  0.00000000000E+00 -0.00000000000E+00 -0.25679393582E+03  0.25679393587E+03  0.50400000000E-02 0. -1.
    8880022    1    1    2    0    0 -0.44375626416E+02 -0.50952795305E+02  0.13517023161E+04  0.13620044743E+04  0.15294330000E+03 0.  1.
    8880022    1    1    2    0    0  0.44375626416E+02  0.50952795305E+02 -0.22386833840E+03  0.27941737512E+03  0.15294330000E+03 0.  0.
<mgrwt>
<rscale>  0 0.16720358E+03</rscale>
<asrwt>0</asrwt>
<pdfrwt beam="1">  1        1 0.39506759E-01 0.16720358E+03</pdfrwt>
<pdfrwt beam="2">  1       -1 0.21301968E+00 0.16720358E+03</pdfrwt>
<totfact> 0.15390528E+01</totfact>
</mgrwt>
</event>
<event>
 4    1  0.1852677E-008  0.1300997E+04  0.7818608E-02  0.9028775E-01
         -1   -1    0    0    0  501 -0.00000000000E+00  0.00000000000E+00  0.13792458110E+04  0.13792458110E+04  0.50400000000E-02 0.  1.
          1   -1    0    0  501    0  0.00000000000E+00 -0.00000000000E+00 -0.17557277960E+04  0.17557277960E+04  0.50400000000E-02 0. -1.
    8880022    1    1    2    0    0 -0.71898468801E+03 -0.10734344276E+04 -0.10482731384E+04  0.16707688882E+04  0.15294330000E+03 0.  0.
    8880022    1    1    2    0    0  0.71898468801E+03  0.10734344276E+04  0.67179115342E+03  0.14642047189E+04  0.15294330000E+03 0.  0.
<mgrwt>
<rscale>  0 0.13009966E+04</rscale>
<asrwt>0</asrwt>
<pdfrwt beam="1">  1        1 0.27011197E+00 0.13009966E+04</pdfrwt>
<pdfrwt beam="2">  1       -1 0.21219166E+00 0.13009966E+04</pdfrwt>
<totfact> 0.52492724E-01</totfact>
</mgrwt>
</event>
<event>
 4    1  0.1852677E-008  0.3031557E+03  0.7818608E-02  0.1083674E+00
          1   -1    0    0  501    0  0.00000000000E+00  0.00000000000E+00  0.20702899692E+04  0.20702899692E+04  0.50400000000E-02 0. -1.
         -1   -1    0    0    0  501 -0.00000000000E+00 -0.00000000000E+00 -0.43561283881E+03  0.43561283884E+03  0.50400000000E-02 0.  1.
    8880022    1    1    2    0    0 -0.16723741199E+03 -0.20135382599E+03 -0.37005621266E+03  0.47837743337E+03  0.15294330000E+03 0.  0.
    8880022    1    1    2    0    0  0.16723741199E+03  0.20135382599E+03  0.20047333430E+04  0.20275253746E+04  0.15294330000E+03 0.  0.
<mgrwt>
<rscale>  0 0.30315568E+03</rscale>
<asrwt>0</asrwt>
<pdfrwt beam="1">  1        1 0.31850616E+00 0.30315568E+03</pdfrwt>
<pdfrwt beam="2">  1       -1 0.67017358E-01 0.30315568E+03</pdfrwt>
<totfact> 0.71198998E+00</totfact>
</mgrwt>
</event>
<event>
 4    1  0.1852677E-008  0.5177369E+03  0.7818608E-02  0.1009250E+00
          1   -1    0    0  501    0  0.00000000000E+00  0.00000000000E+00  0.37616021682E+04  0.37616021682E+04  0.50400000000E-02 0. -1.
         -1   -1    0    0    0  501 -0.00000000000E+00 -0.00000000000E+00 -0.11772128822E+03  0.11772128833E+03  0.50400000000E-02 0.  1.
    8880022    1    1    2    0    0 -0.31168326347E+03 -0.38407467619E+03  0.30404936417E+04  0.30842589145E+04  0.15294330000E+03 0.  0.
    8880022    1    1    2    0    0  0.31168326347E+03  0.38407467619E+03  0.60338723827E+03  0.79506454199E+03  0.15294330000E+03 0.  0.
<mgrwt>
<rscale>  0 0.51773687E+03</rscale>
<asrwt>0</asrwt>
<pdfrwt beam="1">  1        1 0.57870805E+00 0.51773687E+03</pdfrwt>
<pdfrwt beam="2">  1       -1 0.18110967E-01 0.51773687E+03</pdfrwt>
<totfact> 0.42532670E+00</totfact>
</mgrwt>
</event>
<event>
 4    1  0.1852677E-008  0.6729211E+03  0.7818608E-02  0.9764695E-01
         -1   -1    0    0    0  501 -0.00000000000E+00  0.00000000000E+00  0.22892952932E+03  0.22892952937E+03  0.50400000000E-02 0.  1.
          1   -1    0    0  501    0  0.00000000000E+00 -0.00000000000E+00 -0.27331820371E+04  0.27331820371E+04  0.50400000000E-02 0. -1.
    8880022    1    1    2    0    0 -0.62975197323E+03  0.18122799922E+03 -0.47361886722E+03  0.82288372198E+03  0.15294330000E+03 0.  1.
    8880022    1    1    2    0    0  0.62975197323E+03 -0.18122799922E+03 -0.20306336406E+04  0.21392278445E+04  0.15294330000E+03 0.  0.
<mgrwt>
<rscale>  0 0.67292109E+03</rscale>
<asrwt>0</asrwt>
<pdfrwt beam="1">  1        1 0.42048952E+00 0.67292109E+03</pdfrwt>
<pdfrwt beam="2">  1       -1 0.35219930E-01 0.67292109E+03</pdfrwt>
<totfact> 0.76659618E+00</totfact>
</mgrwt>
</event>
<event>
 4    1  0.1852677E-008  0.3278304E+03  0.7818608E-02  0.1072101E+00
         -1   -1    0    0    0  501 -0.00000000000E+00  0.00000000000E+00  0.31522515651E+03  0.31522515655E+03  0.50400000000E-02 0.  1.
          1   -1    0    0  501    0  0.00000000000E+00 -0.00000000000E+00 -0.11963222895E+04  0.11963222895E+04  0.50400000000E-02 0. -1.
    8880022    1    1    2    0    0 -0.18484886385E+03  0.22340995153E+03  0.19852065363E+03  0.38325345640E+03  0.15294330000E+03 0.  0.
    8880022    1    1    2    0    0  0.18484886385E+03 -0.22340995153E+03 -0.10796177866E+04  0.11282939896E+04  0.15294330000E+03 0.  0.
<mgrwt>
<rscale>  0 0.32783039E+03</rscale>
<asrwt>0</asrwt>
<pdfrwt beam="1">  1        1 0.18404958E+00 0.32783039E+03</pdfrwt>
<pdfrwt beam="2">  1       -1 0.48496179E-01 0.32783039E+03</pdfrwt>
<totfact> 0.50091162E+01</totfact>
</mgrwt>
</event>
<event>
 4    1  0.1852677E-008  0.2789155E+03  0.7818608E-02  0.1096283E+00
          1   -1    0    0  501    0  0.00000000000E+00  0.00000000000E+00  0.66537259731E+03  0.66537259733E+03  0.50400000000E-02 0. -1.
         -1   -1    0    0    0  501 -0.00000000000E+00 -0.00000000000E+00 -0.48029335689E+03  0.48029335691E+03  0.50400000000E-02 0.  1.
    8880022    1    1    2    0    0 -0.14677538964E+03  0.18127109692E+03  0.59079568819E+03  0.65332489910E+03  0.15294330000E+03 0.  0.
    8880022    1    1    2    0    0  0.14677538964E+03 -0.18127109692E+03 -0.40571644777E+03  0.49234105515E+03  0.15294330000E+03 0.  1.
<mgrwt>
<rscale>  0 0.27891554E+03</rscale>
<asrwt>0</asrwt>
<pdfrwt beam="1">  1        1 0.10236502E+00 0.27891554E+03</pdfrwt>
<pdfrwt beam="2">  1       -1 0.73891286E-01 0.27891554E+03</pdfrwt>
<totfact> 0.59094757E+01</totfact>
</mgrwt>
</event>
<event>
 4    1  0.1852677E-008  0.5565771E+03  0.7818608E-02  0.9999830E-01
          1   -1    0    0  501    0  0.00000000000E+00  0.00000000000E+00  0.10088179561E+04  0.10088179561E+04  0.50400000000E-02 0. -1.
         -1   -1    0    0    0  501 -0.00000000000E+00 -0.00000000000E+00 -0.44514146075E+03  0.44514146078E+03  0.50400000000E-02 0.  1.
    8880022    1    1    2    0    0  0.19952496876E+03  0.49656438773E+03 -0.12304025184E+03  0.57001487780E+03  0.15294330000E+03 0.  0.
    8880022    1    1    2    0    0 -0.19952496876E+03 -0.49656438773E+03  0.68671674721E+03  0.88394453911E+03  0.15294330000E+03 0.  0.
<mgrwt>
<rscale>  0 0.55657709E+03</rscale>
<asrwt>0</asrwt>
<pdfrwt beam="1">  1        1 0.15520276E+00 0.55657709E+03</pdfrwt>
<pdfrwt beam="2">  1       -1 0.68483303E-01 0.55657709E+03</pdfrwt>
<totfact> 0.33809538E+01</totfact>
</mgrwt>
</event>
<event>
 4    1  0.1852677E-008  0.4508939E+03  0.7818608E-02  0.1027456E+00
          1   -1    0    0  501    0  0.00000000000E+00  0.00000000000E+00  0.16168750787E+04  0.16168750787E+04  0.50400000000E-02 0. -1.
         -1   -1    0    0    0  501 -0.00000000000E+00 -0.00000000000E+00 -0.34151614159E+03  0.34151614162E+03  0.50400000000E-02 0.  1.
    8880022    1    1    2    0    0 -0.24266761758E+03 -0.34788806126E+03  0.14160132676E+04  0.14860682699E+04  0.15294330000E+03 0.  0.
    8880022    1    1    2    0    0  0.24266761758E+03  0.34788806126E+03 -0.14065433050E+03  0.47232295042E+03  0.15294330000E+03 0.  0.
<mgrwt>
<rscale>  0 0.45089392E+03</rscale>
<asrwt>0</asrwt>
<pdfrwt beam="1">  1        1 0.24875002E+00 0.45089392E+03</pdfrwt>
<pdfrwt beam="2">  1       -1 0.52540943E-01 0.45089392E+03</pdfrwt>
<totfact> 0.21629459E+01</totfact>
</mgrwt>
</event>
<event>
 4    1  0.1852677E-008  0.2554464E+03  0.7818608E-02  0.1109910E+00
         -1   -1    0    0    0  501 -0.00000000000E+00  0.00000000000E+00  0.93301256849E+03  0.93301256850E+03  0.50400000000E-02 0.  1.
          1   -1    0    0  501    0  0.00000000000E+00 -0.00000000000E+00 -0.31028169793E+03  0.31028169797E+03  0.50400000000E-02 0. -1.
    8880022    1    1    2    0    0  0.20308297878E+03 -0.24869754846E+02  0.85848519297E+03  0.89568391777E+03  0.15294330000E+03 0.  0.
    8880022    1    1    2    0    0 -0.20308297878E+03  0.24869754846E+02 -0.23575432242E+03  0.34761034871E+03  0.15294330000E+03 0.  0.
<mgrwt>
<rscale>  0 0.25544638E+03</rscale>
<asrwt>0</asrwt>
<pdfrwt beam="1">  1        1 0.47735646E-01 0.25544638E+03</pdfrwt>
<pdfrwt beam="2">  1       -1 0.14354039E+00 0.25544638E+03</pdfrwt>
<totfact> 0.36149732E+01</totfact>
</mgrwt>
</event>
<event>
 4    1  0.1852677E-008  0.2595107E+03  0.7818608E-02  0.1107438E+00
         -1   -1    0    0    0  501 -0.00000000000E+00  0.00000000000E+00  0.41750652522E+03  0.41750652525E+03  0.50400000000E-02 0.  1.
          1   -1    0    0  501    0  0.00000000000E+00 -0.00000000000E+00 -0.77302997116E+03  0.77302997117E+03  0.50400000000E-02 0. -1.
    8880022    1    1    2    0    0  0.12684891822E+03  0.16692357398E+03 -0.70729438051E+03  0.75339970887E+03  0.15294330000E+03 0. -1.
    8880022    1    1    2    0    0 -0.12684891822E+03 -0.16692357398E+03  0.35177093458E+03  0.43713678756E+03  0.15294330000E+03 0.  0.
<mgrwt>
<rscale>  0 0.25951066E+03</rscale>
<asrwt>0</asrwt>
<pdfrwt beam="1">  1        1 0.11892769E+00 0.25951066E+03</pdfrwt>
<pdfrwt beam="2">  1       -1 0.64231773E-01 0.25951066E+03</pdfrwt>
<totfact> 0.62918864E+01</totfact>
</mgrwt>
</event>
<event>
 4    1  0.1852677E-008  0.1886955E+03  0.7818608E-02  0.1159643E+00
          1   -1    0    0  501    0  0.00000000000E+00  0.00000000000E+00  0.33774867885E+03  0.33774867888E+03  0.50400000000E-02 0. -1.
         -1   -1    0    0    0  501 -0.00000000000E+00 -0.00000000000E+00 -0.10546569039E+03  0.10546569051E+03  0.50400000000E-02 0.  1.
    8880022    1    1    2    0    0  0.10807548282E+03  0.23109213124E+02  0.12067368738E+03  0.22398244922E+03  0.15294330000E+03 0. -1.
    8880022    1    1    2    0    0 -0.10807548282E+03 -0.23109213124E+02  0.11160930108E+03  0.21923192017E+03  0.15294330000E+03 0.  0.
<mgrwt>
<rscale>  0 0.18869552E+03</rscale>
<asrwt>0</asrwt>
<pdfrwt beam="1">  1        1 0.51961336E-01 0.18869552E+03</pdfrwt>
<pdfrwt beam="2">  1       -1 0.16225491E-01 0.18869552E+03</pdfrwt>
<totfact> 0.21087394E+03</totfact>
</mgrwt>
</event>
<event>
 4    1  0.1852677E-008  0.3869500E+03  0.7818608E-02  0.1048394E+00
         -1   -1    0    0    0  501 -0.00000000000E+00  0.00000000000E+00  0.10669352324E+04  0.10669352324E+04  0.50400000000E-02 0.  1.
          1   -1    0    0  501    0  0.00000000000E+00 -0.00000000000E+00 -0.20021668320E+03  0.20021668327E+03  0.50400000000E-02 0. -1.
    8880022    1    1    2    0    0  0.32185371666E+03 -0.15082715655E+03  0.77984787648E+03  0.87057050808E+03  0.15294330000E+03 0.  0.
    8880022    1    1    2    0    0 -0.32185371666E+03  0.15082715655E+03  0.86870672753E+02  0.39658140763E+03  0.15294330000E+03 0.  0.
<mgrwt>
<rscale>  0 0.38695000E+03</rscale>
<asrwt>0</asrwt>
<pdfrwt beam="1">  1        1 0.30802567E-01 0.38695000E+03</pdfrwt>
<pdfrwt beam="2">  1       -1 0.16414388E+00 0.38695000E+03</pdfrwt>
<totfact> 0.42911267E+01</totfact>
</mgrwt>
</event>
<event>
 4    1  0.1852677E-008  0.3171379E+03  0.7818608E-02  0.1076974E+00
          1   -1    0    0  501    0  0.00000000000E+00  0.00000000000E+00  0.20272645703E+04  0.20272645703E+04  0.50400000000E-02 0. -1.
         -1   -1    0    0    0  501 -0.00000000000E+00 -0.00000000000E+00 -0.85698199698E+02  0.85698199847E+02  0.50400000000E-02 0.  1.
    8880022    1    1    2    0    0 -0.25053586072E+03  0.12006904735E+03  0.16563458805E+04  0.16864335512E+04  0.15294330000E+03 0.  0.
    8880022    1    1    2    0    0  0.25053586072E+03 -0.12006904735E+03  0.28522049003E+03  0.42652921891E+03  0.15294330000E+03 0.  0.
<mgrwt>
<rscale>  0 0.31713790E+03</rscale>
<asrwt>0</asrwt>
<pdfrwt beam="1">  1        1 0.31188684E+00 0.31713790E+03</pdfrwt>
<pdfrwt beam="2">  1       -1 0.13184339E-01 0.31713790E+03</pdfrwt>
<totfact> 0.12695024E+02</totfact>
</mgrwt>
</event>
<event>
 4    1  0.1852677E-008  0.1073579E+04  0.7818608E-02  0.9231333E-01
         -1   -1    0    0    0  501 -0.00000000000E+00  0.00000000000E+00  0.16208348782E+04  0.16208348782E+04  0.50400000000E-02 0.  1.
          1   -1    0    0  501    0  0.00000000000E+00 -0.00000000000E+00 -0.91531466036E+03  0.91531466037E+03  0.50400000000E-02 0. -1.
    8880022    1    1    2    0    0  0.27628314921E+03  0.10260840253E+04 -0.24621010388E+03  0.11014498962E+04  0.15294330000E+03 0.  0.
    8880022    1    1    2    0    0 -0.27628314921E+03 -0.10260840253E+04  0.95173032175E+03  0.14346996424E+04  0.15294330000E+03 0.  0.
<mgrwt>
<rscale>  0 0.10735793E+04</rscale>
<asrwt>0</asrwt>
<pdfrwt beam="1">  1        1 0.14081764E+00 0.10735793E+04</pdfrwt>
<pdfrwt beam="2">  1       -1 0.24935921E+00 0.10735793E+04</pdfrwt>
<totfact> 0.12421047E+00</totfact>
</mgrwt>
</event>
<event>
 4    1  0.1852677E-008  0.1098438E+04  0.7818608E-02  0.9206715E-01
         -1   -1    0    0    0  501 -0.00000000000E+00  0.00000000000E+00  0.70917870846E+03  0.70917870847E+03  0.50400000000E-02 0.  1.
          1   -1    0    0  501    0  0.00000000000E+00 -0.00000000000E+00 -0.18479895208E+04  0.18479895208E+04  0.50400000000E-02 0. -1.
    8880022    1    1    2    0    0 -0.48316662578E+03 -0.97453820474E+03 -0.20924638461E+03  0.11181906829E+04  0.15294330000E+03 0.  0.
    8880022    1    1    2    0    0  0.48316662578E+03  0.97453820474E+03 -0.92956442774E+03  0.14389775464E+04  0.15294330000E+03 0.  0.
<mgrwt>
<rscale>  0 0.10984381E+04</rscale>
<asrwt>0</asrwt>
<pdfrwt beam="1">  1        1 0.28430608E+00 0.10984381E+04</pdfrwt>
<pdfrwt beam="2">  1       -1 0.10910442E+00 0.10984381E+04</pdfrwt>
<totfact> 0.29300395E+00</totfact>
</mgrwt>
</event>
<event>
 4    1  0.1852677E-008  0.2476740E+03  0.7818608E-02  0.1114784E+00
         -1   -1    0    0    0  501 -0.00000000000E+00  0.00000000000E+00  0.30131327794E+03  0.30131327798E+03  0.50400000000E-02 0.  1.
          1   -1    0    0  501    0  0.00000000000E+00 -0.00000000000E+00 -0.11907357360E+04  0.11907357360E+04  0.50400000000E-02 0. -1.
    8880022    1    1    2    0    0  0.18788643725E+03  0.51472680264E+02 -0.11239734699E+04  0.11509382104E+04  0.15294330000E+03 0. -1.
    8880022    1    1    2    0    0 -0.18788643725E+03 -0.51472680264E+02  0.23455101187E+03  0.34111080355E+03  0.15294330000E+03 0.  0.
<mgrwt>
<rscale>  0 0.24767399E+03</rscale>
<asrwt>0</asrwt>
<pdfrwt beam="1">  1        1 0.18319011E+00 0.24767399E+03</pdfrwt>
<pdfrwt beam="2">  1       -1 0.46355890E-01 0.24767399E+03</pdfrwt>
<totfact> 0.56146840E+01</totfact>
</mgrwt>
</event>
<event>
 4    1  0.1852677E-008  0.9875532E+03  0.7818608E-02  0.9322303E-01
          1   -1    0    0  501    0  0.00000000000E+00  0.00000000000E+00  0.33251627585E+04  0.33251627585E+04  0.50400000000E-02 0. -1.
         -1   -1    0    0    0  501 -0.00000000000E+00 -0.00000000000E+00 -0.35451710526E+03  0.35451710529E+03  0.50400000000E-02 0.  1.
    8880022    1    1    2    0    0  0.89836385892E+03  0.38054167764E+03  0.72077011861E+03  0.12226081990E+04  0.15294330000E+03 0.  0.
    8880022    1    1    2    0    0 -0.89836385892E+03 -0.38054167764E+03  0.22498755346E+04  0.24570716648E+04  0.15294330000E+03 0.  0.
<mgrwt>
<rscale>  0 0.98755316E+03</rscale>
<asrwt>0</asrwt>
<pdfrwt beam="1">  1        1 0.51156349E+00 0.98755316E+03</pdfrwt>
<pdfrwt beam="2">  1       -1 0.54541094E-01 0.98755316E+03</pdfrwt>
<totfact> 0.12036720E+00</totfact>
</mgrwt>
</event>
<event>
 4    1  0.1852677E-008  0.6756383E+03  0.7818608E-02  0.9759826E-01
          1   -1    0    0  501    0  0.00000000000E+00  0.00000000000E+00  0.61824363936E+03  0.61824363938E+03  0.50400000000E-02 0. -1.
         -1   -1    0    0    0  501 -0.00000000000E+00 -0.00000000000E+00 -0.13412531845E+04  0.13412531845E+04  0.50400000000E-02 0.  1.
    8880022    1    1    2    0    0  0.50684336985E+03 -0.41976802008E+03  0.29536455198E+03  0.73737864346E+03  0.15294330000E+03 0.  0.
    8880022    1    1    2    0    0 -0.50684336985E+03  0.41976802008E+03 -0.10183740971E+04  0.12221181804E+04  0.15294330000E+03 0.  0.
<mgrwt>
<rscale>  0 0.67563825E+03</rscale>
<asrwt>0</asrwt>
<pdfrwt beam="1">  1        1 0.95114407E-01 0.67563825E+03</pdfrwt>
<pdfrwt beam="2">  1       -1 0.20634664E+00 0.67563825E+03</pdfrwt>
<totfact> 0.46831371E+00</totfact>
</mgrwt>
</event>
<event>
 4    1  0.1852677E-008  0.3283558E+03  0.7818608E-02  0.1071867E+00
          1   -1    0    0  501    0  0.00000000000E+00  0.00000000000E+00  0.14350641563E+04  0.14350641563E+04  0.50400000000E-02 0. -1.
         -1   -1    0    0    0  501 -0.00000000000E+00 -0.00000000000E+00 -0.73562524725E+03  0.73562524727E+03  0.50400000000E-02 0.  1.
    8880022    1    1    2    0    0 -0.14308241962E+03 -0.25288994616E+03  0.13781476010E+04  0.14167245204E+04  0.15294330000E+03 0.  0.
    8880022    1    1    2    0    0  0.14308241962E+03  0.25288994616E+03 -0.67870869187E+03  0.75396488321E+03  0.15294330000E+03 0.  1.
<mgrwt>
<rscale>  0 0.32835584E+03</rscale>
<asrwt>0</asrwt>
<pdfrwt beam="1">  1        1 0.22077910E+00 0.32835584E+03</pdfrwt>
<pdfrwt beam="2">  1       -1 0.11317311E+00 0.32835584E+03</pdfrwt>
<totfact> 0.59781282E+00</totfact>
</mgrwt>
</event>
<event>
 4    1  0.1852677E-008  0.4714440E+03  0.7818608E-02  0.1021513E+00
          1   -1    0    0  501    0  0.00000000000E+00  0.00000000000E+00  0.22576734982E+04  0.22576734983E+04  0.50400000000E-02 0. -1.
         -1   -1    0    0    0  501 -0.00000000000E+00 -0.00000000000E+00 -0.32383706645E+03  0.32383706649E+03  0.50400000000E-02 0.  1.
    8880022    1    1    2    0    0  0.40138293967E+03 -0.19431810858E+03 -0.10991578603E+03  0.48408772409E+03  0.15294330000E+03 0.  0.
    8880022    1    1    2    0    0 -0.40138293967E+03  0.19431810858E+03  0.20437522178E+04  0.20974228406E+04  0.15294330000E+03 0.  0.
<mgrwt>
<rscale>  0 0.47144400E+03</rscale>
<asrwt>0</asrwt>
<pdfrwt beam="1">  1        1 0.34733440E+00 0.47144400E+03</pdfrwt>
<pdfrwt beam="2">  1       -1 0.49821085E-01 0.47144400E+03</pdfrwt>
<totfact> 0.89584375E+00</totfact>
</mgrwt>
</event>
<event>
 4    1  0.1852677E-008  0.2425788E+03  0.7818608E-02  0.1118087E+00
          1   -1    0    0  501    0  0.00000000000E+00  0.00000000000E+00  0.92070403164E+03  0.92070403165E+03  0.50400000000E-02 0. -1.
         -1   -1    0    0    0  501 -0.00000000000E+00 -0.00000000000E+00 -0.23864997988E+03  0.23864997993E+03  0.50400000000E-02 0.  1.
    8880022    1    1    2    0    0 -0.87880517713E+02 -0.16652278941E+03 -0.15499211006E+03  0.28786634396E+03  0.15294330000E+03 0.  1.
    8880022    1    1    2    0    0  0.87880517713E+02  0.16652278941E+03  0.83704616182E+03  0.87148766762E+03  0.15294330000E+03 0.  0.
<mgrwt>
<rscale>  0 0.24257881E+03</rscale>
<asrwt>0</asrwt>
<pdfrwt beam="1">  1        1 0.14164678E+00 0.24257881E+03</pdfrwt>
<pdfrwt beam="2">  1       -1 0.36715381E-01 0.24257881E+03</pdfrwt>
<totfact> 0.13461529E+02</totfact>
</mgrwt>
</event>
<event>
 4    1  0.1852677E-008  0.2057278E+03  0.7818608E-02  0.1144994E+00
         -1   -1    0    0    0  501 -0.00000000000E+00  0.00000000000E+00  0.57848633365E+03  0.57848633367E+03  0.50400000000E-02 0.  1.
          1   -1    0    0  501    0  0.00000000000E+00 -0.00000000000E+00 -0.25148168537E+03  0.25148168542E+03  0.50400000000E-02 0. -1.
    8880022    1    1    2    0    0  0.90464334788E+02 -0.10367486281E+03  0.51294531490E+03  0.55266338954E+03  0.15294330000E+03 0.  0.
    8880022    1    1    2    0    0 -0.90464334788E+02  0.10367486281E+03 -0.18594066662E+03  0.27730462954E+03  0.15294330000E+03 0.  0.
<mgrwt>
<rscale>  0 0.20572780E+03</rscale>
<asrwt>0</asrwt>
<pdfrwt beam="1">  1        1 0.38689490E-01 0.20572780E+03</pdfrwt>
<pdfrwt beam="2">  1       -1 0.88997897E-01 0.20572780E+03</pdfrwt>
<totfact> 0.14520925E+02</totfact>
</mgrwt>
</event>
<event>
 4    1  0.1852677E-008  0.1045481E+04  0.7818608E-02  0.9260022E-01
          1   -1    0    0  501    0  0.00000000000E+00  0.00000000000E+00  0.17580776760E+04  0.17580776760E+04  0.50400000000E-02 0. -1.
         -1   -1    0    0    0  501 -0.00000000000E+00 -0.00000000000E+00 -0.12405618945E+04  0.12405618945E+04  0.50400000000E-02 0.  1.
    8880022    1    1    2    0    0 -0.34399067534E+03 -0.97535056195E+03 -0.80019179392E+03  0.13165625179E+04  0.15294330000E+03 0.  0.
    8880022    1    1    2    0    0  0.34399067534E+03  0.97535056195E+03  0.13177075754E+04  0.16820770526E+04  0.15294330000E+03 0.  0.
<mgrwt>
<rscale>  0 0.10454807E+04</rscale>
<asrwt>0</asrwt>
<pdfrwt beam="1">  1        1 0.27047349E+00 0.10454807E+04</pdfrwt>
<pdfrwt beam="2">  1       -1 0.19085568E+00 0.10454807E+04</pdfrwt>
<totfact> 0.75979940E-01</totfact>
</mgrwt>
</event>
<event>
 4    1  0.1852677E-008  0.2417150E+03  0.7818608E-02  0.1118656E+00
         -1   -1    0    0    0  501 -0.00000000000E+00  0.00000000000E+00  0.44195044369E+03  0.44195044372E+03  0.50400000000E-02 0.  1.
          1   -1    0    0  501    0  0.00000000000E+00 -0.00000000000E+00 -0.52850641588E+03  0.52850641591E+03  0.50400000000E-02 0. -1.
    8880022    1    1    2    0    0 -0.17628874814E+02 -0.18634298614E+03 -0.46345887799E+03  0.52270476401E+03  0.15294330000E+03 0.  0.
    8880022    1    1    2    0    0  0.17628874814E+02  0.18634298614E+03  0.37690290581E+03  0.44775209562E+03  0.15294330000E+03 0.  0.
<mgrwt>
<rscale>  0 0.24171499E+03</rscale>
<asrwt>0</asrwt>
<pdfrwt beam="1">  1        1 0.81308680E-01 0.24171499E+03</pdfrwt>
<pdfrwt beam="2">  1       -1 0.67992375E-01 0.24171499E+03</pdfrwt>
<totfact> 0.96995703E+01</totfact>
</mgrwt>
</event>
<event>
 4    1  0.1852677E-008  0.5244046E+03  0.7818608E-02  0.1007598E+00
         -1   -1    0    0    0  501 -0.00000000000E+00  0.00000000000E+00  0.58440990877E+03  0.58440990879E+03  0.50400000000E-02 0.  1.
          1   -1    0    0  501    0  0.00000000000E+00 -0.00000000000E+00 -0.68069830161E+03  0.68069830163E+03  0.50400000000E-02 0. -1.
    8880022    1    1    2    0    0  0.45835277069E+03 -0.20376760725E+03 -0.39960148446E+03  0.65930379914E+03  0.15294330000E+03 0.  0.
    8880022    1    1    2    0    0 -0.45835277069E+03  0.20376760725E+03  0.30331309162E+03  0.60580441128E+03  0.15294330000E+03 0.  0.
<mgrwt>
<rscale>  0 0.52440457E+03</rscale>
<asrwt>0</asrwt>
<pdfrwt beam="1">  1        1 0.10472282E+00 0.52440457E+03</pdfrwt>
<pdfrwt beam="2">  1       -1 0.89909217E-01 0.52440457E+03</pdfrwt>
<totfact> 0.36179499E+01</totfact>
</mgrwt>
</event>
<event>
 4    1  0.1852677E-008  0.4970692E+03  0.7818608E-02  0.1014547E+00
         -1   -1    0    0    0  501 -0.00000000000E+00  0.00000000000E+00  0.61201757239E+03  0.61201757241E+03  0.50400000000E-02 0.  1.
          1   -1    0    0  501    0  0.00000000000E+00 -0.00000000000E+00 -0.68444453146E+03  0.68444453148E+03  0.50400000000E-02 0. -1.
    8880022    1    1    2    0    0 -0.21298457583E+03 -0.42228387528E+03  0.37893977170E+03  0.62503848238E+03  0.15294330000E+03 0.  0.
    8880022    1    1    2    0    0  0.21298457583E+03  0.42228387528E+03 -0.45136673077E+03  0.67142362151E+03  0.15294330000E+03 0.  0.
<mgrwt>
<rscale>  0 0.49706916E+03</rscale>
<asrwt>0</asrwt>
<pdfrwt beam="1">  1        1 0.10529916E+00 0.49706916E+03</pdfrwt>
<pdfrwt beam="2">  1       -1 0.94156550E-01 0.49706916E+03</pdfrwt>
<totfact> 0.32552686E+01</totfact>
</mgrwt>
</event>
<event>
 4    1  0.1852677E-008  0.1249932E+04  0.7818608E-02  0.9070240E-01
          1   -1    0    0  501    0  0.00000000000E+00  0.00000000000E+00  0.22243368779E+04  0.22243368779E+04  0.50400000000E-02 0. -1.
         -1   -1    0    0    0  501 -0.00000000000E+00 -0.00000000000E+00 -0.10384480049E+04  0.10384480049E+04  0.50400000000E-02 0.  1.
    8880022    1    1    2    0    0  0.16221666354E+03 -0.12298880827E+04  0.15210115898E+04  0.19687068982E+04  0.15294330000E+03 0.  0.
    8880022    1    1    2    0    0 -0.16221666354E+03  0.12298880827E+04 -0.33512271681E+03  0.12940779846E+04  0.15294330000E+03 0.  0.
<mgrwt>
<rscale>  0 0.12499322E+04</rscale>
<asrwt>0</asrwt>
<pdfrwt beam="1">  1        1 0.34220567E+00 0.12499322E+04</pdfrwt>
<pdfrwt beam="2">  1       -1 0.15976123E+00 0.12499322E+04</pdfrwt>
<totfact> 0.60137791E-01</totfact>
</mgrwt>
</event>
<event>
 4    1  0.1852677E-008  0.1348974E+04  0.7818608E-02  0.8991605E-01
          1   -1    0    0  501    0  0.00000000000E+00  0.00000000000E+00  0.41567555416E+04  0.41567555416E+04  0.50400000000E-02 0. -1.
         -1   -1    0    0    0  501 -0.00000000000E+00 -0.00000000000E+00 -0.70673880096E+03  0.70673880098E+03  0.50400000000E-02 0.  1.
    8880022    1    1    2    0    0 -0.16164980388E+03  0.13304918830E+04  0.22485918830E+03  0.13675864204E+04  0.15294330000E+03 0.  0.
    8880022    1    1    2    0    0  0.16164980388E+03 -0.13304918830E+04  0.32251575523E+04  0.34959079221E+04  0.15294330000E+03 0.  0.
<mgrwt>
<rscale>  0 0.13489740E+04</rscale>
<asrwt>0</asrwt>
<pdfrwt beam="1">  1        1 0.63950087E+00 0.13489740E+04</pdfrwt>
<pdfrwt beam="2">  1       -1 0.10872904E+00 0.13489740E+04</pdfrwt>
<totfact> 0.54015770E-02</totfact>
</mgrwt>
</event>
<event>
 4    1  0.1852677E-008  0.1630458E+03  0.7818608E-02  0.1185300E+00
          1   -1    0    0  501    0  0.00000000000E+00  0.00000000000E+00  0.27940853148E+02  0.27940853602E+02  0.50400000000E-02 0. -1.
         -1   -1    0    0    0  501 -0.00000000000E+00 -0.00000000000E+00 -0.95630101827E+03  0.95630101828E+03  0.50400000000E-02 0.  1.
    8880022    1    1    2    0    0 -0.23907325130E+02  0.51192913253E+02 -0.49928166424E+03  0.52522957631E+03  0.15294330000E+03 0.  0.
    8880022    1    1    2    0    0  0.23907325130E+02 -0.51192913253E+02 -0.42907850088E+03  0.45901229558E+03  0.15294330000E+03 0.  1.
<mgrwt>
<rscale>  0 0.16304578E+03</rscale>
<asrwt>0</asrwt>
<pdfrwt beam="1">  1        1 0.42985935E-02 0.16304578E+03</pdfrwt>
<pdfrwt beam="2">  1       -1 0.14712321E+00 0.16304578E+03</pdfrwt>
<totfact> 0.80982509E+02</totfact>
</mgrwt>
</event>
<event>
 4    1  0.1852677E-008  0.8199311E+03  0.7818608E-02  0.9531607E-01
          1   -1    0    0  501    0  0.00000000000E+00  0.00000000000E+00  0.10274199431E+04  0.10274199431E+04  0.50400000000E-02 0. -1.
         -1   -1    0    0    0  501 -0.00000000000E+00 -0.00000000000E+00 -0.12174437543E+04  0.12174437543E+04  0.50400000000E-02 0.  1.
    8880022    1    1    2    0    0 -0.48611356235E+03 -0.64233092432E+03 -0.85836913976E+03  0.11870487121E+04  0.15294330000E+03 0.  0.
    8880022    1    1    2    0    0  0.48611356235E+03  0.64233092432E+03  0.66834532856E+03  0.10578149853E+04  0.15294330000E+03 0.  0.
<mgrwt>
<rscale>  0 0.81993113E+03</rscale>
<asrwt>0</asrwt>
<pdfrwt beam="1">  1        1 0.15806461E+00 0.81993113E+03</pdfrwt>
<pdfrwt beam="2">  1       -1 0.18729904E+00 0.81993113E+03</pdfrwt>
<totfact> 0.27376279E+00</totfact>
</mgrwt>
</event>
<event>
 4    1  0.1852677E-008  0.4697419E+03  0.7818608E-02  0.1021993E+00
          1   -1    0    0  501    0  0.00000000000E+00  0.00000000000E+00  0.39372756343E+03  0.39372756346E+03  0.50400000000E-02 0. -1.
         -1   -1    0    0    0  501 -0.00000000000E+00 -0.00000000000E+00 -0.97759987119E+03  0.97759987120E+03  0.50400000000E-02 0.  1.
    8880022    1    1    2    0    0  0.43787698168E+03 -0.74361029054E+02  0.15596904750E+03  0.49495839271E+03  0.15294330000E+03 0.  0.
    8880022    1    1    2    0    0 -0.43787698168E+03  0.74361029054E+02 -0.73984135526E+03  0.87636904195E+03  0.15294330000E+03 0.  0.
<mgrwt>
<rscale>  0 0.46974192E+03</rscale>
<asrwt>0</asrwt>
<pdfrwt beam="1">  1        1 0.60573472E-01 0.46974192E+03</pdfrwt>
<pdfrwt beam="2">  1       -1 0.15039998E+00 0.46974192E+03</pdfrwt>
<totfact> 0.22556979E+01</totfact>
</mgrwt>
</event>
<event>
 4    1  0.1852677E-008  0.5784750E+03  0.7818608E-02  0.9951098E-01
         -1   -1    0    0    0  501 -0.00000000000E+00  0.00000000000E+00  0.71137077002E+03  0.71137077004E+03  0.50400000000E-02 0.  1.
          1   -1    0    0  501    0  0.00000000000E+00 -0.00000000000E+00 -0.14457029366E+04  0.14457029366E+04  0.50400000000E-02 0. -1.
    8880022    1    1    2    0    0 -0.42911905451E+03  0.35650870968E+03  0.51869133433E+03  0.77696459144E+03  0.15294330000E+03 0.  0.
    8880022    1    1    2    0    0  0.42911905451E+03 -0.35650870968E+03 -0.12530235009E+04  0.13801091152E+04  0.15294330000E+03 0.  0.
<mgrwt>
<rscale>  0 0.57847496E+03</rscale>
<asrwt>0</asrwt>
<pdfrwt beam="1">  1        1 0.22241584E+00 0.57847496E+03</pdfrwt>
<pdfrwt beam="2">  1       -1 0.10944166E+00 0.57847496E+03</pdfrwt>
<totfact> 0.59210258E+00</totfact>
</mgrwt>
</event>
<event>
 4    1  0.1852677E-008  0.5748594E+03  0.7818608E-02  0.9958983E-01
         -1   -1    0    0    0  501 -0.00000000000E+00  0.00000000000E+00  0.90663593896E+03  0.90663593897E+03  0.50400000000E-02 0.  1.
          1   -1    0    0  501    0  0.00000000000E+00 -0.00000000000E+00 -0.54053182492E+03  0.54053182495E+03  0.50400000000E-02 0. -1.
    8880022    1    1    2    0    0 -0.47235489532E+03  0.28974563381E+03  0.59598666648E+03  0.82804796907E+03  0.15294330000E+03 0.  0.
    8880022    1    1    2    0    0  0.47235489532E+03 -0.28974563381E+03 -0.22988255244E+03  0.61911979485E+03  0.15294330000E+03 0. -1.
<mgrwt>
<rscale>  0 0.57485940E+03</rscale>
<asrwt>0</asrwt>
<pdfrwt beam="1">  1        1 0.83158743E-01 0.57485940E+03</pdfrwt>
<pdfrwt beam="2">  1       -1 0.13948245E+00 0.57485940E+03</pdfrwt>
<totfact> 0.17670433E+01</totfact>
</mgrwt>
</event>
<event>
 4    1  0.1852677E-008  0.9033250E+03  0.7818608E-02  0.9421434E-01
          1   -1    0    0  501    0  0.00000000000E+00  0.00000000000E+00  0.17020632085E+04  0.17020632085E+04  0.50400000000E-02 0. -1.
         -1   -1    0    0    0  501 -0.00000000000E+00 -0.00000000000E+00 -0.60166752687E+03  0.60166752689E+03  0.50400000000E-02 0.  1.
    8880022    1    1    2    0    0  0.79852207578E+03  0.39365841761E+03  0.30978552645E+02  0.90385606100E+03  0.15294330000E+03 0.  0.
    8880022    1    1    2    0    0 -0.79852207578E+03 -0.39365841761E+03  0.10694171290E+04  0.13998746744E+04  0.15294330000E+03 0.  0.
<mgrwt>
<rscale>  0 0.90332503E+03</rscale>
<asrwt>0</asrwt>
<pdfrwt beam="1">  1        1 0.26185587E+00 0.90332503E+03</pdfrwt>
<pdfrwt beam="2">  1       -1 0.92564237E-01 0.90332503E+03</pdfrwt>
<totfact> 0.55014292E+00</totfact>
</mgrwt>
</event>
<event>
 4    1  0.1852677E-008  0.4821369E+03  0.7818608E-02  0.1018550E+00
          1   -1    0    0  501    0  0.00000000000E+00  0.00000000000E+00  0.60815256298E+03  0.60815256300E+03  0.50400000000E-02 0. -1.
         -1   -1    0    0    0  501 -0.00000000000E+00 -0.00000000000E+00 -0.98586620688E+03  0.98586620689E+03  0.50400000000E-02 0.  1.
    8880022    1    1    2    0    0 -0.12425998333E+03 -0.44002702864E+03  0.43479328974E+03  0.64923122784E+03  0.15294330000E+03 0.  0.
    8880022    1    1    2    0    0  0.12425998333E+03  0.44002702864E+03 -0.81250693364E+03  0.94478754205E+03  0.15294330000E+03 0.  0.
<mgrwt>
<rscale>  0 0.48213689E+03</rscale>
<asrwt>0</asrwt>
<pdfrwt beam="1">  1        1 0.93561933E-01 0.48213689E+03</pdfrwt>
<pdfrwt beam="2">  1       -1 0.15167172E+00 0.48213689E+03</pdfrwt>
<totfact> 0.12200481E+01</totfact>
</mgrwt>
</event>
<event>
 4    1  0.1852677E-008  0.8680311E+03  0.7818608E-02  0.9466451E-01
          1   -1    0    0  501    0  0.00000000000E+00  0.00000000000E+00  0.19065942934E+04  0.19065942934E+04  0.50400000000E-02 0. -1.
         -1   -1    0    0    0  501 -0.00000000000E+00 -0.00000000000E+00 -0.45220194630E+03  0.45220194633E+03  0.50400000000E-02 0.  1.
    8880022    1    1    2    0    0  0.42064836761E+03  0.74373470004E+03  0.11459465020E+04  0.14375922202E+04  0.15294330000E+03 0.  0.
    8880022    1    1    2    0    0 -0.42064836761E+03 -0.74373470004E+03  0.30844584515E+03  0.92120401954E+03  0.15294330000E+03 0.  0.
<mgrwt>
<rscale>  0 0.86803111E+03</rscale>
<asrwt>0</asrwt>
<pdfrwt beam="1">  1        1 0.29332220E+00 0.86803111E+03</pdfrwt>
<pdfrwt beam="2">  1       -1 0.69569529E-01 0.86803111E+03</pdfrwt>
<totfact> 0.74042758E+00</totfact>
</mgrwt>
</event>
<event>
 4    1  0.1852677E-008  0.6755250E+03  0.7818608E-02  0.9760028E-01
          1   -1    0    0  501    0  0.00000000000E+00  0.00000000000E+00  0.10135107233E+04  0.10135107233E+04  0.50400000000E-02 0. -1.
         -1   -1    0    0    0  501 -0.00000000000E+00 -0.00000000000E+00 -0.84389330828E+03  0.84389330830E+03  0.50400000000E-02 0.  1.
    8880022    1    1    2    0    0  0.50537029644E+03  0.42135885073E+03  0.71909245155E+03  0.98662456107E+03  0.15294330000E+03 0.  0.
    8880022    1    1    2    0    0 -0.50537029644E+03 -0.42135885073E+03 -0.54947503650E+03  0.87077947057E+03  0.15294330000E+03 0.  0.
<mgrwt>
<rscale>  0 0.67552503E+03</rscale>
<asrwt>0</asrwt>
<pdfrwt beam="1">  1        1 0.15592473E+00 0.67552503E+03</pdfrwt>
<pdfrwt beam="2">  1       -1 0.12982974E+00 0.67552503E+03</pdfrwt>
<totfact> 0.78592638E+00</totfact>
</mgrwt>
</event>
<event>
 4    1  0.1852677E-008  0.3169102E+03  0.7818608E-02  0.1077080E+00
          1   -1    0    0  501    0  0.00000000000E+00  0.00000000000E+00  0.18138448438E+04  0.18138448438E+04  0.50400000000E-02 0. -1.
         -1   -1    0    0    0  501 -0.00000000000E+00 -0.00000000000E+00 -0.25311619862E+03  0.25311619867E+03  0.50400000000E-02 0.  1.
    8880022    1    1    2    0    0  0.27036323659E+03  0.62802443536E+02  0.16938394066E+04  0.17232306911E+04  0.15294330000E+03 0.  0.
    8880022    1    1    2    0    0 -0.27036323659E+03 -0.62802443536E+02 -0.13311076140E+03  0.34373035133E+03  0.15294330000E+03 0.  0.
<mgrwt>
<rscale>  0 0.31691021E+03</rscale>
<asrwt>0</asrwt>
<pdfrwt beam="1">  1        1 0.27905305E+00 0.31691021E+03</pdfrwt>
<pdfrwt beam="2">  1       -1 0.38940954E-01 0.31691021E+03</pdfrwt>
<totfact> 0.28800333E+01</totfact>
</mgrwt>
</event>
<event>
 4    1  0.1852677E-008  0.3436120E+03  0.7818608E-02  0.1065268E+00
         -1   -1    0    0    0  501 -0.00000000000E+00  0.00000000000E+00  0.13239000559E+04  0.13239000559E+04  0.50400000000E-02 0.  1.
          1   -1    0    0  501    0  0.00000000000E+00 -0.00000000000E+00 -0.18658063588E+03  0.18658063595E+03  0.50400000000E-02 0. -1.
    8880022    1    1    2    0    0  0.27379017471E+03  0.14041547070E+03  0.22994358716E+02  0.34438054203E+03  0.15294330000E+03 0.  0.
    8880022    1    1    2    0    0 -0.27379017471E+03 -0.14041547070E+03  0.11143250613E+04  0.11661001498E+04  0.15294330000E+03 0.  0.
<mgrwt>
<rscale>  0 0.34361202E+03</rscale>
<asrwt>0</asrwt>
<pdfrwt beam="1">  1        1 0.28704713E-01 0.34361202E+03</pdfrwt>
<pdfrwt beam="2">  1       -1 0.20367693E+00 0.34361202E+03</pdfrwt>
<totfact> 0.25076243E+01</totfact>
</mgrwt>
</event>
<event>
 4    1  0.1852677E-008  0.1028922E+04  0.7818608E-02  0.9277380E-01
          1   -1    0    0  501    0  0.00000000000E+00  0.00000000000E+00  0.11378724087E+04  0.11378724088E+04  0.50400000000E-02 0. -1.
         -1   -1    0    0    0  501 -0.00000000000E+00 -0.00000000000E+00 -0.10899942264E+04  0.10899942264E+04  0.50400000000E-02 0.  1.
    8880022    1    1    2    0    0  0.29688595634E+03  0.97321526190E+03 -0.40229721982E+03  0.11047732451E+04  0.15294330000E+03 0.  0.
    8880022    1    1    2    0    0 -0.29688595634E+03 -0.97321526190E+03  0.45017540215E+03  0.11230933901E+04  0.15294330000E+03 0.  0.
<mgrwt>
<rscale>  0 0.10289222E+04</rscale>
<asrwt>0</asrwt>
<pdfrwt beam="1">  1        1 0.17505729E+00 0.10289222E+04</pdfrwt>
<pdfrwt beam="2">  1       -1 0.16769142E+00 0.10289222E+04</pdfrwt>
<totfact> 0.30389108E+00</totfact>
</mgrwt>
</event>
<event>
 4    1  0.1852677E-008  0.3935715E+03  0.7818608E-02  0.1046029E+00
          1   -1    0    0  501    0  0.00000000000E+00  0.00000000000E+00  0.22234481078E+03  0.22234481084E+03  0.50400000000E-02 0. -1.
         -1   -1    0    0    0  501 -0.00000000000E+00 -0.00000000000E+00 -0.21588105686E+04  0.21588105686E+04  0.50400000000E-02 0.  1.
    8880022    1    1    2    0    0 -0.10695633058E+03 -0.34650716137E+03 -0.19480536991E+04  0.19874133282E+04  0.15294330000E+03 0.  0.
    8880022    1    1    2    0    0  0.10695633058E+03  0.34650716137E+03  0.11587941255E+02  0.39374205126E+03  0.15294330000E+03 0.  0.
<mgrwt>
<rscale>  0 0.39357150E+03</rscale>
<asrwt>0</asrwt>
<pdfrwt beam="1">  1        1 0.34206895E-01 0.39357150E+03</pdfrwt>
<pdfrwt beam="2">  1       -1 0.33212469E+00 0.39357150E+03</pdfrwt>
<totfact> 0.29998163E+00</totfact>
</mgrwt>
</event>
<event>
 4    1  0.1852677E-008  0.4390058E+03  0.7818608E-02  0.1031052E+00
          1   -1    0    0  501    0  0.00000000000E+00  0.00000000000E+00  0.24691583606E+04  0.24691583606E+04  0.50400000000E-02 0. -1.
         -1   -1    0    0    0  501 -0.00000000000E+00 -0.00000000000E+00 -0.35591278282E+03  0.35591278285E+03  0.50400000000E-02 0.  1.
    8880022    1    1    2    0    0  0.30170410353E+03  0.27983757351E+03  0.23046963152E+04  0.23461353738E+04  0.15294330000E+03 0.  0.
    8880022    1    1    2    0    0 -0.30170410353E+03 -0.27983757351E+03 -0.19145073742E+03  0.47893576971E+03  0.15294330000E+03 0.  1.
<mgrwt>
<rscale>  0 0.43900579E+03</rscale>
<asrwt>0</asrwt>
<pdfrwt beam="1">  1        1 0.37987051E+00 0.43900579E+03</pdfrwt>
<pdfrwt beam="2">  1       -1 0.54755814E-01 0.43900579E+03</pdfrwt>
<totfact> 0.54625723E+00</totfact>
</mgrwt>
</event>
<event>
 4    1  0.1852677E-008  0.4527554E+03  0.7818608E-02  0.1026904E+00
         -1   -1    0    0    0  501 -0.00000000000E+00  0.00000000000E+00  0.19359968573E+04  0.19359968573E+04  0.50400000000E-02 0.  1.
          1   -1    0    0  501    0  0.00000000000E+00 -0.00000000000E+00 -0.23689726966E+03  0.23689726971E+03  0.50400000000E-02 0. -1.
    8880022    1    1    2    0    0  0.53533868246E+02 -0.42276457686E+03  0.41590776518E+02  0.45466164145E+03  0.15294330000E+03 0.  0.
    8880022    1    1    2    0    0 -0.53533868246E+02  0.42276457686E+03  0.16575088111E+04  0.17182324856E+04  0.15294330000E+03 0.  1.
<mgrwt>
<rscale>  0 0.45275536E+03</rscale>
<asrwt>0</asrwt>
<pdfrwt beam="1">  1        1 0.36445735E-01 0.45275536E+03</pdfrwt>
<pdfrwt beam="2">  1       -1 0.29784566E+00 0.45275536E+03</pdfrwt>
<totfact> 0.44939079E+00</totfact>
</mgrwt>
</event>
<event>
 4    1  0.1852677E-008  0.3196772E+03  0.7818608E-02  0.1075798E+00
          1   -1    0    0  501    0  0.00000000000E+00  0.00000000000E+00  0.29987124608E+04  0.29987124608E+04  0.50400000000E-02 0. -1.
         -1   -1    0    0    0  501 -0.00000000000E+00 -0.00000000000E+00 -0.16508982534E+03  0.16508982542E+03  0.50400000000E-02 0.  1.
    8880022    1    1    2    0    0  0.22823201915E+03  0.16343810063E+03  0.76115692869E+01  0.31976781624E+03  0.15294330000E+03 0.  0.
    8880022    1    1    2    0    0 -0.22823201915E+03 -0.16343810063E+03  0.28260110662E+04  0.28440344700E+04  0.15294330000E+03 0.  0.
<mgrwt>
<rscale>  0 0.31967721E+03</rscale>
<asrwt>0</asrwt>
<pdfrwt beam="1">  1        1 0.46134039E+00 0.31967721E+03</pdfrwt>
<pdfrwt beam="2">  1       -1 0.25398434E-01 0.31967721E+03</pdfrwt>
<totfact> 0.97102625E+00</totfact>
</mgrwt>
</event>
<event>
 4    1  0.1852677E-008  0.4601079E+03  0.7818608E-02  0.1024750E+00
         -1   -1    0    0    0  501 -0.00000000000E+00  0.00000000000E+00  0.63759582387E+03  0.63759582389E+03  0.50400000000E-02 0.  1.
          1   -1    0    0  501    0  0.00000000000E+00 -0.00000000000E+00 -0.13903164237E+04  0.13903164237E+04  0.50400000000E-02 0. -1.
    8880022    1    1    2    0    0 -0.21539345487E+03  0.37671376272E+03  0.50827546176E+03  0.68559696430E+03  0.15294330000E+03 0.  1.
    8880022    1    1    2    0    0  0.21539345487E+03 -0.37671376272E+03 -0.12609960616E+04  0.13423152833E+04  0.15294330000E+03 0.  0.
<mgrwt>
<rscale>  0 0.46010787E+03</rscale>
<asrwt>0</asrwt>
<pdfrwt beam="1">  1        1 0.21389483E+00 0.46010787E+03</pdfrwt>
<pdfrwt beam="2">  1       -1 0.98091666E-01 0.46010787E+03</pdfrwt>
<totfact> 0.85385375E+00</totfact>
</mgrwt>
</event>
<event>
 4    1  0.1852677E-008  0.3927542E+03  0.7818608E-02  0.1046318E+00
          1   -1    0    0  501    0  0.00000000000E+00  0.00000000000E+00  0.14312354257E+04  0.14312354257E+04  0.50400000000E-02 0. -1.
         -1   -1    0    0    0  501 -0.00000000000E+00 -0.00000000000E+00 -0.21362382226E+03  0.21362382232E+03  0.50400000000E-02 0.  1.
    8880022    1    1    2    0    0 -0.20927738553E+03  0.29507153515E+03  0.29896558495E+02  0.39389045708E+03  0.15294330000E+03 0.  0.
    8880022    1    1    2    0    0  0.20927738553E+03 -0.29507153515E+03  0.11877150449E+04  0.12509687909E+04  0.15294330000E+03 0.  0.
<mgrwt>
<rscale>  0 0.39275423E+03</rscale>
<asrwt>0</asrwt>
<pdfrwt beam="1">  1        1 0.22019006E+00 0.39275423E+03</pdfrwt>
<pdfrwt beam="2">  1       -1 0.32865205E-01 0.39275423E+03</pdfrwt>
<totfact> 0.68317830E+01</totfact>
</mgrwt>
</event>
<event>
 4    1  0.1852677E-008  0.1134398E+04  0.7818608E-02  0.9172299E-01
         -1   -1    0    0    0  501 -0.00000000000E+00  0.00000000000E+00  0.10724009061E+04  0.10724009061E+04  0.50400000000E-02 0.  1.
          1   -1    0    0  501    0  0.00000000000E+00 -0.00000000000E+00 -0.13646223579E+04  0.13646223579E+04  0.50400000000E-02 0. -1.
    8880022    1    1    2    0    0  0.97795339951E+03  0.55414361965E+03 -0.56935803575E+03  0.12692628682E+04  0.15294330000E+03 0.  0.
    8880022    1    1    2    0    0 -0.97795339951E+03 -0.55414361965E+03  0.27713658397E+03  0.11677603958E+04  0.15294330000E+03 0.  0.
<mgrwt>
<rscale>  0 0.11343984E+04</rscale>
<asrwt>0</asrwt>
<pdfrwt beam="1">  1        1 0.20994190E+00 0.11343984E+04</pdfrwt>
<pdfrwt beam="2">  1       -1 0.16498475E+00 0.11343984E+04</pdfrwt>
<totfact> 0.21547079E+00</totfact>
</mgrwt>
</event>
<event>
 4    1  0.1852677E-008  0.6121160E+03  0.7818608E-02  0.9880583E-01
         -1   -1    0    0    0  501 -0.00000000000E+00  0.00000000000E+00  0.26719354967E+03  0.26719354972E+03  0.50400000000E-02 0.  1.
          1   -1    0    0  501    0  0.00000000000E+00 -0.00000000000E+00 -0.15510114011E+04  0.15510114011E+04  0.50400000000E-02 0. -1.
    8880022    1    1    2    0    0 -0.58860830379E+03 -0.69530988175E+02 -0.36041105266E+03  0.71033940725E+03  0.15294330000E+03 0.  0.
    8880022    1    1    2    0    0  0.58860830379E+03  0.69530988175E+02 -0.92340679876E+03  0.11078655436E+04  0.15294330000E+03 0.  0.
<mgrwt>
<rscale>  0 0.61211596E+03</rscale>
<asrwt>0</asrwt>
<pdfrwt beam="1">  1        1 0.23861713E+00 0.61211596E+03</pdfrwt>
<pdfrwt beam="2">  1       -1 0.41106701E-01 0.61211596E+03</pdfrwt>
<totfact> 0.36678166E+01</totfact>
</mgrwt>
</event>
<event>
 4    1  0.1852677E-008  0.7581718E+03  0.7818608E-02  0.9622617E-01
         -1   -1    0    0    0  501 -0.00000000000E+00  0.00000000000E+00  0.56181806740E+03  0.56181806742E+03  0.50400000000E-02 0.  1.
          1   -1    0    0  501    0  0.00000000000E+00 -0.00000000000E+00 -0.16479230140E+04  0.16479230141E+04  0.50400000000E-02 0. -1.
    8880022    1    1    2    0    0 -0.18938551715E+03 -0.71802919169E+03  0.13725287558E+03  0.77049516488E+03  0.15294330000E+03 0.  0.
    8880022    1    1    2    0    0  0.18938551715E+03  0.71802919169E+03 -0.12233578222E+04  0.14392459166E+04  0.15294330000E+03 0.  0.
<mgrwt>
<rscale>  0 0.75817178E+03</rscale>
<asrwt>0</asrwt>
<pdfrwt beam="1">  1        1 0.25352661E+00 0.75817178E+03</pdfrwt>
<pdfrwt beam="2">  1       -1 0.86433550E-01 0.75817178E+03</pdfrwt>
<totfact> 0.71092726E+00</totfact>
</mgrwt>
</event>
<event>
 4    1  0.1852677E-008  0.3379472E+03  0.7818608E-02  0.1067674E+00
         -1   -1    0    0    0  501 -0.00000000000E+00  0.00000000000E+00  0.89551744204E+02  0.89551744346E+02  0.50400000000E-02 0.  1.
          1   -1    0    0  501    0  0.00000000000E+00 -0.00000000000E+00 -0.15013013122E+04  0.15013013122E+04  0.50400000000E-02 0. -1.
    8880022    1    1    2    0    0 -0.10524149269E+03  0.28238426834E+03 -0.39727909485E+03  0.52157356049E+03  0.15294330000E+03 0.  0.
    8880022    1    1    2    0    0  0.10524149269E+03 -0.28238426834E+03 -0.10144704731E+04  0.10692794960E+04  0.15294330000E+03 0.  0.
<mgrwt>
<rscale>  0 0.33794718E+03</rscale>
<asrwt>0</asrwt>
<pdfrwt beam="1">  1        1 0.23096941E+00 0.33794718E+03</pdfrwt>
<pdfrwt beam="2">  1       -1 0.13777193E-01 0.33794718E+03</pdfrwt>
<totfact> 0.26136477E+02</totfact>
</mgrwt>
</event>
<event>
 4    1  0.1852677E-008  0.4032930E+03  0.7818608E-02  0.1042645E+00
         -1   -1    0    0    0  501 -0.00000000000E+00  0.00000000000E+00  0.36790594748E+03  0.36790594751E+03  0.50400000000E-02 0.  1.
          1   -1    0    0  501    0  0.00000000000E+00 -0.00000000000E+00 -0.77705390251E+03  0.77705390253E+03  0.50400000000E-02 0. -1.
    8880022    1    1    2    0    0 -0.34518409341E+03  0.14177976949E+03  0.17129613269E+03  0.43816387285E+03  0.15294330000E+03 0.  0.
    8880022    1    1    2    0    0  0.34518409341E+03 -0.14177976949E+03 -0.58044408773E+03  0.70679597719E+03  0.15294330000E+03 0.  0.
<mgrwt>
<rscale>  0 0.40329296E+03</rscale>
<asrwt>0</asrwt>
<pdfrwt beam="1">  1        1 0.11954675E+00 0.40329296E+03</pdfrwt>
<pdfrwt beam="2">  1       -1 0.56600915E-01 0.40329296E+03</pdfrwt>
<totfact> 0.77571808E+01</totfact>
</mgrwt>
</event>
<event>
 4    1  0.1852677E-008  0.2496100E+03  0.7818608E-02  0.1113552E+00
          1   -1    0    0  501    0  0.00000000000E+00  0.00000000000E+00  0.17212759921E+04  0.17212759921E+04  0.50400000000E-02 0. -1.
         -1   -1    0    0    0  501 -0.00000000000E+00 -0.00000000000E+00 -0.18551358229E+03  0.18551358236E+03  0.50400000000E-02 0.  1.
    8880022    1    1    2    0    0 -0.19268234932E+03  0.42273005165E+02  0.16232213100E+04  0.16423009983E+04  0.15294330000E+03 0. -1.
    8880022    1    1    2    0    0  0.19268234932E+03 -0.42273005165E+02 -0.87458900174E+02  0.26448857620E+03  0.15294330000E+03 0.  0.
<mgrwt>
<rscale>  0 0.24960999E+03</rscale>
<asrwt>0</asrwt>
<pdfrwt beam="1">  1        1 0.26481168E+00 0.24960999E+03</pdfrwt>
<pdfrwt beam="2">  1       -1 0.28540552E-01 0.24960999E+03</pdfrwt>
<totfact> 0.58018873E+01</totfact>
</mgrwt>
</event>
<event>
 4    1  0.1852677E-008  0.7425671E+03  0.7818608E-02  0.9647084E-01
          1   -1    0    0  501    0  0.00000000000E+00  0.00000000000E+00  0.20027723108E+04  0.20027723108E+04  0.50400000000E-02 0. -1.
         -1   -1    0    0    0  501 -0.00000000000E+00 -0.00000000000E+00 -0.28884820703E+03  0.28884820707E+03  0.50400000000E-02 0.  1.
    8880022    1    1    2    0    0 -0.51474424136E+03  0.51288659851E+03  0.11049191414E+04  0.13312596512E+04  0.15294330000E+03 0.  0.
    8880022    1    1    2    0    0  0.51474424136E+03 -0.51288659851E+03  0.60900496233E+03  0.96036086661E+03  0.15294330000E+03 0.  0.
<mgrwt>
<rscale>  0 0.74256713E+03</rscale>
<asrwt>0</asrwt>
<pdfrwt beam="1">  1        1 0.30811881E+00 0.74256713E+03</pdfrwt>
<pdfrwt beam="2">  1       -1 0.44438187E-01 0.74256713E+03</pdfrwt>
<totfact> 0.15530698E+01</totfact>
</mgrwt>
</event>
<event>
 4    1  0.1852677E-008  0.8084872E+03  0.7818608E-02  0.9547813E-01
         -1   -1    0    0    0  501 -0.00000000000E+00  0.00000000000E+00  0.24652445122E+04  0.24652445122E+04  0.50400000000E-02 0.  1.
          1   -1    0    0  501    0  0.00000000000E+00 -0.00000000000E+00 -0.42325574597E+03  0.42325574600E+03  0.50400000000E-02 0. -1.
    8880022    1    1    2    0    0  0.16054020007E+03 -0.77748747980E+03  0.13828191055E+03  0.82022769820E+03  0.15294330000E+03 0.  0.
    8880022    1    1    2    0    0 -0.16054020007E+03  0.77748747980E+03  0.19037068557E+04  0.20682725600E+04  0.15294330000E+03 0.  0.
<mgrwt>
<rscale>  0 0.80848722E+03</rscale>
<asrwt>0</asrwt>
<pdfrwt beam="1">  1        1 0.65116268E-01 0.80848722E+03</pdfrwt>
<pdfrwt beam="2">  1       -1 0.37926839E+00 0.80848722E+03</pdfrwt>
<totfact> 0.58173453E-01</totfact>
</mgrwt>
</event>
<event>
 4    1  0.1852677E-008  0.4879170E+03  0.7818608E-02  0.1016982E+00
          1   -1    0    0  501    0  0.00000000000E+00  0.00000000000E+00  0.13734901671E+04  0.13734901671E+04  0.50400000000E-02 0. -1.
         -1   -1    0    0    0  501 -0.00000000000E+00 -0.00000000000E+00 -0.31190128335E+03  0.31190128339E+03  0.50400000000E-02 0.  1.
    8880022    1    1    2    0    0 -0.38612602051E+03  0.25608209371E+03  0.10924931904E+04  0.11964967056E+04  0.15294330000E+03 0.  0.
    8880022    1    1    2    0    0  0.38612602051E+03 -0.25608209371E+03 -0.30904306615E+02  0.48889474492E+03  0.15294330000E+03 0.  0.
<mgrwt>
<rscale>  0 0.48791700E+03</rscale>
<asrwt>0</asrwt>
<pdfrwt beam="1">  1        1 0.21130618E+00 0.48791700E+03</pdfrwt>
<pdfrwt beam="2">  1       -1 0.47984813E-01 0.48791700E+03</pdfrwt>
<totfact> 0.37192433E+01</totfact>
</mgrwt>
</event>
<event>
 4    1  0.1852677E-008  0.6907902E+03  0.7818608E-02  0.9733113E-01
          1   -1    0    0  501    0  0.00000000000E+00  0.00000000000E+00  0.17114119345E+04  0.17114119345E+04  0.50400000000E-02 0. -1.
         -1   -1    0    0    0  501 -0.00000000000E+00 -0.00000000000E+00 -0.12293832594E+04  0.12293832595E+04  0.50400000000E-02 0.  1.
    8880022    1    1    2    0    0 -0.66041413456E+03  0.13286310619E+03 -0.10519293746E+04  0.12584699028E+04  0.15294330000E+03 0.  0.
    8880022    1    1    2    0    0  0.66041413456E+03 -0.13286310619E+03  0.15339580497E+04  0.16823252912E+04  0.15294330000E+03 0.  0.
<mgrwt>
<rscale>  0 0.69079019E+03</rscale>
<asrwt>0</asrwt>
<pdfrwt beam="1">  1        1 0.26329414E+00 0.69079019E+03</pdfrwt>
<pdfrwt beam="2">  1       -1 0.18913589E+00 0.69079019E+03</pdfrwt>
<totfact> 0.89760549E-01</totfact>
</mgrwt>
</event>
<event>
 4    1  0.1852677E-008  0.4480759E+03  0.7818608E-02  0.1028297E+00
          1   -1    0    0  501    0  0.00000000000E+00  0.00000000000E+00  0.84328542915E+03  0.84328542916E+03  0.50400000000E-02 0. -1.
         -1   -1    0    0    0  501 -0.00000000000E+00 -0.00000000000E+00 -0.55254417148E+03  0.55254417150E+03  0.50400000000E-02 0.  1.
    8880022    1    1    2    0    0  0.27801397412E+03 -0.31636783933E+03 -0.38113416889E+03  0.58824764111E+03  0.15294330000E+03 0.  0.
    8880022    1    1    2    0    0 -0.27801397412E+03  0.31636783933E+03  0.67187542656E+03  0.80758195955E+03  0.15294330000E+03 0.  0.
<mgrwt>
<rscale>  0 0.44807592E+03</rscale>
<asrwt>0</asrwt>
<pdfrwt beam="1">  1        1 0.12973622E+00 0.44807592E+03</pdfrwt>
<pdfrwt beam="2">  1       -1 0.85006797E-01 0.44807592E+03</pdfrwt>
<totfact> 0.29723478E+01</totfact>
</mgrwt>
</event>
<event>
 4    1  0.1852677E-008  0.1066039E+04  0.7818608E-02  0.9238939E-01
          1   -1    0    0  501    0  0.00000000000E+00  0.00000000000E+00  0.65964309165E+03  0.65964309167E+03  0.50400000000E-02 0. -1.
         -1   -1    0    0    0  501 -0.00000000000E+00 -0.00000000000E+00 -0.23473889717E+04  0.23473889717E+04  0.50400000000E-02 0.  1.
    8880022    1    1    2    0    0 -0.58252374631E+03  0.87961031305E+03 -0.16194217400E+04  0.19388054680E+04  0.15294330000E+03 0.  0.
    8880022    1    1    2    0    0  0.58252374631E+03 -0.87961031305E+03 -0.68324140007E+02  0.10682265953E+04  0.15294330000E+03 0.  0.
<mgrwt>
<rscale>  0 0.10660393E+04</rscale>
<asrwt>0</asrwt>
<pdfrwt beam="1">  1        1 0.10148355E+00 0.10660393E+04</pdfrwt>
<pdfrwt beam="2">  1       -1 0.36113676E+00 0.10660393E+04</pdfrwt>
<totfact> 0.39485740E-01</totfact>
</mgrwt>
</event>
<event>
 4    1  0.1852677E-008  0.2349113E+03  0.7818608E-02  0.1123230E+00
          1   -1    0    0  501    0  0.00000000000E+00  0.00000000000E+00  0.16668116645E+03  0.16668116653E+03  0.50400000000E-02 0. -1.
         -1   -1    0    0    0  501 -0.00000000000E+00 -0.00000000000E+00 -0.12148669271E+04  0.12148669271E+04  0.50400000000E-02 0.  1.
    8880022    1    1    2    0    0  0.45992169058E+02  0.17226831858E+03 -0.11132724069E+04  0.11377867806E+04  0.15294330000E+03 0.  0.
    8880022    1    1    2    0    0 -0.45992169058E+02 -0.17226831858E+03  0.65086646221E+02  0.24376131303E+03  0.15294330000E+03 0.  1.
<mgrwt>
<rscale>  0 0.23491127E+03</rscale>
<asrwt>0</asrwt>
<pdfrwt beam="1">  1        1 0.25643257E-01 0.23491127E+03</pdfrwt>
<pdfrwt beam="2">  1       -1 0.18690260E+00 0.23491127E+03</pdfrwt>
<totfact> 0.38548555E+01</totfact>
</mgrwt>
</event>
<event>
 4    1  0.1852677E-008  0.5257318E+03  0.7818608E-02  0.1007273E+00
         -1   -1    0    0    0  501 -0.00000000000E+00  0.00000000000E+00  0.43010439172E+03  0.43010439175E+03  0.50400000000E-02 0.  1.
          1   -1    0    0  501    0  0.00000000000E+00 -0.00000000000E+00 -0.15984131664E+04  0.15984131664E+04  0.50400000000E-02 0. -1.
    8880022    1    1    2    0    0  0.50015044252E+03 -0.53402115488E+02 -0.13684613958E+04  0.14659742480E+04  0.15294330000E+03 0.  0.
    8880022    1    1    2    0    0 -0.50015044252E+03  0.53402115488E+02  0.20015262106E+03  0.56254331017E+03  0.15294330000E+03 0.  0.
<mgrwt>
<rscale>  0 0.52573178E+03</rscale>
<asrwt>0</asrwt>
<pdfrwt beam="1">  1        1 0.24590971E+00 0.52573178E+03</pdfrwt>
<pdfrwt beam="2">  1       -1 0.66169907E-01 0.52573178E+03</pdfrwt>
<totfact> 0.13972789E+01</totfact>
</mgrwt>
</event>
<event>
 4    1  0.1852677E-008  0.5452376E+03  0.7818608E-02  0.1002602E+00
         -1   -1    0    0    0  501 -0.00000000000E+00  0.00000000000E+00  0.59700563157E+03  0.59700563159E+03  0.50400000000E-02 0.  1.
          1   -1    0    0  501    0  0.00000000000E+00 -0.00000000000E+00 -0.56390037504E+03  0.56390037507E+03  0.50400000000E-02 0. -1.
    8880022    1    1    2    0    0  0.10636943539E+03 -0.51242358703E+03 -0.18194094151E+03  0.57479261351E+03  0.15294330000E+03 0.  0.
    8880022    1    1    2    0    0 -0.10636943539E+03  0.51242358703E+03  0.21504619803E+03  0.58611339315E+03  0.15294330000E+03 0.  0.
<mgrwt>
<rscale>  0 0.54523760E+03</rscale>
<asrwt>0</asrwt>
<pdfrwt beam="1">  1        1 0.86753904E-01 0.54523760E+03</pdfrwt>
<pdfrwt beam="2">  1       -1 0.91847020E-01 0.54523760E+03</pdfrwt>
<totfact> 0.45147634E+01</totfact>
</mgrwt>
</event>
<event>
 4    1  0.1852677E-008  0.5455628E+03  0.7818608E-02  0.1002526E+00
          1   -1    0    0  501    0  0.00000000000E+00  0.00000000000E+00  0.85822964516E+03  0.85822964517E+03  0.50400000000E-02 0. -1.
         -1   -1    0    0    0  501 -0.00000000000E+00 -0.00000000000E+00 -0.65779408918E+03  0.65779408920E+03  0.50400000000E-02 0.  1.
    8880022    1    1    2    0    0  0.96678175416E+02  0.51468484610E+03  0.62141633675E+03  0.82692023618E+03  0.15294330000E+03 0.  0.
    8880022    1    1    2    0    0 -0.96678175416E+02 -0.51468484610E+03 -0.42098078078E+03  0.68910349819E+03  0.15294330000E+03 0.  0.
<mgrwt>
<rscale>  0 0.54556284E+03</rscale>
<asrwt>0</asrwt>
<pdfrwt beam="1">  1        1 0.13203533E+00 0.54556284E+03</pdfrwt>
<pdfrwt beam="2">  1       -1 0.10119909E+00 0.54556284E+03</pdfrwt>
<totfact> 0.19338274E+01</totfact>
</mgrwt>
</event>
<event>
 4    1  0.1852677E-008  0.4565579E+03  0.7818608E-02  0.1025784E+00
          1   -1    0    0  501    0  0.00000000000E+00  0.00000000000E+00  0.13304081877E+04  0.13304081877E+04  0.50400000000E-02 0. -1.
         -1   -1    0    0    0  501 -0.00000000000E+00 -0.00000000000E+00 -0.39003601490E+03  0.39003601493E+03  0.50400000000E-02 0.  1.
    8880022    1    1    2    0    0 -0.41355560028E+03  0.11842801910E+03  0.11355665256E+04  0.12239102979E+04  0.15294330000E+03 0. -1.
    8880022    1    1    2    0    0  0.41355560028E+03 -0.11842801910E+03 -0.19519435276E+03  0.49653390478E+03  0.15294330000E+03 0.  0.
<mgrwt>
<rscale>  0 0.45655786E+03</rscale>
<asrwt>0</asrwt>
<pdfrwt beam="1">  1        1 0.20467819E+00 0.45655786E+03</pdfrwt>
<pdfrwt beam="2">  1       -1 0.60005540E-01 0.45655786E+03</pdfrwt>
<totfact> 0.26171510E+01</totfact>
</mgrwt>
</event>
<event>
 4    1  0.1852677E-008  0.2955259E+03  0.7818608E-02  0.1087499E+00
         -1   -1    0    0    0  501 -0.00000000000E+00  0.00000000000E+00  0.98997264124E+02  0.98997264253E+02  0.50400000000E-02 0.  1.
          1   -1    0    0  501    0  0.00000000000E+00 -0.00000000000E+00 -0.21740618567E+04  0.21740618567E+04  0.50400000000E-02 0. -1.
    8880022    1    1    2    0    0  0.25274083677E+03 -0.81220342989E+01 -0.16143458446E+03  0.33674422948E+03  0.15294330000E+03 0.  1.
    8880022    1    1    2    0    0 -0.25274083677E+03  0.81220342989E+01 -0.19136300081E+04  0.19363148915E+04  0.15294330000E+03 0.  0.
<mgrwt>
<rscale>  0 0.29552589E+03</rscale>
<asrwt>0</asrwt>
<pdfrwt beam="1">  1        1 0.33447102E+00 0.29552589E+03</pdfrwt>
<pdfrwt beam="2">  1       -1 0.15230350E-01 0.29552589E+03</pdfrwt>
<totfact> 0.81355611E+01</totfact>
</mgrwt>
</event>
<event>
 4    1  0.1852677E-008  0.4813757E+03  0.7818608E-02  0.1018758E+00
         -1   -1    0    0    0  501 -0.00000000000E+00  0.00000000000E+00  0.13451203152E+03  0.13451203162E+03  0.50400000000E-02 0.  1.
          1   -1    0    0  501    0  0.00000000000E+00 -0.00000000000E+00 -0.20140836891E+04  0.20140836891E+04  0.50400000000E-02 0. -1.
    8880022    1    1    2    0    0 -0.37622537651E+03  0.25842867635E+03 -0.53115998924E+03  0.71683575655E+03  0.15294330000E+03 0.  0.
    8880022    1    1    2    0    0  0.37622537651E+03 -0.25842867635E+03 -0.13484116683E+04  0.14317599642E+04  0.15294330000E+03 0.  0.
<mgrwt>
<rscale>  0 0.48137570E+03</rscale>
<asrwt>0</asrwt>
<pdfrwt beam="1">  1        1 0.30985901E+00 0.48137570E+03</pdfrwt>
<pdfrwt beam="2">  1       -1 0.20694160E-01 0.48137570E+03</pdfrwt>
<totfact> 0.60389879E+01</totfact>
</mgrwt>
</event>
<event>
 4    1  0.1852677E-008  0.1969550E+03  0.7818608E-02  0.1152334E+00
          1   -1    0    0  501    0  0.00000000000E+00  0.00000000000E+00  0.17868691133E+03  0.17868691140E+03  0.50400000000E-02 0. -1.
         -1   -1    0    0    0  501 -0.00000000000E+00 -0.00000000000E+00 -0.36099687032E+03  0.36099687036E+03  0.50400000000E-02 0.  1.
    8880022    1    1    2    0    0 -0.69542592668E+02  0.10277861076E+03 -0.26152663734E+03  0.32739494510E+03  0.15294330000E+03 0.  0.
    8880022    1    1    2    0    0  0.69542592668E+02 -0.10277861076E+03  0.79216678344E+02  0.21228883666E+03  0.15294330000E+03 0. -1.
<mgrwt>
<rscale>  0 0.19695499E+03</rscale>
<asrwt>0</asrwt>
<pdfrwt beam="1">  1        1 0.27490294E-01 0.19695499E+03</pdfrwt>
<pdfrwt beam="2">  1       -1 0.55537980E-01 0.19695499E+03</pdfrwt>
<totfact> 0.57276263E+02</totfact>
</mgrwt>
</event>
<event>
 4    1  0.1852677E-008  0.2648035E+03  0.7818608E-02  0.1104291E+00
          1   -1    0    0  501    0  0.00000000000E+00  0.00000000000E+00  0.39234511972E+03  0.39234511975E+03  0.50400000000E-02 0. -1.
         -1   -1    0    0    0  501 -0.00000000000E+00 -0.00000000000E+00 -0.18540753847E+03  0.18540753853E+03  0.50400000000E-02 0.  1.
    8880022    1    1    2    0    0 -0.16123377779E+03 -0.14398921147E+03  0.15832201581E+03  0.30852348018E+03  0.15294330000E+03 0.  1.
    8880022    1    1    2    0    0  0.16123377779E+03  0.14398921147E+03  0.48615565447E+02  0.26922917810E+03  0.15294330000E+03 0.  1.
<mgrwt>
<rscale>  0 0.26480347E+03</rscale>
<asrwt>0</asrwt>
<pdfrwt beam="1">  1        1 0.60360787E-01 0.26480347E+03</pdfrwt>
<pdfrwt beam="2">  1       -1 0.28524237E-01 0.26480347E+03</pdfrwt>
<totfact> 0.69450288E+02</totfact>
</mgrwt>
</event>
<event>
 4    1  0.1852677E-008  0.5962206E+03  0.7818608E-02  0.9913278E-01
         -1   -1    0    0    0  501 -0.00000000000E+00  0.00000000000E+00  0.30138270446E+03  0.30138270450E+03  0.50400000000E-02 0.  1.
          1   -1    0    0  501    0  0.00000000000E+00 -0.00000000000E+00 -0.21355598308E+04  0.21355598308E+04  0.50400000000E-02 0. -1.
    8880022    1    1    2    0    0 -0.31350578143E+03 -0.48353018613E+03 -0.17323622246E+04  0.18320911129E+04  0.15294330000E+03 0.  0.
    8880022    1    1    2    0    0  0.31350578143E+03  0.48353018613E+03 -0.10181490173E+03  0.60485142235E+03  0.15294330000E+03 0.  0.
<mgrwt>
<rscale>  0 0.59622057E+03</rscale>
<asrwt>0</asrwt>
<pdfrwt beam="1">  1        1 0.32854766E+00 0.59622057E+03</pdfrwt>
<pdfrwt beam="2">  1       -1 0.46366571E-01 0.59622057E+03</pdfrwt>
<totfact> 0.12001442E+01</totfact>
</mgrwt>
</event>
<event>
 4    1  0.1852677E-008  0.3260437E+03  0.7818608E-02  0.1072901E+00
         -1   -1    0    0    0  501 -0.00000000000E+00  0.00000000000E+00  0.60026877541E+03  0.60026877544E+03  0.50400000000E-02 0.  1.
          1   -1    0    0  501    0  0.00000000000E+00 -0.00000000000E+00 -0.52559457748E+03  0.52559457750E+03  0.50400000000E-02 0. -1.
    8880022    1    1    2    0    0  0.24751208517E+03 -0.14714147432E+03  0.49572324265E+03  0.59333467123E+03  0.15294330000E+03 0.  0.
    8880022    1    1    2    0    0 -0.24751208517E+03  0.14714147432E+03 -0.42104904471E+03  0.53252868171E+03  0.15294330000E+03 0.  0.
<mgrwt>
<rscale>  0 0.32604371E+03</rscale>
<asrwt>0</asrwt>
<pdfrwt beam="1">  1        1 0.80860704E-01 0.32604371E+03</pdfrwt>
<pdfrwt beam="2">  1       -1 0.92349043E-01 0.32604371E+03</pdfrwt>
<totfact> 0.50843142E+01</totfact>
</mgrwt>
</event>
<event>
 4    1  0.1852677E-008  0.4051602E+03  0.7818608E-02  0.1042007E+00
         -1   -1    0    0    0  501 -0.00000000000E+00  0.00000000000E+00  0.56321965043E+03  0.56321965045E+03  0.50400000000E-02 0.  1.
          1   -1    0    0  501    0  0.00000000000E+00 -0.00000000000E+00 -0.62908070498E+03  0.62908070500E+03  0.50400000000E-02 0. -1.
    8880022    1    1    2    0    0  0.65449693104E+02 -0.36943127519E+03 -0.46966595310E+03  0.62027485031E+03  0.15294330000E+03 0. -1.
    8880022    1    1    2    0    0 -0.65449693104E+02  0.36943127519E+03  0.40380489855E+03  0.57202550513E+03  0.15294330000E+03 0.  0.
<mgrwt>
<rscale>  0 0.40516019E+03</rscale>
<asrwt>0</asrwt>
<pdfrwt beam="1">  1        1 0.96781647E-01 0.40516019E+03</pdfrwt>
<pdfrwt beam="2">  1       -1 0.86649177E-01 0.40516019E+03</pdfrwt>
<totfact> 0.44783703E+01</totfact>
</mgrwt>
</event>
<event>
 4    1  0.1852677E-008  0.6488575E+03  0.7818608E-02  0.9808925E-01
          1   -1    0    0  501    0  0.00000000000E+00  0.00000000000E+00  0.26894198210E+04  0.26894198210E+04  0.50400000000E-02 0. -1.
         -1   -1    0    0    0  501 -0.00000000000E+00 -0.00000000000E+00 -0.21487243608E+03  0.21487243614E+03  0.50400000000E-02 0.  1.
    8880022    1    1    2    0    0 -0.59779562314E+02 -0.62773464240E+03  0.48069292488E+03  0.80751576974E+03  0.15294330000E+03 0.  0.
    8880022    1    1    2    0    0  0.59779562314E+02  0.62773464240E+03  0.19938544600E+04  0.20967764874E+04  0.15294330000E+03 0.  0.
<mgrwt>
<rscale>  0 0.64885748E+03</rscale>
<asrwt>0</asrwt>
<pdfrwt beam="1">  1        1 0.41375688E+00 0.64885748E+03</pdfrwt>
<pdfrwt beam="2">  1       -1 0.33057299E-01 0.64885748E+03</pdfrwt>
<totfact> 0.92394144E+00</totfact>
</mgrwt>
</event>
<event>
 4    1  0.1852677E-008  0.6224837E+03  0.7818608E-02  0.9859827E-01
         -1   -1    0    0    0  501 -0.00000000000E+00  0.00000000000E+00  0.23599308713E+03  0.23599308718E+03  0.50400000000E-02 0.  1.
          1   -1    0    0  501    0  0.00000000000E+00 -0.00000000000E+00 -0.22319893434E+04  0.22319893434E+04  0.50400000000E-02 0. -1.
    8880022    1    1    2    0    0 -0.37379101085E+02 -0.60224342122E+03 -0.16324679302E+04  0.17471226436E+04  0.15294330000E+03 0.  0.
    8880022    1    1    2    0    0  0.37379101085E+02  0.60224342122E+03 -0.36352832600E+03  0.72085978693E+03  0.15294330000E+03 0.  0.
<mgrwt>
<rscale>  0 0.62248373E+03</rscale>
<asrwt>0</asrwt>
<pdfrwt beam="1">  1        1 0.34338296E+00 0.62248373E+03</pdfrwt>
<pdfrwt beam="2">  1       -1 0.36306630E-01 0.62248373E+03</pdfrwt>
<totfact> 0.16072872E+01</totfact>
</mgrwt>
</event>
<event>
 4    1  0.1852677E-008  0.3413660E+03  0.7818608E-02  0.1066216E+00
         -1   -1    0    0    0  501 -0.00000000000E+00  0.00000000000E+00  0.58533141243E+02  0.58533141460E+02  0.50400000000E-02 0.  1.
          1   -1    0    0  501    0  0.00000000000E+00 -0.00000000000E+00 -0.24471424085E+04  0.24471424085E+04  0.50400000000E-02 0. -1.
    8880022    1    1    2    0    0 -0.24904383994E+03 -0.17639792981E+03 -0.65331774616E+03  0.73712603693E+03  0.15294330000E+03 0.  1.
    8880022    1    1    2    0    0  0.24904383994E+03  0.17639792981E+03 -0.17352915211E+04  0.17685495130E+04  0.15294330000E+03 0. -1.
<mgrwt>
<rscale>  0 0.34136596E+03</rscale>
<asrwt>0</asrwt>
<pdfrwt beam="1">  1        1 0.37648337E+00 0.34136596E+03</pdfrwt>
<pdfrwt beam="2">  1       -1 0.90051005E-02 0.34136596E+03</pdfrwt>
<totfact> 0.12134614E+02</totfact>
</mgrwt>
</event>
<event>
 4    1  0.2094594E-008  0.7502715E+03  0.7818608E-02  0.9634924E-01
          1   -1    0    0  501    0  0.00000000000E+00  0.00000000000E+00  0.24115371088E+04  0.24115371089E+04  0.50400000000E-02 0. -1.
         -1   -1    0    0    0  501 -0.00000000000E+00 -0.00000000000E+00 -0.94107664399E+03  0.94107664400E+03  0.50400000000E-02 0.  1.
    8880022    1    1    2    0    0 -0.66593993934E+03 -0.30990274231E+03  0.21888523162E+04  0.23138672883E+04  0.15294330000E+03 0.  0.
    8880022    1    1    2    0    0  0.66593993934E+03  0.30990274231E+03 -0.71839185138E+03  0.10387464646E+04  0.15294330000E+03 0.  0.
<mgrwt>
<rscale>  0 0.75027153E+03</rscale>
<asrwt>0</asrwt>
<pdfrwt beam="1">  1        1 0.37100571E+00 0.75027153E+03</pdfrwt>
<pdfrwt beam="2">  1       -1 0.14478102E+00 0.75027153E+03</pdfrwt>
<totfact> 0.63931083E-01</totfact>
</mgrwt>
</event>
<event>
 4    1  0.1852677E-008  0.5383594E+03  0.7818608E-02  0.1004225E+00
          1   -1    0    0  501    0  0.00000000000E+00  0.00000000000E+00  0.69814193802E+03  0.69814193804E+03  0.50400000000E-02 0. -1.
         -1   -1    0    0    0  501 -0.00000000000E+00 -0.00000000000E+00 -0.48046723053E+03  0.48046723055E+03  0.50400000000E-02 0.  1.
    8880022    1    1    2    0    0 -0.63085374010E+01  0.51613888385E+03  0.32612512150E+03  0.62943497913E+03  0.15294330000E+03 0. -1.
    8880022    1    1    2    0    0  0.63085374010E+01 -0.51613888385E+03 -0.10845041400E+03  0.54917418946E+03  0.15294330000E+03 0.  1.
<mgrwt>
<rscale>  0 0.53835936E+03</rscale>
<asrwt>0</asrwt>
<pdfrwt beam="1">  1        1 0.10740645E+00 0.53835936E+03</pdfrwt>
<pdfrwt beam="2">  1       -1 0.73918035E-01 0.53835936E+03</pdfrwt>
<totfact> 0.52689585E+01</totfact>
</mgrwt>
</event>
