<event>
 4    1  0.2799069E-007  0.1029072E+04  0.7818608E-02  0.9344474E-01
          2   -1    0    0  501    0  0.00000000000E+00  0.00000000000E+00  0.26544721204E+04  0.26544721204E+04  0.25500000000E-02 0. -1.
         -2   -1    0    0    0  501 -0.00000000000E+00 -0.00000000000E+00 -0.67277270251E+03  0.67277270252E+03  0.25500000000E-02 0.  1.
    8880023    1    1    2    0    0 -0.76884144231E+03 -0.18455675686E+03 -0.15788646886E+03  0.10411132038E+04  0.65864270000E+03 0.  0.
    8880022    1    1    2    0    0  0.76884144231E+03  0.18455675686E+03  0.21395858868E+04  0.22861316191E+04  0.15294330000E+03 0.  0.
<mgrwt>
<rscale>  0 0.96789631E+03</rscale>
<asrwt>0</asrwt>
<pdfrwt beam="1">  1        2 0.40838032E+00 0.10290717E+04</pdfrwt>
<pdfrwt beam="2">  1       -2 0.10350349E+00 0.10290717E+04</pdfrwt>
<totfact> 0.21656107E+00</totfact>
</mgrwt>
</event>
<event>
 4    1  0.2799069E-007  0.6695387E+03  0.7818608E-02  0.1015996E+00
         -2   -1    0    0    0  501 -0.00000000000E+00  0.00000000000E+00  0.18998021921E+04  0.18998021921E+04  0.25500000000E-02 0.  1.
          2   -1    0    0  501    0  0.00000000000E+00 -0.00000000000E+00 -0.37896561087E+03  0.37896561088E+03  0.25500000000E-02 0. -1.
    8880023    1    1    2    0    0  0.41134281326E+02  0.11304791617E+03  0.18102057078E+04  0.19300587482E+04  0.65864270000E+03 0.  1.
    8880022    1    1    2    0    0 -0.41134281326E+02 -0.11304791617E+03 -0.28936912661E+03  0.34870905480E+03  0.15294330000E+03 0.  0.
<mgrwt>
<rscale>  0 0.49159717E+03</rscale>
<asrwt>0</asrwt>
<pdfrwt beam="1">  1        2 0.58302402E-01 0.66953870E+03</pdfrwt>
<pdfrwt beam="2">  1       -2 0.29227726E+00 0.66953870E+03</pdfrwt>
<totfact> 0.31479921E+00</totfact>
</mgrwt>
</event>
<event>
 4    1  0.2799069E-007  0.1066657E+04  0.7818608E-02  0.9299120E-01
         -2   -1    0    0    0  501 -0.00000000000E+00  0.00000000000E+00  0.83329212822E+03  0.83329212822E+03  0.25500000000E-02 0.  1.
          2   -1    0    0  501    0  0.00000000000E+00 -0.00000000000E+00 -0.24643817793E+04  0.24643817793E+04  0.25500000000E-02 0. -1.
    8880023    1    1    2    0    0 -0.17517614367E+03  0.82052444552E+03  0.36471642479E+03  0.11272867088E+04  0.65864270000E+03 0.  1.
    8880022    1    1    2    0    0  0.17517614367E+03 -0.82052444552E+03 -0.19958060759E+04  0.21703871988E+04  0.15294330000E+03 0.  0.
<mgrwt>
<rscale>  0 0.10086388E+04</rscale>
<asrwt>0</asrwt>
<pdfrwt beam="1">  1        2 0.37913565E+00 0.10666570E+04</pdfrwt>
<pdfrwt beam="2">  1       -2 0.12819879E+00 0.10666570E+04</pdfrwt>
<totfact> 0.16364558E+00</totfact>
</mgrwt>
</event>
<event>
 4    1  0.2799069E-007  0.1227695E+04  0.7818608E-02  0.9130660E-01
         -2   -1    0    0    0  501 -0.00000000000E+00  0.00000000000E+00  0.99009292271E+03  0.99009292271E+03  0.25500000000E-02 0.  1.
          2   -1    0    0  501    0  0.00000000000E+00 -0.00000000000E+00 -0.18226899734E+04  0.18226899734E+04  0.25500000000E-02 0. -1.
    8880023    1    1    2    0    0 -0.77883648170E+03 -0.68325556646E+03  0.30653611420E+03  0.12653849335E+04  0.65864270000E+03 0.  1.
    8880022    1    1    2    0    0  0.77883648170E+03  0.68325556646E+03 -0.11391331648E+04  0.15473979626E+04  0.15294330000E+03 0.  0.
<mgrwt>
<rscale>  0 0.11798711E+04</rscale>
<asrwt>0</asrwt>
<pdfrwt beam="1">  1        2 0.28041384E+00 0.12276948E+04</pdfrwt>
<pdfrwt beam="2">  1       -2 0.15232199E+00 0.12276948E+04</pdfrwt>
<totfact> 0.23372398E+00</totfact>
</mgrwt>
</event>
<event>
 4    1  0.2799069E-007  0.1041388E+04  0.7818608E-02  0.9329307E-01
          2   -1    0    0  501    0  0.00000000000E+00  0.00000000000E+00  0.32409073362E+04  0.32409073362E+04  0.25500000000E-02 0. -1.
         -2   -1    0    0    0  501 -0.00000000000E+00 -0.00000000000E+00 -0.70064867592E+03  0.70064867592E+03  0.25500000000E-02 0.  1.
    8880023    1    1    2    0    0  0.51256423316E+03 -0.62286147287E+03 -0.21777488269E+03  0.10639147585E+04  0.65864270000E+03 0.  1.
    8880022    1    1    2    0    0 -0.51256423316E+03  0.62286147287E+03  0.27580335430E+04  0.28776412537E+04  0.15294330000E+03 0.  0.
<mgrwt>
<rscale>  0 0.98129035E+03</rscale>
<asrwt>0</asrwt>
<pdfrwt beam="1">  1        2 0.49860113E+00 0.10413879E+04</pdfrwt>
<pdfrwt beam="2">  1       -2 0.10779210E+00 0.10413879E+04</pdfrwt>
<totfact> 0.85643032E-01</totfact>
</mgrwt>
</event>
<event>
 4    1  0.2799069E-007  0.7486784E+03  0.7818608E-02  0.9835352E-01
          2   -1    0    0  501    0  0.00000000000E+00  0.00000000000E+00  0.12500445978E+03  0.12500445981E+03  0.25500000000E-02 0. -1.
         -2   -1    0    0    0  501 -0.00000000000E+00 -0.00000000000E+00 -0.32308043735E+04  0.32308043735E+04  0.25500000000E-02 0.  1.
    8880023    1    1    2    0    0  0.18791284212E+03  0.30232081612E+03 -0.26686708967E+04  0.27717005021E+04  0.65864270000E+03 0.  1.
    8880022    1    1    2    0    0 -0.18791284212E+03 -0.30232081612E+03 -0.43712901707E+03  0.58410833129E+03  0.15294330000E+03 0.  0.
<mgrwt>
<rscale>  0 0.63499358E+03</rscale>
<asrwt>0</asrwt>
<pdfrwt beam="1">  1        2 0.19231458E-01 0.74867838E+03</pdfrwt>
<pdfrwt beam="2">  1       -2 0.49704676E+00 0.74867838E+03</pdfrwt>
<totfact> 0.54110224E-01</totfact>
</mgrwt>
</event>
<event>
 4    1  0.2799069E-007  0.1243500E+04  0.7818608E-02  0.9115955E-01
         -2   -1    0    0    0  501 -0.00000000000E+00  0.00000000000E+00  0.15017144507E+04  0.15017144507E+04  0.25500000000E-02 0.  1.
          2   -1    0    0  501    0  0.00000000000E+00 -0.00000000000E+00 -0.16116779349E+04  0.16116779349E+04  0.25500000000E-02 0. -1.
    8880023    1    1    2    0    0 -0.10370211221E+04 -0.19253449308E+03  0.98427268174E+03  0.15859020326E+04  0.65864270000E+03 0.  0.
    8880022    1    1    2    0    0  0.10370211221E+04  0.19253449308E+03 -0.10942361659E+04  0.15274903530E+04  0.15294330000E+03 0.  0.
<mgrwt>
<rscale>  0 0.11964668E+04</rscale>
<asrwt>0</asrwt>
<pdfrwt beam="1">  1        2 0.24795045E+00 0.12435001E+04</pdfrwt>
<pdfrwt beam="2">  1       -2 0.23103299E+00 0.12435001E+04</pdfrwt>
<totfact> 0.89357456E-01</totfact>
</mgrwt>
</event>
<event>
 4    1  0.2799069E-007  0.7256195E+03  0.7818608E-02  0.9904011E-01
         -2   -1    0    0    0  501 -0.00000000000E+00  0.00000000000E+00  0.73010778969E+03  0.73010778969E+03  0.25500000000E-02 0.  1.
          2   -1    0    0  501    0  0.00000000000E+00 -0.00000000000E+00 -0.18389583067E+04  0.18389583067E+04  0.25500000000E-02 0. -1.
    8880023    1    1    2    0    0 -0.14140830057E+03 -0.26966107452E+03  0.52783179973E+03  0.89729037533E+03  0.65864270000E+03 0.  1.
    8880022    1    1    2    0    0  0.14140830057E+03  0.26966107452E+03 -0.16366823168E+04  0.16717757211E+04  0.15294330000E+03 0.  0.
<mgrwt>
<rscale>  0 0.60067296E+03</rscale>
<asrwt>0</asrwt>
<pdfrwt beam="1">  1        2 0.28291666E+00 0.72561947E+03</pdfrwt>
<pdfrwt beam="2">  1       -2 0.11232428E+00 0.72561947E+03</pdfrwt>
<totfact> 0.53130348E+00</totfact>
</mgrwt>
</event>
<event>
 4    1  0.2799069E-007  0.7475323E+03  0.7818608E-02  0.9838525E-01
         -2   -1    0    0    0  501 -0.00000000000E+00  0.00000000000E+00  0.60756920156E+03  0.60756920156E+03  0.25500000000E-02 0.  1.
          2   -1    0    0  501    0  0.00000000000E+00 -0.00000000000E+00 -0.10280961269E+04  0.10280961269E+04  0.25500000000E-02 0. -1.
    8880023    1    1    2    0    0 -0.28287560827E+03  0.21207470764E+03  0.31042360890E+03  0.80942406352E+03  0.65864270000E+03 0.  1.
    8880022    1    1    2    0    0  0.28287560827E+03 -0.21207470764E+03 -0.73095053425E+03  0.82624126495E+03  0.15294330000E+03 0.  0.
<mgrwt>
<rscale>  0 0.63335406E+03</rscale>
<asrwt>0</asrwt>
<pdfrwt beam="1">  1        2 0.15816864E+00 0.74753227E+03</pdfrwt>
<pdfrwt beam="2">  1       -2 0.93472185E-01 0.74753227E+03</pdfrwt>
<totfact> 0.23789588E+01</totfact>
</mgrwt>
</event>
<event>
 4    1  0.2799069E-007  0.1666257E+04  0.7818608E-02  0.8800365E-01
          2   -1    0    0  501    0  0.00000000000E+00  0.00000000000E+00  0.19430944545E+04  0.19430944545E+04  0.25500000000E-02 0. -1.
         -2   -1    0    0    0  501 -0.00000000000E+00 -0.00000000000E+00 -0.23693699353E+04  0.23693699353E+04  0.25500000000E-02 0.  1.
    8880023    1    1    2    0    0  0.35912500940E+03 -0.14878274058E+04 -0.16514407015E+04  0.23459897184E+04  0.65864270000E+03 0.  0.
    8880022    1    1    2    0    0 -0.35912500940E+03  0.14878274058E+04  0.12251652208E+04  0.19664746714E+04  0.15294330000E+03 0.  0.
<mgrwt>
<rscale>  0 0.16332705E+04</rscale>
<asrwt>0</asrwt>
<pdfrwt beam="1">  1        2 0.29893761E+00 0.16662567E+04</pdfrwt>
<pdfrwt beam="2">  1       -2 0.36451845E+00 0.16662567E+04</pdfrwt>
<totfact> 0.83268479E-02</totfact>
</mgrwt>
</event>
<event>
 4    1  0.2799069E-007  0.1253731E+04  0.7818608E-02  0.9106583E-01
          2   -1    0    0  501    0  0.00000000000E+00  0.00000000000E+00  0.17169152639E+04  0.17169152639E+04  0.25500000000E-02 0. -1.
         -2   -1    0    0    0  501 -0.00000000000E+00 -0.00000000000E+00 -0.80140468063E+03  0.80140468064E+03  0.25500000000E-02 0.  1.
    8880023    1    1    2    0    0  0.43415899753E+03 -0.97444182379E+03  0.35208083016E+03  0.13022296342E+04  0.65864270000E+03 0.  1.
    8880022    1    1    2    0    0 -0.43415899753E+03  0.97444182379E+03  0.56342975312E+03  0.12160903103E+04  0.15294330000E+03 0. -1.
<mgrwt>
<rscale>  0 0.12071939E+04</rscale>
<asrwt>0</asrwt>
<pdfrwt beam="1">  1        2 0.26414080E+00 0.12537309E+04</pdfrwt>
<pdfrwt beam="2">  1       -2 0.12329303E+00 0.12537309E+04</pdfrwt>
<totfact> 0.46191616E+00</totfact>
</mgrwt>
</event>
<event>
 4    1  0.2799069E-007  0.8359289E+03  0.7818608E-02  0.9637905E-01
          2   -1    0    0  501    0  0.00000000000E+00  0.00000000000E+00  0.17939054532E+04  0.17939054532E+04  0.25500000000E-02 0. -1.
         -2   -1    0    0    0  501 -0.00000000000E+00 -0.00000000000E+00 -0.59987997703E+03  0.59987997704E+03  0.25500000000E-02 0.  1.
    8880023    1    1    2    0    0  0.23375652337E+03  0.45861191516E+03 -0.23405811984E+03  0.86807857402E+03  0.65864270000E+03 0.  1.
    8880022    1    1    2    0    0 -0.23375652337E+03 -0.45861191516E+03  0.14280835960E+04  0.15257068562E+04  0.15294330000E+03 0.  0.
<mgrwt>
<rscale>  0 0.74837393E+03</rscale>
<asrwt>0</asrwt>
<pdfrwt beam="1">  1        2 0.27598545E+00 0.83592895E+03</pdfrwt>
<pdfrwt beam="2">  1       -2 0.92289228E-01 0.83592895E+03</pdfrwt>
<totfact> 0.88310476E+00</totfact>
</mgrwt>
</event>
<event>
 4    1  0.2799069E-007  0.6780127E+03  0.7818608E-02  0.1010471E+00
          2   -1    0    0  501    0  0.00000000000E+00  0.00000000000E+00  0.24803888190E+04  0.24803888190E+04  0.25500000000E-02 0. -1.
         -2   -1    0    0    0  501 -0.00000000000E+00 -0.00000000000E+00 -0.27540487554E+03  0.27540487555E+03  0.25500000000E-02 0.  1.
    8880023    1    1    2    0    0  0.51158737096E+02 -0.15255737999E+03  0.15718193147E+03  0.69599377613E+03  0.65864270000E+03 0.  0.
    8880022    1    1    2    0    0 -0.51158737096E+02  0.15255737999E+03  0.20478020120E+04  0.20597999184E+04  0.15294330000E+03 0.  0.
<mgrwt>
<rscale>  0 0.51287920E+03</rscale>
<asrwt>0</asrwt>
<pdfrwt beam="1">  1        2 0.38159828E+00 0.67801267E+03</pdfrwt>
<pdfrwt beam="2">  1       -2 0.42369981E-01 0.67801267E+03</pdfrwt>
<totfact> 0.19952580E+01</totfact>
</mgrwt>
</event>
<event>
 4    1  0.2799069E-007  0.1022993E+04  0.7818608E-02  0.9352075E-01
          2   -1    0    0  501    0  0.00000000000E+00  0.00000000000E+00  0.20064446164E+04  0.20064446164E+04  0.25500000000E-02 0. -1.
         -2   -1    0    0    0  501 -0.00000000000E+00 -0.00000000000E+00 -0.47322724089E+03  0.47322724090E+03  0.25500000000E-02 0.  1.
    8880023    1    1    2    0    0  0.75641310918E+02 -0.77909143859E+03  0.12889001286E+04  0.16455329913E+04  0.65864270000E+03 0.  0.
    8880022    1    1    2    0    0 -0.75641310918E+02  0.77909143859E+03  0.24431724687E+03  0.83413886598E+03  0.15294330000E+03 0.  0.
<mgrwt>
<rscale>  0 0.96126911E+03</rscale>
<asrwt>0</asrwt>
<pdfrwt beam="1">  1        2 0.30868379E+00 0.10229933E+04</pdfrwt>
<pdfrwt beam="2">  1       -2 0.72804190E-01 0.10229933E+04</pdfrwt>
<totfact> 0.11303248E+01</totfact>
</mgrwt>
</event>
<event>
 4    1  0.2799069E-007  0.7147504E+03  0.7818608E-02  0.9940766E-01
         -2   -1    0    0    0  501 -0.00000000000E+00  0.00000000000E+00  0.63110007235E+03  0.63110007235E+03  0.25500000000E-02 0.  1.
          2   -1    0    0  501    0  0.00000000000E+00 -0.00000000000E+00 -0.70807204626E+03  0.70807204627E+03  0.25500000000E-02 0. -1.
    8880023    1    1    2    0    0  0.66555953797E+02 -0.26949636751E+03  0.35926130793E+03  0.79996054948E+03  0.65864270000E+03 0.  1.
    8880022    1    1    2    0    0 -0.66555953797E+02  0.26949636751E+03 -0.43623328185E+03  0.53921156914E+03  0.15294330000E+03 0.  0.
<mgrwt>
<rscale>  0 0.58325621E+03</rscale>
<asrwt>0</asrwt>
<pdfrwt beam="1">  1        2 0.10893416E+00 0.71475044E+03</pdfrwt>
<pdfrwt beam="2">  1       -2 0.97092319E-01 0.71475044E+03</pdfrwt>
<totfact> 0.36342005E+01</totfact>
</mgrwt>
</event>
<event>
 4    1  0.2799069E-007  0.1090944E+04  0.7818608E-02  0.9271206E-01
          2   -1    0    0  501    0  0.00000000000E+00  0.00000000000E+00  0.29542788206E+04  0.29542788206E+04  0.25500000000E-02 0. -1.
         -2   -1    0    0    0  501 -0.00000000000E+00 -0.00000000000E+00 -0.69632152801E+03  0.69632152802E+03  0.25500000000E-02 0.  1.
    8880023    1    1    2    0    0  0.51459794539E+03 -0.70109745602E+03 -0.13561432168E+03  0.10993407746E+04  0.65864270000E+03 0.  1.
    8880022    1    1    2    0    0 -0.51459794539E+03  0.70109745602E+03  0.23935716142E+04  0.25512595740E+04  0.15294330000E+03 0.  0.
<mgrwt>
<rscale>  0 0.10347742E+04</rscale>
<asrwt>0</asrwt>
<pdfrwt beam="1">  1        2 0.45450443E+00 0.10909440E+04</pdfrwt>
<pdfrwt beam="2">  1       -2 0.10712639E+00 0.10909440E+04</pdfrwt>
<totfact> 0.13074904E+00</totfact>
</mgrwt>
</event>
<event>
 4    1  0.2799069E-007  0.9139332E+03  0.7818608E-02  0.9504025E-01
          2   -1    0    0  501    0  0.00000000000E+00  0.00000000000E+00  0.77193106915E+03  0.77193106915E+03  0.25500000000E-02 0. -1.
         -2   -1    0    0    0  501 -0.00000000000E+00 -0.00000000000E+00 -0.11533873245E+04  0.11533873245E+04  0.25500000000E-02 0.  1.
    8880023    1    1    2    0    0 -0.63045999022E+03  0.63118164852E+02 -0.74488532276E+03  0.11790369173E+04  0.65864270000E+03 0.  0.
    8880022    1    1    2    0    0  0.63045999022E+03 -0.63118164852E+02  0.36342906737E+03  0.74628147640E+03  0.15294330000E+03 0.  0.
<mgrwt>
<rscale>  0 0.83987756E+03</rscale>
<asrwt>0</asrwt>
<pdfrwt beam="1">  1        2 0.11875863E+00 0.91393321E+03</pdfrwt>
<pdfrwt beam="2">  1       -2 0.17744420E+00 0.91393321E+03</pdfrwt>
<totfact> 0.68234850E+00</totfact>
</mgrwt>
</event>
<event>
 4    1  0.2799069E-007  0.6598757E+03  0.7818608E-02  0.1024284E+00
          2   -1    0    0  501    0  0.00000000000E+00  0.00000000000E+00  0.81282066524E+03  0.81282066524E+03  0.25500000000E-02 0. -1.
         -2   -1    0    0    0  501 -0.00000000000E+00 -0.00000000000E+00 -0.30507154805E+03  0.30507154806E+03  0.25500000000E-02 0.  1.
    8880023    1    1    2    0    0 -0.28311234857E+02  0.28709587938E+02  0.83524668986E+02  0.66514084452E+03  0.65864270000E+03 0.  1.
    8880022    1    1    2    0    0  0.28311234857E+02 -0.28709587938E+02  0.42422444820E+03  0.45275136877E+03  0.15294330000E+03 0.  0.
<mgrwt>
<rscale>  0 0.46171813E+03</rscale>
<asrwt>0</asrwt>
<pdfrwt beam="1">  1        2 0.12504933E+00 0.65987573E+03</pdfrwt>
<pdfrwt beam="2">  1       -2 0.46934085E-01 0.65987573E+03</pdfrwt>
<totfact> 0.14753477E+02</totfact>
</mgrwt>
</event>
<event>
 4    1  0.2799069E-007  0.1377160E+04  0.7818608E-02  0.9001636E-01
          2   -1    0    0  501    0  0.00000000000E+00  0.00000000000E+00  0.46817878149E+04  0.46817878149E+04  0.25500000000E-02 0. -1.
         -2   -1    0    0    0  501 -0.00000000000E+00 -0.00000000000E+00 -0.13678082649E+04  0.13678082649E+04  0.25500000000E-02 0.  1.
    8880023    1    1    2    0    0  0.48550379989E+03 -0.11077209686E+04 -0.91169192451E+03  0.16515907652E+04  0.65864270000E+03 0.  0.
    8880022    1    1    2    0    0 -0.48550379989E+03  0.11077209686E+04  0.42256714745E+04  0.43980053146E+04  0.15294330000E+03 0.  0.
<mgrwt>
<rscale>  0 0.13358146E+04</rscale>
<asrwt>0</asrwt>
<pdfrwt beam="1">  1        2 0.72027505E+00 0.13771601E+04</pdfrwt>
<pdfrwt beam="2">  1       -2 0.21043204E+00 0.13771601E+04</pdfrwt>
<totfact> 0.90614640E-03</totfact>
</mgrwt>
</event>
<event>
 4    1  0.2799069E-007  0.1200425E+04  0.7818608E-02  0.9156709E-01
          2   -1    0    0  501    0  0.00000000000E+00  0.00000000000E+00  0.43871636031E+04  0.43871636031E+04  0.25500000000E-02 0. -1.
         -2   -1    0    0    0  501 -0.00000000000E+00 -0.00000000000E+00 -0.69481944797E+03  0.69481944797E+03  0.25500000000E-02 0.  1.
    8880023    1    1    2    0    0 -0.27460414772E+03 -0.96529900740E+03 -0.52899508957E+02  0.12015898535E+04  0.65864270000E+03 0.  1.
    8880022    1    1    2    0    0  0.27460414772E+03  0.96529900740E+03  0.37452436641E+04  0.38803931976E+04  0.15294330000E+03 0.  0.
<mgrwt>
<rscale>  0 0.11511650E+04</rscale>
<asrwt>0</asrwt>
<pdfrwt beam="1">  1        2 0.67494826E+00 0.12004248E+04</pdfrwt>
<pdfrwt beam="2">  1       -2 0.10689530E+00 0.12004248E+04</pdfrwt>
<totfact> 0.11384747E-01</totfact>
</mgrwt>
</event>
<event>
 4    1  0.2799069E-007  0.1596254E+04  0.7818608E-02  0.8844497E-01
          2   -1    0    0  501    0  0.00000000000E+00  0.00000000000E+00  0.21206195087E+04  0.21206195087E+04  0.25500000000E-02 0. -1.
         -2   -1    0    0    0  501 -0.00000000000E+00 -0.00000000000E+00 -0.23432581588E+04  0.23432581588E+04  0.25500000000E-02 0.  1.
    8880023    1    1    2    0    0 -0.12140095816E+04 -0.80024919474E+03  0.15096545591E+04  0.21970628420E+04  0.65864270000E+03 0.  0.
    8880022    1    1    2    0    0  0.12140095816E+04  0.80024919474E+03 -0.17322932091E+04  0.22668148255E+04  0.15294330000E+03 0.  0.
<mgrwt>
<rscale>  0 0.15615922E+04</rscale>
<asrwt>0</asrwt>
<pdfrwt beam="1">  1        2 0.32624915E+00 0.15962544E+04</pdfrwt>
<pdfrwt beam="2">  1       -2 0.36050126E+00 0.15962544E+04</pdfrwt>
<totfact> 0.70854661E-02</totfact>
</mgrwt>
</event>
<event>
 4    1  0.2799069E-007  0.9912943E+03  0.7818608E-02  0.9393037E-01
          2   -1    0    0  501    0  0.00000000000E+00  0.00000000000E+00  0.21314110665E+04  0.21314110665E+04  0.25500000000E-02 0. -1.
         -2   -1    0    0    0  501 -0.00000000000E+00 -0.00000000000E+00 -0.15343037225E+04  0.15343037225E+04  0.25500000000E-02 0.  1.
    8880023    1    1    2    0    0 -0.20830855191E+03 -0.71095833527E+03 -0.12933372266E+04  0.16295353924E+04  0.65864270000E+03 0.  0.
    8880022    1    1    2    0    0  0.20830855191E+03  0.71095833527E+03  0.18904445706E+04  0.20361793965E+04  0.15294330000E+03 0. -1.
<mgrwt>
<rscale>  0 0.92650932E+03</rscale>
<asrwt>0</asrwt>
<pdfrwt beam="1">  1        2 0.32790940E+00 0.99129431E+03</pdfrwt>
<pdfrwt beam="2">  1       -2 0.23604673E+00 0.99129431E+03</pdfrwt>
<totfact> 0.44451136E-01</totfact>
</mgrwt>
</event>
<event>
 4    1  0.2799069E-007  0.1047089E+04  0.7818608E-02  0.9322388E-01
         -2   -1    0    0    0  501 -0.00000000000E+00  0.00000000000E+00  0.80736475321E+03  0.80736475322E+03  0.25500000000E-02 0.  1.
          2   -1    0    0  501    0  0.00000000000E+00 -0.00000000000E+00 -0.12159236797E+04  0.12159236797E+04  0.25500000000E-02 0. -1.
    8880023    1    1    2    0    0 -0.21856777199E+03  0.78410097573E+03 -0.55049023168E+03  0.11829775621E+04  0.65864270000E+03 0.  0.
    8880022    1    1    2    0    0  0.21856777199E+03 -0.78410097573E+03  0.14193130521E+03  0.84031087076E+03  0.15294330000E+03 0.  0.
<mgrwt>
<rscale>  0 0.98747615E+03</rscale>
<asrwt>0</asrwt>
<pdfrwt beam="1">  1        2 0.18706518E+00 0.10470895E+04</pdfrwt>
<pdfrwt beam="2">  1       -2 0.12420996E+00 0.10470895E+04</pdfrwt>
<totfact> 0.89202445E+00</totfact>
</mgrwt>
</event>
<event>
 4    1  0.2799069E-007  0.1267919E+04  0.7818608E-02  0.9093771E-01
          2   -1    0    0  501    0  0.00000000000E+00  0.00000000000E+00  0.13806324308E+04  0.13806324308E+04  0.25500000000E-02 0. -1.
         -2   -1    0    0    0  501 -0.00000000000E+00 -0.00000000000E+00 -0.13635705552E+04  0.13635705552E+04  0.25500000000E-02 0.  1.
    8880023    1    1    2    0    0  0.49779335602E+02  0.10822805904E+04  0.70598259276E+03  0.14512170362E+04  0.65864270000E+03 0.  0.
    8880022    1    1    2    0    0 -0.49779335602E+02 -0.10822805904E+04 -0.68892071717E+03  0.12929859498E+04  0.15294330000E+03 0.  0.
<mgrwt>
<rscale>  0 0.12220518E+04</rscale>
<asrwt>0</asrwt>
<pdfrwt beam="1">  1        2 0.21240499E+00 0.12679193E+04</pdfrwt>
<pdfrwt beam="2">  1       -2 0.20978009E+00 0.12679193E+04</pdfrwt>
<totfact> 0.16432095E+00</totfact>
</mgrwt>
</event>
<event>
 4    1  0.2799069E-007  0.1845889E+04  0.7818608E-02  0.8697568E-01
         -2   -1    0    0    0  501 -0.00000000000E+00  0.00000000000E+00  0.19242621289E+04  0.19242621289E+04  0.25500000000E-02 0.  1.
          2   -1    0    0  501    0  0.00000000000E+00 -0.00000000000E+00 -0.26813419668E+04  0.26813419668E+04  0.25500000000E-02 0. -1.
    8880023    1    1    2    0    0  0.11350293026E+04 -0.12981537730E+04  0.10330765354E+04  0.21153137049E+04  0.65864270000E+03 0.  0.
    8880022    1    1    2    0    0 -0.11350293026E+04  0.12981537730E+04 -0.17901563734E+04  0.24902903907E+04  0.15294330000E+03 0.  0.
<mgrwt>
<rscale>  0 0.18165105E+04</rscale>
<asrwt>0</asrwt>
<pdfrwt beam="1">  1        2 0.41251415E+00 0.18458887E+04</pdfrwt>
<pdfrwt beam="2">  1       -2 0.29604033E+00 0.18458887E+04</pdfrwt>
<totfact> 0.82411221E-02</totfact>
</mgrwt>
</event>
<event>
 4    1  0.2799069E-007  0.9232066E+03  0.7818608E-02  0.9489760E-01
          2   -1    0    0  501    0  0.00000000000E+00  0.00000000000E+00  0.31149626403E+04  0.31149626403E+04  0.25500000000E-02 0. -1.
         -2   -1    0    0    0  501 -0.00000000000E+00 -0.00000000000E+00 -0.68778535211E+03  0.68778535211E+03  0.25500000000E-02 0.  1.
    8880023    1    1    2    0    0 -0.16893136363E+03  0.62446969899E+03 -0.31938065351E+03  0.97689017739E+03  0.65864270000E+03 0.  0.
    8880022    1    1    2    0    0  0.16893136363E+03 -0.62446969899E+03  0.27465579417E+04  0.28258578151E+04  0.15294330000E+03 0.  0.
<mgrwt>
<rscale>  0 0.85043020E+03</rscale>
<asrwt>0</asrwt>
<pdfrwt beam="1">  1        2 0.47922502E+00 0.92320659E+03</pdfrwt>
<pdfrwt beam="2">  1       -2 0.10581313E+00 0.92320659E+03</pdfrwt>
<totfact> 0.11000834E+00</totfact>
</mgrwt>
</event>
<event>
 4    1  0.2799069E-007  0.8468703E+03  0.7818608E-02  0.9617359E-01
         -2   -1    0    0    0  501 -0.00000000000E+00  0.00000000000E+00  0.93169521047E+03  0.93169521048E+03  0.25500000000E-02 0.  1.
          2   -1    0    0  501    0  0.00000000000E+00 -0.00000000000E+00 -0.77467440693E+03  0.77467440694E+03  0.25500000000E-02 0. -1.
    8880023    1    1    2    0    0  0.12762696560E+03  0.51680793510E+03  0.56536314675E+03  0.10182459320E+04  0.65864270000E+03 0.  0.
    8880022    1    1    2    0    0 -0.12762696560E+03 -0.51680793510E+03 -0.40834234320E+03  0.68812368539E+03  0.15294330000E+03 0.  1.
<mgrwt>
<rscale>  0 0.76157804E+03</rscale>
<asrwt>0</asrwt>
<pdfrwt beam="1">  1        2 0.11918068E+00 0.84687029E+03</pdfrwt>
<pdfrwt beam="2">  1       -2 0.14333772E+00 0.84687029E+03</pdfrwt>
<totfact> 0.12208372E+01</totfact>
</mgrwt>
</event>
<event>
 4    1  0.2799069E-007  0.7572117E+03  0.7818608E-02  0.9812380E-01
         -2   -1    0    0    0  501 -0.00000000000E+00  0.00000000000E+00  0.34566479629E+04  0.34566479629E+04  0.25500000000E-02 0.  1.
          2   -1    0    0  501    0  0.00000000000E+00 -0.00000000000E+00 -0.68228730360E+03  0.68228730361E+03  0.25500000000E-02 0. -1.
    8880023    1    1    2    0    0  0.25895958165E+03  0.26925701226E+03  0.33507527452E+04  0.34352457800E+04  0.65864270000E+03 0.  0.
    8880022    1    1    2    0    0 -0.25895958165E+03 -0.26925701226E+03 -0.57639208593E+03  0.70368948644E+03  0.15294330000E+03 0.  0.
<mgrwt>
<rscale>  0 0.64702364E+03</rscale>
<asrwt>0</asrwt>
<pdfrwt beam="1">  1        2 0.10496728E+00 0.75721173E+03</pdfrwt>
<pdfrwt beam="2">  1       -2 0.53179199E+00 0.75721173E+03</pdfrwt>
<totfact> 0.47333397E-02</totfact>
</mgrwt>
</event>
<event>
 4    1  0.2799069E-007  0.1307275E+04  0.7818608E-02  0.9059303E-01
          2   -1    0    0  501    0  0.00000000000E+00  0.00000000000E+00  0.20691695655E+04  0.20691695655E+04  0.25500000000E-02 0. -1.
         -2   -1    0    0    0  501 -0.00000000000E+00 -0.00000000000E+00 -0.14767295493E+04  0.14767295493E+04  0.25500000000E-02 0.  1.
    8880023    1    1    2    0    0  0.73586301710E+03 -0.85654089083E+03 -0.95872611659E+03  0.16211485590E+04  0.65864270000E+03 0.  0.
    8880022    1    1    2    0    0 -0.73586301710E+03  0.85654089083E+03  0.15511661327E+04  0.19247505558E+04  0.15294330000E+03 0.  0.
<mgrwt>
<rscale>  0 0.12631571E+04</rscale>
<asrwt>0</asrwt>
<pdfrwt beam="1">  1        2 0.31833377E+00 0.13072746E+04</pdfrwt>
<pdfrwt beam="2">  1       -2 0.22718916E+00 0.13072746E+04</pdfrwt>
<totfact> 0.52197332E-01</totfact>
</mgrwt>
</event>
<event>
 4    1  0.2799069E-007  0.1324039E+04  0.7818608E-02  0.9045074E-01
         -2   -1    0    0    0  501 -0.00000000000E+00  0.00000000000E+00  0.11593003459E+04  0.11593003459E+04  0.25500000000E-02 0.  1.
          2   -1    0    0  501    0  0.00000000000E+00 -0.00000000000E+00 -0.18763149262E+04  0.18763149262E+04  0.25500000000E-02 0. -1.
    8880023    1    1    2    0    0 -0.44407610934E+03 -0.10592760498E+04  0.44283378387E+03  0.13961308344E+04  0.65864270000E+03 0.  0.
    8880022    1    1    2    0    0  0.44407610934E+03  0.10592760498E+04 -0.11598483641E+04  0.16394844376E+04  0.15294330000E+03 0.  0.
<mgrwt>
<rscale>  0 0.12806233E+04</rscale>
<asrwt>0</asrwt>
<pdfrwt beam="1">  1        2 0.28866383E+00 0.13240391E+04</pdfrwt>
<pdfrwt beam="2">  1       -2 0.17835390E+00 0.13240391E+04</pdfrwt>
<totfact> 0.13957833E+00</totfact>
</mgrwt>
</event>
<event>
 4    1  0.2799069E-007  0.1010707E+04  0.7818608E-02  0.9367681E-01
          2   -1    0    0  501    0  0.00000000000E+00  0.00000000000E+00  0.19734278274E+04  0.19734278274E+04  0.25500000000E-02 0. -1.
         -2   -1    0    0    0  501 -0.00000000000E+00 -0.00000000000E+00 -0.11905609172E+04  0.11905609172E+04  0.25500000000E-02 0.  1.
    8880023    1    1    2    0    0  0.72865273346E+03  0.23829487629E+03 -0.87128599619E+03  0.13344170066E+04  0.65864270000E+03 0.  1.
    8880022    1    1    2    0    0 -0.72865273346E+03 -0.23829487629E+03  0.16541529064E+04  0.18295717381E+04  0.15294330000E+03 0.  0.
<mgrwt>
<rscale>  0 0.94783794E+03</rscale>
<asrwt>0</asrwt>
<pdfrwt beam="1">  1        2 0.30360428E+00 0.10107074E+04</pdfrwt>
<pdfrwt beam="2">  1       -2 0.18316322E+00 0.10107074E+04</pdfrwt>
<totfact> 0.11873559E+00</totfact>
</mgrwt>
</event>
<event>
 4    1  0.2799069E-007  0.8014222E+03  0.7818608E-02  0.9707729E-01
         -2   -1    0    0    0  501 -0.00000000000E+00  0.00000000000E+00  0.16061110073E+04  0.16061110073E+04  0.25500000000E-02 0.  1.
          2   -1    0    0  501    0  0.00000000000E+00 -0.00000000000E+00 -0.75646610383E+03  0.75646610383E+03  0.25500000000E-02 0. -1.
    8880023    1    1    2    0    0  0.41345031772E+03 -0.19371679053E+03  0.14111742520E+04  0.16228648545E+04  0.65864270000E+03 0.  1.
    8880022    1    1    2    0    0 -0.41345031772E+03  0.19371679053E+03 -0.56152934861E+03  0.73971225657E+03  0.15294330000E+03 0.  0.
<mgrwt>
<rscale>  0 0.70558450E+03</rscale>
<asrwt>0</asrwt>
<pdfrwt beam="1">  1        2 0.11637940E+00 0.80142221E+03</pdfrwt>
<pdfrwt beam="2">  1       -2 0.24709400E+00 0.80142221E+03</pdfrwt>
<totfact> 0.25401104E+00</totfact>
</mgrwt>
</event>
<event>
 4    1  0.2799069E-007  0.6743217E+03  0.7818608E-02  0.1012737E+00
         -2   -1    0    0    0  501 -0.00000000000E+00  0.00000000000E+00  0.60085917478E+03  0.60085917479E+03  0.25500000000E-02 0.  1.
          2   -1    0    0  501    0  0.00000000000E+00 -0.00000000000E+00 -0.12639273256E+04  0.12639273256E+04  0.25500000000E-02 0. -1.
    8880023    1    1    2    0    0 -0.68568853877E+02  0.12727060704E+03  0.39802207929E+03  0.78302699634E+03  0.65864270000E+03 0.  0.
    8880022    1    1    2    0    0  0.68568853877E+02 -0.12727060704E+03 -0.10610902301E+04  0.10817595040E+04  0.15294330000E+03 0. -1.
<mgrwt>
<rscale>  0 0.50401092E+03</rscale>
<asrwt>0</asrwt>
<pdfrwt beam="1">  1        2 0.19445036E+00 0.67432166E+03</pdfrwt>
<pdfrwt beam="2">  1       -2 0.92439873E-01 0.67432166E+03</pdfrwt>
<totfact> 0.17752761E+01</totfact>
</mgrwt>
</event>
<event>
 4    1  0.2799069E-007  0.1403799E+04  0.7818608E-02  0.8980736E-01
         -2   -1    0    0    0  501 -0.00000000000E+00  0.00000000000E+00  0.10924812195E+04  0.10924812195E+04  0.25500000000E-02 0.  1.
          2   -1    0    0  501    0  0.00000000000E+00 -0.00000000000E+00 -0.19086653834E+04  0.19086653834E+04  0.25500000000E-02 0. -1.
    8880023    1    1    2    0    0 -0.12340997919E+04 -0.11764321759E+03  0.16404902770E+03  0.14133522253E+04  0.65864270000E+03 0.  0.
    8880022    1    1    2    0    0  0.12340997919E+04  0.11764321759E+03 -0.98023319156E+03  0.15877943777E+04  0.15294330000E+03 0.  0.
<mgrwt>
<rscale>  0 0.13634131E+04</rscale>
<asrwt>0</asrwt>
<pdfrwt beam="1">  1        2 0.29364083E+00 0.14037993E+04</pdfrwt>
<pdfrwt beam="2">  1       -2 0.16807403E+00 0.14037993E+04</pdfrwt>
<totfact> 0.15713991E+00</totfact>
</mgrwt>
</event>
<event>
 4    1  0.2799069E-007  0.1532140E+04  0.7818608E-02  0.8887268E-01
         -2   -1    0    0    0  501 -0.00000000000E+00  0.00000000000E+00  0.12292546448E+04  0.12292546448E+04  0.25500000000E-02 0.  1.
          2   -1    0    0  501    0  0.00000000000E+00 -0.00000000000E+00 -0.34308922926E+04  0.34308922926E+04  0.25500000000E-02 0. -1.
    8880023    1    1    2    0    0 -0.11956321398E+04  0.69577723546E+03  0.50784448118E+03  0.16141122633E+04  0.65864270000E+03 0.  0.
    8880022    1    1    2    0    0  0.11956321398E+04 -0.69577723546E+03 -0.27094821291E+04  0.30460346741E+04  0.15294330000E+03 0.  0.
<mgrwt>
<rscale>  0 0.14957739E+04</rscale>
<asrwt>0</asrwt>
<pdfrwt beam="1">  1        2 0.52782958E+00 0.15321398E+04</pdfrwt>
<pdfrwt beam="2">  1       -2 0.18911610E+00 0.15321398E+04</pdfrwt>
<totfact> 0.13465652E-01</totfact>
</mgrwt>
</event>
<event>
 4    1  0.2799069E-007  0.8823863E+03  0.7818608E-02  0.9554920E-01
         -2   -1    0    0    0  501 -0.00000000000E+00  0.00000000000E+00  0.20404043766E+03  0.20404043768E+03  0.25500000000E-02 0.  1.
          2   -1    0    0  501    0  0.00000000000E+00 -0.00000000000E+00 -0.30227014329E+04  0.30227014329E+04  0.25500000000E-02 0. -1.
    8880023    1    1    2    0    0  0.44829966932E+03 -0.37923976193E+03 -0.11387890276E+04  0.14406408457E+04  0.65864270000E+03 0.  0.
    8880022    1    1    2    0    0 -0.44829966932E+03  0.37923976193E+03 -0.16798719676E+04  0.17861010249E+04  0.15294330000E+03 0.  0.
<mgrwt>
<rscale>  0 0.80353099E+03</rscale>
<asrwt>0</asrwt>
<pdfrwt beam="1">  1        2 0.46503096E+00 0.88238631E+03</pdfrwt>
<pdfrwt beam="2">  1       -2 0.31390839E-01 0.88238631E+03</pdfrwt>
<totfact> 0.16490332E+01</totfact>
</mgrwt>
</event>
<event>
 4    1  0.2799069E-007  0.1842170E+04  0.7818608E-02  0.8699561E-01
          2   -1    0    0  501    0  0.00000000000E+00  0.00000000000E+00  0.23071606881E+04  0.23071606881E+04  0.25500000000E-02 0. -1.
         -2   -1    0    0    0  501 -0.00000000000E+00 -0.00000000000E+00 -0.21164446693E+04  0.21164446693E+04  0.25500000000E-02 0.  1.
    8880023    1    1    2    0    0  0.17099229025E+04 -0.18959222594E+03 -0.12064446800E+04  0.22020673280E+04  0.65864270000E+03 0.  0.
    8880022    1    1    2    0    0 -0.17099229025E+04  0.18959222594E+03  0.13971606989E+04  0.22215380294E+04  0.15294330000E+03 0.  0.
<mgrwt>
<rscale>  0 0.18127260E+04</rscale>
<asrwt>0</asrwt>
<pdfrwt beam="1">  1        2 0.35494780E+00 0.18421704E+04</pdfrwt>
<pdfrwt beam="2">  1       -2 0.32560687E+00 0.18421704E+04</pdfrwt>
<totfact> 0.89445676E-02</totfact>
</mgrwt>
</event>
<event>
 4    1  0.2799069E-007  0.7873572E+03  0.7818608E-02  0.9738830E-01
          2   -1    0    0  501    0  0.00000000000E+00  0.00000000000E+00  0.19230163218E+04  0.19230163218E+04  0.25500000000E-02 0. -1.
         -2   -1    0    0    0  501 -0.00000000000E+00 -0.00000000000E+00 -0.24262461421E+03  0.24262461422E+03  0.25500000000E-02 0.  1.
    8880023    1    1    2    0    0  0.11918725860E+03 -0.41462690926E+03  0.59252873482E+03  0.98540427457E+03  0.65864270000E+03 0.  0.
    8880022    1    1    2    0    0 -0.11918725860E+03  0.41462690926E+03  0.10878629728E+04  0.11802366615E+04  0.15294330000E+03 0.  0.
<mgrwt>
<rscale>  0 0.68751176E+03</rscale>
<asrwt>0</asrwt>
<pdfrwt beam="1">  1        2 0.29584868E+00 0.78735715E+03</pdfrwt>
<pdfrwt beam="2">  1       -2 0.37326862E-01 0.78735715E+03</pdfrwt>
<totfact> 0.51095534E+01</totfact>
</mgrwt>
</event>
<event>
 4    1  0.2799069E-007  0.9264012E+03  0.7818608E-02  0.9484913E-01
         -2   -1    0    0    0  501 -0.00000000000E+00  0.00000000000E+00  0.89093841152E+03  0.89093841152E+03  0.25500000000E-02 0.  1.
          2   -1    0    0  501    0  0.00000000000E+00 -0.00000000000E+00 -0.81247607625E+03  0.81247607625E+03  0.25500000000E-02 0. -1.
    8880023    1    1    2    0    0  0.33702766014E+03  0.55751357266E+03  0.33733514819E+03  0.98590782321E+03  0.65864270000E+03 0.  0.
    8880022    1    1    2    0    0 -0.33702766014E+03 -0.55751357266E+03 -0.25887281292E+03  0.71750666456E+03  0.15294330000E+03 0.  0.
<mgrwt>
<rscale>  0 0.85405322E+03</rscale>
<asrwt>0</asrwt>
<pdfrwt beam="1">  1        2 0.12499632E+00 0.92640123E+03</pdfrwt>
<pdfrwt beam="2">  1       -2 0.13706745E+00 0.92640123E+03</pdfrwt>
<totfact> 0.12781652E+01</totfact>
</mgrwt>
</event>
<event>
 4    1  0.2799069E-007  0.1394662E+04  0.7818608E-02  0.8987841E-01
         -2   -1    0    0    0  501 -0.00000000000E+00  0.00000000000E+00  0.65929303514E+03  0.65929303514E+03  0.25500000000E-02 0.  1.
          2   -1    0    0  501    0  0.00000000000E+00 -0.00000000000E+00 -0.30172790697E+04  0.30172790697E+04  0.25500000000E-02 0. -1.
    8880023    1    1    2    0    0 -0.80931907105E+03 -0.92535133246E+03 -0.58203742456E+03  0.15112412835E+04  0.65864270000E+03 0.  0.
    8880022    1    1    2    0    0  0.80931907105E+03  0.92535133246E+03 -0.17759486100E+04  0.21653308213E+04  0.15294330000E+03 0.  0.
<mgrwt>
<rscale>  0 0.13539525E+04</rscale>
<asrwt>0</asrwt>
<pdfrwt beam="1">  1        2 0.46419677E+00 0.13946622E+04</pdfrwt>
<pdfrwt beam="2">  1       -2 0.10142970E+00 0.13946622E+04</pdfrwt>
<totfact> 0.13119579E+00</totfact>
</mgrwt>
</event>
<event>
 4    1  0.2799069E-007  0.1227948E+04  0.7818608E-02  0.9130422E-01
         -2   -1    0    0    0  501 -0.00000000000E+00  0.00000000000E+00  0.15971320786E+04  0.15971320786E+04  0.25500000000E-02 0.  1.
          2   -1    0    0  501    0  0.00000000000E+00 -0.00000000000E+00 -0.14843545138E+04  0.14843545138E+04  0.25500000000E-02 0. -1.
    8880023    1    1    2    0    0  0.81332607336E+02 -0.10331656463E+04  0.10951411520E+04  0.16453542460E+04  0.65864270000E+03 0.  1.
    8880022    1    1    2    0    0 -0.81332607336E+02  0.10331656463E+04 -0.98236358725E+03  0.14361323464E+04  0.15294330000E+03 0.  0.
<mgrwt>
<rscale>  0 0.11801372E+04</rscale>
<asrwt>0</asrwt>
<pdfrwt beam="1">  1        2 0.22836223E+00 0.12279481E+04</pdfrwt>
<pdfrwt beam="2">  1       -2 0.24571263E+00 0.12279481E+04</pdfrwt>
<totfact> 0.85659693E-01</totfact>
</mgrwt>
</event>
<event>
 4    1  0.2799069E-007  0.7008063E+03  0.7818608E-02  0.9993873E-01
          2   -1    0    0  501    0  0.00000000000E+00  0.00000000000E+00  0.15184088703E+04  0.15184088703E+04  0.25500000000E-02 0. -1.
         -2   -1    0    0    0  501 -0.00000000000E+00 -0.00000000000E+00 -0.28402330770E+03  0.28402330772E+03  0.25500000000E-02 0.  1.
    8880023    1    1    2    0    0  0.23055913187E+02 -0.23830157396E+03  0.19861654927E+03  0.72840782203E+03  0.65864270000E+03 0.  0.
    8880022    1    1    2    0    0 -0.23055913187E+02  0.23830157396E+03  0.10357690133E+04  0.10740243559E+04  0.15294330000E+03 0.  0.
<mgrwt>
<rscale>  0 0.55919720E+03</rscale>
<asrwt>0</asrwt>
<pdfrwt beam="1">  1        2 0.23360137E+00 0.70080627E+03</pdfrwt>
<pdfrwt beam="2">  1       -2 0.43695893E-01 0.70080627E+03</pdfrwt>
<totfact> 0.63166257E+01</totfact>
</mgrwt>
</event>
<event>
 4    1  0.2799069E-007  0.1240138E+04  0.7818608E-02  0.9119059E-01
         -2   -1    0    0    0  501 -0.00000000000E+00  0.00000000000E+00  0.91805931314E+03  0.91805931315E+03  0.25500000000E-02 0.  1.
          2   -1    0    0  501    0  0.00000000000E+00 -0.00000000000E+00 -0.20969554447E+04  0.20969554447E+04  0.25500000000E-02 0. -1.
    8880023    1    1    2    0    0 -0.85509996771E+03 -0.61068535462E+03  0.21923560934E+03  0.12593677048E+04  0.65864270000E+03 0.  1.
    8880022    1    1    2    0    0  0.85509996771E+03  0.61068535462E+03 -0.13981317409E+04  0.17556470531E+04  0.15294330000E+03 0.  0.
<mgrwt>
<rscale>  0 0.11929392E+04</rscale>
<asrwt>0</asrwt>
<pdfrwt beam="1">  1        2 0.32260853E+00 0.12401382E+04</pdfrwt>
<pdfrwt beam="2">  1       -2 0.14123989E+00 0.12401382E+04</pdfrwt>
<totfact> 0.20091257E+00</totfact>
</mgrwt>
</event>
<event>
 4    1  0.2799069E-007  0.9649367E+03  0.7818608E-02  0.9428941E-01
         -2   -1    0    0    0  501 -0.00000000000E+00  0.00000000000E+00  0.10121787789E+04  0.10121787789E+04  0.25500000000E-02 0.  1.
          2   -1    0    0  501    0  0.00000000000E+00 -0.00000000000E+00 -0.15393048549E+04  0.15393048549E+04  0.25500000000E-02 0. -1.
    8880023    1    1    2    0    0  0.88368270991E+01 -0.70513446301E+03  0.65519871208E+03  0.11663568318E+04  0.65864270000E+03 0.  0.
    8880022    1    1    2    0    0 -0.88368270991E+01  0.70513446301E+03 -0.11823247881E+04  0.13851268021E+04  0.15294330000E+03 0.  0.
<mgrwt>
<rscale>  0 0.89731711E+03</rscale>
<asrwt>0</asrwt>
<pdfrwt beam="1">  1        2 0.23681613E+00 0.96493674E+03</pdfrwt>
<pdfrwt beam="2">  1       -2 0.15571981E+00 0.96493674E+03</pdfrwt>
<totfact> 0.32608828E+00</totfact>
</mgrwt>
</event>
<event>
 4    1  0.2799069E-007  0.8332614E+03  0.7818608E-02  0.9643020E-01
         -2   -1    0    0    0  501 -0.00000000000E+00  0.00000000000E+00  0.58879243756E+03  0.58879243757E+03  0.25500000000E-02 0.  1.
          2   -1    0    0  501    0  0.00000000000E+00 -0.00000000000E+00 -0.12960398342E+04  0.12960398342E+04  0.25500000000E-02 0. -1.
    8880023    1    1    2    0    0  0.25595734932E+03 -0.44158834421E+03  0.17756686187E+03  0.85197102480E+03  0.65864270000E+03 0.  1.
    8880022    1    1    2    0    0 -0.25595734932E+03  0.44158834421E+03 -0.88481425845E+03  0.10328612469E+04  0.15294330000E+03 0.  0.
<mgrwt>
<rscale>  0 0.74513129E+03</rscale>
<asrwt>0</asrwt>
<pdfrwt beam="1">  1        2 0.19939074E+00 0.83326145E+03</pdfrwt>
<pdfrwt beam="2">  1       -2 0.90583452E-01 0.83326145E+03</pdfrwt>
<totfact> 0.17498049E+01</totfact>
</mgrwt>
</event>
<event>
 4    1  0.4126458E-007  0.8326616E+03  0.7818608E-02  0.9644176E-01
          2   -1    0    0  501    0  0.00000000000E+00  0.00000000000E+00  0.23066061265E+04  0.23066061265E+04  0.25500000000E-02 0. -1.
         -2   -1    0    0    0  501 -0.00000000000E+00 -0.00000000000E+00 -0.12111255499E+04  0.12111255499E+04  0.25500000000E-02 0.  1.
    8880023    1    1    2    0    0 -0.49351736074E+03  0.12631623180E+03 -0.10312806904E+04  0.13254679341E+04  0.65864270000E+03 0.  1.
    8880022    1    1    2    0    0  0.49351736074E+03 -0.12631623180E+03  0.21267612670E+04  0.21922637423E+04  0.15294330000E+03 0.  0.
<mgrwt>
<rscale>  0 0.74440082E+03</rscale>
<asrwt>0</asrwt>
<pdfrwt beam="1">  1        2 0.35486248E+00 0.83266163E+03</pdfrwt>
<pdfrwt beam="2">  1       -2 0.18632701E+00 0.83266163E+03</pdfrwt>
<totfact> 0.76164395E-01</totfact>
</mgrwt>
</event>
<event>
 4    1  0.2799069E-007  0.9845499E+03  0.7818608E-02  0.9402056E-01
          2   -1    0    0  501    0  0.00000000000E+00  0.00000000000E+00  0.10244723818E+04  0.10244723818E+04  0.25500000000E-02 0. -1.
         -2   -1    0    0    0  501 -0.00000000000E+00 -0.00000000000E+00 -0.22384866143E+04  0.22384866143E+04  0.25500000000E-02 0.  1.
    8880023    1    1    2    0    0  0.71794892675E+03 -0.14169532479E+03 -0.19683891562E+04  0.22008848909E+04  0.65864270000E+03 0.  1.
    8880022    1    1    2    0    0 -0.71794892675E+03  0.14169532479E+03  0.75437492369E+03  0.10620741052E+04  0.15294330000E+03 0.  0.
<mgrwt>
<rscale>  0 0.91906660E+03</rscale>
<asrwt>0</asrwt>
<pdfrwt beam="1">  1        2 0.15761114E+00 0.98454986E+03</pdfrwt>
<pdfrwt beam="2">  1       -2 0.34438256E+00 0.98454986E+03</pdfrwt>
<totfact> 0.41542668E-01</totfact>
</mgrwt>
</event>
<event>
 4    1  0.2799069E-007  0.8887480E+03  0.7818608E-02  0.9544342E-01
          2   -1    0    0  501    0  0.00000000000E+00  0.00000000000E+00  0.14466973862E+04  0.14466973862E+04  0.25500000000E-02 0. -1.
         -2   -1    0    0    0  501 -0.00000000000E+00 -0.00000000000E+00 -0.11380263084E+04  0.11380263084E+04  0.25500000000E-02 0.  1.
    8880023    1    1    2    0    0 -0.39800709442E+01 -0.59669671646E+03 -0.87698966505E+03  0.12485927644E+04  0.65864270000E+03 0.  1.
    8880022    1    1    2    0    0  0.39800709442E+01  0.59669671646E+03  0.11856607429E+04  0.13361309302E+04  0.15294330000E+03 0.  0.
<mgrwt>
<rscale>  0 0.81092173E+03</rscale>
<asrwt>0</asrwt>
<pdfrwt beam="1">  1        2 0.22256883E+00 0.88874801E+03</pdfrwt>
<pdfrwt beam="2">  1       -2 0.17508097E+00 0.88874801E+03</pdfrwt>
<totfact> 0.26882163E+00</totfact>
</mgrwt>
</event>
<event>
 4    1  0.2799069E-007  0.1030275E+04  0.7818608E-02  0.9342979E-01
          2   -1    0    0  501    0  0.00000000000E+00  0.00000000000E+00  0.11971147004E+04  0.11971147004E+04  0.25500000000E-02 0. -1.
         -2   -1    0    0    0  501 -0.00000000000E+00 -0.00000000000E+00 -0.15871851356E+04  0.15871851356E+04  0.25500000000E-02 0.  1.
    8880023    1    1    2    0    0 -0.57449668185E+03 -0.54553560526E+03 -0.12401370434E+04  0.16122672318E+04  0.65864270000E+03 0.  0.
    8880022    1    1    2    0    0  0.57449668185E+03  0.54553560526E+03  0.85006660822E+03  0.11720326043E+04  0.15294330000E+03 0.  0.
<mgrwt>
<rscale>  0 0.96920646E+03</rscale>
<asrwt>0</asrwt>
<pdfrwt beam="1">  1        2 0.18417149E+00 0.10302746E+04</pdfrwt>
<pdfrwt beam="2">  1       -2 0.24418233E+00 0.10302746E+04</pdfrwt>
<totfact> 0.13168903E+00</totfact>
</mgrwt>
</event>
<event>
 4    1  0.2799069E-007  0.1959823E+04  0.7818608E-02  0.8638927E-01
         -2   -1    0    0    0  501 -0.00000000000E+00  0.00000000000E+00  0.14995040482E+04  0.14995040482E+04  0.25500000000E-02 0.  1.
          2   -1    0    0  501    0  0.00000000000E+00 -0.00000000000E+00 -0.27758845839E+04  0.27758845839E+04  0.25500000000E-02 0. -1.
    8880023    1    1    2    0    0 -0.10209728728E+04 -0.15377620202E+04  0.10835765402E+03  0.19628166560E+04  0.65864270000E+03 0.  0.
    8880022    1    1    2    0    0  0.10209728728E+04  0.15377620202E+04 -0.13847381898E+04  0.23125719761E+04  0.15294330000E+03 0.  0.
<mgrwt>
<rscale>  0 0.19323341E+04</rscale>
<asrwt>0</asrwt>
<pdfrwt beam="1">  1        2 0.42705917E+00 0.19598234E+04</pdfrwt>
<pdfrwt beam="2">  1       -2 0.23069293E+00 0.19598234E+04</pdfrwt>
<totfact> 0.18096343E-01</totfact>
</mgrwt>
</event>
<event>
 4    1  0.2799069E-007  0.6947067E+03  0.7818608E-02  0.1001991E+00
         -2   -1    0    0    0  501 -0.00000000000E+00  0.00000000000E+00  0.68945704062E+03  0.68945704063E+03  0.25500000000E-02 0.  1.
          2   -1    0    0  501    0  0.00000000000E+00 -0.00000000000E+00 -0.14639404627E+04  0.14639404627E+04  0.25500000000E-02 0. -1.
    8880023    1    1    2    0    0 -0.87588271210E+02  0.20281879979E+03  0.49677624385E+03  0.85405152861E+03  0.65864270000E+03 0.  1.
    8880022    1    1    2    0    0  0.87588271210E+02 -0.20281879979E+03 -0.12712596659E+04  0.12993459747E+04  0.15294330000E+03 0.  0.
<mgrwt>
<rscale>  0 0.54785720E+03</rscale>
<asrwt>0</asrwt>
<pdfrwt beam="1">  1        2 0.22522161E+00 0.69470668E+03</pdfrwt>
<pdfrwt beam="2">  1       -2 0.10607031E+00 0.69470668E+03</pdfrwt>
<totfact> 0.98505865E+00</totfact>
</mgrwt>
</event>
<event>
 4    1  0.2799069E-007  0.1007456E+04  0.7818608E-02  0.9371867E-01
          2   -1    0    0  501    0  0.00000000000E+00  0.00000000000E+00  0.12704209244E+04  0.12704209244E+04  0.25500000000E-02 0. -1.
         -2   -1    0    0    0  501 -0.00000000000E+00 -0.00000000000E+00 -0.73156220201E+03  0.73156220202E+03  0.25500000000E-02 0.  1.
    8880023    1    1    2    0    0  0.61515165287E+03 -0.45027330977E+03 -0.76578154606E+02  0.10103623259E+04  0.65864270000E+03 0.  0.
    8880022    1    1    2    0    0 -0.61515165287E+03  0.45027330977E+03  0.61543687702E+03  0.99162080057E+03  0.15294330000E+03 0.  0.
<mgrwt>
<rscale>  0 0.94427516E+03</rscale>
<asrwt>0</asrwt>
<pdfrwt beam="1">  1        2 0.19544937E+00 0.10074561E+04</pdfrwt>
<pdfrwt beam="2">  1       -2 0.11254803E+00 0.10074561E+04</pdfrwt>
<totfact> 0.10613968E+01</totfact>
</mgrwt>
</event>
<event>
 4    1  0.2799069E-007  0.8718639E+03  0.7818608E-02  0.9572799E-01
         -2   -1    0    0    0  501 -0.00000000000E+00  0.00000000000E+00  0.72698803011E+03  0.72698803012E+03  0.25500000000E-02 0.  1.
          2   -1    0    0  501    0  0.00000000000E+00 -0.00000000000E+00 -0.18123010202E+04  0.18123010202E+04  0.25500000000E-02 0. -1.
    8880023    1    1    2    0    0  0.29525397709E+03  0.48904140380E+03  0.38606378455E+03  0.95351552564E+03  0.65864270000E+03 0.  1.
    8880022    1    1    2    0    0 -0.29525397709E+03 -0.48904140380E+03 -0.14713767746E+04  0.15857735247E+04  0.15294330000E+03 0.  0.
<mgrwt>
<rscale>  0 0.79123014E+03</rscale>
<asrwt>0</asrwt>
<pdfrwt beam="1">  1        2 0.27881554E+00 0.87186387E+03</pdfrwt>
<pdfrwt beam="2">  1       -2 0.11184431E+00 0.87186387E+03</pdfrwt>
<totfact> 0.54321103E+00</totfact>
</mgrwt>
</event>
<event>
 4    1  0.2799069E-007  0.7024316E+03  0.7818608E-02  0.9987260E-01
         -2   -1    0    0    0  501 -0.00000000000E+00  0.00000000000E+00  0.46452193678E+03  0.46452193679E+03  0.25500000000E-02 0.  1.
          2   -1    0    0  501    0  0.00000000000E+00 -0.00000000000E+00 -0.67390383727E+03  0.67390383728E+03  0.25500000000E-02 0. -1.
    8880023    1    1    2    0    0 -0.22530616878E+03  0.94005917074E+02  0.10700243275E+03  0.71053480493E+03  0.65864270000E+03 0.  1.
    8880022    1    1    2    0    0  0.22530616878E+03 -0.94005917074E+02 -0.31638433325E+03  0.42789096914E+03  0.15294330000E+03 0.  0.
<mgrwt>
<rscale>  0 0.56212426E+03</rscale>
<asrwt>0</asrwt>
<pdfrwt beam="1">  1        2 0.10367751E+00 0.70243163E+03</pdfrwt>
<pdfrwt beam="2">  1       -2 0.71464913E-01 0.70243163E+03</pdfrwt>
<totfact> 0.77540154E+01</totfact>
</mgrwt>
</event>
<event>
 4    1  0.2799069E-007  0.8359680E+03  0.7818608E-02  0.9637830E-01
          2   -1    0    0  501    0  0.00000000000E+00  0.00000000000E+00  0.64460925960E+03  0.64460925960E+03  0.25500000000E-02 0. -1.
         -2   -1    0    0    0  501 -0.00000000000E+00 -0.00000000000E+00 -0.19880458254E+04  0.19880458254E+04  0.25500000000E-02 0.  1.
    8880023    1    1    2    0    0  0.34111786383E+03  0.38557862220E+03 -0.17629917880E+04  0.19511490260E+04  0.65864270000E+03 0.  1.
    8880022    1    1    2    0    0 -0.34111786383E+03 -0.38557862220E+03  0.41955522220E+03  0.68150605897E+03  0.15294330000E+03 0.  0.
<mgrwt>
<rscale>  0 0.74842131E+03</rscale>
<asrwt>0</asrwt>
<pdfrwt beam="1">  1        2 0.99170657E-01 0.83596799E+03</pdfrwt>
<pdfrwt beam="2">  1       -2 0.30585320E+00 0.83596799E+03</pdfrwt>
<totfact> 0.13688930E+00</totfact>
</mgrwt>
</event>
<event>
 4    1  0.2799069E-007  0.1824666E+04  0.7818608E-02  0.8709013E-01
         -2   -1    0    0    0  501 -0.00000000000E+00  0.00000000000E+00  0.17415119151E+04  0.17415119151E+04  0.25500000000E-02 0.  1.
          2   -1    0    0  501    0  0.00000000000E+00 -0.00000000000E+00 -0.18511520978E+04  0.18511520978E+04  0.25500000000E-02 0. -1.
    8880023    1    1    2    0    0  0.86621592995E+03 -0.14646730549E+04  0.26431958122E+03  0.18437115399E+04  0.65864270000E+03 0.  0.
    8880022    1    1    2    0    0 -0.86621592995E+03  0.14646730549E+04 -0.37395976388E+03  0.17489524731E+04  0.15294330000E+03 0.  0.
<mgrwt>
<rscale>  0 0.17949058E+04</rscale>
<asrwt>0</asrwt>
<pdfrwt beam="1">  1        2 0.28479263E+00 0.18246664E+04</pdfrwt>
<pdfrwt beam="2">  1       -2 0.26792491E+00 0.18246664E+04</pdfrwt>
<totfact> 0.36639704E-01</totfact>
</mgrwt>
</event>
<event>
 4    1  0.2799069E-007  0.1415467E+04  0.7818608E-02  0.8971757E-01
         -2   -1    0    0    0  501 -0.00000000000E+00  0.00000000000E+00  0.13007770195E+04  0.13007770195E+04  0.25500000000E-02 0.  1.
          2   -1    0    0  501    0  0.00000000000E+00 -0.00000000000E+00 -0.17877185826E+04  0.17877185826E+04  0.25500000000E-02 0. -1.
    8880023    1    1    2    0    0  0.11056268165E+04  0.58934292724E+03 -0.99256655379E+03  0.17287956251E+04  0.65864270000E+03 0.  0.
    8880022    1    1    2    0    0 -0.11056268165E+04 -0.58934292724E+03  0.50562499064E+03  0.13596999770E+04  0.15294330000E+03 0.  0.
<mgrwt>
<rscale>  0 0.13754856E+04</rscale>
<asrwt>0</asrwt>
<pdfrwt beam="1">  1        2 0.27503363E+00 0.14154667E+04</pdfrwt>
<pdfrwt beam="2">  1       -2 0.20011954E+00 0.14154667E+04</pdfrwt>
<totfact> 0.11031351E+00</totfact>
</mgrwt>
</event>
<event>
 4    1  0.2799069E-007  0.9108813E+03  0.7818608E-02  0.9508785E-01
         -2   -1    0    0    0  501 -0.00000000000E+00  0.00000000000E+00  0.28263462193E+03  0.28263462195E+03  0.25500000000E-02 0.  1.
          2   -1    0    0  501    0  0.00000000000E+00 -0.00000000000E+00 -0.41191743353E+04  0.41191743353E+04  0.25500000000E-02 0. -1.
    8880023    1    1    2    0    0  0.95375229070E+01  0.62912925338E+03 -0.57628286039E+03  0.10778713853E+04  0.65864270000E+03 0.  1.
    8880022    1    1    2    0    0 -0.95375229070E+01 -0.62912925338E+03 -0.32602568530E+04  0.33239375719E+04  0.15294330000E+03 0.  0.
<mgrwt>
<rscale>  0 0.83639259E+03</rscale>
<asrwt>0</asrwt>
<pdfrwt beam="1">  1        2 0.63371908E+00 0.91088132E+03</pdfrwt>
<pdfrwt beam="2">  1       -2 0.43482253E-01 0.91088132E+03</pdfrwt>
<totfact> 0.14738032E+00</totfact>
</mgrwt>
</event>
<event>
 4    1  0.2799069E-007  0.1155178E+04  0.7818608E-02  0.9201974E-01
         -2   -1    0    0    0  501 -0.00000000000E+00  0.00000000000E+00  0.33767253640E+03  0.33767253641E+03  0.25500000000E-02 0.  1.
          2   -1    0    0  501    0  0.00000000000E+00 -0.00000000000E+00 -0.36145003079E+04  0.36145003079E+04  0.25500000000E-02 0. -1.
    8880023    1    1    2    0    0  0.89275373837E+03 -0.32189395937E+03 -0.12107518519E+04  0.16734261895E+04  0.65864270000E+03 0.  0.
    8880022    1    1    2    0    0 -0.89275373837E+03  0.32189395937E+03 -0.20660759196E+04  0.22787466549E+04  0.15294330000E+03 0.  0.
<mgrwt>
<rscale>  0 0.11033074E+04</rscale>
<asrwt>0</asrwt>
<pdfrwt beam="1">  1        2 0.55607694E+00 0.11551775E+04</pdfrwt>
<pdfrwt beam="2">  1       -2 0.51949624E-01 0.11551775E+04</pdfrwt>
<totfact> 0.23973820E+00</totfact>
</mgrwt>
</event>
<event>
 4    1  0.5709026E-007  0.1109695E+04  0.7818608E-02  0.9250338E-01
          2   -1    0    0  501    0  0.00000000000E+00  0.00000000000E+00  0.16705762407E+04  0.16705762407E+04  0.25500000000E-02 0. -1.
         -2   -1    0    0    0  501 -0.00000000000E+00 -0.00000000000E+00 -0.17775889101E+04  0.17775889101E+04  0.25500000000E-02 0.  1.
    8880023    1    1    2    0    0  0.89225039494E+03  0.38762955177E+02 -0.14513513777E+04  0.18269768367E+04  0.65864270000E+03 0.  0.
    8880022    1    1    2    0    0 -0.89225039494E+03 -0.38762955177E+02  0.13443387084E+04  0.16211883141E+04  0.15294330000E+03 0.  0.
<mgrwt>
<rscale>  0 0.10548629E+04</rscale>
<asrwt>0</asrwt>
<pdfrwt beam="1">  1        2 0.25701173E+00 0.11096952E+04</pdfrwt>
<pdfrwt beam="2">  1       -2 0.27347522E+00 0.11096952E+04</pdfrwt>
<totfact> 0.46340118E-01</totfact>
</mgrwt>
</event>
<event>
 4    1  0.2799069E-007  0.7259586E+03  0.7818608E-02  0.9902917E-01
          2   -1    0    0  501    0  0.00000000000E+00  0.00000000000E+00  0.15303477110E+04  0.15303477110E+04  0.25500000000E-02 0. -1.
         -2   -1    0    0    0  501 -0.00000000000E+00 -0.00000000000E+00 -0.24479012177E+03  0.24479012179E+03  0.25500000000E-02 0.  1.
    8880023    1    1    2    0    0 -0.28272259945E+03  0.11521148251E+03  0.40634400260E+03  0.83194435430E+03  0.65864270000E+03 0.  1.
    8880022    1    1    2    0    0  0.28272259945E+03 -0.11521148251E+03  0.87921358666E+03  0.94319347852E+03  0.15294330000E+03 0.  0.
<mgrwt>
<rscale>  0 0.60120146E+03</rscale>
<asrwt>0</asrwt>
<pdfrwt beam="1">  1        2 0.23543811E+00 0.72595865E+03</pdfrwt>
<pdfrwt beam="2">  1       -2 0.37660019E-01 0.72595865E+03</pdfrwt>
<totfact> 0.82964035E+01</totfact>
</mgrwt>
</event>
<event>
 4    1  0.2799069E-007  0.7437060E+03  0.7818608E-02  0.9849280E-01
         -2   -1    0    0    0  501 -0.00000000000E+00  0.00000000000E+00  0.13835597853E+04  0.13835597853E+04  0.25500000000E-02 0.  1.
          2   -1    0    0  501    0  0.00000000000E+00 -0.00000000000E+00 -0.55783900244E+03  0.55783900245E+03  0.25500000000E-02 0. -1.
    8880023    1    1    2    0    0  0.18282603637E+03 -0.29302407277E+03  0.11986289998E+04  0.14106063066E+04  0.65864270000E+03 0.  1.
    8880022    1    1    2    0    0 -0.18282603637E+03  0.29302407277E+03 -0.37290821693E+03  0.53079248117E+03  0.15294330000E+03 0.  0.
<mgrwt>
<rscale>  0 0.62783629E+03</rscale>
<asrwt>0</asrwt>
<pdfrwt beam="1">  1        2 0.85821386E-01 0.74370604E+03</pdfrwt>
<pdfrwt beam="2">  1       -2 0.21285535E+00 0.74370604E+03</pdfrwt>
<totfact> 0.60773139E+00</totfact>
</mgrwt>
</event>
<event>
 4    1  0.2799069E-007  0.6732271E+03  0.7818608E-02  0.1013448E+00
          2   -1    0    0  501    0  0.00000000000E+00  0.00000000000E+00  0.16482471845E+04  0.16482471845E+04  0.25500000000E-02 0. -1.
         -2   -1    0    0    0  501 -0.00000000000E+00 -0.00000000000E+00 -0.43997968337E+03  0.43997968338E+03  0.25500000000E-02 0.  1.
    8880023    1    1    2    0    0 -0.12639768567E+03  0.58720918343E+02 -0.17012488738E+03  0.69438980750E+03  0.65864270000E+03 0.  1.
    8880022    1    1    2    0    0  0.12639768567E+03 -0.58720918343E+02  0.13783923885E+04  0.13938370604E+04  0.15294330000E+03 0.  0.
<mgrwt>
<rscale>  0 0.50127053E+03</rscale>
<asrwt>0</asrwt>
<pdfrwt beam="1">  1        2 0.25357649E+00 0.67322710E+03</pdfrwt>
<pdfrwt beam="2">  1       -2 0.67689182E-01 0.67322710E+03</pdfrwt>
<totfact> 0.21739264E+01</totfact>
</mgrwt>
</event>
<event>
 4    1  0.2799069E-007  0.1519203E+04  0.7818608E-02  0.8896194E-01
         -2   -1    0    0    0  501 -0.00000000000E+00  0.00000000000E+00  0.23128281195E+04  0.23128281195E+04  0.25500000000E-02 0.  1.
          2   -1    0    0  501    0  0.00000000000E+00 -0.00000000000E+00 -0.95500745287E+03  0.95500745288E+03  0.25500000000E-02 0. -1.
    8880023    1    1    2    0    0  0.67632896502E+02 -0.13673303266E+04  0.34454963004E+03  0.15577840301E+04  0.65864270000E+03 0.  0.
    8880022    1    1    2    0    0 -0.67632896502E+02  0.13673303266E+04  0.10132710366E+04  0.17100515423E+04  0.15294330000E+03 0.  0.
<mgrwt>
<rscale>  0 0.14824709E+04</rscale>
<asrwt>0</asrwt>
<pdfrwt beam="1">  1        2 0.14692422E+00 0.15192026E+04</pdfrwt>
<pdfrwt beam="2">  1       -2 0.35581971E+00 0.15192026E+04</pdfrwt>
<totfact> 0.36529422E-01</totfact>
</mgrwt>
</event>
<event>
 4    1  0.2799069E-007  0.7341307E+03  0.7818608E-02  0.9877386E-01
          2   -1    0    0  501    0  0.00000000000E+00  0.00000000000E+00  0.10073327291E+04  0.10073327291E+04  0.25500000000E-02 0. -1.
         -2   -1    0    0    0  501 -0.00000000000E+00 -0.00000000000E+00 -0.53572004611E+03  0.53572004612E+03  0.25500000000E-02 0.  1.
    8880023    1    1    2    0    0 -0.23054532136E+03 -0.22800547978E+03 -0.21800240705E+03  0.76581518642E+03  0.65864270000E+03 0.  0.
    8880022    1    1    2    0    0  0.23054532136E+03  0.22800547978E+03  0.68961509008E+03  0.77723758883E+03  0.15294330000E+03 0.  0.
<mgrwt>
<rscale>  0 0.61369883E+03</rscale>
<asrwt>0</asrwt>
<pdfrwt beam="1">  1        2 0.15497427E+00 0.73413068E+03</pdfrwt>
<pdfrwt beam="2">  1       -2 0.82418469E-01 0.73413068E+03</pdfrwt>
<totfact> 0.32770940E+01</totfact>
</mgrwt>
</event>
<event>
 4    1  0.2799069E-007  0.1108226E+04  0.7818608E-02  0.9251952E-01
         -2   -1    0    0    0  501 -0.00000000000E+00  0.00000000000E+00  0.98772149121E+03  0.98772149121E+03  0.25500000000E-02 0.  1.
          2   -1    0    0  501    0  0.00000000000E+00 -0.00000000000E+00 -0.21077213314E+04  0.21077213314E+04  0.25500000000E-02 0. -1.
    8880023    1    1    2    0    0  0.81013074050E+03 -0.37154113261E+03  0.51884085860E+03  0.12236668961E+04  0.65864270000E+03 0.  1.
    8880022    1    1    2    0    0 -0.81013074050E+03  0.37154113261E+03 -0.16388406988E+04  0.18717759265E+04  0.15294330000E+03 0.  0.
<mgrwt>
<rscale>  0 0.10532915E+04</rscale>
<asrwt>0</asrwt>
<pdfrwt beam="1">  1        2 0.32426482E+00 0.11082260E+04</pdfrwt>
<pdfrwt beam="2">  1       -2 0.15195715E+00 0.11082260E+04</pdfrwt>
<totfact> 0.16584691E+00</totfact>
</mgrwt>
</event>
<event>
 4    1  0.2799069E-007  0.1015477E+04  0.7818608E-02  0.9361583E-01
          2   -1    0    0  501    0  0.00000000000E+00  0.00000000000E+00  0.20169549618E+04  0.20169549618E+04  0.25500000000E-02 0. -1.
         -2   -1    0    0    0  501 -0.00000000000E+00 -0.00000000000E+00 -0.98298890465E+03  0.98298890465E+03  0.25500000000E-02 0.  1.
    8880023    1    1    2    0    0  0.26118954269E+03  0.72743646127E+03 -0.60456960917E+03  0.11818199529E+04  0.65864270000E+03 0.  0.
    8880022    1    1    2    0    0 -0.26118954269E+03 -0.72743646127E+03  0.16385356663E+04  0.18181239136E+04  0.15294330000E+03 0.  0.
<mgrwt>
<rscale>  0 0.95305827E+03</rscale>
<asrwt>0</asrwt>
<pdfrwt beam="1">  1        2 0.31030076E+00 0.10154772E+04</pdfrwt>
<pdfrwt beam="2">  1       -2 0.15122906E+00 0.10154772E+04</pdfrwt>
<totfact> 0.19087169E+00</totfact>
</mgrwt>
</event>
<event>
 4    1  0.2799069E-007  0.8648835E+03  0.7818608E-02  0.9584935E-01
         -2   -1    0    0    0  501 -0.00000000000E+00  0.00000000000E+00  0.54925991157E+03  0.54925991157E+03  0.25500000000E-02 0.  1.
          2   -1    0    0  501    0  0.00000000000E+00 -0.00000000000E+00 -0.15272793904E+04  0.15272793904E+04  0.25500000000E-02 0. -1.
    8880023    1    1    2    0    0  0.11527799710E+03 -0.54856561001E+03  0.80925497183E+02  0.86866126163E+03  0.65864270000E+03 0.  0.
    8880022    1    1    2    0    0 -0.11527799710E+03  0.54856561001E+03 -0.10589449761E+04  0.12078780404E+04  0.15294330000E+03 0. -1.
<mgrwt>
<rscale>  0 0.78301359E+03</rscale>
<asrwt>0</asrwt>
<pdfrwt beam="1">  1        2 0.23496606E+00 0.86488349E+03</pdfrwt>
<pdfrwt beam="2">  1       -2 0.84501526E-01 0.86488349E+03</pdfrwt>
<totfact> 0.15123201E+01</totfact>
</mgrwt>
</event>
<event>
 4    1  0.2799069E-007  0.6871649E+03  0.7818608E-02  0.1005530E+00
          2   -1    0    0  501    0  0.00000000000E+00  0.00000000000E+00  0.51918183455E+03  0.51918183456E+03  0.25500000000E-02 0. -1.
         -2   -1    0    0    0  501 -0.00000000000E+00 -0.00000000000E+00 -0.13228782479E+04  0.13228782479E+04  0.25500000000E-02 0.  1.
    8880023    1    1    2    0    0 -0.17505360873E+03 -0.87986814531E+02 -0.11950039989E+04  0.13784883783E+04  0.65864270000E+03 0.  1.
    8880022    1    1    2    0    0  0.17505360873E+03  0.87986814531E+02  0.39130758550E+03  0.46357170421E+03  0.15294330000E+03 0.  0.
<mgrwt>
<rscale>  0 0.53290425E+03</rscale>
<asrwt>0</asrwt>
<pdfrwt beam="1">  1        2 0.79874129E-01 0.68716494E+03</pdfrwt>
<pdfrwt beam="2">  1       -2 0.20351973E+00 0.68716494E+03</pdfrwt>
<totfact> 0.76387542E+00</totfact>
</mgrwt>
</event>
<event>
 4    1  0.2799069E-007  0.1119527E+04  0.7818608E-02  0.9239621E-01
          2   -1    0    0  501    0  0.00000000000E+00  0.00000000000E+00  0.14699463791E+04  0.14699463791E+04  0.25500000000E-02 0. -1.
         -2   -1    0    0    0  501 -0.00000000000E+00 -0.00000000000E+00 -0.17232821207E+04  0.17232821207E+04  0.25500000000E-02 0.  1.
    8880023    1    1    2    0    0  0.47597672203E+03 -0.77004907487E+03 -0.13559677598E+04  0.17584050130E+04  0.65864270000E+03 0.  0.
    8880022    1    1    2    0    0 -0.47597672203E+03  0.77004907487E+03  0.11026320182E+04  0.14348234868E+04  0.15294330000E+03 0.  0.
<mgrwt>
<rscale>  0 0.10653668E+04</rscale>
<asrwt>0</asrwt>
<pdfrwt beam="1">  1        2 0.22614560E+00 0.11195265E+04</pdfrwt>
<pdfrwt beam="2">  1       -2 0.26512033E+00 0.11195265E+04</pdfrwt>
<totfact> 0.67365816E-01</totfact>
</mgrwt>
</event>
<event>
 4    1  0.2799069E-007  0.8372706E+03  0.7818608E-02  0.9635348E-01
          2   -1    0    0  501    0  0.00000000000E+00  0.00000000000E+00  0.50042447796E+03  0.50042447797E+03  0.25500000000E-02 0. -1.
         -2   -1    0    0    0  501 -0.00000000000E+00 -0.00000000000E+00 -0.13155350261E+04  0.13155350261E+04  0.25500000000E-02 0.  1.
    8880023    1    1    2    0    0 -0.50929149235E+03 -0.88510459368E+02 -0.94387890781E+03  0.12617168955E+04  0.65864270000E+03 0.  1.
    8880022    1    1    2    0    0  0.50929149235E+03  0.88510459368E+02  0.12876835972E+03  0.55424260850E+03  0.15294330000E+03 0.  0.
<mgrwt>
<rscale>  0 0.75000130E+03</rscale>
<asrwt>0</asrwt>
<pdfrwt beam="1">  1        2 0.76988382E-01 0.83727064E+03</pdfrwt>
<pdfrwt beam="2">  1       -2 0.20239000E+00 0.83727064E+03</pdfrwt>
<totfact> 0.79742577E+00</totfact>
</mgrwt>
</event>
<event>
 4    1  0.2799069E-007  0.1013034E+04  0.7818608E-02  0.9364701E-01
          2   -1    0    0  501    0  0.00000000000E+00  0.00000000000E+00  0.24546937539E+04  0.24546937539E+04  0.25500000000E-02 0. -1.
         -2   -1    0    0    0  501 -0.00000000000E+00 -0.00000000000E+00 -0.61335933586E+03  0.61335933587E+03  0.25500000000E-02 0.  1.
    8880023    1    1    2    0    0  0.52988758339E+02 -0.76786668072E+03 -0.56261990712E+02  0.10145948284E+04  0.65864270000E+03 0.  1.
    8880022    1    1    2    0    0 -0.52988758339E+02  0.76786668072E+03  0.18975964088E+04  0.20534582615E+04  0.15294330000E+03 0.  0.
<mgrwt>
<rscale>  0 0.95038490E+03</rscale>
<asrwt>0</asrwt>
<pdfrwt beam="1">  1        2 0.37764519E+00 0.10130337E+04</pdfrwt>
<pdfrwt beam="2">  1       -2 0.94362977E-01 0.10130337E+04</pdfrwt>
<totfact> 0.35234000E+00</totfact>
</mgrwt>
</event>
<event>
 4    1  0.2799069E-007  0.1089259E+04  0.7818608E-02  0.9273111E-01
          2   -1    0    0  501    0  0.00000000000E+00  0.00000000000E+00  0.30475887245E+04  0.30475887245E+04  0.25500000000E-02 0. -1.
         -2   -1    0    0    0  501 -0.00000000000E+00 -0.00000000000E+00 -0.11943596059E+04  0.11943596059E+04  0.25500000000E-02 0.  1.
    8880023    1    1    2    0    0 -0.31020772393E+03 -0.81021311939E+03 -0.86092447026E+03  0.13884074620E+04  0.65864270000E+03 0.  1.
    8880022    1    1    2    0    0  0.31020772393E+03  0.81021311939E+03  0.27141535888E+04  0.28535408684E+04  0.15294330000E+03 0.  0.
<mgrwt>
<rscale>  0 0.10329649E+04</rscale>
<asrwt>0</asrwt>
<pdfrwt beam="1">  1        2 0.46885980E+00 0.10892586E+04</pdfrwt>
<pdfrwt beam="2">  1       -2 0.18374763E+00 0.10892586E+04</pdfrwt>
<totfact> 0.27819635E-01</totfact>
</mgrwt>
</event>
<event>
 4    1  0.2799069E-007  0.1372549E+04  0.7818608E-02  0.9005312E-01
         -2   -1    0    0    0  501 -0.00000000000E+00  0.00000000000E+00  0.12542683847E+04  0.12542683847E+04  0.25500000000E-02 0.  1.
          2   -1    0    0  501    0  0.00000000000E+00 -0.00000000000E+00 -0.14285777091E+04  0.14285777091E+04  0.25500000000E-02 0. -1.
    8880023    1    1    2    0    0 -0.67387554520E+03  0.99798409718E+03  0.25356891249E+03  0.13957750207E+04  0.65864270000E+03 0.  0.
    8880022    1    1    2    0    0  0.67387554520E+03 -0.99798409718E+03 -0.42787823687E+03  0.12870710731E+04  0.15294330000E+03 0.  0.
<mgrwt>
<rscale>  0 0.13310324E+04</rscale>
<asrwt>0</asrwt>
<pdfrwt beam="1">  1        2 0.21978119E+00 0.13725490E+04</pdfrwt>
<pdfrwt beam="2">  1       -2 0.19296437E+00 0.13725490E+04</pdfrwt>
<totfact> 0.19688266E+00</totfact>
</mgrwt>
</event>
<event>
 4    1  0.2799069E-007  0.1308821E+04  0.7818608E-02  0.9057979E-01
          2   -1    0    0  501    0  0.00000000000E+00  0.00000000000E+00  0.13397650103E+04  0.13397650103E+04  0.25500000000E-02 0. -1.
         -2   -1    0    0    0  501 -0.00000000000E+00 -0.00000000000E+00 -0.12404980223E+04  0.12404980223E+04  0.25500000000E-02 0.  1.
    8880023    1    1    2    0    0  0.11303874672E+04 -0.37783905577E+02 -0.34823101975E+03  0.13543553813E+04  0.65864270000E+03 0.  0.
    8880022    1    1    2    0    0 -0.11303874672E+04  0.37783905577E+02  0.44749800778E+03  0.12259076513E+04  0.15294330000E+03 0.  0.
<mgrwt>
<rscale>  0 0.12647698E+04</rscale>
<asrwt>0</asrwt>
<pdfrwt beam="1">  1        2 0.20611769E+00 0.13088215E+04</pdfrwt>
<pdfrwt beam="2">  1       -2 0.19084585E+00 0.13088215E+04</pdfrwt>
<totfact> 0.23029334E+00</totfact>
</mgrwt>
</event>
<event>
 4    1  0.2799069E-007  0.1673554E+04  0.7818608E-02  0.8795908E-01
          2   -1    0    0  501    0  0.00000000000E+00  0.00000000000E+00  0.10369836290E+04  0.10369836290E+04  0.25500000000E-02 0. -1.
         -2   -1    0    0    0  501 -0.00000000000E+00 -0.00000000000E+00 -0.27822812951E+04  0.27822812951E+04  0.25500000000E-02 0.  1.
    8880023    1    1    2    0    0 -0.15374898590E+04 -0.55644526065E+02 -0.15125003037E+04  0.22557568031E+04  0.65864270000E+03 0.  0.
    8880022    1    1    2    0    0  0.15374898590E+04  0.55644526065E+02 -0.23279736239E+03  0.15635081211E+04  0.15294330000E+03 0.  0.
<mgrwt>
<rscale>  0 0.16407322E+04</rscale>
<asrwt>0</asrwt>
<pdfrwt beam="1">  1        2 0.15953594E+00 0.16735536E+04</pdfrwt>
<pdfrwt beam="2">  1       -2 0.42804327E+00 0.16735536E+04</pdfrwt>
<totfact> 0.10772091E-01</totfact>
</mgrwt>
</event>
<event>
 4    1  0.2799069E-007  0.7123517E+03  0.7818608E-02  0.9949370E-01
          2   -1    0    0  501    0  0.00000000000E+00  0.00000000000E+00  0.39766887377E+04  0.39766887377E+04  0.25500000000E-02 0. -1.
         -2   -1    0    0    0  501 -0.00000000000E+00 -0.00000000000E+00 -0.43491759111E+03  0.43491759112E+03  0.25500000000E-02 0.  1.
    8880023    1    1    2    0    0 -0.27058279604E+03 -0.20487502647E+02 -0.13214855887E+03  0.72450551078E+03  0.65864270000E+03 0.  1.
    8880022    1    1    2    0    0  0.27058279604E+03  0.20487502647E+02  0.36739197055E+04  0.36871008181E+04  0.15294330000E+03 0.  0.
<mgrwt>
<rscale>  0 0.57927145E+03</rscale>
<asrwt>0</asrwt>
<pdfrwt beam="1">  1        2 0.61179827E+00 0.71235173E+03</pdfrwt>
<pdfrwt beam="2">  1       -2 0.66910399E-01 0.71235173E+03</pdfrwt>
<totfact> 0.82261150E-01</totfact>
</mgrwt>
</event>
<event>
 4    1  0.2799069E-007  0.8445238E+03  0.7818608E-02  0.9621708E-01
          2   -1    0    0  501    0  0.00000000000E+00  0.00000000000E+00  0.27967967833E+04  0.27967967833E+04  0.25500000000E-02 0. -1.
         -2   -1    0    0    0  501 -0.00000000000E+00 -0.00000000000E+00 -0.45075227976E+03  0.45075227976E+03  0.25500000000E-02 0.  1.
    8880023    1    1    2    0    0  0.46895495755E+03  0.24390881637E+03  0.69008697792E+01  0.84455200620E+03  0.65864270000E+03 0.  1.
    8880022    1    1    2    0    0 -0.46895495755E+03 -0.24390881637E+03  0.23391436338E+04  0.24029970569E+04  0.15294330000E+03 0.  0.
<mgrwt>
<rscale>  0 0.75875882E+03</rscale>
<asrwt>0</asrwt>
<pdfrwt beam="1">  1        2 0.43027641E+00 0.84452381E+03</pdfrwt>
<pdfrwt beam="2">  1       -2 0.69346508E-01 0.84452381E+03</pdfrwt>
<totfact> 0.45908887E+00</totfact>
</mgrwt>
</event>
<event>
 4    1  0.2799069E-007  0.1724607E+04  0.7818608E-02  0.8765429E-01
          2   -1    0    0  501    0  0.00000000000E+00  0.00000000000E+00  0.20249098415E+04  0.20249098415E+04  0.25500000000E-02 0. -1.
         -2   -1    0    0    0  501 -0.00000000000E+00 -0.00000000000E+00 -0.16277413695E+04  0.16277413695E+04  0.25500000000E-02 0.  1.
    8880023    1    1    2    0    0  0.14284047518E+04 -0.70718974489E+03 -0.52770121669E+03  0.18035343774E+04  0.65864270000E+03 0.  0.
    8880022    1    1    2    0    0 -0.14284047518E+04  0.70718974489E+03  0.92486968874E+03  0.18491168336E+04  0.15294330000E+03 0.  0.
<mgrwt>
<rscale>  0 0.16928913E+04</rscale>
<asrwt>0</asrwt>
<pdfrwt beam="1">  1        2 0.31152459E+00 0.17246065E+04</pdfrwt>
<pdfrwt beam="2">  1       -2 0.25042175E+00 0.17246065E+04</pdfrwt>
<totfact> 0.37872903E-01</totfact>
</mgrwt>
</event>
<event>
 4    1  0.2799069E-007  0.1417443E+04  0.7818608E-02  0.8970246E-01
         -2   -1    0    0    0  501 -0.00000000000E+00  0.00000000000E+00  0.10198765989E+04  0.10198765989E+04  0.25500000000E-02 0.  1.
          2   -1    0    0  501    0  0.00000000000E+00 -0.00000000000E+00 -0.19869360796E+04  0.19869360796E+04  0.25500000000E-02 0. -1.
    8880023    1    1    2    0    0 -0.65154486823E+03 -0.10727647903E+04 -0.10119555229E+04  0.17416082215E+04  0.65864270000E+03 0.  0.
    8880022    1    1    2    0    0  0.65154486823E+03  0.10727647903E+04  0.44896042191E+02  0.12652044571E+04  0.15294330000E+03 0.  0.
<mgrwt>
<rscale>  0 0.13775299E+04</rscale>
<asrwt>0</asrwt>
<pdfrwt beam="1">  1        2 0.30568247E+00 0.14174432E+04</pdfrwt>
<pdfrwt beam="2">  1       -2 0.15690409E+00 0.14174432E+04</pdfrwt>
<totfact> 0.17161945E+00</totfact>
</mgrwt>
</event>
<event>
 4    1  0.2799069E-007  0.9391472E+03  0.7818608E-02  0.9465904E-01
         -2   -1    0    0    0  501 -0.00000000000E+00  0.00000000000E+00  0.37748419074E+03  0.37748419075E+03  0.25500000000E-02 0.  1.
          2   -1    0    0  501    0  0.00000000000E+00 -0.00000000000E+00 -0.23008671813E+04  0.23008671813E+04  0.25500000000E-02 0. -1.
    8880023    1    1    2    0    0  0.66900278300E+03 -0.24950666989E+02 -0.42648187113E+03  0.10314476488E+04  0.65864270000E+03 0.  1.
    8880022    1    1    2    0    0 -0.66900278300E+03  0.24950666989E+02 -0.14969011194E+04  0.16469037233E+04  0.15294330000E+03 0.  0.
<mgrwt>
<rscale>  0 0.86844946E+03</rscale>
<asrwt>0</asrwt>
<pdfrwt beam="1">  1        2 0.35397956E+00 0.93914720E+03</pdfrwt>
<pdfrwt beam="2">  1       -2 0.58074492E-01 0.93914720E+03</pdfrwt>
<totfact> 0.12760234E+01</totfact>
</mgrwt>
</event>
<event>
 4    1  0.2799069E-007  0.6699642E+03  0.7818608E-02  0.1015689E+00
         -2   -1    0    0    0  501 -0.00000000000E+00  0.00000000000E+00  0.24484630195E+03  0.24484630197E+03  0.25500000000E-02 0.  1.
          2   -1    0    0  501    0  0.00000000000E+00 -0.00000000000E+00 -0.30488065017E+04  0.30488065017E+04  0.25500000000E-02 0. -1.
    8880023    1    1    2    0    0  0.10194211939E+03  0.68187728517E+02 -0.22424157640E+03  0.70649575574E+03  0.65864270000E+03 0.  1.
    8880022    1    1    2    0    0 -0.10194211939E+03 -0.68187728517E+02 -0.25797186233E+04  0.25871570479E+04  0.15294330000E+03 0.  0.
<mgrwt>
<rscale>  0 0.49275075E+03</rscale>
<asrwt>0</asrwt>
<pdfrwt beam="1">  1        2 0.46904713E+00 0.66996415E+03</pdfrwt>
<pdfrwt beam="2">  1       -2 0.37668664E-01 0.66996415E+03</pdfrwt>
<totfact> 0.11649912E+01</totfact>
</mgrwt>
</event>
<event>
 4    1  0.2799069E-007  0.7831845E+03  0.7818608E-02  0.9748409E-01
         -2   -1    0    0    0  501 -0.00000000000E+00  0.00000000000E+00  0.21718417582E+03  0.21718417584E+03  0.25500000000E-02 0.  1.
          2   -1    0    0  501    0  0.00000000000E+00 -0.00000000000E+00 -0.21050457643E+04  0.21050457643E+04  0.25500000000E-02 0. -1.
    8880023    1    1    2    0    0  0.16428998872E+03 -0.39061052885E+03 -0.69486016120E+03  0.10469998259E+04  0.65864270000E+03 0.  0.
    8880022    1    1    2    0    0 -0.16428998872E+03  0.39061052885E+03 -0.11930014273E+04  0.12752301142E+04  0.15294330000E+03 0.  0.
<mgrwt>
<rscale>  0 0.68206259E+03</rscale>
<asrwt>0</asrwt>
<pdfrwt beam="1">  1        2 0.32385318E+00 0.78318452E+03</pdfrwt>
<pdfrwt beam="2">  1       -2 0.33412952E-01 0.78318452E+03</pdfrwt>
<totfact> 0.50215630E+01</totfact>
</mgrwt>
</event>
<event>
 4    1  0.2799069E-007  0.9371065E+03  0.7818608E-02  0.9468913E-01
         -2   -1    0    0    0  501 -0.00000000000E+00  0.00000000000E+00  0.29331107072E+03  0.29331107073E+03  0.25500000000E-02 0.  1.
          2   -1    0    0  501    0  0.00000000000E+00 -0.00000000000E+00 -0.32934310779E+04  0.32934310779E+04  0.25500000000E-02 0. -1.
    8880023    1    1    2    0    0 -0.17542200335E+03 -0.64310610288E+03 -0.65344430281E+03  0.11424351194E+04  0.65864270000E+03 0.  1.
    8880022    1    1    2    0    0  0.17542200335E+03  0.64310610288E+03 -0.23466757043E+04  0.24443070292E+04  0.15294330000E+03 0.  0.
<mgrwt>
<rscale>  0 0.86615063E+03</rscale>
<asrwt>0</asrwt>
<pdfrwt beam="1">  1        2 0.50668168E+00 0.93710647E+03</pdfrwt>
<pdfrwt beam="2">  1       -2 0.45124782E-01 0.93710647E+03</pdfrwt>
<totfact> 0.54544233E+00</totfact>
</mgrwt>
</event>
<event>
 4    1  0.2799069E-007  0.7786371E+03  0.7818608E-02  0.9759048E-01
          2   -1    0    0  501    0  0.00000000000E+00  0.00000000000E+00  0.11452883862E+04  0.11452883862E+04  0.25500000000E-02 0. -1.
         -2   -1    0    0    0  501 -0.00000000000E+00 -0.00000000000E+00 -0.79480021929E+03  0.79480021929E+03  0.25500000000E-02 0.  1.
    8880023    1    1    2    0    0 -0.38103942044E+03  0.16514986442E+03 -0.53872207008E+03  0.94683535670E+03  0.65864270000E+03 0.  1.
    8880022    1    1    2    0    0  0.38103942044E+03 -0.16514986442E+03  0.88921023701E+03  0.99325324881E+03  0.15294330000E+03 0.  0.
<mgrwt>
<rscale>  0 0.67607325E+03</rscale>
<asrwt>0</asrwt>
<pdfrwt beam="1">  1        2 0.17619821E+00 0.77863709E+03</pdfrwt>
<pdfrwt beam="2">  1       -2 0.12227696E+00 0.77863709E+03</pdfrwt>
<totfact> 0.10515851E+01</totfact>
</mgrwt>
</event>
<event>
 4    1  0.2799069E-007  0.8164456E+03  0.7818608E-02  0.9676304E-01
         -2   -1    0    0    0  501 -0.00000000000E+00  0.00000000000E+00  0.81190269205E+03  0.81190269205E+03  0.25500000000E-02 0.  1.
          2   -1    0    0  501    0  0.00000000000E+00 -0.00000000000E+00 -0.13579138374E+04  0.13579138374E+04  0.25500000000E-02 0. -1.
    8880023    1    1    2    0    0 -0.36104645453E+03 -0.32002926968E+03  0.53504712346E+03  0.97614492078E+03  0.65864270000E+03 0.  1.
    8880022    1    1    2    0    0  0.36104645453E+03  0.32002926968E+03 -0.10810582689E+04  0.11936716087E+04  0.15294330000E+03 0.  0.
<mgrwt>
<rscale>  0 0.72445333E+03</rscale>
<asrwt>0</asrwt>
<pdfrwt beam="1">  1        2 0.20890982E+00 0.81644564E+03</pdfrwt>
<pdfrwt beam="2">  1       -2 0.12490811E+00 0.81644564E+03</pdfrwt>
<totfact> 0.74505506E+00</totfact>
</mgrwt>
</event>
<event>
 4    1  0.2799069E-007  0.1375327E+04  0.7818608E-02  0.9003095E-01
         -2   -1    0    0    0  501 -0.00000000000E+00  0.00000000000E+00  0.71839309517E+03  0.71839309518E+03  0.25500000000E-02 0.  1.
          2   -1    0    0  501    0  0.00000000000E+00 -0.00000000000E+00 -0.32726360333E+04  0.32726360333E+04  0.25500000000E-02 0. -1.
    8880023    1    1    2    0    0 -0.98966562633E+03  0.69157538141E+03 -0.23974995390E+04  0.27639697549E+04  0.65864270000E+03 0. -1.
    8880022    1    1    2    0    0  0.98966562633E+03 -0.69157538141E+03 -0.15674339910E+03  0.12270593736E+04  0.15294330000E+03 0.  0.
<mgrwt>
<rscale>  0 0.13339139E+04</rscale>
<asrwt>0</asrwt>
<pdfrwt beam="1">  1        2 0.50348246E+00 0.13753271E+04</pdfrwt>
<pdfrwt beam="2">  1       -2 0.11052202E+00 0.13753271E+04</pdfrwt>
<totfact> 0.73282903E-01</totfact>
</mgrwt>
</event>
<event>
 4    1  0.2799069E-007  0.6722579E+03  0.7818608E-02  0.1014093E+00
          2   -1    0    0  501    0  0.00000000000E+00  0.00000000000E+00  0.65601757834E+03  0.65601757834E+03  0.25500000000E-02 0. -1.
         -2   -1    0    0    0  501 -0.00000000000E+00 -0.00000000000E+00 -0.12573690696E+04  0.12573690696E+04  0.25500000000E-02 0.  1.
    8880023    1    1    2    0    0  0.79527730281E+02  0.10860875215E+03 -0.11478063253E+04  0.13301842307E+04  0.65864270000E+03 0.  1.
    8880022    1    1    2    0    0 -0.79527730281E+02 -0.10860875215E+03  0.54645483400E+03  0.58320241730E+03  0.15294330000E+03 0.  0.
<mgrwt>
<rscale>  0 0.49879706E+03</rscale>
<asrwt>0</asrwt>
<pdfrwt beam="1">  1        2 0.10092578E+00 0.67225793E+03</pdfrwt>
<pdfrwt beam="2">  1       -2 0.19344140E+00 0.67225793E+03</pdfrwt>
<totfact> 0.67283810E+00</totfact>
</mgrwt>
</event>
<event>
 4    1  0.2799069E-007  0.1807937E+04  0.7818608E-02  0.8718159E-01
          2   -1    0    0  501    0  0.00000000000E+00  0.00000000000E+00  0.29536137173E+04  0.29536137173E+04  0.25500000000E-02 0. -1.
         -2   -1    0    0    0  501 -0.00000000000E+00 -0.00000000000E+00 -0.11188650662E+04  0.11188650662E+04  0.25500000000E-02 0.  1.
    8880023    1    1    2    0    0  0.14162837371E+04 -0.91047570438E+03  0.14996686243E+04  0.23489661175E+04  0.65864270000E+03 0.  0.
    8880022    1    1    2    0    0 -0.14162837371E+04  0.91047570438E+03  0.33508002675E+03  0.17235126659E+04  0.15294330000E+03 0.  0.
<mgrwt>
<rscale>  0 0.17778674E+04</rscale>
<asrwt>0</asrwt>
<pdfrwt beam="1">  1        2 0.45440210E+00 0.18079369E+04</pdfrwt>
<pdfrwt beam="2">  1       -2 0.17213309E+00 0.18079369E+04</pdfrwt>
<totfact> 0.35028949E-01</totfact>
</mgrwt>
</event>
<event>
 4    1  0.2799069E-007  0.1481991E+04  0.7818608E-02  0.8922458E-01
         -2   -1    0    0    0  501 -0.00000000000E+00  0.00000000000E+00  0.10746735187E+04  0.10746735187E+04  0.25500000000E-02 0.  1.
          2   -1    0    0  501    0  0.00000000000E+00 -0.00000000000E+00 -0.20534563041E+04  0.20534563041E+04  0.25500000000E-02 0. -1.
    8880023    1    1    2    0    0  0.12927709863E+04 -0.30204395499E+03 -0.17771373412E+02  0.14820976357E+04  0.65864270000E+03 0.  0.
    8880022    1    1    2    0    0 -0.12927709863E+04  0.30204395499E+03 -0.96101141201E+03  0.16460321870E+04  0.15294330000E+03 0.  0.
<mgrwt>
<rscale>  0 0.14441613E+04</rscale>
<asrwt>0</asrwt>
<pdfrwt beam="1">  1        2 0.31591635E+00 0.14819911E+04</pdfrwt>
<pdfrwt beam="2">  1       -2 0.16533439E+00 0.14819911E+04</pdfrwt>
<totfact> 0.13559909E+00</totfact>
</mgrwt>
</event>
<event>
 4    1  0.2799069E-007  0.8813725E+03  0.7818608E-02  0.9556622E-01
         -2   -1    0    0    0  501 -0.00000000000E+00  0.00000000000E+00  0.20764544635E+04  0.20764544635E+04  0.25500000000E-02 0.  1.
          2   -1    0    0  501    0  0.00000000000E+00 -0.00000000000E+00 -0.11343373811E+04  0.11343373811E+04  0.25500000000E-02 0. -1.
    8880023    1    1    2    0    0 -0.86617460053E+02 -0.57922760595E+03  0.18904097910E+04  0.20857772144E+04  0.65864270000E+03 0.  1.
    8880022    1    1    2    0    0  0.86617460053E+02  0.57922760595E+03 -0.94829270860E+03  0.11250146302E+04  0.15294330000E+03 0.  0.
<mgrwt>
<rscale>  0 0.80235002E+03</rscale>
<asrwt>0</asrwt>
<pdfrwt beam="1">  1        2 0.17451345E+00 0.88137246E+03</pdfrwt>
<pdfrwt beam="2">  1       -2 0.31945453E+00 0.88137246E+03</pdfrwt>
<totfact> 0.51423602E-01</totfact>
</mgrwt>
</event>
<event>
 4    1  0.2799069E-007  0.9900646E+03  0.7818608E-02  0.9394673E-01
         -2   -1    0    0    0  501 -0.00000000000E+00  0.00000000000E+00  0.16535468301E+04  0.16535468301E+04  0.25500000000E-02 0.  1.
          2   -1    0    0  501    0  0.00000000000E+00 -0.00000000000E+00 -0.60355829415E+03  0.60355829416E+03  0.25500000000E-02 0. -1.
    8880023    1    1    2    0    0  0.58350751743E+03  0.45380238788E+03  0.11248977840E+04  0.14985402433E+04  0.65864270000E+03 0.  1.
    8880022    1    1    2    0    0 -0.58350751743E+03 -0.45380238788E+03 -0.74909248051E+02  0.75856488094E+03  0.15294330000E+03 0.  0.
<mgrwt>
<rscale>  0 0.92515357E+03</rscale>
<asrwt>0</asrwt>
<pdfrwt beam="1">  1        2 0.92855125E-01 0.99006456E+03</pdfrwt>
<pdfrwt beam="2">  1       -2 0.25439181E+00 0.99006456E+03</pdfrwt>
<totfact> 0.29754168E+00</totfact>
</mgrwt>
</event>
<event>
 4    1  0.2799069E-007  0.1188687E+04  0.7818608E-02  0.9168199E-01
          2   -1    0    0  501    0  0.00000000000E+00  0.00000000000E+00  0.22982001353E+04  0.22982001353E+04  0.25500000000E-02 0. -1.
         -2   -1    0    0    0  501 -0.00000000000E+00 -0.00000000000E+00 -0.54784139242E+03  0.54784139242E+03  0.25500000000E-02 0.  1.
    8880023    1    1    2    0    0 -0.85661343919E+03  0.49535782983E+03  0.12562236448E+04  0.17294721784E+04  0.65864270000E+03 0.  0.
    8880022    1    1    2    0    0  0.85661343919E+03 -0.49535782983E+03  0.49413509811E+03  0.11165693494E+04  0.15294330000E+03 0.  0.
<mgrwt>
<rscale>  0 0.11387784E+04</rscale>
<asrwt>0</asrwt>
<pdfrwt beam="1">  1        2 0.35356925E+00 0.11886867E+04</pdfrwt>
<pdfrwt beam="2">  1       -2 0.84283291E-01 0.11886867E+04</pdfrwt>
<totfact> 0.54965068E+00</totfact>
</mgrwt>
</event>
<event>
 4    1  0.2799069E-007  0.1103776E+04  0.7818608E-02  0.9256864E-01
          2   -1    0    0  501    0  0.00000000000E+00  0.00000000000E+00  0.40488553845E+04  0.40488553845E+04  0.25500000000E-02 0. -1.
         -2   -1    0    0    0  501 -0.00000000000E+00 -0.00000000000E+00 -0.49036457634E+03  0.49036457635E+03  0.25500000000E-02 0.  1.
    8880023    1    1    2    0    0 -0.69243397473E+03  0.55231004892E+03  0.27859280298E+03  0.11383915652E+04  0.65864270000E+03 0.  0.
    8880022    1    1    2    0    0  0.69243397473E+03 -0.55231004892E+03  0.32798980052E+04  0.34008283957E+04  0.15294330000E+03 0.  0.
<mgrwt>
<rscale>  0 0.10485294E+04</rscale>
<asrwt>0</asrwt>
<pdfrwt beam="1">  1        2 0.62290083E+00 0.11037760E+04</pdfrwt>
<pdfrwt beam="2">  1       -2 0.75440704E-01 0.11037760E+04</pdfrwt>
<totfact> 0.50923703E-01</totfact>
</mgrwt>
</event>
<event>
 4    1  0.2799069E-007  0.7412249E+03  0.7818608E-02  0.9856393E-01
          2   -1    0    0  501    0  0.00000000000E+00  0.00000000000E+00  0.15710743173E+04  0.15710743173E+04  0.25500000000E-02 0. -1.
         -2   -1    0    0    0  501 -0.00000000000E+00 -0.00000000000E+00 -0.47794371906E+03  0.47794371907E+03  0.25500000000E-02 0.  1.
    8880023    1    1    2    0    0 -0.33322849365E+03  0.67549414646E+02 -0.14560832179E+03  0.75539138335E+03  0.65864270000E+03 0.  1.
    8880022    1    1    2    0    0  0.33322849365E+03 -0.67549414646E+02  0.12387389201E+04  0.12936266531E+04  0.15294330000E+03 0.  0.
<mgrwt>
<rscale>  0 0.62422005E+03</rscale>
<asrwt>0</asrwt>
<pdfrwt beam="1">  1        2 0.24170375E+00 0.74122490E+03</pdfrwt>
<pdfrwt beam="2">  1       -2 0.73529801E-01 0.74122490E+03</pdfrwt>
<totfact> 0.19823459E+01</totfact>
</mgrwt>
</event>
<event>
 4    1  0.2799069E-007  0.8503478E+03  0.7818608E-02  0.9610969E-01
         -2   -1    0    0    0  501 -0.00000000000E+00  0.00000000000E+00  0.29356851120E+03  0.29356851121E+03  0.25500000000E-02 0.  1.
          2   -1    0    0  501    0  0.00000000000E+00 -0.00000000000E+00 -0.27496857526E+04  0.27496857526E+04  0.25500000000E-02 0. -1.
    8880023    1    1    2    0    0  0.17216425257E+03 -0.50954939763E+03 -0.45285603579E+03  0.96341575340E+03  0.65864270000E+03 0.  1.
    8880022    1    1    2    0    0 -0.17216425257E+03  0.50954939763E+03 -0.20032612056E+04  0.20798385104E+04  0.15294330000E+03 0.  0.
<mgrwt>
<rscale>  0 0.76574415E+03</rscale>
<asrwt>0</asrwt>
<pdfrwt beam="1">  1        2 0.42302856E+00 0.85034777E+03</pdfrwt>
<pdfrwt beam="2">  1       -2 0.45164388E-01 0.85034777E+03</pdfrwt>
<totfact> 0.11969177E+01</totfact>
</mgrwt>
</event>
<event>
 4    1  0.2799069E-007  0.8989907E+03  0.7818608E-02  0.9527654E-01
         -2   -1    0    0    0  501 -0.00000000000E+00  0.00000000000E+00  0.41005089145E+04  0.41005089145E+04  0.25500000000E-02 0.  1.
          2   -1    0    0  501    0  0.00000000000E+00 -0.00000000000E+00 -0.14707127019E+04  0.14707127019E+04  0.25500000000E-02 0. -1.
    8880023    1    1    2    0    0  0.60477303378E+03  0.92863673320E+02  0.39803793243E+04  0.40806376776E+04  0.65864270000E+03 0.  1.
    8880022    1    1    2    0    0 -0.60477303378E+03 -0.92863673320E+02 -0.13505831117E+04  0.14905839388E+04  0.15294330000E+03 0.  0.
<mgrwt>
<rscale>  0 0.82275366E+03</rscale>
<asrwt>0</asrwt>
<pdfrwt beam="1">  1        2 0.22626349E+00 0.89899071E+03</pdfrwt>
<pdfrwt beam="2">  1       -2 0.63084752E+00 0.89899071E+03</pdfrwt>
<totfact> 0.51634533E-03</totfact>
</mgrwt>
</event>
<event>
 4    1  0.2799069E-007  0.1048404E+04  0.7818608E-02  0.9320803E-01
         -2   -1    0    0    0  501 -0.00000000000E+00  0.00000000000E+00  0.12554851841E+04  0.12554851841E+04  0.25500000000E-02 0.  1.
          2   -1    0    0  501    0  0.00000000000E+00 -0.00000000000E+00 -0.30268731340E+04  0.30268731340E+04  0.25500000000E-02 0. -1.
    8880023    1    1    2    0    0 -0.24176894051E+03 -0.77903007959E+03  0.96376315617E+03  0.14240750377E+04  0.65864270000E+03 0.  0.
    8880022    1    1    2    0    0  0.24176894051E+03  0.77903007959E+03 -0.27351511061E+04  0.28582832805E+04  0.15294330000E+03 0.  0.
<mgrwt>
<rscale>  0 0.98890066E+03</rscale>
<asrwt>0</asrwt>
<pdfrwt beam="1">  1        2 0.46567279E+00 0.10484037E+04</pdfrwt>
<pdfrwt beam="2">  1       -2 0.19315157E+00 0.10484037E+04</pdfrwt>
<totfact> 0.24942069E-01</totfact>
</mgrwt>
</event>
<event>
 4    1  0.2799069E-007  0.8134812E+03  0.7818608E-02  0.9682371E-01
         -2   -1    0    0    0  501 -0.00000000000E+00  0.00000000000E+00  0.55934293130E+03  0.55934293131E+03  0.25500000000E-02 0.  1.
          2   -1    0    0  501    0  0.00000000000E+00 -0.00000000000E+00 -0.94613582489E+03  0.94613582489E+03  0.25500000000E-02 0. -1.
    8880023    1    1    2    0    0  0.54182924049E+02  0.47434756024E+03  0.83920589982E+02  0.81779842800E+03  0.65864270000E+03 0.  0.
    8880022    1    1    2    0    0 -0.54182924049E+02 -0.47434756024E+03 -0.47071348357E+03  0.68768032820E+03  0.15294330000E+03 0.  0.
<mgrwt>
<rscale>  0 0.72076191E+03</rscale>
<asrwt>0</asrwt>
<pdfrwt beam="1">  1        2 0.14555936E+00 0.81348116E+03</pdfrwt>
<pdfrwt beam="2">  1       -2 0.86052759E-01 0.81348116E+03</pdfrwt>
<totfact> 0.32305491E+01</totfact>
</mgrwt>
</event>
<event>
 4    1  0.2799069E-007  0.1305889E+04  0.7818608E-02  0.9060491E-01
         -2   -1    0    0    0  501 -0.00000000000E+00  0.00000000000E+00  0.12825256418E+04  0.12825256418E+04  0.25500000000E-02 0.  1.
          2   -1    0    0  501    0  0.00000000000E+00 -0.00000000000E+00 -0.29148875980E+04  0.29148875980E+04  0.25500000000E-02 0. -1.
    8880023    1    1    2    0    0  0.77116940832E+03 -0.82269899577E+03  0.78636121857E+03  0.15243720236E+04  0.65864270000E+03 0.  0.
    8880022    1    1    2    0    0 -0.77116940832E+03  0.82269899577E+03 -0.24187231748E+04  0.26730412162E+04  0.15294330000E+03 0.  0.
<mgrwt>
<rscale>  0 0.12617124E+04</rscale>
<asrwt>0</asrwt>
<pdfrwt beam="1">  1        2 0.44844425E+00 0.13058890E+04</pdfrwt>
<pdfrwt beam="2">  1       -2 0.19731164E+00 0.13058890E+04</pdfrwt>
<totfact> 0.26333080E-01</totfact>
</mgrwt>
</event>
<event>
 4    1  0.2799069E-007  0.6801828E+03  0.7818608E-02  0.1009220E+00
         -2   -1    0    0    0  501 -0.00000000000E+00  0.00000000000E+00  0.12764332687E+04  0.12764332687E+04  0.25500000000E-02 0.  1.
          2   -1    0    0  501    0  0.00000000000E+00 -0.00000000000E+00 -0.13959958999E+04  0.13959958999E+04  0.25500000000E-02 0. -1.
    8880023    1    1    2    0    0  0.13739706468E+03 -0.99802417872E+02  0.11750952680E+04  0.13577546063E+04  0.65864270000E+03 0.  1.
    8880022    1    1    2    0    0 -0.13739706468E+03  0.99802417872E+02 -0.12946578991E+04  0.13146745623E+04  0.15294330000E+03 0.  0.
<mgrwt>
<rscale>  0 0.51785645E+03</rscale>
<asrwt>0</asrwt>
<pdfrwt beam="1">  1        2 0.21476860E+00 0.68018283E+03</pdfrwt>
<pdfrwt beam="2">  1       -2 0.19637435E+00 0.68018283E+03</pdfrwt>
<totfact> 0.21320389E+00</totfact>
</mgrwt>
</event>
<event>
 4    1  0.2799069E-007  0.7828971E+03  0.7818608E-02  0.9749075E-01
          2   -1    0    0  501    0  0.00000000000E+00  0.00000000000E+00  0.11882258204E+04  0.11882258204E+04  0.25500000000E-02 0. -1.
         -2   -1    0    0    0  501 -0.00000000000E+00 -0.00000000000E+00 -0.67230022343E+03  0.67230022343E+03  0.25500000000E-02 0.  1.
    8880023    1    1    2    0    0  0.28624975841E+02  0.42225375672E+03 -0.37070750111E+03  0.86622853910E+03  0.65864270000E+03 0.  1.
    8880022    1    1    2    0    0 -0.28624975841E+02 -0.42225375672E+03  0.88663309808E+03  0.99429750474E+03  0.15294330000E+03 0.  0.
<mgrwt>
<rscale>  0 0.68168560E+03</rscale>
<asrwt>0</asrwt>
<pdfrwt beam="1">  1        2 0.18280397E+00 0.78289708E+03</pdfrwt>
<pdfrwt beam="2">  1       -2 0.10343080E+00 0.78289708E+03</pdfrwt>
<totfact> 0.14897584E+01</totfact>
</mgrwt>
</event>
<event>
 4    1  0.2799069E-007  0.8000900E+03  0.7818608E-02  0.9710602E-01
          2   -1    0    0  501    0  0.00000000000E+00  0.00000000000E+00  0.20595186318E+04  0.20595186318E+04  0.25500000000E-02 0. -1.
         -2   -1    0    0    0  501 -0.00000000000E+00 -0.00000000000E+00 -0.44680957216E+03  0.44680957216E+03  0.25500000000E-02 0.  1.
    8880023    1    1    2    0    0 -0.40328814303E+03 -0.20902735079E+03 -0.24437949587E+02  0.80046310304E+03  0.65864270000E+03 0.  1.
    8880022    1    1    2    0    0  0.40328814303E+03  0.20902735079E+03  0.16371470092E+04  0.17058651009E+04  0.15294330000E+03 0.  0.
<mgrwt>
<rscale>  0 0.70389074E+03</rscale>
<asrwt>0</asrwt>
<pdfrwt beam="1">  1        2 0.31684903E+00 0.80008997E+03</pdfrwt>
<pdfrwt beam="2">  1       -2 0.68739933E-01 0.80008997E+03</pdfrwt>
<totfact> 0.12319905E+01</totfact>
</mgrwt>
</event>
<event>
 4    1  0.2799069E-007  0.7218134E+03  0.7818608E-02  0.9916497E-01
         -2   -1    0    0    0  501 -0.00000000000E+00  0.00000000000E+00  0.81196511712E+03  0.81196511712E+03  0.25500000000E-02 0.  1.
          2   -1    0    0  501    0  0.00000000000E+00 -0.00000000000E+00 -0.32735775160E+04  0.32735775160E+04  0.25500000000E-02 0. -1.
    8880023    1    1    2    0    0  0.16003665716E+03  0.24817854805E+03  0.64088586464E+03  0.96527157894E+03  0.65864270000E+03 0.  1.
    8880022    1    1    2    0    0 -0.16003665716E+03 -0.24817854805E+03 -0.31024982636E+04  0.31202710542E+04  0.15294330000E+03 0.  0.
<mgrwt>
<rscale>  0 0.59468379E+03</rscale>
<asrwt>0</asrwt>
<pdfrwt beam="1">  1        2 0.50362731E+00 0.72181336E+03</pdfrwt>
<pdfrwt beam="2">  1       -2 0.12491771E+00 0.72181336E+03</pdfrwt>
<totfact> 0.60549728E-01</totfact>
</mgrwt>
</event>
<event>
 4    1  0.2799069E-007  0.6927988E+03  0.7818608E-02  0.1002850E+00
         -2   -1    0    0    0  501 -0.00000000000E+00  0.00000000000E+00  0.44278063091E+03  0.44278063092E+03  0.25500000000E-02 0.  1.
          2   -1    0    0  501    0  0.00000000000E+00 -0.00000000000E+00 -0.17784152171E+04  0.17784152172E+04  0.25500000000E-02 0. -1.
    8880023    1    1    2    0    0  0.31434650766E+02 -0.21253671173E+03  0.15290722221E+03  0.70947220944E+03  0.65864270000E+03 0.  1.
    8880022    1    1    2    0    0 -0.31434650766E+02  0.21253671173E+03 -0.14885418084E+04  0.15117236386E+04  0.15294330000E+03 0.  0.
<mgrwt>
<rscale>  0 0.54418150E+03</rscale>
<asrwt>0</asrwt>
<pdfrwt beam="1">  1        2 0.27360234E+00 0.69279881E+03</pdfrwt>
<pdfrwt beam="2">  1       -2 0.68120098E-01 0.69279881E+03</pdfrwt>
<totfact> 0.18157858E+01</totfact>
</mgrwt>
</event>
<event>
 4    1  0.2799069E-007  0.7787505E+03  0.7818608E-02  0.9758780E-01
          2   -1    0    0  501    0  0.00000000000E+00  0.00000000000E+00  0.12982900961E+04  0.12982900961E+04  0.25500000000E-02 0. -1.
         -2   -1    0    0    0  501 -0.00000000000E+00 -0.00000000000E+00 -0.38881217096E+03  0.38881217097E+03  0.25500000000E-02 0.  1.
    8880023    1    1    2    0    0 -0.41157894082E+03 -0.56964313764E+02  0.12840347843E+03  0.78926536546E+03  0.65864270000E+03 0.  0.
    8880022    1    1    2    0    0  0.41157894082E+03  0.56964313764E+02  0.78107444668E+03  0.89783690158E+03  0.15294330000E+03 0.  0.
<mgrwt>
<rscale>  0 0.67622330E+03</rscale>
<asrwt>0</asrwt>
<pdfrwt beam="1">  1        2 0.19973694E+00 0.77875051E+03</pdfrwt>
<pdfrwt beam="2">  1       -2 0.59817257E-01 0.77875051E+03</pdfrwt>
<totfact> 0.43901394E+01</totfact>
</mgrwt>
</event>
<event>
 4    1  0.2984846E-007  0.8337822E+03  0.7818608E-02  0.9642018E-01
          2   -1    0    0  501    0  0.00000000000E+00  0.00000000000E+00  0.32274746329E+04  0.32274746329E+04  0.25500000000E-02 0. -1.
         -2   -1    0    0    0  501 -0.00000000000E+00 -0.00000000000E+00 -0.19822634666E+04  0.19822634666E+04  0.25500000000E-02 0.  1.
    8880023    1    1    2    0    0 -0.40967926829E+03 -0.30585200831E+03 -0.18708900908E+04  0.20482730511E+04  0.65864270000E+03 0.  1.
    8880022    1    1    2    0    0  0.40967926829E+03  0.30585200831E+03  0.31161012571E+04  0.31614650483E+04  0.15294330000E+03 0.  0.
<mgrwt>
<rscale>  0 0.74576508E+03</rscale>
<asrwt>0</asrwt>
<pdfrwt beam="1">  1        2 0.49653456E+00 0.83378220E+03</pdfrwt>
<pdfrwt beam="2">  1       -2 0.30496361E+00 0.83378220E+03</pdfrwt>
<totfact> 0.39893356E-02</totfact>
</mgrwt>
</event>
<event>
 4    1  0.2799069E-007  0.8680222E+03  0.7818608E-02  0.9579450E-01
         -2   -1    0    0    0  501 -0.00000000000E+00  0.00000000000E+00  0.27298005628E+03  0.27298005630E+03  0.25500000000E-02 0.  1.
          2   -1    0    0  501    0  0.00000000000E+00 -0.00000000000E+00 -0.35332377345E+04  0.35332377345E+04  0.25500000000E-02 0. -1.
    8880023    1    1    2    0    0  0.52574967594E+03  0.20794146462E+03 -0.53703000687E+03  0.10207173012E+04  0.65864270000E+03 0.  0.
    8880022    1    1    2    0    0 -0.52574967594E+03 -0.20794146462E+03 -0.27232276714E+04  0.27855004896E+04  0.15294330000E+03 0.  0.
<mgrwt>
<rscale>  0 0.78671398E+03</rscale>
<asrwt>0</asrwt>
<pdfrwt beam="1">  1        2 0.54357500E+00 0.86802222E+03</pdfrwt>
<pdfrwt beam="2">  1       -2 0.41996934E-01 0.86802222E+03</pdfrwt>
<totfact> 0.43920585E+00</totfact>
</mgrwt>
</event>
<event>
 4    1  0.2799069E-007  0.1025085E+04  0.7818608E-02  0.9349451E-01
          2   -1    0    0  501    0  0.00000000000E+00  0.00000000000E+00  0.41885549427E+04  0.41885549427E+04  0.25500000000E-02 0. -1.
         -2   -1    0    0    0  501 -0.00000000000E+00 -0.00000000000E+00 -0.36154863205E+03  0.36154863206E+03  0.25500000000E-02 0.  1.
    8880023    1    1    2    0    0  0.77080393870E+03 -0.15116041523E+03  0.52343606846E+03  0.11509924878E+04  0.65864270000E+03 0.  0.
    8880022    1    1    2    0    0 -0.77080393870E+03  0.15116041523E+03  0.33035702422E+04  0.33991110869E+04  0.15294330000E+03 0.  0.
<mgrwt>
<rscale>  0 0.96355050E+03</rscale>
<asrwt>0</asrwt>
<pdfrwt beam="1">  1        2 0.64439310E+00 0.10250846E+04</pdfrwt>
<pdfrwt beam="2">  1       -2 0.55622863E-01 0.10250846E+04</pdfrwt>
<totfact> 0.76378957E-01</totfact>
</mgrwt>
</event>
<event>
 4    1  0.2799069E-007  0.1152311E+04  0.7818608E-02  0.9204934E-01
         -2   -1    0    0    0  501 -0.00000000000E+00  0.00000000000E+00  0.13114584821E+04  0.13114584821E+04  0.25500000000E-02 0.  1.
          2   -1    0    0  501    0  0.00000000000E+00 -0.00000000000E+00 -0.14665530645E+04  0.14665530645E+04  0.25500000000E-02 0. -1.
    8880023    1    1    2    0    0 -0.25777341343E+03 -0.90970459630E+03  0.81759730815E+03  0.14128995540E+04  0.65864270000E+03 0.  1.
    8880022    1    1    2    0    0  0.25777341343E+03  0.90970459630E+03 -0.97269189056E+03  0.13651119925E+04  0.15294330000E+03 0.  0.
<mgrwt>
<rscale>  0 0.11002645E+04</rscale>
<asrwt>0</asrwt>
<pdfrwt beam="1">  1        2 0.22562355E+00 0.11523106E+04</pdfrwt>
<pdfrwt beam="2">  1       -2 0.20176284E+00 0.11523106E+04</pdfrwt>
<totfact> 0.16747510E+00</totfact>
</mgrwt>
</event>
<event>
 4    1  0.2799069E-007  0.7550276E+03  0.7818608E-02  0.9818155E-01
         -2   -1    0    0    0  501 -0.00000000000E+00  0.00000000000E+00  0.70490811144E+03  0.70490811144E+03  0.25500000000E-02 0.  1.
          2   -1    0    0  501    0  0.00000000000E+00 -0.00000000000E+00 -0.34865781398E+04  0.34865781398E+04  0.25500000000E-02 0. -1.
    8880023    1    1    2    0    0 -0.35985889520E+03 -0.82207794118E+02  0.48701486233E+03  0.89847105032E+03  0.65864270000E+03 0.  1.
    8880022    1    1    2    0    0  0.35985889520E+03  0.82207794118E+02 -0.32686848907E+04  0.32930152009E+04  0.15294330000E+03 0.  0.
<mgrwt>
<rscale>  0 0.64397298E+03</rscale>
<asrwt>0</asrwt>
<pdfrwt beam="1">  1        2 0.53639663E+00 0.75502765E+03</pdfrwt>
<pdfrwt beam="2">  1       -2 0.10844740E+00 0.75502765E+03</pdfrwt>
<totfact> 0.61409738E-01</totfact>
</mgrwt>
</event>
<event>
 4    1  0.2799069E-007  0.1822265E+04  0.7818608E-02  0.8710319E-01
          2   -1    0    0  501    0  0.00000000000E+00  0.00000000000E+00  0.18568001977E+04  0.18568001977E+04  0.25500000000E-02 0. -1.
         -2   -1    0    0    0  501 -0.00000000000E+00 -0.00000000000E+00 -0.21442259396E+04  0.21442259396E+04  0.25500000000E-02 0.  1.
    8880023    1    1    2    0    0  0.13481560090E+04  0.10340765063E+04  0.78698676494E+03  0.19849426238E+04  0.65864270000E+03 0.  0.
    8880022    1    1    2    0    0 -0.13481560090E+04 -0.10340765063E+04 -0.10744125069E+04  0.20160835135E+04  0.15294330000E+03 0.  0.
<mgrwt>
<rscale>  0 0.17924603E+04</rscale>
<asrwt>0</asrwt>
<pdfrwt beam="1">  1        2 0.28566157E+00 0.18222648E+04</pdfrwt>
<pdfrwt beam="2">  1       -2 0.32988091E+00 0.18222648E+04</pdfrwt>
<totfact> 0.15124740E-01</totfact>
</mgrwt>
</event>
<event>
 4    1  0.2799069E-007  0.1033204E+04  0.7818608E-02  0.9339350E-01
         -2   -1    0    0    0  501 -0.00000000000E+00  0.00000000000E+00  0.61861889704E+03  0.61861889704E+03  0.25500000000E-02 0.  1.
          2   -1    0    0  501    0  0.00000000000E+00 -0.00000000000E+00 -0.18366927181E+04  0.18366927181E+04  0.25500000000E-02 0. -1.
    8880023    1    1    2    0    0 -0.79483605532E+03  0.44001483313E+02 -0.12769158960E+04  0.16425665579E+04  0.65864270000E+03 0. -1.
    8880022    1    1    2    0    0  0.79483605532E+03 -0.44001483313E+02  0.58842074889E+02  0.81274505730E+03  0.15294330000E+03 0.  0.
<mgrwt>
<rscale>  0 0.97239535E+03</rscale>
<asrwt>0</asrwt>
<pdfrwt beam="1">  1        2 0.28256811E+00 0.10332041E+04</pdfrwt>
<pdfrwt beam="2">  1       -2 0.95172139E-01 0.10332041E+04</pdfrwt>
<totfact> 0.76047458E+00</totfact>
</mgrwt>
</event>
<event>
 4    1  0.2799069E-007  0.8521721E+03  0.7818608E-02  0.9607642E-01
         -2   -1    0    0    0  501 -0.00000000000E+00  0.00000000000E+00  0.11923259599E+04  0.11923259599E+04  0.25500000000E-02 0.  1.
          2   -1    0    0  501    0  0.00000000000E+00 -0.00000000000E+00 -0.78106475052E+03  0.78106475053E+03  0.25500000000E-02 0. -1.
    8880023    1    1    2    0    0 -0.49947629003E+03  0.20714839966E+03  0.89217057379E+03  0.12337607397E+04  0.65864270000E+03 0.  0.
    8880022    1    1    2    0    0  0.49947629003E+03 -0.20714839966E+03 -0.48090936443E+03  0.73962997073E+03  0.15294330000E+03 0.  0.
<mgrwt>
<rscale>  0 0.76792414E+03</rscale>
<asrwt>0</asrwt>
<pdfrwt beam="1">  1        2 0.12016381E+00 0.85217207E+03</pdfrwt>
<pdfrwt beam="2">  1       -2 0.18343476E+00 0.85217207E+03</pdfrwt>
<totfact> 0.61501420E+00</totfact>
</mgrwt>
</event>
<event>
 4    1  0.2799069E-007  0.1305911E+04  0.7818608E-02  0.9060472E-01
         -2   -1    0    0    0  501 -0.00000000000E+00  0.00000000000E+00  0.84862942521E+03  0.84862942521E+03  0.25500000000E-02 0.  1.
          2   -1    0    0  501    0  0.00000000000E+00 -0.00000000000E+00 -0.34204796702E+04  0.34204796702E+04  0.25500000000E-02 0. -1.
    8880023    1    1    2    0    0 -0.11245759526E+04  0.83202580829E+02  0.15428506419E+03  0.13149934715E+04  0.65864270000E+03 0.  0.
    8880022    1    1    2    0    0  0.11245759526E+04 -0.83202580829E+02 -0.27261353092E+04  0.29541156240E+04  0.15294330000E+03 0.  0.
<mgrwt>
<rscale>  0 0.12617355E+04</rscale>
<asrwt>0</asrwt>
<pdfrwt beam="1">  1        2 0.52622763E+00 0.13059112E+04</pdfrwt>
<pdfrwt beam="2">  1       -2 0.13055837E+00 0.13059112E+04</pdfrwt>
<totfact> 0.38844125E-01</totfact>
</mgrwt>
</event>
<event>
 4    1  0.2799069E-007  0.2071276E+04  0.7818608E-02  0.8585682E-01
         -2   -1    0    0    0  501 -0.00000000000E+00  0.00000000000E+00  0.21515400221E+04  0.21515400221E+04  0.25500000000E-02 0.  1.
          2   -1    0    0  501    0  0.00000000000E+00 -0.00000000000E+00 -0.19741412836E+04  0.19741412836E+04  0.25500000000E-02 0. -1.
    8880023    1    1    2    0    0 -0.18814350869E+04  0.56265144482E+03  0.49735472906E+03  0.21301517710E+04  0.65864270000E+03 0.  0.
    8880022    1    1    2    0    0  0.18814350869E+04 -0.56265144482E+03 -0.31995599058E+03  0.19955295346E+04  0.15294330000E+03 0.  0.
<mgrwt>
<rscale>  0 0.20454045E+04</rscale>
<asrwt>0</asrwt>
<pdfrwt beam="1">  1        2 0.30371404E+00 0.20712761E+04</pdfrwt>
<pdfrwt beam="2">  1       -2 0.33100616E+00 0.20712761E+04</pdfrwt>
<totfact> 0.12493008E-01</totfact>
</mgrwt>
</event>
<event>
 4    1  0.2799069E-007  0.1224453E+04  0.7818608E-02  0.9133711E-01
         -2   -1    0    0    0  501 -0.00000000000E+00  0.00000000000E+00  0.72104578522E+03  0.72104578523E+03  0.25500000000E-02 0.  1.
          2   -1    0    0  501    0  0.00000000000E+00 -0.00000000000E+00 -0.33884480375E+04  0.33884480375E+04  0.25500000000E-02 0. -1.
    8880023    1    1    2    0    0 -0.88215788666E+03  0.53597753443E+03  0.22104117196E+02  0.12246522987E+04  0.65864270000E+03 0.  0.
    8880022    1    1    2    0    0  0.88215788666E+03 -0.53597753443E+03 -0.26895063695E+04  0.28848415241E+04  0.15294330000E+03 0.  0.
<mgrwt>
<rscale>  0 0.11764632E+04</rscale>
<asrwt>0</asrwt>
<pdfrwt beam="1">  1        2 0.52129969E+00 0.12244528E+04</pdfrwt>
<pdfrwt beam="2">  1       -2 0.11093012E+00 0.12244528E+04</pdfrwt>
<totfact> 0.62058622E-01</totfact>
</mgrwt>
</event>
<event>
 4    1  0.2799069E-007  0.7708304E+03  0.7818608E-02  0.9777835E-01
          2   -1    0    0  501    0  0.00000000000E+00  0.00000000000E+00  0.67632258269E+03  0.67632258269E+03  0.25500000000E-02 0. -1.
         -2   -1    0    0    0  501 -0.00000000000E+00 -0.00000000000E+00 -0.41143577206E+04  0.41143577206E+04  0.25500000000E-02 0.  1.
    8880023    1    1    2    0    0  0.31211102185E+03 -0.25091039062E+03 -0.40057830878E+04  0.40792741593E+04  0.65864270000E+03 0.  1.
    8880022    1    1    2    0    0 -0.31211102185E+03  0.25091039062E+03  0.56774794988E+03  0.71140614398E+03  0.15294330000E+03 0.  0.
<mgrwt>
<rscale>  0 0.66565744E+03</rscale>
<asrwt>0</asrwt>
<pdfrwt beam="1">  1        2 0.10404963E+00 0.77083041E+03</pdfrwt>
<pdfrwt beam="2">  1       -2 0.63297810E+00 0.77083041E+03</pdfrwt>
<totfact> 0.16809143E-02</totfact>
</mgrwt>
</event>
<event>
 4    1  0.2799069E-007  0.1061335E+04  0.7818608E-02  0.9305377E-01
         -2   -1    0    0    0  501 -0.00000000000E+00  0.00000000000E+00  0.54852834853E+03  0.54852834853E+03  0.25500000000E-02 0.  1.
          2   -1    0    0  501    0  0.00000000000E+00 -0.00000000000E+00 -0.23658922953E+04  0.23658922953E+04  0.25500000000E-02 0. -1.
    8880023    1    1    2    0    0  0.52959111206E+03  0.64199341240E+03 -0.18718941829E+03  0.10777162763E+04  0.65864270000E+03 0.  0.
    8880022    1    1    2    0    0 -0.52959111206E+03 -0.64199341240E+03 -0.16301745285E+04  0.18367043676E+04  0.15294330000E+03 0.  1.
<mgrwt>
<rscale>  0 0.10028931E+04</rscale>
<asrwt>0</asrwt>
<pdfrwt beam="1">  1        2 0.36398342E+00 0.10613352E+04</pdfrwt>
<pdfrwt beam="2">  1       -2 0.84388978E-01 0.10613352E+04</pdfrwt>
<totfact> 0.50918953E+00</totfact>
</mgrwt>
</event>
<event>
 4    1  0.2799069E-007  0.1002753E+04  0.7818608E-02  0.9377965E-01
         -2   -1    0    0    0  501 -0.00000000000E+00  0.00000000000E+00  0.15351290000E+04  0.15351290000E+04  0.25500000000E-02 0.  1.
          2   -1    0    0  501    0  0.00000000000E+00 -0.00000000000E+00 -0.95675993164E+03  0.95675993164E+03  0.25500000000E-02 0. -1.
    8880023    1    1    2    0    0  0.15414761470E+03 -0.74023096234E+03  0.11544199636E+04  0.15291170731E+04  0.65864270000E+03 0.  0.
    8880022    1    1    2    0    0 -0.15414761470E+03  0.74023096234E+03 -0.57605089519E+03  0.96277185854E+03  0.15294330000E+03 0.  0.
<mgrwt>
<rscale>  0 0.93911497E+03</rscale>
<asrwt>0</asrwt>
<pdfrwt beam="1">  1        2 0.14719384E+00 0.10027530E+04</pdfrwt>
<pdfrwt beam="2">  1       -2 0.23617369E+00 0.10027530E+04</pdfrwt>
<totfact> 0.20920076E+00</totfact>
</mgrwt>
</event>
<event>
 4    1  0.2799069E-007  0.7291690E+03  0.7818608E-02  0.9892700E-01
          2   -1    0    0  501    0  0.00000000000E+00  0.00000000000E+00  0.22952460307E+04  0.22952460307E+04  0.25500000000E-02 0. -1.
         -2   -1    0    0    0  501 -0.00000000000E+00 -0.00000000000E+00 -0.19142549009E+03  0.19142549011E+03  0.25500000000E-02 0.  1.
    8880023    1    1    2    0    0  0.29410382556E+03 -0.10667793898E+03  0.60365751120E+03  0.94662021950E+03  0.65864270000E+03 0.  0.
    8880022    1    1    2    0    0 -0.29410382556E+03  0.10667793898E+03  0.15001630294E+04  0.15400513013E+04  0.15294330000E+03 0.  0.
<mgrwt>
<rscale>  0 0.60616357E+03</rscale>
<asrwt>0</asrwt>
<pdfrwt beam="1">  1        2 0.35311478E+00 0.72916901E+03</pdfrwt>
<pdfrwt beam="2">  1       -2 0.29450075E-01 0.72916901E+03</pdfrwt>
<totfact> 0.50276753E+01</totfact>
</mgrwt>
</event>
<event>
 4    1  0.2799069E-007  0.8644843E+03  0.7818608E-02  0.9585636E-01
          2   -1    0    0  501    0  0.00000000000E+00  0.00000000000E+00  0.13473215576E+04  0.13473215576E+04  0.25500000000E-02 0. -1.
         -2   -1    0    0    0  501 -0.00000000000E+00 -0.00000000000E+00 -0.13859069604E+04  0.13859069604E+04  0.25500000000E-02 0.  1.
    8880023    1    1    2    0    0  0.39577333294E+02 -0.55853065475E+03 -0.11740606920E+04  0.14579957381E+04  0.65864270000E+03 0.  1.
    8880022    1    1    2    0    0 -0.39577333294E+02  0.55853065475E+03  0.11354752892E+04  0.12752327799E+04  0.15294330000E+03 0.  0.
<mgrwt>
<rscale>  0 0.78254224E+03</rscale>
<asrwt>0</asrwt>
<pdfrwt beam="1">  1        2 0.20728024E+00 0.86448428E+03</pdfrwt>
<pdfrwt beam="2">  1       -2 0.21321646E+00 0.86448428E+03</pdfrwt>
<totfact> 0.17156739E+00</totfact>
</mgrwt>
</event>
<event>
 4    1  0.2799069E-007  0.1330369E+04  0.7818608E-02  0.9039769E-01
         -2   -1    0    0    0  501 -0.00000000000E+00  0.00000000000E+00  0.16427869756E+04  0.16427869756E+04  0.25500000000E-02 0.  1.
          2   -1    0    0  501    0  0.00000000000E+00 -0.00000000000E+00 -0.18945145877E+04  0.18945145877E+04  0.25500000000E-02 0. -1.
    8880023    1    1    2    0    0 -0.55369122093E+03  0.10146410280E+04  0.11185418710E+04  0.17381071622E+04  0.65864270000E+03 0.  1.
    8880022    1    1    2    0    0  0.55369122093E+03 -0.10146410280E+04 -0.13702694831E+04  0.17991944012E+04  0.15294330000E+03 0.  0.
<mgrwt>
<rscale>  0 0.12872114E+04</rscale>
<asrwt>0</asrwt>
<pdfrwt beam="1">  1        2 0.29146378E+00 0.13303686E+04</pdfrwt>
<pdfrwt beam="2">  1       -2 0.25273646E+00 0.13303686E+04</pdfrwt>
<totfact> 0.45208814E-01</totfact>
</mgrwt>
</event>
<event>
 4    1  0.2799069E-007  0.7412300E+03  0.7818608E-02  0.9856379E-01
         -2   -1    0    0    0  501 -0.00000000000E+00  0.00000000000E+00  0.43594324455E+03  0.43594324455E+03  0.25500000000E-02 0.  1.
          2   -1    0    0  501    0  0.00000000000E+00 -0.00000000000E+00 -0.13492649092E+04  0.13492649092E+04  0.25500000000E-02 0. -1.
    8880023    1    1    2    0    0 -0.27473277679E+03 -0.20033363112E+03  0.59278673028E+02  0.74359655038E+03  0.65864270000E+03 0.  1.
    8880022    1    1    2    0    0  0.27473277679E+03  0.20033363112E+03 -0.97260033768E+03  0.10416116034E+04  0.15294330000E+03 0.  0.
<mgrwt>
<rscale>  0 0.62422746E+03</rscale>
<asrwt>0</asrwt>
<pdfrwt beam="1">  1        2 0.20757922E+00 0.74122997E+03</pdfrwt>
<pdfrwt beam="2">  1       -2 0.67068192E-01 0.74122997E+03</pdfrwt>
<totfact> 0.32263620E+01</totfact>
</mgrwt>
</event>
<event>
 4    1  0.2799069E-007  0.6676189E+03  0.7818608E-02  0.1017431E+00
         -2   -1    0    0    0  501 -0.00000000000E+00  0.00000000000E+00  0.28135395416E+03  0.28135395417E+03  0.25500000000E-02 0.  1.
          2   -1    0    0  501    0  0.00000000000E+00 -0.00000000000E+00 -0.19396716543E+04  0.19396716543E+04  0.25500000000E-02 0. -1.
    8880023    1    1    2    0    0  0.91837106254E+02  0.58913039232E+02 -0.12869673251E+03  0.67991018194E+03  0.65864270000E+03 0.  1.
    8880022    1    1    2    0    0 -0.91837106254E+02 -0.58913039232E+02 -0.15296209676E+04  0.15411154266E+04  0.15294330000E+03 0.  0.
<mgrwt>
<rscale>  0 0.48625363E+03</rscale>
<asrwt>0</asrwt>
<pdfrwt beam="1">  1        2 0.29841102E+00 0.66761891E+03</pdfrwt>
<pdfrwt beam="2">  1       -2 0.43285225E-01 0.66761891E+03</pdfrwt>
<totfact> 0.38045166E+01</totfact>
</mgrwt>
</event>
<event>
 4    1  0.2799069E-007  0.9434226E+03  0.7818608E-02  0.9459641E-01
          2   -1    0    0  501    0  0.00000000000E+00  0.00000000000E+00  0.22709408700E+04  0.22709408700E+04  0.25500000000E-02 0. -1.
         -2   -1    0    0    0  501 -0.00000000000E+00 -0.00000000000E+00 -0.81277799980E+03  0.81277799981E+03  0.25500000000E-02 0.  1.
    8880023    1    1    2    0    0 -0.48152539136E+03 -0.47367641364E+03 -0.45620161225E+03  0.10479342368E+04  0.65864270000E+03 0.  1.
    8880022    1    1    2    0    0  0.48152539136E+03  0.47367641364E+03  0.19143644824E+04  0.20357846330E+04  0.15294330000E+03 0.  0.
<mgrwt>
<rscale>  0 0.87325835E+03</rscale>
<asrwt>0</asrwt>
<pdfrwt beam="1">  1        2 0.34937552E+00 0.94342263E+03</pdfrwt>
<pdfrwt beam="2">  1       -2 0.12504277E+00 0.94342263E+03</pdfrwt>
<totfact> 0.22805925E+00</totfact>
</mgrwt>
</event>
<event>
 4    1  0.2799069E-007  0.9637816E+03  0.7818608E-02  0.9430557E-01
          2   -1    0    0  501    0  0.00000000000E+00  0.00000000000E+00  0.16279898387E+04  0.16279898388E+04  0.25500000000E-02 0. -1.
         -2   -1    0    0    0  501 -0.00000000000E+00 -0.00000000000E+00 -0.82472308222E+03  0.82472308223E+03  0.25500000000E-02 0.  1.
    8880023    1    1    2    0    0 -0.35890347105E+03  0.60518848952E+03 -0.40560212723E+03  0.10456519982E+04  0.65864270000E+03 0.  1.
    8880022    1    1    2    0    0  0.35890347105E+03 -0.60518848952E+03  0.12088688838E+04  0.14070609228E+04  0.15294330000E+03 0.  0.
<mgrwt>
<rscale>  0 0.89603096E+03</rscale>
<asrwt>0</asrwt>
<pdfrwt beam="1">  1        2 0.25045997E+00 0.96378162E+03</pdfrwt>
<pdfrwt beam="2">  1       -2 0.12688048E+00 0.96378162E+03</pdfrwt>
<totfact> 0.49616105E+00</totfact>
</mgrwt>
</event>
<event>
 4    1  0.2799069E-007  0.6789207E+03  0.7818608E-02  0.1009941E+00
         -2   -1    0    0    0  501 -0.00000000000E+00  0.00000000000E+00  0.61437840083E+03  0.61437840083E+03  0.25500000000E-02 0.  1.
          2   -1    0    0  501    0  0.00000000000E+00 -0.00000000000E+00 -0.13165536912E+04  0.13165536912E+04  0.25500000000E-02 0. -1.
    8880023    1    1    2    0    0 -0.98274051759E+02  0.13215661933E+03  0.41210787138E+03  0.79420794834E+03  0.65864270000E+03 0.  1.
    8880022    1    1    2    0    0  0.98274051759E+02 -0.13215661933E+03 -0.11142831618E+04  0.11367241437E+04  0.15294330000E+03 0.  0.
<mgrwt>
<rscale>  0 0.51498153E+03</rscale>
<asrwt>0</asrwt>
<pdfrwt beam="1">  1        2 0.20254672E+00 0.67892074E+03</pdfrwt>
<pdfrwt beam="2">  1       -2 0.94519755E-01 0.67892074E+03</pdfrwt>
<totfact> 0.15711804E+01</totfact>
</mgrwt>
</event>
<event>
 4    1  0.3361837E-007  0.1072185E+04  0.7818608E-02  0.9292675E-01
          2   -1    0    0  501    0  0.00000000000E+00  0.00000000000E+00  0.18746795858E+04  0.18746795858E+04  0.25500000000E-02 0. -1.
         -2   -1    0    0    0  501 -0.00000000000E+00 -0.00000000000E+00 -0.15230416517E+04  0.15230416517E+04  0.25500000000E-02 0.  1.
    8880023    1    1    2    0    0 -0.55231242156E+03 -0.64087565208E+03 -0.12089985561E+04  0.16159388378E+04  0.65864270000E+03 0.  1.
    8880022    1    1    2    0    0  0.55231242156E+03  0.64087565208E+03  0.15606364902E+04  0.17817823997E+04  0.15294330000E+03 0.  0.
<mgrwt>
<rscale>  0 0.10145998E+04</rscale>
<asrwt>0</asrwt>
<pdfrwt beam="1">  1        2 0.28841224E+00 0.10721851E+04</pdfrwt>
<pdfrwt beam="2">  1       -2 0.23431410E+00 0.10721851E+04</pdfrwt>
<totfact> 0.62323884E-01</totfact>
</mgrwt>
</event>
<event>
 4    1  0.2799069E-007  0.1842856E+04  0.7818608E-02  0.8699193E-01
          2   -1    0    0  501    0  0.00000000000E+00  0.00000000000E+00  0.21210619505E+04  0.21210619505E+04  0.25500000000E-02 0. -1.
         -2   -1    0    0    0  501 -0.00000000000E+00 -0.00000000000E+00 -0.19863560041E+04  0.19863560041E+04  0.25500000000E-02 0.  1.
    8880023    1    1    2    0    0  0.15737388850E+04 -0.69688967426E+03 -0.94386216520E+03  0.20705060467E+04  0.65864270000E+03 0.  0.
    8880022    1    1    2    0    0 -0.15737388850E+04  0.69688967426E+03  0.10785681117E+04  0.20369119079E+04  0.15294330000E+03 0.  0.
<mgrwt>
<rscale>  0 0.18134242E+04</rscale>
<asrwt>0</asrwt>
<pdfrwt beam="1">  1        2 0.32631722E+00 0.18428563E+04</pdfrwt>
<pdfrwt beam="2">  1       -2 0.30559323E+00 0.18428563E+04</pdfrwt>
<totfact> 0.15162086E-01</totfact>
</mgrwt>
</event>
<event>
 4    1  0.2799069E-007  0.9859430E+03  0.7818608E-02  0.9400184E-01
          2   -1    0    0  501    0  0.00000000000E+00  0.00000000000E+00  0.25376065196E+04  0.25376065196E+04  0.25500000000E-02 0. -1.
         -2   -1    0    0    0  501 -0.00000000000E+00 -0.00000000000E+00 -0.39731545048E+03  0.39731545049E+03  0.25500000000E-02 0.  1.
    8880023    1    1    2    0    0 -0.73347246827E+03  0.17073422225E+02  0.44569886345E+03  0.10820032563E+04  0.65864270000E+03 0.  0.
    8880022    1    1    2    0    0  0.73347246827E+03 -0.17073422225E+02  0.16945922057E+04  0.18529187138E+04  0.15294330000E+03 0.  0.
<mgrwt>
<rscale>  0 0.92060541E+03</rscale>
<asrwt>0</asrwt>
<pdfrwt beam="1">  1        2 0.39040101E+00 0.98594299E+03</pdfrwt>
<pdfrwt beam="2">  1       -2 0.61125453E-01 0.98594299E+03</pdfrwt>
<totfact> 0.83591500E+00</totfact>
</mgrwt>
</event>
<event>
 4    1  0.2799069E-007  0.1425240E+04  0.7818608E-02  0.8964315E-01
         -2   -1    0    0    0  501 -0.00000000000E+00  0.00000000000E+00  0.16517462662E+04  0.16517462662E+04  0.25500000000E-02 0.  1.
          2   -1    0    0  501    0  0.00000000000E+00 -0.00000000000E+00 -0.18649547220E+04  0.18649547220E+04  0.25500000000E-02 0. -1.
    8880023    1    1    2    0    0 -0.11838490082E+04 -0.44271839199E+03  0.10134065907E+04  0.17487999237E+04  0.65864270000E+03 0.  0.
    8880022    1    1    2    0    0  0.11838490082E+04  0.44271839199E+03 -0.12266150465E+04  0.17679010646E+04  0.15294330000E+03 0.  0.
<mgrwt>
<rscale>  0 0.13855912E+04</rscale>
<asrwt>0</asrwt>
<pdfrwt beam="1">  1        2 0.28691611E+00 0.14252397E+04</pdfrwt>
<pdfrwt beam="2">  1       -2 0.25411481E+00 0.14252397E+04</pdfrwt>
<totfact> 0.45534856E-01</totfact>
</mgrwt>
</event>
<event>
 4    1  0.2799069E-007  0.9926274E+03  0.7818608E-02  0.9391267E-01
         -2   -1    0    0    0  501 -0.00000000000E+00  0.00000000000E+00  0.38202264055E+03  0.38202264056E+03  0.25500000000E-02 0.  1.
          2   -1    0    0  501    0  0.00000000000E+00 -0.00000000000E+00 -0.22252115862E+04  0.22252115862E+04  0.25500000000E-02 0. -1.
    8880023    1    1    2    0    0  0.73155132691E+03 -0.12779520541E+03 -0.14386129415E+04  0.17478319028E+04  0.65864270000E+03 0. -1.
    8880022    1    1    2    0    0 -0.73155132691E+03  0.12779520541E+03 -0.40457600416E+03  0.85940232405E+03  0.15294330000E+03 0.  0.
<mgrwt>
<rscale>  0 0.92797836E+03</rscale>
<asrwt>0</asrwt>
<pdfrwt beam="1">  1        2 0.34234024E+00 0.99262740E+03</pdfrwt>
<pdfrwt beam="2">  1       -2 0.58772715E-01 0.99262740E+03</pdfrwt>
<totfact> 0.13627203E+01</totfact>
</mgrwt>
</event>
<event>
 4    1  0.2799069E-007  0.6976366E+03  0.7818608E-02  0.1000715E+00
         -2   -1    0    0    0  501 -0.00000000000E+00  0.00000000000E+00  0.14975154240E+03  0.14975154242E+03  0.25500000000E-02 0.  1.
          2   -1    0    0  501    0  0.00000000000E+00 -0.00000000000E+00 -0.25654047557E+04  0.25654047557E+04  0.25500000000E-02 0. -1.
    8880023    1    1    2    0    0 -0.19467481440E+03 -0.12242710803E+03 -0.74042110997E+03  0.10173103295E+04  0.65864270000E+03 0.  1.
    8880022    1    1    2    0    0  0.19467481440E+03  0.12242710803E+03 -0.16752321033E+04  0.16978459686E+04  0.15294330000E+03 0.  0.
<mgrwt>
<rscale>  0 0.55337828E+03</rscale>
<asrwt>0</asrwt>
<pdfrwt beam="1">  1        2 0.39467762E+00 0.69763664E+03</pdfrwt>
<pdfrwt beam="2">  1       -2 0.23038701E-01 0.69763664E+03</pdfrwt>
<totfact> 0.55578437E+01</totfact>
</mgrwt>
</event>
<event>
 4    1  0.2799069E-007  0.1079416E+04  0.7818608E-02  0.9284327E-01
          2   -1    0    0  501    0  0.00000000000E+00  0.00000000000E+00  0.13757314260E+04  0.13757314260E+04  0.25500000000E-02 0. -1.
         -2   -1    0    0    0  501 -0.00000000000E+00 -0.00000000000E+00 -0.10512776616E+04  0.10512776616E+04  0.25500000000E-02 0.  1.
    8880023    1    1    2    0    0 -0.85485933755E+03 -0.23342564674E+02 -0.53521189303E+03  0.12048200442E+04  0.65864270000E+03 0.  1.
    8880022    1    1    2    0    0  0.85485933755E+03  0.23342564674E+02  0.85966565740E+03  0.12221890434E+04  0.15294330000E+03 0. -1.
<mgrwt>
<rscale>  0 0.10223863E+04</rscale>
<asrwt>0</asrwt>
<pdfrwt beam="1">  1        2 0.21165099E+00 0.10794163E+04</pdfrwt>
<pdfrwt beam="2">  1       -2 0.16173503E+00 0.10794163E+04</pdfrwt>
<totfact> 0.35933306E+00</totfact>
</mgrwt>
</event>
<event>
 4    1  0.2799069E-007  0.8545361E+03  0.7818608E-02  0.9603357E-01
          2   -1    0    0  501    0  0.00000000000E+00  0.00000000000E+00  0.18594970946E+04  0.18594970946E+04  0.25500000000E-02 0. -1.
         -2   -1    0    0    0  501 -0.00000000000E+00 -0.00000000000E+00 -0.66574455616E+03  0.66574455616E+03  0.25500000000E-02 0.  1.
    8880023    1    1    2    0    0 -0.52930820436E+03  0.12749360517E+03 -0.31752405832E+03  0.91162137340E+03  0.65864270000E+03 0.  0.
    8880022    1    1    2    0    0  0.52930820436E+03 -0.12749360517E+03  0.15112765967E+04  0.16136202773E+04  0.15294330000E+03 0.  0.
<mgrwt>
<rscale>  0 0.77074357E+03</rscale>
<asrwt>0</asrwt>
<pdfrwt beam="1">  1        2 0.28607647E+00 0.85453613E+03</pdfrwt>
<pdfrwt beam="2">  1       -2 0.10242224E+00 0.85453613E+03</pdfrwt>
<totfact> 0.63447050E+00</totfact>
</mgrwt>
</event>
<event>
 4    1  0.2799069E-007  0.9628288E+03  0.7818608E-02  0.9431892E-01
         -2   -1    0    0    0  501 -0.00000000000E+00  0.00000000000E+00  0.68907977919E+03  0.68907977920E+03  0.25500000000E-02 0.  1.
          2   -1    0    0  501    0  0.00000000000E+00 -0.00000000000E+00 -0.10366898855E+04  0.10366898855E+04  0.25500000000E-02 0. -1.
    8880023    1    1    2    0    0 -0.68442143187E+03  0.15746872866E+03 -0.11172505349E+03  0.96928932252E+03  0.65864270000E+03 0. -1.
    8880022    1    1    2    0    0  0.68442143187E+03 -0.15746872866E+03 -0.23588505277E+03  0.75648034214E+03  0.15294330000E+03 0.  1.
<mgrwt>
<rscale>  0 0.89496960E+03</rscale>
<asrwt>0</asrwt>
<pdfrwt beam="1">  1        2 0.15949075E+00 0.96282880E+03</pdfrwt>
<pdfrwt beam="2">  1       -2 0.10601227E+00 0.96282880E+03</pdfrwt>
<totfact> 0.17085525E+01</totfact>
</mgrwt>
</event>
<event>
 4    1  0.2799069E-007  0.7088687E+03  0.7818608E-02  0.9962226E-01
          2   -1    0    0  501    0  0.00000000000E+00  0.00000000000E+00  0.66665278466E+03  0.66665278466E+03  0.25500000000E-02 0. -1.
         -2   -1    0    0    0  501 -0.00000000000E+00 -0.00000000000E+00 -0.21540813180E+04  0.21540813181E+04  0.25500000000E-02 0.  1.
    8880023    1    1    2    0    0  0.48065777236E+02 -0.25763212152E+03 -0.20568131696E+04  0.21755402203E+04  0.65864270000E+03 0.  1.
    8880022    1    1    2    0    0 -0.48065777236E+02  0.25763212152E+03  0.56938463622E+03  0.64519388246E+03  0.15294330000E+03 0.  0.
<mgrwt>
<rscale>  0 0.57338037E+03</rscale>
<asrwt>0</asrwt>
<pdfrwt beam="1">  1        2 0.10256197E+00 0.70886870E+03</pdfrwt>
<pdfrwt beam="2">  1       -2 0.33139712E+00 0.70886870E+03</pdfrwt>
<totfact> 0.93889466E-01</totfact>
</mgrwt>
</event>
<event>
 4    1  0.2799069E-007  0.8748181E+03  0.7818608E-02  0.9567730E-01
          2   -1    0    0  501    0  0.00000000000E+00  0.00000000000E+00  0.36029454911E+04  0.36029454911E+04  0.25500000000E-02 0. -1.
         -2   -1    0    0    0  501 -0.00000000000E+00 -0.00000000000E+00 -0.20662224493E+03  0.20662224495E+03  0.25500000000E-02 0.  1.
    8880023    1    1    2    0    0 -0.85211754261E+02 -0.56941681722E+03  0.94865332783E+03  0.12904456197E+04  0.65864270000E+03 0.  1.
    8880022    1    1    2    0    0  0.85211754261E+02  0.56941681722E+03  0.24476699184E+04  0.25191221163E+04  0.15294330000E+03 0.  0.
<mgrwt>
<rscale>  0 0.79469371E+03</rscale>
<asrwt>0</asrwt>
<pdfrwt beam="1">  1        2 0.55429927E+00 0.87481813E+03</pdfrwt>
<pdfrwt beam="2">  1       -2 0.31788040E-01 0.87481813E+03</pdfrwt>
<totfact> 0.67030457E+00</totfact>
</mgrwt>
</event>
<event>
 4    1  0.2799069E-007  0.7763228E+03  0.7818608E-02  0.9764547E-01
         -2   -1    0    0    0  501 -0.00000000000E+00  0.00000000000E+00  0.11411728662E+04  0.11411728662E+04  0.25500000000E-02 0.  1.
          2   -1    0    0  501    0  0.00000000000E+00 -0.00000000000E+00 -0.40358643062E+03  0.40358643062E+03  0.25500000000E-02 0. -1.
    8880023    1    1    2    0    0 -0.14902847582E+03  0.38295872833E+03  0.78462264966E+03  0.11037707112E+04  0.65864270000E+03 0.  1.
    8880022    1    1    2    0    0  0.14902847582E+03 -0.38295872833E+03 -0.47036214095E+02  0.44098858564E+03  0.15294330000E+03 0.  0.
<mgrwt>
<rscale>  0 0.67300370E+03</rscale>
<asrwt>0</asrwt>
<pdfrwt beam="1">  1        2 0.62090221E-01 0.77632279E+03</pdfrwt>
<pdfrwt beam="2">  1       -2 0.17556505E+00 0.77632279E+03</pdfrwt>
<totfact> 0.15523962E+01</totfact>
</mgrwt>
</event>
<event>
 4    1  0.2799069E-007  0.6776454E+03  0.7818608E-02  0.1010688E+00
         -2   -1    0    0    0  501 -0.00000000000E+00  0.00000000000E+00  0.74027491878E+03  0.74027491878E+03  0.25500000000E-02 0.  1.
          2   -1    0    0  501    0  0.00000000000E+00 -0.00000000000E+00 -0.24620283636E+04  0.24620283636E+04  0.25500000000E-02 0. -1.
    8880023    1    1    2    0    0 -0.15921491895E+03  0.66131783364E+01  0.57879098076E+03  0.89118030174E+03  0.65864270000E+03 0.  0.
    8880022    1    1    2    0    0  0.15921491895E+03 -0.66131783364E+01 -0.23005444256E+04  0.23111229806E+04  0.15294330000E+03 0. -1.
<mgrwt>
<rscale>  0 0.51202059E+03</rscale>
<asrwt>0</asrwt>
<pdfrwt beam="1">  1        2 0.37877359E+00 0.67764543E+03</pdfrwt>
<pdfrwt beam="2">  1       -2 0.11388845E+00 0.67764543E+03</pdfrwt>
<totfact> 0.23550568E+00</totfact>
</mgrwt>
</event>
<event>
 4    1  0.2799069E-007  0.8934004E+03  0.7818608E-02  0.9536710E-01
          2   -1    0    0  501    0  0.00000000000E+00  0.00000000000E+00  0.21041551833E+04  0.21041551833E+04  0.25500000000E-02 0. -1.
         -2   -1    0    0    0  501 -0.00000000000E+00 -0.00000000000E+00 -0.42207814202E+03  0.42207814203E+03  0.25500000000E-02 0.  1.
    8880023    1    1    2    0    0  0.51674499647E+03  0.31197537494E+03  0.19554531153E+03  0.91455027258E+03  0.65864270000E+03 0.  1.
    8880022    1    1    2    0    0 -0.51674499647E+03 -0.31197537494E+03  0.14865317297E+04  0.16116830527E+04  0.15294330000E+03 0.  0.
<mgrwt>
<rscale>  0 0.81630596E+03</rscale>
<asrwt>0</asrwt>
<pdfrwt beam="1">  1        2 0.32371618E+00 0.89340038E+03</pdfrwt>
<pdfrwt beam="2">  1       -2 0.64935100E-01 0.89340038E+03</pdfrwt>
<totfact> 0.13009296E+01</totfact>
</mgrwt>
</event>
<event>
 4    1  0.2799069E-007  0.6588986E+03  0.7818608E-02  0.1025314E+00
         -2   -1    0    0    0  501 -0.00000000000E+00  0.00000000000E+00  0.16516789678E+03  0.16516789680E+03  0.25500000000E-02 0.  1.
          2   -1    0    0  501    0  0.00000000000E+00 -0.00000000000E+00 -0.13785982967E+04  0.13785982967E+04  0.25500000000E-02 0. -1.
    8880023    1    1    2    0    0  0.96125451032E+01 -0.15643842991E+02 -0.53697621881E+03  0.84999458626E+03  0.65864270000E+03 0.  1.
    8880022    1    1    2    0    0 -0.96125451032E+01  0.15643842991E+02 -0.67645418106E+03  0.69377160719E+03  0.15294330000E+03 0.  0.
<mgrwt>
<rscale>  0 0.45816653E+03</rscale>
<asrwt>0</asrwt>
<pdfrwt beam="1">  1        2 0.21209204E+00 0.65889858E+03</pdfrwt>
<pdfrwt beam="2">  1       -2 0.25410447E-01 0.65889858E+03</pdfrwt>
<totfact> 0.21128537E+02</totfact>
</mgrwt>
</event>
<event>
 4    1  0.2799069E-007  0.1619348E+04  0.7818608E-02  0.8829656E-01
          2   -1    0    0  501    0  0.00000000000E+00  0.00000000000E+00  0.25564220543E+04  0.25564220543E+04  0.25500000000E-02 0. -1.
         -2   -1    0    0    0  501 -0.00000000000E+00 -0.00000000000E+00 -0.16726780452E+04  0.16726780452E+04  0.25500000000E-02 0.  1.
    8880023    1    1    2    0    0 -0.12076420804E+04 -0.85444601566E+03  0.18476274838E+04  0.24568302573E+04  0.65864270000E+03 0. -1.
    8880022    1    1    2    0    0  0.12076420804E+04  0.85444601566E+03 -0.96388347467E+03  0.17722698422E+04  0.15294330000E+03 0.  0.
<mgrwt>
<rscale>  0 0.15852583E+04</rscale>
<asrwt>0</asrwt>
<pdfrwt beam="1">  1        2 0.39329570E+00 0.16193479E+04</pdfrwt>
<pdfrwt beam="2">  1       -2 0.25733508E+00 0.16193479E+04</pdfrwt>
<totfact> 0.17288537E-01</totfact>
</mgrwt>
</event>
<event>
 4    1  0.2799069E-007  0.6675285E+03  0.7818608E-02  0.1017500E+00
         -2   -1    0    0    0  501 -0.00000000000E+00  0.00000000000E+00  0.74142927687E+03  0.74142927688E+03  0.25500000000E-02 0.  1.
          2   -1    0    0  501    0  0.00000000000E+00 -0.00000000000E+00 -0.78662673085E+03  0.78662673085E+03  0.25500000000E-02 0. -1.
    8880023    1    1    2    0    0 -0.84071509859E+02 -0.68673454220E+02  0.57443296638E+03  0.88066310313E+03  0.65864270000E+03 0.  1.
    8880022    1    1    2    0    0  0.84071509859E+02  0.68673454220E+02 -0.61963042035E+03  0.64739290460E+03  0.15294330000E+03 0.  0.
<mgrwt>
<rscale>  0 0.48599602E+03</rscale>
<asrwt>0</asrwt>
<pdfrwt beam="1">  1        2 0.12101950E+00 0.66752848E+03</pdfrwt>
<pdfrwt beam="2">  1       -2 0.11406604E+00 0.66752848E+03</pdfrwt>
<totfact> 0.21673946E+01</totfact>
</mgrwt>
</event>
<event>
 4    1  0.2799069E-007  0.1191415E+04  0.7818608E-02  0.9165513E-01
          2   -1    0    0  501    0  0.00000000000E+00  0.00000000000E+00  0.16412623105E+04  0.16412623105E+04  0.25500000000E-02 0. -1.
         -2   -1    0    0    0  501 -0.00000000000E+00 -0.00000000000E+00 -0.11155373174E+04  0.11155373175E+04  0.25500000000E-02 0.  1.
    8880023    1    1    2    0    0 -0.98186631176E+03 -0.14696361176E+03 -0.52606492571E+03  0.13023879106E+04  0.65864270000E+03 0.  1.
    8880022    1    1    2    0    0  0.98186631176E+03  0.14696361176E+03  0.10517899187E+04  0.14544117173E+04  0.15294330000E+03 0.  0.
<mgrwt>
<rscale>  0 0.11416592E+04</rscale>
<asrwt>0</asrwt>
<pdfrwt beam="1">  1        2 0.25250189E+00 0.11914151E+04</pdfrwt>
<pdfrwt beam="2">  1       -2 0.17162113E+00 0.11914151E+04</pdfrwt>
<totfact> 0.21326726E+00</totfact>
</mgrwt>
</event>
<event>
 4    1  0.2799069E-007  0.1232725E+04  0.7818608E-02  0.9125949E-01
          2   -1    0    0  501    0  0.00000000000E+00  0.00000000000E+00  0.18730030272E+04  0.18730030272E+04  0.25500000000E-02 0. -1.
         -2   -1    0    0    0  501 -0.00000000000E+00 -0.00000000000E+00 -0.92453112955E+03  0.92453112956E+03  0.25500000000E-02 0.  1.
    8880023    1    1    2    0    0  0.10419458448E+04 -0.12240468531E+02 -0.18926204220E+03  0.12471693147E+04  0.65864270000E+03 0.  1.
    8880022    1    1    2    0    0 -0.10419458448E+04  0.12240468531E+02  0.11377339398E+04  0.15503648420E+04  0.15294330000E+03 0.  0.
<mgrwt>
<rscale>  0 0.11851561E+04</rscale>
<asrwt>0</asrwt>
<pdfrwt beam="1">  1        2 0.28815431E+00 0.12327251E+04</pdfrwt>
<pdfrwt beam="2">  1       -2 0.14223556E+00 0.12327251E+04</pdfrwt>
<totfact> 0.26275208E+00</totfact>
</mgrwt>
</event>
<event>
 4    1  0.2799069E-007  0.7082411E+03  0.7818608E-02  0.9964591E-01
         -2   -1    0    0    0  501 -0.00000000000E+00  0.00000000000E+00  0.16827149220E+04  0.16827149220E+04  0.25500000000E-02 0.  1.
          2   -1    0    0  501    0  0.00000000000E+00 -0.00000000000E+00 -0.39805006672E+03  0.39805006672E+03  0.25500000000E-02 0. -1.
    8880023    1    1    2    0    0 -0.24857476508E+03 -0.77497070544E+02  0.15337122153E+04  0.16893426460E+04  0.65864270000E+03 0.  1.
    8880022    1    1    2    0    0  0.24857476508E+03  0.77497070544E+02 -0.24904736010E+03  0.39142234270E+03  0.15294330000E+03 0.  0.
<mgrwt>
<rscale>  0 0.57230477E+03</rscale>
<asrwt>0</asrwt>
<pdfrwt beam="1">  1        2 0.61238472E-01 0.70824107E+03</pdfrwt>
<pdfrwt beam="2">  1       -2 0.25887922E+00 0.70824107E+03</pdfrwt>
<totfact> 0.46957884E+00</totfact>
</mgrwt>
</event>
<event>
 4    1  0.2799069E-007  0.1055000E+04  0.7818608E-02  0.9312895E-01
         -2   -1    0    0    0  501 -0.00000000000E+00  0.00000000000E+00  0.10284707730E+04  0.10284707730E+04  0.25500000000E-02 0.  1.
          2   -1    0    0  501    0  0.00000000000E+00 -0.00000000000E+00 -0.96094207177E+03  0.96094207177E+03  0.25500000000E-02 0. -1.
    8880023    1    1    2    0    0  0.80470197749E+03  0.17796021380E+03  0.33933307712E+03  0.11082293327E+04  0.65864270000E+03 0.  0.
    8880022    1    1    2    0    0 -0.80470197749E+03 -0.17796021380E+03 -0.27180437589E+03  0.88118351212E+03  0.15294330000E+03 0.  0.
<mgrwt>
<rscale>  0 0.99604379E+03</rscale>
<asrwt>0</asrwt>
<pdfrwt beam="1">  1        2 0.14783724E+00 0.10550002E+04</pdfrwt>
<pdfrwt beam="2">  1       -2 0.15822627E+00 0.10550002E+04</pdfrwt>
<totfact> 0.68381148E+00</totfact>
</mgrwt>
</event>
<event>
 4    1  0.2799069E-007  0.7392136E+03  0.7818608E-02  0.9862244E-01
         -2   -1    0    0    0  501 -0.00000000000E+00  0.00000000000E+00  0.21544020615E+03  0.21544020617E+03  0.25500000000E-02 0.  1.
          2   -1    0    0  501    0  0.00000000000E+00 -0.00000000000E+00 -0.21155972883E+04  0.21155972884E+04  0.25500000000E-02 0. -1.
    8880023    1    1    2    0    0  0.32615096253E+03  0.79070215066E+02 -0.52343235838E+03  0.90576939081E+03  0.65864270000E+03 0.  1.
    8880022    1    1    2    0    0 -0.32615096253E+03 -0.79070215066E+02 -0.13767247238E+04  0.14252681037E+04  0.15294330000E+03 0.  0.
<mgrwt>
<rscale>  0 0.62126529E+03</rscale>
<asrwt>0</asrwt>
<pdfrwt beam="1">  1        2 0.32547649E+00 0.73921361E+03</pdfrwt>
<pdfrwt beam="2">  1       -2 0.33144649E-01 0.73921361E+03</pdfrwt>
<totfact> 0.50577952E+01</totfact>
</mgrwt>
</event>
<event>
 4    1  0.2799069E-007  0.1163323E+04  0.7818608E-02  0.9193627E-01
         -2   -1    0    0    0  501 -0.00000000000E+00  0.00000000000E+00  0.13946259468E+04  0.13946259468E+04  0.25500000000E-02 0.  1.
          2   -1    0    0  501    0  0.00000000000E+00 -0.00000000000E+00 -0.10676141503E+04  0.10676141503E+04  0.25500000000E-02 0. -1.
    8880023    1    1    2    0    0 -0.84988968567E+03 -0.44406917584E+03  0.76986047738E+03  0.13949929289E+04  0.65864270000E+03 0.  0.
    8880022    1    1    2    0    0  0.84988968567E+03  0.44406917584E+03 -0.44284868087E+03  0.10672471681E+04  0.15294330000E+03 0.  0.
<mgrwt>
<rscale>  0 0.11119455E+04</rscale>
<asrwt>0</asrwt>
<pdfrwt beam="1">  1        2 0.16424833E+00 0.11633229E+04</pdfrwt>
<pdfrwt beam="2">  1       -2 0.21455784E+00 0.11633229E+04</pdfrwt>
<totfact> 0.23833912E+00</totfact>
</mgrwt>
</event>
<event>
 4    1  0.2799069E-007  0.6854728E+03  0.7818608E-02  0.1006383E+00
          2   -1    0    0  501    0  0.00000000000E+00  0.00000000000E+00  0.20964913720E+04  0.20964913720E+04  0.25500000000E-02 0. -1.
         -2   -1    0    0    0  501 -0.00000000000E+00 -0.00000000000E+00 -0.58566208045E+03  0.58566208045E+03  0.25500000000E-02 0.  1.
    8880023    1    1    2    0    0  0.17788136680E+03  0.66490188312E+02 -0.37451229579E+03  0.78110971813E+03  0.65864270000E+03 0.  1.
    8880022    1    1    2    0    0 -0.17788136680E+03 -0.66490188312E+02  0.18853415873E+04  0.19010437343E+04  0.15294330000E+03 0.  0.
<mgrwt>
<rscale>  0 0.52937770E+03</rscale>
<asrwt>0</asrwt>
<pdfrwt beam="1">  1        2 0.32253713E+00 0.68547278E+03</pdfrwt>
<pdfrwt beam="2">  1       -2 0.90101860E-01 0.68547278E+03</pdfrwt>
<totfact> 0.65312961E+00</totfact>
</mgrwt>
</event>
<event>
 4    1  0.2799069E-007  0.1174090E+04  0.7818608E-02  0.9182730E-01
          2   -1    0    0  501    0  0.00000000000E+00  0.00000000000E+00  0.66458092287E+03  0.66458092288E+03  0.25500000000E-02 0. -1.
         -2   -1    0    0    0  501 -0.00000000000E+00 -0.00000000000E+00 -0.29480398424E+04  0.29480398425E+04  0.25500000000E-02 0.  1.
    8880023    1    1    2    0    0 -0.87643816391E+02  0.96798506230E+03 -0.23494757338E+04  0.26265039405E+04  0.65864270000E+03 0.  0.
    8880022    1    1    2    0    0  0.87643816391E+02 -0.96798506230E+03  0.66016814262E+02  0.98611682481E+03  0.15294330000E+03 0.  0.
<mgrwt>
<rscale>  0 0.11233477E+04</rscale>
<asrwt>0</asrwt>
<pdfrwt beam="1">  1        2 0.10224322E+00 0.11740897E+04</pdfrwt>
<pdfrwt beam="2">  1       -2 0.45354459E+00 0.11740897E+04</pdfrwt>
<totfact> 0.14284548E-01</totfact>
</mgrwt>
</event>
<event>
 4    1  0.2799069E-007  0.7099205E+03  0.7818608E-02  0.9958296E-01
         -2   -1    0    0    0  501 -0.00000000000E+00  0.00000000000E+00  0.42343224690E+03  0.42343224691E+03  0.25500000000E-02 0.  1.
          2   -1    0    0  501    0  0.00000000000E+00 -0.00000000000E+00 -0.99348744938E+03  0.99348744938E+03  0.25500000000E-02 0. -1.
    8880023    1    1    2    0    0 -0.23581853961E+03 -0.12069162304E+03  0.64136802527E+02  0.71281174738E+03  0.65864270000E+03 0.  1.
    8880022    1    1    2    0    0  0.23581853961E+03  0.12069162304E+03 -0.63419200501E+03  0.70410794891E+03  0.15294330000E+03 0.  0.
<mgrwt>
<rscale>  0 0.57517299E+03</rscale>
<asrwt>0</asrwt>
<pdfrwt beam="1">  1        2 0.15284422E+00 0.70992046E+03</pdfrwt>
<pdfrwt beam="2">  1       -2 0.65143423E-01 0.70992046E+03</pdfrwt>
<totfact> 0.56295835E+01</totfact>
</mgrwt>
</event>
<event>
 4    1  0.2799069E-007  0.8942089E+03  0.7818608E-02  0.9535393E-01
          2   -1    0    0  501    0  0.00000000000E+00  0.00000000000E+00  0.25880340750E+04  0.25880340750E+04  0.25500000000E-02 0. -1.
         -2   -1    0    0    0  501 -0.00000000000E+00 -0.00000000000E+00 -0.43507289367E+03  0.43507289368E+03  0.25500000000E-02 0.  1.
    8880023    1    1    2    0    0 -0.73188347785E+02 -0.60036887856E+03  0.12689285710E+03  0.90316738650E+03  0.65864270000E+03 0.  1.
    8880022    1    1    2    0    0  0.73188347785E+02  0.60036887856E+03  0.20260683242E+04  0.21199395822E+04  0.15294330000E+03 0.  0.
<mgrwt>
<rscale>  0 0.81723994E+03</rscale>
<asrwt>0</asrwt>
<pdfrwt beam="1">  1        2 0.39815909E+00 0.89420889E+03</pdfrwt>
<pdfrwt beam="2">  1       -2 0.66934291E-01 0.89420889E+03</pdfrwt>
<totfact> 0.65150301E+00</totfact>
</mgrwt>
</event>
<event>
 4    1  0.2799069E-007  0.6695872E+03  0.7818608E-02  0.1015961E+00
          2   -1    0    0  501    0  0.00000000000E+00  0.00000000000E+00  0.21152425241E+04  0.21152425241E+04  0.25500000000E-02 0. -1.
         -2   -1    0    0    0  501 -0.00000000000E+00 -0.00000000000E+00 -0.82439954015E+03  0.82439954016E+03  0.25500000000E-02 0.  1.
    8880023    1    1    2    0    0 -0.94116847761E+02  0.75358325195E+02 -0.68285018711E+03  0.95636365599E+03  0.65864270000E+03 0.  1.
    8880022    1    1    2    0    0  0.94116847761E+02 -0.75358325195E+02  0.19736931710E+04  0.19832784083E+04  0.15294330000E+03 0.  0.
<mgrwt>
<rscale>  0 0.49172931E+03</rscale>
<asrwt>0</asrwt>
<pdfrwt beam="1">  1        2 0.32542192E+00 0.66958723E+03</pdfrwt>
<pdfrwt beam="2">  1       -2 0.12683070E+00 0.66958723E+03</pdfrwt>
<totfact> 0.28123733E+00</totfact>
</mgrwt>
</event>
<event>
 4    1  0.2799069E-007  0.6587942E+03  0.7818608E-02  0.1025427E+00
         -2   -1    0    0    0  501 -0.00000000000E+00  0.00000000000E+00  0.18752278393E+03  0.18752278394E+03  0.25500000000E-02 0.  1.
          2   -1    0    0  501    0  0.00000000000E+00 -0.00000000000E+00 -0.98656381112E+03  0.98656381112E+03  0.25500000000E-02 0. -1.
    8880023    1    1    2    0    0 -0.60949654857E+01 -0.12747776069E+02 -0.46483724033E+03  0.80627757048E+03  0.65864270000E+03 0.  1.
    8880022    1    1    2    0    0  0.60949654857E+01  0.12747776069E+02 -0.33420378686E+03  0.36780902459E+03  0.15294330000E+03 0.  0.
<mgrwt>
<rscale>  0 0.45777951E+03</rscale>
<asrwt>0</asrwt>
<pdfrwt beam="1">  1        2 0.15177905E+00 0.65879425E+03</pdfrwt>
<pdfrwt beam="2">  1       -2 0.28849660E-01 0.65879425E+03</pdfrwt>
<totfact> 0.28700798E+02</totfact>
</mgrwt>
</event>
<event>
 4    1  0.2799069E-007  0.1364607E+04  0.7818608E-02  0.9011683E-01
         -2   -1    0    0    0  501 -0.00000000000E+00  0.00000000000E+00  0.13736430964E+04  0.13736430965E+04  0.25500000000E-02 0.  1.
          2   -1    0    0  501    0  0.00000000000E+00 -0.00000000000E+00 -0.13261382708E+04  0.13261382708E+04  0.25500000000E-02 0. -1.
    8880023    1    1    2    0    0  0.69894684449E+03 -0.96944144958E+03  0.43804109759E+03  0.14331900171E+04  0.65864270000E+03 0.  0.
    8880022    1    1    2    0    0 -0.69894684449E+03  0.96944144958E+03 -0.39053627192E+03  0.12665913502E+04  0.15294330000E+03 0.  0.
<mgrwt>
<rscale>  0 0.13227925E+04</rscale>
<asrwt>0</asrwt>
<pdfrwt beam="1">  1        2 0.20402127E+00 0.13646075E+04</pdfrwt>
<pdfrwt beam="2">  1       -2 0.21132971E+00 0.13646075E+04</pdfrwt>
<totfact> 0.17112787E+00</totfact>
</mgrwt>
</event>
<event>
 4    1  0.2799069E-007  0.1757235E+04  0.7818608E-02  0.8746569E-01
         -2   -1    0    0    0  501 -0.00000000000E+00  0.00000000000E+00  0.15556758870E+04  0.15556758870E+04  0.25500000000E-02 0.  1.
          2   -1    0    0  501    0  0.00000000000E+00 -0.00000000000E+00 -0.20843929993E+04  0.20843929993E+04  0.25500000000E-02 0. -1.
    8880023    1    1    2    0    0  0.64910885380E+03 -0.14942291310E+04  0.33641594370E+03  0.17891475326E+04  0.65864270000E+03 0.  0.
    8880022    1    1    2    0    0 -0.64910885380E+03  0.14942291310E+04 -0.86513305594E+03  0.18509213537E+04  0.15294330000E+03 0.  0.
<mgrwt>
<rscale>  0 0.17261859E+04</rscale>
<asrwt>0</asrwt>
<pdfrwt beam="1">  1        2 0.32067585E+00 0.17572345E+04</pdfrwt>
<pdfrwt beam="2">  1       -2 0.23933475E+00 0.17572345E+04</pdfrwt>
<totfact> 0.40959149E-01</totfact>
</mgrwt>
</event>
<event>
 4    1  0.2799069E-007  0.7090478E+03  0.7818608E-02  0.9961554E-01
          2   -1    0    0  501    0  0.00000000000E+00  0.00000000000E+00  0.15179202713E+04  0.15179202713E+04  0.25500000000E-02 0. -1.
         -2   -1    0    0    0  501 -0.00000000000E+00 -0.00000000000E+00 -0.36122869432E+03  0.36122869432E+03  0.25500000000E-02 0.  1.
    8880023    1    1    2    0    0 -0.10608185374E+03  0.24017754997E+03  0.27276073326E+02  0.70957226950E+03  0.65864270000E+03 0.  1.
    8880022    1    1    2    0    0  0.10608185374E+03 -0.24017754997E+03  0.11294155036E+04  0.11695766961E+04  0.15294330000E+03 0.  0.
<mgrwt>
<rscale>  0 0.57368654E+03</rscale>
<asrwt>0</asrwt>
<pdfrwt beam="1">  1        2 0.23352619E+00 0.70904783E+03</pdfrwt>
<pdfrwt beam="2">  1       -2 0.55573647E-01 0.70904783E+03</pdfrwt>
<totfact> 0.38774029E+01</totfact>
</mgrwt>
</event>
<event>
 4    1  0.2799069E-007  0.7671559E+03  0.7818608E-02  0.9786922E-01
          2   -1    0    0  501    0  0.00000000000E+00  0.00000000000E+00  0.15004065489E+04  0.15004065489E+04  0.25500000000E-02 0. -1.
         -2   -1    0    0    0  501 -0.00000000000E+00 -0.00000000000E+00 -0.13169248657E+04  0.13169248657E+04  0.25500000000E-02 0.  1.
    8880023    1    1    2    0    0 -0.39018260499E+03 -0.49755138707E+02 -0.11702778534E+04  0.13993135815E+04  0.65864270000E+03 0.  1.
    8880022    1    1    2    0    0  0.39018260499E+03  0.49755138707E+02  0.13537595366E+04  0.14180178331E+04  0.15294330000E+03 0.  0.
<mgrwt>
<rscale>  0 0.66069145E+03</rscale>
<asrwt>0</asrwt>
<pdfrwt beam="1">  1        2 0.23083177E+00 0.76715595E+03</pdfrwt>
<pdfrwt beam="2">  1       -2 0.20260383E+00 0.76715595E+03</pdfrwt>
<totfact> 0.16705372E+00</totfact>
</mgrwt>
</event>
<event>
 4    1  0.2799069E-007  0.8128921E+03  0.7818608E-02  0.9683584E-01
          2   -1    0    0  501    0  0.00000000000E+00  0.00000000000E+00  0.96079070102E+03  0.96079070103E+03  0.25500000000E-02 0. -1.
         -2   -1    0    0    0  501 -0.00000000000E+00 -0.00000000000E+00 -0.86120861852E+03  0.86120861852E+03  0.25500000000E-02 0.  1.
    8880023    1    1    2    0    0 -0.43539972701E+03  0.19341797104E+03 -0.56510829767E+03  0.99002072108E+03  0.65864270000E+03 0.  1.
    8880022    1    1    2    0    0  0.43539972701E+03 -0.19341797104E+03  0.66469038018E+03  0.83197859847E+03  0.15294330000E+03 0.  0.
<mgrwt>
<rscale>  0 0.72002667E+03</rscale>
<asrwt>0</asrwt>
<pdfrwt beam="1">  1        2 0.14781395E+00 0.81289215E+03</pdfrwt>
<pdfrwt beam="2">  1       -2 0.13249363E+00 0.81289215E+03</pdfrwt>
<totfact> 0.11162716E+01</totfact>
</mgrwt>
</event>
<event>
 4    1  0.2799069E-007  0.1193620E+04  0.7818608E-02  0.9163349E-01
         -2   -1    0    0    0  501 -0.00000000000E+00  0.00000000000E+00  0.57117702286E+03  0.57117702287E+03  0.25500000000E-02 0.  1.
          2   -1    0    0  501    0  0.00000000000E+00 -0.00000000000E+00 -0.24141377711E+04  0.24141377711E+04  0.25500000000E-02 0. -1.
    8880023    1    1    2    0    0  0.46924574490E+03  0.87791084139E+03 -0.47056510122E+03  0.12830279558E+04  0.65864270000E+03 0.  0.
    8880022    1    1    2    0    0 -0.46924574490E+03 -0.87791084139E+03 -0.13723956470E+04  0.17022868382E+04  0.15294330000E+03 0.  0.
<mgrwt>
<rscale>  0 0.11439868E+04</rscale>
<asrwt>0</asrwt>
<pdfrwt beam="1">  1        2 0.37140580E+00 0.11936202E+04</pdfrwt>
<pdfrwt beam="2">  1       -2 0.87873390E-01 0.11936202E+04</pdfrwt>
<totfact> 0.42910080E+00</totfact>
</mgrwt>
</event>
<event>
 4    1  0.2799069E-007  0.9107786E+03  0.7818608E-02  0.9508945E-01
          2   -1    0    0  501    0  0.00000000000E+00  0.00000000000E+00  0.16091726783E+04  0.16091726783E+04  0.25500000000E-02 0. -1.
         -2   -1    0    0    0  501 -0.00000000000E+00 -0.00000000000E+00 -0.88108569918E+03  0.88108569919E+03  0.25500000000E-02 0.  1.
    8880023    1    1    2    0    0  0.32558720042E+03 -0.53823833101E+03 -0.54545419115E+03  0.10616204628E+04  0.65864270000E+03 0.  1.
    8880022    1    1    2    0    0 -0.32558720042E+03  0.53823833101E+03  0.12735411702E+04  0.14286379147E+04  0.15294330000E+03 0.  0.
<mgrwt>
<rscale>  0 0.83627522E+03</rscale>
<asrwt>0</asrwt>
<pdfrwt beam="1">  1        2 0.24756502E+00 0.91077864E+03</pdfrwt>
<pdfrwt beam="2">  1       -2 0.13555165E+00 0.91077864E+03</pdfrwt>
<totfact> 0.43235718E+00</totfact>
</mgrwt>
</event>
<event>
 4    1  0.2799069E-007  0.1111443E+04  0.7818608E-02  0.9248421E-01
          2   -1    0    0  501    0  0.00000000000E+00  0.00000000000E+00  0.21801931741E+04  0.21801931741E+04  0.25500000000E-02 0. -1.
         -2   -1    0    0    0  501 -0.00000000000E+00 -0.00000000000E+00 -0.50985266843E+03  0.50985266843E+03  0.25500000000E-02 0.  1.
    8880023    1    1    2    0    0 -0.29455851041E+03  0.84541753976E+03  0.52752262117E+03  0.12302787711E+04  0.65864270000E+03 0.  0.
    8880022    1    1    2    0    0  0.29455851041E+03 -0.84541753976E+03  0.11428178845E+04  0.14597670714E+04  0.15294330000E+03 0.  0.
<mgrwt>
<rscale>  0 0.10567317E+04</rscale>
<asrwt>0</asrwt>
<pdfrwt beam="1">  1        2 0.33541434E+00 0.11114431E+04</pdfrwt>
<pdfrwt beam="2">  1       -2 0.78438872E-01 0.11114431E+04</pdfrwt>
<totfact> 0.75960927E+00</totfact>
</mgrwt>
</event>
<event>
 4    1  0.8152576E-007  0.1147653E+04  0.7818608E-02  0.9209767E-01
         -2   -1    0    0    0  501 -0.00000000000E+00  0.00000000000E+00  0.14957853545E+04  0.14957853545E+04  0.25500000000E-02 0.  1.
          2   -1    0    0  501    0  0.00000000000E+00 -0.00000000000E+00 -0.30854985334E+04  0.30854985334E+04  0.25500000000E-02 0. -1.
    8880023    1    1    2    0    0 -0.91167017470E+03  0.22837550296E+03  0.11838499511E+04  0.16488204240E+04  0.65864270000E+03 0.  1.
    8880022    1    1    2    0    0  0.91167017470E+03 -0.22837550296E+03 -0.27735631300E+04  0.29324634639E+04  0.15294330000E+03 0.  0.
<mgrwt>
<rscale>  0 0.10953183E+04</rscale>
<asrwt>0</asrwt>
<pdfrwt beam="1">  1        2 0.47469208E+00 0.11476533E+04</pdfrwt>
<pdfrwt beam="2">  1       -2 0.23012083E+00 0.11476533E+04</pdfrwt>
<totfact> 0.13041974E-01</totfact>
</mgrwt>
</event>
<event>
 4    1  0.2799069E-007  0.9233640E+03  0.7818608E-02  0.9489520E-01
          2   -1    0    0  501    0  0.00000000000E+00  0.00000000000E+00  0.20636061862E+04  0.20636061862E+04  0.25500000000E-02 0. -1.
         -2   -1    0    0    0  501 -0.00000000000E+00 -0.00000000000E+00 -0.85051762452E+03  0.85051762452E+03  0.25500000000E-02 0.  1.
    8880023    1    1    2    0    0 -0.61135594310E+03  0.21221409839E+03 -0.51868347095E+03  0.10590720759E+04  0.65864270000E+03 0.  0.
    8880022    1    1    2    0    0  0.61135594310E+03 -0.21221409839E+03  0.17317720326E+04  0.18550517348E+04  0.15294330000E+03 0.  0.
<mgrwt>
<rscale>  0 0.85060888E+03</rscale>
<asrwt>0</asrwt>
<pdfrwt beam="1">  1        2 0.31747787E+00 0.92336402E+03</pdfrwt>
<pdfrwt beam="2">  1       -2 0.13084887E+00 0.92336402E+03</pdfrwt>
<totfact> 0.26566354E+00</totfact>
</mgrwt>
</event>
<event>
 4    1  0.2799069E-007  0.9713633E+03  0.7818608E-02  0.9420021E-01
         -2   -1    0    0    0  501 -0.00000000000E+00  0.00000000000E+00  0.60911349508E+03  0.60911349509E+03  0.25500000000E-02 0.  1.
          2   -1    0    0  501    0  0.00000000000E+00 -0.00000000000E+00 -0.16128429615E+04  0.16128429615E+04  0.25500000000E-02 0. -1.
    8880023    1    1    2    0    0 -0.64188530822E+03 -0.31260155415E+03  0.11497063300E+02  0.97143135079E+03  0.65864270000E+03 0.  0.
    8880022    1    1    2    0    0  0.64188530822E+03  0.31260155415E+03 -0.10152265297E+04  0.12505251058E+04  0.15294330000E+03 0.  0.
<mgrwt>
<rscale>  0 0.90446179E+03</rscale>
<asrwt>0</asrwt>
<pdfrwt beam="1">  1        2 0.24812969E+00 0.97136331E+03</pdfrwt>
<pdfrwt beam="2">  1       -2 0.93709769E-01 0.97136331E+03</pdfrwt>
<totfact> 0.10552778E+01</totfact>
</mgrwt>
</event>
<event>
 4    1  0.2799069E-007  0.6657639E+03  0.7818608E-02  0.1018901E+00
          2   -1    0    0  501    0  0.00000000000E+00  0.00000000000E+00  0.88728841509E+03  0.88728841509E+03  0.25500000000E-02 0. -1.
         -2   -1    0    0    0  501 -0.00000000000E+00 -0.00000000000E+00 -0.71482323598E+03  0.71482323599E+03  0.25500000000E-02 0.  1.
    8880023    1    1    2    0    0  0.55233073096E+02 -0.79879070792E+02 -0.54608405081E+03  0.86107453518E+03  0.65864270000E+03 0.  1.
    8880022    1    1    2    0    0 -0.55233073096E+02  0.79879070792E+02  0.71854922992E+03  0.74103711590E+03  0.15294330000E+03 0.  0.
<mgrwt>
<rscale>  0 0.48085317E+03</rscale>
<asrwt>0</asrwt>
<pdfrwt beam="1">  1        2 0.13650591E+00 0.66576390E+03</pdfrwt>
<pdfrwt beam="2">  1       -2 0.10997281E+00 0.66576390E+03</pdfrwt>
<totfact> 0.20146498E+01</totfact>
</mgrwt>
</event>
<event>
 4    1  0.2799069E-007  0.1309051E+04  0.7818608E-02  0.9057783E-01
         -2   -1    0    0    0  501 -0.00000000000E+00  0.00000000000E+00  0.12726406676E+04  0.12726406676E+04  0.25500000000E-02 0.  1.
          2   -1    0    0  501    0  0.00000000000E+00 -0.00000000000E+00 -0.24928783148E+04  0.24928783148E+04  0.25500000000E-02 0. -1.
    8880023    1    1    2    0    0 -0.95789936426E+03 -0.60185719872E+03  0.73510342059E+03  0.15013295857E+04  0.65864270000E+03 0.  0.
    8880022    1    1    2    0    0  0.95789936426E+03  0.60185719872E+03 -0.19553410678E+04  0.22641893967E+04  0.15294330000E+03 0.  0.
<mgrwt>
<rscale>  0 0.12650087E+04</rscale>
<asrwt>0</asrwt>
<pdfrwt beam="1">  1        2 0.38351974E+00 0.13090506E+04</pdfrwt>
<pdfrwt beam="2">  1       -2 0.19579087E+00 0.13090506E+04</pdfrwt>
<totfact> 0.47915352E-01</totfact>
</mgrwt>
</event>
<event>
 4    1  0.2799069E-007  0.1042007E+04  0.7818608E-02  0.9328552E-01
          2   -1    0    0  501    0  0.00000000000E+00  0.00000000000E+00  0.26752171678E+04  0.26752171678E+04  0.25500000000E-02 0. -1.
         -2   -1    0    0    0  501 -0.00000000000E+00 -0.00000000000E+00 -0.73509058771E+03  0.73509058772E+03  0.25500000000E-02 0.  1.
    8880023    1    1    2    0    0  0.50499539170E+03 -0.63003867820E+03 -0.24956893151E+03  0.10714774564E+04  0.65864270000E+03 0.  1.
    8880022    1    1    2    0    0 -0.50499539170E+03  0.63003867820E+03  0.21896955116E+04  0.23388302991E+04  0.15294330000E+03 0.  0.
<mgrwt>
<rscale>  0 0.98196285E+03</rscale>
<asrwt>0</asrwt>
<pdfrwt beam="1">  1        2 0.41157188E+00 0.10420073E+04</pdfrwt>
<pdfrwt beam="2">  1       -2 0.11309086E+00 0.10420073E+04</pdfrwt>
<totfact> 0.16955556E+00</totfact>
</mgrwt>
</event>
<event>
 4    1  0.2799069E-007  0.7517476E+03  0.7818608E-02  0.9826960E-01
          2   -1    0    0  501    0  0.00000000000E+00  0.00000000000E+00  0.16139557853E+04  0.16139557853E+04  0.25500000000E-02 0. -1.
         -2   -1    0    0    0  501 -0.00000000000E+00 -0.00000000000E+00 -0.23926745727E+03  0.23926745728E+03  0.25500000000E-02 0.  1.
    8880023    1    1    2    0    0 -0.29106387469E+03  0.21586130863E+03  0.52503154809E+03  0.91694199188E+03  0.65864270000E+03 0.  1.
    8880022    1    1    2    0    0  0.29106387469E+03 -0.21586130863E+03  0.84965677997E+03  0.93628125073E+03  0.15294330000E+03 0.  0.
<mgrwt>
<rscale>  0 0.63935552E+03</rscale>
<asrwt>0</asrwt>
<pdfrwt beam="1">  1        2 0.24830089E+00 0.75174762E+03</pdfrwt>
<pdfrwt beam="2">  1       -2 0.36810378E-01 0.75174762E+03</pdfrwt>
<totfact> 0.77747400E+01</totfact>
</mgrwt>
</event>
<event>
 4    1  0.2799069E-007  0.1078093E+04  0.7818608E-02  0.9285848E-01
          2   -1    0    0  501    0  0.00000000000E+00  0.00000000000E+00  0.32263874418E+04  0.32263874418E+04  0.25500000000E-02 0. -1.
         -2   -1    0    0    0  501 -0.00000000000E+00 -0.00000000000E+00 -0.35273821823E+03  0.35273821824E+03  0.25500000000E-02 0.  1.
    8880023    1    1    2    0    0  0.20154630827E+02 -0.85326902450E+03  0.83468661041E+03  0.13634464350E+04  0.65864270000E+03 0.  0.
    8880022    1    1    2    0    0 -0.20154630827E+02  0.85326902450E+03  0.20389626131E+04  0.22156792250E+04  0.15294330000E+03 0. -1.
<mgrwt>
<rscale>  0 0.10209623E+04</rscale>
<asrwt>0</asrwt>
<pdfrwt beam="1">  1        2 0.49636727E+00 0.10780930E+04</pdfrwt>
<pdfrwt beam="2">  1       -2 0.54267422E-01 0.10780930E+04</pdfrwt>
<totfact> 0.40534767E+00</totfact>
</mgrwt>
</event>
<event>
 4    1  0.2799069E-007  0.6812340E+03  0.7818608E-02  0.1008634E+00
         -2   -1    0    0    0  501 -0.00000000000E+00  0.00000000000E+00  0.11547208098E+04  0.11547208098E+04  0.25500000000E-02 0.  1.
          2   -1    0    0  501    0  0.00000000000E+00 -0.00000000000E+00 -0.65740897523E+03  0.65740897523E+03  0.25500000000E-02 0. -1.
    8880023    1    1    2    0    0 -0.94769803410E+01 -0.17372305249E+03  0.10279162840E+04  0.12331632516E+04  0.65864270000E+03 0.  1.
    8880022    1    1    2    0    0  0.94769803410E+01  0.17372305249E+03 -0.53060444935E+03  0.57896653341E+03  0.15294330000E+03 0.  0.
<mgrwt>
<rscale>  0 0.52021124E+03</rscale>
<asrwt>0</asrwt>
<pdfrwt beam="1">  1        2 0.10113984E+00 0.68123397E+03</pdfrwt>
<pdfrwt beam="2">  1       -2 0.17764935E+00 0.68123397E+03</pdfrwt>
<totfact> 0.85629821E+00</totfact>
</mgrwt>
</event>
<event>
 4    1  0.2799069E-007  0.7432894E+03  0.7818608E-02  0.9850467E-01
          2   -1    0    0  501    0  0.00000000000E+00  0.00000000000E+00  0.23256729475E+04  0.23256729475E+04  0.25500000000E-02 0. -1.
         -2   -1    0    0    0  501 -0.00000000000E+00 -0.00000000000E+00 -0.79346591540E+03  0.79346591541E+03  0.25500000000E-02 0.  1.
    8880023    1    1    2    0    0 -0.47573701686E+02  0.34118273300E+03 -0.59915496433E+03  0.95470717601E+03  0.65864270000E+03 0.  1.
    8880022    1    1    2    0    0  0.47573701686E+02 -0.34118273300E+03  0.21313619964E+04  0.21644316868E+04  0.15294330000E+03 0.  0.
<mgrwt>
<rscale>  0 0.62723119E+03</rscale>
<asrwt>0</asrwt>
<pdfrwt beam="1">  1        2 0.35779583E+00 0.74328939E+03</pdfrwt>
<pdfrwt beam="2">  1       -2 0.12207168E+00 0.74328939E+03</pdfrwt>
<totfact> 0.23351175E+00</totfact>
</mgrwt>
</event>
<event>
 4    1  0.2799069E-007  0.6830079E+03  0.7818608E-02  0.1007671E+00
          2   -1    0    0  501    0  0.00000000000E+00  0.00000000000E+00  0.15019817667E+04  0.15019817667E+04  0.25500000000E-02 0. -1.
         -2   -1    0    0    0  501 -0.00000000000E+00 -0.00000000000E+00 -0.15096122786E+03  0.15096122789E+03  0.25500000000E-02 0.  1.
    8880023    1    1    2    0    0  0.14185834225E+03  0.11209698586E+03  0.11703786496E+04  0.13550962745E+04  0.65864270000E+03 0.  0.
    8880022    1    1    2    0    0 -0.14185834225E+03 -0.11209698586E+03  0.18064188930E+03  0.29784672013E+03  0.15294330000E+03 0.  0.
<mgrwt>
<rscale>  0 0.52410875E+03</rscale>
<asrwt>0</asrwt>
<pdfrwt beam="1">  1        2 0.23107413E+00 0.68300785E+03</pdfrwt>
<pdfrwt beam="2">  1       -2 0.23224804E-01 0.68300785E+03</pdfrwt>
<totfact> 0.21136408E+02</totfact>
</mgrwt>
</event>
<event>
 4    1  0.2799069E-007  0.6882135E+03  0.7818608E-02  0.1005013E+00
         -2   -1    0    0    0  501 -0.00000000000E+00  0.00000000000E+00  0.84783035826E+03  0.84783035827E+03  0.25500000000E-02 0.  1.
          2   -1    0    0  501    0  0.00000000000E+00 -0.00000000000E+00 -0.11405294743E+04  0.11405294743E+04  0.25500000000E-02 0. -1.
    8880023    1    1    2    0    0 -0.94198279576E+02  0.17593838910E+03  0.68967765233E+03  0.97431673650E+03  0.65864270000E+03 0.  1.
    8880022    1    1    2    0    0  0.94198279576E+02 -0.17593838910E+03 -0.98237676838E+03  0.10140430961E+04  0.15294330000E+03 0.  0.
<mgrwt>
<rscale>  0 0.53505521E+03</rscale>
<asrwt>0</asrwt>
<pdfrwt beam="1">  1        2 0.17546607E+00 0.68821351E+03</pdfrwt>
<pdfrwt beam="2">  1       -2 0.13043544E+00 0.68821351E+03</pdfrwt>
<totfact> 0.91045320E+00</totfact>
</mgrwt>
</event>
<event>
 4    1  0.2799069E-007  0.1237175E+04  0.7818608E-02  0.9121806E-01
          2   -1    0    0  501    0  0.00000000000E+00  0.00000000000E+00  0.51794441103E+03  0.51794441104E+03  0.25500000000E-02 0. -1.
         -2   -1    0    0    0  501 -0.00000000000E+00 -0.00000000000E+00 -0.37294092437E+04  0.37294092437E+04  0.25500000000E-02 0.  1.
    8880023    1    1    2    0    0 -0.95808121466E+03  0.42293384106E+03 -0.28860872878E+04  0.31400800447E+04  0.65864270000E+03 0.  0.
    8880022    1    1    2    0    0  0.95808121466E+03 -0.42293384106E+03 -0.32537754482E+03  0.11072736100E+04  0.15294330000E+03 0.  0.
<mgrwt>
<rscale>  0 0.11898292E+04</rscale>
<asrwt>0</asrwt>
<pdfrwt beam="1">  1        2 0.79683758E-01 0.12371754E+04</pdfrwt>
<pdfrwt beam="2">  1       -2 0.57375525E+00 0.12371754E+04</pdfrwt>
<totfact> 0.37124711E-02</totfact>
</mgrwt>
</event>
<event>
 4    1  0.2799069E-007  0.6620592E+03  0.7818608E-02  0.1022139E+00
          2   -1    0    0  501    0  0.00000000000E+00  0.00000000000E+00  0.21565133027E+04  0.21565133027E+04  0.25500000000E-02 0. -1.
         -2   -1    0    0    0  501 -0.00000000000E+00 -0.00000000000E+00 -0.20664009680E+03  0.20664009681E+03  0.25500000000E-02 0.  1.
    8880023    1    1    2    0    0  0.37057131187E+02  0.56026512607E+02  0.33929899704E+03  0.74393965934E+03  0.65864270000E+03 0.  0.
    8880022    1    1    2    0    0 -0.37057131187E+02 -0.56026512607E+02  0.16105742089E+04  0.16192137402E+04  0.15294330000E+03 0. -1.
<mgrwt>
<rscale>  0 0.46922447E+03</rscale>
<asrwt>0</asrwt>
<pdfrwt beam="1">  1        2 0.33177127E+00 0.66205922E+03</pdfrwt>
<pdfrwt beam="2">  1       -2 0.31790784E-01 0.66205922E+03</pdfrwt>
<totfact> 0.52481620E+01</totfact>
</mgrwt>
</event>
<event>
 4    1  0.2799069E-007  0.1023654E+04  0.7818608E-02  0.9351245E-01
         -2   -1    0    0    0  501 -0.00000000000E+00  0.00000000000E+00  0.24879942719E+03  0.24879942720E+03  0.25500000000E-02 0.  1.
          2   -1    0    0  501    0  0.00000000000E+00 -0.00000000000E+00 -0.46375253162E+04  0.46375253162E+04  0.25500000000E-02 0. -1.
    8880023    1    1    2    0    0  0.56344841881E+03 -0.54459371946E+03 -0.11022889151E+04  0.15042963466E+04  0.65864270000E+03 0.  0.
    8880022    1    1    2    0    0 -0.56344841881E+03  0.54459371946E+03 -0.32864369739E+04  0.33820283968E+04  0.15294330000E+03 0.  0.
<mgrwt>
<rscale>  0 0.96198956E+03</rscale>
<asrwt>0</asrwt>
<pdfrwt beam="1">  1        2 0.71346537E+00 0.10236536E+04</pdfrwt>
<pdfrwt beam="2">  1       -2 0.38276838E-01 0.10236536E+04</pdfrwt>
<totfact> 0.62100263E-01</totfact>
</mgrwt>
</event>
<event>
 4    1  0.2799069E-007  0.1182691E+04  0.7818608E-02  0.9174134E-01
          2   -1    0    0  501    0  0.00000000000E+00  0.00000000000E+00  0.21861600150E+04  0.21861600150E+04  0.25500000000E-02 0. -1.
         -2   -1    0    0    0  501 -0.00000000000E+00 -0.00000000000E+00 -0.12213484907E+04  0.12213484907E+04  0.25500000000E-02 0.  1.
    8880023    1    1    2    0    0 -0.24229787792E+03 -0.95196623199E+03 -0.76771312343E+03  0.14100147569E+04  0.65864270000E+03 0.  0.
    8880022    1    1    2    0    0  0.24229787792E+03  0.95196623199E+03  0.17325246478E+04  0.19974937488E+04  0.15294330000E+03 0.  0.
<mgrwt>
<rscale>  0 0.11324441E+04</rscale>
<asrwt>0</asrwt>
<pdfrwt beam="1">  1        2 0.33633231E+00 0.11826911E+04</pdfrwt>
<pdfrwt beam="2">  1       -2 0.18789977E+00 0.11826911E+04</pdfrwt>
<totfact> 0.82081376E-01</totfact>
</mgrwt>
</event>
<event>
 4    1  0.2799069E-007  0.7555697E+03  0.7818608E-02  0.9816715E-01
          2   -1    0    0  501    0  0.00000000000E+00  0.00000000000E+00  0.73998244425E+03  0.73998244425E+03  0.25500000000E-02 0. -1.
         -2   -1    0    0    0  501 -0.00000000000E+00 -0.00000000000E+00 -0.56797039693E+03  0.56797039694E+03  0.25500000000E-02 0.  1.
    8880023    1    1    2    0    0  0.12425551308E+03 -0.34876339710E+03 -0.17771245716E+03  0.77618764702E+03  0.65864270000E+03 0.  0.
    8880022    1    1    2    0    0 -0.12425551308E+03  0.34876339710E+03  0.34972450448E+03  0.53176519417E+03  0.15294330000E+03 0.  0.
<mgrwt>
<rscale>  0 0.64473182E+03</rscale>
<asrwt>0</asrwt>
<pdfrwt beam="1">  1        2 0.11384345E+00 0.75556968E+03</pdfrwt>
<pdfrwt beam="2">  1       -2 0.87380061E-01 0.75556968E+03</pdfrwt>
<totfact> 0.43721517E+01</totfact>
</mgrwt>
</event>
<event>
 4    1  0.2799069E-007  0.8407860E+03  0.7818608E-02  0.9628700E-01
          2   -1    0    0  501    0  0.00000000000E+00  0.00000000000E+00  0.14284199192E+04  0.14284199192E+04  0.25500000000E-02 0. -1.
         -2   -1    0    0    0  501 -0.00000000000E+00 -0.00000000000E+00 -0.68639127290E+03  0.68639127291E+03  0.25500000000E-02 0.  1.
    8880023    1    1    2    0    0  0.11359700115E+03  0.51010456777E+03 -0.33728794301E+03  0.90591628283E+03  0.65864270000E+03 0.  1.
    8880022    1    1    2    0    0 -0.11359700115E+03 -0.51010456777E+03  0.10793165894E+04  0.12088949093E+04  0.15294330000E+03 0.  0.
<mgrwt>
<rscale>  0 0.75425410E+03</rscale>
<asrwt>0</asrwt>
<pdfrwt beam="1">  1        2 0.21975691E+00 0.84078603E+03</pdfrwt>
<pdfrwt beam="2">  1       -2 0.10559866E+00 0.84078603E+03</pdfrwt>
<totfact> 0.10226726E+01</totfact>
</mgrwt>
</event>
<event>
 4    1  0.2799069E-007  0.1053382E+04  0.7818608E-02  0.9314827E-01
         -2   -1    0    0    0  501 -0.00000000000E+00  0.00000000000E+00  0.50309081249E+03  0.50309081249E+03  0.25500000000E-02 0.  1.
          2   -1    0    0  501    0  0.00000000000E+00 -0.00000000000E+00 -0.37574207896E+04  0.37574207896E+04  0.25500000000E-02 0. -1.
    8880023    1    1    2    0    0 -0.51105144658E+03 -0.64391700303E+03 -0.17269247676E+03  0.10674434812E+04  0.65864270000E+03 0.  0.
    8880022    1    1    2    0    0  0.51105144658E+03  0.64391700303E+03 -0.30816375004E+04  0.31930681209E+04  0.15294330000E+03 0.  0.
<mgrwt>
<rscale>  0 0.99429224E+03</rscale>
<asrwt>0</asrwt>
<pdfrwt beam="1">  1        2 0.57806472E+00 0.10533816E+04</pdfrwt>
<pdfrwt beam="2">  1       -2 0.77398589E-01 0.10533816E+04</pdfrwt>
<totfact> 0.81424936E-01</totfact>
</mgrwt>
</event>
<event>
 4    1  0.2799069E-007  0.8406039E+03  0.7818608E-02  0.9629043E-01
          2   -1    0    0  501    0  0.00000000000E+00  0.00000000000E+00  0.17338365446E+04  0.17338365446E+04  0.25500000000E-02 0. -1.
         -2   -1    0    0    0  501 -0.00000000000E+00 -0.00000000000E+00 -0.48342694084E+03  0.48342694084E+03  0.25500000000E-02 0.  1.
    8880023    1    1    2    0    0 -0.48859851681E+03 -0.18459751750E+03 -0.13977680292E+02  0.84072012936E+03  0.65864270000E+03 0.  0.
    8880022    1    1    2    0    0  0.48859851681E+03  0.18459751750E+03  0.12643872840E+04  0.13765433561E+04  0.15294330000E+03 0.  0.
<mgrwt>
<rscale>  0 0.75403418E+03</rscale>
<asrwt>0</asrwt>
<pdfrwt beam="1">  1        2 0.26674408E+00 0.84060393E+03</pdfrwt>
<pdfrwt beam="2">  1       -2 0.74373375E-01 0.84060393E+03</pdfrwt>
<totfact> 0.15537688E+01</totfact>
</mgrwt>
</event>
<event>
 4    1  0.2799069E-007  0.7183290E+03  0.7818608E-02  0.9928281E-01
         -2   -1    0    0    0  501 -0.00000000000E+00  0.00000000000E+00  0.66228627436E+03  0.66228627436E+03  0.25500000000E-02 0.  1.
          2   -1    0    0  501    0  0.00000000000E+00 -0.00000000000E+00 -0.19663926131E+04  0.19663926131E+04  0.25500000000E-02 0. -1.
    8880023    1    1    2    0    0 -0.22301775739E+03  0.18013731316E+03  0.44807712291E+03  0.84662251685E+03  0.65864270000E+03 0.  0.
    8880022    1    1    2    0    0  0.22301775739E+03 -0.18013731316E+03 -0.17521834616E+04  0.17820563706E+04  0.15294330000E+03 0.  0.
<mgrwt>
<rscale>  0 0.58910031E+03</rscale>
<asrwt>0</asrwt>
<pdfrwt beam="1">  1        2 0.30252194E+00 0.71832902E+03</pdfrwt>
<pdfrwt beam="2">  1       -2 0.10189020E+00 0.71832902E+03</pdfrwt>
<totfact> 0.57335208E+00</totfact>
</mgrwt>
</event>
<event>
 4    1  0.2799069E-007  0.1212236E+04  0.7818608E-02  0.9145319E-01
         -2   -1    0    0    0  501 -0.00000000000E+00  0.00000000000E+00  0.23601066337E+04  0.23601066337E+04  0.25500000000E-02 0.  1.
          2   -1    0    0  501    0  0.00000000000E+00 -0.00000000000E+00 -0.13000197543E+04  0.13000197543E+04  0.25500000000E-02 0. -1.
    8880023    1    1    2    0    0 -0.14091723436E+03  0.10078926519E+04  0.19523332852E+04  0.22980689126E+04  0.65864270000E+03 0.  1.
    8880022    1    1    2    0    0  0.14091723436E+03 -0.10078926519E+04 -0.89224640581E+03  0.13620574754E+04  0.15294330000E+03 0.  0.
<mgrwt>
<rscale>  0 0.11636095E+04</rscale>
<asrwt>0</asrwt>
<pdfrwt beam="1">  1        2 0.20000304E+00 0.12122357E+04</pdfrwt>
<pdfrwt beam="2">  1       -2 0.36309333E+00 0.12122357E+04</pdfrwt>
<totfact> 0.20820401E-01</totfact>
</mgrwt>
</event>
<event>
 4    1  0.2799069E-007  0.8239733E+03  0.7818608E-02  0.9661174E-01
         -2   -1    0    0    0  501 -0.00000000000E+00  0.00000000000E+00  0.74127083322E+03  0.74127083323E+03  0.25500000000E-02 0.  1.
          2   -1    0    0  501    0  0.00000000000E+00 -0.00000000000E+00 -0.81971351030E+03  0.81971351031E+03  0.25500000000E-02 0. -1.
    8880023    1    1    2    0    0 -0.43363035269E+03  0.23892770042E+03  0.34353445909E+03  0.89271936220E+03  0.65864270000E+03 0.  0.
    8880022    1    1    2    0    0  0.43363035269E+03 -0.23892770042E+03 -0.42197713617E+03  0.66826498133E+03  0.15294330000E+03 0.  0.
<mgrwt>
<rscale>  0 0.73376261E+03</rscale>
<asrwt>0</asrwt>
<pdfrwt beam="1">  1        2 0.12610977E+00 0.82397326E+03</pdfrwt>
<pdfrwt beam="2">  1       -2 0.11404167E+00 0.82397326E+03</pdfrwt>
<totfact> 0.20220830E+01</totfact>
</mgrwt>
</event>
<event>
 4    1  0.2799069E-007  0.9310093E+03  0.7818608E-02  0.9477981E-01
         -2   -1    0    0    0  501 -0.00000000000E+00  0.00000000000E+00  0.27382627117E+03  0.27382627118E+03  0.25500000000E-02 0.  1.
          2   -1    0    0  501    0  0.00000000000E+00 -0.00000000000E+00 -0.27718322228E+04  0.27718322228E+04  0.25500000000E-02 0. -1.
    8880023    1    1    2    0    0  0.76476350379E+02 -0.65354378985E+03 -0.83469638052E+03  0.12503984850E+04  0.65864270000E+03 0.  0.
    8880022    1    1    2    0    0 -0.76476350379E+02  0.65354378985E+03 -0.16633095712E+04  0.17952600090E+04  0.15294330000E+03 0.  0.
<mgrwt>
<rscale>  0 0.85926859E+03</rscale>
<asrwt>0</asrwt>
<pdfrwt beam="1">  1        2 0.42643571E+00 0.93100930E+03</pdfrwt>
<pdfrwt beam="2">  1       -2 0.42127120E-01 0.93100930E+03</pdfrwt>
<totfact> 0.13187615E+01</totfact>
</mgrwt>
</event>
<event>
 4    1  0.2799069E-007  0.8856324E+03  0.7818608E-02  0.9549501E-01
          2   -1    0    0  501    0  0.00000000000E+00  0.00000000000E+00  0.14955942106E+04  0.14955942106E+04  0.25500000000E-02 0. -1.
         -2   -1    0    0    0  501 -0.00000000000E+00 -0.00000000000E+00 -0.26198438126E+04  0.26198438126E+04  0.25500000000E-02 0.  1.
    8880023    1    1    2    0    0 -0.59177462205E+03  0.18365571757E+02 -0.24771794408E+04  0.26307342484E+04  0.65864270000E+03 0.  1.
    8880022    1    1    2    0    0  0.59177462205E+03 -0.18365571757E+02  0.13529298387E+04  0.14847037748E+04  0.15294330000E+03 0.  0.
<mgrwt>
<rscale>  0 0.80730630E+03</rscale>
<asrwt>0</asrwt>
<pdfrwt beam="1">  1        2 0.23009142E+00 0.88563238E+03</pdfrwt>
<pdfrwt beam="2">  1       -2 0.40305289E+00 0.88563238E+03</pdfrwt>
<totfact> 0.94379920E-02</totfact>
</mgrwt>
</event>
<event>
 4    1  0.2799069E-007  0.1297358E+04  0.7818608E-02  0.9067845E-01
          2   -1    0    0  501    0  0.00000000000E+00  0.00000000000E+00  0.12103066197E+04  0.12103066197E+04  0.25500000000E-02 0. -1.
         -2   -1    0    0    0  501 -0.00000000000E+00 -0.00000000000E+00 -0.30348201740E+04  0.30348201740E+04  0.25500000000E-02 0.  1.
    8880023    1    1    2    0    0 -0.10779076897E+04 -0.29570712837E+03 -0.25796917903E+04  0.28875504554E+04  0.65864270000E+03 0.  1.
    8880022    1    1    2    0    0  0.10779076897E+04  0.29570712837E+03  0.75517823601E+03  0.13575763384E+04  0.15294330000E+03 0.  0.
<mgrwt>
<rscale>  0 0.12528136E+04</rscale>
<asrwt>0</asrwt>
<pdfrwt beam="1">  1        2 0.18620102E+00 0.12973580E+04</pdfrwt>
<pdfrwt beam="2">  1       -2 0.46689541E+00 0.12973580E+04</pdfrwt>
<totfact> 0.48556783E-02</totfact>
</mgrwt>
</event>
<event>
 4    1  0.2799069E-007  0.7230950E+03  0.7818608E-02  0.9912249E-01
         -2   -1    0    0    0  501 -0.00000000000E+00  0.00000000000E+00  0.75779546059E+03  0.75779546059E+03  0.25500000000E-02 0.  1.
          2   -1    0    0  501    0  0.00000000000E+00 -0.00000000000E+00 -0.10113614594E+04  0.10113614594E+04  0.25500000000E-02 0. -1.
    8880023    1    1    2    0    0  0.29628767684E+03  0.35633357582E+02  0.54340025663E+03  0.90451653871E+03  0.65864270000E+03 0.  1.
    8880022    1    1    2    0    0 -0.29628767684E+03 -0.35633357582E+02 -0.79696625540E+03  0.86464038125E+03  0.15294330000E+03 0.  0.
<mgrwt>
<rscale>  0 0.59671281E+03</rscale>
<asrwt>0</asrwt>
<pdfrwt beam="1">  1        2 0.15559407E+00 0.72309497E+03</pdfrwt>
<pdfrwt beam="2">  1       -2 0.11658392E+00 0.72309497E+03</pdfrwt>
<totfact> 0.14408087E+01</totfact>
</mgrwt>
</event>
<event>
 4    1  0.2799069E-007  0.1063574E+04  0.7818608E-02  0.9302739E-01
         -2   -1    0    0    0  501 -0.00000000000E+00  0.00000000000E+00  0.98124440445E+03  0.98124440446E+03  0.25500000000E-02 0.  1.
          2   -1    0    0  501    0  0.00000000000E+00 -0.00000000000E+00 -0.15404091726E+04  0.15404091726E+04  0.25500000000E-02 0. -1.
    8880023    1    1    2    0    0  0.56580803877E+03 -0.61419855112E+03  0.49083371055E+03  0.11713695124E+04  0.65864270000E+03 0.  1.
    8880022    1    1    2    0    0 -0.56580803877E+03  0.61419855112E+03 -0.10499984787E+04  0.13502840646E+04  0.15294330000E+03 0.  0.
<mgrwt>
<rscale>  0 0.10053106E+04</rscale>
<asrwt>0</asrwt>
<pdfrwt beam="1">  1        2 0.23698603E+00 0.10635736E+04</pdfrwt>
<pdfrwt beam="2">  1       -2 0.15096068E+00 0.10635736E+04</pdfrwt>
<totfact> 0.34976609E+00</totfact>
</mgrwt>
</event>
<event>
 4    1  0.2799069E-007  0.1046843E+04  0.7818608E-02  0.9322686E-01
         -2   -1    0    0    0  501 -0.00000000000E+00  0.00000000000E+00  0.35468237072E+03  0.35468237072E+03  0.25500000000E-02 0.  1.
          2   -1    0    0  501    0  0.00000000000E+00 -0.00000000000E+00 -0.30190593294E+04  0.30190593294E+04  0.25500000000E-02 0. -1.
    8880023    1    1    2    0    0 -0.71757816960E+03 -0.38360446095E+03 -0.74933678027E+03  0.12873952884E+04  0.65864270000E+03 0.  0.
    8880022    1    1    2    0    0  0.71757816960E+03  0.38360446095E+03 -0.19150401784E+04  0.20863464117E+04  0.15294330000E+03 0.  0.
<mgrwt>
<rscale>  0 0.98720930E+03</rscale>
<asrwt>0</asrwt>
<pdfrwt beam="1">  1        2 0.46447065E+00 0.10468434E+04</pdfrwt>
<pdfrwt beam="2">  1       -2 0.54566521E-01 0.10468434E+04</pdfrwt>
<totfact> 0.54433789E+00</totfact>
</mgrwt>
</event>
<event>
 4    1  0.2799069E-007  0.7214413E+03  0.7818608E-02  0.9917739E-01
         -2   -1    0    0    0  501 -0.00000000000E+00  0.00000000000E+00  0.20231476666E+04  0.20231476666E+04  0.25500000000E-02 0.  1.
          2   -1    0    0  501    0  0.00000000000E+00 -0.00000000000E+00 -0.64928099980E+03  0.64928099981E+03  0.25500000000E-02 0. -1.
    8880023    1    1    2    0    0 -0.66907334413E+02 -0.28668936278E+03  0.19101370610E+04  0.20418376968E+04  0.65864270000E+03 0.  0.
    8880022    1    1    2    0    0  0.66907334413E+02  0.28668936278E+03 -0.53627039423E+03  0.63059096955E+03  0.15294330000E+03 0.  0.
<mgrwt>
<rscale>  0 0.59409237E+03</rscale>
<asrwt>0</asrwt>
<pdfrwt beam="1">  1        2 0.99889385E-01 0.72144133E+03</pdfrwt>
<pdfrwt beam="2">  1       -2 0.31125349E+00 0.72144133E+03</pdfrwt>
<totfact> 0.12826743E+00</totfact>
</mgrwt>
</event>
<event>
 4    1  0.2799069E-007  0.1022685E+04  0.7818608E-02  0.9352462E-01
         -2   -1    0    0    0  501 -0.00000000000E+00  0.00000000000E+00  0.56365253273E+03  0.56365253273E+03  0.25500000000E-02 0.  1.
          2   -1    0    0  501    0  0.00000000000E+00 -0.00000000000E+00 -0.17655259973E+04  0.17655259973E+04  0.25500000000E-02 0. -1.
    8880023    1    1    2    0    0  0.68221801657E+03 -0.38295344483E+03 -0.11371748863E+04  0.15293958583E+04  0.65864270000E+03 0. -1.
    8880022    1    1    2    0    0 -0.68221801657E+03  0.38295344483E+03 -0.64698578312E+02  0.79978267179E+03  0.15294330000E+03 0.  0.
<mgrwt>
<rscale>  0 0.96093286E+03</rscale>
<asrwt>0</asrwt>
<pdfrwt beam="1">  1        2 0.27161938E+00 0.10226852E+04</pdfrwt>
<pdfrwt beam="2">  1       -2 0.86715775E-01 0.10226852E+04</pdfrwt>
<totfact> 0.10343657E+01</totfact>
</mgrwt>
</event>
<event>
 4    1  0.2799069E-007  0.1133922E+04  0.7818608E-02  0.9224195E-01
          2   -1    0    0  501    0  0.00000000000E+00  0.00000000000E+00  0.16524509164E+04  0.16524509164E+04  0.25500000000E-02 0. -1.
         -2   -1    0    0    0  501 -0.00000000000E+00 -0.00000000000E+00 -0.77971781466E+03  0.77971781466E+03  0.25500000000E-02 0.  1.
    8880023    1    1    2    0    0 -0.44196795180E+03 -0.81032976203E+03 -0.26853619742E+02  0.11342404140E+04  0.65864270000E+03 0.  0.
    8880022    1    1    2    0    0  0.44196795180E+03  0.81032976203E+03  0.89958672145E+03  0.12979283170E+04  0.15294330000E+03 0.  0.
<mgrwt>
<rscale>  0 0.10807145E+04</rscale>
<asrwt>0</asrwt>
<pdfrwt beam="1">  1        2 0.25422322E+00 0.11339225E+04</pdfrwt>
<pdfrwt beam="2">  1       -2 0.11995659E+00 0.11339225E+04</pdfrwt>
<totfact> 0.54362803E+00</totfact>
</mgrwt>
</event>
<event>
 4    1  0.2799069E-007  0.8823743E+03  0.7818608E-02  0.9554940E-01
          2   -1    0    0  501    0  0.00000000000E+00  0.00000000000E+00  0.14494625363E+04  0.14494625363E+04  0.25500000000E-02 0. -1.
         -2   -1    0    0    0  501 -0.00000000000E+00 -0.00000000000E+00 -0.61084353216E+03  0.61084353216E+03  0.25500000000E-02 0.  1.
    8880023    1    1    2    0    0  0.33506693146E+03  0.48218710142E+03 -0.15518088536E+03  0.89591604673E+03  0.65864270000E+03 0.  1.
    8880022    1    1    2    0    0 -0.33506693146E+03 -0.48218710142E+03  0.99379988947E+03  0.11643900217E+04  0.15294330000E+03 0.  0.
<mgrwt>
<rscale>  0 0.80351704E+03</rscale>
<asrwt>0</asrwt>
<pdfrwt beam="1">  1        2 0.22299423E+00 0.88237433E+03</pdfrwt>
<pdfrwt beam="2">  1       -2 0.93975929E-01 0.88237433E+03</pdfrwt>
<totfact> 0.13060474E+01</totfact>
</mgrwt>
</event>
<event>
 4    1  0.2799069E-007  0.1013117E+04  0.7818608E-02  0.9364595E-01
          2   -1    0    0  501    0  0.00000000000E+00  0.00000000000E+00  0.13218705883E+04  0.13218705883E+04  0.25500000000E-02 0. -1.
         -2   -1    0    0    0  501 -0.00000000000E+00 -0.00000000000E+00 -0.12009874330E+04  0.12009874330E+04  0.25500000000E-02 0.  1.
    8880023    1    1    2    0    0 -0.45198190347E+03  0.62314328517E+03 -0.81585883548E+03  0.13007809349E+04  0.65864270000E+03 0.  0.
    8880022    1    1    2    0    0  0.45198190347E+03 -0.62314328517E+03  0.93674199072E+03  0.12220770864E+04  0.15294330000E+03 0.  0.
<mgrwt>
<rscale>  0 0.95047572E+03</rscale>
<asrwt>0</asrwt>
<pdfrwt beam="1">  1        2 0.20336471E+00 0.10131167E+04</pdfrwt>
<pdfrwt beam="2">  1       -2 0.18476730E+00 0.10131167E+04</pdfrwt>
<totfact> 0.26737308E+00</totfact>
</mgrwt>
</event>
<event>
 4    1  0.2799069E-007  0.8050209E+03  0.7818608E-02  0.9700043E-01
          2   -1    0    0  501    0  0.00000000000E+00  0.00000000000E+00  0.89925177448E+03  0.89925177449E+03  0.25500000000E-02 0. -1.
         -2   -1    0    0    0  501 -0.00000000000E+00 -0.00000000000E+00 -0.57765888299E+03  0.57765888299E+03  0.25500000000E-02 0.  1.
    8880023    1    1    2    0    0 -0.27135372389E+03  0.37498749819E+03 -0.12634714089E+03  0.81487561845E+03  0.65864270000E+03 0.  1.
    8880022    1    1    2    0    0  0.27135372389E+03 -0.37498749819E+03  0.44794003238E+03  0.66203503903E+03  0.15294330000E+03 0.  0.
<mgrwt>
<rscale>  0 0.71014224E+03</rscale>
<asrwt>0</asrwt>
<pdfrwt beam="1">  1        2 0.13834643E+00 0.80502091E+03</pdfrwt>
<pdfrwt beam="2">  1       -2 0.88870598E-01 0.80502091E+03</pdfrwt>
<totfact> 0.32262659E+01</totfact>
</mgrwt>
</event>
<event>
 4    1  0.2799069E-007  0.1395578E+04  0.7818608E-02  0.8987127E-01
         -2   -1    0    0    0  501 -0.00000000000E+00  0.00000000000E+00  0.89838492521E+03  0.89838492521E+03  0.25500000000E-02 0.  1.
          2   -1    0    0  501    0  0.00000000000E+00 -0.00000000000E+00 -0.20173838071E+04  0.20173838071E+04  0.25500000000E-02 0. -1.
    8880023    1    1    2    0    0  0.62683089167E+03 -0.10587304803E+04 -0.88925929126E+03  0.16548170563E+04  0.65864270000E+03 0. -1.
    8880022    1    1    2    0    0 -0.62683089167E+03  0.10587304803E+04 -0.22973959060E+03  0.12609516760E+04  0.15294330000E+03 0.  0.
<mgrwt>
<rscale>  0 0.13549008E+04</rscale>
<asrwt>0</asrwt>
<pdfrwt beam="1">  1        2 0.31036674E+00 0.13955778E+04</pdfrwt>
<pdfrwt beam="2">  1       -2 0.13821307E+00 0.13955778E+04</pdfrwt>
<totfact> 0.23179315E+00</totfact>
</mgrwt>
</event>
<event>
 4    1  0.2799069E-007  0.8496562E+03  0.7818608E-02  0.9612235E-01
          2   -1    0    0  501    0  0.00000000000E+00  0.00000000000E+00  0.13506963125E+04  0.13506963125E+04  0.25500000000E-02 0. -1.
         -2   -1    0    0    0  501 -0.00000000000E+00 -0.00000000000E+00 -0.12507886405E+04  0.12507886405E+04  0.25500000000E-02 0.  1.
    8880023    1    1    2    0    0 -0.53518506871E+03  0.41016670986E+02 -0.10336134976E+04  0.13380106478E+04  0.65864270000E+03 0.  1.
    8880022    1    1    2    0    0  0.53518506871E+03 -0.41016670986E+02  0.11335211696E+04  0.12634743052E+04  0.15294330000E+03 0.  0.
<mgrwt>
<rscale>  0 0.76491674E+03</rscale>
<asrwt>0</asrwt>
<pdfrwt beam="1">  1        2 0.20779943E+00 0.84965618E+03</pdfrwt>
<pdfrwt beam="2">  1       -2 0.19242902E+00 0.84965618E+03</pdfrwt>
<totfact> 0.23352798E+00</totfact>
</mgrwt>
</event>
<event>
 4    1  0.2799069E-007  0.7955172E+03  0.7818608E-02  0.9720574E-01
          2   -1    0    0  501    0  0.00000000000E+00  0.00000000000E+00  0.23412561285E+04  0.23412561285E+04  0.25500000000E-02 0. -1.
         -2   -1    0    0    0  501 -0.00000000000E+00 -0.00000000000E+00 -0.22298656381E+03  0.22298656383E+03  0.25500000000E-02 0.  1.
    8880023    1    1    2    0    0 -0.42286429051E+03  0.14220830139E+03  0.66660286124E+03  0.10378858271E+04  0.65864270000E+03 0.  1.
    8880022    1    1    2    0    0  0.42286429051E+03 -0.14220830139E+03  0.14516667035E+04  0.15263568653E+04  0.15294330000E+03 0.  0.
<mgrwt>
<rscale>  0 0.69804934E+03</rscale>
<asrwt>0</asrwt>
<pdfrwt beam="1">  1        2 0.36019323E+00 0.79551720E+03</pdfrwt>
<pdfrwt beam="2">  1       -2 0.34305627E-01 0.79551720E+03</pdfrwt>
<totfact> 0.35301778E+01</totfact>
</mgrwt>
</event>
<event>
 4    1  0.2799069E-007  0.6750657E+03  0.7818608E-02  0.1012265E+00
         -2   -1    0    0    0  501 -0.00000000000E+00  0.00000000000E+00  0.38244359084E+03  0.38244359085E+03  0.25500000000E-02 0.  1.
          2   -1    0    0  501    0  0.00000000000E+00 -0.00000000000E+00 -0.23573847100E+04  0.23573847100E+04  0.25500000000E-02 0. -1.
    8880023    1    1    2    0    0  0.13974964342E+03  0.48718417836E+02  0.74682978181E+02  0.67918421696E+03  0.65864270000E+03 0.  1.
    8880022    1    1    2    0    0 -0.13974964342E+03 -0.48718417836E+02 -0.20496240974E+04  0.20606440839E+04  0.15294330000E+03 0.  0.
<mgrwt>
<rscale>  0 0.50584320E+03</rscale>
<asrwt>0</asrwt>
<pdfrwt beam="1">  1        2 0.36267456E+00 0.67506567E+03</pdfrwt>
<pdfrwt beam="2">  1       -2 0.58837477E-01 0.67506567E+03</pdfrwt>
<totfact> 0.12002413E+01</totfact>
</mgrwt>
</event>
<event>
 4    1  0.2799069E-007  0.9887764E+03  0.7818608E-02  0.9396391E-01
         -2   -1    0    0    0  501 -0.00000000000E+00  0.00000000000E+00  0.34446554802E+03  0.34446554803E+03  0.25500000000E-02 0.  1.
          2   -1    0    0  501    0  0.00000000000E+00 -0.00000000000E+00 -0.27107301411E+04  0.27107301411E+04  0.25500000000E-02 0. -1.
    8880023    1    1    2    0    0  0.64384755374E+03  0.35962335223E+03 -0.65644913170E+03  0.11868463661E+04  0.65864270000E+03 0.  0.
    8880022    1    1    2    0    0 -0.64384755374E+03 -0.35962335223E+03 -0.17098154614E+04  0.18683493230E+04  0.15294330000E+03 0.  0.
<mgrwt>
<rscale>  0 0.92373283E+03</rscale>
<asrwt>0</asrwt>
<pdfrwt beam="1">  1        2 0.41703539E+00 0.98877643E+03</pdfrwt>
<pdfrwt beam="2">  1       -2 0.52994701E-01 0.98877643E+03</pdfrwt>
<totfact> 0.89433587E+00</totfact>
</mgrwt>
</event>
<event>
 4    1  0.2799069E-007  0.7927936E+03  0.7818608E-02  0.9726600E-01
         -2   -1    0    0    0  501 -0.00000000000E+00  0.00000000000E+00  0.50528039837E+03  0.50528039837E+03  0.25500000000E-02 0.  1.
          2   -1    0    0  501    0  0.00000000000E+00 -0.00000000000E+00 -0.13647385598E+04  0.13647385598E+04  0.25500000000E-02 0. -1.
    8880023    1    1    2    0    0  0.73179997489E+02 -0.43515075263E+03  0.10376054660E+03  0.79955484292E+03  0.65864270000E+03 0.  0.
    8880022    1    1    2    0    0 -0.73179997489E+02  0.43515075263E+03 -0.96321870806E+03  0.10704641153E+04  0.15294330000E+03 0. -1.
<mgrwt>
<rscale>  0 0.69454892E+03</rscale>
<asrwt>0</asrwt>
<pdfrwt beam="1">  1        2 0.20995978E+00 0.79279360E+03</pdfrwt>
<pdfrwt beam="2">  1       -2 0.77735446E-01 0.79279360E+03</pdfrwt>
<totfact> 0.22724865E+01</totfact>
</mgrwt>
</event>
<event>
 4    1  0.2799069E-007  0.1090682E+04  0.7818608E-02  0.9271502E-01
         -2   -1    0    0    0  501 -0.00000000000E+00  0.00000000000E+00  0.68583755111E+03  0.68583755112E+03  0.25500000000E-02 0.  1.
          2   -1    0    0  501    0  0.00000000000E+00 -0.00000000000E+00 -0.19274032742E+04  0.19274032742E+04  0.25500000000E-02 0. -1.
    8880023    1    1    2    0    0  0.47099209430E+03 -0.73071419447E+03 -0.99493566230E+00  0.10906823475E+04  0.65864270000E+03 0.  0.
    8880022    1    1    2    0    0 -0.47099209430E+03  0.73071419447E+03 -0.12405707874E+04  0.15225584779E+04  0.15294330000E+03 0.  0.
<mgrwt>
<rscale>  0 0.10344929E+04</rscale>
<asrwt>0</asrwt>
<pdfrwt beam="1">  1        2 0.29652358E+00 0.10906819E+04</pdfrwt>
<pdfrwt beam="2">  1       -2 0.10551347E+00 0.10906819E+04</pdfrwt>
<totfact> 0.52676145E+00</totfact>
</mgrwt>
</event>
<event>
 4    1  0.2799069E-007  0.7718245E+03  0.7818608E-02  0.9775404E-01
          2   -1    0    0  501    0  0.00000000000E+00  0.00000000000E+00  0.21470528179E+04  0.21470528179E+04  0.25500000000E-02 0. -1.
         -2   -1    0    0    0  501 -0.00000000000E+00 -0.00000000000E+00 -0.69533958070E+03  0.69533958071E+03  0.25500000000E-02 0.  1.
    8880023    1    1    2    0    0 -0.29226253858E+03 -0.27655996072E+03 -0.44941994905E+03  0.89313565610E+03  0.65864270000E+03 0.  0.
    8880022    1    1    2    0    0  0.29226253858E+03  0.27655996072E+03  0.19011331863E+04  0.19492567425E+04  0.15294330000E+03 0.  0.
<mgrwt>
<rscale>  0 0.66699367E+03</rscale>
<asrwt>0</asrwt>
<pdfrwt beam="1">  1        2 0.33031581E+00 0.77182447E+03</pdfrwt>
<pdfrwt beam="2">  1       -2 0.10697532E+00 0.77182447E+03</pdfrwt>
<totfact> 0.40272974E+00</totfact>
</mgrwt>
</event>
<event>
 4    1  0.2799069E-007  0.1166939E+04  0.7818608E-02  0.9189950E-01
         -2   -1    0    0    0  501 -0.00000000000E+00  0.00000000000E+00  0.11762293891E+04  0.11762293891E+04  0.25500000000E-02 0.  1.
          2   -1    0    0  501    0  0.00000000000E+00 -0.00000000000E+00 -0.12045758184E+04  0.12045758184E+04  0.25500000000E-02 0. -1.
    8880023    1    1    2    0    0 -0.94318786561E+03  0.19578599411E+03  0.50228405542E+03  0.12704467655E+04  0.65864270000E+03 0.  0.
    8880022    1    1    2    0    0  0.94318786561E+03 -0.19578599411E+03 -0.53063048470E+03  0.11103584420E+04  0.15294330000E+03 0.  0.
<mgrwt>
<rscale>  0 0.11157766E+04</rscale>
<asrwt>0</asrwt>
<pdfrwt beam="1">  1        2 0.18531936E+00 0.11669386E+04</pdfrwt>
<pdfrwt beam="2">  1       -2 0.18095837E+00 0.11669386E+04</pdfrwt>
<totfact> 0.32752788E+00</totfact>
</mgrwt>
</event>
<event>
 4    1  0.2799069E-007  0.1238777E+04  0.7818608E-02  0.9120320E-01
          2   -1    0    0  501    0  0.00000000000E+00  0.00000000000E+00  0.10050931573E+04  0.10050931573E+04  0.25500000000E-02 0. -1.
         -2   -1    0    0    0  501 -0.00000000000E+00 -0.00000000000E+00 -0.14135205448E+04  0.14135205448E+04  0.25500000000E-02 0.  1.
    8880023    1    1    2    0    0 -0.98174819077E+03  0.37003780828E+03 -0.53782068359E+03  0.13504883500E+04  0.65864270000E+03 0.  0.
    8880022    1    1    2    0    0  0.98174819077E+03 -0.37003780828E+03  0.12939329606E+03  0.10681253521E+04  0.15294330000E+03 0.  0.
<mgrwt>
<rscale>  0 0.11915102E+04</rscale>
<asrwt>0</asrwt>
<pdfrwt beam="1">  1        2 0.15462972E+00 0.12387767E+04</pdfrwt>
<pdfrwt beam="2">  1       -2 0.21746470E+00 0.12387767E+04</pdfrwt>
<totfact> 0.24852183E+00</totfact>
</mgrwt>
</event>
<event>
 4    1  0.2799069E-007  0.1333795E+04  0.7818608E-02  0.9036912E-01
         -2   -1    0    0    0  501 -0.00000000000E+00  0.00000000000E+00  0.18681667749E+04  0.18681667749E+04  0.25500000000E-02 0.  1.
          2   -1    0    0  501    0  0.00000000000E+00 -0.00000000000E+00 -0.11706031472E+04  0.11706031472E+04  0.25500000000E-02 0. -1.
    8880023    1    1    2    0    0 -0.10893231014E+04  0.39821331566E+03  0.11727770204E+04  0.17760672312E+04  0.65864270000E+03 0.  1.
    8880022    1    1    2    0    0  0.10893231014E+04 -0.39821331566E+03 -0.47521339276E+03  0.12627026909E+04  0.15294330000E+03 0.  0.
<mgrwt>
<rscale>  0 0.12907763E+04</rscale>
<asrwt>0</asrwt>
<pdfrwt beam="1">  1        2 0.18009279E+00 0.13337949E+04</pdfrwt>
<pdfrwt beam="2">  1       -2 0.28741027E+00 0.13337949E+04</pdfrwt>
<totfact> 0.71930708E-01</totfact>
</mgrwt>
</event>
<event>
 4    1  0.2799069E-007  0.7409119E+03  0.7818608E-02  0.9857299E-01
          2   -1    0    0  501    0  0.00000000000E+00  0.00000000000E+00  0.55941144729E+03  0.55941144730E+03  0.25500000000E-02 0. -1.
         -2   -1    0    0    0  501 -0.00000000000E+00 -0.00000000000E+00 -0.55396116518E+03  0.55396116519E+03  0.25500000000E-02 0.  1.
    8880023    1    1    2    0    0 -0.84091367622E+02  0.32873825561E+03 -0.74750024778E+01  0.74094958043E+03  0.65864270000E+03 0.  0.
    8880022    1    1    2    0    0  0.84091367622E+02 -0.32873825561E+03  0.12925284591E+02  0.37242303206E+03  0.15294330000E+03 0.  1.
<mgrwt>
<rscale>  0 0.62376158E+03</rscale>
<asrwt>0</asrwt>
<pdfrwt beam="1">  1        2 0.86063300E-01 0.74091187E+03</pdfrwt>
<pdfrwt beam="2">  1       -2 0.85224795E-01 0.74091187E+03</pdfrwt>
<totfact> 0.65416844E+01</totfact>
</mgrwt>
</event>
<event>
 4    1  0.2799069E-007  0.7638817E+03  0.7818608E-02  0.9795160E-01
         -2   -1    0    0    0  501 -0.00000000000E+00  0.00000000000E+00  0.23673215007E+03  0.23673215008E+03  0.25500000000E-02 0.  1.
          2   -1    0    0  501    0  0.00000000000E+00 -0.00000000000E+00 -0.19501090869E+04  0.19501090869E+04  0.25500000000E-02 0. -1.
    8880023    1    1    2    0    0  0.37823467139E+03 -0.81507794398E+02 -0.52277536545E+03  0.92563992793E+03  0.65864270000E+03 0.  0.
    8880022    1    1    2    0    0 -0.37823467139E+03  0.81507794398E+02 -0.11906015714E+04  0.12612013091E+04  0.15294330000E+03 0.  0.
<mgrwt>
<rscale>  0 0.65622934E+03</rscale>
<asrwt>0</asrwt>
<pdfrwt beam="1">  1        2 0.30001677E+00 0.76388166E+03</pdfrwt>
<pdfrwt beam="2">  1       -2 0.36420332E-01 0.76388166E+03</pdfrwt>
<totfact> 0.51913625E+01</totfact>
</mgrwt>
</event>
<event>
 4    1  0.2799069E-007  0.9181803E+03  0.7818608E-02  0.9497455E-01
          2   -1    0    0  501    0  0.00000000000E+00  0.00000000000E+00  0.15958217649E+04  0.15958217649E+04  0.25500000000E-02 0. -1.
         -2   -1    0    0    0  501 -0.00000000000E+00 -0.00000000000E+00 -0.99013487958E+03  0.99013487958E+03  0.25500000000E-02 0.  1.
    8880023    1    1    2    0    0 -0.62314780667E+03 -0.14467802421E+03 -0.67947575077E+03  0.11422532214E+04  0.65864270000E+03 0.  0.
    8880022    1    1    2    0    0  0.62314780667E+03  0.14467802421E+03  0.12851626361E+04  0.14437034231E+04  0.15294330000E+03 0.  0.
<mgrwt>
<rscale>  0 0.84471731E+03</rscale>
<asrwt>0</asrwt>
<pdfrwt beam="1">  1        2 0.24551104E+00 0.91818033E+03</pdfrwt>
<pdfrwt beam="2">  1       -2 0.15232844E+00 0.91818033E+03</pdfrwt>
<totfact> 0.32363683E+00</totfact>
</mgrwt>
</event>
<event>
 4    1  0.2799069E-007  0.7917541E+03  0.7818608E-02  0.9728917E-01
         -2   -1    0    0    0  501 -0.00000000000E+00  0.00000000000E+00  0.92343847949E+03  0.92343847949E+03  0.25500000000E-02 0.  1.
          2   -1    0    0  501    0  0.00000000000E+00 -0.00000000000E+00 -0.60056465577E+03  0.60056465578E+03  0.25500000000E-02 0. -1.
    8880023    1    1    2    0    0  0.83779700365E+02 -0.43132968493E+03  0.59010374680E+03  0.98746998615E+03  0.65864270000E+03 0.  1.
    8880022    1    1    2    0    0 -0.83779700365E+02  0.43132968493E+03 -0.26722992309E+03  0.53653314911E+03  0.15294330000E+03 0.  0.
<mgrwt>
<rscale>  0 0.69320859E+03</rscale>
<asrwt>0</asrwt>
<pdfrwt beam="1">  1        2 0.92394563E-01 0.79175409E+03</pdfrwt>
<pdfrwt beam="2">  1       -2 0.14206746E+00 0.79175409E+03</pdfrwt>
<totfact> 0.17298141E+01</totfact>
</mgrwt>
</event>
<event>
 4    1  0.2799069E-007  0.8622485E+03  0.7818608E-02  0.9589576E-01
         -2   -1    0    0    0  501 -0.00000000000E+00  0.00000000000E+00  0.63823216198E+03  0.63823216198E+03  0.25500000000E-02 0.  1.
          2   -1    0    0  501    0  0.00000000000E+00 -0.00000000000E+00 -0.33801915186E+04  0.33801915186E+04  0.25500000000E-02 0. -1.
    8880023    1    1    2    0    0 -0.55613853261E+03 -0.19294179190E+02  0.30704249478E+03  0.91528554707E+03  0.65864270000E+03 0.  1.
    8880022    1    1    2    0    0  0.55613853261E+03  0.19294179190E+02 -0.30490018514E+04  0.31031381335E+04  0.15294330000E+03 0.  0.
<mgrwt>
<rscale>  0 0.77989957E+03</rscale>
<asrwt>0</asrwt>
<pdfrwt beam="1">  1        2 0.52002945E+00 0.86224854E+03</pdfrwt>
<pdfrwt beam="2">  1       -2 0.98189565E-01 0.86224854E+03</pdfrwt>
<totfact> 0.89653718E-01</totfact>
</mgrwt>
</event>
<event>
 4    1  0.2799069E-007  0.8708008E+03  0.7818608E-02  0.9574632E-01
          2   -1    0    0  501    0  0.00000000000E+00  0.00000000000E+00  0.85215816194E+03  0.85215816194E+03  0.25500000000E-02 0. -1.
         -2   -1    0    0    0  501 -0.00000000000E+00 -0.00000000000E+00 -0.14752122500E+04  0.14752122500E+04  0.25500000000E-02 0.  1.
    8880023    1    1    2    0    0  0.53680002304E+02  0.56709985295E+03 -0.12129681673E+04  0.14931797504E+04  0.65864270000E+03 0.  0.
    8880022    1    1    2    0    0 -0.53680002304E+02 -0.56709985295E+03  0.58991407925E+03  0.83419066153E+03  0.15294330000E+03 0.  0.
<mgrwt>
<rscale>  0 0.78998178E+03</rscale>
<asrwt>0</asrwt>
<pdfrwt beam="1">  1        2 0.13110126E+00 0.87080078E+03</pdfrwt>
<pdfrwt beam="2">  1       -2 0.22695573E+00 0.87080078E+03</pdfrwt>
<totfact> 0.28544319E+00</totfact>
</mgrwt>
</event>
<event>
 4    1  0.9409324E-007  0.1165836E+04  0.7818608E-02  0.9191069E-01
         -2   -1    0    0    0  501 -0.00000000000E+00  0.00000000000E+00  0.23382232769E+04  0.23382232769E+04  0.25500000000E-02 0.  1.
          2   -1    0    0  501    0  0.00000000000E+00 -0.00000000000E+00 -0.20667646673E+04  0.20667646673E+04  0.25500000000E-02 0. -1.
    8880023    1    1    2    0    0  0.88003411825E+03  0.38846301272E+03  0.20607981180E+04  0.23677125355E+04  0.65864270000E+03 0.  0.
    8880022    1    1    2    0    0 -0.88003411825E+03 -0.38846301272E+03 -0.17893395084E+04  0.20372754087E+04  0.15294330000E+03 0.  0.
<mgrwt>
<rscale>  0 0.11146086E+04</rscale>
<asrwt>0</asrwt>
<pdfrwt beam="1">  1        2 0.31796380E+00 0.11658361E+04</pdfrwt>
<pdfrwt beam="2">  1       -2 0.35972666E+00 0.11658361E+04</pdfrwt>
<totfact> 0.81852323E-02</totfact>
</mgrwt>
</event>
<event>
 4    1  0.2799069E-007  0.1074362E+04  0.7818608E-02  0.9290152E-01
          2   -1    0    0  501    0  0.00000000000E+00  0.00000000000E+00  0.15230468398E+04  0.15230468399E+04  0.25500000000E-02 0. -1.
         -2   -1    0    0    0  501 -0.00000000000E+00 -0.00000000000E+00 -0.84513722553E+03  0.84513722554E+03  0.25500000000E-02 0.  1.
    8880023    1    1    2    0    0 -0.22271908563E+03  0.81904862914E+03 -0.24821544080E+03  0.11026629400E+04  0.65864270000E+03 0.  1.
    8880022    1    1    2    0    0  0.22271908563E+03 -0.81904862914E+03  0.92612505512E+03  0.12655211254E+04  0.15294330000E+03 0.  0.
<mgrwt>
<rscale>  0 0.10169457E+04</rscale>
<asrwt>0</asrwt>
<pdfrwt beam="1">  1        2 0.23431489E+00 0.10743624E+04</pdfrwt>
<pdfrwt beam="2">  1       -2 0.13002111E+00 0.10743624E+04</pdfrwt>
<totfact> 0.52718831E+00</totfact>
</mgrwt>
</event>
<event>
 4    1  0.2799069E-007  0.1060067E+04  0.7818608E-02  0.9306876E-01
         -2   -1    0    0    0  501 -0.00000000000E+00  0.00000000000E+00  0.45238050689E+03  0.45238050689E+03  0.25500000000E-02 0.  1.
          2   -1    0    0  501    0  0.00000000000E+00 -0.00000000000E+00 -0.30725081441E+04  0.30725081441E+04  0.25500000000E-02 0. -1.
    8880023    1    1    2    0    0 -0.11344770744E+03  0.82283732692E+03 -0.37215954598E+03  0.11234965878E+04  0.65864270000E+03 0.  0.
    8880022    1    1    2    0    0  0.11344770744E+03 -0.82283732692E+03 -0.22479680912E+04  0.24013920631E+04  0.15294330000E+03 0.  0.
<mgrwt>
<rscale>  0 0.10015226E+04</rscale>
<asrwt>0</asrwt>
<pdfrwt beam="1">  1        2 0.47269355E+00 0.10600669E+04</pdfrwt>
<pdfrwt beam="2">  1       -2 0.69597003E-01 0.10600669E+04</pdfrwt>
<totfact> 0.29936825E+00</totfact>
</mgrwt>
</event>
<event>
 4    1  0.2799069E-007  0.1477435E+04  0.7818608E-02  0.8925736E-01
         -2   -1    0    0    0  501 -0.00000000000E+00  0.00000000000E+00  0.13618088196E+04  0.13618088196E+04  0.25500000000E-02 0.  1.
          2   -1    0    0  501    0  0.00000000000E+00 -0.00000000000E+00 -0.29758404406E+04  0.29758404406E+04  0.25500000000E-02 0. -1.
    8880023    1    1    2    0    0  0.11392788682E+04  0.67160139202E+03  0.72541742118E+03  0.16459178019E+04  0.65864270000E+03 0.  0.
    8880022    1    1    2    0    0 -0.11392788682E+04 -0.67160139202E+03 -0.23394490422E+04  0.26917314583E+04  0.15294330000E+03 0.  0.
<mgrwt>
<rscale>  0 0.14394661E+04</rscale>
<asrwt>0</asrwt>
<pdfrwt beam="1">  1        2 0.45782161E+00 0.14774353E+04</pdfrwt>
<pdfrwt beam="2">  1       -2 0.20950905E+00 0.14774353E+04</pdfrwt>
<totfact> 0.19640625E-01</totfact>
</mgrwt>
</event>
<event>
 4    1  0.2799069E-007  0.8090946E+03  0.7818608E-02  0.9691466E-01
          2   -1    0    0  501    0  0.00000000000E+00  0.00000000000E+00  0.11619128137E+04  0.11619128137E+04  0.25500000000E-02 0. -1.
         -2   -1    0    0    0  501 -0.00000000000E+00 -0.00000000000E+00 -0.18786085265E+04  0.18786085265E+04  0.25500000000E-02 0.  1.
    8880023    1    1    2    0    0  0.24670663011E+03 -0.39994960785E+03 -0.17318187722E+04  0.19114994941E+04  0.65864270000E+03 0.  0.
    8880022    1    1    2    0    0 -0.24670663011E+03  0.39994960785E+03  0.10151230593E+04  0.11290218460E+04  0.15294330000E+03 0.  0.
<mgrwt>
<rscale>  0 0.71527184E+03</rscale>
<asrwt>0</asrwt>
<pdfrwt beam="1">  1        2 0.17875582E+00 0.80909459E+03</pdfrwt>
<pdfrwt beam="2">  1       -2 0.28901670E+00 0.80909459E+03</pdfrwt>
<totfact> 0.76609216E-01</totfact>
</mgrwt>
</event>
<event>
 4    1  0.2799069E-007  0.7457889E+03  0.7818608E-02  0.9843394E-01
         -2   -1    0    0    0  501 -0.00000000000E+00  0.00000000000E+00  0.71057943393E+03  0.71057943393E+03  0.25500000000E-02 0.  1.
          2   -1    0    0  501    0  0.00000000000E+00 -0.00000000000E+00 -0.28791363880E+04  0.28791363880E+04  0.25500000000E-02 0. -1.
    8880023    1    1    2    0    0 -0.19352767584E+02 -0.34930831455E+03  0.49747406822E+03  0.89648284035E+03  0.65864270000E+03 0.  1.
    8880022    1    1    2    0    0  0.19352767584E+02  0.34930831455E+03 -0.26660310223E+04  0.26932329816E+04  0.15294330000E+03 0.  0.
<mgrwt>
<rscale>  0 0.63084852E+03</rscale>
<asrwt>0</asrwt>
<pdfrwt beam="1">  1        2 0.44294405E+00 0.74578887E+03</pdfrwt>
<pdfrwt beam="2">  1       -2 0.10931991E+00 0.74578887E+03</pdfrwt>
<totfact> 0.14691259E+00</totfact>
</mgrwt>
</event>
<event>
 4    1  0.2799069E-007  0.1656824E+04  0.7818608E-02  0.8806166E-01
          2   -1    0    0  501    0  0.00000000000E+00  0.00000000000E+00  0.33175160187E+04  0.33175160187E+04  0.25500000000E-02 0. -1.
         -2   -1    0    0    0  501 -0.00000000000E+00 -0.00000000000E+00 -0.11676519637E+04  0.11676519637E+04  0.25500000000E-02 0.  1.
    8880023    1    1    2    0    0 -0.29192590359E+03  0.14919897711E+04 -0.21388397356E+03  0.16705719890E+04  0.65864270000E+03 0.  0.
    8880022    1    1    2    0    0  0.29192590359E+03 -0.14919897711E+04  0.23637480286E+04  0.28145959934E+04  0.15294330000E+03 0.  0.
<mgrwt>
<rscale>  0 0.16236216E+04</rscale>
<asrwt>0</asrwt>
<pdfrwt beam="1">  1        2 0.51038707E+00 0.16568236E+04</pdfrwt>
<pdfrwt beam="2">  1       -2 0.17963877E+00 0.16568236E+04</pdfrwt>
<totfact> 0.18380360E-01</totfact>
</mgrwt>
</event>
<event>
 4    1  0.2799069E-007  0.6862815E+03  0.7818608E-02  0.1005972E+00
         -2   -1    0    0    0  501 -0.00000000000E+00  0.00000000000E+00  0.10017934665E+03  0.10017934668E+03  0.25500000000E-02 0.  1.
          2   -1    0    0  501    0  0.00000000000E+00 -0.00000000000E+00 -0.22456343151E+04  0.22456343151E+04  0.25500000000E-02 0. -1.
    8880023    1    1    2    0    0 -0.19271921424E+03  0.56061460277E+01 -0.13705974595E+04  0.15328143158E+04  0.65864270000E+03 0.  1.
    8880022    1    1    2    0    0  0.19271921424E+03 -0.56061460277E+01 -0.77485750900E+03  0.81299934605E+03  0.15294330000E+03 0.  0.
<mgrwt>
<rscale>  0 0.53107193E+03</rscale>
<asrwt>0</asrwt>
<pdfrwt beam="1">  1        2 0.34548216E+00 0.68628152E+03</pdfrwt>
<pdfrwt beam="2">  1       -2 0.15412209E-01 0.68628152E+03</pdfrwt>
<totfact> 0.16890339E+02</totfact>
</mgrwt>
</event>
<event>
 4    1  0.2799069E-007  0.9735829E+03  0.7818608E-02  0.9416966E-01
          2   -1    0    0  501    0  0.00000000000E+00  0.00000000000E+00  0.27001392879E+04  0.27001392879E+04  0.25500000000E-02 0. -1.
         -2   -1    0    0    0  501 -0.00000000000E+00 -0.00000000000E+00 -0.29912412802E+03  0.29912412803E+03  0.25500000000E-02 0.  1.
    8880023    1    1    2    0    0 -0.22982563684E+03 -0.67914176619E+03  0.88681650178E+03  0.13169309306E+04  0.65864270000E+03 0.  0.
    8880022    1    1    2    0    0  0.22982563684E+03  0.67914176619E+03  0.15141986581E+04  0.16823324854E+04  0.15294330000E+03 0.  0.
<mgrwt>
<rscale>  0 0.90692514E+03</rscale>
<asrwt>0</asrwt>
<pdfrwt beam="1">  1        2 0.41540604E+00 0.97358285E+03</pdfrwt>
<pdfrwt beam="2">  1       -2 0.46019097E-01 0.97358285E+03</pdfrwt>
<totfact> 0.12120840E+01</totfact>
</mgrwt>
</event>
<event>
 4    1  0.2799069E-007  0.6960851E+03  0.7818608E-02  0.1001385E+00
          2   -1    0    0  501    0  0.00000000000E+00  0.00000000000E+00  0.24556274445E+04  0.24556274445E+04  0.25500000000E-02 0. -1.
         -2   -1    0    0    0  501 -0.00000000000E+00 -0.00000000000E+00 -0.21486158501E+03  0.21486158502E+03  0.25500000000E-02 0.  1.
    8880023    1    1    2    0    0 -0.19850738478E+03  0.10639102054E+03  0.38619126179E+03  0.79603902417E+03  0.65864270000E+03 0.  0.
    8880022    1    1    2    0    0  0.19850738478E+03 -0.10639102054E+03  0.18545745977E+04  0.18744500053E+04  0.15294330000E+03 0.  0.
<mgrwt>
<rscale>  0 0.55047253E+03</rscale>
<asrwt>0</asrwt>
<pdfrwt beam="1">  1        2 0.37778883E+00 0.69608508E+03</pdfrwt>
<pdfrwt beam="2">  1       -2 0.33055629E-01 0.69608508E+03</pdfrwt>
<totfact> 0.33128108E+01</totfact>
</mgrwt>
</event>
<event>
 4    1  0.2799069E-007  0.7537073E+03  0.7818608E-02  0.9821680E-01
         -2   -1    0    0    0  501 -0.00000000000E+00  0.00000000000E+00  0.48810660340E+03  0.48810660340E+03  0.25500000000E-02 0.  1.
          2   -1    0    0  501    0  0.00000000000E+00 -0.00000000000E+00 -0.34303499448E+04  0.34303499448E+04  0.25500000000E-02 0. -1.
    8880023    1    1    2    0    0  0.28776821728E+03  0.22683471060E+03  0.17686196688E+03  0.77418014338E+03  0.65864270000E+03 0.  0.
    8880022    1    1    2    0    0 -0.28776821728E+03 -0.22683471060E+03 -0.31191053083E+04  0.31442764049E+04  0.15294330000E+03 0.  0.
<mgrwt>
<rscale>  0 0.64211961E+03</rscale>
<asrwt>0</asrwt>
<pdfrwt beam="1">  1        2 0.52774613E+00 0.75370733E+03</pdfrwt>
<pdfrwt beam="2">  1       -2 0.75093326E-01 0.75370733E+03</pdfrwt>
<totfact> 0.15686761E+00</totfact>
</mgrwt>
</event>
<event>
 4    1  0.2799069E-007  0.1192408E+04  0.7818608E-02  0.9164538E-01
          2   -1    0    0  501    0  0.00000000000E+00  0.00000000000E+00  0.21478120301E+04  0.21478120301E+04  0.25500000000E-02 0. -1.
         -2   -1    0    0    0  501 -0.00000000000E+00 -0.00000000000E+00 -0.75474372203E+03  0.75474372203E+03  0.25500000000E-02 0.  1.
    8880023    1    1    2    0    0 -0.92449927050E+03  0.36514093459E+03  0.99396287913E+01  0.11924494982E+04  0.65864270000E+03 0.  0.
    8880022    1    1    2    0    0  0.92449927050E+03 -0.36514093459E+03  0.13831286792E+04  0.17101062539E+04  0.15294330000E+03 0.  0.
<mgrwt>
<rscale>  0 0.11427074E+04</rscale>
<asrwt>0</asrwt>
<pdfrwt beam="1">  1        2 0.33043261E+00 0.11924081E+04</pdfrwt>
<pdfrwt beam="2">  1       -2 0.11611442E+00 0.11924081E+04</pdfrwt>
<totfact> 0.31135328E+00</totfact>
</mgrwt>
</event>
<event>
 4    1  0.2799069E-007  0.7797399E+03  0.7818608E-02  0.9756448E-01
         -2   -1    0    0    0  501 -0.00000000000E+00  0.00000000000E+00  0.85656491992E+03  0.85656491992E+03  0.25500000000E-02 0.  1.
          2   -1    0    0  501    0  0.00000000000E+00 -0.00000000000E+00 -0.20069582371E+04  0.20069582371E+04  0.25500000000E-02 0. -1.
    8880023    1    1    2    0    0  0.28349171725E+03 -0.30629482542E+03  0.64623517996E+03  0.10127261169E+04  0.65864270000E+03 0.  1.
    8880022    1    1    2    0    0 -0.28349171725E+03  0.30629482542E+03 -0.17966284972E+04  0.18507970401E+04  0.15294330000E+03 0.  0.
<mgrwt>
<rscale>  0 0.67753075E+03</rscale>
<asrwt>0</asrwt>
<pdfrwt beam="1">  1        2 0.30876280E+00 0.77973988E+03</pdfrwt>
<pdfrwt beam="2">  1       -2 0.13177922E+00 0.77973988E+03</pdfrwt>
<totfact> 0.28666092E+00</totfact>
</mgrwt>
</event>
<event>
 4    1  0.2799069E-007  0.1353313E+04  0.7818608E-02  0.9020836E-01
          2   -1    0    0  501    0  0.00000000000E+00  0.00000000000E+00  0.11860713124E+04  0.11860713124E+04  0.25500000000E-02 0. -1.
         -2   -1    0    0    0  501 -0.00000000000E+00 -0.00000000000E+00 -0.17686510686E+04  0.17686510686E+04  0.25500000000E-02 0.  1.
    8880023    1    1    2    0    0  0.11365578386E+04 -0.32539671417E+03 -0.10096619706E+04  0.16884532102E+04  0.65864270000E+03 0.  0.
    8880022    1    1    2    0    0 -0.11365578386E+04  0.32539671417E+03  0.42708221440E+03  0.12662691708E+04  0.15294330000E+03 0.  0.
<mgrwt>
<rscale>  0 0.13110658E+04</rscale>
<asrwt>0</asrwt>
<pdfrwt beam="1">  1        2 0.18247251E+00 0.13533133E+04</pdfrwt>
<pdfrwt beam="2">  1       -2 0.27210017E+00 0.13533133E+04</pdfrwt>
<totfact> 0.87044646E-01</totfact>
</mgrwt>
</event>
<event>
 4    1  0.2799069E-007  0.1341152E+04  0.7818608E-02  0.9030813E-01
          2   -1    0    0  501    0  0.00000000000E+00  0.00000000000E+00  0.20758037431E+04  0.20758037431E+04  0.25500000000E-02 0. -1.
         -2   -1    0    0    0  501 -0.00000000000E+00 -0.00000000000E+00 -0.98915712785E+03  0.98915712785E+03  0.25500000000E-02 0.  1.
    8880023    1    1    2    0    0  0.10531925720E+04  0.50563154817E+03 -0.15876515378E+03  0.13505163593E+04  0.65864270000E+03 0.  0.
    8880022    1    1    2    0    0 -0.10531925720E+04 -0.50563154817E+03  0.12454117690E+04  0.17144445117E+04  0.15294330000E+03 0.  0.
<mgrwt>
<rscale>  0 0.12984274E+04</rscale>
<asrwt>0</asrwt>
<pdfrwt beam="1">  1        2 0.31935442E+00 0.13411518E+04</pdfrwt>
<pdfrwt beam="2">  1       -2 0.15217802E+00 0.13411518E+04</pdfrwt>
<totfact> 0.16758856E+00</totfact>
</mgrwt>
</event>
<event>
 4    1  0.2799069E-007  0.1444243E+04  0.7818608E-02  0.8950046E-01
          2   -1    0    0  501    0  0.00000000000E+00  0.00000000000E+00  0.17219253479E+04  0.17219253479E+04  0.25500000000E-02 0. -1.
         -2   -1    0    0    0  501 -0.00000000000E+00 -0.00000000000E+00 -0.13258711394E+04  0.13258711394E+04  0.25500000000E-02 0.  1.
    8880023    1    1    2    0    0 -0.11415272459E+04 -0.59071432508E+03 -0.43652090296E+03  0.15087705498E+04  0.65864270000E+03 0.  0.
    8880022    1    1    2    0    0  0.11415272459E+04  0.59071432508E+03  0.83257511150E+03  0.15390259375E+04  0.15294330000E+03 0.  0.
<mgrwt>
<rscale>  0 0.14052244E+04</rscale>
<asrwt>0</asrwt>
<pdfrwt beam="1">  1        2 0.26491159E+00 0.14442431E+04</pdfrwt>
<pdfrwt beam="2">  1       -2 0.20398018E+00 0.14442431E+04</pdfrwt>
<totfact> 0.11290923E+00</totfact>
</mgrwt>
</event>
<event>
 4    1  0.2799069E-007  0.1318554E+04  0.7818608E-02  0.9049701E-01
         -2   -1    0    0    0  501 -0.00000000000E+00  0.00000000000E+00  0.11626598809E+04  0.11626598809E+04  0.25500000000E-02 0.  1.
          2   -1    0    0  501    0  0.00000000000E+00 -0.00000000000E+00 -0.20616303130E+04  0.20616303130E+04  0.25500000000E-02 0. -1.
    8880023    1    1    2    0    0 -0.81581437720E+03 -0.79951252876E+03  0.50140522138E+03  0.14106703314E+04  0.65864270000E+03 0.  0.
    8880022    1    1    2    0    0  0.81581437720E+03  0.79951252876E+03 -0.14003756535E+04  0.18136198625E+04  0.15294330000E+03 0.  0.
<mgrwt>
<rscale>  0 0.12749109E+04</rscale>
<asrwt>0</asrwt>
<pdfrwt beam="1">  1        2 0.31717389E+00 0.13185536E+04</pdfrwt>
<pdfrwt beam="2">  1       -2 0.17887075E+00 0.13185536E+04</pdfrwt>
<totfact> 0.10927933E+00</totfact>
</mgrwt>
</event>
<event>
 4    1  0.2799069E-007  0.1235234E+04  0.7818608E-02  0.9123611E-01
          2   -1    0    0  501    0  0.00000000000E+00  0.00000000000E+00  0.11606000458E+04  0.11606000458E+04  0.25500000000E-02 0. -1.
         -2   -1    0    0    0  501 -0.00000000000E+00 -0.00000000000E+00 -0.11877584166E+04  0.11877584166E+04  0.25500000000E-02 0.  1.
    8880023    1    1    2    0    0 -0.50200918777E+03 -0.91650413337E+03  0.24146530466E+03  0.12586138211E+04  0.65864270000E+03 0. -1.
    8880022    1    1    2    0    0  0.50200918777E+03  0.91650413337E+03 -0.26862367541E+03  0.10897446412E+04  0.15294330000E+03 0.  0.
<mgrwt>
<rscale>  0 0.11877910E+04</rscale>
<asrwt>0</asrwt>
<pdfrwt beam="1">  1        2 0.17855385E+00 0.12352341E+04</pdfrwt>
<pdfrwt beam="2">  1       -2 0.18273207E+00 0.12352341E+04</pdfrwt>
<totfact> 0.33639124E+00</totfact>
</mgrwt>
</event>
<event>
 4    1  0.2799069E-007  0.1037316E+04  0.7818608E-02  0.9334286E-01
         -2   -1    0    0    0  501 -0.00000000000E+00  0.00000000000E+00  0.61936171714E+03  0.61936171715E+03  0.25500000000E-02 0.  1.
          2   -1    0    0  501    0  0.00000000000E+00 -0.00000000000E+00 -0.32404802184E+04  0.32404802184E+04  0.25500000000E-02 0. -1.
    8880023    1    1    2    0    0 -0.28282249244E+03  0.74981773503E+03 -0.28329933034E+04  0.30169316302E+04  0.65864270000E+03 0. -1.
    8880022    1    1    2    0    0  0.28282249244E+03 -0.74981773503E+03  0.21187480216E+03  0.84291030532E+03  0.15294330000E+03 0.  0.
<mgrwt>
<rscale>  0 0.97686752E+03</rscale>
<asrwt>0</asrwt>
<pdfrwt beam="1">  1        2 0.49853541E+00 0.10373164E+04</pdfrwt>
<pdfrwt beam="2">  1       -2 0.95286420E-01 0.10373164E+04</pdfrwt>
<totfact> 0.11514191E+00</totfact>
</mgrwt>
</event>
<event>
 4    1  0.2799069E-007  0.1000232E+04  0.7818608E-02  0.9381254E-01
          2   -1    0    0  501    0  0.00000000000E+00  0.00000000000E+00  0.21483361277E+04  0.21483361277E+04  0.25500000000E-02 0. -1.
         -2   -1    0    0    0  501 -0.00000000000E+00 -0.00000000000E+00 -0.43493934701E+03  0.43493934702E+03  0.25500000000E-02 0.  1.
    8880023    1    1    2    0    0  0.71452289713E+03  0.23687813976E+03  0.43255593357E+03  0.10897564249E+04  0.65864270000E+03 0.  0.
    8880022    1    1    2    0    0 -0.71452289713E+03 -0.23687813976E+03  0.12808408472E+04  0.14935190499E+04  0.15294330000E+03 0.  0.
<mgrwt>
<rscale>  0 0.93634596E+03</rscale>
<asrwt>0</asrwt>
<pdfrwt beam="1">  1        2 0.33051324E+00 0.10002322E+04</pdfrwt>
<pdfrwt beam="2">  1       -2 0.66913747E-01 0.10002322E+04</pdfrwt>
<totfact> 0.11380340E+01</totfact>
</mgrwt>
</event>
<event>
 4    1  0.2799069E-007  0.6819974E+03  0.7818608E-02  0.1008216E+00
          2   -1    0    0  501    0  0.00000000000E+00  0.00000000000E+00  0.19700466328E+04  0.19700466328E+04  0.25500000000E-02 0. -1.
         -2   -1    0    0    0  501 -0.00000000000E+00 -0.00000000000E+00 -0.45245371679E+03  0.45245371680E+03  0.25500000000E-02 0.  1.
    8880023    1    1    2    0    0 -0.15503932398E+03  0.85282047775E+02 -0.18282138867E+03  0.70607654406E+03  0.65864270000E+03 0.  1.
    8880022    1    1    2    0    0  0.15503932398E+03 -0.85282047775E+02  0.17004143047E+04  0.17164238055E+04  0.15294330000E+03 0.  0.
<mgrwt>
<rscale>  0 0.52190001E+03</rscale>
<asrwt>0</asrwt>
<pdfrwt beam="1">  1        2 0.30308410E+00 0.68199738E+03</pdfrwt>
<pdfrwt beam="2">  1       -2 0.69608264E-01 0.68199738E+03</pdfrwt>
<totfact> 0.13653201E+01</totfact>
</mgrwt>
</event>
<event>
 4    1  0.2799069E-007  0.8885460E+03  0.7818608E-02  0.9544675E-01
         -2   -1    0    0    0  501 -0.00000000000E+00  0.00000000000E+00  0.58694599439E+03  0.58694599439E+03  0.25500000000E-02 0.  1.
          2   -1    0    0  501    0  0.00000000000E+00 -0.00000000000E+00 -0.24791518812E+04  0.24791518812E+04  0.25500000000E-02 0. -1.
    8880023    1    1    2    0    0  0.55310604441E+03 -0.22310871286E+03  0.17806253994E+03  0.90621204390E+03  0.65864270000E+03 0.  0.
    8880022    1    1    2    0    0 -0.55310604441E+03  0.22310871286E+03 -0.20702684268E+04  0.21598858317E+04  0.15294330000E+03 0.  0.
<mgrwt>
<rscale>  0 0.81068756E+03</rscale>
<asrwt>0</asrwt>
<pdfrwt beam="1">  1        2 0.38140798E+00 0.88854600E+03</pdfrwt>
<pdfrwt beam="2">  1       -2 0.90299385E-01 0.88854600E+03</pdfrwt>
<totfact> 0.38487923E+00</totfact>
</mgrwt>
</event>
<event>
 4    1  0.2799069E-007  0.7615673E+03  0.7818608E-02  0.9801067E-01
         -2   -1    0    0    0  501 -0.00000000000E+00  0.00000000000E+00  0.71664821377E+03  0.71664821377E+03  0.25500000000E-02 0.  1.
          2   -1    0    0  501    0  0.00000000000E+00 -0.00000000000E+00 -0.84928197632E+03  0.84928197632E+03  0.25500000000E-02 0. -1.
    8880023    1    1    2    0    0 -0.42977970940E+02 -0.37990452599E+03  0.42546752821E+03  0.87235736867E+03  0.65864270000E+03 0.  1.
    8880022    1    1    2    0    0  0.42977970940E+02  0.37990452599E+03 -0.55810129076E+03  0.69357282142E+03  0.15294330000E+03 0.  0.
<mgrwt>
<rscale>  0 0.65305331E+03</rscale>
<asrwt>0</asrwt>
<pdfrwt beam="1">  1        2 0.13065877E+00 0.76156731E+03</pdfrwt>
<pdfrwt beam="2">  1       -2 0.11025357E+00 0.76156731E+03</pdfrwt>
<totfact> 0.21047546E+01</totfact>
</mgrwt>
</event>
<event>
 4    1  0.2799069E-007  0.1630240E+04  0.7818608E-02  0.8822754E-01
          2   -1    0    0  501    0  0.00000000000E+00  0.00000000000E+00  0.14762769961E+04  0.14762769961E+04  0.25500000000E-02 0. -1.
         -2   -1    0    0    0  501 -0.00000000000E+00 -0.00000000000E+00 -0.25524222479E+04  0.25524222479E+04  0.25500000000E-02 0.  1.
    8880023    1    1    2    0    0 -0.12716686566E+04 -0.77892889895E+03 -0.17442376059E+04  0.23874770018E+04  0.65864270000E+03 0.  0.
    8880022    1    1    2    0    0  0.12716686566E+04  0.77892889895E+03  0.66809235411E+03  0.16412222423E+04  0.15294330000E+03 0.  0.
<mgrwt>
<rscale>  0 0.15964133E+04</rscale>
<asrwt>0</asrwt>
<pdfrwt beam="1">  1        2 0.22711954E+00 0.16302397E+04</pdfrwt>
<pdfrwt beam="2">  1       -2 0.39268035E+00 0.16302397E+04</pdfrwt>
<totfact> 0.10074512E-01</totfact>
</mgrwt>
</event>
<event>
 4    1  0.2799069E-007  0.1183670E+04  0.7818608E-02  0.9173162E-01
          2   -1    0    0  501    0  0.00000000000E+00  0.00000000000E+00  0.93161638546E+03  0.93161638546E+03  0.25500000000E-02 0. -1.
         -2   -1    0    0    0  501 -0.00000000000E+00 -0.00000000000E+00 -0.14072440819E+04  0.14072440819E+04  0.25500000000E-02 0.  1.
    8880023    1    1    2    0    0 -0.77674742146E+03 -0.60326499159E+03  0.10202810708E+03  0.11880594041E+04  0.65864270000E+03 0.  0.
    8880022    1    1    2    0    0  0.77674742146E+03  0.60326499159E+03 -0.57765580353E+03  0.11508010633E+04  0.15294330000E+03 0.  0.
<mgrwt>
<rscale>  0 0.11334790E+04</rscale>
<asrwt>0</asrwt>
<pdfrwt beam="1">  1        2 0.14332560E+00 0.11836703E+04</pdfrwt>
<pdfrwt beam="2">  1       -2 0.21649909E+00 0.11836703E+04</pdfrwt>
<totfact> 0.28322335E+00</totfact>
</mgrwt>
</event>
<event>
 4    1  0.2799069E-007  0.7126399E+03  0.7818608E-02  0.9948326E-01
         -2   -1    0    0    0  501 -0.00000000000E+00  0.00000000000E+00  0.32159599921E+03  0.32159599922E+03  0.25500000000E-02 0.  1.
          2   -1    0    0  501    0  0.00000000000E+00 -0.00000000000E+00 -0.86497417227E+03  0.86497417227E+03  0.25500000000E-02 0. -1.
    8880023    1    1    2    0    0  0.21788661451E+03  0.16300554806E+03 -0.24182443785E+03  0.75255209154E+03  0.65864270000E+03 0. -1.
    8880022    1    1    2    0    0 -0.21788661451E+03 -0.16300554806E+03 -0.30155373521E+03  0.43401807994E+03  0.15294330000E+03 0.  0.
<mgrwt>
<rscale>  0 0.57975313E+03</rscale>
<asrwt>0</asrwt>
<pdfrwt beam="1">  1        2 0.13307295E+00 0.71263988E+03</pdfrwt>
<pdfrwt beam="2">  1       -2 0.49476308E-01 0.71263988E+03</pdfrwt>
<totfact> 0.12154549E+02</totfact>
</mgrwt>
</event>
<event>
 4    1  0.2799069E-007  0.7435101E+03  0.7818608E-02  0.9849838E-01
         -2   -1    0    0    0  501 -0.00000000000E+00  0.00000000000E+00  0.19216706995E+03  0.19216706997E+03  0.25500000000E-02 0.  1.
          2   -1    0    0  501    0  0.00000000000E+00 -0.00000000000E+00 -0.41906198950E+04  0.41906198950E+04  0.25500000000E-02 0. -1.
    8880023    1    1    2    0    0 -0.37276924715E+02  0.34293953581E+03 -0.57843752000E+03  0.94201765649E+03  0.65864270000E+03 0.  1.
    8880022    1    1    2    0    0  0.37276924715E+02 -0.34293953581E+03 -0.34200153050E+04  0.34407693084E+04  0.15294330000E+03 0.  0.
<mgrwt>
<rscale>  0 0.62755186E+03</rscale>
<asrwt>0</asrwt>
<pdfrwt beam="1">  1        2 0.64471068E+00 0.74351012E+03</pdfrwt>
<pdfrwt beam="2">  1       -2 0.29564168E-01 0.74351012E+03</pdfrwt>
<totfact> 0.27911078E+00</totfact>
</mgrwt>
</event>
<event>
 4    1  0.3205691E-007  0.8449717E+03  0.7818608E-02  0.9620876E-01
          2   -1    0    0  501    0  0.00000000000E+00  0.00000000000E+00  0.32693479757E+04  0.32693479757E+04  0.25500000000E-02 0. -1.
         -2   -1    0    0    0  501 -0.00000000000E+00 -0.00000000000E+00 -0.11651329470E+04  0.11651329470E+04  0.25500000000E-02 0.  1.
    8880023    1    1    2    0    0  0.51517764015E+03  0.12148681141E+03 -0.98428316589E+03  0.12972241916E+04  0.65864270000E+03 0.  0.
    8880022    1    1    2    0    0 -0.51517764015E+03 -0.12148681141E+03  0.30884981946E+04  0.31372567312E+04  0.15294330000E+03 0.  0.
<mgrwt>
<rscale>  0 0.75929751E+03</rscale>
<asrwt>0</asrwt>
<pdfrwt beam="1">  1        2 0.50297661E+00 0.84497175E+03</pdfrwt>
<pdfrwt beam="2">  1       -2 0.17925122E+00 0.84497175E+03</pdfrwt>
<totfact> 0.22671715E-01</totfact>
</mgrwt>
</event>
<event>
 4    1  0.2799069E-007  0.9886014E+03  0.7818608E-02  0.9396625E-01
          2   -1    0    0  501    0  0.00000000000E+00  0.00000000000E+00  0.19111207756E+04  0.19111207756E+04  0.25500000000E-02 0. -1.
         -2   -1    0    0    0  501 -0.00000000000E+00 -0.00000000000E+00 -0.67069119015E+03  0.67069119015E+03  0.25500000000E-02 0.  1.
    8880023    1    1    2    0    0 -0.35842738642E+03 -0.64424562188E+03 -0.15067078807E+03  0.10000172525E+04  0.65864270000E+03 0.  0.
    8880022    1    1    2    0    0  0.35842738642E+03  0.64424562188E+03  0.13911003735E+04  0.15817947133E+04  0.15294330000E+03 0.  0.
<mgrwt>
<rscale>  0 0.92353977E+03</rscale>
<asrwt>0</asrwt>
<pdfrwt beam="1">  1        2 0.29401858E+00 0.98860145E+03</pdfrwt>
<pdfrwt beam="2">  1       -2 0.10318326E+00 0.98860145E+03</pdfrwt>
<totfact> 0.57410945E+00</totfact>
</mgrwt>
</event>
<event>
 4    1  0.2799069E-007  0.7051824E+03  0.7818608E-02  0.9976346E-01
         -2   -1    0    0    0  501 -0.00000000000E+00  0.00000000000E+00  0.48216981979E+03  0.48216981979E+03  0.25500000000E-02 0.  1.
          2   -1    0    0  501    0  0.00000000000E+00 -0.00000000000E+00 -0.15636810114E+04  0.15636810114E+04  0.25500000000E-02 0. -1.
    8880023    1    1    2    0    0 -0.20933589025E+03  0.14018027337E+03  0.19830685570E+03  0.73253521367E+03  0.65864270000E+03 0.  1.
    8880022    1    1    2    0    0  0.20933589025E+03 -0.14018027337E+03 -0.12798180473E+04  0.13133156175E+04  0.15294330000E+03 0.  0.
<mgrwt>
<rscale>  0 0.56699715E+03</rscale>
<asrwt>0</asrwt>
<pdfrwt beam="1">  1        2 0.24056631E+00 0.70518241E+03</pdfrwt>
<pdfrwt beam="2">  1       -2 0.74179973E-01 0.70518241E+03</pdfrwt>
<totfact> 0.19717303E+01</totfact>
</mgrwt>
</event>
<event>
 4    1  0.2799069E-007  0.7950785E+03  0.7818608E-02  0.9721540E-01
         -2   -1    0    0    0  501 -0.00000000000E+00  0.00000000000E+00  0.29764130828E+03  0.29764130829E+03  0.25500000000E-02 0.  1.
          2   -1    0    0  501    0  0.00000000000E+00 -0.00000000000E+00 -0.23520874579E+04  0.23520874579E+04  0.25500000000E-02 0. -1.
    8880023    1    1    2    0    0  0.44428066030E+03 -0.30890970107E+02 -0.32775907108E+03  0.85998591389E+03  0.65864270000E+03 0.  1.
    8880022    1    1    2    0    0 -0.44428066030E+03  0.30890970107E+02 -0.17266870785E+04  0.17897428523E+04  0.15294330000E+03 0.  0.
<mgrwt>
<rscale>  0 0.69748656E+03</rscale>
<asrwt>0</asrwt>
<pdfrwt beam="1">  1        2 0.36185960E+00 0.79507846E+03</pdfrwt>
<pdfrwt beam="2">  1       -2 0.45790972E-01 0.79507846E+03</pdfrwt>
<totfact> 0.19827732E+01</totfact>
</mgrwt>
</event>
<event>
 4    1  0.2799069E-007  0.6947972E+03  0.7818608E-02  0.1001951E+00
          2   -1    0    0  501    0  0.00000000000E+00  0.00000000000E+00  0.12632422583E+04  0.12632422583E+04  0.25500000000E-02 0. -1.
         -2   -1    0    0    0  501 -0.00000000000E+00 -0.00000000000E+00 -0.10323390640E+04  0.10323390640E+04  0.25500000000E-02 0.  1.
    8880023    1    1    2    0    0 -0.10938693568E+03 -0.19226904598E+03 -0.89781907460E+03  0.11352630465E+04  0.65864270000E+03 0.  1.
    8880022    1    1    2    0    0  0.10938693568E+03  0.19226904598E+03  0.11287222689E+04  0.11603182758E+04  0.15294330000E+03 0.  0.
<mgrwt>
<rscale>  0 0.54802988E+03</rscale>
<asrwt>0</asrwt>
<pdfrwt beam="1">  1        2 0.19434496E+00 0.69479716E+03</pdfrwt>
<pdfrwt beam="2">  1       -2 0.15882140E+00 0.69479716E+03</pdfrwt>
<totfact> 0.46062893E+00</totfact>
</mgrwt>
</event>
<event>
 4    1  0.2799069E-007  0.9364954E+03  0.7818608E-02  0.9469816E-01
          2   -1    0    0  501    0  0.00000000000E+00  0.00000000000E+00  0.10952637003E+04  0.10952637003E+04  0.25500000000E-02 0. -1.
         -2   -1    0    0    0  501 -0.00000000000E+00 -0.00000000000E+00 -0.12393221849E+04  0.12393221849E+04  0.25500000000E-02 0.  1.
    8880023    1    1    2    0    0 -0.58806985166E+03 -0.31206942047E+03 -0.91172576057E+03  0.13070070935E+04  0.65864270000E+03 0.  0.
    8880022    1    1    2    0    0  0.58806985166E+03  0.31206942047E+03  0.76766727594E+03  0.10275787917E+04  0.15294330000E+03 0. -1.
<mgrwt>
<rscale>  0 0.86546186E+03</rscale>
<asrwt>0</asrwt>
<pdfrwt beam="1">  1        2 0.16850211E+00 0.93649542E+03</pdfrwt>
<pdfrwt beam="2">  1       -2 0.19066495E+00 0.93649542E+03</pdfrwt>
<totfact> 0.33614306E+00</totfact>
</mgrwt>
</event>
<event>
 4    1  0.2799069E-007  0.8631606E+03  0.7818608E-02  0.9587966E-01
         -2   -1    0    0    0  501 -0.00000000000E+00  0.00000000000E+00  0.13386148877E+04  0.13386148877E+04  0.25500000000E-02 0.  1.
          2   -1    0    0  501    0  0.00000000000E+00 -0.00000000000E+00 -0.77860524365E+03  0.77860524365E+03  0.25500000000E-02 0. -1.
    8880023    1    1    2    0    0 -0.42676619411E+03  0.35931418101E+03 -0.43477109603E+03  0.96647409553E+03  0.65864270000E+03 0. -1.
    8880022    1    1    2    0    0  0.42676619411E+03 -0.35931418101E+03  0.99478074006E+03  0.11507460358E+04  0.15294330000E+03 0.  0.
<mgrwt>
<rscale>  0 0.78097828E+03</rscale>
<asrwt>0</asrwt>
<pdfrwt beam="1">  1        2 0.11978542E+00 0.86316063E+03</pdfrwt>
<pdfrwt beam="2">  1       -2 0.20594075E+00 0.86316063E+03</pdfrwt>
<totfact> 0.43787839E+00</totfact>
</mgrwt>
</event>
<event>
 4    1  0.2799069E-007  0.8372016E+03  0.7818608E-02  0.9635480E-01
          2   -1    0    0  501    0  0.00000000000E+00  0.00000000000E+00  0.10826226645E+04  0.10826226645E+04  0.25500000000E-02 0. -1.
         -2   -1    0    0    0  501 -0.00000000000E+00 -0.00000000000E+00 -0.44183916991E+03  0.44183916992E+03  0.25500000000E-02 0.  1.
    8880023    1    1    2    0    0  0.51344800904E+03  0.58884842534E+02  0.31391070011E+03  0.89411767491E+03  0.65864270000E+03 0.  1.
    8880022    1    1    2    0    0 -0.51344800904E+03 -0.58884842534E+02  0.32687279452E+03  0.63034415955E+03  0.15294330000E+03 0. -1.
<mgrwt>
<rscale>  0 0.74991759E+03</rscale>
<asrwt>0</asrwt>
<pdfrwt beam="1">  1        2 0.16655733E+00 0.83720158E+03</pdfrwt>
<pdfrwt beam="2">  1       -2 0.67975258E-01 0.83720158E+03</pdfrwt>
<totfact> 0.44651523E+01</totfact>
</mgrwt>
</event>
<event>
 4    1  0.2799069E-007  0.1812442E+04  0.7818608E-02  0.8715685E-01
         -2   -1    0    0    0  501 -0.00000000000E+00  0.00000000000E+00  0.15534480209E+04  0.15534480209E+04  0.25500000000E-02 0.  1.
          2   -1    0    0  501    0  0.00000000000E+00 -0.00000000000E+00 -0.27015839753E+04  0.27015839753E+04  0.25500000000E-02 0. -1.
    8880023    1    1    2    0    0 -0.11410947514E+04 -0.12446043056E+04  0.51073878742E+03  0.18830298523E+04  0.65864270000E+03 0. -1.
    8880022    1    1    2    0    0  0.11410947514E+04  0.12446043056E+04 -0.16588747418E+04  0.23720021440E+04  0.15294330000E+03 0.  0.
<mgrwt>
<rscale>  0 0.17824567E+04</rscale>
<asrwt>0</asrwt>
<pdfrwt beam="1">  1        2 0.41562830E+00 0.18124424E+04</pdfrwt>
<pdfrwt beam="2">  1       -2 0.23899200E+00 0.18124424E+04</pdfrwt>
<totfact> 0.18047273E-01</totfact>
</mgrwt>
</event>
<event>
 4    1  0.2799069E-007  0.1814157E+04  0.7818608E-02  0.8714746E-01
          2   -1    0    0  501    0  0.00000000000E+00  0.00000000000E+00  0.20356671139E+04  0.20356671139E+04  0.25500000000E-02 0. -1.
         -2   -1    0    0    0  501 -0.00000000000E+00 -0.00000000000E+00 -0.20811931182E+04  0.20811931182E+04  0.25500000000E-02 0.  1.
    8880023    1    1    2    0    0  0.16676883947E+04 -0.27598890049E+03 -0.10972262831E+04  0.21201580549E+04  0.65864270000E+03 0.  0.
    8880022    1    1    2    0    0 -0.16676883947E+04  0.27598890049E+03  0.10517002788E+04  0.19967021772E+04  0.15294330000E+03 0.  0.
<mgrwt>
<rscale>  0 0.17842028E+04</rscale>
<asrwt>0</asrwt>
<pdfrwt beam="1">  1        2 0.31317956E+00 0.18141567E+04</pdfrwt>
<pdfrwt beam="2">  1       -2 0.32018356E+00 0.18141567E+04</pdfrwt>
<totfact> 0.13804778E-01</totfact>
</mgrwt>
</event>
<event>
 4    1  0.2799069E-007  0.7909634E+03  0.7818608E-02  0.9730687E-01
         -2   -1    0    0    0  501 -0.00000000000E+00  0.00000000000E+00  0.21713477038E+03  0.21713477040E+03  0.25500000000E-02 0.  1.
          2   -1    0    0  501    0  0.00000000000E+00 -0.00000000000E+00 -0.20662575383E+04  0.20662575383E+04  0.25500000000E-02 0. -1.
    8880023    1    1    2    0    0 -0.26447750946E+03  0.34909097483E+03 -0.74841401698E+03  0.10889199276E+04  0.65864270000E+03 0. -1.
    8880022    1    1    2    0    0  0.26447750946E+03 -0.34909097483E+03 -0.11007087509E+04  0.11944723810E+04  0.15294330000E+03 0.  0.
<mgrwt>
<rscale>  0 0.69218742E+03</rscale>
<asrwt>0</asrwt>
<pdfrwt beam="1">  1        2 0.31788576E+00 0.79096338E+03</pdfrwt>
<pdfrwt beam="2">  1       -2 0.33405351E-01 0.79096338E+03</pdfrwt>
<totfact> 0.52711898E+01</totfact>
</mgrwt>
</event>
<event>
 4    1  0.2799069E-007  0.7351555E+03  0.7818608E-02  0.9874290E-01
         -2   -1    0    0    0  501 -0.00000000000E+00  0.00000000000E+00  0.48031947426E+03  0.48031947427E+03  0.25500000000E-02 0.  1.
          2   -1    0    0  501    0  0.00000000000E+00 -0.00000000000E+00 -0.28048053952E+04  0.28048053952E+04  0.25500000000E-02 0. -1.
    8880023    1    1    2    0    0 -0.30604919236E+03  0.11391793371E+03  0.17832112371E+03  0.75647341869E+03  0.65864270000E+03 0.  1.
    8880022    1    1    2    0    0  0.30604919236E+03 -0.11391793371E+03 -0.25028070447E+04  0.25286514508E+04  0.15294330000E+03 0.  0.
<mgrwt>
<rscale>  0 0.61523632E+03</rscale>
<asrwt>0</asrwt>
<pdfrwt beam="1">  1        2 0.43150851E+00 0.73515550E+03</pdfrwt>
<pdfrwt beam="2">  1       -2 0.73895305E-01 0.73515550E+03</pdfrwt>
<totfact> 0.40287584E+00</totfact>
</mgrwt>
</event>
<event>
 4    1  0.2799069E-007  0.9436542E+03  0.7818608E-02  0.9459304E-01
          2   -1    0    0  501    0  0.00000000000E+00  0.00000000000E+00  0.18948329458E+04  0.18948329458E+04  0.25500000000E-02 0. -1.
         -2   -1    0    0    0  501 -0.00000000000E+00 -0.00000000000E+00 -0.13839663001E+04  0.13839663001E+04  0.25500000000E-02 0.  1.
    8880023    1    1    2    0    0 -0.10460849202E+03 -0.66763014894E+03 -0.11450411007E+04  0.14837797279E+04  0.65864270000E+03 0.  1.
    8880022    1    1    2    0    0  0.10460849202E+03  0.66763014894E+03  0.16559077464E+04  0.17950195180E+04  0.15294330000E+03 0.  0.
<mgrwt>
<rscale>  0 0.87351849E+03</rscale>
<asrwt>0</asrwt>
<pdfrwt beam="1">  1        2 0.29151276E+00 0.94365415E+03</pdfrwt>
<pdfrwt beam="2">  1       -2 0.21291789E+00 0.94365415E+03</pdfrwt>
<totfact> 0.84421702E-01</totfact>
</mgrwt>
</event>
<event>
 4    1  0.2799069E-007  0.7147728E+03  0.7818608E-02  0.9940687E-01
          2   -1    0    0  501    0  0.00000000000E+00  0.00000000000E+00  0.11928909927E+04  0.11928909927E+04  0.25500000000E-02 0. -1.
         -2   -1    0    0    0  501 -0.00000000000E+00 -0.00000000000E+00 -0.13635064082E+04  0.13635064082E+04  0.25500000000E-02 0.  1.
    8880023    1    1    2    0    0  0.27637695553E+03  0.26566842590E+02 -0.12453469855E+04  0.14358932200E+04  0.65864270000E+03 0.  1.
    8880022    1    1    2    0    0 -0.27637695553E+03 -0.26566842590E+02  0.10747315701E+04  0.11205041809E+04  0.15294330000E+03 0.  0.
<mgrwt>
<rscale>  0 0.58329317E+03</rscale>
<asrwt>0</asrwt>
<pdfrwt beam="1">  1        2 0.18352169E+00 0.71477285E+03</pdfrwt>
<pdfrwt beam="2">  1       -2 0.20977022E+00 0.71477285E+03</pdfrwt>
<totfact> 0.22739792E+00</totfact>
</mgrwt>
</event>
<event>
 4    1  0.2799069E-007  0.9548721E+03  0.7818608E-02  0.9443139E-01
         -2   -1    0    0    0  501 -0.00000000000E+00  0.00000000000E+00  0.70179066724E+03  0.70179066725E+03  0.25500000000E-02 0.  1.
          2   -1    0    0  501    0  0.00000000000E+00 -0.00000000000E+00 -0.10005725702E+04  0.10005725702E+04  0.25500000000E-02 0. -1.
    8880023    1    1    2    0    0  0.63577269563E+03  0.27159469332E+03 -0.27586667501E+03  0.99392314924E+03  0.65864270000E+03 0. -1.
    8880022    1    1    2    0    0 -0.63577269563E+03 -0.27159469332E+03 -0.22915227984E+02  0.70844008825E+03  0.15294330000E+03 0.  1.
<mgrwt>
<rscale>  0 0.88609007E+03</rscale>
<asrwt>0</asrwt>
<pdfrwt beam="1">  1        2 0.15393424E+00 0.95487214E+03</pdfrwt>
<pdfrwt beam="2">  1       -2 0.10796779E+00 0.95487214E+03</pdfrwt>
<totfact> 0.17249039E+01</totfact>
</mgrwt>
</event>
<event>
 4    1  0.2799069E-007  0.6683728E+03  0.7818608E-02  0.1016857E+00
          2   -1    0    0  501    0  0.00000000000E+00  0.00000000000E+00  0.32691962504E+04  0.32691962504E+04  0.25500000000E-02 0. -1.
         -2   -1    0    0    0  501 -0.00000000000E+00 -0.00000000000E+00 -0.25025016710E+03  0.25025016711E+03  0.25500000000E-02 0.  1.
    8880023    1    1    2    0    0  0.68082862979E+02 -0.90976319016E+02  0.20506742963E+03  0.69912432643E+03  0.65864270000E+03 0.  1.
    8880022    1    1    2    0    0 -0.68082862979E+02  0.90976319016E+02  0.28138786536E+04  0.28203220910E+04  0.15294330000E+03 0.  0.
<mgrwt>
<rscale>  0 0.48837993E+03</rscale>
<asrwt>0</asrwt>
<pdfrwt beam="1">  1        2 0.50295328E+00 0.66837278E+03</pdfrwt>
<pdfrwt beam="2">  1       -2 0.38500025E-01 0.66837278E+03</pdfrwt>
<totfact> 0.81186775E+00</totfact>
</mgrwt>
</event>
<event>
 4    1  0.3152058E-007  0.9570988E+03  0.7818608E-02  0.9439973E-01
          2   -1    0    0  501    0  0.00000000000E+00  0.00000000000E+00  0.16986926840E+04  0.16986926840E+04  0.25500000000E-02 0. -1.
         -2   -1    0    0    0  501 -0.00000000000E+00 -0.00000000000E+00 -0.22151601545E+04  0.22151601545E+04  0.25500000000E-02 0.  1.
    8880023    1    1    2    0    0  0.39783035298E+02 -0.69328578844E+03 -0.20285058393E+04  0.22429609940E+04  0.65864270000E+03 0.  1.
    8880022    1    1    2    0    0 -0.39783035298E+02  0.69328578844E+03  0.15120383688E+04  0.16708918445E+04  0.15294330000E+03 0.  0.
<mgrwt>
<rscale>  0 0.88857799E+03</rscale>
<asrwt>0</asrwt>
<pdfrwt beam="1">  1        2 0.26133734E+00 0.95709878E+03</pdfrwt>
<pdfrwt beam="2">  1       -2 0.34079387E+00 0.95709878E+03</pdfrwt>
<totfact> 0.17837728E-01</totfact>
</mgrwt>
</event>
<event>
 4    1  0.2799069E-007  0.1274192E+04  0.7818608E-02  0.9088173E-01
         -2   -1    0    0    0  501 -0.00000000000E+00  0.00000000000E+00  0.14484200756E+04  0.14484200756E+04  0.25500000000E-02 0.  1.
          2   -1    0    0  501    0  0.00000000000E+00 -0.00000000000E+00 -0.13703990138E+04  0.13703990138E+04  0.25500000000E-02 0. -1.
    8880023    1    1    2    0    0  0.10904655859E+04  0.25285956601E+02  0.79753235871E+03  0.15032041256E+04  0.65864270000E+03 0.  0.
    8880022    1    1    2    0    0 -0.10904655859E+04 -0.25285956601E+02 -0.71951129689E+03  0.13156149638E+04  0.15294330000E+03 0.  0.
<mgrwt>
<rscale>  0 0.12286134E+04</rscale>
<asrwt>0</asrwt>
<pdfrwt beam="1">  1        2 0.21083062E+00 0.12741918E+04</pdfrwt>
<pdfrwt beam="2">  1       -2 0.22283386E+00 0.12741918E+04</pdfrwt>
<totfact> 0.13742907E+00</totfact>
</mgrwt>
</event>
<event>
 4    1  0.2799069E-007  0.1601362E+04  0.7818608E-02  0.8841190E-01
         -2   -1    0    0    0  501 -0.00000000000E+00  0.00000000000E+00  0.80738465344E+03  0.80738465344E+03  0.25500000000E-02 0.  1.
          2   -1    0    0  501    0  0.00000000000E+00 -0.00000000000E+00 -0.30229216483E+04  0.30229216483E+04  0.25500000000E-02 0. -1.
    8880023    1    1    2    0    0 -0.33053150785E+03 -0.14217240708E+04 -0.15134680554E+04  0.22033942390E+04  0.65864270000E+03 0. -1.
    8880022    1    1    2    0    0  0.33053150785E+03  0.14217240708E+04 -0.70206893945E+03  0.16269120628E+04  0.15294330000E+03 0.  0.
<mgrwt>
<rscale>  0 0.15668283E+04</rscale>
<asrwt>0</asrwt>
<pdfrwt beam="1">  1        2 0.46506486E+00 0.16013621E+04</pdfrwt>
<pdfrwt beam="2">  1       -2 0.12421302E+00 0.16013621E+04</pdfrwt>
<totfact> 0.77292389E-01</totfact>
</mgrwt>
</event>
<event>
 4    1  0.2799069E-007  0.7934775E+03  0.7818608E-02  0.9725081E-01
          2   -1    0    0  501    0  0.00000000000E+00  0.00000000000E+00  0.18939035334E+04  0.18939035334E+04  0.25500000000E-02 0. -1.
         -2   -1    0    0    0  501 -0.00000000000E+00 -0.00000000000E+00 -0.39804388206E+03  0.39804388207E+03  0.25500000000E-02 0.  1.
    8880023    1    1    2    0    0  0.44234973263E+03 -0.11093760261E+02  0.76253406721E+02  0.79713307909E+03  0.65864270000E+03 0.  1.
    8880022    1    1    2    0    0 -0.44234973263E+03  0.11093760261E+02  0.14196062446E+04  0.14948143364E+04  0.15294330000E+03 0.  0.
<mgrwt>
<rscale>  0 0.69542943E+03</rscale>
<asrwt>0</asrwt>
<pdfrwt beam="1">  1        2 0.29136977E+00 0.79347751E+03</pdfrwt>
<pdfrwt beam="2">  1       -2 0.61237520E-01 0.79347751E+03</pdfrwt>
<totfact> 0.19472129E+01</totfact>
</mgrwt>
</event>
<event>
 4    1  0.2799069E-007  0.9300343E+03  0.7818608E-02  0.9479442E-01
          2   -1    0    0  501    0  0.00000000000E+00  0.00000000000E+00  0.35494672739E+04  0.35494672739E+04  0.25500000000E-02 0. -1.
         -2   -1    0    0    0  501 -0.00000000000E+00 -0.00000000000E+00 -0.96791854765E+03  0.96791854766E+03  0.25500000000E-02 0.  1.
    8880023    1    1    2    0    0 -0.56547704964E+03  0.33375034864E+03 -0.70206519603E+03  0.11652722148E+04  0.65864270000E+03 0.  0.
    8880022    1    1    2    0    0  0.56547704964E+03 -0.33375034864E+03  0.32836139222E+04  0.33521136067E+04  0.15294330000E+03 0.  0.
<mgrwt>
<rscale>  0 0.85816612E+03</rscale>
<asrwt>0</asrwt>
<pdfrwt beam="1">  1        2 0.54607189E+00 0.93003430E+03</pdfrwt>
<pdfrwt beam="2">  1       -2 0.14891054E+00 0.93003430E+03</pdfrwt>
<totfact> 0.23998129E-01</totfact>
</mgrwt>
</event>
<event>
 4    1  0.2799069E-007  0.2518395E+04  0.7818608E-02  0.8403904E-01
         -2   -1    0    0    0  501 -0.00000000000E+00  0.00000000000E+00  0.19052251511E+04  0.19052251511E+04  0.25500000000E-02 0.  1.
          2   -1    0    0  501    0  0.00000000000E+00 -0.00000000000E+00 -0.35562134683E+04  0.35562134683E+04  0.25500000000E-02 0. -1.
    8880023    1    1    2    0    0 -0.63705208819E+02 -0.24299060646E+04  0.11654973097E+01  0.25183950049E+04  0.65864270000E+03 0.  0.
    8880022    1    1    2    0    0  0.63705208819E+02  0.24299060646E+04 -0.16521538145E+04  0.29430436144E+04  0.15294330000E+03 0.  0.
<mgrwt>
<rscale>  0 0.24974225E+04</rscale>
<asrwt>0</asrwt>
<pdfrwt beam="1">  1        2 0.54710976E+00 0.25183947E+04</pdfrwt>
<pdfrwt beam="2">  1       -2 0.29311156E+00 0.25183947E+04</pdfrwt>
<totfact> 0.21818627E-02</totfact>
</mgrwt>
</event>
<event>
 4    1  0.2799069E-007  0.7092995E+03  0.7818608E-02  0.9960612E-01
         -2   -1    0    0    0  501 -0.00000000000E+00  0.00000000000E+00  0.44739033259E+03  0.44739033259E+03  0.25500000000E-02 0.  1.
          2   -1    0    0  501    0  0.00000000000E+00 -0.00000000000E+00 -0.80413838482E+03  0.80413838482E+03  0.25500000000E-02 0. -1.
    8880023    1    1    2    0    0 -0.74109981973E+02  0.25259305722E+03  0.85697512383E+02  0.71445770475E+03  0.65864270000E+03 0.  0.
    8880022    1    1    2    0    0  0.74109981973E+02 -0.25259305722E+03 -0.44244556461E+03  0.53707101267E+03  0.15294330000E+03 0.  0.
<mgrwt>
<rscale>  0 0.57411606E+03</rscale>
<asrwt>0</asrwt>
<pdfrwt beam="1">  1        2 0.12371360E+00 0.70929948E+03</pdfrwt>
<pdfrwt beam="2">  1       -2 0.68829282E-01 0.70929948E+03</pdfrwt>
<totfact> 0.67059977E+01</totfact>
</mgrwt>
</event>
<event>
 4    1  0.2799069E-007  0.6674809E+03  0.7818608E-02  0.1017537E+00
          2   -1    0    0  501    0  0.00000000000E+00  0.00000000000E+00  0.14604156902E+04  0.14604156902E+04  0.25500000000E-02 0. -1.
         -2   -1    0    0    0  501 -0.00000000000E+00 -0.00000000000E+00 -0.98731425761E+03  0.98731425762E+03  0.25500000000E-02 0.  1.
    8880023    1    1    2    0    0  0.87296566647E+02  0.64030270585E+02 -0.86723332267E+03  0.10943602735E+04  0.65864270000E+03 0.  1.
    8880022    1    1    2    0    0 -0.87296566647E+02 -0.64030270585E+02  0.13403347553E+04  0.13533696743E+04  0.15294330000E+03 0.  0.
<mgrwt>
<rscale>  0 0.48586031E+03</rscale>
<asrwt>0</asrwt>
<pdfrwt beam="1">  1        2 0.22467934E+00 0.66748092E+03</pdfrwt>
<pdfrwt beam="2">  1       -2 0.15189450E+00 0.66748092E+03</pdfrwt>
<totfact> 0.40285196E+00</totfact>
</mgrwt>
</event>
<event>
 4    1  0.2799069E-007  0.8816477E+03  0.7818608E-02  0.9556159E-01
         -2   -1    0    0    0  501 -0.00000000000E+00  0.00000000000E+00  0.10930949464E+04  0.10930949464E+04  0.25500000000E-02 0.  1.
          2   -1    0    0  501    0  0.00000000000E+00 -0.00000000000E+00 -0.16605442513E+04  0.16605442513E+04  0.25500000000E-02 0. -1.
    8880023    1    1    2    0    0  0.58486038900E+03  0.37825102271E+02  0.84226348971E+03  0.12193073465E+04  0.65864270000E+03 0.  1.
    8880022    1    1    2    0    0 -0.58486038900E+03 -0.37825102271E+02 -0.14097127947E+04  0.15343318512E+04  0.15294330000E+03 0.  0.
<mgrwt>
<rscale>  0 0.80267069E+03</rscale>
<asrwt>0</asrwt>
<pdfrwt beam="1">  1        2 0.25546835E+00 0.88164767E+03</pdfrwt>
<pdfrwt beam="2">  1       -2 0.16816845E+00 0.88164767E+03</pdfrwt>
<totfact> 0.22887754E+00</totfact>
</mgrwt>
</event>
<event>
 4    1  0.2799069E-007  0.1060736E+04  0.7818608E-02  0.9306086E-01
         -2   -1    0    0    0  501 -0.00000000000E+00  0.00000000000E+00  0.83705927767E+03  0.83705927768E+03  0.25500000000E-02 0.  1.
          2   -1    0    0  501    0  0.00000000000E+00 -0.00000000000E+00 -0.11474521630E+04  0.11474521630E+04  0.25500000000E-02 0. -1.
    8880023    1    1    2    0    0  0.82904957424E+03 -0.63458971780E+02  0.57977634797E+02  0.10623190905E+04  0.65864270000E+03 0.  0.
    8880022    1    1    2    0    0 -0.82904957424E+03  0.63458971780E+02 -0.36837052016E+03  0.92219235021E+03  0.15294330000E+03 0.  0.
<mgrwt>
<rscale>  0 0.10022454E+04</rscale>
<asrwt>0</asrwt>
<pdfrwt beam="1">  1        2 0.17653110E+00 0.10607358E+04</pdfrwt>
<pdfrwt beam="2">  1       -2 0.12877835E+00 0.10607358E+04</pdfrwt>
<totfact> 0.89416914E+00</totfact>
</mgrwt>
</event>
<event>
 4    1  0.2799069E-007  0.7122081E+03  0.7818608E-02  0.9949891E-01
         -2   -1    0    0    0  501 -0.00000000000E+00  0.00000000000E+00  0.28759365687E+03  0.28759365689E+03  0.25500000000E-02 0.  1.
          2   -1    0    0  501    0  0.00000000000E+00 -0.00000000000E+00 -0.35877231626E+04  0.35877231626E+04  0.25500000000E-02 0. -1.
    8880023    1    1    2    0    0  0.19210603028E+03  0.19111629131E+03 -0.17322913448E+03  0.73297251174E+03  0.65864270000E+03 0.  1.
    8880022    1    1    2    0    0 -0.19210603028E+03 -0.19111629131E+03 -0.31269003712E+04  0.31423443077E+04  0.15294330000E+03 0.  0.
<mgrwt>
<rscale>  0 0.57903102E+03</rscale>
<asrwt>0</asrwt>
<pdfrwt beam="1">  1        2 0.55195738E+00 0.71220809E+03</pdfrwt>
<pdfrwt beam="2">  1       -2 0.44245181E-01 0.71220809E+03</pdfrwt>
<totfact> 0.37468492E+00</totfact>
</mgrwt>
</event>
<event>
 4    1  0.2799069E-007  0.6654813E+03  0.7818608E-02  0.1019133E+00
          2   -1    0    0  501    0  0.00000000000E+00  0.00000000000E+00  0.13179004868E+04  0.13179004868E+04  0.25500000000E-02 0. -1.
         -2   -1    0    0    0  501 -0.00000000000E+00 -0.00000000000E+00 -0.23899133943E+03  0.23899133944E+03  0.25500000000E-02 0.  1.
    8880023    1    1    2    0    0 -0.69759772702E+02  0.64719932794E+02  0.25361684116E+03  0.71217048800E+03  0.65864270000E+03 0.  1.
    8880022    1    1    2    0    0  0.69759772702E+02 -0.64719932794E+02  0.82529230626E+03  0.84472133830E+03  0.15294330000E+03 0.  0.
<mgrwt>
<rscale>  0 0.48000777E+03</rscale>
<asrwt>0</asrwt>
<pdfrwt beam="1">  1        2 0.20275393E+00 0.66548126E+03</pdfrwt>
<pdfrwt beam="2">  1       -2 0.36767898E-01 0.66548126E+03</pdfrwt>
<totfact> 0.11503766E+02</totfact>
</mgrwt>
</event>
<event>
 4    1  0.2799069E-007  0.6824299E+03  0.7818608E-02  0.1007981E+00
          2   -1    0    0  501    0  0.00000000000E+00  0.00000000000E+00  0.17089864043E+04  0.17089864043E+04  0.25500000000E-02 0. -1.
         -2   -1    0    0    0  501 -0.00000000000E+00 -0.00000000000E+00 -0.19114201553E+03  0.19114201554E+03  0.25500000000E-02 0.  1.
    8880023    1    1    2    0    0 -0.15859836103E+03 -0.82139940911E+02  0.47590003685E+03  0.83198044529E+03  0.65864270000E+03 0.  1.
    8880022    1    1    2    0    0  0.15859836103E+03  0.82139940911E+02  0.10419443519E+04  0.10681479745E+04  0.15294330000E+03 0.  0.
<mgrwt>
<rscale>  0 0.52284914E+03</rscale>
<asrwt>0</asrwt>
<pdfrwt beam="1">  1        2 0.26292099E+00 0.68242994E+03</pdfrwt>
<pdfrwt beam="2">  1       -2 0.29406463E-01 0.68242994E+03</pdfrwt>
<totfact> 0.10602150E+02</totfact>
</mgrwt>
</event>
<event>
 4    1  0.2799069E-007  0.7088012E+03  0.7818608E-02  0.9962480E-01
         -2   -1    0    0    0  501 -0.00000000000E+00  0.00000000000E+00  0.13017584093E+04  0.13017584093E+04  0.25500000000E-02 0.  1.
          2   -1    0    0  501    0  0.00000000000E+00 -0.00000000000E+00 -0.52595999844E+03  0.52595999845E+03  0.25500000000E-02 0. -1.
    8880023    1    1    2    0    0 -0.22931906121E+03 -0.12649803955E+03  0.11470236621E+04  0.13483554700E+04  0.65864270000E+03 0.  1.
    8880022    1    1    2    0    0  0.22931906121E+03  0.12649803955E+03 -0.37122525128E+03  0.47936293770E+03  0.15294330000E+03 0.  0.
<mgrwt>
<rscale>  0 0.57326497E+03</rscale>
<asrwt>0</asrwt>
<pdfrwt beam="1">  1        2 0.80916923E-01 0.70880124E+03</pdfrwt>
<pdfrwt beam="2">  1       -2 0.20027052E+00 0.70880124E+03</pdfrwt>
<totfact> 0.78757730E+00</totfact>
</mgrwt>
</event>
<event>
 4    1  0.2799069E-007  0.9154384E+03  0.7818608E-02  0.9501689E-01
          2   -1    0    0  501    0  0.00000000000E+00  0.00000000000E+00  0.16583782446E+04  0.16583782446E+04  0.25500000000E-02 0. -1.
         -2   -1    0    0    0  501 -0.00000000000E+00 -0.00000000000E+00 -0.47505067706E+03  0.47505067707E+03  0.25500000000E-02 0.  1.
    8880023    1    1    2    0    0 -0.49229074530E+03  0.40232707964E+03  0.17560008493E+03  0.93212813122E+03  0.65864270000E+03 0.  0.
    8880022    1    1    2    0    0  0.49229074530E+03 -0.40232707964E+03  0.10077274826E+04  0.12013007905E+04  0.15294330000E+03 0.  0.
<mgrwt>
<rscale>  0 0.84159411E+03</rscale>
<asrwt>0</asrwt>
<pdfrwt beam="1">  1        2 0.25513512E+00 0.91543840E+03</pdfrwt>
<pdfrwt beam="2">  1       -2 0.73084719E-01 0.91543840E+03</pdfrwt>
<totfact> 0.17622732E+01</totfact>
</mgrwt>
</event>
<event>
 4    1  0.2850291E-007  0.1025853E+04  0.7818608E-02  0.9348489E-01
          2   -1    0    0  501    0  0.00000000000E+00  0.00000000000E+00  0.30106967300E+04  0.30106967300E+04  0.25500000000E-02 0. -1.
         -2   -1    0    0    0  501 -0.00000000000E+00 -0.00000000000E+00 -0.10547187383E+04  0.10547187383E+04  0.25500000000E-02 0.  1.
    8880023    1    1    2    0    0 -0.15168969601E+03  0.77172209087E+03 -0.73221313579E+03  0.12603614687E+04  0.65864270000E+03 0.  0.
    8880022    1    1    2    0    0  0.15168969601E+03 -0.77172209087E+03  0.26881911275E+04  0.28050539995E+04  0.15294330000E+03 0.  0.
<mgrwt>
<rscale>  0 0.96438874E+03</rscale>
<asrwt>0</asrwt>
<pdfrwt beam="1">  1        2 0.46318411E+00 0.10258533E+04</pdfrwt>
<pdfrwt beam="2">  1       -2 0.16226442E+00 0.10258533E+04</pdfrwt>
<totfact> 0.42062306E-01</totfact>
</mgrwt>
</event>
<event>
 4    1  0.2799069E-007  0.1557435E+04  0.7818608E-02  0.8870109E-01
          2   -1    0    0  501    0  0.00000000000E+00  0.00000000000E+00  0.33753231558E+04  0.33753231558E+04  0.25500000000E-02 0. -1.
         -2   -1    0    0    0  501 -0.00000000000E+00 -0.00000000000E+00 -0.13347031611E+04  0.13347031611E+04  0.25500000000E-02 0.  1.
    8880023    1    1    2    0    0 -0.13865799126E+04  0.26303979330E+03 -0.63439063147E+03  0.16816823322E+04  0.65864270000E+03 0.  1.
    8880022    1    1    2    0    0  0.13865799126E+04 -0.26303979330E+03  0.26750106261E+04  0.30283439847E+04  0.15294330000E+03 0.  0.
<mgrwt>
<rscale>  0 0.15217624E+04</rscale>
<asrwt>0</asrwt>
<pdfrwt beam="1">  1        2 0.51928048E+00 0.15574351E+04</pdfrwt>
<pdfrwt beam="2">  1       -2 0.20533895E+00 0.15574351E+04</pdfrwt>
<totfact> 0.11419379E-01</totfact>
</mgrwt>
</event>
<event>
 4    1  0.2799069E-007  0.8527218E+03  0.7818608E-02  0.9606643E-01
          2   -1    0    0  501    0  0.00000000000E+00  0.00000000000E+00  0.29024528312E+04  0.29024528312E+04  0.25500000000E-02 0. -1.
         -2   -1    0    0    0  501 -0.00000000000E+00 -0.00000000000E+00 -0.35411185791E+03  0.35411185792E+03  0.25500000000E-02 0.  1.
    8880023    1    1    2    0    0  0.22210226400E+03 -0.49395826091E+03  0.24752353868E+03  0.88792020343E+03  0.65864270000E+03 0.  1.
    8880022    1    1    2    0    0 -0.22210226400E+03  0.49395826091E+03  0.23008174346E+04  0.23686444857E+04  0.15294330000E+03 0.  0.
<mgrwt>
<rscale>  0 0.76858026E+03</rscale>
<asrwt>0</asrwt>
<pdfrwt beam="1">  1        2 0.44653118E+00 0.85272175E+03</pdfrwt>
<pdfrwt beam="2">  1       -2 0.54478750E-01 0.85272175E+03</pdfrwt>
<totfact> 0.66228229E+00</totfact>
</mgrwt>
</event>
<event>
 4    1  0.2799069E-007  0.7734613E+03  0.7818608E-02  0.9771427E-01
          2   -1    0    0  501    0  0.00000000000E+00  0.00000000000E+00  0.20649027301E+04  0.20649027301E+04  0.25500000000E-02 0. -1.
         -2   -1    0    0    0  501 -0.00000000000E+00 -0.00000000000E+00 -0.35724488919E+03  0.35724488920E+03  0.25500000000E-02 0.  1.
    8880023    1    1    2    0    0 -0.34505614851E+03  0.21299877878E+03  0.12782984770E+03  0.78395337975E+03  0.65864270000E+03 0.  0.
    8880022    1    1    2    0    0  0.34505614851E+03 -0.21299877878E+03  0.15798279932E+04  0.16381942395E+04  0.15294330000E+03 0.  1.
<mgrwt>
<rscale>  0 0.66918748E+03</rscale>
<asrwt>0</asrwt>
<pdfrwt beam="1">  1        2 0.31767734E+00 0.77346133E+03</pdfrwt>
<pdfrwt beam="2">  1       -2 0.54960753E-01 0.77346133E+03</pdfrwt>
<totfact> 0.19755466E+01</totfact>
</mgrwt>
</event>
<event>
 4    1  0.2799069E-007  0.7494372E+03  0.7818608E-02  0.9833263E-01
         -2   -1    0    0    0  501 -0.00000000000E+00  0.00000000000E+00  0.31506888119E+03  0.31506888120E+03  0.25500000000E-02 0.  1.
          2   -1    0    0  501    0  0.00000000000E+00 -0.00000000000E+00 -0.12375273863E+04  0.12375273863E+04  0.25500000000E-02 0. -1.
    8880023    1    1    2    0    0 -0.12303732296E+03 -0.33571971691E+03 -0.27691143084E+03  0.79895935939E+03  0.65864270000E+03 0.  1.
    8880022    1    1    2    0    0  0.12303732296E+03  0.33571971691E+03 -0.64554707424E+03  0.75363690810E+03  0.15294330000E+03 0. -1.
<mgrwt>
<rscale>  0 0.63607583E+03</rscale>
<asrwt>0</asrwt>
<pdfrwt beam="1">  1        2 0.19038883E+00 0.74943720E+03</pdfrwt>
<pdfrwt beam="2">  1       -2 0.48472136E-01 0.74943720E+03</pdfrwt>
<totfact> 0.73751036E+01</totfact>
</mgrwt>
</event>
<event>
 4    1  0.2799069E-007  0.1077133E+04  0.7818608E-02  0.9286953E-01
          2   -1    0    0  501    0  0.00000000000E+00  0.00000000000E+00  0.15209166903E+04  0.15209166903E+04  0.25500000000E-02 0. -1.
         -2   -1    0    0    0  501 -0.00000000000E+00 -0.00000000000E+00 -0.13008268347E+04  0.13008268347E+04  0.25500000000E-02 0.  1.
    8880023    1    1    2    0    0  0.81966865505E+03  0.23355542910E+03 -0.90162780266E+03  0.14046877743E+04  0.65864270000E+03 0.  0.
    8880022    1    1    2    0    0 -0.81966865505E+03 -0.23355542910E+03  0.11217176583E+04  0.14170557507E+04  0.15294330000E+03 0.  0.
<mgrwt>
<rscale>  0 0.10199288E+04</rscale>
<asrwt>0</asrwt>
<pdfrwt beam="1">  1        2 0.23398718E+00 0.10771328E+04</pdfrwt>
<pdfrwt beam="2">  1       -2 0.20012720E+00 0.10771328E+04</pdfrwt>
<totfact> 0.16135704E+00</totfact>
</mgrwt>
</event>
<event>
 4    1  0.2799069E-007  0.6641949E+03  0.7818608E-02  0.1020219E+00
         -2   -1    0    0    0  501 -0.00000000000E+00  0.00000000000E+00  0.48780983703E+03  0.48780983704E+03  0.25500000000E-02 0.  1.
          2   -1    0    0  501    0  0.00000000000E+00 -0.00000000000E+00 -0.12848889221E+04  0.12848889221E+04  0.25500000000E-02 0. -1.
    8880023    1    1    2    0    0  0.81345363787E+02 -0.26972795579E+02  0.25101373373E+03  0.71004415405E+03  0.65864270000E+03 0.  1.
    8880022    1    1    2    0    0 -0.81345363787E+02  0.26972795579E+02 -0.10480928188E+04  0.10626546051E+04  0.15294330000E+03 0.  0.
<mgrwt>
<rscale>  0 0.47607787E+03</rscale>
<asrwt>0</asrwt>
<pdfrwt beam="1">  1        2 0.19767522E+00 0.66419486E+03</pdfrwt>
<pdfrwt beam="2">  1       -2 0.75047668E-01 0.66419486E+03</pdfrwt>
<totfact> 0.27714569E+01</totfact>
</mgrwt>
</event>
<event>
 4    1  0.2799069E-007  0.1030515E+04  0.7818608E-02  0.9342680E-01
         -2   -1    0    0    0  501 -0.00000000000E+00  0.00000000000E+00  0.16432591588E+04  0.16432591588E+04  0.25500000000E-02 0.  1.
          2   -1    0    0  501    0  0.00000000000E+00 -0.00000000000E+00 -0.69158811534E+03  0.69158811535E+03  0.25500000000E-02 0. -1.
    8880023    1    1    2    0    0  0.15407015894E+03  0.77744057451E+03  0.11074741952E+04  0.15127659304E+04  0.65864270000E+03 0.  0.
    8880022    1    1    2    0    0 -0.15407015894E+03 -0.77744057451E+03 -0.15580315171E+03  0.82208134382E+03  0.15294330000E+03 0.  0.
<mgrwt>
<rscale>  0 0.96946852E+03</rscale>
<asrwt>0</asrwt>
<pdfrwt beam="1">  1        2 0.10639817E+00 0.10305152E+04</pdfrwt>
<pdfrwt beam="2">  1       -2 0.25280910E+00 0.10305152E+04</pdfrwt>
<totfact> 0.25570187E+00</totfact>
</mgrwt>
</event>
<event>
 4    1  0.2799069E-007  0.1158309E+04  0.7818608E-02  0.9198754E-01
          2   -1    0    0  501    0  0.00000000000E+00  0.00000000000E+00  0.29785994508E+04  0.29785994508E+04  0.25500000000E-02 0. -1.
         -2   -1    0    0    0  501 -0.00000000000E+00 -0.00000000000E+00 -0.75971672072E+03  0.75971672072E+03  0.25500000000E-02 0.  1.
    8880023    1    1    2    0    0 -0.90343310198E+03 -0.30278544114E+03 -0.16173047762E+03  0.11695457865E+04  0.65864270000E+03 0.  0.
    8880022    1    1    2    0    0  0.90343310198E+03  0.30278544114E+03  0.23806132077E+04  0.25687703850E+04  0.15294330000E+03 0.  0.
<mgrwt>
<rscale>  0 0.11066299E+04</rscale>
<asrwt>0</asrwt>
<pdfrwt beam="1">  1        2 0.45824606E+00 0.11583094E+04</pdfrwt>
<pdfrwt beam="2">  1       -2 0.11687950E+00 0.11583094E+04</pdfrwt>
<totfact> 0.10111762E+00</totfact>
</mgrwt>
</event>
<event>
 4    1  0.2799069E-007  0.9803536E+03  0.7818608E-02  0.9407725E-01
         -2   -1    0    0    0  501 -0.00000000000E+00  0.00000000000E+00  0.59773850520E+03  0.59773850521E+03  0.25500000000E-02 0.  1.
          2   -1    0    0  501    0  0.00000000000E+00 -0.00000000000E+00 -0.23251256558E+04  0.23251256558E+04  0.25500000000E-02 0. -1.
    8880023    1    1    2    0    0  0.25582084407E+03 -0.67958708376E+03  0.65432858391E+02  0.98253476982E+03  0.65864270000E+03 0.  1.
    8880022    1    1    2    0    0 -0.25582084407E+03  0.67958708376E+03 -0.17928200090E+04  0.19403293912E+04  0.15294330000E+03 0. -1.
<mgrwt>
<rscale>  0 0.91442676E+03</rscale>
<asrwt>0</asrwt>
<pdfrwt beam="1">  1        2 0.35771163E+00 0.98035357E+03</pdfrwt>
<pdfrwt beam="2">  1       -2 0.91959771E-01 0.98035357E+03</pdfrwt>
<totfact> 0.44490243E+00</totfact>
</mgrwt>
</event>
<event>
 4    1  0.2799069E-007  0.6849045E+03  0.7818608E-02  0.1006675E+00
          2   -1    0    0  501    0  0.00000000000E+00  0.00000000000E+00  0.86339457083E+03  0.86339457084E+03  0.25500000000E-02 0. -1.
         -2   -1    0    0    0  501 -0.00000000000E+00 -0.00000000000E+00 -0.24890121902E+03  0.24890121903E+03  0.25500000000E-02 0.  1.
    8880023    1    1    2    0    0 -0.10866950547E+03  0.15321503730E+03  0.45153766610E+03  0.82035381345E+03  0.65864270000E+03 0.  0.
    8880022    1    1    2    0    0  0.10866950547E+03 -0.15321503730E+03  0.16295568572E+03  0.29194197642E+03  0.15294330000E+03 0.  1.
<mgrwt>
<rscale>  0 0.52817720E+03</rscale>
<asrwt>0</asrwt>
<pdfrwt beam="1">  1        2 0.13282993E+00 0.68490446E+03</pdfrwt>
<pdfrwt beam="2">  1       -2 0.38292496E-01 0.68490446E+03</pdfrwt>
<totfact> 0.20272099E+02</totfact>
</mgrwt>
</event>
<event>
 4    1  0.2799069E-007  0.1257838E+04  0.7818608E-02  0.9102852E-01
          2   -1    0    0  501    0  0.00000000000E+00  0.00000000000E+00  0.14343108798E+04  0.14343108798E+04  0.25500000000E-02 0. -1.
         -2   -1    0    0    0  501 -0.00000000000E+00 -0.00000000000E+00 -0.98167950672E+03  0.98167950672E+03  0.25500000000E-02 0.  1.
    8880023    1    1    2    0    0  0.94564812314E+03  0.50408024015E+03  0.42894922108E+02  0.12585696015E+04  0.65864270000E+03 0.  0.
    8880022    1    1    2    0    0 -0.94564812314E+03 -0.50408024015E+03  0.40973645101E+03  0.11574207850E+04  0.15294330000E+03 0.  0.
<mgrwt>
<rscale>  0 0.12114974E+04</rscale>
<asrwt>0</asrwt>
<pdfrwt beam="1">  1        2 0.22066321E+00 0.12578384E+04</pdfrwt>
<pdfrwt beam="2">  1       -2 0.15102762E+00 0.12578384E+04</pdfrwt>
<totfact> 0.39350172E+00</totfact>
</mgrwt>
</event>
<event>
 4    1  0.2799069E-007  0.7419395E+03  0.7818608E-02  0.9854333E-01
         -2   -1    0    0    0  501 -0.00000000000E+00  0.00000000000E+00  0.56567209055E+03  0.56567209055E+03  0.25500000000E-02 0.  1.
          2   -1    0    0  501    0  0.00000000000E+00 -0.00000000000E+00 -0.55646703419E+03  0.55646703420E+03  0.25500000000E-02 0. -1.
    8880023    1    1    2    0    0 -0.15795822844E+03 -0.30284200714E+03  0.60489788015E+02  0.74440130571E+03  0.65864270000E+03 0.  1.
    8880022    1    1    2    0    0  0.15795822844E+03  0.30284200714E+03 -0.51284731663E+02  0.37773781904E+03  0.15294330000E+03 0. -1.
<mgrwt>
<rscale>  0 0.62526483E+03</rscale>
<asrwt>0</asrwt>
<pdfrwt beam="1">  1        2 0.85610313E-01 0.74193955E+03</pdfrwt>
<pdfrwt beam="2">  1       -2 0.87026475E-01 0.74193955E+03</pdfrwt>
<totfact> 0.62752589E+01</totfact>
</mgrwt>
</event>
<event>
 4    1  0.2799069E-007  0.7022941E+03  0.7818608E-02  0.9987814E-01
          2   -1    0    0  501    0  0.00000000000E+00  0.00000000000E+00  0.94602256528E+03  0.94602256529E+03  0.25500000000E-02 0. -1.
         -2   -1    0    0    0  501 -0.00000000000E+00 -0.00000000000E+00 -0.31292882061E+03  0.31292882062E+03  0.25500000000E-02 0.  1.
    8880023    1    1    2    0    0  0.13243037443E+03  0.20461898850E+03  0.18470850309E+03  0.72617778257E+03  0.65864270000E+03 0.  1.
    8880022    1    1    2    0    0 -0.13243037443E+03 -0.20461898850E+03  0.44838524158E+03  0.53277360334E+03  0.15294330000E+03 0.  0.
<mgrwt>
<rscale>  0 0.56187794E+03</rscale>
<asrwt>0</asrwt>
<pdfrwt beam="1">  1        2 0.14554193E+00 0.70229406E+03</pdfrwt>
<pdfrwt beam="2">  1       -2 0.48142896E-01 0.70229406E+03</pdfrwt>
<totfact> 0.11344654E+02</totfact>
</mgrwt>
</event>
<event>
 4    1  0.2799069E-007  0.2372237E+04  0.7818608E-02  0.8458507E-01
         -2   -1    0    0    0  501 -0.00000000000E+00  0.00000000000E+00  0.19852395256E+04  0.19852395256E+04  0.25500000000E-02 0.  1.
          2   -1    0    0  501    0  0.00000000000E+00 -0.00000000000E+00 -0.34263529239E+04  0.34263529239E+04  0.25500000000E-02 0. -1.
    8880023    1    1    2    0    0 -0.62245130698E+03  0.21923163973E+04  0.48792701897E+03  0.24218959097E+04  0.65864270000E+03 0.  0.
    8880022    1    1    2    0    0  0.62245130698E+03 -0.21923163973E+04 -0.19290404173E+04  0.29896965398E+04  0.15294330000E+03 0.  0.
<mgrwt>
<rscale>  0 0.23498873E+04</rscale>
<asrwt>0</asrwt>
<pdfrwt beam="1">  1        2 0.52713122E+00 0.23722367E+04</pdfrwt>
<pdfrwt beam="2">  1       -2 0.30542147E+00 0.23722367E+04</pdfrwt>
<totfact> 0.22897967E-02</totfact>
</mgrwt>
</event>
<event>
 4    1  0.2799069E-007  0.9669786E+03  0.7818608E-02  0.9426095E-01
          2   -1    0    0  501    0  0.00000000000E+00  0.00000000000E+00  0.20042777743E+04  0.20042777743E+04  0.25500000000E-02 0. -1.
         -2   -1    0    0    0  501 -0.00000000000E+00 -0.00000000000E+00 -0.60074166314E+03  0.60074166314E+03  0.25500000000E-02 0.  1.
    8880023    1    1    2    0    0  0.38386601313E+03 -0.59488176037E+03 -0.63352248366E+02  0.96905166967E+03  0.65864270000E+03 0.  1.
    8880022    1    1    2    0    0 -0.38386601313E+03  0.59488176037E+03  0.14668883595E+04  0.16359677678E+04  0.15294330000E+03 0.  0.
<mgrwt>
<rscale>  0 0.89958912E+03</rscale>
<asrwt>0</asrwt>
<pdfrwt beam="1">  1        2 0.30835043E+00 0.96697861E+03</pdfrwt>
<pdfrwt beam="2">  1       -2 0.92421793E-01 0.96697861E+03</pdfrwt>
<totfact> 0.66372820E+00</totfact>
</mgrwt>
</event>
<event>
 4    1  0.2799069E-007  0.9647043E+03  0.7818608E-02  0.9429266E-01
          2   -1    0    0  501    0  0.00000000000E+00  0.00000000000E+00  0.24598475302E+04  0.24598475302E+04  0.25500000000E-02 0. -1.
         -2   -1    0    0    0  501 -0.00000000000E+00 -0.00000000000E+00 -0.40120140075E+03  0.40120140076E+03  0.25500000000E-02 0.  1.
    8880023    1    1    2    0    0 -0.51712089330E+03 -0.47898876981E+03  0.38517018542E+03  0.10387543203E+04  0.65864270000E+03 0.  1.
    8880022    1    1    2    0    0  0.51712089330E+03  0.47898876981E+03  0.16734759440E+04  0.18222946107E+04  0.15294330000E+03 0.  0.
<mgrwt>
<rscale>  0 0.89705840E+03</rscale>
<asrwt>0</asrwt>
<pdfrwt beam="1">  1        2 0.37843808E+00 0.96470434E+03</pdfrwt>
<pdfrwt beam="2">  1       -2 0.61723292E-01 0.96470434E+03</pdfrwt>
<totfact> 0.90943405E+00</totfact>
</mgrwt>
</event>
<event>
 4    1  0.2799069E-007  0.1607690E+04  0.7818608E-02  0.8837112E-01
          2   -1    0    0  501    0  0.00000000000E+00  0.00000000000E+00  0.23736340086E+04  0.23736340086E+04  0.25500000000E-02 0. -1.
         -2   -1    0    0    0  501 -0.00000000000E+00 -0.00000000000E+00 -0.14209718075E+04  0.14209718075E+04  0.25500000000E-02 0.  1.
    8880023    1    1    2    0    0 -0.12210822533E+04 -0.81228921402E+03  0.15221157101E+04  0.22139336209E+04  0.65864270000E+03 0. -1.
    8880022    1    1    2    0    0  0.12210822533E+04  0.81228921402E+03 -0.56945350895E+03  0.15806721951E+04  0.15294330000E+03 0.  0.
<mgrwt>
<rscale>  0 0.15733135E+04</rscale>
<asrwt>0</asrwt>
<pdfrwt beam="1">  1        2 0.36517446E+00 0.16076896E+04</pdfrwt>
<pdfrwt beam="2">  1       -2 0.21861105E+00 0.16076896E+04</pdfrwt>
<totfact> 0.38504078E-01</totfact>
</mgrwt>
</event>
<event>
 4    1  0.2799069E-007  0.1195674E+04  0.7818608E-02  0.9161339E-01
         -2   -1    0    0    0  501 -0.00000000000E+00  0.00000000000E+00  0.67272448360E+03  0.67272448360E+03  0.25500000000E-02 0.  1.
          2   -1    0    0  501    0  0.00000000000E+00 -0.00000000000E+00 -0.24372799409E+04  0.24372799409E+04  0.25500000000E-02 0. -1.
    8880023    1    1    2    0    0  0.51041098388E+03 -0.85750014104E+03 -0.14896303653E+03  0.12049174482E+04  0.65864270000E+03 0.  0.
    8880022    1    1    2    0    0 -0.51041098388E+03  0.85750014104E+03 -0.16155924207E+04  0.19050869763E+04  0.15294330000E+03 0.  0.
<mgrwt>
<rscale>  0 0.11461539E+04</rscale>
<asrwt>0</asrwt>
<pdfrwt beam="1">  1        2 0.37496614E+00 0.11956739E+04</pdfrwt>
<pdfrwt beam="2">  1       -2 0.10349608E+00 0.11956739E+04</pdfrwt>
<totfact> 0.28297193E+00</totfact>
</mgrwt>
</event>
<event>
 4    1  0.2799069E-007  0.6687171E+03  0.7818608E-02  0.1016600E+00
          2   -1    0    0  501    0  0.00000000000E+00  0.00000000000E+00  0.23834406190E+04  0.23834406190E+04  0.25500000000E-02 0. -1.
         -2   -1    0    0    0  501 -0.00000000000E+00 -0.00000000000E+00 -0.27221784424E+03  0.27221784425E+03  0.25500000000E-02 0.  1.
    8880023    1    1    2    0    0 -0.11158780712E+03 -0.30340273049E+02  0.15032038278E+03  0.68540411044E+03  0.65864270000E+03 0.  1.
    8880022    1    1    2    0    0  0.11158780712E+03  0.30340273049E+02  0.19609023920E+04  0.19702543528E+04  0.15294330000E+03 0.  0.
<mgrwt>
<rscale>  0 0.48933886E+03</rscale>
<asrwt>0</asrwt>
<pdfrwt beam="1">  1        2 0.36668319E+00 0.66871711E+03</pdfrwt>
<pdfrwt beam="2">  1       -2 0.41879666E-01 0.66871711E+03</pdfrwt>
<totfact> 0.23173040E+01</totfact>
</mgrwt>
</event>
<event>
 4    1  0.2799069E-007  0.1672261E+04  0.7818608E-02  0.8796696E-01
         -2   -1    0    0    0  501 -0.00000000000E+00  0.00000000000E+00  0.25254699505E+04  0.25254699505E+04  0.25500000000E-02 0.  1.
          2   -1    0    0  501    0  0.00000000000E+00 -0.00000000000E+00 -0.27128456975E+04  0.27128456975E+04  0.25500000000E-02 0. -1.
    8880023    1    1    2    0    0 -0.11594926871E+04 -0.10090705058E+04  0.19705709279E+04  0.25844934833E+04  0.65864270000E+03 0.  0.
    8880022    1    1    2    0    0  0.11594926871E+04  0.10090705058E+04 -0.21579466749E+04  0.26538221647E+04  0.15294330000E+03 0.  0.
<mgrwt>
<rscale>  0 0.16394105E+04</rscale>
<asrwt>0</asrwt>
<pdfrwt beam="1">  1        2 0.41736088E+00 0.16722610E+04</pdfrwt>
<pdfrwt beam="2">  1       -2 0.38853383E+00 0.16722610E+04</pdfrwt>
<totfact> 0.21113478E-02</totfact>
</mgrwt>
</event>
<event>
 4    1  0.2799069E-007  0.9984779E+03  0.7818608E-02  0.9383552E-01
         -2   -1    0    0    0  501 -0.00000000000E+00  0.00000000000E+00  0.12597796681E+04  0.12597796681E+04  0.25500000000E-02 0.  1.
          2   -1    0    0  501    0  0.00000000000E+00 -0.00000000000E+00 -0.25185832806E+04  0.25185832806E+04  0.25500000000E-02 0. -1.
    8880023    1    1    2    0    0  0.20238934341E+03 -0.72262464040E+03  0.98796746333E+03  0.14046486152E+04  0.65864270000E+03 0.  0.
    8880022    1    1    2    0    0 -0.20238934341E+03  0.72262464040E+03 -0.22467710758E+04  0.23737143335E+04  0.15294330000E+03 0.  0.
<mgrwt>
<rscale>  0 0.93441754E+03</rscale>
<asrwt>0</asrwt>
<pdfrwt beam="1">  1        2 0.38747435E+00 0.99847785E+03</pdfrwt>
<pdfrwt beam="2">  1       -2 0.19381226E+00 0.99847785E+03</pdfrwt>
<totfact> 0.49977319E-01</totfact>
</mgrwt>
</event>
<event>
 4    1  0.2799069E-007  0.7993806E+03  0.7818608E-02  0.9712137E-01
          2   -1    0    0  501    0  0.00000000000E+00  0.00000000000E+00  0.76236971639E+03  0.76236971639E+03  0.25500000000E-02 0. -1.
         -2   -1    0    0    0  501 -0.00000000000E+00 -0.00000000000E+00 -0.72647815136E+03  0.72647815137E+03  0.25500000000E-02 0.  1.
    8880023    1    1    2    0    0 -0.32192347615E+03  0.31869166604E+03 -0.35173654368E+03  0.87334294806E+03  0.65864270000E+03 0.  1.
    8880022    1    1    2    0    0  0.32192347615E+03 -0.31869166604E+03  0.38762810871E+03  0.61550491970E+03  0.15294330000E+03 0. -1.
<mgrwt>
<rscale>  0 0.70298738E+03</rscale>
<asrwt>0</asrwt>
<pdfrwt beam="1">  1        2 0.11728765E+00 0.79938058E+03</pdfrwt>
<pdfrwt beam="2">  1       -2 0.11176587E+00 0.79938058E+03</pdfrwt>
<totfact> 0.23427370E+01</totfact>
</mgrwt>
</event>
<event>
 4    1  0.2799069E-007  0.6915551E+03  0.7818608E-02  0.1003422E+00
         -2   -1    0    0    0  501 -0.00000000000E+00  0.00000000000E+00  0.40873861218E+03  0.40873861219E+03  0.25500000000E-02 0.  1.
          2   -1    0    0  501    0  0.00000000000E+00 -0.00000000000E+00 -0.69819233075E+03  0.69819233076E+03  0.25500000000E-02 0. -1.
    8880023    1    1    2    0    0  0.20595110672E+03 -0.44971134606E+02  0.33113441333E+02  0.69234743270E+03  0.65864270000E+03 0.  0.
    8880022    1    1    2    0    0 -0.20595110672E+03  0.44971134606E+02 -0.32256715990E+03  0.41458351025E+03  0.15294330000E+03 0.  0.
<mgrwt>
<rscale>  0 0.54174855E+03</rscale>
<asrwt>0</asrwt>
<pdfrwt beam="1">  1        2 0.10741420E+00 0.69155511E+03</pdfrwt>
<pdfrwt beam="2">  1       -2 0.62882864E-01 0.69155511E+03</pdfrwt>
<totfact> 0.97866616E+01</totfact>
</mgrwt>
</event>
<event>
 4    1  0.2799069E-007  0.6722486E+03  0.7818608E-02  0.1014100E+00
         -2   -1    0    0    0  501 -0.00000000000E+00  0.00000000000E+00  0.90386900898E+03  0.90386900898E+03  0.25500000000E-02 0.  1.
          2   -1    0    0  501    0  0.00000000000E+00 -0.00000000000E+00 -0.14717716591E+04  0.14717716591E+04  0.25500000000E-02 0. -1.
    8880023    1    1    2    0    0 -0.58333441047E+02 -0.12126481279E+03  0.77008853279E+03  0.10222301599E+04  0.65864270000E+03 0.  1.
    8880022    1    1    2    0    0  0.58333441047E+02  0.12126481279E+03 -0.13379911829E+04  0.13534105082E+04  0.15294330000E+03 0.  0.
<mgrwt>
<rscale>  0 0.49877297E+03</rscale>
<asrwt>0</asrwt>
<pdfrwt beam="1">  1        2 0.22642641E+00 0.67224858E+03</pdfrwt>
<pdfrwt beam="2">  1       -2 0.13905677E+00 0.67224858E+03</pdfrwt>
<totfact> 0.49973070E+00</totfact>
</mgrwt>
</event>
<event>
 4    1  0.2799069E-007  0.8199893E+03  0.7818608E-02  0.9669133E-01
          2   -1    0    0  501    0  0.00000000000E+00  0.00000000000E+00  0.25083300643E+04  0.25083300643E+04  0.25500000000E-02 0. -1.
         -2   -1    0    0    0  501 -0.00000000000E+00 -0.00000000000E+00 -0.29907888775E+03  0.29907888776E+03  0.25500000000E-02 0.  1.
    8880023    1    1    2    0    0 -0.31018992829E+03 -0.37729878883E+03  0.37241494283E+03  0.90059717053E+03  0.65864270000E+03 0.  1.
    8880022    1    1    2    0    0  0.31018992829E+03  0.37729878883E+03  0.18368362337E+04  0.19068117815E+04  0.15294330000E+03 0.  0.
<mgrwt>
<rscale>  0 0.72884686E+03</rscale>
<asrwt>0</asrwt>
<pdfrwt beam="1">  1        2 0.38589691E+00 0.81998925E+03</pdfrwt>
<pdfrwt beam="2">  1       -2 0.46012139E-01 0.81998925E+03</pdfrwt>
<totfact> 0.15974833E+01</totfact>
</mgrwt>
</event>
<event>
 4    1  0.2799069E-007  0.1235981E+04  0.7818608E-02  0.9122915E-01
         -2   -1    0    0    0  501 -0.00000000000E+00  0.00000000000E+00  0.14415574752E+04  0.14415574752E+04  0.25500000000E-02 0.  1.
          2   -1    0    0  501    0  0.00000000000E+00 -0.00000000000E+00 -0.15805372540E+04  0.15805372540E+04  0.25500000000E-02 0. -1.
    8880023    1    1    2    0    0  0.69102948721E+03  0.78505909269E+03  0.90852873658E+03  0.15339733383E+04  0.65864270000E+03 0.  1.
    8880022    1    1    2    0    0 -0.69102948721E+03 -0.78505909269E+03 -0.10475085154E+04  0.14881213909E+04  0.15294330000E+03 0.  0.
<mgrwt>
<rscale>  0 0.11885756E+04</rscale>
<asrwt>0</asrwt>
<pdfrwt beam="1">  1        2 0.24315958E+00 0.12359813E+04</pdfrwt>
<pdfrwt beam="2">  1       -2 0.22177807E+00 0.12359813E+04</pdfrwt>
<totfact> 0.10642070E+00</totfact>
</mgrwt>
</event>
<event>
 4    1  0.2799069E-007  0.1398163E+04  0.7818608E-02  0.8985111E-01
         -2   -1    0    0    0  501 -0.00000000000E+00  0.00000000000E+00  0.16020385442E+04  0.16020385442E+04  0.25500000000E-02 0.  1.
          2   -1    0    0  501    0  0.00000000000E+00 -0.00000000000E+00 -0.13348838652E+04  0.13348838652E+04  0.25500000000E-02 0. -1.
    8880023    1    1    2    0    0  0.59596939033E+02  0.12318680475E+04  0.77013890585E+03  0.15962377086E+04  0.65864270000E+03 0.  0.
    8880022    1    1    2    0    0 -0.59596939033E+02 -0.12318680475E+04 -0.50298422680E+03  0.13406847009E+04  0.15294330000E+03 0.  0.
<mgrwt>
<rscale>  0 0.13575784E+04</rscale>
<asrwt>0</asrwt>
<pdfrwt beam="1">  1        2 0.20536675E+00 0.13981634E+04</pdfrwt>
<pdfrwt beam="2">  1       -2 0.24646747E+00 0.13981634E+04</pdfrwt>
<totfact> 0.10142556E+00</totfact>
</mgrwt>
</event>
<event>
 4    1  0.2799069E-007  0.7415192E+03  0.7818608E-02  0.9855544E-01
         -2   -1    0    0    0  501 -0.00000000000E+00  0.00000000000E+00  0.26480202842E+03  0.26480202844E+03  0.25500000000E-02 0.  1.
          2   -1    0    0  501    0  0.00000000000E+00 -0.00000000000E+00 -0.26335724067E+04  0.26335724067E+04  0.25500000000E-02 0. -1.
    8880023    1    1    2    0    0 -0.33005344804E+03  0.84292743956E+02 -0.30616115306E+03  0.80223774727E+03  0.65864270000E+03 0.  0.
    8880022    1    1    2    0    0  0.33005344804E+03 -0.84292743956E+02 -0.20626092252E+04  0.20961366879E+04  0.15294330000E+03 0.  0.
<mgrwt>
<rscale>  0 0.62465065E+03</rscale>
<asrwt>0</asrwt>
<pdfrwt beam="1">  1        2 0.40516497E+00 0.74151922E+03</pdfrwt>
<pdfrwt beam="2">  1       -2 0.40738775E-01 0.74151922E+03</pdfrwt>
<totfact> 0.17441172E+01</totfact>
</mgrwt>
</event>
<event>
 4    1  0.2799069E-007  0.1650260E+04  0.7818608E-02  0.8810229E-01
          2   -1    0    0  501    0  0.00000000000E+00  0.00000000000E+00  0.28010843356E+04  0.28010843356E+04  0.25500000000E-02 0. -1.
         -2   -1    0    0    0  501 -0.00000000000E+00 -0.00000000000E+00 -0.15272544781E+04  0.15272544781E+04  0.25500000000E-02 0.  1.
    8880023    1    1    2    0    0 -0.12273745369E+04 -0.88492923657E+03 -0.73683377949E+03  0.18072858745E+04  0.65864270000E+03 0.  1.
    8880022    1    1    2    0    0  0.12273745369E+04  0.88492923657E+03  0.20106636370E+04  0.25210529391E+04  0.15294330000E+03 0.  0.
<mgrwt>
<rscale>  0 0.16169062E+04</rscale>
<asrwt>0</asrwt>
<pdfrwt beam="1">  1        2 0.43093605E+00 0.16502600E+04</pdfrwt>
<pdfrwt beam="2">  1       -2 0.23496223E+00 0.16502600E+04</pdfrwt>
<totfact> 0.16961645E-01</totfact>
</mgrwt>
</event>
<event>
 4    1  0.2799069E-007  0.1475217E+04  0.7818608E-02  0.8927337E-01
          2   -1    0    0  501    0  0.00000000000E+00  0.00000000000E+00  0.20306871653E+04  0.20306871653E+04  0.25500000000E-02 0. -1.
         -2   -1    0    0    0  501 -0.00000000000E+00 -0.00000000000E+00 -0.12196121819E+04  0.12196121819E+04  0.25500000000E-02 0.  1.
    8880023    1    1    2    0    0  0.13105669182E+04 -0.15770225354E+03  0.11596992489E+04  0.18764776050E+04  0.65864270000E+03 0.  0.
    8880022    1    1    2    0    0 -0.13105669182E+04  0.15770225354E+03 -0.34862426549E+03  0.13738217422E+04  0.15294330000E+03 0.  0.
<mgrwt>
<rscale>  0 0.14371799E+04</rscale>
<asrwt>0</asrwt>
<pdfrwt beam="1">  1        2 0.31241341E+00 0.14752172E+04</pdfrwt>
<pdfrwt beam="2">  1       -2 0.18763264E+00 0.14752172E+04</pdfrwt>
<totfact> 0.97359074E-01</totfact>
</mgrwt>
</event>
<event>
 4    1  0.2799069E-007  0.1347479E+04  0.7818608E-02  0.9025606E-01
         -2   -1    0    0    0  501 -0.00000000000E+00  0.00000000000E+00  0.15315055693E+04  0.15315055693E+04  0.25500000000E-02 0.  1.
          2   -1    0    0  501    0  0.00000000000E+00 -0.00000000000E+00 -0.16175461159E+04  0.16175461159E+04  0.25500000000E-02 0. -1.
    8880023    1    1    2    0    0  0.53046945453E+03 -0.10490427979E+04  0.88884225074E+03  0.16142302769E+04  0.65864270000E+03 0.  0.
    8880022    1    1    2    0    0 -0.53046945453E+03  0.10490427979E+04 -0.97488279728E+03  0.15348214083E+04  0.15294330000E+03 0.  0.
<mgrwt>
<rscale>  0 0.13050039E+04</rscale>
<asrwt>0</asrwt>
<pdfrwt beam="1">  1        2 0.24885325E+00 0.13474787E+04</pdfrwt>
<pdfrwt beam="2">  1       -2 0.23561624E+00 0.13474787E+04</pdfrwt>
<totfact> 0.82077101E-01</totfact>
</mgrwt>
</event>
<event>
 4    1  0.2799069E-007  0.8095876E+03  0.7818608E-02  0.9690437E-01
          2   -1    0    0  501    0  0.00000000000E+00  0.00000000000E+00  0.74497913845E+03  0.74497913845E+03  0.25500000000E-02 0. -1.
         -2   -1    0    0    0  501 -0.00000000000E+00 -0.00000000000E+00 -0.79297056500E+03  0.79297056501E+03  0.25500000000E-02 0.  1.
    8880023    1    1    2    0    0  0.35223858088E+03  0.31232967815E+03 -0.42628292224E+03  0.91495856834E+03  0.65864270000E+03 0.  1.
    8880022    1    1    2    0    0 -0.35223858088E+03 -0.31232967815E+03  0.37829149569E+03  0.62299113512E+03  0.15294330000E+03 0. -1.
<mgrwt>
<rscale>  0 0.71589055E+03</rscale>
<asrwt>0</asrwt>
<pdfrwt beam="1">  1        2 0.11461218E+00 0.80958758E+03</pdfrwt>
<pdfrwt beam="2">  1       -2 0.12199547E+00 0.80958758E+03</pdfrwt>
<totfact> 0.19444826E+01</totfact>
</mgrwt>
</event>
<event>
 4    1  0.2799069E-007  0.1060341E+04  0.7818608E-02  0.9306552E-01
          2   -1    0    0  501    0  0.00000000000E+00  0.00000000000E+00  0.95205505827E+03  0.95205505828E+03  0.25500000000E-02 0. -1.
         -2   -1    0    0    0  501 -0.00000000000E+00 -0.00000000000E+00 -0.13825297730E+04  0.13825297730E+04  0.25500000000E-02 0.  1.
    8880023    1    1    2    0    0  0.81698381901E+03 -0.15182241554E+03 -0.87961764627E+03  0.13776973602E+04  0.65864270000E+03 0.  0.
    8880022    1    1    2    0    0 -0.81698381901E+03  0.15182241554E+03  0.44914293153E+03  0.95688747110E+03  0.15294330000E+03 0.  0.
<mgrwt>
<rscale>  0 0.10018187E+04</rscale>
<asrwt>0</asrwt>
<pdfrwt beam="1">  1        2 0.14647001E+00 0.10603409E+04</pdfrwt>
<pdfrwt beam="2">  1       -2 0.21269689E+00 0.10603409E+04</pdfrwt>
<totfact> 0.29381190E+00</totfact>
</mgrwt>
</event>
<event>
 4    1  0.2799069E-007  0.9278426E+03  0.7818608E-02  0.9482737E-01
          2   -1    0    0  501    0  0.00000000000E+00  0.00000000000E+00  0.31227839846E+04  0.31227839846E+04  0.25500000000E-02 0. -1.
         -2   -1    0    0    0  501 -0.00000000000E+00 -0.00000000000E+00 -0.36102917600E+03  0.36102917600E+03  0.25500000000E-02 0.  1.
    8880023    1    1    2    0    0 -0.11508176071E+03  0.64330226033E+03  0.26444058672E+04  0.28024586003E+04  0.65864270000E+03 0.  0.
    8880022    1    1    2    0    0  0.11508176071E+03 -0.64330226033E+03  0.11734894144E+03  0.68135456032E+03  0.15294330000E+03 0.  0.
<mgrwt>
<rscale>  0 0.85568584E+03</rscale>
<asrwt>0</asrwt>
<pdfrwt beam="1">  1        2 0.48042831E+00 0.92784256E+03</pdfrwt>
<pdfrwt beam="2">  1       -2 0.55542949E-01 0.92784256E+03</pdfrwt>
<totfact> 0.45979467E+00</totfact>
</mgrwt>
</event>
<event>
 4    1  0.2799069E-007  0.1727208E+04  0.7818608E-02  0.8763908E-01
         -2   -1    0    0    0  501 -0.00000000000E+00  0.00000000000E+00  0.90878844483E+03  0.90878844484E+03  0.25500000000E-02 0.  1.
          2   -1    0    0  501    0  0.00000000000E+00 -0.00000000000E+00 -0.43385052751E+04  0.43385052751E+04  0.25500000000E-02 0. -1.
    8880023    1    1    2    0    0  0.13023118671E+04  0.92380742299E+03 -0.33185116072E+03  0.17587983833E+04  0.65864270000E+03 0.  0.
    8880022    1    1    2    0    0 -0.13023118671E+04 -0.92380742299E+03 -0.30978656696E+04  0.34884953366E+04  0.15294330000E+03 0.  0.
<mgrwt>
<rscale>  0 0.16955468E+04</rscale>
<asrwt>0</asrwt>
<pdfrwt beam="1">  1        2 0.66746234E+00 0.17272077E+04</pdfrwt>
<pdfrwt beam="2">  1       -2 0.13981361E+00 0.17272077E+04</pdfrwt>
<totfact> 0.59260825E-02</totfact>
</mgrwt>
</event>
<event>
 4    1  0.2799069E-007  0.1075971E+04  0.7818608E-02  0.9288293E-01
          2   -1    0    0  501    0  0.00000000000E+00  0.00000000000E+00  0.47540701256E+04  0.47540701256E+04  0.25500000000E-02 0. -1.
         -2   -1    0    0    0  501 -0.00000000000E+00 -0.00000000000E+00 -0.51447820489E+03  0.51447820489E+03  0.25500000000E-02 0.  1.
    8880023    1    1    2    0    0  0.77298277743E+03  0.35552815867E+03  0.14736970435E+03  0.10860159676E+04  0.65864270000E+03 0.  0.
    8880022    1    1    2    0    0 -0.77298277743E+03 -0.35552815867E+03  0.40922222164E+04  0.41825323629E+04  0.15294330000E+03 0.  0.
<mgrwt>
<rscale>  0 0.10186777E+04</rscale>
<asrwt>0</asrwt>
<pdfrwt beam="1">  1        2 0.73139539E+00 0.10759707E+04</pdfrwt>
<pdfrwt beam="2">  1       -2 0.79150495E-01 0.10759707E+04</pdfrwt>
<totfact> 0.10146902E-01</totfact>
</mgrwt>
</event>
<event>
 4    1  0.2799069E-007  0.1382454E+04  0.7818608E-02  0.8997438E-01
         -2   -1    0    0    0  501 -0.00000000000E+00  0.00000000000E+00  0.14351140853E+04  0.14351140853E+04  0.25500000000E-02 0.  1.
          2   -1    0    0  501    0  0.00000000000E+00 -0.00000000000E+00 -0.28015733374E+04  0.28015733374E+04  0.25500000000E-02 0. -1.
    8880023    1    1    2    0    0  0.10158321136E+04 -0.66742294216E+03  0.90752115612E+03  0.16537149458E+04  0.65864270000E+03 0.  0.
    8880022    1    1    2    0    0 -0.10158321136E+04  0.66742294216E+03 -0.22739804082E+04  0.25829724770E+04  0.15294330000E+03 0.  0.
<mgrwt>
<rscale>  0 0.13413029E+04</rscale>
<asrwt>0</asrwt>
<pdfrwt beam="1">  1        2 0.43101128E+00 0.13824538E+04</pdfrwt>
<pdfrwt beam="2">  1       -2 0.22078678E+00 0.13824538E+04</pdfrwt>
<totfact> 0.21517265E-01</totfact>
</mgrwt>
</event>
<event>
 4    1  0.2799069E-007  0.7227379E+03  0.7818608E-02  0.9913428E-01
          2   -1    0    0  501    0  0.00000000000E+00  0.00000000000E+00  0.30901553053E+04  0.30901553053E+04  0.25500000000E-02 0. -1.
         -2   -1    0    0    0  501 -0.00000000000E+00 -0.00000000000E+00 -0.24989242715E+03  0.24989242716E+03  0.25500000000E-02 0.  1.
    8880023    1    1    2    0    0 -0.25604265870E+03  0.15159828566E+03  0.30775038537E+03  0.78553191485E+03  0.65864270000E+03 0.  1.
    8880022    1    1    2    0    0  0.25604265870E+03 -0.15159828566E+03  0.25325124928E+04  0.25545158176E+04  0.15294330000E+03 0.  0.
<mgrwt>
<rscale>  0 0.59614882E+03</rscale>
<asrwt>0</asrwt>
<pdfrwt beam="1">  1        2 0.47540850E+00 0.72273791E+03</pdfrwt>
<pdfrwt beam="2">  1       -2 0.38444989E-01 0.72273791E+03</pdfrwt>
<totfact> 0.10450711E+01</totfact>
</mgrwt>
</event>
<event>
 4    1  0.2799069E-007  0.1073112E+04  0.7818608E-02  0.9291600E-01
          2   -1    0    0  501    0  0.00000000000E+00  0.00000000000E+00  0.15356046587E+04  0.15356046587E+04  0.25500000000E-02 0. -1.
         -2   -1    0    0    0  501 -0.00000000000E+00 -0.00000000000E+00 -0.13530636735E+04  0.13530636735E+04  0.25500000000E-02 0.  1.
    8880023    1    1    2    0    0 -0.82133957660E+03 -0.20775267645E+03 -0.97241399604E+03  0.14481571257E+04  0.65864270000E+03 0.  0.
    8880022    1    1    2    0    0  0.82133957660E+03  0.20775267645E+03  0.11549549812E+04  0.14405112066E+04  0.15294330000E+03 0.  0.
<mgrwt>
<rscale>  0 0.10155990E+04</rscale>
<asrwt>0</asrwt>
<pdfrwt beam="1">  1        2 0.23624687E+00 0.10731123E+04</pdfrwt>
<pdfrwt beam="2">  1       -2 0.20816364E+00 0.10731123E+04</pdfrwt>
<totfact> 0.14046145E+00</totfact>
</mgrwt>
</event>
<event>
 4    1  0.2799069E-007  0.6661286E+03  0.7818608E-02  0.1018605E+00
          2   -1    0    0  501    0  0.00000000000E+00  0.00000000000E+00  0.19756519278E+04  0.19756519278E+04  0.25500000000E-02 0. -1.
         -2   -1    0    0    0  501 -0.00000000000E+00 -0.00000000000E+00 -0.49411349774E+03  0.49411349774E+03  0.25500000000E-02 0.  1.
    8880023    1    1    2    0    0 -0.96010338320E+02 -0.26439958240E+02 -0.26266116644E+03  0.71604340027E+03  0.65864270000E+03 0.  1.
    8880022    1    1    2    0    0  0.96010338320E+02  0.26439958240E+02  0.17441995965E+04  0.17537220253E+04  0.15294330000E+03 0.  0.
<mgrwt>
<rscale>  0 0.48193478E+03</rscale>
<asrwt>0</asrwt>
<pdfrwt beam="1">  1        2 0.30394645E+00 0.66612856E+03</pdfrwt>
<pdfrwt beam="2">  1       -2 0.76017461E-01 0.66612856E+03</pdfrwt>
<totfact> 0.11200459E+01</totfact>
</mgrwt>
</event>
<event>
 4    1  0.2799069E-007  0.8324837E+03  0.7818608E-02  0.9644519E-01
          2   -1    0    0  501    0  0.00000000000E+00  0.00000000000E+00  0.21893757133E+04  0.21893757133E+04  0.25500000000E-02 0. -1.
         -2   -1    0    0    0  501 -0.00000000000E+00 -0.00000000000E+00 -0.24217413850E+03  0.24217413852E+03  0.25500000000E-02 0.  1.
    8880023    1    1    2    0    0  0.50420146809E+03 -0.70708658362E+02  0.74544150720E+03  0.11174578657E+04  0.65864270000E+03 0.  1.
    8880022    1    1    2    0    0 -0.50420146809E+03  0.70708658362E+02  0.12017600676E+04  0.13140919861E+04  0.15294330000E+03 0.  0.
<mgrwt>
<rscale>  0 0.74418399E+03</rscale>
<asrwt>0</asrwt>
<pdfrwt beam="1">  1        2 0.33682703E+00 0.83248366E+03</pdfrwt>
<pdfrwt beam="2">  1       -2 0.37257560E-01 0.83248366E+03</pdfrwt>
<totfact> 0.36438415E+01</totfact>
</mgrwt>
</event>
<event>
 4    1  0.2799069E-007  0.8469007E+03  0.7818608E-02  0.9617303E-01
          2   -1    0    0  501    0  0.00000000000E+00  0.00000000000E+00  0.28922009653E+03  0.28922009655E+03  0.25500000000E-02 0. -1.
         -2   -1    0    0    0  501 -0.00000000000E+00 -0.00000000000E+00 -0.18067895194E+04  0.18067895194E+04  0.25500000000E-02 0.  1.
    8880023    1    1    2    0    0  0.34192480912E+03 -0.40806619963E+03 -0.11616855371E+04  0.14376209834E+04  0.65864270000E+03 0.  0.
    8880022    1    1    2    0    0 -0.34192480912E+03  0.40806619963E+03 -0.35588388573E+03  0.65838863258E+03  0.15294330000E+03 0.  0.
<mgrwt>
<rscale>  0 0.76161454E+03</rscale>
<asrwt>0</asrwt>
<pdfrwt beam="1">  1        2 0.44495401E-01 0.84690071E+03</pdfrwt>
<pdfrwt beam="2">  1       -2 0.27796761E+00 0.84690071E+03</pdfrwt>
<totfact> 0.50653342E+00</totfact>
</mgrwt>
</event>
<event>
 4    1  0.2799069E-007  0.8152205E+03  0.7818608E-02  0.9678804E-01
          2   -1    0    0  501    0  0.00000000000E+00  0.00000000000E+00  0.90222695388E+03  0.90222695389E+03  0.25500000000E-02 0. -1.
         -2   -1    0    0    0  501 -0.00000000000E+00 -0.00000000000E+00 -0.52163855818E+03  0.52163855819E+03  0.25500000000E-02 0.  1.
    8880023    1    1    2    0    0 -0.24427655928E+03  0.41364623006E+03  0.41470735173E+02  0.81627462854E+03  0.65864270000E+03 0.  0.
    8880022    1    1    2    0    0  0.24427655928E+03 -0.41364623006E+03  0.33911766053E+03  0.60759088354E+03  0.15294330000E+03 0.  0.
<mgrwt>
<rscale>  0 0.72292955E+03</rscale>
<asrwt>0</asrwt>
<pdfrwt beam="1">  1        2 0.13880415E+00 0.81522049E+03</pdfrwt>
<pdfrwt beam="2">  1       -2 0.80252086E-01 0.81522049E+03</pdfrwt>
<totfact> 0.40477682E+01</totfact>
</mgrwt>
</event>
<event>
 4    1  0.2799069E-007  0.1630354E+04  0.7818608E-02  0.8822682E-01
         -2   -1    0    0    0  501 -0.00000000000E+00  0.00000000000E+00  0.25301439176E+04  0.25301439176E+04  0.25500000000E-02 0.  1.
          2   -1    0    0  501    0  0.00000000000E+00 -0.00000000000E+00 -0.14768163747E+04  0.14768163747E+04  0.25500000000E-02 0. -1.
    8880023    1    1    2    0    0 -0.32916654950E+03  0.14546112934E+04  0.17167245511E+04  0.23675299413E+04  0.65864270000E+03 0.  0.
    8880022    1    1    2    0    0  0.32916654950E+03 -0.14546112934E+04 -0.66339700818E+03  0.16394303510E+04  0.15294330000E+03 0.  0.
<mgrwt>
<rscale>  0 0.15965305E+04</rscale>
<asrwt>0</asrwt>
<pdfrwt beam="1">  1        2 0.22720252E+00 0.16303542E+04</pdfrwt>
<pdfrwt beam="2">  1       -2 0.38925291E+00 0.16303542E+04</pdfrwt>
<totfact> 0.10598009E-01</totfact>
</mgrwt>
</event>
<event>
 4    1  0.2799069E-007  0.1722208E+04  0.7818608E-02  0.8766834E-01
          2   -1    0    0  501    0  0.00000000000E+00  0.00000000000E+00  0.31780077376E+04  0.31780077376E+04  0.25500000000E-02 0. -1.
         -2   -1    0    0    0  501 -0.00000000000E+00 -0.00000000000E+00 -0.23113233627E+04  0.23113233627E+04  0.25500000000E-02 0.  1.
    8880023    1    1    2    0    0 -0.13013699170E+04 -0.91576643779E+03 -0.17293107983E+04  0.24405978515E+04  0.65864270000E+03 0.  1.
    8880022    1    1    2    0    0  0.13013699170E+04  0.91576643779E+03  0.25959951732E+04  0.30487332488E+04  0.15294330000E+03 0.  0.
<mgrwt>
<rscale>  0 0.16904431E+04</rscale>
<asrwt>0</asrwt>
<pdfrwt beam="1">  1        2 0.48892427E+00 0.17222085E+04</pdfrwt>
<pdfrwt beam="2">  1       -2 0.35558821E+00 0.17222085E+04</pdfrwt>
<totfact> 0.17561836E-02</totfact>
</mgrwt>
</event>
<event>
 4    1  0.2799069E-007  0.8094119E+03  0.7818608E-02  0.9690803E-01
         -2   -1    0    0    0  501 -0.00000000000E+00  0.00000000000E+00  0.89959988181E+03  0.89959988181E+03  0.25500000000E-02 0.  1.
          2   -1    0    0  501    0  0.00000000000E+00 -0.00000000000E+00 -0.20172295242E+04  0.20172295242E+04  0.25500000000E-02 0. -1.
    8880023    1    1    2    0    0 -0.34479621079E+01 -0.47045242334E+03  0.67703134091E+03  0.10552341038E+04  0.65864270000E+03 0.  0.
    8880022    1    1    2    0    0  0.34479621079E+01  0.47045242334E+03 -0.17946609833E+04  0.18615953022E+04  0.15294330000E+03 0.  0.
<mgrwt>
<rscale>  0 0.71567008E+03</rscale>
<asrwt>0</asrwt>
<pdfrwt beam="1">  1        2 0.31034300E+00 0.80941187E+03</pdfrwt>
<pdfrwt beam="2">  1       -2 0.13839998E+00 0.80941187E+03</pdfrwt>
<totfact> 0.24837338E+00</totfact>
</mgrwt>
</event>
<event>
 4    1  0.3697015E-007  0.1580795E+04  0.7818608E-02  0.8854595E-01
         -2   -1    0    0    0  501 -0.00000000000E+00  0.00000000000E+00  0.20890995913E+04  0.20890995913E+04  0.25500000000E-02 0.  1.
          2   -1    0    0  501    0  0.00000000000E+00 -0.00000000000E+00 -0.28977032565E+04  0.28977032565E+04  0.25500000000E-02 0. -1.
    8880023    1    1    2    0    0  0.11755154481E+04  0.82659970954E+03  0.15543472602E+04  0.22169594629E+04  0.65864270000E+03 0.  0.
    8880022    1    1    2    0    0 -0.11755154481E+04 -0.82659970954E+03 -0.23629509254E+04  0.27698433849E+04  0.15294330000E+03 0.  0.
<mgrwt>
<rscale>  0 0.15457381E+04</rscale>
<asrwt>0</asrwt>
<pdfrwt beam="1">  1        2 0.44580050E+00 0.15807953E+04</pdfrwt>
<pdfrwt beam="2">  1       -2 0.32139994E+00 0.15807953E+04</pdfrwt>
<totfact> 0.44004042E-02</totfact>
</mgrwt>
</event>
<event>
 4    1  0.2799069E-007  0.7080362E+03  0.7818608E-02  0.9965367E-01
         -2   -1    0    0    0  501 -0.00000000000E+00  0.00000000000E+00  0.96893014910E+03  0.96893014910E+03  0.25500000000E-02 0.  1.
          2   -1    0    0  501    0  0.00000000000E+00 -0.00000000000E+00 -0.80889067133E+03  0.80889067134E+03  0.25500000000E-02 0. -1.
    8880023    1    1    2    0    0 -0.25979554271E+03  0.33594885267E+01  0.80125467125E+03  0.10692634215E+04  0.65864270000E+03 0.  1.
    8880022    1    1    2    0    0  0.25979554271E+03 -0.33594885267E+01 -0.64121519348E+03  0.70855739891E+03  0.15294330000E+03 0.  0.
<mgrwt>
<rscale>  0 0.57195265E+03</rscale>
<asrwt>0</asrwt>
<pdfrwt beam="1">  1        2 0.12444472E+00 0.70803617E+03</pdfrwt>
<pdfrwt beam="2">  1       -2 0.14906618E+00 0.70803617E+03</pdfrwt>
<totfact> 0.10557725E+01</totfact>
</mgrwt>
</event>
<event>
 4    1  0.2799069E-007  0.1282689E+04  0.7818608E-02  0.9080655E-01
         -2   -1    0    0    0  501 -0.00000000000E+00  0.00000000000E+00  0.67924316635E+03  0.67924316635E+03  0.25500000000E-02 0.  1.
          2   -1    0    0  501    0  0.00000000000E+00 -0.00000000000E+00 -0.27035535712E+04  0.27035535712E+04  0.25500000000E-02 0. -1.
    8880023    1    1    2    0    0  0.10782447546E+04 -0.22106315208E+03 -0.27731814171E+03  0.13123247410E+04  0.65864270000E+03 0.  0.
    8880022    1    1    2    0    0 -0.10782447546E+04  0.22106315208E+03 -0.17469922632E+04  0.20704719966E+04  0.15294330000E+03 0.  0.
<mgrwt>
<rscale>  0 0.12374959E+04</rscale>
<asrwt>0</asrwt>
<pdfrwt beam="1">  1        2 0.41593131E+00 0.12826889E+04</pdfrwt>
<pdfrwt beam="2">  1       -2 0.10449895E+00 0.12826889E+04</pdfrwt>
<totfact> 0.19171935E+00</totfact>
</mgrwt>
</event>
<event>
 4    1  0.2799069E-007  0.9149105E+03  0.7818608E-02  0.9502507E-01
          2   -1    0    0  501    0  0.00000000000E+00  0.00000000000E+00  0.25018969732E+04  0.25018969732E+04  0.25500000000E-02 0. -1.
         -2   -1    0    0    0  501 -0.00000000000E+00 -0.00000000000E+00 -0.54650133971E+03  0.54650133972E+03  0.25500000000E-02 0.  1.
    8880023    1    1    2    0    0  0.63410764648E+03 -0.34035792739E+02 -0.72622344476E+02  0.91778818564E+03  0.65864270000E+03 0.  1.
    8880022    1    1    2    0    0 -0.63410764648E+03  0.34035792739E+02  0.20280179780E+04  0.21306101273E+04  0.15294330000E+03 0.  0.
<mgrwt>
<rscale>  0 0.84099221E+03</rscale>
<asrwt>0</asrwt>
<pdfrwt beam="1">  1        2 0.38490722E+00 0.91491046E+03</pdfrwt>
<pdfrwt beam="2">  1       -2 0.84077130E-01 0.91491046E+03</pdfrwt>
<totfact> 0.43839528E+00</totfact>
</mgrwt>
</event>
<event>
 4    1  0.2799069E-007  0.9429377E+03  0.7818608E-02  0.9460349E-01
         -2   -1    0    0    0  501 -0.00000000000E+00  0.00000000000E+00  0.79635715076E+03  0.79635715076E+03  0.25500000000E-02 0.  1.
          2   -1    0    0  501    0  0.00000000000E+00 -0.00000000000E+00 -0.10205355623E+04  0.10205355623E+04  0.25500000000E-02 0. -1.
    8880023    1    1    2    0    0  0.67338365398E+03  0.43310872409E+02  0.25314530526E+03  0.97632685560E+03  0.65864270000E+03 0.  0.
    8880022    1    1    2    0    0 -0.67338365398E+03 -0.43310872409E+02 -0.47732371683E+03  0.84056585749E+03  0.15294330000E+03 0.  0.
<mgrwt>
<rscale>  0 0.87271345E+03</rscale>
<asrwt>0</asrwt>
<pdfrwt beam="1">  1        2 0.15700547E+00 0.94293774E+03</pdfrwt>
<pdfrwt beam="2">  1       -2 0.12251648E+00 0.94293774E+03</pdfrwt>
<totfact> 0.12289929E+01</totfact>
</mgrwt>
</event>
<event>
 4    1  0.2799069E-007  0.1771693E+04  0.7818608E-02  0.8738358E-01
         -2   -1    0    0    0  501 -0.00000000000E+00  0.00000000000E+00  0.13448376979E+04  0.13448376979E+04  0.25500000000E-02 0.  1.
          2   -1    0    0  501    0  0.00000000000E+00 -0.00000000000E+00 -0.30130336119E+04  0.30130336119E+04  0.25500000000E-02 0. -1.
    8880023    1    1    2    0    0  0.19234427483E+03 -0.16334291307E+04 -0.20012616088E+04  0.26728159829E+04  0.65864270000E+03 0.  0.
    8880022    1    1    2    0    0 -0.19234427483E+03  0.16334291307E+04  0.33306569482E+03  0.16850553270E+04  0.15294330000E+03 0.  0.
<mgrwt>
<rscale>  0 0.17409307E+04</rscale>
<asrwt>0</asrwt>
<pdfrwt beam="1">  1        2 0.46354363E+00 0.17716933E+04</pdfrwt>
<pdfrwt beam="2">  1       -2 0.20689811E+00 0.17716933E+04</pdfrwt>
<totfact> 0.18711135E-01</totfact>
</mgrwt>
</event>
<event>
 4    1  0.2799069E-007  0.6823588E+03  0.7818608E-02  0.1008020E+00
          2   -1    0    0  501    0  0.00000000000E+00  0.00000000000E+00  0.49133873203E+03  0.49133873204E+03  0.25500000000E-02 0. -1.
         -2   -1    0    0    0  501 -0.00000000000E+00 -0.00000000000E+00 -0.18390781137E+04  0.18390781137E+04  0.25500000000E-02 0.  1.
    8880023    1    1    2    0    0  0.17506526746E+03  0.33992689824E+02 -0.17423291369E+04  0.18711826149E+04  0.65864270000E+03 0.  1.
    8880022    1    1    2    0    0 -0.17506526746E+03 -0.33992689824E+02  0.39458975522E+03  0.45923423083E+03  0.15294330000E+03 0.  0.
<mgrwt>
<rscale>  0 0.52269347E+03</rscale>
<asrwt>0</asrwt>
<pdfrwt beam="1">  1        2 0.75590575E-01 0.68235882E+03</pdfrwt>
<pdfrwt beam="2">  1       -2 0.28293509E+00 0.68235882E+03</pdfrwt>
<totfact> 0.26617133E+00</totfact>
</mgrwt>
</event>
<event>
 4    1  0.2799069E-007  0.8006228E+03  0.7818608E-02  0.9709451E-01
          2   -1    0    0  501    0  0.00000000000E+00  0.00000000000E+00  0.11571196089E+04  0.11571196089E+04  0.25500000000E-02 0. -1.
         -2   -1    0    0    0  501 -0.00000000000E+00 -0.00000000000E+00 -0.14794942221E+04  0.14794942221E+04  0.25500000000E-02 0.  1.
    8880023    1    1    2    0    0 -0.37607907115E+03  0.25641993388E+03 -0.13118013734E+04  0.15368212973E+04  0.65864270000E+03 0.  0.
    8880022    1    1    2    0    0  0.37607907115E+03 -0.25641993388E+03  0.98942676027E+03  0.10997925337E+04  0.15294330000E+03 0.  0.
<mgrwt>
<rscale>  0 0.70456857E+03</rscale>
<asrwt>0</asrwt>
<pdfrwt beam="1">  1        2 0.17801840E+00 0.80062279E+03</pdfrwt>
<pdfrwt beam="2">  1       -2 0.22761449E+00 0.80062279E+03</pdfrwt>
<totfact> 0.18194879E+00</totfact>
</mgrwt>
</event>
<event>
 4    1  0.2799069E-007  0.6801232E+03  0.7818608E-02  0.1009254E+00
          2   -1    0    0  501    0  0.00000000000E+00  0.00000000000E+00  0.13576804467E+04  0.13576804467E+04  0.25500000000E-02 0. -1.
         -2   -1    0    0    0  501 -0.00000000000E+00 -0.00000000000E+00 -0.38001410063E+03  0.38001410064E+03  0.25500000000E-02 0.  1.
    8880023    1    1    2    0    0 -0.16607915043E+03 -0.34279917013E+02 -0.52855226841E+02  0.68217393543E+03  0.65864270000E+03 0.  1.
    8880022    1    1    2    0    0  0.16607915043E+03  0.34279917013E+02  0.10305215729E+04  0.10555206119E+04  0.15294330000E+03 0.  0.
<mgrwt>
<rscale>  0 0.51772186E+03</rscale>
<asrwt>0</asrwt>
<pdfrwt beam="1">  1        2 0.20887391E+00 0.68012323E+03</pdfrwt>
<pdfrwt beam="2">  1       -2 0.58463708E-01 0.68012323E+03</pdfrwt>
<totfact> 0.43039400E+01</totfact>
</mgrwt>
</event>
<event>
 4    1  0.2799069E-007  0.1101866E+04  0.7818608E-02  0.9258982E-01
          2   -1    0    0  501    0  0.00000000000E+00  0.00000000000E+00  0.44689258148E+04  0.44689258148E+04  0.25500000000E-02 0. -1.
         -2   -1    0    0    0  501 -0.00000000000E+00 -0.00000000000E+00 -0.38345538750E+03  0.38345538751E+03  0.25500000000E-02 0.  1.
    8880023    1    1    2    0    0  0.70201993446E+03  0.53615799444E+03  0.60238774077E+03  0.12557780775E+04  0.65864270000E+03 0.  0.
    8880022    1    1    2    0    0 -0.70201993446E+03 -0.53615799444E+03  0.34830826865E+04  0.35966031249E+04  0.15294330000E+03 0.  0.
<mgrwt>
<rscale>  0 0.10464836E+04</rscale>
<asrwt>0</asrwt>
<pdfrwt beam="1">  1        2 0.68752704E+00 0.11018655E+04</pdfrwt>
<pdfrwt beam="2">  1       -2 0.58993138E-01 0.11018655E+04</pdfrwt>
<totfact> 0.37306670E-01</totfact>
</mgrwt>
</event>
<event>
 4    1  0.2799069E-007  0.9506892E+03  0.7818608E-02  0.9449123E-01
          2   -1    0    0  501    0  0.00000000000E+00  0.00000000000E+00  0.22136200790E+04  0.22136200790E+04  0.25500000000E-02 0. -1.
         -2   -1    0    0    0  501 -0.00000000000E+00 -0.00000000000E+00 -0.92877870966E+03  0.92877870967E+03  0.25500000000E-02 0.  1.
    8880023    1    1    2    0    0  0.50765601501E+03 -0.46074415093E+03 -0.60457365509E+03  0.11266407204E+04  0.65864270000E+03 0.  1.
    8880022    1    1    2    0    0 -0.50765601501E+03  0.46074415093E+03  0.18894150244E+04  0.20157580683E+04  0.15294330000E+03 0.  0.
<mgrwt>
<rscale>  0 0.88140982E+03</rscale>
<asrwt>0</asrwt>
<pdfrwt beam="1">  1        2 0.34055693E+00 0.95068923E+03</pdfrwt>
<pdfrwt beam="2">  1       -2 0.14288903E+00 0.95068923E+03</pdfrwt>
<totfact> 0.17419249E+00</totfact>
</mgrwt>
</event>
<event>
 4    1  0.2799069E-007  0.6901817E+03  0.7818608E-02  0.1004066E+00
          2   -1    0    0  501    0  0.00000000000E+00  0.00000000000E+00  0.78328489402E+03  0.78328489403E+03  0.25500000000E-02 0. -1.
         -2   -1    0    0    0  501 -0.00000000000E+00 -0.00000000000E+00 -0.40658114224E+03  0.40658114225E+03  0.25500000000E-02 0.  1.
    8880023    1    1    2    0    0  0.88180440206E+02 -0.18645317656E+03 -0.49861398553E+02  0.69198044944E+03  0.65864270000E+03 0.  1.
    8880022    1    1    2    0    0 -0.88180440206E+02  0.18645317656E+03  0.42656515033E+03  0.49788558683E+03  0.15294330000E+03 0.  0.
<mgrwt>
<rscale>  0 0.53902611E+03</rscale>
<asrwt>0</asrwt>
<pdfrwt beam="1">  1        2 0.12050537E+00 0.69018170E+03</pdfrwt>
<pdfrwt beam="2">  1       -2 0.62550945E-01 0.69018170E+03</pdfrwt>
<totfact> 0.85401152E+01</totfact>
</mgrwt>
</event>
<event>
 4    1  0.2799069E-007  0.6731170E+03  0.7818608E-02  0.1013520E+00
          2   -1    0    0  501    0  0.00000000000E+00  0.00000000000E+00  0.13404748417E+04  0.13404748417E+04  0.25500000000E-02 0. -1.
         -2   -1    0    0    0  501 -0.00000000000E+00 -0.00000000000E+00 -0.41184422294E+03  0.41184422295E+03  0.25500000000E-02 0.  1.
    8880023    1    1    2    0    0 -0.12776916461E+03 -0.54326173367E+02 -0.11983365434E+03  0.68370066807E+03  0.65864270000E+03 0.  1.
    8880022    1    1    2    0    0  0.12776916461E+03  0.54326173367E+02  0.10484642731E+04  0.10686183966E+04  0.15294330000E+03 0.  0.
<mgrwt>
<rscale>  0 0.50099182E+03</rscale>
<asrwt>0</asrwt>
<pdfrwt beam="1">  1        2 0.20622690E+00 0.67311700E+03</pdfrwt>
<pdfrwt beam="2">  1       -2 0.63360649E-01 0.67311700E+03</pdfrwt>
<totfact> 0.37163488E+01</totfact>
</mgrwt>
</event>
<event>
 4    1  0.2799069E-007  0.1104780E+04  0.7818608E-02  0.9255753E-01
         -2   -1    0    0    0  501 -0.00000000000E+00  0.00000000000E+00  0.68535456123E+03  0.68535456123E+03  0.25500000000E-02 0.  1.
          2   -1    0    0  501    0  0.00000000000E+00 -0.00000000000E+00 -0.20641431009E+04  0.20641431009E+04  0.25500000000E-02 0. -1.
    8880023    1    1    2    0    0 -0.30793161195E+02 -0.88644275617E+03 -0.22102518494E+01  0.11047823633E+04  0.65864270000E+03 0.  0.
    8880022    1    1    2    0    0  0.30793161195E+02  0.88644275617E+03 -0.13765782878E+04  0.16447152989E+04  0.15294330000E+03 0.  0.
<mgrwt>
<rscale>  0 0.10496043E+04</rscale>
<asrwt>0</asrwt>
<pdfrwt beam="1">  1        2 0.31756047E+00 0.11047802E+04</pdfrwt>
<pdfrwt beam="2">  1       -2 0.10543916E+00 0.11047802E+04</pdfrwt>
<totfact> 0.44271796E+00</totfact>
</mgrwt>
</event>
<event>
 4    1  0.2799069E-007  0.7177776E+03  0.7818608E-02  0.9930179E-01
          2   -1    0    0  501    0  0.00000000000E+00  0.00000000000E+00  0.28295565094E+04  0.28295565094E+04  0.25500000000E-02 0. -1.
         -2   -1    0    0    0  501 -0.00000000000E+00 -0.00000000000E+00 -0.46368697394E+03  0.46368697395E+03  0.25500000000E-02 0.  1.
    8880023    1    1    2    0    0  0.14317020038E+03  0.24677270082E+03 -0.16931433269E+03  0.73747679398E+03  0.65864270000E+03 0.  1.
    8880022    1    1    2    0    0 -0.14317020038E+03 -0.24677270082E+03  0.25351838681E+04  0.25557666893E+04  0.15294330000E+03 0.  0.
<mgrwt>
<rscale>  0 0.58820728E+03</rscale>
<asrwt>0</asrwt>
<pdfrwt beam="1">  1        2 0.43531638E+00 0.71777760E+03</pdfrwt>
<pdfrwt beam="2">  1       -2 0.71336459E-01 0.71777760E+03</pdfrwt>
<totfact> 0.42234495E+00</totfact>
</mgrwt>
</event>
<event>
 4    1  0.2799069E-007  0.8455899E+03  0.7818608E-02  0.9619729E-01
         -2   -1    0    0    0  501 -0.00000000000E+00  0.00000000000E+00  0.15134199719E+04  0.15134199719E+04  0.25500000000E-02 0.  1.
          2   -1    0    0  501    0  0.00000000000E+00 -0.00000000000E+00 -0.10198563594E+04  0.10198563594E+04  0.25500000000E-02 0. -1.
    8880023    1    1    2    0    0 -0.40931700950E+03 -0.33715231239E+03  0.13031549362E+04  0.15534590725E+04  0.65864270000E+03 0.  1.
    8880022    1    1    2    0    0  0.40931700950E+03  0.33715231239E+03 -0.80959132376E+03  0.97981725875E+03  0.15294330000E+03 0.  0.
<mgrwt>
<rscale>  0 0.76004053E+03</rscale>
<asrwt>0</asrwt>
<pdfrwt beam="1">  1        2 0.15690098E+00 0.84558991E+03</pdfrwt>
<pdfrwt beam="2">  1       -2 0.23283384E+00 0.84558991E+03</pdfrwt>
<totfact> 0.20387523E+00</totfact>
</mgrwt>
</event>
<event>
 4    1  0.2799069E-007  0.7269902E+03  0.7818608E-02  0.9899606E-01
         -2   -1    0    0    0  501 -0.00000000000E+00  0.00000000000E+00  0.73318965100E+03  0.73318965100E+03  0.25500000000E-02 0.  1.
          2   -1    0    0  501    0  0.00000000000E+00 -0.00000000000E+00 -0.41912463309E+03  0.41912463310E+03  0.25500000000E-02 0. -1.
    8880023    1    1    2    0    0 -0.10240485644E+03  0.29020289278E+03  0.34987831247E+03  0.80680202863E+03  0.65864270000E+03 0. -1.
    8880022    1    1    2    0    0  0.10240485644E+03 -0.29020289278E+03 -0.35813294564E+02  0.34551225547E+03  0.15294330000E+03 0.  0.
<mgrwt>
<rscale>  0 0.60280362E+03</rscale>
<asrwt>0</asrwt>
<pdfrwt beam="1">  1        2 0.64480713E-01 0.72699015E+03</pdfrwt>
<pdfrwt beam="2">  1       -2 0.11279841E+00 0.72699015E+03</pdfrwt>
<totfact> 0.47220118E+01</totfact>
</mgrwt>
</event>
<event>
 4    1  0.2799069E-007  0.9111146E+03  0.7818608E-02  0.9508420E-01
         -2   -1    0    0    0  501 -0.00000000000E+00  0.00000000000E+00  0.14845073837E+04  0.14845073837E+04  0.25500000000E-02 0.  1.
          2   -1    0    0  501    0  0.00000000000E+00 -0.00000000000E+00 -0.50437269254E+03  0.50437269254E+03  0.25500000000E-02 0. -1.
    8880023    1    1    2    0    0  0.11717639208E+03  0.61853806497E+03  0.98397047280E+03  0.13410174280E+04  0.65864270000E+03 0.  0.
    8880022    1    1    2    0    0 -0.11717639208E+03 -0.61853806497E+03 -0.38357816645E+01  0.64786264819E+03  0.15294330000E+03 0.  0.
<mgrwt>
<rscale>  0 0.83665921E+03</rscale>
<asrwt>0</asrwt>
<pdfrwt beam="1">  1        2 0.77595799E-01 0.91111462E+03</pdfrwt>
<pdfrwt beam="2">  1       -2 0.22838575E+00 0.91111462E+03</pdfrwt>
<totfact> 0.53677742E+00</totfact>
</mgrwt>
</event>
<event>
 4    1  0.2799069E-007  0.6591331E+03  0.7818608E-02  0.1025063E+00
          2   -1    0    0  501    0  0.00000000000E+00  0.00000000000E+00  0.97893215465E+03  0.97893215466E+03  0.25500000000E-02 0. -1.
         -2   -1    0    0    0  501 -0.00000000000E+00 -0.00000000000E+00 -0.20355265986E+03  0.20355265988E+03  0.25500000000E-02 0.  1.
    8880023    1    1    2    0    0  0.14835379210E+02 -0.20644054049E+02  0.38710431316E+03  0.76439925495E+03  0.65864270000E+03 0.  0.
    8880022    1    1    2    0    0 -0.14835379210E+02  0.20644054049E+02  0.38827518163E+03  0.41808555958E+03  0.15294330000E+03 0. -1.
<mgrwt>
<rscale>  0 0.45903094E+03</rscale>
<asrwt>0</asrwt>
<pdfrwt beam="1">  1        2 0.15060494E+00 0.65913312E+03</pdfrwt>
<pdfrwt beam="2">  1       -2 0.31315795E-01 0.65913312E+03</pdfrwt>
<totfact> 0.24932642E+02</totfact>
</mgrwt>
</event>
<event>
 4    1  0.2799069E-007  0.7299666E+03  0.7818608E-02  0.9890201E-01
          2   -1    0    0  501    0  0.00000000000E+00  0.00000000000E+00  0.22941284815E+04  0.22941284815E+04  0.25500000000E-02 0. -1.
         -2   -1    0    0    0  501 -0.00000000000E+00 -0.00000000000E+00 -0.20673761125E+03  0.20673761126E+03  0.25500000000E-02 0.  1.
    8880023    1    1    2    0    0 -0.15812950804E+03 -0.27209582215E+03  0.52341991402E+03  0.89823142363E+03  0.65864270000E+03 0.  1.
    8880022    1    1    2    0    0  0.15812950804E+03  0.27209582215E+03  0.15639709563E+04  0.16026346692E+04  0.15294330000E+03 0.  0.
<mgrwt>
<rscale>  0 0.60738554E+03</rscale>
<asrwt>0</asrwt>
<pdfrwt beam="1">  1        2 0.35294284E+00 0.72996663E+03</pdfrwt>
<pdfrwt beam="2">  1       -2 0.31805787E-01 0.72996663E+03</pdfrwt>
<totfact> 0.43624772E+01</totfact>
</mgrwt>
</event>
<event>
 4    1  0.2799069E-007  0.1392434E+04  0.7818608E-02  0.8989584E-01
          2   -1    0    0  501    0  0.00000000000E+00  0.00000000000E+00  0.11948092534E+04  0.11948092534E+04  0.25500000000E-02 0. -1.
         -2   -1    0    0    0  501 -0.00000000000E+00 -0.00000000000E+00 -0.16147752307E+04  0.16147752307E+04  0.25500000000E-02 0.  1.
    8880023    1    1    2    0    0  0.73927457697E+03 -0.97904833957E+03 -0.67473399734E+03  0.15473004636E+04  0.65864270000E+03 0.  0.
    8880022    1    1    2    0    0 -0.73927457697E+03  0.97904833957E+03  0.25476801997E+03  0.12622840205E+04  0.15294330000E+03 0.  0.
<mgrwt>
<rscale>  0 0.13516447E+04</rscale>
<asrwt>0</asrwt>
<pdfrwt beam="1">  1        2 0.18381681E+00 0.13924341E+04</pdfrwt>
<pdfrwt beam="2">  1       -2 0.24842696E+00 0.13924341E+04</pdfrwt>
<totfact> 0.11953793E+00</totfact>
</mgrwt>
</event>
<event>
 4    1  0.2799069E-007  0.1034783E+04  0.7818608E-02  0.9337402E-01
          2   -1    0    0  501    0  0.00000000000E+00  0.00000000000E+00  0.13908397898E+04  0.13908397898E+04  0.25500000000E-02 0. -1.
         -2   -1    0    0    0  501 -0.00000000000E+00 -0.00000000000E+00 -0.85764885520E+03  0.85764885521E+03  0.25500000000E-02 0.  1.
    8880023    1    1    2    0    0 -0.75978153465E+03 -0.24433142182E+03 -0.30724549085E+03  0.10794331021E+04  0.65864270000E+03 0.  1.
    8880022    1    1    2    0    0  0.75978153465E+03  0.24433142182E+03  0.84043642548E+03  0.11690555429E+04  0.15294330000E+03 0.  0.
<mgrwt>
<rscale>  0 0.97411309E+03</rscale>
<asrwt>0</asrwt>
<pdfrwt beam="1">  1        2 0.21397535E+00 0.10347831E+04</pdfrwt>
<pdfrwt beam="2">  1       -2 0.13194598E+00 0.10347831E+04</pdfrwt>
<totfact> 0.60589477E+00</totfact>
</mgrwt>
</event>
<event>
 4    1  0.2799069E-007  0.7095921E+03  0.7818608E-02  0.9959519E-01
         -2   -1    0    0    0  501 -0.00000000000E+00  0.00000000000E+00  0.36997305149E+03  0.36997305150E+03  0.25500000000E-02 0.  1.
          2   -1    0    0  501    0  0.00000000000E+00 -0.00000000000E+00 -0.17082816130E+04  0.17082816130E+04  0.25500000000E-02 0. -1.
    8880023    1    1    2    0    0  0.21286118797E+03 -0.15620752501E+03 -0.41037303140E+01  0.70960391986E+03  0.65864270000E+03 0.  0.
    8880022    1    1    2    0    0 -0.21286118797E+03  0.15620752501E+03 -0.13342048312E+04  0.13686507446E+04  0.15294330000E+03 0.  0.
<mgrwt>
<rscale>  0 0.57461456E+03</rscale>
<asrwt>0</asrwt>
<pdfrwt beam="1">  1        2 0.26281255E+00 0.70959205E+03</pdfrwt>
<pdfrwt beam="2">  1       -2 0.56918932E-01 0.70959205E+03</pdfrwt>
<totfact> 0.28987637E+01</totfact>
</mgrwt>
</event>
<event>
 4    1  0.2799069E-007  0.7394259E+03  0.7818608E-02  0.9861623E-01
         -2   -1    0    0    0  501 -0.00000000000E+00  0.00000000000E+00  0.25839988194E+03  0.25839988195E+03  0.25500000000E-02 0.  1.
          2   -1    0    0  501    0  0.00000000000E+00 -0.00000000000E+00 -0.19315668139E+04  0.19315668139E+04  0.25500000000E-02 0. -1.
    8880023    1    1    2    0    0 -0.18790834925E+03 -0.27862321333E+03 -0.35342847044E+03  0.81955007944E+03  0.65864270000E+03 0.  1.
    8880022    1    1    2    0    0  0.18790834925E+03  0.27862321333E+03 -0.13197384615E+04  0.13704166164E+04  0.15294330000E+03 0.  0.
<mgrwt>
<rscale>  0 0.62157817E+03</rscale>
<asrwt>0</asrwt>
<pdfrwt beam="1">  1        2 0.29716412E+00 0.73942589E+03</pdfrwt>
<pdfrwt beam="2">  1       -2 0.39753829E-01 0.73942589E+03</pdfrwt>
<totfact> 0.44991668E+01</totfact>
</mgrwt>
</event>
<event>
 4    1  0.2799069E-007  0.1391016E+04  0.7818608E-02  0.8990695E-01
         -2   -1    0    0    0  501 -0.00000000000E+00  0.00000000000E+00  0.72398724900E+03  0.72398724901E+03  0.25500000000E-02 0.  1.
          2   -1    0    0  501    0  0.00000000000E+00 -0.00000000000E+00 -0.31750711911E+04  0.31750711911E+04  0.25500000000E-02 0. -1.
    8880023    1    1    2    0    0 -0.11878631080E+04  0.30016292499E+03 -0.30641736257E+03  0.14243659471E+04  0.65864270000E+03 0.  0.
    8880022    1    1    2    0    0  0.11878631080E+04 -0.30016292499E+03 -0.21446665795E+04  0.24746924930E+04  0.15294330000E+03 0.  0.
<mgrwt>
<rscale>  0 0.13501761E+04</rscale>
<asrwt>0</asrwt>
<pdfrwt beam="1">  1        2 0.48847248E+00 0.13910164E+04</pdfrwt>
<pdfrwt beam="2">  1       -2 0.11138266E+00 0.13910164E+04</pdfrwt>
<totfact> 0.83059259E-01</totfact>
</mgrwt>
</event>
<event>
 4    1  0.2799069E-007  0.9961808E+03  0.7818608E-02  0.9386572E-01
         -2   -1    0    0    0  501 -0.00000000000E+00  0.00000000000E+00  0.48160757305E+03  0.48160757305E+03  0.25500000000E-02 0.  1.
          2   -1    0    0  501    0  0.00000000000E+00 -0.00000000000E+00 -0.34390734215E+04  0.34390734215E+04  0.25500000000E-02 0. -1.
    8880023    1    1    2    0    0  0.69677091839E+03  0.27032610784E+03 -0.14510653862E+03  0.10066936133E+04  0.65864270000E+03 0.  0.
    8880022    1    1    2    0    0 -0.69677091839E+03 -0.27032610784E+03 -0.28123593098E+04  0.29139873812E+04  0.15294330000E+03 0.  0.
<mgrwt>
<rscale>  0 0.93189081E+03</rscale>
<asrwt>0</asrwt>
<pdfrwt beam="1">  1        2 0.52908820E+00 0.99618077E+03</pdfrwt>
<pdfrwt beam="2">  1       -2 0.74093475E-01 0.99618077E+03</pdfrwt>
<totfact> 0.15210106E+00</totfact>
</mgrwt>
</event>
<event>
 4    1  0.2799069E-007  0.1436419E+04  0.7818608E-02  0.8955889E-01
         -2   -1    0    0    0  501 -0.00000000000E+00  0.00000000000E+00  0.78079375350E+03  0.78079375350E+03  0.25500000000E-02 0.  1.
          2   -1    0    0  501    0  0.00000000000E+00 -0.00000000000E+00 -0.25151647000E+04  0.25151647000E+04  0.25500000000E-02 0. -1.
    8880023    1    1    2    0    0  0.64667231376E+03 -0.11005930207E+04 -0.52052885478E+03  0.15278254395E+04  0.65864270000E+03 0.  0.
    8880022    1    1    2    0    0 -0.64667231376E+03  0.11005930207E+04 -0.12138420917E+04  0.17681330140E+04  0.15294330000E+03 0.  0.
<mgrwt>
<rscale>  0 0.13971439E+04</rscale>
<asrwt>0</asrwt>
<pdfrwt beam="1">  1        2 0.38694841E+00 0.14364193E+04</pdfrwt>
<pdfrwt beam="2">  1       -2 0.12012212E+00 0.14364193E+04</pdfrwt>
<totfact> 0.17268247E+00</totfact>
</mgrwt>
</event>
<event>
 4    1  0.2799069E-007  0.6987066E+03  0.7818608E-02  0.1000261E+00
          2   -1    0    0  501    0  0.00000000000E+00  0.00000000000E+00  0.77637301645E+03  0.77637301645E+03  0.25500000000E-02 0. -1.
         -2   -1    0    0    0  501 -0.00000000000E+00 -0.00000000000E+00 -0.30803447953E+03  0.30803447954E+03  0.25500000000E-02 0.  1.
    8880023    1    1    2    0    0  0.20546817268E+03  0.11028828472E+03  0.31937477483E+03  0.76823897896E+03  0.65864270000E+03 0.  1.
    8880022    1    1    2    0    0 -0.20546817268E+03 -0.11028828472E+03  0.14896376208E+03  0.31616851703E+03  0.15294330000E+03 0.  1.
<mgrwt>
<rscale>  0 0.55535957E+03</rscale>
<asrwt>0</asrwt>
<pdfrwt beam="1">  1        2 0.11944200E+00 0.69870658E+03</pdfrwt>
<pdfrwt beam="2">  1       -2 0.47389920E-01 0.69870658E+03</pdfrwt>
<totfact> 0.15333674E+02</totfact>
</mgrwt>
</event>
<event>
 4    1  0.2799069E-007  0.9066807E+03  0.7818608E-02  0.9515391E-01
          2   -1    0    0  501    0  0.00000000000E+00  0.00000000000E+00  0.17997197222E+04  0.17997197222E+04  0.25500000000E-02 0. -1.
         -2   -1    0    0    0  501 -0.00000000000E+00 -0.00000000000E+00 -0.48711712507E+03  0.48711712507E+03  0.25500000000E-02 0.  1.
    8880023    1    1    2    0    0 -0.29619939086E+03 -0.54820214563E+03  0.96422887266E+02  0.91179342566E+03  0.65864270000E+03 0.  1.
    8880022    1    1    2    0    0  0.29619939086E+03  0.54820214563E+03  0.12161797099E+04  0.13750434216E+04  0.15294330000E+03 0.  0.
<mgrwt>
<rscale>  0 0.83158561E+03</rscale>
<asrwt>0</asrwt>
<pdfrwt beam="1">  1        2 0.27687995E+00 0.90668069E+03</pdfrwt>
<pdfrwt beam="2">  1       -2 0.74941098E-01 0.90668069E+03</pdfrwt>
<totfact> 0.13949783E+01</totfact>
</mgrwt>
</event>
<event>
 4    1  0.2799069E-007  0.9203744E+03  0.7818608E-02  0.9494085E-01
         -2   -1    0    0    0  501 -0.00000000000E+00  0.00000000000E+00  0.66064340254E+03  0.66064340255E+03  0.25500000000E-02 0.  1.
          2   -1    0    0  501    0  0.00000000000E+00 -0.00000000000E+00 -0.23635522696E+04  0.23635522696E+04  0.25500000000E-02 0. -1.
    8880023    1    1    2    0    0  0.36417556443E+03 -0.52976875646E+03  0.25724777490E+03  0.95564920395E+03  0.65864270000E+03 0.  1.
    8880022    1    1    2    0    0 -0.36417556443E+03  0.52976875646E+03 -0.19601566419E+04  0.20685464682E+04  0.15294330000E+03 0.  0.
<mgrwt>
<rscale>  0 0.84721300E+03</rscale>
<asrwt>0</asrwt>
<pdfrwt beam="1">  1        2 0.36362342E+00 0.92037437E+03</pdfrwt>
<pdfrwt beam="2">  1       -2 0.10163745E+00 0.92037437E+03</pdfrwt>
<totfact> 0.33721687E+00</totfact>
</mgrwt>
</event>
<event>
 4    1  0.2799069E-007  0.1229180E+04  0.7818608E-02  0.9129266E-01
         -2   -1    0    0    0  501 -0.00000000000E+00  0.00000000000E+00  0.81027504280E+03  0.81027504280E+03  0.25500000000E-02 0.  1.
          2   -1    0    0  501    0  0.00000000000E+00 -0.00000000000E+00 -0.26063187131E+04  0.26063187131E+04  0.25500000000E-02 0. -1.
    8880023    1    1    2    0    0 -0.87226064904E+03  0.56234799479E+03  0.11707108958E+03  0.12347427884E+04  0.65864270000E+03 0. -1.
    8880022    1    1    2    0    0  0.87226064904E+03 -0.56234799479E+03 -0.19131147599E+04  0.21818509676E+04  0.15294330000E+03 0.  0.
<mgrwt>
<rscale>  0 0.11814320E+04</rscale>
<asrwt>0</asrwt>
<pdfrwt beam="1">  1        2 0.40097211E+00 0.12291803E+04</pdfrwt>
<pdfrwt beam="2">  1       -2 0.12465770E+00 0.12291803E+04</pdfrwt>
<totfact> 0.14246186E+00</totfact>
</mgrwt>
</event>
<event>
 4    1  0.2799069E-007  0.9522896E+03  0.7818608E-02  0.9446827E-01
         -2   -1    0    0    0  501 -0.00000000000E+00  0.00000000000E+00  0.63775342614E+03  0.63775342615E+03  0.25500000000E-02 0.  1.
          2   -1    0    0  501    0  0.00000000000E+00 -0.00000000000E+00 -0.20902502176E+04  0.20902502176E+04  0.25500000000E-02 0. -1.
    8880023    1    1    2    0    0  0.62930111235E+03 -0.27753444426E+03  0.16245094385E+03  0.96604646533E+03  0.65864270000E+03 0.  0.
    8880022    1    1    2    0    0 -0.62930111235E+03  0.27753444426E+03 -0.16149477353E+04  0.17619571784E+04  0.15294330000E+03 0.  0.
<mgrwt>
<rscale>  0 0.88320148E+03</rscale>
<asrwt>0</asrwt>
<pdfrwt beam="1">  1        2 0.32157696E+00 0.95228959E+03</pdfrwt>
<pdfrwt beam="2">  1       -2 0.98115912E-01 0.95228959E+03</pdfrwt>
<totfact> 0.51817669E+00</totfact>
</mgrwt>
</event>
<event>
 4    1  0.2799069E-007  0.7025377E+03  0.7818608E-02  0.9986832E-01
         -2   -1    0    0    0  501 -0.00000000000E+00  0.00000000000E+00  0.56239336320E+03  0.56239336321E+03  0.25500000000E-02 0.  1.
          2   -1    0    0  501    0  0.00000000000E+00 -0.00000000000E+00 -0.16070908075E+04  0.16070908075E+04  0.25500000000E-02 0. -1.
    8880023    1    1    2    0    0 -0.11620305862E+03  0.21504848063E+03  0.32191837120E+03  0.77278110991E+03  0.65864270000E+03 0.  0.
    8880022    1    1    2    0    0  0.11620305862E+03 -0.21504848063E+03 -0.13666158155E+04  0.13967030608E+04  0.15294330000E+03 0.  0.
<mgrwt>
<rscale>  0 0.56231401E+03</rscale>
<asrwt>0</asrwt>
<pdfrwt beam="1">  1        2 0.24724474E+00 0.70253769E+03</pdfrwt>
<pdfrwt beam="2">  1       -2 0.86522057E-01 0.70253769E+03</pdfrwt>
<totfact> 0.13210571E+01</totfact>
</mgrwt>
</event>
<event>
 4    1  0.2799069E-007  0.8247269E+03  0.7818608E-02  0.9659681E-01
          2   -1    0    0  501    0  0.00000000000E+00  0.00000000000E+00  0.12460544346E+04  0.12460544346E+04  0.25500000000E-02 0. -1.
         -2   -1    0    0    0  501 -0.00000000000E+00 -0.00000000000E+00 -0.13027660157E+04  0.13027660158E+04  0.25500000000E-02 0.  1.
    8880023    1    1    2    0    0 -0.24079863213E+03  0.43402792191E+03 -0.11050478483E+04  0.13788782294E+04  0.65864270000E+03 0.  1.
    8880022    1    1    2    0    0  0.24079863213E+03 -0.43402792191E+03  0.10483362672E+04  0.11699422209E+04  0.15294330000E+03 0.  0.
<mgrwt>
<rscale>  0 0.73468974E+03</rscale>
<asrwt>0</asrwt>
<pdfrwt beam="1">  1        2 0.19170068E+00 0.82472688E+03</pdfrwt>
<pdfrwt beam="2">  1       -2 0.20042554E+00 0.82472688E+03</pdfrwt>
<totfact> 0.23874976E+00</totfact>
</mgrwt>
</event>
<event>
 4    1  0.2799069E-007  0.7240953E+03  0.7818608E-02  0.9908965E-01
         -2   -1    0    0    0  501 -0.00000000000E+00  0.00000000000E+00  0.55118417896E+03  0.55118417897E+03  0.25500000000E-02 0.  1.
          2   -1    0    0  501    0  0.00000000000E+00 -0.00000000000E+00 -0.79052350883E+03  0.79052350883E+03  0.25500000000E-02 0. -1.
    8880023    1    1    2    0    0 -0.17828092635E+03  0.24232160705E+03  0.23347403711E+03  0.76080495675E+03  0.65864270000E+03 0. -1.
    8880022    1    1    2    0    0  0.17828092635E+03 -0.24232160705E+03 -0.47281336697E+03  0.58090273105E+03  0.15294330000E+03 0. -1.
<mgrwt>
<rscale>  0 0.59828778E+03</rscale>
<asrwt>0</asrwt>
<pdfrwt beam="1">  1        2 0.12161900E+00 0.72409534E+03</pdfrwt>
<pdfrwt beam="2">  1       -2 0.84797566E-01 0.72409534E+03</pdfrwt>
<totfact> 0.43072504E+01</totfact>
</mgrwt>
</event>
<event>
 4    1  0.2799069E-007  0.6934188E+03  0.7818608E-02  0.1002568E+00
         -2   -1    0    0    0  501 -0.00000000000E+00  0.00000000000E+00  0.24584873143E+03  0.24584873144E+03  0.25500000000E-02 0.  1.
          2   -1    0    0  501    0  0.00000000000E+00 -0.00000000000E+00 -0.18161145134E+04  0.18161145135E+04  0.25500000000E-02 0. -1.
    8880023    1    1    2    0    0 -0.16908672204E+03  0.13575398839E+03 -0.28518598753E+03  0.74977377834E+03  0.65864270000E+03 0.  1.
    8880022    1    1    2    0    0  0.16908672204E+03 -0.13575398839E+03 -0.12850797945E+04  0.13121894666E+04  0.15294330000E+03 0.  0.
<mgrwt>
<rscale>  0 0.54538335E+03</rscale>
<asrwt>0</asrwt>
<pdfrwt beam="1">  1        2 0.27940222E+00 0.69341883E+03</pdfrwt>
<pdfrwt beam="2">  1       -2 0.37822883E-01 0.69341883E+03</pdfrwt>
<totfact> 0.57582282E+01</totfact>
</mgrwt>
</event>
<event>
 4    1  0.2799069E-007  0.9372245E+03  0.7818608E-02  0.9468739E-01
          2   -1    0    0  501    0  0.00000000000E+00  0.00000000000E+00  0.11398437402E+04  0.11398437402E+04  0.25500000000E-02 0. -1.
         -2   -1    0    0    0  501 -0.00000000000E+00 -0.00000000000E+00 -0.15081010718E+04  0.15081010718E+04  0.25500000000E-02 0.  1.
    8880023    1    1    2    0    0 -0.31804975224E+02  0.66600896290E+03 -0.12308268522E+04  0.15470373109E+04  0.65864270000E+03 0.  1.
    8880022    1    1    2    0    0  0.31804975224E+02 -0.66600896290E+03  0.86256952052E+03  0.11009075010E+04  0.15294330000E+03 0.  0.
<mgrwt>
<rscale>  0 0.86628361E+03</rscale>
<asrwt>0</asrwt>
<pdfrwt beam="1">  1        2 0.17536057E+00 0.93722447E+03</pdfrwt>
<pdfrwt beam="2">  1       -2 0.23201555E+00 0.93722447E+03</pdfrwt>
<totfact> 0.17155077E+00</totfact>
</mgrwt>
</event>
<event>
 4    1  0.2799069E-007  0.8838596E+03  0.7818608E-02  0.9552455E-01
          2   -1    0    0  501    0  0.00000000000E+00  0.00000000000E+00  0.76036181121E+03  0.76036181121E+03  0.25500000000E-02 0. -1.
         -2   -1    0    0    0  501 -0.00000000000E+00 -0.00000000000E+00 -0.14651651957E+04  0.14651651957E+04  0.25500000000E-02 0.  1.
    8880023    1    1    2    0    0  0.56547609535E+03 -0.16623615229E+03 -0.11649470943E+04  0.14622960068E+04  0.65864270000E+03 0.  0.
    8880022    1    1    2    0    0 -0.56547609535E+03  0.16623615229E+03  0.46014370985E+03  0.76323100007E+03  0.15294330000E+03 0.  0.
<mgrwt>
<rscale>  0 0.80524564E+03</rscale>
<asrwt>0</asrwt>
<pdfrwt beam="1">  1        2 0.11697874E+00 0.88385965E+03</pdfrwt>
<pdfrwt beam="2">  1       -2 0.22541003E+00 0.88385965E+03</pdfrwt>
<totfact> 0.33928049E+00</totfact>
</mgrwt>
</event>
<event>
 4    1  0.2799069E-007  0.8573097E+03  0.7818608E-02  0.9598367E-01
          2   -1    0    0  501    0  0.00000000000E+00  0.00000000000E+00  0.15068926123E+04  0.15068926123E+04  0.25500000000E-02 0. -1.
         -2   -1    0    0    0  501 -0.00000000000E+00 -0.00000000000E+00 -0.36162614206E+03  0.36162614207E+03  0.25500000000E-02 0.  1.
    8880023    1    1    2    0    0  0.10724271381E+03  0.53820885450E+03  0.44544586466E+03  0.96612731839E+03  0.65864270000E+03 0.  0.
    8880022    1    1    2    0    0 -0.10724271381E+03 -0.53820885450E+03  0.69982060556E+03  0.90239143596E+03  0.15294330000E+03 0.  0.
<mgrwt>
<rscale>  0 0.77404361E+03</rscale>
<asrwt>0</asrwt>
<pdfrwt beam="1">  1        2 0.23182963E+00 0.85730973E+03</pdfrwt>
<pdfrwt beam="2">  1       -2 0.55634791E-01 0.85730973E+03</pdfrwt>
<totfact> 0.38627321E+01</totfact>
</mgrwt>
</event>
<event>
 4    1  0.2799069E-007  0.1059994E+04  0.7818608E-02  0.9306962E-01
          2   -1    0    0  501    0  0.00000000000E+00  0.00000000000E+00  0.27373538598E+04  0.27373538598E+04  0.25500000000E-02 0. -1.
         -2   -1    0    0    0  501 -0.00000000000E+00 -0.00000000000E+00 -0.10503599793E+04  0.10503599793E+04  0.25500000000E-02 0.  1.
    8880023    1    1    2    0    0 -0.70459572326E+03 -0.43968454636E+03 -0.69025139404E+03  0.12649248305E+04  0.65864270000E+03 0.  0.
    8880022    1    1    2    0    0  0.70459572326E+03  0.43968454636E+03  0.23772452745E+04  0.25227890086E+04  0.15294330000E+03 0.  0.
<mgrwt>
<rscale>  0 0.10014441E+04</rscale>
<asrwt>0</asrwt>
<pdfrwt beam="1">  1        2 0.42113136E+00 0.10599943E+04</pdfrwt>
<pdfrwt beam="2">  1       -2 0.16159384E+00 0.10599943E+04</pdfrwt>
<totfact> 0.61874483E-01</totfact>
</mgrwt>
</event>
<event>
 4    1  0.2799069E-007  0.7558853E+03  0.7818608E-02  0.9815879E-01
         -2   -1    0    0    0  501 -0.00000000000E+00  0.00000000000E+00  0.44918509149E+03  0.44918509150E+03  0.25500000000E-02 0.  1.
          2   -1    0    0  501    0  0.00000000000E+00 -0.00000000000E+00 -0.11134600716E+04  0.11134600716E+04  0.25500000000E-02 0. -1.
    8880023    1    1    2    0    0 -0.26592701240E+03  0.25852507915E+03  0.34745907982E+02  0.75668347204E+03  0.65864270000E+03 0.  0.
    8880022    1    1    2    0    0  0.26592701240E+03 -0.25852507915E+03 -0.69902088809E+03  0.80596169107E+03  0.15294330000E+03 0.  0.
<mgrwt>
<rscale>  0 0.64517316E+03</rscale>
<asrwt>0</asrwt>
<pdfrwt beam="1">  1        2 0.17130155E+00 0.75588531E+03</pdfrwt>
<pdfrwt beam="2">  1       -2 0.69105399E-01 0.75588531E+03</pdfrwt>
<totfact> 0.41538063E+01</totfact>
</mgrwt>
</event>
<event>
 4    1  0.2799069E-007  0.6681679E+03  0.7818608E-02  0.1017012E+00
         -2   -1    0    0    0  501 -0.00000000000E+00  0.00000000000E+00  0.43045853217E+03  0.43045853218E+03  0.25500000000E-02 0.  1.
          2   -1    0    0  501    0  0.00000000000E+00 -0.00000000000E+00 -0.12527795034E+04  0.12527795034E+04  0.25500000000E-02 0. -1.
    8880023    1    1    2    0    0  0.55688030553E+02  0.97657529533E+02  0.15644304208E+03  0.68623813760E+03  0.65864270000E+03 0.  1.
    8880022    1    1    2    0    0 -0.55688030553E+02 -0.97657529533E+02 -0.97876401334E+03  0.99699989802E+03  0.15294330000E+03 0.  0.
<mgrwt>
<rscale>  0 0.48780578E+03</rscale>
<asrwt>0</asrwt>
<pdfrwt beam="1">  1        2 0.19273531E+00 0.66816791E+03</pdfrwt>
<pdfrwt beam="2">  1       -2 0.66224390E-01 0.66816791E+03</pdfrwt>
<totfact> 0.37988385E+01</totfact>
</mgrwt>
</event>
<event>
 4    1  0.2799069E-007  0.1382728E+04  0.7818608E-02  0.8997221E-01
         -2   -1    0    0    0  501 -0.00000000000E+00  0.00000000000E+00  0.14021704209E+04  0.14021704209E+04  0.25500000000E-02 0.  1.
          2   -1    0    0  501    0  0.00000000000E+00 -0.00000000000E+00 -0.20781888843E+04  0.20781888843E+04  0.25500000000E-02 0. -1.
    8880023    1    1    2    0    0 -0.19638178837E+03 -0.11998164775E+04 -0.14716669814E+04  0.20193413027E+04  0.65864270000E+03 0.  0.
    8880022    1    1    2    0    0  0.19638178837E+03  0.11998164775E+04  0.79564851806E+03  0.14610180025E+04  0.15294330000E+03 0.  0.
<mgrwt>
<rscale>  0 0.13415867E+04</rscale>
<asrwt>0</asrwt>
<pdfrwt beam="1">  1        2 0.31972137E+00 0.13827276E+04</pdfrwt>
<pdfrwt beam="2">  1       -2 0.21571853E+00 0.13827276E+04</pdfrwt>
<totfact> 0.60444867E-01</totfact>
</mgrwt>
</event>
<event>
 4    1  0.2799069E-007  0.9543396E+03  0.7818608E-02  0.9443898E-01
          2   -1    0    0  501    0  0.00000000000E+00  0.00000000000E+00  0.11522303588E+04  0.11522303588E+04  0.25500000000E-02 0. -1.
         -2   -1    0    0    0  501 -0.00000000000E+00 -0.00000000000E+00 -0.85426855167E+03  0.85426855167E+03  0.25500000000E-02 0.  1.
    8880023    1    1    2    0    0 -0.68896772328E+03  0.47721131882E+02 -0.37953146214E+03  0.10270385422E+04  0.65864270000E+03 0.  0.
    8880022    1    1    2    0    0  0.68896772328E+03 -0.47721131882E+02  0.67749326931E+03  0.97946036833E+03  0.15294330000E+03 0.  0.
<mgrwt>
<rscale>  0 0.88549467E+03</rscale>
<asrwt>0</asrwt>
<pdfrwt beam="1">  1        2 0.17726621E+00 0.95433958E+03</pdfrwt>
<pdfrwt beam="2">  1       -2 0.13142593E+00 0.95433958E+03</pdfrwt>
<totfact> 0.85189402E+00</totfact>
</mgrwt>
</event>
<event>
 4    1  0.2799069E-007  0.1404725E+04  0.7818608E-02  0.8980020E-01
         -2   -1    0    0    0  501 -0.00000000000E+00  0.00000000000E+00  0.73129978255E+03  0.73129978255E+03  0.25500000000E-02 0.  1.
          2   -1    0    0  501    0  0.00000000000E+00 -0.00000000000E+00 -0.38891977889E+04  0.38891977889E+04  0.25500000000E-02 0. -1.
    8880023    1    1    2    0    0  0.97921568932E+03 -0.76195700380E+03 -0.21240738035E+03  0.14206931207E+04  0.65864270000E+03 0.  0.
    8880022    1    1    2    0    0 -0.97921568932E+03  0.76195700380E+03 -0.29454906260E+04  0.31998044507E+04  0.15294330000E+03 0. -1.
<mgrwt>
<rscale>  0 0.13643712E+04</rscale>
<asrwt>0</asrwt>
<pdfrwt beam="1">  1        2 0.59833811E+00 0.14047249E+04</pdfrwt>
<pdfrwt beam="2">  1       -2 0.11250766E+00 0.14047249E+04</pdfrwt>
<totfact> 0.25498519E-01</totfact>
</mgrwt>
</event>
<event>
 4    1  0.2799069E-007  0.6935043E+03  0.7818608E-02  0.1002530E+00
          2   -1    0    0  501    0  0.00000000000E+00  0.00000000000E+00  0.11556990780E+04  0.11556990780E+04  0.25500000000E-02 0. -1.
         -2   -1    0    0    0  501 -0.00000000000E+00 -0.00000000000E+00 -0.49652977906E+03  0.49652977906E+03  0.25500000000E-02 0.  1.
    8880023    1    1    2    0    0  0.43913528669E+02 -0.21262566939E+03 -0.22495677647E+03  0.72907738329E+03  0.65864270000E+03 0.  0.
    8880022    1    1    2    0    0 -0.43913528669E+02  0.21262566939E+03  0.88412607540E+03  0.92315147376E+03  0.15294330000E+03 0. -1.
<mgrwt>
<rscale>  0 0.54554856E+03</rscale>
<asrwt>0</asrwt>
<pdfrwt beam="1">  1        2 0.17779986E+00 0.69350435E+03</pdfrwt>
<pdfrwt beam="2">  1       -2 0.76389198E-01 0.69350435E+03</pdfrwt>
<totfact> 0.31619709E+01</totfact>
</mgrwt>
</event>
<event>
 4    1  0.2799069E-007  0.1949888E+04  0.7818608E-02  0.8643863E-01
         -2   -1    0    0    0  501 -0.00000000000E+00  0.00000000000E+00  0.15010061853E+04  0.15010061853E+04  0.25500000000E-02 0.  1.
          2   -1    0    0  501    0  0.00000000000E+00 -0.00000000000E+00 -0.27334364508E+04  0.27334364508E+04  0.25500000000E-02 0. -1.
    8880023    1    1    2    0    0  0.50873361405E+03 -0.17633614246E+04  0.11382000162E+03  0.19532072606E+04  0.65864270000E+03 0.  0.
    8880022    1    1    2    0    0 -0.50873361405E+03  0.17633614246E+04 -0.13462502671E+04  0.22812353755E+04  0.15294330000E+03 0.  0.
<mgrwt>
<rscale>  0 0.19222442E+04</rscale>
<asrwt>0</asrwt>
<pdfrwt beam="1">  1        2 0.42052868E+00 0.19498881E+04</pdfrwt>
<pdfrwt beam="2">  1       -2 0.23092403E+00 0.19498881E+04</pdfrwt>
<totfact> 0.19147951E-01</totfact>
</mgrwt>
</event>
<event>
 4    1  0.2799069E-007  0.7078641E+03  0.7818608E-02  0.9966020E-01
          2   -1    0    0  501    0  0.00000000000E+00  0.00000000000E+00  0.12058549297E+04  0.12058549297E+04  0.25500000000E-02 0. -1.
         -2   -1    0    0    0  501 -0.00000000000E+00 -0.00000000000E+00 -0.54066142323E+03  0.54066142323E+03  0.25500000000E-02 0.  1.
    8880023    1    1    2    0    0  0.23203334598E+03 -0.11585291170E+03 -0.27491181927E+03  0.75937348217E+03  0.65864270000E+03 0.  1.
    8880022    1    1    2    0    0 -0.23203334598E+03  0.11585291170E+03  0.94010532571E+03  0.98714287074E+03  0.15294330000E+03 0.  0.
<mgrwt>
<rscale>  0 0.57165657E+03</rscale>
<asrwt>0</asrwt>
<pdfrwt beam="1">  1        2 0.18551614E+00 0.70786410E+03</pdfrwt>
<pdfrwt beam="2">  1       -2 0.83178681E-01 0.70786410E+03</pdfrwt>
<totfact> 0.24347512E+01</totfact>
</mgrwt>
</event>
<event>
 4    1  0.2799069E-007  0.9402193E+03  0.7818608E-02  0.9464328E-01
         -2   -1    0    0    0  501 -0.00000000000E+00  0.00000000000E+00  0.12683457973E+04  0.12683457973E+04  0.25500000000E-02 0.  1.
          2   -1    0    0  501    0  0.00000000000E+00 -0.00000000000E+00 -0.12347621292E+04  0.12347621292E+04  0.25500000000E-02 0. -1.
    8880023    1    1    2    0    0 -0.85159552091E+02 -0.66554482110E+03  0.96350581611E+03  0.13462376173E+04  0.65864270000E+03 0.  1.
    8880022    1    1    2    0    0  0.85159552091E+02  0.66554482110E+03 -0.92992214794E+03  0.11568703093E+04  0.15294330000E+03 0.  0.
<mgrwt>
<rscale>  0 0.86965620E+03</rscale>
<asrwt>0</asrwt>
<pdfrwt beam="1">  1        2 0.18996341E+00 0.94021926E+03</pdfrwt>
<pdfrwt beam="2">  1       -2 0.19513012E+00 0.94021926E+03</pdfrwt>
<totfact> 0.25851088E+00</totfact>
</mgrwt>
</event>
<event>
 4    1  0.2799069E-007  0.9132149E+03  0.7818608E-02  0.9505142E-01
          2   -1    0    0  501    0  0.00000000000E+00  0.00000000000E+00  0.97472400897E+03  0.97472400898E+03  0.25500000000E-02 0. -1.
         -2   -1    0    0    0  501 -0.00000000000E+00 -0.00000000000E+00 -0.98964286884E+03  0.98964286884E+03  0.25500000000E-02 0.  1.
    8880023    1    1    2    0    0 -0.17454321243E+03 -0.60801796238E+03 -0.59715889425E+03  0.10911279150E+04  0.65864270000E+03 0.  1.
    8880022    1    1    2    0    0  0.17454321243E+03  0.60801796238E+03  0.58224003439E+03  0.87323896285E+03  0.15294330000E+03 0.  0.
<mgrwt>
<rscale>  0 0.83905783E+03</rscale>
<asrwt>0</asrwt>
<pdfrwt beam="1">  1        2 0.14995754E+00 0.91321486E+03</pdfrwt>
<pdfrwt beam="2">  1       -2 0.15225275E+00 0.91321486E+03</pdfrwt>
<totfact> 0.75298824E+00</totfact>
</mgrwt>
</event>
<event>
 4    1  0.2799069E-007  0.1038621E+04  0.7818608E-02  0.9332687E-01
         -2   -1    0    0    0  501 -0.00000000000E+00  0.00000000000E+00  0.11325514050E+04  0.11325514050E+04  0.25500000000E-02 0.  1.
          2   -1    0    0  501    0  0.00000000000E+00 -0.00000000000E+00 -0.12282943459E+04  0.12282943459E+04  0.25500000000E-02 0. -1.
    8880023    1    1    2    0    0 -0.80272490309E+03 -0.23586959060E+02  0.67386651488E+03  0.12380750788E+04  0.65864270000E+03 0.  0.
    8880022    1    1    2    0    0  0.80272490309E+03  0.23586959060E+02 -0.76960945573E+03  0.11227706721E+04  0.15294330000E+03 0.  0.
<mgrwt>
<rscale>  0 0.97828531E+03</rscale>
<asrwt>0</asrwt>
<pdfrwt beam="1">  1        2 0.18896836E+00 0.10386211E+04</pdfrwt>
<pdfrwt beam="2">  1       -2 0.17423868E+00 0.10386211E+04</pdfrwt>
<totfact> 0.35775725E+00</totfact>
</mgrwt>
</event>
<event>
 4    1  0.2799069E-007  0.1037774E+04  0.7818608E-02  0.9333725E-01
         -2   -1    0    0    0  501 -0.00000000000E+00  0.00000000000E+00  0.10207129475E+04  0.10207129475E+04  0.25500000000E-02 0.  1.
          2   -1    0    0  501    0  0.00000000000E+00 -0.00000000000E+00 -0.31970005626E+04  0.31970005626E+04  0.25500000000E-02 0. -1.
    8880023    1    1    2    0    0 -0.41944366088E+03 -0.68354382633E+03  0.68418224379E+03  0.12430127498E+04  0.65864270000E+03 0.  0.
    8880022    1    1    2    0    0  0.41944366088E+03  0.68354382633E+03 -0.28604698588E+04  0.29747007603E+04  0.15294330000E+03 0.  0.
<mgrwt>
<rscale>  0 0.97736506E+03</rscale>
<asrwt>0</asrwt>
<pdfrwt beam="1">  1        2 0.49184624E+00 0.10377742E+04</pdfrwt>
<pdfrwt beam="2">  1       -2 0.15703276E+00 0.10377742E+04</pdfrwt>
<totfact> 0.35028672E-01</totfact>
</mgrwt>
</event>
<event>
 4    1  0.2799069E-007  0.9863135E+03  0.7818608E-02  0.9399687E-01
         -2   -1    0    0    0  501 -0.00000000000E+00  0.00000000000E+00  0.89625168774E+03  0.89625168775E+03  0.25500000000E-02 0.  1.
          2   -1    0    0  501    0  0.00000000000E+00 -0.00000000000E+00 -0.13839493594E+04  0.13839493594E+04  0.25500000000E-02 0. -1.
    8880023    1    1    2    0    0 -0.71292161299E+03  0.17534787299E+03  0.44613477301E+03  0.10825204593E+04  0.65864270000E+03 0.  0.
    8880022    1    1    2    0    0  0.71292161299E+03 -0.17534787299E+03 -0.93383244467E+03  0.11976805879E+04  0.15294330000E+03 0.  0.
<mgrwt>
<rscale>  0 0.92101454E+03</rscale>
<asrwt>0</asrwt>
<pdfrwt beam="1">  1        2 0.21291529E+00 0.98631349E+03</pdfrwt>
<pdfrwt beam="2">  1       -2 0.13788487E+00 0.98631349E+03</pdfrwt>
<totfact> 0.54887987E+00</totfact>
</mgrwt>
</event>
<event>
 4    1  0.2799069E-007  0.7047783E+03  0.7818608E-02  0.9977928E-01
         -2   -1    0    0    0  501 -0.00000000000E+00  0.00000000000E+00  0.42096594170E+03  0.42096594170E+03  0.25500000000E-02 0.  1.
          2   -1    0    0  501    0  0.00000000000E+00 -0.00000000000E+00 -0.11330680745E+04  0.11330680745E+04  0.25500000000E-02 0. -1.
    8880023    1    1    2    0    0  0.50002393521E+01  0.25075325899E+03  0.79914836763E+02  0.70929456976E+03  0.65864270000E+03 0.  0.
    8880022    1    1    2    0    0 -0.50002393521E+01 -0.25075325899E+03 -0.79201696956E+03  0.84473944644E+03  0.15294330000E+03 0.  0.
<mgrwt>
<rscale>  0 0.56628735E+03</rscale>
<asrwt>0</asrwt>
<pdfrwt beam="1">  1        2 0.17431816E+00 0.70477827E+03</pdfrwt>
<pdfrwt beam="2">  1       -2 0.64763991E-01 0.70477827E+03</pdfrwt>
<totfact> 0.46728921E+01</totfact>
</mgrwt>
</event>
<event>
 4    1  0.2799069E-007  0.1804466E+04  0.7818608E-02  0.8720070E-01
          2   -1    0    0  501    0  0.00000000000E+00  0.00000000000E+00  0.30137393863E+04  0.30137393863E+04  0.25500000000E-02 0. -1.
         -2   -1    0    0    0  501 -0.00000000000E+00 -0.00000000000E+00 -0.11067503956E+04  0.11067503956E+04  0.25500000000E-02 0.  1.
    8880023    1    1    2    0    0  0.77447836680E+03  0.14907949225E+04  0.37772032840E+03  0.18435750851E+04  0.65864270000E+03 0.  0.
    8880022    1    1    2    0    0 -0.77447836680E+03 -0.14907949225E+04  0.15292686623E+04  0.22769146968E+04  0.15294330000E+03 0.  0.
<mgrwt>
<rscale>  0 0.17743312E+04</rscale>
<asrwt>0</asrwt>
<pdfrwt beam="1">  1        2 0.46365221E+00 0.18044657E+04</pdfrwt>
<pdfrwt beam="2">  1       -2 0.17026929E+00 0.18044657E+04</pdfrwt>
<totfact> 0.33141168E-01</totfact>
</mgrwt>
</event>
<event>
 4    1  0.2799069E-007  0.1666659E+04  0.7818608E-02  0.8800119E-01
         -2   -1    0    0    0  501 -0.00000000000E+00  0.00000000000E+00  0.11854395912E+04  0.11854395912E+04  0.25500000000E-02 0.  1.
          2   -1    0    0  501    0  0.00000000000E+00 -0.00000000000E+00 -0.27444652993E+04  0.27444652994E+04  0.25500000000E-02 0. -1.
    8880023    1    1    2    0    0 -0.12640538457E+04  0.86377605976E+03  0.96935886273E+02  0.16694753603E+04  0.65864270000E+03 0.  0.
    8880022    1    1    2    0    0  0.12640538457E+04 -0.86377605976E+03 -0.16559615944E+04  0.22604295303E+04  0.15294330000E+03 0.  0.
<mgrwt>
<rscale>  0 0.16336817E+04</rscale>
<asrwt>0</asrwt>
<pdfrwt beam="1">  1        2 0.42222543E+00 0.16666588E+04</pdfrwt>
<pdfrwt beam="2">  1       -2 0.18237532E+00 0.16666588E+04</pdfrwt>
<totfact> 0.40366000E-01</totfact>
</mgrwt>
</event>
<event>
 4    1  0.2799069E-007  0.1254688E+04  0.7818608E-02  0.9105712E-01
         -2   -1    0    0    0  501 -0.00000000000E+00  0.00000000000E+00  0.61299825242E+03  0.61299825243E+03  0.25500000000E-02 0.  1.
          2   -1    0    0  501    0  0.00000000000E+00 -0.00000000000E+00 -0.34006173805E+04  0.34006173805E+04  0.25500000000E-02 0. -1.
    8880023    1    1    2    0    0 -0.94645977432E+03 -0.49461578652E+03 -0.28252371403E+03  0.12861029259E+04  0.65864270000E+03 0.  1.
    8880022    1    1    2    0    0  0.94645977432E+03  0.49461578652E+03 -0.25050954141E+04  0.27275127071E+04  0.15294330000E+03 0.  0.
<mgrwt>
<rscale>  0 0.12081965E+04</rscale>
<asrwt>0</asrwt>
<pdfrwt beam="1">  1        2 0.52317189E+00 0.12546876E+04</pdfrwt>
<pdfrwt beam="2">  1       -2 0.94307426E-01 0.12546876E+04</pdfrwt>
<totfact> 0.89529467E-01</totfact>
</mgrwt>
</event>
<event>
 4    1  0.2799069E-007  0.1354269E+04  0.7818608E-02  0.9020057E-01
         -2   -1    0    0    0  501 -0.00000000000E+00  0.00000000000E+00  0.18684064775E+04  0.18684064775E+04  0.25500000000E-02 0.  1.
          2   -1    0    0  501    0  0.00000000000E+00 -0.00000000000E+00 -0.14666534285E+04  0.14666534285E+04  0.25500000000E-02 0. -1.
    8880023    1    1    2    0    0  0.11806882285E+04  0.78804338717E+02  0.12722277433E+04  0.18581196016E+04  0.65864270000E+03 0.  0.
    8880022    1    1    2    0    0 -0.11806882285E+04 -0.78804338717E+02 -0.87047469430E+03  0.14769403045E+04  0.15294330000E+03 0.  0.
<mgrwt>
<rscale>  0 0.13120587E+04</rscale>
<asrwt>0</asrwt>
<pdfrwt beam="1">  1        2 0.22563899E+00 0.13542692E+04</pdfrwt>
<pdfrwt beam="2">  1       -2 0.28744715E+00 0.13542692E+04</pdfrwt>
<totfact> 0.48081347E-01</totfact>
</mgrwt>
</event>
<event>
 4    1  0.2799069E-007  0.1203611E+04  0.7818608E-02  0.9153620E-01
          2   -1    0    0  501    0  0.00000000000E+00  0.00000000000E+00  0.12122578381E+04  0.12122578381E+04  0.25500000000E-02 0. -1.
         -2   -1    0    0    0  501 -0.00000000000E+00 -0.00000000000E+00 -0.11209862337E+04  0.11209862337E+04  0.25500000000E-02 0.  1.
    8880023    1    1    2    0    0  0.84882532300E+03  0.54255369039E+03  0.40035118113E+03  0.12684479534E+04  0.65864270000E+03 0.  0.
    8880022    1    1    2    0    0 -0.84882532300E+03 -0.54255369039E+03 -0.30907957670E+03  0.10647961184E+04  0.15294330000E+03 0.  0.
<mgrwt>
<rscale>  0 0.11545238E+04</rscale>
<asrwt>0</asrwt>
<pdfrwt beam="1">  1        2 0.18650120E+00 0.12036109E+04</pdfrwt>
<pdfrwt beam="2">  1       -2 0.17245942E+00 0.12036109E+04</pdfrwt>
<totfact> 0.37037232E+00</totfact>
</mgrwt>
</event>
<event>
 4    1  0.2799069E-007  0.6959487E+03  0.7818608E-02  0.1001444E+00
         -2   -1    0    0    0  501 -0.00000000000E+00  0.00000000000E+00  0.88842071940E+03  0.88842071941E+03  0.25500000000E-02 0.  1.
          2   -1    0    0  501    0  0.00000000000E+00 -0.00000000000E+00 -0.59185518666E+03  0.59185518666E+03  0.25500000000E-02 0. -1.
    8880023    1    1    2    0    0 -0.13103070098E+03  0.18266184727E+03  0.70433758400E+03  0.99016969937E+03  0.65864270000E+03 0.  1.
    8880022    1    1    2    0    0  0.13103070098E+03 -0.18266184727E+03 -0.40777205125E+03  0.49010620670E+03  0.15294330000E+03 0.  0.
<mgrwt>
<rscale>  0 0.55021523E+03</rscale>
<asrwt>0</asrwt>
<pdfrwt beam="1">  1        2 0.91054645E-01 0.69594871E+03</pdfrwt>
<pdfrwt beam="2">  1       -2 0.13668011E+00 0.69594871E+03</pdfrwt>
<totfact> 0.19632368E+01</totfact>
</mgrwt>
</event>
<event>
 4    1  0.2799069E-007  0.7148755E+03  0.7818608E-02  0.9940323E-01
         -2   -1    0    0    0  501 -0.00000000000E+00  0.00000000000E+00  0.41850625794E+03  0.41850625795E+03  0.25500000000E-02 0.  1.
          2   -1    0    0  501    0  0.00000000000E+00 -0.00000000000E+00 -0.17388241621E+04  0.17388241621E+04  0.25500000000E-02 0. -1.
    8880023    1    1    2    0    0  0.49377567500E+02  0.27349344920E+03  0.82016273160E+02  0.71956492845E+03  0.65864270000E+03 0.  1.
    8880022    1    1    2    0    0 -0.49377567500E+02 -0.27349344920E+03 -0.14023341773E+04  0.14377654916E+04  0.15294330000E+03 0.  0.
<mgrwt>
<rscale>  0 0.58346247E+03</rscale>
<asrwt>0</asrwt>
<pdfrwt beam="1">  1        2 0.26751141E+00 0.71487553E+03</pdfrwt>
<pdfrwt beam="2">  1       -2 0.64385579E-01 0.71487553E+03</pdfrwt>
<totfact> 0.21480616E+01</totfact>
</mgrwt>
</event>
<event>
 4    1  0.2799069E-007  0.7190858E+03  0.7818608E-02  0.9925692E-01
         -2   -1    0    0    0  501 -0.00000000000E+00  0.00000000000E+00  0.30538630808E+03  0.30538630809E+03  0.25500000000E-02 0.  1.
          2   -1    0    0  501    0  0.00000000000E+00 -0.00000000000E+00 -0.19780090976E+04  0.19780090976E+04  0.25500000000E-02 0. -1.
    8880023    1    1    2    0    0 -0.96613080460E+02  0.27191918411E+03 -0.16099448249E+03  0.73688775242E+03  0.65864270000E+03 0.  1.
    8880022    1    1    2    0    0  0.96613080460E+02 -0.27191918411E+03 -0.15116283070E+04  0.15465076533E+04  0.15294330000E+03 0.  0.
<mgrwt>
<rscale>  0 0.59032158E+03</rscale>
<asrwt>0</asrwt>
<pdfrwt beam="1">  1        2 0.30430908E+00 0.71908576E+03</pdfrwt>
<pdfrwt beam="2">  1       -2 0.46982510E-01 0.71908576E+03</pdfrwt>
<totfact> 0.30579615E+01</totfact>
</mgrwt>
</event>
<event>
 4    1  0.2799069E-007  0.1562295E+04  0.7818608E-02  0.8866855E-01
         -2   -1    0    0    0  501 -0.00000000000E+00  0.00000000000E+00  0.11923322064E+04  0.11923322064E+04  0.25500000000E-02 0.  1.
          2   -1    0    0  501    0  0.00000000000E+00 -0.00000000000E+00 -0.32243058111E+04  0.32243058111E+04  0.25500000000E-02 0. -1.
    8880023    1    1    2    0    0 -0.26175672019E+03 -0.13922784554E+04  0.38670338665E+03  0.16094426344E+04  0.65864270000E+03 0.  0.
    8880022    1    1    2    0    0  0.26175672019E+03  0.13922784554E+04 -0.24186769913E+04  0.28071953832E+04  0.15294330000E+03 0.  0.
<mgrwt>
<rscale>  0 0.15267524E+04</rscale>
<asrwt>0</asrwt>
<pdfrwt beam="1">  1        2 0.49604704E+00 0.15622951E+04</pdfrwt>
<pdfrwt beam="2">  1       -2 0.18343573E+00 0.15622951E+04</pdfrwt>
<totfact> 0.20151431E-01</totfact>
</mgrwt>
</event>
<event>
 4    1  0.2799069E-007  0.1851328E+04  0.7818608E-02  0.8694663E-01
          2   -1    0    0  501    0  0.00000000000E+00  0.00000000000E+00  0.37304726974E+04  0.37304726974E+04  0.25500000000E-02 0. -1.
         -2   -1    0    0    0  501 -0.00000000000E+00 -0.00000000000E+00 -0.14202552483E+04  0.14202552483E+04  0.25500000000E-02 0.  1.
    8880023    1    1    2    0    0 -0.19149335819E+03 -0.17195739736E+04 -0.43538205787E+03  0.19018338780E+04  0.65864270000E+03 0.  0.
    8880022    1    1    2    0    0  0.19149335819E+03  0.17195739736E+04  0.27455995070E+04  0.32488940677E+04  0.15294330000E+03 0.  0.
<mgrwt>
<rscale>  0 0.18220460E+04</rscale>
<asrwt>0</asrwt>
<pdfrwt beam="1">  1        2 0.57391887E+00 0.18513278E+04</pdfrwt>
<pdfrwt beam="2">  1       -2 0.21850081E+00 0.18513278E+04</pdfrwt>
<totfact> 0.50786887E-02</totfact>
</mgrwt>
</event>
<event>
 4    1  0.2799069E-007  0.9955944E+03  0.7818608E-02  0.9387344E-01
         -2   -1    0    0    0  501 -0.00000000000E+00  0.00000000000E+00  0.26070837221E+03  0.26070837222E+03  0.25500000000E-02 0.  1.
          2   -1    0    0  501    0  0.00000000000E+00 -0.00000000000E+00 -0.45032038853E+04  0.45032038853E+04  0.25500000000E-02 0. -1.
    8880023    1    1    2    0    0  0.69627624279E+03 -0.26943917164E+03 -0.92152067072E+03  0.13566166099E+04  0.65864270000E+03 0.  0.
    8880022    1    1    2    0    0 -0.69627624279E+03  0.26943917164E+03 -0.33209748423E+04  0.34072956476E+04  0.15294330000E+03 0.  0.
<mgrwt>
<rscale>  0 0.93124555E+03</rscale>
<asrwt>0</asrwt>
<pdfrwt beam="1">  1        2 0.69280054E+00 0.99559444E+03</pdfrwt>
<pdfrwt beam="2">  1       -2 0.40108984E-01 0.99559444E+03</pdfrwt>
<totfact> 0.77449043E-01</totfact>
</mgrwt>
</event>
<event>
 4    1  0.2799069E-007  0.6839674E+03  0.7818608E-02  0.1007163E+00
         -2   -1    0    0    0  501 -0.00000000000E+00  0.00000000000E+00  0.77703431052E+03  0.77703431053E+03  0.25500000000E-02 0.  1.
          2   -1    0    0  501    0  0.00000000000E+00 -0.00000000000E+00 -0.43203084342E+03  0.43203084343E+03  0.25500000000E-02 0. -1.
    8880023    1    1    2    0    0  0.81229628048E+02 -0.16553835651E+03  0.56244984486E+03  0.88552878790E+03  0.65864270000E+03 0.  1.
    8880022    1    1    2    0    0 -0.81229628048E+02  0.16553835651E+03 -0.21744637776E+03  0.32353636606E+03  0.15294330000E+03 0.  0.
<mgrwt>
<rscale>  0 0.52617932E+03</rscale>
<asrwt>0</asrwt>
<pdfrwt beam="1">  1        2 0.66466285E-01 0.68396740E+03</pdfrwt>
<pdfrwt beam="2">  1       -2 0.11954374E+00 0.68396740E+03</pdfrwt>
<totfact> 0.39700926E+01</totfact>
</mgrwt>
</event>
<event>
 4    1  0.2799069E-007  0.7560788E+03  0.7818608E-02  0.9815367E-01
          2   -1    0    0  501    0  0.00000000000E+00  0.00000000000E+00  0.11750862363E+04  0.11750862363E+04  0.25500000000E-02 0. -1.
         -2   -1    0    0    0  501 -0.00000000000E+00 -0.00000000000E+00 -0.12642663714E+04  0.12642663714E+04  0.25500000000E-02 0.  1.
    8880023    1    1    2    0    0  0.32838681965E+03  0.17322539300E+03 -0.11096347833E+04  0.13427376880E+04  0.65864270000E+03 0.  0.
    8880022    1    1    2    0    0 -0.32838681965E+03 -0.17322539300E+03  0.10204546482E+04  0.10966149197E+04  0.15294330000E+03 0.  0.
<mgrwt>
<rscale>  0 0.64544352E+03</rscale>
<asrwt>0</asrwt>
<pdfrwt beam="1">  1        2 0.18078250E+00 0.75607880E+03</pdfrwt>
<pdfrwt beam="2">  1       -2 0.19450252E+00 0.75607880E+03</pdfrwt>
<totfact> 0.29056601E+00</totfact>
</mgrwt>
</event>
<event>
 4    1  0.2799069E-007  0.8388899E+03  0.7818608E-02  0.9632277E-01
          2   -1    0    0  501    0  0.00000000000E+00  0.00000000000E+00  0.19020654537E+04  0.19020654537E+04  0.25500000000E-02 0. -1.
         -2   -1    0    0    0  501 -0.00000000000E+00 -0.00000000000E+00 -0.37598482346E+03  0.37598482347E+03  0.25500000000E-02 0.  1.
    8880023    1    1    2    0    0  0.47538445407E+03 -0.20960858465E+03  0.22468426961E+03  0.86845803883E+03  0.65864270000E+03 0.  1.
    8880022    1    1    2    0    0 -0.47538445407E+03  0.20960858465E+03  0.13013963607E+04  0.14095922384E+04  0.15294330000E+03 0.  0.
<mgrwt>
<rscale>  0 0.75196226E+03</rscale>
<asrwt>0</asrwt>
<pdfrwt beam="1">  1        2 0.29262545E+00 0.83888995E+03</pdfrwt>
<pdfrwt beam="2">  1       -2 0.57843819E-01 0.83888995E+03</pdfrwt>
<totfact> 0.21616230E+01</totfact>
</mgrwt>
</event>
<event>
 4    1  0.3007174E-007  0.2168427E+04  0.7818608E-02  0.8542186E-01
          2   -1    0    0  501    0  0.00000000000E+00  0.00000000000E+00  0.25189042054E+04  0.25189042054E+04  0.25500000000E-02 0. -1.
         -2   -1    0    0    0  501 -0.00000000000E+00 -0.00000000000E+00 -0.44226060771E+04  0.44226060771E+04  0.25500000000E-02 0.  1.
    8880023    1    1    2    0    0 -0.20444691464E+04  0.29734129152E+03 -0.36410223658E+04  0.42378201954E+04  0.65864270000E+03 0.  0.
    8880022    1    1    2    0    0  0.20444691464E+04 -0.29734129152E+03  0.17373204941E+04  0.27036900870E+04  0.15294330000E+03 0.  0.
<mgrwt>
<rscale>  0 0.21438123E+04</rscale>
<asrwt>0</asrwt>
<pdfrwt beam="1">  1        2 0.38752372E+00 0.21684271E+04</pdfrwt>
<pdfrwt beam="2">  1       -2 0.68040093E+00 0.21684271E+04</pdfrwt>
<totfact> 0.76006634E-04</totfact>
</mgrwt>
</event>
<event>
 4    1  0.2799069E-007  0.1348113E+04  0.7818608E-02  0.9025086E-01
         -2   -1    0    0    0  501 -0.00000000000E+00  0.00000000000E+00  0.17585017232E+04  0.17585017232E+04  0.25500000000E-02 0.  1.
          2   -1    0    0  501    0  0.00000000000E+00 -0.00000000000E+00 -0.10303153236E+04  0.10303153237E+04  0.25500000000E-02 0. -1.
    8880023    1    1    2    0    0 -0.11299385833E+04  0.32685924867E+03 -0.84811898289E+02  0.13507780850E+04  0.65864270000E+03 0.  0.
    8880022    1    1    2    0    0  0.11299385833E+04 -0.32685924867E+03  0.81299829779E+03  0.14380389618E+04  0.15294330000E+03 0.  0.
<mgrwt>
<rscale>  0 0.13056629E+04</rscale>
<asrwt>0</asrwt>
<pdfrwt beam="1">  1        2 0.15851005E+00 0.13481129E+04</pdfrwt>
<pdfrwt beam="2">  1       -2 0.27053873E+00 0.13481129E+04</pdfrwt>
<totfact> 0.11128379E+00</totfact>
</mgrwt>
</event>
<event>
 4    1  0.2799069E-007  0.9975359E+03  0.7818608E-02  0.9384789E-01
          2   -1    0    0  501    0  0.00000000000E+00  0.00000000000E+00  0.67899657211E+03  0.67899657212E+03  0.25500000000E-02 0. -1.
         -2   -1    0    0    0  501 -0.00000000000E+00 -0.00000000000E+00 -0.12690451124E+04  0.12690451124E+04  0.25500000000E-02 0.  1.
    8880023    1    1    2    0    0 -0.35062505473E+03  0.66206480067E+03 -0.63431547721E+03  0.11821311519E+04  0.65864270000E+03 0.  1.
    8880022    1    1    2    0    0  0.35062505473E+03 -0.66206480067E+03  0.44266936950E+02  0.76591053264E+03  0.15294330000E+03 0.  0.
<mgrwt>
<rscale>  0 0.93338169E+03</rscale>
<asrwt>0</asrwt>
<pdfrwt beam="1">  1        2 0.10446101E+00 0.99753593E+03</pdfrwt>
<pdfrwt beam="2">  1       -2 0.19523771E+00 0.99753593E+03</pdfrwt>
<totfact> 0.60499594E+00</totfact>
</mgrwt>
</event>
<event>
 4    1  0.2799069E-007  0.9062936E+03  0.7818608E-02  0.9516003E-01
         -2   -1    0    0    0  501 -0.00000000000E+00  0.00000000000E+00  0.24860954694E+03  0.24860954695E+03  0.25500000000E-02 0.  1.
          2   -1    0    0  501    0  0.00000000000E+00 -0.00000000000E+00 -0.26386601657E+04  0.26386601657E+04  0.25500000000E-02 0. -1.
    8880023    1    1    2    0    0 -0.48007766802E+03  0.39633729796E+03 -0.18033037531E+04  0.20182349847E+04  0.65864270000E+03 0.  1.
    8880022    1    1    2    0    0  0.48007766802E+03 -0.39633729796E+03 -0.58674686565E+03  0.86903472799E+03  0.15294330000E+03 0.  0.
<mgrwt>
<rscale>  0 0.83114199E+03</rscale>
<asrwt>0</asrwt>
<pdfrwt beam="1">  1        2 0.40594770E+00 0.90629357E+03</pdfrwt>
<pdfrwt beam="2">  1       -2 0.38247624E-01 0.90629357E+03</pdfrwt>
<totfact> 0.19131927E+01</totfact>
</mgrwt>
</event>
<event>
 4    1  0.2799069E-007  0.8766203E+03  0.7818608E-02  0.9564657E-01
          2   -1    0    0  501    0  0.00000000000E+00  0.00000000000E+00  0.35574400351E+03  0.35574400352E+03  0.25500000000E-02 0. -1.
         -2   -1    0    0    0  501 -0.00000000000E+00 -0.00000000000E+00 -0.39233242634E+04  0.39233242634E+04  0.25500000000E-02 0.  1.
    8880023    1    1    2    0    0  0.46629494137E+03  0.34237704541E+03 -0.35747410193E+04  0.36806570847E+04  0.65864270000E+03 0.  1.
    8880022    1    1    2    0    0 -0.46629494137E+03 -0.34237704541E+03  0.71607593988E+01  0.59841118226E+03  0.15294330000E+03 0.  0.
<mgrwt>
<rscale>  0 0.79680272E+03</rscale>
<asrwt>0</asrwt>
<pdfrwt beam="1">  1        2 0.54729850E-01 0.87662034E+03</pdfrwt>
<pdfrwt beam="2">  1       -2 0.60358832E+00 0.87662034E+03</pdfrwt>
<totfact> 0.44636023E-02</totfact>
</mgrwt>
</event>
<event>
 4    1  0.2799069E-007  0.8774914E+03  0.7818608E-02  0.9563177E-01
         -2   -1    0    0    0  501 -0.00000000000E+00  0.00000000000E+00  0.61835640752E+03  0.61835640753E+03  0.25500000000E-02 0.  1.
          2   -1    0    0  501    0  0.00000000000E+00 -0.00000000000E+00 -0.23459109475E+04  0.23459109475E+04  0.25500000000E-02 0. -1.
    8880023    1    1    2    0    0  0.10647889802E+03  0.56995012015E+03  0.23806913919E+03  0.90921285543E+03  0.65864270000E+03 0.  1.
    8880022    1    1    2    0    0 -0.10647889802E+03 -0.56995012015E+03 -0.19656236792E+04  0.20550544996E+04  0.15294330000E+03 0.  0.
<mgrwt>
<rscale>  0 0.79782099E+03</rscale>
<asrwt>0</asrwt>
<pdfrwt beam="1">  1        2 0.36090937E+00 0.87749137E+03</pdfrwt>
<pdfrwt beam="2">  1       -2 0.95131756E-01 0.87749137E+03</pdfrwt>
<totfact> 0.40599263E+00</totfact>
</mgrwt>
</event>
<event>
 4    1  0.2799069E-007  0.6631574E+03  0.7818608E-02  0.1021132E+00
         -2   -1    0    0    0  501 -0.00000000000E+00  0.00000000000E+00  0.21194834624E+03  0.21194834626E+03  0.25500000000E-02 0.  1.
          2   -1    0    0  501    0  0.00000000000E+00 -0.00000000000E+00 -0.19937040698E+04  0.19937040698E+04  0.25500000000E-02 0. -1.
    8880023    1    1    2    0    0  0.39421572341E+02  0.66433554757E+02 -0.32438458463E+03  0.73824321370E+03  0.65864270000E+03 0.  1.
    8880022    1    1    2    0    0 -0.39421572341E+02 -0.66433554757E+02 -0.14573711389E+04  0.14674092023E+04  0.15294330000E+03 0.  0.
<mgrwt>
<rscale>  0 0.47280313E+03</rscale>
<asrwt>0</asrwt>
<pdfrwt beam="1">  1        2 0.30672369E+00 0.66315736E+03</pdfrwt>
<pdfrwt beam="2">  1       -2 0.32607439E-01 0.66315736E+03</pdfrwt>
<totfact> 0.61386051E+01</totfact>
</mgrwt>
</event>
<event>
 4    1  0.2799069E-007  0.1317690E+04  0.7818608E-02  0.9050432E-01
          2   -1    0    0  501    0  0.00000000000E+00  0.00000000000E+00  0.24408912671E+04  0.24408912671E+04  0.25500000000E-02 0. -1.
         -2   -1    0    0    0  501 -0.00000000000E+00 -0.00000000000E+00 -0.12304153523E+04  0.12304153523E+04  0.25500000000E-02 0.  1.
    8880023    1    1    2    0    0  0.31145287019E+03  0.10979503060E+04 -0.66082856907E+03  0.14741107044E+04  0.65864270000E+03 0.  0.
    8880022    1    1    2    0    0 -0.31145287019E+03 -0.10979503060E+04  0.18713044839E+04  0.21971959151E+04  0.15294330000E+03 0.  0.
<mgrwt>
<rscale>  0 0.12740118E+04</rscale>
<asrwt>0</asrwt>
<pdfrwt beam="1">  1        2 0.37552173E+00 0.13176904E+04</pdfrwt>
<pdfrwt beam="2">  1       -2 0.18929467E+00 0.13176904E+04</pdfrwt>
<totfact> 0.56676409E-01</totfact>
</mgrwt>
</event>
<event>
 4    1  0.2799069E-007  0.1713563E+04  0.7818608E-02  0.8771920E-01
         -2   -1    0    0    0  501 -0.00000000000E+00  0.00000000000E+00  0.82396607541E+03  0.82396607542E+03  0.25500000000E-02 0.  1.
          2   -1    0    0  501    0  0.00000000000E+00 -0.00000000000E+00 -0.33251345012E+04  0.33251345012E+04  0.25500000000E-02 0. -1.
    8880023    1    1    2    0    0 -0.99670065726E+03  0.12284445295E+04 -0.14378326098E+04  0.22368864482E+04  0.65864270000E+03 0.  1.
    8880022    1    1    2    0    0  0.99670065726E+03 -0.12284445295E+04 -0.10633358161E+04  0.19122141284E+04  0.15294330000E+03 0. -1.
<mgrwt>
<rscale>  0 0.16816153E+04</rscale>
<asrwt>0</asrwt>
<pdfrwt beam="1">  1        2 0.51155915E+00 0.17135631E+04</pdfrwt>
<pdfrwt beam="2">  1       -2 0.12676401E+00 0.17135631E+04</pdfrwt>
<totfact> 0.46259776E-01</totfact>
</mgrwt>
</event>
<event>
 4    1  0.2799069E-007  0.9261506E+03  0.7818608E-02  0.9485292E-01
         -2   -1    0    0    0  501 -0.00000000000E+00  0.00000000000E+00  0.48199198366E+03  0.48199198367E+03  0.25500000000E-02 0.  1.
          2   -1    0    0  501    0  0.00000000000E+00 -0.00000000000E+00 -0.14626837393E+04  0.14626837393E+04  0.25500000000E-02 0. -1.
    8880023    1    1    2    0    0  0.61424473419E+03  0.21598166274E+03 -0.26109051722E+03  0.96224899925E+03  0.65864270000E+03 0.  0.
    8880022    1    1    2    0    0 -0.61424473419E+03 -0.21598166274E+03 -0.71960123841E+03  0.98242672371E+03  0.15294330000E+03 0.  0.
<mgrwt>
<rscale>  0 0.85376917E+03</rscale>
<asrwt>0</asrwt>
<pdfrwt beam="1">  1        2 0.22502827E+00 0.92615057E+03</pdfrwt>
<pdfrwt beam="2">  1       -2 0.74152614E-01 0.92615057E+03</pdfrwt>
<totfact> 0.21914324E+01</totfact>
</mgrwt>
</event>
<event>
 4    1  0.2799069E-007  0.1189018E+04  0.7818608E-02  0.9167872E-01
          2   -1    0    0  501    0  0.00000000000E+00  0.00000000000E+00  0.15254105516E+04  0.15254105516E+04  0.25500000000E-02 0. -1.
         -2   -1    0    0    0  501 -0.00000000000E+00 -0.00000000000E+00 -0.93971776715E+03  0.93971776715E+03  0.25500000000E-02 0.  1.
    8880023    1    1    2    0    0  0.58893204809E+03 -0.79568411296E+03 -0.18231610569E+03  0.12029145994E+04  0.65864270000E+03 0.  0.
    8880022    1    1    2    0    0 -0.58893204809E+03  0.79568411296E+03  0.76800889015E+03  0.12622137193E+04  0.15294330000E+03 0.  0.
<mgrwt>
<rscale>  0 0.11391285E+04</rscale>
<asrwt>0</asrwt>
<pdfrwt beam="1">  1        2 0.23467855E+00 0.11890182E+04</pdfrwt>
<pdfrwt beam="2">  1       -2 0.14457196E+00 0.11890182E+04</pdfrwt>
<totfact> 0.39482114E+00</totfact>
</mgrwt>
</event>
<event>
 4    1  0.2799069E-007  0.7532139E+03  0.7818608E-02  0.9823004E-01
         -2   -1    0    0    0  501 -0.00000000000E+00  0.00000000000E+00  0.53349141797E+03  0.53349141797E+03  0.25500000000E-02 0.  1.
          2   -1    0    0  501    0  0.00000000000E+00 -0.00000000000E+00 -0.12215930547E+04  0.12215930547E+04  0.25500000000E-02 0. -1.
    8880023    1    1    2    0    0 -0.27462832658E+03 -0.24104008634E+03  0.20284257356E+03  0.78004894519E+03  0.65864270000E+03 0.  0.
    8880022    1    1    2    0    0  0.27462832658E+03  0.24104008634E+03 -0.89094421032E+03  0.97503552751E+03  0.15294330000E+03 0.  0.
<mgrwt>
<rscale>  0 0.64142521E+03</rscale>
<asrwt>0</asrwt>
<pdfrwt beam="1">  1        2 0.18793739E+00 0.75321395E+03</pdfrwt>
<pdfrwt beam="2">  1       -2 0.82075603E-01 0.75321395E+03</pdfrwt>
<totfact> 0.24440891E+01</totfact>
</mgrwt>
</event>
<event>
 4    1  0.2799069E-007  0.1657723E+04  0.7818608E-02  0.8805611E-01
         -2   -1    0    0    0  501 -0.00000000000E+00  0.00000000000E+00  0.13390813870E+04  0.13390813870E+04  0.25500000000E-02 0.  1.
          2   -1    0    0  501    0  0.00000000000E+00 -0.00000000000E+00 -0.27802356421E+04  0.27802356421E+04  0.25500000000E-02 0. -1.
    8880023    1    1    2    0    0  0.10686414850E+04 -0.10827013632E+04  0.42056977407E+03  0.17102415053E+04  0.65864270000E+03 0.  0.
    8880022    1    1    2    0    0 -0.10686414850E+04  0.10827013632E+04 -0.18617240291E+04  0.24090755237E+04  0.15294330000E+03 0.  0.
<mgrwt>
<rscale>  0 0.16245422E+04</rscale>
<asrwt>0</asrwt>
<pdfrwt beam="1">  1        2 0.42772856E+00 0.16577235E+04</pdfrwt>
<pdfrwt beam="2">  1       -2 0.20601252E+00 0.16577235E+04</pdfrwt>
<totfact> 0.26685020E-01</totfact>
</mgrwt>
</event>
<event>
 4    1  0.2799069E-007  0.1164860E+04  0.7818608E-02  0.9192062E-01
         -2   -1    0    0    0  501 -0.00000000000E+00  0.00000000000E+00  0.96729176439E+03  0.96729176439E+03  0.25500000000E-02 0.  1.
          2   -1    0    0  501    0  0.00000000000E+00 -0.00000000000E+00 -0.18358127128E+04  0.18358127128E+04  0.25500000000E-02 0. -1.
    8880023    1    1    2    0    0 -0.34100567303E+03  0.89822216359E+03 -0.12941644241E+04  0.17411949021E+04  0.65864270000E+03 0.  0.
    8880022    1    1    2    0    0  0.34100567303E+03 -0.89822216359E+03  0.42564347571E+03  0.10619095751E+04  0.15294330000E+03 0.  0.
<mgrwt>
<rscale>  0 0.11135741E+04</rscale>
<asrwt>0</asrwt>
<pdfrwt beam="1">  1        2 0.28243272E+00 0.11648597E+04</pdfrwt>
<pdfrwt beam="2">  1       -2 0.14881412E+00 0.11648597E+04</pdfrwt>
<totfact> 0.24625803E+00</totfact>
</mgrwt>
</event>
<event>
 4    1  0.2799069E-007  0.7077804E+03  0.7818608E-02  0.9966337E-01
         -2   -1    0    0    0  501 -0.00000000000E+00  0.00000000000E+00  0.24728456462E+03  0.24728456463E+03  0.25500000000E-02 0.  1.
          2   -1    0    0  501    0  0.00000000000E+00 -0.00000000000E+00 -0.15065405459E+04  0.15065405459E+04  0.25500000000E-02 0. -1.
    8880023    1    1    2    0    0 -0.18032201529E+03 -0.18608281648E+03 -0.33736054851E+03  0.78406963322E+03  0.65864270000E+03 0.  1.
    8880022    1    1    2    0    0  0.18032201529E+03  0.18608281648E+03 -0.92189543277E+03  0.96975547731E+03  0.15294330000E+03 0.  0.
<mgrwt>
<rscale>  0 0.57151238E+03</rscale>
<asrwt>0</asrwt>
<pdfrwt beam="1">  1        2 0.23177546E+00 0.70778037E+03</pdfrwt>
<pdfrwt beam="2">  1       -2 0.38043780E-01 0.70778037E+03</pdfrwt>
<totfact> 0.84021141E+01</totfact>
</mgrwt>
</event>
<event>
 4    1  0.2799069E-007  0.8389138E+03  0.7818608E-02  0.9632232E-01
          2   -1    0    0  501    0  0.00000000000E+00  0.00000000000E+00  0.17062750938E+04  0.17062750938E+04  0.25500000000E-02 0. -1.
         -2   -1    0    0    0  501 -0.00000000000E+00 -0.00000000000E+00 -0.79315816407E+03  0.79315816407E+03  0.25500000000E-02 0.  1.
    8880023    1    1    2    0    0 -0.49821600092E+03  0.14746863240E+03 -0.50653027581E+03  0.97997413624E+03  0.65864270000E+03 0.  0.
    8880022    1    1    2    0    0  0.49821600092E+03 -0.14746863240E+03  0.14196472056E+04  0.15194591217E+04  0.15294330000E+03 0.  0.
<mgrwt>
<rscale>  0 0.75199113E+03</rscale>
<asrwt>0</asrwt>
<pdfrwt beam="1">  1        2 0.26250386E+00 0.83891381E+03</pdfrwt>
<pdfrwt beam="2">  1       -2 0.12202433E+00 0.83891381E+03</pdfrwt>
<totfact> 0.50343872E+00</totfact>
</mgrwt>
</event>
<event>
 4    1  0.2799069E-007  0.8365696E+03  0.7818608E-02  0.9636683E-01
          2   -1    0    0  501    0  0.00000000000E+00  0.00000000000E+00  0.27752177006E+04  0.27752177006E+04  0.25500000000E-02 0. -1.
         -2   -1    0    0    0  501 -0.00000000000E+00 -0.00000000000E+00 -0.35363905006E+03  0.35363905007E+03  0.25500000000E-02 0.  1.
    8880023    1    1    2    0    0  0.46467739271E+03  0.22386031592E+03  0.22351677500E+03  0.86591481989E+03  0.65864270000E+03 0.  0.
    8880022    1    1    2    0    0 -0.46467739271E+03 -0.22386031592E+03  0.21980618755E+04  0.22629419308E+04  0.15294330000E+03 0.  0.
<mgrwt>
<rscale>  0 0.74915131E+03</rscale>
<asrwt>0</asrwt>
<pdfrwt beam="1">  1        2 0.42695656E+00 0.83656962E+03</pdfrwt>
<pdfrwt beam="2">  1       -2 0.54406008E-01 0.83656962E+03</pdfrwt>
<totfact> 0.79311083E+00</totfact>
</mgrwt>
</event>
<event>
 4    1  0.2799069E-007  0.9624162E+03  0.7818608E-02  0.9432470E-01
          2   -1    0    0  501    0  0.00000000000E+00  0.00000000000E+00  0.24692362755E+04  0.24692362755E+04  0.25500000000E-02 0. -1.
         -2   -1    0    0    0  501 -0.00000000000E+00 -0.00000000000E+00 -0.71131134458E+03  0.71131134459E+03  0.25500000000E-02 0.  1.
    8880023    1    1    2    0    0 -0.15496767043E+02 -0.70156587347E+03 -0.29419367931E+03  0.10063771419E+04  0.65864270000E+03 0.  0.
    8880022    1    1    2    0    0  0.15496767043E+02  0.70156587347E+03  0.20521186103E+04  0.21741704782E+04  0.15294330000E+03 0.  0.
<mgrwt>
<rscale>  0 0.89450992E+03</rscale>
<asrwt>0</asrwt>
<pdfrwt beam="1">  1        2 0.37988250E+00 0.96241625E+03</pdfrwt>
<pdfrwt beam="2">  1       -2 0.10943252E+00 0.96241625E+03</pdfrwt>
<totfact> 0.24439160E+00</totfact>
</mgrwt>
</event>
<event>
 4    1  0.3490220E-007  0.9554528E+03  0.7818608E-02  0.9442312E-01
          2   -1    0    0  501    0  0.00000000000E+00  0.00000000000E+00  0.20025691476E+04  0.20025691476E+04  0.25500000000E-02 0. -1.
         -2   -1    0    0    0  501 -0.00000000000E+00 -0.00000000000E+00 -0.17313618464E+04  0.17313618464E+04  0.25500000000E-02 0.  1.
    8880023    1    1    2    0    0  0.55101819974E+03 -0.41887804483E+03 -0.15268703215E+04  0.18011726897E+04  0.65864270000E+03 0.  1.
    8880022    1    1    2    0    0 -0.55101819974E+03  0.41887804483E+03  0.17980776227E+04  0.19327583044E+04  0.15294330000E+03 0.  0.
<mgrwt>
<rscale>  0 0.88673911E+03</rscale>
<asrwt>0</asrwt>
<pdfrwt beam="1">  1        2 0.30808756E+00 0.95545281E+03</pdfrwt>
<pdfrwt beam="2">  1       -2 0.26636336E+00 0.95545281E+03</pdfrwt>
<totfact> 0.34430721E-01</totfact>
</mgrwt>
</event>
<event>
 4    1  0.2799069E-007  0.1016752E+04  0.7818608E-02  0.9359962E-01
         -2   -1    0    0    0  501 -0.00000000000E+00  0.00000000000E+00  0.75603175898E+03  0.75603175898E+03  0.25500000000E-02 0.  1.
          2   -1    0    0  501    0  0.00000000000E+00 -0.00000000000E+00 -0.13660391777E+04  0.13660391777E+04  0.25500000000E-02 0. -1.
    8880023    1    1    2    0    0  0.76038790646E+03 -0.14759575705E+03  0.14811823222E+03  0.10274840596E+04  0.65864270000E+03 0. -1.
    8880022    1    1    2    0    0 -0.76038790646E+03  0.14759575705E+03 -0.75812565090E+03  0.10945868770E+04  0.15294330000E+03 0.  0.
<mgrwt>
<rscale>  0 0.95445210E+03</rscale>
<asrwt>0</asrwt>
<pdfrwt beam="1">  1        2 0.21015987E+00 0.10167519E+04</pdfrwt>
<pdfrwt beam="2">  1       -2 0.11631258E+00 0.10167519E+04</pdfrwt>
<totfact> 0.86096741E+00</totfact>
</mgrwt>
</event>
<event>
 4    1  0.2799069E-007  0.1446702E+04  0.7818608E-02  0.8948218E-01
         -2   -1    0    0    0  501 -0.00000000000E+00  0.00000000000E+00  0.16825090355E+04  0.16825090355E+04  0.25500000000E-02 0.  1.
          2   -1    0    0  501    0  0.00000000000E+00 -0.00000000000E+00 -0.22479733260E+04  0.22479733260E+04  0.25500000000E-02 0. -1.
    8880023    1    1    2    0    0 -0.33555618084E+03  0.12435988550E+04  0.11014961993E+04  0.18183069450E+04  0.65864270000E+03 0.  0.
    8880022    1    1    2    0    0  0.33555618084E+03 -0.12435988550E+04 -0.16669604899E+04  0.21121754166E+04  0.15294330000E+03 0.  0.
<mgrwt>
<rscale>  0 0.14077630E+04</rscale>
<asrwt>0</asrwt>
<pdfrwt beam="1">  1        2 0.34584205E+00 0.14467019E+04</pdfrwt>
<pdfrwt beam="2">  1       -2 0.25884754E+00 0.14467019E+04</pdfrwt>
<totfact> 0.25955193E-01</totfact>
</mgrwt>
</event>
<event>
 4    1  0.2799069E-007  0.7175782E+03  0.7818608E-02  0.9930867E-01
         -2   -1    0    0    0  501 -0.00000000000E+00  0.00000000000E+00  0.29812695060E+04  0.29812695060E+04  0.25500000000E-02 0.  1.
          2   -1    0    0  501    0  0.00000000000E+00 -0.00000000000E+00 -0.40560263033E+03  0.40560263034E+03  0.25500000000E-02 0. -1.
    8880023    1    1    2    0    0  0.18093628149E+03 -0.21993259402E+03  0.28647185960E+04  0.29532238528E+04  0.65864270000E+03 0.  1.
    8880022    1    1    2    0    0 -0.18093628149E+03  0.21993259402E+03 -0.28905172031E+03  0.43364828363E+03  0.15294330000E+03 0.  0.
<mgrwt>
<rscale>  0 0.58788372E+03</rscale>
<asrwt>0</asrwt>
<pdfrwt beam="1">  1        2 0.62400406E-01 0.71757821E+03</pdfrwt>
<pdfrwt beam="2">  1       -2 0.45865684E+00 0.71757821E+03</pdfrwt>
<totfact> 0.25542863E-01</totfact>
</mgrwt>
</event>
<event>
 4    1  0.2799069E-007  0.1024515E+04  0.7818608E-02  0.9350165E-01
         -2   -1    0    0    0  501 -0.00000000000E+00  0.00000000000E+00  0.87705333503E+03  0.87705333503E+03  0.25500000000E-02 0.  1.
          2   -1    0    0  501    0  0.00000000000E+00 -0.00000000000E+00 -0.21285780160E+04  0.21285780160E+04  0.25500000000E-02 0. -1.
    8880023    1    1    2    0    0 -0.15624820522E+03 -0.76902983240E+03  0.45507531191E+03  0.11210370781E+04  0.65864270000E+03 0.  0.
    8880022    1    1    2    0    0  0.15624820522E+03  0.76902983240E+03 -0.17065999929E+04  0.18845942729E+04  0.15294330000E+03 0.  0.
<mgrwt>
<rscale>  0 0.96292907E+03</rscale>
<asrwt>0</asrwt>
<pdfrwt beam="1">  1        2 0.32747354E+00 0.10245148E+04</pdfrwt>
<pdfrwt beam="2">  1       -2 0.13493128E+00 0.10245148E+04</pdfrwt>
<totfact> 0.22297970E+00</totfact>
</mgrwt>
</event>
<event>
 4    1  0.2799069E-007  0.7567315E+03  0.7818608E-02  0.9813644E-01
         -2   -1    0    0    0  501 -0.00000000000E+00  0.00000000000E+00  0.33898200730E+03  0.33898200731E+03  0.25500000000E-02 0.  1.
          2   -1    0    0  501    0  0.00000000000E+00 -0.00000000000E+00 -0.13061970859E+04  0.13061970859E+04  0.25500000000E-02 0. -1.
    8880023    1    1    2    0    0 -0.35756553130E+02  0.37088256155E+03 -0.20647424810E+03  0.78439417830E+03  0.65864270000E+03 0.  0.
    8880022    1    1    2    0    0  0.35756553130E+02 -0.37088256155E+03 -0.76074083052E+03  0.86078491494E+03  0.15294330000E+03 0.  0.
<mgrwt>
<rscale>  0 0.64635451E+03</rscale>
<asrwt>0</asrwt>
<pdfrwt beam="1">  1        2 0.20095340E+00 0.75673153E+03</pdfrwt>
<pdfrwt beam="2">  1       -2 0.52151079E-01 0.75673153E+03</pdfrwt>
<totfact> 0.57923467E+01</totfact>
</mgrwt>
</event>
<event>
 4    1  0.2799069E-007  0.9358353E+03  0.7818608E-02  0.9470794E-01
         -2   -1    0    0    0  501 -0.00000000000E+00  0.00000000000E+00  0.44793988497E+03  0.44793988498E+03  0.25500000000E-02 0.  1.
          2   -1    0    0  501    0  0.00000000000E+00 -0.00000000000E+00 -0.31959717981E+04  0.31959717981E+04  0.25500000000E-02 0. -1.
    8880023    1    1    2    0    0 -0.17423579565E+03 -0.64157572975E+03 -0.13769959485E+03  0.94591168413E+03  0.65864270000E+03 0.  1.
    8880022    1    1    2    0    0  0.17423579565E+03  0.64157572975E+03 -0.26103323183E+04  0.26979999990E+04  0.15294330000E+03 0.  0.
<mgrwt>
<rscale>  0 0.86471755E+03</rscale>
<asrwt>0</asrwt>
<pdfrwt beam="1">  1        2 0.49168795E+00 0.93583531E+03</pdfrwt>
<pdfrwt beam="2">  1       -2 0.68913831E-01 0.93583531E+03</pdfrwt>
<totfact> 0.26045606E+00</totfact>
</mgrwt>
</event>
<event>
 4    1  0.2799069E-007  0.9683442E+03  0.7818608E-02  0.9424198E-01
         -2   -1    0    0    0  501 -0.00000000000E+00  0.00000000000E+00  0.96228399867E+03  0.96228399867E+03  0.25500000000E-02 0.  1.
          2   -1    0    0  501    0  0.00000000000E+00 -0.00000000000E+00 -0.13436192306E+04  0.13436192306E+04  0.25500000000E-02 0. -1.
    8880023    1    1    2    0    0  0.38532050203E+03  0.59616133106E+03  0.55878780606E+03  0.11180045798E+04  0.65864270000E+03 0.  1.
    8880022    1    1    2    0    0 -0.38532050203E+03 -0.59616133106E+03 -0.94012303803E+03  0.11878986495E+04  0.15294330000E+03 0.  0.
<mgrwt>
<rscale>  0 0.90110756E+03</rscale>
<asrwt>0</asrwt>
<pdfrwt beam="1">  1        2 0.20671065E+00 0.96834417E+03</pdfrwt>
<pdfrwt beam="2">  1       -2 0.14804369E+00 0.96834417E+03</pdfrwt>
<totfact> 0.48151725E+00</totfact>
</mgrwt>
</event>
<event>
 4    1  0.3158164E-007  0.1021729E+04  0.7818608E-02  0.9353665E-01
          2   -1    0    0  501    0  0.00000000000E+00  0.00000000000E+00  0.38084658485E+04  0.38084658485E+04  0.25500000000E-02 0. -1.
         -2   -1    0    0    0  501 -0.00000000000E+00 -0.00000000000E+00 -0.16878368458E+04  0.16878368458E+04  0.25500000000E-02 0.  1.
    8880023    1    1    2    0    0  0.55372722160E+03  0.55091435326E+03 -0.14857369129E+04  0.18031485910E+04  0.65864270000E+03 0.  1.
    8880022    1    1    2    0    0 -0.55372722160E+03 -0.55091435326E+03  0.36063659156E+04  0.36931541033E+04  0.15294330000E+03 0.  0.
<mgrwt>
<rscale>  0 0.95988949E+03</rscale>
<asrwt>0</asrwt>
<pdfrwt beam="1">  1        2 0.58591782E+00 0.10217293E+04</pdfrwt>
<pdfrwt beam="2">  1       -2 0.25966721E+00 0.10217293E+04</pdfrwt>
<totfact> 0.28277946E-02</totfact>
</mgrwt>
</event>
<event>
 4    1  0.2799069E-007  0.6914198E+03  0.7818608E-02  0.1003485E+00
         -2   -1    0    0    0  501 -0.00000000000E+00  0.00000000000E+00  0.71342973205E+02  0.71342973251E+02  0.25500000000E-02 0.  1.
          2   -1    0    0  501    0  0.00000000000E+00 -0.00000000000E+00 -0.42922345141E+04  0.42922345141E+04  0.25500000000E-02 0. -1.
    8880023    1    1    2    0    0  0.20807582730E+03  0.30911650161E+02 -0.17913583525E+04  0.19201630226E+04  0.65864270000E+03 0.  1.
    8880022    1    1    2    0    0 -0.20807582730E+03 -0.30911650161E+02 -0.24295331885E+04  0.24434144648E+04  0.15294330000E+03 0.  0.
<mgrwt>
<rscale>  0 0.54148195E+03</rscale>
<asrwt>0</asrwt>
<pdfrwt beam="1">  1        2 0.66034357E+00 0.69141976E+03</pdfrwt>
<pdfrwt beam="2">  1       -2 0.10975845E-01 0.69141976E+03</pdfrwt>
<totfact> 0.12862257E+01</totfact>
</mgrwt>
</event>
<event>
 4    1  0.2799069E-007  0.1222768E+04  0.7818608E-02  0.9135302E-01
         -2   -1    0    0    0  501 -0.00000000000E+00  0.00000000000E+00  0.90273874395E+03  0.90273874396E+03  0.25500000000E-02 0.  1.
          2   -1    0    0  501    0  0.00000000000E+00 -0.00000000000E+00 -0.56572049261E+04  0.56572049261E+04  0.25500000000E-02 0. -1.
    8880023    1    1    2    0    0  0.97838083388E+03  0.32268036876E+03  0.41140844756E+03  0.12901235574E+04  0.65864270000E+03 0.  0.
    8880022    1    1    2    0    0 -0.97838083388E+03 -0.32268036876E+03 -0.51658746297E+04  0.52698201126E+04  0.15294330000E+03 0.  0.
<mgrwt>
<rscale>  0 0.11746918E+04</rscale>
<asrwt>0</asrwt>
<pdfrwt beam="1">  1        2 0.87033920E+00 0.12227681E+04</pdfrwt>
<pdfrwt beam="2">  1       -2 0.13888289E+00 0.12227681E+04</pdfrwt>
<totfact> 0.11578829E-03</totfact>
</mgrwt>
</event>
<event>
 4    1  0.2799069E-007  0.1058402E+04  0.7818608E-02  0.9308848E-01
          2   -1    0    0  501    0  0.00000000000E+00  0.00000000000E+00  0.23500390774E+04  0.23500390774E+04  0.25500000000E-02 0. -1.
         -2   -1    0    0    0  501 -0.00000000000E+00 -0.00000000000E+00 -0.51461085578E+03  0.51461085579E+03  0.25500000000E-02 0.  1.
    8880023    1    1    2    0    0  0.82239038747E+03  0.10039768740E+03  0.27856594236E+03  0.10944472740E+04  0.65864270000E+03 0.  1.
    8880022    1    1    2    0    0 -0.82239038747E+03 -0.10039768740E+03  0.15568622793E+04  0.17702026592E+04  0.15294330000E+03 0.  0.
<mgrwt>
<rscale>  0 0.99972358E+03</rscale>
<asrwt>0</asrwt>
<pdfrwt beam="1">  1        2 0.36154448E+00 0.10584025E+04</pdfrwt>
<pdfrwt beam="2">  1       -2 0.79170900E-01 0.10584025E+04</pdfrwt>
<totfact> 0.60103833E+00</totfact>
</mgrwt>
</event>
<event>
 4    1  0.2799069E-007  0.7267936E+03  0.7818608E-02  0.9900235E-01
         -2   -1    0    0    0  501 -0.00000000000E+00  0.00000000000E+00  0.16096326173E+03  0.16096326175E+03  0.25500000000E-02 0.  1.
          2   -1    0    0  501    0  0.00000000000E+00 -0.00000000000E+00 -0.20779769419E+04  0.20779769419E+04  0.25500000000E-02 0. -1.
    8880023    1    1    2    0    0  0.27994367781E+03  0.12668974302E+03 -0.85146356363E+03  0.11194727153E+04  0.65864270000E+03 0. -1.
    8880022    1    1    2    0    0 -0.27994367781E+03 -0.12668974302E+03 -0.10655501165E+04  0.11194674884E+04  0.15294330000E+03 0.  0.
<mgrwt>
<rscale>  0 0.60249894E+03</rscale>
<asrwt>0</asrwt>
<pdfrwt beam="1">  1        2 0.31968874E+00 0.72679362E+03</pdfrwt>
<pdfrwt beam="2">  1       -2 0.24763580E-01 0.72679362E+03</pdfrwt>
<totfact> 0.90874444E+01</totfact>
</mgrwt>
</event>
<event>
 4    1  0.2799069E-007  0.1145772E+04  0.7818608E-02  0.9211728E-01
          2   -1    0    0  501    0  0.00000000000E+00  0.00000000000E+00  0.21904334587E+04  0.21904334587E+04  0.25500000000E-02 0. -1.
         -2   -1    0    0    0  501 -0.00000000000E+00 -0.00000000000E+00 -0.11976517920E+04  0.11976517920E+04  0.25500000000E-02 0.  1.
    8880023    1    1    2    0    0  0.90778780125E+03  0.23431849745E+03 -0.77359526246E+03  0.13824773730E+04  0.65864270000E+03 0.  0.
    8880022    1    1    2    0    0 -0.90778780125E+03 -0.23431849745E+03  0.17663769292E+04  0.20056078778E+04  0.15294330000E+03 0.  0.
<mgrwt>
<rscale>  0 0.10933196E+04</rscale>
<asrwt>0</asrwt>
<pdfrwt beam="1">  1        2 0.33698976E+00 0.11457723E+04</pdfrwt>
<pdfrwt beam="2">  1       -2 0.18425412E+00 0.11457723E+04</pdfrwt>
<totfact> 0.86847977E-01</totfact>
</mgrwt>
</event>
<event>
 4    1  0.2799069E-007  0.7540821E+03  0.7818608E-02  0.9820676E-01
         -2   -1    0    0    0  501 -0.00000000000E+00  0.00000000000E+00  0.29191424155E+03  0.29191424156E+03  0.25500000000E-02 0.  1.
          2   -1    0    0  501    0  0.00000000000E+00 -0.00000000000E+00 -0.26198654255E+04  0.26198654255E+04  0.25500000000E-02 0. -1.
    8880023    1    1    2    0    0  0.26062756807E+03  0.25865596262E+03 -0.24752367057E+03  0.79366731695E+03  0.65864270000E+03 0.  1.
    8880022    1    1    2    0    0 -0.26062756807E+03 -0.25865596262E+03 -0.20804275134E+04  0.21181123501E+04  0.15294330000E+03 0.  0.
<mgrwt>
<rscale>  0 0.64264643E+03</rscale>
<asrwt>0</asrwt>
<pdfrwt beam="1">  1        2 0.40305620E+00 0.75408212E+03</pdfrwt>
<pdfrwt beam="2">  1       -2 0.44909885E-01 0.75408212E+03</pdfrwt>
<totfact> 0.14621783E+01</totfact>
</mgrwt>
</event>
<event>
 4    1  0.2799069E-007  0.9096543E+03  0.7818608E-02  0.9510708E-01
          2   -1    0    0  501    0  0.00000000000E+00  0.00000000000E+00  0.54225794318E+03  0.54225794319E+03  0.25500000000E-02 0. -1.
         -2   -1    0    0    0  501 -0.00000000000E+00 -0.00000000000E+00 -0.12681440847E+04  0.12681440847E+04  0.25500000000E-02 0.  1.
    8880023    1    1    2    0    0  0.39798539708E+03  0.48504476536E+03 -0.72720909840E+03  0.11646046882E+04  0.65864270000E+03 0.  0.
    8880022    1    1    2    0    0 -0.39798539708E+03 -0.48504476536E+03  0.13229569152E+01  0.64579733967E+03  0.15294330000E+03 0.  0.
<mgrwt>
<rscale>  0 0.83498972E+03</rscale>
<asrwt>0</asrwt>
<pdfrwt beam="1">  1        2 0.83424299E-01 0.90965433E+03</pdfrwt>
<pdfrwt beam="2">  1       -2 0.19509909E+00 0.90965433E+03</pdfrwt>
<totfact> 0.80432508E+00</totfact>
</mgrwt>
</event>
<event>
 4    1  0.2799069E-007  0.8990440E+03  0.7818608E-02  0.9527568E-01
         -2   -1    0    0    0  501 -0.00000000000E+00  0.00000000000E+00  0.13080657679E+04  0.13080657679E+04  0.25500000000E-02 0.  1.
          2   -1    0    0  501    0  0.00000000000E+00 -0.00000000000E+00 -0.10776046214E+04  0.10776046214E+04  0.25500000000E-02 0. -1.
    8880023    1    1    2    0    0  0.31168097629E+03  0.52661651794E+03  0.10300636197E+04  0.13672275798E+04  0.65864270000E+03 0.  0.
    8880022    1    1    2    0    0 -0.31168097629E+03 -0.52661651794E+03 -0.79960247323E+03  0.10184428095E+04  0.15294330000E+03 0.  0.
<mgrwt>
<rscale>  0 0.82281507E+03</rscale>
<asrwt>0</asrwt>
<pdfrwt beam="1">  1        2 0.16578533E+00 0.89904404E+03</pdfrwt>
<pdfrwt beam="2">  1       -2 0.20124089E+00 0.89904404E+03</pdfrwt>
<totfact> 0.29488830E+00</totfact>
</mgrwt>
</event>
<event>
 4    1  0.2799069E-007  0.6664500E+03  0.7818608E-02  0.1018347E+00
         -2   -1    0    0    0  501 -0.00000000000E+00  0.00000000000E+00  0.10326659969E+03  0.10326659972E+03  0.25500000000E-02 0.  1.
          2   -1    0    0  501    0  0.00000000000E+00 -0.00000000000E+00 -0.21990009226E+04  0.21990009226E+04  0.25500000000E-02 0. -1.
    8880023    1    1    2    0    0 -0.97353674455E+01  0.10124534110E+03 -0.10726617468E+04  0.12628376086E+04  0.65864270000E+03 0.  1.
    8880022    1    1    2    0    0  0.97353674455E+01 -0.10124534110E+03 -0.10230725761E+04  0.10394299136E+04  0.15294330000E+03 0.  0.
<mgrwt>
<rscale>  0 0.48287983E+03</rscale>
<asrwt>0</asrwt>
<pdfrwt beam="1">  1        2 0.33830780E+00 0.66645000E+03</pdfrwt>
<pdfrwt beam="2">  1       -2 0.15887171E-01 0.66645000E+03</pdfrwt>
<totfact> 0.17056320E+02</totfact>
</mgrwt>
</event>
<event>
 4    1  0.2799069E-007  0.7687357E+03  0.7818608E-02  0.9782995E-01
         -2   -1    0    0    0  501 -0.00000000000E+00  0.00000000000E+00  0.15127560139E+03  0.15127560141E+03  0.25500000000E-02 0.  1.
          2   -1    0    0  501    0  0.00000000000E+00 -0.00000000000E+00 -0.24808733474E+04  0.24808733474E+04  0.25500000000E-02 0. -1.
    8880023    1    1    2    0    0 -0.36499806587E+03 -0.15466328773E+03 -0.11982304606E+04  0.14236259213E+04  0.65864270000E+03 0. -1.
    8880022    1    1    2    0    0  0.36499806587E+03  0.15466328773E+03 -0.11313672853E+04  0.12085230275E+04  0.15294330000E+03 0.  0.
<mgrwt>
<rscale>  0 0.66283166E+03</rscale>
<asrwt>0</asrwt>
<pdfrwt beam="1">  1        2 0.38167279E+00 0.76873567E+03</pdfrwt>
<pdfrwt beam="2">  1       -2 0.23273171E-01 0.76873567E+03</pdfrwt>
<totfact> 0.60391186E+01</totfact>
</mgrwt>
</event>
<event>
 4    1  0.2799069E-007  0.1106114E+04  0.7818608E-02  0.9254280E-01
          2   -1    0    0  501    0  0.00000000000E+00  0.00000000000E+00  0.17585660046E+04  0.17585660046E+04  0.25500000000E-02 0. -1.
         -2   -1    0    0    0  501 -0.00000000000E+00 -0.00000000000E+00 -0.10782610482E+04  0.10782610482E+04  0.25500000000E-02 0.  1.
    8880023    1    1    2    0    0 -0.10085800306E+03 -0.88289593885E+03  0.13267396793E+04  0.17273465079E+04  0.65864270000E+03 0.  0.
    8880022    1    1    2    0    0  0.10085800306E+03  0.88289593885E+03 -0.64643472283E+03  0.11094805449E+04  0.15294330000E+03 0.  0.
<mgrwt>
<rscale>  0 0.10510317E+04</rscale>
<asrwt>0</asrwt>
<pdfrwt beam="1">  1        2 0.27054862E+00 0.11061138E+04</pdfrwt>
<pdfrwt beam="2">  1       -2 0.16588632E+00 0.11061138E+04</pdfrwt>
<totfact> 0.20374694E+00</totfact>
</mgrwt>
</event>
<event>
 4    1  0.2799069E-007  0.8424939E+03  0.7818608E-02  0.9625496E-01
         -2   -1    0    0    0  501 -0.00000000000E+00  0.00000000000E+00  0.67044729295E+03  0.67044729296E+03  0.25500000000E-02 0.  1.
          2   -1    0    0  501    0  0.00000000000E+00 -0.00000000000E+00 -0.21681615309E+04  0.21681615309E+04  0.25500000000E-02 0. -1.
    8880023    1    1    2    0    0  0.29433861380E+03 -0.43514424613E+03  0.34946453875E+03  0.91209725612E+03  0.65864270000E+03 0.  1.
    8880022    1    1    2    0    0 -0.29433861380E+03  0.43514424613E+03 -0.18471787767E+04  0.19265115677E+04  0.15294330000E+03 0.  0.
<mgrwt>
<rscale>  0 0.75631452E+03</rscale>
<asrwt>0</asrwt>
<pdfrwt beam="1">  1        2 0.33356331E+00 0.84249388E+03</pdfrwt>
<pdfrwt beam="2">  1       -2 0.10314574E+00 0.84249388E+03</pdfrwt>
<totfact> 0.42313630E+00</totfact>
</mgrwt>
</event>
<event>
 4    1  0.2799069E-007  0.1105438E+04  0.7818608E-02  0.9255025E-01
          2   -1    0    0  501    0  0.00000000000E+00  0.00000000000E+00  0.15621865735E+04  0.15621865735E+04  0.25500000000E-02 0. -1.
         -2   -1    0    0    0  501 -0.00000000000E+00 -0.00000000000E+00 -0.93390132963E+03  0.93390132964E+03  0.25500000000E-02 0.  1.
    8880023    1    1    2    0    0  0.68830022235E+03 -0.56073722028E+03 -0.35640807046E+03  0.11614733511E+04  0.65864270000E+03 0.  0.
    8880022    1    1    2    0    0 -0.68830022235E+03  0.56073722028E+03  0.98469331432E+03  0.13346145521E+04  0.15294330000E+03 0.  0.
<mgrwt>
<rscale>  0 0.10503086E+04</rscale>
<asrwt>0</asrwt>
<pdfrwt beam="1">  1        2 0.24033639E+00 0.11054382E+04</pdfrwt>
<pdfrwt beam="2">  1       -2 0.14367713E+00 0.11054382E+04</pdfrwt>
<totfact> 0.38590318E+00</totfact>
</mgrwt>
</event>
<event>
 4    1  0.2799069E-007  0.1130540E+04  0.7818608E-02  0.9227792E-01
          2   -1    0    0  501    0  0.00000000000E+00  0.00000000000E+00  0.22267647527E+04  0.22267647527E+04  0.25500000000E-02 0. -1.
         -2   -1    0    0    0  501 -0.00000000000E+00 -0.00000000000E+00 -0.75464691429E+03  0.75464691429E+03  0.25500000000E-02 0.  1.
    8880023    1    1    2    0    0 -0.57639716470E+03 -0.71559539692E+03 -0.11992050603E+03  0.11368824027E+04  0.65864270000E+03 0.  0.
    8880022    1    1    2    0    0  0.57639716470E+03  0.71559539692E+03  0.15920383444E+04  0.18445292642E+04  0.15294330000E+03 0.  0.
<mgrwt>
<rscale>  0 0.10771118E+04</rscale>
<asrwt>0</asrwt>
<pdfrwt beam="1">  1        2 0.34257919E+00 0.11305400E+04</pdfrwt>
<pdfrwt beam="2">  1       -2 0.11609953E+00 0.11305400E+04</pdfrwt>
<totfact> 0.28337803E+00</totfact>
</mgrwt>
</event>
<event>
 4    1  0.2799069E-007  0.6636152E+03  0.7818608E-02  0.1020725E+00
          2   -1    0    0  501    0  0.00000000000E+00  0.00000000000E+00  0.43690349119E+04  0.43690349119E+04  0.25500000000E-02 0. -1.
         -2   -1    0    0    0  501 -0.00000000000E+00 -0.00000000000E+00 -0.16122127961E+03  0.16122127963E+03  0.25500000000E-02 0.  1.
    8880023    1    1    2    0    0  0.26063157745E+02 -0.76782692637E+02  0.53244459135E+03  0.85081274039E+03  0.65864270000E+03 0.  1.
    8880022    1    1    2    0    0 -0.26063157745E+02  0.76782692637E+02  0.36753690409E+04  0.36794434511E+04  0.15294330000E+03 0.  0.
<mgrwt>
<rscale>  0 0.47426029E+03</rscale>
<asrwt>0</asrwt>
<pdfrwt beam="1">  1        2 0.67215918E+00 0.66361516E+03</pdfrwt>
<pdfrwt beam="2">  1       -2 0.24803275E-01 0.66361516E+03</pdfrwt>
<totfact> 0.27453598E+00</totfact>
</mgrwt>
</event>
<event>
 4    1  0.2799069E-007  0.1086745E+04  0.7818608E-02  0.9275960E-01
         -2   -1    0    0    0  501 -0.00000000000E+00  0.00000000000E+00  0.10499155485E+04  0.10499155485E+04  0.25500000000E-02 0.  1.
          2   -1    0    0  501    0  0.00000000000E+00 -0.00000000000E+00 -0.11394414816E+04  0.11394414816E+04  0.25500000000E-02 0. -1.
    8880023    1    1    2    0    0 -0.85454798272E+03  0.13019889316E+03  0.43066454437E+03  0.11689679904E+04  0.65864270000E+03 0.  0.
    8880022    1    1    2    0    0  0.85454798272E+03 -0.13019889316E+03 -0.52019047742E+03  0.10203890397E+04  0.15294330000E+03 0.  0.
<mgrwt>
<rscale>  0 0.10302651E+04</rscale>
<asrwt>0</asrwt>
<pdfrwt beam="1">  1        2 0.17529869E+00 0.10867448E+04</pdfrwt>
<pdfrwt beam="2">  1       -2 0.16152547E+00 0.10867448E+04</pdfrwt>
<totfact> 0.49696459E+00</totfact>
</mgrwt>
</event>
<event>
 4    1  0.2799069E-007  0.1033605E+04  0.7818608E-02  0.9338855E-01
         -2   -1    0    0    0  501 -0.00000000000E+00  0.00000000000E+00  0.12021626059E+04  0.12021626059E+04  0.25500000000E-02 0.  1.
          2   -1    0    0  501    0  0.00000000000E+00 -0.00000000000E+00 -0.10069646351E+04  0.10069646351E+04  0.25500000000E-02 0. -1.
    8880023    1    1    2    0    0 -0.46571824197E+03 -0.64624748286E+03  0.70495731522E+03  0.12511212222E+04  0.65864270000E+03 0.  0.
    8880022    1    1    2    0    0  0.46571824197E+03  0.64624748286E+03 -0.50975934439E+03  0.95800601888E+03  0.15294330000E+03 0.  0.
<mgrwt>
<rscale>  0 0.97283166E+03</rscale>
<asrwt>0</asrwt>
<pdfrwt beam="1">  1        2 0.15491764E+00 0.10336051E+04</pdfrwt>
<pdfrwt beam="2">  1       -2 0.18494809E+00 0.10336051E+04</pdfrwt>
<totfact> 0.41305033E+00</totfact>
</mgrwt>
</event>
<event>
 4    1  0.2799069E-007  0.7790319E+03  0.7818608E-02  0.9758116E-01
         -2   -1    0    0    0  501 -0.00000000000E+00  0.00000000000E+00  0.94813709489E+03  0.94813709489E+03  0.25500000000E-02 0.  1.
          2   -1    0    0  501    0  0.00000000000E+00 -0.00000000000E+00 -0.15735754851E+04  0.15735754851E+04  0.25500000000E-02 0. -1.
    8880023    1    1    2    0    0 -0.20519970221E+03 -0.36190264529E+03  0.74710121187E+03  0.10793752218E+04  0.65864270000E+03 0.  1.
    8880022    1    1    2    0    0  0.20519970221E+03  0.36190264529E+03 -0.13725396021E+04  0.14423373582E+04  0.15294330000E+03 0.  0.
<mgrwt>
<rscale>  0 0.67659538E+03</rscale>
<asrwt>0</asrwt>
<pdfrwt beam="1">  1        2 0.24208854E+00 0.77903187E+03</pdfrwt>
<pdfrwt beam="2">  1       -2 0.14586725E+00 0.77903187E+03</pdfrwt>
<totfact> 0.38084291E+00</totfact>
</mgrwt>
</event>
<event>
 4    1  0.2799069E-007  0.7227662E+03  0.7818608E-02  0.9913335E-01
          2   -1    0    0  501    0  0.00000000000E+00  0.00000000000E+00  0.16753374098E+04  0.16753374098E+04  0.25500000000E-02 0. -1.
         -2   -1    0    0    0  501 -0.00000000000E+00 -0.00000000000E+00 -0.16994477133E+03  0.16994477135E+03  0.25500000000E-02 0.  1.
    8880023    1    1    2    0    0  0.28020751396E+03 -0.10032183876E+03  0.11400668664E+04  0.13498679151E+04  0.65864270000E+03 0. -1.
    8880022    1    1    2    0    0 -0.28020751396E+03  0.10032183876E+03  0.36532577208E+03  0.49541426602E+03  0.15294330000E+03 0.  1.
<mgrwt>
<rscale>  0 0.59619348E+03</rscale>
<asrwt>0</asrwt>
<pdfrwt beam="1">  1        2 0.25774423E+00 0.72276616E+03</pdfrwt>
<pdfrwt beam="2">  1       -2 0.26145348E-01 0.72276616E+03</pdfrwt>
<totfact> 0.13662346E+02</totfact>
</mgrwt>
</event>
<event>
 4    1  0.2799069E-007  0.1316839E+04  0.7818608E-02  0.9051153E-01
          2   -1    0    0  501    0  0.00000000000E+00  0.00000000000E+00  0.28869399337E+04  0.28869399337E+04  0.25500000000E-02 0. -1.
         -2   -1    0    0    0  501 -0.00000000000E+00 -0.00000000000E+00 -0.74887877003E+03  0.74887877004E+03  0.25500000000E-02 0.  1.
    8880023    1    1    2    0    0  0.12724490300E+03  0.11331651729E+04  0.21072990477E+04  0.24849092654E+04  0.65864270000E+03 0. -1.
    8880022    1    1    2    0    0 -0.12724490300E+03 -0.11331651729E+04  0.30762115935E+02  0.11509094383E+04  0.15294330000E+03 0.  0.
<mgrwt>
<rscale>  0 0.12731248E+04</rscale>
<asrwt>0</asrwt>
<pdfrwt beam="1">  1        2 0.44414461E+00 0.13168389E+04</pdfrwt>
<pdfrwt beam="2">  1       -2 0.11521212E+00 0.13168389E+04</pdfrwt>
<totfact> 0.11680759E+00</totfact>
</mgrwt>
</event>
<event>
 4    1  0.2799069E-007  0.7694113E+03  0.7818608E-02  0.9781325E-01
          2   -1    0    0  501    0  0.00000000000E+00  0.00000000000E+00  0.21258159298E+04  0.21258159298E+04  0.25500000000E-02 0. -1.
         -2   -1    0    0    0  501 -0.00000000000E+00 -0.00000000000E+00 -0.16877084954E+04  0.16877084954E+04  0.25500000000E-02 0.  1.
    8880023    1    1    2    0    0 -0.15600469930E+03  0.36584977815E+03 -0.15765579689E+04  0.17542886770E+04  0.65864270000E+03 0.  0.
    8880022    1    1    2    0    0  0.15600469930E+03 -0.36584977815E+03  0.20146654033E+04  0.20592357482E+04  0.15294330000E+03 0. -1.
<mgrwt>
<rscale>  0 0.66374456E+03</rscale>
<asrwt>0</asrwt>
<pdfrwt beam="1">  1        2 0.32704860E+00 0.76941129E+03</pdfrwt>
<pdfrwt beam="2">  1       -2 0.25964746E+00 0.76941129E+03</pdfrwt>
<totfact> 0.33611827E-01</totfact>
</mgrwt>
</event>
<event>
 4    1  0.2799069E-007  0.1168934E+04  0.7818608E-02  0.9187928E-01
          2   -1    0    0  501    0  0.00000000000E+00  0.00000000000E+00  0.64319193135E+03  0.64319193136E+03  0.25500000000E-02 0. -1.
         -2   -1    0    0    0  501 -0.00000000000E+00 -0.00000000000E+00 -0.19733493513E+04  0.19733493513E+04  0.25500000000E-02 0.  1.
    8880023    1    1    2    0    0  0.18345838443E+03 -0.94812465408E+03 -0.11149271251E+04  0.16153854150E+04  0.65864270000E+03 0.  0.
    8880022    1    1    2    0    0 -0.18345838443E+03  0.94812465408E+03 -0.21523029485E+03  0.10011558677E+04  0.15294330000E+03 0.  0.
<mgrwt>
<rscale>  0 0.11178903E+04</rscale>
<asrwt>0</asrwt>
<pdfrwt beam="1">  1        2 0.98952606E-01 0.11689344E+04</pdfrwt>
<pdfrwt beam="2">  1       -2 0.30359220E+00 0.11689344E+04</pdfrwt>
<totfact> 0.13580388E+00</totfact>
</mgrwt>
</event>
<event>
 4    1  0.2799069E-007  0.8449191E+03  0.7818608E-02  0.9620974E-01
         -2   -1    0    0    0  501 -0.00000000000E+00  0.00000000000E+00  0.44579904488E+03  0.44579904488E+03  0.25500000000E-02 0.  1.
          2   -1    0    0  501    0  0.00000000000E+00 -0.00000000000E+00 -0.27133227616E+04  0.27133227616E+04  0.25500000000E-02 0. -1.
    8880023    1    1    2    0    0 -0.10082198446E+03 -0.51953149134E+03 -0.20089771008E+02  0.84515788360E+03  0.65864270000E+03 0.  1.
    8880022    1    1    2    0    0  0.10082198446E+03  0.51953149134E+03 -0.22474339457E+04  0.23139639228E+04  0.15294330000E+03 0.  0.
<mgrwt>
<rscale>  0 0.75923418E+03</rscale>
<asrwt>0</asrwt>
<pdfrwt beam="1">  1        2 0.41743426E+00 0.84491908E+03</pdfrwt>
<pdfrwt beam="2">  1       -2 0.68584470E-01 0.84491908E+03</pdfrwt>
<totfact> 0.52661956E+00</totfact>
</mgrwt>
</event>
<event>
 4    1  0.2799069E-007  0.8480965E+03  0.7818608E-02  0.9615099E-01
          2   -1    0    0  501    0  0.00000000000E+00  0.00000000000E+00  0.10632655304E+04  0.10632655305E+04  0.25500000000E-02 0. -1.
         -2   -1    0    0    0  501 -0.00000000000E+00 -0.00000000000E+00 -0.72322600007E+03  0.72322600008E+03  0.25500000000E-02 0.  1.
    8880023    1    1    2    0    0 -0.29962533148E+03 -0.44235965322E+03 -0.33522532899E+03  0.91194497066E+03  0.65864270000E+03 0.  1.
    8880022    1    1    2    0    0  0.29962533148E+03  0.44235965322E+03  0.67526485937E+03  0.87454655986E+03  0.15294330000E+03 0.  0.
<mgrwt>
<rscale>  0 0.76304864E+03</rscale>
<asrwt>0</asrwt>
<pdfrwt beam="1">  1        2 0.16357931E+00 0.84809646E+03</pdfrwt>
<pdfrwt beam="2">  1       -2 0.11126554E+00 0.84809646E+03</pdfrwt>
<totfact> 0.14777801E+01</totfact>
</mgrwt>
</event>
<event>
 4    1  0.2799069E-007  0.6849764E+03  0.7818608E-02  0.1006638E+00
          2   -1    0    0  501    0  0.00000000000E+00  0.00000000000E+00  0.57529041322E+03  0.57529041323E+03  0.25500000000E-02 0. -1.
         -2   -1    0    0    0  501 -0.00000000000E+00 -0.00000000000E+00 -0.16412709115E+04  0.16412709115E+04  0.25500000000E-02 0.  1.
    8880023    1    1    2    0    0  0.18796909944E+03  0.70754031405E+01 -0.15392674103E+04  0.16847957770E+04  0.65864270000E+03 0.  1.
    8880022    1    1    2    0    0 -0.18796909944E+03 -0.70754031405E+01  0.47328691198E+03  0.53176554772E+03  0.15294330000E+03 0.  0.
<mgrwt>
<rscale>  0 0.52832960E+03</rscale>
<asrwt>0</asrwt>
<pdfrwt beam="1">  1        2 0.88506218E-01 0.68497639E+03</pdfrwt>
<pdfrwt beam="2">  1       -2 0.25250321E+00 0.68497639E+03</pdfrwt>
<totfact> 0.33665766E+00</totfact>
</mgrwt>
</event>
<event>
 4    1  0.2799069E-007  0.1151206E+04  0.7818608E-02  0.9206078E-01
          2   -1    0    0  501    0  0.00000000000E+00  0.00000000000E+00  0.15347816724E+04  0.15347816724E+04  0.25500000000E-02 0. -1.
         -2   -1    0    0    0  501 -0.00000000000E+00 -0.00000000000E+00 -0.97997417315E+03  0.97997417316E+03  0.25500000000E-02 0.  1.
    8880023    1    1    2    0    0 -0.84441123811E+03 -0.42241517059E+03 -0.34475252553E+03  0.12017193622E+04  0.65864270000E+03 0.  1.
    8880022    1    1    2    0    0  0.84441123811E+03  0.42241517059E+03  0.89956002477E+03  0.13130364833E+04  0.15294330000E+03 0.  0.
<mgrwt>
<rscale>  0 0.10990916E+04</rscale>
<asrwt>0</asrwt>
<pdfrwt beam="1">  1        2 0.23612026E+00 0.11512059E+04</pdfrwt>
<pdfrwt beam="2">  1       -2 0.15076526E+00 0.11512059E+04</pdfrwt>
<totfact> 0.35028817E+00</totfact>
</mgrwt>
</event>
<event>
 4    1  0.2799069E-007  0.9064044E+03  0.7818608E-02  0.9515828E-01
          2   -1    0    0  501    0  0.00000000000E+00  0.00000000000E+00  0.31730598953E+04  0.31730598953E+04  0.25500000000E-02 0. -1.
         -2   -1    0    0    0  501 -0.00000000000E+00 -0.00000000000E+00 -0.36171452913E+03  0.36171452914E+03  0.25500000000E-02 0.  1.
    8880023    1    1    2    0    0 -0.36595538300E+03  0.50382082381E+03  0.31842318039E+03  0.96070926555E+03  0.65864270000E+03 0.  0.
    8880022    1    1    2    0    0  0.36595538300E+03 -0.50382082381E+03  0.24929221858E+04  0.25740651589E+04  0.15294330000E+03 0.  0.
<mgrwt>
<rscale>  0 0.83126903E+03</rscale>
<asrwt>0</asrwt>
<pdfrwt beam="1">  1        2 0.48816307E+00 0.90640442E+03</pdfrwt>
<pdfrwt beam="2">  1       -2 0.55648388E-01 0.90640442E+03</pdfrwt>
<totfact> 0.42706660E+00</totfact>
</mgrwt>
</event>
<event>
 4    1  0.2799069E-007  0.1024963E+04  0.7818608E-02  0.9349604E-01
         -2   -1    0    0    0  501 -0.00000000000E+00  0.00000000000E+00  0.14167616789E+04  0.14167616789E+04  0.25500000000E-02 0.  1.
          2   -1    0    0  501    0  0.00000000000E+00 -0.00000000000E+00 -0.72608209685E+03  0.72608209685E+03  0.25500000000E-02 0. -1.
    8880023    1    1    2    0    0 -0.56932056903E+02  0.78326036970E+03 -0.84997550988E+02  0.10284808485E+04  0.65864270000E+03 0. -1.
    8880022    1    1    2    0    0  0.56932056903E+02 -0.78326036970E+03  0.77567713303E+03  0.11143629272E+04  0.15294330000E+03 0.  0.
<mgrwt>
<rscale>  0 0.96341744E+03</rscale>
<asrwt>0</asrwt>
<pdfrwt beam="1">  1        2 0.11170494E+00 0.10249626E+04</pdfrwt>
<pdfrwt beam="2">  1       -2 0.21796333E+00 0.10249626E+04</pdfrwt>
<totfact> 0.39501850E+00</totfact>
</mgrwt>
</event>
<event>
 4    1  0.2799069E-007  0.1422260E+04  0.7818608E-02  0.8966577E-01
         -2   -1    0    0    0  501 -0.00000000000E+00  0.00000000000E+00  0.14511607866E+04  0.14511607866E+04  0.25500000000E-02 0.  1.
          2   -1    0    0  501    0  0.00000000000E+00 -0.00000000000E+00 -0.19934837457E+04  0.19934837457E+04  0.25500000000E-02 0. -1.
    8880023    1    1    2    0    0 -0.12322494366E+04  0.26565655135E+03  0.77103556079E+03  0.16178127578E+04  0.65864270000E+03 0.  1.
    8880022    1    1    2    0    0  0.12322494366E+04 -0.26565655135E+03 -0.13133585199E+04  0.18268317744E+04  0.15294330000E+03 0.  0.
<mgrwt>
<rscale>  0 0.13825103E+04</rscale>
<asrwt>0</asrwt>
<pdfrwt beam="1">  1        2 0.30668981E+00 0.14222596E+04</pdfrwt>
<pdfrwt beam="2">  1       -2 0.22325551E+00 0.14222596E+04</pdfrwt>
<totfact> 0.60080706E-01</totfact>
</mgrwt>
</event>
<event>
 4    1  0.2799069E-007  0.8361008E+03  0.7818608E-02  0.9637577E-01
         -2   -1    0    0    0  501 -0.00000000000E+00  0.00000000000E+00  0.24994742563E+04  0.24994742563E+04  0.25500000000E-02 0.  1.
          2   -1    0    0  501    0  0.00000000000E+00 -0.00000000000E+00 -0.33988603242E+03  0.33988603243E+03  0.25500000000E-02 0. -1.
    8880023    1    1    2    0    0 -0.30150708104E+03 -0.41754972869E+03  0.21446816638E+04  0.23018957277E+04  0.65864270000E+03 0.  1.
    8880022    1    1    2    0    0  0.30150708104E+03  0.41754972869E+03  0.14906560111E+02  0.53746456106E+03  0.15294330000E+03 0.  0.
<mgrwt>
<rscale>  0 0.74858247E+03</rscale>
<asrwt>0</asrwt>
<pdfrwt beam="1">  1        2 0.52290157E-01 0.83610077E+03</pdfrwt>
<pdfrwt beam="2">  1       -2 0.38453451E+00 0.83610077E+03</pdfrwt>
<totfact> 0.93378874E-01</totfact>
</mgrwt>
</event>
<event>
 4    1  0.2799069E-007  0.6809520E+03  0.7818608E-02  0.1008790E+00
         -2   -1    0    0    0  501 -0.00000000000E+00  0.00000000000E+00  0.25982099141E+03  0.25982099142E+03  0.25500000000E-02 0.  1.
          2   -1    0    0  501    0  0.00000000000E+00 -0.00000000000E+00 -0.14487204628E+04  0.14487204628E+04  0.25500000000E-02 0. -1.
    8880023    1    1    2    0    0  0.12563184408E+03  0.11875209731E+03 -0.22465178633E+03  0.71705233577E+03  0.65864270000E+03 0.  1.
    8880022    1    1    2    0    0 -0.12563184408E+03 -0.11875209731E+03 -0.96424768507E+03  0.99148911847E+03  0.15294330000E+03 0.  0.
<mgrwt>
<rscale>  0 0.51958299E+03</rscale>
<asrwt>0</asrwt>
<pdfrwt beam="1">  1        2 0.22288007E+00 0.68095200E+03</pdfrwt>
<pdfrwt beam="2">  1       -2 0.39972461E-01 0.68095200E+03</pdfrwt>
<totfact> 0.82441399E+01</totfact>
</mgrwt>
</event>
<event>
 4    1  0.2799069E-007  0.1274774E+04  0.7818608E-02  0.9087656E-01
         -2   -1    0    0    0  501 -0.00000000000E+00  0.00000000000E+00  0.95769110407E+03  0.95769110407E+03  0.25500000000E-02 0.  1.
          2   -1    0    0  501    0  0.00000000000E+00 -0.00000000000E+00 -0.16670893829E+04  0.16670893829E+04  0.25500000000E-02 0. -1.
    8880023    1    1    2    0    0  0.64000382081E+03 -0.88409978127E+03  0.67205346837E+02  0.12765438021E+04  0.65864270000E+03 0.  1.
    8880022    1    1    2    0    0 -0.64000382081E+03  0.88409978127E+03 -0.77660362564E+03  0.13482366848E+04  0.15294330000E+03 0.  0.
<mgrwt>
<rscale>  0 0.12292217E+04</rscale>
<asrwt>0</asrwt>
<pdfrwt beam="1">  1        2 0.25647529E+00 0.12747735E+04</pdfrwt>
<pdfrwt beam="2">  1       -2 0.14733709E+00 0.12747735E+04</pdfrwt>
<totfact> 0.31020070E+00</totfact>
</mgrwt>
</event>
<event>
 4    1  0.2799069E-007  0.6806240E+03  0.7818608E-02  0.1008973E+00
         -2   -1    0    0    0  501 -0.00000000000E+00  0.00000000000E+00  0.73975377095E+03  0.73975377095E+03  0.25500000000E-02 0.  1.
          2   -1    0    0  501    0  0.00000000000E+00 -0.00000000000E+00 -0.32631572099E+03  0.32631572100E+03  0.25500000000E-02 0. -1.
    8880023    1    1    2    0    0 -0.15691056509E+03 -0.69411272393E+02  0.47274090582E+03  0.82869356247E+03  0.65864270000E+03 0.  1.
    8880022    1    1    2    0    0  0.15691056509E+03  0.69411272393E+02 -0.59302855867E+02  0.23737592949E+03  0.15294330000E+03 0.  0.
<mgrwt>
<rscale>  0 0.51884908E+03</rscale>
<asrwt>0</asrwt>
<pdfrwt beam="1">  1        2 0.50202419E-01 0.68062402E+03</pdfrwt>
<pdfrwt beam="2">  1       -2 0.11380827E+00 0.68062402E+03</pdfrwt>
<totfact> 0.61331269E+01</totfact>
</mgrwt>
</event>
<event>
 4    1  0.2799069E-007  0.1260461E+04  0.7818608E-02  0.9100479E-01
         -2   -1    0    0    0  501 -0.00000000000E+00  0.00000000000E+00  0.71328728847E+03  0.71328728847E+03  0.25500000000E-02 0.  1.
          2   -1    0    0  501    0  0.00000000000E+00 -0.00000000000E+00 -0.19977640351E+04  0.19977640351E+04  0.25500000000E-02 0. -1.
    8880023    1    1    2    0    0 -0.25984052143E+03  0.10428009649E+04 -0.43759217088E+03  0.13342593688E+04  0.65864270000E+03 0.  1.
    8880022    1    1    2    0    0  0.25984052143E+03 -0.10428009649E+04 -0.84688457579E+03  0.13767919548E+04  0.15294330000E+03 0.  0.
<mgrwt>
<rscale>  0 0.12142439E+04</rscale>
<asrwt>0</asrwt>
<pdfrwt beam="1">  1        2 0.30734831E+00 0.12604607E+04</pdfrwt>
<pdfrwt beam="2">  1       -2 0.10973651E+00 0.12604607E+04</pdfrwt>
<totfact> 0.43026889E+00</totfact>
</mgrwt>
</event>
<event>
 4    1  0.2799069E-007  0.1020814E+04  0.7818608E-02  0.9354819E-01
         -2   -1    0    0    0  501 -0.00000000000E+00  0.00000000000E+00  0.93901334357E+03  0.93901334357E+03  0.25500000000E-02 0.  1.
          2   -1    0    0  501    0  0.00000000000E+00 -0.00000000000E+00 -0.13549605585E+04  0.13549605586E+04  0.25500000000E-02 0. -1.
    8880023    1    1    2    0    0  0.13375778342E+03  0.76834851181E+03  0.45262776529E+03  0.11166613992E+04  0.65864270000E+03 0.  1.
    8880022    1    1    2    0    0 -0.13375778342E+03 -0.76834851181E+03 -0.86857498028E+03  0.11773125029E+04  0.15294330000E+03 0.  0.
<mgrwt>
<rscale>  0 0.95889000E+03</rscale>
<asrwt>0</asrwt>
<pdfrwt beam="1">  1        2 0.20845547E+00 0.10208138E+04</pdfrwt>
<pdfrwt beam="2">  1       -2 0.14446359E+00 0.10208138E+04</pdfrwt>
<totfact> 0.50307283E+00</totfact>
</mgrwt>
</event>
<event>
 4    1  0.2799069E-007  0.1738244E+04  0.7818608E-02  0.8757489E-01
         -2   -1    0    0    0  501 -0.00000000000E+00  0.00000000000E+00  0.13649053278E+04  0.13649053278E+04  0.25500000000E-02 0.  1.
          2   -1    0    0  501    0  0.00000000000E+00 -0.00000000000E+00 -0.23845662621E+04  0.23845662621E+04  0.25500000000E-02 0. -1.
    8880023    1    1    2    0    0 -0.15521808485E+03  0.16011215161E+04  0.16469814971E+03  0.17460293382E+04  0.65864270000E+03 0.  0.
    8880022    1    1    2    0    0  0.15521808485E+03 -0.16011215161E+04 -0.11843590840E+04  0.20034422517E+04  0.15294330000E+03 0.  0.
<mgrwt>
<rscale>  0 0.17068113E+04</rscale>
<asrwt>0</asrwt>
<pdfrwt beam="1">  1        2 0.36685635E+00 0.17382442E+04</pdfrwt>
<pdfrwt beam="2">  1       -2 0.20998543E+00 0.17382442E+04</pdfrwt>
<totfact> 0.42572822E-01</totfact>
</mgrwt>
</event>
<event>
 4    1  0.2799069E-007  0.7973153E+03  0.7818608E-02  0.9716631E-01
          2   -1    0    0  501    0  0.00000000000E+00  0.00000000000E+00  0.12308533938E+04  0.12308533938E+04  0.25500000000E-02 0. -1.
         -2   -1    0    0    0  501 -0.00000000000E+00 -0.00000000000E+00 -0.56790146791E+03  0.56790146791E+03  0.25500000000E-02 0.  1.
    8880023    1    1    2    0    0  0.44100533485E+03 -0.86114991033E+02 -0.19269849237E+03  0.82027093833E+03  0.65864270000E+03 0.  1.
    8880022    1    1    2    0    0 -0.44100533485E+03  0.86114991033E+02  0.85565041827E+03  0.97848392340E+03  0.15294330000E+03 0.  0.
<mgrwt>
<rscale>  0 0.70035152E+03</rscale>
<asrwt>0</asrwt>
<pdfrwt beam="1">  1        2 0.18936206E+00 0.79731531E+03</pdfrwt>
<pdfrwt beam="2">  1       -2 0.87369457E-01 0.79731531E+03</pdfrwt>
<totfact> 0.20836466E+01</totfact>
</mgrwt>
</event>
<event>
 4    1  0.2799069E-007  0.7733586E+03  0.7818608E-02  0.9771676E-01
          2   -1    0    0  501    0  0.00000000000E+00  0.00000000000E+00  0.22639417594E+04  0.22639417594E+04  0.25500000000E-02 0. -1.
         -2   -1    0    0    0  501 -0.00000000000E+00 -0.00000000000E+00 -0.44128485125E+03  0.44128485126E+03  0.25500000000E-02 0.  1.
    8880023    1    1    2    0    0  0.38009121418E+03  0.14072648458E+03 -0.57800440837E+02  0.77551555225E+03  0.65864270000E+03 0.  0.
    8880022    1    1    2    0    0 -0.38009121418E+03 -0.14072648458E+03  0.18804573490E+04  0.19297110584E+04  0.15294330000E+03 0.  0.
<mgrwt>
<rscale>  0 0.66904999E+03</rscale>
<asrwt>0</asrwt>
<pdfrwt beam="1">  1        2 0.34829874E+00 0.77335857E+03</pdfrwt>
<pdfrwt beam="2">  1       -2 0.67889976E-01 0.77335857E+03</pdfrwt>
<totfact> 0.98049282E+00</totfact>
</mgrwt>
</event>
<event>
 4    1  0.2799069E-007  0.1106930E+04  0.7818608E-02  0.9253379E-01
         -2   -1    0    0    0  501 -0.00000000000E+00  0.00000000000E+00  0.95020861956E+03  0.95020861956E+03  0.25500000000E-02 0.  1.
          2   -1    0    0  501    0  0.00000000000E+00 -0.00000000000E+00 -0.16285867347E+04  0.16285867347E+04  0.25500000000E-02 0. -1.
    8880023    1    1    2    0    0 -0.26085475833E+02  0.88927136104E+03  0.39590428389E+03  0.11755995976E+04  0.65864270000E+03 0.  0.
    8880022    1    1    2    0    0  0.26085475833E+02 -0.88927136104E+03 -0.10742823990E+04  0.14031957566E+04  0.15294330000E+03 0.  0.
<mgrwt>
<rscale>  0 0.10519051E+04</rscale>
<asrwt>0</asrwt>
<pdfrwt beam="1">  1        2 0.25055181E+00 0.11069301E+04</pdfrwt>
<pdfrwt beam="2">  1       -2 0.14618594E+00 0.11069301E+04</pdfrwt>
<totfact> 0.33845925E+00</totfact>
</mgrwt>
</event>
<event>
 4    1  0.2799069E-007  0.6919185E+03  0.7818608E-02  0.1003254E+00
          2   -1    0    0  501    0  0.00000000000E+00  0.00000000000E+00  0.31885403938E+04  0.31885403938E+04  0.25500000000E-02 0. -1.
         -2   -1    0    0    0  501 -0.00000000000E+00 -0.00000000000E+00 -0.19687056544E+03  0.19687056545E+03  0.25500000000E-02 0.  1.
    8880023    1    1    2    0    0  0.13208039605E+03 -0.16581851830E+03  0.43909279389E+03  0.81948380090E+03  0.65864270000E+03 0.  1.
    8880022    1    1    2    0    0 -0.13208039605E+03  0.16581851830E+03  0.25525770344E+04  0.25659271583E+04  0.15294330000E+03 0.  0.
<mgrwt>
<rscale>  0 0.54246254E+03</rscale>
<asrwt>0</asrwt>
<pdfrwt beam="1">  1        2 0.49054463E+00 0.69191851E+03</pdfrwt>
<pdfrwt beam="2">  1       -2 0.30287782E-01 0.69191851E+03</pdfrwt>
<totfact> 0.14329586E+01</totfact>
</mgrwt>
</event>
<event>
 4    1  0.2799069E-007  0.1273101E+04  0.7818608E-02  0.9089144E-01
         -2   -1    0    0    0  501 -0.00000000000E+00  0.00000000000E+00  0.45591009190E+03  0.45591009191E+03  0.25500000000E-02 0.  1.
          2   -1    0    0  501    0  0.00000000000E+00 -0.00000000000E+00 -0.36746309461E+04  0.36746309461E+04  0.25500000000E-02 0. -1.
    8880023    1    1    2    0    0 -0.51264778085E+03 -0.96133610662E+03 -0.88496568660E+03  0.15504674553E+04  0.65864270000E+03 0.  1.
    8880022    1    1    2    0    0  0.51264778085E+03  0.96133610662E+03 -0.23337551676E+04  0.25800735828E+04  0.15294330000E+03 0. -1.
<mgrwt>
<rscale>  0 0.12274721E+04</rscale>
<asrwt>0</asrwt>
<pdfrwt beam="1">  1        2 0.56532782E+00 0.12731006E+04</pdfrwt>
<pdfrwt beam="2">  1       -2 0.70140017E-01 0.12731006E+04</pdfrwt>
<totfact> 0.11265287E+00</totfact>
</mgrwt>
</event>
<event>
 4    1  0.2799069E-007  0.2507160E+04  0.7818608E-02  0.8407959E-01
          2   -1    0    0  501    0  0.00000000000E+00  0.00000000000E+00  0.50107695033E+04  0.50107695033E+04  0.25500000000E-02 0. -1.
         -2   -1    0    0    0  501 -0.00000000000E+00 -0.00000000000E+00 -0.13866782198E+04  0.13866782198E+04  0.25500000000E-02 0.  1.
    8880023    1    1    2    0    0  0.20411296537E+04 -0.12983952683E+04  0.29701517584E+04  0.38868563403E+04  0.65864270000E+03 0.  0.
    8880022    1    1    2    0    0 -0.20411296537E+04  0.12983952683E+04  0.65393952512E+03  0.25105913828E+04  0.15294330000E+03 0.  0.
<mgrwt>
<rscale>  0 0.24860880E+04</rscale>
<asrwt>0</asrwt>
<pdfrwt beam="1">  1        2 0.77088760E+00 0.25071599E+04</pdfrwt>
<pdfrwt beam="2">  1       -2 0.21333512E+00 0.25071599E+04</pdfrwt>
<totfact> 0.30837065E-03</totfact>
</mgrwt>
</event>
<event>
 4    1  0.2799069E-007  0.1136130E+04  0.7818608E-02  0.9221857E-01
          2   -1    0    0  501    0  0.00000000000E+00  0.00000000000E+00  0.10724586761E+04  0.10724586761E+04  0.25500000000E-02 0. -1.
         -2   -1    0    0    0  501 -0.00000000000E+00 -0.00000000000E+00 -0.12513171205E+04  0.12513171205E+04  0.25500000000E-02 0.  1.
    8880023    1    1    2    0    0  0.17252542426E+03 -0.90951399610E+03 -0.61184788181E+03  0.12904064351E+04  0.65864270000E+03 0.  0.
    8880022    1    1    2    0    0 -0.17252542426E+03  0.90951399610E+03  0.43298943741E+03  0.10333693614E+04  0.15294330000E+03 0.  0.
<mgrwt>
<rscale>  0 0.10830644E+04</rscale>
<asrwt>0</asrwt>
<pdfrwt beam="1">  1        2 0.16499364E+00 0.11361298E+04</pdfrwt>
<pdfrwt beam="2">  1       -2 0.19251033E+00 0.11361298E+04</pdfrwt>
<totfact> 0.33044105E+00</totfact>
</mgrwt>
</event>
<event>
 4    1  0.2799069E-007  0.9868757E+03  0.7818608E-02  0.9398933E-01
          2   -1    0    0  501    0  0.00000000000E+00  0.00000000000E+00  0.16134721129E+04  0.16134721129E+04  0.25500000000E-02 0. -1.
         -2   -1    0    0    0  501 -0.00000000000E+00 -0.00000000000E+00 -0.93460520183E+03  0.93460520184E+03  0.25500000000E-02 0.  1.
    8880023    1    1    2    0    0 -0.53120489837E+03 -0.50787290307E+03 -0.53370823737E+03  0.11219484028E+04  0.65864270000E+03 0.  0.
    8880022    1    1    2    0    0  0.53120489837E+03  0.50787290307E+03  0.12125751484E+04  0.14261289119E+04  0.15294330000E+03 0.  0.
<mgrwt>
<rscale>  0 0.92163529E+03</rscale>
<asrwt>0</asrwt>
<pdfrwt beam="1">  1        2 0.24822648E+00 0.98687574E+03</pdfrwt>
<pdfrwt beam="2">  1       -2 0.14378542E+00 0.98687574E+03</pdfrwt>
<totfact> 0.36542181E+00</totfact>
</mgrwt>
</event>
<event>
 4    1  0.2799069E-007  0.6706748E+03  0.7818608E-02  0.1015184E+00
          2   -1    0    0  501    0  0.00000000000E+00  0.00000000000E+00  0.15580800111E+04  0.15580800111E+04  0.25500000000E-02 0. -1.
         -2   -1    0    0    0  501 -0.00000000000E+00 -0.00000000000E+00 -0.24112539471E+03  0.24112539472E+03  0.25500000000E-02 0.  1.
    8880023    1    1    2    0    0 -0.62137254337E+02  0.11015201514E+03  0.25285444694E+03  0.71675664100E+03  0.65864270000E+03 0.  1.
    8880022    1    1    2    0    0  0.62137254337E+02 -0.11015201514E+03  0.10641001694E+04  0.10824487648E+04  0.15294330000E+03 0.  0.
<mgrwt>
<rscale>  0 0.49465449E+03</rscale>
<asrwt>0</asrwt>
<pdfrwt beam="1">  1        2 0.23970462E+00 0.67067482E+03</pdfrwt>
<pdfrwt beam="2">  1       -2 0.37096214E-01 0.67067482E+03</pdfrwt>
<totfact> 0.82917425E+01</totfact>
</mgrwt>
</event>
<event>
 4    1  0.2799069E-007  0.7938389E+03  0.7818608E-02  0.9724279E-01
          2   -1    0    0  501    0  0.00000000000E+00  0.00000000000E+00  0.10435971901E+04  0.10435971901E+04  0.25500000000E-02 0. -1.
         -2   -1    0    0    0  501 -0.00000000000E+00 -0.00000000000E+00 -0.64278615312E+03  0.64278615312E+03  0.25500000000E-02 0.  1.
    8880023    1    1    2    0    0 -0.39661435267E+03 -0.19765394008E+03 -0.29543074520E+03  0.84702984378E+03  0.65864270000E+03 0.  1.
    8880022    1    1    2    0    0  0.39661435267E+03  0.19765394008E+03  0.69624178222E+03  0.83935349948E+03  0.15294330000E+03 0.  0.
<mgrwt>
<rscale>  0 0.69589431E+03</rscale>
<asrwt>0</asrwt>
<pdfrwt beam="1">  1        2 0.16055341E+00 0.79383892E+03</pdfrwt>
<pdfrwt beam="2">  1       -2 0.98890178E-01 0.79383892E+03</pdfrwt>
<totfact> 0.20287680E+01</totfact>
</mgrwt>
</event>
<event>
 4    1  0.2799069E-007  0.7358433E+03  0.7818608E-02  0.9872225E-01
          2   -1    0    0  501    0  0.00000000000E+00  0.00000000000E+00  0.27478828198E+04  0.27478828198E+04  0.25500000000E-02 0. -1.
         -2   -1    0    0    0  501 -0.00000000000E+00 -0.00000000000E+00 -0.16221571691E+03  0.16221571693E+03  0.25500000000E-02 0.  1.
    8880023    1    1    2    0    0 -0.26586996327E+03 -0.19227140988E+03  0.23855575125E+04  0.24964675011E+04  0.65864270000E+03 0. -1.
    8880022    1    1    2    0    0  0.26586996327E+03  0.19227140988E+03  0.20010959036E+03  0.41363103558E+03  0.15294330000E+03 0.  0.
<mgrwt>
<rscale>  0 0.61626470E+03</rscale>
<asrwt>0</asrwt>
<pdfrwt beam="1">  1        2 0.42275116E+00 0.73584328E+03</pdfrwt>
<pdfrwt beam="2">  1       -2 0.24956267E-01 0.73584328E+03</pdfrwt>
<totfact> 0.37567155E+01</totfact>
</mgrwt>
</event>
<event>
 4    1  0.2799069E-007  0.9415774E+03  0.7818608E-02  0.9462337E-01
          2   -1    0    0  501    0  0.00000000000E+00  0.00000000000E+00  0.81089383153E+03  0.81089383153E+03  0.25500000000E-02 0. -1.
         -2   -1    0    0    0  501 -0.00000000000E+00 -0.00000000000E+00 -0.10373426011E+04  0.10373426011E+04  0.25500000000E-02 0.  1.
    8880023    1    1    2    0    0  0.65306093894E+03  0.16207797708E+03 -0.54531481443E+03  0.10880883759E+04  0.65864270000E+03 0.  1.
    8880022    1    1    2    0    0 -0.65306093894E+03 -0.16207797708E+03  0.31886604485E+03  0.76014805676E+03  0.15294330000E+03 0.  0.
<mgrwt>
<rscale>  0 0.87118412E+03</rscale>
<asrwt>0</asrwt>
<pdfrwt beam="1">  1        2 0.12475290E+00 0.94157744E+03</pdfrwt>
<pdfrwt beam="2">  1       -2 0.15959117E+00 0.94157744E+03</pdfrwt>
<totfact> 0.85551153E+00</totfact>
</mgrwt>
</event>
<event>
 4    1  0.2799069E-007  0.1074522E+04  0.7818608E-02  0.9289967E-01
         -2   -1    0    0    0  501 -0.00000000000E+00  0.00000000000E+00  0.61382274485E+03  0.61382274485E+03  0.25500000000E-02 0.  1.
          2   -1    0    0  501    0  0.00000000000E+00 -0.00000000000E+00 -0.20517193109E+04  0.20517193109E+04  0.25500000000E-02 0. -1.
    8880023    1    1    2    0    0  0.30447147611E+03 -0.79251808159E+03 -0.10742752758E+03  0.10798790068E+04  0.65864270000E+03 0.  0.
    8880022    1    1    2    0    0 -0.30447147611E+03  0.79251808159E+03 -0.13304690384E+04  0.15856630489E+04  0.15294330000E+03 0.  0.
<mgrwt>
<rscale>  0 0.10171178E+04</rscale>
<asrwt>0</asrwt>
<pdfrwt beam="1">  1        2 0.31564912E+00 0.10745222E+04</pdfrwt>
<pdfrwt beam="2">  1       -2 0.94434269E-01 0.10745222E+04</pdfrwt>
<totfact> 0.58679134E+00</totfact>
</mgrwt>
</event>
<event>
 4    1  0.2799069E-007  0.6762969E+03  0.7818608E-02  0.1011501E+00
          2   -1    0    0  501    0  0.00000000000E+00  0.00000000000E+00  0.33619645075E+03  0.33619645076E+03  0.25500000000E-02 0. -1.
         -2   -1    0    0    0  501 -0.00000000000E+00 -0.00000000000E+00 -0.16446233309E+04  0.16446233309E+04  0.25500000000E-02 0.  1.
    8880023    1    1    2    0    0  0.14137253529E+03 -0.59842790689E+02 -0.15288267295E+04  0.16717322538E+04  0.65864270000E+03 0.  1.
    8880022    1    1    2    0    0 -0.14137253529E+03  0.59842790689E+02  0.22039984929E+03  0.30908752791E+03  0.15294330000E+03 0.  0.
<mgrwt>
<rscale>  0 0.50882440E+03</rscale>
<asrwt>0</asrwt>
<pdfrwt beam="1">  1        2 0.51722532E-01 0.67629695E+03</pdfrwt>
<pdfrwt beam="2">  1       -2 0.25301897E+00 0.67629695E+03</pdfrwt>
<totfact> 0.61781753E+00</totfact>
</mgrwt>
</event>
<event>
 4    1  0.2799069E-007  0.8491840E+03  0.7818608E-02  0.9613100E-01
          2   -1    0    0  501    0  0.00000000000E+00  0.00000000000E+00  0.19637431588E+04  0.19637431588E+04  0.25500000000E-02 0. -1.
         -2   -1    0    0    0  501 -0.00000000000E+00 -0.00000000000E+00 -0.30382235392E+03  0.30382235393E+03  0.25500000000E-02 0.  1.
    8880023    1    1    2    0    0 -0.50034357763E+03  0.19224888056E+03  0.51231955108E+03  0.99175846678E+03  0.65864270000E+03 0.  0.
    8880022    1    1    2    0    0  0.50034357763E+03 -0.19224888056E+03  0.11476012538E+04  0.12758070459E+04  0.15294330000E+03 0.  0.
<mgrwt>
<rscale>  0 0.76435154E+03</rscale>
<asrwt>0</asrwt>
<pdfrwt beam="1">  1        2 0.30211433E+00 0.84918404E+03</pdfrwt>
<pdfrwt beam="2">  1       -2 0.46741901E-01 0.84918404E+03</pdfrwt>
<totfact> 0.30956114E+01</totfact>
</mgrwt>
</event>
<event>
 4    1  0.2799069E-007  0.7744330E+03  0.7818608E-02  0.9769080E-01
         -2   -1    0    0    0  501 -0.00000000000E+00  0.00000000000E+00  0.57462931893E+03  0.57462931894E+03  0.25500000000E-02 0.  1.
          2   -1    0    0  501    0  0.00000000000E+00 -0.00000000000E+00 -0.23728413333E+04  0.23728413333E+04  0.25500000000E-02 0. -1.
    8880023    1    1    2    0    0 -0.24926777761E+03 -0.32218289021E+03  0.28053070081E+03  0.82367707268E+03  0.65864270000E+03 0.  1.
    8880022    1    1    2    0    0  0.24926777761E+03  0.32218289021E+03 -0.20787427152E+04  0.21237935796E+04  0.15294330000E+03 0.  0.
<mgrwt>
<rscale>  0 0.67048599E+03</rscale>
<asrwt>0</asrwt>
<pdfrwt beam="1">  1        2 0.36505251E+00 0.77443298E+03</pdfrwt>
<pdfrwt beam="2">  1       -2 0.88404512E-01 0.77443298E+03</pdfrwt>
<totfact> 0.47270674E+00</totfact>
</mgrwt>
</event>
<event>
 4    1  0.2799069E-007  0.6718254E+03  0.7818608E-02  0.1014387E+00
          2   -1    0    0  501    0  0.00000000000E+00  0.00000000000E+00  0.23577086366E+04  0.23577086366E+04  0.25500000000E-02 0. -1.
         -2   -1    0    0    0  501 -0.00000000000E+00 -0.00000000000E+00 -0.33133113214E+03  0.33133113215E+03  0.25500000000E-02 0.  1.
    8880023    1    1    2    0    0 -0.10673083822E+03  0.78407102136E+02  0.19622084948E+02  0.67211187906E+03  0.65864270000E+03 0.  1.
    8880022    1    1    2    0    0  0.10673083822E+03 -0.78407102136E+02  0.20067554195E+04  0.20169278897E+04  0.15294330000E+03 0.  0.
<mgrwt>
<rscale>  0 0.49767816E+03</rscale>
<asrwt>0</asrwt>
<pdfrwt beam="1">  1        2 0.36272442E+00 0.67182539E+03</pdfrwt>
<pdfrwt beam="2">  1       -2 0.50974019E-01 0.67182539E+03</pdfrwt>
<totfact> 0.16155071E+01</totfact>
</mgrwt>
</event>
<event>
 4    1  0.2799069E-007  0.9652260E+03  0.7818608E-02  0.9428538E-01
          2   -1    0    0  501    0  0.00000000000E+00  0.00000000000E+00  0.48445473382E+03  0.48445473382E+03  0.25500000000E-02 0. -1.
         -2   -1    0    0    0  501 -0.00000000000E+00 -0.00000000000E+00 -0.26369089501E+04  0.26369089501E+04  0.25500000000E-02 0.  1.
    8880023    1    1    2    0    0  0.23992049243E+03  0.66354289238E+03 -0.21952970417E+04  0.23981222488E+04  0.65864270000E+03 0.  0.
    8880022    1    1    2    0    0 -0.23992049243E+03 -0.66354289238E+03  0.42842825438E+02  0.72324143509E+03  0.15294330000E+03 0.  0.
<mgrwt>
<rscale>  0 0.89763908E+03</rscale>
<asrwt>0</asrwt>
<pdfrwt beam="1">  1        2 0.74531499E-01 0.96522599E+03</pdfrwt>
<pdfrwt beam="2">  1       -2 0.40567829E+00 0.96522599E+03</pdfrwt>
<totfact> 0.44655358E-01</totfact>
</mgrwt>
</event>
<event>
 4    1  0.2799069E-007  0.7613257E+03  0.7818608E-02  0.9801687E-01
         -2   -1    0    0    0  501 -0.00000000000E+00  0.00000000000E+00  0.52076390371E+03  0.52076390371E+03  0.25500000000E-02 0.  1.
          2   -1    0    0  501    0  0.00000000000E+00 -0.00000000000E+00 -0.17099973660E+04  0.17099973660E+04  0.25500000000E-02 0. -1.
    8880023    1    1    2    0    0 -0.35314801208E+03 -0.14523484035E+03  0.19566465994E+03  0.78606713625E+03  0.65864270000E+03 0.  1.
    8880022    1    1    2    0    0  0.35314801208E+03  0.14523484035E+03 -0.13848981222E+04  0.14446941335E+04  0.15294330000E+03 0.  0.
<mgrwt>
<rscale>  0 0.65272071E+03</rscale>
<asrwt>0</asrwt>
<pdfrwt beam="1">  1        2 0.26307652E+00 0.76132574E+03</pdfrwt>
<pdfrwt beam="2">  1       -2 0.80117524E-01 0.76132574E+03</pdfrwt>
<totfact> 0.13698491E+01</totfact>
</mgrwt>
</event>
<event>
 4    1  0.2799069E-007  0.8832935E+03  0.7818608E-02  0.9553401E-01
         -2   -1    0    0    0  501 -0.00000000000E+00  0.00000000000E+00  0.51504853841E+03  0.51504853842E+03  0.25500000000E-02 0.  1.
          2   -1    0    0  501    0  0.00000000000E+00 -0.00000000000E+00 -0.23683181793E+04  0.23683181793E+04  0.25500000000E-02 0. -1.
    8880023    1    1    2    0    0  0.58854178795E+03  0.39717704974E+01  0.50598441652E+02  0.88474155531E+03  0.65864270000E+03 0.  0.
    8880022    1    1    2    0    0 -0.58854178795E+03 -0.39717704974E+01 -0.19038680826E+04  0.19986251624E+04  0.15294330000E+03 0.  0.
<mgrwt>
<rscale>  0 0.80458699E+03</rscale>
<asrwt>0</asrwt>
<pdfrwt beam="1">  1        2 0.36435664E+00 0.88329351E+03</pdfrwt>
<pdfrwt beam="2">  1       -2 0.79238238E-01 0.88329351E+03</pdfrwt>
<totfact> 0.59944806E+00</totfact>
</mgrwt>
</event>
<event>
 4    1  0.2799069E-007  0.1208556E+04  0.7818608E-02  0.9148850E-01
         -2   -1    0    0    0  501 -0.00000000000E+00  0.00000000000E+00  0.10836978767E+04  0.10836978767E+04  0.25500000000E-02 0.  1.
          2   -1    0    0  501    0  0.00000000000E+00 -0.00000000000E+00 -0.20535964954E+04  0.20535964954E+04  0.25500000000E-02 0. -1.
    8880023    1    1    2    0    0  0.76192195690E+03 -0.66803656043E+03  0.53087448893E+03  0.13200135771E+04  0.65864270000E+03 0.  1.
    8880022    1    1    2    0    0 -0.76192195690E+03  0.66803656043E+03 -0.15007731076E+04  0.18172807951E+04  0.15294330000E+03 0.  0.
<mgrwt>
<rscale>  0 0.11597346E+04</rscale>
<asrwt>0</asrwt>
<pdfrwt beam="1">  1        2 0.31593792E+00 0.12085562E+04</pdfrwt>
<pdfrwt beam="2">  1       -2 0.16672275E+00 0.12085562E+04</pdfrwt>
<totfact> 0.13633597E+00</totfact>
</mgrwt>
</event>
<event>
 4    1  0.2799069E-007  0.9502549E+03  0.7818608E-02  0.9449747E-01
          2   -1    0    0  501    0  0.00000000000E+00  0.00000000000E+00  0.17688311540E+04  0.17688311540E+04  0.25500000000E-02 0. -1.
         -2   -1    0    0    0  501 -0.00000000000E+00 -0.00000000000E+00 -0.70150201262E+03  0.70150201263E+03  0.25500000000E-02 0.  1.
    8880023    1    1    2    0    0 -0.37962415439E+03 -0.57014004844E+03 -0.24569903206E+03  0.98150516761E+03  0.65864270000E+03 0.  0.
    8880022    1    1    2    0    0  0.37962415439E+03  0.57014004844E+03  0.13130281734E+04  0.14888279990E+04  0.15294330000E+03 0.  0.
<mgrwt>
<rscale>  0 0.88092335E+03</rscale>
<asrwt>0</asrwt>
<pdfrwt beam="1">  1        2 0.27212787E+00 0.95025490E+03</pdfrwt>
<pdfrwt beam="2">  1       -2 0.10792339E+00 0.95025490E+03</pdfrwt>
<totfact> 0.61967570E+00</totfact>
</mgrwt>
</event>
<event>
 4    1  0.2799069E-007  0.7865058E+03  0.7818608E-02  0.9740771E-01
         -2   -1    0    0    0  501 -0.00000000000E+00  0.00000000000E+00  0.58805532150E+03  0.58805532150E+03  0.25500000000E-02 0.  1.
          2   -1    0    0  501    0  0.00000000000E+00 -0.00000000000E+00 -0.11216110034E+04  0.11216110034E+04  0.25500000000E-02 0. -1.
    8880023    1    1    2    0    0 -0.38836584295E+03  0.18426367938E+03  0.23064228750E+03  0.81962625785E+03  0.65864270000E+03 0.  0.
    8880022    1    1    2    0    0  0.38836584295E+03 -0.18426367938E+03 -0.76419796940E+03  0.89004006705E+03  0.15294330000E+03 0.  0.
<mgrwt>
<rscale>  0 0.68640341E+03</rscale>
<asrwt>0</asrwt>
<pdfrwt beam="1">  1        2 0.17255554E+00 0.78650578E+03</pdfrwt>
<pdfrwt beam="2">  1       -2 0.90470050E-01 0.78650578E+03</pdfrwt>
<totfact> 0.22372203E+01</totfact>
</mgrwt>
</event>
<event>
 4    1  0.2799069E-007  0.8571696E+03  0.7818608E-02  0.9598618E-01
          2   -1    0    0  501    0  0.00000000000E+00  0.00000000000E+00  0.13627393709E+04  0.13627393709E+04  0.25500000000E-02 0. -1.
         -2   -1    0    0    0  501 -0.00000000000E+00 -0.00000000000E+00 -0.80984728897E+03  0.80984728898E+03  0.25500000000E-02 0.  1.
    8880023    1    1    2    0    0  0.44426918849E+03 -0.32179866439E+03 -0.48781049063E+03  0.98625492307E+03  0.65864270000E+03 0.  1.
    8880022    1    1    2    0    0 -0.44426918849E+03  0.32179866439E+03  0.10407025725E+04  0.11863317368E+04  0.15294330000E+03 0.  0.
<mgrwt>
<rscale>  0 0.77387706E+03</rscale>
<asrwt>0</asrwt>
<pdfrwt beam="1">  1        2 0.20965221E+00 0.85716959E+03</pdfrwt>
<pdfrwt beam="2">  1       -2 0.12459189E+00 0.85716959E+03</pdfrwt>
<totfact> 0.74133475E+00</totfact>
</mgrwt>
</event>
<event>
 4    1  0.2799069E-007  0.1333108E+04  0.7818608E-02  0.9037484E-01
          2   -1    0    0  501    0  0.00000000000E+00  0.00000000000E+00  0.10744865359E+04  0.10744865359E+04  0.25500000000E-02 0. -1.
         -2   -1    0    0    0  501 -0.00000000000E+00 -0.00000000000E+00 -0.21179198417E+04  0.21179198417E+04  0.25500000000E-02 0.  1.
    8880023    1    1    2    0    0  0.56171604407E+03  0.10138250412E+04  0.34529836672E+03  0.13771010481E+04  0.65864270000E+03 0. -1.
    8880022    1    1    2    0    0 -0.56171604407E+03 -0.10138250412E+04 -0.13887316725E+04  0.18153053296E+04  0.15294330000E+03 0.  0.
<mgrwt>
<rscale>  0 0.12900614E+04</rscale>
<asrwt>0</asrwt>
<pdfrwt beam="1">  1        2 0.16530562E+00 0.13331078E+04</pdfrwt>
<pdfrwt beam="2">  1       -2 0.32583382E+00 0.13331078E+04</pdfrwt>
<totfact> 0.48009386E-01</totfact>
</mgrwt>
</event>
<event>
 4    1  0.2799069E-007  0.1421339E+04  0.7818608E-02  0.8967277E-01
         -2   -1    0    0    0  501 -0.00000000000E+00  0.00000000000E+00  0.14896246813E+04  0.14896246813E+04  0.25500000000E-02 0.  1.
          2   -1    0    0  501    0  0.00000000000E+00 -0.00000000000E+00 -0.17258129620E+04  0.17258129620E+04  0.25500000000E-02 0. -1.
    8880023    1    1    2    0    0 -0.11602911642E+04  0.49001838864E+03  0.75128440131E+03  0.16076790926E+04  0.65864270000E+03 0.  0.
    8880022    1    1    2    0    0  0.11602911642E+04 -0.49001838864E+03 -0.98747268194E+03  0.16077585507E+04  0.15294330000E+03 0. -1.
<mgrwt>
<rscale>  0 0.13815582E+04</rscale>
<asrwt>0</asrwt>
<pdfrwt beam="1">  1        2 0.26550968E+00 0.14213387E+04</pdfrwt>
<pdfrwt beam="2">  1       -2 0.22917303E+00 0.14213387E+04</pdfrwt>
<totfact> 0.77716759E-01</totfact>
</mgrwt>
</event>
<event>
 4    1  0.2799069E-007  0.6756664E+03  0.7818608E-02  0.1011889E+00
         -2   -1    0    0    0  501 -0.00000000000E+00  0.00000000000E+00  0.19806010451E+03  0.19806010452E+03  0.25500000000E-02 0.  1.
          2   -1    0    0  501    0  0.00000000000E+00 -0.00000000000E+00 -0.26389995408E+04  0.26389995408E+04  0.25500000000E-02 0. -1.
    8880023    1    1    2    0    0 -0.14506413761E+03 -0.40880790801E+02 -0.40069150061E+03  0.78554358759E+03  0.65864270000E+03 0.  1.
    8880022    1    1    2    0    0  0.14506413761E+03  0.40880790801E+02 -0.20402479357E+04  0.20515160577E+04  0.15294330000E+03 0.  0.
<mgrwt>
<rscale>  0 0.50730541E+03</rscale>
<asrwt>0</asrwt>
<pdfrwt beam="1">  1        2 0.40599990E+00 0.67566637E+03</pdfrwt>
<pdfrwt beam="2">  1       -2 0.30470787E-01 0.67566637E+03</pdfrwt>
<totfact> 0.30441034E+01</totfact>
</mgrwt>
</event>
<event>
 4    1  0.2799069E-007  0.7872163E+03  0.7818608E-02  0.9739151E-01
         -2   -1    0    0    0  501 -0.00000000000E+00  0.00000000000E+00  0.28254766481E+03  0.28254766482E+03  0.25500000000E-02 0.  1.
          2   -1    0    0  501    0  0.00000000000E+00 -0.00000000000E+00 -0.15817917625E+04  0.15817917625E+04  0.25500000000E-02 0. -1.
    8880023    1    1    2    0    0  0.13233982989E+03 -0.41034796392E+03 -0.46883265984E+03  0.91624972101E+03  0.65864270000E+03 0.  0.
    8880022    1    1    2    0    0 -0.13233982989E+03  0.41034796392E+03 -0.83041143786E+03  0.94808970631E+03  0.15294330000E+03 0.  0.
<mgrwt>
<rscale>  0 0.68732851E+03</rscale>
<asrwt>0</asrwt>
<pdfrwt beam="1">  1        2 0.24335257E+00 0.78721629E+03</pdfrwt>
<pdfrwt beam="2">  1       -2 0.43468873E-01 0.78721629E+03</pdfrwt>
<totfact> 0.58346029E+01</totfact>
</mgrwt>
</event>
<event>
 4    1  0.2799069E-007  0.1559630E+04  0.7818608E-02  0.8868638E-01
         -2   -1    0    0    0  501 -0.00000000000E+00  0.00000000000E+00  0.14306399824E+04  0.14306399824E+04  0.25500000000E-02 0.  1.
          2   -1    0    0  501    0  0.00000000000E+00 -0.00000000000E+00 -0.19421361875E+04  0.19421361875E+04  0.25500000000E-02 0. -1.
    8880023    1    1    2    0    0  0.58400277706E+03  0.12874691494E+04  0.48854218289E+03  0.16343560582E+04  0.65864270000E+03 0.  0.
    8880022    1    1    2    0    0 -0.58400277706E+03 -0.12874691494E+04 -0.10000383880E+04  0.17384201117E+04  0.15294330000E+03 0.  0.
<mgrwt>
<rscale>  0 0.15240163E+04</rscale>
<asrwt>0</asrwt>
<pdfrwt beam="1">  1        2 0.29879018E+00 0.15596302E+04</pdfrwt>
<pdfrwt beam="2">  1       -2 0.22009846E+00 0.15596302E+04</pdfrwt>
<totfact> 0.66245202E-01</totfact>
</mgrwt>
</event>
<event>
 4    1  0.2799069E-007  0.7179800E+03  0.7818608E-02  0.9929481E-01
         -2   -1    0    0    0  501 -0.00000000000E+00  0.00000000000E+00  0.87536681073E+03  0.87536681073E+03  0.25500000000E-02 0.  1.
          2   -1    0    0  501    0  0.00000000000E+00 -0.00000000000E+00 -0.28786866765E+04  0.28786866765E+04  0.25500000000E-02 0. -1.
    8880023    1    1    2    0    0  0.11315299530E+03  0.26245269712E+03  0.71688473919E+03  0.10146028554E+04  0.65864270000E+03 0.  1.
    8880022    1    1    2    0    0 -0.11315299530E+03 -0.26245269712E+03 -0.27202046050E+04  0.27394506319E+04  0.15294330000E+03 0.  0.
<mgrwt>
<rscale>  0 0.58853532E+03</rscale>
<asrwt>0</asrwt>
<pdfrwt beam="1">  1        2 0.44287487E+00 0.71797996E+03</pdfrwt>
<pdfrwt beam="2">  1       -2 0.13467182E+00 0.71797996E+03</pdfrwt>
<totfact> 0.88130954E-01</totfact>
</mgrwt>
</event>
<event>
 4    1  0.2799069E-007  0.9964487E+03  0.7818608E-02  0.9386219E-01
         -2   -1    0    0    0  501 -0.00000000000E+00  0.00000000000E+00  0.46965111599E+03  0.46965111599E+03  0.25500000000E-02 0.  1.
          2   -1    0    0  501    0  0.00000000000E+00 -0.00000000000E+00 -0.17779783559E+04  0.17779783559E+04  0.25500000000E-02 0. -1.
    8880023    1    1    2    0    0 -0.15178555805E+02 -0.74757565878E+03 -0.10356293576E+04  0.14371632220E+04  0.65864270000E+03 0.  0.
    8880022    1    1    2    0    0  0.15178555805E+02  0.74757565878E+03 -0.27269788233E+03  0.81046624988E+03  0.15294330000E+03 0.  0.
<mgrwt>
<rscale>  0 0.93218560E+03</rscale>
<asrwt>0</asrwt>
<pdfrwt beam="1">  1        2 0.27353513E+00 0.99644867E+03</pdfrwt>
<pdfrwt beam="2">  1       -2 0.72254019E-01 0.99644867E+03</pdfrwt>
<totfact> 0.15397895E+01</totfact>
</mgrwt>
</event>
<event>
 4    1  0.2799069E-007  0.8151941E+03  0.7818608E-02  0.9678858E-01
          2   -1    0    0  501    0  0.00000000000E+00  0.00000000000E+00  0.86134500579E+03  0.86134500580E+03  0.25500000000E-02 0. -1.
         -2   -1    0    0    0  501 -0.00000000000E+00 -0.00000000000E+00 -0.18000445659E+04  0.18000445659E+04  0.25500000000E-02 0.  1.
    8880023    1    1    2    0    0  0.10660180144E+03  0.46836657867E+03 -0.16201908608E+04  0.18137143733E+04  0.65864270000E+03 0.  0.
    8880022    1    1    2    0    0 -0.10660180144E+03 -0.46836657867E+03  0.68149130070E+03  0.84767519843E+03  0.15294330000E+03 0.  0.
<mgrwt>
<rscale>  0 0.72289668E+03</rscale>
<asrwt>0</asrwt>
<pdfrwt beam="1">  1        2 0.13251462E+00 0.81519409E+03</pdfrwt>
<pdfrwt beam="2">  1       -2 0.27692993E+00 0.81519409E+03</pdfrwt>
<totfact> 0.14082246E+00</totfact>
</mgrwt>
</event>
<event>
 4    1  0.2799069E-007  0.8740690E+03  0.7818608E-02  0.9569011E-01
         -2   -1    0    0    0  501 -0.00000000000E+00  0.00000000000E+00  0.90857064288E+03  0.90857064288E+03  0.25500000000E-02 0.  1.
          2   -1    0    0  501    0  0.00000000000E+00 -0.00000000000E+00 -0.14180198717E+04  0.14180198717E+04  0.25500000000E-02 0. -1.
    8880023    1    1    2    0    0 -0.57386656598E+03 -0.29385472907E+02  0.60527905270E+03  0.10631835587E+04  0.65864270000E+03 0.  1.
    8880022    1    1    2    0    0  0.57386656598E+03  0.29385472907E+02 -0.11147282815E+04  0.12634069559E+04  0.15294330000E+03 0.  0.
<mgrwt>
<rscale>  0 0.79381614E+03</rscale>
<asrwt>0</asrwt>
<pdfrwt beam="1">  1        2 0.21815690E+00 0.87406896E+03</pdfrwt>
<pdfrwt beam="2">  1       -2 0.13978010E+00 0.87406896E+03</pdfrwt>
<totfact> 0.51328941E+00</totfact>
</mgrwt>
</event>
<event>
 4    1  0.2799069E-007  0.1184869E+04  0.7818608E-02  0.9171973E-01
          2   -1    0    0  501    0  0.00000000000E+00  0.00000000000E+00  0.84057720873E+03  0.84057720874E+03  0.25500000000E-02 0. -1.
         -2   -1    0    0    0  501 -0.00000000000E+00 -0.00000000000E+00 -0.17087475676E+04  0.17087475676E+04  0.25500000000E-02 0.  1.
    8880023    1    1    2    0    0 -0.77858929516E+03 -0.60324425376E+03 -0.99149084471E+03  0.15449819486E+04  0.65864270000E+03 0.  1.
    8880022    1    1    2    0    0  0.77858929516E+03  0.60324425376E+03  0.12332048587E+03  0.10043428277E+04  0.15294330000E+03 0.  0.
<mgrwt>
<rscale>  0 0.11347459E+04</rscale>
<asrwt>0</asrwt>
<pdfrwt beam="1">  1        2 0.12931957E+00 0.11848692E+04</pdfrwt>
<pdfrwt beam="2">  1       -2 0.26288424E+00 0.11848692E+04</pdfrwt>
<totfact> 0.16891688E+00</totfact>
</mgrwt>
</event>
<event>
 4    1  0.2799069E-007  0.6941637E+03  0.7818608E-02  0.1002233E+00
          2   -1    0    0  501    0  0.00000000000E+00  0.00000000000E+00  0.28205281483E+04  0.28205281483E+04  0.25500000000E-02 0. -1.
         -2   -1    0    0    0  501 -0.00000000000E+00 -0.00000000000E+00 -0.13339437829E+03  0.13339437831E+03  0.25500000000E-02 0.  1.
    8880023    1    1    2    0    0  0.11145903255E+03 -0.18875883536E+03  0.84994816761E+03  0.10973946910E+04  0.65864270000E+03 0.  0.
    8880022    1    1    2    0    0 -0.11145903255E+03  0.18875883536E+03  0.18371856024E+04  0.18565278357E+04  0.15294330000E+03 0.  0.
<mgrwt>
<rscale>  0 0.54681780E+03</rscale>
<asrwt>0</asrwt>
<pdfrwt beam="1">  1        2 0.43392740E+00 0.69416368E+03</pdfrwt>
<pdfrwt beam="2">  1       -2 0.20522212E-01 0.69416368E+03</pdfrwt>
<totfact> 0.48509065E+01</totfact>
</mgrwt>
</event>
<event>
 4    1  0.2799069E-007  0.1275962E+04  0.7818608E-02  0.9086601E-01
         -2   -1    0    0    0  501 -0.00000000000E+00  0.00000000000E+00  0.11310790545E+04  0.11310790545E+04  0.25500000000E-02 0.  1.
          2   -1    0    0  501    0  0.00000000000E+00 -0.00000000000E+00 -0.18505409718E+04  0.18505409718E+04  0.25500000000E-02 0. -1.
    8880023    1    1    2    0    0  0.74765588490E+02  0.10902654381E+04  0.46940335379E+03  0.13595654944E+04  0.65864270000E+03 0.  1.
    8880022    1    1    2    0    0 -0.74765588490E+02 -0.10902654381E+04 -0.11888652711E+04  0.16220545320E+04  0.15294330000E+03 0.  0.
<mgrwt>
<rscale>  0 0.12304644E+04</rscale>
<asrwt>0</asrwt>
<pdfrwt beam="1">  1        2 0.28469861E+00 0.12759619E+04</pdfrwt>
<pdfrwt beam="2">  1       -2 0.17401216E+00 0.12759619E+04</pdfrwt>
<totfact> 0.15552734E+00</totfact>
</mgrwt>
</event>
<event>
 4    1  0.2799069E-007  0.1508878E+04  0.7818608E-02  0.8903392E-01
          2   -1    0    0  501    0  0.00000000000E+00  0.00000000000E+00  0.23963390982E+04  0.23963390982E+04  0.25500000000E-02 0. -1.
         -2   -1    0    0    0  501 -0.00000000000E+00 -0.00000000000E+00 -0.14090033227E+04  0.14090033227E+04  0.25500000000E-02 0.  1.
    8880023    1    1    2    0    0 -0.82309692791E+03 -0.10795433512E+04 -0.67559338640E+03  0.16532208049E+04  0.65864270000E+03 0.  0.
    8880022    1    1    2    0    0  0.82309692791E+03  0.10795433512E+04  0.16629291618E+04  0.21521216160E+04  0.15294330000E+03 0.  0.
<mgrwt>
<rscale>  0 0.14718484E+04</rscale>
<asrwt>0</asrwt>
<pdfrwt beam="1">  1        2 0.36866755E+00 0.15088779E+04</pdfrwt>
<pdfrwt beam="2">  1       -2 0.21676975E+00 0.15088779E+04</pdfrwt>
<totfact> 0.38805662E-01</totfact>
</mgrwt>
</event>
<event>
 4    1  0.2799069E-007  0.7098838E+03  0.7818608E-02  0.9958433E-01
          2   -1    0    0  501    0  0.00000000000E+00  0.00000000000E+00  0.40335033141E+03  0.40335033142E+03  0.25500000000E-02 0. -1.
         -2   -1    0    0    0  501 -0.00000000000E+00 -0.00000000000E+00 -0.13610661492E+04  0.13610661492E+04  0.25500000000E-02 0.  1.
    8880023    1    1    2    0    0 -0.25965591799E+03  0.51996287070E+02 -0.11863993650E+04  0.13825622840E+04  0.65864270000E+03 0.  1.
    8880022    1    1    2    0    0  0.25965591799E+03 -0.51996287070E+02  0.22868354728E+03  0.38185419655E+03  0.15294330000E+03 0.  0.
<mgrwt>
<rscale>  0 0.57511072E+03</rscale>
<asrwt>0</asrwt>
<pdfrwt beam="1">  1        2 0.62053898E-01 0.70988380E+03</pdfrwt>
<pdfrwt beam="2">  1       -2 0.20939479E+00 0.70988380E+03</pdfrwt>
<totfact> 0.93254658E+00</totfact>
</mgrwt>
</event>
<event>
 4    1  0.2799069E-007  0.6649185E+03  0.7818608E-02  0.1019602E+00
         -2   -1    0    0    0  501 -0.00000000000E+00  0.00000000000E+00  0.49917589055E+03  0.49917589055E+03  0.25500000000E-02 0.  1.
          2   -1    0    0  501    0  0.00000000000E+00 -0.00000000000E+00 -0.57957754232E+03  0.57957754233E+03  0.25500000000E-02 0. -1.
    8880023    1    1    2    0    0  0.60311672509E+02 -0.68329225506E+02  0.24435406844E+03  0.70839642710E+03  0.65864270000E+03 0.  1.
    8880022    1    1    2    0    0 -0.60311672509E+02  0.68329225506E+02 -0.32475572022E+03  0.37035700578E+03  0.15294330000E+03 0.  0.
<mgrwt>
<rscale>  0 0.47830547E+03</rscale>
<asrwt>0</asrwt>
<pdfrwt beam="1">  1        2 0.89165777E-01 0.66491848E+03</pdfrwt>
<pdfrwt beam="2">  1       -2 0.76796290E-01 0.66491848E+03</pdfrwt>
<totfact> 0.79692649E+01</totfact>
</mgrwt>
</event>
<event>
 4    1  0.2799069E-007  0.8229933E+03  0.7818608E-02  0.9663122E-01
         -2   -1    0    0    0  501 -0.00000000000E+00  0.00000000000E+00  0.88232283193E+03  0.88232283193E+03  0.25500000000E-02 0.  1.
          2   -1    0    0  501    0  0.00000000000E+00 -0.00000000000E+00 -0.53956542348E+03  0.53956542348E+03  0.25500000000E-02 0. -1.
    8880023    1    1    2    0    0 -0.99488262860E+02 -0.48333199533E+03  0.41927684499E+02  0.82406059798E+03  0.65864270000E+03 0.  0.
    8880022    1    1    2    0    0  0.99488262860E+02  0.48333199533E+03  0.30082972395E+03  0.59782765743E+03  0.15294330000E+03 0.  0.
<mgrwt>
<rscale>  0 0.73255572E+03</rscale>
<asrwt>0</asrwt>
<pdfrwt beam="1">  1        2 0.83010066E-01 0.82299328E+03</pdfrwt>
<pdfrwt beam="2">  1       -2 0.13574197E+00 0.82299328E+03</pdfrwt>
<totfact> 0.22062194E+01</totfact>
</mgrwt>
</event>
<event>
 4    1  0.2799069E-007  0.1292904E+04  0.7818608E-02  0.9071712E-01
         -2   -1    0    0    0  501 -0.00000000000E+00  0.00000000000E+00  0.14134599565E+04  0.14134599565E+04  0.25500000000E-02 0.  1.
          2   -1    0    0  501    0  0.00000000000E+00 -0.00000000000E+00 -0.14009206546E+04  0.14009206546E+04  0.25500000000E-02 0. -1.
    8880023    1    1    2    0    0 -0.11029550299E+04  0.14587530875E+03  0.72706787828E+03  0.14833163215E+04  0.65864270000E+03 0.  1.
    8880022    1    1    2    0    0  0.11029550299E+04 -0.14587530875E+03 -0.71452857636E+03  0.13310642896E+04  0.15294330000E+03 0.  0.
<mgrwt>
<rscale>  0 0.12481644E+04</rscale>
<asrwt>0</asrwt>
<pdfrwt beam="1">  1        2 0.21552626E+00 0.12929036E+04</pdfrwt>
<pdfrwt beam="2">  1       -2 0.21745538E+00 0.12929036E+04</pdfrwt>
<totfact> 0.14246943E+00</totfact>
</mgrwt>
</event>
<event>
 4    1  0.2799069E-007  0.6943213E+03  0.7818608E-02  0.1002163E+00
         -2   -1    0    0    0  501 -0.00000000000E+00  0.00000000000E+00  0.54356290602E+03  0.54356290603E+03  0.25500000000E-02 0.  1.
          2   -1    0    0  501    0  0.00000000000E+00 -0.00000000000E+00 -0.34006271277E+04  0.34006271277E+04  0.25500000000E-02 0. -1.
    8880023    1    1    2    0    0  0.54044673406E+02 -0.21295776957E+03  0.31387499568E+03  0.76197083771E+03  0.65864270000E+03 0.  1.
    8880022    1    1    2    0    0 -0.54044673406E+02  0.21295776957E+03 -0.31709392174E+04  0.31822191960E+04  0.15294330000E+03 0.  0.
<mgrwt>
<rscale>  0 0.54712002E+03</rscale>
<asrwt>0</asrwt>
<pdfrwt beam="1">  1        2 0.52317339E+00 0.69432128E+03</pdfrwt>
<pdfrwt beam="2">  1       -2 0.83625065E-01 0.69432128E+03</pdfrwt>
<totfact> 0.13082416E+00</totfact>
</mgrwt>
</event>
<event>
 4    1  0.2799069E-007  0.8392318E+03  0.7818608E-02  0.9631631E-01
          2   -1    0    0  501    0  0.00000000000E+00  0.00000000000E+00  0.18349485088E+04  0.18349485088E+04  0.25500000000E-02 0. -1.
         -2   -1    0    0    0  501 -0.00000000000E+00 -0.00000000000E+00 -0.81356731988E+03  0.81356731989E+03  0.25500000000E-02 0.  1.
    8880023    1    1    2    0    0  0.37744617788E+03  0.35781854324E+03 -0.53848262278E+03  0.99713262327E+03  0.65864270000E+03 0.  1.
    8880022    1    1    2    0    0 -0.37744617788E+03 -0.35781854324E+03  0.15598638117E+04  0.16513832054E+04  0.15294330000E+03 0.  0.
<mgrwt>
<rscale>  0 0.75237574E+03</rscale>
<asrwt>0</asrwt>
<pdfrwt beam="1">  1        2 0.28229977E+00 0.83923175E+03</pdfrwt>
<pdfrwt beam="2">  1       -2 0.12516420E+00 0.83923175E+03</pdfrwt>
<totfact> 0.40158315E+00</totfact>
</mgrwt>
</event>
<event>
 4    1  0.2799069E-007  0.1171531E+04  0.7818608E-02  0.9185306E-01
          2   -1    0    0  501    0  0.00000000000E+00  0.00000000000E+00  0.31759475195E+04  0.31759475195E+04  0.25500000000E-02 0. -1.
         -2   -1    0    0    0  501 -0.00000000000E+00 -0.00000000000E+00 -0.53025013485E+03  0.53025013486E+03  0.25500000000E-02 0.  1.
    8880023    1    1    2    0    0 -0.92361053609E+03 -0.29260547578E+03  0.24361646116E+04  0.27032170849E+04  0.65864270000E+03 0.  0.
    8880022    1    1    2    0    0  0.92361053609E+03  0.29260547578E+03  0.20953277307E+03  0.10029805695E+04  0.15294330000E+03 0.  0.
<mgrwt>
<rscale>  0 0.11206395E+04</rscale>
<asrwt>0</asrwt>
<pdfrwt beam="1">  1        2 0.48860731E+00 0.11715309E+04</pdfrwt>
<pdfrwt beam="2">  1       -2 0.81576944E-01 0.11715309E+04</pdfrwt>
<totfact> 0.17787390E+00</totfact>
</mgrwt>
</event>
<event>
 4    1  0.2799069E-007  0.7587244E+03  0.7818608E-02  0.9808421E-01
         -2   -1    0    0    0  501 -0.00000000000E+00  0.00000000000E+00  0.16994944226E+03  0.16994944228E+03  0.25500000000E-02 0.  1.
          2   -1    0    0  501    0  0.00000000000E+00 -0.00000000000E+00 -0.27790636600E+04  0.27790636600E+04  0.25500000000E-02 0. -1.
    8880023    1    1    2    0    0  0.36360599554E+03  0.98199892256E+02 -0.83202297217E+03  0.11260217455E+04  0.65864270000E+03 0.  0.
    8880022    1    1    2    0    0 -0.36360599554E+03 -0.98199892256E+02 -0.17770912456E+04  0.18229913568E+04  0.15294330000E+03 0.  0.
<mgrwt>
<rscale>  0 0.64912573E+03</rscale>
<asrwt>0</asrwt>
<pdfrwt beam="1">  1        2 0.42754822E+00 0.75872442E+03</pdfrwt>
<pdfrwt beam="2">  1       -2 0.26146070E-01 0.75872442E+03</pdfrwt>
<totfact> 0.32993150E+01</totfact>
</mgrwt>
</event>
<event>
 4    1  0.2799069E-007  0.1158079E+04  0.7818608E-02  0.9198990E-01
         -2   -1    0    0    0  501 -0.00000000000E+00  0.00000000000E+00  0.86910404634E+03  0.86910404635E+03  0.25500000000E-02 0.  1.
          2   -1    0    0  501    0  0.00000000000E+00 -0.00000000000E+00 -0.20970024293E+04  0.20970024293E+04  0.25500000000E-02 0. -1.
    8880023    1    1    2    0    0  0.69650727999E+03  0.64978003046E+03  0.26556805924E+03  0.11881384934E+04  0.65864270000E+03 0.  1.
    8880022    1    1    2    0    0 -0.69650727999E+03 -0.64978003046E+03 -0.14934664422E+04  0.17779679823E+04  0.15294330000E+03 0.  0.
<mgrwt>
<rscale>  0 0.11063855E+04</rscale>
<asrwt>0</asrwt>
<pdfrwt beam="1">  1        2 0.32261576E+00 0.11580789E+04</pdfrwt>
<pdfrwt beam="2">  1       -2 0.13370832E+00 0.11580789E+04</pdfrwt>
<totfact> 0.23374729E+00</totfact>
</mgrwt>
</event>
<event>
 4    1  0.2799069E-007  0.7181118E+03  0.7818608E-02  0.9929028E-01
         -2   -1    0    0    0  501 -0.00000000000E+00  0.00000000000E+00  0.18572336038E+04  0.18572336038E+04  0.25500000000E-02 0.  1.
          2   -1    0    0  501    0  0.00000000000E+00 -0.00000000000E+00 -0.48824422442E+03  0.48824422443E+03  0.25500000000E-02 0. -1.
    8880023    1    1    2    0    0  0.62298665763E+02 -0.27927256797E+03  0.17221698755E+04  0.18658921666E+04  0.65864270000E+03 0.  1.
    8880022    1    1    2    0    0 -0.62298665763E+02  0.27927256797E+03 -0.35318049613E+03  0.47958566163E+03  0.15294330000E+03 0.  0.
<mgrwt>
<rscale>  0 0.58874877E+03</rscale>
<asrwt>0</asrwt>
<pdfrwt beam="1">  1        2 0.75114497E-01 0.71811176E+03</pdfrwt>
<pdfrwt beam="2">  1       -2 0.28572824E+00 0.71811176E+03</pdfrwt>
<totfact> 0.25650793E+00</totfact>
</mgrwt>
</event>
<event>
 4    1  0.2799069E-007  0.9228853E+03  0.7818608E-02  0.9490249E-01
          2   -1    0    0  501    0  0.00000000000E+00  0.00000000000E+00  0.21868605619E+04  0.21868605619E+04  0.25500000000E-02 0. -1.
         -2   -1    0    0    0  501 -0.00000000000E+00 -0.00000000000E+00 -0.32377291312E+03  0.32377291313E+03  0.25500000000E-02 0.  1.
    8880023    1    1    2    0    0  0.37298701357E+03  0.52800359895E+03  0.14789075498E+04  0.17432397597E+04  0.65864270000E+03 0. -1.
    8880022    1    1    2    0    0 -0.37298701357E+03 -0.52800359895E+03  0.38418009895E+03  0.76739371527E+03  0.15294330000E+03 0.  0.
<mgrwt>
<rscale>  0 0.85006551E+03</rscale>
<asrwt>0</asrwt>
<pdfrwt beam="1">  1        2 0.33644010E+00 0.92288532E+03</pdfrwt>
<pdfrwt beam="2">  1       -2 0.49811216E-01 0.92288532E+03</pdfrwt>
<totfact> 0.20338170E+01</totfact>
</mgrwt>
</event>
<event>
 4    1  0.2799069E-007  0.7456957E+03  0.7818608E-02  0.9843656E-01
         -2   -1    0    0    0  501 -0.00000000000E+00  0.00000000000E+00  0.13143736894E+03  0.13143736896E+03  0.25500000000E-02 0.  1.
          2   -1    0    0  501    0  0.00000000000E+00 -0.00000000000E+00 -0.26117995029E+04  0.26117995029E+04  0.25500000000E-02 0. -1.
    8880023    1    1    2    0    0  0.33895795912E+03  0.85787116671E+02 -0.12550337636E+04  0.14598533767E+04  0.65864270000E+03 0.  0.
    8880022    1    1    2    0    0 -0.33895795912E+03 -0.85787116671E+02 -0.12253283704E+04  0.12833834952E+04  0.15294330000E+03 0.  0.
<mgrwt>
<rscale>  0 0.63071428E+03</rscale>
<asrwt>0</asrwt>
<pdfrwt beam="1">  1        2 0.40181527E+00 0.74569574E+03</pdfrwt>
<pdfrwt beam="2">  1       -2 0.20221136E-01 0.74569574E+03</pdfrwt>
<totfact> 0.65401557E+01</totfact>
</mgrwt>
</event>
<event>
 4    1  0.2799069E-007  0.1076345E+04  0.7818608E-02  0.9287862E-01
         -2   -1    0    0    0  501 -0.00000000000E+00  0.00000000000E+00  0.74318629203E+03  0.74318629204E+03  0.25500000000E-02 0.  1.
          2   -1    0    0  501    0  0.00000000000E+00 -0.00000000000E+00 -0.17765964572E+04  0.17765964572E+04  0.25500000000E-02 0. -1.
    8880023    1    1    2    0    0  0.29084017250E+03 -0.80007479718E+03  0.11458503863E+03  0.10824267293E+04  0.65864270000E+03 0.  0.
    8880022    1    1    2    0    0 -0.29084017250E+03  0.80007479718E+03 -0.11479952038E+04  0.14373560199E+04  0.15294330000E+03 0.  0.
<mgrwt>
<rscale>  0 0.10190804E+04</rscale>
<asrwt>0</asrwt>
<pdfrwt beam="1">  1        2 0.27332253E+00 0.10763447E+04</pdfrwt>
<pdfrwt beam="2">  1       -2 0.11433635E+00 0.10763447E+04</pdfrwt>
<totfact> 0.52550255E+00</totfact>
</mgrwt>
</event>
<event>
 4    1  0.2799069E-007  0.9887842E+03  0.7818608E-02  0.9396381E-01
          2   -1    0    0  501    0  0.00000000000E+00  0.00000000000E+00  0.22948566257E+04  0.22948566257E+04  0.25500000000E-02 0. -1.
         -2   -1    0    0    0  501 -0.00000000000E+00 -0.00000000000E+00 -0.67277382569E+03  0.67277382569E+03  0.25500000000E-02 0.  1.
    8880023    1    1    2    0    0  0.69523147051E+03  0.24604303081E+03 -0.18854318663E+03  0.10065995778E+04  0.65864270000E+03 0.  1.
    8880022    1    1    2    0    0 -0.69523147051E+03 -0.24604303081E+03  0.18106259867E+04  0.19610308736E+04  0.15294330000E+03 0.  0.
<mgrwt>
<rscale>  0 0.92374138E+03</rscale>
<asrwt>0</asrwt>
<pdfrwt beam="1">  1        2 0.35305487E+00 0.98878419E+03</pdfrwt>
<pdfrwt beam="2">  1       -2 0.10350366E+00 0.98878419E+03</pdfrwt>
<totfact> 0.34940490E+00</totfact>
</mgrwt>
</event>
<event>
 4    1  0.2799069E-007  0.1142154E+04  0.7818608E-02  0.9215513E-01
          2   -1    0    0  501    0  0.00000000000E+00  0.00000000000E+00  0.25684116408E+04  0.25684116408E+04  0.25500000000E-02 0. -1.
         -2   -1    0    0    0  501 -0.00000000000E+00 -0.00000000000E+00 -0.61418564902E+03  0.61418564902E+03  0.25500000000E-02 0.  1.
    8880023    1    1    2    0    0 -0.51539086808E+03  0.77786703271E+03  0.15845552695E+03  0.11530928964E+04  0.65864270000E+03 0.  1.
    8880022    1    1    2    0    0  0.51539086808E+03 -0.77786703271E+03  0.17957704649E+04  0.20295043934E+04  0.15294330000E+03 0.  0.
<mgrwt>
<rscale>  0 0.10894730E+04</rscale>
<asrwt>0</asrwt>
<pdfrwt beam="1">  1        2 0.39514025E+00 0.11421537E+04</pdfrwt>
<pdfrwt beam="2">  1       -2 0.94490100E-01 0.11421537E+04</pdfrwt>
<totfact> 0.29727943E+00</totfact>
</mgrwt>
</event>
<event>
 4    1  0.2799069E-007  0.7712959E+03  0.7818608E-02  0.9776695E-01
          2   -1    0    0  501    0  0.00000000000E+00  0.00000000000E+00  0.21234138900E+04  0.21234138900E+04  0.25500000000E-02 0. -1.
         -2   -1    0    0    0  501 -0.00000000000E+00 -0.00000000000E+00 -0.38524495795E+03  0.38524495796E+03  0.25500000000E-02 0.  1.
    8880023    1    1    2    0    0 -0.40126743172E+03 -0.84643298383E+01  0.56897634620E+02  0.77339171429E+03  0.65864270000E+03 0.  1.
    8880022    1    1    2    0    0  0.40126743172E+03  0.84643298383E+01  0.16812712974E+04  0.17352671336E+04  0.15294330000E+03 0.  0.
<mgrwt>
<rscale>  0 0.66628356E+03</rscale>
<asrwt>0</asrwt>
<pdfrwt beam="1">  1        2 0.32667907E+00 0.77129592E+03</pdfrwt>
<pdfrwt beam="2">  1       -2 0.59268454E-01 0.77129592E+03</pdfrwt>
<totfact> 0.15674452E+01</totfact>
</mgrwt>
</event>
<event>
 4    1  0.2799069E-007  0.9531095E+03  0.7818608E-02  0.9445654E-01
         -2   -1    0    0    0  501 -0.00000000000E+00  0.00000000000E+00  0.66551760037E+03  0.66551760038E+03  0.25500000000E-02 0.  1.
          2   -1    0    0  501    0  0.00000000000E+00 -0.00000000000E+00 -0.27723375729E+04  0.27723375729E+04  0.25500000000E-02 0. -1.
    8880023    1    1    2    0    0 -0.27074050930E+03  0.63348804166E+03  0.24362913715E+03  0.98375448412E+03  0.65864270000E+03 0.  0.
    8880022    1    1    2    0    0  0.27074050930E+03 -0.63348804166E+03 -0.23504491096E+04  0.24541006891E+04  0.15294330000E+03 0.  0.
<mgrwt>
<rscale>  0 0.88411891E+03</rscale>
<asrwt>0</asrwt>
<pdfrwt beam="1">  1        2 0.42651347E+00 0.95310951E+03</pdfrwt>
<pdfrwt beam="2">  1       -2 0.10238732E+00 0.95310951E+03</pdfrwt>
<totfact> 0.19167456E+00</totfact>
</mgrwt>
</event>
<event>
 4    1  0.2799069E-007  0.9240749E+03  0.7818608E-02  0.9488439E-01
          2   -1    0    0  501    0  0.00000000000E+00  0.00000000000E+00  0.24271139775E+04  0.24271139775E+04  0.25500000000E-02 0. -1.
         -2   -1    0    0    0  501 -0.00000000000E+00 -0.00000000000E+00 -0.35341131736E+03  0.35341131737E+03  0.25500000000E-02 0.  1.
    8880023    1    1    2    0    0  0.45989259743E+02  0.64652081331E+03  0.45465846103E+03  0.10298682909E+04  0.65864270000E+03 0.  0.
    8880022    1    1    2    0    0 -0.45989259743E+02 -0.64652081331E+03  0.16190441991E+04  0.17506570040E+04  0.15294330000E+03 0.  0.
<mgrwt>
<rscale>  0 0.85141552E+03</rscale>
<asrwt>0</asrwt>
<pdfrwt beam="1">  1        2 0.37340214E+00 0.92407488E+03</pdfrwt>
<pdfrwt beam="2">  1       -2 0.54370973E-01 0.92407488E+03</pdfrwt>
<totfact> 0.12459126E+01</totfact>
</mgrwt>
</event>
<event>
 4    1  0.2799069E-007  0.7557610E+03  0.7818608E-02  0.9816208E-01
          2   -1    0    0  501    0  0.00000000000E+00  0.00000000000E+00  0.29439103104E+04  0.29439103104E+04  0.25500000000E-02 0. -1.
         -2   -1    0    0    0  501 -0.00000000000E+00 -0.00000000000E+00 -0.24599566031E+03  0.24599566032E+03  0.25500000000E-02 0.  1.
    8880023    1    1    2    0    0 -0.74306896439E+02 -0.36310178411E+03  0.39578769483E+03  0.85312515267E+03  0.65864270000E+03 0.  1.
    8880022    1    1    2    0    0  0.74306896439E+02  0.36310178411E+03  0.23021269553E+04  0.23367808181E+04  0.15294330000E+03 0.  0.
<mgrwt>
<rscale>  0 0.64499933E+03</rscale>
<asrwt>0</asrwt>
<pdfrwt beam="1">  1        2 0.45290924E+00 0.75576096E+03</pdfrwt>
<pdfrwt beam="2">  1       -2 0.37845490E-01 0.75576096E+03</pdfrwt>
<totfact> 0.13168292E+01</totfact>
</mgrwt>
</event>
<event>
 4    1  0.2799069E-007  0.9841927E+03  0.7818608E-02  0.9402537E-01
         -2   -1    0    0    0  501 -0.00000000000E+00  0.00000000000E+00  0.15101029460E+04  0.15101029460E+04  0.25500000000E-02 0.  1.
          2   -1    0    0  501    0  0.00000000000E+00 -0.00000000000E+00 -0.17205686203E+04  0.17205686203E+04  0.25500000000E-02 0. -1.
    8880023    1    1    2    0    0  0.51130108566E+03 -0.52287314898E+03  0.12495445321E+04  0.15905963894E+04  0.65864270000E+03 0.  1.
    8880022    1    1    2    0    0 -0.51130108566E+03  0.52287314898E+03 -0.14600102063E+04  0.16400751769E+04  0.15294330000E+03 0.  0.
<mgrwt>
<rscale>  0 0.91867199E+03</rscale>
<asrwt>0</asrwt>
<pdfrwt beam="1">  1        2 0.26470286E+00 0.98419273E+03</pdfrwt>
<pdfrwt beam="2">  1       -2 0.23232353E+00 0.98419273E+03</pdfrwt>
<totfact> 0.79018699E-01</totfact>
</mgrwt>
</event>
<event>
 4    1  0.2799069E-007  0.1036604E+04  0.7818608E-02  0.9335161E-01
          2   -1    0    0  501    0  0.00000000000E+00  0.00000000000E+00  0.16734173703E+04  0.16734173703E+04  0.25500000000E-02 0. -1.
         -2   -1    0    0    0  501 -0.00000000000E+00 -0.00000000000E+00 -0.13450906322E+04  0.13450906322E+04  0.25500000000E-02 0.  1.
    8880023    1    1    2    0    0  0.49406977491E+03  0.62978751693E+03 -0.10127664196E+04  0.14492216138E+04  0.65864270000E+03 0.  0.
    8880022    1    1    2    0    0 -0.49406977491E+03 -0.62978751693E+03  0.13410931578E+04  0.15692863887E+04  0.15294330000E+03 0.  0.
<mgrwt>
<rscale>  0 0.97609289E+03</rscale>
<asrwt>0</asrwt>
<pdfrwt beam="1">  1        2 0.25744883E+00 0.10366038E+04</pdfrwt>
<pdfrwt beam="2">  1       -2 0.20693702E+00 0.10366038E+04</pdfrwt>
<totfact> 0.12042781E+00</totfact>
</mgrwt>
</event>
<event>
 4    1  0.2799069E-007  0.7639665E+03  0.7818608E-02  0.9794945E-01
          2   -1    0    0  501    0  0.00000000000E+00  0.00000000000E+00  0.14923625441E+04  0.14923625441E+04  0.25500000000E-02 0. -1.
         -2   -1    0    0    0  501 -0.00000000000E+00 -0.00000000000E+00 -0.24484733548E+03  0.24484733549E+03  0.25500000000E-02 0.  1.
    8880023    1    1    2    0    0 -0.38678108245E+03  0.15329176144E+02  0.61842102165E+03  0.98289844626E+03  0.65864270000E+03 0. -1.
    8880022    1    1    2    0    0  0.38678108245E+03 -0.15329176144E+02  0.62909418701E+03  0.75431143338E+03  0.15294330000E+03 0.  0.
<mgrwt>
<rscale>  0 0.65634539E+03</rscale>
<asrwt>0</asrwt>
<pdfrwt beam="1">  1        2 0.22959423E+00 0.76396649E+03</pdfrwt>
<pdfrwt beam="2">  1       -2 0.37668821E-01 0.76396649E+03</pdfrwt>
<totfact> 0.86747770E+01</totfact>
</mgrwt>
</event>
<event>
 4    1  0.2799069E-007  0.7640889E+03  0.7818608E-02  0.9794635E-01
          2   -1    0    0  501    0  0.00000000000E+00  0.00000000000E+00  0.24259986297E+04  0.24259986297E+04  0.25500000000E-02 0. -1.
         -2   -1    0    0    0  501 -0.00000000000E+00 -0.00000000000E+00 -0.49053756689E+03  0.49053756689E+03  0.25500000000E-02 0.  1.
    8880023    1    1    2    0    0 -0.14433746750E+03  0.35942777081E+03 -0.15952452852E+03  0.78056384006E+03  0.65864270000E+03 0.  1.
    8880022    1    1    2    0    0  0.14433746750E+03 -0.35942777081E+03  0.20949855914E+04  0.21359723566E+04  0.15294330000E+03 0.  0.
<mgrwt>
<rscale>  0 0.65651282E+03</rscale>
<asrwt>0</asrwt>
<pdfrwt beam="1">  1        2 0.37323056E+00 0.76408889E+03</pdfrwt>
<pdfrwt beam="2">  1       -2 0.75467317E-01 0.76408889E+03</pdfrwt>
<totfact> 0.63207630E+00</totfact>
</mgrwt>
</event>
<event>
 4    1  0.2799069E-007  0.7441278E+03  0.7818608E-02  0.9848082E-01
         -2   -1    0    0    0  501 -0.00000000000E+00  0.00000000000E+00  0.58905169731E+03  0.58905169732E+03  0.25500000000E-02 0.  1.
          2   -1    0    0  501    0  0.00000000000E+00 -0.00000000000E+00 -0.11743558210E+04  0.11743558210E+04  0.25500000000E-02 0. -1.
    8880023    1    1    2    0    0 -0.10767872013E+03  0.32912193036E+03  0.29863585375E+03  0.80181639496E+03  0.65864270000E+03 0.  1.
    8880022    1    1    2    0    0  0.10767872013E+03 -0.32912193036E+03 -0.88393997741E+03  0.96159112335E+03  0.15294330000E+03 0.  0.
<mgrwt>
<rscale>  0 0.62844792E+03</rscale>
<asrwt>0</asrwt>
<pdfrwt beam="1">  1        2 0.18067013E+00 0.74412778E+03</pdfrwt>
<pdfrwt beam="2">  1       -2 0.90623338E-01 0.74412778E+03</pdfrwt>
<totfact> 0.20806813E+01</totfact>
</mgrwt>
</event>
<event>
 4    1  0.2799069E-007  0.9064200E+03  0.7818608E-02  0.9515803E-01
          2   -1    0    0  501    0  0.00000000000E+00  0.00000000000E+00  0.26352852634E+04  0.26352852634E+04  0.25500000000E-02 0. -1.
         -2   -1    0    0    0  501 -0.00000000000E+00 -0.00000000000E+00 -0.41530229575E+03  0.41530229576E+03  0.25500000000E-02 0.  1.
    8880023    1    1    2    0    0  0.57389743917E+03  0.24172053074E+03  0.19588219373E+03  0.92734412477E+03  0.65864270000E+03 0.  0.
    8880022    1    1    2    0    0 -0.57389743917E+03 -0.24172053074E+03  0.20241007739E+04  0.21232434344E+04  0.15294330000E+03 0.  1.
<mgrwt>
<rscale>  0 0.83128694E+03</rscale>
<asrwt>0</asrwt>
<pdfrwt beam="1">  1        2 0.40542850E+00 0.90642004E+03</pdfrwt>
<pdfrwt beam="2">  1       -2 0.63892661E-01 0.90642004E+03</pdfrwt>
<totfact> 0.67513332E+00</totfact>
</mgrwt>
</event>
<event>
 4    1  0.2799069E-007  0.8133820E+03  0.7818608E-02  0.9682575E-01
         -2   -1    0    0    0  501 -0.00000000000E+00  0.00000000000E+00  0.16034716276E+04  0.16034716276E+04  0.25500000000E-02 0.  1.
          2   -1    0    0  501    0  0.00000000000E+00 -0.00000000000E+00 -0.62595028568E+03  0.62595028568E+03  0.25500000000E-02 0. -1.
    8880023    1    1    2    0    0  0.43169993078E+03 -0.20350739092E+03  0.13697262224E+04  0.15930286310E+04  0.65864270000E+03 0.  1.
    8880022    1    1    2    0    0 -0.43169993078E+03  0.20350739092E+03 -0.39220488055E+03  0.63639328228E+03  0.15294330000E+03 0.  0.
<mgrwt>
<rscale>  0 0.72063818E+03</rscale>
<asrwt>0</asrwt>
<pdfrwt beam="1">  1        2 0.96300045E-01 0.81338201E+03</pdfrwt>
<pdfrwt beam="2">  1       -2 0.24668794E+00 0.81338201E+03</pdfrwt>
<totfact> 0.32375773E+00</totfact>
</mgrwt>
</event>
<event>
 4    1  0.2799069E-007  0.1007820E+04  0.7818608E-02  0.9371398E-01
         -2   -1    0    0    0  501 -0.00000000000E+00  0.00000000000E+00  0.37188596556E+03  0.37188596557E+03  0.25500000000E-02 0.  1.
          2   -1    0    0  501    0  0.00000000000E+00 -0.00000000000E+00 -0.36203636301E+04  0.36203636301E+04  0.25500000000E-02 0. -1.
    8880023    1    1    2    0    0  0.61008735439E+03 -0.45791263544E+03 -0.47954339346E+03  0.11160925742E+04  0.65864270000E+03 0.  0.
    8880022    1    1    2    0    0 -0.61008735439E+03  0.45791263544E+03 -0.27689342711E+04  0.28761570215E+04  0.15294330000E+03 0.  0.
<mgrwt>
<rscale>  0 0.94467388E+03</rscale>
<asrwt>0</asrwt>
<pdfrwt beam="1">  1        2 0.55697900E+00 0.10078198E+04</pdfrwt>
<pdfrwt beam="2">  1       -2 0.57213228E-01 0.10078198E+04</pdfrwt>
<totfact> 0.19861540E+00</totfact>
</mgrwt>
</event>
<event>
 4    1  0.2799069E-007  0.8635983E+03  0.7818608E-02  0.9587195E-01
         -2   -1    0    0    0  501 -0.00000000000E+00  0.00000000000E+00  0.39936476964E+03  0.39936476964E+03  0.25500000000E-02 0.  1.
          2   -1    0    0  501    0  0.00000000000E+00 -0.00000000000E+00 -0.17873226783E+04  0.17873226783E+04  0.25500000000E-02 0. -1.
    8880023    1    1    2    0    0 -0.53884717121E+03 -0.14709010086E+03 -0.23269833900E+03  0.89439951640E+03  0.65864270000E+03 0.  1.
    8880022    1    1    2    0    0  0.53884717121E+03  0.14709010086E+03 -0.11552595696E+04  0.12922879315E+04  0.15294330000E+03 0.  0.
<mgrwt>
<rscale>  0 0.78149558E+03</rscale>
<asrwt>0</asrwt>
<pdfrwt beam="1">  1        2 0.27497272E+00 0.86359827E+03</pdfrwt>
<pdfrwt beam="2">  1       -2 0.61440735E-01 0.86359827E+03</pdfrwt>
<totfact> 0.21927056E+01</totfact>
</mgrwt>
</event>
<event>
 4    1  0.2799069E-007  0.1712779E+04  0.7818608E-02  0.8772382E-01
         -2   -1    0    0    0  501 -0.00000000000E+00  0.00000000000E+00  0.12316042561E+04  0.12316042561E+04  0.25500000000E-02 0.  1.
          2   -1    0    0  501    0  0.00000000000E+00 -0.00000000000E+00 -0.26073509405E+04  0.26073509405E+04  0.25500000000E-02 0. -1.
    8880023    1    1    2    0    0 -0.24650881288E+03  0.15617415497E+04  0.36957528391E+02  0.17131781367E+04  0.65864270000E+03 0.  0.
    8880022    1    1    2    0    0  0.24650881288E+03 -0.15617415497E+04 -0.14127042128E+04  0.21257770599E+04  0.15294330000E+03 0.  0.
<mgrwt>
<rscale>  0 0.16808151E+04</rscale>
<asrwt>0</asrwt>
<pdfrwt beam="1">  1        2 0.40113091E+00 0.17127795E+04</pdfrwt>
<pdfrwt beam="2">  1       -2 0.18947758E+00 0.17127795E+04</pdfrwt>
<totfact> 0.43327757E-01</totfact>
</mgrwt>
</event>
<event>
 4    1  0.2799069E-007  0.9963700E+03  0.7818608E-02  0.9386322E-01
         -2   -1    0    0    0  501 -0.00000000000E+00  0.00000000000E+00  0.73951502735E+03  0.73951502736E+03  0.25500000000E-02 0.  1.
          2   -1    0    0  501    0  0.00000000000E+00 -0.00000000000E+00 -0.22860355000E+04  0.22860355000E+04  0.25500000000E-02 0. -1.
    8880023    1    1    2    0    0  0.71024792123E+03  0.23343270468E+03  0.28923602782E+03  0.10375021076E+04  0.65864270000E+03 0.  0.
    8880022    1    1    2    0    0 -0.71024792123E+03 -0.23343270468E+03 -0.18357565004E+04  0.19880484197E+04  0.15294330000E+03 0.  0.
<mgrwt>
<rscale>  0 0.93209902E+03</rscale>
<asrwt>0</asrwt>
<pdfrwt beam="1">  1        2 0.35169777E+00 0.99636998E+03</pdfrwt>
<pdfrwt beam="2">  1       -2 0.11377154E+00 0.99636998E+03</pdfrwt>
<totfact> 0.28066320E+00</totfact>
</mgrwt>
</event>
<event>
 4    1  0.2799069E-007  0.1698548E+04  0.7818608E-02  0.8780834E-01
          2   -1    0    0  501    0  0.00000000000E+00  0.00000000000E+00  0.40662661732E+04  0.40662661732E+04  0.25500000000E-02 0. -1.
         -2   -1    0    0    0  501 -0.00000000000E+00 -0.00000000000E+00 -0.95608141403E+03  0.95608141403E+03  0.25500000000E-02 0.  1.
    8880023    1    1    2    0    0 -0.10973300144E+04 -0.11167456956E+04  0.19487062427E+03  0.17096897016E+04  0.65864270000E+03 0.  1.
    8880022    1    1    2    0    0  0.10973300144E+04  0.11167456956E+04  0.29153141349E+04  0.33126578857E+04  0.15294330000E+03 0.  0.
<mgrwt>
<rscale>  0 0.16662779E+04</rscale>
<asrwt>0</asrwt>
<pdfrwt beam="1">  1        2 0.62557940E+00 0.16985477E+04</pdfrwt>
<pdfrwt beam="2">  1       -2 0.14708945E+00 0.16985477E+04</pdfrwt>
<totfact> 0.89354777E-02</totfact>
</mgrwt>
</event>
<event>
 4    1  0.2799069E-007  0.1469803E+04  0.7818608E-02  0.8931259E-01
          2   -1    0    0  501    0  0.00000000000E+00  0.00000000000E+00  0.13663223377E+04  0.13663223377E+04  0.25500000000E-02 0. -1.
         -2   -1    0    0    0  501 -0.00000000000E+00 -0.00000000000E+00 -0.18956710832E+04  0.18956710832E+04  0.25500000000E-02 0.  1.
    8880023    1    1    2    0    0 -0.78273802724E+03 -0.10553823314E+04 -0.10853040866E+04  0.18270757651E+04  0.65864270000E+03 0.  0.
    8880022    1    1    2    0    0  0.78273802724E+03  0.10553823314E+04  0.55595534112E+03  0.14349176558E+04  0.15294330000E+03 0.  0.
<mgrwt>
<rscale>  0 0.14315980E+04</rscale>
<asrwt>0</asrwt>
<pdfrwt beam="1">  1        2 0.21020344E+00 0.14698030E+04</pdfrwt>
<pdfrwt beam="2">  1       -2 0.29164171E+00 0.14698030E+04</pdfrwt>
<totfact> 0.51127582E-01</totfact>
</mgrwt>
</event>
<event>
 4    1  0.2799069E-007  0.1391376E+04  0.7818608E-02  0.8990413E-01
         -2   -1    0    0    0  501 -0.00000000000E+00  0.00000000000E+00  0.25978538096E+04  0.25978538096E+04  0.25500000000E-02 0.  1.
          2   -1    0    0  501    0  0.00000000000E+00 -0.00000000000E+00 -0.29246008676E+04  0.29246008676E+04  0.25500000000E-02 0. -1.
    8880023    1    1    2    0    0 -0.70559359078E+03 -0.10021256302E+04  0.22611397194E+04  0.26549352404E+04  0.65864270000E+03 0.  0.
    8880022    1    1    2    0    0  0.70559359078E+03  0.10021256302E+04 -0.25878867775E+04  0.28675194367E+04  0.15294330000E+03 0.  0.
<mgrwt>
<rscale>  0 0.13505490E+04</rscale>
<asrwt>0</asrwt>
<pdfrwt beam="1">  1        2 0.44993860E+00 0.13913764E+04</pdfrwt>
<pdfrwt beam="2">  1       -2 0.39966981E+00 0.13913764E+04</pdfrwt>
<totfact> 0.13889690E-02</totfact>
</mgrwt>
</event>
<event>
 4    1  0.2799069E-007  0.1168478E+04  0.7818608E-02  0.9188390E-01
          2   -1    0    0  501    0  0.00000000000E+00  0.00000000000E+00  0.20337460189E+04  0.20337460189E+04  0.25500000000E-02 0. -1.
         -2   -1    0    0    0  501 -0.00000000000E+00 -0.00000000000E+00 -0.66743425969E+03  0.66743425969E+03  0.25500000000E-02 0.  1.
    8880023    1    1    2    0    0  0.59463560988E+03 -0.76022344334E+03  0.20991015856E+03  0.11871830833E+04  0.65864270000E+03 0.  0.
    8880022    1    1    2    0    0 -0.59463560988E+03  0.76022344334E+03  0.11564016006E+04  0.15139971953E+04  0.15294330000E+03 0.  0.
<mgrwt>
<rscale>  0 0.11174073E+04</rscale>
<asrwt>0</asrwt>
<pdfrwt beam="1">  1        2 0.31288400E+00 0.11684782E+04</pdfrwt>
<pdfrwt beam="2">  1       -2 0.10268219E+00 0.11684782E+04</pdfrwt>
<totfact> 0.48721777E+00</totfact>
</mgrwt>
</event>
<event>
 4    1  0.2799069E-007  0.1060373E+04  0.7818608E-02  0.9306515E-01
          2   -1    0    0  501    0  0.00000000000E+00  0.00000000000E+00  0.13510211447E+04  0.13510211447E+04  0.25500000000E-02 0. -1.
         -2   -1    0    0    0  501 -0.00000000000E+00 -0.00000000000E+00 -0.11402182345E+04  0.11402182345E+04  0.25500000000E-02 0.  1.
    8880023    1    1    2    0    0  0.51664965896E+03 -0.65088672720E+03 -0.68296579974E+03  0.12612822411E+04  0.65864270000E+03 0.  0.
    8880022    1    1    2    0    0 -0.51664965896E+03  0.65088672720E+03  0.89376870990E+03  0.12299571381E+04  0.15294330000E+03 0.  0.
<mgrwt>
<rscale>  0 0.10018532E+04</rscale>
<asrwt>0</asrwt>
<pdfrwt beam="1">  1        2 0.20784941E+00 0.10603729E+04</pdfrwt>
<pdfrwt beam="2">  1       -2 0.17541819E+00 0.10603729E+04</pdfrwt>
<totfact> 0.29681621E+00</totfact>
</mgrwt>
</event>
<event>
 4    1  0.2799069E-007  0.7877088E+03  0.7818608E-02  0.9738031E-01
         -2   -1    0    0    0  501 -0.00000000000E+00  0.00000000000E+00  0.38893449203E+03  0.38893449204E+03  0.25500000000E-02 0.  1.
          2   -1    0    0  501    0  0.00000000000E+00 -0.00000000000E+00 -0.16224762496E+04  0.16224762496E+04  0.25500000000E-02 0. -1.
    8880023    1    1    2    0    0 -0.61796154709E+02  0.42761689984E+03 -0.10667240117E+03  0.79489885218E+03  0.65864270000E+03 0.  0.
    8880022    1    1    2    0    0  0.61796154709E+02 -0.42761689984E+03 -0.11268693565E+04  0.12165118895E+04  0.15294330000E+03 0. -1.
<mgrwt>
<rscale>  0 0.68796907E+03</rscale>
<asrwt>0</asrwt>
<pdfrwt beam="1">  1        2 0.24961173E+00 0.78770882E+03</pdfrwt>
<pdfrwt beam="2">  1       -2 0.59836077E-01 0.78770882E+03</pdfrwt>
<totfact> 0.28813883E+01</totfact>
</mgrwt>
</event>
<event>
 4    1  0.2799069E-007  0.6817621E+03  0.7818608E-02  0.1008344E+00
         -2   -1    0    0    0  501 -0.00000000000E+00  0.00000000000E+00  0.55741348773E+03  0.55741348774E+03  0.25500000000E-02 0.  1.
          2   -1    0    0  501    0  0.00000000000E+00 -0.00000000000E+00 -0.11395075870E+04  0.11395075870E+04  0.25500000000E-02 0. -1.
    8880023    1    1    2    0    0 -0.16182773700E+03 -0.69289801720E+02  0.32861674363E+03  0.75682789559E+03  0.65864270000E+03 0.  1.
    8880022    1    1    2    0    0  0.16182773700E+03  0.69289801720E+02 -0.91071084288E+03  0.94009317912E+03  0.15294330000E+03 0.  0.
<mgrwt>
<rscale>  0 0.52138132E+03</rscale>
<asrwt>0</asrwt>
<pdfrwt beam="1">  1        2 0.17530886E+00 0.68176205E+03</pdfrwt>
<pdfrwt beam="2">  1       -2 0.85755921E-01 0.68176205E+03</pdfrwt>
<totfact> 0.24955730E+01</totfact>
</mgrwt>
</event>
<event>
 4    1  0.2799069E-007  0.1005587E+04  0.7818608E-02  0.9374284E-01
          2   -1    0    0  501    0  0.00000000000E+00  0.00000000000E+00  0.24550830963E+04  0.24550830963E+04  0.25500000000E-02 0. -1.
         -2   -1    0    0    0  501 -0.00000000000E+00 -0.00000000000E+00 -0.50246315103E+03  0.50246315103E+03  0.25500000000E-02 0.  1.
    8880023    1    1    2    0    0  0.24419086511E+03  0.71955944088E+03  0.17824399170E+03  0.10212620107E+04  0.65864270000E+03 0.  0.
    8880022    1    1    2    0    0 -0.24419086511E+03 -0.71955944088E+03  0.17743759536E+04  0.19362842367E+04  0.15294330000E+03 0.  0.
<mgrwt>
<rscale>  0 0.94222530E+03</rscale>
<asrwt>0</asrwt>
<pdfrwt beam="1">  1        2 0.37770510E+00 0.10055870E+04</pdfrwt>
<pdfrwt beam="2">  1       -2 0.77302022E-01 0.10055870E+04</pdfrwt>
<totfact> 0.55664173E+00</totfact>
</mgrwt>
</event>
<event>
 4    1  0.2799069E-007  0.8933410E+03  0.7818608E-02  0.9536807E-01
         -2   -1    0    0    0  501 -0.00000000000E+00  0.00000000000E+00  0.44554703285E+03  0.44554703286E+03  0.25500000000E-02 0.  1.
          2   -1    0    0  501    0  0.00000000000E+00 -0.00000000000E+00 -0.26147732227E+04  0.26147732227E+04  0.25500000000E-02 0. -1.
    8880023    1    1    2    0    0 -0.52565156864E+03  0.29654409876E+03 -0.99368259204E+02  0.89885050555E+03  0.65864270000E+03 0.  1.
    8880022    1    1    2    0    0  0.52565156864E+03 -0.29654409876E+03 -0.20698579306E+04  0.21614697500E+04  0.15294330000E+03 0.  0.
<mgrwt>
<rscale>  0 0.81623738E+03</rscale>
<asrwt>0</asrwt>
<pdfrwt beam="1">  1        2 0.40227279E+00 0.89334102E+03</pdfrwt>
<pdfrwt beam="2">  1       -2 0.68545699E-01 0.89334102E+03</pdfrwt>
<totfact> 0.59715722E+00</totfact>
</mgrwt>
</event>
<event>
 4    1  0.2799069E-007  0.8935439E+03  0.7818608E-02  0.9536476E-01
          2   -1    0    0  501    0  0.00000000000E+00  0.00000000000E+00  0.18407758474E+04  0.18407758474E+04  0.25500000000E-02 0. -1.
         -2   -1    0    0    0  501 -0.00000000000E+00 -0.00000000000E+00 -0.10998270659E+04  0.10998270659E+04  0.25500000000E-02 0.  1.
    8880023    1    1    2    0    0 -0.47702832131E+03 -0.37020870218E+03 -0.84926150755E+03  0.12327472640E+04  0.65864270000E+03 0.  1.
    8880022    1    1    2    0    0  0.47702832131E+03  0.37020870218E+03  0.15902102890E+04  0.17078556493E+04  0.15294330000E+03 0.  0.
<mgrwt>
<rscale>  0 0.81647180E+03</rscale>
<asrwt>0</asrwt>
<pdfrwt beam="1">  1        2 0.28319628E+00 0.89354390E+03</pdfrwt>
<pdfrwt beam="2">  1       -2 0.16920417E+00 0.89354390E+03</pdfrwt>
<totfact> 0.17882061E+00</totfact>
</mgrwt>
</event>
<event>
 4    1  0.2799069E-007  0.6931944E+03  0.7818608E-02  0.1002670E+00
          2   -1    0    0  501    0  0.00000000000E+00  0.00000000000E+00  0.14795852429E+04  0.14795852429E+04  0.25500000000E-02 0. -1.
         -2   -1    0    0    0  501 -0.00000000000E+00 -0.00000000000E+00 -0.23772042248E+03  0.23772042249E+03  0.25500000000E-02 0.  1.
    8880023    1    1    2    0    0  0.89019721372E+02  0.19693593174E+03  0.32991535864E+03  0.76769956502E+03  0.65864270000E+03 0.  0.
    8880022    1    1    2    0    0 -0.89019721372E+02 -0.19693593174E+03  0.91194946174E+03  0.94960610033E+03  0.15294330000E+03 0. -1.
<mgrwt>
<rscale>  0 0.54494915E+03</rscale>
<asrwt>0</asrwt>
<pdfrwt beam="1">  1        2 0.22762850E+00 0.69319440E+03</pdfrwt>
<pdfrwt beam="2">  1       -2 0.36572372E-01 0.69319440E+03</pdfrwt>
<totfact> 0.93964755E+01</totfact>
</mgrwt>
</event>
<event>
 4    1  0.2799069E-007  0.7724585E+03  0.7818608E-02  0.9773860E-01
         -2   -1    0    0    0  501 -0.00000000000E+00  0.00000000000E+00  0.74782052487E+03  0.74782052488E+03  0.25500000000E-02 0.  1.
          2   -1    0    0  501    0  0.00000000000E+00 -0.00000000000E+00 -0.13702757937E+04  0.13702757937E+04  0.25500000000E-02 0. -1.
    8880023    1    1    2    0    0 -0.39685655527E+03 -0.73394380744E+02  0.49685888394E+03  0.91845566981E+03  0.65864270000E+03 0.  1.
    8880022    1    1    2    0    0  0.39685655527E+03  0.73394380744E+02 -0.11193141528E+04  0.11996406488E+04  0.15294330000E+03 0.  0.
<mgrwt>
<rscale>  0 0.66784432E+03</rscale>
<asrwt>0</asrwt>
<pdfrwt beam="1">  1        2 0.21081166E+00 0.77245846E+03</pdfrwt>
<pdfrwt beam="2">  1       -2 0.11504931E+00 0.77245846E+03</pdfrwt>
<totfact> 0.90384776E+00</totfact>
</mgrwt>
</event>
<event>
 4    1  0.2799069E-007  0.1771191E+04  0.7818608E-02  0.8738642E-01
         -2   -1    0    0    0  501 -0.00000000000E+00  0.00000000000E+00  0.29007765095E+04  0.29007765095E+04  0.25500000000E-02 0.  1.
          2   -1    0    0  501    0  0.00000000000E+00 -0.00000000000E+00 -0.10575343078E+04  0.10575343078E+04  0.25500000000E-02 0. -1.
    8880023    1    1    2    0    0  0.13096175623E+04  0.99408698859E+03  0.13740329754E+04  0.22416698963E+04  0.65864270000E+03 0.  0.
    8880022    1    1    2    0    0 -0.13096175623E+04 -0.99408698859E+03  0.46920922633E+03  0.17166409209E+04  0.15294330000E+03 0.  0.
<mgrwt>
<rscale>  0 0.17404185E+04</rscale>
<asrwt>0</asrwt>
<pdfrwt beam="1">  1        2 0.16269759E+00 0.17711909E+04</pdfrwt>
<pdfrwt beam="2">  1       -2 0.44627331E+00 0.17711909E+04</pdfrwt>
<totfact> 0.78256164E-02</totfact>
</mgrwt>
</event>
<event>
 4    1  0.2799069E-007  0.8948887E+03  0.7818608E-02  0.9534287E-01
         -2   -1    0    0    0  501 -0.00000000000E+00  0.00000000000E+00  0.76337072991E+03  0.76337072991E+03  0.25500000000E-02 0.  1.
          2   -1    0    0  501    0  0.00000000000E+00 -0.00000000000E+00 -0.17678376891E+04  0.17678376891E+04  0.25500000000E-02 0. -1.
    8880023    1    1    2    0    0 -0.54765745759E+03 -0.25901145081E+03  0.41040717640E+03  0.98450996907E+03  0.65864270000E+03 0.  0.
    8880022    1    1    2    0    0  0.54765745759E+03  0.25901145081E+03 -0.14148741356E+04  0.15466984500E+04  0.15294330000E+03 0.  0.
<mgrwt>
<rscale>  0 0.81802488E+03</rscale>
<asrwt>0</asrwt>
<pdfrwt beam="1">  1        2 0.27197503E+00 0.89488872E+03</pdfrwt>
<pdfrwt beam="2">  1       -2 0.11744165E+00 0.89488872E+03</pdfrwt>
<totfact> 0.50834501E+00</totfact>
</mgrwt>
</event>
<event>
 4    1  0.2799069E-007  0.2057062E+04  0.7818608E-02  0.8592265E-01
          2   -1    0    0  501    0  0.00000000000E+00  0.00000000000E+00  0.38350435307E+04  0.38350435307E+04  0.25500000000E-02 0. -1.
         -2   -1    0    0    0  501 -0.00000000000E+00 -0.00000000000E+00 -0.11938023038E+04  0.11938023038E+04  0.25500000000E-02 0.  1.
    8880023    1    1    2    0    0  0.19387437309E+04 -0.19740226052E+03  0.47532514851E+03  0.21112648128E+04  0.65864270000E+03 0.  0.
    8880022    1    1    2    0    0 -0.19387437309E+04  0.19740226052E+03  0.21659160784E+04  0.29175810217E+04  0.15294330000E+03 0.  0.
<mgrwt>
<rscale>  0 0.20309954E+04</rscale>
<asrwt>0</asrwt>
<pdfrwt beam="1">  1        2 0.59000670E+00 0.20570623E+04</pdfrwt>
<pdfrwt beam="2">  1       -2 0.18366189E+00 0.20570623E+04</pdfrwt>
<totfact> 0.70524612E-02</totfact>
</mgrwt>
</event>
<event>
 4    1  0.2799069E-007  0.9665675E+03  0.7818608E-02  0.9426667E-01
          2   -1    0    0  501    0  0.00000000000E+00  0.00000000000E+00  0.10944444850E+04  0.10944444850E+04  0.25500000000E-02 0. -1.
         -2   -1    0    0    0  501 -0.00000000000E+00 -0.00000000000E+00 -0.15511242145E+04  0.15511242145E+04  0.25500000000E-02 0.  1.
    8880023    1    1    2    0    0 -0.22377530063E+03  0.67109397441E+03 -0.12444959045E+04  0.15757610130E+04  0.65864270000E+03 0.  0.
    8880022    1    1    2    0    0  0.22377530063E+03 -0.67109397441E+03  0.78781617498E+03  0.10698076866E+04  0.15294330000E+03 0.  0.
<mgrwt>
<rscale>  0 0.89913182E+03</rscale>
<asrwt>0</asrwt>
<pdfrwt beam="1">  1        2 0.16837607E+00 0.96656749E+03</pdfrwt>
<pdfrwt beam="2">  1       -2 0.23863450E+00 0.96656749E+03</pdfrwt>
<totfact> 0.16583124E+00</totfact>
</mgrwt>
</event>
<event>
 4    1  0.2799069E-007  0.8567203E+03  0.7818608E-02  0.9599424E-01
          2   -1    0    0  501    0  0.00000000000E+00  0.00000000000E+00  0.23122613224E+04  0.23122613224E+04  0.25500000000E-02 0. -1.
         -2   -1    0    0    0  501 -0.00000000000E+00 -0.00000000000E+00 -0.25535891679E+03  0.25535891680E+03  0.25500000000E-02 0.  1.
    8880023    1    1    2    0    0 -0.51908011208E+02 -0.54540349118E+03  0.73601456389E+03  0.11294631709E+04  0.65864270000E+03 0.  1.
    8880022    1    1    2    0    0  0.51908011208E+02  0.54540349118E+03  0.13208878417E+04  0.14381570684E+04  0.15294330000E+03 0. -1.
<mgrwt>
<rscale>  0 0.77334296E+03</rscale>
<asrwt>0</asrwt>
<pdfrwt beam="1">  1        2 0.35573250E+00 0.85672027E+03</pdfrwt>
<pdfrwt beam="2">  1       -2 0.39285989E-01 0.85672027E+03</pdfrwt>
<totfact> 0.28016350E+01</totfact>
</mgrwt>
</event>
<event>
 4    1  0.2799069E-007  0.1478332E+04  0.7818608E-02  0.8925090E-01
          2   -1    0    0  501    0  0.00000000000E+00  0.00000000000E+00  0.15545644701E+04  0.15545644701E+04  0.25500000000E-02 0. -1.
         -2   -1    0    0    0  501 -0.00000000000E+00 -0.00000000000E+00 -0.13848582654E+04  0.13848582654E+04  0.25500000000E-02 0.  1.
    8880023    1    1    2    0    0 -0.12682556177E+04 -0.37839652109E+03  0.51089007539E+03  0.15641211956E+04  0.65864270000E+03 0. -1.
    8880022    1    1    2    0    0  0.12682556177E+04  0.37839652109E+03 -0.34118387063E+03  0.13753015399E+04  0.15294330000E+03 0.  0.
<mgrwt>
<rscale>  0 0.14403907E+04</rscale>
<asrwt>0</asrwt>
<pdfrwt beam="1">  1        2 0.23916376E+00 0.14783323E+04</pdfrwt>
<pdfrwt beam="2">  1       -2 0.21305512E+00 0.14783323E+04</pdfrwt>
<totfact> 0.12204103E+00</totfact>
</mgrwt>
</event>
<event>
 4    1  0.2799069E-007  0.1033901E+04  0.7818608E-02  0.9338490E-01
          2   -1    0    0  501    0  0.00000000000E+00  0.00000000000E+00  0.84055723238E+03  0.84055723239E+03  0.25500000000E-02 0. -1.
         -2   -1    0    0    0  501 -0.00000000000E+00 -0.00000000000E+00 -0.26081531678E+04  0.26081531678E+04  0.25500000000E-02 0.  1.
    8880023    1    1    2    0    0 -0.34718855273E+03  0.71735701610E+03 -0.22699397462E+04  0.24943090501E+04  0.65864270000E+03 0.  0.
    8880022    1    1    2    0    0  0.34718855273E+03 -0.71735701610E+03  0.50234381083E+03  0.95440135006E+03  0.15294330000E+03 0.  0.
<mgrwt>
<rscale>  0 0.97315354E+03</rscale>
<asrwt>0</asrwt>
<pdfrwt beam="1">  1        2 0.12931650E+00 0.10339010E+04</pdfrwt>
<pdfrwt beam="2">  1       -2 0.40125433E+00 0.10339010E+04</pdfrwt>
<totfact> 0.23751725E-01</totfact>
</mgrwt>
</event>
<event>
 4    1  0.2799069E-007  0.7588794E+03  0.7818608E-02  0.9808017E-01
          2   -1    0    0  501    0  0.00000000000E+00  0.00000000000E+00  0.71016542408E+03  0.71016542408E+03  0.25500000000E-02 0. -1.
         -2   -1    0    0    0  501 -0.00000000000E+00 -0.00000000000E+00 -0.15297963182E+04  0.15297963182E+04  0.25500000000E-02 0.  1.
    8880023    1    1    2    0    0 -0.42757464555E+02 -0.37451233055E+03 -0.13636986428E+04  0.15606318852E+04  0.65864270000E+03 0.  1.
    8880022    1    1    2    0    0  0.42757464555E+02  0.37451233055E+03  0.54406774869E+03  0.67932985706E+03  0.15294330000E+03 0.  0.
<mgrwt>
<rscale>  0 0.64934056E+03</rscale>
<asrwt>0</asrwt>
<pdfrwt beam="1">  1        2 0.10925622E+00 0.75887937E+03</pdfrwt>
<pdfrwt beam="2">  1       -2 0.23535328E+00 0.75887937E+03</pdfrwt>
<totfact> 0.32686092E+00</totfact>
</mgrwt>
</event>
<event>
 4    1  0.2799069E-007  0.9921473E+03  0.7818608E-02  0.9391904E-01
         -2   -1    0    0    0  501 -0.00000000000E+00  0.00000000000E+00  0.94572580071E+03  0.94572580071E+03  0.25500000000E-02 0.  1.
          2   -1    0    0  501    0  0.00000000000E+00 -0.00000000000E+00 -0.17783777847E+04  0.17783777847E+04  0.25500000000E-02 0. -1.
    8880023    1    1    2    0    0  0.28309580192E+03  0.68585913530E+03 -0.14430469236E+04  0.17512111855E+04  0.65864270000E+03 0.  0.
    8880022    1    1    2    0    0 -0.28309580192E+03 -0.68585913530E+03  0.61039493953E+03  0.97289239989E+03  0.15294330000E+03 0.  0.
<mgrwt>
<rscale>  0 0.92744933E+03</rscale>
<asrwt>0</asrwt>
<pdfrwt beam="1">  1        2 0.27359658E+00 0.99214726E+03</pdfrwt>
<pdfrwt beam="2">  1       -2 0.14549628E+00 0.99214726E+03</pdfrwt>
<totfact> 0.28698299E+00</totfact>
</mgrwt>
</event>
<event>
 4    1  0.2799069E-007  0.7729485E+03  0.7818608E-02  0.9772670E-01
          2   -1    0    0  501    0  0.00000000000E+00  0.00000000000E+00  0.15234223961E+04  0.15234223961E+04  0.25500000000E-02 0. -1.
         -2   -1    0    0    0  501 -0.00000000000E+00 -0.00000000000E+00 -0.38911289362E+03  0.38911289362E+03  0.25500000000E-02 0.  1.
    8880023    1    1    2    0    0  0.38496885309E+03  0.12425041172E+03  0.85011666213E+02  0.77760939572E+03  0.65864270000E+03 0.  1.
    8880022    1    1    2    0    0 -0.38496885309E+03 -0.12425041172E+03  0.10492978363E+04  0.11349258940E+04  0.15294330000E+03 0.  0.
<mgrwt>
<rscale>  0 0.66850102E+03</rscale>
<asrwt>0</asrwt>
<pdfrwt beam="1">  1        2 0.23437268E+00 0.77294850E+03</pdfrwt>
<pdfrwt beam="2">  1       -2 0.59863522E-01 0.77294850E+03</pdfrwt>
<totfact> 0.32711846E+01</totfact>
</mgrwt>
</event>
<event>
 4    1  0.2799069E-007  0.6917178E+03  0.7818608E-02  0.1003347E+00
          2   -1    0    0  501    0  0.00000000000E+00  0.00000000000E+00  0.20879448611E+04  0.20879448611E+04  0.25500000000E-02 0. -1.
         -2   -1    0    0    0  501 -0.00000000000E+00 -0.00000000000E+00 -0.81743712468E+03  0.81743712469E+03  0.25500000000E-02 0.  1.
    8880023    1    1    2    0    0 -0.20351166858E+03 -0.56976423660E+02 -0.66074687274E+03  0.95658765840E+03  0.65864270000E+03 0.  1.
    8880022    1    1    2    0    0  0.20351166858E+03  0.56976423660E+02  0.19312546092E+04  0.19487943274E+04  0.15294330000E+03 0.  0.
<mgrwt>
<rscale>  0 0.54206853E+03</rscale>
<asrwt>0</asrwt>
<pdfrwt beam="1">  1        2 0.32122228E+00 0.69171780E+03</pdfrwt>
<pdfrwt beam="2">  1       -2 0.12575956E+00 0.69171780E+03</pdfrwt>
<totfact> 0.29600548E+00</totfact>
</mgrwt>
</event>
<event>
 4    1  0.2799069E-007  0.9138557E+03  0.7818608E-02  0.9504145E-01
         -2   -1    0    0    0  501 -0.00000000000E+00  0.00000000000E+00  0.23538634324E+04  0.23538634324E+04  0.25500000000E-02 0.  1.
          2   -1    0    0  501    0  0.00000000000E+00 -0.00000000000E+00 -0.81936791282E+03  0.81936791283E+03  0.25500000000E-02 0. -1.
    8880023    1    1    2    0    0 -0.44748728229E+03 -0.44841625231E+03  0.21127819751E+04  0.23019513209E+04  0.65864270000E+03 0.  0.
    8880022    1    1    2    0    0  0.44748728229E+03  0.44841625231E+03 -0.57828645553E+03  0.87128002434E+03  0.15294330000E+03 0.  0.
<mgrwt>
<rscale>  0 0.83978911E+03</rscale>
<asrwt>0</asrwt>
<pdfrwt beam="1">  1        2 0.12605660E+00 0.91385568E+03</pdfrwt>
<pdfrwt beam="2">  1       -2 0.36213283E+00 0.91385568E+03</pdfrwt>
<totfact> 0.44684955E-01</totfact>
</mgrwt>
</event>
<event>
 4    1  0.2799069E-007  0.7561300E+03  0.7818608E-02  0.9815232E-01
          2   -1    0    0  501    0  0.00000000000E+00  0.00000000000E+00  0.14922040924E+04  0.14922040924E+04  0.25500000000E-02 0. -1.
         -2   -1    0    0    0  501 -0.00000000000E+00 -0.00000000000E+00 -0.53259314811E+03  0.53259314812E+03  0.25500000000E-02 0.  1.
    8880023    1    1    2    0    0 -0.15097497063E+03 -0.33930648689E+03 -0.21279554742E+03  0.78550269578E+03  0.65864270000E+03 0.  1.
    8880022    1    1    2    0    0  0.15097497063E+03  0.33930648689E+03  0.11724064917E+04  0.12392945447E+04  0.15294330000E+03 0.  0.
<mgrwt>
<rscale>  0 0.64551501E+03</rscale>
<asrwt>0</asrwt>
<pdfrwt beam="1">  1        2 0.22956986E+00 0.75612998E+03</pdfrwt>
<pdfrwt beam="2">  1       -2 0.81937408E-01 0.75612998E+03</pdfrwt>
<totfact> 0.17183765E+01</totfact>
</mgrwt>
</event>
<event>
 4    1  0.2799069E-007  0.1272600E+04  0.7818608E-02  0.9089590E-01
         -2   -1    0    0    0  501 -0.00000000000E+00  0.00000000000E+00  0.10205885051E+04  0.10205885051E+04  0.25500000000E-02 0.  1.
          2   -1    0    0  501    0  0.00000000000E+00 -0.00000000000E+00 -0.18333368516E+04  0.18333368516E+04  0.25500000000E-02 0. -1.
    8880023    1    1    2    0    0 -0.59002514296E+03  0.91518866663E+03  0.28072138192E+03  0.13031940245E+04  0.65864270000E+03 0.  0.
    8880022    1    1    2    0    0  0.59002514296E+03 -0.91518866663E+03 -0.10934697284E+04  0.15507313323E+04  0.15294330000E+03 0.  0.
<mgrwt>
<rscale>  0 0.12269484E+04</rscale>
<asrwt>0</asrwt>
<pdfrwt beam="1">  1        2 0.28205182E+00 0.12725998E+04</pdfrwt>
<pdfrwt beam="2">  1       -2 0.15701362E+00 0.12725998E+04</pdfrwt>
<totfact> 0.21145561E+00</totfact>
</mgrwt>
</event>
<event>
 4    1  0.2799069E-007  0.1023499E+04  0.7818608E-02  0.9351440E-01
         -2   -1    0    0    0  501 -0.00000000000E+00  0.00000000000E+00  0.60571285662E+03  0.60571285663E+03  0.25500000000E-02 0.  1.
          2   -1    0    0  501    0  0.00000000000E+00 -0.00000000000E+00 -0.34862673434E+04  0.34862673434E+04  0.25500000000E-02 0. -1.
    8880023    1    1    2    0    0  0.54232654678E+03 -0.56535032568E+03  0.79127121514E+02  0.10265526687E+04  0.65864270000E+03 0.  0.
    8880022    1    1    2    0    0 -0.54232654678E+03  0.56535032568E+03 -0.29596816083E+04  0.30654275313E+04  0.15294330000E+03 0.  0.
<mgrwt>
<rscale>  0 0.96182042E+03</rscale>
<asrwt>0</asrwt>
<pdfrwt beam="1">  1        2 0.53634881E+00 0.10234985E+04</pdfrwt>
<pdfrwt beam="2">  1       -2 0.93186595E-01 0.10234985E+04</pdfrwt>
<totfact> 0.83409748E-01</totfact>
</mgrwt>
</event>
<event>
 4    1  0.3353121E-007  0.9303543E+03  0.7818608E-02  0.9478962E-01
          2   -1    0    0  501    0  0.00000000000E+00  0.00000000000E+00  0.17793942966E+04  0.17793942966E+04  0.25500000000E-02 0. -1.
         -2   -1    0    0    0  501 -0.00000000000E+00 -0.00000000000E+00 -0.33376427103E+04  0.33376427103E+04  0.25500000000E-02 0.  1.
    8880023    1    1    2    0    0 -0.38916928909E+03 -0.52943008775E+03 -0.32050783026E+04  0.33373771266E+04  0.65864270000E+03 0.  1.
    8880022    1    1    2    0    0  0.38916928909E+03  0.52943008775E+03  0.16468298889E+04  0.17796598802E+04  0.15294330000E+03 0.  0.
<mgrwt>
<rscale>  0 0.85852804E+03</rscale>
<asrwt>0</asrwt>
<pdfrwt beam="1">  1        2 0.27375297E+00 0.93035432E+03</pdfrwt>
<pdfrwt beam="2">  1       -2 0.51348350E+00 0.93035432E+03</pdfrwt>
<totfact> 0.12395907E-02</totfact>
</mgrwt>
</event>
<event>
 4    1  0.2799069E-007  0.8375853E+03  0.7818608E-02  0.9634750E-01
         -2   -1    0    0    0  501 -0.00000000000E+00  0.00000000000E+00  0.12674423513E+04  0.12674423513E+04  0.25500000000E-02 0.  1.
          2   -1    0    0  501    0  0.00000000000E+00 -0.00000000000E+00 -0.99822801400E+03  0.99822801400E+03  0.25500000000E-02 0. -1.
    8880023    1    1    2    0    0  0.22835473815E+03  0.46432000355E+03  0.10333904392E+04  0.13302048557E+04  0.65864270000E+03 0.  1.
    8880022    1    1    2    0    0 -0.22835473815E+03 -0.46432000355E+03 -0.76417610181E+03  0.93546550964E+03  0.15294330000E+03 0.  0.
<mgrwt>
<rscale>  0 0.75038263E+03</rscale>
<asrwt>0</asrwt>
<pdfrwt beam="1">  1        2 0.15357354E+00 0.83758531E+03</pdfrwt>
<pdfrwt beam="2">  1       -2 0.19499113E+00 0.83758531E+03</pdfrwt>
<totfact> 0.36654033E+00</totfact>
</mgrwt>
</event>
<event>
 4    1  0.2799069E-007  0.2034713E+04  0.7818608E-02  0.8602735E-01
          2   -1    0    0  501    0  0.00000000000E+00  0.00000000000E+00  0.36592177757E+04  0.36592177757E+04  0.25500000000E-02 0. -1.
         -2   -1    0    0    0  501 -0.00000000000E+00 -0.00000000000E+00 -0.14417510454E+04  0.14417510454E+04  0.25500000000E-02 0.  1.
    8880023    1    1    2    0    0 -0.83381939569E+03 -0.17352213329E+04 -0.15645150806E+03  0.20407192701E+04  0.65864270000E+03 0.  0.
    8880022    1    1    2    0    0  0.83381939569E+03  0.17352213329E+04  0.23739182384E+04  0.30602495510E+04  0.15294330000E+03 0.  0.
<mgrwt>
<rscale>  0 0.20083332E+04</rscale>
<asrwt>0</asrwt>
<pdfrwt beam="1">  1        2 0.56295658E+00 0.20347133E+04</pdfrwt>
<pdfrwt beam="2">  1       -2 0.22180785E+00 0.20347133E+04</pdfrwt>
<totfact> 0.53489018E-02</totfact>
</mgrwt>
</event>
<event>
 4    1  0.2799069E-007  0.8524633E+03  0.7818608E-02  0.9607113E-01
          2   -1    0    0  501    0  0.00000000000E+00  0.00000000000E+00  0.18588714962E+04  0.18588714962E+04  0.25500000000E-02 0. -1.
         -2   -1    0    0    0  501 -0.00000000000E+00 -0.00000000000E+00 -0.51446265445E+03  0.51446265445E+03  0.25500000000E-02 0.  1.
    8880023    1    1    2    0    0 -0.33058882429E+03  0.42847932321E+03 -0.65923555862E+02  0.85500855121E+03  0.65864270000E+03 0.  1.
    8880022    1    1    2    0    0  0.33058882429E+03 -0.42847932321E+03  0.14103323976E+04  0.15183255994E+04  0.15294330000E+03 0.  0.
<mgrwt>
<rscale>  0 0.76827183E+03</rscale>
<asrwt>0</asrwt>
<pdfrwt beam="1">  1        2 0.28598023E+00 0.85246332E+03</pdfrwt>
<pdfrwt beam="2">  1       -2 0.79148101E-01 0.85246332E+03</pdfrwt>
<totfact> 0.11533432E+01</totfact>
</mgrwt>
</event>
<event>
 4    1  0.2799069E-007  0.1081803E+04  0.7818608E-02  0.9281592E-01
          2   -1    0    0  501    0  0.00000000000E+00  0.00000000000E+00  0.26307913395E+04  0.26307913395E+04  0.25500000000E-02 0. -1.
         -2   -1    0    0    0  501 -0.00000000000E+00 -0.00000000000E+00 -0.52598224890E+03  0.52598224890E+03  0.25500000000E-02 0.  1.
    8880023    1    1    2    0    0 -0.11544122008E+03  0.85038867200E+03  0.20064855098E+04  0.22795354518E+04  0.65864270000E+03 0.  0.
    8880022    1    1    2    0    0  0.11544122008E+03 -0.85038867200E+03  0.98323580813E+02  0.87723813660E+03  0.15294330000E+03 0.  0.
<mgrwt>
<rscale>  0 0.10249536E+04</rscale>
<asrwt>0</asrwt>
<pdfrwt beam="1">  1        2 0.40473713E+00 0.10818030E+04</pdfrwt>
<pdfrwt beam="2">  1       -2 0.80920346E-01 0.10818030E+04</pdfrwt>
<totfact> 0.39393053E+00</totfact>
</mgrwt>
</event>
<event>
 4    1  0.2799069E-007  0.7036070E+03  0.7818608E-02  0.9982555E-01
          2   -1    0    0  501    0  0.00000000000E+00  0.00000000000E+00  0.42068371520E+04  0.42068371520E+04  0.25500000000E-02 0. -1.
         -2   -1    0    0    0  501 -0.00000000000E+00 -0.00000000000E+00 -0.25070655992E+03  0.25070655994E+03  0.25500000000E-02 0.  1.
    8880023    1    1    2    0    0  0.11943737297E+03 -0.21676542682E+03  0.26019696637E+03  0.75017678177E+03  0.65864270000E+03 0.  1.
    8880022    1    1    2    0    0 -0.11943737297E+03  0.21676542682E+03  0.36959336257E+04  0.37073669302E+04  0.15294330000E+03 0.  0.
<mgrwt>
<rscale>  0 0.56421839E+03</rscale>
<asrwt>0</asrwt>
<pdfrwt beam="1">  1        2 0.64720568E+00 0.70360695E+03</pdfrwt>
<pdfrwt beam="2">  1       -2 0.38570242E-01 0.70360695E+03</pdfrwt>
<totfact> 0.16515119E+00</totfact>
</mgrwt>
</event>
<event>
 4    1  0.2799069E-007  0.6789147E+03  0.7818608E-02  0.1009944E+00
          2   -1    0    0  501    0  0.00000000000E+00  0.00000000000E+00  0.13483439758E+04  0.13483439758E+04  0.25500000000E-02 0. -1.
         -2   -1    0    0    0  501 -0.00000000000E+00 -0.00000000000E+00 -0.38859924778E+03  0.38859924779E+03  0.25500000000E-02 0.  1.
    8880023    1    1    2    0    0 -0.16452655959E+03  0.67819335699E+01 -0.70413036760E+02  0.68255636063E+03  0.65864270000E+03 0.  1.
    8880022    1    1    2    0    0  0.16452655959E+03 -0.67819335699E+01  0.10301577648E+04  0.10543868630E+04  0.15294330000E+03 0.  0.
<mgrwt>
<rscale>  0 0.51496768E+03</rscale>
<asrwt>0</asrwt>
<pdfrwt beam="1">  1        2 0.20743754E+00 0.67891471E+03</pdfrwt>
<pdfrwt beam="2">  1       -2 0.59784499E-01 0.67891471E+03</pdfrwt>
<totfact> 0.41575318E+01</totfact>
</mgrwt>
</event>
<event>
 4    1  0.2799069E-007  0.8849529E+03  0.7818608E-02  0.9550632E-01
          2   -1    0    0  501    0  0.00000000000E+00  0.00000000000E+00  0.16608641275E+04  0.16608641275E+04  0.25500000000E-02 0. -1.
         -2   -1    0    0    0  501 -0.00000000000E+00 -0.00000000000E+00 -0.77332937515E+03  0.77332937516E+03  0.25500000000E-02 0.  1.
    8880023    1    1    2    0    0 -0.48349693254E+03  0.33994421729E+03 -0.42865551437E+03  0.98330418025E+03  0.65864270000E+03 0.  1.
    8880022    1    1    2    0    0  0.48349693254E+03 -0.33994421729E+03  0.13161902667E+04  0.14508893224E+04  0.15294330000E+03 0.  0.
<mgrwt>
<rscale>  0 0.80651672E+03</rscale>
<asrwt>0</asrwt>
<pdfrwt beam="1">  1        2 0.25551755E+00 0.88495286E+03</pdfrwt>
<pdfrwt beam="2">  1       -2 0.11897375E+00 0.88495286E+03</pdfrwt>
<totfact> 0.56450381E+00</totfact>
</mgrwt>
</event>
<event>
 4    1  0.2799069E-007  0.6881925E+03  0.7818608E-02  0.1005024E+00
         -2   -1    0    0    0  501 -0.00000000000E+00  0.00000000000E+00  0.97862303305E+03  0.97862303305E+03  0.25500000000E-02 0.  1.
          2   -1    0    0  501    0  0.00000000000E+00 -0.00000000000E+00 -0.21728359667E+04  0.21728359667E+04  0.25500000000E-02 0. -1.
    8880023    1    1    2    0    0  0.83960277651E+02  0.18096809494E+03  0.84897173563E+03  0.10928686992E+04  0.65864270000E+03 0.  1.
    8880022    1    1    2    0    0 -0.83960277651E+02 -0.18096809494E+03 -0.20431846693E+04  0.20585903005E+04  0.15294330000E+03 0.  0.
<mgrwt>
<rscale>  0 0.53501245E+03</rscale>
<asrwt>0</asrwt>
<pdfrwt beam="1">  1        2 0.33428246E+00 0.68819255E+03</pdfrwt>
<pdfrwt beam="2">  1       -2 0.15055739E+00 0.68819255E+03</pdfrwt>
<totfact> 0.16755048E+00</totfact>
</mgrwt>
</event>
<event>
 4    1  0.2799069E-007  0.7292719E+03  0.7818608E-02  0.9892377E-01
         -2   -1    0    0    0  501 -0.00000000000E+00  0.00000000000E+00  0.15441569107E+04  0.15441569107E+04  0.25500000000E-02 0.  1.
          2   -1    0    0  501    0  0.00000000000E+00 -0.00000000000E+00 -0.28907581164E+03  0.28907581165E+03  0.25500000000E-02 0. -1.
    8880023    1    1    2    0    0  0.23544556215E+03 -0.20637991123E+03  0.12911992138E+04  0.14829136511E+04  0.65864270000E+03 0.  1.
    8880022    1    1    2    0    0 -0.23544556215E+03  0.20637991123E+03 -0.36118114731E+02  0.35031907131E+03  0.15294330000E+03 0.  0.
<mgrwt>
<rscale>  0 0.60632141E+03</rscale>
<asrwt>0</asrwt>
<pdfrwt beam="1">  1        2 0.44473203E-01 0.72927189E+03</pdfrwt>
<pdfrwt beam="2">  1       -2 0.23756260E+00 0.72927189E+03</pdfrwt>
<totfact> 0.90106644E+00</totfact>
</mgrwt>
</event>
<event>
 4    1  0.2799069E-007  0.7442081E+03  0.7818608E-02  0.9847854E-01
          2   -1    0    0  501    0  0.00000000000E+00  0.00000000000E+00  0.19140482164E+04  0.19140482164E+04  0.25500000000E-02 0. -1.
         -2   -1    0    0    0  501 -0.00000000000E+00 -0.00000000000E+00 -0.37505858076E+03  0.37505858077E+03  0.25500000000E-02 0.  1.
    8880023    1    1    2    0    0 -0.17189888057E+03  0.30080938742E+03  0.42479241514E+02  0.74541948252E+03  0.65864270000E+03 0.  0.
    8880022    1    1    2    0    0  0.17189888057E+03 -0.30080938742E+03  0.14965103941E+04  0.15436873147E+04  0.15294330000E+03 0.  0.
<mgrwt>
<rscale>  0 0.62856432E+03</rscale>
<asrwt>0</asrwt>
<pdfrwt beam="1">  1        2 0.29446895E+00 0.74420812E+03</pdfrwt>
<pdfrwt beam="2">  1       -2 0.57701321E-01 0.74420812E+03</pdfrwt>
<totfact> 0.21661914E+01</totfact>
</mgrwt>
</event>
<event>
 4    1  0.2799069E-007  0.1325591E+04  0.7818608E-02  0.9043770E-01
         -2   -1    0    0    0  501 -0.00000000000E+00  0.00000000000E+00  0.31982932863E+04  0.31982932863E+04  0.25500000000E-02 0.  1.
          2   -1    0    0  501    0  0.00000000000E+00 -0.00000000000E+00 -0.79460609878E+03  0.79460609878E+03  0.25500000000E-02 0. -1.
    8880023    1    1    2    0    0  0.77671221508E+03 -0.84858636432E+03  0.24986602871E+04  0.28285144722E+04  0.65864270000E+03 0.  1.
    8880022    1    1    2    0    0 -0.77671221508E+03  0.84858636432E+03 -0.94973099557E+02  0.11643849129E+04  0.15294330000E+03 0.  0.
<mgrwt>
<rscale>  0 0.12822387E+04</rscale>
<asrwt>0</asrwt>
<pdfrwt beam="1">  1        2 0.12224709E+00 0.13255908E+04</pdfrwt>
<pdfrwt beam="2">  1       -2 0.49204513E+00 0.13255908E+04</pdfrwt>
<totfact> 0.62111345E-02</totfact>
</mgrwt>
</event>
<event>
 4    1  0.2799069E-007  0.7616607E+03  0.7818608E-02  0.9800827E-01
          2   -1    0    0  501    0  0.00000000000E+00  0.00000000000E+00  0.22203729118E+04  0.22203729118E+04  0.25500000000E-02 0. -1.
         -2   -1    0    0    0  501 -0.00000000000E+00 -0.00000000000E+00 -0.26384184569E+03  0.26384184570E+03  0.25500000000E-02 0.  1.
    8880023    1    1    2    0    0  0.37805396917E+03 -0.58240876799E+02  0.37321630482E+03  0.84818477927E+03  0.65864270000E+03 0.  1.
    8880022    1    1    2    0    0 -0.37805396917E+03  0.58240876799E+02  0.15833147613E+04  0.16360299782E+04  0.15294330000E+03 0.  0.
<mgrwt>
<rscale>  0 0.65318183E+03</rscale>
<asrwt>0</asrwt>
<pdfrwt beam="1">  1        2 0.34159582E+00 0.76166069E+03</pdfrwt>
<pdfrwt beam="2">  1       -2 0.40591054E-01 0.76166069E+03</pdfrwt>
<totfact> 0.29925140E+01</totfact>
</mgrwt>
</event>
<event>
 4    1  0.2799069E-007  0.1201524E+04  0.7818608E-02  0.9155642E-01
          2   -1    0    0  501    0  0.00000000000E+00  0.00000000000E+00  0.26368469482E+04  0.26368469482E+04  0.25500000000E-02 0. -1.
         -2   -1    0    0    0  501 -0.00000000000E+00 -0.00000000000E+00 -0.10414652941E+04  0.10414652941E+04  0.25500000000E-02 0.  1.
    8880023    1    1    2    0    0  0.89805110181E+03  0.45094765224E+03 -0.53698647785E+03  0.13160601241E+04  0.65864270000E+03 0.  0.
    8880022    1    1    2    0    0 -0.89805110181E+03 -0.45094765224E+03  0.21323681320E+04  0.23622521182E+04  0.15294330000E+03 0.  0.
<mgrwt>
<rscale>  0 0.11523238E+04</rscale>
<asrwt>0</asrwt>
<pdfrwt beam="1">  1        2 0.40566876E+00 0.12015239E+04</pdfrwt>
<pdfrwt beam="2">  1       -2 0.16022543E+00 0.12015239E+04</pdfrwt>
<totfact> 0.71080577E-01</totfact>
</mgrwt>
</event>
<event>
 4    1  0.2799069E-007  0.1099604E+04  0.7818608E-02  0.9261497E-01
          2   -1    0    0  501    0  0.00000000000E+00  0.00000000000E+00  0.90964376072E+03  0.90964376073E+03  0.25500000000E-02 0. -1.
         -2   -1    0    0    0  501 -0.00000000000E+00 -0.00000000000E+00 -0.19303147619E+04  0.19303147619E+04  0.25500000000E-02 0.  1.
    8880023    1    1    2    0    0  0.53315327074E+03  0.70076117480E+03 -0.14731093457E+04  0.18382546028E+04  0.65864270000E+03 0.  0.
    8880022    1    1    2    0    0 -0.53315327074E+03 -0.70076117480E+03  0.45243834455E+03  0.10017039198E+04  0.15294330000E+03 0.  0.
<mgrwt>
<rscale>  0 0.10440610E+04</rscale>
<asrwt>0</asrwt>
<pdfrwt beam="1">  1        2 0.13994519E+00 0.10996039E+04</pdfrwt>
<pdfrwt beam="2">  1       -2 0.29697150E+00 0.10996039E+04</pdfrwt>
<totfact> 0.94911523E-01</totfact>
</mgrwt>
</event>
<event>
 4    1  0.2799069E-007  0.1063351E+04  0.7818608E-02  0.9303001E-01
         -2   -1    0    0    0  501 -0.00000000000E+00  0.00000000000E+00  0.54047820710E+03  0.54047820711E+03  0.25500000000E-02 0.  1.
          2   -1    0    0  501    0  0.00000000000E+00 -0.00000000000E+00 -0.19122676181E+04  0.19122676181E+04  0.25500000000E-02 0. -1.
    8880023    1    1    2    0    0 -0.73197095214E+03  0.40140263903E+03 -0.11687518190E+04  0.15800938498E+04  0.65864270000E+03 0.  0.
    8880022    1    1    2    0    0  0.73197095214E+03 -0.40140263903E+03 -0.20303759194E+03  0.87265197539E+03  0.15294330000E+03 0.  0.
<mgrwt>
<rscale>  0 0.10050705E+04</rscale>
<asrwt>0</asrwt>
<pdfrwt beam="1">  1        2 0.29419502E+00 0.10633512E+04</pdfrwt>
<pdfrwt beam="2">  1       -2 0.83150494E-01 0.10633512E+04</pdfrwt>
<totfact> 0.94121124E+00</totfact>
</mgrwt>
</event>
<event>
 4    1  0.2799069E-007  0.1116905E+04  0.7818608E-02  0.9242464E-01
         -2   -1    0    0    0  501 -0.00000000000E+00  0.00000000000E+00  0.95882897869E+03  0.95882897870E+03  0.25500000000E-02 0.  1.
          2   -1    0    0  501    0  0.00000000000E+00 -0.00000000000E+00 -0.13149968311E+04  0.13149968311E+04  0.25500000000E-02 0. -1.
    8880023    1    1    2    0    0 -0.73447788597E+03  0.52364997567E+03  0.28975892824E+03  0.11538793285E+04  0.65864270000E+03 0.  0.
    8880022    1    1    2    0    0  0.73447788597E+03 -0.52364997567E+03 -0.64592678068E+03  0.11199464813E+04  0.15294330000E+03 0.  0.
<mgrwt>
<rscale>  0 0.10625680E+04</rscale>
<asrwt>0</asrwt>
<pdfrwt beam="1">  1        2 0.20230721E+00 0.11169052E+04</pdfrwt>
<pdfrwt beam="2">  1       -2 0.14751215E+00 0.11169052E+04</pdfrwt>
<totfact> 0.49734020E+00</totfact>
</mgrwt>
</event>
<event>
 4    1  0.3068697E-007  0.1510281E+04  0.7818608E-02  0.8902410E-01
          2   -1    0    0  501    0  0.00000000000E+00  0.00000000000E+00  0.35120447879E+04  0.35120447879E+04  0.25500000000E-02 0. -1.
         -2   -1    0    0    0  501 -0.00000000000E+00 -0.00000000000E+00 -0.17062619006E+04  0.17062619006E+04  0.25500000000E-02 0.  1.
    8880023    1    1    2    0    0 -0.13506892183E+04 -0.15092143086E+03 -0.11915197742E+04  0.19237120942E+04  0.65864270000E+03 0.  0.
    8880022    1    1    2    0    0  0.13506892183E+04  0.15092143086E+03  0.29973026615E+04  0.32945945942E+04  0.15294330000E+03 0.  0.
<mgrwt>
<rscale>  0 0.14732923E+04</rscale>
<asrwt>0</asrwt>
<pdfrwt beam="1">  1        2 0.54031458E+00 0.15102810E+04</pdfrwt>
<pdfrwt beam="2">  1       -2 0.26250183E+00 0.15102810E+04</pdfrwt>
<totfact> 0.40565600E-02</totfact>
</mgrwt>
</event>
<event>
 4    1  0.2799069E-007  0.8554574E+03  0.7818608E-02  0.9601695E-01
         -2   -1    0    0    0  501 -0.00000000000E+00  0.00000000000E+00  0.10770431035E+04  0.10770431035E+04  0.25500000000E-02 0.  1.
          2   -1    0    0  501    0  0.00000000000E+00 -0.00000000000E+00 -0.25461088617E+04  0.25461088617E+04  0.25500000000E-02 0. -1.
    8880023    1    1    2    0    0 -0.48656820775E+03 -0.24748450249E+03  0.86776794944E+03  0.12185354406E+04  0.65864270000E+03 0.  0.
    8880022    1    1    2    0    0  0.48656820775E+03  0.24748450249E+03 -0.23368337076E+04  0.24046165245E+04  0.15294330000E+03 0. -1.
<mgrwt>
<rscale>  0 0.77184066E+03</rscale>
<asrwt>0</asrwt>
<pdfrwt beam="1">  1        2 0.39170905E+00 0.85545743E+03</pdfrwt>
<pdfrwt beam="2">  1       -2 0.16569894E+00 0.85545743E+03</pdfrwt>
<totfact> 0.77325021E-01</totfact>
</mgrwt>
</event>
<event>
 4    1  0.3418750E-007  0.1118999E+04  0.7818608E-02  0.9240192E-01
         -2   -1    0    0    0  501 -0.00000000000E+00  0.00000000000E+00  0.13325717564E+04  0.13325717564E+04  0.25500000000E-02 0.  1.
          2   -1    0    0  501    0  0.00000000000E+00 -0.00000000000E+00 -0.30906824475E+04  0.30906824475E+04  0.25500000000E-02 0. -1.
    8880023    1    1    2    0    0 -0.88976174153E+03  0.16331708824E+03  0.10097904717E+04  0.15072609034E+04  0.65864270000E+03 0.  0.
    8880022    1    1    2    0    0  0.88976174153E+03 -0.16331708824E+03 -0.27679011629E+04  0.29159933005E+04  0.15294330000E+03 0.  0.
<mgrwt>
<rscale>  0 0.10648036E+04</rscale>
<asrwt>0</asrwt>
<pdfrwt beam="1">  1        2 0.47548961E+00 0.11189989E+04</pdfrwt>
<pdfrwt beam="2">  1       -2 0.20501104E+00 0.11189989E+04</pdfrwt>
<totfact> 0.18779875E-01</totfact>
</mgrwt>
</event>
<event>
 4    1  0.2799069E-007  0.7290107E+03  0.7818608E-02  0.9893199E-01
         -2   -1    0    0    0  501 -0.00000000000E+00  0.00000000000E+00  0.84041981348E+03  0.84041981348E+03  0.25500000000E-02 0.  1.
          2   -1    0    0  501    0  0.00000000000E+00 -0.00000000000E+00 -0.78146107610E+03  0.78146107610E+03  0.25500000000E-02 0. -1.
    8880023    1    1    2    0    0 -0.31019043791E+03 -0.37791818409E+02  0.62314904346E+03  0.95904706138E+03  0.65864270000E+03 0.  1.
    8880022    1    1    2    0    0  0.31019043791E+03  0.37791818409E+02 -0.56419030609E+03  0.66283382820E+03  0.15294330000E+03 0.  0.
<mgrwt>
<rscale>  0 0.60592046E+03</rscale>
<asrwt>0</asrwt>
<pdfrwt beam="1">  1        2 0.12022478E+00 0.72901066E+03</pdfrwt>
<pdfrwt beam="2">  1       -2 0.12929535E+00 0.72901066E+03</pdfrwt>
<totfact> 0.15913220E+01</totfact>
</mgrwt>
</event>
<event>
 4    1  0.2799069E-007  0.7238315E+03  0.7818608E-02  0.9909828E-01
         -2   -1    0    0    0  501 -0.00000000000E+00  0.00000000000E+00  0.31179093272E+03  0.31179093274E+03  0.25500000000E-02 0.  1.
          2   -1    0    0  501    0  0.00000000000E+00 -0.00000000000E+00 -0.16623806701E+04  0.16623806701E+04  0.25500000000E-02 0. -1.
    8880023    1    1    2    0    0  0.13996507563E+03  0.26557795755E+03 -0.16602915484E+03  0.74262895207E+03  0.65864270000E+03 0.  1.
    8880022    1    1    2    0    0 -0.13996507563E+03 -0.26557795755E+03 -0.11845605825E+04  0.12315426508E+04  0.15294330000E+03 0.  0.
<mgrwt>
<rscale>  0 0.59787318E+03</rscale>
<asrwt>0</asrwt>
<pdfrwt beam="1">  1        2 0.25575087E+00 0.72383153E+03</pdfrwt>
<pdfrwt beam="2">  1       -2 0.47967837E-01 0.72383153E+03</pdfrwt>
<totfact> 0.43558551E+01</totfact>
</mgrwt>
</event>
<event>
 4    1  0.2799069E-007  0.6679127E+03  0.7818608E-02  0.1017205E+00
          2   -1    0    0  501    0  0.00000000000E+00  0.00000000000E+00  0.25506568592E+04  0.25506568592E+04  0.25500000000E-02 0. -1.
         -2   -1    0    0    0  501 -0.00000000000E+00 -0.00000000000E+00 -0.95631560027E+02  0.95631560061E+02  0.25500000000E-02 0.  1.
    8880023    1    1    2    0    0 -0.92888804801E+02 -0.60571181598E+02  0.11681106078E+04  0.13455815829E+04  0.65864270000E+03 0.  1.
    8880022    1    1    2    0    0  0.92888804801E+02  0.60571181598E+02  0.12869146914E+04  0.13007068363E+04  0.15294330000E+03 0.  0.
<mgrwt>
<rscale>  0 0.48708680E+03</rscale>
<asrwt>0</asrwt>
<pdfrwt beam="1">  1        2 0.39240871E+00 0.66791272E+03</pdfrwt>
<pdfrwt beam="2">  1       -2 0.14712549E-01 0.66791272E+03</pdfrwt>
<totfact> 0.12362141E+02</totfact>
</mgrwt>
</event>
<event>
 4    1  0.2799069E-007  0.6978772E+03  0.7818608E-02  0.1000612E+00
         -2   -1    0    0    0  501 -0.00000000000E+00  0.00000000000E+00  0.12041390476E+04  0.12041390476E+04  0.25500000000E-02 0.  1.
          2   -1    0    0  501    0  0.00000000000E+00 -0.00000000000E+00 -0.63427925647E+03  0.63427925648E+03  0.25500000000E-02 0. -1.
    8880023    1    1    2    0    0 -0.19912875600E+03  0.11649103579E+03  0.10637579266E+04  0.12722474428E+04  0.65864270000E+03 0.  1.
    8880022    1    1    2    0    0  0.19912875600E+03 -0.11649103579E+03 -0.49389813553E+03  0.56617086129E+03  0.15294330000E+03 0.  0.
<mgrwt>
<rscale>  0 0.55382537E+03</rscale>
<asrwt>0</asrwt>
<pdfrwt beam="1">  1        2 0.97581424E-01 0.69787723E+03</pdfrwt>
<pdfrwt beam="2">  1       -2 0.18525216E+00 0.69787723E+03</pdfrwt>
<totfact> 0.79247783E+00</totfact>
</mgrwt>
</event>
<event>
 4    1  0.2799069E-007  0.7830413E+03  0.7818608E-02  0.9748741E-01
          2   -1    0    0  501    0  0.00000000000E+00  0.00000000000E+00  0.19493949182E+04  0.19493949182E+04  0.25500000000E-02 0. -1.
         -2   -1    0    0    0  501 -0.00000000000E+00 -0.00000000000E+00 -0.75528853982E+03  0.75528853982E+03  0.25500000000E-02 0.  1.
    8880023    1    1    2    0    0 -0.41714617353E+03 -0.73024632061E+02 -0.51502838747E+03  0.93723421467E+03  0.65864270000E+03 0.  1.
    8880022    1    1    2    0    0  0.41714617353E+03  0.73024632061E+02  0.17091347659E+04  0.17674492434E+04  0.15294330000E+03 0.  0.
<mgrwt>
<rscale>  0 0.68187482E+03</rscale>
<asrwt>0</asrwt>
<pdfrwt beam="1">  1        2 0.29990691E+00 0.78304134E+03</pdfrwt>
<pdfrwt beam="2">  1       -2 0.11619824E+00 0.78304134E+03</pdfrwt>
<totfact> 0.42189724E+00</totfact>
</mgrwt>
</event>
<event>
 4    1  0.2799069E-007  0.6645624E+03  0.7818608E-02  0.1019903E+00
          2   -1    0    0  501    0  0.00000000000E+00  0.00000000000E+00  0.20075252741E+04  0.20075252741E+04  0.25500000000E-02 0. -1.
         -2   -1    0    0    0  501 -0.00000000000E+00 -0.00000000000E+00 -0.29249344572E+03  0.29249344573E+03  0.25500000000E-02 0.  1.
    8880023    1    1    2    0    0 -0.72307425986E+02 -0.51035629288E+02  0.96103477688E+02  0.67147530409E+03  0.65864270000E+03 0.  1.
    8880022    1    1    2    0    0  0.72307425986E+02  0.51035629288E+02  0.16189283507E+04  0.16285434158E+04  0.15294330000E+03 0.  0.
<mgrwt>
<rscale>  0 0.47721494E+03</rscale>
<asrwt>0</asrwt>
<pdfrwt beam="1">  1        2 0.30885004E+00 0.66456242E+03</pdfrwt>
<pdfrwt beam="2">  1       -2 0.44998992E-01 0.66456242E+03</pdfrwt>
<totfact> 0.32372983E+01</totfact>
</mgrwt>
</event>
<event>
 4    1  0.2799069E-007  0.1358214E+04  0.7818608E-02  0.9016851E-01
         -2   -1    0    0    0  501 -0.00000000000E+00  0.00000000000E+00  0.69394917050E+03  0.69394917050E+03  0.25500000000E-02 0.  1.
          2   -1    0    0  501    0  0.00000000000E+00 -0.00000000000E+00 -0.25972388655E+04  0.25972388655E+04  0.25500000000E-02 0. -1.
    8880023    1    1    2    0    0  0.60627605957E+03  0.10214521567E+04 -0.50243003163E+03  0.14481648082E+04  0.65864270000E+03 0.  0.
    8880022    1    1    2    0    0 -0.60627605957E+03 -0.10214521567E+04 -0.14008596634E+04  0.18430232278E+04  0.15294330000E+03 0.  0.
<mgrwt>
<rscale>  0 0.13161554E+04</rscale>
<asrwt>0</asrwt>
<pdfrwt beam="1">  1        2 0.39957520E+00 0.13582140E+04</pdfrwt>
<pdfrwt beam="2">  1       -2 0.10676141E+00 0.13582140E+04</pdfrwt>
<totfact> 0.20845882E+00</totfact>
</mgrwt>
</event>
<event>
 4    1  0.2799069E-007  0.7432356E+03  0.7818608E-02  0.9850620E-01
         -2   -1    0    0    0  501 -0.00000000000E+00  0.00000000000E+00  0.97898738005E+03  0.97898738005E+03  0.25500000000E-02 0.  1.
          2   -1    0    0  501    0  0.00000000000E+00 -0.00000000000E+00 -0.75187554206E+03  0.75187554206E+03  0.25500000000E-02 0. -1.
    8880023    1    1    2    0    0 -0.28705863410E+03  0.19022708492E+03  0.76989446225E+03  0.10701105983E+04  0.65864270000E+03 0.  1.
    8880022    1    1    2    0    0  0.28705863410E+03 -0.19022708492E+03 -0.54278262426E+03  0.66075232385E+03  0.15294330000E+03 0.  0.
<mgrwt>
<rscale>  0 0.62715305E+03</rscale>
<asrwt>0</asrwt>
<pdfrwt beam="1">  1        2 0.11567316E+00 0.74323564E+03</pdfrwt>
<pdfrwt beam="2">  1       -2 0.15061344E+00 0.74323564E+03</pdfrwt>
<totfact> 0.11261435E+01</totfact>
</mgrwt>
</event>
<event>
 4    1  0.2799069E-007  0.8499950E+03  0.7818608E-02  0.9611614E-01
         -2   -1    0    0    0  501 -0.00000000000E+00  0.00000000000E+00  0.26595471406E+03  0.26595471407E+03  0.25500000000E-02 0.  1.
          2   -1    0    0  501    0  0.00000000000E+00 -0.00000000000E+00 -0.19040291835E+04  0.19040291835E+04  0.25500000000E-02 0. -1.
    8880023    1    1    2    0    0 -0.29649075019E+03 -0.44807861400E+03 -0.83333685669E+03  0.11903536165E+04  0.65864270000E+03 0.  1.
    8880022    1    1    2    0    0  0.29649075019E+03  0.44807861400E+03 -0.80473761274E+03  0.97963028109E+03  0.15294330000E+03 0. -1.
<mgrwt>
<rscale>  0 0.76532211E+03</rscale>
<asrwt>0</asrwt>
<pdfrwt beam="1">  1        2 0.29292756E+00 0.84999495E+03</pdfrwt>
<pdfrwt beam="2">  1       -2 0.40916111E-01 0.84999495E+03</pdfrwt>
<totfact> 0.43477619E+01</totfact>
</mgrwt>
</event>
<event>
 4    1  0.2799069E-007  0.7705645E+03  0.7818608E-02  0.9778487E-01
         -2   -1    0    0    0  501 -0.00000000000E+00  0.00000000000E+00  0.31837156570E+03  0.31837156571E+03  0.25500000000E-02 0.  1.
          2   -1    0    0  501    0  0.00000000000E+00 -0.00000000000E+00 -0.16254109749E+04  0.16254109749E+04  0.25500000000E-02 0. -1.
    8880023    1    1    2    0    0 -0.81329184430E+02  0.39159299989E+03 -0.26111831004E+03  0.81360462874E+03  0.65864270000E+03 0.  0.
    8880022    1    1    2    0    0  0.81329184430E+02 -0.39159299989E+03 -0.10459210991E+04  0.11301779119E+04  0.15294330000E+03 0.  0.
<mgrwt>
<rscale>  0 0.66529955E+03</rscale>
<asrwt>0</asrwt>
<pdfrwt beam="1">  1        2 0.25006322E+00 0.77056455E+03</pdfrwt>
<pdfrwt beam="2">  1       -2 0.48980242E-01 0.77056455E+03</pdfrwt>
<totfact> 0.43526823E+01</totfact>
</mgrwt>
</event>
<event>
 4    1  0.2799069E-007  0.1341777E+04  0.7818608E-02  0.9030297E-01
         -2   -1    0    0    0  501 -0.00000000000E+00  0.00000000000E+00  0.16660857378E+04  0.16660857378E+04  0.25500000000E-02 0.  1.
          2   -1    0    0  501    0  0.00000000000E+00 -0.00000000000E+00 -0.13777482153E+04  0.13777482153E+04  0.25500000000E-02 0. -1.
    8880023    1    1    2    0    0  0.89343582816E+03 -0.75387512595E+03  0.99397486185E+03  0.16698357754E+04  0.65864270000E+03 0.  0.
    8880022    1    1    2    0    0 -0.89343582816E+03  0.75387512595E+03 -0.70563733931E+03  0.13739981777E+04  0.15294330000E+03 0.  0.
<mgrwt>
<rscale>  0 0.12990774E+04</rscale>
<asrwt>0</asrwt>
<pdfrwt beam="1">  1        2 0.21196126E+00 0.13417770E+04</pdfrwt>
<pdfrwt beam="2">  1       -2 0.25632088E+00 0.13417770E+04</pdfrwt>
<totfact> 0.83796381E-01</totfact>
</mgrwt>
</event>
<event>
 4    1  0.2799069E-007  0.1242373E+04  0.7818608E-02  0.9116994E-01
         -2   -1    0    0    0  501 -0.00000000000E+00  0.00000000000E+00  0.47975847279E+03  0.47975847280E+03  0.25500000000E-02 0.  1.
          2   -1    0    0  501    0  0.00000000000E+00 -0.00000000000E+00 -0.31624442912E+04  0.31624442912E+04  0.25500000000E-02 0. -1.
    8880023    1    1    2    0    0  0.65979093283E+03 -0.82119219271E+03 -0.79465407525E+03  0.14747765926E+04  0.65864270000E+03 0.  0.
    8880022    1    1    2    0    0 -0.65979093283E+03  0.82119219271E+03 -0.18880317431E+04  0.21674261714E+04  0.15294330000E+03 0.  0.
<mgrwt>
<rscale>  0 0.11952843E+04</rscale>
<asrwt>0</asrwt>
<pdfrwt beam="1">  1        2 0.48652988E+00 0.12423731E+04</pdfrwt>
<pdfrwt beam="2">  1       -2 0.73808998E-01 0.12423731E+04</pdfrwt>
<totfact> 0.22514812E+00</totfact>
</mgrwt>
</event>
<event>
 4    1  0.2799069E-007  0.8221081E+03  0.7818608E-02  0.9664887E-01
          2   -1    0    0  501    0  0.00000000000E+00  0.00000000000E+00  0.19702701574E+04  0.19702701574E+04  0.25500000000E-02 0. -1.
         -2   -1    0    0    0  501 -0.00000000000E+00 -0.00000000000E+00 -0.87536988129E+03  0.87536988129E+03  0.25500000000E-02 0.  1.
    8880023    1    1    2    0    0 -0.20011645853E+03 -0.44944956409E+03 -0.63618243066E+03  0.10395142130E+04  0.65864270000E+03 0.  1.
    8880022    1    1    2    0    0  0.20011645853E+03  0.44944956409E+03  0.17310827068E+04  0.18061258257E+04  0.15294330000E+03 0.  0.
<mgrwt>
<rscale>  0 0.73146430E+03</rscale>
<asrwt>0</asrwt>
<pdfrwt beam="1">  1        2 0.30311848E+00 0.82210809E+03</pdfrwt>
<pdfrwt beam="2">  1       -2 0.13467229E+00 0.82210809E+03</pdfrwt>
<totfact> 0.28207964E+00</totfact>
</mgrwt>
</event>
<event>
 4    1  0.2799069E-007  0.8553686E+03  0.7818608E-02  0.9601856E-01
         -2   -1    0    0    0  501 -0.00000000000E+00  0.00000000000E+00  0.12281936211E+04  0.12281936211E+04  0.25500000000E-02 0.  1.
          2   -1    0    0  501    0  0.00000000000E+00 -0.00000000000E+00 -0.15090350986E+04  0.15090350986E+04  0.25500000000E-02 0. -1.
    8880023    1    1    2    0    0 -0.44869697824E+03 -0.31067053419E+03  0.10123222062E+04  0.13253118933E+04  0.65864270000E+03 0.  0.
    8880022    1    1    2    0    0  0.44869697824E+03  0.31067053419E+03 -0.12931636836E+04  0.14119168264E+04  0.15294330000E+03 0.  0.
<mgrwt>
<rscale>  0 0.77173487E+03</rscale>
<asrwt>0</asrwt>
<pdfrwt beam="1">  1        2 0.23215925E+00 0.85536856E+03</pdfrwt>
<pdfrwt beam="2">  1       -2 0.18895286E+00 0.85536856E+03</pdfrwt>
<totfact> 0.20027764E+00</totfact>
</mgrwt>
</event>
<event>
 4    1  0.2799069E-007  0.1354227E+04  0.7818608E-02  0.9020091E-01
         -2   -1    0    0    0  501 -0.00000000000E+00  0.00000000000E+00  0.49883387490E+03  0.49883387491E+03  0.25500000000E-02 0.  1.
          2   -1    0    0  501    0  0.00000000000E+00 -0.00000000000E+00 -0.36149699859E+04  0.36149699859E+04  0.25500000000E-02 0. -1.
    8880023    1    1    2    0    0 -0.41846977312E+03  0.11067988684E+04 -0.22972769067E+04  0.26667230975E+04  0.65864270000E+03 0.  0.
    8880022    1    1    2    0    0  0.41846977312E+03 -0.11067988684E+04 -0.81885920434E+03  0.14470807634E+04  0.15294330000E+03 0.  0.
<mgrwt>
<rscale>  0 0.13120149E+04</rscale>
<asrwt>0</asrwt>
<pdfrwt beam="1">  1        2 0.55614921E+00 0.13542270E+04</pdfrwt>
<pdfrwt beam="2">  1       -2 0.76743675E-01 0.13542270E+04</pdfrwt>
<totfact> 0.10073996E+00</totfact>
</mgrwt>
</event>
<event>
 4    1  0.2799069E-007  0.9480777E+03  0.7818608E-02  0.9452885E-01
         -2   -1    0    0    0  501 -0.00000000000E+00  0.00000000000E+00  0.79648724659E+03  0.79648724660E+03  0.25500000000E-02 0.  1.
          2   -1    0    0  501    0  0.00000000000E+00 -0.00000000000E+00 -0.92486662972E+03  0.92486662972E+03  0.25500000000E-02 0. -1.
    8880023    1    1    2    0    0 -0.48339082544E+03 -0.48101387325E+03  0.16689958377E+03  0.96265607239E+03  0.65864270000E+03 0.  0.
    8880022    1    1    2    0    0  0.48339082544E+03  0.48101387325E+03 -0.29527896689E+03  0.75869780393E+03  0.15294330000E+03 0.  0.
<mgrwt>
<rscale>  0 0.87848333E+03</rscale>
<asrwt>0</asrwt>
<pdfrwt beam="1">  1        2 0.14228717E+00 0.94807766E+03</pdfrwt>
<pdfrwt beam="2">  1       -2 0.12253650E+00 0.94807766E+03</pdfrwt>
<totfact> 0.14175847E+01</totfact>
</mgrwt>
</event>
<event>
 4    1  0.2799069E-007  0.7266715E+03  0.7818608E-02  0.9900626E-01
         -2   -1    0    0    0  501 -0.00000000000E+00  0.00000000000E+00  0.26121570137E+03  0.26121570138E+03  0.25500000000E-02 0.  1.
          2   -1    0    0  501    0  0.00000000000E+00 -0.00000000000E+00 -0.19034320262E+04  0.19034320262E+04  0.25500000000E-02 0. -1.
    8880023    1    1    2    0    0 -0.22960213333E+03 -0.20377476449E+03 -0.31181256954E+03  0.79074558428E+03  0.65864270000E+03 0.  1.
    8880022    1    1    2    0    0  0.22960213333E+03  0.20377476449E+03 -0.13304037553E+04  0.13739021433E+04  0.15294330000E+03 0.  0.
<mgrwt>
<rscale>  0 0.60230952E+03</rscale>
<asrwt>0</asrwt>
<pdfrwt beam="1">  1        2 0.29283569E+00 0.72667152E+03</pdfrwt>
<pdfrwt beam="2">  1       -2 0.40187032E-01 0.72667152E+03</pdfrwt>
<totfact> 0.45703619E+01</totfact>
</mgrwt>
</event>
<event>
 4    1  0.2799069E-007  0.8671900E+03  0.7818608E-02  0.9580900E-01
         -2   -1    0    0    0  501 -0.00000000000E+00  0.00000000000E+00  0.76777906928E+03  0.76777906928E+03  0.25500000000E-02 0.  1.
          2   -1    0    0  501    0  0.00000000000E+00 -0.00000000000E+00 -0.33532551991E+04  0.33532551991E+04  0.25500000000E-02 0. -1.
    8880023    1    1    2    0    0  0.89513347248E+02  0.55695204921E+03  0.48624089632E+03  0.99420754371E+03  0.65864270000E+03 0.  0.
    8880022    1    1    2    0    0 -0.89513347248E+02 -0.55695204921E+03 -0.30717170261E+04  0.31268267246E+04  0.15294330000E+03 0.  0.
<mgrwt>
<rscale>  0 0.78573373E+03</rscale>
<asrwt>0</asrwt>
<pdfrwt beam="1">  1        2 0.51588541E+00 0.86718996E+03</pdfrwt>
<pdfrwt beam="2">  1       -2 0.11811986E+00 0.86718996E+03</pdfrwt>
<totfact> 0.59720258E-01</totfact>
</mgrwt>
</event>
<event>
 4    1  0.2799069E-007  0.8094755E+03  0.7818608E-02  0.9690671E-01
         -2   -1    0    0    0  501 -0.00000000000E+00  0.00000000000E+00  0.44568827603E+03  0.44568827604E+03  0.25500000000E-02 0.  1.
          2   -1    0    0  501    0  0.00000000000E+00 -0.00000000000E+00 -0.13701563932E+04  0.13701563932E+04  0.25500000000E-02 0. -1.
    8880023    1    1    2    0    0 -0.22344914654E+03 -0.41413863585E+03 -0.10298910523E+04  0.13099336306E+04  0.65864270000E+03 0. -1.
    8880022    1    1    2    0    0  0.22344914654E+03  0.41413863585E+03  0.10542293506E+03  0.50591103866E+03  0.15294330000E+03 0.  0.
<mgrwt>
<rscale>  0 0.71574989E+03</rscale>
<asrwt>0</asrwt>
<pdfrwt beam="1">  1        2 0.21079329E+00 0.80947547E+03</pdfrwt>
<pdfrwt beam="2">  1       -2 0.68567428E-01 0.80947547E+03</pdfrwt>
<totfact> 0.29706777E+01</totfact>
</mgrwt>
</event>
<event>
 4    1  0.2799069E-007  0.1623223E+04  0.7818608E-02  0.8827193E-01
         -2   -1    0    0    0  501 -0.00000000000E+00  0.00000000000E+00  0.11776485276E+04  0.11776485276E+04  0.25500000000E-02 0.  1.
          2   -1    0    0  501    0  0.00000000000E+00 -0.00000000000E+00 -0.27893655861E+04  0.27893655861E+04  0.25500000000E-02 0. -1.
    8880023    1    1    2    0    0 -0.14422284084E+04  0.34788124411E+03  0.18295449208E+03  0.16335013604E+04  0.65864270000E+03 0.  0.
    8880022    1    1    2    0    0  0.14422284084E+04 -0.34788124411E+03 -0.17946715506E+04  0.23335127533E+04  0.15294330000E+03 0.  0.
<mgrwt>
<rscale>  0 0.15892280E+04</rscale>
<asrwt>0</asrwt>
<pdfrwt beam="1">  1        2 0.42913317E+00 0.16232234E+04</pdfrwt>
<pdfrwt beam="2">  1       -2 0.18117670E+00 0.16232234E+04</pdfrwt>
<totfact> 0.38840708E-01</totfact>
</mgrwt>
</event>
<event>
 4    1  0.2799069E-007  0.1058529E+04  0.7818608E-02  0.9308698E-01
          2   -1    0    0  501    0  0.00000000000E+00  0.00000000000E+00  0.51815690627E+03  0.51815690628E+03  0.25500000000E-02 0. -1.
         -2   -1    0    0    0  501 -0.00000000000E+00 -0.00000000000E+00 -0.19446974840E+04  0.19446974840E+04  0.25500000000E-02 0.  1.
    8880023    1    1    2    0    0 -0.15865677086E+03  0.81332741628E+03 -0.39251583357E+03  0.11289607358E+04  0.65864270000E+03 0.  0.
    8880022    1    1    2    0    0  0.15865677086E+03 -0.81332741628E+03 -0.10340247441E+04  0.13338936545E+04  0.15294330000E+03 0.  0.
<mgrwt>
<rscale>  0 0.99986035E+03</rscale>
<asrwt>0</asrwt>
<pdfrwt beam="1">  1        2 0.79716448E-01 0.10585290E+04</pdfrwt>
<pdfrwt beam="2">  1       -2 0.29918422E+00 0.10585290E+04</pdfrwt>
<totfact> 0.18991780E+00</totfact>
</mgrwt>
</event>
<event>
 4    1  0.2799069E-007  0.9434946E+03  0.7818608E-02  0.9459536E-01
         -2   -1    0    0    0  501 -0.00000000000E+00  0.00000000000E+00  0.14663599681E+04  0.14663599681E+04  0.25500000000E-02 0.  1.
          2   -1    0    0  501    0  0.00000000000E+00 -0.00000000000E+00 -0.67088965576E+03  0.67088965577E+03  0.25500000000E-02 0. -1.
    8880023    1    1    2    0    0  0.22652055914E+03  0.63644350395E+03  0.10386029341E+04  0.14031671883E+04  0.65864270000E+03 0.  0.
    8880022    1    1    2    0    0 -0.22652055914E+03 -0.63644350395E+03 -0.24313262174E+03  0.73408243556E+03  0.15294330000E+03 0.  0.
<mgrwt>
<rscale>  0 0.87333925E+03</rscale>
<asrwt>0</asrwt>
<pdfrwt beam="1">  1        2 0.10321379E+00 0.94349462E+03</pdfrwt>
<pdfrwt beam="2">  1       -2 0.22559384E+00 0.94349462E+03</pdfrwt>
<totfact> 0.39448960E+00</totfact>
</mgrwt>
</event>
<event>
 4    1  0.2799069E-007  0.6921451E+03  0.7818608E-02  0.1003149E+00
         -2   -1    0    0    0  501 -0.00000000000E+00  0.00000000000E+00  0.64690202250E+03  0.64690202250E+03  0.25500000000E-02 0.  1.
          2   -1    0    0  501    0  0.00000000000E+00 -0.00000000000E+00 -0.12064278219E+04  0.12064278219E+04  0.25500000000E-02 0. -1.
    8880023    1    1    2    0    0  0.21184396364E+03  0.19409431637E+02  0.43991596755E+03  0.82011636719E+03  0.65864270000E+03 0.  1.
    8880022    1    1    2    0    0 -0.21184396364E+03 -0.19409431637E+02 -0.99944176695E+03  0.10332134772E+04  0.15294330000E+03 0.  0.
<mgrwt>
<rscale>  0 0.54290638E+03</rscale>
<asrwt>0</asrwt>
<pdfrwt beam="1">  1        2 0.18560428E+00 0.69214507E+03</pdfrwt>
<pdfrwt beam="2">  1       -2 0.99523388E-01 0.69214507E+03</pdfrwt>
<totfact> 0.16100934E+01</totfact>
</mgrwt>
</event>
<event>
 4    1  0.2799069E-007  0.1249164E+04  0.7818608E-02  0.9110753E-01
          2   -1    0    0  501    0  0.00000000000E+00  0.00000000000E+00  0.93691534988E+03  0.93691534988E+03  0.25500000000E-02 0. -1.
         -2   -1    0    0    0  501 -0.00000000000E+00 -0.00000000000E+00 -0.25936975831E+04  0.25936975831E+04  0.25500000000E-02 0.  1.
    8880023    1    1    2    0    0 -0.31087458875E+03  0.10148679163E+04 -0.20397885241E+04  0.23918919973E+04  0.65864270000E+03 0.  1.
    8880022    1    1    2    0    0  0.31087458875E+03 -0.10148679163E+04  0.38300629094E+03  0.11387209356E+04  0.15294330000E+03 0.  0.
<mgrwt>
<rscale>  0 0.12024066E+04</rscale>
<asrwt>0</asrwt>
<pdfrwt beam="1">  1        2 0.14414082E+00 0.12491638E+04</pdfrwt>
<pdfrwt beam="2">  1       -2 0.39903039E+00 0.12491638E+04</pdfrwt>
<totfact> 0.20442461E-01</totfact>
</mgrwt>
</event>
<event>
 4    1  0.2799069E-007  0.1524798E+04  0.7818608E-02  0.8892321E-01
          2   -1    0    0  501    0  0.00000000000E+00  0.00000000000E+00  0.40074014290E+04  0.40074014290E+04  0.25500000000E-02 0. -1.
         -2   -1    0    0    0  501 -0.00000000000E+00 -0.00000000000E+00 -0.65762797079E+03  0.65762797079E+03  0.25500000000E-02 0.  1.
    8880023    1    1    2    0    0 -0.80776014562E+03  0.11129786868E+04  0.70441265970E+03  0.16796444301E+04  0.65864270000E+03 0.  0.
    8880022    1    1    2    0    0  0.80776014562E+03 -0.11129786868E+04  0.26453607985E+04  0.29853849697E+04  0.15294330000E+03 0.  0.
<mgrwt>
<rscale>  0 0.14882252E+04</rscale>
<asrwt>0</asrwt>
<pdfrwt beam="1">  1        2 0.61652328E+00 0.15247978E+04</pdfrwt>
<pdfrwt beam="2">  1       -2 0.10117354E+00 0.15247978E+04</pdfrwt>
<totfact> 0.26206981E-01</totfact>
</mgrwt>
</event>
<event>
 4    1  0.2799069E-007  0.1094495E+04  0.7818608E-02  0.9267210E-01
          2   -1    0    0  501    0  0.00000000000E+00  0.00000000000E+00  0.15050118234E+04  0.15050118234E+04  0.25500000000E-02 0. -1.
         -2   -1    0    0    0  501 -0.00000000000E+00 -0.00000000000E+00 -0.88762396260E+03  0.88762396260E+03  0.25500000000E-02 0.  1.
    8880023    1    1    2    0    0 -0.86641760401E+03 -0.11588883045E+03 -0.28086322513E+03  0.11299575404E+04  0.65864270000E+03 0.  0.
    8880022    1    1    2    0    0  0.86641760401E+03  0.11588883045E+03  0.89825108589E+03  0.12626782456E+04  0.15294330000E+03 0.  0.
<mgrwt>
<rscale>  0 0.10385845E+04</rscale>
<asrwt>0</asrwt>
<pdfrwt beam="1">  1        2 0.23154028E+00 0.10944953E+04</pdfrwt>
<pdfrwt beam="2">  1       -2 0.13655753E+00 0.10944953E+04</pdfrwt>
<totfact> 0.47501261E+00</totfact>
</mgrwt>
</event>
<event>
 4    1  0.2799069E-007  0.9449918E+03  0.7818608E-02  0.9457357E-01
         -2   -1    0    0    0  501 -0.00000000000E+00  0.00000000000E+00  0.16437948514E+04  0.16437948514E+04  0.25500000000E-02 0.  1.
          2   -1    0    0  501    0  0.00000000000E+00 -0.00000000000E+00 -0.87852421230E+03  0.87852421231E+03  0.25500000000E-02 0. -1.
    8880023    1    1    2    0    0 -0.29070113701E+03 -0.61212106674E+03  0.13268933163E+04  0.16290044293E+04  0.65864270000E+03 0.  0.
    8880022    1    1    2    0    0  0.29070113701E+03  0.61212106674E+03 -0.56162267726E+03  0.89331463440E+03  0.15294330000E+03 0.  0.
<mgrwt>
<rscale>  0 0.87502093E+03</rscale>
<asrwt>0</asrwt>
<pdfrwt beam="1">  1        2 0.13515757E+00 0.94499183E+03</pdfrwt>
<pdfrwt beam="2">  1       -2 0.25289151E+00 0.94499183E+03</pdfrwt>
<totfact> 0.18789500E+00</totfact>
</mgrwt>
</event>
<event>
 4    1  0.2799069E-007  0.1177510E+04  0.7818608E-02  0.9179300E-01
         -2   -1    0    0    0  501 -0.00000000000E+00  0.00000000000E+00  0.52052613310E+03  0.52052613310E+03  0.25500000000E-02 0.  1.
          2   -1    0    0  501    0  0.00000000000E+00 -0.00000000000E+00 -0.26080914189E+04  0.26080914189E+04  0.25500000000E-02 0. -1.
    8880023    1    1    2    0    0 -0.97593531602E+03 -0.16428351251E+02 -0.54674678518E+03  0.12982533979E+04  0.65864270000E+03 0.  0.
    8880022    1    1    2    0    0  0.97593531602E+03  0.16428351251E+02 -0.15408185007E+04  0.18303641541E+04  0.15294330000E+03 0.  0.
<mgrwt>
<rscale>  0 0.11269662E+04</rscale>
<asrwt>0</asrwt>
<pdfrwt beam="1">  1        2 0.40124483E+00 0.11775100E+04</pdfrwt>
<pdfrwt beam="2">  1       -2 0.80080945E-01 0.11775100E+04</pdfrwt>
<totfact> 0.41105273E+00</totfact>
</mgrwt>
</event>
<event>
 4    1  0.2799069E-007  0.7081757E+03  0.7818608E-02  0.9964839E-01
         -2   -1    0    0    0  501 -0.00000000000E+00  0.00000000000E+00  0.19359846205E+04  0.19359846205E+04  0.25500000000E-02 0.  1.
          2   -1    0    0  501    0  0.00000000000E+00 -0.00000000000E+00 -0.86365465126E+03  0.86365465126E+03  0.25500000000E-02 0. -1.
    8880023    1    1    2    0    0  0.16330988896E+02 -0.25968422125E+03  0.18417125772E+04  0.19731746044E+04  0.65864270000E+03 0.  1.
    8880022    1    1    2    0    0 -0.16330988896E+02  0.25968422125E+03 -0.76938260798E+03  0.82646466739E+03  0.15294330000E+03 0.  0.
<mgrwt>
<rscale>  0 0.57219246E+03</rscale>
<asrwt>0</asrwt>
<pdfrwt beam="1">  1        2 0.13286995E+00 0.70817569E+03</pdfrwt>
<pdfrwt beam="2">  1       -2 0.29784378E+00 0.70817569E+03</pdfrwt>
<totfact> 0.10707947E+00</totfact>
</mgrwt>
</event>
<event>
 4    1  0.2799069E-007  0.9388272E+03  0.7818608E-02  0.9466375E-01
         -2   -1    0    0    0  501 -0.00000000000E+00  0.00000000000E+00  0.54899322525E+03  0.54899322526E+03  0.25500000000E-02 0.  1.
          2   -1    0    0  501    0  0.00000000000E+00 -0.00000000000E+00 -0.22198186427E+04  0.22198186427E+04  0.25500000000E-02 0. -1.
    8880023    1    1    2    0    0  0.63920002889E+03  0.19750854548E+03  0.25236162635E+02  0.93916631788E+03  0.65864270000E+03 0.  0.
    8880022    1    1    2    0    0 -0.63920002889E+03 -0.19750854548E+03 -0.16960615801E+04  0.18296455501E+04  0.15294330000E+03 0.  0.
<mgrwt>
<rscale>  0 0.86808913E+03</rscale>
<asrwt>0</asrwt>
<pdfrwt beam="1">  1        2 0.34151055E+00 0.93882720E+03</pdfrwt>
<pdfrwt beam="2">  1       -2 0.84460498E-01 0.93882720E+03</pdfrwt>
<totfact> 0.62317164E+00</totfact>
</mgrwt>
</event>
<event>
 4    1  0.2799069E-007  0.8374223E+03  0.7818608E-02  0.9635060E-01
         -2   -1    0    0    0  501 -0.00000000000E+00  0.00000000000E+00  0.68662890526E+03  0.68662890526E+03  0.25500000000E-02 0.  1.
          2   -1    0    0  501    0  0.00000000000E+00 -0.00000000000E+00 -0.95076939546E+03  0.95076939547E+03  0.25500000000E-02 0. -1.
    8880023    1    1    2    0    0  0.35657584286E+03 -0.37459245423E+03  0.26848521728E+03  0.87940909515E+03  0.65864270000E+03 0.  1.
    8880022    1    1    2    0    0 -0.35657584286E+03  0.37459245423E+03 -0.53262570749E+03  0.75798920558E+03  0.15294330000E+03 0.  0.
<mgrwt>
<rscale>  0 0.75018506E+03</rscale>
<asrwt>0</asrwt>
<pdfrwt beam="1">  1        2 0.14627221E+00 0.83742226E+03</pdfrwt>
<pdfrwt beam="2">  1       -2 0.10563522E+00 0.83742226E+03</pdfrwt>
<totfact> 0.19792305E+01</totfact>
</mgrwt>
</event>
<event>
 4    1  0.2799069E-007  0.1371868E+04  0.7818608E-02  0.9005856E-01
         -2   -1    0    0    0  501 -0.00000000000E+00  0.00000000000E+00  0.79757950484E+03  0.79757950484E+03  0.25500000000E-02 0.  1.
          2   -1    0    0  501    0  0.00000000000E+00 -0.00000000000E+00 -0.22057745138E+04  0.22057745138E+04  0.25500000000E-02 0. -1.
    8880023    1    1    2    0    0 -0.41554958354E+03 -0.11293935300E+04 -0.10818780767E+04  0.17471352498E+04  0.65864270000E+03 0.  0.
    8880022    1    1    2    0    0  0.41554958354E+03  0.11293935300E+04 -0.32631693225E+03  0.12562187689E+04  0.15294330000E+03 0.  0.
<mgrwt>
<rscale>  0 0.13303259E+04</rscale>
<asrwt>0</asrwt>
<pdfrwt beam="1">  1        2 0.33934992E+00 0.13718679E+04</pdfrwt>
<pdfrwt beam="2">  1       -2 0.12270454E+00 0.13718679E+04</pdfrwt>
<totfact> 0.24716815E+00</totfact>
</mgrwt>
</event>
<event>
 4    1  0.2799069E-007  0.7975375E+03  0.7818608E-02  0.9716146E-01
          2   -1    0    0  501    0  0.00000000000E+00  0.00000000000E+00  0.15815786242E+04  0.15815786242E+04  0.25500000000E-02 0. -1.
         -2   -1    0    0    0  501 -0.00000000000E+00 -0.00000000000E+00 -0.30375464483E+03  0.30375464484E+03  0.25500000000E-02 0.  1.
    8880023    1    1    2    0    0  0.43893021058E+03  0.97959651757E+02  0.41177994589E+03  0.89756824433E+03  0.65864270000E+03 0.  0.
    8880022    1    1    2    0    0 -0.43893021058E+03 -0.97959651757E+02  0.86604403352E+03  0.98776502476E+03  0.15294330000E+03 0.  0.
<mgrwt>
<rscale>  0 0.70063550E+03</rscale>
<asrwt>0</asrwt>
<pdfrwt beam="1">  1        2 0.24331979E+00 0.79753748E+03</pdfrwt>
<pdfrwt beam="2">  1       -2 0.46731484E-01 0.79753748E+03</pdfrwt>
<totfact> 0.50458862E+01</totfact>
</mgrwt>
</event>
<event>
 4    1  0.2799069E-007  0.6911681E+03  0.7818608E-02  0.1003602E+00
          2   -1    0    0  501    0  0.00000000000E+00  0.00000000000E+00  0.26435421001E+03  0.26435421002E+03  0.25500000000E-02 0. -1.
         -2   -1    0    0    0  501 -0.00000000000E+00 -0.00000000000E+00 -0.12938627746E+04  0.12938627746E+04  0.25500000000E-02 0.  1.
    8880023    1    1    2    0    0 -0.20094089086E+02 -0.20856499554E+03 -0.10911000825E+04  0.12915930962E+04  0.65864270000E+03 0.  1.
    8880022    1    1    2    0    0  0.20094089086E+02  0.20856499554E+03  0.61591517943E+02  0.26662388842E+03  0.15294330000E+03 0.  0.
<mgrwt>
<rscale>  0 0.54098527E+03</rscale>
<asrwt>0</asrwt>
<pdfrwt beam="1">  1        2 0.40669879E-01 0.69116810E+03</pdfrwt>
<pdfrwt beam="2">  1       -2 0.19905581E+00 0.69116810E+03</pdfrwt>
<totfact> 0.17436720E+01</totfact>
</mgrwt>
</event>
<event>
 4    1  0.2799069E-007  0.8514603E+03  0.7818608E-02  0.9608938E-01
          2   -1    0    0  501    0  0.00000000000E+00  0.00000000000E+00  0.17983142612E+04  0.17983142612E+04  0.25500000000E-02 0. -1.
         -2   -1    0    0    0  501 -0.00000000000E+00 -0.00000000000E+00 -0.61315069763E+03  0.61315069764E+03  0.25500000000E-02 0.  1.
    8880023    1    1    2    0    0 -0.50718932700E+03  0.18421005571E+03 -0.23605950674E+03  0.88357719246E+03  0.65864270000E+03 0.  1.
    8880022    1    1    2    0    0  0.50718932700E+03 -0.18421005571E+03  0.14212230703E+04  0.15278877663E+04  0.15294330000E+03 0.  0.
<mgrwt>
<rscale>  0 0.76707399E+03</rscale>
<asrwt>0</asrwt>
<pdfrwt beam="1">  1        2 0.27666373E+00 0.85146025E+03</pdfrwt>
<pdfrwt beam="2">  1       -2 0.94330877E-01 0.85146025E+03</pdfrwt>
<totfact> 0.83282843E+00</totfact>
</mgrwt>
</event>
<event>
 4    1  0.2799069E-007  0.1183774E+04  0.7818608E-02  0.9173058E-01
          2   -1    0    0  501    0  0.00000000000E+00  0.00000000000E+00  0.63526953090E+03  0.63526953090E+03  0.25500000000E-02 0. -1.
         -2   -1    0    0    0  501 -0.00000000000E+00 -0.00000000000E+00 -0.22102793463E+04  0.22102793463E+04  0.25500000000E-02 0.  1.
    8880023    1    1    2    0    0 -0.19750359560E+03  0.96358913968E+03 -0.14024488448E+04  0.18352614716E+04  0.65864270000E+03 0.  1.
    8880022    1    1    2    0    0  0.19750359560E+03 -0.96358913968E+03 -0.17256097056E+03  0.10102874056E+04  0.15294330000E+03 0.  0.
<mgrwt>
<rscale>  0 0.11335890E+04</rscale>
<asrwt>0</asrwt>
<pdfrwt beam="1">  1        2 0.97733775E-01 0.11837744E+04</pdfrwt>
<pdfrwt beam="2">  1       -2 0.34004297E+00 0.11837744E+04</pdfrwt>
<totfact> 0.82195162E-01</totfact>
</mgrwt>
</event>
<event>
 4    1  0.2799069E-007  0.6694487E+03  0.7818608E-02  0.1016061E+00
          2   -1    0    0  501    0  0.00000000000E+00  0.00000000000E+00  0.55157491860E+03  0.55157491861E+03  0.25500000000E-02 0. -1.
         -2   -1    0    0    0  501 -0.00000000000E+00 -0.00000000000E+00 -0.48573562406E+03  0.48573562407E+03  0.25500000000E-02 0.  1.
    8880023    1    1    2    0    0  0.11571429723E+03  0.31008602895E+02 -0.20848411132E+03  0.70116129598E+03  0.65864270000E+03 0.  1.
    8880022    1    1    2    0    0 -0.11571429723E+03 -0.31008602895E+02  0.27432340586E+03  0.33614924670E+03  0.15294330000E+03 0.  0.
<mgrwt>
<rscale>  0 0.49135174E+03</rscale>
<asrwt>0</asrwt>
<pdfrwt beam="1">  1        2 0.84857680E-01 0.66944868E+03</pdfrwt>
<pdfrwt beam="2">  1       -2 0.74728558E-01 0.66944868E+03</pdfrwt>
<totfact> 0.89761041E+01</totfact>
</mgrwt>
</event>
<event>
 4    1  0.2799069E-007  0.7357636E+03  0.7818608E-02  0.9872464E-01
          2   -1    0    0  501    0  0.00000000000E+00  0.00000000000E+00  0.18024164743E+04  0.18024164743E+04  0.25500000000E-02 0. -1.
         -2   -1    0    0    0  501 -0.00000000000E+00 -0.00000000000E+00 -0.30424252767E+03  0.30424252768E+03  0.25500000000E-02 0.  1.
    8880023    1    1    2    0    0 -0.20961408978E+02  0.32725895653E+03  0.20496107067E+03  0.76377814321E+03  0.65864270000E+03 0.  1.
    8880022    1    1    2    0    0  0.20961408978E+02 -0.32725895653E+03  0.12932128760E+04  0.13428808588E+04  0.15294330000E+03 0.  0.
<mgrwt>
<rscale>  0 0.61614563E+03</rscale>
<asrwt>0</asrwt>
<pdfrwt beam="1">  1        2 0.27729484E+00 0.73576356E+03</pdfrwt>
<pdfrwt beam="2">  1       -2 0.46806543E-01 0.73576356E+03</pdfrwt>
<totfact> 0.38317937E+01</totfact>
</mgrwt>
</event>
<event>
 4    1  0.2799069E-007  0.8464819E+03  0.7818608E-02  0.9618077E-01
          2   -1    0    0  501    0  0.00000000000E+00  0.00000000000E+00  0.38989067003E+03  0.38989067004E+03  0.25500000000E-02 0. -1.
         -2   -1    0    0    0  501 -0.00000000000E+00 -0.00000000000E+00 -0.25380530457E+04  0.25380530457E+04  0.25500000000E-02 0.  1.
    8880023    1    1    2    0    0  0.24362045101E+03 -0.47262084985E+03 -0.22144410620E+04  0.23707131449E+04  0.65864270000E+03 0.  1.
    8880022    1    1    2    0    0 -0.24362045101E+03  0.47262084985E+03  0.66278686329E+02  0.55723057089E+03  0.15294330000E+03 0.  0.
<mgrwt>
<rscale>  0 0.76111185E+03</rscale>
<asrwt>0</asrwt>
<pdfrwt beam="1">  1        2 0.59983182E-01 0.84648189E+03</pdfrwt>
<pdfrwt beam="2">  1       -2 0.39046969E+00 0.84648189E+03</pdfrwt>
<totfact> 0.73184983E-01</totfact>
</mgrwt>
</event>
<event>
 4    1  0.2799069E-007  0.7883130E+03  0.7818608E-02  0.9736660E-01
          2   -1    0    0  501    0  0.00000000000E+00  0.00000000000E+00  0.14955405263E+04  0.14955405263E+04  0.25500000000E-02 0. -1.
         -2   -1    0    0    0  501 -0.00000000000E+00 -0.00000000000E+00 -0.66161707736E+03  0.66161707737E+03  0.25500000000E-02 0.  1.
    8880023    1    1    2    0    0 -0.42910696716E+03 -0.59113203222E+02 -0.36834151076E+03  0.87012231030E+03  0.65864270000E+03 0.  1.
    8880022    1    1    2    0    0  0.42910696716E+03  0.59113203222E+02  0.12022649597E+04  0.12870352934E+04  0.15294330000E+03 0.  0.
<mgrwt>
<rscale>  0 0.68875404E+03</rscale>
<asrwt>0</asrwt>
<pdfrwt beam="1">  1        2 0.23008316E+00 0.78831299E+03</pdfrwt>
<pdfrwt beam="2">  1       -2 0.10178724E+00 0.78831299E+03</pdfrwt>
<totfact> 0.10306897E+01</totfact>
</mgrwt>
</event>
<event>
 4    1  0.2799069E-007  0.1077214E+04  0.7818608E-02  0.9286859E-01
         -2   -1    0    0    0  501 -0.00000000000E+00  0.00000000000E+00  0.85619344396E+03  0.85619344396E+03  0.25500000000E-02 0.  1.
          2   -1    0    0  501    0  0.00000000000E+00 -0.00000000000E+00 -0.33830801384E+04  0.33830801384E+04  0.25500000000E-02 0. -1.
    8880023    1    1    2    0    0 -0.77685864440E+03 -0.35081471599E+03  0.42873020044E+03  0.11593964418E+04  0.65864270000E+03 0.  1.
    8880022    1    1    2    0    0  0.77685864440E+03  0.35081471599E+03 -0.29556168949E+04  0.30798771405E+04  0.15294330000E+03 0.  0.
<mgrwt>
<rscale>  0 0.10200165E+04</rscale>
<asrwt>0</asrwt>
<pdfrwt beam="1">  1        2 0.52047386E+00 0.10772142E+04</pdfrwt>
<pdfrwt beam="2">  1       -2 0.13172207E+00 0.10772142E+04</pdfrwt>
<totfact> 0.41688920E-01</totfact>
</mgrwt>
</event>
<event>
 4    1  0.2799069E-007  0.8261633E+03  0.7818608E-02  0.9656844E-01
          2   -1    0    0  501    0  0.00000000000E+00  0.00000000000E+00  0.18107145317E+04  0.18107145317E+04  0.25500000000E-02 0. -1.
         -2   -1    0    0    0  501 -0.00000000000E+00 -0.00000000000E+00 -0.26199640773E+03  0.26199640775E+03  0.25500000000E-02 0.  1.
    8880023    1    1    2    0    0 -0.21361189666E+03 -0.45067236398E+03  0.73304629179E+03  0.11044920526E+04  0.65864270000E+03 0.  0.
    8880022    1    1    2    0    0  0.21361189666E+03  0.45067236398E+03  0.81567183216E+03  0.96821888684E+03  0.15294330000E+03 0.  0.
<mgrwt>
<rscale>  0 0.73645453E+03</rscale>
<asrwt>0</asrwt>
<pdfrwt beam="1">  1        2 0.27857147E+00 0.82616332E+03</pdfrwt>
<pdfrwt beam="2">  1       -2 0.40307140E-01 0.82616332E+03</pdfrwt>
<totfact> 0.50483822E+01</totfact>
</mgrwt>
</event>
<event>
 4    1  0.2799069E-007  0.6836607E+03  0.7818608E-02  0.1007324E+00
          2   -1    0    0  501    0  0.00000000000E+00  0.00000000000E+00  0.25675342173E+04  0.25675342173E+04  0.25500000000E-02 0. -1.
         -2   -1    0    0    0  501 -0.00000000000E+00 -0.00000000000E+00 -0.19361349184E+03  0.19361349186E+03  0.25500000000E-02 0.  1.
    8880023    1    1    2    0    0 -0.16885944903E+03 -0.71191097559E+02  0.44102352561E+03  0.81356846196E+03  0.65864270000E+03 0.  1.
    8880022    1    1    2    0    0  0.16885944903E+03  0.71191097559E+02  0.19328971998E+04  0.19475792472E+04  0.15294330000E+03 0.  0.
<mgrwt>
<rscale>  0 0.52552018E+03</rscale>
<asrwt>0</asrwt>
<pdfrwt beam="1">  1        2 0.39500527E+00 0.68366066E+03</pdfrwt>
<pdfrwt beam="2">  1       -2 0.29786691E-01 0.68366066E+03</pdfrwt>
<totfact> 0.34842446E+01</totfact>
</mgrwt>
</event>
<event>
 4    1  0.2799069E-007  0.7684424E+03  0.7818608E-02  0.9783722E-01
         -2   -1    0    0    0  501 -0.00000000000E+00  0.00000000000E+00  0.12894590950E+04  0.12894590950E+04  0.25500000000E-02 0.  1.
          2   -1    0    0  501    0  0.00000000000E+00 -0.00000000000E+00 -0.14320040566E+04  0.14320040566E+04  0.25500000000E-02 0. -1.
    8880023    1    1    2    0    0 -0.25366650169E+03  0.30388611121E+03  0.11375957215E+04  0.13728174294E+04  0.65864270000E+03 0.  0.
    8880022    1    1    2    0    0  0.25366650169E+03 -0.30388611121E+03 -0.12801406830E+04  0.13486457222E+04  0.15294330000E+03 0.  0.
<mgrwt>
<rscale>  0 0.66243490E+03</rscale>
<asrwt>0</asrwt>
<pdfrwt beam="1">  1        2 0.22030832E+00 0.76844237E+03</pdfrwt>
<pdfrwt beam="2">  1       -2 0.19837832E+00 0.76844237E+03</pdfrwt>
<totfact> 0.19432750E+00</totfact>
</mgrwt>
</event>
<event>
 4    1  0.3117914E-007  0.1141570E+04  0.7818608E-02  0.9216126E-01
          2   -1    0    0  501    0  0.00000000000E+00  0.00000000000E+00  0.27263334578E+04  0.27263334578E+04  0.25500000000E-02 0. -1.
         -2   -1    0    0    0  501 -0.00000000000E+00 -0.00000000000E+00 -0.11553331222E+04  0.11553331222E+04  0.25500000000E-02 0.  1.
    8880023    1    1    2    0    0 -0.63843570082E+03  0.67953781088E+03 -0.75664297760E+03  0.13695585356E+04  0.65864270000E+03 0.  0.
    8880022    1    1    2    0    0  0.63843570082E+03 -0.67953781088E+03  0.23276433132E+04  0.25121080445E+04  0.15294330000E+03 0.  0.
<mgrwt>
<rscale>  0 0.10888522E+04</rscale>
<asrwt>0</asrwt>
<pdfrwt beam="1">  1        2 0.41943591E+00 0.11415700E+04</pdfrwt>
<pdfrwt beam="2">  1       -2 0.17774356E+00 0.11415700E+04</pdfrwt>
<totfact> 0.47544975E-01</totfact>
</mgrwt>
</event>
<event>
 4    1  0.2799069E-007  0.1131766E+04  0.7818608E-02  0.9226486E-01
          2   -1    0    0  501    0  0.00000000000E+00  0.00000000000E+00  0.28690844583E+04  0.28690844583E+04  0.25500000000E-02 0. -1.
         -2   -1    0    0    0  501 -0.00000000000E+00 -0.00000000000E+00 -0.64110296262E+03  0.64110296263E+03  0.25500000000E-02 0.  1.
    8880023    1    1    2    0    0  0.62784973978E+03  0.67296997940E+03  0.41001356090E+02  0.11325083692E+04  0.65864270000E+03 0.  1.
    8880022    1    1    2    0    0 -0.62784973978E+03 -0.67296997940E+03  0.21869801396E+04  0.23776790517E+04  0.15294330000E+03 0.  0.
<mgrwt>
<rscale>  0 0.10784178E+04</rscale>
<asrwt>0</asrwt>
<pdfrwt beam="1">  1        2 0.44139761E+00 0.11317659E+04</pdfrwt>
<pdfrwt beam="2">  1       -2 0.98631225E-01 0.11317659E+04</pdfrwt>
<totfact> 0.17866049E+00</totfact>
</mgrwt>
</event>
<event>
 4    1  0.2799069E-007  0.9179891E+03  0.7818608E-02  0.9497749E-01
          2   -1    0    0  501    0  0.00000000000E+00  0.00000000000E+00  0.13223576935E+04  0.13223576935E+04  0.25500000000E-02 0. -1.
         -2   -1    0    0    0  501 -0.00000000000E+00 -0.00000000000E+00 -0.13562297738E+04  0.13562297738E+04  0.25500000000E-02 0.  1.
    8880023    1    1    2    0    0 -0.18600064894E+03 -0.61179859886E+03 -0.10958577498E+04  0.14295482437E+04  0.65864270000E+03 0.  1.
    8880022    1    1    2    0    0  0.18600064894E+03  0.61179859886E+03  0.10619856695E+04  0.12490392236E+04  0.15294330000E+03 0.  0.
<mgrwt>
<rscale>  0 0.84449963E+03</rscale>
<asrwt>0</asrwt>
<pdfrwt beam="1">  1        2 0.20343964E+00 0.91798909E+03</pdfrwt>
<pdfrwt beam="2">  1       -2 0.20865073E+00 0.91798909E+03</pdfrwt>
<totfact> 0.18819322E+00</totfact>
</mgrwt>
</event>
<event>
 4    1  0.2799069E-007  0.8181779E+03  0.7818608E-02  0.9672788E-01
          2   -1    0    0  501    0  0.00000000000E+00  0.00000000000E+00  0.35245742987E+04  0.35245742987E+04  0.25500000000E-02 0. -1.
         -2   -1    0    0    0  501 -0.00000000000E+00 -0.00000000000E+00 -0.34628564179E+03  0.34628564180E+03  0.25500000000E-02 0.  1.
    8880023    1    1    2    0    0  0.32182810025E+02 -0.48432344110E+03  0.19053170937E+03  0.84006991816E+03  0.65864270000E+03 0.  1.
    8880022    1    1    2    0    0 -0.32182810025E+02  0.48432344110E+03  0.29877569475E+04  0.30307900223E+04  0.15294330000E+03 0.  0.
<mgrwt>
<rscale>  0 0.72660365E+03</rscale>
<asrwt>0</asrwt>
<pdfrwt beam="1">  1        2 0.54224216E+00 0.81817794E+03</pdfrwt>
<pdfrwt beam="2">  1       -2 0.53274718E-01 0.81817794E+03</pdfrwt>
<totfact> 0.27821638E+00</totfact>
</mgrwt>
</event>
<event>
 4    1  0.2799069E-007  0.1552692E+04  0.7818608E-02  0.8873297E-01
          2   -1    0    0  501    0  0.00000000000E+00  0.00000000000E+00  0.17877721121E+04  0.17877721121E+04  0.25500000000E-02 0. -1.
         -2   -1    0    0    0  501 -0.00000000000E+00 -0.00000000000E+00 -0.22771461392E+04  0.22771461392E+04  0.25500000000E-02 0.  1.
    8880023    1    1    2    0    0 -0.13512578073E+04 -0.38877241211E+03 -0.16276014889E+04  0.22494306975E+04  0.65864270000E+03 0.  0.
    8880022    1    1    2    0    0  0.13512578073E+04  0.38877241211E+03  0.11382274618E+04  0.18154875538E+04  0.15294330000E+03 0.  0.
<mgrwt>
<rscale>  0 0.15168913E+04</rscale>
<asrwt>0</asrwt>
<pdfrwt beam="1">  1        2 0.27504186E+00 0.15526918E+04</pdfrwt>
<pdfrwt beam="2">  1       -2 0.35033017E+00 0.15526918E+04</pdfrwt>
<totfact> 0.12676162E-01</totfact>
</mgrwt>
</event>
<event>
 4    1  0.2799069E-007  0.2010353E+04  0.7818608E-02  0.8614316E-01
         -2   -1    0    0    0  501 -0.00000000000E+00  0.00000000000E+00  0.22009611979E+04  0.22009611979E+04  0.25500000000E-02 0.  1.
          2   -1    0    0  501    0  0.00000000000E+00 -0.00000000000E+00 -0.30564570389E+04  0.30564570389E+04  0.25500000000E-02 0. -1.
    8880023    1    1    2    0    0  0.12141349977E+04  0.14606796269E+04  0.12894064183E+04  0.23883232367E+04  0.65864270000E+03 0.  0.
    8880022    1    1    2    0    0 -0.12141349977E+04 -0.14606796269E+04 -0.21449022592E+04  0.28690950001E+04  0.15294330000E+03 0.  0.
<mgrwt>
<rscale>  0 0.19836225E+04</rscale>
<asrwt>0</asrwt>
<pdfrwt beam="1">  1        2 0.47022416E+00 0.20103529E+04</pdfrwt>
<pdfrwt beam="2">  1       -2 0.33860942E+00 0.20103529E+04</pdfrwt>
<totfact> 0.25943435E-02</totfact>
</mgrwt>
</event>
<event>
 4    1  0.2799069E-007  0.8026897E+03  0.7818608E-02  0.9705010E-01
         -2   -1    0    0    0  501 -0.00000000000E+00  0.00000000000E+00  0.14998588068E+04  0.14998588068E+04  0.25500000000E-02 0.  1.
          2   -1    0    0  501    0  0.00000000000E+00 -0.00000000000E+00 -0.52888338678E+03  0.52888338678E+03  0.25500000000E-02 0. -1.
    8880023    1    1    2    0    0 -0.84698071014E+02 -0.45091768344E+03  0.12386406816E+04  0.14759883011E+04  0.65864270000E+03 0.  1.
    8880022    1    1    2    0    0  0.84698071014E+02  0.45091768344E+03 -0.26766526156E+03  0.55275389255E+03  0.15294330000E+03 0.  0.
<mgrwt>
<rscale>  0 0.70719262E+03</rscale>
<asrwt>0</asrwt>
<pdfrwt beam="1">  1        2 0.81366676E-01 0.80268968E+03</pdfrwt>
<pdfrwt beam="2">  1       -2 0.23074751E+00 0.80268968E+03</pdfrwt>
<totfact> 0.49677188E+00</totfact>
</mgrwt>
</event>
<event>
 4    1  0.2799069E-007  0.1039877E+04  0.7818608E-02  0.9331151E-01
          2   -1    0    0  501    0  0.00000000000E+00  0.00000000000E+00  0.26399730826E+04  0.26399730826E+04  0.25500000000E-02 0. -1.
         -2   -1    0    0    0  501 -0.00000000000E+00 -0.00000000000E+00 -0.34166485722E+03  0.34166485723E+03  0.25500000000E-02 0.  1.
    8880023    1    1    2    0    0  0.48294028293E+03 -0.64366288580E+03  0.15839476013E+04  0.18947911329E+04  0.65864270000E+03 0.  0.
    8880022    1    1    2    0    0 -0.48294028293E+03  0.64366288580E+03  0.71436062404E+03  0.10868468069E+04  0.15294330000E+03 0.  0.
<mgrwt>
<rscale>  0 0.97964924E+03</rscale>
<asrwt>0</asrwt>
<pdfrwt beam="1">  1        2 0.40614971E+00 0.10398766E+04</pdfrwt>
<pdfrwt beam="2">  1       -2 0.52563824E-01 0.10398766E+04</pdfrwt>
<totfact> 0.99412742E+00</totfact>
</mgrwt>
</event>
<event>
 4    1  0.2799069E-007  0.1053987E+04  0.7818608E-02  0.9314104E-01
         -2   -1    0    0    0  501 -0.00000000000E+00  0.00000000000E+00  0.19147240446E+04  0.19147240446E+04  0.25500000000E-02 0.  1.
          2   -1    0    0  501    0  0.00000000000E+00 -0.00000000000E+00 -0.70652167298E+03  0.70652167299E+03  0.25500000000E-02 0. -1.
    8880023    1    1    2    0    0 -0.63370528853E+02  0.82040405716E+03  0.14099283151E+04  0.17603370986E+04  0.65864270000E+03 0.  1.
    8880022    1    1    2    0    0  0.63370528853E+02 -0.82040405716E+03 -0.20172594344E+03  0.86090861896E+03  0.15294330000E+03 0.  0.
<mgrwt>
<rscale>  0 0.99494756E+03</rscale>
<asrwt>0</asrwt>
<pdfrwt beam="1">  1        2 0.10869564E+00 0.10539871E+04</pdfrwt>
<pdfrwt beam="2">  1       -2 0.29457293E+00 0.10539871E+04</pdfrwt>
<totfact> 0.13860103E+00</totfact>
</mgrwt>
</event>
<event>
 4    1  0.2799069E-007  0.2328481E+04  0.7818608E-02  0.8475684E-01
          2   -1    0    0  501    0  0.00000000000E+00  0.00000000000E+00  0.25083699326E+04  0.25083699326E+04  0.25500000000E-02 0. -1.
         -2   -1    0    0    0  501 -0.00000000000E+00 -0.00000000000E+00 -0.21203870053E+04  0.21203870053E+04  0.25500000000E-02 0.  1.
    8880023    1    1    2    0    0  0.19983908332E+04  0.99722050587E+03 -0.12601796140E+03  0.23318888036E+04  0.65864270000E+03 0.  0.
    8880022    1    1    2    0    0 -0.19983908332E+04 -0.99722050587E+03  0.51400088876E+03  0.22968681343E+04  0.15294330000E+03 0.  0.
<mgrwt>
<rscale>  0 0.23056825E+04</rscale>
<asrwt>0</asrwt>
<pdfrwt beam="1">  1        2 0.38590307E+00 0.23284812E+04</pdfrwt>
<pdfrwt beam="2">  1       -2 0.32621338E+00 0.23284812E+04</pdfrwt>
<totfact> 0.64755297E-02</totfact>
</mgrwt>
</event>
<event>
 4    1  0.3814106E-007  0.1008064E+04  0.7818608E-02  0.9371083E-01
          2   -1    0    0  501    0  0.00000000000E+00  0.00000000000E+00  0.19676702797E+04  0.19676702797E+04  0.25500000000E-02 0. -1.
         -2   -1    0    0    0  501 -0.00000000000E+00 -0.00000000000E+00 -0.14644230658E+04  0.14644230658E+04  0.25500000000E-02 0.  1.
    8880023    1    1    2    0    0  0.55473893145E+03  0.52406781551E+03 -0.11953517369E+04  0.15636682316E+04  0.65864270000E+03 0.  1.
    8880022    1    1    2    0    0 -0.55473893145E+03 -0.52406781551E+03  0.16985989509E+04  0.18684251139E+04  0.15294330000E+03 0.  0.
<mgrwt>
<rscale>  0 0.94494131E+03</rscale>
<asrwt>0</asrwt>
<pdfrwt beam="1">  1        2 0.30271850E+00 0.10080638E+04</pdfrwt>
<pdfrwt beam="2">  1       -2 0.22529586E+00 0.10080638E+04</pdfrwt>
<totfact> 0.63653475E-01</totfact>
</mgrwt>
</event>
<event>
 4    1  0.2799069E-007  0.7537392E+03  0.7818608E-02  0.9821594E-01
          2   -1    0    0  501    0  0.00000000000E+00  0.00000000000E+00  0.95662254287E+03  0.95662254287E+03  0.25500000000E-02 0. -1.
         -2   -1    0    0    0  501 -0.00000000000E+00 -0.00000000000E+00 -0.54785351032E+03  0.54785351033E+03  0.25500000000E-02 0.  1.
    8880023    1    1    2    0    0  0.36433344537E+03  0.39669525397E+02 -0.19799398628E+03  0.77931017928E+03  0.65864270000E+03 0.  1.
    8880022    1    1    2    0    0 -0.36433344537E+03 -0.39669525397E+02  0.60676301883E+03  0.72516587392E+03  0.15294330000E+03 0.  0.
<mgrwt>
<rscale>  0 0.64216439E+03</rscale>
<asrwt>0</asrwt>
<pdfrwt beam="1">  1        2 0.14717270E+00 0.75373917E+03</pdfrwt>
<pdfrwt beam="2">  1       -2 0.84285156E-01 0.75373917E+03</pdfrwt>
<totfact> 0.33517118E+01</totfact>
</mgrwt>
</event>
<event>
 4    1  0.2799069E-007  0.1844088E+04  0.7818608E-02  0.8698533E-01
         -2   -1    0    0    0  501 -0.00000000000E+00  0.00000000000E+00  0.25155922897E+04  0.25155922897E+04  0.25500000000E-02 0.  1.
          2   -1    0    0  501    0  0.00000000000E+00 -0.00000000000E+00 -0.30657014535E+04  0.30657014535E+04  0.25500000000E-02 0. -1.
    8880023    1    1    2    0    0  0.15733264892E+04  0.70106519219E+03  0.18572381249E+04  0.26172489954E+04  0.65864270000E+03 0.  0.
    8880022    1    1    2    0    0 -0.15733264892E+04 -0.70106519219E+03 -0.24073472887E+04  0.29640447478E+04  0.15294330000E+03 0.  0.
<mgrwt>
<rscale>  0 0.18146773E+04</rscale>
<asrwt>0</asrwt>
<pdfrwt beam="1">  1        2 0.47164638E+00 0.18440875E+04</pdfrwt>
<pdfrwt beam="2">  1       -2 0.38701420E+00 0.18440875E+04</pdfrwt>
<totfact> 0.12809487E-02</totfact>
</mgrwt>
</event>
<event>
 4    1  0.2799069E-007  0.1043639E+04  0.7818608E-02  0.9326568E-01
          2   -1    0    0  501    0  0.00000000000E+00  0.00000000000E+00  0.26553138569E+04  0.26553138569E+04  0.25500000000E-02 0. -1.
         -2   -1    0    0    0  501 -0.00000000000E+00 -0.00000000000E+00 -0.41756124028E+03  0.41756124029E+03  0.25500000000E-02 0.  1.
    8880023    1    1    2    0    0 -0.39133311443E+03  0.70868189555E+03  0.19286752509E+04  0.21929364024E+04  0.65864270000E+03 0.  1.
    8880022    1    1    2    0    0  0.39133311443E+03 -0.70868189555E+03  0.30907736578E+03  0.87993869479E+03  0.15294330000E+03 0.  0.
<mgrwt>
<rscale>  0 0.98373345E+03</rscale>
<asrwt>0</asrwt>
<pdfrwt beam="1">  1        2 0.40850984E+00 0.10436388E+04</pdfrwt>
<pdfrwt beam="2">  1       -2 0.64240188E-01 0.10436388E+04</pdfrwt>
<totfact> 0.63766717E+00</totfact>
</mgrwt>
</event>
<event>
 4    1  0.2799069E-007  0.9857590E+03  0.7818608E-02  0.9400431E-01
         -2   -1    0    0    0  501 -0.00000000000E+00  0.00000000000E+00  0.36207711392E+03  0.36207711393E+03  0.25500000000E-02 0.  1.
          2   -1    0    0  501    0  0.00000000000E+00 -0.00000000000E+00 -0.31711170920E+04  0.31711170920E+04  0.25500000000E-02 0. -1.
    8880023    1    1    2    0    0  0.27966863949E+03  0.67800890102E+03 -0.49932714848E+03  0.11050105996E+04  0.65864270000E+03 0.  0.
    8880022    1    1    2    0    0 -0.27966863949E+03 -0.67800890102E+03 -0.23097128296E+04  0.24281836063E+04  0.15294330000E+03 0.  0.
<mgrwt>
<rscale>  0 0.92040224E+03</rscale>
<asrwt>0</asrwt>
<pdfrwt beam="1">  1        2 0.48786415E+00 0.98575901E+03</pdfrwt>
<pdfrwt beam="2">  1       -2 0.55704173E-01 0.98575901E+03</pdfrwt>
<totfact> 0.42211575E+00</totfact>
</mgrwt>
</event>
<event>
 4    1  0.3045467E-007  0.1315544E+04  0.7818608E-02  0.9052252E-01
         -2   -1    0    0    0  501 -0.00000000000E+00  0.00000000000E+00  0.14156623827E+04  0.14156623827E+04  0.25500000000E-02 0.  1.
          2   -1    0    0  501    0  0.00000000000E+00 -0.00000000000E+00 -0.27037768419E+04  0.27037768419E+04  0.25500000000E-02 0. -1.
    8880023    1    1    2    0    0  0.11221941339E+04 -0.19371693862E+03  0.93703037423E+03  0.16151414969E+04  0.65864270000E+03 0.  0.
    8880022    1    1    2    0    0 -0.11221941339E+04  0.19371693862E+03 -0.22251448335E+04  0.25042977278E+04  0.15294330000E+03 0.  0.
<mgrwt>
<rscale>  0 0.12717758E+04</rscale>
<asrwt>0</asrwt>
<pdfrwt beam="1">  1        2 0.41596567E+00 0.13155440E+04</pdfrwt>
<pdfrwt beam="2">  1       -2 0.21779421E+00 0.13155440E+04</pdfrwt>
<totfact> 0.25947889E-01</totfact>
</mgrwt>
</event>
<event>
 4    1  0.2799069E-007  0.1094436E+04  0.7818608E-02  0.9267276E-01
          2   -1    0    0  501    0  0.00000000000E+00  0.00000000000E+00  0.20062273276E+04  0.20062273276E+04  0.25500000000E-02 0. -1.
         -2   -1    0    0    0  501 -0.00000000000E+00 -0.00000000000E+00 -0.63835760395E+03  0.63835760395E+03  0.25500000000E-02 0.  1.
    8880023    1    1    2    0    0 -0.73858487822E+03  0.46741083930E+03  0.10267720520E+03  0.10992421616E+04  0.65864270000E+03 0.  0.
    8880022    1    1    2    0    0  0.73858487822E+03 -0.46741083930E+03  0.12651925185E+04  0.15453427700E+04  0.15294330000E+03 0.  0.
<mgrwt>
<rscale>  0 0.10385212E+04</rscale>
<asrwt>0</asrwt>
<pdfrwt beam="1">  1        2 0.30865036E+00 0.10944363E+04</pdfrwt>
<pdfrwt beam="2">  1       -2 0.98208862E-01 0.10944363E+04</pdfrwt>
<totfact> 0.56566504E+00</totfact>
</mgrwt>
</event>
<event>
 4    1  0.2799069E-007  0.9284068E+03  0.7818608E-02  0.9481887E-01
          2   -1    0    0  501    0  0.00000000000E+00  0.00000000000E+00  0.80382611650E+03  0.80382611651E+03  0.25500000000E-02 0. -1.
         -2   -1    0    0    0  501 -0.00000000000E+00 -0.00000000000E+00 -0.87380905413E+03  0.87380905413E+03  0.25500000000E-02 0.  1.
    8880023    1    1    2    0    0  0.40044965480E+03 -0.51746403008E+03  0.20638186468E+03  0.95106920294E+03  0.65864270000E+03 0.  0.
    8880022    1    1    2    0    0 -0.40044965480E+03  0.51746403008E+03 -0.27636480230E+03  0.72656596770E+03  0.15294330000E+03 0.  0.
<mgrwt>
<rscale>  0 0.85632461E+03</rscale>
<asrwt>0</asrwt>
<pdfrwt beam="1">  1        2 0.12366556E+00 0.92840678E+03</pdfrwt>
<pdfrwt beam="2">  1       -2 0.13443216E+00 0.92840678E+03</pdfrwt>
<totfact> 0.13626353E+01</totfact>
</mgrwt>
</event>
<event>
 4    1  0.2799069E-007  0.6618387E+03  0.7818608E-02  0.1022347E+00
         -2   -1    0    0    0  501 -0.00000000000E+00  0.00000000000E+00  0.82454285883E+02  0.82454285922E+02  0.25500000000E-02 0.  1.
          2   -1    0    0  501    0  0.00000000000E+00 -0.00000000000E+00 -0.20814606345E+04  0.20814606345E+04  0.25500000000E-02 0. -1.
    8880023    1    1    2    0    0  0.57124516025E+02 -0.30935366013E+02 -0.16285448504E+04  0.17578932684E+04  0.65864270000E+03 0.  0.
    8880022    1    1    2    0    0 -0.57124516025E+02  0.30935366013E+02 -0.37046149821E+03  0.40602165197E+03  0.15294330000E+03 0. -1.
<mgrwt>
<rscale>  0 0.46849079E+03</rscale>
<asrwt>0</asrwt>
<pdfrwt beam="1">  1        2 0.32022467E+00 0.66183866E+03</pdfrwt>
<pdfrwt beam="2">  1       -2 0.12685276E-01 0.66183866E+03</pdfrwt>
<totfact> 0.28871538E+02</totfact>
</mgrwt>
</event>
<event>
 4    1  0.2799069E-007  0.8387475E+03  0.7818608E-02  0.9632546E-01
          2   -1    0    0  501    0  0.00000000000E+00  0.00000000000E+00  0.35520841534E+04  0.35520841534E+04  0.25500000000E-02 0. -1.
         -2   -1    0    0    0  501 -0.00000000000E+00 -0.00000000000E+00 -0.29950922981E+03  0.29950922982E+03  0.25500000000E-02 0.  1.
    8880023    1    1    2    0    0  0.37501205925E+03  0.35923961192E+03  0.36674399010E+03  0.91542258214E+03  0.65864270000E+03 0.  0.
    8880022    1    1    2    0    0 -0.37501205925E+03 -0.35923961192E+03  0.28858309335E+04  0.29361708011E+04  0.15294330000E+03 0.  0.
<mgrwt>
<rscale>  0 0.75178988E+03</rscale>
<asrwt>0</asrwt>
<pdfrwt beam="1">  1        2 0.54647447E+00 0.83874749E+03</pdfrwt>
<pdfrwt beam="2">  1       -2 0.46078344E-01 0.83874749E+03</pdfrwt>
<totfact> 0.35635350E+00</totfact>
</mgrwt>
</event>
<event>
 4    1  0.2799069E-007  0.7718289E+03  0.7818608E-02  0.9775393E-01
          2   -1    0    0  501    0  0.00000000000E+00  0.00000000000E+00  0.15095352168E+04  0.15095352168E+04  0.25500000000E-02 0. -1.
         -2   -1    0    0    0  501 -0.00000000000E+00 -0.00000000000E+00 -0.10018693656E+04  0.10018693656E+04  0.25500000000E-02 0.  1.
    8880023    1    1    2    0    0 -0.37492351018E+03 -0.14608885245E+03 -0.81379548900E+03  0.11215983664E+04  0.65864270000E+03 0.  1.
    8880022    1    1    2    0    0  0.37492351018E+03  0.14608885245E+03  0.13214613402E+04  0.13898062160E+04  0.15294330000E+03 0.  0.
<mgrwt>
<rscale>  0 0.66699957E+03</rscale>
<asrwt>0</asrwt>
<pdfrwt beam="1">  1        2 0.23223619E+00 0.77182887E+03</pdfrwt>
<pdfrwt beam="2">  1       -2 0.15413375E+00 0.77182887E+03</pdfrwt>
<totfact> 0.35763585E+00</totfact>
</mgrwt>
</event>
<event>
 4    1  0.2799069E-007  0.6627330E+03  0.7818608E-02  0.1021516E+00
          2   -1    0    0  501    0  0.00000000000E+00  0.00000000000E+00  0.23845027438E+04  0.23845027438E+04  0.25500000000E-02 0. -1.
         -2   -1    0    0    0  501 -0.00000000000E+00 -0.00000000000E+00 -0.41114468808E+03  0.41114468808E+03  0.25500000000E-02 0.  1.
    8880023    1    1    2    0    0  0.55834422251E+02 -0.47825901105E+02 -0.13844350927E+03  0.67703885490E+03  0.65864270000E+03 0.  1.
    8880022    1    1    2    0    0 -0.55834422251E+02  0.47825901105E+02  0.21118015649E+04  0.21186085769E+04  0.15294330000E+03 0.  0.
<mgrwt>
<rscale>  0 0.47143445E+03</rscale>
<asrwt>0</asrwt>
<pdfrwt beam="1">  1        2 0.36684658E+00 0.66273298E+03</pdfrwt>
<pdfrwt beam="2">  1       -2 0.63253029E-01 0.66273298E+03</pdfrwt>
<totfact> 0.99688566E+00</totfact>
</mgrwt>
</event>
<event>
 4    1  0.2799069E-007  0.7156858E+03  0.7818608E-02  0.9937463E-01
         -2   -1    0    0    0  501 -0.00000000000E+00  0.00000000000E+00  0.74914143334E+03  0.74914143335E+03  0.25500000000E-02 0.  1.
          2   -1    0    0  501    0  0.00000000000E+00 -0.00000000000E+00 -0.32875290240E+04  0.32875290240E+04  0.25500000000E-02 0. -1.
    8880023    1    1    2    0    0 -0.27933878458E+03  0.19127493795E+02  0.56815576840E+03  0.91378728434E+03  0.65864270000E+03 0.  1.
    8880022    1    1    2    0    0  0.27933878458E+03 -0.19127493795E+02 -0.31065433591E+04  0.31228831731E+04  0.15294330000E+03 0.  0.
<mgrwt>
<rscale>  0 0.58479509E+03</rscale>
<asrwt>0</asrwt>
<pdfrwt beam="1">  1        2 0.50577369E+00 0.71568584E+03</pdfrwt>
<pdfrwt beam="2">  1       -2 0.11525253E+00 0.71568584E+03</pdfrwt>
<totfact> 0.72501680E-01</totfact>
</mgrwt>
</event>
<event>
 4    1  0.2799069E-007  0.7597664E+03  0.7818608E-02  0.9805713E-01
          2   -1    0    0  501    0  0.00000000000E+00  0.00000000000E+00  0.18947783628E+04  0.18947783628E+04  0.25500000000E-02 0. -1.
         -2   -1    0    0    0  501 -0.00000000000E+00 -0.00000000000E+00 -0.69073034154E+03  0.69073034155E+03  0.25500000000E-02 0.  1.
    8880023    1    1    2    0    0 -0.35279955878E+03  0.13772178371E+03 -0.44915233552E+03  0.88260004824E+03  0.65864270000E+03 0.  1.
    8880022    1    1    2    0    0  0.35279955878E+03 -0.13772178371E+03  0.16532003567E+04  0.17029086561E+04  0.15294330000E+03 0.  0.
<mgrwt>
<rscale>  0 0.65056875E+03</rscale>
<asrwt>0</asrwt>
<pdfrwt beam="1">  1        2 0.29150436E+00 0.75976643E+03</pdfrwt>
<pdfrwt beam="2">  1       -2 0.10626621E+00 0.75976643E+03</pdfrwt>
<totfact> 0.56335584E+00</totfact>
</mgrwt>
</event>
<event>
 4    1  0.2799069E-007  0.7045832E+03  0.7818608E-02  0.9978694E-01
          2   -1    0    0  501    0  0.00000000000E+00  0.00000000000E+00  0.32069333152E+04  0.32069333152E+04  0.25500000000E-02 0. -1.
         -2   -1    0    0    0  501 -0.00000000000E+00 -0.00000000000E+00 -0.58393265615E+03  0.58393265615E+03  0.25500000000E-02 0.  1.
    8880023    1    1    2    0    0 -0.19477955349E+03 -0.15712463522E+03 -0.36155518933E+03  0.79193407973E+03  0.65864270000E+03 0.  1.
    8880022    1    1    2    0    0  0.19477955349E+03  0.15712463522E+03  0.29845558484E+04  0.29989318916E+04  0.15294330000E+03 0.  0.
<mgrwt>
<rscale>  0 0.56594394E+03</rscale>
<asrwt>0</asrwt>
<pdfrwt beam="1">  1        2 0.49337435E+00 0.70458316E+03</pdfrwt>
<pdfrwt beam="2">  1       -2 0.89835794E-01 0.70458316E+03</pdfrwt>
<totfact> 0.14804674E+00</totfact>
</mgrwt>
</event>
<event>
 4    1  0.2799069E-007  0.8107055E+03  0.7818608E-02  0.9688109E-01
          2   -1    0    0  501    0  0.00000000000E+00  0.00000000000E+00  0.22079542198E+04  0.22079542198E+04  0.25500000000E-02 0. -1.
         -2   -1    0    0    0  501 -0.00000000000E+00 -0.00000000000E+00 -0.10348233688E+04  0.10348233688E+04  0.25500000000E-02 0.  1.
    8880023    1    1    2    0    0 -0.45151320505E+03 -0.13988924941E+03 -0.84108845729E+03  0.11681922683E+04  0.65864270000E+03 0.  1.
    8880022    1    1    2    0    0  0.45151320505E+03  0.13988924941E+03  0.20142193083E+04  0.20745853203E+04  0.15294330000E+03 0.  0.
<mgrwt>
<rscale>  0 0.71729192E+03</rscale>
<asrwt>0</asrwt>
<pdfrwt beam="1">  1        2 0.33968526E+00 0.81070548E+03</pdfrwt>
<pdfrwt beam="2">  1       -2 0.15920360E+00 0.81070548E+03</pdfrwt>
<totfact> 0.13471094E+00</totfact>
</mgrwt>
</event>
<event>
 4    1  0.2799069E-007  0.1504228E+04  0.7818608E-02  0.8906656E-01
         -2   -1    0    0    0  501 -0.00000000000E+00  0.00000000000E+00  0.88698004513E+03  0.88698004513E+03  0.25500000000E-02 0.  1.
          2   -1    0    0  501    0  0.00000000000E+00 -0.00000000000E+00 -0.28089976805E+04  0.28089976805E+04  0.25500000000E-02 0. -1.
    8880023    1    1    2    0    0 -0.11997012249E+04  0.62418668721E+03 -0.22553170543E+03  0.15210413558E+04  0.65864270000E+03 0.  0.
    8880022    1    1    2    0    0  0.11997012249E+04 -0.62418668721E+03 -0.16964859299E+04  0.21749363699E+04  0.15294330000E+03 0.  0.
<mgrwt>
<rscale>  0 0.14670628E+04</rscale>
<asrwt>0</asrwt>
<pdfrwt beam="1">  1        2 0.43215349E+00 0.15042281E+04</pdfrwt>
<pdfrwt beam="2">  1       -2 0.13645847E+00 0.15042281E+04</pdfrwt>
<totfact> 0.83084121E-01</totfact>
</mgrwt>
</event>
<event>
 4    1  0.2799069E-007  0.7823238E+03  0.7818608E-02  0.9750406E-01
          2   -1    0    0  501    0  0.00000000000E+00  0.00000000000E+00  0.18168746360E+04  0.18168746360E+04  0.25500000000E-02 0. -1.
         -2   -1    0    0    0  501 -0.00000000000E+00 -0.00000000000E+00 -0.21108401448E+03  0.21108401449E+03  0.25500000000E-02 0.  1.
    8880023    1    1    2    0    0 -0.12800841276E+02 -0.42196731996E+03  0.11230863469E+04  0.13687050192E+04  0.65864270000E+03 0. -1.
    8880022    1    1    2    0    0  0.12800841276E+02  0.42196731996E+03  0.48270427458E+03  0.65925363129E+03  0.15294330000E+03 0.  1.
<mgrwt>
<rscale>  0 0.68093307E+03</rscale>
<asrwt>0</asrwt>
<pdfrwt beam="1">  1        2 0.27951916E+00 0.78232377E+03</pdfrwt>
<pdfrwt beam="2">  1       -2 0.32474466E-01 0.78232377E+03</pdfrwt>
<totfact> 0.76157291E+01</totfact>
</mgrwt>
</event>
<event>
 4    1  0.2799069E-007  0.1430881E+04  0.7818608E-02  0.8960052E-01
         -2   -1    0    0    0  501 -0.00000000000E+00  0.00000000000E+00  0.86295852415E+03  0.86295852416E+03  0.25500000000E-02 0.  1.
          2   -1    0    0  501    0  0.00000000000E+00 -0.00000000000E+00 -0.33947246664E+04  0.33947246664E+04  0.25500000000E-02 0. -1.
    8880023    1    1    2    0    0  0.69818506704E+03 -0.10612008208E+04 -0.11138119995E+02  0.14309241188E+04  0.65864270000E+03 0.  0.
    8880022    1    1    2    0    0 -0.69818506704E+03  0.10612008208E+04 -0.25206280222E+04  0.28267590717E+04  0.15294330000E+03 0.  0.
<mgrwt>
<rscale>  0 0.13914215E+04</rscale>
<asrwt>0</asrwt>
<pdfrwt beam="1">  1        2 0.52226533E+00 0.14308808E+04</pdfrwt>
<pdfrwt beam="2">  1       -2 0.13276285E+00 0.14308808E+04</pdfrwt>
<totfact> 0.38102429E-01</totfact>
</mgrwt>
</event>
<event>
 4    1  0.2799069E-007  0.7538909E+03  0.7818608E-02  0.9821188E-01
         -2   -1    0    0    0  501 -0.00000000000E+00  0.00000000000E+00  0.18793841491E+04  0.18793841491E+04  0.25500000000E-02 0.  1.
          2   -1    0    0  501    0  0.00000000000E+00 -0.00000000000E+00 -0.14484453695E+04  0.14484453695E+04  0.25500000000E-02 0. -1.
    8880023    1    1    2    0    0 -0.33468769262E+03 -0.15008476156E+03  0.17738198886E+04  0.19273786578E+04  0.65864270000E+03 0.  1.
    8880022    1    1    2    0    0  0.33468769262E+03  0.15008476156E+03 -0.13428811090E+04  0.14004508607E+04  0.15294330000E+03 0.  0.
<mgrwt>
<rscale>  0 0.64237772E+03</rscale>
<asrwt>0</asrwt>
<pdfrwt beam="1">  1        2 0.22283775E+00 0.75389090E+03</pdfrwt>
<pdfrwt beam="2">  1       -2 0.28913602E+00 0.75389090E+03</pdfrwt>
<totfact> 0.52806607E-01</totfact>
</mgrwt>
</event>
<event>
 4    1  0.2799069E-007  0.8595347E+03  0.7818608E-02  0.9594392E-01
          2   -1    0    0  501    0  0.00000000000E+00  0.00000000000E+00  0.14630785436E+04  0.14630785436E+04  0.25500000000E-02 0. -1.
         -2   -1    0    0    0  501 -0.00000000000E+00 -0.00000000000E+00 -0.11006872965E+04  0.11006872965E+04  0.25500000000E-02 0.  1.
    8880023    1    1    2    0    0  0.45054325249E+03  0.31937512090E+03 -0.85865172574E+03  0.12149414318E+04  0.65864270000E+03 0.  0.
    8880022    1    1    2    0    0 -0.45054325249E+03 -0.31937512090E+03  0.12210429728E+04  0.13488244084E+04  0.15294330000E+03 0.  0.
<mgrwt>
<rscale>  0 0.77668491E+03</rscale>
<asrwt>0</asrwt>
<pdfrwt beam="1">  1        2 0.22508901E+00 0.85953470E+03</pdfrwt>
<pdfrwt beam="2">  1       -2 0.16933651E+00 0.85953470E+03</pdfrwt>
<totfact> 0.29006443E+00</totfact>
</mgrwt>
</event>
<event>
 4    1  0.2799069E-007  0.9076479E+03  0.7818608E-02  0.9513864E-01
         -2   -1    0    0    0  501 -0.00000000000E+00  0.00000000000E+00  0.17146534902E+04  0.17146534902E+04  0.25500000000E-02 0.  1.
          2   -1    0    0  501    0  0.00000000000E+00 -0.00000000000E+00 -0.13200182496E+04  0.13200182496E+04  0.25500000000E-02 0. -1.
    8880023    1    1    2    0    0 -0.31533252822E+03  0.53905465228E+03  0.15015550581E+04  0.17545632847E+04  0.65864270000E+03 0.  0.
    8880022    1    1    2    0    0  0.31533252822E+03 -0.53905465228E+03 -0.11069198174E+04  0.12801084551E+04  0.15294330000E+03 0.  0.
<mgrwt>
<rscale>  0 0.83269351E+03</rscale>
<asrwt>0</asrwt>
<pdfrwt beam="1">  1        2 0.20307973E+00 0.90764791E+03</pdfrwt>
<pdfrwt beam="2">  1       -2 0.26379284E+00 0.90764791E+03</pdfrwt>
<totfact> 0.86252016E-01</totfact>
</mgrwt>
</event>
<event>
 4    1  0.2799069E-007  0.8450392E+03  0.7818608E-02  0.9620751E-01
          2   -1    0    0  501    0  0.00000000000E+00  0.00000000000E+00  0.18003233301E+04  0.18003233301E+04  0.25500000000E-02 0. -1.
         -2   -1    0    0    0  501 -0.00000000000E+00 -0.00000000000E+00 -0.34084525128E+03  0.34084525129E+03  0.25500000000E-02 0.  1.
    8880023    1    1    2    0    0 -0.50687180788E+03  0.15284650686E+03  0.37458073862E+03  0.92433869350E+03  0.65864270000E+03 0.  0.
    8880022    1    1    2    0    0  0.50687180788E+03 -0.15284650686E+03  0.10848973402E+04  0.12168298879E+04  0.15294330000E+03 0.  0.
<mgrwt>
<rscale>  0 0.75937864E+03</rscale>
<asrwt>0</asrwt>
<pdfrwt beam="1">  1        2 0.27697283E+00 0.84503922E+03</pdfrwt>
<pdfrwt beam="2">  1       -2 0.52437729E-01 0.84503922E+03</pdfrwt>
<totfact> 0.30112120E+01</totfact>
</mgrwt>
</event>
<event>
 4    1  0.2799069E-007  0.6836565E+03  0.7818608E-02  0.1007327E+00
         -2   -1    0    0    0  501 -0.00000000000E+00  0.00000000000E+00  0.74687730998E+03  0.74687730998E+03  0.25500000000E-02 0.  1.
          2   -1    0    0  501    0  0.00000000000E+00 -0.00000000000E+00 -0.22897919656E+04  0.22897919656E+04  0.25500000000E-02 0. -1.
    8880023    1    1    2    0    0  0.31874224401E+02 -0.18044404784E+03  0.58233830441E+03  0.89805574862E+03  0.65864270000E+03 0.  1.
    8880022    1    1    2    0    0 -0.31874224401E+02  0.18044404784E+03 -0.21252529600E+04  0.21386135269E+04  0.15294330000E+03 0.  0.
<mgrwt>
<rscale>  0 0.52551126E+03</rscale>
<asrwt>0</asrwt>
<pdfrwt beam="1">  1        2 0.35227568E+00 0.68365651E+03</pdfrwt>
<pdfrwt beam="2">  1       -2 0.11490420E+00 0.68365651E+03</pdfrwt>
<totfact> 0.28716883E+00</totfact>
</mgrwt>
</event>
<event>
 4    1  0.3112848E-007  0.1299949E+04  0.7818608E-02  0.9065604E-01
          2   -1    0    0  501    0  0.00000000000E+00  0.00000000000E+00  0.20935875021E+04  0.20935875021E+04  0.25500000000E-02 0. -1.
         -2   -1    0    0    0  501 -0.00000000000E+00 -0.00000000000E+00 -0.20005422549E+04  0.20005422549E+04  0.25500000000E-02 0.  1.
    8880023    1    1    2    0    0  0.11078536351E+04  0.16946542053E+03 -0.15978051314E+04  0.20598178681E+04  0.65864270000E+03 0.  1.
    8880022    1    1    2    0    0 -0.11078536351E+04 -0.16946542053E+03  0.16908503785E+04  0.20343118889E+04  0.15294330000E+03 0.  0.
<mgrwt>
<rscale>  0 0.12555174E+04</rscale>
<asrwt>0</asrwt>
<pdfrwt beam="1">  1        2 0.32209038E+00 0.12999494E+04</pdfrwt>
<pdfrwt beam="2">  1       -2 0.30777573E+00 0.12999494E+04</pdfrwt>
<totfact> 0.16256641E-01</totfact>
</mgrwt>
</event>
<event>
 4    1  0.2799069E-007  0.7685658E+03  0.7818608E-02  0.9783416E-01
         -2   -1    0    0    0  501 -0.00000000000E+00  0.00000000000E+00  0.47248286722E+03  0.47248286723E+03  0.25500000000E-02 0.  1.
          2   -1    0    0  501    0  0.00000000000E+00 -0.00000000000E+00 -0.37831803594E+04  0.37831803594E+04  0.25500000000E-02 0. -1.
    8880023    1    1    2    0    0  0.36360967010E+03 -0.15707043046E+03  0.13806038084E+03  0.78086745824E+03  0.65864270000E+03 0.  1.
    8880022    1    1    2    0    0 -0.36360967010E+03  0.15707043046E+03 -0.34487578730E+04  0.34747957684E+04  0.15294330000E+03 0.  0.
<mgrwt>
<rscale>  0 0.66260184E+03</rscale>
<asrwt>0</asrwt>
<pdfrwt beam="1">  1        2 0.58202773E+00 0.76856575E+03</pdfrwt>
<pdfrwt beam="2">  1       -2 0.72689674E-01 0.76856575E+03</pdfrwt>
<totfact> 0.94931633E-01</totfact>
</mgrwt>
</event>
<event>
 4    1  0.2799069E-007  0.1106197E+04  0.7818608E-02  0.9254188E-01
         -2   -1    0    0    0  501 -0.00000000000E+00  0.00000000000E+00  0.57768100402E+03  0.57768100402E+03  0.25500000000E-02 0.  1.
          2   -1    0    0  501    0  0.00000000000E+00 -0.00000000000E+00 -0.22253366140E+04  0.22253366140E+04  0.25500000000E-02 0. -1.
    8880023    1    1    2    0    0 -0.88687821539E+03 -0.57512564601E+02 -0.24105537136E+03  0.11321565980E+04  0.65864270000E+03 0.  0.
    8880022    1    1    2    0    0  0.88687821539E+03  0.57512564601E+02 -0.14066002386E+04  0.16708610201E+04  0.15294330000E+03 0.  0.
<mgrwt>
<rscale>  0 0.10511202E+04</rscale>
<asrwt>0</asrwt>
<pdfrwt beam="1">  1        2 0.34235947E+00 0.11061966E+04</pdfrwt>
<pdfrwt beam="2">  1       -2 0.88874002E-01 0.11061966E+04</pdfrwt>
<totfact> 0.53935089E+00</totfact>
</mgrwt>
</event>
<event>
 4    1  0.2799069E-007  0.1178146E+04  0.7818608E-02  0.9178664E-01
          2   -1    0    0  501    0  0.00000000000E+00  0.00000000000E+00  0.17406232569E+04  0.17406232569E+04  0.25500000000E-02 0. -1.
         -2   -1    0    0    0  501 -0.00000000000E+00 -0.00000000000E+00 -0.97939447967E+03  0.97939447968E+03  0.25500000000E-02 0.  1.
    8880023    1    1    2    0    0  0.27162396589E+03  0.93831650173E+03 -0.35343992596E+03  0.12300192778E+04  0.65864270000E+03 0.  0.
    8880022    1    1    2    0    0 -0.27162396589E+03 -0.93831650173E+03  0.11146687032E+04  0.14899984587E+04  0.15294330000E+03 0.  0.
<mgrwt>
<rscale>  0 0.11276386E+04</rscale>
<asrwt>0</asrwt>
<pdfrwt beam="1">  1        2 0.26778819E+00 0.11781458E+04</pdfrwt>
<pdfrwt beam="2">  1       -2 0.15067607E+00 0.11781458E+04</pdfrwt>
<totfact> 0.26857854E+00</totfact>
</mgrwt>
</event>
<event>
 4    1  0.2799069E-007  0.7948551E+03  0.7818608E-02  0.9722033E-01
         -2   -1    0    0    0  501 -0.00000000000E+00  0.00000000000E+00  0.54533773615E+03  0.54533773616E+03  0.25500000000E-02 0.  1.
          2   -1    0    0  501    0  0.00000000000E+00 -0.00000000000E+00 -0.11445619360E+04  0.11445619360E+04  0.25500000000E-02 0. -1.
    8880023    1    1    2    0    0  0.34837979127E+03 -0.27679591872E+03  0.14641032461E+03  0.80822685491E+03  0.65864270000E+03 0.  1.
    8880022    1    1    2    0    0 -0.34837979127E+03  0.27679591872E+03 -0.74563452441E+03  0.88167281720E+03  0.15294330000E+03 0.  0.
<mgrwt>
<rscale>  0 0.69719992E+03</rscale>
<asrwt>0</asrwt>
<pdfrwt beam="1">  1        2 0.17608645E+00 0.79485512E+03</pdfrwt>
<pdfrwt beam="2">  1       -2 0.83898113E-01 0.79485512E+03</pdfrwt>
<totfact> 0.25734152E+01</totfact>
</mgrwt>
</event>
<event>
 4    1  0.2799069E-007  0.7064245E+03  0.7818608E-02  0.9971526E-01
         -2   -1    0    0    0  501 -0.00000000000E+00  0.00000000000E+00  0.25096502343E+03  0.25096502344E+03  0.25500000000E-02 0.  1.
          2   -1    0    0  501    0  0.00000000000E+00 -0.00000000000E+00 -0.21375886606E+04  0.21375886606E+04  0.25500000000E-02 0. -1.
    8880023    1    1    2    0    0  0.25143886320E+03  0.44764599832E+02 -0.28870438713E+03  0.76314205803E+03  0.65864270000E+03 0.  1.
    8880022    1    1    2    0    0 -0.25143886320E+03 -0.44764599832E+02 -0.15979192501E+04  0.16254116260E+04  0.15294330000E+03 0.  0.
<mgrwt>
<rscale>  0 0.56916602E+03</rscale>
<asrwt>0</asrwt>
<pdfrwt beam="1">  1        2 0.32885978E+00 0.70642450E+03</pdfrwt>
<pdfrwt beam="2">  1       -2 0.38610005E-01 0.70642450E+03</pdfrwt>
<totfact> 0.36908255E+01</totfact>
</mgrwt>
</event>
<event>
 4    1  0.2799069E-007  0.1115571E+04  0.7818608E-02  0.9243915E-01
          2   -1    0    0  501    0  0.00000000000E+00  0.00000000000E+00  0.24399384612E+04  0.24399384612E+04  0.25500000000E-02 0. -1.
         -2   -1    0    0    0  501 -0.00000000000E+00 -0.00000000000E+00 -0.89583870306E+03  0.89583870306E+03  0.25500000000E-02 0.  1.
    8880023    1    1    2    0    0  0.89941364682E+03 -0.41751342088E+02 -0.40219678537E+03  0.11858585679E+04  0.65864270000E+03 0.  0.
    8880022    1    1    2    0    0 -0.89941364682E+03  0.41751342088E+02  0.19462965435E+04  0.21499185963E+04  0.15294330000E+03 0.  0.
<mgrwt>
<rscale>  0 0.10611427E+04</rscale>
<asrwt>0</asrwt>
<pdfrwt beam="1">  1        2 0.37537514E+00 0.11155708E+04</pdfrwt>
<pdfrwt beam="2">  1       -2 0.13782134E+00 0.11155708E+04</pdfrwt>
<totfact> 0.13947872E+00</totfact>
</mgrwt>
</event>
<event>
 4    1  0.2799069E-007  0.1258276E+04  0.7818608E-02  0.9102456E-01
         -2   -1    0    0    0  501 -0.00000000000E+00  0.00000000000E+00  0.28137147882E+04  0.28137147882E+04  0.25500000000E-02 0.  1.
          2   -1    0    0  501    0  0.00000000000E+00 -0.00000000000E+00 -0.69435879078E+03  0.69435879079E+03  0.25500000000E-02 0. -1.
    8880023    1    1    2    0    0 -0.78239215766E+02 -0.10692642579E+04  0.20719068327E+04  0.24240576638E+04  0.65864270000E+03 0.  0.
    8880022    1    1    2    0    0  0.78239215766E+02  0.10692642579E+04  0.47449164721E+02  0.10840159151E+04  0.15294330000E+03 0.  0.
<mgrwt>
<rscale>  0 0.12119554E+04</rscale>
<asrwt>0</asrwt>
<pdfrwt beam="1">  1        2 0.10682443E+00 0.12582757E+04</pdfrwt>
<pdfrwt beam="2">  1       -2 0.43287920E+00 0.12582757E+04</pdfrwt>
<totfact> 0.18331599E-01</totfact>
</mgrwt>
</event>
<event>
 4    1  0.2799069E-007  0.7029816E+03  0.7818608E-02  0.9985050E-01
         -2   -1    0    0    0  501 -0.00000000000E+00  0.00000000000E+00  0.65990689890E+03  0.65990689890E+03  0.25500000000E-02 0.  1.
          2   -1    0    0  501    0  0.00000000000E+00 -0.00000000000E+00 -0.26414528204E+04  0.26414528204E+04  0.25500000000E-02 0. -1.
    8880023    1    1    2    0    0 -0.19387705589E+03 -0.15094563063E+03  0.46169379711E+03  0.84103761197E+03  0.65864270000E+03 0.  1.
    8880022    1    1    2    0    0  0.19387705589E+03  0.15094563063E+03 -0.24432397186E+04  0.24603221073E+04  0.15294330000E+03 0.  0.
<mgrwt>
<rscale>  0 0.56310644E+03</rscale>
<asrwt>0</asrwt>
<pdfrwt beam="1">  1        2 0.40637735E+00 0.70298158E+03</pdfrwt>
<pdfrwt beam="2">  1       -2 0.10152414E+00 0.70298158E+03</pdfrwt>
<totfact> 0.24415694E+00</totfact>
</mgrwt>
</event>
<event>
 4    1  0.2799069E-007  0.7283308E+03  0.7818608E-02  0.9895344E-01
         -2   -1    0    0    0  501 -0.00000000000E+00  0.00000000000E+00  0.11993569537E+03  0.11993569540E+03  0.25500000000E-02 0.  1.
          2   -1    0    0  501    0  0.00000000000E+00 -0.00000000000E+00 -0.25692518792E+04  0.25692518792E+04  0.25500000000E-02 0. -1.
    8880023    1    1    2    0    0  0.25175781965E+03  0.18241047227E+03 -0.13161253355E+04  0.15042113167E+04  0.65864270000E+03 0.  0.
    8880022    1    1    2    0    0 -0.25175781965E+03 -0.18241047227E+03 -0.11331908483E+04  0.11849762579E+04  0.15294330000E+03 0.  1.
<mgrwt>
<rscale>  0 0.60487486E+03</rscale>
<asrwt>0</asrwt>
<pdfrwt beam="1">  1        2 0.39526948E+00 0.72833082E+03</pdfrwt>
<pdfrwt beam="2">  1       -2 0.18451647E-01 0.72833082E+03</pdfrwt>
<totfact> 0.81323056E+01</totfact>
</mgrwt>
</event>
<event>
 4    1  0.2799069E-007  0.1160684E+04  0.7818608E-02  0.9196321E-01
         -2   -1    0    0    0  501 -0.00000000000E+00  0.00000000000E+00  0.15526411258E+04  0.15526411258E+04  0.25500000000E-02 0.  1.
          2   -1    0    0  501    0  0.00000000000E+00 -0.00000000000E+00 -0.16035497298E+04  0.16035497298E+04  0.25500000000E-02 0. -1.
    8880023    1    1    2    0    0 -0.60259770001E+03  0.74179114659E+03  0.11363976048E+04  0.16243730531E+04  0.65864270000E+03 0.  1.
    8880022    1    1    2    0    0  0.60259770001E+03 -0.74179114659E+03 -0.11873062089E+04  0.15318178025E+04  0.15294330000E+03 0.  0.
<mgrwt>
<rscale>  0 0.11091486E+04</rscale>
<asrwt>0</asrwt>
<pdfrwt beam="1">  1        2 0.24669996E+00 0.11606844E+04</pdfrwt>
<pdfrwt beam="2">  1       -2 0.23886787E+00 0.11606844E+04</pdfrwt>
<totfact> 0.81554521E-01</totfact>
</mgrwt>
</event>
<event>
 4    1  0.2799069E-007  0.1613468E+04  0.7818608E-02  0.8833408E-01
          2   -1    0    0  501    0  0.00000000000E+00  0.00000000000E+00  0.41014704307E+04  0.41014704307E+04  0.25500000000E-02 0. -1.
         -2   -1    0    0    0  501 -0.00000000000E+00 -0.00000000000E+00 -0.14633985093E+04  0.14633985093E+04  0.25500000000E-02 0.  1.
    8880023    1    1    2    0    0  0.12072354181E+04 -0.84383079651E+03 -0.81503182817E+03  0.18076379214E+04  0.65864270000E+03 0.  0.
    8880022    1    1    2    0    0 -0.12072354181E+04  0.84383079651E+03  0.34531037497E+04  0.37572310186E+04  0.15294330000E+03 0.  0.
<mgrwt>
<rscale>  0 0.15792342E+04</rscale>
<asrwt>0</asrwt>
<pdfrwt beam="1">  1        2 0.63099544E+00 0.16134677E+04</pdfrwt>
<pdfrwt beam="2">  1       -2 0.22513823E+00 0.16134677E+04</pdfrwt>
<totfact> 0.24330559E-02</totfact>
</mgrwt>
</event>
<event>
 4    1  0.2799069E-007  0.1024224E+04  0.7818608E-02  0.9350530E-01
         -2   -1    0    0    0  501 -0.00000000000E+00  0.00000000000E+00  0.17035396210E+04  0.17035396210E+04  0.25500000000E-02 0.  1.
          2   -1    0    0  501    0  0.00000000000E+00 -0.00000000000E+00 -0.96499662883E+03  0.96499662883E+03  0.25500000000E-02 0. -1.
    8880023    1    1    2    0    0 -0.53028965556E+03  0.57794247273E+03  0.13268709609E+04  0.16761925229E+04  0.65864270000E+03 0.  1.
    8880022    1    1    2    0    0  0.53028965556E+03 -0.57794247273E+03 -0.58832796875E+03  0.99234372694E+03  0.15294330000E+03 0.  0.
<mgrwt>
<rscale>  0 0.96261187E+03</rscale>
<asrwt>0</asrwt>
<pdfrwt beam="1">  1        2 0.14846102E+00 0.10242240E+04</pdfrwt>
<pdfrwt beam="2">  1       -2 0.26208302E+00 0.10242240E+04</pdfrwt>
<totfact> 0.14312888E+00</totfact>
</mgrwt>
</event>
<event>
 4    1  0.2799069E-007  0.6704243E+03  0.7818608E-02  0.1015361E+00
         -2   -1    0    0    0  501 -0.00000000000E+00  0.00000000000E+00  0.54791503408E+03  0.54791503409E+03  0.25500000000E-02 0.  1.
          2   -1    0    0  501    0  0.00000000000E+00 -0.00000000000E+00 -0.35122328957E+03  0.35122328958E+03  0.25500000000E-02 0. -1.
    8880023    1    1    2    0    0 -0.73392825135E+02  0.10135093068E+03  0.20584971332E+03  0.70131507090E+03  0.65864270000E+03 0. -1.
    8880022    1    1    2    0    0  0.73392825135E+02 -0.10135093068E+03 -0.91579688029E+01  0.19782325277E+03  0.15294330000E+03 0.  1.
<mgrwt>
<rscale>  0 0.49398660E+03</rscale>
<asrwt>0</asrwt>
<pdfrwt beam="1">  1        2 0.54034352E-01 0.67042429E+03</pdfrwt>
<pdfrwt beam="2">  1       -2 0.84294621E-01 0.67042429E+03</pdfrwt>
<totfact> 0.11459056E+02</totfact>
</mgrwt>
</event>
<event>
 4    1  0.2799069E-007  0.1426915E+04  0.7818608E-02  0.8963046E-01
         -2   -1    0    0    0  501 -0.00000000000E+00  0.00000000000E+00  0.99831408648E+03  0.99831408648E+03  0.25500000000E-02 0.  1.
          2   -1    0    0  501    0  0.00000000000E+00 -0.00000000000E+00 -0.24830657217E+04  0.24830657217E+04  0.25500000000E-02 0. -1.
    8880023    1    1    2    0    0 -0.11904486079E+04 -0.43024365178E+03  0.11979049142E+03  0.14319348645E+04  0.65864270000E+03 0.  0.
    8880022    1    1    2    0    0  0.11904486079E+04  0.43024365178E+03 -0.16045421266E+04  0.20494449437E+04  0.15294330000E+03 0.  0.
<mgrwt>
<rscale>  0 0.13873234E+04</rscale>
<asrwt>0</asrwt>
<pdfrwt beam="1">  1        2 0.38201011E+00 0.14269154E+04</pdfrwt>
<pdfrwt beam="2">  1       -2 0.15358678E+00 0.14269154E+04</pdfrwt>
<totfact> 0.95328584E-01</totfact>
</mgrwt>
</event>
<event>
 4    1  0.2799069E-007  0.7764809E+03  0.7818608E-02  0.9764169E-01
         -2   -1    0    0    0  501 -0.00000000000E+00  0.00000000000E+00  0.23676684220E+04  0.23676684220E+04  0.25500000000E-02 0.  1.
          2   -1    0    0  501    0  0.00000000000E+00 -0.00000000000E+00 -0.33758547803E+03  0.33758547804E+03  0.25500000000E-02 0. -1.
    8880023    1    1    2    0    0 -0.12791845121E+03  0.39083150682E+03  0.21196989997E+04  0.22574424583E+04  0.65864270000E+03 0.  1.
    8880022    1    1    2    0    0  0.12791845121E+03 -0.39083150682E+03 -0.89616055752E+02  0.44781144173E+03  0.15294330000E+03 0.  0.
<mgrwt>
<rscale>  0 0.67321389E+03</rscale>
<asrwt>0</asrwt>
<pdfrwt beam="1">  1        2 0.51936228E-01 0.77648091E+03</pdfrwt>
<pdfrwt beam="2">  1       -2 0.36425668E+00 0.77648091E+03</pdfrwt>
<totfact> 0.12779543E+00</totfact>
</mgrwt>
</event>
<event>
 4    1  0.2799069E-007  0.1279349E+04  0.7818608E-02  0.9083602E-01
          2   -1    0    0  501    0  0.00000000000E+00  0.00000000000E+00  0.23419707887E+04  0.23419707887E+04  0.25500000000E-02 0. -1.
         -2   -1    0    0    0  501 -0.00000000000E+00 -0.00000000000E+00 -0.65870147332E+03  0.65870147333E+03  0.25500000000E-02 0.  1.
    8880023    1    1    2    0    0 -0.99701109916E+02  0.10922375595E+04  0.13124913031E+04  0.18328575571E+04  0.65864270000E+03 0.  0.
    8880022    1    1    2    0    0  0.99701109916E+02 -0.10922375595E+04  0.37077801235E+03  0.11678147050E+04  0.15294330000E+03 0.  0.
<mgrwt>
<rscale>  0 0.12340052E+04</rscale>
<asrwt>0</asrwt>
<pdfrwt beam="1">  1        2 0.36030320E+00 0.12793488E+04</pdfrwt>
<pdfrwt beam="2">  1       -2 0.10133869E+00 0.12793488E+04</pdfrwt>
<totfact> 0.33417723E+00</totfact>
</mgrwt>
</event>
<event>
 4    1  0.2799069E-007  0.1551146E+04  0.7818608E-02  0.8874340E-01
          2   -1    0    0  501    0  0.00000000000E+00  0.00000000000E+00  0.19725011264E+04  0.19725011264E+04  0.25500000000E-02 0. -1.
         -2   -1    0    0    0  501 -0.00000000000E+00 -0.00000000000E+00 -0.13448777310E+04  0.13448777310E+04  0.25500000000E-02 0.  1.
    8880023    1    1    2    0    0  0.89297436824E+03 -0.10839001373E+04 -0.36167103823E+03  0.15927519820E+04  0.65864270000E+03 0.  0.
    8880022    1    1    2    0    0 -0.89297436824E+03  0.10839001373E+04  0.98929443367E+03  0.17246268754E+04  0.15294330000E+03 0.  0.
<mgrwt>
<rscale>  0 0.15153033E+04</rscale>
<asrwt>0</asrwt>
<pdfrwt beam="1">  1        2 0.30346171E+00 0.15511457E+04</pdfrwt>
<pdfrwt beam="2">  1       -2 0.20690427E+00 0.15511457E+04</pdfrwt>
<totfact> 0.77530954E-01</totfact>
</mgrwt>
</event>
<event>
 4    1  0.2799069E-007  0.7159023E+03  0.7818608E-02  0.9936703E-01
         -2   -1    0    0    0  501 -0.00000000000E+00  0.00000000000E+00  0.80706456760E+02  0.80706456801E+02  0.25500000000E-02 0.  1.
          2   -1    0    0  501    0  0.00000000000E+00 -0.00000000000E+00 -0.38509167248E+04  0.38509167248E+04  0.25500000000E-02 0. -1.
    8880023    1    1    2    0    0  0.27537917090E+03  0.53592543962E+02 -0.18258745154E+04  0.19612072305E+04  0.65864270000E+03 0.  1.
    8880022    1    1    2    0    0 -0.27537917090E+03 -0.53592543962E+02 -0.19443357526E+04  0.19704159511E+04  0.15294330000E+03 0.  0.
<mgrwt>
<rscale>  0 0.58514998E+03</rscale>
<asrwt>0</asrwt>
<pdfrwt beam="1">  1        2 0.59244858E+00 0.71590227E+03</pdfrwt>
<pdfrwt beam="2">  1       -2 0.12416381E-01 0.71590227E+03</pdfrwt>
<totfact> 0.23742079E+01</totfact>
</mgrwt>
</event>
<event>
 4    1  0.2799069E-007  0.1275614E+04  0.7818608E-02  0.9086910E-01
          2   -1    0    0  501    0  0.00000000000E+00  0.00000000000E+00  0.15126501463E+04  0.15126501463E+04  0.25500000000E-02 0. -1.
         -2   -1    0    0    0  501 -0.00000000000E+00 -0.00000000000E+00 -0.99782455465E+03  0.99782455466E+03  0.25500000000E-02 0.  1.
    8880023    1    1    2    0    0  0.53237367756E+03 -0.95391784868E+03  0.58874992106E+03  0.14049262153E+04  0.65864270000E+03 0.  0.
    8880022    1    1    2    0    0 -0.53237367756E+03  0.95391784868E+03 -0.73924329441E+02  0.11055484856E+04  0.15294330000E+03 0.  0.
<mgrwt>
<rscale>  0 0.12301007E+04</rscale>
<asrwt>0</asrwt>
<pdfrwt beam="1">  1        2 0.23271541E+00 0.12756140E+04</pdfrwt>
<pdfrwt beam="2">  1       -2 0.15351147E+00 0.12756140E+04</pdfrwt>
<totfact> 0.33939605E+00</totfact>
</mgrwt>
</event>
<event>
 4    1  0.2799069E-007  0.1681986E+04  0.7818608E-02  0.8790789E-01
          2   -1    0    0  501    0  0.00000000000E+00  0.00000000000E+00  0.16509471779E+04  0.16509471779E+04  0.25500000000E-02 0. -1.
         -2   -1    0    0    0  501 -0.00000000000E+00 -0.00000000000E+00 -0.20175958320E+04  0.20175958320E+04  0.25500000000E-02 0.  1.
    8880023    1    1    2    0    0 -0.11600532916E+04 -0.10244717339E+04 -0.10359682937E+04  0.19754256465E+04  0.65864270000E+03 0.  0.
    8880022    1    1    2    0    0  0.11600532916E+04  0.10244717339E+04  0.66931963964E+03  0.16931173634E+04  0.15294330000E+03 0.  0.
<mgrwt>
<rscale>  0 0.16493527E+04</rscale>
<asrwt>0</asrwt>
<pdfrwt beam="1">  1        2 0.25399188E+00 0.16819858E+04</pdfrwt>
<pdfrwt beam="2">  1       -2 0.31039936E+00 0.16819858E+04</pdfrwt>
<totfact> 0.26419944E-01</totfact>
</mgrwt>
</event>
<event>
 4    1  0.2799069E-007  0.7861096E+03  0.7818608E-02  0.9741676E-01
          2   -1    0    0  501    0  0.00000000000E+00  0.00000000000E+00  0.12838393492E+04  0.12838393492E+04  0.25500000000E-02 0. -1.
         -2   -1    0    0    0  501 -0.00000000000E+00 -0.00000000000E+00 -0.53892554569E+03  0.53892554570E+03  0.25500000000E-02 0.  1.
    8880023    1    1    2    0    0 -0.79580189477E+02  0.42169308166E+03 -0.16675684403E+03  0.80360196177E+03  0.65864270000E+03 0.  1.
    8880022    1    1    2    0    0  0.79580189477E+02 -0.42169308166E+03  0.91167064755E+03  0.10191629331E+04  0.15294330000E+03 0.  0.
<mgrwt>
<rscale>  0 0.68588702E+03</rscale>
<asrwt>0</asrwt>
<pdfrwt beam="1">  1        2 0.19751375E+00 0.78610958E+03</pdfrwt>
<pdfrwt beam="2">  1       -2 0.82911621E-01 0.78610958E+03</pdfrwt>
<totfact> 0.21890739E+01</totfact>
</mgrwt>
</event>
<event>
 4    1  0.2799069E-007  0.7651424E+03  0.7818608E-02  0.9791972E-01
         -2   -1    0    0    0  501 -0.00000000000E+00  0.00000000000E+00  0.36117485565E+03  0.36117485566E+03  0.25500000000E-02 0.  1.
          2   -1    0    0  501    0  0.00000000000E+00 -0.00000000000E+00 -0.22406820794E+04  0.22406820794E+04  0.25500000000E-02 0. -1.
    8880023    1    1    2    0    0 -0.35878630562E+03  0.15134432893E+03 -0.97417257824E+02  0.77131903087E+03  0.65864270000E+03 0.  1.
    8880022    1    1    2    0    0  0.35878630562E+03 -0.15134432893E+03 -0.17820899659E+04  0.18305379042E+04  0.15294330000E+03 0.  0.
<mgrwt>
<rscale>  0 0.65795172E+03</rscale>
<asrwt>0</asrwt>
<pdfrwt beam="1">  1        2 0.34472031E+00 0.76514242E+03</pdfrwt>
<pdfrwt beam="2">  1       -2 0.55565364E-01 0.76514242E+03</pdfrwt>
<totfact> 0.15474656E+01</totfact>
</mgrwt>
</event>
<event>
 4    1  0.2799069E-007  0.1331535E+04  0.7818608E-02  0.9038795E-01
          2   -1    0    0  501    0  0.00000000000E+00  0.00000000000E+00  0.37696305815E+04  0.37696305815E+04  0.25500000000E-02 0. -1.
         -2   -1    0    0    0  501 -0.00000000000E+00 -0.00000000000E+00 -0.54871771016E+03  0.54871771017E+03  0.25500000000E-02 0.  1.
    8880023    1    1    2    0    0  0.76728509634E+03  0.86628378613E+03  0.62265574536E+03  0.14699266651E+04  0.65864270000E+03 0.  1.
    8880022    1    1    2    0    0 -0.76728509634E+03 -0.86628378613E+03  0.25982571260E+04  0.28484216266E+04  0.15294330000E+03 0.  0.
<mgrwt>
<rscale>  0 0.12884246E+04</rscale>
<asrwt>0</asrwt>
<pdfrwt beam="1">  1        2 0.57994315E+00 0.13315345E+04</pdfrwt>
<pdfrwt beam="2">  1       -2 0.84418112E-01 0.13315345E+04</pdfrwt>
<totfact> 0.62778422E-01</totfact>
</mgrwt>
</event>
<event>
 4    1  0.2799069E-007  0.1066722E+04  0.7818608E-02  0.9299044E-01
         -2   -1    0    0    0  501 -0.00000000000E+00  0.00000000000E+00  0.10350881659E+04  0.10350881659E+04  0.25500000000E-02 0.  1.
          2   -1    0    0  501    0  0.00000000000E+00 -0.00000000000E+00 -0.32974617153E+04  0.32974617153E+04  0.25500000000E-02 0. -1.
    8880023    1    1    2    0    0 -0.59666510763E+03 -0.58997984019E+03  0.68268271306E+03  0.12664720113E+04  0.65864270000E+03 0.  1.
    8880022    1    1    2    0    0  0.59666510763E+03  0.58997984019E+03 -0.29450562624E+04  0.30660778699E+04  0.15294330000E+03 0.  0.
<mgrwt>
<rscale>  0 0.10087089E+04</rscale>
<asrwt>0</asrwt>
<pdfrwt beam="1">  1        2 0.50730180E+00 0.10667219E+04</pdfrwt>
<pdfrwt beam="2">  1       -2 0.15924433E+00 0.10667219E+04</pdfrwt>
<totfact> 0.28872415E-01</totfact>
</mgrwt>
</event>
<event>
 4    1  0.2799069E-007  0.9444839E+03  0.7818608E-02  0.9458095E-01
         -2   -1    0    0    0  501 -0.00000000000E+00  0.00000000000E+00  0.61171476039E+03  0.61171476039E+03  0.25500000000E-02 0.  1.
          2   -1    0    0  501    0  0.00000000000E+00 -0.00000000000E+00 -0.23662593439E+04  0.23662593439E+04  0.25500000000E-02 0. -1.
    8880023    1    1    2    0    0 -0.19562494951E+03  0.64805127167E+03  0.14506811043E+03  0.95555980164E+03  0.65864270000E+03 0.  1.
    8880022    1    1    2    0    0  0.19562494951E+03 -0.64805127167E+03 -0.18996126939E+04  0.20224143026E+04  0.15294330000E+03 0.  0.
<mgrwt>
<rscale>  0 0.87445052E+03</rscale>
<asrwt>0</asrwt>
<pdfrwt beam="1">  1        2 0.36403990E+00 0.94448387E+03</pdfrwt>
<pdfrwt beam="2">  1       -2 0.94109964E-01 0.94448387E+03</pdfrwt>
<totfact> 0.40165163E+00</totfact>
</mgrwt>
</event>
<event>
 4    1  0.2799069E-007  0.7881358E+03  0.7818608E-02  0.9737062E-01
         -2   -1    0    0    0  501 -0.00000000000E+00  0.00000000000E+00  0.57622619115E+03  0.57622619115E+03  0.25500000000E-02 0.  1.
          2   -1    0    0  501    0  0.00000000000E+00 -0.00000000000E+00 -0.97714003825E+03  0.97714003825E+03  0.25500000000E-02 0. -1.
    8880023    1    1    2    0    0  0.40419127717E+03 -0.15484565406E+03  0.18448195271E+03  0.80943904172E+03  0.65864270000E+03 0.  0.
    8880022    1    1    2    0    0 -0.40419127717E+03  0.15484565406E+03 -0.58539579982E+03  0.74392718768E+03  0.15294330000E+03 0.  1.
<mgrwt>
<rscale>  0 0.68852386E+03</rscale>
<asrwt>0</asrwt>
<pdfrwt beam="1">  1        2 0.15032924E+00 0.78813576E+03</pdfrwt>
<pdfrwt beam="2">  1       -2 0.88650183E-01 0.78813576E+03</pdfrwt>
<totfact> 0.28868490E+01</totfact>
</mgrwt>
</event>
<event>
 4    1  0.2799069E-007  0.6635082E+03  0.7818608E-02  0.1020819E+00
          2   -1    0    0  501    0  0.00000000000E+00  0.00000000000E+00  0.13098877456E+04  0.13098877456E+04  0.25500000000E-02 0. -1.
         -2   -1    0    0    0  501 -0.00000000000E+00 -0.00000000000E+00 -0.54250841780E+03  0.54250841781E+03  0.25500000000E-02 0.  1.
    8880023    1    1    2    0    0  0.97595169179E+01 -0.79609759760E+02 -0.33032719432E+03  0.74118771144E+03  0.65864270000E+03 0.  1.
    8880022    1    1    2    0    0 -0.97595169179E+01  0.79609759760E+02  0.10977065221E+04  0.11112084520E+04  0.15294330000E+03 0.  0.
<mgrwt>
<rscale>  0 0.47392170E+03</rscale>
<asrwt>0</asrwt>
<pdfrwt beam="1">  1        2 0.20152119E+00 0.66350823E+03</pdfrwt>
<pdfrwt beam="2">  1       -2 0.83462834E-01 0.66350823E+03</pdfrwt>
<totfact> 0.21136181E+01</totfact>
</mgrwt>
</event>
<event>
 4    1  0.2799069E-007  0.6967433E+03  0.7818608E-02  0.1001099E+00
         -2   -1    0    0    0  501 -0.00000000000E+00  0.00000000000E+00  0.12346246931E+03  0.12346246933E+03  0.25500000000E-02 0.  1.
          2   -1    0    0  501    0  0.00000000000E+00 -0.00000000000E+00 -0.27639922879E+04  0.27639922879E+04  0.25500000000E-02 0. -1.
    8880023    1    1    2    0    0  0.17997024692E+03 -0.13875080842E+03 -0.96818962201E+03  0.11928295884E+04  0.65864270000E+03 0.  1.
    8880022    1    1    2    0    0 -0.17997024692E+03  0.13875080842E+03 -0.16723401966E+04  0.16946251688E+04  0.15294330000E+03 0.  0.
<mgrwt>
<rscale>  0 0.55171014E+03</rscale>
<asrwt>0</asrwt>
<pdfrwt beam="1">  1        2 0.42522954E+00 0.69674334E+03</pdfrwt>
<pdfrwt beam="2">  1       -2 0.18994228E-01 0.69674334E+03</pdfrwt>
<totfact> 0.59923885E+01</totfact>
</mgrwt>
</event>
<event>
 4    1  0.2799069E-007  0.9233368E+03  0.7818608E-02  0.9489562E-01
          2   -1    0    0  501    0  0.00000000000E+00  0.00000000000E+00  0.24253428699E+04  0.24253428699E+04  0.25500000000E-02 0. -1.
         -2   -1    0    0    0  501 -0.00000000000E+00 -0.00000000000E+00 -0.81351192063E+03  0.81351192064E+03  0.25500000000E-02 0.  1.
    8880023    1    1    2    0    0 -0.56708623577E+03  0.31169507736E+03 -0.48228702514E+03  0.10417061010E+04  0.65864270000E+03 0.  1.
    8880022    1    1    2    0    0  0.56708623577E+03 -0.31169507736E+03  0.20941179744E+04  0.21971486895E+04  0.15294330000E+03 0.  0.
<mgrwt>
<rscale>  0 0.85057797E+03</rscale>
<asrwt>0</asrwt>
<pdfrwt beam="1">  1        2 0.37312967E+00 0.92333679E+03</pdfrwt>
<pdfrwt beam="2">  1       -2 0.12515568E+00 0.92333679E+03</pdfrwt>
<totfact> 0.18691702E+00</totfact>
</mgrwt>
</event>
<event>
 4    1  0.2855539E-007  0.1567716E+04  0.7818608E-02  0.8863242E-01
         -2   -1    0    0    0  501 -0.00000000000E+00  0.00000000000E+00  0.26059494422E+04  0.26059494422E+04  0.25500000000E-02 0.  1.
          2   -1    0    0  501    0  0.00000000000E+00 -0.00000000000E+00 -0.23317003747E+04  0.23317003747E+04  0.25500000000E-02 0. -1.
    8880023    1    1    2    0    0  0.68682756674E+03 -0.12458702032E+04  0.20983525617E+04  0.26193163896E+04  0.65864270000E+03 0.  0.
    8880022    1    1    2    0    0 -0.68682756674E+03  0.12458702032E+04 -0.18241034942E+04  0.23183334273E+04  0.15294330000E+03 0.  0.
<mgrwt>
<rscale>  0 0.15323175E+04</rscale>
<asrwt>0</asrwt>
<pdfrwt beam="1">  1        2 0.35872313E+00 0.15677165E+04</pdfrwt>
<pdfrwt beam="2">  1       -2 0.40091530E+00 0.15677165E+04</pdfrwt>
<totfact> 0.29630990E-02</totfact>
</mgrwt>
</event>
<event>
 4    1  0.2799069E-007  0.7462935E+03  0.7818608E-02  0.9841980E-01
          2   -1    0    0  501    0  0.00000000000E+00  0.00000000000E+00  0.13734197174E+04  0.13734197174E+04  0.25500000000E-02 0. -1.
         -2   -1    0    0    0  501 -0.00000000000E+00 -0.00000000000E+00 -0.38075261731E+03  0.38075261732E+03  0.25500000000E-02 0.  1.
    8880023    1    1    2    0    0  0.23163468544E+03  0.26360795330E+03  0.63201347117E+02  0.74896488374E+03  0.65864270000E+03 0.  1.
    8880022    1    1    2    0    0 -0.23163468544E+03 -0.26360795330E+03  0.92946575296E+03  0.10052074510E+04  0.15294330000E+03 0.  0.
<mgrwt>
<rscale>  0 0.63157521E+03</rscale>
<asrwt>0</asrwt>
<pdfrwt beam="1">  1        2 0.21129534E+00 0.74629350E+03</pdfrwt>
<pdfrwt beam="2">  1       -2 0.58577325E-01 0.74629350E+03</pdfrwt>
<totfact> 0.41689644E+01</totfact>
</mgrwt>
</event>
<event>
 4    1  0.2799069E-007  0.9338340E+03  0.7818608E-02  0.9473765E-01
          2   -1    0    0  501    0  0.00000000000E+00  0.00000000000E+00  0.11106151556E+04  0.11106151556E+04  0.25500000000E-02 0. -1.
         -2   -1    0    0    0  501 -0.00000000000E+00 -0.00000000000E+00 -0.68552066748E+03  0.68552066748E+03  0.25500000000E-02 0.  1.
    8880023    1    1    2    0    0  0.54731966069E+03 -0.37239357368E+03 -0.97584555773E+02  0.93891891901E+03  0.65864270000E+03 0.  0.
    8880022    1    1    2    0    0 -0.54731966069E+03  0.37239357368E+03  0.52267904391E+03  0.85721690409E+03  0.15294330000E+03 0.  0.
<mgrwt>
<rscale>  0 0.86245953E+03</rscale>
<asrwt>0</asrwt>
<pdfrwt beam="1">  1        2 0.17086387E+00 0.93383403E+03</pdfrwt>
<pdfrwt beam="2">  1       -2 0.10546472E+00 0.93383403E+03</pdfrwt>
<totfact> 0.15598652E+01</totfact>
</mgrwt>
</event>
<event>
 4    1  0.2799069E-007  0.1010646E+04  0.7818608E-02  0.9367761E-01
         -2   -1    0    0    0  501 -0.00000000000E+00  0.00000000000E+00  0.79328796088E+03  0.79328796088E+03  0.25500000000E-02 0.  1.
          2   -1    0    0  501    0  0.00000000000E+00 -0.00000000000E+00 -0.35465968938E+04  0.35465968938E+04  0.25500000000E-02 0. -1.
    8880023    1    1    2    0    0 -0.39437791243E+03 -0.65731299677E+03  0.40314621334E+03  0.10880861129E+04  0.65864270000E+03 0.  1.
    8880022    1    1    2    0    0  0.39437791243E+03  0.65731299677E+03 -0.31564551463E+04  0.32517987418E+04  0.15294330000E+03 0.  0.
<mgrwt>
<rscale>  0 0.94777025E+03</rscale>
<asrwt>0</asrwt>
<pdfrwt beam="1">  1        2 0.54563028E+00 0.10106456E+04</pdfrwt>
<pdfrwt beam="2">  1       -2 0.12204430E+00 0.10106456E+04</pdfrwt>
<totfact> 0.39573875E-01</totfact>
</mgrwt>
</event>
<event>
 4    1  0.2799069E-007  0.9074803E+03  0.7818608E-02  0.9514128E-01
          2   -1    0    0  501    0  0.00000000000E+00  0.00000000000E+00  0.25629301833E+04  0.25629301833E+04  0.25500000000E-02 0. -1.
         -2   -1    0    0    0  501 -0.00000000000E+00 -0.00000000000E+00 -0.75107459496E+03  0.75107459497E+03  0.25500000000E-02 0.  1.
    8880023    1    1    2    0    0  0.57722191216E+03 -0.23775033675E+03 -0.41382234057E+03  0.99738131841E+03  0.65864270000E+03 0.  0.
    8880022    1    1    2    0    0 -0.57722191216E+03  0.23775033675E+03  0.22256779289E+04  0.23166234599E+04  0.15294330000E+03 0.  0.
<mgrwt>
<rscale>  0 0.83250161E+03</rscale>
<asrwt>0</asrwt>
<pdfrwt beam="1">  1        2 0.39429695E+00 0.90748034E+03</pdfrwt>
<pdfrwt beam="2">  1       -2 0.11554994E+00 0.90748034E+03</pdfrwt>
<totfact> 0.19079616E+00</totfact>
</mgrwt>
</event>
<event>
 4    1  0.2799069E-007  0.7648498E+03  0.7818608E-02  0.9792710E-01
          2   -1    0    0  501    0  0.00000000000E+00  0.00000000000E+00  0.13867877488E+04  0.13867877489E+04  0.25500000000E-02 0. -1.
         -2   -1    0    0    0  501 -0.00000000000E+00 -0.00000000000E+00 -0.60022127187E+03  0.60022127188E+03  0.25500000000E-02 0.  1.
    8880023    1    1    2    0    0 -0.32582639481E+03 -0.21218428355E+03 -0.30099766734E+03  0.82194574745E+03  0.65864270000E+03 0.  1.
    8880022    1    1    2    0    0  0.32582639481E+03  0.21218428355E+03  0.10875641443E+04  0.11650632733E+04  0.15294330000E+03 0.  0.
<mgrwt>
<rscale>  0 0.65755244E+03</rscale>
<asrwt>0</asrwt>
<pdfrwt beam="1">  1        2 0.21335196E+00 0.76484980E+03</pdfrwt>
<pdfrwt beam="2">  1       -2 0.92341735E-01 0.76484980E+03</pdfrwt>
<totfact> 0.14962734E+01</totfact>
</mgrwt>
</event>
<event>
 4    1  0.2799069E-007  0.1638151E+04  0.7818608E-02  0.8817780E-01
          2   -1    0    0  501    0  0.00000000000E+00  0.00000000000E+00  0.22392493484E+04  0.22392493484E+04  0.25500000000E-02 0. -1.
         -2   -1    0    0    0  501 -0.00000000000E+00 -0.00000000000E+00 -0.15788215354E+04  0.15788215354E+04  0.25500000000E-02 0.  1.
    8880023    1    1    2    0    0  0.14637772572E+04  0.32723788341E+03 -0.70553391359E+03  0.17836246243E+04  0.65864270000E+03 0.  1.
    8880022    1    1    2    0    0 -0.14637772572E+04 -0.32723788341E+03  0.13659617266E+04  0.20344462594E+04  0.15294330000E+03 0.  0.
<mgrwt>
<rscale>  0 0.16045130E+04</rscale>
<asrwt>0</asrwt>
<pdfrwt beam="1">  1        2 0.34449990E+00 0.16381510E+04</pdfrwt>
<pdfrwt beam="2">  1       -2 0.24289562E+00 0.16381510E+04</pdfrwt>
<totfact> 0.32211678E-01</totfact>
</mgrwt>
</event>
<event>
 4    1  0.2799069E-007  0.6979382E+03  0.7818608E-02  0.1000586E+00
          2   -1    0    0  501    0  0.00000000000E+00  0.00000000000E+00  0.10900404519E+04  0.10900404519E+04  0.25500000000E-02 0. -1.
         -2   -1    0    0    0  501 -0.00000000000E+00 -0.00000000000E+00 -0.46341224811E+03  0.46341224811E+03  0.25500000000E-02 0.  1.
    8880023    1    1    2    0    0 -0.15862199823E+03 -0.16776943668E+03 -0.16295443540E+03  0.71670905986E+03  0.65864270000E+03 0.  1.
    8880022    1    1    2    0    0  0.15862199823E+03  0.16776943668E+03  0.78958263922E+03  0.83674364017E+03  0.15294330000E+03 0.  0.
<mgrwt>
<rscale>  0 0.55393852E+03</rscale>
<asrwt>0</asrwt>
<pdfrwt beam="1">  1        2 0.16769853E+00 0.69793820E+03</pdfrwt>
<pdfrwt beam="2">  1       -2 0.71294193E-01 0.69793820E+03</pdfrwt>
<totfact> 0.40331149E+01</totfact>
</mgrwt>
</event>
<event>
 4    1  0.2799069E-007  0.1040461E+04  0.7818608E-02  0.9330438E-01
         -2   -1    0    0    0  501 -0.00000000000E+00  0.00000000000E+00  0.72323612802E+03  0.72323612803E+03  0.25500000000E-02 0.  1.
          2   -1    0    0  501    0  0.00000000000E+00 -0.00000000000E+00 -0.13432837324E+04  0.13432837324E+04  0.25500000000E-02 0. -1.
    8880023    1    1    2    0    0 -0.36982305902E+03  0.71552722900E+03 -0.30808066369E+01  0.10404652844E+04  0.65864270000E+03 0.  0.
    8880022    1    1    2    0    0  0.36982305902E+03 -0.71552722900E+03 -0.61696679773E+03  0.10260545760E+04  0.15294330000E+03 0.  0.
<mgrwt>
<rscale>  0 0.98028359E+03</rscale>
<asrwt>0</asrwt>
<pdfrwt beam="1">  1        2 0.20665904E+00 0.10404607E+04</pdfrwt>
<pdfrwt beam="2">  1       -2 0.11126710E+00 0.10404607E+04</pdfrwt>
<totfact> 0.98688366E+00</totfact>
</mgrwt>
</event>
<event>
 4    1  0.2799069E-007  0.1301025E+04  0.7818608E-02  0.9064675E-01
         -2   -1    0    0    0  501 -0.00000000000E+00  0.00000000000E+00  0.52453940941E+03  0.52453940942E+03  0.25500000000E-02 0.  1.
          2   -1    0    0  501    0  0.00000000000E+00 -0.00000000000E+00 -0.28531370522E+04  0.28531370522E+04  0.25500000000E-02 0. -1.
    8880023    1    1    2    0    0 -0.10255369847E+04 -0.45511514580E+03 -0.14196173936E+04  0.19256115012E+04  0.65864270000E+03 0.  0.
    8880022    1    1    2    0    0  0.10255369847E+04  0.45511514580E+03 -0.90898024914E+03  0.14520649604E+04  0.15294330000E+03 0.  0.
<mgrwt>
<rscale>  0 0.12566395E+04</rscale>
<asrwt>0</asrwt>
<pdfrwt beam="1">  1        2 0.43894415E+00 0.13010250E+04</pdfrwt>
<pdfrwt beam="2">  1       -2 0.80698372E-01 0.13010250E+04</pdfrwt>
<totfact> 0.28499221E+00</totfact>
</mgrwt>
</event>
<event>
 4    1  0.2799069E-007  0.7704662E+03  0.7818608E-02  0.9778728E-01
          2   -1    0    0  501    0  0.00000000000E+00  0.00000000000E+00  0.40612136147E+04  0.40612136147E+04  0.25500000000E-02 0. -1.
         -2   -1    0    0    0  501 -0.00000000000E+00 -0.00000000000E+00 -0.23254233341E+03  0.23254233342E+03  0.25500000000E-02 0.  1.
    8880023    1    1    2    0    0  0.39211688232E+03  0.77796273990E+02  0.45861990134E+03  0.89663277311E+03  0.65864270000E+03 0.  1.
    8880022    1    1    2    0    0 -0.39211688232E+03 -0.77796273990E+02  0.33700513799E+04  0.33971231750E+04  0.15294330000E+03 0.  0.
<mgrwt>
<rscale>  0 0.66516706E+03</rscale>
<asrwt>0</asrwt>
<pdfrwt beam="1">  1        2 0.62480208E+00 0.77046617E+03</pdfrwt>
<pdfrwt beam="2">  1       -2 0.35775744E-01 0.77046617E+03</pdfrwt>
<totfact> 0.24763396E+00</totfact>
</mgrwt>
</event>
<event>
 4    1  0.2799069E-007  0.1101002E+04  0.7818608E-02  0.9259941E-01
         -2   -1    0    0    0  501 -0.00000000000E+00  0.00000000000E+00  0.65430412188E+03  0.65430412189E+03  0.25500000000E-02 0.  1.
          2   -1    0    0  501    0  0.00000000000E+00 -0.00000000000E+00 -0.25747095696E+04  0.25747095696E+04  0.25500000000E-02 0. -1.
    8880023    1    1    2    0    0 -0.36961274278E+02  0.88149264884E+03  0.99968645865E+01  0.11010474873E+04  0.65864270000E+03 0.  1.
    8880022    1    1    2    0    0  0.36961274278E+02 -0.88149264884E+03 -0.19304023123E+04  0.21279662042E+04  0.15294330000E+03 0.  0.
<mgrwt>
<rscale>  0 0.10455589E+04</rscale>
<asrwt>0</asrwt>
<pdfrwt beam="1">  1        2 0.39610916E+00 0.11010021E+04</pdfrwt>
<pdfrwt beam="2">  1       -2 0.10066217E+00 0.11010021E+04</pdfrwt>
<totfact> 0.25510304E+00</totfact>
</mgrwt>
</event>
<event>
 4    1  0.2799069E-007  0.9089570E+03  0.7818608E-02  0.9511803E-01
          2   -1    0    0  501    0  0.00000000000E+00  0.00000000000E+00  0.23351983069E+04  0.23351983069E+04  0.25500000000E-02 0. -1.
         -2   -1    0    0    0  501 -0.00000000000E+00 -0.00000000000E+00 -0.28898366220E+03  0.28898366221E+03  0.25500000000E-02 0.  1.
    8880023    1    1    2    0    0  0.45496604919E+03 -0.43057924066E+03  0.75776998095E+03  0.11833926393E+04  0.65864270000E+03 0.  0.
    8880022    1    1    2    0    0 -0.45496604919E+03  0.43057924066E+03  0.12884446637E+04  0.14407893298E+04  0.15294330000E+03 0.  0.
<mgrwt>
<rscale>  0 0.83419196E+03</rscale>
<asrwt>0</asrwt>
<pdfrwt beam="1">  1        2 0.35926128E+00 0.90895698E+03</pdfrwt>
<pdfrwt beam="2">  1       -2 0.44459025E-01 0.90895698E+03</pdfrwt>
<totfact> 0.21181054E+01</totfact>
</mgrwt>
</event>
<event>
 4    1  0.2799069E-007  0.1077217E+04  0.7818608E-02  0.9286856E-01
          2   -1    0    0  501    0  0.00000000000E+00  0.00000000000E+00  0.67408779225E+03  0.67408779226E+03  0.25500000000E-02 0. -1.
         -2   -1    0    0    0  501 -0.00000000000E+00 -0.00000000000E+00 -0.15386738752E+04  0.15386738752E+04  0.25500000000E-02 0.  1.
    8880023    1    1    2    0    0 -0.66625005973E+03 -0.53169284440E+03 -0.80485986645E+03  0.13446917988E+04  0.65864270000E+03 0.  0.
    8880022    1    1    2    0    0  0.66625005973E+03  0.53169284440E+03 -0.59726216471E+02  0.86806986863E+03  0.15294330000E+03 0.  0.
<mgrwt>
<rscale>  0 0.10200195E+04</rscale>
<asrwt>0</asrwt>
<pdfrwt beam="1">  1        2 0.10370581E+00 0.10772171E+04</pdfrwt>
<pdfrwt beam="2">  1       -2 0.23671906E+00 0.10772171E+04</pdfrwt>
<totfact> 0.32991785E+00</totfact>
</mgrwt>
</event>
<event>
 4    1  0.2799069E-007  0.7520313E+03  0.7818608E-02  0.9826192E-01
          2   -1    0    0  501    0  0.00000000000E+00  0.00000000000E+00  0.87184054380E+03  0.87184054381E+03  0.25500000000E-02 0. -1.
         -2   -1    0    0    0  501 -0.00000000000E+00 -0.00000000000E+00 -0.18074576716E+04  0.18074576716E+04  0.25500000000E-02 0.  1.
    8880023    1    1    2    0    0 -0.13750311506E+03 -0.33590738103E+03 -0.16780495911E+04  0.18388587525E+04  0.65864270000E+03 0.  1.
    8880022    1    1    2    0    0  0.13750311506E+03  0.33590738103E+03  0.74243246327E+03  0.84043946291E+03  0.15294330000E+03 0.  0.
<mgrwt>
<rscale>  0 0.63975663E+03</rscale>
<asrwt>0</asrwt>
<pdfrwt beam="1">  1        2 0.13412931E+00 0.75203130E+03</pdfrwt>
<pdfrwt beam="2">  1       -2 0.27807041E+00 0.75203130E+03</pdfrwt>
<totfact> 0.13777865E+00</totfact>
</mgrwt>
</event>
<event>
 4    1  0.2799069E-007  0.1248899E+04  0.7818608E-02  0.9110995E-01
         -2   -1    0    0    0  501 -0.00000000000E+00  0.00000000000E+00  0.13470354732E+04  0.13470354732E+04  0.25500000000E-02 0.  1.
          2   -1    0    0  501    0  0.00000000000E+00 -0.00000000000E+00 -0.12825427729E+04  0.12825427729E+04  0.25500000000E-02 0. -1.
    8880023    1    1    2    0    0  0.30367236547E+03 -0.10167208671E+04  0.65012689976E+03  0.14079820380E+04  0.65864270000E+03 0.  0.
    8880022    1    1    2    0    0 -0.30367236547E+03  0.10167208671E+04 -0.58563419946E+03  0.12215962081E+04  0.15294330000E+03 0.  0.
<mgrwt>
<rscale>  0 0.12021289E+04</rscale>
<asrwt>0</asrwt>
<pdfrwt beam="1">  1        2 0.19731427E+00 0.12488989E+04</pdfrwt>
<pdfrwt beam="2">  1       -2 0.20723623E+00 0.12488989E+04</pdfrwt>
<totfact> 0.19503518E+00</totfact>
</mgrwt>
</event>
<event>
 4    1  0.2799069E-007  0.8341270E+03  0.7818608E-02  0.9641355E-01
         -2   -1    0    0    0  501 -0.00000000000E+00  0.00000000000E+00  0.66654000029E+03  0.66654000029E+03  0.25500000000E-02 0.  1.
          2   -1    0    0  501    0  0.00000000000E+00 -0.00000000000E+00 -0.13839200777E+04  0.13839200777E+04  0.25500000000E-02 0. -1.
    8880023    1    1    2    0    0 -0.50967527646E+03  0.46784151080E+02  0.31213105540E+03  0.89061419607E+03  0.65864270000E+03 0.  0.
    8880022    1    1    2    0    0  0.50967527646E+03 -0.46784151080E+02 -0.10295111329E+04  0.11598458820E+04  0.15294330000E+03 0.  0.
<mgrwt>
<rscale>  0 0.74618452E+03</rscale>
<asrwt>0</asrwt>
<pdfrwt beam="1">  1        2 0.21291078E+00 0.83412700E+03</pdfrwt>
<pdfrwt beam="2">  1       -2 0.10254462E+00 0.83412700E+03</pdfrwt>
<totfact> 0.11638228E+01</totfact>
</mgrwt>
</event>
<event>
 4    1  0.2799069E-007  0.1623632E+04  0.7818608E-02  0.8826934E-01
         -2   -1    0    0    0  501 -0.00000000000E+00  0.00000000000E+00  0.15176623627E+04  0.15176623627E+04  0.25500000000E-02 0.  1.
          2   -1    0    0  501    0  0.00000000000E+00 -0.00000000000E+00 -0.28175957300E+04  0.28175957300E+04  0.25500000000E-02 0. -1.
    8880023    1    1    2    0    0  0.24893339999E+03 -0.14630119688E+04  0.75928281568E+03  0.17923985212E+04  0.65864270000E+03 0.  1.
    8880022    1    1    2    0    0 -0.24893339999E+03  0.14630119688E+04 -0.20592161830E+04  0.25428595714E+04  0.15294330000E+03 0.  0.
<mgrwt>
<rscale>  0 0.15896468E+04</rscale>
<asrwt>0</asrwt>
<pdfrwt beam="1">  1        2 0.43347627E+00 0.16236324E+04</pdfrwt>
<pdfrwt beam="2">  1       -2 0.23348652E+00 0.16236324E+04</pdfrwt>
<totfact> 0.16984039E-01</totfact>
</mgrwt>
</event>
<event>
 4    1  0.2799069E-007  0.7385152E+03  0.7818608E-02  0.9864293E-01
         -2   -1    0    0    0  501 -0.00000000000E+00  0.00000000000E+00  0.73301062777E+03  0.73301062777E+03  0.25500000000E-02 0.  1.
          2   -1    0    0  501    0  0.00000000000E+00 -0.00000000000E+00 -0.11417259503E+04  0.11417259503E+04  0.25500000000E-02 0. -1.
    8880023    1    1    2    0    0  0.27647066436E+03  0.18750605576E+03  0.50181618804E+03  0.89287414681E+03  0.65864270000E+03 0.  0.
    8880022    1    1    2    0    0 -0.27647066436E+03 -0.18750605576E+03 -0.91053151056E+03  0.98186243127E+03  0.15294330000E+03 0. -1.
<mgrwt>
<rscale>  0 0.62023428E+03</rscale>
<asrwt>0</asrwt>
<pdfrwt beam="1">  1        2 0.17565015E+00 0.73851524E+03</pdfrwt>
<pdfrwt beam="2">  1       -2 0.11277087E+00 0.73851524E+03</pdfrwt>
<totfact> 0.12958780E+01</totfact>
</mgrwt>
</event>
<event>
 4    1  0.2799069E-007  0.1168295E+04  0.7818608E-02  0.9188575E-01
         -2   -1    0    0    0  501 -0.00000000000E+00  0.00000000000E+00  0.70728025422E+03  0.70728025422E+03  0.25500000000E-02 0.  1.
          2   -1    0    0  501    0  0.00000000000E+00 -0.00000000000E+00 -0.22144615931E+04  0.22144615931E+04  0.25500000000E-02 0. -1.
    8880023    1    1    2    0    0 -0.86604022744E+03 -0.42553312994E+03 -0.52555478040E+02  0.11694769791E+04  0.65864270000E+03 0.  0.
    8880022    1    1    2    0    0  0.86604022744E+03  0.42553312994E+03 -0.14546258609E+04  0.17522648682E+04  0.15294330000E+03 0.  0.
<mgrwt>
<rscale>  0 0.11172138E+04</rscale>
<asrwt>0</asrwt>
<pdfrwt beam="1">  1        2 0.34068640E+00 0.11682955E+04</pdfrwt>
<pdfrwt beam="2">  1       -2 0.10881235E+00 0.11682955E+04</pdfrwt>
<totfact> 0.33593098E+00</totfact>
</mgrwt>
</event>
<event>
 4    1  0.2799069E-007  0.8699143E+03  0.7818608E-02  0.9576165E-01
          2   -1    0    0  501    0  0.00000000000E+00  0.00000000000E+00  0.89882483406E+03  0.89882483407E+03  0.25500000000E-02 0. -1.
         -2   -1    0    0    0  501 -0.00000000000E+00 -0.00000000000E+00 -0.19084009832E+04  0.19084009832E+04  0.25500000000E-02 0.  1.
    8880023    1    1    2    0    0 -0.46701669645E+03 -0.32378391563E+03 -0.16941658039E+04  0.19044549342E+04  0.65864270000E+03 0.  0.
    8880022    1    1    2    0    0  0.46701669645E+03  0.32378391563E+03  0.68458965484E+03  0.90277088306E+03  0.15294330000E+03 0.  0.
<mgrwt>
<rscale>  0 0.78893997E+03</rscale>
<asrwt>0</asrwt>
<pdfrwt beam="1">  1        2 0.13828074E+00 0.86991426E+03</pdfrwt>
<pdfrwt beam="2">  1       -2 0.29360015E+00 0.86991426E+03</pdfrwt>
<totfact> 0.10445875E+00</totfact>
</mgrwt>
</event>
<event>
 4    1  0.2799069E-007  0.7445350E+03  0.7818608E-02  0.9846929E-01
         -2   -1    0    0    0  501 -0.00000000000E+00  0.00000000000E+00  0.38064931509E+03  0.38064931510E+03  0.25500000000E-02 0.  1.
          2   -1    0    0  501    0  0.00000000000E+00 -0.00000000000E+00 -0.15080829268E+04  0.15080829268E+04  0.25500000000E-02 0. -1.
    8880023    1    1    2    0    0  0.16709622559E+03 -0.30430416142E+03 -0.49712632878E+02  0.74619281918E+03  0.65864270000E+03 0.  0.
    8880022    1    1    2    0    0 -0.16709622559E+03  0.30430416142E+03 -0.10777209788E+04  0.11425394227E+04  0.15294330000E+03 0.  0.
<mgrwt>
<rscale>  0 0.62903767E+03</rscale>
<asrwt>0</asrwt>
<pdfrwt beam="1">  1        2 0.23201276E+00 0.74453501E+03</pdfrwt>
<pdfrwt beam="2">  1       -2 0.58561434E-01 0.74453501E+03</pdfrwt>
<totfact> 0.35052697E+01</totfact>
</mgrwt>
</event>
<event>
 4    1  0.2799069E-007  0.7807186E+03  0.7818608E-02  0.9754152E-01
         -2   -1    0    0    0  501 -0.00000000000E+00  0.00000000000E+00  0.26196252486E+03  0.26196252487E+03  0.25500000000E-02 0.  1.
          2   -1    0    0  501    0  0.00000000000E+00 -0.00000000000E+00 -0.33334920921E+04  0.33334920921E+04  0.25500000000E-02 0. -1.
    8880023    1    1    2    0    0 -0.38330435357E+03  0.16967343913E+03 -0.38200335226E+03  0.86916515739E+03  0.65864270000E+03 0.  0.
    8880022    1    1    2    0    0  0.38330435357E+03 -0.16967343913E+03 -0.26895262149E+04  0.27262894596E+04  0.15294330000E+03 0.  0.
<mgrwt>
<rscale>  0 0.67882152E+03</rscale>
<asrwt>0</asrwt>
<pdfrwt beam="1">  1        2 0.51284491E+00 0.78071859E+03</pdfrwt>
<pdfrwt beam="2">  1       -2 0.40301929E-01 0.78071859E+03</pdfrwt>
<totfact> 0.65955964E+00</totfact>
</mgrwt>
</event>
<event>
 4    1  0.2799069E-007  0.1537167E+04  0.7818608E-02  0.8883827E-01
          2   -1    0    0  501    0  0.00000000000E+00  0.00000000000E+00  0.17534415899E+04  0.17534415899E+04  0.25500000000E-02 0. -1.
         -2   -1    0    0    0  501 -0.00000000000E+00 -0.00000000000E+00 -0.18859570181E+04  0.18859570181E+04  0.25500000000E-02 0.  1.
    8880023    1    1    2    0    0  0.13480544686E+04  0.33439687877E+03 -0.11425368885E+04  0.19152735760E+04  0.65864270000E+03 0.  0.
    8880022    1    1    2    0    0 -0.13480544686E+04 -0.33439687877E+03  0.10100214603E+04  0.17241250321E+04  0.15294330000E+03 0.  0.
<mgrwt>
<rscale>  0 0.15009411E+04</rscale>
<asrwt>0</asrwt>
<pdfrwt beam="1">  1        2 0.26976025E+00 0.15371670E+04</pdfrwt>
<pdfrwt beam="2">  1       -2 0.29014723E+00 0.15371670E+04</pdfrwt>
<totfact> 0.31263859E-01</totfact>
</mgrwt>
</event>
<event>
 4    1  0.2799069E-007  0.8941375E+03  0.7818608E-02  0.9535509E-01
          2   -1    0    0  501    0  0.00000000000E+00  0.00000000000E+00  0.26442248416E+04  0.26442248416E+04  0.25500000000E-02 0. -1.
         -2   -1    0    0    0  501 -0.00000000000E+00 -0.00000000000E+00 -0.89339577459E+03  0.89339577459E+03  0.25500000000E-02 0.  1.
    8880023    1    1    2    0    0  0.57995536790E+03 -0.17124081802E+03 -0.61873009930E+03  0.10873402359E+04  0.65864270000E+03 0.  0.
    8880022    1    1    2    0    0 -0.57995536790E+03  0.17124081802E+03  0.23695591663E+04  0.24502803803E+04  0.15294330000E+03 0. -1.
<mgrwt>
<rscale>  0 0.81715748E+03</rscale>
<asrwt>0</asrwt>
<pdfrwt beam="1">  1        2 0.40680382E+00 0.89413749E+03</pdfrwt>
<pdfrwt beam="2">  1       -2 0.13744550E+00 0.89413749E+03</pdfrwt>
<totfact> 0.11088934E+00</totfact>
</mgrwt>
</event>
<event>
 4    1  0.2799069E-007  0.8871550E+03  0.7818608E-02  0.9546975E-01
         -2   -1    0    0    0  501 -0.00000000000E+00  0.00000000000E+00  0.73637853671E+03  0.73637853671E+03  0.25500000000E-02 0.  1.
          2   -1    0    0  501    0  0.00000000000E+00 -0.00000000000E+00 -0.97568257415E+03  0.97568257416E+03  0.25500000000E-02 0. -1.
    8880023    1    1    2    0    0 -0.37798534236E+03  0.45865122685E+03  0.25607665093E+03  0.92337388113E+03  0.65864270000E+03 0.  0.
    8880022    1    1    2    0    0  0.37798534236E+03 -0.45865122685E+03 -0.49538068837E+03  0.78868722974E+03  0.15294330000E+03 0.  0.
<mgrwt>
<rscale>  0 0.80907422E+03</rscale>
<asrwt>0</asrwt>
<pdfrwt beam="1">  1        2 0.15010501E+00 0.88715504E+03</pdfrwt>
<pdfrwt beam="2">  1       -2 0.11328901E+00 0.88715504E+03</pdfrwt>
<totfact> 0.16018108E+01</totfact>
</mgrwt>
</event>
<event>
 4    1  0.2799069E-007  0.6747006E+03  0.7818608E-02  0.1012496E+00
         -2   -1    0    0    0  501 -0.00000000000E+00  0.00000000000E+00  0.26083220649E+03  0.26083220651E+03  0.25500000000E-02 0.  1.
          2   -1    0    0  501    0  0.00000000000E+00 -0.00000000000E+00 -0.10953359767E+04  0.10953359767E+04  0.25500000000E-02 0. -1.
    8880023    1    1    2    0    0  0.13138597566E+03 -0.64408395716E+02 -0.22543194885E+03  0.71136522677E+03  0.65864270000E+03 0.  1.
    8880022    1    1    2    0    0 -0.13138597566E+03  0.64408395716E+02 -0.60907182138E+03  0.64480295646E+03  0.15294330000E+03 0.  0.
<mgrwt>
<rscale>  0 0.50494718E+03</rscale>
<asrwt>0</asrwt>
<pdfrwt beam="1">  1        2 0.16851322E+00 0.67470062E+03</pdfrwt>
<pdfrwt beam="2">  1       -2 0.40128032E-01 0.67470062E+03</pdfrwt>
<totfact> 0.13130710E+02</totfact>
</mgrwt>
</event>
<event>
 4    1  0.2799069E-007  0.8685683E+03  0.7818608E-02  0.9578500E-01
         -2   -1    0    0    0  501 -0.00000000000E+00  0.00000000000E+00  0.35646385000E+03  0.35646385000E+03  0.25500000000E-02 0.  1.
          2   -1    0    0  501    0  0.00000000000E+00 -0.00000000000E+00 -0.16976527972E+04  0.16976527972E+04  0.25500000000E-02 0. -1.
    8880023    1    1    2    0    0  0.43545496670E+02  0.56453915369E+03 -0.42673061233E+03  0.96773440989E+03  0.65864270000E+03 0.  0.
    8880022    1    1    2    0    0 -0.43545496670E+02 -0.56453915369E+03 -0.91445833488E+03  0.10863822373E+04  0.15294330000E+03 0.  0.
<mgrwt>
<rscale>  0 0.78735678E+03</rscale>
<asrwt>0</asrwt>
<pdfrwt beam="1">  1        2 0.26117735E+00 0.86856829E+03</pdfrwt>
<pdfrwt beam="2">  1       -2 0.54840593E-01 0.86856829E+03</pdfrwt>
<totfact> 0.31169476E+01</totfact>
</mgrwt>
</event>
<event>
 4    1  0.2799069E-007  0.1081363E+04  0.7818608E-02  0.9282095E-01
         -2   -1    0    0    0  501 -0.00000000000E+00  0.00000000000E+00  0.13601779658E+04  0.13601779658E+04  0.25500000000E-02 0.  1.
          2   -1    0    0  501    0  0.00000000000E+00 -0.00000000000E+00 -0.13129645313E+04  0.13129645313E+04  0.25500000000E-02 0. -1.
    8880023    1    1    2    0    0  0.13368791286E+03  0.84714988257E+03  0.93484343913E+03  0.14294326999E+04  0.65864270000E+03 0.  0.
    8880022    1    1    2    0    0 -0.13368791286E+03 -0.84714988257E+03 -0.88763000467E+03  0.12437097973E+04  0.15294330000E+03 0.  0.
<mgrwt>
<rscale>  0 0.10244802E+04</rscale>
<asrwt>0</asrwt>
<pdfrwt beam="1">  1        2 0.20199454E+00 0.10813628E+04</pdfrwt>
<pdfrwt beam="2">  1       -2 0.20925815E+00 0.10813628E+04</pdfrwt>
<totfact> 0.18496887E+00</totfact>
</mgrwt>
</event>
<event>
 4    1  0.2799069E-007  0.8911441E+03  0.7818608E-02  0.9540400E-01
         -2   -1    0    0    0  501 -0.00000000000E+00  0.00000000000E+00  0.69123601108E+03  0.69123601109E+03  0.25500000000E-02 0.  1.
          2   -1    0    0  501    0  0.00000000000E+00 -0.00000000000E+00 -0.36195708854E+04  0.36195708854E+04  0.25500000000E-02 0. -1.
    8880023    1    1    2    0    0 -0.31565307838E+03  0.51057876321E+03  0.36259292990E+03  0.96208699108E+03  0.65864270000E+03 0.  1.
    8880022    1    1    2    0    0  0.31565307838E+03 -0.51057876321E+03 -0.32909278042E+04  0.33487199054E+04  0.15294330000E+03 0.  0.
<mgrwt>
<rscale>  0 0.81369684E+03</rscale>
<asrwt>0</asrwt>
<pdfrwt beam="1">  1        2 0.55685705E+00 0.89114407E+03</pdfrwt>
<pdfrwt beam="2">  1       -2 0.10634400E+00 0.89114407E+03</pdfrwt>
<totfact> 0.50478257E-01</totfact>
</mgrwt>
</event>
<event>
 4    1  0.2799069E-007  0.2251116E+04  0.7818608E-02  0.8507078E-01
         -2   -1    0    0    0  501 -0.00000000000E+00  0.00000000000E+00  0.33332252143E+04  0.33332252143E+04  0.25500000000E-02 0.  1.
          2   -1    0    0  501    0  0.00000000000E+00 -0.00000000000E+00 -0.22897886408E+04  0.22897886408E+04  0.25500000000E-02 0. -1.
    8880023    1    1    2    0    0 -0.21493837338E+04 -0.11774655375E+03  0.22229224884E+04  0.31636860277E+04  0.65864270000E+03 0.  0.
    8880022    1    1    2    0    0  0.21493837338E+04  0.11774655375E+03 -0.11794859149E+04  0.24593278274E+04  0.15294330000E+03 0. -1.
<mgrwt>
<rscale>  0 0.22274757E+04</rscale>
<asrwt>0</asrwt>
<pdfrwt beam="1">  1        2 0.35227518E+00 0.22511164E+04</pdfrwt>
<pdfrwt beam="2">  1       -2 0.51280388E+00 0.22511164E+04</pdfrwt>
<totfact> 0.53766352E-03</totfact>
</mgrwt>
</event>
<event>
 4    1  0.2799069E-007  0.1063543E+04  0.7818608E-02  0.9302775E-01
          2   -1    0    0  501    0  0.00000000000E+00  0.00000000000E+00  0.16667530748E+04  0.16667530748E+04  0.25500000000E-02 0. -1.
         -2   -1    0    0    0  501 -0.00000000000E+00 -0.00000000000E+00 -0.56279779098E+03  0.56279779098E+03  0.25500000000E-02 0.  1.
    8880023    1    1    2    0    0  0.65071208880E+03  0.52334306919E+03  0.43646189207E+03  0.11496187977E+04  0.65864270000E+03 0.  0.
    8880022    1    1    2    0    0 -0.65071208880E+03 -0.52334306919E+03  0.66749339175E+03  0.10799320681E+04  0.15294330000E+03 0.  0.
<mgrwt>
<rscale>  0 0.10052779E+04</rscale>
<asrwt>0</asrwt>
<pdfrwt beam="1">  1        2 0.25642355E+00 0.10635433E+04</pdfrwt>
<pdfrwt beam="2">  1       -2 0.86584276E-01 0.10635433E+04</pdfrwt>
<totfact> 0.11723006E+01</totfact>
</mgrwt>
</event>
<event>
 4    1  0.2799069E-007  0.7714416E+03  0.7818608E-02  0.9776339E-01
          2   -1    0    0  501    0  0.00000000000E+00  0.00000000000E+00  0.37899821745E+04  0.37899821745E+04  0.25500000000E-02 0. -1.
         -2   -1    0    0    0  501 -0.00000000000E+00 -0.00000000000E+00 -0.69290538935E+03  0.69290538935E+03  0.25500000000E-02 0.  1.
    8880023    1    1    2    0    0  0.38172146564E+03 -0.12490275458E+03 -0.46117234379E+03  0.89877812188E+03  0.65864270000E+03 0.  1.
    8880022    1    1    2    0    0 -0.38172146564E+03  0.12490275458E+03  0.35582491289E+04  0.35841094420E+04  0.15294330000E+03 0.  0.
<mgrwt>
<rscale>  0 0.66647940E+03</rscale>
<asrwt>0</asrwt>
<pdfrwt beam="1">  1        2 0.58307417E+00 0.77144163E+03</pdfrwt>
<pdfrwt beam="2">  1       -2 0.10660083E+00 0.77144163E+03</pdfrwt>
<totfact> 0.38864352E-01</totfact>
</mgrwt>
</event>
<event>
 4    1  0.2799069E-007  0.7067908E+03  0.7818608E-02  0.9970117E-01
         -2   -1    0    0    0  501 -0.00000000000E+00  0.00000000000E+00  0.14062317315E+03  0.14062317318E+03  0.25500000000E-02 0.  1.
          2   -1    0    0  501    0  0.00000000000E+00 -0.00000000000E+00 -0.24134674442E+04  0.24134674442E+04  0.25500000000E-02 0. -1.
    8880023    1    1    2    0    0 -0.16521036028E+03  0.19608293742E+03 -0.87541213536E+03  0.11251220354E+04  0.65864270000E+03 0.  1.
    8880022    1    1    2    0    0  0.16521036028E+03 -0.19608293742E+03 -0.13974321357E+04  0.14289685820E+04  0.15294330000E+03 0.  0.
<mgrwt>
<rscale>  0 0.56980199E+03</rscale>
<asrwt>0</asrwt>
<pdfrwt beam="1">  1        2 0.37130265E+00 0.70679077E+03</pdfrwt>
<pdfrwt beam="2">  1       -2 0.21634336E-01 0.70679077E+03</pdfrwt>
<totfact> 0.75629627E+01</totfact>
</mgrwt>
</event>
<event>
 4    1  0.2799069E-007  0.1000257E+04  0.7818608E-02  0.9381222E-01
         -2   -1    0    0    0  501 -0.00000000000E+00  0.00000000000E+00  0.52648002428E+03  0.52648002428E+03  0.25500000000E-02 0.  1.
          2   -1    0    0  501    0  0.00000000000E+00 -0.00000000000E+00 -0.16940775306E+04  0.16940775306E+04  0.25500000000E-02 0. -1.
    8880023    1    1    2    0    0 -0.74648213605E+03 -0.97303531313E+02 -0.26389477340E+03  0.10344825829E+04  0.65864270000E+03 0.  0.
    8880022    1    1    2    0    0  0.74648213605E+03  0.97303531313E+02 -0.90370273296E+03  0.11860749720E+04  0.15294330000E+03 0.  0.
<mgrwt>
<rscale>  0 0.93637306E+03</rscale>
<asrwt>0</asrwt>
<pdfrwt beam="1">  1        2 0.26062731E+00 0.10002568E+04</pdfrwt>
<pdfrwt beam="2">  1       -2 0.80996928E-01 0.10002568E+04</pdfrwt>
<totfact> 0.13264410E+01</totfact>
</mgrwt>
</event>
<event>
 4    1  0.2799069E-007  0.1561335E+04  0.7818608E-02  0.8867497E-01
         -2   -1    0    0    0  501 -0.00000000000E+00  0.00000000000E+00  0.97269363197E+03  0.97269363197E+03  0.25500000000E-02 0.  1.
          2   -1    0    0  501    0  0.00000000000E+00 -0.00000000000E+00 -0.28653379402E+04  0.28653379402E+04  0.25500000000E-02 0. -1.
    8880023    1    1    2    0    0 -0.13840905979E+04 -0.29706864579E+03 -0.12226035316E+03  0.15661144159E+04  0.65864270000E+03 0.  0.
    8880022    1    1    2    0    0  0.13840905979E+04  0.29706864579E+03 -0.17703839551E+04  0.22719171563E+04  0.15294330000E+03 0.  0.
<mgrwt>
<rscale>  0 0.15257666E+04</rscale>
<asrwt>0</asrwt>
<pdfrwt beam="1">  1        2 0.44082122E+00 0.15613349E+04</pdfrwt>
<pdfrwt beam="2">  1       -2 0.14964518E+00 0.15613349E+04</pdfrwt>
<totfact> 0.59835478E-01</totfact>
</mgrwt>
</event>
<event>
 4    1  0.2799069E-007  0.1669769E+04  0.7818608E-02  0.8798216E-01
          2   -1    0    0  501    0  0.00000000000E+00  0.00000000000E+00  0.21517175129E+04  0.21517175129E+04  0.25500000000E-02 0. -1.
         -2   -1    0    0    0  501 -0.00000000000E+00 -0.00000000000E+00 -0.12359020214E+04  0.12359020214E+04  0.25500000000E-02 0.  1.
    8880023    1    1    2    0    0 -0.15295406447E+04  0.12175869546E+03  0.18115120469E+03  0.16795671255E+04  0.65864270000E+03 0.  0.
    8880022    1    1    2    0    0  0.15295406447E+04 -0.12175869546E+03  0.73466428679E+03  0.17080524088E+04  0.15294330000E+03 0.  0.
<mgrwt>
<rscale>  0 0.16368628E+04</rscale>
<asrwt>0</asrwt>
<pdfrwt beam="1">  1        2 0.33103346E+00 0.16697694E+04</pdfrwt>
<pdfrwt beam="2">  1       -2 0.19013877E+00 0.16697694E+04</pdfrwt>
<totfact> 0.78630163E-01</totfact>
</mgrwt>
</event>
<event>
 4    1  0.2799069E-007  0.7802851E+03  0.7818608E-02  0.9755168E-01
          2   -1    0    0  501    0  0.00000000000E+00  0.00000000000E+00  0.12963441183E+04  0.12963441183E+04  0.25500000000E-02 0. -1.
         -2   -1    0    0    0  501 -0.00000000000E+00 -0.00000000000E+00 -0.59273915939E+03  0.59273915940E+03  0.25500000000E-02 0.  1.
    8880023    1    1    2    0    0 -0.21158280909E+03  0.36092569171E+03 -0.26410669844E+03  0.82377011020E+03  0.65864270000E+03 0.  0.
    8880022    1    1    2    0    0  0.21158280909E+03 -0.36092569171E+03  0.96771165736E+03  0.10653131675E+04  0.15294330000E+03 0.  0.
<mgrwt>
<rscale>  0 0.67825014E+03</rscale>
<asrwt>0</asrwt>
<pdfrwt beam="1">  1        2 0.19943756E+00 0.78028511E+03</pdfrwt>
<pdfrwt beam="2">  1       -2 0.91190641E-01 0.78028511E+03</pdfrwt>
<totfact> 0.17322724E+01</totfact>
</mgrwt>
</event>
<event>
 4    1  0.2799069E-007  0.8153550E+03  0.7818608E-02  0.9678529E-01
          2   -1    0    0  501    0  0.00000000000E+00  0.00000000000E+00  0.19122455851E+04  0.19122455851E+04  0.25500000000E-02 0. -1.
         -2   -1    0    0    0  501 -0.00000000000E+00 -0.00000000000E+00 -0.82059466342E+03  0.82059466343E+03  0.25500000000E-02 0.  1.
    8880023    1    1    2    0    0 -0.42992306614E+03  0.21484814861E+03 -0.57097444534E+03  0.99539720376E+03  0.65864270000E+03 0.  1.
    8880022    1    1    2    0    0  0.42992306614E+03 -0.21484814861E+03  0.16626253670E+04  0.17374430447E+04  0.15294330000E+03 0.  0.
<mgrwt>
<rscale>  0 0.72309697E+03</rscale>
<asrwt>0</asrwt>
<pdfrwt beam="1">  1        2 0.29419162E+00 0.81535500E+03</pdfrwt>
<pdfrwt beam="2">  1       -2 0.12624533E+00 0.81535500E+03</pdfrwt>
<totfact> 0.35784769E+00</totfact>
</mgrwt>
</event>
<event>
 4    1  0.2799069E-007  0.1243428E+04  0.7818608E-02  0.9116021E-01
          2   -1    0    0  501    0  0.00000000000E+00  0.00000000000E+00  0.21648045873E+04  0.21648045873E+04  0.25500000000E-02 0. -1.
         -2   -1    0    0    0  501 -0.00000000000E+00 -0.00000000000E+00 -0.72928696743E+03  0.72928696744E+03  0.25500000000E-02 0.  1.
    8880023    1    1    2    0    0 -0.76631620176E+03  0.72461271082E+03  0.19491491817E+03  0.12586127813E+04  0.65864270000E+03 0.  0.
    8880022    1    1    2    0    0  0.76631620176E+03 -0.72461271082E+03  0.12406027017E+04  0.16354787734E+04  0.15294330000E+03 0.  0.
<mgrwt>
<rscale>  0 0.11963916E+04</rscale>
<asrwt>0</asrwt>
<pdfrwt beam="1">  1        2 0.33304686E+00 0.12434284E+04</pdfrwt>
<pdfrwt beam="2">  1       -2 0.11219799E+00 0.12434284E+04</pdfrwt>
<totfact> 0.32960344E+00</totfact>
</mgrwt>
</event>
<event>
 4    1  0.2799069E-007  0.1124237E+04  0.7818608E-02  0.9234539E-01
         -2   -1    0    0    0  501 -0.00000000000E+00  0.00000000000E+00  0.15521073751E+04  0.15521073751E+04  0.25500000000E-02 0.  1.
          2   -1    0    0  501    0  0.00000000000E+00 -0.00000000000E+00 -0.17842166282E+04  0.17842166282E+04  0.25500000000E-02 0. -1.
    8880023    1    1    2    0    0 -0.26602859495E+02 -0.91070872904E+03  0.11921760063E+04  0.16386555274E+04  0.65864270000E+03 0.  1.
    8880022    1    1    2    0    0  0.26602859495E+02  0.91070872904E+03 -0.14242852593E+04  0.16976684759E+04  0.15294330000E+03 0.  0.
<mgrwt>
<rscale>  0 0.10703927E+04</rscale>
<asrwt>0</asrwt>
<pdfrwt beam="1">  1        2 0.27449487E+00 0.11242368E+04</pdfrwt>
<pdfrwt beam="2">  1       -2 0.23878575E+00 0.11242368E+04</pdfrwt>
<totfact> 0.65120911E-01</totfact>
</mgrwt>
</event>
<event>
 4    1  0.2799069E-007  0.8698209E+03  0.7818608E-02  0.9576327E-01
         -2   -1    0    0    0  501 -0.00000000000E+00  0.00000000000E+00  0.49020324766E+03  0.49020324767E+03  0.25500000000E-02 0.  1.
          2   -1    0    0  501    0  0.00000000000E+00 -0.00000000000E+00 -0.12827354464E+04  0.12827354464E+04  0.25500000000E-02 0. -1.
    8880023    1    1    2    0    0  0.39719134195E+03  0.40622313069E+03 -0.80397146284E+03  0.11844654969E+04  0.65864270000E+03 0.  0.
    8880022    1    1    2    0    0 -0.39719134195E+03 -0.40622313069E+03  0.11439264089E+02  0.58847319718E+03  0.15294330000E+03 0.  0.
<mgrwt>
<rscale>  0 0.78883021E+03</rscale>
<asrwt>0</asrwt>
<pdfrwt beam="1">  1        2 0.19734391E+00 0.86982090E+03</pdfrwt>
<pdfrwt beam="2">  1       -2 0.75415885E-01 0.86982090E+03</pdfrwt>
<totfact> 0.26895008E+01</totfact>
</mgrwt>
</event>
<event>
 4    1  0.2799069E-007  0.7332834E+03  0.7818608E-02  0.9879962E-01
         -2   -1    0    0    0  501 -0.00000000000E+00  0.00000000000E+00  0.98923247158E+03  0.98923247158E+03  0.25500000000E-02 0.  1.
          2   -1    0    0  501    0  0.00000000000E+00 -0.00000000000E+00 -0.21296096595E+04  0.21296096595E+04  0.25500000000E-02 0. -1.
    8880023    1    1    2    0    0 -0.10051121974E+03 -0.30625452451E+03  0.83513338698E+03  0.11113740682E+04  0.65864270000E+03 0.  1.
    8880022    1    1    2    0    0  0.10051121974E+03  0.30625452451E+03 -0.19755105749E+04  0.20074680629E+04  0.15294330000E+03 0.  0.
<mgrwt>
<rscale>  0 0.61242296E+03</rscale>
<asrwt>0</asrwt>
<pdfrwt beam="1">  1        2 0.32763225E+00 0.73328340E+03</pdfrwt>
<pdfrwt beam="2">  1       -2 0.15218961E+00 0.73328340E+03</pdfrwt>
<totfact> 0.17038348E+00</totfact>
</mgrwt>
</event>
<event>
 4    1  0.2799069E-007  0.7551094E+03  0.7818608E-02  0.9817937E-01
         -2   -1    0    0    0  501 -0.00000000000E+00  0.00000000000E+00  0.46291334416E+03  0.46291334417E+03  0.25500000000E-02 0.  1.
          2   -1    0    0  501    0  0.00000000000E+00 -0.00000000000E+00 -0.90874819741E+03  0.90874819741E+03  0.25500000000E-02 0. -1.
    8880023    1    1    2    0    0  0.10480081150E+03 -0.35411417021E+03  0.23130158405E+02  0.75546361006E+03  0.65864270000E+03 0.  1.
    8880022    1    1    2    0    0 -0.10480081150E+03  0.35411417021E+03 -0.46896501165E+03  0.61619793151E+03  0.15294330000E+03 0.  0.
<mgrwt>
<rscale>  0 0.64408756E+03</rscale>
<asrwt>0</asrwt>
<pdfrwt beam="1">  1        2 0.13980741E+00 0.75510944E+03</pdfrwt>
<pdfrwt beam="2">  1       -2 0.71217438E-01 0.75510944E+03</pdfrwt>
<totfact> 0.52505542E+01</totfact>
</mgrwt>
</event>
<event>
 4    1  0.2799069E-007  0.7122833E+03  0.7818608E-02  0.9949618E-01
          2   -1    0    0  501    0  0.00000000000E+00  0.00000000000E+00  0.30975891818E+04  0.30975891818E+04  0.25500000000E-02 0. -1.
         -2   -1    0    0    0  501 -0.00000000000E+00 -0.00000000000E+00 -0.43848824916E+03  0.43848824917E+03  0.25500000000E-02 0.  1.
    8880023    1    1    2    0    0 -0.14903371138E+03  0.22655304553E+03 -0.13476345429E+03  0.72491980552E+03  0.65864270000E+03 0.  0.
    8880022    1    1    2    0    0  0.14903371138E+03 -0.22655304553E+03  0.27938643869E+04  0.28111576255E+04  0.15294330000E+03 0.  0.
<mgrwt>
<rscale>  0 0.57915697E+03</rscale>
<asrwt>0</asrwt>
<pdfrwt beam="1">  1        2 0.47655220E+00 0.71228333E+03</pdfrwt>
<pdfrwt beam="2">  1       -2 0.67459728E-01 0.71228333E+03</pdfrwt>
<totfact> 0.32828920E+00</totfact>
</mgrwt>
</event>
<event>
 4    1  0.2799069E-007  0.7554284E+03  0.7818608E-02  0.9817090E-01
          2   -1    0    0  501    0  0.00000000000E+00  0.00000000000E+00  0.29123957160E+04  0.29123957160E+04  0.25500000000E-02 0. -1.
         -2   -1    0    0    0  501 -0.00000000000E+00 -0.00000000000E+00 -0.25256345411E+03  0.25256345412E+03  0.25500000000E-02 0.  1.
    8880023    1    1    2    0    0 -0.24863810129E+03  0.27393591372E+03  0.37142352060E+03  0.84180011176E+03  0.65864270000E+03 0.  1.
    8880022    1    1    2    0    0  0.24863810129E+03 -0.27393591372E+03  0.22884087413E+04  0.23231590584E+04  0.15294330000E+03 0.  0.
<mgrwt>
<rscale>  0 0.64453407E+03</rscale>
<asrwt>0</asrwt>
<pdfrwt beam="1">  1        2 0.44806089E+00 0.75542835E+03</pdfrwt>
<pdfrwt beam="2">  1       -2 0.38855915E-01 0.75542835E+03</pdfrwt>
<totfact> 0.13075009E+01</totfact>
</mgrwt>
</event>
<event>
 4    1  0.2799069E-007  0.9975538E+03  0.7818608E-02  0.9384765E-01
          2   -1    0    0  501    0  0.00000000000E+00  0.00000000000E+00  0.11028544766E+04  0.11028544766E+04  0.25500000000E-02 0. -1.
         -2   -1    0    0    0  501 -0.00000000000E+00 -0.00000000000E+00 -0.11461559878E+04  0.11461559878E+04  0.25500000000E-02 0.  1.
    8880023    1    1    2    0    0  0.43543969223E+03  0.60966850885E+03 -0.71813578304E+03  0.12291593165E+04  0.65864270000E+03 0.  1.
    8880022    1    1    2    0    0 -0.43543969223E+03 -0.60966850885E+03  0.67483427187E+03  0.10198511478E+04  0.15294330000E+03 0.  0.
<mgrwt>
<rscale>  0 0.93340136E+03</rscale>
<asrwt>0</asrwt>
<pdfrwt beam="1">  1        2 0.16966992E+00 0.99755382E+03</pdfrwt>
<pdfrwt beam="2">  1       -2 0.17633169E+00 0.99755382E+03</pdfrwt>
<totfact> 0.41369751E+00</totfact>
</mgrwt>
</event>
<event>
 4    1  0.2799069E-007  0.1333857E+04  0.7818608E-02  0.9036860E-01
          2   -1    0    0  501    0  0.00000000000E+00  0.00000000000E+00  0.10399640884E+04  0.10399640884E+04  0.25500000000E-02 0. -1.
         -2   -1    0    0    0  501 -0.00000000000E+00 -0.00000000000E+00 -0.18518985865E+04  0.18518985865E+04  0.25500000000E-02 0.  1.
    8880023    1    1    2    0    0  0.15644597600E+03 -0.11492995898E+04  0.19529591017E+03  0.13480784804E+04  0.65864270000E+03 0.  0.
    8880022    1    1    2    0    0 -0.15644597600E+03  0.11492995898E+04 -0.10072304083E+04  0.15437841945E+04  0.15294330000E+03 0.  0.
<mgrwt>
<rscale>  0 0.12908411E+04</rscale>
<asrwt>0</asrwt>
<pdfrwt beam="1">  1        2 0.15999448E+00 0.13338572E+04</pdfrwt>
<pdfrwt beam="2">  1       -2 0.28490747E+00 0.13338572E+04</pdfrwt>
<totfact> 0.89844113E-01</totfact>
</mgrwt>
</event>
<event>
 4    1  0.2799069E-007  0.7799379E+03  0.7818608E-02  0.9755983E-01
          2   -1    0    0  501    0  0.00000000000E+00  0.00000000000E+00  0.29620372471E+04  0.29620372471E+04  0.25500000000E-02 0. -1.
         -2   -1    0    0    0  501 -0.00000000000E+00 -0.00000000000E+00 -0.15339184310E+03  0.15339184312E+03  0.25500000000E-02 0.  1.
    8880023    1    1    2    0    0 -0.40155983476E+03 -0.11507654857E+03  0.10909868094E+04  0.13411022845E+04  0.65864270000E+03 0.  0.
    8880022    1    1    2    0    0  0.40155983476E+03  0.11507654857E+03  0.17176585946E+04  0.17743268058E+04  0.15294330000E+03 0.  0.
<mgrwt>
<rscale>  0 0.67779211E+03</rscale>
<asrwt>0</asrwt>
<pdfrwt beam="1">  1        2 0.45569805E+00 0.77993789E+03</pdfrwt>
<pdfrwt beam="2">  1       -2 0.23598744E-01 0.77993789E+03</pdfrwt>
<totfact> 0.30749664E+01</totfact>
</mgrwt>
</event>
<event>
 4    1  0.2799069E-007  0.1054902E+04  0.7818608E-02  0.9313011E-01
         -2   -1    0    0    0  501 -0.00000000000E+00  0.00000000000E+00  0.67009862713E+03  0.67009862714E+03  0.25500000000E-02 0.  1.
          2   -1    0    0  501    0  0.00000000000E+00 -0.00000000000E+00 -0.17789392440E+04  0.17789392440E+04  0.25500000000E-02 0. -1.
    8880023    1    1    2    0    0 -0.77477774693E+03  0.28058539690E+03  0.52407229034E+01  0.10549153490E+04  0.65864270000E+03 0.  0.
    8880022    1    1    2    0    0  0.77477774693E+03 -0.28058539690E+03 -0.11140813397E+04  0.13941225221E+04  0.15294330000E+03 0.  0.
<mgrwt>
<rscale>  0 0.99593795E+03</rscale>
<asrwt>0</asrwt>
<pdfrwt beam="1">  1        2 0.27368296E+00 0.10549023E+04</pdfrwt>
<pdfrwt beam="2">  1       -2 0.10309210E+00 0.10549023E+04</pdfrwt>
<totfact> 0.67520999E+00</totfact>
</mgrwt>
</event>
<event>
 4    1  0.2799069E-007  0.1252007E+04  0.7818608E-02  0.9108154E-01
          2   -1    0    0  501    0  0.00000000000E+00  0.00000000000E+00  0.26586939830E+04  0.26586939830E+04  0.25500000000E-02 0. -1.
         -2   -1    0    0    0  501 -0.00000000000E+00 -0.00000000000E+00 -0.72881231942E+03  0.72881231943E+03  0.25500000000E-02 0.  1.
    8880023    1    1    2    0    0  0.10541157635E+04  0.15017217705E+03  0.88726525022E+02  0.12551471341E+04  0.65864270000E+03 0.  0.
    8880022    1    1    2    0    0 -0.10541157635E+04 -0.15017217705E+03  0.18411551385E+04  0.21323591683E+04  0.15294330000E+03 0.  0.
<mgrwt>
<rscale>  0 0.12053874E+04</rscale>
<asrwt>0</asrwt>
<pdfrwt beam="1">  1        2 0.40902985E+00 0.12520072E+04</pdfrwt>
<pdfrwt beam="2">  1       -2 0.11212497E+00 0.12520072E+04</pdfrwt>
<totfact> 0.17227545E+00</totfact>
</mgrwt>
</event>
<event>
 4    1  0.2799069E-007  0.7620659E+03  0.7818608E-02  0.9799788E-01
          2   -1    0    0  501    0  0.00000000000E+00  0.00000000000E+00  0.44429607666E+04  0.44429607666E+04  0.25500000000E-02 0. -1.
         -2   -1    0    0    0  501 -0.00000000000E+00 -0.00000000000E+00 -0.95712224973E+02  0.95712225007E+02  0.25500000000E-02 0.  1.
    8880023    1    1    2    0    0 -0.37087963835E+03 -0.96863415024E+02  0.17484374123E+04  0.19072959441E+04  0.65864270000E+03 0.  1.
    8880022    1    1    2    0    0  0.37087963835E+03  0.96863415024E+02  0.25988111293E+04  0.26313770475E+04  0.15294330000E+03 0.  0.
<mgrwt>
<rscale>  0 0.65373912E+03</rscale>
<asrwt>0</asrwt>
<pdfrwt beam="1">  1        2 0.68353256E+00 0.76206590E+03</pdfrwt>
<pdfrwt beam="2">  1       -2 0.14724955E-01 0.76206590E+03</pdfrwt>
<totfact> 0.56823659E+00</totfact>
</mgrwt>
</event>
<event>
 4    1  0.2799069E-007  0.1138866E+04  0.7818608E-02  0.9218969E-01
          2   -1    0    0  501    0  0.00000000000E+00  0.00000000000E+00  0.31613912772E+04  0.31613912772E+04  0.25500000000E-02 0. -1.
         -2   -1    0    0    0  501 -0.00000000000E+00 -0.00000000000E+00 -0.56062732402E+03  0.56062732402E+03  0.25500000000E-02 0.  1.
    8880023    1    1    2    0    0 -0.83057983414E+03  0.41634550279E+03  0.21744329332E+03  0.11594387568E+04  0.65864270000E+03 0.  0.
    8880022    1    1    2    0    0  0.83057983414E+03 -0.41634550279E+03  0.23833206598E+04  0.25625798445E+04  0.15294330000E+03 0.  0.
<mgrwt>
<rscale>  0 0.10859765E+04</rscale>
<asrwt>0</asrwt>
<pdfrwt beam="1">  1        2 0.48636789E+00 0.11388664E+04</pdfrwt>
<pdfrwt beam="2">  1       -2 0.86250357E-01 0.11388664E+04</pdfrwt>
<totfact> 0.16072807E+00</totfact>
</mgrwt>
</event>
<event>
 4    1  0.2799069E-007  0.9648669E+03  0.7818608E-02  0.9429039E-01
         -2   -1    0    0    0  501 -0.00000000000E+00  0.00000000000E+00  0.12774272020E+04  0.12774272020E+04  0.25500000000E-02 0.  1.
          2   -1    0    0  501    0  0.00000000000E+00 -0.00000000000E+00 -0.63602886886E+03  0.63602886887E+03  0.25500000000E-02 0. -1.
    8880023    1    1    2    0    0  0.63358043770E+03 -0.30940862430E+03  0.26091143812E+02  0.96521957185E+03  0.65864270000E+03 0.  0.
    8880022    1    1    2    0    0 -0.63358043770E+03  0.30940862430E+03  0.61530718932E+03  0.94823649902E+03  0.15294330000E+03 0.  0.
<mgrwt>
<rscale>  0 0.89723933E+03</rscale>
<asrwt>0</asrwt>
<pdfrwt beam="1">  1        2 0.97850596E-01 0.96486687E+03</pdfrwt>
<pdfrwt beam="2">  1       -2 0.19652726E+00 0.96486687E+03</pdfrwt>
<totfact> 0.64563383E+00</totfact>
</mgrwt>
</event>
<event>
 4    1  0.2799069E-007  0.7818380E+03  0.7818608E-02  0.9751537E-01
         -2   -1    0    0    0  501 -0.00000000000E+00  0.00000000000E+00  0.13948094096E+03  0.13948094098E+03  0.25500000000E-02 0.  1.
          2   -1    0    0  501    0  0.00000000000E+00 -0.00000000000E+00 -0.37201843935E+04  0.37201843935E+04  0.25500000000E-02 0. -1.
    8880023    1    1    2    0    0  0.20862649380E+03 -0.36597192565E+03 -0.11668964401E+04  0.14046059848E+04  0.65864270000E+03 0.  1.
    8880022    1    1    2    0    0 -0.20862649380E+03  0.36597192565E+03 -0.24138070124E+04  0.24550593497E+04  0.15294330000E+03 0.  0.
<mgrwt>
<rscale>  0 0.68029478E+03</rscale>
<asrwt>0</asrwt>
<pdfrwt beam="1">  1        2 0.57233599E+00 0.78183801E+03</pdfrwt>
<pdfrwt beam="2">  1       -2 0.21458609E-01 0.78183801E+03</pdfrwt>
<totfact> 0.11495096E+01</totfact>
</mgrwt>
</event>
<event>
 4    1  0.2799069E-007  0.1240717E+04  0.7818608E-02  0.9118524E-01
         -2   -1    0    0    0  501 -0.00000000000E+00  0.00000000000E+00  0.12290831328E+04  0.12290831328E+04  0.25500000000E-02 0.  1.
          2   -1    0    0  501    0  0.00000000000E+00 -0.00000000000E+00 -0.11616622065E+04  0.11616622065E+04  0.25500000000E-02 0. -1.
    8880023    1    1    2    0    0 -0.95814580225E+03  0.43304139314E+03  0.35403884989E+03  0.12902410395E+04  0.65864270000E+03 0.  0.
    8880022    1    1    2    0    0  0.95814580225E+03 -0.43304139314E+03 -0.28661792359E+03  0.11005042997E+04  0.15294330000E+03 0.  0.
<mgrwt>
<rscale>  0 0.11935465E+04</rscale>
<asrwt>0</asrwt>
<pdfrwt beam="1">  1        2 0.17871726E+00 0.12407169E+04</pdfrwt>
<pdfrwt beam="2">  1       -2 0.18908971E+00 0.12407169E+04</pdfrwt>
<totfact> 0.30387447E+00</totfact>
</mgrwt>
</event>
<event>
 4    1  0.2799069E-007  0.1116589E+04  0.7818608E-02  0.9242807E-01
         -2   -1    0    0    0  501 -0.00000000000E+00  0.00000000000E+00  0.11361837656E+04  0.11361837656E+04  0.25500000000E-02 0.  1.
          2   -1    0    0  501    0  0.00000000000E+00 -0.00000000000E+00 -0.11302983542E+04  0.11302983542E+04  0.25500000000E-02 0. -1.
    8880023    1    1    2    0    0 -0.89275978206E+03 -0.12625757429E+03  0.50404117507E+03  0.12250831465E+04  0.65864270000E+03 0.  0.
    8880022    1    1    2    0    0  0.89275978206E+03  0.12625757429E+03 -0.49815576368E+03  0.10413989732E+04  0.15294330000E+03 0.  0.
<mgrwt>
<rscale>  0 0.10622304E+04</rscale>
<asrwt>0</asrwt>
<pdfrwt beam="1">  1        2 0.17389206E+00 0.11165891E+04</pdfrwt>
<pdfrwt beam="2">  1       -2 0.17479750E+00 0.11165891E+04</pdfrwt>
<totfact> 0.40301861E+00</totfact>
</mgrwt>
</event>
<event>
 4    1  0.2799069E-007  0.1056321E+04  0.7818608E-02  0.9311321E-01
          2   -1    0    0  501    0  0.00000000000E+00  0.00000000000E+00  0.61177897641E+03  0.61177897641E+03  0.25500000000E-02 0. -1.
         -2   -1    0    0    0  501 -0.00000000000E+00 -0.00000000000E+00 -0.17538648909E+04  0.17538648909E+04  0.25500000000E-02 0.  1.
    8880023    1    1    2    0    0  0.74117190150E+03  0.36423687202E+03 -0.10994774064E+04  0.15246852331E+04  0.65864270000E+03 0.  0.
    8880022    1    1    2    0    0 -0.74117190150E+03 -0.36423687202E+03 -0.42608508099E+02  0.84095863423E+03  0.15294330000E+03 0.  0.
<mgrwt>
<rscale>  0 0.99747293E+03</rscale>
<asrwt>0</asrwt>
<pdfrwt beam="1">  1        2 0.94119843E-01 0.10563212E+04</pdfrwt>
<pdfrwt beam="2">  1       -2 0.26982537E+00 0.10563212E+04</pdfrwt>
<totfact> 0.23423776E+00</totfact>
</mgrwt>
</event>
<event>
 4    1  0.2799069E-007  0.1417323E+04  0.7818608E-02  0.8970338E-01
          2   -1    0    0  501    0  0.00000000000E+00  0.00000000000E+00  0.21824368184E+04  0.21824368184E+04  0.25500000000E-02 0. -1.
         -2   -1    0    0    0  501 -0.00000000000E+00 -0.00000000000E+00 -0.14475223200E+04  0.14475223200E+04  0.25500000000E-02 0.  1.
    8880023    1    1    2    0    0 -0.26424908540E+03 -0.12268525109E+04 -0.81096204103E+03  0.16329311990E+04  0.65864270000E+03 0.  0.
    8880022    1    1    2    0    0  0.26424908540E+03  0.12268525109E+04  0.15458765394E+04  0.19970279394E+04  0.15294330000E+03 0.  0.
<mgrwt>
<rscale>  0 0.13774057E+04</rscale>
<asrwt>0</asrwt>
<pdfrwt beam="1">  1        2 0.33575951E+00 0.14173231E+04</pdfrwt>
<pdfrwt beam="2">  1       -2 0.22269574E+00 0.14173231E+04</pdfrwt>
<totfact> 0.47526837E-01</totfact>
</mgrwt>
</event>
<event>
 4    1  0.2799069E-007  0.6866626E+03  0.7818608E-02  0.1005781E+00
          2   -1    0    0  501    0  0.00000000000E+00  0.00000000000E+00  0.89049656211E+03  0.89049656211E+03  0.25500000000E-02 0. -1.
         -2   -1    0    0    0  501 -0.00000000000E+00 -0.00000000000E+00 -0.49887570003E+03  0.49887570003E+03  0.25500000000E-02 0.  1.
    8880023    1    1    2    0    0  0.99258170789E+02 -0.16686282972E+03 -0.22699492916E+03  0.72320971546E+03  0.65864270000E+03 0.  1.
    8880022    1    1    2    0    0 -0.99258170789E+02  0.16686282972E+03  0.61861579124E+03  0.66616254668E+03  0.15294330000E+03 0.  0.
<mgrwt>
<rscale>  0 0.53186475E+03</rscale>
<asrwt>0</asrwt>
<pdfrwt beam="1">  1        2 0.13699947E+00 0.68666265E+03</pdfrwt>
<pdfrwt beam="2">  1       -2 0.76750107E-01 0.68666265E+03</pdfrwt>
<totfact> 0.46057600E+01</totfact>
</mgrwt>
</event>
<event>
 4    1  0.2799069E-007  0.7200570E+03  0.7818608E-02  0.9922393E-01
         -2   -1    0    0    0  501 -0.00000000000E+00  0.00000000000E+00  0.32045382605E+03  0.32045382606E+03  0.25500000000E-02 0.  1.
          2   -1    0    0  501    0  0.00000000000E+00 -0.00000000000E+00 -0.25622108636E+04  0.25622108636E+04  0.25500000000E-02 0. -1.
    8880023    1    1    2    0    0  0.17276163506E+03  0.23414795823E+03 -0.11323328635E+03  0.72890591457E+03  0.65864270000E+03 0.  0.
    8880022    1    1    2    0    0 -0.17276163506E+03 -0.23414795823E+03 -0.21285237512E+04  0.21537587751E+04  0.15294330000E+03 0.  0.
<mgrwt>
<rscale>  0 0.59188186E+03</rscale>
<asrwt>0</asrwt>
<pdfrwt beam="1">  1        2 0.39418627E+00 0.72005698E+03</pdfrwt>
<pdfrwt beam="2">  1       -2 0.49300590E-01 0.72005698E+03</pdfrwt>
<totfact> 0.13152352E+01</totfact>
</mgrwt>
</event>
<event>
 4    1  0.2799069E-007  0.8698990E+03  0.7818608E-02  0.9576192E-01
         -2   -1    0    0    0  501 -0.00000000000E+00  0.00000000000E+00  0.60479903018E+03  0.60479903019E+03  0.25500000000E-02 0.  1.
          2   -1    0    0  501    0  0.00000000000E+00 -0.00000000000E+00 -0.20172631557E+04  0.20172631557E+04  0.25500000000E-02 0. -1.
    8880023    1    1    2    0    0 -0.46508964494E+03 -0.32650519127E+03  0.21109293464E+03  0.89514493300E+03  0.65864270000E+03 0.  0.
    8880022    1    1    2    0    0  0.46508964494E+03  0.32650519127E+03 -0.16235570602E+04  0.17269172529E+04  0.15294330000E+03 0.  0.
<mgrwt>
<rscale>  0 0.78892199E+03</rscale>
<asrwt>0</asrwt>
<pdfrwt beam="1">  1        2 0.31034818E+00 0.86989897E+03</pdfrwt>
<pdfrwt beam="2">  1       -2 0.93046005E-01 0.86989897E+03</pdfrwt>
<totfact> 0.65082081E+00</totfact>
</mgrwt>
</event>
<event>
 4    1  0.2799069E-007  0.1117873E+04  0.7818608E-02  0.9241413E-01
          2   -1    0    0  501    0  0.00000000000E+00  0.00000000000E+00  0.21797854684E+04  0.21797854684E+04  0.25500000000E-02 0. -1.
         -2   -1    0    0    0  501 -0.00000000000E+00 -0.00000000000E+00 -0.85918157548E+03  0.85918157548E+03  0.25500000000E-02 0.  1.
    8880023    1    1    2    0    0 -0.89935810665E+03 -0.83575499927E+02 -0.31751687787E+03  0.11620916669E+04  0.65864270000E+03 0.  0.
    8880022    1    1    2    0    0  0.89935810665E+03  0.83575499927E+02  0.16381207708E+04  0.18768753770E+04  0.15294330000E+03 0.  0.
<mgrwt>
<rscale>  0 0.10636015E+04</rscale>
<asrwt>0</asrwt>
<pdfrwt beam="1">  1        2 0.33535161E+00 0.11178730E+04</pdfrwt>
<pdfrwt beam="2">  1       -2 0.13218178E+00 0.11178730E+04</pdfrwt>
<totfact> 0.21753780E+00</totfact>
</mgrwt>
</event>
<event>
 4    1  0.2799069E-007  0.9245597E+03  0.7818608E-02  0.9487703E-01
          2   -1    0    0  501    0  0.00000000000E+00  0.00000000000E+00  0.31840802897E+04  0.31840802897E+04  0.25500000000E-02 0. -1.
         -2   -1    0    0    0  501 -0.00000000000E+00 -0.00000000000E+00 -0.59065326992E+03  0.59065326992E+03  0.25500000000E-02 0.  1.
    8880023    1    1    2    0    0 -0.24997776407E+03 -0.59875831032E+03 -0.16302062134E+03  0.93882177539E+03  0.65864270000E+03 0.  0.
    8880022    1    1    2    0    0  0.24997776407E+03  0.59875831032E+03  0.27564476412E+04  0.28359117843E+04  0.15294330000E+03 0.  0.
<mgrwt>
<rscale>  0 0.85196548E+03</rscale>
<asrwt>0</asrwt>
<pdfrwt beam="1">  1        2 0.48985851E+00 0.92455968E+03</pdfrwt>
<pdfrwt beam="2">  1       -2 0.90869734E-01 0.92455968E+03</pdfrwt>
<totfact> 0.14253514E+00</totfact>
</mgrwt>
</event>
<event>
 4    1  0.2799069E-007  0.1672616E+04  0.7818608E-02  0.8796480E-01
         -2   -1    0    0    0  501 -0.00000000000E+00  0.00000000000E+00  0.12564703284E+04  0.12564703284E+04  0.25500000000E-02 0.  1.
          2   -1    0    0  501    0  0.00000000000E+00 -0.00000000000E+00 -0.37333048977E+04  0.37333048977E+04  0.25500000000E-02 0. -1.
    8880023    1    1    2    0    0  0.28675040975E+03  0.15104988972E+04  0.40404451736E+03  0.17207251071E+04  0.65864270000E+03 0.  0.
    8880022    1    1    2    0    0 -0.28675040975E+03 -0.15104988972E+04 -0.28808790866E+04  0.32690501190E+04  0.15294330000E+03 0.  0.
<mgrwt>
<rscale>  0 0.16397731E+04</rscale>
<asrwt>0</asrwt>
<pdfrwt beam="1">  1        2 0.57435460E+00 0.16726156E+04</pdfrwt>
<pdfrwt beam="2">  1       -2 0.19330313E+00 0.16726156E+04</pdfrwt>
<totfact> 0.75544656E-02</totfact>
</mgrwt>
</event>
<event>
 4    1  0.2799069E-007  0.1050282E+04  0.7818608E-02  0.9318543E-01
          2   -1    0    0  501    0  0.00000000000E+00  0.00000000000E+00  0.22598554471E+04  0.22598554471E+04  0.25500000000E-02 0. -1.
         -2   -1    0    0    0  501 -0.00000000000E+00 -0.00000000000E+00 -0.10363246786E+04  0.10363246786E+04  0.25500000000E-02 0.  1.
    8880023    1    1    2    0    0  0.68190152489E+03  0.45198622266E+03 -0.65759773382E+03  0.12391635166E+04  0.65864270000E+03 0.  0.
    8880022    1    1    2    0    0 -0.68190152489E+03 -0.45198622266E+03  0.18811285023E+04  0.20570166092E+04  0.15294330000E+03 0.  0.
<mgrwt>
<rscale>  0 0.99093540E+03</rscale>
<asrwt>0</asrwt>
<pdfrwt beam="1">  1        2 0.34767007E+00 0.10502816E+04</pdfrwt>
<pdfrwt beam="2">  1       -2 0.15943457E+00 0.10502816E+04</pdfrwt>
<totfact> 0.12078123E+00</totfact>
</mgrwt>
</event>
<event>
 4    1  0.2799069E-007  0.8657160E+03  0.7818608E-02  0.9583476E-01
          2   -1    0    0  501    0  0.00000000000E+00  0.00000000000E+00  0.21213571559E+04  0.21213571559E+04  0.25500000000E-02 0. -1.
         -2   -1    0    0    0  501 -0.00000000000E+00 -0.00000000000E+00 -0.75647387392E+03  0.75647387392E+03  0.25500000000E-02 0.  1.
    8880023    1    1    2    0    0  0.93401103778E+02  0.55401283212E+03 -0.44726790131E+03  0.97442945673E+03  0.65864270000E+03 0.  0.
    8880022    1    1    2    0    0 -0.93401103778E+02 -0.55401283212E+03  0.18121511833E+04  0.19034015731E+04  0.15294330000E+03 0.  0.
<mgrwt>
<rscale>  0 0.78399601E+03</rscale>
<asrwt>0</asrwt>
<pdfrwt beam="1">  1        2 0.32636263E+00 0.86571600E+03</pdfrwt>
<pdfrwt beam="2">  1       -2 0.11638060E+00 0.86571600E+03</pdfrwt>
<totfact> 0.33391400E+00</totfact>
</mgrwt>
</event>
<event>
 4    1  0.2799069E-007  0.1299284E+04  0.7818608E-02  0.9066178E-01
         -2   -1    0    0    0  501 -0.00000000000E+00  0.00000000000E+00  0.55169440099E+03  0.55169440100E+03  0.25500000000E-02 0.  1.
          2   -1    0    0  501    0  0.00000000000E+00 -0.00000000000E+00 -0.29663503454E+04  0.29663503454E+04  0.25500000000E-02 0. -1.
    8880023    1    1    2    0    0  0.99763116840E+03 -0.50898137218E+03 -0.73297733563E+03  0.14917761113E+04  0.65864270000E+03 0.  0.
    8880022    1    1    2    0    0 -0.99763116840E+03  0.50898137218E+03 -0.16816786088E+04  0.20262686351E+04  0.15294330000E+03 0.  0.
<mgrwt>
<rscale>  0 0.12548237E+04</rscale>
<asrwt>0</asrwt>
<pdfrwt beam="1">  1        2 0.45636158E+00 0.12992845E+04</pdfrwt>
<pdfrwt beam="2">  1       -2 0.84876063E-01 0.12992845E+04</pdfrwt>
<totfact> 0.21660656E+00</totfact>
</mgrwt>
</event>
<event>
 4    1  0.2799069E-007  0.1399996E+04  0.7818608E-02  0.8983686E-01
         -2   -1    0    0    0  501 -0.00000000000E+00  0.00000000000E+00  0.71631498210E+03  0.71631498210E+03  0.25500000000E-02 0.  1.
          2   -1    0    0  501    0  0.00000000000E+00 -0.00000000000E+00 -0.31067333049E+04  0.31067333049E+04  0.25500000000E-02 0. -1.
    8880023    1    1    2    0    0 -0.55028156719E+02 -0.12341599290E+04 -0.21337673254E+04  0.25520485955E+04  0.65864270000E+03 0.  0.
    8880022    1    1    2    0    0  0.55028156719E+02  0.12341599290E+04 -0.25665099739E+03  0.12709996915E+04  0.15294330000E+03 0.  0.
<mgrwt>
<rscale>  0 0.13594760E+04</rscale>
<asrwt>0</asrwt>
<pdfrwt beam="1">  1        2 0.47795896E+00 0.13999961E+04</pdfrwt>
<pdfrwt beam="2">  1       -2 0.11020231E+00 0.13999961E+04</pdfrwt>
<totfact> 0.94178331E-01</totfact>
</mgrwt>
</event>
<event>
 4    1  0.2799069E-007  0.8062152E+03  0.7818608E-02  0.9697515E-01
         -2   -1    0    0    0  501 -0.00000000000E+00  0.00000000000E+00  0.23437981205E+03  0.23437981206E+03  0.25500000000E-02 0.  1.
          2   -1    0    0  501    0  0.00000000000E+00 -0.00000000000E+00 -0.31155669079E+04  0.31155669079E+04  0.25500000000E-02 0. -1.
    8880023    1    1    2    0    0  0.47990608664E+01  0.46491899461E+03 -0.56965264753E+03  0.98716110520E+03  0.65864270000E+03 0.  1.
    8880022    1    1    2    0    0 -0.47990608664E+01 -0.46491899461E+03 -0.23115344484E+04  0.23627856148E+04  0.15294330000E+03 0.  0.
<mgrwt>
<rscale>  0 0.71164926E+03</rscale>
<asrwt>0</asrwt>
<pdfrwt beam="1">  1        2 0.47931796E+00 0.80621518E+03</pdfrwt>
<pdfrwt beam="2">  1       -2 0.36058435E-01 0.80621518E+03</pdfrwt>
<totfact> 0.11233096E+01</totfact>
</mgrwt>
</event>
<event>
 4    1  0.2799069E-007  0.9792385E+03  0.7818608E-02  0.9409239E-01
         -2   -1    0    0    0  501 -0.00000000000E+00  0.00000000000E+00  0.97058434490E+03  0.97058434491E+03  0.25500000000E-02 0.  1.
          2   -1    0    0  501    0  0.00000000000E+00 -0.00000000000E+00 -0.15906803556E+04  0.15906803556E+04  0.25500000000E-02 0. -1.
    8880023    1    1    2    0    0 -0.62761554245E+03 -0.36221066170E+03  0.58947446589E+03  0.11429733964E+04  0.65864270000E+03 0.  1.
    8880022    1    1    2    0    0  0.62761554245E+03  0.36221066170E+03 -0.12095704766E+04  0.14182913041E+04  0.15294330000E+03 0.  0.
<mgrwt>
<rscale>  0 0.91319263E+03</rscale>
<asrwt>0</asrwt>
<pdfrwt beam="1">  1        2 0.24472006E+00 0.97923850E+03</pdfrwt>
<pdfrwt beam="2">  1       -2 0.14932067E+00 0.97923850E+03</pdfrwt>
<totfact> 0.34086403E+00</totfact>
</mgrwt>
</event>
<event>
 4    1  0.2799069E-007  0.1959099E+04  0.7818608E-02  0.8639286E-01
          2   -1    0    0  501    0  0.00000000000E+00  0.00000000000E+00  0.40936851029E+04  0.40936851029E+04  0.25500000000E-02 0. -1.
         -2   -1    0    0    0  501 -0.00000000000E+00 -0.00000000000E+00 -0.11399568627E+04  0.11399568627E+04  0.25500000000E-02 0.  1.
    8880023    1    1    2    0    0  0.18447790275E+04 -0.32362105263E+02  0.27635253520E+03  0.19784938453E+04  0.65864270000E+03 0.  0.
    8880022    1    1    2    0    0 -0.18447790275E+04  0.32362105263E+02  0.26773757050E+04  0.32551481203E+04  0.15294330000E+03 0.  0.
<mgrwt>
<rscale>  0 0.19315980E+04</rscale>
<asrwt>0</asrwt>
<pdfrwt beam="1">  1        2 0.62979770E+00 0.19590986E+04</pdfrwt>
<pdfrwt beam="2">  1       -2 0.17537798E+00 0.19590986E+04</pdfrwt>
<totfact> 0.50624220E-02</totfact>
</mgrwt>
</event>
<event>
 4    1  0.2799069E-007  0.6606630E+03  0.7818608E-02  0.1023487E+00
          2   -1    0    0  501    0  0.00000000000E+00  0.00000000000E+00  0.42296894609E+04  0.42296894609E+04  0.25500000000E-02 0. -1.
         -2   -1    0    0    0  501 -0.00000000000E+00 -0.00000000000E+00 -0.23770662211E+03  0.23770662212E+03  0.25500000000E-02 0.  1.
    8880023    1    1    2    0    0  0.12149724851E+02 -0.50178061501E+02  0.22643502271E+03  0.69838991935E+03  0.65864270000E+03 0.  1.
    8880022    1    1    2    0    0 -0.12149724851E+02  0.50178061501E+02  0.37655478160E+04  0.37690061637E+04  0.15294330000E+03 0.  0.
<mgrwt>
<rscale>  0 0.46448938E+03</rscale>
<asrwt>0</asrwt>
<pdfrwt beam="1">  1        2 0.65072145E+00 0.66066305E+03</pdfrwt>
<pdfrwt beam="2">  1       -2 0.36570250E-01 0.66066305E+03</pdfrwt>
<totfact> 0.17706948E+00</totfact>
</mgrwt>
</event>
<event>
 4    1  0.2799069E-007  0.9222321E+03  0.7818608E-02  0.9491245E-01
          2   -1    0    0  501    0  0.00000000000E+00  0.00000000000E+00  0.27401413775E+04  0.27401413775E+04  0.25500000000E-02 0. -1.
         -2   -1    0    0    0  501 -0.00000000000E+00 -0.00000000000E+00 -0.24567736117E+03  0.24567736119E+03  0.25500000000E-02 0.  1.
    8880023    1    1    2    0    0 -0.39388375318E+03  0.51142677469E+03  0.18169427451E+04  0.20375948817E+04  0.65864270000E+03 0. -1.
    8880022    1    1    2    0    0  0.39388375318E+03 -0.51142677469E+03  0.67752127123E+03  0.94822385694E+03  0.15294330000E+03 0.  0.
<mgrwt>
<rscale>  0 0.84932375E+03</rscale>
<asrwt>0</asrwt>
<pdfrwt beam="1">  1        2 0.42156023E+00 0.92223205E+03</pdfrwt>
<pdfrwt beam="2">  1       -2 0.37796515E-01 0.92223205E+03</pdfrwt>
<totfact> 0.17042098E+01</totfact>
</mgrwt>
</event>
<event>
 4    1  0.2799069E-007  0.7036547E+03  0.7818608E-02  0.9982365E-01
         -2   -1    0    0    0  501 -0.00000000000E+00  0.00000000000E+00  0.28991108711E+03  0.28991108712E+03  0.25500000000E-02 0.  1.
          2   -1    0    0  501    0  0.00000000000E+00 -0.00000000000E+00 -0.13604424745E+04  0.13604424745E+04  0.25500000000E-02 0. -1.
    8880023    1    1    2    0    0  0.24270380645E+03  0.49138510233E+02 -0.19862406536E+03  0.73115077546E+03  0.65864270000E+03 0.  0.
    8880022    1    1    2    0    0 -0.24270380645E+03 -0.49138510233E+02 -0.87190732201E+03  0.91920278614E+03  0.15294330000E+03 0.  0.
<mgrwt>
<rscale>  0 0.56430307E+03</rscale>
<asrwt>0</asrwt>
<pdfrwt beam="1">  1        2 0.20929884E+00 0.70365470E+03</pdfrwt>
<pdfrwt beam="2">  1       -2 0.44601706E-01 0.70365470E+03</pdfrwt>
<totfact> 0.74344131E+01</totfact>
</mgrwt>
</event>
<event>
 4    1  0.2799069E-007  0.7459502E+03  0.7818608E-02  0.9842942E-01
         -2   -1    0    0    0  501 -0.00000000000E+00  0.00000000000E+00  0.20284365022E+03  0.20284365024E+03  0.25500000000E-02 0.  1.
          2   -1    0    0  501    0  0.00000000000E+00 -0.00000000000E+00 -0.16458016167E+04  0.16458016167E+04  0.25500000000E-02 0. -1.
    8880023    1    1    2    0    0 -0.34264537704E+03 -0.72288662344E+02 -0.75297191006E+03  0.10599096229E+04  0.65864270000E+03 0.  0.
    8880022    1    1    2    0    0  0.34264537704E+03  0.72288662344E+02 -0.68998605640E+03  0.78873564402E+03  0.15294330000E+03 0.  0.
<mgrwt>
<rscale>  0 0.63108099E+03</rscale>
<asrwt>0</asrwt>
<pdfrwt beam="1">  1        2 0.25320024E+00 0.74595021E+03</pdfrwt>
<pdfrwt beam="2">  1       -2 0.31206716E-01 0.74595021E+03</pdfrwt>
<totfact> 0.10215831E+02</totfact>
</mgrwt>
</event>
<event>
 4    1  0.2799069E-007  0.1065370E+04  0.7818608E-02  0.9300629E-01
         -2   -1    0    0    0  501 -0.00000000000E+00  0.00000000000E+00  0.81892565119E+03  0.81892565119E+03  0.25500000000E-02 0.  1.
          2   -1    0    0  501    0  0.00000000000E+00 -0.00000000000E+00 -0.32673268717E+04  0.32673268717E+04  0.25500000000E-02 0. -1.
    8880023    1    1    2    0    0 -0.82552266322E+03 -0.14041119660E+03  0.38110000108E+03  0.11314815017E+04  0.65864270000E+03 0.  1.
    8880022    1    1    2    0    0  0.82552266322E+03  0.14041119660E+03 -0.28295012216E+04  0.29547710212E+04  0.15294330000E+03 0.  0.
<mgrwt>
<rscale>  0 0.10072499E+04</rscale>
<asrwt>0</asrwt>
<pdfrwt beam="1">  1        2 0.50266567E+00 0.10653700E+04</pdfrwt>
<pdfrwt beam="2">  1       -2 0.12598856E+00 0.10653700E+04</pdfrwt>
<totfact> 0.55773345E-01</totfact>
</mgrwt>
</event>
<event>
 4    1  0.3741960E-007  0.8638916E+03  0.7818608E-02  0.9586678E-01
          2   -1    0    0  501    0  0.00000000000E+00  0.00000000000E+00  0.25456176498E+04  0.25456176498E+04  0.25500000000E-02 0. -1.
         -2   -1    0    0    0  501 -0.00000000000E+00 -0.00000000000E+00 -0.15455540440E+04  0.15455540440E+04  0.25500000000E-02 0.  1.
    8880023    1    1    2    0    0  0.52355831544E+03  0.19592133479E+03 -0.13873964976E+04  0.16343738027E+04  0.65864270000E+03 0.  1.
    8880022    1    1    2    0    0 -0.52355831544E+03 -0.19592133479E+03  0.23874601035E+04  0.24567978911E+04  0.15294330000E+03 0.  0.
<mgrwt>
<rscale>  0 0.78184217E+03</rscale>
<asrwt>0</asrwt>
<pdfrwt beam="1">  1        2 0.39163348E+00 0.86389159E+03</pdfrwt>
<pdfrwt beam="2">  1       -2 0.23777755E+00 0.86389159E+03</pdfrwt>
<totfact> 0.26014083E-01</totfact>
</mgrwt>
</event>
<event>
 4    1  0.2799069E-007  0.8918306E+03  0.7818608E-02  0.9539275E-01
          2   -1    0    0  501    0  0.00000000000E+00  0.00000000000E+00  0.22808172517E+04  0.22808172517E+04  0.25500000000E-02 0. -1.
         -2   -1    0    0    0  501 -0.00000000000E+00 -0.00000000000E+00 -0.29276535412E+03  0.29276535413E+03  0.25500000000E-02 0.  1.
    8880023    1    1    2    0    0  0.13570337566E+03 -0.58577835339E+03  0.66561911182E+03  0.11128390242E+04  0.65864270000E+03 0.  0.
    8880022    1    1    2    0    0 -0.13570337566E+03  0.58577835339E+03  0.13224327858E+04  0.14607435817E+04  0.15294330000E+03 0.  0.
<mgrwt>
<rscale>  0 0.81449119E+03</rscale>
<asrwt>0</asrwt>
<pdfrwt beam="1">  1        2 0.35089496E+00 0.89183064E+03</pdfrwt>
<pdfrwt beam="2">  1       -2 0.45040825E-01 0.89183064E+03</pdfrwt>
<totfact> 0.22179892E+01</totfact>
</mgrwt>
</event>
<event>
 4    1  0.2799069E-007  0.7933200E+03  0.7818608E-02  0.9725430E-01
         -2   -1    0    0    0  501 -0.00000000000E+00  0.00000000000E+00  0.43989616380E+03  0.43989616381E+03  0.25500000000E-02 0.  1.
          2   -1    0    0  501    0  0.00000000000E+00 -0.00000000000E+00 -0.22674008113E+04  0.22674008113E+04  0.25500000000E-02 0. -1.
    8880023    1    1    2    0    0 -0.30010644978E+03 -0.32478081915E+03  0.27891170177E+02  0.79381016958E+03  0.65864270000E+03 0.  0.
    8880022    1    1    2    0    0  0.30010644978E+03  0.32478081915E+03 -0.18553958177E+04  0.19134868055E+04  0.15294330000E+03 0.  0.
<mgrwt>
<rscale>  0 0.69522677E+03</rscale>
<asrwt>0</asrwt>
<pdfrwt beam="1">  1        2 0.34883089E+00 0.79332003E+03</pdfrwt>
<pdfrwt beam="2">  1       -2 0.67676334E-01 0.79332003E+03</pdfrwt>
<totfact> 0.97987757E+00</totfact>
</mgrwt>
</event>
<event>
 4    1  0.2799069E-007  0.1478415E+04  0.7818608E-02  0.8925030E-01
         -2   -1    0    0    0  501 -0.00000000000E+00  0.00000000000E+00  0.14930971168E+04  0.14930971168E+04  0.25500000000E-02 0.  1.
          2   -1    0    0  501    0  0.00000000000E+00 -0.00000000000E+00 -0.20926512597E+04  0.20926512597E+04  0.25500000000E-02 0. -1.
    8880023    1    1    2    0    0 -0.87708378521E+03 -0.99127487666E+03  0.77684045168E+03  0.16700877645E+04  0.65864270000E+03 0.  0.
    8880022    1    1    2    0    0  0.87708378521E+03  0.99127487666E+03 -0.13763945946E+04  0.19156606120E+04  0.15294330000E+03 0.  0.
<mgrwt>
<rscale>  0 0.14404763E+04</rscale>
<asrwt>0</asrwt>
<pdfrwt beam="1">  1        2 0.32194635E+00 0.14784154E+04</pdfrwt>
<pdfrwt beam="2">  1       -2 0.22970725E+00 0.14784154E+04</pdfrwt>
<totfact> 0.47874559E-01</totfact>
</mgrwt>
</event>
<event>
 4    1  0.3056643E-007  0.1992790E+04  0.7818608E-02  0.8622779E-01
          2   -1    0    0  501    0  0.00000000000E+00  0.00000000000E+00  0.22814562878E+04  0.22814562878E+04  0.25500000000E-02 0. -1.
         -2   -1    0    0    0  501 -0.00000000000E+00 -0.00000000000E+00 -0.52329500530E+04  0.52329500530E+04  0.25500000000E-02 0.  1.
    8880023    1    1    2    0    0 -0.41620526765E+03 -0.18341689719E+04 -0.45972289795E+04  0.50105615592E+04  0.65864270000E+03 0.  1.
    8880022    1    1    2    0    0  0.41620526765E+03  0.18341689719E+04  0.16457352142E+04  0.25038447817E+04  0.15294330000E+03 0.  0.
<mgrwt>
<rscale>  0 0.19658010E+04</rscale>
<asrwt>0</asrwt>
<pdfrwt beam="1">  1        2 0.35099328E+00 0.19927902E+04</pdfrwt>
<pdfrwt beam="2">  1       -2 0.80506923E+00 0.19927902E+04</pdfrwt>
<totfact> 0.30001463E-04</totfact>
</mgrwt>
</event>
<event>
 4    1  0.2799069E-007  0.1581594E+04  0.7818608E-02  0.8854070E-01
          2   -1    0    0  501    0  0.00000000000E+00  0.00000000000E+00  0.84926118776E+03  0.84926118776E+03  0.25500000000E-02 0. -1.
         -2   -1    0    0    0  501 -0.00000000000E+00 -0.00000000000E+00 -0.36431989215E+04  0.36431989215E+04  0.25500000000E-02 0.  1.
    8880023    1    1    2    0    0  0.14369400517E+04 -0.53213496036E+02 -0.25863390305E+04  0.30315982873E+04  0.65864270000E+03 0.  0.
    8880022    1    1    2    0    0 -0.14369400517E+04  0.53213496036E+02 -0.20759870328E+03  0.14608618220E+04  0.15294330000E+03 0.  0.
<mgrwt>
<rscale>  0 0.15465571E+04</rscale>
<asrwt>0</asrwt>
<pdfrwt beam="1">  1        2 0.13065557E+00 0.15815937E+04</pdfrwt>
<pdfrwt beam="2">  1       -2 0.56049213E+00 0.15815937E+04</pdfrwt>
<totfact> 0.22123296E-02</totfact>
</mgrwt>
</event>
<event>
 4    1  0.2799069E-007  0.1467189E+04  0.7818608E-02  0.8933159E-01
         -2   -1    0    0    0  501 -0.00000000000E+00  0.00000000000E+00  0.14338347480E+04  0.14338347480E+04  0.25500000000E-02 0.  1.
          2   -1    0    0  501    0  0.00000000000E+00 -0.00000000000E+00 -0.24325704425E+04  0.24325704425E+04  0.25500000000E-02 0. -1.
    8880023    1    1    2    0    0 -0.73867110412E+03 -0.10831434731E+04 -0.18000744077E+04  0.23222645979E+04  0.65864270000E+03 0. -1.
    8880022    1    1    2    0    0  0.73867110412E+03  0.10831434731E+04  0.80133871310E+03  0.15441405925E+04  0.15294330000E+03 0.  0.
<mgrwt>
<rscale>  0 0.14289029E+04</rscale>
<asrwt>0</asrwt>
<pdfrwt beam="1">  1        2 0.37424161E+00 0.14671895E+04</pdfrwt>
<pdfrwt beam="2">  1       -2 0.22058996E+00 0.14671895E+04</pdfrwt>
<totfact> 0.35146445E-01</totfact>
</mgrwt>
</event>
<event>
 4    1  0.2799069E-007  0.1196255E+04  0.7818608E-02  0.9160771E-01
         -2   -1    0    0    0  501 -0.00000000000E+00  0.00000000000E+00  0.85613835855E+03  0.85613835855E+03  0.25500000000E-02 0.  1.
          2   -1    0    0  501    0  0.00000000000E+00 -0.00000000000E+00 -0.16343033028E+04  0.16343033028E+04  0.25500000000E-02 0. -1.
    8880023    1    1    2    0    0  0.43815802213E+03 -0.89734808936E+03  0.30123231509E+02  0.11966343055E+04  0.65864270000E+03 0.  1.
    8880022    1    1    2    0    0 -0.43815802213E+03  0.89734808936E+03 -0.80828817571E+03  0.12938073558E+04  0.15294330000E+03 0. -1.
<mgrwt>
<rscale>  0 0.11467670E+04</rscale>
<asrwt>0</asrwt>
<pdfrwt beam="1">  1        2 0.25143128E+00 0.11962551E+04</pdfrwt>
<pdfrwt beam="2">  1       -2 0.13171359E+00 0.11962551E+04</pdfrwt>
<totfact> 0.43662531E+00</totfact>
</mgrwt>
</event>
<event>
 4    1  0.2799069E-007  0.6708820E+03  0.7818608E-02  0.1015038E+00
          2   -1    0    0  501    0  0.00000000000E+00  0.00000000000E+00  0.67627914217E+03  0.67627914218E+03  0.25500000000E-02 0. -1.
         -2   -1    0    0    0  501 -0.00000000000E+00 -0.00000000000E+00 -0.60269531716E+03  0.60269531717E+03  0.25500000000E-02 0.  1.
    8880023    1    1    2    0    0  0.29247659954E+02  0.12416549392E+03 -0.38888556668E+03  0.77544483087E+03  0.65864270000E+03 0.  1.
    8880022    1    1    2    0    0 -0.29247659954E+02 -0.12416549392E+03  0.46246939169E+03  0.50352962848E+03  0.15294330000E+03 0.  0.
<mgrwt>
<rscale>  0 0.49520428E+03</rscale>
<asrwt>0</asrwt>
<pdfrwt beam="1">  1        2 0.10404294E+00 0.67088203E+03</pdfrwt>
<pdfrwt beam="2">  1       -2 0.92722357E-01 0.67088203E+03</pdfrwt>
<totfact> 0.43028890E+01</totfact>
</mgrwt>
</event>
<event>
 4    1  0.2799069E-007  0.9747432E+03  0.7818608E-02  0.9415374E-01
         -2   -1    0    0    0  501 -0.00000000000E+00  0.00000000000E+00  0.54468269151E+03  0.54468269152E+03  0.25500000000E-02 0.  1.
          2   -1    0    0  501    0  0.00000000000E+00 -0.00000000000E+00 -0.20229088321E+04  0.20229088321E+04  0.25500000000E-02 0. -1.
    8880023    1    1    2    0    0  0.64795833355E+03  0.31058674670E+03 -0.67545895992E+02  0.97708074568E+03  0.65864270000E+03 0.  0.
    8880022    1    1    2    0    0 -0.64795833355E+03 -0.31058674670E+03 -0.14106802446E+04  0.15905107780E+04  0.15294330000E+03 0.  0.
<mgrwt>
<rscale>  0 0.90821213E+03</rscale>
<asrwt>0</asrwt>
<pdfrwt beam="1">  1        2 0.31121674E+00 0.97474322E+03</pdfrwt>
<pdfrwt beam="2">  1       -2 0.83797338E-01 0.97474322E+03</pdfrwt>
<totfact> 0.81162230E+00</totfact>
</mgrwt>
</event>
<event>
 4    1  0.2799069E-007  0.1152330E+04  0.7818608E-02  0.9204914E-01
          2   -1    0    0  501    0  0.00000000000E+00  0.00000000000E+00  0.18791739180E+04  0.18791739180E+04  0.25500000000E-02 0. -1.
         -2   -1    0    0    0  501 -0.00000000000E+00 -0.00000000000E+00 -0.70936472334E+03  0.70936472334E+03  0.25500000000E-02 0.  1.
    8880023    1    1    2    0    0  0.45061138893E+03 -0.83126578776E+03  0.10620895845E+03  0.11572138881E+04  0.65864270000E+03 0.  0.
    8880022    1    1    2    0    0 -0.45061138893E+03  0.83126578776E+03  0.10636002362E+04  0.14313247533E+04  0.15294330000E+03 0.  0.
<mgrwt>
<rscale>  0 0.11002847E+04</rscale>
<asrwt>0</asrwt>
<pdfrwt beam="1">  1        2 0.28910368E+00 0.11523297E+04</pdfrwt>
<pdfrwt beam="2">  1       -2 0.10913303E+00 0.11523297E+04</pdfrwt>
<totfact> 0.51275034E+00</totfact>
</mgrwt>
</event>
<event>
 4    1  0.2799069E-007  0.8037942E+03  0.7818608E-02  0.9702652E-01
          2   -1    0    0  501    0  0.00000000000E+00  0.00000000000E+00  0.96999152497E+03  0.96999152497E+03  0.25500000000E-02 0. -1.
         -2   -1    0    0    0  501 -0.00000000000E+00 -0.00000000000E+00 -0.56658951209E+03  0.56658951210E+03  0.25500000000E-02 0.  1.
    8880023    1    1    2    0    0 -0.21378226594E+03  0.40813235972E+03 -0.13122629501E+03  0.81443564942E+03  0.65864270000E+03 0.  1.
    8880022    1    1    2    0    0  0.21378226594E+03 -0.40813235972E+03  0.53462830789E+03  0.72214538765E+03  0.15294330000E+03 0.  0.
<mgrwt>
<rscale>  0 0.70859141E+03</rscale>
<asrwt>0</asrwt>
<pdfrwt beam="1">  1        2 0.14922946E+00 0.80379418E+03</pdfrwt>
<pdfrwt beam="2">  1       -2 0.87167618E-01 0.80379418E+03</pdfrwt>
<totfact> 0.30287462E+01</totfact>
</mgrwt>
</event>
<event>
 4    1  0.2799069E-007  0.1190427E+04  0.7818608E-02  0.9166485E-01
         -2   -1    0    0    0  501 -0.00000000000E+00  0.00000000000E+00  0.78220899173E+03  0.78220899173E+03  0.25500000000E-02 0.  1.
          2   -1    0    0  501    0  0.00000000000E+00 -0.00000000000E+00 -0.24768733725E+04  0.24768733725E+04  0.25500000000E-02 0. -1.
    8880023    1    1    2    0    0  0.98532154997E+03  0.11156641474E+03  0.10871261567E+03  0.11953803833E+04  0.65864270000E+03 0.  1.
    8880022    1    1    2    0    0 -0.98532154997E+03 -0.11156641474E+03 -0.18033769964E+04  0.20637019809E+04  0.15294330000E+03 0.  0.
<mgrwt>
<rscale>  0 0.11406158E+04</rscale>
<asrwt>0</asrwt>
<pdfrwt beam="1">  1        2 0.38105744E+00 0.11904267E+04</pdfrwt>
<pdfrwt beam="2">  1       -2 0.12033985E+00 0.11904267E+04</pdfrwt>
<totfact> 0.18581514E+00</totfact>
</mgrwt>
</event>
<event>
 4    1  0.2799069E-007  0.1054130E+04  0.7818608E-02  0.9313933E-01
         -2   -1    0    0    0  501 -0.00000000000E+00  0.00000000000E+00  0.86081321657E+03  0.86081321658E+03  0.25500000000E-02 0.  1.
          2   -1    0    0  501    0  0.00000000000E+00 -0.00000000000E+00 -0.16016825520E+04  0.16016825520E+04  0.25500000000E-02 0. -1.
    8880023    1    1    2    0    0 -0.30139867435E+03  0.76585756253E+03  0.32878435885E+03  0.11042138959E+04  0.65864270000E+03 0.  1.
    8880022    1    1    2    0    0  0.30139867435E+03 -0.76585756253E+03 -0.10696536942E+04  0.13582818727E+04  0.15294330000E+03 0.  0.
<mgrwt>
<rscale>  0 0.99510174E+03</rscale>
<asrwt>0</asrwt>
<pdfrwt beam="1">  1        2 0.24641270E+00 0.10541296E+04</pdfrwt>
<pdfrwt beam="2">  1       -2 0.13243280E+00 0.10541296E+04</pdfrwt>
<totfact> 0.45554563E+00</totfact>
</mgrwt>
</event>
<event>
 4    1  0.2799069E-007  0.6870696E+03  0.7818608E-02  0.1005578E+00
          2   -1    0    0  501    0  0.00000000000E+00  0.00000000000E+00  0.24674405378E+04  0.24674405378E+04  0.25500000000E-02 0. -1.
         -2   -1    0    0    0  501 -0.00000000000E+00 -0.00000000000E+00 -0.27934241890E+03  0.27934241891E+03  0.25500000000E-02 0.  1.
    8880023    1    1    2    0    0 -0.13834782867E+03  0.13825445264E+03  0.16249984890E+03  0.70602466142E+03  0.65864270000E+03 0.  1.
    8880022    1    1    2    0    0  0.13834782867E+03 -0.13825445264E+03  0.20255982700E+04  0.20407582953E+04  0.15294330000E+03 0.  0.
<mgrwt>
<rscale>  0 0.53270739E+03</rscale>
<asrwt>0</asrwt>
<pdfrwt beam="1">  1        2 0.37960624E+00 0.68706959E+03</pdfrwt>
<pdfrwt beam="2">  1       -2 0.42975756E-01 0.68706959E+03</pdfrwt>
<totfact> 0.19700600E+01</totfact>
</mgrwt>
</event>
<event>
 4    1  0.2799069E-007  0.1540984E+04  0.7818608E-02  0.8881225E-01
         -2   -1    0    0    0  501 -0.00000000000E+00  0.00000000000E+00  0.14850493349E+04  0.14850493349E+04  0.25500000000E-02 0.  1.
          2   -1    0    0  501    0  0.00000000000E+00 -0.00000000000E+00 -0.17369705141E+04  0.17369705141E+04  0.25500000000E-02 0. -1.
    8880023    1    1    2    0    0 -0.10981828103E+04 -0.85721334102E+03 -0.77648969724E+03  0.17255627062E+04  0.65864270000E+03 0. -1.
    8880022    1    1    2    0    0  0.10981828103E+04  0.85721334102E+03  0.52456851805E+03  0.14964571427E+04  0.15294330000E+03 0.  0.
<mgrwt>
<rscale>  0 0.15048633E+04</rscale>
<asrwt>0</asrwt>
<pdfrwt beam="1">  1        2 0.26722623E+00 0.15409836E+04</pdfrwt>
<pdfrwt beam="2">  1       -2 0.22846913E+00 0.15409836E+04</pdfrwt>
<totfact> 0.76469800E-01</totfact>
</mgrwt>
</event>
<event>
 4    1  0.2799069E-007  0.1019375E+04  0.7818608E-02  0.9356637E-01
          2   -1    0    0  501    0  0.00000000000E+00  0.00000000000E+00  0.25629954556E+04  0.25629954556E+04  0.25500000000E-02 0. -1.
         -2   -1    0    0    0  501 -0.00000000000E+00 -0.00000000000E+00 -0.47815562647E+03  0.47815562647E+03  0.25500000000E-02 0.  1.
    8880023    1    1    2    0    0 -0.14710420011E+03 -0.76398649189E+03  0.26077509818E+03  0.10522019120E+04  0.65864270000E+03 0.  1.
    8880022    1    1    2    0    0  0.14710420011E+03  0.76398649189E+03  0.18240647309E+04  0.19889491701E+04  0.15294330000E+03 0. -1.
<mgrwt>
<rscale>  0 0.95731853E+03</rscale>
<asrwt>0</asrwt>
<pdfrwt beam="1">  1        2 0.39430699E+00 0.10193749E+04</pdfrwt>
<pdfrwt beam="2">  1       -2 0.73562405E-01 0.10193749E+04</pdfrwt>
<totfact> 0.53824505E+00</totfact>
</mgrwt>
</event>
<event>
 4    1  0.2799069E-007  0.1191707E+04  0.7818608E-02  0.9165227E-01
          2   -1    0    0  501    0  0.00000000000E+00  0.00000000000E+00  0.62072074455E+03  0.62072074455E+03  0.25500000000E-02 0. -1.
         -2   -1    0    0    0  501 -0.00000000000E+00 -0.00000000000E+00 -0.23148967546E+04  0.23148967546E+04  0.25500000000E-02 0.  1.
    8880023    1    1    2    0    0  0.77183974841E+03  0.62499427317E+03 -0.14938955990E+04  0.19109915504E+04  0.65864270000E+03 0.  1.
    8880022    1    1    2    0    0 -0.77183974841E+03 -0.62499427317E+03 -0.20028041100E+03  0.10246259487E+04  0.15294330000E+03 0. -1.
<mgrwt>
<rscale>  0 0.11419669E+04</rscale>
<asrwt>0</asrwt>
<pdfrwt beam="1">  1        2 0.95495500E-01 0.11917066E+04</pdfrwt>
<pdfrwt beam="2">  1       -2 0.35613796E+00 0.11917066E+04</pdfrwt>
<totfact> 0.67013167E-01</totfact>
</mgrwt>
</event>
<event>
 4    1  0.2799069E-007  0.1260295E+04  0.7818608E-02  0.9100629E-01
         -2   -1    0    0    0  501 -0.00000000000E+00  0.00000000000E+00  0.85769565922E+03  0.85769565922E+03  0.25500000000E-02 0.  1.
          2   -1    0    0  501    0  0.00000000000E+00 -0.00000000000E+00 -0.24107788379E+04  0.24107788379E+04  0.25500000000E-02 0. -1.
    8880023    1    1    2    0    0  0.90870929255E+03 -0.57339401439E+03  0.12874875066E+03  0.12668542620E+04  0.65864270000E+03 0.  0.
    8880022    1    1    2    0    0 -0.90870929255E+03  0.57339401439E+03 -0.16818319294E+04  0.20016202352E+04  0.15294330000E+03 0.  0.
<mgrwt>
<rscale>  0 0.12140704E+04</rscale>
<asrwt>0</asrwt>
<pdfrwt beam="1">  1        2 0.37088905E+00 0.12602950E+04</pdfrwt>
<pdfrwt beam="2">  1       -2 0.13195318E+00 0.12602950E+04</pdfrwt>
<totfact> 0.15920624E+00</totfact>
</mgrwt>
</event>
<event>
 4    1  0.2799069E-007  0.1109492E+04  0.7818608E-02  0.9250561E-01
          2   -1    0    0  501    0  0.00000000000E+00  0.00000000000E+00  0.55303743574E+03  0.55303743575E+03  0.25500000000E-02 0. -1.
         -2   -1    0    0    0  501 -0.00000000000E+00 -0.00000000000E+00 -0.25157641973E+04  0.25157641973E+04  0.25500000000E-02 0.  1.
    8880023    1    1    2    0    0  0.39456304535E+03 -0.80092617562E+03 -0.18483344129E+04  0.21557627522E+04  0.65864270000E+03 0.  0.
    8880022    1    1    2    0    0 -0.39456304535E+03  0.80092617562E+03 -0.11439234868E+03  0.91303888088E+03  0.15294330000E+03 0.  0.
<mgrwt>
<rscale>  0 0.10546458E+04</rscale>
<asrwt>0</asrwt>
<pdfrwt beam="1">  1        2 0.85082684E-01 0.11094922E+04</pdfrwt>
<pdfrwt beam="2">  1       -2 0.38704064E+00 0.11094922E+04</pdfrwt>
<totfact> 0.49475167E-01</totfact>
</mgrwt>
</event>
<event>
 4    1  0.2799069E-007  0.1013941E+04  0.7818608E-02  0.9363542E-01
          2   -1    0    0  501    0  0.00000000000E+00  0.00000000000E+00  0.28012443203E+04  0.28012443203E+04  0.25500000000E-02 0. -1.
         -2   -1    0    0    0  501 -0.00000000000E+00 -0.00000000000E+00 -0.40327848981E+03  0.40327848982E+03  0.25500000000E-02 0.  1.
    8880023    1    1    2    0    0 -0.66207551207E+03  0.39486866174E+03  0.46028112921E+03  0.11135233127E+04  0.65864270000E+03 0.  0.
    8880022    1    1    2    0    0  0.66207551207E+03 -0.39486866174E+03  0.19376847012E+04  0.20909994974E+04  0.15294330000E+03 0.  0.
<mgrwt>
<rscale>  0 0.95137729E+03</rscale>
<asrwt>0</asrwt>
<pdfrwt beam="1">  1        2 0.43096068E+00 0.10139406E+04</pdfrwt>
<pdfrwt beam="2">  1       -2 0.62042843E-01 0.10139406E+04</pdfrwt>
<totfact> 0.56571260E+00</totfact>
</mgrwt>
</event>
<event>
 4    1  0.2799069E-007  0.7005153E+03  0.7818608E-02  0.9995070E-01
          2   -1    0    0  501    0  0.00000000000E+00  0.00000000000E+00  0.10006877584E+04  0.10006877584E+04  0.25500000000E-02 0. -1.
         -2   -1    0    0    0  501 -0.00000000000E+00 -0.00000000000E+00 -0.52446467982E+03  0.52446467983E+03  0.25500000000E-02 0.  1.
    8880023    1    1    2    0    0  0.21552764123E+03  0.10227112459E+03 -0.25142705818E+03  0.74426965470E+03  0.65864270000E+03 0.  1.
    8880022    1    1    2    0    0 -0.21552764123E+03 -0.10227112459E+03  0.72765013675E+03  0.78088278351E+03  0.15294330000E+03 0.  0.
<mgrwt>
<rscale>  0 0.55866935E+03</rscale>
<asrwt>0</asrwt>
<pdfrwt beam="1">  1        2 0.15395196E+00 0.70051535E+03</pdfrwt>
<pdfrwt beam="2">  1       -2 0.80686873E-01 0.70051535E+03</pdfrwt>
<totfact> 0.34831508E+01</totfact>
</mgrwt>
</event>
<event>
 4    1  0.2799069E-007  0.7949819E+03  0.7818608E-02  0.9721753E-01
         -2   -1    0    0    0  501 -0.00000000000E+00  0.00000000000E+00  0.83497441697E+03  0.83497441697E+03  0.25500000000E-02 0.  1.
          2   -1    0    0  501    0  0.00000000000E+00 -0.00000000000E+00 -0.92053937750E+03  0.92053937750E+03  0.25500000000E-02 0. -1.
    8880023    1    1    2    0    0 -0.15118173629E+03 -0.41872441180E+03  0.54848490315E+03  0.96583225545E+03  0.65864270000E+03 0.  0.
    8880022    1    1    2    0    0  0.15118173629E+03  0.41872441180E+03 -0.63404986368E+03  0.78968153902E+03  0.15294330000E+03 0. -1.
<mgrwt>
<rscale>  0 0.69736267E+03</rscale>
<asrwt>0</asrwt>
<pdfrwt beam="1">  1        2 0.14162144E+00 0.79498192E+03</pdfrwt>
<pdfrwt beam="2">  1       -2 0.12845760E+00 0.79498192E+03</pdfrwt>
<totfact> 0.12857957E+01</totfact>
</mgrwt>
</event>
<event>
 4    1  0.2799069E-007  0.1257237E+04  0.7818608E-02  0.9103397E-01
          2   -1    0    0  501    0  0.00000000000E+00  0.00000000000E+00  0.25900945128E+04  0.25900945128E+04  0.25500000000E-02 0. -1.
         -2   -1    0    0    0  501 -0.00000000000E+00 -0.00000000000E+00 -0.60729349552E+03  0.60729349553E+03  0.25500000000E-02 0.  1.
    8880023    1    1    2    0    0  0.10270034514E+04  0.30347629012E+03  0.48004433387E+03  0.13457662191E+04  0.65864270000E+03 0.  0.
    8880022    1    1    2    0    0 -0.10270034514E+04 -0.30347629012E+03  0.15027566834E+04  0.18516217892E+04  0.15294330000E+03 0.  0.
<mgrwt>
<rscale>  0 0.12108671E+04</rscale>
<asrwt>0</asrwt>
<pdfrwt beam="1">  1        2 0.39847609E+00 0.12572367E+04</pdfrwt>
<pdfrwt beam="2">  1       -2 0.93429767E-01 0.12572367E+04</pdfrwt>
<totfact> 0.29257797E+00</totfact>
</mgrwt>
</event>
<event>
 4    1  0.2799069E-007  0.1218836E+04  0.7818608E-02  0.9139026E-01
         -2   -1    0    0    0  501 -0.00000000000E+00  0.00000000000E+00  0.71829963641E+03  0.71829963642E+03  0.25500000000E-02 0.  1.
          2   -1    0    0  501    0  0.00000000000E+00 -0.00000000000E+00 -0.24930425682E+04  0.24930425682E+04  0.25500000000E-02 0. -1.
    8880023    1    1    2    0    0  0.59856520565E+03 -0.83274932661E+03 -0.76069477410E+02  0.12212078112E+04  0.65864270000E+03 0.  0.
    8880022    1    1    2    0    0 -0.59856520565E+03  0.83274932661E+03 -0.16986734543E+04  0.19901343934E+04  0.15294330000E+03 0.  0.
<mgrwt>
<rscale>  0 0.11705564E+04</rscale>
<asrwt>0</asrwt>
<pdfrwt beam="1">  1        2 0.38354501E+00 0.12188363E+04</pdfrwt>
<pdfrwt beam="2">  1       -2 0.11050764E+00 0.12188363E+04</pdfrwt>
<totfact> 0.22365360E+00</totfact>
</mgrwt>
</event>
<event>
 4    1  0.2799069E-007  0.1178967E+04  0.7818608E-02  0.9177844E-01
          2   -1    0    0  501    0  0.00000000000E+00  0.00000000000E+00  0.22874969489E+04  0.22874969489E+04  0.25500000000E-02 0. -1.
         -2   -1    0    0    0  501 -0.00000000000E+00 -0.00000000000E+00 -0.56651913484E+03  0.56651913484E+03  0.25500000000E-02 0.  1.
    8880023    1    1    2    0    0  0.96649775977E+03  0.14844230155E+03  0.49568260445E+03  0.12789309939E+04  0.65864270000E+03 0.  1.
    8880022    1    1    2    0    0 -0.96649775977E+03 -0.14844230155E+03  0.12252952096E+04  0.15750850898E+04  0.15294330000E+03 0.  0.
<mgrwt>
<rscale>  0 0.11285070E+04</rscale>
<asrwt>0</asrwt>
<pdfrwt beam="1">  1        2 0.35192261E+00 0.11789670E+04</pdfrwt>
<pdfrwt beam="2">  1       -2 0.87156789E-01 0.11789670E+04</pdfrwt>
<totfact> 0.51656729E+00</totfact>
</mgrwt>
</event>
<event>
 4    1  0.2799069E-007  0.1452900E+04  0.7818608E-02  0.8943631E-01
         -2   -1    0    0    0  501 -0.00000000000E+00  0.00000000000E+00  0.98202298286E+03  0.98202298287E+03  0.25500000000E-02 0.  1.
          2   -1    0    0  501    0  0.00000000000E+00 -0.00000000000E+00 -0.19472714570E+04  0.19472714570E+04  0.25500000000E-02 0. -1.
    8880023    1    1    2    0    0  0.12919655799E+04 -0.89074036278E+02 -0.39220331655E+03  0.15049062733E+04  0.65864270000E+03 0.  0.
    8880022    1    1    2    0    0 -0.12919655799E+04  0.89074036278E+02 -0.57304515763E+03  0.14243881666E+04  0.15294330000E+03 0.  0.
<mgrwt>
<rscale>  0 0.14141614E+04</rscale>
<asrwt>0</asrwt>
<pdfrwt beam="1">  1        2 0.29958022E+00 0.14529004E+04</pdfrwt>
<pdfrwt beam="2">  1       -2 0.15108046E+00 0.14529004E+04</pdfrwt>
<totfact> 0.19932184E+00</totfact>
</mgrwt>
</event>
<event>
 4    1  0.2799069E-007  0.9322443E+03  0.7818608E-02  0.9476134E-01
         -2   -1    0    0    0  501 -0.00000000000E+00  0.00000000000E+00  0.89126648973E+03  0.89126648973E+03  0.25500000000E-02 0.  1.
          2   -1    0    0  501    0  0.00000000000E+00 -0.00000000000E+00 -0.31530043585E+04  0.31530043585E+04  0.25500000000E-02 0. -1.
    8880023    1    1    2    0    0 -0.44081195815E+02 -0.65827512118E+03  0.59659616114E+03  0.11068001051E+04  0.65864270000E+03 0.  0.
    8880022    1    1    2    0    0  0.44081195815E+02  0.65827512118E+03 -0.28583340299E+04  0.29374707431E+04  0.15294330000E+03 0.  0.
<mgrwt>
<rscale>  0 0.86066429E+03</rscale>
<asrwt>0</asrwt>
<pdfrwt beam="1">  1        2 0.48507759E+00 0.93224433E+03</pdfrwt>
<pdfrwt beam="2">  1       -2 0.13711792E+00 0.93224433E+03</pdfrwt>
<totfact> 0.54524693E-01</totfact>
</mgrwt>
</event>
<event>
 4    1  0.2799069E-007  0.7639586E+03  0.7818608E-02  0.9794965E-01
          2   -1    0    0  501    0  0.00000000000E+00  0.00000000000E+00  0.15163385129E+04  0.15163385129E+04  0.25500000000E-02 0. -1.
         -2   -1    0    0    0  501 -0.00000000000E+00 -0.00000000000E+00 -0.27591510316E+03  0.27591510318E+03  0.25500000000E-02 0.  1.
    8880023    1    1    2    0    0  0.35670661550E+03 -0.15027633129E+03  0.41877149396E+03  0.87120741256E+03  0.65864270000E+03 0.  1.
    8880022    1    1    2    0    0 -0.35670661550E+03  0.15027633129E+03  0.82165191573E+03  0.92104620347E+03  0.15294330000E+03 0.  0.
<mgrwt>
<rscale>  0 0.65633465E+03</rscale>
<asrwt>0</asrwt>
<pdfrwt beam="1">  1        2 0.23328286E+00 0.76395863E+03</pdfrwt>
<pdfrwt beam="2">  1       -2 0.42448476E-01 0.76395863E+03</pdfrwt>
<totfact> 0.66633722E+01</totfact>
</mgrwt>
</event>
<event>
 4    1  0.2799069E-007  0.9349853E+03  0.7818608E-02  0.9472054E-01
         -2   -1    0    0    0  501 -0.00000000000E+00  0.00000000000E+00  0.50959403964E+03  0.50959403964E+03  0.25500000000E-02 0.  1.
          2   -1    0    0  501    0  0.00000000000E+00 -0.00000000000E+00 -0.15429336289E+04  0.15429336290E+04  0.25500000000E-02 0. -1.
    8880023    1    1    2    0    0  0.66338474695E+03 -0.17548622120E+02 -0.16572061525E+03  0.94955821581E+03  0.65864270000E+03 0.  0.
    8880022    1    1    2    0    0 -0.66338474695E+03  0.17548622120E+02 -0.86761897406E+03  0.11029694528E+04  0.15294330000E+03 0.  0.
<mgrwt>
<rscale>  0 0.86375875E+03</rscale>
<asrwt>0</asrwt>
<pdfrwt beam="1">  1        2 0.23737440E+00 0.93498528E+03</pdfrwt>
<pdfrwt beam="2">  1       -2 0.78399084E-01 0.93498528E+03</pdfrwt>
<totfact> 0.17433071E+01</totfact>
</mgrwt>
</event>
<event>
 4    1  0.2799069E-007  0.1009317E+04  0.7818608E-02  0.9369468E-01
         -2   -1    0    0    0  501 -0.00000000000E+00  0.00000000000E+00  0.12151234375E+04  0.12151234375E+04  0.25500000000E-02 0.  1.
          2   -1    0    0  501    0  0.00000000000E+00 -0.00000000000E+00 -0.12607391973E+04  0.12607391973E+04  0.25500000000E-02 0. -1.
    8880023    1    1    2    0    0 -0.58598023147E+03  0.49146546638E+03  0.82746266256E+03  0.13051497234E+04  0.65864270000E+03 0.  0.
    8880022    1    1    2    0    0  0.58598023147E+03 -0.49146546638E+03 -0.87307842237E+03  0.11707129114E+04  0.15294330000E+03 0.  0.
<mgrwt>
<rscale>  0 0.94631506E+03</rscale>
<asrwt>0</asrwt>
<pdfrwt beam="1">  1        2 0.19395988E+00 0.10093173E+04</pdfrwt>
<pdfrwt beam="2">  1       -2 0.18694207E+00 0.10093173E+04</pdfrwt>
<totfact> 0.28070495E+00</totfact>
</mgrwt>
</event>
<event>
 4    1  0.2799069E-007  0.1683108E+04  0.7818608E-02  0.8790111E-01
          2   -1    0    0  501    0  0.00000000000E+00  0.00000000000E+00  0.23461609827E+04  0.23461609827E+04  0.25500000000E-02 0. -1.
         -2   -1    0    0    0  501 -0.00000000000E+00 -0.00000000000E+00 -0.13635577154E+04  0.13635577154E+04  0.25500000000E-02 0.  1.
    8880023    1    1    2    0    0 -0.11634029415E+04 -0.10225146902E+04 -0.27915998472E+03  0.17061017553E+04  0.65864270000E+03 0.  0.
    8880022    1    1    2    0    0  0.11634029415E+04  0.10225146902E+04  0.12617632520E+04  0.20036169428E+04  0.15294330000E+03 0.  0.
<mgrwt>
<rscale>  0 0.16504999E+04</rscale>
<asrwt>0</asrwt>
<pdfrwt beam="1">  1        2 0.36094784E+00 0.16831081E+04</pdfrwt>
<pdfrwt beam="2">  1       -2 0.20977811E+00 0.16831081E+04</pdfrwt>
<totfact> 0.45162062E-01</totfact>
</mgrwt>
</event>
<event>
 4    1  0.2799069E-007  0.8633886E+03  0.7818608E-02  0.9587564E-01
         -2   -1    0    0    0  501 -0.00000000000E+00  0.00000000000E+00  0.24617831170E+04  0.24617831170E+04  0.25500000000E-02 0.  1.
          2   -1    0    0  501    0  0.00000000000E+00 -0.00000000000E+00 -0.15339448579E+04  0.15339448579E+04  0.25500000000E-02 0. -1.
    8880023    1    1    2    0    0 -0.54620614902E+03 -0.11527596878E+03  0.23267640536E+04  0.24817878381E+04  0.65864270000E+03 0.  1.
    8880022    1    1    2    0    0  0.54620614902E+03  0.11527596878E+03 -0.13989257944E+04  0.15139401367E+04  0.15294330000E+03 0.  0.
<mgrwt>
<rscale>  0 0.78124779E+03</rscale>
<asrwt>0</asrwt>
<pdfrwt beam="1">  1        2 0.23599152E+00 0.86338862E+03</pdfrwt>
<pdfrwt beam="2">  1       -2 0.37873587E+00 0.86338862E+03</pdfrwt>
<totfact> 0.12955679E-01</totfact>
</mgrwt>
</event>
<event>
 4    1  0.2799069E-007  0.6727192E+03  0.7818608E-02  0.1013784E+00
         -2   -1    0    0    0  501 -0.00000000000E+00  0.00000000000E+00  0.11255102600E+03  0.11255102603E+03  0.25500000000E-02 0.  1.
          2   -1    0    0  501    0  0.00000000000E+00 -0.00000000000E+00 -0.20570333626E+04  0.20570333626E+04  0.25500000000E-02 0. -1.
    8880023    1    1    2    0    0 -0.12526354086E+03 -0.55226507405E+02 -0.10148996222E+04  0.12176092851E+04  0.65864270000E+03 0.  1.
    8880022    1    1    2    0    0  0.12526354086E+03  0.55226507405E+02 -0.92958271438E+03  0.95197510350E+03  0.15294330000E+03 0.  0.
<mgrwt>
<rscale>  0 0.49997999E+03</rscale>
<asrwt>0</asrwt>
<pdfrwt beam="1">  1        2 0.31646665E+00 0.67271920E+03</pdfrwt>
<pdfrwt beam="2">  1       -2 0.17315544E-01 0.67271920E+03</pdfrwt>
<totfact> 0.17595474E+02</totfact>
</mgrwt>
</event>
<event>
 4    1  0.2799069E-007  0.1292406E+04  0.7818608E-02  0.9072146E-01
         -2   -1    0    0    0  501 -0.00000000000E+00  0.00000000000E+00  0.97820813827E+03  0.97820813828E+03  0.25500000000E-02 0.  1.
          2   -1    0    0  501    0  0.00000000000E+00 -0.00000000000E+00 -0.23096139728E+04  0.23096139728E+04  0.25500000000E-02 0. -1.
    8880023    1    1    2    0    0  0.11076329742E+04  0.98243784423E+02  0.28157777236E+03  0.13227240434E+04  0.65864270000E+03 0.  1.
    8880022    1    1    2    0    0 -0.11076329742E+04 -0.98243784423E+02 -0.16129836069E+04  0.19650980678E+04  0.15294330000E+03 0.  1.
<mgrwt>
<rscale>  0 0.12476448E+04</rscale>
<asrwt>0</asrwt>
<pdfrwt beam="1">  1        2 0.35532523E+00 0.12924058E+04</pdfrwt>
<pdfrwt beam="2">  1       -2 0.15049356E+00 0.12924058E+04</pdfrwt>
<totfact> 0.12833195E+00</totfact>
</mgrwt>
</event>
<event>
 4    1  0.2799069E-007  0.1010913E+04  0.7818608E-02  0.9367417E-01
          2   -1    0    0  501    0  0.00000000000E+00  0.00000000000E+00  0.14546865957E+04  0.14546865957E+04  0.25500000000E-02 0. -1.
         -2   -1    0    0    0  501 -0.00000000000E+00 -0.00000000000E+00 -0.63518793729E+03  0.63518793729E+03  0.25500000000E-02 0.  1.
    8880023    1    1    2    0    0  0.76689951067E+03 -0.60116295992E+00  0.80793542980E+02  0.10141365903E+04  0.65864270000E+03 0.  1.
    8880022    1    1    2    0    0 -0.76689951067E+03  0.60116295992E+00  0.73870511544E+03  0.10757379427E+04  0.15294330000E+03 0.  0.
<mgrwt>
<rscale>  0 0.94806329E+03</rscale>
<asrwt>0</asrwt>
<pdfrwt beam="1">  1        2 0.22379794E+00 0.10109132E+04</pdfrwt>
<pdfrwt beam="2">  1       -2 0.97721221E-01 0.10109132E+04</pdfrwt>
<totfact> 0.11679808E+01</totfact>
</mgrwt>
</event>
<event>
 4    1  0.2799069E-007  0.1455337E+04  0.7818608E-02  0.8941835E-01
          2   -1    0    0  501    0  0.00000000000E+00  0.00000000000E+00  0.23244924597E+04  0.23244924597E+04  0.25500000000E-02 0. -1.
         -2   -1    0    0    0  501 -0.00000000000E+00 -0.00000000000E+00 -0.14104750351E+04  0.14104750351E+04  0.25500000000E-02 0.  1.
    8880023    1    1    2    0    0  0.12484771266E+04 -0.35426087355E+03  0.16780686475E+04  0.22212430065E+04  0.65864270000E+03 0.  0.
    8880022    1    1    2    0    0 -0.12484771266E+04  0.35426087355E+03 -0.76405122290E+03  0.15137244883E+04  0.15294330000E+03 0.  0.
<mgrwt>
<rscale>  0 0.14166761E+04</rscale>
<asrwt>0</asrwt>
<pdfrwt beam="1">  1        2 0.35761422E+00 0.14553371E+04</pdfrwt>
<pdfrwt beam="2">  1       -2 0.21699616E+00 0.14553371E+04</pdfrwt>
<totfact> 0.42762651E-01</totfact>
</mgrwt>
</event>
<event>
 4    1  0.2799069E-007  0.6774175E+03  0.7818608E-02  0.1010824E+00
         -2   -1    0    0    0  501 -0.00000000000E+00  0.00000000000E+00  0.24628042832E+03  0.24628042834E+03  0.25500000000E-02 0.  1.
          2   -1    0    0  501    0  0.00000000000E+00 -0.00000000000E+00 -0.18462362893E+04  0.18462362893E+04  0.25500000000E-02 0. -1.
    8880023    1    1    2    0    0  0.15490692213E+03  0.32986966155E+02 -0.24588437264E+03  0.72066193561E+03  0.65864270000E+03 0.  0.
    8880022    1    1    2    0    0 -0.15490692213E+03 -0.32986966155E+02 -0.13540714884E+04  0.13718547821E+04  0.15294330000E+03 0.  0.
<mgrwt>
<rscale>  0 0.51148524E+03</rscale>
<asrwt>0</asrwt>
<pdfrwt beam="1">  1        2 0.28403634E+00 0.67741752E+03</pdfrwt>
<pdfrwt beam="2">  1       -2 0.37889298E-01 0.67741752E+03</pdfrwt>
<totfact> 0.55374721E+01</totfact>
</mgrwt>
</event>
<event>
 4    1  0.2799069E-007  0.1749010E+04  0.7818608E-02  0.8751279E-01
          2   -1    0    0  501    0  0.00000000000E+00  0.00000000000E+00  0.21506616019E+04  0.21506616019E+04  0.25500000000E-02 0. -1.
         -2   -1    0    0    0  501 -0.00000000000E+00 -0.00000000000E+00 -0.22411344221E+04  0.22411344221E+04  0.25500000000E-02 0.  1.
    8880023    1    1    2    0    0 -0.12072183410E+04  0.10806710229E+04 -0.14494508558E+04  0.22715510059E+04  0.65864270000E+03 0.  1.
    8880022    1    1    2    0    0  0.12072183410E+04 -0.10806710229E+04  0.13589780356E+04  0.21202450182E+04  0.15294330000E+03 0.  0.
<mgrwt>
<rscale>  0 0.17177962E+04</rscale>
<asrwt>0</asrwt>
<pdfrwt beam="1">  1        2 0.33087102E+00 0.17490101E+04</pdfrwt>
<pdfrwt beam="2">  1       -2 0.34478991E+00 0.17490101E+04</pdfrwt>
<totfact> 0.84119660E-02</totfact>
</mgrwt>
</event>
<event>
 4    1  0.2799069E-007  0.9521087E+03  0.7818608E-02  0.9447087E-01
         -2   -1    0    0    0  501 -0.00000000000E+00  0.00000000000E+00  0.48542176825E+03  0.48542176826E+03  0.25500000000E-02 0.  1.
          2   -1    0    0  501    0  0.00000000000E+00 -0.00000000000E+00 -0.21469834079E+04  0.21469834079E+04  0.25500000000E-02 0. -1.
    8880023    1    1    2    0    0 -0.54094347142E+03  0.42435939700E+03 -0.14874029417E+03  0.96365689873E+03  0.65864270000E+03 0.  1.
    8880022    1    1    2    0    0  0.54094347142E+03 -0.42435939700E+03 -0.15128213455E+04  0.16687482775E+04  0.15294330000E+03 0.  0.
<mgrwt>
<rscale>  0 0.88299901E+03</rscale>
<asrwt>0</asrwt>
<pdfrwt beam="1">  1        2 0.33030513E+00 0.95210868E+03</pdfrwt>
<pdfrwt beam="2">  1       -2 0.74680273E-01 0.95210868E+03</pdfrwt>
<totfact> 0.90083777E+00</totfact>
</mgrwt>
</event>
<event>
 4    1  0.2799069E-007  0.8059166E+03  0.7818608E-02  0.9698146E-01
         -2   -1    0    0    0  501 -0.00000000000E+00  0.00000000000E+00  0.82648686316E+03  0.82648686317E+03  0.25500000000E-02 0.  1.
          2   -1    0    0  501    0  0.00000000000E+00 -0.00000000000E+00 -0.69518802101E+03  0.69518802102E+03  0.25500000000E-02 0. -1.
    8880023    1    1    2    0    0 -0.38830177604E+03 -0.25478041214E+03  0.46429557806E+03  0.93009242431E+03  0.65864270000E+03 0.  1.
    8880022    1    1    2    0    0  0.38830177604E+03  0.25478041214E+03 -0.33299673591E+03  0.59158245987E+03  0.15294330000E+03 0.  0.
<mgrwt>
<rscale>  0 0.71127272E+03</rscale>
<asrwt>0</asrwt>
<pdfrwt beam="1">  1        2 0.10695200E+00 0.80591658E+03</pdfrwt>
<pdfrwt beam="2">  1       -2 0.12715182E+00 0.80591658E+03</pdfrwt>
<totfact> 0.19152462E+01</totfact>
</mgrwt>
</event>
<event>
 4    1  0.2799069E-007  0.1001793E+04  0.7818608E-02  0.9379215E-01
          2   -1    0    0  501    0  0.00000000000E+00  0.00000000000E+00  0.24234397664E+04  0.24234397664E+04  0.25500000000E-02 0. -1.
         -2   -1    0    0    0  501 -0.00000000000E+00 -0.00000000000E+00 -0.11708288306E+04  0.11708288306E+04  0.25500000000E-02 0.  1.
    8880023    1    1    2    0    0  0.29545983488E+03 -0.69460992223E+03 -0.87589520178E+03  0.13307073566E+04  0.65864270000E+03 0.  1.
    8880022    1    1    2    0    0 -0.29545983488E+03  0.69460992223E+03  0.21285061376E+04  0.22635612404E+04  0.15294330000E+03 0.  0.
<mgrwt>
<rscale>  0 0.93806097E+03</rscale>
<asrwt>0</asrwt>
<pdfrwt beam="1">  1        2 0.37283689E+00 0.10017932E+04</pdfrwt>
<pdfrwt beam="2">  1       -2 0.18012751E+00 0.10017932E+04</pdfrwt>
<totfact> 0.70034499E-01</totfact>
</mgrwt>
</event>
<event>
 4    1  0.2799069E-007  0.7455466E+03  0.7818608E-02  0.9844075E-01
         -2   -1    0    0    0  501 -0.00000000000E+00  0.00000000000E+00  0.11816438148E+04  0.11816438148E+04  0.25500000000E-02 0.  1.
          2   -1    0    0  501    0  0.00000000000E+00 -0.00000000000E+00 -0.64137031101E+03  0.64137031101E+03  0.25500000000E-02 0. -1.
    8880023    1    1    2    0    0 -0.19688359046E+03 -0.28855921016E+03  0.98618104664E+03  0.12362818566E+04  0.65864270000E+03 0.  0.
    8880022    1    1    2    0    0  0.19688359046E+03  0.28855921016E+03 -0.44590754284E+03  0.58673226921E+03  0.15294330000E+03 0.  0.
<mgrwt>
<rscale>  0 0.63049926E+03</rscale>
<asrwt>0</asrwt>
<pdfrwt beam="1">  1        2 0.98672357E-01 0.74554663E+03</pdfrwt>
<pdfrwt beam="2">  1       -2 0.18179135E+00 0.74554663E+03</pdfrwt>
<totfact> 0.82047439E+00</totfact>
</mgrwt>
</event>
<event>
 4    1  0.2799069E-007  0.9903089E+03  0.7818608E-02  0.9394348E-01
          2   -1    0    0  501    0  0.00000000000E+00  0.00000000000E+00  0.38945109303E+04  0.38945109303E+04  0.25500000000E-02 0. -1.
         -2   -1    0    0    0  501 -0.00000000000E+00 -0.00000000000E+00 -0.37049954829E+03  0.37049954830E+03  0.25500000000E-02 0.  1.
    8880023    1    1    2    0    0  0.71554420616E+03 -0.18681006314E+03  0.42906469482E+03  0.10792628175E+04  0.65864270000E+03 0.  0.
    8880022    1    1    2    0    0 -0.71554420616E+03  0.18681006314E+03  0.30949466872E+04  0.31857476611E+04  0.15294330000E+03 0.  0.
<mgrwt>
<rscale>  0 0.92542299E+03</rscale>
<asrwt>0</asrwt>
<pdfrwt beam="1">  1        2 0.59915556E+00 0.99030890E+03</pdfrwt>
<pdfrwt beam="2">  1       -2 0.56999928E-01 0.99030890E+03</pdfrwt>
<totfact> 0.12606495E+00</totfact>
</mgrwt>
</event>
<event>
 4    1  0.2799069E-007  0.7862922E+03  0.7818608E-02  0.9741259E-01
          2   -1    0    0  501    0  0.00000000000E+00  0.00000000000E+00  0.22392772431E+04  0.22392772431E+04  0.25500000000E-02 0. -1.
         -2   -1    0    0    0  501 -0.00000000000E+00 -0.00000000000E+00 -0.17520531266E+03  0.17520531268E+03  0.25500000000E-02 0.  1.
    8880023    1    1    2    0    0 -0.31143198063E+03 -0.29572841169E+03  0.14527271904E+04  0.16518691437E+04  0.65864270000E+03 0.  0.
    8880022    1    1    2    0    0  0.31143198063E+03  0.29572841169E+03  0.61134474005E+03  0.76261341205E+03  0.15294330000E+03 0.  0.
<mgrwt>
<rscale>  0 0.68612505E+03</rscale>
<asrwt>0</asrwt>
<pdfrwt beam="1">  1        2 0.34450421E+00 0.78629217E+03</pdfrwt>
<pdfrwt beam="2">  1       -2 0.26954662E-01 0.78629217E+03</pdfrwt>
<totfact> 0.63099597E+01</totfact>
</mgrwt>
</event>
<event>
 4    1  0.2799069E-007  0.8799598E+03  0.7818608E-02  0.9559000E-01
          2   -1    0    0  501    0  0.00000000000E+00  0.00000000000E+00  0.19314406200E+04  0.19314406200E+04  0.25500000000E-02 0. -1.
         -2   -1    0    0    0  501 -0.00000000000E+00 -0.00000000000E+00 -0.56933799704E+03  0.56933799705E+03  0.25500000000E-02 0.  1.
    8880023    1    1    2    0    0  0.45652111962E+03  0.36346602329E+03 -0.13170622876E+03  0.88976166455E+03  0.65864270000E+03 0.  0.
    8880022    1    1    2    0    0 -0.45652111962E+03 -0.36346602329E+03  0.14938088517E+04  0.16110169525E+04  0.15294330000E+03 0.  0.
<mgrwt>
<rscale>  0 0.80070307E+03</rscale>
<asrwt>0</asrwt>
<pdfrwt beam="1">  1        2 0.29714471E+00 0.87995982E+03</pdfrwt>
<pdfrwt beam="2">  1       -2 0.87590462E-01 0.87995982E+03</pdfrwt>
<totfact> 0.83304998E+00</totfact>
</mgrwt>
</event>
<event>
 4    1  0.2799069E-007  0.1570757E+04  0.7818608E-02  0.8861223E-01
         -2   -1    0    0    0  501 -0.00000000000E+00  0.00000000000E+00  0.25249077351E+04  0.25249077351E+04  0.25500000000E-02 0.  1.
          2   -1    0    0  501    0  0.00000000000E+00 -0.00000000000E+00 -0.13760110921E+04  0.13760110921E+04  0.25500000000E-02 0. -1.
    8880023    1    1    2    0    0  0.13724764616E+04 -0.38700849410E+03  0.17449682944E+04  0.23478057345E+04  0.65864270000E+03 0.  0.
    8880022    1    1    2    0    0 -0.13724764616E+04  0.38700849410E+03 -0.59607165145E+03  0.15531130927E+04  0.15294330000E+03 0.  0.
<mgrwt>
<rscale>  0 0.15354381E+04</rscale>
<asrwt>0</asrwt>
<pdfrwt beam="1">  1        2 0.21169402E+00 0.15707570E+04</pdfrwt>
<pdfrwt beam="2">  1       -2 0.38844734E+00 0.15707570E+04</pdfrwt>
<totfact> 0.12346012E-01</totfact>
</mgrwt>
</event>
<event>
 4    1  0.2799069E-007  0.1071117E+04  0.7818608E-02  0.9293916E-01
          2   -1    0    0  501    0  0.00000000000E+00  0.00000000000E+00  0.91028722895E+03  0.91028722896E+03  0.25500000000E-02 0. -1.
         -2   -1    0    0    0  501 -0.00000000000E+00 -0.00000000000E+00 -0.13090975675E+04  0.13090975675E+04  0.25500000000E-02 0.  1.
    8880023    1    1    2    0    0 -0.20144654265E+02  0.84443849734E+03 -0.73332254515E+03  0.12980964311E+04  0.65864270000E+03 0.  0.
    8880022    1    1    2    0    0  0.20144654265E+02 -0.84443849734E+03  0.33451220658E+03  0.92128836541E+03  0.15294330000E+03 0.  0.
<mgrwt>
<rscale>  0 0.10134491E+04</rscale>
<asrwt>0</asrwt>
<pdfrwt beam="1">  1        2 0.14004419E+00 0.10711174E+04</pdfrwt>
<pdfrwt beam="2">  1       -2 0.20139963E+00 0.10711174E+04</pdfrwt>
<totfact> 0.37022474E+00</totfact>
</mgrwt>
</event>
<event>
 4    1  0.2799069E-007  0.7258206E+03  0.7818608E-02  0.9903361E-01
          2   -1    0    0  501    0  0.00000000000E+00  0.00000000000E+00  0.95089936003E+03  0.95089936003E+03  0.25500000000E-02 0. -1.
         -2   -1    0    0    0  501 -0.00000000000E+00 -0.00000000000E+00 -0.75092180496E+03  0.75092180496E+03  0.25500000000E-02 0.  1.
    8880023    1    1    2    0    0  0.38554192504E+02 -0.30252101176E+03 -0.52820833871E+03  0.89767457559E+03  0.65864270000E+03 0.  1.
    8880022    1    1    2    0    0 -0.38554192504E+02  0.30252101176E+03  0.72818589378E+03  0.80414658940E+03  0.15294330000E+03 0.  0.
<mgrwt>
<rscale>  0 0.60098651E+03</rscale>
<asrwt>0</asrwt>
<pdfrwt beam="1">  1        2 0.14629221E+00 0.72582064E+03</pdfrwt>
<pdfrwt beam="2">  1       -2 0.11552643E+00 0.72582064E+03</pdfrwt>
<totfact> 0.16108170E+01</totfact>
</mgrwt>
</event>
<event>
 4    1  0.2799069E-007  0.7086751E+03  0.7818608E-02  0.9962954E-01
         -2   -1    0    0    0  501 -0.00000000000E+00  0.00000000000E+00  0.37891238001E+03  0.37891238002E+03  0.25500000000E-02 0.  1.
          2   -1    0    0  501    0  0.00000000000E+00 -0.00000000000E+00 -0.68157457371E+03  0.68157457372E+03  0.25500000000E-02 0. -1.
    8880023    1    1    2    0    0 -0.23827918780E+03 -0.10785739867E+03 -0.16467121422E+03  0.72755549949E+03  0.65864270000E+03 0.  1.
    8880022    1    1    2    0    0  0.23827918780E+03  0.10785739867E+03 -0.13799097949E+03  0.33293145424E+03  0.15294330000E+03 0. -1.
<mgrwt>
<rscale>  0 0.57304906E+03</rscale>
<asrwt>0</asrwt>
<pdfrwt beam="1">  1        2 0.10485763E+00 0.70867510E+03</pdfrwt>
<pdfrwt beam="2">  1       -2 0.58294212E-01 0.70867510E+03</pdfrwt>
<totfact> 0.11825979E+02</totfact>
</mgrwt>
</event>
<event>
 4    1  0.2799069E-007  0.8560391E+03  0.7818608E-02  0.9600648E-01
          2   -1    0    0  501    0  0.00000000000E+00  0.00000000000E+00  0.28773424226E+04  0.28773424226E+04  0.25500000000E-02 0. -1.
         -2   -1    0    0    0  501 -0.00000000000E+00 -0.00000000000E+00 -0.67764757601E+03  0.67764757601E+03  0.25500000000E-02 0.  1.
    8880023    1    1    2    0    0  0.42666881742E+03  0.34197446046E+03 -0.36323816247E+03  0.92991665234E+03  0.65864270000E+03 0.  1.
    8880022    1    1    2    0    0 -0.42666881742E+03 -0.34197446046E+03  0.25629330090E+04  0.26250733462E+04  0.15294330000E+03 0.  0.
<mgrwt>
<rscale>  0 0.77253290E+03</rscale>
<asrwt>0</asrwt>
<pdfrwt beam="1">  1        2 0.44266807E+00 0.85603914E+03</pdfrwt>
<pdfrwt beam="2">  1       -2 0.10425347E+00 0.85603914E+03</pdfrwt>
<totfact> 0.16153405E+00</totfact>
</mgrwt>
</event>
<event>
 4    1  0.2799069E-007  0.1197609E+04  0.7818608E-02  0.9159450E-01
          2   -1    0    0  501    0  0.00000000000E+00  0.00000000000E+00  0.16546168259E+04  0.16546168259E+04  0.25500000000E-02 0. -1.
         -2   -1    0    0    0  501 -0.00000000000E+00 -0.00000000000E+00 -0.13269125204E+04  0.13269125204E+04  0.25500000000E-02 0.  1.
    8880023    1    1    2    0    0  0.81860451485E+03  0.57475639387E+03  0.11630459845E+04  0.16694143980E+04  0.65864270000E+03 0.  0.
    8880022    1    1    2    0    0 -0.81860451485E+03 -0.57475639387E+03 -0.83534167896E+03  0.13121149483E+04  0.15294330000E+03 0.  0.
<mgrwt>
<rscale>  0 0.11481958E+04</rscale>
<asrwt>0</asrwt>
<pdfrwt beam="1">  1        2 0.25455643E+00 0.11976095E+04</pdfrwt>
<pdfrwt beam="2">  1       -2 0.20414039E+00 0.11976095E+04</pdfrwt>
<totfact> 0.12604951E+00</totfact>
</mgrwt>
</event>
<event>
 4    1  0.2799069E-007  0.7279477E+03  0.7818608E-02  0.9896557E-01
          2   -1    0    0  501    0  0.00000000000E+00  0.00000000000E+00  0.14993533087E+04  0.14993533087E+04  0.25500000000E-02 0. -1.
         -2   -1    0    0    0  501 -0.00000000000E+00 -0.00000000000E+00 -0.42425765035E+03  0.42425765036E+03  0.25500000000E-02 0.  1.
    8880023    1    1    2    0    0 -0.27233666726E+03  0.14808926388E+03 -0.66356488025E+02  0.73096585432E+03  0.65864270000E+03 0.  1.
    8880022    1    1    2    0    0  0.27233666726E+03 -0.14808926388E+03  0.11414521464E+04  0.11926451048E+04  0.15294330000E+03 0.  0.
<mgrwt>
<rscale>  0 0.60428428E+03</rscale>
<asrwt>0</asrwt>
<pdfrwt beam="1">  1        2 0.23066974E+00 0.72794773E+03</pdfrwt>
<pdfrwt beam="2">  1       -2 0.65270408E-01 0.72794773E+03</pdfrwt>
<totfact> 0.28204660E+01</totfact>
</mgrwt>
</event>
<event>
 4    1  0.2799069E-007  0.1131457E+04  0.7818608E-02  0.9226815E-01
         -2   -1    0    0    0  501 -0.00000000000E+00  0.00000000000E+00  0.61288469385E+03  0.61288469386E+03  0.25500000000E-02 0.  1.
          2   -1    0    0  501    0  0.00000000000E+00 -0.00000000000E+00 -0.24368801247E+04  0.24368801247E+04  0.25500000000E-02 0. -1.
    8880023    1    1    2    0    0 -0.79832373187E+03 -0.45723515187E+03 -0.16064960599E+03  0.11428049996E+04  0.65864270000E+03 0.  0.
    8880022    1    1    2    0    0  0.79832373187E+03  0.45723515187E+03 -0.16633458248E+04  0.19069598189E+04  0.15294330000E+03 0.  0.
<mgrwt>
<rscale>  0 0.10780887E+04</rscale>
<asrwt>0</asrwt>
<pdfrwt beam="1">  1        2 0.37490463E+00 0.11314570E+04</pdfrwt>
<pdfrwt beam="2">  1       -2 0.94289954E-01 0.11314570E+04</pdfrwt>
<totfact> 0.35597691E+00</totfact>
</mgrwt>
</event>
<event>
 4    1  0.2799069E-007  0.7340694E+03  0.7818608E-02  0.9877572E-01
          2   -1    0    0  501    0  0.00000000000E+00  0.00000000000E+00  0.14408394113E+04  0.14408394113E+04  0.25500000000E-02 0. -1.
         -2   -1    0    0    0  501 -0.00000000000E+00 -0.00000000000E+00 -0.25319962065E+03  0.25319962067E+03  0.25500000000E-02 0.  1.
    8880023    1    1    2    0    0  0.20980958181E+03 -0.24703769448E+03  0.41724575464E+03  0.84436479624E+03  0.65864270000E+03 0.  1.
    8880022    1    1    2    0    0 -0.20980958181E+03  0.24703769448E+03  0.77039403602E+03  0.84967423573E+03  0.15294330000E+03 0.  0.
<mgrwt>
<rscale>  0 0.61360671E+03</rscale>
<asrwt>0</asrwt>
<pdfrwt beam="1">  1        2 0.22166760E+00 0.73406940E+03</pdfrwt>
<pdfrwt beam="2">  1       -2 0.38953789E-01 0.73406940E+03</pdfrwt>
<totfact> 0.87114834E+01</totfact>
</mgrwt>
</event>
<event>
 4    1  0.2799069E-007  0.7186071E+03  0.7818608E-02  0.9927327E-01
          2   -1    0    0  501    0  0.00000000000E+00  0.00000000000E+00  0.99705617446E+03  0.99705617447E+03  0.25500000000E-02 0. -1.
         -2   -1    0    0    0  501 -0.00000000000E+00 -0.00000000000E+00 -0.39304754672E+03  0.39304754672E+03  0.25500000000E-02 0.  1.
    8880023    1    1    2    0    0 -0.15501591868E+03 -0.24198366479E+03  0.16929220023E+02  0.71880653435E+03  0.65864270000E+03 0.  1.
    8880022    1    1    2    0    0  0.15501591868E+03  0.24198366479E+03  0.58707940772E+03  0.67129718684E+03  0.15294330000E+03 0.  0.
<mgrwt>
<rscale>  0 0.58954974E+03</rscale>
<asrwt>0</asrwt>
<pdfrwt beam="1">  1        2 0.15339326E+00 0.71860715E+03</pdfrwt>
<pdfrwt beam="2">  1       -2 0.60468854E-01 0.71860715E+03</pdfrwt>
<totfact> 0.65579692E+01</totfact>
</mgrwt>
</event>
<event>
 4    1  0.2799069E-007  0.8705431E+03  0.7818608E-02  0.9575078E-01
          2   -1    0    0  501    0  0.00000000000E+00  0.00000000000E+00  0.10425069789E+04  0.10425069789E+04  0.25500000000E-02 0. -1.
         -2   -1    0    0    0  501 -0.00000000000E+00 -0.00000000000E+00 -0.53175892476E+03  0.53175892476E+03  0.25500000000E-02 0.  1.
    8880023    1    1    2    0    0  0.23661309681E+03  0.51773484509E+03  0.45480510678E+03  0.98218787348E+03  0.65864270000E+03 0.  0.
    8880022    1    1    2    0    0 -0.23661309681E+03 -0.51773484509E+03  0.55942947320E+02  0.59207803014E+03  0.15294330000E+03 0.  0.
<mgrwt>
<rscale>  0 0.78967907E+03</rscale>
<asrwt>0</asrwt>
<pdfrwt beam="1">  1        2 0.16038569E+00 0.87054313E+03</pdfrwt>
<pdfrwt beam="2">  1       -2 0.81809066E-01 0.87054313E+03</pdfrwt>
<totfact> 0.31275360E+01</totfact>
</mgrwt>
</event>
<event>
 4    1  0.2799069E-007  0.7356907E+03  0.7818608E-02  0.9872682E-01
         -2   -1    0    0    0  501 -0.00000000000E+00  0.00000000000E+00  0.10070992723E+04  0.10070992723E+04  0.25500000000E-02 0.  1.
          2   -1    0    0  501    0  0.00000000000E+00 -0.00000000000E+00 -0.81002473745E+03  0.81002473745E+03  0.25500000000E-02 0. -1.
    8880023    1    1    2    0    0 -0.19524288309E+03  0.26326946599E+03  0.81698510637E+03  0.10994114177E+04  0.65864270000E+03 0.  1.
    8880022    1    1    2    0    0  0.19524288309E+03 -0.26326946599E+03 -0.61991057150E+03  0.71771259206E+03  0.15294330000E+03 0.  0.
<mgrwt>
<rscale>  0 0.61603679E+03</rscale>
<asrwt>0</asrwt>
<pdfrwt beam="1">  1        2 0.12461919E+00 0.73569070E+03</pdfrwt>
<pdfrwt beam="2">  1       -2 0.15493835E+00 0.73569070E+03</pdfrwt>
<totfact> 0.94807709E+00</totfact>
</mgrwt>
</event>
<event>
 4    1  0.2936594E-007  0.7385730E+03  0.7818608E-02  0.9864123E-01
         -2   -1    0    0    0  501 -0.00000000000E+00  0.00000000000E+00  0.82122557748E+03  0.82122557748E+03  0.25500000000E-02 0.  1.
          2   -1    0    0  501    0  0.00000000000E+00 -0.00000000000E+00 -0.15101479931E+04  0.15101479931E+04  0.25500000000E-02 0. -1.
    8880023    1    1    2    0    0  0.33363660567E+03 -0.19145005419E+02  0.62468206332E+03  0.96732507585E+03  0.65864270000E+03 0.  0.
    8880022    1    1    2    0    0 -0.33363660567E+03  0.19145005419E+02 -0.13136044789E+04  0.13640484947E+04  0.15294330000E+03 0.  0.
<mgrwt>
<rscale>  0 0.62031970E+03</rscale>
<asrwt>0</asrwt>
<pdfrwt beam="1">  1        2 0.23233046E+00 0.73857303E+03</pdfrwt>
<pdfrwt beam="2">  1       -2 0.12634240E+00 0.73857303E+03</pdfrwt>
<totfact> 0.60067008E+00</totfact>
</mgrwt>
</event>
<event>
 4    1  0.2799069E-007  0.7383574E+03  0.7818608E-02  0.9864758E-01
         -2   -1    0    0    0  501 -0.00000000000E+00  0.00000000000E+00  0.11303081738E+04  0.11303081738E+04  0.25500000000E-02 0.  1.
          2   -1    0    0  501    0  0.00000000000E+00 -0.00000000000E+00 -0.12710790875E+04  0.12710790875E+04  0.25500000000E-02 0. -1.
    8880023    1    1    2    0    0 -0.15806989260E+03 -0.29389677098E+03  0.97714832512E+03  0.12247409761E+04  0.65864270000E+03 0.  0.
    8880022    1    1    2    0    0  0.15806989260E+03  0.29389677098E+03 -0.11179192388E+04  0.11766462852E+04  0.15294330000E+03 0.  0.
<mgrwt>
<rscale>  0 0.62000086E+03</rscale>
<asrwt>0</asrwt>
<pdfrwt beam="1">  1        2 0.19555063E+00 0.73835737E+03</pdfrwt>
<pdfrwt beam="2">  1       -2 0.17389357E+00 0.73835737E+03</pdfrwt>
<totfact> 0.35294857E+00</totfact>
</mgrwt>
</event>
<event>
 4    1  0.2799069E-007  0.6878696E+03  0.7818608E-02  0.1005182E+00
          2   -1    0    0  501    0  0.00000000000E+00  0.00000000000E+00  0.13291549290E+04  0.13291549290E+04  0.25500000000E-02 0. -1.
         -2   -1    0    0    0  501 -0.00000000000E+00 -0.00000000000E+00 -0.30544314097E+03  0.30544314098E+03  0.25500000000E-02 0.  1.
    8880023    1    1    2    0    0 -0.13409468394E+03  0.14619521546E+03  0.12182854537E+03  0.69857485355E+03  0.65864270000E+03 0.  1.
    8880022    1    1    2    0    0  0.13409468394E+03 -0.14619521546E+03  0.90188324268E+03  0.93602321645E+03  0.15294330000E+03 0.  0.
<mgrwt>
<rscale>  0 0.53435260E+03</rscale>
<asrwt>0</asrwt>
<pdfrwt beam="1">  1        2 0.20448538E+00 0.68786963E+03</pdfrwt>
<pdfrwt beam="2">  1       -2 0.46991252E-01 0.68786963E+03</pdfrwt>
<totfact> 0.69897738E+01</totfact>
</mgrwt>
</event>
<event>
 4    1  0.2799069E-007  0.8443317E+03  0.7818608E-02  0.9622066E-01
          2   -1    0    0  501    0  0.00000000000E+00  0.00000000000E+00  0.26544573142E+04  0.26544573142E+04  0.25500000000E-02 0. -1.
         -2   -1    0    0    0  501 -0.00000000000E+00 -0.00000000000E+00 -0.18935599759E+03  0.18935599761E+03  0.25500000000E-02 0.  1.
    8880023    1    1    2    0    0 -0.52827416188E+03 -0.34941074257E+01  0.12312929366E+04  0.14929763229E+04  0.65864270000E+03 0.  0.
    8880022    1    1    2    0    0  0.52827416188E+03  0.34941074257E+01  0.12338083800E+04  0.13508369888E+04  0.15294330000E+03 0.  0.
<mgrwt>
<rscale>  0 0.75852770E+03</rscale>
<asrwt>0</asrwt>
<pdfrwt beam="1">  1        2 0.40837803E+00 0.84433169E+03</pdfrwt>
<pdfrwt beam="2">  1       -2 0.29131694E-01 0.84433169E+03</pdfrwt>
<totfact> 0.31625364E+01</totfact>
</mgrwt>
</event>
<event>
 4    1  0.2799069E-007  0.6824827E+03  0.7818608E-02  0.1007953E+00
          2   -1    0    0  501    0  0.00000000000E+00  0.00000000000E+00  0.76171999489E+03  0.76171999490E+03  0.25500000000E-02 0. -1.
         -2   -1    0    0    0  501 -0.00000000000E+00 -0.00000000000E+00 -0.29122144820E+03  0.29122144821E+03  0.25500000000E-02 0.  1.
    8880023    1    1    2    0    0 -0.68315340541E+02 -0.16524377082E+03  0.23971322641E+03  0.72335684605E+03  0.65864270000E+03 0.  1.
    8880022    1    1    2    0    0  0.68315340541E+02  0.16524377082E+03  0.23078532028E+03  0.32958459706E+03  0.15294330000E+03 0.  0.
<mgrwt>
<rscale>  0 0.52296464E+03</rscale>
<asrwt>0</asrwt>
<pdfrwt beam="1">  1        2 0.11718769E+00 0.68248274E+03</pdfrwt>
<pdfrwt beam="2">  1       -2 0.44803301E-01 0.68248274E+03</pdfrwt>
<totfact> 0.17603529E+02</totfact>
</mgrwt>
</event>
<event>
 4    1  0.2799069E-007  0.6640796E+03  0.7818608E-02  0.1020318E+00
          2   -1    0    0  501    0  0.00000000000E+00  0.00000000000E+00  0.36136241799E+04  0.36136241799E+04  0.25500000000E-02 0. -1.
         -2   -1    0    0    0  501 -0.00000000000E+00 -0.00000000000E+00 -0.13526345577E+03  0.13526345579E+03  0.25500000000E-02 0.  1.
    8880023    1    1    2    0    0 -0.12005098005E+02 -0.83948849036E+02  0.69947109798E+03  0.96450067642E+03  0.65864270000E+03 0.  1.
    8880022    1    1    2    0    0  0.12005098005E+02  0.83948849036E+02  0.27788896262E+04  0.27843869593E+04  0.15294330000E+03 0.  0.
<mgrwt>
<rscale>  0 0.47571895E+03</rscale>
<asrwt>0</asrwt>
<pdfrwt beam="1">  1        2 0.55594223E+00 0.66407962E+03</pdfrwt>
<pdfrwt beam="2">  1       -2 0.20809761E-01 0.66407962E+03</pdfrwt>
<totfact> 0.14790942E+01</totfact>
</mgrwt>
</event>
<event>
 4    1  0.2799069E-007  0.7354698E+03  0.7818608E-02  0.9873345E-01
         -2   -1    0    0    0  501 -0.00000000000E+00  0.00000000000E+00  0.24487424111E+03  0.24487424112E+03  0.25500000000E-02 0.  1.
          2   -1    0    0  501    0  0.00000000000E+00 -0.00000000000E+00 -0.21910124031E+04  0.21910124031E+04  0.25500000000E-02 0. -1.
    8880023    1    1    2    0    0 -0.62875655466E+02  0.32117334320E+03 -0.37847298641E+03  0.82713824246E+03  0.65864270000E+03 0.  1.
    8880022    1    1    2    0    0  0.62875655466E+02 -0.32117334320E+03 -0.15676651756E+04  0.16087484018E+04  0.15294330000E+03 0.  0.
<mgrwt>
<rscale>  0 0.61570665E+03</rscale>
<asrwt>0</asrwt>
<pdfrwt beam="1">  1        2 0.33707882E+00 0.73546983E+03</pdfrwt>
<pdfrwt beam="2">  1       -2 0.37672962E-01 0.73546983E+03</pdfrwt>
<totfact> 0.36030774E+01</totfact>
</mgrwt>
</event>
<event>
 4    1  0.2799069E-007  0.1073107E+04  0.7818608E-02  0.9291606E-01
          2   -1    0    0  501    0  0.00000000000E+00  0.00000000000E+00  0.12275103115E+04  0.12275103115E+04  0.25500000000E-02 0. -1.
         -2   -1    0    0    0  501 -0.00000000000E+00 -0.00000000000E+00 -0.10800373279E+04  0.10800373279E+04  0.25500000000E-02 0.  1.
    8880023    1    1    2    0    0  0.46945842476E+03  0.70523526599E+03 -0.54420534017E+03  0.12032113910E+04  0.65864270000E+03 0.  1.
    8880022    1    1    2    0    0 -0.46945842476E+03 -0.70523526599E+03  0.69167832378E+03  0.11043362484E+04  0.15294330000E+03 0.  0.
<mgrwt>
<rscale>  0 0.10155930E+04</rscale>
<asrwt>0</asrwt>
<pdfrwt beam="1">  1        2 0.18884774E+00 0.10731068E+04</pdfrwt>
<pdfrwt beam="2">  1       -2 0.16615959E+00 0.10731068E+04</pdfrwt>
<totfact> 0.40742079E+00</totfact>
</mgrwt>
</event>
<event>
 4    1  0.2799069E-007  0.1180268E+04  0.7818608E-02  0.9176546E-01
         -2   -1    0    0    0  501 -0.00000000000E+00  0.00000000000E+00  0.13408643232E+04  0.13408643232E+04  0.25500000000E-02 0.  1.
          2   -1    0    0  501    0  0.00000000000E+00 -0.00000000000E+00 -0.15937502486E+04  0.15937502486E+04  0.25500000000E-02 0. -1.
    8880023    1    1    2    0    0  0.97272689530E+03 -0.11412650561E+03  0.84791655909E+03  0.14532705080E+04  0.65864270000E+03 0.  0.
    8880022    1    1    2    0    0 -0.97272689530E+03  0.11412650561E+03 -0.11008024845E+04  0.14813440637E+04  0.15294330000E+03 0.  0.
<mgrwt>
<rscale>  0 0.11298827E+04</rscale>
<asrwt>0</asrwt>
<pdfrwt beam="1">  1        2 0.24519235E+00 0.11802681E+04</pdfrwt>
<pdfrwt beam="2">  1       -2 0.20628682E+00 0.11802681E+04</pdfrwt>
<totfact> 0.13227276E+00</totfact>
</mgrwt>
</event>
<event>
 4    1  0.2799069E-007  0.7162473E+03  0.7818608E-02  0.9935495E-01
          2   -1    0    0  501    0  0.00000000000E+00  0.00000000000E+00  0.26842296840E+04  0.26842296840E+04  0.25500000000E-02 0. -1.
         -2   -1    0    0    0  501 -0.00000000000E+00 -0.00000000000E+00 -0.10016956774E+03  0.10016956777E+03  0.25500000000E-02 0.  1.
    8880023    1    1    2    0    0 -0.15107548878E+03  0.23743668516E+03  0.17442278887E+04  0.18855612207E+04  0.65864270000E+03 0.  0.
    8880022    1    1    2    0    0  0.15107548878E+03 -0.23743668516E+03  0.83983222749E+03  0.89883803108E+03  0.15294330000E+03 0.  0.
<mgrwt>
<rscale>  0 0.58571486E+03</rscale>
<asrwt>0</asrwt>
<pdfrwt beam="1">  1        2 0.41295836E+00 0.71624730E+03</pdfrwt>
<pdfrwt beam="2">  1       -2 0.15410705E-01 0.71624730E+03</pdfrwt>
<totfact> 0.95205040E+01</totfact>
</mgrwt>
</event>
<event>
 4    1  0.2799069E-007  0.8760110E+03  0.7818608E-02  0.9565694E-01
         -2   -1    0    0    0  501 -0.00000000000E+00  0.00000000000E+00  0.39177428029E+03  0.39177428030E+03  0.25500000000E-02 0.  1.
          2   -1    0    0  501    0  0.00000000000E+00 -0.00000000000E+00 -0.23043079052E+04  0.23043079052E+04  0.25500000000E-02 0. -1.
    8880023    1    1    2    0    0 -0.57733510643E+03  0.16408970900E+02 -0.22290390072E+03  0.90392556921E+03  0.65864270000E+03 0.  1.
    8880022    1    1    2    0    0  0.57733510643E+03 -0.16408970900E+02 -0.16896297242E+04  0.17921566163E+04  0.15294330000E+03 0.  0.
<mgrwt>
<rscale>  0 0.79608999E+03</rscale>
<asrwt>0</asrwt>
<pdfrwt beam="1">  1        2 0.35450890E+00 0.87601101E+03</pdfrwt>
<pdfrwt beam="2">  1       -2 0.60272967E-01 0.87601101E+03</pdfrwt>
<totfact> 0.11839923E+01</totfact>
</mgrwt>
</event>
<event>
 4    1  0.2799069E-007  0.7661834E+03  0.7818608E-02  0.9789355E-01
         -2   -1    0    0    0  501 -0.00000000000E+00  0.00000000000E+00  0.18374482250E+04  0.18374482250E+04  0.25500000000E-02 0.  1.
          2   -1    0    0  501    0  0.00000000000E+00 -0.00000000000E+00 -0.54011046236E+03  0.54011046237E+03  0.25500000000E-02 0. -1.
    8880023    1    1    2    0    0  0.16909388988E+03  0.35303541480E+03  0.16562576093E+04  0.18248907426E+04  0.65864270000E+03 0.  1.
    8880022    1    1    2    0    0 -0.16909388988E+03 -0.35303541480E+03 -0.35891984676E+03  0.55266794471E+03  0.15294330000E+03 0.  0.
<mgrwt>
<rscale>  0 0.65936977E+03</rscale>
<asrwt>0</asrwt>
<pdfrwt beam="1">  1        2 0.83093918E-01 0.76618337E+03</pdfrwt>
<pdfrwt beam="2">  1       -2 0.28268434E+00 0.76618337E+03</pdfrwt>
<totfact> 0.23606435E+00</totfact>
</mgrwt>
</event>
<event>
 4    1  0.2799069E-007  0.7347238E+03  0.7818608E-02  0.9875591E-01
         -2   -1    0    0    0  501 -0.00000000000E+00  0.00000000000E+00  0.61278346610E+03  0.61278346611E+03  0.25500000000E-02 0.  1.
          2   -1    0    0  501    0  0.00000000000E+00 -0.00000000000E+00 -0.85460889382E+03  0.85460889383E+03  0.25500000000E-02 0. -1.
    8880023    1    1    2    0    0  0.14670611000E+03  0.29066517589E+03  0.31910310764E+03  0.80102804368E+03  0.65864270000E+03 0.  1.
    8880022    1    1    2    0    0 -0.14670611000E+03 -0.29066517589E+03 -0.56092853536E+03  0.66636431626E+03  0.15294330000E+03 0.  0.
<mgrwt>
<rscale>  0 0.61458949E+03</rscale>
<asrwt>0</asrwt>
<pdfrwt beam="1">  1        2 0.13147829E+00 0.73472385E+03</pdfrwt>
<pdfrwt beam="2">  1       -2 0.94274379E-01 0.73472385E+03</pdfrwt>
<totfact> 0.30373372E+01</totfact>
</mgrwt>
</event>
<event>
 4    1  0.2799069E-007  0.6597601E+03  0.7818608E-02  0.1024404E+00
         -2   -1    0    0    0  501 -0.00000000000E+00  0.00000000000E+00  0.33308088159E+03  0.33308088160E+03  0.25500000000E-02 0.  1.
          2   -1    0    0  501    0  0.00000000000E+00 -0.00000000000E+00 -0.18847237107E+04  0.18847237107E+04  0.25500000000E-02 0. -1.
    8880023    1    1    2    0    0  0.11003174333E+02 -0.36770624953E+02 -0.16002902618E+01  0.65976201459E+03  0.65864270000E+03 0.  1.
    8880022    1    1    2    0    0 -0.11003174333E+02  0.36770624953E+02 -0.15500425389E+04  0.15580425778E+04  0.15294330000E+03 0.  0.
<mgrwt>
<rscale>  0 0.46130445E+03</rscale>
<asrwt>0</asrwt>
<pdfrwt beam="1">  1        2 0.28995749E+00 0.65976007E+03</pdfrwt>
<pdfrwt beam="2">  1       -2 0.51243214E-01 0.65976007E+03</pdfrwt>
<totfact> 0.29068401E+01</totfact>
</mgrwt>
</event>
<event>
 4    1  0.2799069E-007  0.1735078E+04  0.7818608E-02  0.8759325E-01
          2   -1    0    0  501    0  0.00000000000E+00  0.00000000000E+00  0.13209966463E+04  0.13209966463E+04  0.25500000000E-02 0. -1.
         -2   -1    0    0    0  501 -0.00000000000E+00 -0.00000000000E+00 -0.27263492765E+04  0.27263492765E+04  0.25500000000E-02 0.  1.
    8880023    1    1    2    0    0 -0.11593242872E+04  0.11102485776E+04 -0.16759499799E+04  0.24123232056E+04  0.65864270000E+03 0.  1.
    8880022    1    1    2    0    0  0.11593242872E+04 -0.11102485776E+04  0.27059734972E+03  0.16350227172E+04  0.15294330000E+03 0.  0.
<mgrwt>
<rscale>  0 0.17035798E+04</rscale>
<asrwt>0</asrwt>
<pdfrwt beam="1">  1        2 0.20323025E+00 0.17350778E+04</pdfrwt>
<pdfrwt beam="2">  1       -2 0.41943835E+00 0.17350778E+04</pdfrwt>
<totfact> 0.81740929E-02</totfact>
</mgrwt>
</event>
<event>
 4    1  0.2799069E-007  0.6688535E+03  0.7818608E-02  0.1016498E+00
          2   -1    0    0  501    0  0.00000000000E+00  0.00000000000E+00  0.22838015400E+04  0.22838015400E+04  0.25500000000E-02 0. -1.
         -2   -1    0    0    0  501 -0.00000000000E+00 -0.00000000000E+00 -0.18460926347E+03  0.18460926349E+03  0.25500000000E-02 0.  1.
    8880023    1    1    2    0    0  0.58884131154E+02 -0.10043659193E+03  0.44562234623E+03  0.80370662037E+03  0.65864270000E+03 0.  1.
    8880022    1    1    2    0    0 -0.58884131154E+02  0.10043659193E+03  0.16535699303E+04  0.16647041831E+04  0.15294330000E+03 0.  0.
<mgrwt>
<rscale>  0 0.48971673E+03</rscale>
<asrwt>0</asrwt>
<pdfrwt beam="1">  1        2 0.35135408E+00 0.66885354E+03</pdfrwt>
<pdfrwt beam="2">  1       -2 0.28401426E-01 0.66885354E+03</pdfrwt>
<totfact> 0.54994798E+01</totfact>
</mgrwt>
</event>
<event>
 4    1  0.2799069E-007  0.8177628E+03  0.7818608E-02  0.9673629E-01
          2   -1    0    0  501    0  0.00000000000E+00  0.00000000000E+00  0.24843278023E+04  0.24843278023E+04  0.25500000000E-02 0. -1.
         -2   -1    0    0    0  501 -0.00000000000E+00 -0.00000000000E+00 -0.73844708959E+03  0.73844708960E+03  0.25500000000E-02 0.  1.
    8880023    1    1    2    0    0 -0.25591195939E+03  0.41162460462E+03 -0.47416925203E+03  0.94528960214E+03  0.65864270000E+03 0.  1.
    8880022    1    1    2    0    0  0.25591195939E+03 -0.41162460462E+03  0.22200499648E+04  0.22774852898E+04  0.15294330000E+03 0.  0.
<mgrwt>
<rscale>  0 0.72608875E+03</rscale>
<asrwt>0</asrwt>
<pdfrwt beam="1">  1        2 0.38220428E+00 0.81776277E+03</pdfrwt>
<pdfrwt beam="2">  1       -2 0.11360724E+00 0.81776277E+03</pdfrwt>
<totfact> 0.22392609E+00</totfact>
</mgrwt>
</event>
<event>
 4    1  0.2799069E-007  0.6626115E+03  0.7818608E-02  0.1021627E+00
         -2   -1    0    0    0  501 -0.00000000000E+00  0.00000000000E+00  0.62403362672E+03  0.62403362672E+03  0.25500000000E-02 0.  1.
          2   -1    0    0  501    0  0.00000000000E+00 -0.00000000000E+00 -0.21490771945E+04  0.21490771945E+04  0.25500000000E-02 0. -1.
    8880023    1    1    2    0    0 -0.66722850779E+02  0.28140186031E+02  0.44348093201E+03  0.79732637747E+03  0.65864270000E+03 0.  1.
    8880022    1    1    2    0    0  0.66722850779E+02 -0.28140186031E+02 -0.19685244998E+04  0.19757844438E+04  0.15294330000E+03 0.  0.
<mgrwt>
<rscale>  0 0.47103942E+03</rscale>
<asrwt>0</asrwt>
<pdfrwt beam="1">  1        2 0.33062726E+00 0.66261151E+03</pdfrwt>
<pdfrwt beam="2">  1       -2 0.96005175E-01 0.66261151E+03</pdfrwt>
<totfact> 0.52979826E+00</totfact>
</mgrwt>
</event>
<event>
 4    1  0.2799069E-007  0.7161834E+03  0.7818608E-02  0.9935718E-01
          2   -1    0    0  501    0  0.00000000000E+00  0.00000000000E+00  0.10870226591E+04  0.10870226591E+04  0.25500000000E-02 0. -1.
         -2   -1    0    0    0  501 -0.00000000000E+00 -0.00000000000E+00 -0.46968092800E+03  0.46968092801E+03  0.25500000000E-02 0.  1.
    8880023    1    1    2    0    0  0.80760396153E+02 -0.26941825466E+03 -0.14423984975E+03  0.73056401366E+03  0.65864270000E+03 0.  1.
    8880022    1    1    2    0    0 -0.80760396153E+02  0.26941825466E+03  0.76158158081E+03  0.82613957342E+03  0.15294330000E+03 0.  0.
<mgrwt>
<rscale>  0 0.58561031E+03</rscale>
<asrwt>0</asrwt>
<pdfrwt beam="1">  1        2 0.16723425E+00 0.71618339E+03</pdfrwt>
<pdfrwt beam="2">  1       -2 0.72258605E-01 0.71618339E+03</pdfrwt>
<totfact> 0.39254927E+01</totfact>
</mgrwt>
</event>
<event>
 4    1  0.2799069E-007  0.7424051E+03  0.7818608E-02  0.9852996E-01
         -2   -1    0    0    0  501 -0.00000000000E+00  0.00000000000E+00  0.77254505999E+03  0.77254506000E+03  0.25500000000E-02 0.  1.
          2   -1    0    0  501    0  0.00000000000E+00 -0.00000000000E+00 -0.45954240801E+03  0.45954240802E+03  0.25500000000E-02 0. -1.
    8880023    1    1    2    0    0  0.29135574508E+03 -0.18018588427E+03  0.40516830047E+03  0.84576987476E+03  0.65864270000E+03 0.  0.
    8880022    1    1    2    0    0 -0.29135574508E+03  0.18018588427E+03 -0.92165648491E+02  0.38631759325E+03  0.15294330000E+03 0.  0.
<mgrwt>
<rscale>  0 0.62594405E+03</rscale>
<asrwt>0</asrwt>
<pdfrwt beam="1">  1        2 0.70698833E-01 0.74240510E+03</pdfrwt>
<pdfrwt beam="2">  1       -2 0.11885309E+00 0.74240510E+03</pdfrwt>
<totfact> 0.37379014E+01</totfact>
</mgrwt>
</event>
<event>
 4    1  0.2799069E-007  0.1433399E+04  0.7818608E-02  0.8958156E-01
         -2   -1    0    0    0  501 -0.00000000000E+00  0.00000000000E+00  0.56136113217E+03  0.56136113218E+03  0.25500000000E-02 0.  1.
          2   -1    0    0  501    0  0.00000000000E+00 -0.00000000000E+00 -0.40780959030E+04  0.40780959030E+04  0.25500000000E-02 0. -1.
    8880023    1    1    2    0    0 -0.22019106685E+03  0.12539296512E+04 -0.81505409014E+03  0.16489229977E+04  0.65864270000E+03 0.  0.
    8880022    1    1    2    0    0  0.22019106685E+03 -0.12539296512E+04 -0.27016806807E+04  0.29905340375E+04  0.15294330000E+03 0.  0.
<mgrwt>
<rscale>  0 0.13940240E+04</rscale>
<asrwt>0</asrwt>
<pdfrwt beam="1">  1        2 0.62739935E+00 0.14333994E+04</pdfrwt>
<pdfrwt beam="2">  1       -2 0.86363254E-01 0.14333994E+04</pdfrwt>
<totfact> 0.33719962E-01</totfact>
</mgrwt>
</event>
<event>
 4    1  0.2799069E-007  0.7497191E+03  0.7818608E-02  0.9832490E-01
         -2   -1    0    0    0  501 -0.00000000000E+00  0.00000000000E+00  0.35035752733E+03  0.35035752733E+03  0.25500000000E-02 0.  1.
          2   -1    0    0  501    0  0.00000000000E+00 -0.00000000000E+00 -0.15567873601E+04  0.15567873601E+04  0.25500000000E-02 0. -1.
    8880023    1    1    2    0    0  0.35809746695E+03  0.58981893806E+01 -0.12801763993E+03  0.76057038259E+03  0.65864270000E+03 0.  1.
    8880022    1    1    2    0    0 -0.35809746695E+03 -0.58981893806E+01 -0.10784121928E+04  0.11465745049E+04  0.15294330000E+03 0.  0.
<mgrwt>
<rscale>  0 0.63647730E+03</rscale>
<asrwt>0</asrwt>
<pdfrwt beam="1">  1        2 0.23950574E+00 0.74971914E+03</pdfrwt>
<pdfrwt beam="2">  1       -2 0.53901159E-01 0.74971914E+03</pdfrwt>
<totfact> 0.39129254E+01</totfact>
</mgrwt>
</event>
<event>
 4    1  0.2799069E-007  0.8022234E+03  0.7818608E-02  0.9706009E-01
          2   -1    0    0  501    0  0.00000000000E+00  0.00000000000E+00  0.41152608295E+04  0.41152608295E+04  0.25500000000E-02 0. -1.
         -2   -1    0    0    0  501 -0.00000000000E+00 -0.00000000000E+00 -0.15077550568E+03  0.15077550571E+03  0.25500000000E-02 0.  1.
    8880023    1    1    2    0    0  0.31381152678E+03 -0.33357841574E+03  0.11017737452E+04  0.13628895134E+04  0.65864270000E+03 0.  1.
    8880022    1    1    2    0    0 -0.31381152678E+03  0.33357841574E+03  0.28627115786E+04  0.29031468218E+04  0.15294330000E+03 0.  0.
<mgrwt>
<rscale>  0 0.70660143E+03</rscale>
<asrwt>0</asrwt>
<pdfrwt beam="1">  1        2 0.63311697E+00 0.80222344E+03</pdfrwt>
<pdfrwt beam="2">  1       -2 0.23196235E-01 0.80222344E+03</pdfrwt>
<totfact> 0.49477768E+00</totfact>
</mgrwt>
</event>
<event>
 4    1  0.2799069E-007  0.7916847E+03  0.7818608E-02  0.9729072E-01
          2   -1    0    0  501    0  0.00000000000E+00  0.00000000000E+00  0.30852484509E+04  0.30852484509E+04  0.25500000000E-02 0. -1.
         -2   -1    0    0    0  501 -0.00000000000E+00 -0.00000000000E+00 -0.16240696585E+03  0.16240696587E+03  0.25500000000E-02 0.  1.
    8880023    1    1    2    0    0 -0.20989977107E+03 -0.38587121484E+03  0.10333674456E+04  0.13017730187E+04  0.65864270000E+03 0.  0.
    8880022    1    1    2    0    0  0.20989977107E+03  0.38587121484E+03  0.18894740394E+04  0.19458823980E+04  0.15294330000E+03 0.  1.
<mgrwt>
<rscale>  0 0.69311908E+03</rscale>
<asrwt>0</asrwt>
<pdfrwt beam="1">  1        2 0.47465360E+00 0.79168473E+03</pdfrwt>
<pdfrwt beam="2">  1       -2 0.24985688E-01 0.79168473E+03</pdfrwt>
<totfact> 0.23262017E+01</totfact>
</mgrwt>
</event>
<event>
 4    1  0.2799069E-007  0.1248926E+04  0.7818608E-02  0.9110970E-01
          2   -1    0    0  501    0  0.00000000000E+00  0.00000000000E+00  0.21217741390E+04  0.21217741390E+04  0.25500000000E-02 0. -1.
         -2   -1    0    0    0  501 -0.00000000000E+00 -0.00000000000E+00 -0.83041438913E+03  0.83041438913E+03  0.25500000000E-02 0.  1.
    8880023    1    1    2    0    0  0.10447093328E+04  0.18597822589E+03  0.13982051004E+04  0.18747781734E+04  0.65864270000E+03 0.  0.
    8880022    1    1    2    0    0 -0.10447093328E+04 -0.18597822589E+03 -0.10684535051E+03  0.10774103547E+04  0.15294330000E+03 0.  0.
<mgrwt>
<rscale>  0 0.12021572E+04</rscale>
<asrwt>0</asrwt>
<pdfrwt beam="1">  1        2 0.32642678E+00 0.12489258E+04</pdfrwt>
<pdfrwt beam="2">  1       -2 0.12775606E+00 0.12489258E+04</pdfrwt>
<totfact> 0.25179346E+00</totfact>
</mgrwt>
</event>
<event>
 4    1  0.2799069E-007  0.7333565E+03  0.7818608E-02  0.9879739E-01
         -2   -1    0    0    0  501 -0.00000000000E+00  0.00000000000E+00  0.14079934211E+03  0.14079934214E+03  0.25500000000E-02 0.  1.
          2   -1    0    0  501    0  0.00000000000E+00 -0.00000000000E+00 -0.30145865718E+04  0.30145865718E+04  0.25500000000E-02 0. -1.
    8880023    1    1    2    0    0  0.49738059682E+02 -0.31863413094E+03 -0.95714595114E+03  0.12057944112E+04  0.65864270000E+03 0.  1.
    8880022    1    1    2    0    0 -0.49738059682E+02  0.31863413094E+03 -0.19166412785E+04  0.19495915027E+04  0.15294330000E+03 0.  0.
<mgrwt>
<rscale>  0 0.61253325E+03</rscale>
<asrwt>0</asrwt>
<pdfrwt beam="1">  1        2 0.46378250E+00 0.73335652E+03</pdfrwt>
<pdfrwt beam="2">  1       -2 0.21661440E-01 0.73335652E+03</pdfrwt>
<totfact> 0.33497341E+01</totfact>
</mgrwt>
</event>
<event>
 4    1  0.2799069E-007  0.1423940E+04  0.7818608E-02  0.8965301E-01
         -2   -1    0    0    0  501 -0.00000000000E+00  0.00000000000E+00  0.11360549207E+04  0.11360549207E+04  0.25500000000E-02 0.  1.
          2   -1    0    0  501    0  0.00000000000E+00 -0.00000000000E+00 -0.26440833376E+04  0.26440833376E+04  0.25500000000E-02 0. -1.
    8880023    1    1    2    0    0  0.57012462611E+03  0.11263887993E+04  0.40733075535E+03  0.14810544781E+04  0.65864270000E+03 0.  0.
    8880022    1    1    2    0    0 -0.57012462611E+03 -0.11263887993E+04 -0.19153591723E+04  0.22990837802E+04  0.15294330000E+03 0.  0.
<mgrwt>
<rscale>  0 0.13842472E+04</rscale>
<asrwt>0</asrwt>
<pdfrwt beam="1">  1        2 0.40678205E+00 0.14239396E+04</pdfrwt>
<pdfrwt beam="2">  1       -2 0.17477768E+00 0.14239396E+04</pdfrwt>
<totfact> 0.53732321E-01</totfact>
</mgrwt>
</event>
<event>
 4    1  0.2799069E-007  0.1211557E+04  0.7818608E-02  0.9145969E-01
          2   -1    0    0  501    0  0.00000000000E+00  0.00000000000E+00  0.17409707598E+04  0.17409707598E+04  0.25500000000E-02 0. -1.
         -2   -1    0    0    0  501 -0.00000000000E+00 -0.00000000000E+00 -0.13479215827E+04  0.13479215827E+04  0.25500000000E-02 0.  1.
    8880023    1    1    2    0    0  0.59082218580E+03 -0.82764100045E+03 -0.84675331072E+03  0.14781278214E+04  0.65864270000E+03 0.  1.
    8880022    1    1    2    0    0 -0.59082218580E+03  0.82764100045E+03  0.12398024878E+04  0.16107645212E+04  0.15294330000E+03 0.  0.
<mgrwt>
<rscale>  0 0.11628950E+04</rscale>
<asrwt>0</asrwt>
<pdfrwt beam="1">  1        2 0.26784166E+00 0.12115571E+04</pdfrwt>
<pdfrwt beam="2">  1       -2 0.20737255E+00 0.12115571E+04</pdfrwt>
<totfact> 0.10736159E+00</totfact>
</mgrwt>
</event>
<event>
 4    1  0.2799069E-007  0.9936197E+03  0.7818608E-02  0.9389953E-01
          2   -1    0    0  501    0  0.00000000000E+00  0.00000000000E+00  0.20973928398E+04  0.20973928398E+04  0.25500000000E-02 0. -1.
         -2   -1    0    0    0  501 -0.00000000000E+00 -0.00000000000E+00 -0.62596570485E+03  0.62596570486E+03  0.25500000000E-02 0.  1.
    8880023    1    1    2    0    0 -0.18663284409E+03  0.72016532987E+03  0.16655613210E+04  0.19394263691E+04  0.65864270000E+03 0. -1.
    8880022    1    1    2    0    0  0.18663284409E+03 -0.72016532987E+03 -0.19413418598E+03  0.78393217565E+03  0.15294330000E+03 0.  0.
<mgrwt>
<rscale>  0 0.92907142E+03</rscale>
<asrwt>0</asrwt>
<pdfrwt beam="1">  1        2 0.32267582E+00 0.99361971E+03</pdfrwt>
<pdfrwt beam="2">  1       -2 0.96302417E-01 0.99361971E+03</pdfrwt>
<totfact> 0.53378865E+00</totfact>
</mgrwt>
</event>
<event>
 4    1  0.2799069E-007  0.1395760E+04  0.7818608E-02  0.8986984E-01
         -2   -1    0    0    0  501 -0.00000000000E+00  0.00000000000E+00  0.12201439800E+04  0.12201439800E+04  0.25500000000E-02 0.  1.
          2   -1    0    0  501    0  0.00000000000E+00 -0.00000000000E+00 -0.17219808625E+04  0.17219808625E+04  0.25500000000E-02 0. -1.
    8880023    1    1    2    0    0 -0.11891524021E+04  0.31662618889E+03  0.34840018819E+03  0.14385855818E+04  0.65864270000E+03 0.  0.
    8880022    1    1    2    0    0  0.11891524021E+04 -0.31662618889E+03 -0.85023707072E+03  0.15035392607E+04  0.15294330000E+03 0.  0.
<mgrwt>
<rscale>  0 0.13550894E+04</rscale>
<asrwt>0</asrwt>
<pdfrwt beam="1">  1        2 0.26492014E+00 0.13957599E+04</pdfrwt>
<pdfrwt beam="2">  1       -2 0.18771446E+00 0.13957599E+04</pdfrwt>
<totfact> 0.14557756E+00</totfact>
</mgrwt>
</event>
<event>
 4    1  0.2799069E-007  0.6765305E+03  0.7818608E-02  0.1011358E+00
          2   -1    0    0  501    0  0.00000000000E+00  0.00000000000E+00  0.14760895701E+04  0.14760895701E+04  0.25500000000E-02 0. -1.
         -2   -1    0    0    0  501 -0.00000000000E+00 -0.00000000000E+00 -0.39670693683E+03  0.39670693684E+03  0.25500000000E-02 0.  1.
    8880023    1    1    2    0    0 -0.15282488359E+03 -0.22975279460E+02 -0.90789987966E+02  0.68259529495E+03  0.65864270000E+03 0.  1.
    8880022    1    1    2    0    0  0.15282488359E+03  0.22975279460E+02  0.11701726212E+04  0.11902012120E+04  0.15294330000E+03 0.  0.
<mgrwt>
<rscale>  0 0.50938298E+03</rscale>
<asrwt>0</asrwt>
<pdfrwt beam="1">  1        2 0.22709070E+00 0.67653050E+03</pdfrwt>
<pdfrwt beam="2">  1       -2 0.61031836E-01 0.67653050E+03</pdfrwt>
<totfact> 0.33742809E+01</totfact>
</mgrwt>
</event>
<event>
 4    1  0.2799069E-007  0.7970679E+03  0.7818608E-02  0.9717172E-01
         -2   -1    0    0    0  501 -0.00000000000E+00  0.00000000000E+00  0.40242836583E+03  0.40242836584E+03  0.25500000000E-02 0.  1.
          2   -1    0    0  501    0  0.00000000000E+00 -0.00000000000E+00 -0.15534128472E+04  0.15534128472E+04  0.25500000000E-02 0. -1.
    8880023    1    1    2    0    0 -0.37830001948E+03  0.24165275131E+03 -0.10063602733E+03  0.80339577620E+03  0.65864270000E+03 0.  1.
    8880022    1    1    2    0    0  0.37830001948E+03 -0.24165275131E+03 -0.10503484541E+04  0.11524454368E+04  0.15294330000E+03 0.  0.
<mgrwt>
<rscale>  0 0.70003510E+03</rscale>
<asrwt>0</asrwt>
<pdfrwt beam="1">  1        2 0.23898659E+00 0.79706785E+03</pdfrwt>
<pdfrwt beam="2">  1       -2 0.61912057E-01 0.79706785E+03</pdfrwt>
<totfact> 0.29236492E+01</totfact>
</mgrwt>
</event>
<event>
 4    1  0.2799069E-007  0.7408381E+03  0.7818608E-02  0.9857513E-01
          2   -1    0    0  501    0  0.00000000000E+00  0.00000000000E+00  0.55636763742E+03  0.55636763742E+03  0.25500000000E-02 0. -1.
         -2   -1    0    0    0  501 -0.00000000000E+00 -0.00000000000E+00 -0.61916623655E+03  0.61916623656E+03  0.25500000000E-02 0.  1.
    8880023    1    1    2    0    0 -0.16643452409E+03  0.29551714262E+03 -0.21824245612E+03  0.77231522600E+03  0.65864270000E+03 0.  0.
    8880022    1    1    2    0    0  0.16643452409E+03 -0.29551714262E+03  0.15544385699E+03  0.40321864798E+03  0.15294330000E+03 0.  1.
<mgrwt>
<rscale>  0 0.62365340E+03</rscale>
<asrwt>0</asrwt>
<pdfrwt beam="1">  1        2 0.85595022E-01 0.74083807E+03</pdfrwt>
<pdfrwt beam="2">  1       -2 0.95256344E-01 0.74083807E+03</pdfrwt>
<totfact> 0.50929498E+01</totfact>
</mgrwt>
</event>
<event>
 4    1  0.2799069E-007  0.9306751E+03  0.7818608E-02  0.9478481E-01
          2   -1    0    0  501    0  0.00000000000E+00  0.00000000000E+00  0.20251136843E+04  0.20251136843E+04  0.25500000000E-02 0. -1.
         -2   -1    0    0    0  501 -0.00000000000E+00 -0.00000000000E+00 -0.76428040086E+03  0.76428040086E+03  0.25500000000E-02 0.  1.
    8880023    1    1    2    0    0  0.27883379506E+03 -0.59548096348E+03 -0.38753985220E+03  0.10081384857E+04  0.65864270000E+03 0. -1.
    8880022    1    1    2    0    0 -0.27883379506E+03  0.59548096348E+03  0.16483731356E+04  0.17812555994E+04  0.15294330000E+03 0.  0.
<mgrwt>
<rscale>  0 0.85889071E+03</rscale>
<asrwt>0</asrwt>
<pdfrwt beam="1">  1        2 0.31155595E+00 0.93067506E+03</pdfrwt>
<pdfrwt beam="2">  1       -2 0.11758160E+00 0.93067506E+03</pdfrwt>
<totfact> 0.36443571E+00</totfact>
</mgrwt>
</event>
<event>
 4    1  0.2799069E-007  0.7116648E+03  0.7818608E-02  0.9951870E-01
         -2   -1    0    0    0  501 -0.00000000000E+00  0.00000000000E+00  0.40979781758E+03  0.40979781759E+03  0.25500000000E-02 0.  1.
          2   -1    0    0  501    0  0.00000000000E+00 -0.00000000000E+00 -0.21552685985E+04  0.21552685985E+04  0.25500000000E-02 0. -1.
    8880023    1    1    2    0    0  0.26232768393E+03  0.61974088005E+02  0.77561384461E+02  0.71587888359E+03  0.65864270000E+03 0.  1.
    8880022    1    1    2    0    0 -0.26232768393E+03 -0.61974088005E+02 -0.18230321654E+04  0.18491875325E+04  0.15294330000E+03 0.  0.
<mgrwt>
<rscale>  0 0.57811975E+03</rscale>
<asrwt>0</asrwt>
<pdfrwt beam="1">  1        2 0.33157978E+00 0.71166481E+03</pdfrwt>
<pdfrwt beam="2">  1       -2 0.63045820E-01 0.71166481E+03</pdfrwt>
<totfact> 0.13326354E+01</totfact>
</mgrwt>
</event>
<event>
 4    1  0.2799069E-007  0.6903818E+03  0.7818608E-02  0.1003972E+00
          2   -1    0    0  501    0  0.00000000000E+00  0.00000000000E+00  0.12500406831E+04  0.12500406831E+04  0.25500000000E-02 0. -1.
         -2   -1    0    0    0  501 -0.00000000000E+00 -0.00000000000E+00 -0.86193533990E+03  0.86193533990E+03  0.25500000000E-02 0.  1.
    8880023    1    1    2    0    0  0.10655521770E+03  0.17737749835E+03 -0.70633650736E+03  0.98769340345E+03  0.65864270000E+03 0.  1.
    8880022    1    1    2    0    0 -0.10655521770E+03 -0.17737749835E+03  0.10944418505E+04  0.11242826195E+04  0.15294330000E+03 0.  0.
<mgrwt>
<rscale>  0 0.53942511E+03</rscale>
<asrwt>0</asrwt>
<pdfrwt beam="1">  1        2 0.19231395E+00 0.69038178E+03</pdfrwt>
<pdfrwt beam="2">  1       -2 0.13260544E+00 0.69038178E+03</pdfrwt>
<totfact> 0.75201980E+00</totfact>
</mgrwt>
</event>
<event>
 4    1  0.2799069E-007  0.7617697E+03  0.7818608E-02  0.9800547E-01
         -2   -1    0    0    0  501 -0.00000000000E+00  0.00000000000E+00  0.97116508246E+03  0.97116508247E+03  0.25500000000E-02 0.  1.
          2   -1    0    0  501    0  0.00000000000E+00 -0.00000000000E+00 -0.40724214705E+03  0.40724214705E+03  0.25500000000E-02 0. -1.
    8880023    1    1    2    0    0 -0.31179861201E+02 -0.38145857825E+03  0.59278527519E+03  0.96523956581E+03  0.65864270000E+03 0.  0.
    8880022    1    1    2    0    0  0.31179861201E+02  0.38145857825E+03 -0.28862339772E+02  0.41316766371E+03  0.15294330000E+03 0.  0.
<mgrwt>
<rscale>  0 0.65333177E+03</rscale>
<asrwt>0</asrwt>
<pdfrwt beam="1">  1        2 0.62652638E-01 0.76176967E+03</pdfrwt>
<pdfrwt beam="2">  1       -2 0.14941001E+00 0.76176967E+03</pdfrwt>
<totfact> 0.23873861E+01</totfact>
</mgrwt>
</event>
<event>
 4    1  0.2799069E-007  0.7524846E+03  0.7818608E-02  0.9824967E-01
         -2   -1    0    0    0  501 -0.00000000000E+00  0.00000000000E+00  0.73242958340E+03  0.73242958340E+03  0.25500000000E-02 0.  1.
          2   -1    0    0  501    0  0.00000000000E+00 -0.00000000000E+00 -0.13229037278E+04  0.13229037278E+04  0.25500000000E-02 0. -1.
    8880023    1    1    2    0    0  0.34894506922E+03 -0.10324852852E+03  0.49474195700E+03  0.90055690006E+03  0.65864270000E+03 0.  1.
    8880022    1    1    2    0    0 -0.34894506922E+03  0.10324852852E+03 -0.10852161014E+04  0.11547764111E+04  0.15294330000E+03 0.  0.
<mgrwt>
<rscale>  0 0.64039692E+03</rscale>
<asrwt>0</asrwt>
<pdfrwt beam="1">  1        2 0.20352365E+00 0.75248464E+03</pdfrwt>
<pdfrwt beam="2">  1       -2 0.11268147E+00 0.75248464E+03</pdfrwt>
<totfact> 0.10146014E+01</totfact>
</mgrwt>
</event>
<event>
 4    1  0.2799069E-007  0.8077465E+03  0.7818608E-02  0.9694290E-01
         -2   -1    0    0    0  501 -0.00000000000E+00  0.00000000000E+00  0.39312299746E+03  0.39312299747E+03  0.25500000000E-02 0.  1.
          2   -1    0    0  501    0  0.00000000000E+00 -0.00000000000E+00 -0.14926643116E+04  0.14926643116E+04  0.25500000000E-02 0. -1.
    8880023    1    1    2    0    0  0.12345532394E+03  0.45100212839E+03 -0.15741364994E+03  0.82294191792E+03  0.65864270000E+03 0.  0.
    8880022    1    1    2    0    0 -0.12345532394E+03 -0.45100212839E+03 -0.94212766424E+03  0.10628453912E+04  0.15294330000E+03 0.  0.
<mgrwt>
<rscale>  0 0.71357766E+03</rscale>
<asrwt>0</asrwt>
<pdfrwt beam="1">  1        2 0.22964066E+00 0.80774646E+03</pdfrwt>
<pdfrwt beam="2">  1       -2 0.60480462E-01 0.80774646E+03</pdfrwt>
<totfact> 0.33175373E+01</totfact>
</mgrwt>
</event>
<event>
 4    1  0.2983731E-007  0.1097729E+04  0.7818608E-02  0.9263588E-01
          2   -1    0    0  501    0  0.00000000000E+00  0.00000000000E+00  0.22178192132E+04  0.22178192132E+04  0.25500000000E-02 0. -1.
         -2   -1    0    0    0  501 -0.00000000000E+00 -0.00000000000E+00 -0.11569548165E+04  0.11569548165E+04  0.25500000000E-02 0.  1.
    8880023    1    1    2    0    0  0.86875183283E+03  0.12833460928E+03 -0.76835599834E+03  0.13399181562E+04  0.65864270000E+03 0.  0.
    8880022    1    1    2    0    0 -0.86875183283E+03 -0.12833460928E+03  0.18292203950E+04  0.20348558734E+04  0.15294330000E+03 0. -1.
<mgrwt>
<rscale>  0 0.10420521E+04</rscale>
<asrwt>0</asrwt>
<pdfrwt beam="1">  1        2 0.34120295E+00 0.10977293E+04</pdfrwt>
<pdfrwt beam="2">  1       -2 0.17799305E+00 0.10977293E+04</pdfrwt>
<totfact> 0.93215299E-01</totfact>
</mgrwt>
</event>
<event>
 4    1  0.2799069E-007  0.2204016E+04  0.7818608E-02  0.8526870E-01
          2   -1    0    0  501    0  0.00000000000E+00  0.00000000000E+00  0.34412639775E+04  0.34412639775E+04  0.25500000000E-02 0. -1.
         -2   -1    0    0    0  501 -0.00000000000E+00 -0.00000000000E+00 -0.19390548779E+04  0.19390548779E+04  0.25500000000E-02 0.  1.
    8880023    1    1    2    0    0 -0.20566434176E+04 -0.44056280808E+03 -0.71817084000E+03  0.23180718921E+04  0.65864270000E+03 0.  0.
    8880022    1    1    2    0    0  0.20566434176E+04  0.44056280808E+03  0.22203799396E+04  0.30622469633E+04  0.15294330000E+03 0.  0.
<mgrwt>
<rscale>  0 0.21798308E+04</rscale>
<asrwt>0</asrwt>
<pdfrwt beam="1">  1        2 0.52942522E+00 0.22040163E+04</pdfrwt>
<pdfrwt beam="2">  1       -2 0.29831614E+00 0.22040163E+04</pdfrwt>
<totfact> 0.25151786E-02</totfact>
</mgrwt>
</event>
<event>
 4    1  0.2799069E-007  0.7633766E+03  0.7818608E-02  0.9796443E-01
          2   -1    0    0  501    0  0.00000000000E+00  0.00000000000E+00  0.11581204556E+04  0.11581204557E+04  0.25500000000E-02 0. -1.
         -2   -1    0    0    0  501 -0.00000000000E+00 -0.00000000000E+00 -0.82322905444E+03  0.82322905444E+03  0.25500000000E-02 0.  1.
    8880023    1    1    2    0    0  0.23380722245E+03  0.30703053863E+03 -0.59181514231E+03  0.96591352504E+03  0.65864270000E+03 0.  0.
    8880022    1    1    2    0    0 -0.23380722245E+03 -0.30703053863E+03  0.92670654352E+03  0.10154359851E+04  0.15294330000E+03 0.  0.
<mgrwt>
<rscale>  0 0.65553777E+03</rscale>
<asrwt>0</asrwt>
<pdfrwt beam="1">  1        2 0.17817238E+00 0.76337656E+03</pdfrwt>
<pdfrwt beam="2">  1       -2 0.12665063E+00 0.76337656E+03</pdfrwt>
<totfact> 0.94771751E+00</totfact>
</mgrwt>
</event>
<event>
 4    1  0.2799069E-007  0.6703243E+03  0.7818608E-02  0.1015431E+00
         -2   -1    0    0    0  501 -0.00000000000E+00  0.00000000000E+00  0.20144562301E+04  0.20144562301E+04  0.25500000000E-02 0.  1.
          2   -1    0    0  501    0  0.00000000000E+00 -0.00000000000E+00 -0.11362841435E+03  0.11362841438E+03  0.25500000000E-02 0. -1.
    8880023    1    1    2    0    0  0.38291045983E+02 -0.11856751157E+03  0.17665404350E+04  0.18894443029E+04  0.65864270000E+03 0.  1.
    8880022    1    1    2    0    0 -0.38291045983E+02  0.11856751157E+03  0.13428738082E+03  0.23864034165E+03  0.15294330000E+03 0.  0.
<mgrwt>
<rscale>  0 0.49371907E+03</rscale>
<asrwt>0</asrwt>
<pdfrwt beam="1">  1        2 0.17481295E-01 0.67032430E+03</pdfrwt>
<pdfrwt beam="2">  1       -2 0.30991633E+00 0.67032430E+03</pdfrwt>
<totfact> 0.96822546E+00</totfact>
</mgrwt>
</event>
<event>
 4    1  0.2799069E-007  0.9783070E+03  0.7818608E-02  0.9410506E-01
          2   -1    0    0  501    0  0.00000000000E+00  0.00000000000E+00  0.13121861154E+04  0.13121861155E+04  0.25500000000E-02 0. -1.
         -2   -1    0    0    0  501 -0.00000000000E+00 -0.00000000000E+00 -0.15729752965E+04  0.15729752965E+04  0.25500000000E-02 0.  1.
    8880023    1    1    2    0    0 -0.19298404855E+03  0.69715964421E+03 -0.12893142921E+04  0.16184609858E+04  0.65864270000E+03 0.  1.
    8880022    1    1    2    0    0  0.19298404855E+03 -0.69715964421E+03  0.10285251110E+04  0.12667004261E+04  0.15294330000E+03 0.  0.
<mgrwt>
<rscale>  0 0.91216130E+03</rscale>
<asrwt>0</asrwt>
<pdfrwt beam="1">  1        2 0.20187479E+00 0.97830702E+03</pdfrwt>
<pdfrwt beam="2">  1       -2 0.24199620E+00 0.97830702E+03</pdfrwt>
<totfact> 0.11701384E+00</totfact>
</mgrwt>
</event>
<event>
 4    1  0.2799069E-007  0.9817216E+03  0.7818608E-02  0.9405872E-01
         -2   -1    0    0    0  501 -0.00000000000E+00  0.00000000000E+00  0.93113575237E+03  0.93113575237E+03  0.25500000000E-02 0.  1.
          2   -1    0    0  501    0  0.00000000000E+00 -0.00000000000E+00 -0.10152724484E+04  0.10152724484E+04  0.25500000000E-02 0. -1.
    8880023    1    1    2    0    0 -0.14354787296E+03  0.71369539168E+03  0.39866923869E+03  0.10595822158E+04  0.65864270000E+03 0.  1.
    8880022    1    1    2    0    0  0.14354787296E+03 -0.71369539168E+03 -0.48280593468E+03  0.88682598491E+03  0.15294330000E+03 0.  0.
<mgrwt>
<rscale>  0 0.91594018E+03</rscale>
<asrwt>0</asrwt>
<pdfrwt beam="1">  1        2 0.15619576E+00 0.98172161E+03</pdfrwt>
<pdfrwt beam="2">  1       -2 0.14325166E+00 0.98172161E+03</pdfrwt>
<totfact> 0.82734457E+00</totfact>
</mgrwt>
</event>
<event>
 4    1  0.2799069E-007  0.1597284E+04  0.7818608E-02  0.8843829E-01
          2   -1    0    0  501    0  0.00000000000E+00  0.00000000000E+00  0.13382050697E+04  0.13382050697E+04  0.25500000000E-02 0. -1.
         -2   -1    0    0    0  501 -0.00000000000E+00 -0.00000000000E+00 -0.20395417199E+04  0.20395417199E+04  0.25500000000E-02 0.  1.
    8880023    1    1    2    0    0 -0.25648453285E+03  0.14323834253E+04  0.27216320611E+03  0.16203054063E+04  0.65864270000E+03 0.  0.
    8880022    1    1    2    0    0  0.25648453285E+03 -0.14323834253E+04 -0.97349985630E+03  0.17574413833E+04  0.15294330000E+03 0.  0.
<mgrwt>
<rscale>  0 0.15626480E+04</rscale>
<asrwt>0</asrwt>
<pdfrwt beam="1">  1        2 0.20587770E+00 0.15972842E+04</pdfrwt>
<pdfrwt beam="2">  1       -2 0.31377565E+00 0.15972842E+04</pdfrwt>
<totfact> 0.38362021E-01</totfact>
</mgrwt>
</event>
<event>
 4    1  0.2799069E-007  0.7164138E+03  0.7818608E-02  0.9934912E-01
         -2   -1    0    0    0  501 -0.00000000000E+00  0.00000000000E+00  0.14234763346E+04  0.14234763346E+04  0.25500000000E-02 0.  1.
          2   -1    0    0  501    0  0.00000000000E+00 -0.00000000000E+00 -0.10145380673E+04  0.10145380673E+04  0.25500000000E-02 0. -1.
    8880023    1    1    2    0    0  0.24758115449E+03  0.13469277516E+03  0.13036723048E+04  0.14875517659E+04  0.65864270000E+03 0.  1.
    8880022    1    1    2    0    0 -0.24758115449E+03 -0.13469277516E+03 -0.89473403742E+03  0.95046263602E+03  0.15294330000E+03 0.  0.
<mgrwt>
<rscale>  0 0.58598712E+03</rscale>
<asrwt>0</asrwt>
<pdfrwt beam="1">  1        2 0.15608278E+00 0.71641383E+03</pdfrwt>
<pdfrwt beam="2">  1       -2 0.21899636E+00 0.71641383E+03</pdfrwt>
<totfact> 0.25547991E+00</totfact>
</mgrwt>
</event>
<event>
 4    1  0.2799069E-007  0.9847244E+03  0.7818608E-02  0.9401821E-01
         -2   -1    0    0    0  501 -0.00000000000E+00  0.00000000000E+00  0.10124572798E+04  0.10124572798E+04  0.25500000000E-02 0.  1.
          2   -1    0    0  501    0  0.00000000000E+00 -0.00000000000E+00 -0.13744732370E+04  0.13744732370E+04  0.25500000000E-02 0. -1.
    8880023    1    1    2    0    0 -0.11952121154E+03  0.72220958704E+03  0.61164282093E+03  0.11592192003E+04  0.65864270000E+03 0.  0.
    8880022    1    1    2    0    0  0.11952121154E+03 -0.72220958704E+03 -0.97365877810E+03  0.12277113166E+04  0.15294330000E+03 0.  0.
<mgrwt>
<rscale>  0 0.91925947E+03</rscale>
<asrwt>0</asrwt>
<pdfrwt beam="1">  1        2 0.21145742E+00 0.98472444E+03</pdfrwt>
<pdfrwt beam="2">  1       -2 0.15576266E+00 0.98472444E+03</pdfrwt>
<totfact> 0.40290016E+00</totfact>
</mgrwt>
</event>
<event>
 4    1  0.2799069E-007  0.1289869E+04  0.7818608E-02  0.9074359E-01
          2   -1    0    0  501    0  0.00000000000E+00  0.00000000000E+00  0.27225307820E+04  0.27225307820E+04  0.25500000000E-02 0. -1.
         -2   -1    0    0    0  501 -0.00000000000E+00 -0.00000000000E+00 -0.54750402210E+03  0.54750402211E+03  0.25500000000E-02 0.  1.
    8880023    1    1    2    0    0 -0.10412209193E+04  0.38185055187E+03  0.14272051898E+04  0.19237140397E+04  0.65864270000E+03 0.  0.
    8880022    1    1    2    0    0  0.10412209193E+04 -0.38185055187E+03  0.74782157014E+03  0.13463207644E+04  0.15294330000E+03 0.  0.
<mgrwt>
<rscale>  0 0.12449956E+04</rscale>
<asrwt>0</asrwt>
<pdfrwt beam="1">  1        2 0.41885089E+00 0.12898686E+04</pdfrwt>
<pdfrwt beam="2">  1       -2 0.84231389E-01 0.12898686E+04</pdfrwt>
<totfact> 0.30987672E+00</totfact>
</mgrwt>
</event>
<event>
 4    1  0.2799069E-007  0.1302532E+04  0.7818608E-02  0.9063376E-01
          2   -1    0    0  501    0  0.00000000000E+00  0.00000000000E+00  0.21115561807E+04  0.21115561807E+04  0.25500000000E-02 0. -1.
         -2   -1    0    0    0  501 -0.00000000000E+00 -0.00000000000E+00 -0.10057385538E+04  0.10057385538E+04  0.25500000000E-02 0.  1.
    8880023    1    1    2    0    0  0.11120210636E+04  0.16183052181E+03 -0.27418293349E+03  0.13310771769E+04  0.65864270000E+03 0.  1.
    8880022    1    1    2    0    0 -0.11120210636E+04 -0.16183052181E+03  0.13800005604E+04  0.17862175576E+04  0.15294330000E+03 0.  0.
<mgrwt>
<rscale>  0 0.12582117E+04</rscale>
<asrwt>0</asrwt>
<pdfrwt beam="1">  1        2 0.32485479E+00 0.13025322E+04</pdfrwt>
<pdfrwt beam="2">  1       -2 0.15472901E+00 0.13025322E+04</pdfrwt>
<totfact> 0.15369084E+00</totfact>
</mgrwt>
</event>
<event>
 4    1  0.2799069E-007  0.6668912E+03  0.7818608E-02  0.1017997E+00
         -2   -1    0    0    0  501 -0.00000000000E+00  0.00000000000E+00  0.16108505925E+04  0.16108505925E+04  0.25500000000E-02 0.  1.
          2   -1    0    0  501    0  0.00000000000E+00 -0.00000000000E+00 -0.20199553725E+04  0.20199553725E+04  0.25500000000E-02 0. -1.
    8880023    1    1    2    0    0  0.82245050472E+02  0.64570666856E+02  0.15372394509E+04  0.16756637356E+04  0.65864270000E+03 0.  1.
    8880022    1    1    2    0    0 -0.82245050472E+02 -0.64570666856E+02 -0.19463442309E+04  0.19551422294E+04  0.15294330000E+03 0.  0.
<mgrwt>
<rscale>  0 0.48416453E+03</rscale>
<asrwt>0</asrwt>
<pdfrwt beam="1">  1        2 0.31076236E+00 0.66689116E+03</pdfrwt>
<pdfrwt beam="2">  1       -2 0.24782317E+00 0.66689116E+03</pdfrwt>
<totfact> 0.46425140E-01</totfact>
</mgrwt>
</event>
<event>
 4    1  0.2799069E-007  0.8578963E+03  0.7818608E-02  0.9597317E-01
          2   -1    0    0  501    0  0.00000000000E+00  0.00000000000E+00  0.18142385443E+04  0.18142385443E+04  0.25500000000E-02 0. -1.
         -2   -1    0    0    0  501 -0.00000000000E+00 -0.00000000000E+00 -0.58648002482E+03  0.58648002483E+03  0.25500000000E-02 0.  1.
    8880023    1    1    2    0    0  0.54911946458E+03 -0.25369099684E+02 -0.18453421637E+03  0.87751858150E+03  0.65864270000E+03 0.  1.
    8880022    1    1    2    0    0 -0.54911946458E+03  0.25369099684E+02  0.14122927359E+04  0.15231999877E+04  0.15294330000E+03 0.  0.
<mgrwt>
<rscale>  0 0.77474039E+03</rscale>
<asrwt>0</asrwt>
<pdfrwt beam="1">  1        2 0.27911362E+00 0.85789625E+03</pdfrwt>
<pdfrwt beam="2">  1       -2 0.90227697E-01 0.85789625E+03</pdfrwt>
<totfact> 0.90444608E+00</totfact>
</mgrwt>
</event>
<event>
 4    1  0.2799069E-007  0.1210391E+04  0.7818608E-02  0.9147087E-01
         -2   -1    0    0    0  501 -0.00000000000E+00  0.00000000000E+00  0.10701733464E+04  0.10701733464E+04  0.25500000000E-02 0.  1.
          2   -1    0    0  501    0  0.00000000000E+00 -0.00000000000E+00 -0.21268943545E+04  0.21268943545E+04  0.25500000000E-02 0. -1.
    8880023    1    1    2    0    0 -0.36546119998E+03 -0.94745648210E+03  0.51840583092E+03  0.13167347819E+04  0.65864270000E+03 0.  0.
    8880022    1    1    2    0    0  0.36546119998E+03  0.94745648210E+03 -0.15751268390E+04  0.18803329190E+04  0.15294330000E+03 0.  0.
<mgrwt>
<rscale>  0 0.11616668E+04</rscale>
<asrwt>0</asrwt>
<pdfrwt beam="1">  1        2 0.32721452E+00 0.12103908E+04</pdfrwt>
<pdfrwt beam="2">  1       -2 0.16464205E+00 0.12103908E+04</pdfrwt>
<totfact> 0.12849021E+00</totfact>
</mgrwt>
</event>
<event>
 4    1  0.2799069E-007  0.1062177E+04  0.7818608E-02  0.9304385E-01
          2   -1    0    0  501    0  0.00000000000E+00  0.00000000000E+00  0.11996328319E+04  0.11996328319E+04  0.25500000000E-02 0. -1.
         -2   -1    0    0    0  501 -0.00000000000E+00 -0.00000000000E+00 -0.13372202261E+04  0.13372202261E+04  0.25500000000E-02 0.  1.
    8880023    1    1    2    0    0 -0.35578702103E+03 -0.75354137710E+03 -0.90370868714E+03  0.13945998024E+04  0.65864270000E+03 0.  0.
    8880022    1    1    2    0    0  0.35578702103E+03  0.75354137710E+03  0.76612129297E+03  0.11422532556E+04  0.15294330000E+03 0.  0.
<mgrwt>
<rscale>  0 0.10038020E+04</rscale>
<asrwt>0</asrwt>
<pdfrwt beam="1">  1        2 0.18455890E+00 0.10621766E+04</pdfrwt>
<pdfrwt beam="2">  1       -2 0.20572619E+00 0.10621766E+04</pdfrwt>
<totfact> 0.22787222E+00</totfact>
</mgrwt>
</event>
<event>
 4    1  0.2799069E-007  0.1395106E+04  0.7818608E-02  0.8987495E-01
          2   -1    0    0  501    0  0.00000000000E+00  0.00000000000E+00  0.29068781716E+04  0.29068781716E+04  0.25500000000E-02 0. -1.
         -2   -1    0    0    0  501 -0.00000000000E+00 -0.00000000000E+00 -0.10268968197E+04  0.10268968197E+04  0.25500000000E-02 0.  1.
    8880023    1    1    2    0    0  0.63473356074E+03 -0.10533867988E+04 -0.29920817624E+03  0.14268308169E+04  0.65864270000E+03 0.  0.
    8880022    1    1    2    0    0 -0.63473356074E+03  0.10533867988E+04  0.21791895282E+04  0.25069441744E+04  0.15294330000E+03 0.  0.
<mgrwt>
<rscale>  0 0.13544121E+04</rscale>
<asrwt>0</asrwt>
<pdfrwt beam="1">  1        2 0.44721203E+00 0.13951060E+04</pdfrwt>
<pdfrwt beam="2">  1       -2 0.15798413E+00 0.13951060E+04</pdfrwt>
<totfact> 0.49682999E-01</totfact>
</mgrwt>
</event>
<event>
 4    1  0.2799069E-007  0.1575775E+04  0.7818608E-02  0.8857902E-01
         -2   -1    0    0    0  501 -0.00000000000E+00  0.00000000000E+00  0.21809431868E+04  0.21809431868E+04  0.25500000000E-02 0.  1.
          2   -1    0    0  501    0  0.00000000000E+00 -0.00000000000E+00 -0.10596583567E+04  0.10596583567E+04  0.25500000000E-02 0. -1.
    8880023    1    1    2    0    0  0.16114615549E+03 -0.14224238044E+04  0.79262286733E+03  0.17638930747E+04  0.65864270000E+03 0.  0.
    8880022    1    1    2    0    0 -0.16114615549E+03  0.14224238044E+04  0.32866196279E+03  0.14767084688E+04  0.15294330000E+03 0.  0.
<mgrwt>
<rscale>  0 0.15405878E+04</rscale>
<asrwt>0</asrwt>
<pdfrwt beam="1">  1        2 0.16302437E+00 0.15757753E+04</pdfrwt>
<pdfrwt beam="2">  1       -2 0.33552972E+00 0.15757753E+04</pdfrwt>
<totfact> 0.41639304E-01</totfact>
</mgrwt>
</event>
<event>
 4    1  0.2799069E-007  0.1369177E+04  0.7818608E-02  0.9008011E-01
          2   -1    0    0  501    0  0.00000000000E+00  0.00000000000E+00  0.17503898695E+04  0.17503898695E+04  0.25500000000E-02 0. -1.
         -2   -1    0    0    0  501 -0.00000000000E+00 -0.00000000000E+00 -0.11260714602E+04  0.11260714602E+04  0.25500000000E-02 0.  1.
    8880023    1    1    2    0    0  0.11589441286E+04  0.31254391338E+03 -0.23916912806E+03  0.13899090866E+04  0.65864270000E+03 0.  0.
    8880022    1    1    2    0    0 -0.11589441286E+04 -0.31254391338E+03  0.86348753735E+03  0.14865522430E+04  0.15294330000E+03 0.  0.
<mgrwt>
<rscale>  0 0.13275342E+04</rscale>
<asrwt>0</asrwt>
<pdfrwt beam="1">  1        2 0.26929075E+00 0.13691769E+04</pdfrwt>
<pdfrwt beam="2">  1       -2 0.17324176E+00 0.13691769E+04</pdfrwt>
<totfact> 0.17734457E+00</totfact>
</mgrwt>
</event>
<event>
 4    1  0.2799069E-007  0.7998826E+03  0.7818608E-02  0.9711050E-01
          2   -1    0    0  501    0  0.00000000000E+00  0.00000000000E+00  0.12824705187E+04  0.12824705187E+04  0.25500000000E-02 0. -1.
         -2   -1    0    0    0  501 -0.00000000000E+00 -0.00000000000E+00 -0.10395191502E+04  0.10395191502E+04  0.25500000000E-02 0.  1.
    8880023    1    1    2    0    0  0.35697508706E+03 -0.28030470122E+03 -0.82650463259E+03  0.11501834863E+04  0.65864270000E+03 0.  1.
    8880022    1    1    2    0    0 -0.35697508706E+03  0.28030470122E+03  0.10694560011E+04  0.11718061826E+04  0.15294330000E+03 0.  0.
<mgrwt>
<rscale>  0 0.70362675E+03</rscale>
<asrwt>0</asrwt>
<pdfrwt beam="1">  1        2 0.19730316E+00 0.79988258E+03</pdfrwt>
<pdfrwt beam="2">  1       -2 0.15992602E+00 0.79988258E+03</pdfrwt>
<totfact> 0.43380774E+00</totfact>
</mgrwt>
</event>
<event>
 4    1  0.2799069E-007  0.7180080E+03  0.7818608E-02  0.9929385E-01
         -2   -1    0    0    0  501 -0.00000000000E+00  0.00000000000E+00  0.54461844578E+03  0.54461844578E+03  0.25500000000E-02 0.  1.
          2   -1    0    0  501    0  0.00000000000E+00 -0.00000000000E+00 -0.14424697070E+04  0.14424697070E+04  0.25500000000E-02 0. -1.
    8880023    1    1    2    0    0 -0.12761568112E+03 -0.25581156704E+03  0.27604342246E+03  0.76924345772E+03  0.65864270000E+03 0.  1.
    8880022    1    1    2    0    0  0.12761568112E+03  0.25581156704E+03 -0.11738946837E+04  0.12178446951E+04  0.15294330000E+03 0.  0.
<mgrwt>
<rscale>  0 0.58858079E+03</rscale>
<asrwt>0</asrwt>
<pdfrwt beam="1">  1        2 0.22191842E+00 0.71800803E+03</pdfrwt>
<pdfrwt beam="2">  1       -2 0.83787454E-01 0.71800803E+03</pdfrwt>
<totfact> 0.17500153E+01</totfact>
</mgrwt>
</event>
<event>
 4    1  0.2799069E-007  0.6910210E+03  0.7818608E-02  0.1003671E+00
          2   -1    0    0  501    0  0.00000000000E+00  0.00000000000E+00  0.18401059710E+04  0.18401059710E+04  0.25500000000E-02 0. -1.
         -2   -1    0    0    0  501 -0.00000000000E+00 -0.00000000000E+00 -0.17000873078E+03  0.17000873079E+03  0.25500000000E-02 0.  1.
    8880023    1    1    2    0    0  0.20463432469E+03 -0.42715787623E+02  0.61949661882E+03  0.92805501580E+03  0.65864270000E+03 0.  1.
    8880022    1    1    2    0    0 -0.20463432469E+03  0.42715787623E+02  0.10506006214E+04  0.10820596860E+04  0.15294330000E+03 0.  0.
<mgrwt>
<rscale>  0 0.54069441E+03</rscale>
<asrwt>0</asrwt>
<pdfrwt beam="1">  1        2 0.28309322E+00 0.69102102E+03</pdfrwt>
<pdfrwt beam="2">  1       -2 0.26155190E-01 0.69102102E+03</pdfrwt>
<totfact> 0.11137476E+02</totfact>
</mgrwt>
</event>
<event>
 4    1  0.2799069E-007  0.1355112E+04  0.7818608E-02  0.9019371E-01
         -2   -1    0    0    0  501 -0.00000000000E+00  0.00000000000E+00  0.14962207326E+04  0.14962207326E+04  0.25500000000E-02 0.  1.
          2   -1    0    0  501    0  0.00000000000E+00 -0.00000000000E+00 -0.19222530370E+04  0.19222530370E+04  0.25500000000E-02 0. -1.
    8880023    1    1    2    0    0 -0.11480612668E+04 -0.29064181370E+03  0.90559802397E+03  0.16298574550E+04  0.65864270000E+03 0.  0.
    8880022    1    1    2    0    0  0.11480612668E+04  0.29064181370E+03 -0.13316303284E+04  0.17886163146E+04  0.15294330000E+03 0. -1.
<mgrwt>
<rscale>  0 0.13129337E+04</rscale>
<asrwt>0</asrwt>
<pdfrwt beam="1">  1        2 0.29573124E+00 0.13551116E+04</pdfrwt>
<pdfrwt beam="2">  1       -2 0.23018780E+00 0.13551116E+04</pdfrwt>
<totfact> 0.59986132E-01</totfact>
</mgrwt>
</event>
<event>
 4    1  0.2799069E-007  0.7681468E+03  0.7818608E-02  0.9784455E-01
         -2   -1    0    0    0  501 -0.00000000000E+00  0.00000000000E+00  0.53741375776E+03  0.53741375777E+03  0.25500000000E-02 0.  1.
          2   -1    0    0  501    0  0.00000000000E+00 -0.00000000000E+00 -0.69118923585E+03  0.69118923586E+03  0.25500000000E-02 0. -1.
    8880023    1    1    2    0    0  0.22876133061E+03  0.32234706126E+03  0.25138712074E+02  0.76855808849E+03  0.65864270000E+03 0.  1.
    8880022    1    1    2    0    0 -0.22876133061E+03 -0.32234706126E+03 -0.17891419016E+03  0.46004490513E+03  0.15294330000E+03 0.  0.
<mgrwt>
<rscale>  0 0.66203486E+03</rscale>
<asrwt>0</asrwt>
<pdfrwt beam="1">  1        2 0.10633681E+00 0.76814685E+03</pdfrwt>
<pdfrwt beam="2">  1       -2 0.82679039E-01 0.76814685E+03</pdfrwt>
<totfact> 0.54036542E+01</totfact>
</mgrwt>
</event>
<event>
 4    1  0.2799069E-007  0.1847466E+04  0.7818608E-02  0.8696724E-01
         -2   -1    0    0    0  501 -0.00000000000E+00  0.00000000000E+00  0.93018438267E+03  0.93018438267E+03  0.25500000000E-02 0.  1.
          2   -1    0    0  501    0  0.00000000000E+00 -0.00000000000E+00 -0.43262676670E+04  0.43262676670E+04  0.25500000000E-02 0. -1.
    8880023    1    1    2    0    0 -0.13542054404E+04  0.10702565011E+04 -0.29269475056E+04  0.34612357995E+04  0.65864270000E+03 0. -1.
    8880022    1    1    2    0    0  0.13542054404E+04 -0.10702565011E+04 -0.46913577870E+03  0.17952162501E+04  0.15294330000E+03 0.  1.
<mgrwt>
<rscale>  0 0.18181161E+04</rscale>
<asrwt>0</asrwt>
<pdfrwt beam="1">  1        2 0.66557963E+00 0.18474663E+04</pdfrwt>
<pdfrwt beam="2">  1       -2 0.14310529E+00 0.18474663E+04</pdfrwt>
<totfact> 0.56322415E-02</totfact>
</mgrwt>
</event>
<event>
 4    1  0.2799069E-007  0.8723777E+03  0.7818608E-02  0.9571914E-01
         -2   -1    0    0    0  501 -0.00000000000E+00  0.00000000000E+00  0.39629553975E+03  0.39629553975E+03  0.25500000000E-02 0.  1.
          2   -1    0    0  501    0  0.00000000000E+00 -0.00000000000E+00 -0.26709196112E+04  0.26709196112E+04  0.25500000000E-02 0. -1.
    8880023    1    1    2    0    0 -0.57159379581E+03  0.22655249225E+02 -0.18033000674E+03  0.89082088285E+03  0.65864270000E+03 0.  1.
    8880022    1    1    2    0    0  0.57159379581E+03 -0.22655249225E+02 -0.20942940647E+04  0.21763942681E+04  0.15294330000E+03 0.  0.
<mgrwt>
<rscale>  0 0.79183318E+03</rscale>
<asrwt>0</asrwt>
<pdfrwt beam="1">  1        2 0.41091070E+00 0.87237775E+03</pdfrwt>
<pdfrwt beam="2">  1       -2 0.60968546E-01 0.87237775E+03</pdfrwt>
<totfact> 0.71494931E+00</totfact>
</mgrwt>
</event>
<event>
 4    1  0.2799069E-007  0.6718352E+03  0.7818608E-02  0.1014380E+00
          2   -1    0    0  501    0  0.00000000000E+00  0.00000000000E+00  0.21230765488E+03  0.21230765490E+03  0.25500000000E-02 0. -1.
         -2   -1    0    0    0  501 -0.00000000000E+00 -0.00000000000E+00 -0.23829008081E+04  0.23829008081E+04  0.25500000000E-02 0.  1.
    8880023    1    1    2    0    0  0.97388386029E+02 -0.89821323977E+02 -0.22717323945E+04  0.23689935936E+04  0.65864270000E+03 0.  1.
    8880022    1    1    2    0    0 -0.97388386029E+02  0.89821323977E+02  0.10113924132E+03  0.22621486937E+03  0.15294330000E+03 0.  0.
<mgrwt>
<rscale>  0 0.49770372E+03</rscale>
<asrwt>0</asrwt>
<pdfrwt beam="1">  1        2 0.32662718E-01 0.67183523E+03</pdfrwt>
<pdfrwt beam="2">  1       -2 0.36660011E+00 0.67183523E+03</pdfrwt>
<totfact> 0.21080030E+00</totfact>
</mgrwt>
</event>
<event>
 4    1  0.2799069E-007  0.1102345E+04  0.7818608E-02  0.9258450E-01
          2   -1    0    0  501    0  0.00000000000E+00  0.00000000000E+00  0.28456855530E+04  0.28456855530E+04  0.25500000000E-02 0. -1.
         -2   -1    0    0    0  501 -0.00000000000E+00 -0.00000000000E+00 -0.72925147292E+03  0.72925147292E+03  0.25500000000E-02 0.  1.
    8880023    1    1    2    0    0  0.72325396836E+03  0.50819070565E+03 -0.17317154405E+03  0.11158640983E+04  0.65864270000E+03 0.  0.
    8880022    1    1    2    0    0 -0.72325396836E+03 -0.50819070565E+03  0.22896056241E+04  0.24590729276E+04  0.15294330000E+03 0.  0.
<mgrwt>
<rscale>  0 0.10469971E+04</rscale>
<asrwt>0</asrwt>
<pdfrwt beam="1">  1        2 0.43779778E+00 0.11023449E+04</pdfrwt>
<pdfrwt beam="2">  1       -2 0.11219253E+00 0.11023449E+04</pdfrwt>
<totfact> 0.13578867E+00</totfact>
</mgrwt>
</event>
<event>
 4    1  0.2799069E-007  0.1412630E+04  0.7818608E-02  0.8973931E-01
          2   -1    0    0  501    0  0.00000000000E+00  0.00000000000E+00  0.21788967005E+04  0.21788967005E+04  0.25500000000E-02 0. -1.
         -2   -1    0    0    0  501 -0.00000000000E+00 -0.00000000000E+00 -0.14415184634E+04  0.14415184635E+04  0.25500000000E-02 0.  1.
    8880023    1    1    2    0    0  0.20265701134E+02 -0.12495209418E+04 -0.80777583532E+03  0.16272754189E+04  0.65864270000E+03 0.  0.
    8880022    1    1    2    0    0 -0.20265701134E+02  0.12495209418E+04  0.15451540724E+04  0.19931397450E+04  0.15294330000E+03 0.  0.
<mgrwt>
<rscale>  0 0.13725512E+04</rscale>
<asrwt>0</asrwt>
<pdfrwt beam="1">  1        2 0.33521488E+00 0.14126300E+04</pdfrwt>
<pdfrwt beam="2">  1       -2 0.22177207E+00 0.14126300E+04</pdfrwt>
<totfact> 0.48418000E-01</totfact>
</mgrwt>
</event>
<event>
 4    1  0.2799069E-007  0.8053160E+03  0.7818608E-02  0.9699418E-01
         -2   -1    0    0    0  501 -0.00000000000E+00  0.00000000000E+00  0.53256496800E+03  0.53256496801E+03  0.25500000000E-02 0.  1.
          2   -1    0    0  501    0  0.00000000000E+00 -0.00000000000E+00 -0.13161560449E+04  0.13161560449E+04  0.25500000000E-02 0. -1.
    8880023    1    1    2    0    0 -0.30953685604E+03  0.34483407797E+03  0.12734172022E+03  0.81532185457E+03  0.65864270000E+03 0.  0.
    8880022    1    1    2    0    0  0.30953685604E+03 -0.34483407797E+03 -0.91093279717E+03  0.10333991584E+04  0.15294330000E+03 0.  0.
<mgrwt>
<rscale>  0 0.71051481E+03</rscale>
<asrwt>0</asrwt>
<pdfrwt beam="1">  1        2 0.20248554E+00 0.80531597E+03</pdfrwt>
<pdfrwt beam="2">  1       -2 0.81933072E-01 0.80531597E+03</pdfrwt>
<totfact> 0.21496798E+01</totfact>
</mgrwt>
</event>
<event>
 4    1  0.2799069E-007  0.1231256E+04  0.7818608E-02  0.9127322E-01
         -2   -1    0    0    0  501 -0.00000000000E+00  0.00000000000E+00  0.19305829361E+04  0.19305829361E+04  0.25500000000E-02 0.  1.
          2   -1    0    0  501    0  0.00000000000E+00 -0.00000000000E+00 -0.87014807166E+03  0.87014807166E+03  0.25500000000E-02 0. -1.
    8880023    1    1    2    0    0  0.39593003883E+03  0.96198827601E+03  0.12245661207E+04  0.17365351794E+04  0.65864270000E+03 0.  0.
    8880022    1    1    2    0    0 -0.39593003883E+03 -0.96198827601E+03 -0.16413125632E+03  0.10641958284E+04  0.15294330000E+03 0.  0.
<mgrwt>
<rscale>  0 0.11836133E+04</rscale>
<asrwt>0</asrwt>
<pdfrwt beam="1">  1        2 0.13386894E+00 0.12312564E+04</pdfrwt>
<pdfrwt beam="2">  1       -2 0.29701276E+00 0.12312564E+04</pdfrwt>
<totfact> 0.99432050E-01</totfact>
</mgrwt>
</event>
<event>
 4    1  0.2799069E-007  0.6849072E+03  0.7818608E-02  0.1006674E+00
         -2   -1    0    0    0  501 -0.00000000000E+00  0.00000000000E+00  0.68743435279E+03  0.68743435280E+03  0.25500000000E-02 0.  1.
          2   -1    0    0  501    0  0.00000000000E+00 -0.00000000000E+00 -0.74385657842E+03  0.74385657843E+03  0.25500000000E-02 0. -1.
    8880023    1    1    2    0    0 -0.17937686357E+03  0.55782375896E+02  0.48426824021E+03  0.83881682588E+03  0.65864270000E+03 0.  1.
    8880022    1    1    2    0    0  0.17937686357E+03 -0.55782375896E+02 -0.54069046584E+03  0.59247410535E+03  0.15294330000E+03 0.  0.
<mgrwt>
<rscale>  0 0.52818312E+03</rscale>
<asrwt>0</asrwt>
<pdfrwt beam="1">  1        2 0.11443947E+00 0.68490725E+03</pdfrwt>
<pdfrwt beam="2">  1       -2 0.10575913E+00 0.68490725E+03</pdfrwt>
<totfact> 0.27928819E+01</totfact>
</mgrwt>
</event>
<event>
 4    1  0.2799069E-007  0.7046453E+03  0.7818608E-02  0.9978450E-01
          2   -1    0    0  501    0  0.00000000000E+00  0.00000000000E+00  0.69922788245E+03  0.69922788246E+03  0.25500000000E-02 0. -1.
         -2   -1    0    0    0  501 -0.00000000000E+00 -0.00000000000E+00 -0.96411773947E+03  0.96411773948E+03  0.25500000000E-02 0.  1.
    8880023    1    1    2    0    0  0.20461723505E+03  0.14438333438E+03 -0.79198306275E+03  0.10600764775E+04  0.65864270000E+03 0.  1.
    8880022    1    1    2    0    0 -0.20461723505E+03 -0.14438333438E+03  0.52709320573E+03  0.60326914447E+03  0.15294330000E+03 0.  0.
<mgrwt>
<rscale>  0 0.56605333E+03</rscale>
<asrwt>0</asrwt>
<pdfrwt beam="1">  1        2 0.10757352E+00 0.70464528E+03</pdfrwt>
<pdfrwt beam="2">  1       -2 0.14832581E+00 0.70464528E+03</pdfrwt>
<totfact> 0.12918779E+01</totfact>
</mgrwt>
</event>
<event>
 4    1  0.2799069E-007  0.7047914E+03  0.7818608E-02  0.9977877E-01
          2   -1    0    0  501    0  0.00000000000E+00  0.00000000000E+00  0.58018557760E+03  0.58018557760E+03  0.25500000000E-02 0. -1.
         -2   -1    0    0    0  501 -0.00000000000E+00 -0.00000000000E+00 -0.12473418871E+04  0.12473418871E+04  0.25500000000E-02 0.  1.
    8880023    1    1    2    0    0  0.24276437435E+03 -0.63135836984E+02 -0.10987880737E+04  0.13053988328E+04  0.65864270000E+03 0.  1.
    8880022    1    1    2    0    0 -0.24276437435E+03  0.63135836984E+02  0.43163176423E+03  0.52212863192E+03  0.15294330000E+03 0.  0.
<mgrwt>
<rscale>  0 0.56631040E+03</rscale>
<asrwt>0</asrwt>
<pdfrwt beam="1">  1        2 0.89259320E-01 0.70479137E+03</pdfrwt>
<pdfrwt beam="2">  1       -2 0.19189875E+00 0.70479137E+03</pdfrwt>
<totfact> 0.79623407E+00</totfact>
</mgrwt>
</event>
<event>
 4    1  0.2799069E-007  0.1174053E+04  0.7818608E-02  0.9182766E-01
         -2   -1    0    0    0  501 -0.00000000000E+00  0.00000000000E+00  0.10699278735E+04  0.10699278735E+04  0.25500000000E-02 0.  1.
          2   -1    0    0  501    0  0.00000000000E+00 -0.00000000000E+00 -0.13260326070E+04  0.13260326070E+04  0.25500000000E-02 0. -1.
    8880023    1    1    2    0    0  0.96321792747E+03  0.12962248829E+03 -0.64319041167E+03  0.13386914795E+04  0.65864270000E+03 0.  0.
    8880022    1    1    2    0    0 -0.96321792747E+03 -0.12962248829E+03  0.38708567822E+03  0.10572690010E+04  0.15294330000E+03 0.  0.
<mgrwt>
<rscale>  0 0.11233091E+04</rscale>
<asrwt>0</asrwt>
<pdfrwt beam="1">  1        2 0.20400502E+00 0.11740532E+04</pdfrwt>
<pdfrwt beam="2">  1       -2 0.16460429E+00 0.11740532E+04</pdfrwt>
<totfact> 0.36233306E+00</totfact>
</mgrwt>
</event>
<event>
 4    1  0.2799069E-007  0.6808084E+03  0.7818608E-02  0.1008870E+00
         -2   -1    0    0    0  501 -0.00000000000E+00  0.00000000000E+00  0.76587009879E+03  0.76587009879E+03  0.25500000000E-02 0.  1.
          2   -1    0    0  501    0  0.00000000000E+00 -0.00000000000E+00 -0.12354686587E+04  0.12354686588E+04  0.25500000000E-02 0. -1.
    8880023    1    1    2    0    0  0.39995623778E+01 -0.17226088215E+03  0.59984059961E+03  0.90736363120E+03  0.65864270000E+03 0.  1.
    8880022    1    1    2    0    0 -0.39995623778E+01  0.17226088215E+03 -0.10694391596E+04  0.10939751263E+04  0.15294330000E+03 0.  0.
<mgrwt>
<rscale>  0 0.51926197E+03</rscale>
<asrwt>0</asrwt>
<pdfrwt beam="1">  1        2 0.19007210E+00 0.68080835E+03</pdfrwt>
<pdfrwt beam="2">  1       -2 0.11782617E+00 0.68080835E+03</pdfrwt>
<totfact> 0.10321856E+01</totfact>
</mgrwt>
</event>
<event>
 4    1  0.2799069E-007  0.7276748E+03  0.7818608E-02  0.9897424E-01
          2   -1    0    0  501    0  0.00000000000E+00  0.00000000000E+00  0.82216221190E+03  0.82216221191E+03  0.25500000000E-02 0. -1.
         -2   -1    0    0    0  501 -0.00000000000E+00 -0.00000000000E+00 -0.61186021022E+03  0.61186021023E+03  0.25500000000E-02 0.  1.
    8880023    1    1    2    0    0  0.28111613252E+03 -0.12912812873E+03 -0.32513583301E+03  0.79700932853E+03  0.65864270000E+03 0.  1.
    8880022    1    1    2    0    0 -0.28111613252E+03  0.12912812873E+03  0.53543783469E+03  0.63701309361E+03  0.15294330000E+03 0.  0.
<mgrwt>
<rscale>  0 0.60386285E+03</rscale>
<asrwt>0</asrwt>
<pdfrwt beam="1">  1        2 0.12648649E+00 0.72767476E+03</pdfrwt>
<pdfrwt beam="2">  1       -2 0.94132340E-01 0.72767476E+03</pdfrwt>
<totfact> 0.32136142E+01</totfact>
</mgrwt>
</event>
<event>
 4    1  0.2799069E-007  0.6774051E+03  0.7818608E-02  0.1010831E+00
         -2   -1    0    0    0  501 -0.00000000000E+00  0.00000000000E+00  0.80754692064E+03  0.80754692064E+03  0.25500000000E-02 0.  1.
          2   -1    0    0  501    0  0.00000000000E+00 -0.00000000000E+00 -0.16815466850E+04  0.16815466850E+04  0.25500000000E-02 0. -1.
    8880023    1    1    2    0    0 -0.63591362906E+02 -0.14499530593E+03  0.65621200875E+03  0.94312878594E+03  0.65864270000E+03 0.  1.
    8880022    1    1    2    0    0  0.63591362906E+02  0.14499530593E+03 -0.15302117731E+04  0.15459648197E+04  0.15294330000E+03 0.  0.
<mgrwt>
<rscale>  0 0.51145607E+03</rscale>
<asrwt>0</asrwt>
<pdfrwt beam="1">  1        2 0.25869949E+00 0.67740513E+03</pdfrwt>
<pdfrwt beam="2">  1       -2 0.12423799E+00 0.67740513E+03</pdfrwt>
<totfact> 0.50915462E+00</totfact>
</mgrwt>
</event>
<event>
 4    1  0.2799069E-007  0.1019720E+04  0.7818608E-02  0.9356200E-01
         -2   -1    0    0    0  501 -0.00000000000E+00  0.00000000000E+00  0.87413397836E+03  0.87413397837E+03  0.25500000000E-02 0.  1.
          2   -1    0    0  501    0  0.00000000000E+00 -0.00000000000E+00 -0.13075851167E+04  0.13075851167E+04  0.25500000000E-02 0. -1.
    8880023    1    1    2    0    0  0.76580129212E+03 -0.13988397197E+03  0.33883790043E+03  0.10745419832E+04  0.65864270000E+03 0.  1.
    8880022    1    1    2    0    0 -0.76580129212E+03  0.13988397197E+03 -0.77228903876E+03  0.11071771119E+04  0.15294330000E+03 0.  0.
<mgrwt>
<rscale>  0 0.95769573E+03</rscale>
<asrwt>0</asrwt>
<pdfrwt beam="1">  1        2 0.20116694E+00 0.10197202E+04</pdfrwt>
<pdfrwt beam="2">  1       -2 0.13448215E+00 0.10197202E+04</pdfrwt>
<totfact> 0.64557455E+00</totfact>
</mgrwt>
</event>
<event>
 4    1  0.2799069E-007  0.9784248E+03  0.7818608E-02  0.9410345E-01
          2   -1    0    0  501    0  0.00000000000E+00  0.00000000000E+00  0.40194565841E+04  0.40194565841E+04  0.25500000000E-02 0. -1.
         -2   -1    0    0    0  501 -0.00000000000E+00 -0.00000000000E+00 -0.19779947142E+03  0.19779947144E+03  0.25500000000E-02 0.  1.
    8880023    1    1    2    0    0 -0.65182632170E+03 -0.31404999921E+03  0.15968952007E+04  0.18728025640E+04  0.65864270000E+03 0.  0.
    8880022    1    1    2    0    0  0.65182632170E+03  0.31404999921E+03  0.22247619120E+04  0.23444534915E+04  0.15294330000E+03 0.  0.
<mgrwt>
<rscale>  0 0.91229177E+03</rscale>
<asrwt>0</asrwt>
<pdfrwt beam="1">  1        2 0.61837785E+00 0.97842484E+03</pdfrwt>
<pdfrwt beam="2">  1       -2 0.30430692E-01 0.97842484E+03</pdfrwt>
<totfact> 0.34866845E+00</totfact>
</mgrwt>
</event>
<event>
 4    1  0.2799069E-007  0.7465299E+03  0.7818608E-02  0.9841318E-01
         -2   -1    0    0    0  501 -0.00000000000E+00  0.00000000000E+00  0.16960122928E+03  0.16960122930E+03  0.25500000000E-02 0.  1.
          2   -1    0    0  501    0  0.00000000000E+00 -0.00000000000E+00 -0.29037514857E+04  0.29037514858E+04  0.25500000000E-02 0. -1.
    8880023    1    1    2    0    0 -0.21056567035E+03 -0.28135174524E+03 -0.77120639820E+03  0.10733434776E+04  0.65864270000E+03 0.  1.
    8880022    1    1    2    0    0  0.21056567035E+03  0.28135174524E+03 -0.19629438583E+04  0.20000092374E+04  0.15294330000E+03 0.  0.
<mgrwt>
<rscale>  0 0.63191525E+03</rscale>
<asrwt>0</asrwt>
<pdfrwt beam="1">  1        2 0.44673096E+00 0.74652991E+03</pdfrwt>
<pdfrwt beam="2">  1       -2 0.26092499E-01 0.74652991E+03</pdfrwt>
<totfact> 0.27965741E+01</totfact>
</mgrwt>
</event>
<event>
 4    1  0.2799069E-007  0.8491975E+03  0.7818608E-02  0.9613076E-01
          2   -1    0    0  501    0  0.00000000000E+00  0.00000000000E+00  0.17191629911E+04  0.17191629911E+04  0.25500000000E-02 0. -1.
         -2   -1    0    0    0  501 -0.00000000000E+00 -0.00000000000E+00 -0.14572569536E+04  0.14572569536E+04  0.25500000000E-02 0.  1.
    8880023    1    1    2    0    0  0.26225112729E+03  0.46749380397E+03  0.15530672591E+04  0.17700718144E+04  0.65864270000E+03 0. -1.
    8880022    1    1    2    0    0 -0.26225112729E+03 -0.46749380397E+03 -0.12911612216E+04  0.14063481303E+04  0.15294330000E+03 0.  0.
<mgrwt>
<rscale>  0 0.76436761E+03</rscale>
<asrwt>0</asrwt>
<pdfrwt beam="1">  1        2 0.26448661E+00 0.84919745E+03</pdfrwt>
<pdfrwt beam="2">  1       -2 0.22419338E+00 0.84919745E+03</pdfrwt>
<totfact> 0.90932918E-01</totfact>
</mgrwt>
</event>
<event>
 4    1  0.2799069E-007  0.1147055E+04  0.7818608E-02  0.9210390E-01
          2   -1    0    0  501    0  0.00000000000E+00  0.00000000000E+00  0.20756593611E+04  0.20756593611E+04  0.25500000000E-02 0. -1.
         -2   -1    0    0    0  501 -0.00000000000E+00 -0.00000000000E+00 -0.65190293746E+03  0.65190293747E+03  0.25500000000E-02 0.  1.
    8880023    1    1    2    0    0 -0.85500303114E+03 -0.38845262831E+03  0.17921130599E+03  0.11609705105E+04  0.65864270000E+03 0.  0.
    8880022    1    1    2    0    0  0.85500303114E+03  0.38845262831E+03  0.12445451176E+04  0.15665917881E+04  0.15294330000E+03 0.  0.
<mgrwt>
<rscale>  0 0.10946830E+04</rscale>
<asrwt>0</asrwt>
<pdfrwt beam="1">  1        2 0.31933221E+00 0.11470553E+04</pdfrwt>
<pdfrwt beam="2">  1       -2 0.10029276E+00 0.11470553E+04</pdfrwt>
<totfact> 0.48976926E+00</totfact>
</mgrwt>
</event>
<event>
 4    1  0.2799069E-007  0.6670284E+03  0.7818608E-02  0.1017889E+00
         -2   -1    0    0    0  501 -0.00000000000E+00  0.00000000000E+00  0.42386206590E+03  0.42386206591E+03  0.25500000000E-02 0.  1.
          2   -1    0    0  501    0  0.00000000000E+00 -0.00000000000E+00 -0.13164082707E+04  0.13164082707E+04  0.25500000000E-02 0. -1.
    8880023    1    1    2    0    0 -0.10363983446E+03  0.19376193590E+02  0.14801844173E+03  0.68325421149E+03  0.65864270000E+03 0.  1.
    8880022    1    1    2    0    0  0.10363983446E+03 -0.19376193590E+02 -0.10405646466E+04  0.10570161252E+04  0.15294330000E+03 0.  0.
<mgrwt>
<rscale>  0 0.48456126E+03</rscale>
<asrwt>0</asrwt>
<pdfrwt beam="1">  1        2 0.20252435E+00 0.66702838E+03</pdfrwt>
<pdfrwt beam="2">  1       -2 0.65209549E-01 0.66702838E+03</pdfrwt>
<totfact> 0.36094639E+01</totfact>
</mgrwt>
</event>
<event>
 4    1  0.2799069E-007  0.7536708E+03  0.7818608E-02  0.9821778E-01
          2   -1    0    0  501    0  0.00000000000E+00  0.00000000000E+00  0.11795796989E+04  0.11795796989E+04  0.25500000000E-02 0. -1.
         -2   -1    0    0    0  501 -0.00000000000E+00 -0.00000000000E+00 -0.28381800855E+03  0.28381800856E+03  0.25500000000E-02 0.  1.
    8880023    1    1    2    0    0 -0.33753257233E+03 -0.14241192613E+03  0.65911938633E+03  0.10012282286E+04  0.65864270000E+03 0.  0.
    8880022    1    1    2    0    0  0.33753257233E+03  0.14241192613E+03  0.23664230398E+03  0.46216947880E+03  0.15294330000E+03 0.  0.
<mgrwt>
<rscale>  0 0.64206816E+03</rscale>
<asrwt>0</asrwt>
<pdfrwt beam="1">  1        2 0.18147380E+00 0.75367075E+03</pdfrwt>
<pdfrwt beam="2">  1       -2 0.43664309E-01 0.75367075E+03</pdfrwt>
<totfact> 0.98329921E+01</totfact>
</mgrwt>
</event>
<event>
 4    1  0.2799069E-007  0.8646714E+03  0.7818608E-02  0.9585307E-01
         -2   -1    0    0    0  501 -0.00000000000E+00  0.00000000000E+00  0.12370495605E+04  0.12370495605E+04  0.25500000000E-02 0.  1.
          2   -1    0    0  501    0  0.00000000000E+00 -0.00000000000E+00 -0.10118318071E+04  0.10118318071E+04  0.25500000000E-02 0. -1.
    8880023    1    1    2    0    0 -0.41231764730E+03 -0.37926323474E+03  0.97326212464E+03  0.13018816432E+04  0.65864270000E+03 0.  1.
    8880022    1    1    2    0    0  0.41231764730E+03  0.37926323474E+03 -0.74804437130E+03  0.94699972437E+03  0.15294330000E+03 0.  0.
<mgrwt>
<rscale>  0 0.78276321E+03</rscale>
<asrwt>0</asrwt>
<pdfrwt beam="1">  1        2 0.15566643E+00 0.86467141E+03</pdfrwt>
<pdfrwt beam="2">  1       -2 0.19031532E+00 0.86467141E+03</pdfrwt>
<totfact> 0.38456183E+00</totfact>
</mgrwt>
</event>
<event>
 4    1  0.2799069E-007  0.8375307E+03  0.7818608E-02  0.9634854E-01
          2   -1    0    0  501    0  0.00000000000E+00  0.00000000000E+00  0.57590147543E+03  0.57590147543E+03  0.25500000000E-02 0. -1.
         -2   -1    0    0    0  501 -0.00000000000E+00 -0.00000000000E+00 -0.95280590160E+03  0.95280590161E+03  0.25500000000E-02 0.  1.
    8880023    1    1    2    0    0 -0.51720435822E+03  0.12130809068E+02  0.52529806614E+02  0.83917643648E+03  0.65864270000E+03 0. -1.
    8880022    1    1    2    0    0  0.51720435822E+03 -0.12130809068E+02 -0.42943423279E+03  0.68953094056E+03  0.15294330000E+03 0.  0.
<mgrwt>
<rscale>  0 0.75031648E+03</rscale>
<asrwt>0</asrwt>
<pdfrwt beam="1">  1        2 0.88600227E-01 0.83753072E+03</pdfrwt>
<pdfrwt beam="2">  1       -2 0.14658552E+00 0.83753072E+03</pdfrwt>
<totfact> 0.16696147E+01</totfact>
</mgrwt>
</event>
<event>
 4    1  0.2799069E-007  0.9731800E+03  0.7818608E-02  0.9417519E-01
          2   -1    0    0  501    0  0.00000000000E+00  0.00000000000E+00  0.79633425253E+03  0.79633425253E+03  0.25500000000E-02 0. -1.
         -2   -1    0    0    0  501 -0.00000000000E+00 -0.00000000000E+00 -0.12510033278E+04  0.12510033278E+04  0.25500000000E-02 0.  1.
    8880023    1    1    2    0    0  0.33827459693E+03  0.63153726070E+03 -0.77862897280E+03  0.12463315362E+04  0.65864270000E+03 0.  0.
    8880022    1    1    2    0    0 -0.33827459693E+03 -0.63153726070E+03  0.32395989750E+03  0.80100604416E+03  0.15294330000E+03 0.  0.
<mgrwt>
<rscale>  0 0.90647814E+03</rscale>
<asrwt>0</asrwt>
<pdfrwt beam="1">  1        2 0.12251296E+00 0.97317995E+03</pdfrwt>
<pdfrwt beam="2">  1       -2 0.19246205E+00 0.97317995E+03</pdfrwt>
<totfact> 0.51465011E+00</totfact>
</mgrwt>
</event>
<event>
 4    1  0.2799069E-007  0.7309195E+03  0.7818608E-02  0.9887234E-01
         -2   -1    0    0    0  501 -0.00000000000E+00  0.00000000000E+00  0.35454879287E+03  0.35454879288E+03  0.25500000000E-02 0.  1.
          2   -1    0    0  501    0  0.00000000000E+00 -0.00000000000E+00 -0.13466222935E+04  0.13466222935E+04  0.25500000000E-02 0. -1.
    8880023    1    1    2    0    0  0.30634015900E+03  0.81171536433E+02 -0.94398615913E+02  0.73699010597E+03  0.65864270000E+03 0.  1.
    8880022    1    1    2    0    0 -0.30634015900E+03 -0.81171536433E+02 -0.89767488470E+03  0.96418098041E+03  0.15294330000E+03 0.  0.
<mgrwt>
<rscale>  0 0.60883989E+03</rscale>
<asrwt>0</asrwt>
<pdfrwt beam="1">  1        2 0.20717266E+00 0.73091950E+03</pdfrwt>
<pdfrwt beam="2">  1       -2 0.54545969E-01 0.73091950E+03</pdfrwt>
<totfact> 0.50184384E+01</totfact>
</mgrwt>
</event>
<event>
 4    1  0.2799069E-007  0.6800749E+03  0.7818608E-02  0.1009281E+00
          2   -1    0    0  501    0  0.00000000000E+00  0.00000000000E+00  0.83673008151E+03  0.83673008151E+03  0.25500000000E-02 0. -1.
         -2   -1    0    0    0  501 -0.00000000000E+00 -0.00000000000E+00 -0.60162946518E+03  0.60162946518E+03  0.25500000000E-02 0.  1.
    8880023    1    1    2    0    0 -0.16922240028E+03 -0.74437564127E+01 -0.38227616703E+03  0.78015184702E+03  0.65864270000E+03 0.  1.
    8880022    1    1    2    0    0  0.16922240028E+03  0.74437564127E+01  0.61737678336E+03  0.65820769967E+03  0.15294330000E+03 0.  0.
<mgrwt>
<rscale>  0 0.51761260E+03</rscale>
<asrwt>0</asrwt>
<pdfrwt beam="1">  1        2 0.12872771E+00 0.68007488E+03</pdfrwt>
<pdfrwt beam="2">  1       -2 0.92558379E-01 0.68007488E+03</pdfrwt>
<totfact> 0.32789945E+01</totfact>
</mgrwt>
</event>
<event>
 4    1  0.2799069E-007  0.7198493E+03  0.7818608E-02  0.9923096E-01
         -2   -1    0    0    0  501 -0.00000000000E+00  0.00000000000E+00  0.34506547003E+03  0.34506547004E+03  0.25500000000E-02 0.  1.
          2   -1    0    0  501    0  0.00000000000E+00 -0.00000000000E+00 -0.12609178250E+04  0.12609178250E+04  0.25500000000E-02 0. -1.
    8880023    1    1    2    0    0  0.37908611371E+02 -0.28798566830E+03 -0.10025154847E+03  0.72679666152E+03  0.65864270000E+03 0.  1.
    8880022    1    1    2    0    0 -0.37908611371E+02  0.28798566830E+03 -0.81560080647E+03  0.87918663348E+03  0.15294330000E+03 0.  0.
<mgrwt>
<rscale>  0 0.59154888E+03</rscale>
<asrwt>0</asrwt>
<pdfrwt beam="1">  1        2 0.19398736E+00 0.71984930E+03</pdfrwt>
<pdfrwt beam="2">  1       -2 0.53086996E-01 0.71984930E+03</pdfrwt>
<totfact> 0.59524614E+01</totfact>
</mgrwt>
</event>
<event>
 4    1  0.2799069E-007  0.8611251E+03  0.7818608E-02  0.9591565E-01
         -2   -1    0    0    0  501 -0.00000000000E+00  0.00000000000E+00  0.10224016929E+04  0.10224016929E+04  0.25500000000E-02 0.  1.
          2   -1    0    0  501    0  0.00000000000E+00 -0.00000000000E+00 -0.14193428551E+04  0.14193428551E+04  0.25500000000E-02 0. -1.
    8880023    1    1    2    0    0 -0.21173096588E+03 -0.51273399935E+03  0.76068454511E+03  0.11489897038E+04  0.65864270000E+03 0.  1.
    8880022    1    1    2    0    0  0.21173096588E+03  0.51273399935E+03 -0.11576257073E+04  0.12927548442E+04  0.15294330000E+03 0.  0.
<mgrwt>
<rscale>  0 0.77856968E+03</rscale>
<asrwt>0</asrwt>
<pdfrwt beam="1">  1        2 0.21836044E+00 0.86112506E+03</pdfrwt>
<pdfrwt beam="2">  1       -2 0.15729257E+00 0.86112506E+03</pdfrwt>
<totfact> 0.37566187E+00</totfact>
</mgrwt>
</event>
<event>
 4    1  0.2799069E-007  0.1100485E+04  0.7818608E-02  0.9260516E-01
          2   -1    0    0  501    0  0.00000000000E+00  0.00000000000E+00  0.18755508526E+04  0.18755508526E+04  0.25500000000E-02 0. -1.
         -2   -1    0    0    0  501 -0.00000000000E+00 -0.00000000000E+00 -0.88030047783E+03  0.88030047783E+03  0.25500000000E-02 0.  1.
    8880023    1    1    2    0    0 -0.84673401791E+03  0.24555763173E+03 -0.33706595921E+03  0.11509477463E+04  0.65864270000E+03 0.  0.
    8880022    1    1    2    0    0  0.84673401791E+03 -0.24555763173E+03  0.13323163340E+04  0.16049035841E+04  0.15294330000E+03 0. -1.
<mgrwt>
<rscale>  0 0.10450050E+04</rscale>
<asrwt>0</asrwt>
<pdfrwt beam="1">  1        2 0.28854629E+00 0.11004850E+04</pdfrwt>
<pdfrwt beam="2">  1       -2 0.13543084E+00 0.11004850E+04</pdfrwt>
<totfact> 0.30187011E+00</totfact>
</mgrwt>
</event>
<event>
 4    1  0.2799069E-007  0.2001206E+04  0.7818608E-02  0.8618712E-01
          2   -1    0    0  501    0  0.00000000000E+00  0.00000000000E+00  0.25273706687E+04  0.25273706687E+04  0.25500000000E-02 0. -1.
         -2   -1    0    0    0  501 -0.00000000000E+00 -0.00000000000E+00 -0.23813704470E+04  0.23813704470E+04  0.25500000000E-02 0.  1.
    8880023    1    1    2    0    0  0.17600699737E+04  0.68787298678E+03  0.15651184545E+04  0.25405553608E+04  0.65864270000E+03 0.  0.
    8880022    1    1    2    0    0 -0.17600699737E+04 -0.68787298678E+03 -0.14191182327E+04  0.23681857549E+04  0.15294330000E+03 0.  0.
<mgrwt>
<rscale>  0 0.19743415E+04</rscale>
<asrwt>0</asrwt>
<pdfrwt beam="1">  1        2 0.38882625E+00 0.20012061E+04</pdfrwt>
<pdfrwt beam="2">  1       -2 0.36636469E+00 0.20012061E+04</pdfrwt>
<totfact> 0.36302854E-02</totfact>
</mgrwt>
</event>
<event>
 4    1  0.2799069E-007  0.1274495E+04  0.7818608E-02  0.9087904E-01
         -2   -1    0    0    0  501 -0.00000000000E+00  0.00000000000E+00  0.11535697946E+04  0.11535697946E+04  0.25500000000E-02 0.  1.
          2   -1    0    0  501    0  0.00000000000E+00 -0.00000000000E+00 -0.19547992886E+04  0.19547992886E+04  0.25500000000E-02 0. -1.
    8880023    1    1    2    0    0 -0.78347684835E+03  0.75940150379E+03  0.53003047685E+03  0.13803148657E+04  0.65864270000E+03 0.  0.
    8880022    1    1    2    0    0  0.78347684835E+03 -0.75940150379E+03 -0.13312599708E+04  0.17280542176E+04  0.15294330000E+03 0.  0.
<mgrwt>
<rscale>  0 0.12289302E+04</rscale>
<asrwt>0</asrwt>
<pdfrwt beam="1">  1        2 0.30073835E+00 0.12744947E+04</pdfrwt>
<pdfrwt beam="2">  1       -2 0.17747228E+00 0.12744947E+04</pdfrwt>
<totfact> 0.12874937E+00</totfact>
</mgrwt>
</event>
<event>
 4    1  0.2799069E-007  0.9573212E+03  0.7818608E-02  0.9439658E-01
          2   -1    0    0  501    0  0.00000000000E+00  0.00000000000E+00  0.73444344826E+03  0.73444344826E+03  0.25500000000E-02 0. -1.
         -2   -1    0    0    0  501 -0.00000000000E+00 -0.00000000000E+00 -0.12774544606E+04  0.12774544606E+04  0.25500000000E-02 0.  1.
    8880023    1    1    2    0    0 -0.36318448612E+03  0.59224210710E+03 -0.80804914572E+03  0.12527598782E+04  0.65864270000E+03 0.  0.
    8880022    1    1    2    0    0  0.36318448612E+03 -0.59224210710E+03  0.26503813338E+03  0.75913803062E+03  0.15294330000E+03 0.  0.
<mgrwt>
<rscale>  0 0.88882638E+03</rscale>
<asrwt>0</asrwt>
<pdfrwt beam="1">  1        2 0.11299130E+00 0.95732121E+03</pdfrwt>
<pdfrwt beam="2">  1       -2 0.19653146E+00 0.95732121E+03</pdfrwt>
<totfact> 0.53869581E+00</totfact>
</mgrwt>
</event>
<event>
 4    1  0.2799069E-007  0.6593495E+03  0.7818608E-02  0.1024833E+00
         -2   -1    0    0    0  501 -0.00000000000E+00  0.00000000000E+00  0.11197441536E+04  0.11197441536E+04  0.25500000000E-02 0.  1.
          2   -1    0    0  501    0  0.00000000000E+00 -0.00000000000E+00 -0.12321378260E+04  0.12321378260E+04  0.25500000000E-02 0. -1.
    8880023    1    1    2    0    0 -0.21834741861E+02  0.21324887314E+02  0.10168552458E+04  0.12119143138E+04  0.65864270000E+03 0.  1.
    8880022    1    1    2    0    0  0.21834741861E+02 -0.21324887314E+02 -0.11292489182E+04  0.11399676658E+04  0.15294330000E+03 0.  0.
<mgrwt>
<rscale>  0 0.45982147E+03</rscale>
<asrwt>0</asrwt>
<pdfrwt beam="1">  1        2 0.18955967E+00 0.65934946E+03</pdfrwt>
<pdfrwt beam="2">  1       -2 0.17226833E+00 0.65934946E+03</pdfrwt>
<totfact> 0.38670037E+00</totfact>
</mgrwt>
</event>
<event>
 4    1  0.2799069E-007  0.8261969E+03  0.7818608E-02  0.9656778E-01
          2   -1    0    0  501    0  0.00000000000E+00  0.00000000000E+00  0.23439749153E+04  0.23439749153E+04  0.25500000000E-02 0. -1.
         -2   -1    0    0    0  501 -0.00000000000E+00 -0.00000000000E+00 -0.24594174303E+03  0.24594174304E+03  0.25500000000E-02 0.  1.
    8880023    1    1    2    0    0 -0.49684421634E+03 -0.44010749477E+02  0.65146391872E+03  0.10521437948E+04  0.65864270000E+03 0.  0.
    8880022    1    1    2    0    0  0.49684421634E+03  0.44010749477E+02  0.14465692536E+04  0.15377728635E+04  0.15294330000E+03 0.  0.
<mgrwt>
<rscale>  0 0.73649576E+03</rscale>
<asrwt>0</asrwt>
<pdfrwt beam="1">  1        2 0.36061153E+00 0.82619691E+03</pdfrwt>
<pdfrwt beam="2">  1       -2 0.37837191E-01 0.82619691E+03</pdfrwt>
<totfact> 0.29041586E+01</totfact>
</mgrwt>
</event>
<event>
 4    1  0.2799069E-007  0.7291761E+03  0.7818608E-02  0.9892678E-01
         -2   -1    0    0    0  501 -0.00000000000E+00  0.00000000000E+00  0.43749627341E+03  0.43749627342E+03  0.25500000000E-02 0.  1.
          2   -1    0    0  501    0  0.00000000000E+00 -0.00000000000E+00 -0.12326648532E+04  0.12326648532E+04  0.25500000000E-02 0. -1.
    8880023    1    1    2    0    0 -0.10213387284E+03 -0.29572997618E+03  0.74873314883E+02  0.73301007247E+03  0.65864270000E+03 0.  1.
    8880022    1    1    2    0    0  0.10213387284E+03  0.29572997618E+03 -0.87004189463E+03  0.93715105411E+03  0.15294330000E+03 0.  0.
<mgrwt>
<rscale>  0 0.60617441E+03</rscale>
<asrwt>0</asrwt>
<pdfrwt beam="1">  1        2 0.18964074E+00 0.72917608E+03</pdfrwt>
<pdfrwt beam="2">  1       -2 0.67307120E-01 0.72917608E+03</pdfrwt>
<totfact> 0.37436299E+01</totfact>
</mgrwt>
</event>
<event>
 4    1  0.2799069E-007  0.1090862E+04  0.7818608E-02  0.9271299E-01
         -2   -1    0    0    0  501 -0.00000000000E+00  0.00000000000E+00  0.32709137218E+03  0.32709137219E+03  0.25500000000E-02 0.  1.
          2   -1    0    0  501    0  0.00000000000E+00 -0.00000000000E+00 -0.35566993883E+04  0.35566993883E+04  0.25500000000E-02 0. -1.
    8880023    1    1    2    0    0  0.24399714136E+03  0.83464670100E+03 -0.97733001822E+03  0.14646343883E+04  0.65864270000E+03 0.  0.
    8880022    1    1    2    0    0 -0.24399714136E+03 -0.83464670100E+03 -0.22522779979E+04  0.24191563723E+04  0.15294330000E+03 0.  0.
<mgrwt>
<rscale>  0 0.10346862E+04</rscale>
<asrwt>0</asrwt>
<pdfrwt beam="1">  1        2 0.54718450E+00 0.10908620E+04</pdfrwt>
<pdfrwt beam="2">  1       -2 0.50321752E-01 0.10908620E+04</pdfrwt>
<totfact> 0.28372388E+00</totfact>
</mgrwt>
</event>
<event>
 4    1  0.2799069E-007  0.1060437E+04  0.7818608E-02  0.9306439E-01
         -2   -1    0    0    0  501 -0.00000000000E+00  0.00000000000E+00  0.42666665917E+03  0.42666665917E+03  0.25500000000E-02 0.  1.
          2   -1    0    0  501    0  0.00000000000E+00 -0.00000000000E+00 -0.30285707729E+04  0.30285707729E+04  0.25500000000E-02 0. -1.
    8880023    1    1    2    0    0 -0.55481079859E+03 -0.61879010031E+03 -0.46613177498E+03  0.11583631764E+04  0.65864270000E+03 0.  0.
    8880022    1    1    2    0    0  0.55481079859E+03  0.61879010031E+03 -0.21357723387E+04  0.22968742557E+04  0.15294330000E+03 0.  0.
<mgrwt>
<rscale>  0 0.10019224E+04</rscale>
<asrwt>0</asrwt>
<pdfrwt beam="1">  1        2 0.46593395E+00 0.10604369E+04</pdfrwt>
<pdfrwt beam="2">  1       -2 0.65641026E-01 0.10604369E+04</pdfrwt>
<totfact> 0.36217213E+00</totfact>
</mgrwt>
</event>
