<event>
 4    1  0.2502834E-007  0.8169128E+03  0.7818608E-02  0.9675354E-01
          2   -1    0    0  501    0  0.00000000000E+00  0.00000000000E+00  0.11201467913E+04  0.11201467913E+04  0.25500000000E-02 0. -1.
         -2   -1    0    0    0  501 -0.00000000000E+00 -0.00000000000E+00 -0.72712738635E+03  0.72712738635E+03  0.25500000000E-02 0.  1.
    8880023    1    1    2    0    0  0.47912519412E+03  0.63051139178E+02 -0.39727854281E+03  0.90839245078E+03  0.65864270000E+03 0.  0.
    8880022    1    1    2    0    0 -0.47912519412E+03 -0.63051139178E+02  0.79029794771E+03  0.93888172683E+03  0.15294330000E+03 0.  0.
<mgrwt>
<rscale>  0 0.72503377E+03</rscale>
<asrwt>0</asrwt>
<pdfrwt beam="1">  1        2 0.17233027E+00 0.81691285E+03</pdfrwt>
<pdfrwt beam="2">  1       -2 0.11186575E+00 0.81691285E+03</pdfrwt>
<totfact> 0.13498613E+01</totfact>
</mgrwt>
</event>
<event>
 4    1  0.2502834E-007  0.6878751E+03  0.7818608E-02  0.1005179E+00
         -2   -1    0    0    0  501 -0.00000000000E+00  0.00000000000E+00  0.33632760859E+03  0.33632760860E+03  0.25500000000E-02 0.  1.
          2   -1    0    0  501    0  0.00000000000E+00 -0.00000000000E+00 -0.10164055964E+04  0.10164055964E+04  0.25500000000E-02 0. -1.
    8880023    1    1    2    0    0  0.71552761292E+02  0.18504645546E+03 -0.67820910170E+02  0.69121043861E+03  0.65864270000E+03 0.  1.
    8880022    1    1    2    0    0 -0.71552761292E+02 -0.18504645546E+03 -0.61225707763E+03  0.66152276639E+03  0.15294330000E+03 0.  0.
<mgrwt>
<rscale>  0 0.53436385E+03</rscale>
<asrwt>0</asrwt>
<pdfrwt beam="1">  1        2 0.15637009E+00 0.68787513E+03</pdfrwt>
<pdfrwt beam="2">  1       -2 0.51742710E-01 0.68787513E+03</pdfrwt>
<totfact> 0.88391338E+01</totfact>
</mgrwt>
</event>
<event>
 4    1  0.2502834E-007  0.1016491E+04  0.7818608E-02  0.9360293E-01
          2   -1    0    0  501    0  0.00000000000E+00  0.00000000000E+00  0.14425444234E+04  0.14425444234E+04  0.25500000000E-02 0. -1.
         -2   -1    0    0    0  501 -0.00000000000E+00 -0.00000000000E+00 -0.78259198416E+03  0.78259198417E+03  0.25500000000E-02 0.  1.
    8880023    1    1    2    0    0  0.73208177439E+03 -0.25199348298E+03 -0.22323368736E+03  0.10407151028E+04  0.65864270000E+03 0.  0.
    8880022    1    1    2    0    0 -0.73208177439E+03  0.25199348298E+03  0.88318612661E+03  0.11844213047E+04  0.15294330000E+03 0.  0.
<mgrwt>
<rscale>  0 0.95416720E+03</rscale>
<asrwt>0</asrwt>
<pdfrwt beam="1">  1        2 0.22192991E+00 0.10164913E+04</pdfrwt>
<pdfrwt beam="2">  1       -2 0.12039877E+00 0.10164913E+04</pdfrwt>
<totfact> 0.71479110E+00</totfact>
</mgrwt>
</event>
<event>
 4    1  0.2502834E-007  0.7133222E+03  0.7818608E-02  0.9945865E-01
          2   -1    0    0  501    0  0.00000000000E+00  0.00000000000E+00  0.66199640760E+03  0.66199640761E+03  0.25500000000E-02 0. -1.
         -2   -1    0    0    0  501 -0.00000000000E+00 -0.00000000000E+00 -0.69705524186E+03  0.69705524186E+03  0.25500000000E-02 0.  1.
    8880023    1    1    2    0    0  0.20100582070E+03  0.18605109668E+03 -0.44659015920E+03  0.84158857353E+03  0.65864270000E+03 0.  1.
    8880022    1    1    2    0    0 -0.20100582070E+03 -0.18605109668E+03  0.41153132495E+03  0.51746307594E+03  0.15294330000E+03 0.  0.
<mgrwt>
<rscale>  0 0.58089041E+03</rscale>
<asrwt>0</asrwt>
<pdfrwt beam="1">  1        2 0.10184560E+00 0.71332220E+03</pdfrwt>
<pdfrwt beam="2">  1       -2 0.10723927E+00 0.71332220E+03</pdfrwt>
<totfact> 0.31208241E+01</totfact>
</mgrwt>
</event>
<event>
 4    1  0.2502834E-007  0.1088758E+04  0.7818608E-02  0.9273678E-01
          2   -1    0    0  501    0  0.00000000000E+00  0.00000000000E+00  0.76901670860E+03  0.76901670861E+03  0.25500000000E-02 0. -1.
         -2   -1    0    0    0  501 -0.00000000000E+00 -0.00000000000E+00 -0.12612274496E+04  0.12612274496E+04  0.25500000000E-02 0.  1.
    8880023    1    1    2    0    0  0.25604051742E+03 -0.82826694787E+03 -0.29686865969E+03  0.11285052463E+04  0.65864270000E+03 0.  0.
    8880022    1    1    2    0    0 -0.25604051742E+03  0.82826694787E+03 -0.19534208127E+03  0.90173891190E+03  0.15294330000E+03 0.  1.
<mgrwt>
<rscale>  0 0.10324269E+04</rscale>
<asrwt>0</asrwt>
<pdfrwt beam="1">  1        2 0.11831026E+00 0.10887576E+04</pdfrwt>
<pdfrwt beam="2">  1       -2 0.19403499E+00 0.10887576E+04</pdfrwt>
<totfact> 0.52052810E+00</totfact>
</mgrwt>
</event>
<event>
 4    1  0.2502834E-007  0.8265801E+03  0.7818608E-02  0.9656024E-01
          2   -1    0    0  501    0  0.00000000000E+00  0.00000000000E+00  0.22278832222E+04  0.22278832222E+04  0.25500000000E-02 0. -1.
         -2   -1    0    0    0  501 -0.00000000000E+00 -0.00000000000E+00 -0.28510627542E+03  0.28510627543E+03  0.25500000000E-02 0.  1.
    8880023    1    1    2    0    0 -0.18527584795E+01  0.49942062406E+03  0.47117174213E+03  0.95143965089E+03  0.65864270000E+03 0.  1.
    8880022    1    1    2    0    0  0.18527584795E+01 -0.49942062406E+03  0.14716052046E+04  0.15615498467E+04  0.15294330000E+03 0. -1.
<mgrwt>
<rscale>  0 0.73696597E+03</rscale>
<asrwt>0</asrwt>
<pdfrwt beam="1">  1        2 0.34275125E+00 0.82658006E+03</pdfrwt>
<pdfrwt beam="2">  1       -2 0.43862506E-01 0.82658006E+03</pdfrwt>
<totfact> 0.25225168E+01</totfact>
</mgrwt>
</event>
<event>
 4    1  0.2502834E-007  0.9660862E+03  0.7818608E-02  0.9427338E-01
          2   -1    0    0  501    0  0.00000000000E+00  0.00000000000E+00  0.22654713954E+04  0.22654713954E+04  0.25500000000E-02 0. -1.
         -2   -1    0    0    0  501 -0.00000000000E+00 -0.00000000000E+00 -0.42098989735E+03  0.42098989736E+03  0.25500000000E-02 0.  1.
    8880023    1    1    2    0    0  0.35945544406E+03 -0.60852624533E+03  0.35233814454E+03  0.10283310663E+04  0.65864270000E+03 0. -1.
    8880022    1    1    2    0    0 -0.35945544406E+03  0.60852624533E+03  0.14921433536E+04  0.16581302265E+04  0.15294330000E+03 0.  0.
<mgrwt>
<rscale>  0 0.89859640E+03</rscale>
<asrwt>0</asrwt>
<pdfrwt beam="1">  1        2 0.34853406E+00 0.96608624E+03</pdfrwt>
<pdfrwt beam="2">  1       -2 0.64767676E-01 0.96608624E+03</pdfrwt>
<totfact> 0.10552523E+01</totfact>
</mgrwt>
</event>
<event>
 4    1  0.2502834E-007  0.2954509E+04  0.7818608E-02  0.8262019E-01
         -2   -1    0    0    0  501 -0.00000000000E+00  0.00000000000E+00  0.36211018151E+04  0.36211018151E+04  0.25500000000E-02 0.  1.
          2   -1    0    0  501    0  0.00000000000E+00 -0.00000000000E+00 -0.43913700597E+04  0.43913700597E+04  0.25500000000E-02 0. -1.
    8880023    1    1    2    0    0  0.30899519649E+03  0.28635351728E+04  0.23413315030E+04  0.37697420509E+04  0.65864270000E+03 0.  0.
    8880022    1    1    2    0    0 -0.30899519649E+03 -0.28635351728E+04 -0.31115997476E+04  0.42427298240E+04  0.15294330000E+03 0.  0.
<mgrwt>
<rscale>  0 0.29367766E+04</rscale>
<asrwt>0</asrwt>
<pdfrwt beam="1">  1        2 0.67559539E+00 0.29545087E+04</pdfrwt>
<pdfrwt beam="2">  1       -2 0.55709259E+00 0.29545087E+04</pdfrwt>
<totfact> 0.94922593E-05</totfact>
</mgrwt>
</event>
<event>
 4    1  0.2502834E-007  0.1279963E+04  0.7818608E-02  0.9083059E-01
          2   -1    0    0  501    0  0.00000000000E+00  0.00000000000E+00  0.12450152161E+04  0.12450152161E+04  0.25500000000E-02 0. -1.
         -2   -1    0    0    0  501 -0.00000000000E+00 -0.00000000000E+00 -0.25316873068E+04  0.25316873068E+04  0.25500000000E-02 0.  1.
    8880023    1    1    2    0    0 -0.71588741109E+03  0.83186570594E+03  0.73156420873E+03  0.14742766823E+04  0.65864270000E+03 0.  0.
    8880022    1    1    2    0    0  0.71588741109E+03 -0.83186570594E+03 -0.20182362994E+04  0.23024258406E+04  0.15294330000E+03 0.  0.
<mgrwt>
<rscale>  0 0.12346472E+04</rscale>
<asrwt>0</asrwt>
<pdfrwt beam="1">  1        2 0.19154080E+00 0.12799631E+04</pdfrwt>
<pdfrwt beam="2">  1       -2 0.38949035E+00 0.12799631E+04</pdfrwt>
<totfact> 0.15050538E-01</totfact>
</mgrwt>
</event>
<event>
 4    1  0.2502834E-007  0.1110435E+04  0.7818608E-02  0.9249526E-01
          2   -1    0    0  501    0  0.00000000000E+00  0.00000000000E+00  0.31864895566E+04  0.31864895566E+04  0.25500000000E-02 0. -1.
         -2   -1    0    0    0  501 -0.00000000000E+00 -0.00000000000E+00 -0.37667047919E+03  0.37667047920E+03  0.25500000000E-02 0.  1.
    8880023    1    1    2    0    0  0.51569176500E+03 -0.73028567571E+03  0.83283799875E+03  0.13880506126E+04  0.65864270000E+03 0.  0.
    8880022    1    1    2    0    0 -0.51569176500E+03  0.73028567571E+03  0.19769810786E+04  0.21751094232E+04  0.15294330000E+03 0.  0.
<mgrwt>
<rscale>  0 0.10556537E+04</rscale>
<asrwt>0</asrwt>
<pdfrwt beam="1">  1        2 0.49022917E+00 0.11104348E+04</pdfrwt>
<pdfrwt beam="2">  1       -2 0.57949304E-01 0.11104348E+04</pdfrwt>
<totfact> 0.37318011E+00</totfact>
</mgrwt>
</event>
<event>
 4    1  0.2502834E-007  0.1196919E+04  0.7818608E-02  0.9160123E-01
         -2   -1    0    0    0  501 -0.00000000000E+00  0.00000000000E+00  0.22141846304E+04  0.22141846304E+04  0.25500000000E-02 0.  1.
          2   -1    0    0  501    0  0.00000000000E+00 -0.00000000000E+00 -0.58270725014E+03  0.58270725015E+03  0.25500000000E-02 0. -1.
    8880023    1    1    2    0    0 -0.91679101474E+03 -0.39786851082E+03  0.12086044560E+04  0.17009820851E+04  0.65864270000E+03 0.  0.
    8880022    1    1    2    0    0  0.91679101474E+03  0.39786851082E+03  0.42287292425E+03  0.10959097954E+04  0.15294330000E+03 0.  0.
<mgrwt>
<rscale>  0 0.11474675E+04</rscale>
<asrwt>0</asrwt>
<pdfrwt beam="1">  1        2 0.89647270E-01 0.11969191E+04</pdfrwt>
<pdfrwt beam="2">  1       -2 0.34064379E+00 0.11969191E+04</pdfrwt>
<totfact> 0.90478456E-01</totfact>
</mgrwt>
</event>
<event>
 4    1  0.2502834E-007  0.6781771E+03  0.7818608E-02  0.1010374E+00
         -2   -1    0    0    0  501 -0.00000000000E+00  0.00000000000E+00  0.89589970485E+03  0.89589970486E+03  0.25500000000E-02 0.  1.
          2   -1    0    0  501    0  0.00000000000E+00 -0.00000000000E+00 -0.94632876314E+03  0.94632876315E+03  0.25500000000E-02 0. -1.
    8880023    1    1    2    0    0  0.15458441457E+03 -0.47091820729E+02  0.75017616173E+03  0.10112806043E+04  0.65864270000E+03 0.  1.
    8880022    1    1    2    0    0 -0.15458441457E+03  0.47091820729E+02 -0.80060522002E+03  0.83094786367E+03  0.15294330000E+03 0.  0.
<mgrwt>
<rscale>  0 0.51326207E+03</rscale>
<asrwt>0</asrwt>
<pdfrwt beam="1">  1        2 0.14558904E+00 0.67817711E+03</pdfrwt>
<pdfrwt beam="2">  1       -2 0.13783072E+00 0.67817711E+03</pdfrwt>
<totfact> 0.10477189E+01</totfact>
</mgrwt>
</event>
<event>
 4    1  0.2502834E-007  0.7201210E+03  0.7818608E-02  0.9922177E-01
         -2   -1    0    0    0  501 -0.00000000000E+00  0.00000000000E+00  0.17772260894E+04  0.17772260894E+04  0.25500000000E-02 0.  1.
          2   -1    0    0  501    0  0.00000000000E+00 -0.00000000000E+00 -0.15586765402E+04  0.15586765402E+04  0.25500000000E-02 0. -1.
    8880023    1    1    2    0    0 -0.29105201063E+03 -0.72627524152E+01  0.16853155036E+04  0.18327199932E+04  0.65864270000E+03 0.  1.
    8880022    1    1    2    0    0  0.29105201063E+03  0.72627524152E+01 -0.14667659544E+04  0.15031826364E+04  0.15294330000E+03 0.  0.
<mgrwt>
<rscale>  0 0.59198440E+03</rscale>
<asrwt>0</asrwt>
<pdfrwt beam="1">  1        2 0.23979639E+00 0.72012098E+03</pdfrwt>
<pdfrwt beam="2">  1       -2 0.27341940E+00 0.72012098E+03</pdfrwt>
<totfact> 0.57381821E-01</totfact>
</mgrwt>
</event>
<event>
 4    1  0.2502834E-007  0.1802902E+04  0.7818608E-02  0.8720933E-01
         -2   -1    0    0    0  501 -0.00000000000E+00  0.00000000000E+00  0.25622618314E+04  0.25622618314E+04  0.25500000000E-02 0.  1.
          2   -1    0    0  501    0  0.00000000000E+00 -0.00000000000E+00 -0.20388861582E+04  0.20388861582E+04  0.25500000000E-02 0. -1.
    8880023    1    1    2    0    0  0.14070250568E+03 -0.16723783846E+04  0.17532716812E+04  0.25148396471E+04  0.65864270000E+03 0.  0.
    8880022    1    1    2    0    0 -0.14070250568E+03  0.16723783846E+04 -0.12298960080E+04  0.20863083425E+04  0.15294330000E+03 0.  0.
<mgrwt>
<rscale>  0 0.17727385E+04</rscale>
<asrwt>0</asrwt>
<pdfrwt beam="1">  1        2 0.31367479E+00 0.18029023E+04</pdfrwt>
<pdfrwt beam="2">  1       -2 0.39419413E+00 0.18029023E+04</pdfrwt>
<totfact> 0.46585215E-02</totfact>
</mgrwt>
</event>
<event>
 4    1  0.2502834E-007  0.6952662E+03  0.7818608E-02  0.1001744E+00
         -2   -1    0    0    0  501 -0.00000000000E+00  0.00000000000E+00  0.96462916776E+03  0.96462916776E+03  0.25500000000E-02 0.  1.
          2   -1    0    0  501    0  0.00000000000E+00 -0.00000000000E+00 -0.31080276290E+03  0.31080276291E+03  0.25500000000E-02 0. -1.
    8880023    1    1    2    0    0  0.11656980847E+03 -0.18972690740E+03  0.71621697974E+03  0.99817923639E+03  0.65864270000E+03 0.  0.
    8880022    1    1    2    0    0 -0.11656980847E+03  0.18972690740E+03 -0.62390574884E+02  0.27725269428E+03  0.15294330000E+03 0.  0.
<mgrwt>
<rscale>  0 0.54892268E+03</rscale>
<asrwt>0</asrwt>
<pdfrwt beam="1">  1        2 0.47815810E-01 0.69526615E+03</pdfrwt>
<pdfrwt beam="2">  1       -2 0.14840449E+00 0.69526615E+03</pdfrwt>
<totfact> 0.33043123E+01</totfact>
</mgrwt>
</event>
<event>
 4    1  0.2502834E-007  0.7422040E+03  0.7818608E-02  0.9853573E-01
         -2   -1    0    0    0  501 -0.00000000000E+00  0.00000000000E+00  0.29143446932E+03  0.29143446933E+03  0.25500000000E-02 0.  1.
          2   -1    0    0  501    0  0.00000000000E+00 -0.00000000000E+00 -0.18936900855E+04  0.18936900855E+04  0.25500000000E-02 0. -1.
    8880023    1    1    2    0    0 -0.17574238837E+03  0.29354920098E+03 -0.25198803348E+03  0.78381419721E+03  0.65864270000E+03 0.  1.
    8880022    1    1    2    0    0  0.17574238837E+03 -0.29354920098E+03 -0.13502675827E+04  0.14013103576E+04  0.15294330000E+03 0.  0.
<mgrwt>
<rscale>  0 0.62565074E+03</rscale>
<asrwt>0</asrwt>
<pdfrwt beam="1">  1        2 0.29133693E+00 0.74220397E+03</pdfrwt>
<pdfrwt beam="2">  1       -2 0.44836073E-01 0.74220397E+03</pdfrwt>
<totfact> 0.37213719E+01</totfact>
</mgrwt>
</event>
<event>
 4    1  0.2502834E-007  0.1004325E+04  0.7818608E-02  0.9375921E-01
         -2   -1    0    0    0  501 -0.00000000000E+00  0.00000000000E+00  0.56065755941E+03  0.56065755941E+03  0.25500000000E-02 0.  1.
          2   -1    0    0  501    0  0.00000000000E+00 -0.00000000000E+00 -0.22846169619E+04  0.22846169619E+04  0.25500000000E-02 0. -1.
    8880023    1    1    2    0    0 -0.52024002769E+03 -0.55155115566E+03 -0.55037808153E+02  0.10058318599E+04  0.65864270000E+03 0.  1.
    8880022    1    1    2    0    0  0.52024002769E+03  0.55155115566E+03 -0.16689215943E+04  0.18394426614E+04  0.15294330000E+03 0.  0.
<mgrwt>
<rscale>  0 0.94084054E+03</rscale>
<asrwt>0</asrwt>
<pdfrwt beam="1">  1        2 0.35147953E+00 0.10043249E+04</pdfrwt>
<pdfrwt beam="2">  1       -2 0.86255010E-01 0.10043249E+04</pdfrwt>
<totfact> 0.54187909E+00</totfact>
</mgrwt>
</event>
<event>
 4    1  0.2502834E-007  0.1012585E+04  0.7818608E-02  0.9365275E-01
         -2   -1    0    0    0  501 -0.00000000000E+00  0.00000000000E+00  0.44911894188E+03  0.44911894189E+03  0.25500000000E-02 0.  1.
          2   -1    0    0  501    0  0.00000000000E+00 -0.00000000000E+00 -0.20065790648E+04  0.20065790648E+04  0.25500000000E-02 0. -1.
    8880023    1    1    2    0    0 -0.60439792554E+03  0.47562643743E+03 -0.47347186385E+03  0.11178117787E+04  0.65864270000E+03 0.  0.
    8880022    1    1    2    0    0  0.60439792554E+03 -0.47562643743E+03 -0.10839882591E+04  0.13378862281E+04  0.15294330000E+03 0.  0.
<mgrwt>
<rscale>  0 0.94989335E+03</rscale>
<asrwt>0</asrwt>
<pdfrwt beam="1">  1        2 0.30870447E+00 0.10125846E+04</pdfrwt>
<pdfrwt beam="2">  1       -2 0.69095223E-01 0.10125846E+04</pdfrwt>
<totfact> 0.12692567E+01</totfact>
</mgrwt>
</event>
<event>
 4    1  0.2502834E-007  0.8981831E+03  0.7818608E-02  0.9528955E-01
          2   -1    0    0  501    0  0.00000000000E+00  0.00000000000E+00  0.30099681619E+04  0.30099681619E+04  0.25500000000E-02 0. -1.
         -2   -1    0    0    0  501 -0.00000000000E+00 -0.00000000000E+00 -0.53756212945E+03  0.53756212946E+03  0.25500000000E-02 0.  1.
    8880023    1    1    2    0    0 -0.61049958821E+03  0.14594621387E+02 -0.95813191873E+02  0.90327909540E+03  0.65864270000E+03 0.  1.
    8880022    1    1    2    0    0  0.61049958821E+03 -0.14594621387E+02  0.25682192243E+04  0.26442511959E+04  0.15294330000E+03 0.  0.
<mgrwt>
<rscale>  0 0.82182369E+03</rscale>
<asrwt>0</asrwt>
<pdfrwt beam="1">  1        2 0.46307201E+00 0.89818314E+03</pdfrwt>
<pdfrwt beam="2">  1       -2 0.82701869E-01 0.89818314E+03</pdfrwt>
<totfact> 0.22849911E+00</totfact>
</mgrwt>
</event>
<event>
 4    1  0.2502834E-007  0.7320696E+03  0.7818608E-02  0.9883681E-01
         -2   -1    0    0    0  501 -0.00000000000E+00  0.00000000000E+00  0.24228070667E+03  0.24228070668E+03  0.25500000000E-02 0.  1.
          2   -1    0    0  501    0  0.00000000000E+00 -0.00000000000E+00 -0.15200344146E+04  0.15200344146E+04  0.25500000000E-02 0. -1.
    8880023    1    1    2    0    0 -0.10735425344E+03  0.30098302754E+03 -0.11903090917E+04  0.13974124870E+04  0.65864270000E+03 0.  0.
    8880022    1    1    2    0    0  0.10735425344E+03 -0.30098302754E+03 -0.87444616172E+02  0.36490263429E+03  0.15294330000E+03 0.  0.
<mgrwt>
<rscale>  0 0.61058755E+03</rscale>
<asrwt>0</asrwt>
<pdfrwt beam="1">  1        2 0.23385144E+00 0.73206962E+03</pdfrwt>
<pdfrwt beam="2">  1       -2 0.37273956E-01 0.73206962E+03</pdfrwt>
<totfact> 0.85698779E+01</totfact>
</mgrwt>
</event>
<event>
 4    1  0.2502834E-007  0.1316848E+04  0.7818608E-02  0.9051145E-01
         -2   -1    0    0    0  501 -0.00000000000E+00  0.00000000000E+00  0.18958587241E+04  0.18958587241E+04  0.25500000000E-02 0.  1.
          2   -1    0    0  501    0  0.00000000000E+00 -0.00000000000E+00 -0.15175326975E+04  0.15175326975E+04  0.25500000000E-02 0. -1.
    8880023    1    1    2    0    0 -0.92481952432E+03  0.66707363896E+03  0.13657897362E+04  0.18972269769E+04  0.65864270000E+03 0.  1.
    8880022    1    1    2    0    0  0.92481952432E+03 -0.66707363896E+03 -0.98746370966E+03  0.15161644447E+04  0.15294330000E+03 0.  0.
<mgrwt>
<rscale>  0 0.12731342E+04</rscale>
<asrwt>0</asrwt>
<pdfrwt beam="1">  1        2 0.23346657E+00 0.13168480E+04</pdfrwt>
<pdfrwt beam="2">  1       -2 0.29167057E+00 0.13168480E+04</pdfrwt>
<totfact> 0.42587700E-01</totfact>
</mgrwt>
</event>
<event>
 4    1  0.2502834E-007  0.1174568E+04  0.7818608E-02  0.9182249E-01
         -2   -1    0    0    0  501 -0.00000000000E+00  0.00000000000E+00  0.20516540228E+04  0.20516540229E+04  0.25500000000E-02 0.  1.
          2   -1    0    0  501    0  0.00000000000E+00 -0.00000000000E+00 -0.61207613039E+03  0.61207613039E+03  0.25500000000E-02 0. -1.
    8880023    1    1    2    0    0  0.96098545409E+03  0.14935297584E+03  0.42253763381E+03  0.12482578310E+04  0.65864270000E+03 0.  0.
    8880022    1    1    2    0    0 -0.96098545409E+03 -0.14935297584E+03  0.10170402587E+04  0.14154723223E+04  0.15294330000E+03 0.  0.
<mgrwt>
<rscale>  0 0.11238536E+04</rscale>
<asrwt>0</asrwt>
<pdfrwt beam="1">  1        2 0.94165558E-01 0.11745678E+04</pdfrwt>
<pdfrwt beam="2">  1       -2 0.31563908E+00 0.11745678E+04</pdfrwt>
<totfact> 0.12183606E+00</totfact>
</mgrwt>
</event>
<event>
 4    1  0.2502834E-007  0.1613621E+04  0.7818608E-02  0.8833310E-01
         -2   -1    0    0    0  501 -0.00000000000E+00  0.00000000000E+00  0.34417017878E+04  0.34417017878E+04  0.25500000000E-02 0.  1.
          2   -1    0    0  501    0  0.00000000000E+00 -0.00000000000E+00 -0.11089481427E+04  0.11089481427E+04  0.25500000000E-02 0. -1.
    8880023    1    1    2    0    0  0.65113073356E+03 -0.13213596987E+04  0.25860138751E+04  0.30481536468E+04  0.65864270000E+03 0.  0.
    8880022    1    1    2    0    0 -0.65113073356E+03  0.13213596987E+04 -0.25326023000E+03  0.15024962838E+04  0.15294330000E+03 0.  0.
<mgrwt>
<rscale>  0 0.15793914E+04</rscale>
<asrwt>0</asrwt>
<pdfrwt beam="1">  1        2 0.17060741E+00 0.16136210E+04</pdfrwt>
<pdfrwt beam="2">  1       -2 0.52949258E+00 0.16136210E+04</pdfrwt>
<totfact> 0.21802293E-02</totfact>
</mgrwt>
</event>
<event>
 4    1  0.2502834E-007  0.1188339E+04  0.7818608E-02  0.9168542E-01
         -2   -1    0    0    0  501 -0.00000000000E+00  0.00000000000E+00  0.78498062324E+03  0.78498062325E+03  0.25500000000E-02 0.  1.
          2   -1    0    0  501    0  0.00000000000E+00 -0.00000000000E+00 -0.21177937847E+04  0.21177937847E+04  0.25500000000E-02 0. -1.
    8880023    1    1    2    0    0 -0.67129294854E+02 -0.98682935720E+03  0.57440216009E+02  0.11897260639E+04  0.65864270000E+03 0.  0.
    8880022    1    1    2    0    0  0.67129294854E+02  0.98682935720E+03 -0.13902533774E+04  0.17130483440E+04  0.15294330000E+03 0.  0.
<mgrwt>
<rscale>  0 0.11384108E+04</rscale>
<asrwt>0</asrwt>
<pdfrwt beam="1">  1        2 0.32581443E+00 0.11883386E+04</pdfrwt>
<pdfrwt beam="2">  1       -2 0.12076625E+00 0.11883386E+04</pdfrwt>
<totfact> 0.29361720E+00</totfact>
</mgrwt>
</event>
<event>
 4    1  0.2502834E-007  0.8367489E+03  0.7818608E-02  0.9636341E-01
         -2   -1    0    0    0  501 -0.00000000000E+00  0.00000000000E+00  0.13185752276E+04  0.13185752276E+04  0.25500000000E-02 0.  1.
          2   -1    0    0  501    0  0.00000000000E+00 -0.00000000000E+00 -0.13962303048E+04  0.13962303048E+04  0.25500000000E-02 0. -1.
    8880023    1    1    2    0    0  0.45569590691E+03  0.24223917984E+03  0.11221596380E+04  0.13997824971E+04  0.65864270000E+03 0.  1.
    8880022    1    1    2    0    0 -0.45569590691E+03 -0.24223917984E+03 -0.11998147151E+04  0.13150230353E+04  0.15294330000E+03 0.  0.
<mgrwt>
<rscale>  0 0.74936880E+03</rscale>
<asrwt>0</asrwt>
<pdfrwt beam="1">  1        2 0.21480466E+00 0.83674894E+03</pdfrwt>
<pdfrwt beam="2">  1       -2 0.20285773E+00 0.83674894E+03</pdfrwt>
<totfact> 0.18827672E+00</totfact>
</mgrwt>
</event>
<event>
 4    1  0.2502834E-007  0.7447002E+03  0.7818608E-02  0.9846461E-01
          2   -1    0    0  501    0  0.00000000000E+00  0.00000000000E+00  0.13939729951E+04  0.13939729951E+04  0.25500000000E-02 0. -1.
         -2   -1    0    0    0  501 -0.00000000000E+00 -0.00000000000E+00 -0.11567348536E+04  0.11567348536E+04  0.25500000000E-02 0.  1.
    8880023    1    1    2    0    0 -0.84338423682E+02  0.33712799135E+03 -0.10055112044E+04  0.12512518694E+04  0.65864270000E+03 0.  1.
    8880022    1    1    2    0    0  0.84338423682E+02 -0.33712799135E+03  0.12427493459E+04  0.12994559793E+04  0.15294330000E+03 0.  0.
<mgrwt>
<rscale>  0 0.62927675E+03</rscale>
<asrwt>0</asrwt>
<pdfrwt beam="1">  1        2 0.21445738E+00 0.74470025E+03</pdfrwt>
<pdfrwt beam="2">  1       -2 0.17795921E+00 0.74470025E+03</pdfrwt>
<totfact> 0.28095056E+00</totfact>
</mgrwt>
</event>
<event>
 4    1  0.2502834E-007  0.1348638E+04  0.7818608E-02  0.9024657E-01
          2   -1    0    0  501    0  0.00000000000E+00  0.00000000000E+00  0.29942023230E+04  0.29942023230E+04  0.25500000000E-02 0. -1.
         -2   -1    0    0    0  501 -0.00000000000E+00 -0.00000000000E+00 -0.73887215656E+03  0.73887215656E+03  0.25500000000E-02 0.  1.
    8880023    1    1    2    0    0 -0.11144940472E+04  0.37804234013E+03  0.20510513007E+03  0.13641449017E+04  0.65864270000E+03 0.  0.
    8880022    1    1    2    0    0  0.11144940472E+04 -0.37804234013E+03  0.20502250364E+04  0.23689295779E+04  0.15294330000E+03 0.  0.
<mgrwt>
<rscale>  0 0.13062081E+04</rscale>
<asrwt>0</asrwt>
<pdfrwt beam="1">  1        2 0.46064650E+00 0.13486375E+04</pdfrwt>
<pdfrwt beam="2">  1       -2 0.11367264E+00 0.13486375E+04</pdfrwt>
<totfact> 0.10333311E+00</totfact>
</mgrwt>
</event>
<event>
 4    1  0.2502834E-007  0.9267901E+03  0.7818608E-02  0.9484325E-01
          2   -1    0    0  501    0  0.00000000000E+00  0.00000000000E+00  0.86043399510E+03  0.86043399511E+03  0.25500000000E-02 0. -1.
         -2   -1    0    0    0  501 -0.00000000000E+00 -0.00000000000E+00 -0.13754381786E+04  0.13754381786E+04  0.25500000000E-02 0.  1.
    8880023    1    1    2    0    0 -0.62637795055E+03 -0.18105352213E+03 -0.10340268252E+04  0.13885789125E+04  0.65864270000E+03 0.  0.
    8880022    1    1    2    0    0  0.62637795055E+03  0.18105352213E+03  0.51902264171E+03  0.84729326117E+03  0.15294330000E+03 0.  0.
<mgrwt>
<rscale>  0 0.85449384E+03</rscale>
<asrwt>0</asrwt>
<pdfrwt beam="1">  1        2 0.13237446E+00 0.92679012E+03</pdfrwt>
<pdfrwt beam="2">  1       -2 0.21160587E+00 0.92679012E+03</pdfrwt>
<totfact> 0.34950685E+00</totfact>
</mgrwt>
</event>
<event>
 4    1  0.3228185E-007  0.9074717E+03  0.7818608E-02  0.9514142E-01
         -2   -1    0    0    0  501 -0.00000000000E+00  0.00000000000E+00  0.14669872834E+04  0.14669872834E+04  0.25500000000E-02 0.  1.
          2   -1    0    0  501    0  0.00000000000E+00 -0.00000000000E+00 -0.28503949461E+04  0.28503949461E+04  0.25500000000E-02 0. -1.
    8880023    1    1    2    0    0  0.44826384830E+03 -0.43445859819E+03  0.12847401651E+04  0.15729152073E+04  0.65864270000E+03 0.  1.
    8880022    1    1    2    0    0 -0.44826384830E+03  0.43445859819E+03 -0.26681478278E+04  0.27444670221E+04  0.15294330000E+03 0.  0.
<mgrwt>
<rscale>  0 0.83249176E+03</rscale>
<asrwt>0</asrwt>
<pdfrwt beam="1">  1        2 0.43852230E+00 0.90747174E+03</pdfrwt>
<pdfrwt beam="2">  1       -2 0.22569035E+00 0.90747174E+03</pdfrwt>
<totfact> 0.20303175E-01</totfact>
</mgrwt>
</event>
<event>
 4    1  0.2502834E-007  0.1292600E+04  0.7818608E-02  0.9071977E-01
         -2   -1    0    0    0  501 -0.00000000000E+00  0.00000000000E+00  0.15149530271E+04  0.15149530271E+04  0.25500000000E-02 0.  1.
          2   -1    0    0  501    0  0.00000000000E+00 -0.00000000000E+00 -0.13184405422E+04  0.13184405422E+04  0.25500000000E-02 0. -1.
    8880023    1    1    2    0    0 -0.67522817375E+03  0.88378223544E+03  0.83790352250E+03  0.15404209313E+04  0.65864270000E+03 0.  0.
    8880022    1    1    2    0    0  0.67522817375E+03 -0.88378223544E+03 -0.64139103763E+03  0.12929726379E+04  0.15294330000E+03 0.  0.
<mgrwt>
<rscale>  0 0.12478473E+04</rscale>
<asrwt>0</asrwt>
<pdfrwt beam="1">  1        2 0.20283701E+00 0.12925998E+04</pdfrwt>
<pdfrwt beam="2">  1       -2 0.23306970E+00 0.12925998E+04</pdfrwt>
<totfact> 0.12686015E+00</totfact>
</mgrwt>
</event>
<event>
 4    1  0.2502834E-007  0.9785792E+03  0.7818608E-02  0.9410135E-01
         -2   -1    0    0    0  501 -0.00000000000E+00  0.00000000000E+00  0.85160920262E+03  0.85160920262E+03  0.25500000000E-02 0.  1.
          2   -1    0    0  501    0  0.00000000000E+00 -0.00000000000E+00 -0.23612814406E+04  0.23612814406E+04  0.25500000000E-02 0. -1.
    8880023    1    1    2    0    0  0.55283654822E+03  0.46709620410E+03  0.48014212136E+03  0.10900246676E+04  0.65864270000E+03 0.  0.
    8880022    1    1    2    0    0 -0.55283654822E+03 -0.46709620410E+03 -0.19898143593E+04  0.21228659756E+04  0.15294330000E+03 0.  0.
<mgrwt>
<rscale>  0 0.91246273E+03</rscale>
<asrwt>0</asrwt>
<pdfrwt beam="1">  1        2 0.36327406E+00 0.97857924E+03</pdfrwt>
<pdfrwt beam="2">  1       -2 0.13101680E+00 0.97857924E+03</pdfrwt>
<totfact> 0.17940897E+00</totfact>
</mgrwt>
</event>
<event>
 4    1  0.2502834E-007  0.7229563E+03  0.7818608E-02  0.9912707E-01
          2   -1    0    0  501    0  0.00000000000E+00  0.00000000000E+00  0.96213464307E+03  0.96213464307E+03  0.25500000000E-02 0. -1.
         -2   -1    0    0    0  501 -0.00000000000E+00 -0.00000000000E+00 -0.76811485211E+03  0.76811485211E+03  0.25500000000E-02 0.  1.
    8880023    1    1    2    0    0  0.84293275698E+02  0.28592004507E+03 -0.55387721042E+03  0.91073914980E+03  0.65864270000E+03 0.  1.
    8880022    1    1    2    0    0 -0.84293275698E+02 -0.28592004507E+03  0.74789700138E+03  0.81951034538E+03  0.15294330000E+03 0.  0.
<mgrwt>
<rscale>  0 0.59649392E+03</rscale>
<asrwt>0</asrwt>
<pdfrwt beam="1">  1        2 0.14802071E+00 0.72295632E+03</pdfrwt>
<pdfrwt beam="2">  1       -2 0.11817152E+00 0.72295632E+03</pdfrwt>
<totfact> 0.14989942E+01</totfact>
</mgrwt>
</event>
<event>
 4    1  0.2502834E-007  0.6914038E+03  0.7818608E-02  0.1003492E+00
          2   -1    0    0  501    0  0.00000000000E+00  0.00000000000E+00  0.33098287419E+04  0.33098287419E+04  0.25500000000E-02 0. -1.
         -2   -1    0    0    0  501 -0.00000000000E+00 -0.00000000000E+00 -0.50026445391E+03  0.50026445391E+03  0.25500000000E-02 0.  1.
    8880023    1    1    2    0    0 -0.20437794550E+03 -0.49584677765E+02 -0.25320119839E+03  0.73630838512E+03  0.65864270000E+03 0.  1.
    8880022    1    1    2    0    0  0.20437794550E+03  0.49584677765E+02  0.30627654864E+04  0.30737848107E+04  0.15294330000E+03 0.  0.
<mgrwt>
<rscale>  0 0.54145045E+03</rscale>
<asrwt>0</asrwt>
<pdfrwt beam="1">  1        2 0.50920443E+00 0.69140378E+03</pdfrwt>
<pdfrwt beam="2">  1       -2 0.76963761E-01 0.69140378E+03</pdfrwt>
<totfact> 0.18101375E+00</totfact>
</mgrwt>
</event>
<event>
 4    1  0.2502834E-007  0.8870025E+03  0.7818608E-02  0.9547227E-01
         -2   -1    0    0    0  501 -0.00000000000E+00  0.00000000000E+00  0.91973493702E+03  0.91973493702E+03  0.25500000000E-02 0.  1.
          2   -1    0    0  501    0  0.00000000000E+00 -0.00000000000E+00 -0.95132391502E+03  0.95132391503E+03  0.25500000000E-02 0. -1.
    8880023    1    1    2    0    0  0.39604680228E+03  0.44284320627E+03  0.53509284354E+03  0.10359043066E+04  0.65864270000E+03 0.  1.
    8880022    1    1    2    0    0 -0.39604680228E+03 -0.44284320627E+03 -0.56668182154E+03  0.83515454546E+03  0.15294330000E+03 0.  0.
<mgrwt>
<rscale>  0 0.80889716E+03</rscale>
<asrwt>0</asrwt>
<pdfrwt beam="1">  1        2 0.14635753E+00 0.88700247E+03</pdfrwt>
<pdfrwt beam="2">  1       -2 0.14149768E+00 0.88700247E+03</pdfrwt>
<totfact> 0.94864445E+00</totfact>
</mgrwt>
</event>
<event>
 4    1  0.2502834E-007  0.1190805E+04  0.7818608E-02  0.9166113E-01
          2   -1    0    0  501    0  0.00000000000E+00  0.00000000000E+00  0.37197683378E+04  0.37197683378E+04  0.25500000000E-02 0. -1.
         -2   -1    0    0    0  501 -0.00000000000E+00 -0.00000000000E+00 -0.38829866110E+03  0.38829866111E+03  0.25500000000E-02 0.  1.
    8880023    1    1    2    0    0 -0.91323435753E+03  0.38756906163E+03  0.26193595218E+04  0.28773357955E+04  0.65864270000E+03 0.  0.
    8880022    1    1    2    0    0  0.91323435753E+03 -0.38756906163E+03  0.71211015488E+03  0.12307312034E+04  0.15294330000E+03 0.  0.
<mgrwt>
<rscale>  0 0.11410153E+04</rscale>
<asrwt>0</asrwt>
<pdfrwt beam="1">  1        2 0.57227204E+00 0.11908052E+04</pdfrwt>
<pdfrwt beam="2">  1       -2 0.59738257E-01 0.11908052E+04</pdfrwt>
<totfact> 0.14947711E+00</totfact>
</mgrwt>
</event>
<event>
 4    1  0.2502834E-007  0.1227219E+04  0.7818608E-02  0.9131107E-01
          2   -1    0    0  501    0  0.00000000000E+00  0.00000000000E+00  0.31545450346E+04  0.31545450346E+04  0.25500000000E-02 0. -1.
         -2   -1    0    0    0  501 -0.00000000000E+00 -0.00000000000E+00 -0.84804579500E+03  0.84804579500E+03  0.25500000000E-02 0.  1.
    8880023    1    1    2    0    0 -0.81154705523E+03 -0.64315500095E+03 -0.23900424463E+03  0.12502760548E+04  0.65864270000E+03 0.  0.
    8880022    1    1    2    0    0  0.81154705523E+03  0.64315500095E+03  0.25455034842E+04  0.27523147747E+04  0.15294330000E+03 0.  0.
<mgrwt>
<rscale>  0 0.11793713E+04</rscale>
<asrwt>0</asrwt>
<pdfrwt beam="1">  1        2 0.48531463E+00 0.12272193E+04</pdfrwt>
<pdfrwt beam="2">  1       -2 0.13046858E+00 0.12272193E+04</pdfrwt>
<totfact> 0.58876579E-01</totfact>
</mgrwt>
</event>
<event>
 4    1  0.2502834E-007  0.6864524E+03  0.7818608E-02  0.1005886E+00
          2   -1    0    0  501    0  0.00000000000E+00  0.00000000000E+00  0.33002278426E+04  0.33002278426E+04  0.25500000000E-02 0. -1.
         -2   -1    0    0    0  501 -0.00000000000E+00 -0.00000000000E+00 -0.10924987151E+03  0.10924987154E+03  0.25500000000E-02 0.  1.
    8880023    1    1    2    0    0  0.71998369946E+02 -0.17950739464E+03  0.10508375766E+04  0.12551798631E+04  0.65864270000E+03 0.  1.
    8880022    1    1    2    0    0 -0.71998369946E+02  0.17950739464E+03  0.21401403945E+04  0.21542978511E+04  0.15294330000E+03 0.  0.
<mgrwt>
<rscale>  0 0.53142779E+03</rscale>
<asrwt>0</asrwt>
<pdfrwt beam="1">  1        2 0.50772741E+00 0.68645238E+03</pdfrwt>
<pdfrwt beam="2">  1       -2 0.16807671E-01 0.68645238E+03</pdfrwt>
<totfact> 0.34666104E+01</totfact>
</mgrwt>
</event>
<event>
 4    1  0.2502834E-007  0.8030116E+03  0.7818608E-02  0.9704322E-01
         -2   -1    0    0    0  501 -0.00000000000E+00  0.00000000000E+00  0.69247201975E+03  0.69247201976E+03  0.25500000000E-02 0.  1.
          2   -1    0    0  501    0  0.00000000000E+00 -0.00000000000E+00 -0.70828991222E+03  0.70828991222E+03  0.25500000000E-02 0. -1.
    8880023    1    1    2    0    0  0.45659556770E+03 -0.50376955138E+02 -0.27849912057E+03  0.84993488955E+03  0.65864270000E+03 0. -1.
    8880022    1    1    2    0    0 -0.45659556770E+03  0.50376955138E+02  0.26268122811E+03  0.55082704243E+03  0.15294330000E+03 0.  0.
<mgrwt>
<rscale>  0 0.70760050E+03</rscale>
<asrwt>0</asrwt>
<pdfrwt beam="1">  1        2 0.10896768E+00 0.80301155E+03</pdfrwt>
<pdfrwt beam="2">  1       -2 0.10653416E+00 0.80301155E+03</pdfrwt>
<totfact> 0.28912651E+01</totfact>
</mgrwt>
</event>
<event>
 4    1  0.2502834E-007  0.9462110E+03  0.7818608E-02  0.9455587E-01
          2   -1    0    0  501    0  0.00000000000E+00  0.00000000000E+00  0.12925538054E+04  0.12925538054E+04  0.25500000000E-02 0. -1.
         -2   -1    0    0    0  501 -0.00000000000E+00 -0.00000000000E+00 -0.86657561387E+03  0.86657561387E+03  0.25500000000E-02 0.  1.
    8880023    1    1    2    0    0 -0.29034535424E+03  0.61416985311E+03 -0.44365420266E+03  0.10450570755E+04  0.65864270000E+03 0.  0.
    8880022    1    1    2    0    0  0.29034535424E+03 -0.61416985311E+03  0.86963239418E+03  0.11140723438E+04  0.15294330000E+03 0.  0.
<mgrwt>
<rscale>  0 0.87638945E+03</rscale>
<asrwt>0</asrwt>
<pdfrwt beam="1">  1        2 0.19885443E+00 0.94621099E+03</pdfrwt>
<pdfrwt beam="2">  1       -2 0.13331933E+00 0.94621099E+03</pdfrwt>
<totfact> 0.67869198E+00</totfact>
</mgrwt>
</event>
<event>
 4    1  0.2502834E-007  0.1770917E+04  0.7818608E-02  0.8738797E-01
          2   -1    0    0  501    0  0.00000000000E+00  0.00000000000E+00  0.24856115700E+04  0.24856115700E+04  0.25500000000E-02 0. -1.
         -2   -1    0    0    0  501 -0.00000000000E+00 -0.00000000000E+00 -0.14856332858E+04  0.14856332858E+04  0.25500000000E-02 0.  1.
    8880023    1    1    2    0    0  0.78335030217E+03  0.14452332291E+04 -0.38965790732E+03  0.18132788736E+04  0.65864270000E+03 0.  0.
    8880022    1    1    2    0    0 -0.78335030217E+03 -0.14452332291E+04  0.13896361915E+04  0.21579659822E+04  0.15294330000E+03 0.  0.
<mgrwt>
<rscale>  0 0.17401391E+04</rscale>
<asrwt>0</asrwt>
<pdfrwt beam="1">  1        2 0.38240178E+00 0.17709170E+04</pdfrwt>
<pdfrwt beam="2">  1       -2 0.22855897E+00 0.17709170E+04</pdfrwt>
<totfact> 0.28231633E-01</totfact>
</mgrwt>
</event>
<event>
 4    1  0.2502834E-007  0.7265775E+03  0.7818608E-02  0.9900928E-01
          2   -1    0    0  501    0  0.00000000000E+00  0.00000000000E+00  0.99346186659E+03  0.99346186660E+03  0.25500000000E-02 0. -1.
         -2   -1    0    0    0  501 -0.00000000000E+00 -0.00000000000E+00 -0.28776176719E+03  0.28776176720E+03  0.25500000000E-02 0.  1.
    8880023    1    1    2    0    0  0.30468604406E+03 -0.35651536176E+02  0.47874856438E+03  0.87012356113E+03  0.65864270000E+03 0.  0.
    8880022    1    1    2    0    0 -0.30468604406E+03  0.35651536176E+02  0.22695153503E+03  0.41110007266E+03  0.15294330000E+03 0. -1.
<mgrwt>
<rscale>  0 0.60216354E+03</rscale>
<asrwt>0</asrwt>
<pdfrwt beam="1">  1        2 0.15284029E+00 0.72657747E+03</pdfrwt>
<pdfrwt beam="2">  1       -2 0.44271042E-01 0.72657747E+03</pdfrwt>
<totfact> 0.12481468E+02</totfact>
</mgrwt>
</event>
<event>
 4    1  0.2502834E-007  0.7050035E+03  0.7818608E-02  0.9977045E-01
          2   -1    0    0  501    0  0.00000000000E+00  0.00000000000E+00  0.98539721630E+03  0.98539721630E+03  0.25500000000E-02 0. -1.
         -2   -1    0    0    0  501 -0.00000000000E+00 -0.00000000000E+00 -0.49586533898E+03  0.49586533899E+03  0.25500000000E-02 0.  1.
    8880023    1    1    2    0    0 -0.49375511356E+02  0.24653965068E+03 -0.19893355164E+03  0.73253293763E+03  0.65864270000E+03 0.  1.
    8880022    1    1    2    0    0  0.49375511356E+02 -0.24653965068E+03  0.68846542896E+03  0.74872961766E+03  0.15294330000E+03 0.  0.
<mgrwt>
<rscale>  0 0.56668320E+03</rscale>
<asrwt>0</asrwt>
<pdfrwt beam="1">  1        2 0.15159957E+00 0.70500351E+03</pdfrwt>
<pdfrwt beam="2">  1       -2 0.76286976E-01 0.70500351E+03</pdfrwt>
<totfact> 0.40366476E+01</totfact>
</mgrwt>
</event>
<event>
 4    1  0.2502834E-007  0.1789730E+04  0.7818608E-02  0.8728239E-01
         -2   -1    0    0    0  501 -0.00000000000E+00  0.00000000000E+00  0.17814676464E+04  0.17814676464E+04  0.25500000000E-02 0.  1.
          2   -1    0    0  501    0  0.00000000000E+00 -0.00000000000E+00 -0.22631633646E+04  0.22631633646E+04  0.25500000000E-02 0. -1.
    8880023    1    1    2    0    0  0.22047653593E+03  0.16494582173E+04  0.77837747570E+03  0.19516669835E+04  0.65864270000E+03 0.  0.
    8880022    1    1    2    0    0 -0.22047653593E+03 -0.16494582173E+04 -0.12600731938E+04  0.20929640275E+04  0.15294330000E+03 0.  0.
<mgrwt>
<rscale>  0 0.17593162E+04</rscale>
<asrwt>0</asrwt>
<pdfrwt beam="1">  1        2 0.34817898E+00 0.17897297E+04</pdfrwt>
<pdfrwt beam="2">  1       -2 0.27407194E+00 0.17897297E+04</pdfrwt>
<totfact> 0.19765548E-01</totfact>
</mgrwt>
</event>
<event>
 4    1  0.2502834E-007  0.1032369E+04  0.7818608E-02  0.9340382E-01
         -2   -1    0    0    0  501 -0.00000000000E+00  0.00000000000E+00  0.43582306293E+03  0.43582306294E+03  0.25500000000E-02 0.  1.
          2   -1    0    0  501    0  0.00000000000E+00 -0.00000000000E+00 -0.21159954325E+04  0.21159954325E+04  0.25500000000E-02 0. -1.
    8880023    1    1    2    0    0  0.44730406468E+03  0.65718765912E+03 -0.57448262803E+03  0.11814470118E+04  0.65864270000E+03 0.  0.
    8880022    1    1    2    0    0 -0.44730406468E+03 -0.65718765912E+03 -0.11056897416E+04  0.13703714836E+04  0.15294330000E+03 0.  0.
<mgrwt>
<rscale>  0 0.97148710E+03</rscale>
<asrwt>0</asrwt>
<pdfrwt beam="1">  1        2 0.32553775E+00 0.10323695E+04</pdfrwt>
<pdfrwt beam="2">  1       -2 0.67049703E-01 0.10323695E+04</pdfrwt>
<totfact> 0.11765374E+01</totfact>
</mgrwt>
</event>
<event>
 4    1  0.2502834E-007  0.7470295E+03  0.7818608E-02  0.9839924E-01
          2   -1    0    0  501    0  0.00000000000E+00  0.00000000000E+00  0.17803075978E+04  0.17803075978E+04  0.25500000000E-02 0. -1.
         -2   -1    0    0    0  501 -0.00000000000E+00 -0.00000000000E+00 -0.10358715278E+04  0.10358715278E+04  0.25500000000E-02 0.  1.
    8880023    1    1    2    0    0 -0.31809007036E+03 -0.15186051109E+03 -0.87573422966E+03  0.11510706125E+04  0.65864270000E+03 0.  1.
    8880022    1    1    2    0    0  0.31809007036E+03  0.15186051109E+03  0.16201702996E+04  0.16651085131E+04  0.15294330000E+03 0.  0.
<mgrwt>
<rscale>  0 0.63263298E+03</rscale>
<asrwt>0</asrwt>
<pdfrwt beam="1">  1        2 0.27389347E+00 0.74702953E+03</pdfrwt>
<pdfrwt beam="2">  1       -2 0.15936485E+00 0.74702953E+03</pdfrwt>
<totfact> 0.23296140E+00</totfact>
</mgrwt>
</event>
<event>
 4    1  0.2502834E-007  0.7609618E+03  0.7818608E-02  0.9802624E-01
          2   -1    0    0  501    0  0.00000000000E+00  0.00000000000E+00  0.18919756757E+04  0.18919756757E+04  0.25500000000E-02 0. -1.
         -2   -1    0    0    0  501 -0.00000000000E+00 -0.00000000000E+00 -0.16167034212E+04  0.16167034212E+04  0.25500000000E-02 0.  1.
    8880023    1    1    2    0    0 -0.30812484845E+03 -0.22430275439E+03 -0.15024357978E+04  0.16841544409E+04  0.65864270000E+03 0.  1.
    8880022    1    1    2    0    0  0.30812484845E+03  0.22430275439E+03  0.17777080524E+04  0.18245246560E+04  0.15294330000E+03 0.  0.
<mgrwt>
<rscale>  0 0.65221923E+03</rscale>
<asrwt>0</asrwt>
<pdfrwt beam="1">  1        2 0.29107318E+00 0.76096180E+03</pdfrwt>
<pdfrwt beam="2">  1       -2 0.24872360E+00 0.76096180E+03</pdfrwt>
<totfact> 0.52623735E-01</totfact>
</mgrwt>
</event>
<event>
 4    1  0.2502834E-007  0.1512831E+04  0.7818608E-02  0.8900628E-01
          2   -1    0    0  501    0  0.00000000000E+00  0.00000000000E+00  0.32560993794E+04  0.32560993794E+04  0.25500000000E-02 0. -1.
         -2   -1    0    0    0  501 -0.00000000000E+00 -0.00000000000E+00 -0.87846864096E+03  0.87846864096E+03  0.25500000000E-02 0.  1.
    8880023    1    1    2    0    0 -0.56846968505E+03  0.12376142548E+04  0.15150261519E+03  0.15203979990E+04  0.65864270000E+03 0.  0.
    8880022    1    1    2    0    0  0.56846968505E+03 -0.12376142548E+04  0.22261281233E+04  0.26141700214E+04  0.15294330000E+03 0.  0.
<mgrwt>
<rscale>  0 0.14759159E+04</rscale>
<asrwt>0</asrwt>
<pdfrwt beam="1">  1        2 0.50093837E+00 0.15128308E+04</pdfrwt>
<pdfrwt beam="2">  1       -2 0.13514902E+00 0.15128308E+04</pdfrwt>
<totfact> 0.44567258E-01</totfact>
</mgrwt>
</event>
<event>
 4    1  0.2502834E-007  0.1053766E+04  0.7818608E-02  0.9314368E-01
          2   -1    0    0  501    0  0.00000000000E+00  0.00000000000E+00  0.22027707230E+04  0.22027707230E+04  0.25500000000E-02 0. -1.
         -2   -1    0    0    0  501 -0.00000000000E+00 -0.00000000000E+00 -0.71517987327E+03  0.71517987328E+03  0.25500000000E-02 0.  1.
    8880023    1    1    2    0    0 -0.62950343632E+03  0.52946863002E+03 -0.16407617834E+03  0.10664627537E+04  0.65864270000E+03 0.  1.
    8880022    1    1    2    0    0  0.62950343632E+03 -0.52946863002E+03  0.16516670280E+04  0.18514878425E+04  0.15294330000E+03 0.  0.
<mgrwt>
<rscale>  0 0.99470775E+03</rscale>
<asrwt>0</asrwt>
<pdfrwt beam="1">  1        2 0.33888780E+00 0.10537655E+04</pdfrwt>
<pdfrwt beam="2">  1       -2 0.11002767E+00 0.10537655E+04</pdfrwt>
<totfact> 0.33641304E+00</totfact>
</mgrwt>
</event>
<event>
 4    1  0.2502834E-007  0.8289124E+03  0.7818608E-02  0.9651452E-01
          2   -1    0    0  501    0  0.00000000000E+00  0.00000000000E+00  0.14934910704E+04  0.14934910704E+04  0.25500000000E-02 0. -1.
         -2   -1    0    0    0  501 -0.00000000000E+00 -0.00000000000E+00 -0.41527775261E+03  0.41527775262E+03  0.25500000000E-02 0.  1.
    8880023    1    1    2    0    0 -0.29166683989E+03 -0.41014145634E+03  0.15071966159E+03  0.84250352068E+03  0.65864270000E+03 0.  1.
    8880022    1    1    2    0    0  0.29166683989E+03  0.41014145634E+03  0.92749365621E+03  0.10662653024E+04  0.15294330000E+03 0.  0.
<mgrwt>
<rscale>  0 0.73982355E+03</rscale>
<asrwt>0</asrwt>
<pdfrwt beam="1">  1        2 0.22976786E+00 0.82891240E+03</pdfrwt>
<pdfrwt beam="2">  1       -2 0.63888885E-01 0.82891240E+03</pdfrwt>
<totfact> 0.29422041E+01</totfact>
</mgrwt>
</event>
<event>
 4    1  0.2502834E-007  0.7048931E+03  0.7818608E-02  0.9977478E-01
         -2   -1    0    0    0  501 -0.00000000000E+00  0.00000000000E+00  0.29628364388E+03  0.29628364389E+03  0.25500000000E-02 0.  1.
          2   -1    0    0  501    0  0.00000000000E+00 -0.00000000000E+00 -0.17241381953E+04  0.17241381953E+04  0.25500000000E-02 0. -1.
    8880023    1    1    2    0    0 -0.11523185296E+03 -0.22312719925E+03 -0.16521224750E+03  0.72399545577E+03  0.65864270000E+03 0.  1.
    8880022    1    1    2    0    0  0.11523185296E+03  0.22312719925E+03 -0.12626423039E+04  0.12964263834E+04  0.15294330000E+03 0.  0.
<mgrwt>
<rscale>  0 0.56648931E+03</rscale>
<asrwt>0</asrwt>
<pdfrwt beam="1">  1        2 0.26525202E+00 0.70489314E+03</pdfrwt>
<pdfrwt beam="2">  1       -2 0.45582100E-01 0.70489314E+03</pdfrwt>
<totfact> 0.44747481E+01</totfact>
</mgrwt>
</event>
<event>
 4    1  0.3446653E-007  0.6942581E+03  0.7818608E-02  0.1002191E+00
          2   -1    0    0  501    0  0.00000000000E+00  0.00000000000E+00  0.25799698939E+04  0.25799698939E+04  0.25500000000E-02 0. -1.
         -2   -1    0    0    0  501 -0.00000000000E+00 -0.00000000000E+00 -0.16162229730E+04  0.16162229730E+04  0.25500000000E-02 0.  1.
    8880023    1    1    2    0    0 -0.21950886728E+03  0.12544688961E+00 -0.15341932741E+04  0.16839665576E+04  0.65864270000E+03 0.  0.
    8880022    1    1    2    0    0  0.21950886728E+03 -0.12544688961E+00  0.24979401949E+04  0.25122263093E+04  0.15294330000E+03 0. -1.
<mgrwt>
<rscale>  0 0.54699898E+03</rscale>
<asrwt>0</asrwt>
<pdfrwt beam="1">  1        2 0.39691844E+00 0.69425814E+03</pdfrwt>
<pdfrwt beam="2">  1       -2 0.24864969E+00 0.69425814E+03</pdfrwt>
<totfact> 0.22266028E-01</totfact>
</mgrwt>
</event>
<event>
 4    1  0.2502834E-007  0.1026811E+04  0.7818608E-02  0.9347292E-01
         -2   -1    0    0    0  501 -0.00000000000E+00  0.00000000000E+00  0.51419398827E+03  0.51419398828E+03  0.25500000000E-02 0.  1.
          2   -1    0    0  501    0  0.00000000000E+00 -0.00000000000E+00 -0.20793079687E+04  0.20793079687E+04  0.25500000000E-02 0. -1.
    8880023    1    1    2    0    0 -0.45757330910E+03  0.64121482379E+03 -0.25636141546E+03  0.10583294218E+04  0.65864270000E+03 0.  0.
    8880022    1    1    2    0    0  0.45757330910E+03 -0.64121482379E+03 -0.13087525650E+04  0.15351725352E+04  0.15294330000E+03 0.  1.
<mgrwt>
<rscale>  0 0.96543239E+03</rscale>
<asrwt>0</asrwt>
<pdfrwt beam="1">  1        2 0.31989353E+00 0.10268106E+04</pdfrwt>
<pdfrwt beam="2">  1       -2 0.79106769E-01 0.10268106E+04</pdfrwt>
<totfact> 0.85566341E+00</totfact>
</mgrwt>
</event>
<event>
 4    1  0.2502834E-007  0.1012864E+04  0.7818608E-02  0.9364918E-01
         -2   -1    0    0    0  501 -0.00000000000E+00  0.00000000000E+00  0.42790809756E+03  0.42790809757E+03  0.25500000000E-02 0.  1.
          2   -1    0    0  501    0  0.00000000000E+00 -0.00000000000E+00 -0.27949338101E+04  0.27949338101E+04  0.25500000000E-02 0. -1.
    8880023    1    1    2    0    0 -0.73846542878E+03 -0.21622077261E+03 -0.37184671096E+03  0.10789637597E+04  0.65864270000E+03 0.  1.
    8880022    1    1    2    0    0  0.73846542878E+03  0.21622077261E+03 -0.19951790015E+04  0.21438781479E+04  0.15294330000E+03 0.  0.
<mgrwt>
<rscale>  0 0.95019881E+03</rscale>
<asrwt>0</asrwt>
<pdfrwt beam="1">  1        2 0.42998981E+00 0.10128637E+04</pdfrwt>
<pdfrwt beam="2">  1       -2 0.65832017E-01 0.10128637E+04</pdfrwt>
<totfact> 0.50243619E+00</totfact>
</mgrwt>
</event>
<event>
 4    1  0.2502834E-007  0.1252485E+04  0.7818608E-02  0.9107719E-01
          2   -1    0    0  501    0  0.00000000000E+00  0.00000000000E+00  0.12334114262E+04  0.12334114263E+04  0.25500000000E-02 0. -1.
         -2   -1    0    0    0  501 -0.00000000000E+00 -0.00000000000E+00 -0.13181145039E+04  0.13181145039E+04  0.25500000000E-02 0.  1.
    8880023    1    1    2    0    0  0.10251870150E+04  0.28965324674E+03 -0.56371614034E+03  0.13734968192E+04  0.65864270000E+03 0.  0.
    8880022    1    1    2    0    0 -0.10251870150E+04 -0.28965324674E+03  0.47901306265E+03  0.11780291110E+04  0.15294330000E+03 0.  0.
<mgrwt>
<rscale>  0 0.12058877E+04</rscale>
<asrwt>0</asrwt>
<pdfrwt beam="1">  1        2 0.18975560E+00 0.12524846E+04</pdfrwt>
<pdfrwt beam="2">  1       -2 0.20278685E+00 0.12524846E+04</pdfrwt>
<totfact> 0.22284744E+00</totfact>
</mgrwt>
</event>
<event>
 4    1  0.2502834E-007  0.9101696E+03  0.7818608E-02  0.9509899E-01
          2   -1    0    0  501    0  0.00000000000E+00  0.00000000000E+00  0.19628540642E+04  0.19628540642E+04  0.25500000000E-02 0. -1.
         -2   -1    0    0    0  501 -0.00000000000E+00 -0.00000000000E+00 -0.15770234816E+04  0.15770234816E+04  0.25500000000E-02 0.  1.
    8880023    1    1    2    0    0  0.51730237650E+03 -0.35636591249E+03 -0.13835462188E+04  0.16560823525E+04  0.65864270000E+03 0.  0.
    8880022    1    1    2    0    0 -0.51730237650E+03  0.35636591249E+03  0.17693768014E+04  0.18837951934E+04  0.15294330000E+03 0.  0.
<mgrwt>
<rscale>  0 0.83557892E+03</rscale>
<asrwt>0</asrwt>
<pdfrwt beam="1">  1        2 0.30197755E+00 0.91016955E+03</pdfrwt>
<pdfrwt beam="2">  1       -2 0.24261900E+00 0.91016955E+03</pdfrwt>
<totfact> 0.50886664E-01</totfact>
</mgrwt>
</event>
<event>
 4    1  0.2502834E-007  0.8505698E+03  0.7818608E-02  0.9610563E-01
         -2   -1    0    0    0  501 -0.00000000000E+00  0.00000000000E+00  0.32785637969E+03  0.32785637970E+03  0.25500000000E-02 0.  1.
          2   -1    0    0  501    0  0.00000000000E+00 -0.00000000000E+00 -0.25943687033E+04  0.25943687033E+04  0.25500000000E-02 0. -1.
    8880023    1    1    2    0    0  0.39291943091E+03  0.36779499352E+03 -0.33982645362E+03  0.91594271726E+03  0.65864270000E+03 0.  1.
    8880022    1    1    2    0    0 -0.39291943091E+03 -0.36779499352E+03 -0.19266858700E+04  0.20062823658E+04  0.15294330000E+03 0.  0.
<mgrwt>
<rscale>  0 0.76600972E+03</rscale>
<asrwt>0</asrwt>
<pdfrwt beam="1">  1        2 0.39913363E+00 0.85056983E+03</pdfrwt>
<pdfrwt beam="2">  1       -2 0.50439445E-01 0.85056983E+03</pdfrwt>
<totfact> 0.11789850E+01</totfact>
</mgrwt>
</event>
<event>
 4    1  0.2502834E-007  0.7840007E+03  0.7818608E-02  0.9746522E-01
          2   -1    0    0  501    0  0.00000000000E+00  0.00000000000E+00  0.20655412036E+04  0.20655412036E+04  0.25500000000E-02 0. -1.
         -2   -1    0    0    0  501 -0.00000000000E+00 -0.00000000000E+00 -0.25875940311E+03  0.25875940312E+03  0.25500000000E-02 0.  1.
    8880023    1    1    2    0    0  0.32067864041E+03  0.27930635195E+03  0.47207027799E+03  0.91515429425E+03  0.65864270000E+03 0.  1.
    8880022    1    1    2    0    0 -0.32067864041E+03 -0.27930635195E+03  0.13347115225E+04  0.14091463125E+04  0.15294330000E+03 0.  0.
<mgrwt>
<rscale>  0 0.68313182E+03</rscale>
<asrwt>0</asrwt>
<pdfrwt beam="1">  1        2 0.31777556E+00 0.78400066E+03</pdfrwt>
<pdfrwt beam="2">  1       -2 0.39809140E-01 0.78400066E+03</pdfrwt>
<totfact> 0.37707969E+01</totfact>
</mgrwt>
</event>
<event>
 4    1  0.2502834E-007  0.1083976E+04  0.7818608E-02  0.9279110E-01
         -2   -1    0    0    0  501 -0.00000000000E+00  0.00000000000E+00  0.25178007802E+04  0.25178007802E+04  0.25500000000E-02 0.  1.
          2   -1    0    0  501    0  0.00000000000E+00 -0.00000000000E+00 -0.18418842963E+04  0.18418842963E+04  0.25500000000E-02 0. -1.
    8880023    1    1    2    0    0  0.56006362841E+03  0.65385134366E+03  0.22846005801E+04  0.25287156551E+04  0.65864270000E+03 0.  0.
    8880022    1    1    2    0    0 -0.56006362841E+03 -0.65385134366E+03 -0.16086840963E+04  0.18309694214E+04  0.15294330000E+03 0.  0.
<mgrwt>
<rscale>  0 0.10272894E+04</rscale>
<asrwt>0</asrwt>
<pdfrwt beam="1">  1        2 0.28336682E+00 0.10839756E+04</pdfrwt>
<pdfrwt beam="2">  1       -2 0.38735396E+00 0.10839756E+04</pdfrwt>
<totfact> 0.73668850E-02</totfact>
</mgrwt>
</event>
<event>
 4    1  0.2502834E-007  0.1004951E+04  0.7818608E-02  0.9375109E-01
          2   -1    0    0  501    0  0.00000000000E+00  0.00000000000E+00  0.17613465282E+04  0.17613465282E+04  0.25500000000E-02 0. -1.
         -2   -1    0    0    0  501 -0.00000000000E+00 -0.00000000000E+00 -0.16742315372E+04  0.16742315372E+04  0.25500000000E-02 0.  1.
    8880023    1    1    2    0    0 -0.75580607788E+03 -0.69807420893E+02 -0.14209204540E+04  0.17403853154E+04  0.65864270000E+03 0.  1.
    8880022    1    1    2    0    0  0.75580607788E+03  0.69807420893E+02  0.15080354450E+04  0.16951927500E+04  0.15294330000E+03 0.  0.
<mgrwt>
<rscale>  0 0.94152733E+03</rscale>
<asrwt>0</asrwt>
<pdfrwt beam="1">  1        2 0.27097639E+00 0.10049508E+04</pdfrwt>
<pdfrwt beam="2">  1       -2 0.25757408E+00 0.10049508E+04</pdfrwt>
<totfact> 0.52375978E-01</totfact>
</mgrwt>
</event>
<event>
 4    1  0.2502834E-007  0.8565483E+03  0.7818608E-02  0.9599733E-01
          2   -1    0    0  501    0  0.00000000000E+00  0.00000000000E+00  0.16937298196E+04  0.16937298196E+04  0.25500000000E-02 0. -1.
         -2   -1    0    0    0  501 -0.00000000000E+00 -0.00000000000E+00 -0.47393329698E+03  0.47393329699E+03  0.25500000000E-02 0.  1.
    8880023    1    1    2    0    0  0.74958658652E+02  0.54244452838E+03  0.39375295028E+02  0.85745290658E+03  0.65864270000E+03 0.  0.
    8880022    1    1    2    0    0 -0.74958658652E+02 -0.54244452838E+03  0.11804212276E+04  0.13102102101E+04  0.15294330000E+03 0.  0.
<mgrwt>
<rscale>  0 0.77313854E+03</rscale>
<asrwt>0</asrwt>
<pdfrwt beam="1">  1        2 0.26057382E+00 0.85654835E+03</pdfrwt>
<pdfrwt beam="2">  1       -2 0.72912814E-01 0.85654835E+03</pdfrwt>
<totfact> 0.17047009E+01</totfact>
</mgrwt>
</event>
<event>
 4    1  0.2502834E-007  0.8268514E+03  0.7818608E-02  0.9655490E-01
         -2   -1    0    0    0  501 -0.00000000000E+00  0.00000000000E+00  0.12460982084E+04  0.12460982084E+04  0.25500000000E-02 0.  1.
          2   -1    0    0  501    0  0.00000000000E+00 -0.00000000000E+00 -0.19195895549E+04  0.19195895549E+04  0.25500000000E-02 0. -1.
    8880023    1    1    2    0    0 -0.42347729237E+03  0.26559377751E+03  0.10661478270E+04  0.13492051241E+04  0.65864270000E+03 0.  0.
    8880022    1    1    2    0    0  0.42347729237E+03 -0.26559377751E+03 -0.17396391734E+04  0.18164826392E+04  0.15294330000E+03 0.  0.
<mgrwt>
<rscale>  0 0.73729885E+03</rscale>
<asrwt>0</asrwt>
<pdfrwt beam="1">  1        2 0.29532147E+00 0.82685142E+03</pdfrwt>
<pdfrwt beam="2">  1       -2 0.19170742E+00 0.82685142E+03</pdfrwt>
<totfact> 0.11465661E+00</totfact>
</mgrwt>
</event>
<event>
 4    1  0.2502834E-007  0.1082586E+04  0.7818608E-02  0.9280696E-01
          2   -1    0    0  501    0  0.00000000000E+00  0.00000000000E+00  0.10398315615E+04  0.10398315615E+04  0.25500000000E-02 0. -1.
         -2   -1    0    0    0  501 -0.00000000000E+00 -0.00000000000E+00 -0.14401094184E+04  0.14401094184E+04  0.25500000000E-02 0.  1.
    8880023    1    1    2    0    0 -0.80727402286E+02 -0.85537472229E+03 -0.95688723537E+03  0.14448620060E+04  0.65864270000E+03 0.  0.
    8880022    1    1    2    0    0  0.80727402286E+02  0.85537472229E+03  0.55660937845E+03  0.10350789739E+04  0.15294330000E+03 0.  0.
<mgrwt>
<rscale>  0 0.10257958E+04</rscale>
<asrwt>0</asrwt>
<pdfrwt beam="1">  1        2 0.15997409E+00 0.10825863E+04</pdfrwt>
<pdfrwt beam="2">  1       -2 0.22155529E+00 0.10825863E+04</pdfrwt>
<totfact> 0.22596496E+00</totfact>
</mgrwt>
</event>
<event>
 4    1  0.2502834E-007  0.7043942E+03  0.7818608E-02  0.9979439E-01
         -2   -1    0    0    0  501 -0.00000000000E+00  0.00000000000E+00  0.72479463625E+03  0.72479463626E+03  0.25500000000E-02 0.  1.
          2   -1    0    0  501    0  0.00000000000E+00 -0.00000000000E+00 -0.52993235989E+03  0.52993235989E+03  0.25500000000E-02 0. -1.
    8880023    1    1    2    0    0  0.16036816311E+03  0.19142355371E+03  0.47491079796E+03  0.84953598920E+03  0.65864270000E+03 0.  1.
    8880022    1    1    2    0    0 -0.16036816311E+03 -0.19142355371E+03 -0.28004852160E+03  0.40519100696E+03  0.15294330000E+03 0.  0.
<mgrwt>
<rscale>  0 0.56561082E+03</rscale>
<asrwt>0</asrwt>
<pdfrwt beam="1">  1        2 0.81528056E-01 0.70439416E+03</pdfrwt>
<pdfrwt beam="2">  1       -2 0.11150687E+00 0.70439416E+03</pdfrwt>
<totfact> 0.37142562E+01</totfact>
</mgrwt>
</event>
<event>
 4    1  0.2502834E-007  0.1036361E+04  0.7818608E-02  0.9335460E-01
         -2   -1    0    0    0  501 -0.00000000000E+00  0.00000000000E+00  0.32010645371E+03  0.32010645373E+03  0.25500000000E-02 0.  1.
          2   -1    0    0  501    0  0.00000000000E+00 -0.00000000000E+00 -0.51152889389E+04  0.51152889389E+04  0.25500000000E-02 0. -1.
    8880023    1    1    2    0    0 -0.44312426775E+03  0.66623943090E+03 -0.67810023659E+03  0.12384927263E+04  0.65864270000E+03 0.  0.
    8880022    1    1    2    0    0  0.44312426775E+03 -0.66623943090E+03 -0.41170822486E+04  0.41969026664E+04  0.15294330000E+03 0.  0.
<mgrwt>
<rscale>  0 0.97582901E+03</rscale>
<asrwt>0</asrwt>
<pdfrwt beam="1">  1        2 0.78696747E+00 0.10363611E+04</pdfrwt>
<pdfrwt beam="2">  1       -2 0.49247150E-01 0.10363611E+04</pdfrwt>
<totfact> 0.10440075E-01</totfact>
</mgrwt>
</event>
<event>
 4    1  0.2502834E-007  0.9719244E+03  0.7818608E-02  0.9419248E-01
         -2   -1    0    0    0  501 -0.00000000000E+00  0.00000000000E+00  0.13448003065E+04  0.13448003065E+04  0.25500000000E-02 0.  1.
          2   -1    0    0  501    0  0.00000000000E+00 -0.00000000000E+00 -0.10753027603E+04  0.10753027603E+04  0.25500000000E-02 0. -1.
    8880023    1    1    2    0    0 -0.12196416464E+03  0.70423824923E+03  0.99453574148E+03  0.13905891976E+04  0.65864270000E+03 0.  0.
    8880022    1    1    2    0    0  0.12196416464E+03 -0.70423824923E+03 -0.72503819537E+03  0.10295138692E+04  0.15294330000E+03 0.  0.
<mgrwt>
<rscale>  0 0.90508467E+03</rscale>
<asrwt>0</asrwt>
<pdfrwt beam="1">  1        2 0.16543119E+00 0.97192437E+03</pdfrwt>
<pdfrwt beam="2">  1       -2 0.20689235E+00 0.97192437E+03</pdfrwt>
<totfact> 0.26953134E+00</totfact>
</mgrwt>
</event>
<event>
 4    1  0.2502834E-007  0.7190742E+03  0.7818608E-02  0.9925731E-01
          2   -1    0    0  501    0  0.00000000000E+00  0.00000000000E+00  0.74845536053E+03  0.74845536053E+03  0.25500000000E-02 0. -1.
         -2   -1    0    0    0  501 -0.00000000000E+00 -0.00000000000E+00 -0.77223522962E+03  0.77223522963E+03  0.25500000000E-02 0.  1.
    8880023    1    1    2    0    0  0.12100949387E+02  0.28828992539E+03 -0.54730099557E+03  0.90366260300E+03  0.65864270000E+03 0.  1.
    8880022    1    1    2    0    0 -0.12100949387E+02 -0.28828992539E+03  0.52352112647E+03  0.61702798715E+03  0.15294330000E+03 0.  0.
<mgrwt>
<rscale>  0 0.59030297E+03</rscale>
<asrwt>0</asrwt>
<pdfrwt beam="1">  1        2 0.11514698E+00 0.71907421E+03</pdfrwt>
<pdfrwt beam="2">  1       -2 0.11880542E+00 0.71907421E+03</pdfrwt>
<totfact> 0.20819892E+01</totfact>
</mgrwt>
</event>
<event>
 4    1  0.2502834E-007  0.1296307E+04  0.7818608E-02  0.9068756E-01
          2   -1    0    0  501    0  0.00000000000E+00  0.00000000000E+00  0.37708071453E+04  0.37708071453E+04  0.25500000000E-02 0. -1.
         -2   -1    0    0    0  501 -0.00000000000E+00 -0.00000000000E+00 -0.81809477788E+03  0.81809477788E+03  0.25500000000E-02 0.  1.
    8880023    1    1    2    0    0  0.30746685072E+03  0.10733430873E+04 -0.13370169185E+03  0.13031836386E+04  0.65864270000E+03 0.  0.
    8880022    1    1    2    0    0 -0.30746685072E+03 -0.10733430873E+04  0.30864140593E+04  0.32857182846E+04  0.15294330000E+03 0.  0.
<mgrwt>
<rscale>  0 0.12517166E+04</rscale>
<asrwt>0</asrwt>
<pdfrwt beam="1">  1        2 0.58012417E+00 0.12963069E+04</pdfrwt>
<pdfrwt beam="2">  1       -2 0.12586074E+00 0.12963069E+04</pdfrwt>
<totfact> 0.24078527E-01</totfact>
</mgrwt>
</event>
<event>
 4    1  0.2502834E-007  0.6655483E+03  0.7818608E-02  0.1019078E+00
         -2   -1    0    0    0  501 -0.00000000000E+00  0.00000000000E+00  0.77072722632E+03  0.77072722632E+03  0.25500000000E-02 0.  1.
          2   -1    0    0  501    0  0.00000000000E+00 -0.00000000000E+00 -0.47570921334E+03  0.47570921335E+03  0.25500000000E-02 0. -1.
    8880023    1    1    2    0    0 -0.33494414354E+02  0.89568180016E+02  0.59740197711E+03  0.89433979179E+03  0.65864270000E+03 0.  1.
    8880022    1    1    2    0    0  0.33494414354E+02 -0.89568180016E+02 -0.30238396414E+03  0.35209664788E+03  0.15294330000E+03 0.  0.
<mgrwt>
<rscale>  0 0.48020888E+03</rscale>
<asrwt>0</asrwt>
<pdfrwt beam="1">  1        2 0.73186034E-01 0.66554830E+03</pdfrwt>
<pdfrwt beam="2">  1       -2 0.11857342E+00 0.66554830E+03</pdfrwt>
<totfact> 0.36349216E+01</totfact>
</mgrwt>
</event>
<event>
 4    1  0.2502834E-007  0.8812783E+03  0.7818608E-02  0.9556780E-01
         -2   -1    0    0    0  501 -0.00000000000E+00  0.00000000000E+00  0.60141341541E+03  0.60141341542E+03  0.25500000000E-02 0.  1.
          2   -1    0    0  501    0  0.00000000000E+00 -0.00000000000E+00 -0.42493604560E+04  0.42493604560E+04  0.25500000000E-02 0. -1.
    8880023    1    1    2    0    0  0.57018617509E+03 -0.13315012909E+03  0.24210596876E+03  0.91392928474E+03  0.65864270000E+03 0.  0.
    8880022    1    1    2    0    0 -0.57018617509E+03  0.13315012909E+03 -0.38900530093E+04  0.39368445867E+04  0.15294330000E+03 0.  0.
<mgrwt>
<rscale>  0 0.80224030E+03</rscale>
<asrwt>0</asrwt>
<pdfrwt beam="1">  1        2 0.65374774E+00 0.88127830E+03</pdfrwt>
<pdfrwt beam="2">  1       -2 0.92525143E-01 0.88127830E+03</pdfrwt>
<totfact> 0.22751037E-01</totfact>
</mgrwt>
</event>
<event>
 4    1  0.2502834E-007  0.9645074E+03  0.7818608E-02  0.9429541E-01
         -2   -1    0    0    0  501 -0.00000000000E+00  0.00000000000E+00  0.56224743147E+03  0.56224743147E+03  0.25500000000E-02 0.  1.
          2   -1    0    0  501    0  0.00000000000E+00 -0.00000000000E+00 -0.29698407529E+04  0.29698407529E+04  0.25500000000E-02 0. -1.
    8880023    1    1    2    0    0  0.67378187763E+03 -0.20611211496E+03  0.55039452317E+02  0.96607648254E+03  0.65864270000E+03 0.  1.
    8880022    1    1    2    0    0 -0.67378187763E+03  0.20611211496E+03 -0.24626327737E+04  0.25660117018E+04  0.15294330000E+03 0.  0.
<mgrwt>
<rscale>  0 0.89683908E+03</rscale>
<asrwt>0</asrwt>
<pdfrwt beam="1">  1        2 0.45689857E+00 0.96450735E+03</pdfrwt>
<pdfrwt beam="2">  1       -2 0.86499607E-01 0.96450735E+03</pdfrwt>
<totfact> 0.21592488E+00</totfact>
</mgrwt>
</event>
<event>
 4    1  0.2502834E-007  0.9419320E+03  0.7818608E-02  0.9461818E-01
         -2   -1    0    0    0  501 -0.00000000000E+00  0.00000000000E+00  0.16362692180E+04  0.16362692180E+04  0.25500000000E-02 0.  1.
          2   -1    0    0  501    0  0.00000000000E+00 -0.00000000000E+00 -0.67745075358E+03  0.67745075359E+03  0.25500000000E-02 0. -1.
    8880023    1    1    2    0    0 -0.53942182150E+03  0.40305069495E+03  0.12492872972E+04  0.15645941076E+04  0.65864270000E+03 0.  1.
    8880022    1    1    2    0    0  0.53942182150E+03 -0.40305069495E+03 -0.29046883284E+03  0.74912586398E+03  0.15294330000E+03 0.  0.
<mgrwt>
<rscale>  0 0.87158288E+03</rscale>
<asrwt>0</asrwt>
<pdfrwt beam="1">  1        2 0.10422319E+00 0.94193204E+03</pdfrwt>
<pdfrwt beam="2">  1       -2 0.25173373E+00 0.94193204E+03</pdfrwt>
<totfact> 0.26913834E+00</totfact>
</mgrwt>
</event>
<event>
 4    1  0.2502834E-007  0.1283652E+04  0.7818608E-02  0.9079807E-01
         -2   -1    0    0    0  501 -0.00000000000E+00  0.00000000000E+00  0.75278827592E+03  0.75278827593E+03  0.25500000000E-02 0.  1.
          2   -1    0    0  501    0  0.00000000000E+00 -0.00000000000E+00 -0.27339683945E+04  0.27339683945E+04  0.25500000000E-02 0. -1.
    8880023    1    1    2    0    0  0.28869789613E+03  0.10632995069E+04 -0.82591741190E+02  0.12863063082E+04  0.65864270000E+03 0.  1.
    8880022    1    1    2    0    0 -0.28869789613E+03 -0.10632995069E+04 -0.18985883773E+04  0.22004503621E+04  0.15294330000E+03 0.  0.
<mgrwt>
<rscale>  0 0.12385022E+04</rscale>
<asrwt>0</asrwt>
<pdfrwt beam="1">  1        2 0.42061052E+00 0.12836520E+04</pdfrwt>
<pdfrwt beam="2">  1       -2 0.11581358E+00 0.12836520E+04</pdfrwt>
<totfact> 0.14308750E+00</totfact>
</mgrwt>
</event>
<event>
 4    1  0.2502834E-007  0.7865915E+03  0.7818608E-02  0.9740575E-01
          2   -1    0    0  501    0  0.00000000000E+00  0.00000000000E+00  0.23367271382E+04  0.23367271382E+04  0.25500000000E-02 0. -1.
         -2   -1    0    0    0  501 -0.00000000000E+00 -0.00000000000E+00 -0.26108089435E+03  0.26108089436E+03  0.25500000000E-02 0.  1.
    8880023    1    1    2    0    0 -0.42156955478E+03  0.84823889631E+02  0.44340776112E+03  0.90295992749E+03  0.65864270000E+03 0.  1.
    8880022    1    1    2    0    0  0.42156955478E+03 -0.84823889631E+02  0.16322384827E+04  0.16948481051E+04  0.15294330000E+03 0.  0.
<mgrwt>
<rscale>  0 0.68651509E+03</rscale>
<asrwt>0</asrwt>
<pdfrwt beam="1">  1        2 0.35949648E+00 0.78659150E+03</pdfrwt>
<pdfrwt beam="2">  1       -2 0.40166292E-01 0.78659150E+03</pdfrwt>
<totfact> 0.26237290E+01</totfact>
</mgrwt>
</event>
<event>
 4    1  0.2502834E-007  0.7741909E+03  0.7818608E-02  0.9769664E-01
          2   -1    0    0  501    0  0.00000000000E+00  0.00000000000E+00  0.17019225044E+04  0.17019225045E+04  0.25500000000E-02 0. -1.
         -2   -1    0    0    0  501 -0.00000000000E+00 -0.00000000000E+00 -0.12208211169E+04  0.12208211169E+04  0.25500000000E-02 0.  1.
    8880023    1    1    2    0    0  0.37917519022E+03  0.14760591919E+03 -0.10650208200E+04  0.13166779734E+04  0.65864270000E+03 0.  1.
    8880022    1    1    2    0    0 -0.37917519022E+03 -0.14760591919E+03  0.15461222075E+04  0.16060656480E+04  0.15294330000E+03 0.  0.
<mgrwt>
<rscale>  0 0.67016272E+03</rscale>
<asrwt>0</asrwt>
<pdfrwt beam="1">  1        2 0.26183423E+00 0.77419089E+03</pdfrwt>
<pdfrwt beam="2">  1       -2 0.18781863E+00 0.77419089E+03</pdfrwt>
<totfact> 0.16160354E+00</totfact>
</mgrwt>
</event>
<event>
 4    1  0.2502834E-007  0.1139169E+04  0.7818608E-02  0.9218650E-01
         -2   -1    0    0    0  501 -0.00000000000E+00  0.00000000000E+00  0.12315594201E+04  0.12315594201E+04  0.25500000000E-02 0.  1.
          2   -1    0    0  501    0  0.00000000000E+00 -0.00000000000E+00 -0.23929328837E+04  0.23929328837E+04  0.25500000000E-02 0. -1.
    8880023    1    1    2    0    0 -0.90799969324E+03  0.19857514746E+03  0.83809507418E+03  0.14142521316E+04  0.65864270000E+03 0.  1.
    8880022    1    1    2    0    0  0.90799969324E+03 -0.19857514746E+03 -0.19994685378E+04  0.22102401722E+04  0.15294330000E+03 0.  0.
<mgrwt>
<rscale>  0 0.10862983E+04</rscale>
<asrwt>0</asrwt>
<pdfrwt beam="1">  1        2 0.36814352E+00 0.11391689E+04</pdfrwt>
<pdfrwt beam="2">  1       -2 0.18947068E+00 0.11391689E+04</pdfrwt>
<totfact> 0.61644781E-01</totfact>
</mgrwt>
</event>
<event>
 4    1  0.2502834E-007  0.7156917E+03  0.7818608E-02  0.9937443E-01
         -2   -1    0    0    0  501 -0.00000000000E+00  0.00000000000E+00  0.24553529618E+03  0.24553529619E+03  0.25500000000E-02 0.  1.
          2   -1    0    0  501    0  0.00000000000E+00 -0.00000000000E+00 -0.28335529880E+04  0.28335529880E+04  0.25500000000E-02 0. -1.
    8880023    1    1    2    0    0 -0.12500974145E+03  0.25055330111E+03 -0.31187423806E+03  0.78069208961E+03  0.65864270000E+03 0.  1.
    8880022    1    1    2    0    0  0.12500974145E+03 -0.25055330111E+03 -0.22761434538E+04  0.22983961946E+04  0.15294330000E+03 0.  0.
<mgrwt>
<rscale>  0 0.58480469E+03</rscale>
<asrwt>0</asrwt>
<pdfrwt beam="1">  1        2 0.43593121E+00 0.71569169E+03</pdfrwt>
<pdfrwt beam="2">  1       -2 0.37774663E-01 0.71569169E+03</pdfrwt>
<totfact> 0.15496865E+01</totfact>
</mgrwt>
</event>
<event>
 4    1  0.2502834E-007  0.6933672E+03  0.7818608E-02  0.1002592E+00
         -2   -1    0    0    0  501 -0.00000000000E+00  0.00000000000E+00  0.35903622425E+03  0.35903622426E+03  0.25500000000E-02 0.  1.
          2   -1    0    0  501    0  0.00000000000E+00 -0.00000000000E+00 -0.90913122002E+03  0.90913122003E+03  0.25500000000E-02 0. -1.
    8880023    1    1    2    0    0 -0.12691843362E+03  0.17561196294E+03 -0.41540021975E+02  0.69461041600E+03  0.65864270000E+03 0.  1.
    8880022    1    1    2    0    0  0.12691843362E+03 -0.17561196294E+03 -0.50855497379E+03  0.57355702830E+03  0.15294330000E+03 0.  0.
<mgrwt>
<rscale>  0 0.54528353E+03</rscale>
<asrwt>0</asrwt>
<pdfrwt beam="1">  1        2 0.13986634E+00 0.69336719E+03</pdfrwt>
<pdfrwt beam="2">  1       -2 0.55236342E-01 0.69336719E+03</pdfrwt>
<totfact> 0.90640189E+01</totfact>
</mgrwt>
</event>
<event>
 4    1  0.2502834E-007  0.6799596E+03  0.7818608E-02  0.1009347E+00
         -2   -1    0    0    0  501 -0.00000000000E+00  0.00000000000E+00  0.86730113139E+02  0.86730113176E+02  0.25500000000E-02 0.  1.
          2   -1    0    0  501    0  0.00000000000E+00 -0.00000000000E+00 -0.37285893188E+04  0.37285893188E+04  0.25500000000E-02 0. -1.
    8880023    1    1    2    0    0  0.16630960583E+03  0.29596743341E+02 -0.13442448040E+04  0.15064325911E+04  0.65864270000E+03 0.  1.
    8880022    1    1    2    0    0 -0.16630960583E+03 -0.29596743341E+02 -0.22976144016E+04  0.23088868408E+04  0.15294330000E+03 0. -1.
<mgrwt>
<rscale>  0 0.51735181E+03</rscale>
<asrwt>0</asrwt>
<pdfrwt beam="1">  1        2 0.57362900E+00 0.67995960E+03</pdfrwt>
<pdfrwt beam="2">  1       -2 0.13343097E-01 0.67995960E+03</pdfrwt>
<totfact> 0.26104406E+01</totfact>
</mgrwt>
</event>
<event>
 4    1  0.2502834E-007  0.7927140E+03  0.7818608E-02  0.9726777E-01
         -2   -1    0    0    0  501 -0.00000000000E+00  0.00000000000E+00  0.40227434896E+03  0.40227434897E+03  0.25500000000E-02 0.  1.
          2   -1    0    0  501    0  0.00000000000E+00 -0.00000000000E+00 -0.34395370316E+04  0.34395370316E+04  0.25500000000E-02 0. -1.
    8880023    1    1    2    0    0  0.17461120964E+03 -0.40508794584E+03 -0.24505032497E+02  0.79309269400E+03  0.65864270000E+03 0.  1.
    8880022    1    1    2    0    0 -0.17461120964E+03  0.40508794584E+03 -0.30127576501E+04  0.30487186866E+04  0.15294330000E+03 0.  0.
<mgrwt>
<rscale>  0 0.69444640E+03</rscale>
<asrwt>0</asrwt>
<pdfrwt beam="1">  1        2 0.52915952E+00 0.79271402E+03</pdfrwt>
<pdfrwt beam="2">  1       -2 0.61888364E-01 0.79271402E+03</pdfrwt>
<totfact> 0.23340906E+00</totfact>
</mgrwt>
</event>
<event>
 4    1  0.2502834E-007  0.6623452E+03  0.7818608E-02  0.1021873E+00
          2   -1    0    0  501    0  0.00000000000E+00  0.00000000000E+00  0.18117562570E+04  0.18117562570E+04  0.25500000000E-02 0. -1.
         -2   -1    0    0    0  501 -0.00000000000E+00 -0.00000000000E+00 -0.57190357754E+03  0.57190357755E+03  0.25500000000E-02 0.  1.
    8880023    1    1    2    0    0  0.26153667560E+02  0.64861015256E+02 -0.37428642556E+03  0.76078347790E+03  0.65864270000E+03 0.  1.
    8880022    1    1    2    0    0 -0.26153667560E+02 -0.64861015256E+02  0.16141391051E+04  0.16228763567E+04  0.15294330000E+03 0.  0.
<mgrwt>
<rscale>  0 0.47016820E+03</rscale>
<asrwt>0</asrwt>
<pdfrwt beam="1">  1        2 0.27873173E+00 0.66234521E+03</pdfrwt>
<pdfrwt beam="2">  1       -2 0.87985168E-01 0.66234521E+03</pdfrwt>
<totfact> 0.98922892E+00</totfact>
</mgrwt>
</event>
<event>
 4    1  0.2502834E-007  0.9190678E+03  0.7818608E-02  0.9496090E-01
         -2   -1    0    0    0  501 -0.00000000000E+00  0.00000000000E+00  0.23504290423E+03  0.23504290425E+03  0.25500000000E-02 0.  1.
          2   -1    0    0  501    0  0.00000000000E+00 -0.00000000000E+00 -0.35565584320E+04  0.35565584320E+04  0.25500000000E-02 0. -1.
    8880023    1    1    2    0    0  0.20822122274E+03 -0.60623372772E+03 -0.91652978985E+03  0.12979647423E+04  0.65864270000E+03 0.  1.
    8880022    1    1    2    0    0 -0.20822122274E+03  0.60623372772E+03 -0.24049857379E+04  0.24936365940E+04  0.15294330000E+03 0.  0.
<mgrwt>
<rscale>  0 0.84572715E+03</rscale>
<asrwt>0</asrwt>
<pdfrwt beam="1">  1        2 0.54716280E+00 0.91906780E+03</pdfrwt>
<pdfrwt beam="2">  1       -2 0.36160449E-01 0.91906780E+03</pdfrwt>
<totfact> 0.56133936E+00</totfact>
</mgrwt>
</event>
<event>
 4    1  0.2502834E-007  0.1240705E+04  0.7818608E-02  0.9118535E-01
         -2   -1    0    0    0  501 -0.00000000000E+00  0.00000000000E+00  0.55515910019E+03  0.55515910019E+03  0.25500000000E-02 0.  1.
          2   -1    0    0  501    0  0.00000000000E+00 -0.00000000000E+00 -0.46063505727E+04  0.46063505727E+04  0.25500000000E-02 0. -1.
    8880023    1    1    2    0    0 -0.12682439250E+03 -0.10437691982E+04 -0.31905039082E+03  0.12810706162E+04  0.65864270000E+03 0.  1.
    8880022    1    1    2    0    0  0.12682439250E+03  0.10437691982E+04 -0.37321410817E+04  0.38804390566E+04  0.15294330000E+03 0.  0.
<mgrwt>
<rscale>  0 0.11935339E+04</rscale>
<asrwt>0</asrwt>
<pdfrwt beam="1">  1        2 0.70866929E+00 0.12407049E+04</pdfrwt>
<pdfrwt beam="2">  1       -2 0.85409095E-01 0.12407049E+04</pdfrwt>
<totfact> 0.11799317E-01</totfact>
</mgrwt>
</event>
<event>
 4    1  0.2502834E-007  0.8287638E+03  0.7818608E-02  0.9651742E-01
          2   -1    0    0  501    0  0.00000000000E+00  0.00000000000E+00  0.29500009666E+04  0.29500009666E+04  0.25500000000E-02 0. -1.
         -2   -1    0    0    0  501 -0.00000000000E+00 -0.00000000000E+00 -0.77578104889E+03  0.77578104889E+03  0.25500000000E-02 0.  1.
    8880023    1    1    2    0    0  0.61978253069E+02 -0.49919734403E+03 -0.52155224712E+03  0.97921715920E+03  0.65864270000E+03 0.  1.
    8880022    1    1    2    0    0 -0.61978253069E+02  0.49919734403E+03  0.26957721648E+04  0.27465648563E+04  0.15294330000E+03 0.  0.
<mgrwt>
<rscale>  0 0.73964177E+03</rscale>
<asrwt>0</asrwt>
<pdfrwt beam="1">  1        2 0.45384630E+00 0.82876384E+03</pdfrwt>
<pdfrwt beam="2">  1       -2 0.11935093E+00 0.82876384E+03</pdfrwt>
<totfact> 0.10561165E+00</totfact>
</mgrwt>
</event>
<event>
 4    1  0.2502834E-007  0.7377247E+03  0.7818608E-02  0.9866625E-01
         -2   -1    0    0    0  501 -0.00000000000E+00  0.00000000000E+00  0.35076356934E+03  0.35076356935E+03  0.25500000000E-02 0.  1.
          2   -1    0    0  501    0  0.00000000000E+00 -0.00000000000E+00 -0.22000839708E+04  0.22000839708E+04  0.25500000000E-02 0. -1.
    8880023    1    1    2    0    0 -0.20342116682E+03 -0.26276854208E+03 -0.77644330530E+02  0.74179938403E+03  0.65864270000E+03 0.  1.
    8880022    1    1    2    0    0  0.20342116682E+03  0.26276854208E+03 -0.17716760709E+04  0.18090481561E+04  0.15294330000E+03 0.  0.
<mgrwt>
<rscale>  0 0.61906394E+03</rscale>
<asrwt>0</asrwt>
<pdfrwt beam="1">  1        2 0.33847445E+00 0.73772467E+03</pdfrwt>
<pdfrwt beam="2">  1       -2 0.53963627E-01 0.73772467E+03</pdfrwt>
<totfact> 0.17383100E+01</totfact>
</mgrwt>
</event>
<event>
 4    1  0.2502834E-007  0.1159432E+04  0.7818608E-02  0.9197603E-01
         -2   -1    0    0    0  501 -0.00000000000E+00  0.00000000000E+00  0.92903404965E+03  0.92903404966E+03  0.25500000000E-02 0.  1.
          2   -1    0    0  501    0  0.00000000000E+00 -0.00000000000E+00 -0.27280219501E+04  0.27280219501E+04  0.25500000000E-02 0. -1.
    8880023    1    1    2    0    0 -0.92845665542E+03 -0.22009000190E+03  0.42287134469E+03  0.12341400854E+04  0.65864270000E+03 0.  0.
    8880022    1    1    2    0    0  0.92845665542E+03  0.22009000190E+03 -0.22218592452E+04  0.24229159144E+04  0.15294330000E+03 0.  0.
<mgrwt>
<rscale>  0 0.11078201E+04</rscale>
<asrwt>0</asrwt>
<pdfrwt beam="1">  1        2 0.41969568E+00 0.11594316E+04</pdfrwt>
<pdfrwt beam="2">  1       -2 0.14292832E+00 0.11594316E+04</pdfrwt>
<totfact> 0.85792337E-01</totfact>
</mgrwt>
</event>
<event>
 4    1  0.2502834E-007  0.6671277E+03  0.7818608E-02  0.1017811E+00
          2   -1    0    0  501    0  0.00000000000E+00  0.00000000000E+00  0.16952563100E+04  0.16952563100E+04  0.25500000000E-02 0. -1.
         -2   -1    0    0    0  501 -0.00000000000E+00 -0.00000000000E+00 -0.43243833512E+03  0.43243833512E+03  0.25500000000E-02 0.  1.
    8880023    1    1    2    0    0 -0.99739779534E+02  0.36071383381E+02 -0.16546069778E+03  0.68734024842E+03  0.65864270000E+03 0.  1.
    8880022    1    1    2    0    0  0.99739779534E+02 -0.36071383381E+02  0.14282786727E+04  0.14403543967E+04  0.15294330000E+03 0.  0.
<mgrwt>
<rscale>  0 0.48484761E+03</rscale>
<asrwt>0</asrwt>
<pdfrwt beam="1">  1        2 0.26080866E+00 0.66712770E+03</pdfrwt>
<pdfrwt beam="2">  1       -2 0.66528975E-01 0.66712770E+03</pdfrwt>
<totfact> 0.21289386E+01</totfact>
</mgrwt>
</event>
<event>
 4    1  0.2502834E-007  0.9680245E+03  0.7818608E-02  0.9424642E-01
         -2   -1    0    0    0  501 -0.00000000000E+00  0.00000000000E+00  0.12234755528E+04  0.12234755528E+04  0.25500000000E-02 0.  1.
          2   -1    0    0  501    0  0.00000000000E+00 -0.00000000000E+00 -0.12434933071E+04  0.12434933071E+04  0.25500000000E-02 0. -1.
    8880023    1    1    2    0    0 -0.51837237997E+03 -0.48430500772E+03  0.88178108540E+03  0.13094309274E+04  0.65864270000E+03 0.  1.
    8880022    1    1    2    0    0  0.51837237997E+03  0.48430500772E+03 -0.90179883974E+03  0.11575379325E+04  0.15294330000E+03 0.  0.
<mgrwt>
<rscale>  0 0.90075220E+03</rscale>
<asrwt>0</asrwt>
<pdfrwt beam="1">  1        2 0.19130666E+00 0.96802452E+03</pdfrwt>
<pdfrwt beam="2">  1       -2 0.18822701E+00 0.96802452E+03</pdfrwt>
<totfact> 0.28305907E+00</totfact>
</mgrwt>
</event>
<event>
 4    1  0.2502834E-007  0.6652649E+03  0.7818608E-02  0.1019312E+00
         -2   -1    0    0    0  501 -0.00000000000E+00  0.00000000000E+00  0.60713337655E+03  0.60713337655E+03  0.25500000000E-02 0.  1.
          2   -1    0    0  501    0  0.00000000000E+00 -0.00000000000E+00 -0.61493099823E+03  0.61493099823E+03  0.25500000000E-02 0. -1.
    8880023    1    1    2    0    0  0.93632849112E+02  0.81838280949E-01  0.40022361153E+03  0.77637379053E+03  0.65864270000E+03 0.  1.
    8880022    1    1    2    0    0 -0.93632849112E+02 -0.81838280949E-01 -0.40802123321E+03  0.44569058426E+03  0.15294330000E+03 0.  0.
<mgrwt>
<rscale>  0 0.47935622E+03</rscale>
<asrwt>0</asrwt>
<pdfrwt beam="1">  1        2 0.94604770E-01 0.66526485E+03</pdfrwt>
<pdfrwt beam="2">  1       -2 0.93405134E-01 0.66526485E+03</pdfrwt>
<totfact> 0.47560964E+01</totfact>
</mgrwt>
</event>
<event>
 4    1  0.2502834E-007  0.1881523E+04  0.7818608E-02  0.8678733E-01
          2   -1    0    0  501    0  0.00000000000E+00  0.00000000000E+00  0.30631195671E+04  0.30631195671E+04  0.25500000000E-02 0. -1.
         -2   -1    0    0    0  501 -0.00000000000E+00 -0.00000000000E+00 -0.13840939489E+04  0.13840939489E+04  0.25500000000E-02 0.  1.
    8880023    1    1    2    0    0 -0.17304772944E+04  0.33431388773E+03  0.18884315468E+04  0.26657646849E+04  0.65864270000E+03 0. -1.
    8880022    1    1    2    0    0  0.17304772944E+04 -0.33431388773E+03 -0.20940592860E+03  0.17814488311E+04  0.15294330000E+03 0.  0.
<mgrwt>
<rscale>  0 0.18527640E+04</rscale>
<asrwt>0</asrwt>
<pdfrwt beam="1">  1        2 0.47124916E+00 0.18815227E+04</pdfrwt>
<pdfrwt beam="2">  1       -2 0.21293753E+00 0.18815227E+04</pdfrwt>
<totfact> 0.15715432E-01</totfact>
</mgrwt>
</event>
<event>
 4    1  0.2502834E-007  0.1257938E+04  0.7818608E-02  0.9102762E-01
         -2   -1    0    0    0  501 -0.00000000000E+00  0.00000000000E+00  0.11859670532E+04  0.11859670532E+04  0.25500000000E-02 0.  1.
          2   -1    0    0  501    0  0.00000000000E+00 -0.00000000000E+00 -0.17129228095E+04  0.17129228095E+04  0.25500000000E-02 0. -1.
    8880023    1    1    2    0    0 -0.10447222766E+04  0.23906841591E+03  0.54904030569E+03  0.13725355391E+04  0.65864270000E+03 0.  0.
    8880022    1    1    2    0    0  0.10447222766E+04 -0.23906841591E+03 -0.10759960621E+04  0.15263543236E+04  0.15294330000E+03 0.  0.
<mgrwt>
<rscale>  0 0.12116020E+04</rscale>
<asrwt>0</asrwt>
<pdfrwt beam="1">  1        2 0.26352659E+00 0.12579382E+04</pdfrwt>
<pdfrwt beam="2">  1       -2 0.18245647E+00 0.12579382E+04</pdfrwt>
<totfact> 0.16222083E+00</totfact>
</mgrwt>
</event>
<event>
 4    1  0.2502834E-007  0.6609745E+03  0.7818608E-02  0.1023180E+00
         -2   -1    0    0    0  501 -0.00000000000E+00  0.00000000000E+00  0.47503201063E+03  0.47503201064E+03  0.25500000000E-02 0.  1.
          2   -1    0    0  501    0  0.00000000000E+00 -0.00000000000E+00 -0.17942784726E+04  0.17942784726E+04  0.25500000000E-02 0. -1.
    8880023    1    1    2    0    0  0.44564854450E+02  0.33031441001E+02  0.23880267887E+03  0.70279017356E+03  0.65864270000E+03 0.  1.
    8880022    1    1    2    0    0 -0.44564854450E+02 -0.33031441001E+02 -0.15580491409E+04  0.15665203097E+04  0.15294330000E+03 0.  0.
<mgrwt>
<rscale>  0 0.46556490E+03</rscale>
<asrwt>0</asrwt>
<pdfrwt beam="1">  1        2 0.27604284E+00 0.66097451E+03</pdfrwt>
<pdfrwt beam="2">  1       -2 0.73081849E-01 0.66097451E+03</pdfrwt>
<totfact> 0.15341023E+01</totfact>
</mgrwt>
</event>
<event>
 4    1  0.2502834E-007  0.1248056E+04  0.7818608E-02  0.9111768E-01
          2   -1    0    0  501    0  0.00000000000E+00  0.00000000000E+00  0.34504802143E+04  0.34504802143E+04  0.25500000000E-02 0. -1.
         -2   -1    0    0    0  501 -0.00000000000E+00 -0.00000000000E+00 -0.10255766082E+04  0.10255766082E+04  0.25500000000E-02 0.  1.
    8880023    1    1    2    0    0 -0.82616744913E+03  0.66428887802E+03 -0.51271410072E+03  0.13492658459E+04  0.65864270000E+03 0.  1.
    8880022    1    1    2    0    0  0.82616744913E+03 -0.66428887802E+03  0.29376177068E+04  0.31267909767E+04  0.15294330000E+03 0.  0.
<mgrwt>
<rscale>  0 0.12012446E+04</rscale>
<asrwt>0</asrwt>
<pdfrwt beam="1">  1        2 0.53084311E+00 0.12480555E+04</pdfrwt>
<pdfrwt beam="2">  1       -2 0.15778102E+00 0.12480555E+04</pdfrwt>
<totfact> 0.22694983E-01</totfact>
</mgrwt>
</event>
<event>
 4    1  0.2502834E-007  0.7052062E+03  0.7818608E-02  0.9976253E-01
         -2   -1    0    0    0  501 -0.00000000000E+00  0.00000000000E+00  0.82404120307E+03  0.82404120307E+03  0.25500000000E-02 0.  1.
          2   -1    0    0  501    0  0.00000000000E+00 -0.00000000000E+00 -0.97255980389E+03  0.97255980389E+03  0.25500000000E-02 0. -1.
    8880023    1    1    2    0    0  0.13974578772E+03  0.20970626187E+03  0.64152923615E+03  0.95334965702E+03  0.65864270000E+03 0.  1.
    8880022    1    1    2    0    0 -0.13974578772E+03 -0.20970626187E+03 -0.79004783697E+03  0.84325134994E+03  0.15294330000E+03 0.  0.
<mgrwt>
<rscale>  0 0.56703890E+03</rscale>
<asrwt>0</asrwt>
<pdfrwt beam="1">  1        2 0.14962459E+00 0.70520622E+03</pdfrwt>
<pdfrwt beam="2">  1       -2 0.12677557E+00 0.70520622E+03</pdfrwt>
<totfact> 0.12412848E+01</totfact>
</mgrwt>
</event>
<event>
 4    1  0.2502834E-007  0.1131255E+04  0.7818608E-02  0.9227030E-01
          2   -1    0    0  501    0  0.00000000000E+00  0.00000000000E+00  0.16416556512E+04  0.16416556512E+04  0.25500000000E-02 0. -1.
         -2   -1    0    0    0  501 -0.00000000000E+00 -0.00000000000E+00 -0.72844702801E+03  0.72844702802E+03  0.25500000000E-02 0.  1.
    8880023    1    1    2    0    0  0.73266943009E+03  0.55598852483E+03  0.10485676872E+03  0.11361042565E+04  0.65864270000E+03 0.  0.
    8880022    1    1    2    0    0 -0.73266943009E+03 -0.55598852483E+03  0.80835185447E+03  0.12339984227E+04  0.15294330000E+03 0.  0.
<mgrwt>
<rscale>  0 0.10778735E+04</rscale>
<asrwt>0</asrwt>
<pdfrwt beam="1">  1        2 0.25256241E+00 0.11312550E+04</pdfrwt>
<pdfrwt beam="2">  1       -2 0.11206877E+00 0.11312550E+04</pdfrwt>
<totfact> 0.65199810E+00</totfact>
</mgrwt>
</event>
<event>
 4    1  0.2502834E-007  0.7072761E+03  0.7818608E-02  0.9968259E-01
          2   -1    0    0  501    0  0.00000000000E+00  0.00000000000E+00  0.88043140915E+03  0.88043140916E+03  0.25500000000E-02 0. -1.
         -2   -1    0    0    0  501 -0.00000000000E+00 -0.00000000000E+00 -0.75109762974E+03  0.75109762974E+03  0.25500000000E-02 0.  1.
    8880023    1    1    2    0    0 -0.25640496935E+03 -0.26186244041E+02 -0.54545798807E+03  0.89317627079E+03  0.65864270000E+03 0.  1.
    8880022    1    1    2    0    0  0.25640496935E+03  0.26186244041E+02  0.67479176749E+03  0.73835276811E+03  0.15294330000E+03 0.  0.
<mgrwt>
<rscale>  0 0.57064220E+03</rscale>
<asrwt>0</asrwt>
<pdfrwt beam="1">  1        2 0.13545099E+00 0.70727607E+03</pdfrwt>
<pdfrwt beam="2">  1       -2 0.11555348E+00 0.70727607E+03</pdfrwt>
<totfact> 0.17972813E+01</totfact>
</mgrwt>
</event>
<event>
 4    1  0.2993005E-007  0.1389704E+04  0.7818608E-02  0.8991725E-01
         -2   -1    0    0    0  501 -0.00000000000E+00  0.00000000000E+00  0.17844257771E+04  0.17844257771E+04  0.25500000000E-02 0.  1.
          2   -1    0    0  501    0  0.00000000000E+00 -0.00000000000E+00 -0.26083203500E+04  0.26083203500E+04  0.25500000000E-02 0. -1.
    8880023    1    1    2    0    0 -0.25157456094E+03 -0.11975711722E+04  0.13217846736E+04  0.19179132936E+04  0.65864270000E+03 0.  0.
    8880022    1    1    2    0    0  0.25157456094E+03  0.11975711722E+04 -0.21456792465E+04  0.24748328335E+04  0.15294330000E+03 0.  0.
<mgrwt>
<rscale>  0 0.13488162E+04</rscale>
<asrwt>0</asrwt>
<pdfrwt beam="1">  1        2 0.40128006E+00 0.13897038E+04</pdfrwt>
<pdfrwt beam="2">  1       -2 0.27452704E+00 0.13897038E+04</pdfrwt>
<totfact> 0.13034872E-01</totfact>
</mgrwt>
</event>
<event>
 4    1  0.2502834E-007  0.6772904E+03  0.7818608E-02  0.1010900E+00
         -2   -1    0    0    0  501 -0.00000000000E+00  0.00000000000E+00  0.38431649126E+03  0.38431649127E+03  0.25500000000E-02 0.  1.
          2   -1    0    0  501    0  0.00000000000E+00 -0.00000000000E+00 -0.30609157757E+04  0.30609157757E+04  0.25500000000E-02 0. -1.
    8880023    1    1    2    0    0  0.88059388684E+02 -0.13098700400E+03  0.78100829608E+02  0.68177855423E+03  0.65864270000E+03 0.  1.
    8880022    1    1    2    0    0 -0.88059388684E+02  0.13098700400E+03 -0.27547001141E+04  0.27634537128E+04  0.15294330000E+03 0.  0.
<mgrwt>
<rscale>  0 0.51118574E+03</rscale>
<asrwt>0</asrwt>
<pdfrwt beam="1">  1        2 0.47091010E+00 0.67729038E+03</pdfrwt>
<pdfrwt beam="2">  1       -2 0.59125616E-01 0.67729038E+03</pdfrwt>
<totfact> 0.46181310E+00</totfact>
</mgrwt>
</event>
<event>
 4    1  0.3832532E-007  0.9589809E+03  0.7818608E-02  0.9437309E-01
          2   -1    0    0  501    0  0.00000000000E+00  0.00000000000E+00  0.35031220664E+04  0.35031220664E+04  0.25500000000E-02 0. -1.
         -2   -1    0    0    0  501 -0.00000000000E+00 -0.00000000000E+00 -0.22447878944E+04  0.22447878944E+04  0.25500000000E-02 0.  1.
    8880023    1    1    2    0    0  0.53252825814E+03  0.44971972992E+03 -0.21031755605E+04  0.23114912558E+04  0.65864270000E+03 0.  1.
    8880022    1    1    2    0    0 -0.53252825814E+03 -0.44971972992E+03  0.33615097325E+04  0.34364187050E+04  0.15294330000E+03 0.  0.
<mgrwt>
<rscale>  0 0.89067913E+03</rscale>
<asrwt>0</asrwt>
<pdfrwt beam="1">  1        2 0.53894186E+00 0.95898091E+03</pdfrwt>
<pdfrwt beam="2">  1       -2 0.34535198E+00 0.95898091E+03</pdfrwt>
<totfact> 0.14303656E-02</totfact>
</mgrwt>
</event>
<event>
 4    1  0.2502834E-007  0.8568618E+03  0.7818608E-02  0.9599170E-01
         -2   -1    0    0    0  501 -0.00000000000E+00  0.00000000000E+00  0.71240658361E+03  0.71240658362E+03  0.25500000000E-02 0.  1.
          2   -1    0    0  501    0  0.00000000000E+00 -0.00000000000E+00 -0.11263235721E+04  0.11263235721E+04  0.25500000000E-02 0. -1.
    8880023    1    1    2    0    0 -0.45587733746E+02 -0.54619018093E+03  0.31595140032E+03  0.91325650769E+03  0.65864270000E+03 0.  0.
    8880022    1    1    2    0    0  0.45587733746E+02  0.54619018093E+03 -0.72986838881E+03  0.92547364803E+03  0.15294330000E+03 0.  0.
<mgrwt>
<rscale>  0 0.77351123E+03</rscale>
<asrwt>0</asrwt>
<pdfrwt beam="1">  1        2 0.17328055E+00 0.85686181E+03</pdfrwt>
<pdfrwt beam="2">  1       -2 0.10960101E+00 0.85686181E+03</pdfrwt>
<totfact> 0.14005035E+01</totfact>
</mgrwt>
</event>
<event>
 4    1  0.2502834E-007  0.1713675E+04  0.7818608E-02  0.8771854E-01
          2   -1    0    0  501    0  0.00000000000E+00  0.00000000000E+00  0.31792334408E+04  0.31792334408E+04  0.25500000000E-02 0. -1.
         -2   -1    0    0    0  501 -0.00000000000E+00 -0.00000000000E+00 -0.15351134043E+04  0.15351134043E+04  0.25500000000E-02 0.  1.
    8880023    1    1    2    0    0  0.34866268602E+03 -0.15431484298E+04 -0.72559562746E+03  0.18609599582E+04  0.65864270000E+03 0.  1.
    8880022    1    1    2    0    0 -0.34866268602E+03  0.15431484298E+04  0.23697156640E+04  0.28533868869E+04  0.15294330000E+03 0.  0.
<mgrwt>
<rscale>  0 0.16817299E+04</rscale>
<asrwt>0</asrwt>
<pdfrwt beam="1">  1        2 0.48911283E+00 0.17136753E+04</pdfrwt>
<pdfrwt beam="2">  1       -2 0.23617129E+00 0.17136753E+04</pdfrwt>
<totfact> 0.96029271E-02</totfact>
</mgrwt>
</event>
<event>
 4    1  0.2502834E-007  0.8192415E+03  0.7818608E-02  0.9670639E-01
         -2   -1    0    0    0  501 -0.00000000000E+00  0.00000000000E+00  0.51384650039E+03  0.51384650039E+03  0.25500000000E-02 0.  1.
          2   -1    0    0  501    0  0.00000000000E+00 -0.00000000000E+00 -0.19758304377E+04  0.19758304377E+04  0.25500000000E-02 0. -1.
    8880023    1    1    2    0    0  0.63142048046E+02 -0.48307302718E+03  0.11940002873E+03  0.82789675742E+03  0.65864270000E+03 0.  1.
    8880022    1    1    2    0    0 -0.63142048046E+02  0.48307302718E+03 -0.15813839661E+04  0.16617801807E+04  0.15294330000E+03 0.  0.
<mgrwt>
<rscale>  0 0.72792148E+03</rscale>
<asrwt>0</asrwt>
<pdfrwt beam="1">  1        2 0.30397391E+00 0.81924152E+03</pdfrwt>
<pdfrwt beam="2">  1       -2 0.79053309E-01 0.81924152E+03</pdfrwt>
<totfact> 0.10024509E+01</totfact>
</mgrwt>
</event>
<event>
 4    1  0.2502834E-007  0.6956992E+03  0.7818608E-02  0.1001553E+00
         -2   -1    0    0    0  501 -0.00000000000E+00  0.00000000000E+00  0.60974478584E+03  0.60974478585E+03  0.25500000000E-02 0.  1.
          2   -1    0    0  501    0  0.00000000000E+00 -0.00000000000E+00 -0.26735680611E+04  0.26735680611E+04  0.25500000000E-02 0. -1.
    8880023    1    1    2    0    0  0.22312811746E+03  0.20025383004E+02  0.40141198089E+03  0.80319920159E+03  0.65864270000E+03 0.  1.
    8880022    1    1    2    0    0 -0.22312811746E+03 -0.20025383004E+02 -0.24652352561E+04  0.24801136454E+04  0.15294330000E+03 0.  0.
<mgrwt>
<rscale>  0 0.54974367E+03</rscale>
<asrwt>0</asrwt>
<pdfrwt beam="1">  1        2 0.41131816E+00 0.69569920E+03</pdfrwt>
<pdfrwt beam="2">  1       -2 0.93806892E-01 0.69569920E+03</pdfrwt>
<totfact> 0.28219060E+00</totfact>
</mgrwt>
</event>
<event>
 4    1  0.2502834E-007  0.1027271E+04  0.7818608E-02  0.9346717E-01
         -2   -1    0    0    0  501 -0.00000000000E+00  0.00000000000E+00  0.66449208399E+03  0.66449208400E+03  0.25500000000E-02 0.  1.
          2   -1    0    0  501    0  0.00000000000E+00 -0.00000000000E+00 -0.22009765700E+04  0.22009765700E+04  0.25500000000E-02 0. -1.
    8880023    1    1    2    0    0  0.78359230988E+03 -0.86364971630E+02  0.11044401017E+03  0.10331911256E+04  0.65864270000E+03 0.  1.
    8880022    1    1    2    0    0 -0.78359230988E+03  0.86364971630E+02 -0.16469284962E+04  0.18322775284E+04  0.15294330000E+03 0.  0.
<mgrwt>
<rscale>  0 0.96593439E+03</rscale>
<asrwt>0</asrwt>
<pdfrwt beam="1">  1        2 0.33861178E+00 0.10272712E+04</pdfrwt>
<pdfrwt beam="2">  1       -2 0.10222955E+00 0.10272712E+04</pdfrwt>
<totfact> 0.40408069E+00</totfact>
</mgrwt>
</event>
<event>
 4    1  0.2502834E-007  0.8162408E+03  0.7818608E-02  0.9676721E-01
          2   -1    0    0  501    0  0.00000000000E+00  0.00000000000E+00  0.75351606021E+03  0.75351606022E+03  0.25500000000E-02 0. -1.
         -2   -1    0    0    0  501 -0.00000000000E+00 -0.00000000000E+00 -0.10215572720E+04  0.10215572720E+04  0.25500000000E-02 0.  1.
    8880023    1    1    2    0    0 -0.36866250479E+03 -0.31068768070E+03 -0.72627090662E+03  0.10925742599E+04  0.65864270000E+03 0.  1.
    8880022    1    1    2    0    0  0.36866250479E+03  0.31068768070E+03  0.45822969486E+03  0.68249907227E+03  0.15294330000E+03 0.  0.
<mgrwt>
<rscale>  0 0.72419877E+03</rscale>
<asrwt>0</asrwt>
<pdfrwt beam="1">  1        2 0.11592555E+00 0.81624082E+03</pdfrwt>
<pdfrwt beam="2">  1       -2 0.15716266E+00 0.81624082E+03</pdfrwt>
<totfact> 0.99460836E+00</totfact>
</mgrwt>
</event>
<event>
 4    1  0.2502834E-007  0.8242037E+03  0.7818608E-02  0.9660717E-01
          2   -1    0    0  501    0  0.00000000000E+00  0.00000000000E+00  0.80011460440E+03  0.80011460440E+03  0.25500000000E-02 0. -1.
         -2   -1    0    0    0  501 -0.00000000000E+00 -0.00000000000E+00 -0.95601630736E+03  0.95601630737E+03  0.25500000000E-02 0.  1.
    8880023    1    1    2    0    0 -0.15501220596E+02  0.49523858138E+03 -0.64248527560E+03  0.10450354424E+04  0.65864270000E+03 0.  1.
    8880022    1    1    2    0    0  0.15501220596E+02 -0.49523858138E+03  0.48658357263E+03  0.71109546933E+03  0.15294330000E+03 0.  0.
<mgrwt>
<rscale>  0 0.73404621E+03</rscale>
<asrwt>0</asrwt>
<pdfrwt beam="1">  1        2 0.12309455E+00 0.82420370E+03</pdfrwt>
<pdfrwt beam="2">  1       -2 0.14707943E+00 0.82420370E+03</pdfrwt>
<totfact> 0.10957341E+01</totfact>
</mgrwt>
</event>
<event>
 4    1  0.2502834E-007  0.9518959E+03  0.7818608E-02  0.9447391E-01
          2   -1    0    0  501    0  0.00000000000E+00  0.00000000000E+00  0.18225882702E+04  0.18225882702E+04  0.25500000000E-02 0. -1.
         -2   -1    0    0    0  501 -0.00000000000E+00 -0.00000000000E+00 -0.51140156678E+03  0.51140156678E+03  0.25500000000E-02 0.  1.
    8880023    1    1    2    0    0  0.24308753352E+03 -0.64280955291E+03  0.13254558098E+03  0.96107970927E+03  0.65864270000E+03 0.  0.
    8880022    1    1    2    0    0 -0.24308753352E+03  0.64280955291E+03  0.11786411225E+04  0.13729101277E+04  0.15294330000E+03 0.  0.
<mgrwt>
<rscale>  0 0.88276089E+03</rscale>
<asrwt>0</asrwt>
<pdfrwt beam="1">  1        2 0.28039820E+00 0.95189594E+03</pdfrwt>
<pdfrwt beam="2">  1       -2 0.78677163E-01 0.95189594E+03</pdfrwt>
<totfact> 0.12094570E+01</totfact>
</mgrwt>
</event>
<event>
 4    1  0.2502834E-007  0.8113905E+03  0.7818608E-02  0.9686688E-01
         -2   -1    0    0    0  501 -0.00000000000E+00  0.00000000000E+00  0.22475059967E+03  0.22475059969E+03  0.25500000000E-02 0.  1.
          2   -1    0    0  501    0  0.00000000000E+00 -0.00000000000E+00 -0.19299446643E+04  0.19299446643E+04  0.25500000000E-02 0. -1.
    8880023    1    1    2    0    0 -0.46484226522E+03  0.92010903339E+02 -0.93998201165E+03  0.12417410062E+04  0.65864270000E+03 0. -1.
    8880022    1    1    2    0    0  0.46484226522E+03 -0.92010903339E+02 -0.76521205298E+03  0.91295425785E+03  0.15294330000E+03 0.  1.
<mgrwt>
<rscale>  0 0.71814954E+03</rscale>
<asrwt>0</asrwt>
<pdfrwt beam="1">  1        2 0.29691455E+00 0.81139050E+03</pdfrwt>
<pdfrwt beam="2">  1       -2 0.34577017E-01 0.81139050E+03</pdfrwt>
<totfact> 0.58493659E+01</totfact>
</mgrwt>
</event>
<event>
 4    1  0.3752247E-007  0.9924643E+03  0.7818608E-02  0.9391484E-01
          2   -1    0    0  501    0  0.00000000000E+00  0.00000000000E+00  0.23169447790E+04  0.23169447790E+04  0.25500000000E-02 0. -1.
         -2   -1    0    0    0  501 -0.00000000000E+00 -0.00000000000E+00 -0.21325261723E+04  0.21325261723E+04  0.25500000000E-02 0.  1.
    8880023    1    1    2    0    0  0.62872543680E+03  0.39481567911E+03 -0.19480473564E+04  0.21862922504E+04  0.65864270000E+03 0.  0.
    8880022    1    1    2    0    0 -0.62872543680E+03 -0.39481567911E+03  0.21324659630E+04  0.22631787008E+04  0.15294330000E+03 0.  0.
<mgrwt>
<rscale>  0 0.92779861E+03</rscale>
<asrwt>0</asrwt>
<pdfrwt beam="1">  1        2 0.35645304E+00 0.99246426E+03</pdfrwt>
<pdfrwt beam="2">  1       -2 0.32808095E+00 0.99246426E+03</pdfrwt>
<totfact> 0.96615689E-02</totfact>
</mgrwt>
</event>
<event>
 4    1  0.2502834E-007  0.9296436E+03  0.7818608E-02  0.9480028E-01
         -2   -1    0    0    0  501 -0.00000000000E+00  0.00000000000E+00  0.11097001803E+04  0.11097001803E+04  0.25500000000E-02 0.  1.
          2   -1    0    0  501    0  0.00000000000E+00 -0.00000000000E+00 -0.11073856689E+04  0.11073856689E+04  0.25500000000E-02 0. -1.
    8880023    1    1    2    0    0 -0.45113916069E+03  0.47634076333E+03  0.76178377885E+03  0.12018950857E+04  0.65864270000E+03 0.  1.
    8880022    1    1    2    0    0  0.45113916069E+03 -0.47634076333E+03 -0.75946926737E+03  0.10151907635E+04  0.15294330000E+03 0.  0.
<mgrwt>
<rscale>  0 0.85772422E+03</rscale>
<asrwt>0</asrwt>
<pdfrwt beam="1">  1        2 0.17036703E+00 0.92964363E+03</pdfrwt>
<pdfrwt beam="2">  1       -2 0.17072310E+00 0.92964363E+03</pdfrwt>
<totfact> 0.45353224E+00</totfact>
</mgrwt>
</event>
<event>
 4    1  0.2502834E-007  0.9917668E+03  0.7818608E-02  0.9392409E-01
         -2   -1    0    0    0  501 -0.00000000000E+00  0.00000000000E+00  0.32570805634E+04  0.32570805634E+04  0.25500000000E-02 0.  1.
          2   -1    0    0  501    0  0.00000000000E+00 -0.00000000000E+00 -0.54081208658E+03  0.54081208659E+03  0.25500000000E-02 0. -1.
    8880023    1    1    2    0    0  0.74100709129E+03 -0.26452097615E+02  0.28601797818E+04  0.30272478943E+04  0.65864270000E+03 0.  0.
    8880022    1    1    2    0    0 -0.74100709129E+03  0.26452097615E+02 -0.14391130499E+03  0.77064475572E+03  0.15294330000E+03 0.  0.
<mgrwt>
<rscale>  0 0.92703009E+03</rscale>
<asrwt>0</asrwt>
<pdfrwt beam="1">  1        2 0.83201861E-01 0.99176682E+03</pdfrwt>
<pdfrwt beam="2">  1       -2 0.50108931E+00 0.99176682E+03</pdfrwt>
<totfact> 0.92428828E-02</totfact>
</mgrwt>
</event>
<event>
 4    1  0.2502834E-007  0.1155616E+04  0.7818608E-02  0.9201522E-01
         -2   -1    0    0    0  501 -0.00000000000E+00  0.00000000000E+00  0.17991933411E+04  0.17991933411E+04  0.25500000000E-02 0.  1.
          2   -1    0    0  501    0  0.00000000000E+00 -0.00000000000E+00 -0.72327129403E+03  0.72327129403E+03  0.25500000000E-02 0. -1.
    8880023    1    1    2    0    0  0.25808952934E+03 -0.91379888991E+03  0.10483506869E+04  0.15602845848E+04  0.65864270000E+03 0.  0.
    8880022    1    1    2    0    0 -0.25808952934E+03  0.91379888991E+03  0.27571360103E+02  0.96218005034E+03  0.15294330000E+03 0.  0.
<mgrwt>
<rscale>  0 0.11037729E+04</rscale>
<asrwt>0</asrwt>
<pdfrwt beam="1">  1        2 0.11127251E+00 0.11556162E+04</pdfrwt>
<pdfrwt beam="2">  1       -2 0.27679897E+00 0.11556162E+04</pdfrwt>
<totfact> 0.17037952E+00</totfact>
</mgrwt>
</event>
<event>
 4    1  0.2502834E-007  0.1040214E+04  0.7818608E-02  0.9330739E-01
         -2   -1    0    0    0  501 -0.00000000000E+00  0.00000000000E+00  0.64515799710E+03  0.64515799711E+03  0.25500000000E-02 0.  1.
          2   -1    0    0  501    0  0.00000000000E+00 -0.00000000000E+00 -0.24526095032E+04  0.24526095032E+04  0.25500000000E-02 0. -1.
    8880023    1    1    2    0    0 -0.11388110387E+03  0.79703618686E+03  0.76763468607E+02  0.10430428684E+04  0.65864270000E+03 0.  0.
    8880022    1    1    2    0    0  0.11388110387E+03 -0.79703618686E+03 -0.18842149747E+04  0.20547246319E+04  0.15294330000E+03 0.  0.
<mgrwt>
<rscale>  0 0.98001597E+03</rscale>
<asrwt>0</asrwt>
<pdfrwt beam="1">  1        2 0.37732453E+00 0.10402143E+04</pdfrwt>
<pdfrwt beam="2">  1       -2 0.99255078E-01 0.10402143E+04</pdfrwt>
<totfact> 0.31245797E+00</totfact>
</mgrwt>
</event>
<event>
 4    1  0.2502834E-007  0.8929666E+03  0.7818608E-02  0.9537418E-01
         -2   -1    0    0    0  501 -0.00000000000E+00  0.00000000000E+00  0.86805687621E+03  0.86805687621E+03  0.25500000000E-02 0.  1.
          2   -1    0    0  501    0  0.00000000000E+00 -0.00000000000E+00 -0.17141581637E+04  0.17141581637E+04  0.25500000000E-02 0. -1.
    8880023    1    1    2    0    0  0.57307302359E+03  0.18752697394E+03  0.55350069236E+03  0.10505961541E+04  0.65864270000E+03 0.  0.
    8880022    1    1    2    0    0 -0.57307302359E+03 -0.18752697394E+03 -0.13996019799E+04  0.15316188858E+04  0.15294330000E+03 0.  0.
<mgrwt>
<rscale>  0 0.81580461E+03</rscale>
<asrwt>0</asrwt>
<pdfrwt beam="1">  1        2 0.26371664E+00 0.89296655E+03</pdfrwt>
<pdfrwt beam="2">  1       -2 0.13354721E+00 0.89296655E+03</pdfrwt>
<totfact> 0.39395049E+00</totfact>
</mgrwt>
</event>
<event>
 4    1  0.2502834E-007  0.6787878E+03  0.7818608E-02  0.1010018E+00
         -2   -1    0    0    0  501 -0.00000000000E+00  0.00000000000E+00  0.25762964975E+03  0.25762964976E+03  0.25500000000E-02 0.  1.
          2   -1    0    0  501    0  0.00000000000E+00 -0.00000000000E+00 -0.97235117297E+03  0.97235117297E+03  0.25500000000E-02 0. -1.
    8880023    1    1    2    0    0 -0.38026463953E+02 -0.15967660088E+03 -0.26741576232E+03  0.72956427067E+03  0.65864270000E+03 0.  1.
    8880022    1    1    2    0    0  0.38026463953E+02  0.15967660088E+03 -0.44730576090E+03  0.50041655207E+03  0.15294330000E+03 0.  0.
<mgrwt>
<rscale>  0 0.51467549E+03</rscale>
<asrwt>0</asrwt>
<pdfrwt beam="1">  1        2 0.14959249E+00 0.67878777E+03</pdfrwt>
<pdfrwt beam="2">  1       -2 0.39635331E-01 0.67878777E+03</pdfrwt>
<totfact> 0.16057412E+02</totfact>
</mgrwt>
</event>
<event>
 4    1  0.2502834E-007  0.7304299E+03  0.7818608E-02  0.9888756E-01
         -2   -1    0    0    0  501 -0.00000000000E+00  0.00000000000E+00  0.12547594461E+04  0.12547594461E+04  0.25500000000E-02 0.  1.
          2   -1    0    0  501    0  0.00000000000E+00 -0.00000000000E+00 -0.35748929663E+03  0.35748929664E+03  0.25500000000E-02 0. -1.
    8880023    1    1    2    0    0  0.53109710931E+02 -0.31128289996E+03  0.10075455075E+04  0.12444580511E+04  0.65864270000E+03 0.  1.
    8880022    1    1    2    0    0 -0.53109710931E+02  0.31128289996E+03 -0.11027535801E+03  0.36779069156E+03  0.15294330000E+03 0.  0.
<mgrwt>
<rscale>  0 0.60809341E+03</rscale>
<asrwt>0</asrwt>
<pdfrwt beam="1">  1        2 0.54998353E-01 0.73042994E+03</pdfrwt>
<pdfrwt beam="2">  1       -2 0.19303991E+00 0.73042994E+03</pdfrwt>
<totfact> 0.13600175E+01</totfact>
</mgrwt>
</event>
<event>
 4    1  0.2502834E-007  0.8045653E+03  0.7818608E-02  0.9701011E-01
         -2   -1    0    0    0  501 -0.00000000000E+00  0.00000000000E+00  0.90971988304E+03  0.90971988304E+03  0.25500000000E-02 0.  1.
          2   -1    0    0  501    0  0.00000000000E+00 -0.00000000000E+00 -0.98116576080E+03  0.98116576081E+03  0.25500000000E-02 0. -1.
    8880023    1    1    2    0    0  0.27067035171E+03 -0.37450317197E+03  0.64055693927E+03  0.10284155113E+04  0.65864270000E+03 0.  1.
    8880022    1    1    2    0    0 -0.27067035171E+03  0.37450317197E+03 -0.71200281704E+03  0.86247013258E+03  0.15294330000E+03 0.  0.
<mgrwt>
<rscale>  0 0.70956655E+03</rscale>
<asrwt>0</asrwt>
<pdfrwt beam="1">  1        2 0.15094858E+00 0.80456527E+03</pdfrwt>
<pdfrwt beam="2">  1       -2 0.13995691E+00 0.80456527E+03</pdfrwt>
<totfact> 0.94152117E+00</totfact>
</mgrwt>
</event>
<event>
 4    1  0.2502834E-007  0.9041177E+03  0.7818608E-02  0.9519453E-01
         -2   -1    0    0    0  501 -0.00000000000E+00  0.00000000000E+00  0.38487334356E+03  0.38487334357E+03  0.25500000000E-02 0.  1.
          2   -1    0    0  501    0  0.00000000000E+00 -0.00000000000E+00 -0.28942707745E+04  0.28942707745E+04  0.25500000000E-02 0. -1.
    8880023    1    1    2    0    0 -0.36825223830E+03 -0.49800489565E+03 -0.25961256789E+03  0.94065268765E+03  0.65864270000E+03 0.  1.
    8880022    1    1    2    0    0  0.36825223830E+03  0.49800489565E+03 -0.22497848630E+04  0.23384914304E+04  0.15294330000E+03 0.  0.
<mgrwt>
<rscale>  0 0.82864667E+03</rscale>
<asrwt>0</asrwt>
<pdfrwt beam="1">  1        2 0.44527241E+00 0.90411769E+03</pdfrwt>
<pdfrwt beam="2">  1       -2 0.59211285E-01 0.90411769E+03</pdfrwt>
<totfact> 0.55813573E+00</totfact>
</mgrwt>
</event>
<event>
 4    1  0.2502834E-007  0.7975103E+03  0.7818608E-02  0.9716205E-01
          2   -1    0    0  501    0  0.00000000000E+00  0.00000000000E+00  0.34754559212E+04  0.34754559212E+04  0.25500000000E-02 0. -1.
         -2   -1    0    0    0  501 -0.00000000000E+00 -0.00000000000E+00 -0.27609833750E+03  0.27609833751E+03  0.25500000000E-02 0.  1.
    8880023    1    1    2    0    0  0.27949794496E+01  0.44967174845E+03  0.36393716499E+03  0.87662589489E+03  0.65864270000E+03 0.  1.
    8880022    1    1    2    0    0 -0.27949794496E+01 -0.44967174845E+03  0.28354204187E+04  0.28749283638E+04  0.15294330000E+03 0.  0.
<mgrwt>
<rscale>  0 0.70060078E+03</rscale>
<asrwt>0</asrwt>
<pdfrwt beam="1">  1        2 0.53468552E+00 0.79751031E+03</pdfrwt>
<pdfrwt beam="2">  1       -2 0.42476668E-01 0.79751031E+03</pdfrwt>
<totfact> 0.47672845E+00</totfact>
</mgrwt>
</event>
<event>
 4    1  0.2502834E-007  0.7678121E+03  0.7818608E-02  0.9785287E-01
          2   -1    0    0  501    0  0.00000000000E+00  0.00000000000E+00  0.20189475308E+04  0.20189475308E+04  0.25500000000E-02 0. -1.
         -2   -1    0    0    0  501 -0.00000000000E+00 -0.00000000000E+00 -0.72825535010E+03  0.72825535010E+03  0.25500000000E-02 0.  1.
    8880023    1    1    2    0    0  0.26507522184E+03  0.29233613615E+03 -0.49400937499E+03  0.91300643950E+03  0.65864270000E+03 0.  1.
    8880022    1    1    2    0    0 -0.26507522184E+03 -0.29233613615E+03  0.17847015557E+04  0.18341964414E+04  0.15294330000E+03 0.  0.
<mgrwt>
<rscale>  0 0.66158145E+03</rscale>
<asrwt>0</asrwt>
<pdfrwt beam="1">  1        2 0.31060731E+00 0.76781215E+03</pdfrwt>
<pdfrwt beam="2">  1       -2 0.11203929E+00 0.76781215E+03</pdfrwt>
<totfact> 0.42354362E+00</totfact>
</mgrwt>
</event>
<event>
 4    1  0.2502834E-007  0.1685517E+04  0.7818608E-02  0.8788656E-01
          2   -1    0    0  501    0  0.00000000000E+00  0.00000000000E+00  0.36627459279E+04  0.36627459279E+04  0.25500000000E-02 0. -1.
         -2   -1    0    0    0  501 -0.00000000000E+00 -0.00000000000E+00 -0.85334769010E+03  0.85334769010E+03  0.25500000000E-02 0.  1.
    8880023    1    1    2    0    0  0.11842288249E+04 -0.10023768800E+04  0.55383595023E+03  0.17741763681E+04  0.65864270000E+03 0.  1.
    8880022    1    1    2    0    0 -0.11842288249E+04  0.10023768800E+04  0.22555622875E+04  0.27419172498E+04  0.15294330000E+03 0.  0.
<mgrwt>
<rscale>  0 0.16529621E+04</rscale>
<asrwt>0</asrwt>
<pdfrwt beam="1">  1        2 0.56349937E+00 0.16855170E+04</pdfrwt>
<pdfrwt beam="2">  1       -2 0.13128426E+00 0.16855170E+04</pdfrwt>
<totfact> 0.24687826E-01</totfact>
</mgrwt>
</event>
<event>
 4    1  0.2502834E-007  0.7991616E+03  0.7818608E-02  0.9712612E-01
          2   -1    0    0  501    0  0.00000000000E+00  0.00000000000E+00  0.36039948357E+04  0.36039948357E+04  0.25500000000E-02 0. -1.
         -2   -1    0    0    0  501 -0.00000000000E+00 -0.00000000000E+00 -0.22989478120E+03  0.22989478121E+03  0.25500000000E-02 0.  1.
    8880023    1    1    2    0    0  0.30295695892E+00 -0.45260244105E+03  0.55111901638E+03  0.97076847801E+03  0.65864270000E+03 0.  1.
    8880022    1    1    2    0    0 -0.30295695892E+00  0.45260244105E+03  0.28229810382E+04  0.28631211389E+04  0.15294330000E+03 0. -1.
<mgrwt>
<rscale>  0 0.70270832E+03</rscale>
<asrwt>0</asrwt>
<pdfrwt beam="1">  1        2 0.55446072E+00 0.79916160E+03</pdfrwt>
<pdfrwt beam="2">  1       -2 0.35368429E-01 0.79916160E+03</pdfrwt>
<totfact> 0.55434554E+00</totfact>
</mgrwt>
</event>
<event>
 4    1  0.2502834E-007  0.6961797E+03  0.7818608E-02  0.1001343E+00
         -2   -1    0    0    0  501 -0.00000000000E+00  0.00000000000E+00  0.17023539334E+03  0.17023539335E+03  0.25500000000E-02 0.  1.
          2   -1    0    0  501    0  0.00000000000E+00 -0.00000000000E+00 -0.14474541375E+04  0.14474541375E+04  0.25500000000E-02 0. -1.
    8880023    1    1    2    0    0 -0.17191084192E+03 -0.14595441670E+03 -0.74424744912E+03  0.10191027922E+04  0.65864270000E+03 0.  0.
    8880022    1    1    2    0    0  0.17191084192E+03  0.14595441670E+03 -0.53297129508E+03  0.59858673868E+03  0.15294330000E+03 0.  0.
<mgrwt>
<rscale>  0 0.55065096E+03</rscale>
<asrwt>0</asrwt>
<pdfrwt beam="1">  1        2 0.22268524E+00 0.69617974E+03</pdfrwt>
<pdfrwt beam="2">  1       -2 0.26190062E-01 0.69617974E+03</pdfrwt>
<totfact> 0.18243367E+02</totfact>
</mgrwt>
</event>
<event>
 4    1  0.2502834E-007  0.1440343E+04  0.7818608E-02  0.8952953E-01
          2   -1    0    0  501    0  0.00000000000E+00  0.00000000000E+00  0.17510996767E+04  0.17510996767E+04  0.25500000000E-02 0. -1.
         -2   -1    0    0    0  501 -0.00000000000E+00 -0.00000000000E+00 -0.10819115243E+04  0.10819115243E+04  0.25500000000E-02 0.  1.
    8880023    1    1    2    0    0 -0.72714046012E+03 -0.10545349632E+04  0.53307193619E+03  0.15358232752E+04  0.65864270000E+03 0.  0.
    8880022    1    1    2    0    0  0.72714046012E+03  0.10545349632E+04  0.13611621621E+03  0.12971879257E+04  0.15294330000E+03 0.  0.
<mgrwt>
<rscale>  0 0.14011966E+04</rscale>
<asrwt>0</asrwt>
<pdfrwt beam="1">  1        2 0.26939995E+00 0.14403428E+04</pdfrwt>
<pdfrwt beam="2">  1       -2 0.16644793E+00 0.14403428E+04</pdfrwt>
<totfact> 0.19690317E+00</totfact>
</mgrwt>
</event>
<event>
 4    1  0.2502834E-007  0.8643653E+03  0.7818608E-02  0.9585845E-01
         -2   -1    0    0    0  501 -0.00000000000E+00  0.00000000000E+00  0.63062239466E+03  0.63062239467E+03  0.25500000000E-02 0.  1.
          2   -1    0    0  501    0  0.00000000000E+00 -0.00000000000E+00 -0.26705940844E+04  0.26705940844E+04  0.25500000000E-02 0. -1.
    8880023    1    1    2    0    0  0.18712747043E+03  0.52754191810E+03  0.28093273300E+03  0.90887324324E+03  0.65864270000E+03 0.  0.
    8880022    1    1    2    0    0 -0.18712747043E+03 -0.52754191810E+03 -0.23209044227E+04  0.23923432358E+04  0.15294330000E+03 0.  0.
<mgrwt>
<rscale>  0 0.78240173E+03</rscale>
<asrwt>0</asrwt>
<pdfrwt beam="1">  1        2 0.41086062E+00 0.86436530E+03</pdfrwt>
<pdfrwt beam="2">  1       -2 0.97018832E-01 0.86436530E+03</pdfrwt>
<totfact> 0.25360248E+00</totfact>
</mgrwt>
</event>
<event>
 4    1  0.2502834E-007  0.1012991E+04  0.7818608E-02  0.9364755E-01
         -2   -1    0    0    0  501 -0.00000000000E+00  0.00000000000E+00  0.14540367934E+04  0.14540367934E+04  0.25500000000E-02 0.  1.
          2   -1    0    0  501    0  0.00000000000E+00 -0.00000000000E+00 -0.12696364041E+04  0.12696364041E+04  0.25500000000E-02 0. -1.
    8880023    1    1    2    0    0 -0.55269701406E+03  0.53559984851E+03  0.11149716428E+04  0.15064239634E+04  0.65864270000E+03 0.  1.
    8880022    1    1    2    0    0  0.55269701406E+03 -0.53559984851E+03 -0.93057125353E+03  0.12172492341E+04  0.15294330000E+03 0.  0.
<mgrwt>
<rscale>  0 0.95033851E+03</rscale>
<asrwt>0</asrwt>
<pdfrwt beam="1">  1        2 0.19532868E+00 0.10129913E+04</pdfrwt>
<pdfrwt beam="2">  1       -2 0.22369797E+00 0.10129913E+04</pdfrwt>
<totfact> 0.16010288E+00</totfact>
</mgrwt>
</event>
<event>
 4    1  0.2502834E-007  0.9527627E+03  0.7818608E-02  0.9446150E-01
         -2   -1    0    0    0  501 -0.00000000000E+00  0.00000000000E+00  0.51758932660E+03  0.51758932661E+03  0.25500000000E-02 0.  1.
          2   -1    0    0  501    0  0.00000000000E+00 -0.00000000000E+00 -0.19808817180E+04  0.19808817180E+04  0.25500000000E-02 0. -1.
    8880023    1    1    2    0    0 -0.27015723410E+03  0.63321524057E+03 -0.92919233305E+02  0.95728295828E+03  0.65864270000E+03 0.  0.
    8880022    1    1    2    0    0  0.27015723410E+03 -0.63321524057E+03 -0.13703731581E+04  0.15411880863E+04  0.15294330000E+03 0.  0.
<mgrwt>
<rscale>  0 0.88373085E+03</rscale>
<asrwt>0</asrwt>
<pdfrwt beam="1">  1        2 0.30475103E+00 0.95276266E+03</pdfrwt>
<pdfrwt beam="2">  1       -2 0.79629128E-01 0.95276266E+03</pdfrwt>
<totfact> 0.96346760E+00</totfact>
</mgrwt>
</event>
<event>
 4    1  0.2502834E-007  0.9607307E+03  0.7818608E-02  0.9434840E-01
          2   -1    0    0  501    0  0.00000000000E+00  0.00000000000E+00  0.27898060336E+04  0.27898060336E+04  0.25500000000E-02 0. -1.
         -2   -1    0    0    0  501 -0.00000000000E+00 -0.00000000000E+00 -0.64393390335E+03  0.64393390335E+03  0.25500000000E-02 0.  1.
    8880023    1    1    2    0    0  0.23112476374E+03  0.66013229244E+03 -0.19975857345E+03  0.98127824488E+03  0.65864270000E+03 0.  1.
    8880022    1    1    2    0    0 -0.23112476374E+03 -0.66013229244E+03  0.23456307037E+04  0.24524616921E+04  0.15294330000E+03 0.  0.
<mgrwt>
<rscale>  0 0.89263105E+03</rscale>
<asrwt>0</asrwt>
<pdfrwt beam="1">  1        2 0.42920093E+00 0.96073071E+03</pdfrwt>
<pdfrwt beam="2">  1       -2 0.99066754E-01 0.96073071E+03</pdfrwt>
<totfact> 0.20221917E+00</totfact>
</mgrwt>
</event>
<event>
 4    1  0.2502834E-007  0.6993133E+03  0.7818608E-02  0.1000006E+00
         -2   -1    0    0    0  501 -0.00000000000E+00  0.00000000000E+00  0.14485696459E+03  0.14485696462E+03  0.25500000000E-02 0.  1.
          2   -1    0    0  501    0  0.00000000000E+00 -0.00000000000E+00 -0.17030316796E+04  0.17030316796E+04  0.25500000000E-02 0. -1.
    8880023    1    1    2    0    0  0.51834849174E+02  0.22922036143E+03 -0.96464967516E+03  0.11914646565E+04  0.65864270000E+03 0.  1.
    8880022    1    1    2    0    0 -0.51834849174E+02 -0.22922036143E+03 -0.59352503982E+03  0.65642398767E+03  0.15294330000E+03 0. -1.
<mgrwt>
<rscale>  0 0.55647516E+03</rscale>
<asrwt>0</asrwt>
<pdfrwt beam="1">  1        2 0.26200486E+00 0.69931326E+03</pdfrwt>
<pdfrwt beam="2">  1       -2 0.22285688E-01 0.69931326E+03</pdfrwt>
<totfact> 0.17609731E+02</totfact>
</mgrwt>
</event>
<event>
 4    1  0.2502834E-007  0.2087866E+04  0.7818608E-02  0.8578072E-01
         -2   -1    0    0    0  501 -0.00000000000E+00  0.00000000000E+00  0.17727117393E+04  0.17727117393E+04  0.25500000000E-02 0.  1.
          2   -1    0    0  501    0  0.00000000000E+00 -0.00000000000E+00 -0.29623851864E+04  0.29623851865E+04  0.25500000000E-02 0. -1.
    8880023    1    1    2    0    0 -0.15633210664E+04 -0.12171280844E+04  0.47685367480E+03  0.21416286242E+04  0.65864270000E+03 0.  0.
    8880022    1    1    2    0    0  0.15633210664E+04  0.12171280844E+04 -0.16665271219E+04  0.25934683016E+04  0.15294330000E+03 0.  0.
<mgrwt>
<rscale>  0 0.20622181E+04</rscale>
<asrwt>0</asrwt>
<pdfrwt beam="1">  1        2 0.45575157E+00 0.20878658E+04</pdfrwt>
<pdfrwt beam="2">  1       -2 0.27272488E+00 0.20878658E+04</pdfrwt>
<totfact> 0.75332960E-02</totfact>
</mgrwt>
</event>
<event>
 4    1  0.2502834E-007  0.9582800E+03  0.7818608E-02  0.9438300E-01
          2   -1    0    0  501    0  0.00000000000E+00  0.00000000000E+00  0.62706699338E+03  0.62706699338E+03  0.25500000000E-02 0. -1.
         -2   -1    0    0    0  501 -0.00000000000E+00 -0.00000000000E+00 -0.21663934801E+04  0.21663934801E+04  0.25500000000E-02 0.  1.
    8880023    1    1    2    0    0  0.20859742278E+03 -0.66406135491E+03 -0.17962682414E+04  0.20358978779E+04  0.65864270000E+03 0.  0.
    8880022    1    1    2    0    0 -0.20859742278E+03  0.66406135491E+03  0.25694175471E+03  0.75756259557E+03  0.15294330000E+03 0.  0.
<mgrwt>
<rscale>  0 0.88989686E+03</rscale>
<asrwt>0</asrwt>
<pdfrwt beam="1">  1        2 0.96471847E-01 0.95828001E+03</pdfrwt>
<pdfrwt beam="2">  1       -2 0.33329130E+00 0.95828001E+03</pdfrwt>
<totfact> 0.94623661E-01</totfact>
</mgrwt>
</event>
<event>
 4    1  0.2502834E-007  0.7163487E+03  0.7818608E-02  0.9935140E-01
         -2   -1    0    0    0  501 -0.00000000000E+00  0.00000000000E+00  0.28323585422E+03  0.28323585423E+03  0.25500000000E-02 0.  1.
          2   -1    0    0  501    0  0.00000000000E+00 -0.00000000000E+00 -0.18757220528E+04  0.18757220528E+04  0.25500000000E-02 0. -1.
    8880023    1    1    2    0    0  0.28162503021E+03 -0.57132289621E+01 -0.21974840862E+03  0.74929624848E+03  0.65864270000E+03 0.  1.
    8880022    1    1    2    0    0 -0.28162503021E+03  0.57132289621E+01 -0.13727377900E+04  0.14096616586E+04  0.15294330000E+03 0.  0.
<mgrwt>
<rscale>  0 0.58588072E+03</rscale>
<asrwt>0</asrwt>
<pdfrwt beam="1">  1        2 0.28857262E+00 0.71634873E+03</pdfrwt>
<pdfrwt beam="2">  1       -2 0.43574748E-01 0.71634873E+03</pdfrwt>
<totfact> 0.40410944E+01</totfact>
</mgrwt>
</event>
<event>
 4    1  0.2502834E-007  0.7468494E+03  0.7818608E-02  0.9840426E-01
         -2   -1    0    0    0  501 -0.00000000000E+00  0.00000000000E+00  0.23921435685E+04  0.23921435685E+04  0.25500000000E-02 0.  1.
          2   -1    0    0  501    0  0.00000000000E+00 -0.00000000000E+00 -0.14516361391E+03  0.14516361393E+03  0.25500000000E-02 0. -1.
    8880023    1    1    2    0    0 -0.34028870127E+03  0.90429029739E+02  0.17958185408E+04  0.19449288540E+04  0.65864270000E+03 0.  1.
    8880022    1    1    2    0    0  0.34028870127E+03 -0.90429029739E+02  0.45116141387E+03  0.59237832844E+03  0.15294330000E+03 0. -1.
<mgrwt>
<rscale>  0 0.63237434E+03</rscale>
<asrwt>0</asrwt>
<pdfrwt beam="1">  1        2 0.22332867E-01 0.74684939E+03</pdfrwt>
<pdfrwt beam="2">  1       -2 0.36802204E+00 0.74684939E+03</pdfrwt>
<totfact> 0.31510292E+00</totfact>
</mgrwt>
</event>
<event>
 4    1  0.2502834E-007  0.7491025E+03  0.7818608E-02  0.9834184E-01
         -2   -1    0    0    0  501 -0.00000000000E+00  0.00000000000E+00  0.19534766487E+03  0.19534766489E+03  0.25500000000E-02 0.  1.
          2   -1    0    0  501    0  0.00000000000E+00 -0.00000000000E+00 -0.22565509053E+04  0.22565509053E+04  0.25500000000E-02 0. -1.
    8880023    1    1    2    0    0  0.26167189832E+03 -0.24263596225E+03 -0.66156937789E+03  0.99941414868E+03  0.65864270000E+03 0.  1.
    8880022    1    1    2    0    0 -0.26167189832E+03  0.24263596225E+03 -0.13996338626E+04  0.14524844215E+04  0.15294330000E+03 0.  0.
<mgrwt>
<rscale>  0 0.63559883E+03</rscale>
<asrwt>0</asrwt>
<pdfrwt beam="1">  1        2 0.34716166E+00 0.74910253E+03</pdfrwt>
<pdfrwt beam="2">  1       -2 0.30053488E-01 0.74910253E+03</pdfrwt>
<totfact> 0.50743231E+01</totfact>
</mgrwt>
</event>
<event>
 4    1  0.2502834E-007  0.7943249E+03  0.7818608E-02  0.9723204E-01
          2   -1    0    0  501    0  0.00000000000E+00  0.00000000000E+00  0.17667487945E+04  0.17667487945E+04  0.25500000000E-02 0. -1.
         -2   -1    0    0    0  501 -0.00000000000E+00 -0.00000000000E+00 -0.50169530255E+03  0.50169530255E+03  0.25500000000E-02 0.  1.
    8880023    1    1    2    0    0  0.36821875170E+03  0.24810642790E+03 -0.12237340816E+03  0.80369602833E+03  0.65864270000E+03 0.  0.
    8880022    1    1    2    0    0 -0.36821875170E+03 -0.24810642790E+03  0.13874269001E+04  0.14647480687E+04  0.15294330000E+03 0. -1.
<mgrwt>
<rscale>  0 0.69651898E+03</rscale>
<asrwt>0</asrwt>
<pdfrwt beam="1">  1        2 0.27180751E+00 0.79432491E+03</pdfrwt>
<pdfrwt beam="2">  1       -2 0.77183892E-01 0.79432491E+03</pdfrwt>
<totfact> 0.13805233E+01</totfact>
</mgrwt>
</event>
<event>
 4    1  0.2502834E-007  0.9399811E+03  0.7818608E-02  0.9464678E-01
         -2   -1    0    0    0  501 -0.00000000000E+00  0.00000000000E+00  0.17260945540E+04  0.17260945540E+04  0.25500000000E-02 0.  1.
          2   -1    0    0  501    0  0.00000000000E+00 -0.00000000000E+00 -0.54976338867E+03  0.54976338867E+03  0.25500000000E-02 0. -1.
    8880023    1    1    2    0    0 -0.42540485626E+03  0.51844473472E+03  0.12717371446E+04  0.15814170247E+04  0.65864270000E+03 0.  0.
    8880022    1    1    2    0    0  0.42540485626E+03 -0.51844473472E+03 -0.95405979281E+02  0.69444091800E+03  0.15294330000E+03 0.  0.
<mgrwt>
<rscale>  0 0.86938816E+03</rscale>
<asrwt>0</asrwt>
<pdfrwt beam="1">  1        2 0.84578982E-01 0.93998109E+03</pdfrwt>
<pdfrwt beam="2">  1       -2 0.26555301E+00 0.93998109E+03</pdfrwt>
<totfact> 0.28653701E+00</totfact>
</mgrwt>
</event>
<event>
 4    1  0.2502834E-007  0.9435291E+03  0.7818608E-02  0.9459486E-01
         -2   -1    0    0    0  501 -0.00000000000E+00  0.00000000000E+00  0.60098322626E+03  0.60098322627E+03  0.25500000000E-02 0.  1.
          2   -1    0    0  501    0  0.00000000000E+00 -0.00000000000E+00 -0.29895154869E+04  0.29895154869E+04  0.25500000000E-02 0. -1.
    8880023    1    1    2    0    0  0.66922076871E+03 -0.92631548602E+02  0.15336093413E+03  0.95591151445E+03  0.65864270000E+03 0.  1.
    8880022    1    1    2    0    0 -0.66922076871E+03  0.92631548602E+02 -0.25418931947E+04  0.26345871987E+04  0.15294330000E+03 0.  0.
<mgrwt>
<rscale>  0 0.87337804E+03</rscale>
<asrwt>0</asrwt>
<pdfrwt beam="1">  1        2 0.45992545E+00 0.94352914E+03</pdfrwt>
<pdfrwt beam="2">  1       -2 0.92458959E-01 0.94352914E+03</pdfrwt>
<totfact> 0.18063786E+00</totfact>
</mgrwt>
</event>
<event>
 4    1  0.2502834E-007  0.1622001E+04  0.7818608E-02  0.8827969E-01
          2   -1    0    0  501    0  0.00000000000E+00  0.00000000000E+00  0.11435641395E+04  0.11435641395E+04  0.25500000000E-02 0. -1.
         -2   -1    0    0    0  501 -0.00000000000E+00 -0.00000000000E+00 -0.36299067519E+04  0.36299067519E+04  0.25500000000E-02 0.  1.
    8880023    1    1    2    0    0  0.12110041490E+04 -0.85472072244E+03 -0.28137698640E+04  0.32477976563E+04  0.65864270000E+03 0.  0.
    8880022    1    1    2    0    0 -0.12110041490E+04  0.85472072244E+03  0.32742725160E+03  0.15256732351E+04  0.15294330000E+03 0.  0.
<mgrwt>
<rscale>  0 0.15879764E+04</rscale>
<asrwt>0</asrwt>
<pdfrwt beam="1">  1        2 0.17593295E+00 0.16220015E+04</pdfrwt>
<pdfrwt beam="2">  1       -2 0.55844719E+00 0.16220015E+04</pdfrwt>
<totfact> 0.14444780E-02</totfact>
</mgrwt>
</event>
<event>
 4    1  0.2502834E-007  0.7715559E+03  0.7818608E-02  0.9776060E-01
          2   -1    0    0  501    0  0.00000000000E+00  0.00000000000E+00  0.18112530543E+04  0.18112530543E+04  0.25500000000E-02 0. -1.
         -2   -1    0    0    0  501 -0.00000000000E+00 -0.00000000000E+00 -0.63647064565E+03  0.63647064566E+03  0.25500000000E-02 0.  1.
    8880023    1    1    2    0    0 -0.19449373808E+03 -0.35165386525E+03 -0.36175906121E+03  0.85215496227E+03  0.65864270000E+03 0.  1.
    8880022    1    1    2    0    0  0.19449373808E+03  0.35165386525E+03  0.15365414698E+04  0.15955687377E+04  0.15294330000E+03 0.  0.
<mgrwt>
<rscale>  0 0.66663291E+03</rscale>
<asrwt>0</asrwt>
<pdfrwt beam="1">  1        2 0.27865432E+00 0.77155587E+03</pdfrwt>
<pdfrwt beam="2">  1       -2 0.97918560E-01 0.77155587E+03</pdfrwt>
<totfact> 0.75902021E+00</totfact>
</mgrwt>
</event>
<event>
 4    1  0.2502834E-007  0.8978597E+03  0.7818608E-02  0.9529476E-01
          2   -1    0    0  501    0  0.00000000000E+00  0.00000000000E+00  0.19750433226E+04  0.19750433226E+04  0.25500000000E-02 0. -1.
         -2   -1    0    0    0  501 -0.00000000000E+00 -0.00000000000E+00 -0.65623534607E+03  0.65623534607E+03  0.25500000000E-02 0.  1.
    8880023    1    1    2    0    0 -0.32526237135E+03 -0.51628122611E+03 -0.25752163486E+03  0.93406076533E+03  0.65864270000E+03 0.  1.
    8880022    1    1    2    0    0  0.32526237135E+03  0.51628122611E+03  0.15763296114E+04  0.16972179033E+04  0.15294330000E+03 0.  0.
<mgrwt>
<rscale>  0 0.82145114E+03</rscale>
<asrwt>0</asrwt>
<pdfrwt beam="1">  1        2 0.30385282E+00 0.89785974E+03</pdfrwt>
<pdfrwt beam="2">  1       -2 0.10095929E+00 0.89785974E+03</pdfrwt>
<totfact> 0.56429886E+00</totfact>
</mgrwt>
</event>
<event>
 4    1  0.2502834E-007  0.7932698E+03  0.7818608E-02  0.9725541E-01
          2   -1    0    0  501    0  0.00000000000E+00  0.00000000000E+00  0.82276598298E+03  0.82276598299E+03  0.25500000000E-02 0. -1.
         -2   -1    0    0    0  501 -0.00000000000E+00 -0.00000000000E+00 -0.12405389341E+04  0.12405389341E+04  0.25500000000E-02 0.  1.
    8880023    1    1    2    0    0 -0.27937982830E+03 -0.34265690166E+03 -0.10254136159E+04  0.12964374766E+04  0.65864270000E+03 0.  1.
    8880022    1    1    2    0    0  0.27937982830E+03  0.34265690166E+03  0.60764066482E+03  0.76686744048E+03  0.15294330000E+03 0.  0.
<mgrwt>
<rscale>  0 0.69516218E+03</rscale>
<asrwt>0</asrwt>
<pdfrwt beam="1">  1        2 0.12657938E+00 0.79326984E+03</pdfrwt>
<pdfrwt beam="2">  1       -2 0.19085215E+00 0.79326984E+03</pdfrwt>
<totfact> 0.51515603E+00</totfact>
</mgrwt>
</event>
<event>
 4    1  0.2502834E-007  0.8828532E+03  0.7818608E-02  0.9554138E-01
         -2   -1    0    0    0  501 -0.00000000000E+00  0.00000000000E+00  0.38917332246E+03  0.38917332247E+03  0.25500000000E-02 0.  1.
          2   -1    0    0  501    0  0.00000000000E+00 -0.00000000000E+00 -0.32466312349E+04  0.32466312349E+04  0.25500000000E-02 0. -1.
    8880023    1    1    2    0    0  0.21657500358E+02  0.58749511702E+03 -0.19395405017E+03  0.90390704151E+03  0.65864270000E+03 0.  0.
    8880022    1    1    2    0    0 -0.21657500358E+02 -0.58749511702E+03 -0.26635038623E+04  0.27318975159E+04  0.15294330000E+03 0.  0.
<mgrwt>
<rscale>  0 0.80407455E+03</rscale>
<asrwt>0</asrwt>
<pdfrwt beam="1">  1        2 0.49948171E+00 0.88285320E+03</pdfrwt>
<pdfrwt beam="2">  1       -2 0.59872821E-01 0.88285320E+03</pdfrwt>
<totfact> 0.32983049E+00</totfact>
</mgrwt>
</event>
<event>
 4    1  0.2502834E-007  0.1334937E+04  0.7818608E-02  0.9035962E-01
          2   -1    0    0  501    0  0.00000000000E+00  0.00000000000E+00  0.18730157097E+04  0.18730157097E+04  0.25500000000E-02 0. -1.
         -2   -1    0    0    0  501 -0.00000000000E+00 -0.00000000000E+00 -0.14362642959E+04  0.14362642959E+04  0.25500000000E-02 0.  1.
    8880023    1    1    2    0    0 -0.89611557788E+03  0.73839261931E+03 -0.83960476659E+03  0.15770203421E+04  0.65864270000E+03 0.  1.
    8880022    1    1    2    0    0  0.89611557788E+03 -0.73839261931E+03  0.12763561804E+04  0.17322596634E+04  0.15294330000E+03 0.  0.
<mgrwt>
<rscale>  0 0.12919644E+04</rscale>
<asrwt>0</asrwt>
<pdfrwt beam="1">  1        2 0.28815626E+00 0.13349371E+04</pdfrwt>
<pdfrwt beam="2">  1       -2 0.22096374E+00 0.13349371E+04</pdfrwt>
<totfact> 0.73183867E-01</totfact>
</mgrwt>
</event>
<event>
 4    1  0.2502834E-007  0.7615257E+03  0.7818608E-02  0.9801174E-01
         -2   -1    0    0    0  501 -0.00000000000E+00  0.00000000000E+00  0.31379554870E+03  0.31379554871E+03  0.25500000000E-02 0.  1.
          2   -1    0    0  501    0  0.00000000000E+00 -0.00000000000E+00 -0.11489930580E+04  0.11489930580E+04  0.25500000000E-02 0. -1.
    8880023    1    1    2    0    0  0.32804344125E+03  0.19621081292E+03 -0.38707852930E+03  0.85425474922E+03  0.65864270000E+03 0.  1.
    8880022    1    1    2    0    0 -0.32804344125E+03 -0.19621081292E+03 -0.44811898000E+03  0.60853385748E+03  0.15294330000E+03 0. -1.
<mgrwt>
<rscale>  0 0.65299603E+03</rscale>
<asrwt>0</asrwt>
<pdfrwt beam="1">  1        2 0.17676816E+00 0.76152570E+03</pdfrwt>
<pdfrwt beam="2">  1       -2 0.48276239E-01 0.76152570E+03</pdfrwt>
<totfact> 0.83833512E+01</totfact>
</mgrwt>
</event>
<event>
 4    1  0.2502834E-007  0.1062921E+04  0.7818608E-02  0.9303507E-01
         -2   -1    0    0    0  501 -0.00000000000E+00  0.00000000000E+00  0.76410042632E+03  0.76410042632E+03  0.25500000000E-02 0.  1.
          2   -1    0    0  501    0  0.00000000000E+00 -0.00000000000E+00 -0.36566620672E+04  0.36566620672E+04  0.25500000000E-02 0. -1.
    8880023    1    1    2    0    0 -0.41975384927E+03  0.72097013132E+03  0.31047005507E+03  0.11073360310E+04  0.65864270000E+03 0.  1.
    8880022    1    1    2    0    0  0.41975384927E+03 -0.72097013132E+03 -0.32030316959E+04  0.33134264625E+04  0.15294330000E+03 0.  0.
<mgrwt>
<rscale>  0 0.10046061E+04</rscale>
<asrwt>0</asrwt>
<pdfrwt beam="1">  1        2 0.56256338E+00 0.10629212E+04</pdfrwt>
<pdfrwt beam="2">  1       -2 0.11755391E+00 0.10629212E+04</pdfrwt>
<totfact> 0.35978089E-01</totfact>
</mgrwt>
</event>
<event>
 4    1  0.2502834E-007  0.9244005E+03  0.7818608E-02  0.9487944E-01
         -2   -1    0    0    0  501 -0.00000000000E+00  0.00000000000E+00  0.42325909578E+03  0.42325909579E+03  0.25500000000E-02 0.  1.
          2   -1    0    0  501    0  0.00000000000E+00 -0.00000000000E+00 -0.16111251865E+04  0.16111251865E+04  0.25500000000E-02 0. -1.
    8880023    1    1    2    0    0  0.53429268240E+03  0.36774643027E+03 -0.95332257996E+03  0.13279082254E+04  0.65864270000E+03 0.  0.
    8880022    1    1    2    0    0 -0.53429268240E+03 -0.36774643027E+03 -0.23454351073E+03  0.70647605683E+03  0.15294330000E+03 0.  0.
<mgrwt>
<rscale>  0 0.85178494E+03</rscale>
<asrwt>0</asrwt>
<pdfrwt beam="1">  1        2 0.24786541E+00 0.92440052E+03</pdfrwt>
<pdfrwt beam="2">  1       -2 0.65116785E-01 0.92440052E+03</pdfrwt>
<totfact> 0.24057041E+01</totfact>
</mgrwt>
</event>
<event>
 4    1  0.2502834E-007  0.6801756E+03  0.7818608E-02  0.1009224E+00
         -2   -1    0    0    0  501 -0.00000000000E+00  0.00000000000E+00  0.42737037370E+03  0.42737037371E+03  0.25500000000E-02 0.  1.
          2   -1    0    0  501    0  0.00000000000E+00 -0.00000000000E+00 -0.10571127272E+04  0.10571127272E+04  0.25500000000E-02 0. -1.
    8880023    1    1    2    0    0  0.16850466948E+03 -0.20852851740E+02  0.12880308071E+03  0.69226375387E+03  0.65864270000E+03 0.  1.
    8880022    1    1    2    0    0 -0.16850466948E+03  0.20852851740E+02 -0.75854543423E+03  0.79221934706E+03  0.15294330000E+03 0.  0.
<mgrwt>
<rscale>  0 0.51784017E+03</rscale>
<asrwt>0</asrwt>
<pdfrwt beam="1">  1        2 0.16263273E+00 0.68017562E+03</pdfrwt>
<pdfrwt beam="2">  1       -2 0.65749289E-01 0.68017562E+03</pdfrwt>
<totfact> 0.50467069E+01</totfact>
</mgrwt>
</event>
<event>
 4    1  0.2502834E-007  0.1490404E+04  0.7818608E-02  0.8916442E-01
          2   -1    0    0  501    0  0.00000000000E+00  0.00000000000E+00  0.20689937962E+04  0.20689937962E+04  0.25500000000E-02 0. -1.
         -2   -1    0    0    0  501 -0.00000000000E+00 -0.00000000000E+00 -0.19076448646E+04  0.19076448646E+04  0.25500000000E-02 0.  1.
    8880023    1    1    2    0    0 -0.12762455803E+04  0.39836128215E+03 -0.13088696241E+04  0.19835433929E+04  0.65864270000E+03 0.  0.
    8880022    1    1    2    0    0  0.12762455803E+04 -0.39836128215E+03  0.14702185557E+04  0.19930952679E+04  0.15294330000E+03 0.  0.
<mgrwt>
<rscale>  0 0.14528288E+04</rscale>
<asrwt>0</asrwt>
<pdfrwt beam="1">  1        2 0.31830674E+00 0.14904042E+04</pdfrwt>
<pdfrwt beam="2">  1       -2 0.29348383E+00 0.14904042E+04</pdfrwt>
<totfact> 0.20000822E-01</totfact>
</mgrwt>
</event>
<event>
 4    1  0.2502834E-007  0.9094514E+03  0.7818608E-02  0.9511026E-01
         -2   -1    0    0    0  501 -0.00000000000E+00  0.00000000000E+00  0.25033368215E+04  0.25033368215E+04  0.25500000000E-02 0.  1.
          2   -1    0    0  501    0  0.00000000000E+00 -0.00000000000E+00 -0.46940170529E+03  0.46940170529E+03  0.25500000000E-02 0. -1.
    8880023    1    1    2    0    0 -0.14630167477E+03  0.60982572557E+03  0.21338209842E+04  0.23195460320E+04  0.65864270000E+03 0.  0.
    8880022    1    1    2    0    0  0.14630167477E+03 -0.60982572557E+03 -0.99885868005E+02  0.65319249479E+03  0.15294330000E+03 0.  0.
<mgrwt>
<rscale>  0 0.83475757E+03</rscale>
<asrwt>0</asrwt>
<pdfrwt beam="1">  1        2 0.72215647E-01 0.90945137E+03</pdfrwt>
<pdfrwt beam="2">  1       -2 0.38512874E+00 0.90945137E+03</pdfrwt>
<totfact> 0.63476374E-01</totfact>
</mgrwt>
</event>
<event>
 4    1  0.2502834E-007  0.1488505E+04  0.7818608E-02  0.8917796E-01
          2   -1    0    0  501    0  0.00000000000E+00  0.00000000000E+00  0.14788713098E+04  0.14788713098E+04  0.25500000000E-02 0. -1.
         -2   -1    0    0    0  501 -0.00000000000E+00 -0.00000000000E+00 -0.14553636789E+04  0.14553636789E+04  0.25500000000E-02 0.  1.
    8880023    1    1    2    0    0  0.88404160645E+00  0.13348538257E+04  0.39540675853E+03  0.15401273416E+04  0.65864270000E+03 0. -1.
    8880022    1    1    2    0    0 -0.88404160645E+00 -0.13348538257E+04 -0.37189912772E+03  0.13941076471E+04  0.15294330000E+03 0.  0.
<mgrwt>
<rscale>  0 0.14508720E+04</rscale>
<asrwt>0</asrwt>
<pdfrwt beam="1">  1        2 0.22751866E+00 0.14885045E+04</pdfrwt>
<pdfrwt beam="2">  1       -2 0.22390211E+00 0.14885045E+04</pdfrwt>
<totfact> 0.11480708E+00</totfact>
</mgrwt>
</event>
<event>
 4    1  0.2502834E-007  0.6671786E+03  0.7818608E-02  0.1017772E+00
         -2   -1    0    0    0  501 -0.00000000000E+00  0.00000000000E+00  0.35897600393E+03  0.35897600394E+03  0.25500000000E-02 0.  1.
          2   -1    0    0  501    0  0.00000000000E+00 -0.00000000000E+00 -0.15439009996E+04  0.15439009996E+04  0.25500000000E-02 0. -1.
    8880023    1    1    2    0    0 -0.98433969653E+02  0.40346071439E+02  0.35683907272E+02  0.66813217208E+03  0.65864270000E+03 0.  1.
    8880022    1    1    2    0    0  0.98433969653E+02 -0.40346071439E+02 -0.12206089030E+04  0.12347448315E+04  0.15294330000E+03 0.  0.
<mgrwt>
<rscale>  0 0.48499401E+03</rscale>
<asrwt>0</asrwt>
<pdfrwt beam="1">  1        2 0.23752323E+00 0.66717858E+03</pdfrwt>
<pdfrwt beam="2">  1       -2 0.55227078E-01 0.66717858E+03</pdfrwt>
<totfact> 0.38195924E+01</totfact>
</mgrwt>
</event>
<event>
 4    1  0.2502834E-007  0.8290325E+03  0.7818608E-02  0.9651218E-01
          2   -1    0    0  501    0  0.00000000000E+00  0.00000000000E+00  0.94878634817E+03  0.94878634817E+03  0.25500000000E-02 0. -1.
         -2   -1    0    0    0  501 -0.00000000000E+00 -0.00000000000E+00 -0.63838835472E+03  0.63838835472E+03  0.25500000000E-02 0.  1.
    8880023    1    1    2    0    0 -0.18741356996E+03  0.46729101145E+03 -0.20138948319E+03  0.85314281676E+03  0.65864270000E+03 0.  0.
    8880022    1    1    2    0    0  0.18741356996E+03 -0.46729101145E+03  0.51178747664E+03  0.73403188613E+03  0.15294330000E+03 0.  0.
<mgrwt>
<rscale>  0 0.73997052E+03</rscale>
<asrwt>0</asrwt>
<pdfrwt beam="1">  1        2 0.14596713E+00 0.82903253E+03</pdfrwt>
<pdfrwt beam="2">  1       -2 0.98213593E-01 0.82903253E+03</pdfrwt>
<totfact> 0.23638644E+01</totfact>
</mgrwt>
</event>
<event>
 4    1  0.2502834E-007  0.7418915E+03  0.7818608E-02  0.9854471E-01
          2   -1    0    0  501    0  0.00000000000E+00  0.00000000000E+00  0.12227042979E+04  0.12227042979E+04  0.25500000000E-02 0. -1.
         -2   -1    0    0    0  501 -0.00000000000E+00 -0.00000000000E+00 -0.30520067562E+03  0.30520067563E+03  0.25500000000E-02 0.  1.
    8880023    1    1    2    0    0  0.34216982627E+02 -0.33973817376E+03  0.28844898073E+03  0.79599362394E+03  0.65864270000E+03 0.  0.
    8880022    1    1    2    0    0 -0.34216982627E+02  0.33973817376E+03  0.62905464159E+03  0.73191134964E+03  0.15294330000E+03 0.  0.
<mgrwt>
<rscale>  0 0.62519471E+03</rscale>
<asrwt>0</asrwt>
<pdfrwt beam="1">  1        2 0.18810836E+00 0.74189153E+03</pdfrwt>
<pdfrwt beam="2">  1       -2 0.46953950E-01 0.74189153E+03</pdfrwt>
<totfact> 0.80282329E+01</totfact>
</mgrwt>
</event>
<event>
 4    1  0.2502834E-007  0.6618002E+03  0.7818608E-02  0.1022383E+00
         -2   -1    0    0    0  501 -0.00000000000E+00  0.00000000000E+00  0.91555304079E+02  0.91555304115E+02  0.25500000000E-02 0.  1.
          2   -1    0    0  501    0  0.00000000000E+00 -0.00000000000E+00 -0.23774509199E+04  0.23774509199E+04  0.25500000000E-02 0. -1.
    8880023    1    1    2    0    0 -0.17568647193E+02 -0.62133729967E+02 -0.11991181514E+04  0.13696217745E+04  0.65864270000E+03 0.  1.
    8880022    1    1    2    0    0  0.17568647193E+02  0.62133729967E+02 -0.10867774644E+04  0.10993844495E+04  0.15294330000E+03 0.  0.
<mgrwt>
<rscale>  0 0.46836221E+03</rscale>
<asrwt>0</asrwt>
<pdfrwt beam="1">  1        2 0.36576163E+00 0.66180017E+03</pdfrwt>
<pdfrwt beam="2">  1       -2 0.14085433E-01 0.66180017E+03</pdfrwt>
<totfact> 0.16659822E+02</totfact>
</mgrwt>
</event>
<event>
 4    1  0.2502834E-007  0.1751740E+04  0.7818608E-02  0.8749712E-01
          2   -1    0    0  501    0  0.00000000000E+00  0.00000000000E+00  0.25243448962E+04  0.25243448962E+04  0.25500000000E-02 0. -1.
         -2   -1    0    0    0  501 -0.00000000000E+00 -0.00000000000E+00 -0.13815774253E+04  0.13815774253E+04  0.25500000000E-02 0.  1.
    8880023    1    1    2    0    0 -0.15157164742E+04  0.58084951379E+03  0.14164014095E+04  0.22527285116E+04  0.65864270000E+03 0.  0.
    8880022    1    1    2    0    0  0.15157164742E+04 -0.58084951379E+03 -0.27363393860E+03  0.16531938099E+04  0.15294330000E+03 0.  0.
<mgrwt>
<rscale>  0 0.17205811E+04</rscale>
<asrwt>0</asrwt>
<pdfrwt beam="1">  1        2 0.38836075E+00 0.17517399E+04</pdfrwt>
<pdfrwt beam="2">  1       -2 0.21255038E+00 0.17517399E+04</pdfrwt>
<totfact> 0.33972942E-01</totfact>
</mgrwt>
</event>
<event>
 4    1  0.2502834E-007  0.8996736E+03  0.7818608E-02  0.9526556E-01
         -2   -1    0    0    0  501 -0.00000000000E+00  0.00000000000E+00  0.74762690468E+03  0.74762690469E+03  0.25500000000E-02 0.  1.
          2   -1    0    0  501    0  0.00000000000E+00 -0.00000000000E+00 -0.29625201462E+04  0.29625201462E+04  0.25500000000E-02 0. -1.
    8880023    1    1    2    0    0 -0.95046417472E+02  0.60544900578E+03  0.42552086793E+03  0.99522888593E+03  0.65864270000E+03 0.  0.
    8880022    1    1    2    0    0  0.95046417472E+02 -0.60544900578E+03 -0.26404141095E+04  0.27149181650E+04  0.15294330000E+03 0.  0.
<mgrwt>
<rscale>  0 0.82353965E+03</rscale>
<asrwt>0</asrwt>
<pdfrwt beam="1">  1        2 0.45577233E+00 0.89967357E+03</pdfrwt>
<pdfrwt beam="2">  1       -2 0.11501952E+00 0.89967357E+03</pdfrwt>
<totfact> 0.11212476E+00</totfact>
</mgrwt>
</event>
<event>
 4    1  0.2502834E-007  0.9064275E+03  0.7818608E-02  0.9515791E-01
          2   -1    0    0  501    0  0.00000000000E+00  0.00000000000E+00  0.23120991559E+04  0.23120991559E+04  0.25500000000E-02 0. -1.
         -2   -1    0    0    0  501 -0.00000000000E+00 -0.00000000000E+00 -0.58350252459E+03  0.58350252460E+03  0.25500000000E-02 0.  1.
    8880023    1    1    2    0    0  0.32920948033E+03 -0.52860362280E+03 -0.14260381020E+03  0.91757654990E+03  0.65864270000E+03 0.  1.
    8880022    1    1    2    0    0 -0.32920948033E+03  0.52860362280E+03  0.18712004415E+04  0.19780251306E+04  0.15294330000E+03 0.  0.
<mgrwt>
<rscale>  0 0.83129553E+03</rscale>
<asrwt>0</asrwt>
<pdfrwt beam="1">  1        2 0.35570756E+00 0.90642754E+03</pdfrwt>
<pdfrwt beam="2">  1       -2 0.89769619E-01 0.90642754E+03</pdfrwt>
<totfact> 0.48335900E+00</totfact>
</mgrwt>
</event>
<event>
 4    1  0.2502834E-007  0.1077569E+04  0.7818608E-02  0.9286451E-01
          2   -1    0    0  501    0  0.00000000000E+00  0.00000000000E+00  0.82878895480E+03  0.82878895480E+03  0.25500000000E-02 0. -1.
         -2   -1    0    0    0  501 -0.00000000000E+00 -0.00000000000E+00 -0.15007576527E+04  0.15007576527E+04  0.25500000000E-02 0.  1.
    8880023    1    1    2    0    0  0.68688058794E+03  0.50550975621E+03 -0.93222801842E+03  0.14248523925E+04  0.65864270000E+03 0.  1.
    8880022    1    1    2    0    0 -0.68688058794E+03 -0.50550975621E+03  0.26025932057E+03  0.90469421500E+03  0.15294330000E+03 0.  0.
<mgrwt>
<rscale>  0 0.10203985E+04</rscale>
<asrwt>0</asrwt>
<pdfrwt beam="1">  1        2 0.12750599E+00 0.10775691E+04</pdfrwt>
<pdfrwt beam="2">  1       -2 0.23088579E+00 0.10775691E+04</pdfrwt>
<totfact> 0.27367291E+00</totfact>
</mgrwt>
</event>
<event>
 4    1  0.2502834E-007  0.1129546E+04  0.7818608E-02  0.9228852E-01
         -2   -1    0    0    0  501 -0.00000000000E+00  0.00000000000E+00  0.91621576216E+03  0.91621576216E+03  0.25500000000E-02 0.  1.
          2   -1    0    0  501    0  0.00000000000E+00 -0.00000000000E+00 -0.27671012439E+04  0.27671012439E+04  0.25500000000E-02 0. -1.
    8880023    1    1    2    0    0  0.46224345210E+03 -0.79271355775E+03  0.43885690185E+03  0.12118041839E+04  0.65864270000E+03 0.  0.
    8880022    1    1    2    0    0 -0.46224345210E+03  0.79271355775E+03 -0.22897423836E+04  0.24715128222E+04  0.15294330000E+03 0.  0.
<mgrwt>
<rscale>  0 0.10760526E+04</rscale>
<asrwt>0</asrwt>
<pdfrwt beam="1">  1        2 0.42570788E+00 0.11295459E+04</pdfrwt>
<pdfrwt beam="2">  1       -2 0.14095627E+00 0.11295459E+04</pdfrwt>
<totfact> 0.84705140E-01</totfact>
</mgrwt>
</event>
<event>
 4    1  0.2502834E-007  0.7123637E+03  0.7818608E-02  0.9949326E-01
         -2   -1    0    0    0  501 -0.00000000000E+00  0.00000000000E+00  0.38781619819E+03  0.38781619820E+03  0.25500000000E-02 0.  1.
          2   -1    0    0  501    0  0.00000000000E+00 -0.00000000000E+00 -0.24824106056E+04  0.24824106057E+04  0.25500000000E-02 0. -1.
    8880023    1    1    2    0    0 -0.15575057788E+03  0.22224677712E+03  0.39555283404E+02  0.71346107053E+03  0.65864270000E+03 0.  1.
    8880022    1    1    2    0    0  0.15575057788E+03 -0.22224677712E+03 -0.21341496909E+04  0.21567657333E+04  0.15294330000E+03 0.  0.
<mgrwt>
<rscale>  0 0.57929152E+03</rscale>
<asrwt>0</asrwt>
<pdfrwt beam="1">  1        2 0.38190931E+00 0.71236373E+03</pdfrwt>
<pdfrwt beam="2">  1       -2 0.59664032E-01 0.71236373E+03</pdfrwt>
<totfact> 0.98524390E+00</totfact>
</mgrwt>
</event>
<event>
 4    1  0.2502834E-007  0.1069467E+04  0.7818608E-02  0.9295838E-01
         -2   -1    0    0    0  501 -0.00000000000E+00  0.00000000000E+00  0.97433918592E+03  0.97433918592E+03  0.25500000000E-02 0.  1.
          2   -1    0    0  501    0  0.00000000000E+00 -0.00000000000E+00 -0.17476036045E+04  0.17476036045E+04  0.25500000000E-02 0. -1.
    8880023    1    1    2    0    0  0.84213780196E+03  0.27441550519E+02  0.50550649455E+03  0.11829184834E+04  0.65864270000E+03 0.  1.
    8880022    1    1    2    0    0 -0.84213780196E+03 -0.27441550519E+02 -0.12787709132E+04  0.15390243070E+04  0.15294330000E+03 0.  0.
<mgrwt>
<rscale>  0 0.10116696E+04</rscale>
<asrwt>0</asrwt>
<pdfrwt beam="1">  1        2 0.26886209E+00 0.10694668E+04</pdfrwt>
<pdfrwt beam="2">  1       -2 0.14989834E+00 0.10694668E+04</pdfrwt>
<totfact> 0.27318168E+00</totfact>
</mgrwt>
</event>
<event>
 4    1  0.2502834E-007  0.6964159E+03  0.7818608E-02  0.1001241E+00
          2   -1    0    0  501    0  0.00000000000E+00  0.00000000000E+00  0.11205828602E+04  0.11205828602E+04  0.25500000000E-02 0. -1.
         -2   -1    0    0    0  501 -0.00000000000E+00 -0.00000000000E+00 -0.20625922475E+04  0.20625922475E+04  0.25500000000E-02 0.  1.
    8880023    1    1    2    0    0  0.14077043496E+02 -0.22580244096E+03 -0.19857352342E+04  0.21043145041E+04  0.65864270000E+03 0.  1.
    8880022    1    1    2    0    0 -0.14077043496E+02  0.22580244096E+03  0.10437258469E+04  0.10788606036E+04  0.15294330000E+03 0.  0.
<mgrwt>
<rscale>  0 0.55109542E+03</rscale>
<asrwt>0</asrwt>
<pdfrwt beam="1">  1        2 0.17239736E+00 0.69641590E+03</pdfrwt>
<pdfrwt beam="2">  1       -2 0.31732188E+00 0.69641590E+03</pdfrwt>
<totfact> 0.56050074E-01</totfact>
</mgrwt>
</event>
<event>
 4    1  0.2502834E-007  0.7515992E+03  0.7818608E-02  0.9827363E-01
         -2   -1    0    0    0  501 -0.00000000000E+00  0.00000000000E+00  0.25531844511E+04  0.25531844511E+04  0.25500000000E-02 0.  1.
          2   -1    0    0  501    0  0.00000000000E+00 -0.00000000000E+00 -0.77447587837E+03  0.77447587837E+03  0.25500000000E-02 0. -1.
    8880023    1    1    2    0    0  0.36206111509E+03 -0.17004670245E+01  0.24428892289E+04  0.25558969333E+04  0.65864270000E+03 0.  0.
    8880022    1    1    2    0    0 -0.36206111509E+03  0.17004670245E+01 -0.66418065616E+03  0.77176339618E+03  0.15294330000E+03 0.  0.
<mgrwt>
<rscale>  0 0.63914551E+03</rscale>
<asrwt>0</asrwt>
<pdfrwt beam="1">  1        2 0.11915013E+00 0.75159919E+03</pdfrwt>
<pdfrwt beam="2">  1       -2 0.39279761E+00 0.75159919E+03</pdfrwt>
<totfact> 0.31665196E-01</totfact>
</mgrwt>
</event>
<event>
 4    1  0.2502834E-007  0.9099973E+03  0.7818608E-02  0.9510170E-01
         -2   -1    0    0    0  501 -0.00000000000E+00  0.00000000000E+00  0.27153150983E+04  0.27153150983E+04  0.25500000000E-02 0.  1.
          2   -1    0    0  501    0  0.00000000000E+00 -0.00000000000E+00 -0.79676913000E+03  0.79676913001E+03  0.25500000000E-02 0. -1.
    8880023    1    1    2    0    0  0.61699351213E+03 -0.11663546292E+03  0.24889500086E+04  0.26500881451E+04  0.65864270000E+03 0.  1.
    8880022    1    1    2    0    0 -0.61699351213E+03  0.11663546292E+03 -0.57040404032E+03  0.86199608320E+03  0.15294330000E+03 0.  0.
<mgrwt>
<rscale>  0 0.83538192E+03</rscale>
<asrwt>0</asrwt>
<pdfrwt beam="1">  1        2 0.12257986E+00 0.90999727E+03</pdfrwt>
<pdfrwt beam="2">  1       -2 0.41774079E+00 0.90999727E+03</pdfrwt>
<totfact> 0.20331966E-01</totfact>
</mgrwt>
</event>
<event>
 4    1  0.2502834E-007  0.6588517E+03  0.7818608E-02  0.1025365E+00
          2   -1    0    0  501    0  0.00000000000E+00  0.00000000000E+00  0.64601752420E+03  0.64601752420E+03  0.25500000000E-02 0. -1.
         -2   -1    0    0    0  501 -0.00000000000E+00 -0.00000000000E+00 -0.25908420621E+03  0.25908420623E+03  0.25500000000E-02 0.  1.
    8880023    1    1    2    0    0  0.13870586079E+01 -0.16536223248E+02  0.27073196684E+03  0.71230707897E+03  0.65864270000E+03 0.  1.
    8880022    1    1    2    0    0 -0.13870586079E+01  0.16536223248E+02  0.11620135114E+03  0.19279465147E+03  0.15294330000E+03 0. -1.
<mgrwt>
<rscale>  0 0.45799287E+03</rscale>
<asrwt>0</asrwt>
<pdfrwt beam="1">  1        2 0.99387310E-01 0.65885171E+03</pdfrwt>
<pdfrwt beam="2">  1       -2 0.39859109E-01 0.65885171E+03</pdfrwt>
<totfact> 0.27300159E+02</totfact>
</mgrwt>
</event>
<event>
 4    1  0.2502834E-007  0.1009485E+04  0.7818608E-02  0.9369253E-01
         -2   -1    0    0    0  501 -0.00000000000E+00  0.00000000000E+00  0.30947995422E+04  0.30947995422E+04  0.25500000000E-02 0.  1.
          2   -1    0    0  501    0  0.00000000000E+00 -0.00000000000E+00 -0.60219369319E+03  0.60219369319E+03  0.25500000000E-02 0. -1.
    8880023    1    1    2    0    0 -0.61075365342E+03 -0.46068356262E+03  0.27060130998E+04  0.28881770154E+04  0.65864270000E+03 0.  0.
    8880022    1    1    2    0    0  0.61075365342E+03  0.46068356262E+03 -0.21340725074E+03  0.80881621999E+03  0.15294330000E+03 0.  0.
<mgrwt>
<rscale>  0 0.94649864E+03</rscale>
<asrwt>0</asrwt>
<pdfrwt beam="1">  1        2 0.92645185E-01 0.10094848E+04</pdfrwt>
<pdfrwt beam="2">  1       -2 0.47612300E+00 0.10094848E+04</pdfrwt>
<totfact> 0.11727575E-01</totfact>
</mgrwt>
</event>
<event>
 4    1  0.2502834E-007  0.1353957E+04  0.7818608E-02  0.9020311E-01
          2   -1    0    0  501    0  0.00000000000E+00  0.00000000000E+00  0.20151662350E+04  0.20151662350E+04  0.25500000000E-02 0. -1.
         -2   -1    0    0    0  501 -0.00000000000E+00 -0.00000000000E+00 -0.99182274217E+03  0.99182274217E+03  0.25500000000E-02 0.  1.
    8880023    1    1    2    0    0 -0.48114425907E+03 -0.10806888397E+04 -0.11414516772E+03  0.13587595416E+04  0.65864270000E+03 0.  0.
    8880022    1    1    2    0    0  0.48114425907E+03  0.10806888397E+04  0.11374886606E+04  0.16482294356E+04  0.15294330000E+03 0.  0.
<mgrwt>
<rscale>  0 0.13117340E+04</rscale>
<asrwt>0</asrwt>
<pdfrwt beam="1">  1        2 0.31002557E+00 0.13539566E+04</pdfrwt>
<pdfrwt beam="2">  1       -2 0.15258811E+00 0.13539566E+04</pdfrwt>
<totfact> 0.17960053E+00</totfact>
</mgrwt>
</event>
<event>
 4    1  0.2502834E-007  0.6917484E+03  0.7818608E-02  0.1003332E+00
         -2   -1    0    0    0  501 -0.00000000000E+00  0.00000000000E+00  0.79564155770E+02  0.79564155811E+02  0.25500000000E-02 0.  1.
          2   -1    0    0  501    0  0.00000000000E+00 -0.00000000000E+00 -0.35318094306E+04  0.35318094306E+04  0.25500000000E-02 0. -1.
    8880023    1    1    2    0    0  0.70204047054E+02  0.19944172463E+03 -0.16324895277E+04  0.17730025026E+04  0.65864270000E+03 0. -1.
    8880022    1    1    2    0    0 -0.70204047054E+02 -0.19944172463E+03 -0.18197557471E+04  0.18383710838E+04  0.15294330000E+03 0.  0.
<mgrwt>
<rscale>  0 0.54212860E+03</rscale>
<asrwt>0</asrwt>
<pdfrwt beam="1">  1        2 0.54335518E+00 0.69174838E+03</pdfrwt>
<pdfrwt beam="2">  1       -2 0.12240642E-01 0.69174838E+03</pdfrwt>
<totfact> 0.41361754E+01</totfact>
</mgrwt>
</event>
<event>
 4    1  0.2502834E-007  0.8251212E+03  0.7818608E-02  0.9658901E-01
         -2   -1    0    0    0  501 -0.00000000000E+00  0.00000000000E+00  0.87335359619E+03  0.87335359619E+03  0.25500000000E-02 0.  1.
          2   -1    0    0  501    0  0.00000000000E+00 -0.00000000000E+00 -0.24450734768E+04  0.24450734768E+04  0.25500000000E-02 0. -1.
    8880023    1    1    2    0    0  0.18149860044E+03  0.46268027760E+03  0.64136434667E+03  0.10450709128E+04  0.65864270000E+03 0.  1.
    8880022    1    1    2    0    0 -0.18149860044E+03 -0.46268027760E+03 -0.22130842273E+04  0.22733561602E+04  0.15294330000E+03 0.  0.
<mgrwt>
<rscale>  0 0.73517450E+03</rscale>
<asrwt>0</asrwt>
<pdfrwt beam="1">  1        2 0.37616515E+00 0.82512120E+03</pdfrwt>
<pdfrwt beam="2">  1       -2 0.13436209E+00 0.82512120E+03</pdfrwt>
<totfact> 0.15473971E+00</totfact>
</mgrwt>
</event>
<event>
 4    1  0.2502834E-007  0.6652616E+03  0.7818608E-02  0.1019315E+00
         -2   -1    0    0    0  501 -0.00000000000E+00  0.00000000000E+00  0.70042814384E+03  0.70042814384E+03  0.25500000000E-02 0.  1.
          2   -1    0    0  501    0  0.00000000000E+00 -0.00000000000E+00 -0.11153660229E+04  0.11153660229E+04  0.25500000000E-02 0. -1.
    8880023    1    1    2    0    0 -0.47624204459E+02  0.80589587749E+02  0.53212938583E+03  0.85190060220E+03  0.65864270000E+03 0.  1.
    8880022    1    1    2    0    0  0.47624204459E+02 -0.80589587749E+02 -0.94706726492E+03  0.96389356456E+03  0.15294330000E+03 0.  0.
<mgrwt>
<rscale>  0 0.47934630E+03</rscale>
<asrwt>0</asrwt>
<pdfrwt beam="1">  1        2 0.17159477E+00 0.66526157E+03</pdfrwt>
<pdfrwt beam="2">  1       -2 0.10775818E+00 0.66526157E+03</pdfrwt>
<totfact> 0.15144562E+01</totfact>
</mgrwt>
</event>
<event>
 4    1  0.2502834E-007  0.7220065E+03  0.7818608E-02  0.9915854E-01
         -2   -1    0    0    0  501 -0.00000000000E+00  0.00000000000E+00  0.15791298291E+03  0.15791298293E+03  0.25500000000E-02 0.  1.
          2   -1    0    0  501    0  0.00000000000E+00 -0.00000000000E+00 -0.17885186265E+04  0.17885186265E+04  0.25500000000E-02 0. -1.
    8880023    1    1    2    0    0  0.24153532142E+03  0.17071580523E+03 -0.12217015758E+04  0.14191011747E+04  0.65864270000E+03 0. -1.
    8880022    1    1    2    0    0 -0.24153532142E+03 -0.17071580523E+03 -0.40890406780E+03  0.52733043467E+03  0.15294330000E+03 0.  0.
<mgrwt>
<rscale>  0 0.59499041E+03</rscale>
<asrwt>0</asrwt>
<pdfrwt beam="1">  1        2 0.27515670E+00 0.72200651E+03</pdfrwt>
<pdfrwt beam="2">  1       -2 0.24294306E-01 0.72200651E+03</pdfrwt>
<totfact> 0.13531157E+02</totfact>
</mgrwt>
</event>
<event>
 4    1  0.2502834E-007  0.7355023E+03  0.7818608E-02  0.9873247E-01
         -2   -1    0    0    0  501 -0.00000000000E+00  0.00000000000E+00  0.12667693474E+04  0.12667693474E+04  0.25500000000E-02 0.  1.
          2   -1    0    0  501    0  0.00000000000E+00 -0.00000000000E+00 -0.74566361238E+03  0.74566361238E+03  0.25500000000E-02 0. -1.
    8880023    1    1    2    0    0  0.32278207172E+03 -0.54453948999E+02  0.11040439434E+04  0.13266034575E+04  0.65864270000E+03 0.  1.
    8880022    1    1    2    0    0 -0.32278207172E+03  0.54453948999E+02 -0.58293820835E+03  0.68582950225E+03  0.15294330000E+03 0.  0.
<mgrwt>
<rscale>  0 0.61575528E+03</rscale>
<asrwt>0</asrwt>
<pdfrwt beam="1">  1        2 0.11471748E+00 0.73550235E+03</pdfrwt>
<pdfrwt beam="2">  1       -2 0.19488759E+00 0.73550235E+03</pdfrwt>
<totfact> 0.55541568E+00</totfact>
</mgrwt>
</event>
<event>
 4    1  0.2502834E-007  0.8787614E+03  0.7818608E-02  0.9561024E-01
          2   -1    0    0  501    0  0.00000000000E+00  0.00000000000E+00  0.12091889992E+04  0.12091889992E+04  0.25500000000E-02 0. -1.
         -2   -1    0    0    0  501 -0.00000000000E+00 -0.00000000000E+00 -0.88286241192E+03  0.88286241192E+03  0.25500000000E-02 0.  1.
    8880023    1    1    2    0    0  0.38524300076E+03  0.43588892798E+03 -0.54442849007E+03  0.10337426731E+04  0.65864270000E+03 0.  1.
    8880022    1    1    2    0    0 -0.38524300076E+03 -0.43588892798E+03  0.87075507737E+03  0.10583087380E+04  0.15294330000E+03 0.  0.
<mgrwt>
<rscale>  0 0.79930445E+03</rscale>
<asrwt>0</asrwt>
<pdfrwt beam="1">  1        2 0.18602908E+00 0.87876136E+03</pdfrwt>
<pdfrwt beam="2">  1       -2 0.13582499E+00 0.87876136E+03</pdfrwt>
<totfact> 0.72977442E+00</totfact>
</mgrwt>
</event>
<event>
 4    1  0.2502834E-007  0.1652876E+04  0.7818608E-02  0.8808607E-01
         -2   -1    0    0    0  501 -0.00000000000E+00  0.00000000000E+00  0.28949939853E+04  0.28949939853E+04  0.25500000000E-02 0.  1.
          2   -1    0    0  501    0  0.00000000000E+00 -0.00000000000E+00 -0.23878624886E+04  0.23878624886E+04  0.25500000000E-02 0. -1.
    8880023    1    1    2    0    0 -0.96118437685E+01 -0.15159476056E+04  0.23617029529E+04  0.28826447188E+04  0.65864270000E+03 0.  0.
    8880022    1    1    2    0    0  0.96118437685E+01  0.15159476056E+04 -0.18545714562E+04  0.24002117552E+04  0.15294330000E+03 0.  0.
<mgrwt>
<rscale>  0 0.16195831E+04</rscale>
<asrwt>0</asrwt>
<pdfrwt beam="1">  1        2 0.36736346E+00 0.16528762E+04</pdfrwt>
<pdfrwt beam="2">  1       -2 0.44538369E+00 0.16528762E+04</pdfrwt>
<totfact> 0.13805024E-02</totfact>
</mgrwt>
</event>
<event>
 4    1  0.2502834E-007  0.6587590E+03  0.7818608E-02  0.1025465E+00
         -2   -1    0    0    0  501 -0.00000000000E+00  0.00000000000E+00  0.44845478657E+03  0.44845478658E+03  0.25500000000E-02 0.  1.
          2   -1    0    0  501    0  0.00000000000E+00 -0.00000000000E+00 -0.24740113062E+04  0.24740113062E+04  0.25500000000E-02 0. -1.
    8880023    1    1    2    0    0  0.56944138428E+01 -0.10992028343E+02  0.20246254680E+03  0.68916945678E+03  0.65864270000E+03 0.  1.
    8880022    1    1    2    0    0 -0.56944138428E+01  0.10992028343E+02 -0.22280190664E+04  0.22332966360E+04  0.15294330000E+03 0.  0.
<mgrwt>
<rscale>  0 0.45764851E+03</rscale>
<asrwt>0</asrwt>
<pdfrwt beam="1">  1        2 0.38061711E+00 0.65875903E+03</pdfrwt>
<pdfrwt beam="2">  1       -2 0.68993046E-01 0.65875903E+03</pdfrwt>
<totfact> 0.73731481E+00</totfact>
</mgrwt>
</event>
<event>
 4    1  0.2502834E-007  0.7007083E+03  0.7818608E-02  0.9994275E-01
         -2   -1    0    0    0  501 -0.00000000000E+00  0.00000000000E+00  0.42305411528E+03  0.42305411529E+03  0.25500000000E-02 0.  1.
          2   -1    0    0  501    0  0.00000000000E+00 -0.00000000000E+00 -0.18310615934E+04  0.18310615934E+04  0.25500000000E-02 0. -1.
    8880023    1    1    2    0    0  0.15771038677E+03 -0.17974807259E+03  0.11044547332E+03  0.70935910831E+03  0.65864270000E+03 0.  1.
    8880022    1    1    2    0    0 -0.15771038677E+03  0.17974807259E+03 -0.15184529515E+04  0.15447566004E+04  0.15294330000E+03 0.  0.
<mgrwt>
<rscale>  0 0.55901961E+03</rscale>
<asrwt>0</asrwt>
<pdfrwt beam="1">  1        2 0.28170178E+00 0.70070831E+03</pdfrwt>
<pdfrwt beam="2">  1       -2 0.65085249E-01 0.70070831E+03</pdfrwt>
<totfact> 0.18733478E+01</totfact>
</mgrwt>
</event>
<event>
 4    1  0.2502834E-007  0.7134217E+03  0.7818608E-02  0.9945508E-01
          2   -1    0    0  501    0  0.00000000000E+00  0.00000000000E+00  0.13604435976E+04  0.13604435976E+04  0.25500000000E-02 0. -1.
         -2   -1    0    0    0  501 -0.00000000000E+00 -0.00000000000E+00 -0.41032647384E+03  0.41032647385E+03  0.25500000000E-02 0.  1.
    8880023    1    1    2    0    0  0.17812951005E+02  0.27357454642E+03 -0.57158618443E+02  0.71570779484E+03  0.65864270000E+03 0.  1.
    8880022    1    1    2    0    0 -0.17812951005E+02 -0.27357454642E+03  0.10072757422E+04  0.10550622766E+04  0.15294330000E+03 0.  0.
<mgrwt>
<rscale>  0 0.58105590E+03</rscale>
<asrwt>0</asrwt>
<pdfrwt beam="1">  1        2 0.20929902E+00 0.71342171E+03</pdfrwt>
<pdfrwt beam="2">  1       -2 0.63127150E-01 0.71342171E+03</pdfrwt>
<totfact> 0.36321401E+01</totfact>
</mgrwt>
</event>
<event>
 4    1  0.2502834E-007  0.8090683E+03  0.7818608E-02  0.9691521E-01
          2   -1    0    0  501    0  0.00000000000E+00  0.00000000000E+00  0.29684516948E+04  0.29684516948E+04  0.25500000000E-02 0. -1.
         -2   -1    0    0    0  501 -0.00000000000E+00 -0.00000000000E+00 -0.11910152455E+04  0.11910152455E+04  0.25500000000E-02 0.  1.
    8880023    1    1    2    0    0 -0.44053692226E+03 -0.16342744237E+03 -0.10294961693E+04  0.13093715583E+04  0.65864270000E+03 0.  0.
    8880022    1    1    2    0    0  0.44053692226E+03  0.16342744237E+03  0.28069326186E+04  0.28500953821E+04  0.15294330000E+03 0.  0.
<mgrwt>
<rscale>  0 0.71523883E+03</rscale>
<asrwt>0</asrwt>
<pdfrwt beam="1">  1        2 0.45668487E+00 0.80906830E+03</pdfrwt>
<pdfrwt beam="2">  1       -2 0.18323312E+00 0.80906830E+03</pdfrwt>
<totfact> 0.33179864E-01</totfact>
</mgrwt>
</event>
<event>
 4    1  0.2502834E-007  0.9171019E+03  0.7818608E-02  0.9499117E-01
         -2   -1    0    0    0  501 -0.00000000000E+00  0.00000000000E+00  0.47609176771E+03  0.47609176772E+03  0.25500000000E-02 0.  1.
          2   -1    0    0  501    0  0.00000000000E+00 -0.00000000000E+00 -0.19561014514E+04  0.19561014514E+04  0.25500000000E-02 0. -1.
    8880023    1    1    2    0    0  0.47266432110E+03 -0.42878215059E+03 -0.12362542684E+03  0.92539675033E+03  0.65864270000E+03 0.  0.
    8880022    1    1    2    0    0 -0.47266432110E+03  0.42878215059E+03 -0.13563842569E+04  0.15067964688E+04  0.15294330000E+03 0.  0.
<mgrwt>
<rscale>  0 0.84348950E+03</rscale>
<asrwt>0</asrwt>
<pdfrwt beam="1">  1        2 0.30093868E+00 0.91710190E+03</pdfrwt>
<pdfrwt beam="2">  1       -2 0.73244888E-01 0.91710190E+03</pdfrwt>
<totfact> 0.12031003E+01</totfact>
</mgrwt>
</event>
<event>
 4    1  0.2502834E-007  0.1507169E+04  0.7818608E-02  0.8904590E-01
         -2   -1    0    0    0  501 -0.00000000000E+00  0.00000000000E+00  0.89235201693E+03  0.89235201694E+03  0.25500000000E-02 0.  1.
          2   -1    0    0  501    0  0.00000000000E+00 -0.00000000000E+00 -0.30145360053E+04  0.30145360053E+04  0.25500000000E-02 0. -1.
    8880023    1    1    2    0    0 -0.13457805147E+04  0.16316830029E+03 -0.15802345705E+03  0.15154308652E+04  0.65864270000E+03 0.  0.
    8880022    1    1    2    0    0  0.13457805147E+04 -0.16316830029E+03 -0.19641605314E+04  0.23914571571E+04  0.15294330000E+03 0.  0.
<mgrwt>
<rscale>  0 0.14700900E+04</rscale>
<asrwt>0</asrwt>
<pdfrwt beam="1">  1        2 0.46377477E+00 0.15071693E+04</pdfrwt>
<pdfrwt beam="2">  1       -2 0.13728493E+00 0.15071693E+04</pdfrwt>
<totfact> 0.61140642E-01</totfact>
</mgrwt>
</event>
<event>
 4    1  0.2502834E-007  0.7736951E+03  0.7818608E-02  0.9770861E-01
         -2   -1    0    0    0  501 -0.00000000000E+00  0.00000000000E+00  0.52564009508E+03  0.52564009508E+03  0.25500000000E-02 0.  1.
          2   -1    0    0  501    0  0.00000000000E+00 -0.00000000000E+00 -0.24125474915E+04  0.24125474915E+04  0.25500000000E-02 0. -1.
    8880023    1    1    2    0    0  0.39745097290E+03  0.82623797079E+02  0.20611740231E+03  0.80068005939E+03  0.65864270000E+03 0.  1.
    8880022    1    1    2    0    0 -0.39745097290E+03 -0.82623797079E+02 -0.20930247988E+04  0.21375075272E+04  0.15294330000E+03 0.  0.
<mgrwt>
<rscale>  0 0.66950019E+03</rscale>
<asrwt>0</asrwt>
<pdfrwt beam="1">  1        2 0.37116114E+00 0.77369514E+03</pdfrwt>
<pdfrwt beam="2">  1       -2 0.80867709E-01 0.77369514E+03</pdfrwt>
<totfact> 0.55012960E+00</totfact>
</mgrwt>
</event>
<event>
 4    1  0.2502834E-007  0.7175983E+03  0.7818608E-02  0.9930798E-01
         -2   -1    0    0    0  501 -0.00000000000E+00  0.00000000000E+00  0.14713738039E+03  0.14713738042E+03  0.25500000000E-02 0.  1.
          2   -1    0    0  501    0  0.00000000000E+00 -0.00000000000E+00 -0.33863690331E+04  0.33863690331E+04  0.25500000000E-02 0. -1.
    8880023    1    1    2    0    0  0.10531301848E+03  0.26466271314E+03 -0.80710302524E+03  0.10799827236E+04  0.65864270000E+03 0.  0.
    8880022    1    1    2    0    0 -0.10531301848E+03 -0.26466271314E+03 -0.24321286275E+04  0.24535236900E+04  0.15294330000E+03 0.  0.
<mgrwt>
<rscale>  0 0.58791642E+03</rscale>
<asrwt>0</asrwt>
<pdfrwt beam="1">  1        2 0.52097979E+00 0.71759835E+03</pdfrwt>
<pdfrwt beam="2">  1       -2 0.22636523E-01 0.71759835E+03</pdfrwt>
<totfact> 0.18011932E+01</totfact>
</mgrwt>
</event>
<event>
 4    1  0.2502834E-007  0.1202132E+04  0.7818608E-02  0.9155053E-01
         -2   -1    0    0    0  501 -0.00000000000E+00  0.00000000000E+00  0.54815480148E+03  0.54815480149E+03  0.25500000000E-02 0.  1.
          2   -1    0    0  501    0  0.00000000000E+00 -0.00000000000E+00 -0.25198551269E+04  0.25198551269E+04  0.25500000000E-02 0. -1.
    8880023    1    1    2    0    0 -0.85028215447E+03 -0.53696458401E+03 -0.55528839447E+03  0.13241850754E+04  0.65864270000E+03 0.  0.
    8880022    1    1    2    0    0  0.85028215447E+03  0.53696458401E+03 -0.14164119310E+04  0.17438248530E+04  0.15294330000E+03 0.  0.
<mgrwt>
<rscale>  0 0.11529647E+04</rscale>
<asrwt>0</asrwt>
<pdfrwt beam="1">  1        2 0.38767001E+00 0.12021318E+04</pdfrwt>
<pdfrwt beam="2">  1       -2 0.84331510E-01 0.12021318E+04</pdfrwt>
<totfact> 0.40989394E+00</totfact>
</mgrwt>
</event>
<event>
 4    1  0.2502834E-007  0.6784656E+03  0.7818608E-02  0.1010205E+00
         -2   -1    0    0    0  501 -0.00000000000E+00  0.00000000000E+00  0.71332567675E+03  0.71332567675E+03  0.25500000000E-02 0.  1.
          2   -1    0    0  501    0  0.00000000000E+00 -0.00000000000E+00 -0.11255596480E+04  0.11255596480E+04  0.25500000000E-02 0. -1.
    8880023    1    1    2    0    0  0.11979594564E+02 -0.16236327470E+03  0.53603185906E+03  0.86466508189E+03  0.65864270000E+03 0.  1.
    8880022    1    1    2    0    0 -0.11979594564E+02  0.16236327470E+03 -0.94826583033E+03  0.97422024289E+03  0.15294330000E+03 0.  0.
<mgrwt>
<rscale>  0 0.51393142E+03</rscale>
<asrwt>0</asrwt>
<pdfrwt beam="1">  1        2 0.17316302E+00 0.67846558E+03</pdfrwt>
<pdfrwt beam="2">  1       -2 0.10974241E+00 0.67846558E+03</pdfrwt>
<totfact> 0.14263684E+01</totfact>
</mgrwt>
</event>
<event>
 4    1  0.2502834E-007  0.1463991E+04  0.7818608E-02  0.8935491E-01
         -2   -1    0    0    0  501 -0.00000000000E+00  0.00000000000E+00  0.23985201500E+04  0.23985201500E+04  0.25500000000E-02 0.  1.
          2   -1    0    0  501    0  0.00000000000E+00 -0.00000000000E+00 -0.19447291984E+04  0.19447291984E+04  0.25500000000E-02 0. -1.
    8880023    1    1    2    0    0  0.13028091960E+04  0.11021319019E+03  0.18928457741E+04  0.23929341987E+04  0.65864270000E+03 0.  0.
    8880022    1    1    2    0    0 -0.13028091960E+04 -0.11021319019E+03 -0.14390548224E+04  0.19503151498E+04  0.15294330000E+03 0.  0.
<mgrwt>
<rscale>  0 0.14256039E+04</rscale>
<asrwt>0</asrwt>
<pdfrwt beam="1">  1        2 0.29918911E+00 0.14639908E+04</pdfrwt>
<pdfrwt beam="2">  1       -2 0.36900310E+00 0.14639908E+04</pdfrwt>
<totfact> 0.79792788E-02</totfact>
</mgrwt>
</event>
<event>
 4    1  0.2502834E-007  0.9257961E+03  0.7818608E-02  0.9485828E-01
          2   -1    0    0  501    0  0.00000000000E+00  0.00000000000E+00  0.31669738325E+04  0.31669738325E+04  0.25500000000E-02 0. -1.
         -2   -1    0    0    0  501 -0.00000000000E+00 -0.00000000000E+00 -0.24978531585E+03  0.24978531587E+03  0.25500000000E-02 0.  1.
    8880023    1    1    2    0    0  0.22728466522E+03 -0.60961457117E+03  0.89773293609E+03  0.12895824422E+04  0.65864270000E+03 0.  0.
    8880022    1    1    2    0    0 -0.22728466522E+03  0.60961457117E+03  0.20194555806E+04  0.21271767062E+04  0.15294330000E+03 0.  0.
<mgrwt>
<rscale>  0 0.85336744E+03</rscale>
<asrwt>0</asrwt>
<pdfrwt beam="1">  1        2 0.48722672E+00 0.92579612E+03</pdfrwt>
<pdfrwt beam="2">  1       -2 0.38428512E-01 0.92579612E+03</pdfrwt>
<totfact> 0.90478031E+00</totfact>
</mgrwt>
</event>
<event>
 4    1  0.2502834E-007  0.1944824E+04  0.7818608E-02  0.8646391E-01
         -2   -1    0    0    0  501 -0.00000000000E+00  0.00000000000E+00  0.23320639369E+04  0.23320639369E+04  0.25500000000E-02 0.  1.
          2   -1    0    0  501    0  0.00000000000E+00 -0.00000000000E+00 -0.25782812062E+04  0.25782812062E+04  0.25500000000E-02 0. -1.
    8880023    1    1    2    0    0 -0.11971136111E+04 -0.13839982390E+04  0.14379534015E+04  0.24186881392E+04  0.65864270000E+03 0.  0.
    8880022    1    1    2    0    0  0.11971136111E+04  0.13839982390E+04 -0.16841706709E+04  0.24916570039E+04  0.15294330000E+03 0.  0.
<mgrwt>
<rscale>  0 0.19171012E+04</rscale>
<asrwt>0</asrwt>
<pdfrwt beam="1">  1        2 0.39665865E+00 0.19448245E+04</pdfrwt>
<pdfrwt beam="2">  1       -2 0.35877907E+00 0.19448245E+04</pdfrwt>
<totfact> 0.38124294E-02</totfact>
</mgrwt>
</event>
<event>
 4    1  0.2502834E-007  0.9257059E+03  0.7818608E-02  0.9485965E-01
         -2   -1    0    0    0  501 -0.00000000000E+00  0.00000000000E+00  0.53678117494E+03  0.53678117495E+03  0.25500000000E-02 0.  1.
          2   -1    0    0  501    0  0.00000000000E+00 -0.00000000000E+00 -0.13353611134E+04  0.13353611134E+04  0.25500000000E-02 0. -1.
    8880023    1    1    2    0    0  0.46893985025E+03  0.45079545355E+03 -0.14419138164E+03  0.93686844589E+03  0.65864270000E+03 0. -1.
    8880022    1    1    2    0    0 -0.46893985025E+03 -0.45079545355E+03 -0.65438855683E+03  0.93527384248E+03  0.15294330000E+03 0.  0.
<mgrwt>
<rscale>  0 0.85326512E+03</rscale>
<asrwt>0</asrwt>
<pdfrwt beam="1">  1        2 0.20544017E+00 0.92570586E+03</pdfrwt>
<pdfrwt beam="2">  1       -2 0.82581720E-01 0.92570586E+03</pdfrwt>
<totfact> 0.20339243E+01</totfact>
</mgrwt>
</event>
<event>
 4    1  0.2502834E-007  0.6832890E+03  0.7818608E-02  0.1007521E+00
          2   -1    0    0  501    0  0.00000000000E+00  0.00000000000E+00  0.12529026762E+04  0.12529026762E+04  0.25500000000E-02 0. -1.
         -2   -1    0    0    0  501 -0.00000000000E+00 -0.00000000000E+00 -0.52961957748E+03  0.52961957749E+03  0.25500000000E-02 0.  1.
    8880023    1    1    2    0    0 -0.92837415297E+02 -0.15638072337E+03 -0.28960891750E+03  0.74213020938E+03  0.65864270000E+03 0.  1.
    8880022    1    1    2    0    0  0.92837415297E+02  0.15638072337E+03  0.10128920162E+04  0.10403920443E+04  0.15294330000E+03 0.  0.
<mgrwt>
<rscale>  0 0.52471819E+03</rscale>
<asrwt>0</asrwt>
<pdfrwt beam="1">  1        2 0.19275426E+00 0.68328905E+03</pdfrwt>
<pdfrwt beam="2">  1       -2 0.81479935E-01 0.68328905E+03</pdfrwt>
<totfact> 0.24012047E+01</totfact>
</mgrwt>
</event>
<event>
 4    1  0.2502834E-007  0.7441012E+03  0.7818608E-02  0.9848158E-01
          2   -1    0    0  501    0  0.00000000000E+00  0.00000000000E+00  0.21941698314E+04  0.21941698314E+04  0.25500000000E-02 0. -1.
         -2   -1    0    0    0  501 -0.00000000000E+00 -0.00000000000E+00 -0.15128773682E+03  0.15128773685E+03  0.25500000000E-02 0.  1.
    8880023    1    1    2    0    0  0.33061550339E+03  0.10280925242E+03  0.10863129928E+04  0.13167241465E+04  0.65864270000E+03 0.  0.
    8880022    1    1    2    0    0 -0.33061550339E+03 -0.10280925242E+03  0.95656910173E+03  0.10287334217E+04  0.15294330000E+03 0.  0.
<mgrwt>
<rscale>  0 0.62840936E+03</rscale>
<asrwt>0</asrwt>
<pdfrwt beam="1">  1        2 0.33756456E+00 0.74410118E+03</pdfrwt>
<pdfrwt beam="2">  1       -2 0.23275039E-01 0.74410118E+03</pdfrwt>
<totfact> 0.87522396E+01</totfact>
</mgrwt>
</event>
<event>
 4    1  0.2502834E-007  0.1046966E+04  0.7818608E-02  0.9322537E-01
         -2   -1    0    0    0  501 -0.00000000000E+00  0.00000000000E+00  0.15598527293E+04  0.15598527293E+04  0.25500000000E-02 0.  1.
          2   -1    0    0  501    0  0.00000000000E+00 -0.00000000000E+00 -0.65698213927E+03  0.65698213928E+03  0.25500000000E-02 0. -1.
    8880023    1    1    2    0    0  0.79327205567E+03  0.18178982712E+03  0.91233012182E+03  0.13886988705E+04  0.65864270000E+03 0.  1.
    8880022    1    1    2    0    0 -0.79327205567E+03 -0.18178982712E+03 -0.94595317741E+01  0.82813599808E+03  0.15294330000E+03 0.  0.
<mgrwt>
<rscale>  0 0.98734252E+03</rscale>
<asrwt>0</asrwt>
<pdfrwt beam="1">  1        2 0.10107418E+00 0.10469662E+04</pdfrwt>
<pdfrwt beam="2">  1       -2 0.23997734E+00 0.10469662E+04</pdfrwt>
<totfact> 0.32630498E+00</totfact>
</mgrwt>
</event>
<event>
 4    1  0.2502834E-007  0.8296041E+03  0.7818608E-02  0.9650103E-01
          2   -1    0    0  501    0  0.00000000000E+00  0.00000000000E+00  0.12477111286E+04  0.12477111286E+04  0.25500000000E-02 0. -1.
         -2   -1    0    0    0  501 -0.00000000000E+00 -0.00000000000E+00 -0.65482889686E+03  0.65482889687E+03  0.25500000000E-02 0.  1.
    8880023    1    1    2    0    0 -0.18473134123E+03 -0.46936890007E+03 -0.28616910505E+03  0.87757381213E+03  0.65864270000E+03 0.  1.
    8880022    1    1    2    0    0  0.18473134123E+03  0.46936890007E+03  0.87905133683E+03  0.10249662134E+04  0.15294330000E+03 0. -1.
<mgrwt>
<rscale>  0 0.74066957E+03</rscale>
<asrwt>0</asrwt>
<pdfrwt beam="1">  1        2 0.19195556E+00 0.82960415E+03</pdfrwt>
<pdfrwt beam="2">  1       -2 0.10074291E+00 0.82960415E+03</pdfrwt>
<totfact> 0.14557219E+01</totfact>
</mgrwt>
</event>
<event>
 4    1  0.2502834E-007  0.7567258E+03  0.7818608E-02  0.9813659E-01
         -2   -1    0    0    0  501 -0.00000000000E+00  0.00000000000E+00  0.24105479291E+03  0.24105479292E+03  0.25500000000E-02 0.  1.
          2   -1    0    0  501    0  0.00000000000E+00 -0.00000000000E+00 -0.20723696497E+04  0.20723696497E+04  0.25500000000E-02 0. -1.
    8880023    1    1    2    0    0 -0.37189431271E+03 -0.22767553239E+02 -0.46315264020E+03  0.88721153943E+03  0.65864270000E+03 0.  1.
    8880022    1    1    2    0    0  0.37189431271E+03  0.22767553239E+02 -0.13681622166E+04  0.14262129032E+04  0.15294330000E+03 0.  0.
<mgrwt>
<rscale>  0 0.64634652E+03</rscale>
<asrwt>0</asrwt>
<pdfrwt beam="1">  1        2 0.31882609E+00 0.75672581E+03</pdfrwt>
<pdfrwt beam="2">  1       -2 0.37085354E-01 0.75672581E+03</pdfrwt>
<totfact> 0.43028765E+01</totfact>
</mgrwt>
</event>
<event>
 4    1  0.2502834E-007  0.1386459E+04  0.7818608E-02  0.8994276E-01
         -2   -1    0    0    0  501 -0.00000000000E+00  0.00000000000E+00  0.20129995113E+04  0.20129995113E+04  0.25500000000E-02 0.  1.
          2   -1    0    0  501    0  0.00000000000E+00 -0.00000000000E+00 -0.17592068413E+04  0.17592068413E+04  0.25500000000E-02 0. -1.
    8880023    1    1    2    0    0  0.93832549771E+03 -0.77974597184E+03  0.14853809012E+04  0.20319018550E+04  0.65864270000E+03 0.  0.
    8880022    1    1    2    0    0 -0.93832549771E+03  0.77974597184E+03 -0.12315882312E+04  0.17403044976E+04  0.15294330000E+03 0.  0.
<mgrwt>
<rscale>  0 0.13454541E+04</rscale>
<asrwt>0</asrwt>
<pdfrwt beam="1">  1        2 0.27064721E+00 0.13864591E+04</pdfrwt>
<pdfrwt beam="2">  1       -2 0.30969223E+00 0.13864591E+04</pdfrwt>
<totfact> 0.23993440E-01</totfact>
</mgrwt>
</event>
<event>
 4    1  0.2502834E-007  0.6678314E+03  0.7818608E-02  0.1017268E+00
         -2   -1    0    0    0  501 -0.00000000000E+00  0.00000000000E+00  0.17599627597E+03  0.17599627598E+03  0.25500000000E-02 0.  1.
          2   -1    0    0  501    0  0.00000000000E+00 -0.00000000000E+00 -0.21562981336E+04  0.21562981336E+04  0.25500000000E-02 0. -1.
    8880023    1    1    2    0    0  0.95134222694E+02  0.56018098468E+02 -0.48554569297E+03  0.82568357977E+03  0.65864270000E+03 0.  0.
    8880022    1    1    2    0    0 -0.95134222694E+02 -0.56018098468E+02 -0.14947561646E+04  0.15066108298E+04  0.15294330000E+03 0. -1.
<mgrwt>
<rscale>  0 0.48685672E+03</rscale>
<asrwt>0</asrwt>
<pdfrwt beam="1">  1        2 0.33173816E+00 0.66783138E+03</pdfrwt>
<pdfrwt beam="2">  1       -2 0.27076352E-01 0.66783138E+03</pdfrwt>
<totfact> 0.70547561E+01</totfact>
</mgrwt>
</event>
<event>
 4    1  0.2502834E-007  0.8140586E+03  0.7818608E-02  0.9681184E-01
         -2   -1    0    0    0  501 -0.00000000000E+00  0.00000000000E+00  0.35864794080E+03  0.35864794081E+03  0.25500000000E-02 0.  1.
          2   -1    0    0  501    0  0.00000000000E+00 -0.00000000000E+00 -0.12214362885E+04  0.12214362885E+04  0.25500000000E-02 0. -1.
    8880023    1    1    2    0    0  0.39246487858E+03 -0.27359178873E+03 -0.45133929715E+03  0.93080530467E+03  0.65864270000E+03 0.  1.
    8880022    1    1    2    0    0 -0.39246487858E+03  0.27359178873E+03 -0.41144905054E+03  0.64927892464E+03  0.15294330000E+03 0.  0.
<mgrwt>
<rscale>  0 0.72148207E+03</rscale>
<asrwt>0</asrwt>
<pdfrwt beam="1">  1        2 0.18791327E+00 0.81405857E+03</pdfrwt>
<pdfrwt beam="2">  1       -2 0.55176607E-01 0.81405857E+03</pdfrwt>
<totfact> 0.57467490E+01</totfact>
</mgrwt>
</event>
<event>
 4    1  0.2502834E-007  0.1111253E+04  0.7818608E-02  0.9248630E-01
         -2   -1    0    0    0  501 -0.00000000000E+00  0.00000000000E+00  0.10242349762E+04  0.10242349762E+04  0.25500000000E-02 0.  1.
          2   -1    0    0  501    0  0.00000000000E+00 -0.00000000000E+00 -0.15770492019E+04  0.15770492019E+04  0.25500000000E-02 0. -1.
    8880023    1    1    2    0    0 -0.87959948010E+03 -0.16546168462E+03  0.49351156177E+03  0.12159098167E+04  0.65864270000E+03 0.  1.
    8880022    1    1    2    0    0  0.87959948010E+03  0.16546168462E+03 -0.10463257875E+04  0.13853743613E+04  0.15294330000E+03 0.  0.
<mgrwt>
<rscale>  0 0.10565284E+04</rscale>
<asrwt>0</asrwt>
<pdfrwt beam="1">  1        2 0.24262295E+00 0.11112529E+04</pdfrwt>
<pdfrwt beam="2">  1       -2 0.15757461E+00 0.11112529E+04</pdfrwt>
<totfact> 0.29574627E+00</totfact>
</mgrwt>
</event>
<event>
 4    1  0.2502834E-007  0.6912478E+03  0.7818608E-02  0.1003565E+00
         -2   -1    0    0    0  501 -0.00000000000E+00  0.00000000000E+00  0.28912397376E+03  0.28912397377E+03  0.25500000000E-02 0.  1.
          2   -1    0    0  501    0  0.00000000000E+00 -0.00000000000E+00 -0.20545904154E+04  0.20545904154E+04  0.25500000000E-02 0. -1.
    8880023    1    1    2    0    0  0.18639548878E+03 -0.96281164511E+02 -0.14976396880E+03  0.70728551059E+03  0.65864270000E+03 0.  1.
    8880022    1    1    2    0    0 -0.18639548878E+03  0.96281164511E+02 -0.16157024728E+04  0.16364288786E+04  0.15294330000E+03 0.  0.
<mgrwt>
<rscale>  0 0.54114274E+03</rscale>
<asrwt>0</asrwt>
<pdfrwt beam="1">  1        2 0.31609082E+00 0.69124782E+03</pdfrwt>
<pdfrwt beam="2">  1       -2 0.44480613E-01 0.69124782E+03</pdfrwt>
<totfact> 0.31108221E+01</totfact>
</mgrwt>
</event>
<event>
 4    1  0.2502834E-007  0.6818249E+03  0.7818608E-02  0.1008310E+00
          2   -1    0    0  501    0  0.00000000000E+00  0.00000000000E+00  0.16982397233E+04  0.16982397233E+04  0.25500000000E-02 0. -1.
         -2   -1    0    0    0  501 -0.00000000000E+00 -0.00000000000E+00 -0.55077026986E+03  0.55077026987E+03  0.25500000000E-02 0.  1.
    8880023    1    1    2    0    0  0.54578085186E+02 -0.16761926105E+03 -0.32700064656E+03  0.75618424552E+03  0.65864270000E+03 0.  1.
    8880022    1    1    2    0    0 -0.54578085186E+02  0.16761926105E+03  0.14744701000E+04  0.14928257476E+04  0.15294330000E+03 0.  0.
<mgrwt>
<rscale>  0 0.52151999E+03</rscale>
<asrwt>0</asrwt>
<pdfrwt beam="1">  1        2 0.26126765E+00 0.68182490E+03</pdfrwt>
<pdfrwt beam="2">  1       -2 0.84733889E-01 0.68182490E+03</pdfrwt>
<totfact> 0.12388600E+01</totfact>
</mgrwt>
</event>
<event>
 4    1  0.2502834E-007  0.1003188E+04  0.7818608E-02  0.9377398E-01
         -2   -1    0    0    0  501 -0.00000000000E+00  0.00000000000E+00  0.43188117158E+03  0.43188117159E+03  0.25500000000E-02 0.  1.
          2   -1    0    0  501    0  0.00000000000E+00 -0.00000000000E+00 -0.21154848745E+04  0.21154848745E+04  0.25500000000E-02 0. -1.
    8880023    1    1    2    0    0 -0.56922593338E+03  0.49855617063E+03 -0.46714081698E+03  0.11066197033E+04  0.65864270000E+03 0.  1.
    8880022    1    1    2    0    0  0.56922593338E+03 -0.49855617063E+03 -0.12164628859E+04  0.14407463428E+04  0.15294330000E+03 0.  0.
<mgrwt>
<rscale>  0 0.93959283E+03</rscale>
<asrwt>0</asrwt>
<pdfrwt beam="1">  1        2 0.32545921E+00 0.10031882E+04</pdfrwt>
<pdfrwt beam="2">  1       -2 0.66443258E-01 0.10031882E+04</pdfrwt>
<totfact> 0.12046298E+01</totfact>
</mgrwt>
</event>
<event>
 4    1  0.2502834E-007  0.6639490E+03  0.7818608E-02  0.1020432E+00
          2   -1    0    0  501    0  0.00000000000E+00  0.00000000000E+00  0.16084934141E+04  0.16084934141E+04  0.25500000000E-02 0. -1.
         -2   -1    0    0    0  501 -0.00000000000E+00 -0.00000000000E+00 -0.10923595516E+03  0.10923595519E+03  0.25500000000E-02 0.  1.
    8880023    1    1    2    0    0  0.60918977642E+02  0.57505729694E+02  0.11837040945E+04  0.13571969719E+04  0.65864270000E+03 0.  0.
    8880022    1    1    2    0    0 -0.60918977642E+02 -0.57505729694E+02  0.31555336445E+03  0.36053239746E+03  0.15294330000E+03 0.  1.
<mgrwt>
<rscale>  0 0.47531062E+03</rscale>
<asrwt>0</asrwt>
<pdfrwt beam="1">  1        2 0.24746051E+00 0.66394897E+03</pdfrwt>
<pdfrwt beam="2">  1       -2 0.16805533E-01 0.66394897E+03</pdfrwt>
<totfact> 0.32514244E+02</totfact>
</mgrwt>
</event>
<event>
 4    1  0.2502834E-007  0.8832227E+03  0.7818608E-02  0.9553520E-01
         -2   -1    0    0    0  501 -0.00000000000E+00  0.00000000000E+00  0.52203989392E+03  0.52203989392E+03  0.25500000000E-02 0.  1.
          2   -1    0    0  501    0  0.00000000000E+00 -0.00000000000E+00 -0.25236298421E+04  0.25236298421E+04  0.25500000000E-02 0. -1.
    8880023    1    1    2    0    0 -0.63501626537E+02  0.58501251851E+03  0.70681575043E+02  0.88604638405E+03  0.65864270000E+03 0.  1.
    8880022    1    1    2    0    0  0.63501626537E+02 -0.58501251851E+03 -0.20722715232E+04  0.21596233520E+04  0.15294330000E+03 0.  0.
<mgrwt>
<rscale>  0 0.80450458E+03</rscale>
<asrwt>0</asrwt>
<pdfrwt beam="1">  1        2 0.38825074E+00 0.88322268E+03</pdfrwt>
<pdfrwt beam="2">  1       -2 0.80313832E-01 0.88322268E+03</pdfrwt>
<totfact> 0.47488902E+00</totfact>
</mgrwt>
</event>
<event>
 4    1  0.2502834E-007  0.7684489E+03  0.7818608E-02  0.9783706E-01
         -2   -1    0    0    0  501 -0.00000000000E+00  0.00000000000E+00  0.76294859499E+03  0.76294859500E+03  0.25500000000E-02 0.  1.
          2   -1    0    0  501    0  0.00000000000E+00 -0.00000000000E+00 -0.13103816740E+04  0.13103816740E+04  0.25500000000E-02 0. -1.
    8880023    1    1    2    0    0  0.13167418411E+03  0.37331669507E+03  0.51783533578E+03  0.92664291225E+03  0.65864270000E+03 0.  1.
    8880022    1    1    2    0    0 -0.13167418411E+03 -0.37331669507E+03 -0.10652684148E+04  0.11466873568E+04  0.15294330000E+03 0.  0.
<mgrwt>
<rscale>  0 0.66244369E+03</rscale>
<asrwt>0</asrwt>
<pdfrwt beam="1">  1        2 0.20159718E+00 0.76844886E+03</pdfrwt>
<pdfrwt beam="2">  1       -2 0.11737671E+00 0.76844886E+03</pdfrwt>
<totfact> 0.93176556E+00</totfact>
</mgrwt>
</event>
<event>
 4    1  0.2502834E-007  0.7515560E+03  0.7818608E-02  0.9827480E-01
         -2   -1    0    0    0  501 -0.00000000000E+00  0.00000000000E+00  0.61953707806E+03  0.61953707806E+03  0.25500000000E-02 0.  1.
          2   -1    0    0  501    0  0.00000000000E+00 -0.00000000000E+00 -0.17490912804E+04  0.17490912804E+04  0.25500000000E-02 0. -1.
    8880023    1    1    2    0    0 -0.10381202021E+03  0.34676970619E+03  0.35626623774E+03  0.83172231129E+03  0.65864270000E+03 0.  1.
    8880022    1    1    2    0    0  0.10381202021E+03 -0.34676970619E+03 -0.14858204401E+04  0.15369060472E+04  0.15294330000E+03 0.  0.
<mgrwt>
<rscale>  0 0.63908433E+03</rscale>
<asrwt>0</asrwt>
<pdfrwt beam="1">  1        2 0.26909096E+00 0.75155597E+03</pdfrwt>
<pdfrwt beam="2">  1       -2 0.95313398E-01 0.75155597E+03</pdfrwt>
<totfact> 0.87688667E+00</totfact>
</mgrwt>
</event>
<event>
 4    1  0.2502834E-007  0.1054547E+04  0.7818608E-02  0.9313435E-01
         -2   -1    0    0    0  501 -0.00000000000E+00  0.00000000000E+00  0.58540022245E+03  0.58540022245E+03  0.25500000000E-02 0.  1.
          2   -1    0    0  501    0  0.00000000000E+00 -0.00000000000E+00 -0.20246865535E+04  0.20246865535E+04  0.25500000000E-02 0. -1.
    8880023    1    1    2    0    0 -0.76473153725E+03 -0.30568724936E+03 -0.13944871437E+03  0.10637270179E+04  0.65864270000E+03 0.  1.
    8880022    1    1    2    0    0  0.76473153725E+03  0.30568724936E+03 -0.12998376167E+04  0.15463597581E+04  0.15294330000E+03 0.  0.
<mgrwt>
<rscale>  0 0.99555338E+03</rscale>
<asrwt>0</asrwt>
<pdfrwt beam="1">  1        2 0.31149024E+00 0.10545469E+04</pdfrwt>
<pdfrwt beam="2">  1       -2 0.90061574E-01 0.10545469E+04</pdfrwt>
<totfact> 0.67984119E+00</totfact>
</mgrwt>
</event>
<event>
 4    1  0.2502834E-007  0.9532057E+03  0.7818608E-02  0.9445517E-01
          2   -1    0    0  501    0  0.00000000000E+00  0.00000000000E+00  0.15629503310E+04  0.15629503310E+04  0.25500000000E-02 0. -1.
         -2   -1    0    0    0  501 -0.00000000000E+00 -0.00000000000E+00 -0.17734402409E+04  0.17734402409E+04  0.25500000000E-02 0.  1.
    8880023    1    1    2    0    0  0.68565876439E+03 -0.68286000730E+02 -0.15515298826E+04  0.18209464852E+04  0.65864270000E+03 0.  0.
    8880022    1    1    2    0    0 -0.68565876439E+03  0.68286000730E+02  0.13410399726E+04  0.15154440868E+04  0.15294330000E+03 0. -1.
<mgrwt>
<rscale>  0 0.88422653E+03</rscale>
<asrwt>0</asrwt>
<pdfrwt beam="1">  1        2 0.24045390E+00 0.95320571E+03</pdfrwt>
<pdfrwt beam="2">  1       -2 0.27283696E+00 0.95320571E+03</pdfrwt>
<totfact> 0.54996067E-01</totfact>
</mgrwt>
</event>
<event>
 4    1  0.2502834E-007  0.1066891E+04  0.7818608E-02  0.9298846E-01
          2   -1    0    0  501    0  0.00000000000E+00  0.00000000000E+00  0.14969886633E+04  0.14969886633E+04  0.25500000000E-02 0. -1.
         -2   -1    0    0    0  501 -0.00000000000E+00 -0.00000000000E+00 -0.71473014114E+03  0.71473014114E+03  0.25500000000E-02 0.  1.
    8880023    1    1    2    0    0 -0.36269370434E+03 -0.75690152884E+03  0.19107007281E+02  0.10670622904E+04  0.65864270000E+03 0.  1.
    8880022    1    1    2    0    0  0.36269370434E+03  0.75690152884E+03  0.76315151485E+03  0.11446565140E+04  0.15294330000E+03 0.  0.
<mgrwt>
<rscale>  0 0.10088915E+04</rscale>
<asrwt>0</asrwt>
<pdfrwt beam="1">  1        2 0.23030595E+00 0.10668912E+04</pdfrwt>
<pdfrwt beam="2">  1       -2 0.10995848E+00 0.10668912E+04</pdfrwt>
<totfact> 0.82807104E+00</totfact>
</mgrwt>
</event>
<event>
 4    1  0.2502834E-007  0.1081639E+04  0.7818608E-02  0.9281780E-01
          2   -1    0    0  501    0  0.00000000000E+00  0.00000000000E+00  0.18248113586E+04  0.18248113586E+04  0.25500000000E-02 0. -1.
         -2   -1    0    0    0  501 -0.00000000000E+00 -0.00000000000E+00 -0.65058294321E+03  0.65058294322E+03  0.25500000000E-02 0.  1.
    8880023    1    1    2    0    0 -0.93383072959E+02 -0.85288425064E+03  0.91512200583E+02  0.10855029398E+04  0.65864270000E+03 0.  0.
    8880022    1    1    2    0    0  0.93383072959E+02  0.85288425064E+03  0.10827162148E+04  0.13898913620E+04  0.15294330000E+03 0.  0.
<mgrwt>
<rscale>  0 0.10247768E+04</rscale>
<asrwt>0</asrwt>
<pdfrwt beam="1">  1        2 0.28074021E+00 0.10816386E+04</pdfrwt>
<pdfrwt beam="2">  1       -2 0.10008968E+00 0.10816386E+04</pdfrwt>
<totfact> 0.68183070E+00</totfact>
</mgrwt>
</event>
<event>
 4    1  0.2502834E-007  0.1104271E+04  0.7818608E-02  0.9256316E-01
          2   -1    0    0  501    0  0.00000000000E+00  0.00000000000E+00  0.23320477425E+04  0.23320477425E+04  0.25500000000E-02 0. -1.
         -2   -1    0    0    0  501 -0.00000000000E+00 -0.00000000000E+00 -0.10448664934E+04  0.10448664935E+04  0.25500000000E-02 0.  1.
    8880023    1    1    2    0    0  0.85626731358E+03  0.22893258167E+03 -0.62133582750E+03  0.12670723168E+04  0.65864270000E+03 0.  0.
    8880022    1    1    2    0    0 -0.85626731358E+03 -0.22893258167E+03  0.19085170766E+04  0.21098419192E+04  0.15294330000E+03 0.  0.
<mgrwt>
<rscale>  0 0.10490591E+04</rscale>
<asrwt>0</asrwt>
<pdfrwt beam="1">  1        2 0.35877657E+00 0.11042708E+04</pdfrwt>
<pdfrwt beam="2">  1       -2 0.16074869E+00 0.11042708E+04</pdfrwt>
<totfact> 0.10677661E+00</totfact>
</mgrwt>
</event>
<event>
 4    1  0.2502834E-007  0.7015246E+03  0.7818608E-02  0.9990934E-01
          2   -1    0    0  501    0  0.00000000000E+00  0.00000000000E+00  0.21870480962E+04  0.21870480962E+04  0.25500000000E-02 0. -1.
         -2   -1    0    0    0  501 -0.00000000000E+00 -0.00000000000E+00 -0.14033098892E+03  0.14033098894E+03  0.25500000000E-02 0.  1.
    8880023    1    1    2    0    0 -0.43833800844E+02  0.23749765320E+03  0.87607238068E+03  0.11223366517E+04  0.65864270000E+03 0.  0.
    8880022    1    1    2    0    0  0.43833800844E+02 -0.23749765320E+03  0.11706447266E+04  0.12050424334E+04  0.15294330000E+03 0.  0.
<mgrwt>
<rscale>  0 0.56049535E+03</rscale>
<asrwt>0</asrwt>
<pdfrwt beam="1">  1        2 0.33646892E+00 0.70152459E+03</pdfrwt>
<pdfrwt beam="2">  1       -2 0.21589384E-01 0.70152459E+03</pdfrwt>
<totfact> 0.10142653E+02</totfact>
</mgrwt>
</event>
<event>
 4    1  0.2502834E-007  0.8785438E+03  0.7818608E-02  0.9561393E-01
         -2   -1    0    0    0  501 -0.00000000000E+00  0.00000000000E+00  0.61305242979E+03  0.61305242980E+03  0.25500000000E-02 0.  1.
          2   -1    0    0  501    0  0.00000000000E+00 -0.00000000000E+00 -0.20352470535E+04  0.20352470535E+04  0.25500000000E-02 0. -1.
    8880023    1    1    2    0    0 -0.55625910201E+03 -0.16912971778E+03  0.21478494248E+03  0.90441794972E+03  0.65864270000E+03 0.  0.
    8880022    1    1    2    0    0  0.55625910201E+03  0.16912971778E+03 -0.16369795662E+04  0.17438815336E+04  0.15294330000E+03 0.  0.
<mgrwt>
<rscale>  0 0.79905045E+03</rscale>
<asrwt>0</asrwt>
<pdfrwt beam="1">  1        2 0.31311493E+00 0.87854383E+03</pdfrwt>
<pdfrwt beam="2">  1       -2 0.94315760E-01 0.87854383E+03</pdfrwt>
<totfact> 0.61565357E+00</totfact>
</mgrwt>
</event>
<event>
 4    1  0.2502834E-007  0.1533626E+04  0.7818608E-02  0.8886249E-01
         -2   -1    0    0    0  501 -0.00000000000E+00  0.00000000000E+00  0.11384490982E+04  0.11384490982E+04  0.25500000000E-02 0.  1.
          2   -1    0    0  501    0  0.00000000000E+00 -0.00000000000E+00 -0.27492148141E+04  0.27492148141E+04  0.25500000000E-02 0. -1.
    8880023    1    1    2    0    0 -0.28437008894E+02 -0.13846987109E+04  0.25946671516E+03  0.15554203181E+04  0.65864270000E+03 0.  0.
    8880022    1    1    2    0    0  0.28437008894E+02  0.13846987109E+04 -0.18702324311E+04  0.23322435942E+04  0.15294330000E+03 0.  0.
<mgrwt>
<rscale>  0 0.14973018E+04</rscale>
<asrwt>0</asrwt>
<pdfrwt beam="1">  1        2 0.42295612E+00 0.15336262E+04</pdfrwt>
<pdfrwt beam="2">  1       -2 0.17514602E+00 0.15336262E+04</pdfrwt>
<totfact> 0.45690605E-01</totfact>
</mgrwt>
</event>
<event>
 4    1  0.2502834E-007  0.7215211E+03  0.7818608E-02  0.9917472E-01
          2   -1    0    0  501    0  0.00000000000E+00  0.00000000000E+00  0.81614970175E+03  0.81614970176E+03  0.25500000000E-02 0. -1.
         -2   -1    0    0    0  501 -0.00000000000E+00 -0.00000000000E+00 -0.93179804731E+03  0.93179804731E+03  0.25500000000E-02 0.  1.
    8880023    1    1    2    0    0 -0.24412066828E+03  0.16488679237E+03 -0.74456942337E+03  0.10368106806E+04  0.65864270000E+03 0.  1.
    8880022    1    1    2    0    0  0.24412066828E+03 -0.16488679237E+03  0.62892107781E+03  0.71113706844E+03  0.15294330000E+03 0.  0.
<mgrwt>
<rscale>  0 0.59421935E+03</rscale>
<asrwt>0</asrwt>
<pdfrwt beam="1">  1        2 0.12556149E+00 0.72152114E+03</pdfrwt>
<pdfrwt beam="2">  1       -2 0.14335355E+00 0.72152114E+03</pdfrwt>
<totfact> 0.11540195E+01</totfact>
</mgrwt>
</event>
<event>
 4    1  0.2502834E-007  0.6748945E+03  0.7818608E-02  0.1012373E+00
         -2   -1    0    0    0  501 -0.00000000000E+00  0.00000000000E+00  0.36281915760E+03  0.36281915761E+03  0.25500000000E-02 0.  1.
          2   -1    0    0  501    0  0.00000000000E+00 -0.00000000000E+00 -0.16325496994E+04  0.16325496994E+04  0.25500000000E-02 0. -1.
    8880023    1    1    2    0    0 -0.79568289769E+02 -0.12385995211E+03  0.32763245635E+02  0.67568930508E+03  0.65864270000E+03 0.  1.
    8880022    1    1    2    0    0  0.79568289769E+02  0.12385995211E+03 -0.13024937875E+04  0.13196795520E+04  0.15294330000E+03 0.  0.
<mgrwt>
<rscale>  0 0.50542382E+03</rscale>
<asrwt>0</asrwt>
<pdfrwt beam="1">  1        2 0.25116149E+00 0.67489452E+03</pdfrwt>
<pdfrwt beam="2">  1       -2 0.55818333E-01 0.67489452E+03</pdfrwt>
<totfact> 0.33362556E+01</totfact>
</mgrwt>
</event>
<event>
 4    1  0.2502834E-007  0.8163258E+03  0.7818608E-02  0.9676548E-01
         -2   -1    0    0    0  501 -0.00000000000E+00  0.00000000000E+00  0.95608165324E+03  0.95608165324E+03  0.25500000000E-02 0.  1.
          2   -1    0    0  501    0  0.00000000000E+00 -0.00000000000E+00 -0.13520587748E+04  0.13520587748E+04  0.25500000000E-02 0. -1.
    8880023    1    1    2    0    0 -0.31024984057E+03 -0.36921905188E+03  0.71640691709E+03  0.10861062328E+04  0.65864270000E+03 0.  1.
    8880022    1    1    2    0    0  0.31024984057E+03  0.36921905188E+03 -0.11123840387E+04  0.12220341953E+04  0.15294330000E+03 0.  0.
<mgrwt>
<rscale>  0 0.72430444E+03</rscale>
<asrwt>0</asrwt>
<pdfrwt beam="1">  1        2 0.20800904E+00 0.81632584E+03</pdfrwt>
<pdfrwt beam="2">  1       -2 0.14708948E+00 0.81632584E+03</pdfrwt>
<totfact> 0.49348180E+00</totfact>
</mgrwt>
</event>
<event>
 4    1  0.2502834E-007  0.9658783E+03  0.7818608E-02  0.9427627E-01
          2   -1    0    0  501    0  0.00000000000E+00  0.00000000000E+00  0.37126233780E+04  0.37126233780E+04  0.25500000000E-02 0. -1.
         -2   -1    0    0    0  501 -0.00000000000E+00 -0.00000000000E+00 -0.21385645039E+03  0.21385645040E+03  0.25500000000E-02 0.  1.
    8880023    1    1    2    0    0  0.40476429962E+02  0.70531724185E+03  0.13541583446E+04  0.16633297272E+04  0.65864270000E+03 0.  0.
    8880022    1    1    2    0    0 -0.40476429962E+02 -0.70531724185E+03  0.21446085830E+04  0.22631501012E+04  0.15294330000E+03 0.  0.
<mgrwt>
<rscale>  0 0.89836507E+03</rscale>
<asrwt>0</asrwt>
<pdfrwt beam="1">  1        2 0.57117278E+00 0.96587834E+03</pdfrwt>
<pdfrwt beam="2">  1       -2 0.32900995E-01 0.96587834E+03</pdfrwt>
<totfact> 0.51661914E+00</totfact>
</mgrwt>
</event>
<event>
 4    1  0.2502834E-007  0.6792970E+03  0.7818608E-02  0.1009724E+00
          2   -1    0    0  501    0  0.00000000000E+00  0.00000000000E+00  0.24167551755E+03  0.24167551756E+03  0.25500000000E-02 0. -1.
         -2   -1    0    0    0  501 -0.00000000000E+00 -0.00000000000E+00 -0.21746973035E+04  0.21746973035E+04  0.25500000000E-02 0.  1.
    8880023    1    1    2    0    0  0.44434226132E+02 -0.16018673289E+03 -0.20516823231E+04  0.21612137218E+04  0.65864270000E+03 0.  1.
    8880022    1    1    2    0    0 -0.44434226132E+02  0.16018673289E+03  0.11866053719E+03  0.25515909928E+03  0.15294330000E+03 0.  0.
<mgrwt>
<rscale>  0 0.51584419E+03</rscale>
<asrwt>0</asrwt>
<pdfrwt beam="1">  1        2 0.37180850E-01 0.67929699E+03</pdfrwt>
<pdfrwt beam="2">  1       -2 0.33456880E+00 0.67929699E+03</pdfrwt>
<totfact> 0.28776898E+00</totfact>
</mgrwt>
</event>
<event>
 4    1  0.2502834E-007  0.1135804E+04  0.7818608E-02  0.9222202E-01
          2   -1    0    0  501    0  0.00000000000E+00  0.00000000000E+00  0.41576603966E+04  0.41576603966E+04  0.25500000000E-02 0. -1.
         -2   -1    0    0    0  501 -0.00000000000E+00 -0.00000000000E+00 -0.38547797566E+03  0.38547797567E+03  0.25500000000E-02 0.  1.
    8880023    1    1    2    0    0 -0.81120235288E+03  0.44518709819E+03  0.70745217765E+03  0.13381104587E+04  0.65864270000E+03 0.  0.
    8880022    1    1    2    0    0  0.81120235288E+03 -0.44518709819E+03  0.30647302433E+04  0.32050279136E+04  0.15294330000E+03 0.  0.
<mgrwt>
<rscale>  0 0.10827177E+04</rscale>
<asrwt>0</asrwt>
<pdfrwt beam="1">  1        2 0.63964006E+00 0.11358041E+04</pdfrwt>
<pdfrwt beam="2">  1       -2 0.59304304E-01 0.11358041E+04</pdfrwt>
<totfact> 0.69513385E-01</totfact>
</mgrwt>
</event>
<event>
 4    1  0.2502834E-007  0.9263379E+03  0.7818608E-02  0.9485009E-01
          2   -1    0    0  501    0  0.00000000000E+00  0.00000000000E+00  0.11864291412E+04  0.11864291412E+04  0.25500000000E-02 0. -1.
         -2   -1    0    0    0  501 -0.00000000000E+00 -0.00000000000E+00 -0.61768209714E+03  0.61768209715E+03  0.25500000000E-02 0.  1.
    8880023    1    1    2    0    0 -0.64515194196E+03  0.89836629627E+02  0.58997926214E+00  0.92633806064E+03  0.65864270000E+03 0.  0.
    8880022    1    1    2    0    0  0.64515194196E+03 -0.89836629627E+02  0.56815706483E+03  0.87777317775E+03  0.15294330000E+03 0.  0.
<mgrwt>
<rscale>  0 0.85398143E+03</rscale>
<asrwt>0</asrwt>
<pdfrwt beam="1">  1        2 0.18252756E+00 0.92633787E+03</pdfrwt>
<pdfrwt beam="2">  1       -2 0.95028016E-01 0.92633787E+03</pdfrwt>
<totfact> 0.17991734E+01</totfact>
</mgrwt>
</event>
<event>
 4    1  0.2502834E-007  0.1180379E+04  0.7818608E-02  0.9176436E-01
         -2   -1    0    0    0  501 -0.00000000000E+00  0.00000000000E+00  0.98882452070E+03  0.98882452070E+03  0.25500000000E-02 0.  1.
          2   -1    0    0  501    0  0.00000000000E+00 -0.00000000000E+00 -0.12562596418E+04  0.12562596418E+04  0.25500000000E-02 0. -1.
    8880023    1    1    2    0    0  0.97552930150E+03 -0.88465839802E+02  0.10725336491E+03  0.11852413735E+04  0.65864270000E+03 0.  0.
    8880022    1    1    2    0    0 -0.97552930150E+03  0.88465839802E+02 -0.37468848605E+03  0.10598427890E+04  0.15294330000E+03 0.  0.
<mgrwt>
<rscale>  0 0.11299997E+04</rscale>
<asrwt>0</asrwt>
<pdfrwt beam="1">  1        2 0.19327071E+00 0.11803787E+04</pdfrwt>
<pdfrwt beam="2">  1       -2 0.15212685E+00 0.11803787E+04</pdfrwt>
<totfact> 0.49312979E+00</totfact>
</mgrwt>
</event>
<event>
 4    1  0.2502834E-007  0.1016591E+04  0.7818608E-02  0.9360167E-01
         -2   -1    0    0    0  501 -0.00000000000E+00  0.00000000000E+00  0.89252812080E+03  0.89252812081E+03  0.25500000000E-02 0.  1.
          2   -1    0    0  501    0  0.00000000000E+00 -0.00000000000E+00 -0.19001164507E+04  0.19001164507E+04  0.25500000000E-02 0. -1.
    8880023    1    1    2    0    0 -0.70918513258E+03  0.31097070876E+03  0.46804812145E+03  0.11191628944E+04  0.65864270000E+03 0.  1.
    8880022    1    1    2    0    0  0.70918513258E+03 -0.31097070876E+03 -0.14756364513E+04  0.16734816771E+04  0.15294330000E+03 0.  0.
<mgrwt>
<rscale>  0 0.95427577E+03</rscale>
<asrwt>0</asrwt>
<pdfrwt beam="1">  1        2 0.29232561E+00 0.10165906E+04</pdfrwt>
<pdfrwt beam="2">  1       -2 0.13731202E+00 0.10165906E+04</pdfrwt>
<totfact> 0.28524156E+00</totfact>
</mgrwt>
</event>
<event>
 4    1  0.2502834E-007  0.7928268E+03  0.7818608E-02  0.9726526E-01
         -2   -1    0    0    0  501 -0.00000000000E+00  0.00000000000E+00  0.80217729509E+03  0.80217729510E+03  0.25500000000E-02 0.  1.
          2   -1    0    0  501    0  0.00000000000E+00 -0.00000000000E+00 -0.23481300571E+04  0.23481300571E+04  0.25500000000E-02 0. -1.
    8880023    1    1    2    0    0 -0.24985970596E+03  0.36377770220E+03  0.57445476453E+03  0.97906719485E+03  0.65864270000E+03 0.  1.
    8880022    1    1    2    0    0  0.24985970596E+03 -0.36377770220E+03 -0.21204075266E+04  0.21712401574E+04  0.15294330000E+03 0.  0.
<mgrwt>
<rscale>  0 0.69459166E+03</rscale>
<asrwt>0</asrwt>
<pdfrwt beam="1">  1        2 0.36125077E+00 0.79282678E+03</pdfrwt>
<pdfrwt beam="2">  1       -2 0.12341189E+00 0.79282678E+03</pdfrwt>
<totfact> 0.21874773E+00</totfact>
</mgrwt>
</event>
<event>
 4    1  0.2502834E-007  0.1672511E+04  0.7818608E-02  0.8796543E-01
          2   -1    0    0  501    0  0.00000000000E+00  0.00000000000E+00  0.27153895170E+04  0.27153895170E+04  0.25500000000E-02 0. -1.
         -2   -1    0    0    0  501 -0.00000000000E+00 -0.00000000000E+00 -0.17468514207E+04  0.17468514207E+04  0.25500000000E-02 0.  1.
    8880023    1    1    2    0    0 -0.39893081764E+03 -0.14847008805E+04  0.19980705296E+04  0.26056819740E+04  0.65864270000E+03 0.  0.
    8880022    1    1    2    0    0  0.39893081764E+03  0.14847008805E+04 -0.10295324333E+04  0.18565589638E+04  0.15294330000E+03 0.  0.
<mgrwt>
<rscale>  0 0.16396661E+04</rscale>
<asrwt>0</asrwt>
<pdfrwt beam="1">  1        2 0.41775223E+00 0.16725109E+04</pdfrwt>
<pdfrwt beam="2">  1       -2 0.26874637E+00 0.16725109E+04</pdfrwt>
<totfact> 0.11785419E-01</totfact>
</mgrwt>
</event>
<event>
 4    1  0.2502834E-007  0.1304015E+04  0.7818608E-02  0.9062100E-01
          2   -1    0    0  501    0  0.00000000000E+00  0.00000000000E+00  0.37943010141E+04  0.37943010141E+04  0.25500000000E-02 0. -1.
         -2   -1    0    0    0  501 -0.00000000000E+00 -0.00000000000E+00 -0.47334980302E+03  0.47334980302E+03  0.25500000000E-02 0.  1.
    8880023    1    1    2    0    0  0.26827139167E+03  0.10930121592E+04  0.87363495007E+03  0.15696156702E+04  0.65864270000E+03 0.  1.
    8880022    1    1    2    0    0 -0.26827139167E+03 -0.10930121592E+04  0.24473162611E+04  0.26980351470E+04  0.15294330000E+03 0.  0.
<mgrwt>
<rscale>  0 0.12597583E+04</rscale>
<asrwt>0</asrwt>
<pdfrwt beam="1">  1        2 0.58373862E+00 0.13040151E+04</pdfrwt>
<pdfrwt beam="2">  1       -2 0.72823046E-01 0.13040151E+04</pdfrwt>
<totfact> 0.84285482E-01</totfact>
</mgrwt>
</event>
<event>
 4    1  0.5189342E-007  0.1235401E+04  0.7818608E-02  0.9123455E-01
          2   -1    0    0  501    0  0.00000000000E+00  0.00000000000E+00  0.29100880940E+04  0.29100880940E+04  0.25500000000E-02 0. -1.
         -2   -1    0    0    0  501 -0.00000000000E+00 -0.00000000000E+00 -0.28388642031E+04  0.28388642031E+04  0.25500000000E-02 0.  1.
    8880023    1    1    2    0    0 -0.10397163852E+04 -0.10674949188E+03 -0.25988420239E+04  0.28775329168E+04  0.65864270000E+03 0.  0.
    8880022    1    1    2    0    0  0.10397163852E+04  0.10674949188E+03  0.26700659147E+04  0.28714193803E+04  0.15294330000E+03 0.  0.
<mgrwt>
<rscale>  0 0.11879664E+04</rscale>
<asrwt>0</asrwt>
<pdfrwt beam="1">  1        2 0.44770586E+00 0.12354011E+04</pdfrwt>
<pdfrwt beam="2">  1       -2 0.43674834E+00 0.12354011E+04</pdfrwt>
<totfact> 0.83086352E-03</totfact>
</mgrwt>
</event>
<event>
 4    1  0.2502834E-007  0.7854253E+03  0.7818608E-02  0.9743244E-01
         -2   -1    0    0    0  501 -0.00000000000E+00  0.00000000000E+00  0.15919855977E+04  0.15919855977E+04  0.25500000000E-02 0.  1.
          2   -1    0    0  501    0  0.00000000000E+00 -0.00000000000E+00 -0.51334511442E+03  0.51334511443E+03  0.25500000000E-02 0. -1.
    8880023    1    1    2    0    0 -0.22559248994E+03 -0.36358052711E+03  0.13602676473E+04  0.15707390139E+04  0.65864270000E+03 0.  1.
    8880022    1    1    2    0    0  0.22559248994E+03  0.36358052711E+03 -0.28162716407E+03  0.53459169819E+03  0.15294330000E+03 0.  0.
<mgrwt>
<rscale>  0 0.68499432E+03</rscale>
<asrwt>0</asrwt>
<pdfrwt beam="1">  1        2 0.78976172E-01 0.78542535E+03</pdfrwt>
<pdfrwt beam="2">  1       -2 0.24492086E+00 0.78542535E+03</pdfrwt>
<totfact> 0.42208142E+00</totfact>
</mgrwt>
</event>
<event>
 4    1  0.2502834E-007  0.7162882E+03  0.7818608E-02  0.9935351E-01
          2   -1    0    0  501    0  0.00000000000E+00  0.00000000000E+00  0.13236045373E+04  0.13236045373E+04  0.25500000000E-02 0. -1.
         -2   -1    0    0    0  501 -0.00000000000E+00 -0.00000000000E+00 -0.29479121756E+03  0.29479121757E+03  0.25500000000E-02 0.  1.
    8880023    1    1    2    0    0 -0.93256921292E+02  0.26563468905E+03  0.22137893762E+03  0.74971826821E+03  0.65864270000E+03 0.  0.
    8880022    1    1    2    0    0  0.93256921292E+02 -0.26563468905E+03  0.80743438211E+03  0.86867748665E+03  0.15294330000E+03 0.  0.
<mgrwt>
<rscale>  0 0.58578182E+03</rscale>
<asrwt>0</asrwt>
<pdfrwt beam="1">  1        2 0.20363147E+00 0.71628824E+03</pdfrwt>
<pdfrwt beam="2">  1       -2 0.45352495E-01 0.71628824E+03</pdfrwt>
<totfact> 0.75385565E+01</totfact>
</mgrwt>
</event>
<event>
 4    1  0.2502834E-007  0.1082346E+04  0.7818608E-02  0.9280971E-01
         -2   -1    0    0    0  501 -0.00000000000E+00  0.00000000000E+00  0.26811897506E+04  0.26811897506E+04  0.25500000000E-02 0.  1.
          2   -1    0    0  501    0  0.00000000000E+00 -0.00000000000E+00 -0.17246696711E+04  0.17246696711E+04  0.25500000000E-02 0. -1.
    8880023    1    1    2    0    0  0.46599216128E+03  0.72146669716E+03  0.24487773787E+04  0.26773090494E+04  0.65864270000E+03 0.  0.
    8880022    1    1    2    0    0 -0.46599216128E+03 -0.72146669716E+03 -0.14922572992E+04  0.17285503723E+04  0.15294330000E+03 0.  0.
<mgrwt>
<rscale>  0 0.10255376E+04</rscale>
<asrwt>0</asrwt>
<pdfrwt beam="1">  1        2 0.26533380E+00 0.10823461E+04</pdfrwt>
<pdfrwt beam="2">  1       -2 0.41249073E+00 0.10823461E+04</pdfrwt>
<totfact> 0.58662550E-02</totfact>
</mgrwt>
</event>
<event>
 4    1  0.2502834E-007  0.1374153E+04  0.7818608E-02  0.9004031E-01
         -2   -1    0    0    0  501 -0.00000000000E+00  0.00000000000E+00  0.10583606075E+04  0.10583606075E+04  0.25500000000E-02 0.  1.
          2   -1    0    0  501    0  0.00000000000E+00 -0.00000000000E+00 -0.19747779852E+04  0.19747779852E+04  0.25500000000E-02 0. -1.
    8880023    1    1    2    0    0 -0.10497713056E+02 -0.12059748878E+04 -0.11540258843E+04  0.17944557893E+04  0.65864270000E+03 0.  0.
    8880022    1    1    2    0    0  0.10497713056E+02  0.12059748878E+04  0.23760850655E+03  0.12386828034E+04  0.15294330000E+03 0.  0.
<mgrwt>
<rscale>  0 0.13326959E+04</rscale>
<asrwt>0</asrwt>
<pdfrwt beam="1">  1        2 0.30381200E+00 0.13741528E+04</pdfrwt>
<pdfrwt beam="2">  1       -2 0.16282471E+00 0.13741528E+04</pdfrwt>
<totfact> 0.15814300E+00</totfact>
</mgrwt>
</event>
<event>
 4    1  0.2502834E-007  0.9806867E+03  0.7818608E-02  0.9407273E-01
          2   -1    0    0  501    0  0.00000000000E+00  0.00000000000E+00  0.11056365689E+04  0.11056365689E+04  0.25500000000E-02 0. -1.
         -2   -1    0    0    0  501 -0.00000000000E+00 -0.00000000000E+00 -0.24604243461E+04  0.24604243461E+04  0.25500000000E-02 0.  1.
    8880023    1    1    2    0    0 -0.47367349139E+03  0.55097159248E+03 -0.22193774093E+04  0.24263929119E+04  0.65864270000E+03 0.  1.
    8880022    1    1    2    0    0  0.47367349139E+03 -0.55097159248E+03  0.86458963210E+03  0.11396680030E+04  0.15294330000E+03 0.  0.
<mgrwt>
<rscale>  0 0.91479541E+03</rscale>
<asrwt>0</asrwt>
<pdfrwt beam="1">  1        2 0.17009793E+00 0.98068674E+03</pdfrwt>
<pdfrwt beam="2">  1       -2 0.37852682E+00 0.98068674E+03</pdfrwt>
<totfact> 0.22523178E-01</totfact>
</mgrwt>
</event>
<event>
 4    1  0.2502834E-007  0.9523030E+03  0.7818608E-02  0.9446808E-01
          2   -1    0    0  501    0  0.00000000000E+00  0.00000000000E+00  0.15991376375E+04  0.15991376375E+04  0.25500000000E-02 0. -1.
         -2   -1    0    0    0  501 -0.00000000000E+00 -0.00000000000E+00 -0.85869818197E+03  0.85869818198E+03  0.25500000000E-02 0.  1.
    8880023    1    1    2    0    0  0.55887913213E+03  0.40090501441E+03 -0.46638722918E+03  0.10603763335E+04  0.65864270000E+03 0.  1.
    8880022    1    1    2    0    0 -0.55887913213E+03 -0.40090501441E+03  0.12068266847E+04  0.13974594859E+04  0.15294330000E+03 0.  0.
<mgrwt>
<rscale>  0 0.88321643E+03</rscale>
<asrwt>0</asrwt>
<pdfrwt beam="1">  1        2 0.24602117E+00 0.95230296E+03</pdfrwt>
<pdfrwt beam="2">  1       -2 0.13210741E+00 0.95230296E+03</pdfrwt>
<totfact> 0.46531425E+00</totfact>
</mgrwt>
</event>
<event>
 4    1  0.3815466E-007  0.8782312E+03  0.7818608E-02  0.9561922E-01
          2   -1    0    0  501    0  0.00000000000E+00  0.00000000000E+00  0.25657000277E+04  0.25657000277E+04  0.25500000000E-02 0. -1.
         -2   -1    0    0    0  501 -0.00000000000E+00 -0.00000000000E+00 -0.18079539452E+04  0.18079539452E+04  0.25500000000E-02 0.  1.
    8880023    1    1    2    0    0  0.39723852263E+03  0.42388842418E+03 -0.16623693422E+04  0.18800962412E+04  0.65864270000E+03 0.  1.
    8880022    1    1    2    0    0 -0.39723852263E+03 -0.42388842418E+03  0.24201154247E+04  0.24935577318E+04  0.15294330000E+03 0.  0.
<mgrwt>
<rscale>  0 0.79868535E+03</rscale>
<asrwt>0</asrwt>
<pdfrwt beam="1">  1        2 0.39472308E+00 0.87823120E+03</pdfrwt>
<pdfrwt beam="2">  1       -2 0.27814676E+00 0.87823120E+03</pdfrwt>
<totfact> 0.14376003E-01</totfact>
</mgrwt>
</event>
<event>
 4    1  0.2502834E-007  0.8182345E+03  0.7818608E-02  0.9672673E-01
          2   -1    0    0  501    0  0.00000000000E+00  0.00000000000E+00  0.37193151199E+04  0.37193151199E+04  0.25500000000E-02 0. -1.
         -2   -1    0    0    0  501 -0.00000000000E+00 -0.00000000000E+00 -0.19025175350E+03  0.19025175352E+03  0.25500000000E-02 0.  1.
    8880023    1    1    2    0    0  0.26994349694E+03  0.40351956625E+03  0.83961332160E+03  0.11723729219E+04  0.65864270000E+03 0.  1.
    8880022    1    1    2    0    0 -0.26994349694E+03 -0.40351956625E+03  0.26894500448E+04  0.27371939516E+04  0.15294330000E+03 0.  0.
<mgrwt>
<rscale>  0 0.72667381E+03</rscale>
<asrwt>0</asrwt>
<pdfrwt beam="1">  1        2 0.57220230E+00 0.81823453E+03</pdfrwt>
<pdfrwt beam="2">  1       -2 0.29269502E-01 0.81823453E+03</pdfrwt>
<totfact> 0.65233527E+00</totfact>
</mgrwt>
</event>
<event>
 4    1  0.2502834E-007  0.1830411E+04  0.7818608E-02  0.8705898E-01
          2   -1    0    0  501    0  0.00000000000E+00  0.00000000000E+00  0.39827808067E+04  0.39827808067E+04  0.25500000000E-02 0. -1.
         -2   -1    0    0    0  501 -0.00000000000E+00 -0.00000000000E+00 -0.79889759464E+03  0.79889759465E+03  0.25500000000E-02 0.  1.
    8880023    1    1    2    0    0 -0.17075422886E+04  0.29871350772E+02  0.19111712851E+04  0.26463142013E+04  0.65864270000E+03 0.  0.
    8880022    1    1    2    0    0  0.17075422886E+04 -0.29871350772E+02  0.12727119270E+04  0.21353642000E+04  0.15294330000E+03 0.  0.
<mgrwt>
<rscale>  0 0.18007546E+04</rscale>
<asrwt>0</asrwt>
<pdfrwt beam="1">  1        2 0.61273550E+00 0.18304107E+04</pdfrwt>
<pdfrwt beam="2">  1       -2 0.12290732E+00 0.18304107E+04</pdfrwt>
<totfact> 0.16388700E-01</totfact>
</mgrwt>
</event>
<event>
 4    1  0.2502834E-007  0.8827285E+03  0.7818608E-02  0.9554347E-01
         -2   -1    0    0    0  501 -0.00000000000E+00  0.00000000000E+00  0.14239216031E+04  0.14239216031E+04  0.25500000000E-02 0.  1.
          2   -1    0    0  501    0  0.00000000000E+00 -0.00000000000E+00 -0.18049728154E+04  0.18049728154E+04  0.25500000000E-02 0. -1.
    8880023    1    1    2    0    0 -0.53511207413E+03  0.24301120416E+03  0.12261177056E+04  0.15108190532E+04  0.65864270000E+03 0.  1.
    8880022    1    1    2    0    0  0.53511207413E+03 -0.24301120416E+03 -0.16071689179E+04  0.17180753653E+04  0.15294330000E+03 0.  0.
<mgrwt>
<rscale>  0 0.80392938E+03</rscale>
<asrwt>0</asrwt>
<pdfrwt beam="1">  1        2 0.27768813E+00 0.88272849E+03</pdfrwt>
<pdfrwt beam="2">  1       -2 0.21906486E+00 0.88272849E+03</pdfrwt>
<totfact> 0.87340918E-01</totfact>
</mgrwt>
</event>
<event>
 4    1  0.2502834E-007  0.6678829E+03  0.7818608E-02  0.1017228E+00
         -2   -1    0    0    0  501 -0.00000000000E+00  0.00000000000E+00  0.43088146900E+03  0.43088146901E+03  0.25500000000E-02 0.  1.
          2   -1    0    0  501    0  0.00000000000E+00 -0.00000000000E+00 -0.91164240101E+03  0.91164240102E+03  0.25500000000E-02 0. -1.
    8880023    1    1    2    0    0 -0.10860011523E+03 -0.21525110276E+02  0.14965200974E+03  0.68444374910E+03  0.65864270000E+03 0.  1.
    8880022    1    1    2    0    0  0.10860011523E+03  0.21525110276E+02 -0.63041294176E+03  0.65808012092E+03  0.15294330000E+03 0.  0.
<mgrwt>
<rscale>  0 0.48700240E+03</rscale>
<asrwt>0</asrwt>
<pdfrwt beam="1">  1        2 0.14025268E+00 0.66788287E+03</pdfrwt>
<pdfrwt beam="2">  1       -2 0.66289457E-01 0.66788287E+03</pdfrwt>
<totfact> 0.61541356E+01</totfact>
</mgrwt>
</event>
<event>
 4    1  0.2502834E-007  0.6770894E+03  0.7818608E-02  0.1011020E+00
         -2   -1    0    0    0  501 -0.00000000000E+00  0.00000000000E+00  0.79996801350E+03  0.79996801350E+03  0.25500000000E-02 0.  1.
          2   -1    0    0  501    0  0.00000000000E+00 -0.00000000000E+00 -0.84753747344E+03  0.84753747344E+03  0.25500000000E-02 0. -1.
    8880023    1    1    2    0    0  0.13824556547E+03 -0.74350865223E+02  0.63643581174E+03  0.92924734934E+03  0.65864270000E+03 0.  1.
    8880022    1    1    2    0    0 -0.13824556547E+03  0.74350865223E+02 -0.68400527168E+03  0.71825813760E+03  0.15294330000E+03 0.  0.
<mgrwt>
<rscale>  0 0.51071115E+03</rscale>
<asrwt>0</asrwt>
<pdfrwt beam="1">  1        2 0.13039038E+00 0.67708943E+03</pdfrwt>
<pdfrwt beam="2">  1       -2 0.12307200E+00 0.67708943E+03</pdfrwt>
<totfact> 0.16257342E+01</totfact>
</mgrwt>
</event>
<event>
 4    1  0.2502834E-007  0.7336798E+03  0.7818608E-02  0.9878755E-01
         -2   -1    0    0    0  501 -0.00000000000E+00  0.00000000000E+00  0.40263706359E+03  0.40263706360E+03  0.25500000000E-02 0.  1.
          2   -1    0    0  501    0  0.00000000000E+00 -0.00000000000E+00 -0.84542009270E+03  0.84542009271E+03  0.25500000000E-02 0. -1.
    8880023    1    1    2    0    0  0.22409450507E+01  0.32321941208E+03 -0.78945653874E+02  0.73791492240E+03  0.65864270000E+03 0.  1.
    8880022    1    1    2    0    0 -0.22409450507E+01 -0.32321941208E+03 -0.36383737524E+03  0.51014223390E+03  0.15294330000E+03 0.  0.
<mgrwt>
<rscale>  0 0.61302039E+03</rscale>
<asrwt>0</asrwt>
<pdfrwt beam="1">  1        2 0.13006463E+00 0.73367978E+03</pdfrwt>
<pdfrwt beam="2">  1       -2 0.61944164E-01 0.73367978E+03</pdfrwt>
<totfact> 0.78504707E+01</totfact>
</mgrwt>
</event>
<event>
 4    1  0.2502834E-007  0.1066120E+04  0.7818608E-02  0.9299750E-01
         -2   -1    0    0    0  501 -0.00000000000E+00  0.00000000000E+00  0.10580841767E+04  0.10580841767E+04  0.25500000000E-02 0.  1.
          2   -1    0    0  501    0  0.00000000000E+00 -0.00000000000E+00 -0.11472348797E+04  0.11472348797E+04  0.25500000000E-02 0. -1.
    8880023    1    1    2    0    0 -0.81995407229E+03  0.17457587068E+03  0.49167362718E+03  0.11740334651E+04  0.65864270000E+03 0.  0.
    8880022    1    1    2    0    0  0.81995407229E+03 -0.17457587068E+03 -0.58082433015E+03  0.10312855913E+04  0.15294330000E+03 0.  0.
<mgrwt>
<rscale>  0 0.10080592E+04</rscale>
<asrwt>0</asrwt>
<pdfrwt beam="1">  1        2 0.17649767E+00 0.10661199E+04</pdfrwt>
<pdfrwt beam="2">  1       -2 0.16278218E+00 0.10661199E+04</pdfrwt>
<totfact> 0.48216842E+00</totfact>
</mgrwt>
</event>
<event>
 4    1  0.2502834E-007  0.1199598E+04  0.7818608E-02  0.9157513E-01
          2   -1    0    0  501    0  0.00000000000E+00  0.00000000000E+00  0.38814466589E+04  0.38814466589E+04  0.25500000000E-02 0. -1.
         -2   -1    0    0    0  501 -0.00000000000E+00 -0.00000000000E+00 -0.97962826182E+03  0.97962826183E+03  0.25500000000E-02 0.  1.
    8880023    1    1    2    0    0 -0.92672683494E+03  0.38262657952E+03 -0.50866216995E+03  0.13029862376E+04  0.65864270000E+03 0.  0.
    8880022    1    1    2    0    0  0.92672683494E+03 -0.38262657952E+03  0.34104805671E+04  0.35580886832E+04  0.15294330000E+03 0.  0.
<mgrwt>
<rscale>  0 0.11502933E+04</rscale>
<asrwt>0</asrwt>
<pdfrwt beam="1">  1        2 0.59714563E+00 0.11995982E+04</pdfrwt>
<pdfrwt beam="2">  1       -2 0.15071204E+00 0.11995982E+04</pdfrwt>
<totfact> 0.12631698E-01</totfact>
</mgrwt>
</event>
<event>
 4    1  0.2502834E-007  0.1568378E+04  0.7818608E-02  0.8862802E-01
         -2   -1    0    0    0  501 -0.00000000000E+00  0.00000000000E+00  0.20562468977E+04  0.20562468977E+04  0.25500000000E-02 0.  1.
          2   -1    0    0  501    0  0.00000000000E+00 -0.00000000000E+00 -0.12923526716E+04  0.12923526716E+04  0.25500000000E-02 0. -1.
    8880023    1    1    2    0    0 -0.60713571979E+03 -0.12873950392E+04  0.10517417594E+04  0.18883777969E+04  0.65864270000E+03 0.  0.
    8880022    1    1    2    0    0  0.60713571979E+03  0.12873950392E+04 -0.28784753326E+03  0.14602217724E+04  0.15294330000E+03 0.  0.
<mgrwt>
<rscale>  0 0.15329966E+04</rscale>
<asrwt>0</asrwt>
<pdfrwt beam="1">  1        2 0.19882349E+00 0.15683781E+04</pdfrwt>
<pdfrwt beam="2">  1       -2 0.31634567E+00 0.15683781E+04</pdfrwt>
<totfact> 0.39474411E-01</totfact>
</mgrwt>
</event>
<event>
 4    1  0.2502834E-007  0.8264939E+03  0.7818608E-02  0.9656193E-01
         -2   -1    0    0    0  501 -0.00000000000E+00  0.00000000000E+00  0.66621294188E+03  0.66621294188E+03  0.25500000000E-02 0.  1.
          2   -1    0    0  501    0  0.00000000000E+00 -0.00000000000E+00 -0.88852418452E+03  0.88852418452E+03  0.25500000000E-02 0. -1.
    8880023    1    1    2    0    0 -0.18757283409E+03  0.46270767029E+03  0.23645653099E+03  0.85965333335E+03  0.65864270000E+03 0.  1.
    8880022    1    1    2    0    0  0.18757283409E+03 -0.46270767029E+03 -0.45876777363E+03  0.69508379305E+03  0.15294330000E+03 0.  0.
<mgrwt>
<rscale>  0 0.73686025E+03</rscale>
<asrwt>0</asrwt>
<pdfrwt beam="1">  1        2 0.13669603E+00 0.82649390E+03</pdfrwt>
<pdfrwt beam="2">  1       -2 0.10249430E+00 0.82649390E+03</pdfrwt>
<totfact> 0.23439162E+01</totfact>
</mgrwt>
</event>
<event>
 4    1  0.2502834E-007  0.1006057E+04  0.7818608E-02  0.9373675E-01
         -2   -1    0    0    0  501 -0.00000000000E+00  0.00000000000E+00  0.10691686323E+04  0.10691686323E+04  0.25500000000E-02 0.  1.
          2   -1    0    0  501    0  0.00000000000E+00 -0.00000000000E+00 -0.20193560009E+04  0.20193560009E+04  0.25500000000E-02 0. -1.
    8880023    1    1    2    0    0  0.74741692409E+03  0.14038932898E+03  0.72659487683E+03  0.12410042479E+04  0.65864270000E+03 0.  1.
    8880022    1    1    2    0    0 -0.74741692409E+03 -0.14038932898E+03 -0.16767822455E+04  0.18475203852E+04  0.15294330000E+03 0.  0.
<mgrwt>
<rscale>  0 0.94274129E+03</rscale>
<asrwt>0</asrwt>
<pdfrwt beam="1">  1        2 0.31067015E+00 0.10060574E+04</pdfrwt>
<pdfrwt beam="2">  1       -2 0.16448748E+00 0.10060574E+04</pdfrwt>
<totfact> 0.15172900E+00</totfact>
</mgrwt>
</event>
<event>
 4    1  0.2502834E-007  0.9471671E+03  0.7818608E-02  0.9454202E-01
         -2   -1    0    0    0  501 -0.00000000000E+00  0.00000000000E+00  0.54155052758E+03  0.54155052759E+03  0.25500000000E-02 0.  1.
          2   -1    0    0  501    0  0.00000000000E+00 -0.00000000000E+00 -0.33329306125E+04  0.33329306125E+04  0.25500000000E-02 0. -1.
    8880023    1    1    2    0    0  0.40283398901E+03 -0.54867120924E+03  0.50217004059E+02  0.94849737602E+03  0.65864270000E+03 0.  1.
    8880022    1    1    2    0    0 -0.40283398901E+03  0.54867120924E+03 -0.28415970890E+04  0.29259837641E+04  0.15294330000E+03 0.  0.
<mgrwt>
<rscale>  0 0.87746217E+03</rscale>
<asrwt>0</asrwt>
<pdfrwt beam="1">  1        2 0.51275854E+00 0.94716711E+03</pdfrwt>
<pdfrwt beam="2">  1       -2 0.83315468E-01 0.94716711E+03</pdfrwt>
<totfact> 0.13874570E+00</totfact>
</mgrwt>
</event>
<event>
 4    1  0.2502834E-007  0.1301648E+04  0.7818608E-02  0.9064138E-01
          2   -1    0    0  501    0  0.00000000000E+00  0.00000000000E+00  0.17106769274E+04  0.17106769274E+04  0.25500000000E-02 0. -1.
         -2   -1    0    0    0  501 -0.00000000000E+00 -0.00000000000E+00 -0.92255683110E+03  0.92255683111E+03  0.25500000000E-02 0.  1.
    8880023    1    1    2    0    0  0.69479940232E+03  0.88189016963E+03  0.74404810409E+03  0.14992979251E+04  0.65864270000E+03 0.  0.
    8880022    1    1    2    0    0 -0.69479940232E+03 -0.88189016963E+03  0.44071992195E+02  0.11339358334E+04  0.15294330000E+03 0.  0.
<mgrwt>
<rscale>  0 0.12572891E+04</rscale>
<asrwt>0</asrwt>
<pdfrwt beam="1">  1        2 0.26318107E+00 0.13016477E+04</pdfrwt>
<pdfrwt beam="2">  1       -2 0.14193182E+00 0.13016477E+04</pdfrwt>
<totfact> 0.32295274E+00</totfact>
</mgrwt>
</event>
<event>
 4    1  0.2502834E-007  0.7001161E+03  0.7818608E-02  0.9996720E-01
          2   -1    0    0  501    0  0.00000000000E+00  0.00000000000E+00  0.90863997454E+03  0.90863997455E+03  0.25500000000E-02 0. -1.
         -2   -1    0    0    0  501 -0.00000000000E+00 -0.00000000000E+00 -0.18641505986E+04  0.18641505986E+04  0.25500000000E-02 0.  1.
    8880023    1    1    2    0    0  0.18349351216E+03 -0.15060720282E+03 -0.17738943007E+04  0.19070562642E+04  0.65864270000E+03 0.  1.
    8880022    1    1    2    0    0 -0.18349351216E+03  0.15060720282E+03  0.81838367662E+03  0.86573430896E+03  0.15294330000E+03 0.  0.
<mgrwt>
<rscale>  0 0.55794303E+03</rscale>
<asrwt>0</asrwt>
<pdfrwt beam="1">  1        2 0.13979077E+00 0.70011614E+03</pdfrwt>
<pdfrwt beam="2">  1       -2 0.28679240E+00 0.70011614E+03</pdfrwt>
<totfact> 0.11646663E+00</totfact>
</mgrwt>
</event>
<event>
 4    1  0.2502834E-007  0.7149944E+03  0.7818608E-02  0.9939902E-01
          2   -1    0    0  501    0  0.00000000000E+00  0.00000000000E+00  0.57813719773E+03  0.57813719773E+03  0.25500000000E-02 0. -1.
         -2   -1    0    0    0  501 -0.00000000000E+00 -0.00000000000E+00 -0.12335306293E+04  0.12335306293E+04  0.25500000000E-02 0.  1.
    8880023    1    1    2    0    0  0.15532168114E+03 -0.23082881659E+03 -0.10715753330E+04  0.12882121983E+04  0.65864270000E+03 0.  0.
    8880022    1    1    2    0    0 -0.15532168114E+03  0.23082881659E+03  0.41618190143E+03  0.52345562877E+03  0.15294330000E+03 0.  0.
<mgrwt>
<rscale>  0 0.58365833E+03</rscale>
<asrwt>0</asrwt>
<pdfrwt beam="1">  1        2 0.88944184E-01 0.71499439E+03</pdfrwt>
<pdfrwt beam="2">  1       -2 0.18977394E+00 0.71499439E+03</pdfrwt>
<totfact> 0.82497295E+00</totfact>
</mgrwt>
</event>
<event>
 4    1  0.2502834E-007  0.1277158E+04  0.7818608E-02  0.9085540E-01
          2   -1    0    0  501    0  0.00000000000E+00  0.00000000000E+00  0.19491268200E+04  0.19491268200E+04  0.25500000000E-02 0. -1.
         -2   -1    0    0    0  501 -0.00000000000E+00 -0.00000000000E+00 -0.13975407680E+04  0.13975407680E+04  0.25500000000E-02 0.  1.
    8880023    1    1    2    0    0 -0.10837196402E+04  0.15124573963E+03 -0.87065838465E+03  0.15456971765E+04  0.65864270000E+03 0.  0.
    8880022    1    1    2    0    0  0.10837196402E+04 -0.15124573963E+03  0.14222444367E+04  0.18009704115E+04  0.15294330000E+03 0.  0.
<mgrwt>
<rscale>  0 0.12317154E+04</rscale>
<asrwt>0</asrwt>
<pdfrwt beam="1">  1        2 0.29986567E+00 0.12771585E+04</pdfrwt>
<pdfrwt beam="2">  1       -2 0.21500627E+00 0.12771585E+04</pdfrwt>
<totfact> 0.72946161E-01</totfact>
</mgrwt>
</event>
<event>
 4    1  0.2502834E-007  0.8630408E+03  0.7818608E-02  0.9588177E-01
          2   -1    0    0  501    0  0.00000000000E+00  0.00000000000E+00  0.14384734861E+04  0.14384734861E+04  0.25500000000E-02 0. -1.
         -2   -1    0    0    0  501 -0.00000000000E+00 -0.00000000000E+00 -0.71414872207E+03  0.71414872207E+03  0.25500000000E-02 0.  1.
    8880023    1    1    2    0    0 -0.36053858494E+03 -0.42548929447E+03 -0.35098010014E+03  0.93167936968E+03  0.65864270000E+03 0.  0.
    8880022    1    1    2    0    0  0.36053858494E+03  0.42548929447E+03  0.10753048641E+04  0.12209428385E+04  0.15294330000E+03 0. -1.
<mgrwt>
<rscale>  0 0.78083661E+03</rscale>
<asrwt>0</asrwt>
<pdfrwt beam="1">  1        2 0.22130361E+00 0.86304080E+03</pdfrwt>
<pdfrwt beam="2">  1       -2 0.10986904E+00 0.86304080E+03</pdfrwt>
<totfact> 0.91476289E+00</totfact>
</mgrwt>
</event>
<event>
 4    1  0.2502834E-007  0.7324604E+03  0.7818608E-02  0.9882480E-01
          2   -1    0    0  501    0  0.00000000000E+00  0.00000000000E+00  0.10420977161E+04  0.10420977161E+04  0.25500000000E-02 0. -1.
         -2   -1    0    0    0  501 -0.00000000000E+00 -0.00000000000E+00 -0.12326228826E+04  0.12326228826E+04  0.25500000000E-02 0.  1.
    8880023    1    1    2    0    0  0.94269375074E+02 -0.30626999968E+03 -0.10868500097E+04  0.13106262540E+04  0.65864270000E+03 0.  1.
    8880022    1    1    2    0    0 -0.94269375074E+02  0.30626999968E+03  0.89632484329E+03  0.96409434470E+03  0.15294330000E+03 0.  0.
<mgrwt>
<rscale>  0 0.61117946E+03</rscale>
<asrwt>0</asrwt>
<pdfrwt beam="1">  1        2 0.16032272E+00 0.73246040E+03</pdfrwt>
<pdfrwt beam="2">  1       -2 0.18963429E+00 0.73246040E+03</pdfrwt>
<totfact> 0.37863893E+00</totfact>
</mgrwt>
</event>
<event>
 4    1  0.2502834E-007  0.7530154E+03  0.7818608E-02  0.9823537E-01
         -2   -1    0    0    0  501 -0.00000000000E+00  0.00000000000E+00  0.39561726933E+03  0.39561726934E+03  0.25500000000E-02 0.  1.
          2   -1    0    0  501    0  0.00000000000E+00 -0.00000000000E+00 -0.26593086441E+04  0.26593086441E+04  0.25500000000E-02 0. -1.
    8880023    1    1    2    0    0 -0.53581432848E+02 -0.36104163811E+03  0.39353220772E+01  0.75302571498E+03  0.65864270000E+03 0.  1.
    8880022    1    1    2    0    0  0.53581432848E+02  0.36104163811E+03 -0.22676266969E+04  0.23019001985E+04  0.15294330000E+03 0.  0.
<mgrwt>
<rscale>  0 0.64114553E+03</rscale>
<asrwt>0</asrwt>
<pdfrwt beam="1">  1        2 0.40912440E+00 0.75301543E+03</pdfrwt>
<pdfrwt beam="2">  1       -2 0.60864197E-01 0.75301543E+03</pdfrwt>
<totfact> 0.74312500E+00</totfact>
</mgrwt>
</event>
<event>
 4    1  0.2502834E-007  0.8735093E+03  0.7818608E-02  0.9569970E-01
          2   -1    0    0  501    0  0.00000000000E+00  0.00000000000E+00  0.13862570203E+04  0.13862570203E+04  0.25500000000E-02 0. -1.
         -2   -1    0    0    0  501 -0.00000000000E+00 -0.00000000000E+00 -0.11835157391E+04  0.11835157391E+04  0.25500000000E-02 0.  1.
    8880023    1    1    2    0    0 -0.50085193587E+03  0.27992090823E+03 -0.93923145738E+03  0.12826434865E+04  0.65864270000E+03 0.  1.
    8880022    1    1    2    0    0  0.50085193587E+03 -0.27992090823E+03  0.11419727386E+04  0.12871292729E+04  0.15294330000E+03 0.  0.
<mgrwt>
<rscale>  0 0.79316029E+03</rscale>
<asrwt>0</asrwt>
<pdfrwt beam="1">  1        2 0.21327031E+00 0.87350935E+03</pdfrwt>
<pdfrwt beam="2">  1       -2 0.18207934E+00 0.87350935E+03</pdfrwt>
<totfact> 0.26074758E+00</totfact>
</mgrwt>
</event>
<event>
 4    1  0.2502834E-007  0.7288200E+03  0.7818608E-02  0.9893799E-01
         -2   -1    0    0    0  501 -0.00000000000E+00  0.00000000000E+00  0.18794145083E+04  0.18794145083E+04  0.25500000000E-02 0.  1.
          2   -1    0    0  501    0  0.00000000000E+00 -0.00000000000E+00 -0.28199404293E+03  0.28199404295E+03  0.25500000000E-02 0. -1.
    8880023    1    1    2    0    0  0.26935380561E+03  0.15753363581E+03  0.16557361273E+04  0.18090441256E+04  0.65864270000E+03 0.  1.
    8880022    1    1    2    0    0 -0.26935380561E+03 -0.15753363581E+03 -0.58315661907E+02  0.35236442563E+03  0.15294330000E+03 0.  0.
<mgrwt>
<rscale>  0 0.60562747E+03</rscale>
<asrwt>0</asrwt>
<pdfrwt beam="1">  1        2 0.43383700E-01 0.72881995E+03</pdfrwt>
<pdfrwt beam="2">  1       -2 0.28914068E+00 0.72881995E+03</pdfrwt>
<totfact> 0.45285101E+00</totfact>
</mgrwt>
</event>
<event>
 4    1  0.2502834E-007  0.7422791E+03  0.7818608E-02  0.9853357E-01
         -2   -1    0    0    0  501 -0.00000000000E+00  0.00000000000E+00  0.15266678893E+04  0.15266678893E+04  0.25500000000E-02 0.  1.
          2   -1    0    0  501    0  0.00000000000E+00 -0.00000000000E+00 -0.35212644510E+03  0.35212644511E+03  0.25500000000E-02 0. -1.
    8880023    1    1    2    0    0 -0.78642008248E+02 -0.33314187562E+03  0.12884399881E+04  0.14869619645E+04  0.65864270000E+03 0.  1.
    8880022    1    1    2    0    0  0.78642008248E+02  0.33314187562E+03 -0.11389854392E+03  0.39183236987E+03  0.15294330000E+03 0.  0.
<mgrwt>
<rscale>  0 0.62576035E+03</rscale>
<asrwt>0</asrwt>
<pdfrwt beam="1">  1        2 0.54173298E-01 0.74227911E+03</pdfrwt>
<pdfrwt beam="2">  1       -2 0.23487199E+00 0.74227911E+03</pdfrwt>
<totfact> 0.75026369E+00</totfact>
</mgrwt>
</event>
<event>
 4    1  0.2502834E-007  0.1236972E+04  0.7818608E-02  0.9121994E-01
         -2   -1    0    0    0  501 -0.00000000000E+00  0.00000000000E+00  0.17910349303E+04  0.17910349303E+04  0.25500000000E-02 0.  1.
          2   -1    0    0  501    0  0.00000000000E+00 -0.00000000000E+00 -0.14704749163E+04  0.14704749163E+04  0.25500000000E-02 0. -1.
    8880023    1    1    2    0    0  0.10316950388E+04 -0.17859404563E+03 -0.98481539130E+03  0.15811268284E+04  0.65864270000E+03 0.  0.
    8880022    1    1    2    0    0 -0.10316950388E+04  0.17859404563E+03  0.13053754053E+04  0.16803830182E+04  0.15294330000E+03 0.  0.
<mgrwt>
<rscale>  0 0.11896161E+04</rscale>
<asrwt>0</asrwt>
<pdfrwt beam="1">  1        2 0.22622691E+00 0.12369724E+04</pdfrwt>
<pdfrwt beam="2">  1       -2 0.27554383E+00 0.12369724E+04</pdfrwt>
<totfact> 0.57308198E-01</totfact>
</mgrwt>
</event>
<event>
 4    1  0.2502834E-007  0.1334228E+04  0.7818608E-02  0.9036552E-01
          2   -1    0    0  501    0  0.00000000000E+00  0.00000000000E+00  0.11991449037E+04  0.11991449037E+04  0.25500000000E-02 0. -1.
         -2   -1    0    0    0  501 -0.00000000000E+00 -0.00000000000E+00 -0.13595275776E+04  0.13595275776E+04  0.25500000000E-02 0.  1.
    8880023    1    1    2    0    0  0.47733989644E+03  0.10575916894E+04  0.16379456258E+03  0.13442441829E+04  0.65864270000E+03 0.  0.
    8880022    1    1    2    0    0 -0.47733989644E+03 -0.10575916894E+04 -0.32417723649E+03  0.12144282984E+04  0.15294330000E+03 0.  0.
<mgrwt>
<rscale>  0 0.12912266E+04</rscale>
<asrwt>0</asrwt>
<pdfrwt beam="1">  1        2 0.18448383E+00 0.13342278E+04</pdfrwt>
<pdfrwt beam="2">  1       -2 0.20915809E+00 0.13342278E+04</pdfrwt>
<totfact> 0.21081503E+00</totfact>
</mgrwt>
</event>
<event>
 4    1  0.2502834E-007  0.1149936E+04  0.7818608E-02  0.9207394E-01
         -2   -1    0    0    0  501 -0.00000000000E+00  0.00000000000E+00  0.15257982647E+04  0.15257982647E+04  0.25500000000E-02 0.  1.
          2   -1    0    0  501    0  0.00000000000E+00 -0.00000000000E+00 -0.16361898329E+04  0.16361898329E+04  0.25500000000E-02 0. -1.
    8880023    1    1    2    0    0 -0.86750057859E+03  0.36876246745E+03  0.11195051492E+04  0.16048816145E+04  0.65864270000E+03 0.  0.
    8880022    1    1    2    0    0  0.86750057859E+03 -0.36876246745E+03 -0.12298967173E+04  0.15571064831E+04  0.15294330000E+03 0.  0.
<mgrwt>
<rscale>  0 0.10977432E+04</rscale>
<asrwt>0</asrwt>
<pdfrwt beam="1">  1        2 0.25172151E+00 0.11499362E+04</pdfrwt>
<pdfrwt beam="2">  1       -2 0.23473820E+00 0.11499362E+04</pdfrwt>
<totfact> 0.83059843E-01</totfact>
</mgrwt>
</event>
<event>
 4    1  0.2502834E-007  0.1890352E+04  0.7818608E-02  0.8674138E-01
          2   -1    0    0  501    0  0.00000000000E+00  0.00000000000E+00  0.35641933842E+04  0.35641933842E+04  0.25500000000E-02 0. -1.
         -2   -1    0    0    0  501 -0.00000000000E+00 -0.00000000000E+00 -0.10967330940E+04  0.10967330941E+04  0.25500000000E-02 0.  1.
    8880023    1    1    2    0    0  0.17594193480E+04  0.20991256152E+03  0.21350491794E+04  0.28516424969E+04  0.65864270000E+03 0. -1.
    8880022    1    1    2    0    0 -0.17594193480E+04 -0.20991256152E+03  0.33241111081E+03  0.18092839814E+04  0.15294330000E+03 0.  0.
<mgrwt>
<rscale>  0 0.18617423E+04</rscale>
<asrwt>0</asrwt>
<pdfrwt beam="1">  1        2 0.54833744E+00 0.18903518E+04</pdfrwt>
<pdfrwt beam="2">  1       -2 0.16872817E+00 0.18903518E+04</pdfrwt>
<totfact> 0.14493032E-01</totfact>
</mgrwt>
</event>
<event>
 4    1  0.2504660E-007  0.1072219E+04  0.7818608E-02  0.9292636E-01
          2   -1    0    0  501    0  0.00000000000E+00  0.00000000000E+00  0.27010496325E+04  0.27010496325E+04  0.25500000000E-02 0. -1.
         -2   -1    0    0    0  501 -0.00000000000E+00 -0.00000000000E+00 -0.86759226787E+03  0.86759226788E+03  0.25500000000E-02 0.  1.
    8880023    1    1    2    0    0 -0.34059182649E+02  0.84538963786E+03 -0.42398934823E+03  0.11530051350E+04  0.65864270000E+03 0.  1.
    8880022    1    1    2    0    0  0.34059182649E+02 -0.84538963786E+03  0.22574467129E+04  0.24156367654E+04  0.15294330000E+03 0.  0.
<mgrwt>
<rscale>  0 0.10146366E+04</rscale>
<asrwt>0</asrwt>
<pdfrwt beam="1">  1        2 0.41554609E+00 0.10722191E+04</pdfrwt>
<pdfrwt beam="2">  1       -2 0.13347574E+00 0.10722191E+04</pdfrwt>
<totfact> 0.10761704E+00</totfact>
</mgrwt>
</event>
<event>
 4    1  0.2610945E-007  0.1001076E+04  0.7818608E-02  0.9380151E-01
          2   -1    0    0  501    0  0.00000000000E+00  0.00000000000E+00  0.23259769032E+04  0.23259769032E+04  0.25500000000E-02 0. -1.
         -2   -1    0    0    0  501 -0.00000000000E+00 -0.00000000000E+00 -0.11093985771E+04  0.11093985771E+04  0.25500000000E-02 0.  1.
    8880023    1    1    2    0    0  0.46570906833E+03  0.59283945217E+03 -0.79717244661E+03  0.12797021795E+04  0.65864270000E+03 0.  0.
    8880022    1    1    2    0    0 -0.46570906833E+03 -0.59283945217E+03  0.20137507727E+04  0.21556733008E+04  0.15294330000E+03 0.  0.
<mgrwt>
<rscale>  0 0.93727344E+03</rscale>
<asrwt>0</asrwt>
<pdfrwt beam="1">  1        2 0.35784260E+00 0.10010763E+04</pdfrwt>
<pdfrwt beam="2">  1       -2 0.17067670E+00 0.10010763E+04</pdfrwt>
<totfact> 0.92586149E-01</totfact>
</mgrwt>
</event>
<event>
 4    1  0.2502834E-007  0.1178369E+04  0.7818608E-02  0.9178441E-01
         -2   -1    0    0    0  501 -0.00000000000E+00  0.00000000000E+00  0.29201235085E+03  0.29201235086E+03  0.25500000000E-02 0.  1.
          2   -1    0    0  501    0  0.00000000000E+00 -0.00000000000E+00 -0.45869974100E+04  0.45869974100E+04  0.25500000000E-02 0. -1.
    8880023    1    1    2    0    0 -0.20296643240E+03 -0.95579699958E+03 -0.14584492561E+04  0.18750007243E+04  0.65864270000E+03 0.  0.
    8880022    1    1    2    0    0  0.20296643240E+03  0.95579699958E+03 -0.28365358031E+04  0.30040090366E+04  0.15294330000E+03 0.  0.
<mgrwt>
<rscale>  0 0.11278746E+04</rscale>
<asrwt>0</asrwt>
<pdfrwt beam="1">  1        2 0.70569186E+00 0.11783690E+04</pdfrwt>
<pdfrwt beam="2">  1       -2 0.44924980E-01 0.11783690E+04</pdfrwt>
<totfact> 0.49493223E-01</totfact>
</mgrwt>
</event>
<event>
 4    1  0.2502834E-007  0.1536910E+04  0.7818608E-02  0.8884003E-01
         -2   -1    0    0    0  501 -0.00000000000E+00  0.00000000000E+00  0.14124516551E+04  0.14124516551E+04  0.25500000000E-02 0.  1.
          2   -1    0    0  501    0  0.00000000000E+00 -0.00000000000E+00 -0.23913646413E+04  0.23913646413E+04  0.25500000000E-02 0. -1.
    8880023    1    1    2    0    0 -0.93186054310E+03  0.10295228060E+04  0.64054641083E+03  0.16650499063E+04  0.65864270000E+03 0.  0.
    8880022    1    1    2    0    0  0.93186054310E+03 -0.10295228060E+04 -0.16194593970E+04  0.21387663901E+04  0.15294330000E+03 0.  0.
<mgrwt>
<rscale>  0 0.15006767E+04</rscale>
<asrwt>0</asrwt>
<pdfrwt beam="1">  1        2 0.36790225E+00 0.15369097E+04</pdfrwt>
<pdfrwt beam="2">  1       -2 0.21730025E+00 0.15369097E+04</pdfrwt>
<totfact> 0.38636281E-01</totfact>
</mgrwt>
</event>
<event>
 4    1  0.2502834E-007  0.8773011E+03  0.7818608E-02  0.9563500E-01
         -2   -1    0    0    0  501 -0.00000000000E+00  0.00000000000E+00  0.18390026299E+04  0.18390026299E+04  0.25500000000E-02 0.  1.
          2   -1    0    0  501    0  0.00000000000E+00 -0.00000000000E+00 -0.73740817333E+03  0.73740817333E+03  0.25500000000E-02 0. -1.
    8880023    1    1    2    0    0 -0.56015432457E+03 -0.14857363435E+03  0.15815369196E+04  0.18085674514E+04  0.65864270000E+03 0.  1.
    8880022    1    1    2    0    0  0.56015432457E+03  0.14857363435E+03 -0.47994246298E+03  0.76784335183E+03  0.15294330000E+03 0.  0.
<mgrwt>
<rscale>  0 0.79759860E+03</rscale>
<asrwt>0</asrwt>
<pdfrwt beam="1">  1        2 0.11344741E+00 0.87730109E+03</pdfrwt>
<pdfrwt beam="2">  1       -2 0.28292348E+00 0.87730109E+03</pdfrwt>
<totfact> 0.15784534E+00</totfact>
</mgrwt>
</event>
<event>
 4    1  0.2502834E-007  0.1038844E+04  0.7818608E-02  0.9332414E-01
         -2   -1    0    0    0  501 -0.00000000000E+00  0.00000000000E+00  0.48880743047E+03  0.48880743048E+03  0.25500000000E-02 0.  1.
          2   -1    0    0  501    0  0.00000000000E+00 -0.00000000000E+00 -0.25231828361E+04  0.25231828361E+04  0.25500000000E-02 0. -1.
    8880023    1    1    2    0    0 -0.79745232817E+03  0.97247003921E+02 -0.27929371319E+03  0.10757334149E+04  0.65864270000E+03 0.  1.
    8880022    1    1    2    0    0  0.79745232817E+03 -0.97247003921E+02 -0.17550816925E+04  0.19362568517E+04  0.15294330000E+03 0.  0.
<mgrwt>
<rscale>  0 0.97852776E+03</rscale>
<asrwt>0</asrwt>
<pdfrwt beam="1">  1        2 0.38818197E+00 0.10388443E+04</pdfrwt>
<pdfrwt beam="2">  1       -2 0.75201145E-01 0.10388443E+04</pdfrwt>
<totfact> 0.53892559E+00</totfact>
</mgrwt>
</event>
<event>
 4    1  0.2502834E-007  0.1382890E+04  0.7818608E-02  0.8997093E-01
          2   -1    0    0  501    0  0.00000000000E+00  0.00000000000E+00  0.11167028921E+04  0.11167028921E+04  0.25500000000E-02 0. -1.
         -2   -1    0    0    0  501 -0.00000000000E+00 -0.00000000000E+00 -0.20998802527E+04  0.20998802527E+04  0.25500000000E-02 0.  1.
    8880023    1    1    2    0    0 -0.11548617191E+04 -0.38061820437E+03 -0.13547891409E+04  0.19359337877E+04  0.65864270000E+03 0.  0.
    8880022    1    1    2    0    0  0.11548617191E+04  0.38061820437E+03  0.37161178029E+03  0.12806493572E+04  0.15294330000E+03 0.  0.
<mgrwt>
<rscale>  0 0.13417555E+04</rscale>
<asrwt>0</asrwt>
<pdfrwt beam="1">  1        2 0.17180045E+00 0.13828905E+04</pdfrwt>
<pdfrwt beam="2">  1       -2 0.32305850E+00 0.13828905E+04</pdfrwt>
<totfact> 0.46737022E-01</totfact>
</mgrwt>
</event>
<event>
 4    1  0.2502834E-007  0.7889752E+03  0.7818608E-02  0.9735161E-01
         -2   -1    0    0    0  501 -0.00000000000E+00  0.00000000000E+00  0.12641872125E+04  0.12641872125E+04  0.25500000000E-02 0.  1.
          2   -1    0    0  501    0  0.00000000000E+00 -0.00000000000E+00 -0.51886355145E+03  0.51886355145E+03  0.25500000000E-02 0. -1.
    8880023    1    1    2    0    0 -0.89605497300E+01 -0.43427101952E+03  0.98651523138E+03  0.12632078680E+04  0.65864270000E+03 0.  0.
    8880022    1    1    2    0    0  0.89605497300E+01  0.43427101952E+03 -0.24119157032E+03  0.51984289593E+03  0.15294330000E+03 0.  0.
<mgrwt>
<rscale>  0 0.68961338E+03</rscale>
<asrwt>0</asrwt>
<pdfrwt beam="1">  1        2 0.79825163E-01 0.78897517E+03</pdfrwt>
<pdfrwt beam="2">  1       -2 0.19449034E+00 0.78897517E+03</pdfrwt>
<totfact> 0.86529159E+00</totfact>
</mgrwt>
</event>
<event>
 4    1  0.2502834E-007  0.8870552E+03  0.7818608E-02  0.9547140E-01
          2   -1    0    0  501    0  0.00000000000E+00  0.00000000000E+00  0.19198842356E+04  0.19198842356E+04  0.25500000000E-02 0. -1.
         -2   -1    0    0    0  501 -0.00000000000E+00 -0.00000000000E+00 -0.70854514154E+03  0.70854514155E+03  0.25500000000E-02 0.  1.
    8880023    1    1    2    0    0 -0.38537330548E+03 -0.45226553752E+03 -0.34788380647E+03  0.95283264536E+03  0.65864270000E+03 0.  0.
    8880022    1    1    2    0    0  0.38537330548E+03  0.45226553752E+03  0.15592229006E+04  0.16755967318E+04  0.15294330000E+03 0.  0.
<mgrwt>
<rscale>  0 0.80895834E+03</rscale>
<asrwt>0</asrwt>
<pdfrwt beam="1">  1        2 0.29536681E+00 0.88705519E+03</pdfrwt>
<pdfrwt beam="2">  1       -2 0.10900694E+00 0.88705519E+03</pdfrwt>
<totfact> 0.50379235E+00</totfact>
</mgrwt>
</event>
<event>
 4    1  0.2502834E-007  0.7947095E+03  0.7818608E-02  0.9722354E-01
          2   -1    0    0  501    0  0.00000000000E+00  0.00000000000E+00  0.22694297300E+04  0.22694297300E+04  0.25500000000E-02 0. -1.
         -2   -1    0    0    0  501 -0.00000000000E+00 -0.00000000000E+00 -0.23086465684E+03  0.23086465685E+03  0.25500000000E-02 0.  1.
    8880023    1    1    2    0    0 -0.29200051881E+03  0.33539336704E+03  0.62643556260E+03  0.10119213082E+04  0.65864270000E+03 0.  1.
    8880022    1    1    2    0    0  0.29200051881E+03 -0.33539336704E+03  0.14121295106E+04  0.14883730787E+04  0.15294330000E+03 0.  0.
<mgrwt>
<rscale>  0 0.69701299E+03</rscale>
<asrwt>0</asrwt>
<pdfrwt beam="1">  1        2 0.34914302E+00 0.79470952E+03</pdfrwt>
<pdfrwt beam="2">  1       -2 0.35517641E-01 0.79470952E+03</pdfrwt>
<totfact> 0.36233092E+01</totfact>
</mgrwt>
</event>
<event>
 4    1  0.2502834E-007  0.6775563E+03  0.7818608E-02  0.1010741E+00
         -2   -1    0    0    0  501 -0.00000000000E+00  0.00000000000E+00  0.57887741082E+03  0.57887741083E+03  0.25500000000E-02 0.  1.
          2   -1    0    0  501    0  0.00000000000E+00 -0.00000000000E+00 -0.33374983724E+04  0.33374983724E+04  0.25500000000E-02 0. -1.
    8880023    1    1    2    0    0 -0.98590532119E+01  0.15866666867E+03  0.37539930228E+03  0.77460128782E+03  0.65864270000E+03 0.  1.
    8880022    1    1    2    0    0  0.98590532119E+01 -0.15866666867E+03 -0.31340202639E+04  0.31417744954E+04  0.15294330000E+03 0.  0.
<mgrwt>
<rscale>  0 0.51181142E+03</rscale>
<asrwt>0</asrwt>
<pdfrwt beam="1">  1        2 0.51346128E+00 0.67755628E+03</pdfrwt>
<pdfrwt beam="2">  1       -2 0.89058065E-01 0.67755628E+03</pdfrwt>
<totfact> 0.12525104E+00</totfact>
</mgrwt>
</event>
<event>
 4    1  0.2502834E-007  0.1135195E+04  0.7818608E-02  0.9222846E-01
          2   -1    0    0  501    0  0.00000000000E+00  0.00000000000E+00  0.17183758207E+04  0.17183758207E+04  0.25500000000E-02 0. -1.
         -2   -1    0    0    0  501 -0.00000000000E+00 -0.00000000000E+00 -0.63577192293E+03  0.63577192294E+03  0.25500000000E-02 0.  1.
    8880023    1    1    2    0    0  0.55428156852E+03  0.74002049436E+03  0.43825651745E+03  0.12168555258E+04  0.65864270000E+03 0.  1.
    8880022    1    1    2    0    0 -0.55428156852E+03 -0.74002049436E+03  0.64434738034E+03  0.11372922179E+04  0.15294330000E+03 0. -1.
<mgrwt>
<rscale>  0 0.10820697E+04</rscale>
<asrwt>0</asrwt>
<pdfrwt beam="1">  1        2 0.26436551E+00 0.11351954E+04</pdfrwt>
<pdfrwt beam="2">  1       -2 0.97811065E-01 0.11351954E+04</pdfrwt>
<totfact> 0.82027591E+00</totfact>
</mgrwt>
</event>
<event>
 4    1  0.2502834E-007  0.7421635E+03  0.7818608E-02  0.9853689E-01
         -2   -1    0    0    0  501 -0.00000000000E+00  0.00000000000E+00  0.89816351585E+03  0.89816351586E+03  0.25500000000E-02 0.  1.
          2   -1    0    0  501    0  0.00000000000E+00 -0.00000000000E+00 -0.11599955738E+04  0.11599955738E+04  0.25500000000E-02 0. -1.
    8880023    1    1    2    0    0 -0.27276244516E+03 -0.20639057437E+03  0.70353586703E+03  0.10226286438E+04  0.65864270000E+03 0.  1.
    8880022    1    1    2    0    0  0.27276244516E+03  0.20639057437E+03 -0.96536792497E+03  0.10355304458E+04  0.15294330000E+03 0.  0.
<mgrwt>
<rscale>  0 0.62559167E+03</rscale>
<asrwt>0</asrwt>
<pdfrwt beam="1">  1        2 0.17846086E+00 0.74216348E+03</pdfrwt>
<pdfrwt beam="2">  1       -2 0.13817900E+00 0.74216348E+03</pdfrwt>
<totfact> 0.75954249E+00</totfact>
</mgrwt>
</event>
<event>
 4    1  0.2502834E-007  0.8223719E+03  0.7818608E-02  0.9664361E-01
          2   -1    0    0  501    0  0.00000000000E+00  0.00000000000E+00  0.73890435903E+03  0.73890435904E+03  0.25500000000E-02 0. -1.
         -2   -1    0    0    0  501 -0.00000000000E+00 -0.00000000000E+00 -0.12875281052E+04  0.12875281052E+04  0.25500000000E-02 0.  1.
    8880023    1    1    2    0    0  0.36211125424E+03  0.33370772611E+03 -0.10320461396E+04  0.13196267834E+04  0.65864270000E+03 0.  1.
    8880022    1    1    2    0    0 -0.36211125424E+03 -0.33370772611E+03  0.48342239347E+03  0.70680568082E+03  0.15294330000E+03 0.  0.
<mgrwt>
<rscale>  0 0.73178975E+03</rscale>
<asrwt>0</asrwt>
<pdfrwt beam="1">  1        2 0.11367759E+00 0.82237194E+03</pdfrwt>
<pdfrwt beam="2">  1       -2 0.19808125E+00 0.82237194E+03</pdfrwt>
<totfact> 0.52976448E+00</totfact>
</mgrwt>
</event>
<event>
 4    1  0.2502834E-007  0.1477988E+04  0.7818608E-02  0.8925338E-01
          2   -1    0    0  501    0  0.00000000000E+00  0.00000000000E+00  0.12612256967E+04  0.12612256967E+04  0.25500000000E-02 0. -1.
         -2   -1    0    0    0  501 -0.00000000000E+00 -0.00000000000E+00 -0.19816135071E+04  0.19816135071E+04  0.25500000000E-02 0.  1.
    8880023    1    1    2    0    0 -0.13164816299E+04  0.13233906945E+03 -0.11175777315E+04  0.18529510796E+04  0.65864270000E+03 0.  0.
    8880022    1    1    2    0    0  0.13164816299E+04 -0.13233906945E+03  0.39718992112E+03  0.13898881241E+04  0.15294330000E+03 0.  0.
<mgrwt>
<rscale>  0 0.14400356E+04</rscale>
<asrwt>0</asrwt>
<pdfrwt beam="1">  1        2 0.19403472E+00 0.14779877E+04</pdfrwt>
<pdfrwt beam="2">  1       -2 0.30486362E+00 0.14779877E+04</pdfrwt>
<totfact> 0.48899043E-01</totfact>
</mgrwt>
</event>
<event>
 4    1  0.2502834E-007  0.9064883E+03  0.7818608E-02  0.9515695E-01
         -2   -1    0    0    0  501 -0.00000000000E+00  0.00000000000E+00  0.88353259651E+03  0.88353259651E+03  0.25500000000E-02 0.  1.
          2   -1    0    0  501    0  0.00000000000E+00 -0.00000000000E+00 -0.22894114120E+04  0.22894114120E+04  0.25500000000E-02 0. -1.
    8880023    1    1    2    0    0 -0.52956741328E+03  0.32782505038E+03  0.58664203594E+03  0.10797545987E+04  0.65864270000E+03 0.  0.
    8880022    1    1    2    0    0  0.52956741328E+03 -0.32782505038E+03 -0.19925208515E+04  0.20931894098E+04  0.15294330000E+03 0.  0.
<mgrwt>
<rscale>  0 0.83136521E+03</rscale>
<asrwt>0</asrwt>
<pdfrwt beam="1">  1        2 0.35221714E+00 0.90648834E+03</pdfrwt>
<pdfrwt beam="2">  1       -2 0.13592809E+00 0.90648834E+03</pdfrwt>
<totfact> 0.18117874E+00</totfact>
</mgrwt>
</event>
<event>
 4    1  0.2502834E-007  0.8664447E+03  0.7818608E-02  0.9582201E-01
         -2   -1    0    0    0  501 -0.00000000000E+00  0.00000000000E+00  0.59721187553E+03  0.59721187554E+03  0.25500000000E-02 0.  1.
          2   -1    0    0  501    0  0.00000000000E+00 -0.00000000000E+00 -0.41549206322E+04  0.41549206322E+04  0.25500000000E-02 0. -1.
    8880023    1    1    2    0    0 -0.15738500222E+03 -0.54050555460E+03  0.24858138783E+03  0.90139847244E+03  0.65864270000E+03 0.  0.
    8880022    1    1    2    0    0  0.15738500222E+03  0.54050555460E+03 -0.38062901445E+04  0.38507340353E+04  0.15294330000E+03 0. -1.
<mgrwt>
<rscale>  0 0.78485543E+03</rscale>
<asrwt>0</asrwt>
<pdfrwt beam="1">  1        2 0.63921854E+00 0.86644475E+03</pdfrwt>
<pdfrwt beam="2">  1       -2 0.91878753E-01 0.86644475E+03</pdfrwt>
<totfact> 0.27912842E-01</totfact>
</mgrwt>
</event>
<event>
 4    1  0.2502834E-007  0.1093514E+04  0.7818608E-02  0.9268312E-01
         -2   -1    0    0    0  501 -0.00000000000E+00  0.00000000000E+00  0.78654769518E+03  0.78654769519E+03  0.25500000000E-02 0.  1.
          2   -1    0    0  501    0  0.00000000000E+00 -0.00000000000E+00 -0.26719689738E+04  0.26719689738E+04  0.25500000000E-02 0. -1.
    8880023    1    1    2    0    0  0.86427197717E+03 -0.12246469385E+03  0.27143296884E+03  0.11266985908E+04  0.65864270000E+03 0.  1.
    8880022    1    1    2    0    0 -0.86427197717E+03  0.12246469385E+03 -0.21568542474E+04  0.23318180781E+04  0.15294330000E+03 0.  0.
<mgrwt>
<rscale>  0 0.10375324E+04</rscale>
<asrwt>0</asrwt>
<pdfrwt beam="1">  1        2 0.41107215E+00 0.10935145E+04</pdfrwt>
<pdfrwt beam="2">  1       -2 0.12100734E+00 0.10935145E+04</pdfrwt>
<totfact> 0.14304629E+00</totfact>
</mgrwt>
</event>
<event>
 4    1  0.2502834E-007  0.1871460E+04  0.7818608E-02  0.8684004E-01
         -2   -1    0    0    0  501 -0.00000000000E+00  0.00000000000E+00  0.33218993957E+04  0.33218993957E+04  0.25500000000E-02 0.  1.
          2   -1    0    0  501    0  0.00000000000E+00 -0.00000000000E+00 -0.18521939584E+04  0.18521939584E+04  0.25500000000E-02 0. -1.
    8880023    1    1    2    0    0  0.17212423685E+04 -0.32538630124E+03  0.25100990911E+04  0.31309677721E+04  0.65864270000E+03 0.  0.
    8880022    1    1    2    0    0 -0.17212423685E+04  0.32538630124E+03 -0.10403936538E+04  0.20431255821E+04  0.15294330000E+03 0.  0.
<mgrwt>
<rscale>  0 0.18425289E+04</rscale>
<asrwt>0</asrwt>
<pdfrwt beam="1">  1        2 0.28495292E+00 0.18714598E+04</pdfrwt>
<pdfrwt beam="2">  1       -2 0.51106144E+00 0.18714598E+04</pdfrwt>
<totfact> 0.10117378E-02</totfact>
</mgrwt>
</event>
<event>
 4    1  0.2502834E-007  0.1720007E+04  0.7818608E-02  0.8768126E-01
         -2   -1    0    0    0  501 -0.00000000000E+00  0.00000000000E+00  0.13541671032E+04  0.13541671032E+04  0.25500000000E-02 0.  1.
          2   -1    0    0  501    0  0.00000000000E+00 -0.00000000000E+00 -0.21625021094E+04  0.21625021094E+04  0.25500000000E-02 0. -1.
    8880023    1    1    2    0    0  0.15834486899E+04 -0.13154668747E+03  0.16114804793E+02  0.17200826078E+04  0.65864270000E+03 0.  0.
    8880022    1    1    2    0    0 -0.15834486899E+04  0.13154668747E+03 -0.82444981105E+03  0.17965866048E+04  0.15294330000E+03 0.  0.
<mgrwt>
<rscale>  0 0.16881955E+04</rscale>
<asrwt>0</asrwt>
<pdfrwt beam="1">  1        2 0.33269263E+00 0.17200071E+04</pdfrwt>
<pdfrwt beam="2">  1       -2 0.20833340E+00 0.17200071E+04</pdfrwt>
<totfact> 0.58456334E-01</totfact>
</mgrwt>
</event>
<event>
 4    1  0.2502834E-007  0.1440308E+04  0.7818608E-02  0.8952978E-01
          2   -1    0    0  501    0  0.00000000000E+00  0.00000000000E+00  0.20289712085E+04  0.20289712085E+04  0.25500000000E-02 0. -1.
         -2   -1    0    0    0  501 -0.00000000000E+00 -0.00000000000E+00 -0.14078249390E+04  0.14078249390E+04  0.25500000000E-02 0.  1.
    8880023    1    1    2    0    0  0.23392618795E+03 -0.12593477604E+04 -0.69034864516E+03  0.15972068435E+04  0.65864270000E+03 0.  0.
    8880022    1    1    2    0    0 -0.23392618795E+03  0.12593477604E+04  0.13114949147E+04  0.18395893040E+04  0.15294330000E+03 0.  0.
<mgrwt>
<rscale>  0 0.14011611E+04</rscale>
<asrwt>0</asrwt>
<pdfrwt beam="1">  1        2 0.31214942E+00 0.14403085E+04</pdfrwt>
<pdfrwt beam="2">  1       -2 0.21658845E+00 0.14403085E+04</pdfrwt>
<totfact> 0.63163545E-01</totfact>
</mgrwt>
</event>
<event>
 4    1  0.2502834E-007  0.1559114E+04  0.7818608E-02  0.8868983E-01
          2   -1    0    0  501    0  0.00000000000E+00  0.00000000000E+00  0.85241365530E+03  0.85241365530E+03  0.25500000000E-02 0. -1.
         -2   -1    0    0    0  501 -0.00000000000E+00 -0.00000000000E+00 -0.31858765617E+04  0.31858765617E+04  0.25500000000E-02 0.  1.
    8880023    1    1    2    0    0 -0.59016446780E+03 -0.12840298561E+04 -0.20719301550E+04  0.25930159166E+04  0.65864270000E+03 0.  0.
    8880022    1    1    2    0    0  0.59016446780E+03  0.12840298561E+04 -0.26153275144E+03  0.14452743004E+04  0.15294330000E+03 0.  0.
<mgrwt>
<rscale>  0 0.15234865E+04</rscale>
<asrwt>0</asrwt>
<pdfrwt beam="1">  1        2 0.13114056E+00 0.15591142E+04</pdfrwt>
<pdfrwt beam="2">  1       -2 0.49013485E+00 0.15591142E+04</pdfrwt>
<totfact> 0.56505878E-02</totfact>
</mgrwt>
</event>
<event>
 4    1  0.4111194E-007  0.9402185E+03  0.7818608E-02  0.9464329E-01
         -2   -1    0    0    0  501 -0.00000000000E+00  0.00000000000E+00  0.15916613688E+04  0.15916613688E+04  0.25500000000E-02 0.  1.
          2   -1    0    0  501    0  0.00000000000E+00 -0.00000000000E+00 -0.26157598434E+04  0.26157598434E+04  0.25500000000E-02 0. -1.
    8880023    1    1    2    0    0  0.66636650767E+03  0.78461852420E+02  0.14006202867E+04  0.16869344915E+04  0.65864270000E+03 0.  0.
    8880022    1    1    2    0    0 -0.66636650767E+03 -0.78461852420E+02 -0.24247187613E+04  0.25204867207E+04  0.15294330000E+03 0.  0.
<mgrwt>
<rscale>  0 0.86965532E+03</rscale>
<asrwt>0</asrwt>
<pdfrwt beam="1">  1        2 0.40242459E+00 0.94021848E+03</pdfrwt>
<pdfrwt beam="2">  1       -2 0.24487098E+00 0.94021848E+03</pdfrwt>
<totfact> 0.21107118E-01</totfact>
</mgrwt>
</event>
<event>
 4    1  0.2502834E-007  0.1308400E+04  0.7818608E-02  0.9058340E-01
          2   -1    0    0  501    0  0.00000000000E+00  0.00000000000E+00  0.62616584645E+03  0.62616584645E+03  0.25500000000E-02 0. -1.
         -2   -1    0    0    0  501 -0.00000000000E+00 -0.00000000000E+00 -0.27157501147E+04  0.27157501147E+04  0.25500000000E-02 0.  1.
    8880023    1    1    2    0    0 -0.80630353568E+03 -0.79244834721E+03 -0.16808805226E+04  0.21300866912E+04  0.65864270000E+03 0.  0.
    8880022    1    1    2    0    0  0.80630353568E+03  0.79244834721E+03 -0.40870374562E+03  0.12118292699E+04  0.15294330000E+03 0.  0.
<mgrwt>
<rscale>  0 0.12643302E+04</rscale>
<asrwt>0</asrwt>
<pdfrwt beam="1">  1        2 0.96333208E-01 0.13083998E+04</pdfrwt>
<pdfrwt beam="2">  1       -2 0.41780771E+00 0.13083998E+04</pdfrwt>
<totfact> 0.26120425E-01</totfact>
</mgrwt>
</event>
<event>
 4    1  0.2502834E-007  0.8088261E+03  0.7818608E-02  0.9692027E-01
         -2   -1    0    0    0  501 -0.00000000000E+00  0.00000000000E+00  0.16222973658E+04  0.16222973658E+04  0.25500000000E-02 0.  1.
          2   -1    0    0  501    0  0.00000000000E+00 -0.00000000000E+00 -0.74630202271E+03  0.74630202271E+03  0.25500000000E-02 0. -1.
    8880023    1    1    2    0    0  0.38558701060E+03 -0.26779111296E+03  0.14198413096E+04  0.16340590484E+04  0.65864270000E+03 0.  0.
    8880022    1    1    2    0    0 -0.38558701060E+03  0.26779111296E+03 -0.54384596652E+03  0.73454034010E+03  0.15294330000E+03 0.  0.
<mgrwt>
<rscale>  0 0.71493467E+03</rscale>
<asrwt>0</asrwt>
<pdfrwt beam="1">  1        2 0.11481570E+00 0.80882608E+03</pdfrwt>
<pdfrwt beam="2">  1       -2 0.24958421E+00 0.80882608E+03</pdfrwt>
<totfact> 0.24938944E+00</totfact>
</mgrwt>
</event>
<event>
 4    1  0.2502834E-007  0.1066069E+04  0.7818608E-02  0.9299809E-01
         -2   -1    0    0    0  501 -0.00000000000E+00  0.00000000000E+00  0.13137850402E+04  0.13137850402E+04  0.25500000000E-02 0.  1.
          2   -1    0    0  501    0  0.00000000000E+00 -0.00000000000E+00 -0.10449402754E+04  0.10449402754E+04  0.25500000000E-02 0. -1.
    8880023    1    1    2    0    0  0.82559608012E+03  0.14520530238E+03  0.81909014855E+03  0.13444003664E+04  0.65864270000E+03 0.  1.
    8880022    1    1    2    0    0 -0.82559608012E+03 -0.14520530238E+03 -0.55024538369E+03  0.10143249492E+04  0.15294330000E+03 0.  0.
<mgrwt>
<rscale>  0 0.10080046E+04</rscale>
<asrwt>0</asrwt>
<pdfrwt beam="1">  1        2 0.16076004E+00 0.10660693E+04</pdfrwt>
<pdfrwt beam="2">  1       -2 0.20212077E+00 0.10660693E+04</pdfrwt>
<totfact> 0.29923302E+00</totfact>
</mgrwt>
</event>
<event>
 4    1  0.2502834E-007  0.1148538E+04  0.7818608E-02  0.9208846E-01
          2   -1    0    0  501    0  0.00000000000E+00  0.00000000000E+00  0.79831671979E+03  0.79831671979E+03  0.25500000000E-02 0. -1.
         -2   -1    0    0    0  501 -0.00000000000E+00 -0.00000000000E+00 -0.16854671031E+04  0.16854671031E+04  0.25500000000E-02 0.  1.
    8880023    1    1    2    0    0 -0.72146374959E+03  0.60400308553E+03 -0.10012725924E+04  0.15237082004E+04  0.65864270000E+03 0.  1.
    8880022    1    1    2    0    0  0.72146374959E+03 -0.60400308553E+03  0.11412220912E+03  0.96007562251E+03  0.15294330000E+03 0.  0.
<mgrwt>
<rscale>  0 0.10962583E+04</rscale>
<asrwt>0</asrwt>
<pdfrwt beam="1">  1        2 0.12281796E+00 0.11485381E+04</pdfrwt>
<pdfrwt beam="2">  1       -2 0.25930263E+00 0.11485381E+04</pdfrwt>
<totfact> 0.19120019E+00</totfact>
</mgrwt>
</event>
<event>
 4    1  0.2502834E-007  0.1447566E+04  0.7818608E-02  0.8947577E-01
          2   -1    0    0  501    0  0.00000000000E+00  0.00000000000E+00  0.17574013166E+04  0.17574013166E+04  0.25500000000E-02 0. -1.
         -2   -1    0    0    0  501 -0.00000000000E+00 -0.00000000000E+00 -0.16082501918E+04  0.16082501918E+04  0.25500000000E-02 0.  1.
    8880023    1    1    2    0    0  0.77935620886E+03  0.10267628580E+04 -0.89311714304E+03  0.17009134324E+04  0.65864270000E+03 0.  1.
    8880022    1    1    2    0    0 -0.77935620886E+03 -0.10267628580E+04  0.10422682678E+04  0.16647380761E+04  0.15294330000E+03 0. -1.
<mgrwt>
<rscale>  0 0.14086555E+04</rscale>
<asrwt>0</asrwt>
<pdfrwt beam="1">  1        2 0.27036943E+00 0.14475663E+04</pdfrwt>
<pdfrwt beam="2">  1       -2 0.24742311E+00 0.14475663E+04</pdfrwt>
<totfact> 0.57320363E-01</totfact>
</mgrwt>
</event>
<event>
 4    1  0.2502834E-007  0.6695626E+03  0.7818608E-02  0.1015978E+00
         -2   -1    0    0    0  501 -0.00000000000E+00  0.00000000000E+00  0.17895917397E+03  0.17895917398E+03  0.25500000000E-02 0.  1.
          2   -1    0    0  501    0  0.00000000000E+00 -0.00000000000E+00 -0.11286015528E+04  0.11286015528E+04  0.25500000000E-02 0. -1.
    8880023    1    1    2    0    0 -0.11246904870E+03 -0.43064337349E+02 -0.56350927945E+03  0.87513241190E+03  0.65864270000E+03 0.  1.
    8880022    1    1    2    0    0  0.11246904870E+03  0.43064337349E+02 -0.38613309942E+03  0.43242831493E+03  0.15294330000E+03 0.  1.
<mgrwt>
<rscale>  0 0.49166217E+03</rscale>
<asrwt>0</asrwt>
<pdfrwt beam="1">  1        2 0.17363100E+00 0.66956257E+03</pdfrwt>
<pdfrwt beam="2">  1       -2 0.27532181E-01 0.66956257E+03</pdfrwt>
<totfact> 0.25512811E+02</totfact>
</mgrwt>
</event>
<event>
 4    1  0.2502834E-007  0.8181104E+03  0.7818608E-02  0.9672925E-01
         -2   -1    0    0    0  501 -0.00000000000E+00  0.00000000000E+00  0.43216568635E+03  0.43216568636E+03  0.25500000000E-02 0.  1.
          2   -1    0    0  501    0  0.00000000000E+00 -0.00000000000E+00 -0.12349693428E+04  0.12349693428E+04  0.25500000000E-02 0. -1.
    8880023    1    1    2    0    0 -0.48242325909E+03  0.52556155588E+02 -0.13752320909E+03  0.82958856652E+03  0.65864270000E+03 0.  0.
    8880022    1    1    2    0    0  0.48242325909E+03 -0.52556155588E+02 -0.66528044733E+03  0.83754646260E+03  0.15294330000E+03 0.  0.
<mgrwt>
<rscale>  0 0.72651986E+03</rscale>
<asrwt>0</asrwt>
<pdfrwt beam="1">  1        2 0.18999528E+00 0.81811036E+03</pdfrwt>
<pdfrwt beam="2">  1       -2 0.66487029E-01 0.81811036E+03</pdfrwt>
<totfact> 0.37990979E+01</totfact>
</mgrwt>
</event>
<event>
 4    1  0.2549949E-007  0.1342628E+04  0.7818608E-02  0.9029595E-01
          2   -1    0    0  501    0  0.00000000000E+00  0.00000000000E+00  0.35879494665E+04  0.35879494665E+04  0.25500000000E-02 0. -1.
         -2   -1    0    0    0  501 -0.00000000000E+00 -0.00000000000E+00 -0.13259953670E+04  0.13259953670E+04  0.25500000000E-02 0.  1.
    8880023    1    1    2    0    0  0.64640110922E+03 -0.97519535453E+03 -0.84777898585E+03  0.15878853197E+04  0.65864270000E+03 0.  0.
    8880022    1    1    2    0    0 -0.64640110922E+03  0.97519535453E+03  0.31097330854E+04  0.33260595137E+04  0.15294330000E+03 0.  0.
<mgrwt>
<rscale>  0 0.12999624E+04</rscale>
<asrwt>0</asrwt>
<pdfrwt beam="1">  1        2 0.55199221E+00 0.13426282E+04</pdfrwt>
<pdfrwt beam="2">  1       -2 0.20399929E+00 0.13426282E+04</pdfrwt>
<totfact> 0.85666457E-02</totfact>
</mgrwt>
</event>
<event>
 4    1  0.2502834E-007  0.8635643E+03  0.7818608E-02  0.9587254E-01
          2   -1    0    0  501    0  0.00000000000E+00  0.00000000000E+00  0.81713760947E+03  0.81713760947E+03  0.25500000000E-02 0. -1.
         -2   -1    0    0    0  501 -0.00000000000E+00 -0.00000000000E+00 -0.12788270438E+04  0.12788270438E+04  0.25500000000E-02 0.  1.
    8880023    1    1    2    0    0  0.16192697837E+03 -0.53452096670E+03 -0.98887245199E+03  0.13128640229E+04  0.65864270000E+03 0.  0.
    8880022    1    1    2    0    0 -0.16192697837E+03  0.53452096670E+03  0.52718301764E+03  0.78310063036E+03  0.15294330000E+03 0.  0.
<mgrwt>
<rscale>  0 0.78145537E+03</rscale>
<asrwt>0</asrwt>
<pdfrwt beam="1">  1        2 0.12571348E+00 0.86356425E+03</pdfrwt>
<pdfrwt beam="2">  1       -2 0.19674262E+00 0.86356425E+03</pdfrwt>
<totfact> 0.47127490E+00</totfact>
</mgrwt>
</event>
<event>
 4    1  0.2502834E-007  0.1409834E+04  0.7818608E-02  0.8976079E-01
         -2   -1    0    0    0  501 -0.00000000000E+00  0.00000000000E+00  0.10667331791E+04  0.10667331791E+04  0.25500000000E-02 0.  1.
          2   -1    0    0  501    0  0.00000000000E+00 -0.00000000000E+00 -0.21935448685E+04  0.21935448685E+04  0.25500000000E-02 0. -1.
    8880023    1    1    2    0    0 -0.12462736098E+04  0.24994365261E+02  0.21078956611E+03  0.14255052004E+04  0.65864270000E+03 0.  1.
    8880022    1    1    2    0    0  0.12462736098E+04 -0.24994365261E+02 -0.13376012555E+04  0.18347728472E+04  0.15294330000E+03 0.  0.
<mgrwt>
<rscale>  0 0.13696588E+04</rscale>
<asrwt>0</asrwt>
<pdfrwt beam="1">  1        2 0.33746844E+00 0.14098343E+04</pdfrwt>
<pdfrwt beam="2">  1       -2 0.16411280E+00 0.14098343E+04</pdfrwt>
<totfact> 0.11637594E+00</totfact>
</mgrwt>
</event>
<event>
 4    1  0.2502834E-007  0.1059255E+04  0.7818608E-02  0.9307838E-01
         -2   -1    0    0    0  501 -0.00000000000E+00  0.00000000000E+00  0.75183992292E+03  0.75183992292E+03  0.25500000000E-02 0.  1.
          2   -1    0    0  501    0  0.00000000000E+00 -0.00000000000E+00 -0.23066935890E+04  0.23066935890E+04  0.25500000000E-02 0. -1.
    8880023    1    1    2    0    0 -0.77329296536E+03 -0.30038020340E+03  0.23039124778E+03  0.10840205765E+04  0.65864270000E+03 0.  1.
    8880022    1    1    2    0    0  0.77329296536E+03  0.30038020340E+03 -0.17852449139E+04  0.19745129355E+04  0.15294330000E+03 0.  0.
<mgrwt>
<rscale>  0 0.10006448E+04</rscale>
<asrwt>0</asrwt>
<pdfrwt beam="1">  1        2 0.35487593E+00 0.10592547E+04</pdfrwt>
<pdfrwt beam="2">  1       -2 0.11566768E+00 0.10592547E+04</pdfrwt>
<totfact> 0.26022385E+00</totfact>
</mgrwt>
</event>
<event>
 4    1  0.2502834E-007  0.8080621E+03  0.7818608E-02  0.9693628E-01
         -2   -1    0    0    0  501 -0.00000000000E+00  0.00000000000E+00  0.87760218610E+03  0.87760218611E+03  0.25500000000E-02 0.  1.
          2   -1    0    0  501    0  0.00000000000E+00 -0.00000000000E+00 -0.13537044520E+04  0.13537044521E+04  0.25500000000E-02 0. -1.
    8880023    1    1    2    0    0 -0.42759169915E+03 -0.19057677313E+03  0.62730884764E+03  0.10229764241E+04  0.65864270000E+03 0.  0.
    8880022    1    1    2    0    0  0.42759169915E+03  0.19057677313E+03 -0.11034111136E+04  0.12083302141E+04  0.15294330000E+03 0.  0.
<mgrwt>
<rscale>  0 0.71397463E+03</rscale>
<asrwt>0</asrwt>
<pdfrwt beam="1">  1        2 0.20826222E+00 0.80806211E+03</pdfrwt>
<pdfrwt beam="2">  1       -2 0.13501572E+00 0.80806211E+03</pdfrwt>
<totfact> 0.61586577E+00</totfact>
</mgrwt>
</event>
<event>
 4    1  0.2502834E-007  0.9246346E+03  0.7818608E-02  0.9487589E-01
         -2   -1    0    0    0  501 -0.00000000000E+00  0.00000000000E+00  0.27357058951E+04  0.27357058951E+04  0.25500000000E-02 0.  1.
          2   -1    0    0  501    0  0.00000000000E+00 -0.00000000000E+00 -0.12764509349E+04  0.12764509349E+04  0.25500000000E-02 0. -1.
    8880023    1    1    2    0    0  0.61557166735E+03 -0.20545162978E+03  0.25618757840E+04  0.27236293046E+04  0.65864270000E+03 0.  1.
    8880022    1    1    2    0    0 -0.61557166735E+03  0.20545162978E+03 -0.11026208238E+04  0.12885275255E+04  0.15294330000E+03 0.  0.
<mgrwt>
<rscale>  0 0.85205040E+03</rscale>
<asrwt>0</asrwt>
<pdfrwt beam="1">  1        2 0.19637707E+00 0.92463455E+03</pdfrwt>
<pdfrwt beam="2">  1       -2 0.42087783E+00 0.92463455E+03</pdfrwt>
<totfact> 0.95412759E-02</totfact>
</mgrwt>
</event>
<event>
 4    1  0.2502834E-007  0.1232789E+04  0.7818608E-02  0.9125890E-01
         -2   -1    0    0    0  501 -0.00000000000E+00  0.00000000000E+00  0.95564721776E+03  0.95564721776E+03  0.25500000000E-02 0.  1.
          2   -1    0    0  501    0  0.00000000000E+00 -0.00000000000E+00 -0.22509703181E+04  0.22509703181E+04  0.25500000000E-02 0. -1.
    8880023    1    1    2    0    0 -0.32816994158E+03 -0.98907168811E+03  0.32421871226E+03  0.12747102786E+04  0.65864270000E+03 0.  0.
    8880022    1    1    2    0    0  0.32816994158E+03  0.98907168811E+03 -0.16195418126E+04  0.19319072573E+04  0.15294330000E+03 0.  0.
<mgrwt>
<rscale>  0 0.11852231E+04</rscale>
<asrwt>0</asrwt>
<pdfrwt beam="1">  1        2 0.34630312E+00 0.12327889E+04</pdfrwt>
<pdfrwt beam="2">  1       -2 0.14702265E+00 0.12327889E+04</pdfrwt>
<totfact> 0.14836458E+00</totfact>
</mgrwt>
</event>
<event>
 4    1  0.2502834E-007  0.6601604E+03  0.7818608E-02  0.1023993E+00
         -2   -1    0    0    0  501 -0.00000000000E+00  0.00000000000E+00  0.33648610558E+03  0.33648610559E+03  0.25500000000E-02 0.  1.
          2   -1    0    0  501    0  0.00000000000E+00 -0.00000000000E+00 -0.98034710625E+03  0.98034710625E+03  0.25500000000E-02 0. -1.
    8880023    1    1    2    0    0 -0.10257483149E+02 -0.43547001296E+02 -0.68529556815E+01  0.66019597586E+03  0.65864270000E+03 0.  1.
    8880022    1    1    2    0    0  0.10257483149E+02  0.43547001296E+02 -0.63700804499E+03  0.65663723598E+03  0.15294330000E+03 0.  0.
<mgrwt>
<rscale>  0 0.46272909E+03</rscale>
<asrwt>0</asrwt>
<pdfrwt beam="1">  1        2 0.15082263E+00 0.66016041E+03</pdfrwt>
<pdfrwt beam="2">  1       -2 0.51767094E-01 0.66016041E+03</pdfrwt>
<totfact> 0.93313605E+01</totfact>
</mgrwt>
</event>
<event>
 4    1  0.2502834E-007  0.1287911E+04  0.7818608E-02  0.9076071E-01
          2   -1    0    0  501    0  0.00000000000E+00  0.00000000000E+00  0.18683636266E+04  0.18683636266E+04  0.25500000000E-02 0. -1.
         -2   -1    0    0    0  501 -0.00000000000E+00 -0.00000000000E+00 -0.88711011254E+03  0.88711011254E+03  0.25500000000E-02 0.  1.
    8880023    1    1    2    0    0 -0.10681574523E+04  0.28972989532E+03  0.30252314491E+02  0.12882659523E+04  0.65864270000E+03 0. -1.
    8880022    1    1    2    0    0  0.10681574523E+04 -0.28972989532E+03  0.95100119952E+03  0.14672077868E+04  0.15294330000E+03 0.  0.
<mgrwt>
<rscale>  0 0.12429509E+04</rscale>
<asrwt>0</asrwt>
<pdfrwt beam="1">  1        2 0.28744056E+00 0.12879107E+04</pdfrwt>
<pdfrwt beam="2">  1       -2 0.13647848E+00 0.12879107E+04</pdfrwt>
<totfact> 0.29280605E+00</totfact>
</mgrwt>
</event>
<event>
 4    1  0.2502834E-007  0.8217401E+03  0.7818608E-02  0.9665622E-01
          2   -1    0    0  501    0  0.00000000000E+00  0.00000000000E+00  0.20579897262E+04  0.20579897262E+04  0.25500000000E-02 0. -1.
         -2   -1    0    0    0  501 -0.00000000000E+00 -0.00000000000E+00 -0.39299000975E+03  0.39299000976E+03  0.25500000000E-02 0.  1.
    8880023    1    1    2    0    0 -0.41613538801E+03  0.26130048669E+03  0.12993614298E+03  0.83194964572E+03  0.65864270000E+03 0.  1.
    8880022    1    1    2    0    0  0.41613538801E+03 -0.26130048669E+03  0.15350635735E+04  0.16190300903E+04  0.15294330000E+03 0.  0.
<mgrwt>
<rscale>  0 0.73101023E+03</rscale>
<asrwt>0</asrwt>
<pdfrwt beam="1">  1        2 0.31661380E+00 0.82174011E+03</pdfrwt>
<pdfrwt beam="2">  1       -2 0.60460002E-01 0.82174011E+03</pdfrwt>
<totfact> 0.16212120E+01</totfact>
</mgrwt>
</event>
<event>
 4    1  0.2502834E-007  0.1292385E+04  0.7818608E-02  0.9072164E-01
         -2   -1    0    0    0  501 -0.00000000000E+00  0.00000000000E+00  0.17931690430E+04  0.17931690430E+04  0.25500000000E-02 0.  1.
          2   -1    0    0  501    0  0.00000000000E+00 -0.00000000000E+00 -0.12387985869E+04  0.12387985869E+04  0.25500000000E-02 0. -1.
    8880023    1    1    2    0    0 -0.94662754222E+03 -0.58339155230E+03  0.11773368887E+04  0.17482510583E+04  0.65864270000E+03 0.  0.
    8880022    1    1    2    0    0  0.94662754222E+03  0.58339155230E+03 -0.62296643262E+03  0.12837165716E+04  0.15294330000E+03 0.  0.
<mgrwt>
<rscale>  0 0.12476233E+04</rscale>
<asrwt>0</asrwt>
<pdfrwt beam="1">  1        2 0.19058440E+00 0.12923852E+04</pdfrwt>
<pdfrwt beam="2">  1       -2 0.27587216E+00 0.12923852E+04</pdfrwt>
<totfact> 0.77256329E-01</totfact>
</mgrwt>
</event>
<event>
 4    1  0.2502834E-007  0.7445130E+03  0.7818608E-02  0.9846991E-01
         -2   -1    0    0    0  501 -0.00000000000E+00  0.00000000000E+00  0.93837050369E+03  0.93837050369E+03  0.25500000000E-02 0.  1.
          2   -1    0    0  501    0  0.00000000000E+00 -0.00000000000E+00 -0.87922879123E+03  0.87922879123E+03  0.25500000000E-02 0. -1.
    8880023    1    1    2    0    0  0.28394279044E+03 -0.19966431604E+03  0.73269834570E+03  0.10445795419E+04  0.65864270000E+03 0.  1.
    8880022    1    1    2    0    0 -0.28394279044E+03  0.19966431604E+03 -0.67355663324E+03  0.77301975301E+03  0.15294330000E+03 0.  0.
<mgrwt>
<rscale>  0 0.62900577E+03</rscale>
<asrwt>0</asrwt>
<pdfrwt beam="1">  1        2 0.13526597E+00 0.74451296E+03</pdfrwt>
<pdfrwt beam="2">  1       -2 0.14436469E+00 0.74451296E+03</pdfrwt>
<totfact> 0.10215074E+01</totfact>
</mgrwt>
</event>
<event>
 4    1  0.2502834E-007  0.1391479E+04  0.7818608E-02  0.8990332E-01
         -2   -1    0    0    0  501 -0.00000000000E+00  0.00000000000E+00  0.10852872166E+04  0.10852872166E+04  0.25500000000E-02 0.  1.
          2   -1    0    0  501    0  0.00000000000E+00 -0.00000000000E+00 -0.19431532453E+04  0.19431532453E+04  0.25500000000E-02 0. -1.
    8880023    1    1    2    0    0  0.58098618552E+03 -0.10792866628E+04  0.19538617839E+03  0.14051301055E+04  0.65864270000E+03 0. -1.
    8880022    1    1    2    0    0 -0.58098618552E+03  0.10792866628E+04 -0.10532522072E+04  0.16233103564E+04  0.15294330000E+03 0.  0.
<mgrwt>
<rscale>  0 0.13506557E+04</rscale>
<asrwt>0</asrwt>
<pdfrwt beam="1">  1        2 0.29894665E+00 0.13914794E+04</pdfrwt>
<pdfrwt beam="2">  1       -2 0.16696726E+00 0.13914794E+04</pdfrwt>
<totfact> 0.15333436E+00</totfact>
</mgrwt>
</event>
<event>
 4    1  0.2502834E-007  0.6709720E+03  0.7818608E-02  0.1014975E+00
          2   -1    0    0  501    0  0.00000000000E+00  0.00000000000E+00  0.10803164427E+04  0.10803164427E+04  0.25500000000E-02 0. -1.
         -2   -1    0    0    0  501 -0.00000000000E+00 -0.00000000000E+00 -0.21728323720E+03  0.21728323722E+03  0.25500000000E-02 0.  1.
    8880023    1    1    2    0    0  0.80146203446E+02  0.99849112107E+02  0.37108061184E+03  0.76674916750E+03  0.65864270000E+03 0.  1.
    8880022    1    1    2    0    0 -0.80146203446E+02 -0.99849112107E+02  0.49195259365E+03  0.53085051241E+03  0.15294330000E+03 0. -1.
<mgrwt>
<rscale>  0 0.49544233E+03</rscale>
<asrwt>0</asrwt>
<pdfrwt beam="1">  1        2 0.16620253E+00 0.67097203E+03</pdfrwt>
<pdfrwt beam="2">  1       -2 0.33428190E-01 0.67097203E+03</pdfrwt>
<totfact> 0.19039494E+02</totfact>
</mgrwt>
</event>
<event>
 4    1  0.2502834E-007  0.7165034E+03  0.7818608E-02  0.9934600E-01
         -2   -1    0    0    0  501 -0.00000000000E+00  0.00000000000E+00  0.48669278105E+03  0.48669278106E+03  0.25500000000E-02 0.  1.
          2   -1    0    0  501    0  0.00000000000E+00 -0.00000000000E+00 -0.92679936674E+03  0.92679936674E+03  0.25500000000E-02 0. -1.
    8880023    1    1    2    0    0 -0.16445899376E+03 -0.22917277248E+03  0.15894165571E+03  0.73392068812E+03  0.65864270000E+03 0.  1.
    8880022    1    1    2    0    0  0.16445899376E+03  0.22917277248E+03 -0.59904824140E+03  0.67957145968E+03  0.15294330000E+03 0.  0.
<mgrwt>
<rscale>  0 0.58613345E+03</rscale>
<asrwt>0</asrwt>
<pdfrwt beam="1">  1        2 0.14258452E+00 0.71650340E+03</pdfrwt>
<pdfrwt beam="2">  1       -2 0.74875812E-01 0.71650340E+03</pdfrwt>
<totfact> 0.45888334E+01</totfact>
</mgrwt>
</event>
<event>
 4    1  0.2502834E-007  0.1341833E+04  0.7818608E-02  0.9030251E-01
          2   -1    0    0  501    0  0.00000000000E+00  0.00000000000E+00  0.30144670273E+04  0.30144670273E+04  0.25500000000E-02 0. -1.
         -2   -1    0    0    0  501 -0.00000000000E+00 -0.00000000000E+00 -0.63478930138E+03  0.63478930138E+03  0.25500000000E-02 0.  1.
    8880023    1    1    2    0    0  0.93396431700E+03  0.70314745071E+03  0.50312743945E+03  0.14330572597E+04  0.65864270000E+03 0.  0.
    8880022    1    1    2    0    0 -0.93396431700E+03 -0.70314745071E+03  0.18765502865E+04  0.22161990690E+04  0.15294330000E+03 0.  0.
<mgrwt>
<rscale>  0 0.12991357E+04</rscale>
<asrwt>0</asrwt>
<pdfrwt beam="1">  1        2 0.46376414E+00 0.13418330E+04</pdfrwt>
<pdfrwt beam="2">  1       -2 0.97659895E-01 0.13418330E+04</pdfrwt>
<totfact> 0.14506530E+00</totfact>
</mgrwt>
</event>
<event>
 4    1  0.2502834E-007  0.7419695E+03  0.7818608E-02  0.9854247E-01
         -2   -1    0    0    0  501 -0.00000000000E+00  0.00000000000E+00  0.51242584965E+03  0.51242584966E+03  0.25500000000E-02 0.  1.
          2   -1    0    0  501    0  0.00000000000E+00 -0.00000000000E+00 -0.98527319765E+03  0.98527319766E+03  0.25500000000E-02 0. -1.
    8880023    1    1    2    0    0  0.29578193895E+02 -0.34034343894E+03  0.16318587757E+03  0.75970281221E+03  0.65864270000E+03 0.  0.
    8880022    1    1    2    0    0 -0.29578193895E+02  0.34034343894E+03 -0.63603322557E+03  0.73799623510E+03  0.15294330000E+03 0.  0.
<mgrwt>
<rscale>  0 0.62530856E+03</rscale>
<asrwt>0</asrwt>
<pdfrwt beam="1">  1        2 0.15158049E+00 0.74196950E+03</pdfrwt>
<pdfrwt beam="2">  1       -2 0.78834746E-01 0.74196950E+03</pdfrwt>
<totfact> 0.37388592E+01</totfact>
</mgrwt>
</event>
<event>
 4    1  0.2502834E-007  0.9073423E+03  0.7818608E-02  0.9514346E-01
         -2   -1    0    0    0  501 -0.00000000000E+00  0.00000000000E+00  0.40190684086E+03  0.40190684087E+03  0.25500000000E-02 0.  1.
          2   -1    0    0  501    0  0.00000000000E+00 -0.00000000000E+00 -0.33025041981E+04  0.33025041981E+04  0.25500000000E-02 0. -1.
    8880023    1    1    2    0    0  0.39665851649E+03 -0.48179033695E+03 -0.20091737265E+03  0.92932120624E+03  0.65864270000E+03 0.  1.
    8880022    1    1    2    0    0 -0.39665851649E+03  0.48179033695E+03 -0.26996799846E+04  0.27750898327E+04  0.15294330000E+03 0.  0.
<mgrwt>
<rscale>  0 0.83234356E+03</rscale>
<asrwt>0</asrwt>
<pdfrwt beam="1">  1        2 0.50807755E+00 0.90734234E+03</pdfrwt>
<pdfrwt beam="2">  1       -2 0.61831824E-01 0.90734234E+03</pdfrwt>
<totfact> 0.28213262E+00</totfact>
</mgrwt>
</event>
<event>
 4    1  0.2502834E-007  0.1171871E+04  0.7818608E-02  0.9184962E-01
          2   -1    0    0  501    0  0.00000000000E+00  0.00000000000E+00  0.22130338087E+04  0.22130338087E+04  0.25500000000E-02 0. -1.
         -2   -1    0    0    0  501 -0.00000000000E+00 -0.00000000000E+00 -0.80152671609E+03  0.80152671610E+03  0.25500000000E-02 0.  1.
    8880023    1    1    2    0    0 -0.67333059638E+03  0.69720728723E+03 -0.13853575208E+03  0.11800315480E+04  0.65864270000E+03 0.  1.
    8880022    1    1    2    0    0  0.67333059638E+03 -0.69720728723E+03  0.15500428447E+04  0.18345289768E+04  0.15294330000E+03 0.  0.
<mgrwt>
<rscale>  0 0.11209998E+04</rscale>
<asrwt>0</asrwt>
<pdfrwt beam="1">  1        2 0.34046674E+00 0.11718713E+04</pdfrwt>
<pdfrwt beam="2">  1       -2 0.12331180E+00 0.11718713E+04</pdfrwt>
<totfact> 0.24700624E+00</totfact>
</mgrwt>
</event>
<event>
 4    1  0.2502834E-007  0.1930305E+04  0.7818608E-02  0.8653687E-01
          2   -1    0    0  501    0  0.00000000000E+00  0.00000000000E+00  0.45492499279E+04  0.45492499279E+04  0.25500000000E-02 0. -1.
         -2   -1    0    0    0  501 -0.00000000000E+00 -0.00000000000E+00 -0.10717162583E+04  0.10717162583E+04  0.25500000000E-02 0.  1.
    8880023    1    1    2    0    0 -0.40058400360E+03 -0.17696886561E+04  0.29274276348E+03  0.19523765045E+04  0.65864270000E+03 0.  0.
    8880022    1    1    2    0    0  0.40058400360E+03  0.17696886561E+04  0.31847909062E+04  0.36685896817E+04  0.15294330000E+03 0.  0.
<mgrwt>
<rscale>  0 0.19023507E+04</rscale>
<asrwt>0</asrwt>
<pdfrwt beam="1">  1        2 0.69988460E+00 0.19303046E+04</pdfrwt>
<pdfrwt beam="2">  1       -2 0.16487943E+00 0.19303046E+04</pdfrwt>
<totfact> 0.23324986E-02</totfact>
</mgrwt>
</event>
<event>
 4    1  0.2502834E-007  0.9005265E+03  0.7818608E-02  0.9525187E-01
         -2   -1    0    0    0  501 -0.00000000000E+00  0.00000000000E+00  0.60849518704E+03  0.60849518705E+03  0.25500000000E-02 0.  1.
          2   -1    0    0  501    0  0.00000000000E+00 -0.00000000000E+00 -0.21494045274E+04  0.21494045274E+04  0.25500000000E-02 0. -1.
    8880023    1    1    2    0    0  0.34998276530E+03 -0.50462836051E+03  0.18524701833E+03  0.91938260931E+03  0.65864270000E+03 0.  0.
    8880022    1    1    2    0    0 -0.34998276530E+03  0.50462836051E+03 -0.17261563587E+04  0.18385171052E+04  0.15294330000E+03 0. -1.
<mgrwt>
<rscale>  0 0.82452088E+03</rscale>
<asrwt>0</asrwt>
<pdfrwt beam="1">  1        2 0.33067762E+00 0.90052647E+03</pdfrwt>
<pdfrwt beam="2">  1       -2 0.93614645E-01 0.90052647E+03</pdfrwt>
<totfact> 0.54041220E+00</totfact>
</mgrwt>
</event>
<event>
 4    1  0.2502834E-007  0.7074951E+03  0.7818608E-02  0.9967423E-01
          2   -1    0    0  501    0  0.00000000000E+00  0.00000000000E+00  0.20949499928E+03  0.20949499930E+03  0.25500000000E-02 0. -1.
         -2   -1    0    0    0  501 -0.00000000000E+00 -0.00000000000E+00 -0.19139842849E+04  0.19139842849E+04  0.25500000000E-02 0.  1.
    8880023    1    1    2    0    0  0.16176792259E+03  0.20142045664E+03 -0.16792473502E+04  0.18222022199E+04  0.65864270000E+03 0.  1.
    8880022    1    1    2    0    0 -0.16176792259E+03 -0.20142045664E+03 -0.25241935478E+02  0.30127706427E+03  0.15294330000E+03 0.  0.
<mgrwt>
<rscale>  0 0.57102045E+03</rscale>
<asrwt>0</asrwt>
<pdfrwt beam="1">  1        2 0.32230001E-01 0.70749507E+03</pdfrwt>
<pdfrwt beam="2">  1       -2 0.29445911E+00 0.70749507E+03</pdfrwt>
<totfact> 0.58804829E+00</totfact>
</mgrwt>
</event>
<event>
 4    1  0.2502834E-007  0.1064281E+04  0.7818608E-02  0.9301907E-01
         -2   -1    0    0    0  501 -0.00000000000E+00  0.00000000000E+00  0.98226181002E+03  0.98226181002E+03  0.25500000000E-02 0.  1.
          2   -1    0    0  501    0  0.00000000000E+00 -0.00000000000E+00 -0.10058055013E+04  0.10058055013E+04  0.25500000000E-02 0. -1.
    8880023    1    1    2    0    0  0.62161267669E+03 -0.55900098062E+03  0.25373565905E+03  0.10941098698E+04  0.65864270000E+03 0.  0.
    8880022    1    1    2    0    0 -0.62161267669E+03  0.55900098062E+03 -0.27727935029E+03  0.89395744153E+03  0.15294330000E+03 0.  0.
<mgrwt>
<rscale>  0 0.10060747E+04</rscale>
<asrwt>0</asrwt>
<pdfrwt beam="1">  1        2 0.15473931E+00 0.10642813E+04</pdfrwt>
<pdfrwt beam="2">  1       -2 0.15111720E+00 0.10642813E+04</pdfrwt>
<totfact> 0.72296048E+00</totfact>
</mgrwt>
</event>
<event>
 4    1  0.2502834E-007  0.9315193E+03  0.7818608E-02  0.9477218E-01
         -2   -1    0    0    0  501 -0.00000000000E+00  0.00000000000E+00  0.78071023142E+03  0.78071023142E+03  0.25500000000E-02 0.  1.
          2   -1    0    0  501    0  0.00000000000E+00 -0.00000000000E+00 -0.18394470428E+04  0.18394470428E+04  0.25500000000E-02 0. -1.
    8880023    1    1    2    0    0 -0.41399999590E+03 -0.51236902436E+03  0.39886663620E+03  0.10133226601E+04  0.65864270000E+03 0.  0.
    8880022    1    1    2    0    0  0.41399999590E+03  0.51236902436E+03 -0.14576034475E+04  0.16068346141E+04  0.15294330000E+03 0.  0.
<mgrwt>
<rscale>  0 0.85984505E+03</rscale>
<asrwt>0</asrwt>
<pdfrwt beam="1">  1        2 0.28299185E+00 0.93151931E+03</pdfrwt>
<pdfrwt beam="2">  1       -2 0.12010927E+00 0.93151931E+03</pdfrwt>
<totfact> 0.43712950E+00</totfact>
</mgrwt>
</event>
<event>
 4    1  0.2502834E-007  0.1014859E+04  0.7818608E-02  0.9362370E-01
         -2   -1    0    0    0  501 -0.00000000000E+00  0.00000000000E+00  0.39017024375E+03  0.39017024376E+03  0.25500000000E-02 0.  1.
          2   -1    0    0  501    0  0.00000000000E+00 -0.00000000000E+00 -0.26415191794E+04  0.26415191794E+04  0.25500000000E-02 0. -1.
    8880023    1    1    2    0    0 -0.67607681612E+03  0.37289314719E+03 -0.54358717286E+03  0.11512716366E+04  0.65864270000E+03 0.  1.
    8880022    1    1    2    0    0  0.67607681612E+03 -0.37289314719E+03 -0.17077617628E+04  0.18804177866E+04  0.15294330000E+03 0.  0.
<mgrwt>
<rscale>  0 0.95238240E+03</rscale>
<asrwt>0</asrwt>
<pdfrwt beam="1">  1        2 0.40638755E+00 0.10148593E+04</pdfrwt>
<pdfrwt beam="2">  1       -2 0.60026193E-01 0.10148593E+04</pdfrwt>
<totfact> 0.75371355E+00</totfact>
</mgrwt>
</event>
<event>
 4    1  0.2502834E-007  0.6691441E+03  0.7818608E-02  0.1016284E+00
          2   -1    0    0  501    0  0.00000000000E+00  0.00000000000E+00  0.46050413364E+03  0.46050413364E+03  0.25500000000E-02 0. -1.
         -2   -1    0    0    0  501 -0.00000000000E+00 -0.00000000000E+00 -0.59875017925E+03  0.59875017926E+03  0.25500000000E-02 0.  1.
    8880023    1    1    2    0    0 -0.10728455121E+03  0.49332526019E+02 -0.36429041617E+03  0.76188016553E+03  0.65864270000E+03 0.  1.
    8880022    1    1    2    0    0  0.10728455121E+03 -0.49332526019E+02  0.22604437055E+03  0.29737414737E+03  0.15294330000E+03 0.  0.
<mgrwt>
<rscale>  0 0.49051778E+03</rscale>
<asrwt>0</asrwt>
<pdfrwt beam="1">  1        2 0.70846789E-01 0.66914414E+03</pdfrwt>
<pdfrwt beam="2">  1       -2 0.92115413E-01 0.66914414E+03</pdfrwt>
<totfact> 0.68935076E+01</totfact>
</mgrwt>
</event>
<event>
 4    1  0.2502834E-007  0.1020085E+04  0.7818608E-02  0.9355740E-01
         -2   -1    0    0    0  501 -0.00000000000E+00  0.00000000000E+00  0.55876034632E+03  0.55876034632E+03  0.25500000000E-02 0.  1.
          2   -1    0    0  501    0  0.00000000000E+00 -0.00000000000E+00 -0.18174210025E+04  0.18174210025E+04  0.25500000000E-02 0. -1.
    8880023    1    1    2    0    0  0.25081874606E+03  0.73746388662E+03 -0.17832462036E+03  0.10355543945E+04  0.65864270000E+03 0.  1.
    8880022    1    1    2    0    0 -0.25081874606E+03 -0.73746388662E+03 -0.10803360359E+04  0.13406269544E+04  0.15294330000E+03 0.  0.
<mgrwt>
<rscale>  0 0.95809404E+03</rscale>
<asrwt>0</asrwt>
<pdfrwt beam="1">  1        2 0.27960323E+00 0.10200849E+04</pdfrwt>
<pdfrwt beam="2">  1       -2 0.85963131E-01 0.10200849E+04</pdfrwt>
<totfact> 0.98829580E+00</totfact>
</mgrwt>
</event>
<event>
 4    1  0.2502834E-007  0.7054761E+03  0.7818608E-02  0.9975200E-01
         -2   -1    0    0    0  501 -0.00000000000E+00  0.00000000000E+00  0.95340924153E+03  0.95340924153E+03  0.25500000000E-02 0.  1.
          2   -1    0    0  501    0  0.00000000000E+00 -0.00000000000E+00 -0.84737436247E+03  0.84737436247E+03  0.25500000000E-02 0. -1.
    8880023    1    1    2    0    0 -0.78676132896E+02 -0.24020082532E+03  0.78795189459E+03  0.10576222222E+04  0.65864270000E+03 0.  1.
    8880022    1    1    2    0    0  0.78676132896E+02  0.24020082532E+03 -0.68191701553E+03  0.74316138184E+03  0.15294330000E+03 0.  0.
<mgrwt>
<rscale>  0 0.56751175E+03</rscale>
<asrwt>0</asrwt>
<pdfrwt beam="1">  1        2 0.13036529E+00 0.70547613E+03</pdfrwt>
<pdfrwt beam="2">  1       -2 0.14667834E+00 0.70547613E+03</pdfrwt>
<totfact> 0.10353066E+01</totfact>
</mgrwt>
</event>
<event>
 4    1  0.2502834E-007  0.2879342E+04  0.7818608E-02  0.8284538E-01
         -2   -1    0    0    0  501 -0.00000000000E+00  0.00000000000E+00  0.36764140560E+04  0.36764140560E+04  0.25500000000E-02 0.  1.
          2   -1    0    0  501    0  0.00000000000E+00 -0.00000000000E+00 -0.33803872610E+04  0.33803872610E+04  0.25500000000E-02 0. -1.
    8880023    1    1    2    0    0 -0.17583625007E+04  0.21828793171E+04  0.22350937213E+04  0.36450315425E+04  0.65864270000E+03 0.  0.
    8880022    1    1    2    0    0  0.17583625007E+04 -0.21828793171E+04 -0.19390669262E+04  0.34117697745E+04  0.15294330000E+03 0.  0.
<mgrwt>
<rscale>  0 0.28611265E+04</rscale>
<asrwt>0</asrwt>
<pdfrwt beam="1">  1        2 0.52005958E+00 0.28793421E+04</pdfrwt>
<pdfrwt beam="2">  1       -2 0.56560216E+00 0.28793421E+04</pdfrwt>
<totfact> 0.55082485E-04</totfact>
</mgrwt>
</event>
<event>
 4    1  0.2502834E-007  0.1158667E+04  0.7818608E-02  0.9198387E-01
          2   -1    0    0  501    0  0.00000000000E+00  0.00000000000E+00  0.35147976317E+04  0.35147976317E+04  0.25500000000E-02 0. -1.
         -2   -1    0    0    0  501 -0.00000000000E+00 -0.00000000000E+00 -0.47983768442E+03  0.47983768443E+03  0.25500000000E-02 0.  1.
    8880023    1    1    2    0    0 -0.27266735850E+03 -0.91342877261E+03  0.46354369570E+03  0.12479513513E+04  0.65864270000E+03 0.  0.
    8880022    1    1    2    0    0  0.27266735850E+03  0.91342877261E+03  0.25714162516E+04  0.27466839649E+04  0.15294330000E+03 0.  0.
<mgrwt>
<rscale>  0 0.11070095E+04</rscale>
<asrwt>0</asrwt>
<pdfrwt beam="1">  1        2 0.54073808E+00 0.11586673E+04</pdfrwt>
<pdfrwt beam="2">  1       -2 0.73821184E-01 0.11586673E+04</pdfrwt>
<totfact> 0.13268673E+00</totfact>
</mgrwt>
</event>
<event>
 4    1  0.2803445E-007  0.9110671E+03  0.7818608E-02  0.9508494E-01
         -2   -1    0    0    0  501 -0.00000000000E+00  0.00000000000E+00  0.22263578594E+04  0.22263578594E+04  0.25500000000E-02 0.  1.
          2   -1    0    0  501    0  0.00000000000E+00 -0.00000000000E+00 -0.19905855201E+04  0.19905855201E+04  0.25500000000E-02 0. -1.
    8880023    1    1    2    0    0 -0.36250036424E+03 -0.51461295833E+03  0.20754153568E+04  0.22665815936E+04  0.65864270000E+03 0.  1.
    8880022    1    1    2    0    0  0.36250036424E+03  0.51461295833E+03 -0.18396430175E+04  0.19503617859E+04  0.15294330000E+03 0.  0.
<mgrwt>
<rscale>  0 0.83660487E+03</rscale>
<asrwt>0</asrwt>
<pdfrwt beam="1">  1        2 0.30624393E+00 0.91106708E+03</pdfrwt>
<pdfrwt beam="2">  1       -2 0.34251659E+00 0.91106708E+03</pdfrwt>
<totfact> 0.12145411E-01</totfact>
</mgrwt>
</event>
<event>
 4    1  0.2937745E-007  0.8712692E+03  0.7818608E-02  0.9573824E-01
         -2   -1    0    0    0  501 -0.00000000000E+00  0.00000000000E+00  0.17887476760E+04  0.17887476760E+04  0.25500000000E-02 0.  1.
          2   -1    0    0  501    0  0.00000000000E+00 -0.00000000000E+00 -0.19613963107E+04  0.19613963107E+04  0.25500000000E-02 0. -1.
    8880023    1    1    2    0    0 -0.20305168195E+03 -0.53298205399E+03  0.16327273682E+04  0.18506508910E+04  0.65864270000E+03 0.  1.
    8880022    1    1    2    0    0  0.20305168195E+03  0.53298205399E+03 -0.18053760029E+04  0.18994930956E+04  0.15294330000E+03 0.  0.
<mgrwt>
<rscale>  0 0.79053200E+03</rscale>
<asrwt>0</asrwt>
<pdfrwt beam="1">  1        2 0.30175328E+00 0.87126922E+03</pdfrwt>
<pdfrwt beam="2">  1       -2 0.27519195E+00 0.87126922E+03</pdfrwt>
<totfact> 0.32606899E-01</totfact>
</mgrwt>
</event>
<event>
 4    1  0.2502834E-007  0.7558279E+03  0.7818608E-02  0.9816031E-01
         -2   -1    0    0    0  501 -0.00000000000E+00  0.00000000000E+00  0.38233000792E+03  0.38233000793E+03  0.25500000000E-02 0.  1.
          2   -1    0    0  501    0  0.00000000000E+00 -0.00000000000E+00 -0.29186335857E+04  0.29186335857E+04  0.25500000000E-02 0. -1.
    8880023    1    1    2    0    0  0.34388151902E+03  0.13860406755E+03 -0.23332036445E+02  0.75618792430E+03  0.65864270000E+03 0.  1.
    8880022    1    1    2    0    0 -0.34388151902E+03 -0.13860406755E+03 -0.25129715413E+04  0.25447756693E+04  0.15294330000E+03 0.  0.
<mgrwt>
<rscale>  0 0.64509290E+03</rscale>
<asrwt>0</asrwt>
<pdfrwt beam="1">  1        2 0.44902054E+00 0.75582789E+03</pdfrwt>
<pdfrwt beam="2">  1       -2 0.58820003E-01 0.75582789E+03</pdfrwt>
<totfact> 0.56111486E+00</totfact>
</mgrwt>
</event>
<event>
 4    1  0.3361883E-007  0.9768756E+03  0.7818608E-02  0.9412457E-01
          2   -1    0    0  501    0  0.00000000000E+00  0.00000000000E+00  0.29125235930E+04  0.29125235930E+04  0.25500000000E-02 0. -1.
         -2   -1    0    0    0  501 -0.00000000000E+00 -0.00000000000E+00 -0.14595655117E+04  0.14595655117E+04  0.25500000000E-02 0.  1.
    8880023    1    1    2    0    0 -0.47470833997E+03  0.54325660536E+03 -0.12408033928E+04  0.15792020178E+04  0.65864270000E+03 0.  1.
    8880022    1    1    2    0    0  0.47470833997E+03 -0.54325660536E+03  0.26937614742E+04  0.27928870869E+04  0.15294330000E+03 0.  0.
<mgrwt>
<rscale>  0 0.91057574E+03</rscale>
<asrwt>0</asrwt>
<pdfrwt beam="1">  1        2 0.44808054E+00 0.97687561E+03</pdfrwt>
<pdfrwt beam="2">  1       -2 0.22454855E+00 0.97687561E+03</pdfrwt>
<totfact> 0.18662193E-01</totfact>
</mgrwt>
</event>
<event>
 4    1  0.2502834E-007  0.1028434E+04  0.7818608E-02  0.9345268E-01
         -2   -1    0    0    0  501 -0.00000000000E+00  0.00000000000E+00  0.15622309659E+04  0.15622309659E+04  0.25500000000E-02 0.  1.
          2   -1    0    0  501    0  0.00000000000E+00 -0.00000000000E+00 -0.77519712146E+03  0.77519712147E+03  0.25500000000E-02 0. -1.
    8880023    1    1    2    0    0  0.78318159944E+03  0.10243106848E+03 -0.21674618804E+03  0.10510255267E+04  0.65864270000E+03 0.  0.
    8880022    1    1    2    0    0 -0.78318159944E+03 -0.10243106848E+03  0.10037800325E+04  0.12864025607E+04  0.15294330000E+03 0.  0.
<mgrwt>
<rscale>  0 0.96720118E+03</rscale>
<asrwt>0</asrwt>
<pdfrwt beam="1">  1        2 0.11926110E+00 0.10284336E+04</pdfrwt>
<pdfrwt beam="2">  1       -2 0.24034322E+00 0.10284336E+04</pdfrwt>
<totfact> 0.26297958E+00</totfact>
</mgrwt>
</event>
<event>
 4    1  0.2502834E-007  0.9849147E+03  0.7818608E-02  0.9401565E-01
         -2   -1    0    0    0  501 -0.00000000000E+00  0.00000000000E+00  0.83952716072E+03  0.83952716072E+03  0.25500000000E-02 0.  1.
          2   -1    0    0  501    0  0.00000000000E+00 -0.00000000000E+00 -0.17260609855E+04  0.17260609855E+04  0.25500000000E-02 0. -1.
    8880023    1    1    2    0    0 -0.31387865289E+03  0.66160943094E+03  0.41149255772E+03  0.10674189333E+04  0.65864270000E+03 0. -1.
    8880022    1    1    2    0    0  0.31387865289E+03 -0.66160943094E+03 -0.12980263825E+04  0.14981692129E+04  0.15294330000E+03 0.  0.
<mgrwt>
<rscale>  0 0.91946971E+03</rscale>
<asrwt>0</asrwt>
<pdfrwt beam="1">  1        2 0.26554784E+00 0.98491474E+03</pdfrwt>
<pdfrwt beam="2">  1       -2 0.12915802E+00 0.98491474E+03</pdfrwt>
<totfact> 0.41757864E+00</totfact>
</mgrwt>
</event>
<event>
 4    1  0.2502834E-007  0.6625745E+03  0.7818608E-02  0.1021661E+00
         -2   -1    0    0    0  501 -0.00000000000E+00  0.00000000000E+00  0.57919776615E+03  0.57919776616E+03  0.25500000000E-02 0.  1.
          2   -1    0    0  501    0  0.00000000000E+00 -0.00000000000E+00 -0.29860167717E+03  0.29860167718E+03  0.25500000000E-02 0. -1.
    8880023    1    1    2    0    0 -0.38014541079E+02 -0.61234452042E+02  0.22884570681E+03  0.70098168823E+03  0.65864270000E+03 0.  0.
    8880022    1    1    2    0    0  0.38014541079E+02  0.61234452042E+02  0.51750382176E+02  0.17681775511E+03  0.15294330000E+03 0.  1.
<mgrwt>
<rscale>  0 0.47091877E+03</rscale>
<asrwt>0</asrwt>
<pdfrwt beam="1">  1        2 0.45938720E-01 0.66257450E+03</pdfrwt>
<pdfrwt beam="2">  1       -2 0.89107347E-01 0.66257450E+03</pdfrwt>
<totfact> 0.12093597E+02</totfact>
</mgrwt>
</event>
<event>
 4    1  0.2502834E-007  0.9455516E+03  0.7818608E-02  0.9456543E-01
          2   -1    0    0  501    0  0.00000000000E+00  0.00000000000E+00  0.24086189092E+04  0.24086189092E+04  0.25500000000E-02 0. -1.
         -2   -1    0    0    0  501 -0.00000000000E+00 -0.00000000000E+00 -0.62608285670E+03  0.62608285670E+03  0.25500000000E-02 0.  1.
    8880023    1    1    2    0    0 -0.38320498764E+03 -0.55983174475E+03 -0.17116024218E+03  0.96091814415E+03  0.65864270000E+03 0.  1.
    8880022    1    1    2    0    0  0.38320498764E+03  0.55983174475E+03  0.19536962947E+04  0.20737836217E+04  0.15294330000E+03 0.  0.
<mgrwt>
<rscale>  0 0.87564939E+03</rscale>
<asrwt>0</asrwt>
<pdfrwt beam="1">  1        2 0.37055675E+00 0.94555161E+03</pdfrwt>
<pdfrwt beam="2">  1       -2 0.96320441E-01 0.94555161E+03</pdfrwt>
<totfact> 0.35994306E+00</totfact>
</mgrwt>
</event>
<event>
 4    1  0.2502834E-007  0.1943838E+04  0.7818608E-02  0.8646884E-01
          2   -1    0    0  501    0  0.00000000000E+00  0.00000000000E+00  0.50580973508E+04  0.50580973508E+04  0.25500000000E-02 0. -1.
         -2   -1    0    0    0  501 -0.00000000000E+00 -0.00000000000E+00 -0.74791393268E+03  0.74791393268E+03  0.25500000000E-02 0.  1.
    8880023    1    1    2    0    0  0.12167987090E+03 -0.18247990680E+04  0.15255026770E+04  0.24709646403E+04  0.65864270000E+03 0.  1.
    8880022    1    1    2    0    0 -0.12167987090E+03  0.18247990680E+04  0.27846807410E+04  0.33350466432E+04  0.15294330000E+03 0.  0.
<mgrwt>
<rscale>  0 0.19160996E+04</rscale>
<asrwt>0</asrwt>
<pdfrwt beam="1">  1        2 0.77816880E+00 0.19438384E+04</pdfrwt>
<pdfrwt beam="2">  1       -2 0.11506368E+00 0.19438384E+04</pdfrwt>
<totfact> 0.15847085E-02</totfact>
</mgrwt>
</event>
<event>
 4    1  0.2502834E-007  0.6640705E+03  0.7818608E-02  0.1020326E+00
         -2   -1    0    0    0  501 -0.00000000000E+00  0.00000000000E+00  0.74804887722E+03  0.74804887722E+03  0.25500000000E-02 0.  1.
          2   -1    0    0  501    0  0.00000000000E+00 -0.00000000000E+00 -0.10633723546E+04  0.10633723546E+04  0.25500000000E-02 0. -1.
    8880023    1    1    2    0    0 -0.72114751739E+01 -0.84423784779E+02  0.59064457798E+03  0.88873539626E+03  0.65864270000E+03 0.  1.
    8880022    1    1    2    0    0  0.72114751739E+01  0.84423784779E+02 -0.90596805538E+03  0.92268583559E+03  0.15294330000E+03 0.  0.
<mgrwt>
<rscale>  0 0.47569040E+03</rscale>
<asrwt>0</asrwt>
<pdfrwt beam="1">  1        2 0.16359575E+00 0.66407047E+03</pdfrwt>
<pdfrwt beam="2">  1       -2 0.11508444E+00 0.66407047E+03</pdfrwt>
<totfact> 0.13897571E+01</totfact>
</mgrwt>
</event>
<event>
 4    1  0.2502834E-007  0.8068144E+03  0.7818608E-02  0.9696251E-01
          2   -1    0    0  501    0  0.00000000000E+00  0.00000000000E+00  0.12167713844E+04  0.12167713844E+04  0.25500000000E-02 0. -1.
         -2   -1    0    0    0  501 -0.00000000000E+00 -0.00000000000E+00 -0.22561857782E+04  0.22561857782E+04  0.25500000000E-02 0.  1.
    8880023    1    1    2    0    0  0.31141328537E+03  0.34664255291E+03 -0.21297209084E+04  0.22774241256E+04  0.65864270000E+03 0.  1.
    8880022    1    1    2    0    0 -0.31141328537E+03 -0.34664255291E+03  0.10903065147E+04  0.11955330371E+04  0.15294330000E+03 0.  0.
<mgrwt>
<rscale>  0 0.71240442E+03</rscale>
<asrwt>0</asrwt>
<pdfrwt beam="1">  1        2 0.18719560E+00 0.80681441E+03</pdfrwt>
<pdfrwt beam="2">  1       -2 0.34710550E+00 0.80681441E+03</pdfrwt>
<totfact> 0.31487489E-01</totfact>
</mgrwt>
</event>
<event>
 4    1  0.2502834E-007  0.1235681E+04  0.7818608E-02  0.9123195E-01
         -2   -1    0    0    0  501 -0.00000000000E+00  0.00000000000E+00  0.59450960717E+03  0.59450960718E+03  0.25500000000E-02 0.  1.
          2   -1    0    0  501    0  0.00000000000E+00 -0.00000000000E+00 -0.27177203248E+04  0.27177203248E+04  0.25500000000E-02 0. -1.
    8880023    1    1    2    0    0 -0.74051641715E+03 -0.73805995171E+03 -0.41476961833E+03  0.13034343478E+04  0.65864270000E+03 0.  0.
    8880022    1    1    2    0    0  0.74051641715E+03  0.73805995171E+03 -0.17084410993E+04  0.20087955842E+04  0.15294330000E+03 0.  0.
<mgrwt>
<rscale>  0 0.11882602E+04</rscale>
<asrwt>0</asrwt>
<pdfrwt beam="1">  1        2 0.41811081E+00 0.12356809E+04</pdfrwt>
<pdfrwt beam="2">  1       -2 0.91463018E-01 0.12356809E+04</pdfrwt>
<totfact> 0.25942588E+00</totfact>
</mgrwt>
</event>
<event>
 4    1  0.2502834E-007  0.1263136E+04  0.7818608E-02  0.9098066E-01
         -2   -1    0    0    0  501 -0.00000000000E+00  0.00000000000E+00  0.18322478479E+04  0.18322478479E+04  0.25500000000E-02 0.  1.
          2   -1    0    0  501    0  0.00000000000E+00 -0.00000000000E+00 -0.12303883321E+04  0.12303883321E+04  0.25500000000E-02 0. -1.
    8880023    1    1    2    0    0 -0.14795847356E+03 -0.10676194069E+04  0.12652259359E+04  0.17878226375E+04  0.65864270000E+03 0.  0.
    8880022    1    1    2    0    0  0.14795847356E+03  0.10676194069E+04 -0.66336642012E+03  0.12748135426E+04  0.15294330000E+03 0.  0.
<mgrwt>
<rscale>  0 0.12170454E+04</rscale>
<asrwt>0</asrwt>
<pdfrwt beam="1">  1        2 0.18929051E+00 0.12631362E+04</pdfrwt>
<pdfrwt beam="2">  1       -2 0.28188428E+00 0.12631362E+04</pdfrwt>
<totfact> 0.72088363E-01</totfact>
</mgrwt>
</event>
<event>
 4    1  0.2502834E-007  0.7792115E+03  0.7818608E-02  0.9757692E-01
          2   -1    0    0  501    0  0.00000000000E+00  0.00000000000E+00  0.67295795428E+03  0.67295795428E+03  0.25500000000E-02 0. -1.
         -2   -1    0    0    0  501 -0.00000000000E+00 -0.00000000000E+00 -0.69964516452E+03  0.69964516452E+03  0.25500000000E-02 0.  1.
    8880023    1    1    2    0    0 -0.10587620644E+03 -0.40267924316E+03 -0.31835215116E+03  0.84173549431E+03  0.65864270000E+03 0.  1.
    8880022    1    1    2    0    0  0.10587620644E+03  0.40267924316E+03  0.29166494092E+03  0.53086762450E+03  0.15294330000E+03 0.  0.
<mgrwt>
<rscale>  0 0.67683281E+03</rscale>
<asrwt>0</asrwt>
<pdfrwt beam="1">  1        2 0.10353199E+00 0.77921149E+03</pdfrwt>
<pdfrwt beam="2">  1       -2 0.10763772E+00 0.77921149E+03</pdfrwt>
<totfact> 0.30138015E+01</totfact>
</mgrwt>
</event>
<event>
 4    1  0.2502834E-007  0.9367731E+03  0.7818608E-02  0.9469406E-01
         -2   -1    0    0    0  501 -0.00000000000E+00  0.00000000000E+00  0.15899922800E+04  0.15899922800E+04  0.25500000000E-02 0.  1.
          2   -1    0    0  501    0  0.00000000000E+00 -0.00000000000E+00 -0.15804044044E+04  0.15804044044E+04  0.25500000000E-02 0. -1.
    8880023    1    1    2    0    0  0.53011359514E+03  0.40337716862E+03  0.13631880369E+04  0.16540330692E+04  0.65864270000E+03 0.  1.
    8880022    1    1    2    0    0 -0.53011359514E+03 -0.40337716862E+03 -0.13536001612E+04  0.15163636152E+04  0.15294330000E+03 0.  0.
<mgrwt>
<rscale>  0 0.86577484E+03</rscale>
<asrwt>0</asrwt>
<pdfrwt beam="1">  1        2 0.24313914E+00 0.93677306E+03</pdfrwt>
<pdfrwt beam="2">  1       -2 0.24461420E+00 0.93677306E+03</pdfrwt>
<totfact> 0.79978897E-01</totfact>
</mgrwt>
</event>
<event>
 4    1  0.2502834E-007  0.9544239E+03  0.7818608E-02  0.9443777E-01
          2   -1    0    0  501    0  0.00000000000E+00  0.00000000000E+00  0.18478155094E+04  0.18478155094E+04  0.25500000000E-02 0. -1.
         -2   -1    0    0    0  501 -0.00000000000E+00 -0.00000000000E+00 -0.53645283404E+03  0.53645283405E+03  0.25500000000E-02 0.  1.
    8880023    1    1    2    0    0  0.43987802126E+03  0.53256188061E+03  0.71920136593E+02  0.95712984625E+03  0.65864270000E+03 0.  0.
    8880022    1    1    2    0    0 -0.43987802126E+03 -0.53256188061E+03  0.12394425387E+04  0.14271384972E+04  0.15294330000E+03 0.  0.
<mgrwt>
<rscale>  0 0.88558898E+03</rscale>
<asrwt>0</asrwt>
<pdfrwt beam="1">  1        2 0.28427930E+00 0.95442393E+03</pdfrwt>
<pdfrwt beam="2">  1       -2 0.82531206E-01 0.95442393E+03</pdfrwt>
<totfact> 0.10511637E+01</totfact>
</mgrwt>
</event>
<event>
 4    1  0.2502834E-007  0.9952634E+03  0.7818608E-02  0.9387781E-01
         -2   -1    0    0    0  501 -0.00000000000E+00  0.00000000000E+00  0.14420128778E+04  0.14420128778E+04  0.25500000000E-02 0.  1.
          2   -1    0    0  501    0  0.00000000000E+00 -0.00000000000E+00 -0.53814205164E+03  0.53814205164E+03  0.25500000000E-02 0. -1.
    8880023    1    1    2    0    0  0.41589635194E+02  0.74498943516E+03  0.43855480752E+03  0.10876026304E+04  0.65864270000E+03 0.  1.
    8880022    1    1    2    0    0 -0.41589635194E+02 -0.74498943516E+03  0.46531601863E+03  0.89255229901E+03  0.15294330000E+03 0.  0.
<mgrwt>
<rscale>  0 0.93088115E+03</rscale>
<asrwt>0</asrwt>
<pdfrwt beam="1">  1        2 0.82791085E-01 0.99526336E+03</pdfrwt>
<pdfrwt beam="2">  1       -2 0.22184814E+00 0.99526336E+03</pdfrwt>
<totfact> 0.54188134E+00</totfact>
</mgrwt>
</event>
<event>
 4    1  0.2502834E-007  0.6936809E+03  0.7818608E-02  0.1002450E+00
          2   -1    0    0  501    0  0.00000000000E+00  0.00000000000E+00  0.90005681992E+03  0.90005681993E+03  0.25500000000E-02 0. -1.
         -2   -1    0    0    0  501 -0.00000000000E+00 -0.00000000000E+00 -0.37906549142E+03  0.37906549143E+03  0.25500000000E-02 0.  1.
    8880023    1    1    2    0    0  0.81973216130E+02  0.20165179024E+03 -0.51290074581E+00  0.69368113856E+03  0.65864270000E+03 0.  1.
    8880022    1    1    2    0    0 -0.81973216130E+02 -0.20165179024E+03  0.52150422924E+03  0.58544117279E+03  0.15294330000E+03 0.  0.
<mgrwt>
<rscale>  0 0.54588930E+03</rscale>
<asrwt>0</asrwt>
<pdfrwt beam="1">  1        2 0.13847028E+00 0.69368095E+03</pdfrwt>
<pdfrwt beam="2">  1       -2 0.58317768E-01 0.69368095E+03</pdfrwt>
<totfact> 0.82074052E+01</totfact>
</mgrwt>
</event>
<event>
 4    1  0.2502834E-007  0.9922484E+03  0.7818608E-02  0.9391770E-01
         -2   -1    0    0    0  501 -0.00000000000E+00  0.00000000000E+00  0.34579038845E+03  0.34579038846E+03  0.25500000000E-02 0.  1.
          2   -1    0    0  501    0  0.00000000000E+00 -0.00000000000E+00 -0.26159192841E+04  0.26159192841E+04  0.25500000000E-02 0. -1.
    8880023    1    1    2    0    0 -0.45548002211E+03 -0.58590495255E+03 -0.68782224066E+03  0.12073343799E+04  0.65864270000E+03 0.  0.
    8880022    1    1    2    0    0  0.45548002211E+03  0.58590495255E+03 -0.15823066550E+04  0.17543752926E+04  0.15294330000E+03 0.  0.
<mgrwt>
<rscale>  0 0.92756076E+03</rscale>
<asrwt>0</asrwt>
<pdfrwt beam="1">  1        2 0.40244911E+00 0.99224839E+03</pdfrwt>
<pdfrwt beam="2">  1       -2 0.53198523E-01 0.99224839E+03</pdfrwt>
<totfact> 0.10074325E+01</totfact>
</mgrwt>
</event>
<event>
 4    1  0.2502834E-007  0.6699745E+03  0.7818608E-02  0.1015681E+00
          2   -1    0    0  501    0  0.00000000000E+00  0.00000000000E+00  0.41574232697E+03  0.41574232698E+03  0.25500000000E-02 0. -1.
         -2   -1    0    0    0  501 -0.00000000000E+00 -0.00000000000E+00 -0.76759295831E+03  0.76759295832E+03  0.25500000000E-02 0.  1.
    8880023    1    1    2    0    0  0.11867463768E+03 -0.31176826056E+02 -0.57741301177E+03  0.88446122387E+03  0.65864270000E+03 0.  1.
    8880022    1    1    2    0    0 -0.11867463768E+03  0.31176826056E+02  0.22556238043E+03  0.29887406142E+03  0.15294330000E+03 0.  0.
<mgrwt>
<rscale>  0 0.49277875E+03</rscale>
<asrwt>0</asrwt>
<pdfrwt beam="1">  1        2 0.63960358E-01 0.66997453E+03</pdfrwt>
<pdfrwt beam="2">  1       -2 0.11809122E+00 0.66997453E+03</pdfrwt>
<totfact> 0.42779528E+01</totfact>
</mgrwt>
</event>
<event>
 4    1  0.2502834E-007  0.1427908E+04  0.7818608E-02  0.8962295E-01
         -2   -1    0    0    0  501 -0.00000000000E+00  0.00000000000E+00  0.96772047231E+03  0.96772047232E+03  0.25500000000E-02 0.  1.
          2   -1    0    0  501    0  0.00000000000E+00 -0.00000000000E+00 -0.28780490800E+04  0.28780490800E+04  0.25500000000E-02 0. -1.
    8880023    1    1    2    0    0  0.70150244486E+03  0.10549913203E+04 -0.21164589893E+04  0.25531003164E+04  0.65864270000E+03 0.  0.
    8880022    1    1    2    0    0 -0.70150244486E+03 -0.10549913203E+04  0.20613038163E+03  0.12926692359E+04  0.15294330000E+03 0.  0.
<mgrwt>
<rscale>  0 0.13883497E+04</rscale>
<asrwt>0</asrwt>
<pdfrwt beam="1">  1        2 0.44277678E+00 0.14279085E+04</pdfrwt>
<pdfrwt beam="2">  1       -2 0.14888007E+00 0.14279085E+04</pdfrwt>
<totfact> 0.60480386E-01</totfact>
</mgrwt>
</event>
<event>
 4    1  0.2502834E-007  0.1068553E+04  0.7818608E-02  0.9296903E-01
          2   -1    0    0  501    0  0.00000000000E+00  0.00000000000E+00  0.16344151747E+04  0.16344151747E+04  0.25500000000E-02 0. -1.
         -2   -1    0    0    0  501 -0.00000000000E+00 -0.00000000000E+00 -0.13598470964E+04  0.13598470964E+04  0.25500000000E-02 0.  1.
    8880023    1    1    2    0    0 -0.84115661295E+03 -0.21242135516E+02 -0.99727250422E+03  0.14616286566E+04  0.65864270000E+03 0.  1.
    8880022    1    1    2    0    0  0.84115661295E+03  0.21242135516E+02  0.12718405826E+04  0.15326336145E+04  0.15294330000E+03 0.  0.
<mgrwt>
<rscale>  0 0.10106843E+04</rscale>
<asrwt>0</asrwt>
<pdfrwt beam="1">  1        2 0.25144849E+00 0.10685532E+04</pdfrwt>
<pdfrwt beam="2">  1       -2 0.20920725E+00 0.10685532E+04</pdfrwt>
<totfact> 0.12187453E+00</totfact>
</mgrwt>
</event>
<event>
 4    1  0.2502834E-007  0.1274045E+04  0.7818608E-02  0.9088304E-01
         -2   -1    0    0    0  501 -0.00000000000E+00  0.00000000000E+00  0.98257319876E+03  0.98257319876E+03  0.25500000000E-02 0.  1.
          2   -1    0    0  501    0  0.00000000000E+00 -0.00000000000E+00 -0.15629441395E+04  0.15629441395E+04  0.25500000000E-02 0. -1.
    8880023    1    1    2    0    0 -0.87792315008E+03  0.64701637657E+03  0.52936276011E+02  0.12751437976E+04  0.65864270000E+03 0.  1.
    8880022    1    1    2    0    0  0.87792315008E+03 -0.64701637657E+03 -0.63330721675E+03  0.12703735407E+04  0.15294330000E+03 0.  0.
<mgrwt>
<rscale>  0 0.12284594E+04</rscale>
<asrwt>0</asrwt>
<pdfrwt beam="1">  1        2 0.24045294E+00 0.12740445E+04</pdfrwt>
<pdfrwt beam="2">  1       -2 0.15116511E+00 0.12740445E+04</pdfrwt>
<totfact> 0.33137920E+00</totfact>
</mgrwt>
</event>
<event>
 4    1  0.2502834E-007  0.6742681E+03  0.7818608E-02  0.1012772E+00
         -2   -1    0    0    0  501 -0.00000000000E+00  0.00000000000E+00  0.28124039805E+03  0.28124039806E+03  0.25500000000E-02 0.  1.
          2   -1    0    0  501    0  0.00000000000E+00 -0.00000000000E+00 -0.11666584062E+04  0.11666584062E+04  0.25500000000E-02 0. -1.
    8880023    1    1    2    0    0  0.14428630230E+03  0.29453656216E+01 -0.16051336308E+03  0.69311035067E+03  0.65864270000E+03 0.  1.
    8880022    1    1    2    0    0 -0.14428630230E+03 -0.29453656216E+01 -0.72490464508E+03  0.75478845360E+03  0.15294330000E+03 0.  0.
<mgrwt>
<rscale>  0 0.50387799E+03</rscale>
<asrwt>0</asrwt>
<pdfrwt beam="1">  1        2 0.17948591E+00 0.67426806E+03</pdfrwt>
<pdfrwt beam="2">  1       -2 0.43267754E-01 0.67426806E+03</pdfrwt>
<totfact> 0.10259045E+02</totfact>
</mgrwt>
</event>
<event>
 4    1  0.2502834E-007  0.1527997E+04  0.7818608E-02  0.8890115E-01
         -2   -1    0    0    0  501 -0.00000000000E+00  0.00000000000E+00  0.15854252448E+04  0.15854252448E+04  0.25500000000E-02 0.  1.
          2   -1    0    0  501    0  0.00000000000E+00 -0.00000000000E+00 -0.17021000304E+04  0.17021000304E+04  0.25500000000E-02 0. -1.
    8880023    1    1    2    0    0 -0.13480382189E+04 -0.28941123464E+03  0.69681445909E+03  0.16793827732E+04  0.65864270000E+03 0.  0.
    8880022    1    1    2    0    0  0.13480382189E+04  0.28941123464E+03 -0.81348924467E+03  0.16081425019E+04  0.15294330000E+03 0.  0.
<mgrwt>
<rscale>  0 0.14915152E+04</rscale>
<asrwt>0</asrwt>
<pdfrwt beam="1">  1        2 0.26186154E+00 0.15279974E+04</pdfrwt>
<pdfrwt beam="2">  1       -2 0.24391158E+00 0.15279974E+04</pdfrwt>
<totfact> 0.64158419E-01</totfact>
</mgrwt>
</event>
<event>
 4    1  0.2502834E-007  0.9591019E+03  0.7818608E-02  0.9437138E-01
         -2   -1    0    0    0  501 -0.00000000000E+00  0.00000000000E+00  0.96895168844E+03  0.96895168845E+03  0.25500000000E-02 0.  1.
          2   -1    0    0  501    0  0.00000000000E+00 -0.00000000000E+00 -0.11188538278E+04  0.11188538278E+04  0.25500000000E-02 0. -1.
    8880023    1    1    2    0    0  0.68334961164E+03 -0.13820085472E+03  0.53530754518E+03  0.10983763208E+04  0.65864270000E+03 0.  1.
    8880022    1    1    2    0    0 -0.68334961164E+03  0.13820085472E+03 -0.68520968455E+03  0.98942919544E+03  0.15294330000E+03 0.  0.
<mgrwt>
<rscale>  0 0.89081409E+03</rscale>
<asrwt>0</asrwt>
<pdfrwt beam="1">  1        2 0.17213136E+00 0.95910186E+03</pdfrwt>
<pdfrwt beam="2">  1       -2 0.14906949E+00 0.95910186E+03</pdfrwt>
<totfact> 0.64312894E+00</totfact>
</mgrwt>
</event>
<event>
 4    1  0.2502834E-007  0.6790176E+03  0.7818608E-02  0.1009885E+00
         -2   -1    0    0    0  501 -0.00000000000E+00  0.00000000000E+00  0.26429829660E+03  0.26429829661E+03  0.25500000000E-02 0.  1.
          2   -1    0    0  501    0  0.00000000000E+00 -0.00000000000E+00 -0.18225480374E+04  0.18225480374E+04  0.25500000000E-02 0. -1.
    8880023    1    1    2    0    0  0.23433058731E+02 -0.16341860318E+03 -0.19685672870E+03  0.70697774081E+03  0.65864270000E+03 0.  0.
    8880022    1    1    2    0    0 -0.23433058731E+02  0.16341860318E+03 -0.13613930121E+04  0.13798685932E+04  0.15294330000E+03 0.  0.
<mgrwt>
<rscale>  0 0.51520417E+03</rscale>
<asrwt>0</asrwt>
<pdfrwt beam="1">  1        2 0.28039200E+00 0.67901764E+03</pdfrwt>
<pdfrwt beam="2">  1       -2 0.40661278E-01 0.67901764E+03</pdfrwt>
<totfact> 0.49726438E+01</totfact>
</mgrwt>
</event>
<event>
 4    1  0.2502834E-007  0.1782291E+04  0.7818608E-02  0.8732396E-01
          2   -1    0    0  501    0  0.00000000000E+00  0.00000000000E+00  0.22575102266E+04  0.22575102266E+04  0.25500000000E-02 0. -1.
         -2   -1    0    0    0  501 -0.00000000000E+00 -0.00000000000E+00 -0.19524394113E+04  0.19524394113E+04  0.25500000000E-02 0.  1.
    8880023    1    1    2    0    0  0.85812019091E+03 -0.14164677933E+04  0.13587012140E+04  0.22411225908E+04  0.65864270000E+03 0.  0.
    8880022    1    1    2    0    0 -0.85812019091E+03  0.14164677933E+04 -0.10536303987E+04  0.19688270472E+04  0.15294330000E+03 0.  0.
<mgrwt>
<rscale>  0 0.17517346E+04</rscale>
<asrwt>0</asrwt>
<pdfrwt beam="1">  1        2 0.34730926E+00 0.17822911E+04</pdfrwt>
<pdfrwt beam="2">  1       -2 0.30037530E+00 0.17822911E+04</pdfrwt>
<totfact> 0.13752140E-01</totfact>
</mgrwt>
</event>
<event>
 4    1  0.2502834E-007  0.1232745E+04  0.7818608E-02  0.9125931E-01
         -2   -1    0    0    0  501 -0.00000000000E+00  0.00000000000E+00  0.18733852980E+04  0.18733852980E+04  0.25500000000E-02 0.  1.
          2   -1    0    0  501    0  0.00000000000E+00 -0.00000000000E+00 -0.13531945935E+04  0.13531945935E+04  0.25500000000E-02 0. -1.
    8880023    1    1    2    0    0  0.68364782843E+03 -0.78643256931E+03  0.13919787067E+04  0.18593723311E+04  0.65864270000E+03 0.  0.
    8880022    1    1    2    0    0 -0.68364782843E+03  0.78643256931E+03 -0.87178800220E+03  0.13672075604E+04  0.15294330000E+03 0.  0.
<mgrwt>
<rscale>  0 0.11851772E+04</rscale>
<asrwt>0</asrwt>
<pdfrwt beam="1">  1        2 0.20818378E+00 0.12327452E+04</pdfrwt>
<pdfrwt beam="2">  1       -2 0.28821312E+00 0.12327452E+04</pdfrwt>
<totfact> 0.56083729E-01</totfact>
</mgrwt>
</event>
<event>
 4    1  0.2502834E-007  0.9348814E+03  0.7818608E-02  0.9472208E-01
         -2   -1    0    0    0  501 -0.00000000000E+00  0.00000000000E+00  0.13657624898E+04  0.13657624898E+04  0.25500000000E-02 0.  1.
          2   -1    0    0  501    0  0.00000000000E+00 -0.00000000000E+00 -0.98715318087E+03  0.98715318087E+03  0.25500000000E-02 0. -1.
    8880023    1    1    2    0    0  0.54569023460E+03 -0.37737938962E+03  0.10436510001E+04  0.14011461923E+04  0.65864270000E+03 0.  0.
    8880022    1    1    2    0    0 -0.54569023460E+03  0.37737938962E+03 -0.66504169122E+03  0.95176947835E+03  0.15294330000E+03 0.  0.
<mgrwt>
<rscale>  0 0.86364155E+03</rscale>
<asrwt>0</asrwt>
<pdfrwt beam="1">  1        2 0.15186972E+00 0.93488141E+03</pdfrwt>
<pdfrwt beam="2">  1       -2 0.21011731E+00 0.93488141E+03</pdfrwt>
<totfact> 0.29360967E+00</totfact>
</mgrwt>
</event>
<event>
 4    1  0.2502834E-007  0.1183412E+04  0.7818608E-02  0.9173418E-01
         -2   -1    0    0    0  501 -0.00000000000E+00  0.00000000000E+00  0.86082878931E+03  0.86082878931E+03  0.25500000000E-02 0.  1.
          2   -1    0    0  501    0  0.00000000000E+00 -0.00000000000E+00 -0.18130889354E+04  0.18130889354E+04  0.25500000000E-02 0. -1.
    8880023    1    1    2    0    0 -0.79440276937E+03 -0.57929037573E+03  0.14550060969E+03  0.11923228309E+04  0.65864270000E+03 0.  0.
    8880022    1    1    2    0    0  0.79440276937E+03  0.57929037573E+03 -0.10977607558E+04  0.14815948938E+04  0.15294330000E+03 0.  0.
<mgrwt>
<rscale>  0 0.11332057E+04</rscale>
<asrwt>0</asrwt>
<pdfrwt beam="1">  1        2 0.27893676E+00 0.11834117E+04</pdfrwt>
<pdfrwt beam="2">  1       -2 0.13243520E+00 0.11834117E+04</pdfrwt>
<totfact> 0.34302627E+00</totfact>
</mgrwt>
</event>
<event>
 4    1  0.2502834E-007  0.7842938E+03  0.7818608E-02  0.9745846E-01
          2   -1    0    0  501    0  0.00000000000E+00  0.00000000000E+00  0.24366400836E+04  0.24366400836E+04  0.25500000000E-02 0. -1.
         -2   -1    0    0    0  501 -0.00000000000E+00 -0.00000000000E+00 -0.36229743518E+03  0.36229743519E+03  0.25500000000E-02 0.  1.
    8880023    1    1    2    0    0 -0.16943319484E+03  0.39063909840E+03  0.12062318097E+03  0.79351538786E+03  0.65864270000E+03 0.  1.
    8880022    1    1    2    0    0  0.16943319484E+03 -0.39063909840E+03  0.19537194675E+04  0.20054221310E+04  0.15294330000E+03 0.  0.
<mgrwt>
<rscale>  0 0.68351542E+03</rscale>
<asrwt>0</asrwt>
<pdfrwt beam="1">  1        2 0.37486770E+00 0.78429377E+03</pdfrwt>
<pdfrwt beam="2">  1       -2 0.55738068E-01 0.78429377E+03</pdfrwt>
<totfact> 0.11917734E+01</totfact>
</mgrwt>
</event>
<event>
 4    1  0.2502834E-007  0.6888092E+03  0.7818608E-02  0.1004724E+00
         -2   -1    0    0    0  501 -0.00000000000E+00  0.00000000000E+00  0.84116084766E+03  0.84116084767E+03  0.25500000000E-02 0.  1.
          2   -1    0    0  501    0  0.00000000000E+00 -0.00000000000E+00 -0.73790858733E+03  0.73790858733E+03  0.25500000000E-02 0. -1.
    8880023    1    1    2    0    0 -0.19097560321E+03  0.64623852927E+02  0.66843144764E+03  0.95982223867E+03  0.65864270000E+03 0.  1.
    8880022    1    1    2    0    0  0.19097560321E+03 -0.64623852927E+02 -0.56517918730E+03  0.61924719633E+03  0.15294330000E+03 0.  0.
<mgrwt>
<rscale>  0 0.53626600E+03</rscale>
<asrwt>0</asrwt>
<pdfrwt beam="1">  1        2 0.11352440E+00 0.68880921E+03</pdfrwt>
<pdfrwt beam="2">  1       -2 0.12940936E+00 0.68880921E+03</pdfrwt>
<totfact> 0.17176662E+01</totfact>
</mgrwt>
</event>
<event>
 4    1  0.2502834E-007  0.1175084E+04  0.7818608E-02  0.9181731E-01
          2   -1    0    0  501    0  0.00000000000E+00  0.00000000000E+00  0.21289376897E+04  0.21289376897E+04  0.25500000000E-02 0. -1.
         -2   -1    0    0    0  501 -0.00000000000E+00 -0.00000000000E+00 -0.76724263610E+03  0.76724263611E+03  0.25500000000E-02 0.  1.
    8880023    1    1    2    0    0 -0.95752737214E+03 -0.17364609994E+03 -0.48391030850E+02  0.11760797314E+04  0.65864270000E+03 0.  0.
    8880022    1    1    2    0    0  0.95752737214E+03  0.17364609994E+03  0.14100860844E+04  0.17201005944E+04  0.15294330000E+03 0.  0.
<mgrwt>
<rscale>  0 0.11243995E+04</rscale>
<asrwt>0</asrwt>
<pdfrwt beam="1">  1        2 0.32752887E+00 0.11750838E+04</pdfrwt>
<pdfrwt beam="2">  1       -2 0.11803733E+00 0.11750838E+04</pdfrwt>
<totfact> 0.30689879E+00</totfact>
</mgrwt>
</event>
<event>
 4    1  0.2502834E-007  0.1474925E+04  0.7818608E-02  0.8927548E-01
          2   -1    0    0  501    0  0.00000000000E+00  0.00000000000E+00  0.22297213648E+04  0.22297213648E+04  0.25500000000E-02 0. -1.
         -2   -1    0    0    0  501 -0.00000000000E+00 -0.00000000000E+00 -0.11358026374E+04  0.11358026374E+04  0.25500000000E-02 0.  1.
    8880023    1    1    2    0    0  0.70207648189E+03 -0.11174442598E+04 -0.22674809437E+03  0.14922526478E+04  0.65864270000E+03 0.  0.
    8880022    1    1    2    0    0 -0.70207648189E+03  0.11174442598E+04  0.13206668218E+04  0.18732713545E+04  0.15294330000E+03 0.  0.
<mgrwt>
<rscale>  0 0.14368785E+04</rscale>
<asrwt>0</asrwt>
<pdfrwt beam="1">  1        2 0.34303405E+00 0.14749248E+04</pdfrwt>
<pdfrwt beam="2">  1       -2 0.17473887E+00 0.14749248E+04</pdfrwt>
<totfact> 0.92516968E-01</totfact>
</mgrwt>
</event>
<event>
 4    1  0.2502834E-007  0.1161152E+04  0.7818608E-02  0.9195842E-01
         -2   -1    0    0    0  501 -0.00000000000E+00  0.00000000000E+00  0.13546123006E+04  0.13546123006E+04  0.25500000000E-02 0.  1.
          2   -1    0    0  501    0  0.00000000000E+00 -0.00000000000E+00 -0.17452683661E+04  0.17452683661E+04  0.25500000000E-02 0. -1.
    8880023    1    1    2    0    0 -0.53238525805E+03 -0.79437402900E+03  0.91213736887E+03  0.14765733801E+04  0.65864270000E+03 0.  0.
    8880022    1    1    2    0    0  0.53238525805E+03  0.79437402900E+03 -0.13027934344E+04  0.16233072866E+04  0.15294330000E+03 0.  0.
<mgrwt>
<rscale>  0 0.11096445E+04</rscale>
<asrwt>0</asrwt>
<pdfrwt beam="1">  1        2 0.26850282E+00 0.11611522E+04</pdfrwt>
<pdfrwt beam="2">  1       -2 0.20840189E+00 0.11611522E+04</pdfrwt>
<totfact> 0.10579799E+00</totfact>
</mgrwt>
</event>
<event>
 4    1  0.2502834E-007  0.7671232E+03  0.7818608E-02  0.9787003E-01
         -2   -1    0    0    0  501 -0.00000000000E+00  0.00000000000E+00  0.16729757546E+03  0.16729757548E+03  0.25500000000E-02 0.  1.
          2   -1    0    0  501    0  0.00000000000E+00 -0.00000000000E+00 -0.21987590486E+04  0.21987590486E+04  0.25500000000E-02 0. -1.
    8880023    1    1    2    0    0  0.37963738519E+03 -0.10268035010E+03 -0.10749638435E+04  0.13206154889E+04  0.65864270000E+03 0.  1.
    8880022    1    1    2    0    0 -0.37963738519E+03  0.10268035010E+03 -0.95649762967E+03  0.10454411352E+04  0.15294330000E+03 0. -1.
<mgrwt>
<rscale>  0 0.66064700E+03</rscale>
<asrwt>0</asrwt>
<pdfrwt beam="1">  1        2 0.33827060E+00 0.76712320E+03</pdfrwt>
<pdfrwt beam="2">  1       -2 0.25738090E-01 0.76712320E+03</pdfrwt>
<totfact> 0.72420288E+01</totfact>
</mgrwt>
</event>
<event>
 4    1  0.2502834E-007  0.8768572E+03  0.7818608E-02  0.9564254E-01
          2   -1    0    0  501    0  0.00000000000E+00  0.00000000000E+00  0.11201119900E+04  0.11201119900E+04  0.25500000000E-02 0. -1.
         -2   -1    0    0    0  501 -0.00000000000E+00 -0.00000000000E+00 -0.63245213654E+03  0.63245213655E+03  0.25500000000E-02 0.  1.
    8880023    1    1    2    0    0  0.62550530798E+02  0.57546131825E+03 -0.13679194177E+03  0.88746297912E+03  0.65864270000E+03 0.  0.
    8880022    1    1    2    0    0 -0.62550530798E+02 -0.57546131825E+03  0.62445179523E+03  0.86510114743E+03  0.15294330000E+03 0.  0.
<mgrwt>
<rscale>  0 0.79707966E+03</rscale>
<asrwt>0</asrwt>
<pdfrwt beam="1">  1        2 0.17232492E+00 0.87685717E+03</pdfrwt>
<pdfrwt beam="2">  1       -2 0.97300329E-01 0.87685717E+03</pdfrwt>
<totfact> 0.18750492E+01</totfact>
</mgrwt>
</event>
<event>
 4    1  0.2502834E-007  0.8492325E+03  0.7818608E-02  0.9613011E-01
          2   -1    0    0  501    0  0.00000000000E+00  0.00000000000E+00  0.78670379054E+03  0.78670379054E+03  0.25500000000E-02 0. -1.
         -2   -1    0    0    0  501 -0.00000000000E+00 -0.00000000000E+00 -0.11764068587E+04  0.11764068587E+04  0.25500000000E-02 0.  1.
    8880023    1    1    2    0    0 -0.47158216862E+03 -0.25494276614E+03 -0.87837426539E+03  0.12217762120E+04  0.65864270000E+03 0.  0.
    8880022    1    1    2    0    0  0.47158216862E+03  0.25494276614E+03  0.48867119728E+03  0.74133443723E+03  0.15294330000E+03 0.  0.
<mgrwt>
<rscale>  0 0.76440951E+03</rscale>
<asrwt>0</asrwt>
<pdfrwt beam="1">  1        2 0.12103135E+00 0.84923245E+03</pdfrwt>
<pdfrwt beam="2">  1       -2 0.18098567E+00 0.84923245E+03</pdfrwt>
<totfact> 0.63333860E+00</totfact>
</mgrwt>
</event>
<event>
 4    1  0.2502834E-007  0.1044031E+04  0.7818608E-02  0.9326091E-01
         -2   -1    0    0    0  501 -0.00000000000E+00  0.00000000000E+00  0.37430213176E+03  0.37430213177E+03  0.25500000000E-02 0.  1.
          2   -1    0    0  501    0  0.00000000000E+00 -0.00000000000E+00 -0.27691988620E+04  0.27691988620E+04  0.25500000000E-02 0. -1.
    8880023    1    1    2    0    0 -0.62125220802E+03  0.51984308511E+03 -0.69483659264E+03  0.12541129279E+04  0.65864270000E+03 0.  1.
    8880022    1    1    2    0    0  0.62125220802E+03 -0.51984308511E+03 -0.17000601376E+04  0.18893880659E+04  0.15294330000E+03 0.  0.
<mgrwt>
<rscale>  0 0.98415938E+03</rscale>
<asrwt>0</asrwt>
<pdfrwt beam="1">  1        2 0.42603058E+00 0.10440313E+04</pdfrwt>
<pdfrwt beam="2">  1       -2 0.57584945E-01 0.10440313E+04</pdfrwt>
<totfact> 0.68957701E+00</totfact>
</mgrwt>
</event>
<event>
 4    1  0.2502834E-007  0.7404094E+03  0.7818608E-02  0.9858756E-01
          2   -1    0    0  501    0  0.00000000000E+00  0.00000000000E+00  0.22256218820E+04  0.22256218820E+04  0.25500000000E-02 0. -1.
         -2   -1    0    0    0  501 -0.00000000000E+00 -0.00000000000E+00 -0.40153047734E+03  0.40153047735E+03  0.25500000000E-02 0.  1.
    8880023    1    1    2    0    0 -0.32595794730E+03 -0.90261978959E+02 -0.25334665169E+02  0.74084266871E+03  0.65864270000E+03 0.  1.
    8880022    1    1    2    0    0  0.32595794730E+03  0.90261978959E+02  0.18494260699E+04  0.18863096907E+04  0.15294330000E+03 0.  0.
<mgrwt>
<rscale>  0 0.62302452E+03</rscale>
<asrwt>0</asrwt>
<pdfrwt beam="1">  1        2 0.34240336E+00 0.74040936E+03</pdfrwt>
<pdfrwt beam="2">  1       -2 0.61773920E-01 0.74040936E+03</pdfrwt>
<totfact> 0.12672785E+01</totfact>
</mgrwt>
</event>
<event>
 4    1  0.2502834E-007  0.8967365E+03  0.7818608E-02  0.9531291E-01
         -2   -1    0    0    0  501 -0.00000000000E+00  0.00000000000E+00  0.15298188043E+04  0.15298188043E+04  0.25500000000E-02 0.  1.
          2   -1    0    0  501    0  0.00000000000E+00 -0.00000000000E+00 -0.91870212308E+03  0.91870212308E+03  0.25500000000E-02 0. -1.
    8880023    1    1    2    0    0  0.60851895117E+03  0.55477640843E+01  0.12595776617E+04  0.15461798678E+04  0.65864270000E+03 0.  0.
    8880022    1    1    2    0    0 -0.60851895117E+03 -0.55477640843E+01 -0.64846098044E+03  0.90234105957E+03  0.15294330000E+03 0.  0.
<mgrwt>
<rscale>  0 0.82015653E+03</rscale>
<asrwt>0</asrwt>
<pdfrwt beam="1">  1        2 0.14133879E+00 0.89673647E+03</pdfrwt>
<pdfrwt beam="2">  1       -2 0.23535674E+00 0.89673647E+03</pdfrwt>
<totfact> 0.22731557E+00</totfact>
</mgrwt>
</event>
<event>
 4    1  0.2502834E-007  0.1348425E+04  0.7818608E-02  0.9024831E-01
         -2   -1    0    0    0  501 -0.00000000000E+00  0.00000000000E+00  0.27142632519E+04  0.27142632519E+04  0.25500000000E-02 0.  1.
          2   -1    0    0  501    0  0.00000000000E+00 -0.00000000000E+00 -0.13939200544E+04  0.13939200544E+04  0.25500000000E-02 0. -1.
    8880023    1    1    2    0    0  0.11326354907E+03  0.11711581124E+04  0.22348487363E+04  0.26101339115E+04  0.65864270000E+03 0.  0.
    8880022    1    1    2    0    0 -0.11326354907E+03 -0.11711581124E+04 -0.91450553879E+03  0.14980493948E+04  0.15294330000E+03 0.  0.
<mgrwt>
<rscale>  0 0.13059873E+04</rscale>
<asrwt>0</asrwt>
<pdfrwt beam="1">  1        2 0.21444924E+00 0.13484251E+04</pdfrwt>
<pdfrwt beam="2">  1       -2 0.41757895E+00 0.13484251E+04</pdfrwt>
<totfact> 0.79871330E-02</totfact>
</mgrwt>
</event>
<event>
 4    1  0.2502834E-007  0.8845659E+03  0.7818608E-02  0.9551277E-01
          2   -1    0    0  501    0  0.00000000000E+00  0.00000000000E+00  0.13027760499E+04  0.13027760499E+04  0.25500000000E-02 0. -1.
         -2   -1    0    0    0  501 -0.00000000000E+00 -0.00000000000E+00 -0.90641468091E+03  0.90641468092E+03  0.25500000000E-02 0.  1.
    8880023    1    1    2    0    0 -0.58907343296E+03 -0.40485498310E+02 -0.58014688815E+03  0.10578408212E+04  0.65864270000E+03 0.  0.
    8880022    1    1    2    0    0  0.58907343296E+03  0.40485498310E+02  0.97650825716E+03  0.11513499096E+04  0.15294330000E+03 0.  0.
<mgrwt>
<rscale>  0 0.80606689E+03</rscale>
<asrwt>0</asrwt>
<pdfrwt beam="1">  1        2 0.20042708E+00 0.88456588E+03</pdfrwt>
<pdfrwt beam="2">  1       -2 0.13944841E+00 0.88456588E+03</pdfrwt>
<totfact> 0.60047076E+00</totfact>
</mgrwt>
</event>
<event>
 4    1  0.2502834E-007  0.9801015E+03  0.7818608E-02  0.9408067E-01
         -2   -1    0    0    0  501 -0.00000000000E+00  0.00000000000E+00  0.13007231473E+04  0.13007231473E+04  0.25500000000E-02 0.  1.
          2   -1    0    0  501    0  0.00000000000E+00 -0.00000000000E+00 -0.25713773564E+04  0.25713773564E+04  0.25500000000E-02 0. -1.
    8880023    1    1    2    0    0  0.21639362521E+03 -0.69279323441E+03  0.10496669606E+04  0.14361057068E+04  0.65864270000E+03 0.  0.
    8880022    1    1    2    0    0 -0.21639362521E+03  0.69279323441E+03 -0.23203211697E+04  0.24359947969E+04  0.15294330000E+03 0.  0.
<mgrwt>
<rscale>  0 0.91414778E+03</rscale>
<asrwt>0</asrwt>
<pdfrwt beam="1">  1        2 0.39559651E+00 0.98010146E+03</pdfrwt>
<pdfrwt beam="2">  1       -2 0.20011125E+00 0.98010146E+03</pdfrwt>
<totfact> 0.42490245E-01</totfact>
</mgrwt>
</event>
<event>
 4    1  0.2562411E-007  0.7279114E+03  0.7818608E-02  0.9896673E-01
         -2   -1    0    0    0  501 -0.00000000000E+00  0.00000000000E+00  0.14614832555E+04  0.14614832555E+04  0.25500000000E-02 0.  1.
          2   -1    0    0  501    0  0.00000000000E+00 -0.00000000000E+00 -0.33805104503E+04  0.33805104503E+04  0.25500000000E-02 0. -1.
    8880023    1    1    2    0    0 -0.56724593807E+02  0.30467533508E+03  0.13612026409E+04  0.15436086211E+04  0.65864270000E+03 0.  1.
    8880022    1    1    2    0    0  0.56724593807E+02 -0.30467533508E+03 -0.32802298356E+04  0.32983850847E+04  0.15294330000E+03 0.  0.
<mgrwt>
<rscale>  0 0.60422815E+03</rscale>
<asrwt>0</asrwt>
<pdfrwt beam="1">  1        2 0.52007853E+00 0.72791136E+03</pdfrwt>
<pdfrwt beam="2">  1       -2 0.22484358E+00 0.72791136E+03</pdfrwt>
<totfact> 0.99921406E-02</totfact>
</mgrwt>
</event>
<event>
 4    1  0.2502834E-007  0.1357515E+04  0.7818608E-02  0.9017418E-01
          2   -1    0    0  501    0  0.00000000000E+00  0.00000000000E+00  0.21166449237E+04  0.21166449237E+04  0.25500000000E-02 0. -1.
         -2   -1    0    0    0  501 -0.00000000000E+00 -0.00000000000E+00 -0.12946901802E+04  0.12946901802E+04  0.25500000000E-02 0.  1.
    8880023    1    1    2    0    0  0.60357403546E+03 -0.10221227812E+04 -0.65752071658E+03  0.15083700790E+04  0.65864270000E+03 0.  0.
    8880022    1    1    2    0    0 -0.60357403546E+03  0.10221227812E+04  0.14794754601E+04  0.19029650249E+04  0.15294330000E+03 0.  0.
<mgrwt>
<rscale>  0 0.13154295E+04</rscale>
<asrwt>0</asrwt>
<pdfrwt beam="1">  1        2 0.32563767E+00 0.13575149E+04</pdfrwt>
<pdfrwt beam="2">  1       -2 0.19918311E+00 0.13575149E+04</pdfrwt>
<totfact> 0.73866292E-01</totfact>
</mgrwt>
</event>
<event>
 4    1  0.2502834E-007  0.1069260E+04  0.7818608E-02  0.9296079E-01
          2   -1    0    0  501    0  0.00000000000E+00  0.00000000000E+00  0.60943153665E+03  0.60943153666E+03  0.25500000000E-02 0. -1.
         -2   -1    0    0    0  501 -0.00000000000E+00 -0.00000000000E+00 -0.16823204824E+04  0.16823204824E+04  0.25500000000E-02 0.  1.
    8880023    1    1    2    0    0  0.35589313092E+03 -0.76344375337E+03 -0.94335027944E+03  0.14259124241E+04  0.65864270000E+03 0.  0.
    8880022    1    1    2    0    0 -0.35589313092E+03  0.76344375337E+03 -0.12953866635E+03  0.86583959501E+03  0.15294330000E+03 0.  0.
<mgrwt>
<rscale>  0 0.10114464E+04</rscale>
<asrwt>0</asrwt>
<pdfrwt beam="1">  1        2 0.93758699E-01 0.10692598E+04</pdfrwt>
<pdfrwt beam="2">  1       -2 0.25881853E+00 0.10692598E+04</pdfrwt>
<totfact> 0.27407954E+00</totfact>
</mgrwt>
</event>
<event>
 4    1  0.2502834E-007  0.6685831E+03  0.7818608E-02  0.1016700E+00
          2   -1    0    0  501    0  0.00000000000E+00  0.00000000000E+00  0.24689923760E+04  0.24689923760E+04  0.25500000000E-02 0. -1.
         -2   -1    0    0    0  501 -0.00000000000E+00 -0.00000000000E+00 -0.34867344247E+03  0.34867344248E+03  0.25500000000E-02 0.  1.
    8880023    1    1    2    0    0 -0.85309823548E+01  0.11454427253E+03 -0.19936753708E+02  0.66888029455E+03  0.65864270000E+03 0.  1.
    8880022    1    1    2    0    0  0.85309823548E+01 -0.11454427253E+03  0.21402556872E+04  0.21487855239E+04  0.15294330000E+03 0.  0.
<mgrwt>
<rscale>  0 0.48896657E+03</rscale>
<asrwt>0</asrwt>
<pdfrwt beam="1">  1        2 0.37984498E+00 0.66858311E+03</pdfrwt>
<pdfrwt beam="2">  1       -2 0.53642068E-01 0.66858311E+03</pdfrwt>
<totfact> 0.12613913E+01</totfact>
</mgrwt>
</event>
<event>
 4    1  0.2502834E-007  0.1234796E+04  0.7818608E-02  0.9124019E-01
          2   -1    0    0  501    0  0.00000000000E+00  0.00000000000E+00  0.19358517306E+04  0.19358517306E+04  0.25500000000E-02 0. -1.
         -2   -1    0    0    0  501 -0.00000000000E+00 -0.00000000000E+00 -0.10858486969E+04  0.10858486969E+04  0.25500000000E-02 0.  1.
    8880023    1    1    2    0    0 -0.10319784792E+04  0.16102975770E+03 -0.47902994935E+03  0.13244584037E+04  0.65864270000E+03 0.  0.
    8880022    1    1    2    0    0  0.10319784792E+04 -0.16102975770E+03  0.13290329830E+04  0.16972420238E+04  0.15294330000E+03 0.  0.
<mgrwt>
<rscale>  0 0.11873307E+04</rscale>
<asrwt>0</asrwt>
<pdfrwt beam="1">  1        2 0.29782334E+00 0.12347957E+04</pdfrwt>
<pdfrwt beam="2">  1       -2 0.16705365E+00 0.12347957E+04</pdfrwt>
<totfact> 0.15709801E+00</totfact>
</mgrwt>
</event>
<event>
 4    1  0.2502834E-007  0.7695486E+03  0.7818608E-02  0.9780986E-01
          2   -1    0    0  501    0  0.00000000000E+00  0.00000000000E+00  0.16270169892E+04  0.16270169892E+04  0.25500000000E-02 0. -1.
         -2   -1    0    0    0  501 -0.00000000000E+00 -0.00000000000E+00 -0.47246264708E+03  0.47246264709E+03  0.25500000000E-02 0.  1.
    8880023    1    1    2    0    0  0.79394579089E+02  0.38998896966E+03 -0.98543935466E+02  0.77583246202E+03  0.65864270000E+03 0.  0.
    8880022    1    1    2    0    0 -0.79394579089E+02 -0.38998896966E+03  0.12530982775E+04  0.13236471742E+04  0.15294330000E+03 0.  0.
<mgrwt>
<rscale>  0 0.66392997E+03</rscale>
<asrwt>0</asrwt>
<pdfrwt beam="1">  1        2 0.25031030E+00 0.76954864E+03</pdfrwt>
<pdfrwt beam="2">  1       -2 0.72686562E-01 0.76954864E+03</pdfrwt>
<totfact> 0.18873097E+01</totfact>
</mgrwt>
</event>
<event>
 4    1  0.2502834E-007  0.8205918E+03  0.7818608E-02  0.9667923E-01
          2   -1    0    0  501    0  0.00000000000E+00  0.00000000000E+00  0.16618909750E+04  0.16618909750E+04  0.25500000000E-02 0. -1.
         -2   -1    0    0    0  501 -0.00000000000E+00 -0.00000000000E+00 -0.17002307467E+04  0.17002307467E+04  0.25500000000E-02 0.  1.
    8880023    1    1    2    0    0 -0.36770777784E+02 -0.48806615105E+03 -0.15565733375E+04  0.17596282049E+04  0.65864270000E+03 0.  1.
    8880022    1    1    2    0    0  0.36770777784E+02  0.48806615105E+03  0.15182335659E+04  0.16024935169E+04  0.15294330000E+03 0.  0.
<mgrwt>
<rscale>  0 0.72959188E+03</rscale>
<asrwt>0</asrwt>
<pdfrwt beam="1">  1        2 0.25567553E+00 0.82059178E+03</pdfrwt>
<pdfrwt beam="2">  1       -2 0.26157396E+00 0.82059178E+03</pdfrwt>
<totfact> 0.58068799E-01</totfact>
</mgrwt>
</event>
<event>
 4    1  0.2502834E-007  0.1509554E+04  0.7818608E-02  0.8902919E-01
          2   -1    0    0  501    0  0.00000000000E+00  0.00000000000E+00  0.33334767199E+04  0.33334767199E+04  0.25500000000E-02 0. -1.
         -2   -1    0    0    0  501 -0.00000000000E+00 -0.00000000000E+00 -0.65816449890E+03  0.65816449891E+03  0.25500000000E-02 0.  1.
    8880023    1    1    2    0    0 -0.10289887466E+04  0.88663716510E+03  0.92338732846E+03  0.17695755615E+04  0.65864270000E+03 0.  0.
    8880022    1    1    2    0    0  0.10289887466E+04 -0.88663716510E+03  0.17519248926E+04  0.22220656573E+04  0.15294330000E+03 0.  0.
<mgrwt>
<rscale>  0 0.14725442E+04</rscale>
<asrwt>0</asrwt>
<pdfrwt beam="1">  1        2 0.51284257E+00 0.15095541E+04</pdfrwt>
<pdfrwt beam="2">  1       -2 0.10125608E+00 0.15095541E+04</pdfrwt>
<totfact> 0.81302495E-01</totfact>
</mgrwt>
</event>
<event>
 4    1  0.2502834E-007  0.6959424E+03  0.7818608E-02  0.1001447E+00
          2   -1    0    0  501    0  0.00000000000E+00  0.00000000000E+00  0.93225891335E+03  0.93225891335E+03  0.25500000000E-02 0. -1.
         -2   -1    0    0    0  501 -0.00000000000E+00 -0.00000000000E+00 -0.42132270819E+03  0.42132270820E+03  0.25500000000E-02 0.  1.
    8880023    1    1    2    0    0  0.18759511580E+03 -0.12382950098E+03 -0.82514899335E+02  0.70081708574E+03  0.65864270000E+03 0.  1.
    8880022    1    1    2    0    0 -0.18759511580E+03  0.12382950098E+03  0.59345110449E+03  0.65276453582E+03  0.15294330000E+03 0.  0.
<mgrwt>
<rscale>  0 0.55020340E+03</rscale>
<asrwt>0</asrwt>
<pdfrwt beam="1">  1        2 0.14342445E+00 0.69594244E+03</pdfrwt>
<pdfrwt beam="2">  1       -2 0.64818878E-01 0.69594244E+03</pdfrwt>
<totfact> 0.62428144E+01</totfact>
</mgrwt>
</event>
<event>
 4    1  0.2502834E-007  0.1159444E+04  0.7818608E-02  0.9197590E-01
         -2   -1    0    0    0  501 -0.00000000000E+00  0.00000000000E+00  0.89928419762E+03  0.89928419762E+03  0.25500000000E-02 0.  1.
          2   -1    0    0  501    0  0.00000000000E+00 -0.00000000000E+00 -0.26264861314E+04  0.26264861314E+04  0.25500000000E-02 0. -1.
    8880023    1    1    2    0    0 -0.43452520993E+03 -0.84952275032E+03  0.36964979580E+03  0.12169438110E+04  0.65864270000E+03 0.  0.
    8880022    1    1    2    0    0  0.43452520993E+03  0.84952275032E+03 -0.20968517296E+04  0.23088265180E+04  0.15294330000E+03 0.  0.
<mgrwt>
<rscale>  0 0.11078337E+04</rscale>
<asrwt>0</asrwt>
<pdfrwt beam="1">  1        2 0.40407479E+00 0.11594444E+04</pdfrwt>
<pdfrwt beam="2">  1       -2 0.13835142E+00 0.11594444E+04</pdfrwt>
<totfact> 0.10717434E+00</totfact>
</mgrwt>
</event>
<event>
 4    1  0.2502834E-007  0.1153179E+04  0.7818608E-02  0.9204036E-01
         -2   -1    0    0    0  501 -0.00000000000E+00  0.00000000000E+00  0.56666876506E+03  0.56666876507E+03  0.25500000000E-02 0.  1.
          2   -1    0    0  501    0  0.00000000000E+00 -0.00000000000E+00 -0.32744805502E+04  0.32744805502E+04  0.25500000000E-02 0. -1.
    8880023    1    1    2    0    0  0.93624568240E+03 -0.13948493969E+03 -0.21869438983E+03  0.11737331335E+04  0.65864270000E+03 0.  0.
    8880022    1    1    2    0    0 -0.93624568240E+03  0.13948493969E+03 -0.24891173953E+04  0.26674161818E+04  0.15294330000E+03 0.  0.
<mgrwt>
<rscale>  0 0.11011865E+04</rscale>
<asrwt>0</asrwt>
<pdfrwt beam="1">  1        2 0.50376623E+00 0.11531792E+04</pdfrwt>
<pdfrwt beam="2">  1       -2 0.87179812E-01 0.11531792E+04</pdfrwt>
<totfact> 0.13225066E+00</totfact>
</mgrwt>
</event>
<event>
 4    1  0.2502834E-007  0.9094758E+03  0.7818608E-02  0.9510988E-01
          2   -1    0    0  501    0  0.00000000000E+00  0.00000000000E+00  0.19882711147E+04  0.19882711147E+04  0.25500000000E-02 0. -1.
         -2   -1    0    0    0  501 -0.00000000000E+00 -0.00000000000E+00 -0.34972990781E+03  0.34972990782E+03  0.25500000000E-02 0.  1.
    8880023    1    1    2    0    0 -0.33756417205E+03  0.52857012988E+03  0.52297146112E+03  0.10491164415E+04  0.65864270000E+03 0.  0.
    8880022    1    1    2    0    0  0.33756417205E+03 -0.52857012988E+03  0.11155697458E+04  0.12888845810E+04  0.15294330000E+03 0.  0.
<mgrwt>
<rscale>  0 0.83478547E+03</rscale>
<asrwt>0</asrwt>
<pdfrwt beam="1">  1        2 0.30588787E+00 0.90947576E+03</pdfrwt>
<pdfrwt beam="2">  1       -2 0.53804600E-01 0.90947576E+03</pdfrwt>
<totfact> 0.22366679E+01</totfact>
</mgrwt>
</event>
<event>
 4    1  0.2502834E-007  0.1485993E+04  0.7818608E-02  0.8919590E-01
          2   -1    0    0  501    0  0.00000000000E+00  0.00000000000E+00  0.33371958722E+04  0.33371958722E+04  0.25500000000E-02 0. -1.
         -2   -1    0    0    0  501 -0.00000000000E+00 -0.00000000000E+00 -0.91835635233E+03  0.91835635233E+03  0.25500000000E-02 0.  1.
    8880023    1    1    2    0    0 -0.12469168750E+04  0.46857692956E+03 -0.45177857356E+01  0.14860002182E+04  0.65864270000E+03 0.  0.
    8880022    1    1    2    0    0  0.12469168750E+04 -0.46857692956E+03  0.24233573056E+04  0.27695520063E+04  0.15294330000E+03 0.  0.
<mgrwt>
<rscale>  0 0.14482850E+04</rscale>
<asrwt>0</asrwt>
<pdfrwt beam="1">  1        2 0.51341475E+00 0.14859934E+04</pdfrwt>
<pdfrwt beam="2">  1       -2 0.14128559E+00 0.14859934E+04</pdfrwt>
<totfact> 0.35187912E-01</totfact>
</mgrwt>
</event>
<event>
 4    1  0.2502834E-007  0.1074545E+04  0.7818608E-02  0.9289940E-01
          2   -1    0    0  501    0  0.00000000000E+00  0.00000000000E+00  0.11664888155E+04  0.11664888155E+04  0.25500000000E-02 0. -1.
         -2   -1    0    0    0  501 -0.00000000000E+00 -0.00000000000E+00 -0.92950173101E+03  0.92950173102E+03  0.25500000000E-02 0.  1.
    8880023    1    1    2    0    0 -0.30705747432E+03  0.79155091766E+03 -0.25291116256E+03  0.11039073377E+04  0.65864270000E+03 0.  0.
    8880022    1    1    2    0    0  0.30705747432E+03 -0.79155091766E+03  0.48989824707E+03  0.99208320885E+03  0.15294330000E+03 0.  0.
<mgrwt>
<rscale>  0 0.10171425E+04</rscale>
<asrwt>0</asrwt>
<pdfrwt beam="1">  1        2 0.17945982E+00 0.10745452E+04</pdfrwt>
<pdfrwt beam="2">  1       -2 0.14300027E+00 0.10745452E+04</pdfrwt>
<totfact> 0.66377419E+00</totfact>
</mgrwt>
</event>
<event>
 4    1  0.2502834E-007  0.9014218E+03  0.7818608E-02  0.9523753E-01
         -2   -1    0    0    0  501 -0.00000000000E+00  0.00000000000E+00  0.35329009926E+03  0.35329009927E+03  0.25500000000E-02 0.  1.
          2   -1    0    0  501    0  0.00000000000E+00 -0.00000000000E+00 -0.23731254202E+04  0.23731254202E+04  0.25500000000E-02 0. -1.
    8880023    1    1    2    0    0 -0.47497461818E+03 -0.39134395083E+03 -0.39869329247E+03  0.98565588493E+03  0.65864270000E+03 0.  0.
    8880022    1    1    2    0    0  0.47497461818E+03  0.39134395083E+03 -0.16211420285E+04  0.17407596346E+04  0.15294330000E+03 0.  0.
<mgrwt>
<rscale>  0 0.82555030E+03</rscale>
<asrwt>0</asrwt>
<pdfrwt beam="1">  1        2 0.36509621E+00 0.90142176E+03</pdfrwt>
<pdfrwt beam="2">  1       -2 0.54352324E-01 0.90142176E+03</pdfrwt>
<totfact> 0.13412634E+01</totfact>
</mgrwt>
</event>
<event>
 4    1  0.2502834E-007  0.8521696E+03  0.7818608E-02  0.9607647E-01
         -2   -1    0    0    0  501 -0.00000000000E+00  0.00000000000E+00  0.23233460962E+04  0.23233460962E+04  0.25500000000E-02 0.  1.
          2   -1    0    0  501    0  0.00000000000E+00 -0.00000000000E+00 -0.64713873684E+03  0.64713873684E+03  0.25500000000E-02 0. -1.
    8880023    1    1    2    0    0 -0.33952109273E+03 -0.42084238630E+03  0.21002218178E+04  0.22665226178E+04  0.65864270000E+03 0.  1.
    8880022    1    1    2    0    0  0.33952109273E+03  0.42084238630E+03 -0.42401445848E+03  0.70396221527E+03  0.15294330000E+03 0.  0.
<mgrwt>
<rscale>  0 0.76792124E+03</rscale>
<asrwt>0</asrwt>
<pdfrwt beam="1">  1        2 0.99559804E-01 0.85216964E+03</pdfrwt>
<pdfrwt beam="2">  1       -2 0.35743787E+00 0.85216964E+03</pdfrwt>
<totfact> 0.65489385E-01</totfact>
</mgrwt>
</event>
<event>
 4    1  0.2502834E-007  0.1495279E+04  0.7818608E-02  0.8912977E-01
          2   -1    0    0  501    0  0.00000000000E+00  0.00000000000E+00  0.21975162249E+04  0.21975162249E+04  0.25500000000E-02 0. -1.
         -2   -1    0    0    0  501 -0.00000000000E+00 -0.00000000000E+00 -0.10756078202E+04  0.10756078202E+04  0.25500000000E-02 0.  1.
    8880023    1    1    2    0    0 -0.34580884058E+03  0.12970988027E+04 -0.33077204673E+02  0.14956447993E+04  0.65864270000E+03 0.  0.
    8880022    1    1    2    0    0  0.34580884058E+03 -0.12970988027E+04  0.11549856094E+04  0.17774792457E+04  0.15294330000E+03 0.  0.
<mgrwt>
<rscale>  0 0.14578493E+04</rscale>
<asrwt>0</asrwt>
<pdfrwt beam="1">  1        2 0.33807942E+00 0.14952790E+04</pdfrwt>
<pdfrwt beam="2">  1       -2 0.16547813E+00 0.14952790E+04</pdfrwt>
<totfact> 0.11217770E+00</totfact>
</mgrwt>
</event>
<event>
 4    1  0.2502834E-007  0.1151026E+04  0.7818608E-02  0.9206264E-01
         -2   -1    0    0    0  501 -0.00000000000E+00  0.00000000000E+00  0.22910716342E+04  0.22910716342E+04  0.25500000000E-02 0.  1.
          2   -1    0    0  501    0  0.00000000000E+00 -0.00000000000E+00 -0.68356922972E+03  0.68356922973E+03  0.25500000000E-02 0. -1.
    8880023    1    1    2    0    0 -0.82852983721E+03 -0.45231489986E+03  0.56339843953E+02  0.11524039414E+04  0.65864270000E+03 0.  0.
    8880022    1    1    2    0    0  0.82852983721E+03  0.45231489986E+03  0.15511625605E+04  0.18222369226E+04  0.15294330000E+03 0.  0.
<mgrwt>
<rscale>  0 0.10989005E+04</rscale>
<asrwt>0</asrwt>
<pdfrwt beam="1">  1        2 0.10516450E+00 0.11510259E+04</pdfrwt>
<pdfrwt beam="2">  1       -2 0.35247256E+00 0.11510259E+04</pdfrwt>
<totfact> 0.62935472E-01</totfact>
</mgrwt>
</event>
<event>
 4    1  0.4655369E-007  0.1501905E+04  0.7818608E-02  0.8908292E-01
         -2   -1    0    0    0  501 -0.00000000000E+00  0.00000000000E+00  0.22091446509E+04  0.22091446509E+04  0.25500000000E-02 0.  1.
          2   -1    0    0  501    0  0.00000000000E+00 -0.00000000000E+00 -0.37457307642E+04  0.37457307642E+04  0.25500000000E-02 0. -1.
    8880023    1    1    2    0    0 -0.44232860536E+03 -0.12752467450E+04  0.18047602870E+04  0.23479520343E+04  0.65864270000E+03 0.  1.
    8880022    1    1    2    0    0  0.44232860536E+03  0.12752467450E+04 -0.33413464002E+04  0.36069233808E+04  0.15294330000E+03 0.  0.
<mgrwt>
<rscale>  0 0.14646716E+04</rscale>
<asrwt>0</asrwt>
<pdfrwt beam="1">  1        2 0.57626627E+00 0.15019051E+04</pdfrwt>
<pdfrwt beam="2">  1       -2 0.33986841E+00 0.15019051E+04</pdfrwt>
<totfact> 0.92438033E-03</totfact>
</mgrwt>
</event>
<event>
 4    1  0.2502834E-007  0.7939472E+03  0.7818608E-02  0.9724039E-01
         -2   -1    0    0    0  501 -0.00000000000E+00  0.00000000000E+00  0.74264460335E+03  0.74264460336E+03  0.25500000000E-02 0.  1.
          2   -1    0    0  501    0  0.00000000000E+00 -0.00000000000E+00 -0.12349920086E+04  0.12349920086E+04  0.25500000000E-02 0. -1.
    8880023    1    1    2    0    0 -0.34804833841E+03  0.27459855457E+03  0.45892837100E+03  0.91704278418E+03  0.65864270000E+03 0.  1.
    8880022    1    1    2    0    0  0.34804833841E+03 -0.27459855457E+03 -0.95127577620E+03  0.10605938277E+04  0.15294330000E+03 0.  0.
<mgrwt>
<rscale>  0 0.69603359E+03</rscale>
<asrwt>0</asrwt>
<pdfrwt beam="1">  1        2 0.18999877E+00 0.79394724E+03</pdfrwt>
<pdfrwt beam="2">  1       -2 0.11425302E+00 0.79394724E+03</pdfrwt>
<totfact> 0.10975731E+01</totfact>
</mgrwt>
</event>
<event>
 4    1  0.2502834E-007  0.6906936E+03  0.7818608E-02  0.1003825E+00
          2   -1    0    0  501    0  0.00000000000E+00  0.00000000000E+00  0.14673852365E+04  0.14673852365E+04  0.25500000000E-02 0. -1.
         -2   -1    0    0    0  501 -0.00000000000E+00 -0.00000000000E+00 -0.15459385206E+03  0.15459385209E+03  0.25500000000E-02 0.  1.
    8880023    1    1    2    0    0 -0.20781174854E+03  0.78575859368E+01  0.88937461905E+03  0.11260749903E+04  0.65864270000E+03 0.  0.
    8880022    1    1    2    0    0  0.20781174854E+03 -0.78575859368E+01  0.42341676543E+03  0.49590409834E+03  0.15294330000E+03 0. -1.
<mgrwt>
<rscale>  0 0.54004536E+03</rscale>
<asrwt>0</asrwt>
<pdfrwt beam="1">  1        2 0.22575157E+00 0.69069362E+03</pdfrwt>
<pdfrwt beam="2">  1       -2 0.23783670E-01 0.69069362E+03</pdfrwt>
<totfact> 0.21162655E+02</totfact>
</mgrwt>
</event>
<event>
 4    1  0.2502834E-007  0.1446287E+04  0.7818608E-02  0.8948527E-01
          2   -1    0    0  501    0  0.00000000000E+00  0.00000000000E+00  0.18466688393E+04  0.18466688393E+04  0.25500000000E-02 0. -1.
         -2   -1    0    0    0  501 -0.00000000000E+00 -0.00000000000E+00 -0.11835900345E+04  0.11835900345E+04  0.25500000000E-02 0.  1.
    8880023    1    1    2    0    0 -0.12542254524E+04 -0.29129610125E+03  0.91213997896E+03  0.17098960353E+04  0.65864270000E+03 0.  0.
    8880022    1    1    2    0    0  0.12542254524E+04  0.29129610125E+03 -0.24906117416E+03  0.13203628386E+04  0.15294330000E+03 0.  0.
<mgrwt>
<rscale>  0 0.14073344E+04</rscale>
<asrwt>0</asrwt>
<pdfrwt beam="1">  1        2 0.28410290E+00 0.14462867E+04</pdfrwt>
<pdfrwt beam="2">  1       -2 0.18209078E+00 0.14462867E+04</pdfrwt>
<totfact> 0.13491248E+00</totfact>
</mgrwt>
</event>
<event>
 4    1  0.2502834E-007  0.7611676E+03  0.7818608E-02  0.9802094E-01
          2   -1    0    0  501    0  0.00000000000E+00  0.00000000000E+00  0.21861779392E+04  0.21861779392E+04  0.25500000000E-02 0. -1.
         -2   -1    0    0    0  501 -0.00000000000E+00 -0.00000000000E+00 -0.26437866437E+03  0.26437866438E+03  0.25500000000E-02 0.  1.
    8880023    1    1    2    0    0  0.25244317511E+03  0.28607401859E+03  0.37206276575E+03  0.84723480139E+03  0.65864270000E+03 0.  0.
    8880022    1    1    2    0    0 -0.25244317511E+03 -0.28607401859E+03  0.15497365091E+04  0.16033218022E+04  0.15294330000E+03 0.  0.
<mgrwt>
<rscale>  0 0.65250286E+03</rscale>
<asrwt>0</asrwt>
<pdfrwt beam="1">  1        2 0.33633506E+00 0.76116759E+03</pdfrwt>
<pdfrwt beam="2">  1       -2 0.40673642E-01 0.76116759E+03</pdfrwt>
<totfact> 0.31131506E+01</totfact>
</mgrwt>
</event>
<event>
 4    1  0.2502834E-007  0.1076092E+04  0.7818608E-02  0.9288154E-01
         -2   -1    0    0    0  501 -0.00000000000E+00  0.00000000000E+00  0.26970606516E+03  0.26970606517E+03  0.25500000000E-02 0.  1.
          2   -1    0    0  501    0  0.00000000000E+00 -0.00000000000E+00 -0.35891882954E+04  0.35891882954E+04  0.25500000000E-02 0. -1.
    8880023    1    1    2    0    0 -0.32960885888E+03  0.78455167317E+03 -0.15186206149E+04  0.18612313413E+04  0.65864270000E+03 0. -1.
    8880022    1    1    2    0    0  0.32960885888E+03 -0.78455167317E+03 -0.18008616153E+04  0.19976630192E+04  0.15294330000E+03 0.  0.
<mgrwt>
<rscale>  0 0.10188081E+04</rscale>
<asrwt>0</asrwt>
<pdfrwt beam="1">  1        2 0.55218278E+00 0.10760918E+04</pdfrwt>
<pdfrwt beam="2">  1       -2 0.41493243E-01 0.10760918E+04</pdfrwt>
<totfact> 0.39764688E+00</totfact>
</mgrwt>
</event>
<event>
 4    1  0.2502834E-007  0.8290090E+03  0.7818608E-02  0.9651264E-01
          2   -1    0    0  501    0  0.00000000000E+00  0.00000000000E+00  0.10764908729E+04  0.10764908729E+04  0.25500000000E-02 0. -1.
         -2   -1    0    0    0  501 -0.00000000000E+00 -0.00000000000E+00 -0.16355518063E+04  0.16355518063E+04  0.25500000000E-02 0.  1.
    8880023    1    1    2    0    0 -0.20102570476E+03 -0.46155644128E+03 -0.14540946294E+04  0.16738121400E+04  0.65864270000E+03 0.  0.
    8880022    1    1    2    0    0  0.20102570476E+03  0.46155644128E+03  0.89503369600E+03  0.10382305392E+04  0.15294330000E+03 0.  0.
<mgrwt>
<rscale>  0 0.73994171E+03</rscale>
<asrwt>0</asrwt>
<pdfrwt beam="1">  1        2 0.16561398E+00 0.82900898E+03</pdfrwt>
<pdfrwt beam="2">  1       -2 0.25162336E+00 0.82900898E+03</pdfrwt>
<totfact> 0.14458178E+00</totfact>
</mgrwt>
</event>
<event>
 4    1  0.2502834E-007  0.9963600E+03  0.7818608E-02  0.9386335E-01
          2   -1    0    0  501    0  0.00000000000E+00  0.00000000000E+00  0.13608480610E+04  0.13608480610E+04  0.25500000000E-02 0. -1.
         -2   -1    0    0    0  501 -0.00000000000E+00 -0.00000000000E+00 -0.12227001320E+04  0.12227001320E+04  0.25500000000E-02 0.  1.
    8880023    1    1    2    0    0 -0.22034675155E+03  0.71440214320E+03 -0.86754029703E+03  0.13211205420E+04  0.65864270000E+03 0.  0.
    8880022    1    1    2    0    0  0.22034675155E+03 -0.71440214320E+03  0.10056882260E+04  0.12624276510E+04  0.15294330000E+03 0.  0.
<mgrwt>
<rscale>  0 0.93208807E+03</rscale>
<asrwt>0</asrwt>
<pdfrwt beam="1">  1        2 0.20936124E+00 0.99636004E+03</pdfrwt>
<pdfrwt beam="2">  1       -2 0.18810771E+00 0.99636004E+03</pdfrwt>
<totfact> 0.24148350E+00</totfact>
</mgrwt>
</event>
<event>
 4    1  0.2502834E-007  0.1016887E+04  0.7818608E-02  0.9359791E-01
          2   -1    0    0  501    0  0.00000000000E+00  0.00000000000E+00  0.23609953183E+04  0.23609953183E+04  0.25500000000E-02 0. -1.
         -2   -1    0    0    0  501 -0.00000000000E+00 -0.00000000000E+00 -0.72663151576E+03  0.72663151576E+03  0.25500000000E-02 0.  1.
    8880023    1    1    2    0    0 -0.50690475310E+03  0.58591476891E+03 -0.24767956479E+03  0.10466154586E+04  0.65864270000E+03 0.  0.
    8880022    1    1    2    0    0  0.50690475310E+03 -0.58591476891E+03  0.18820433673E+04  0.20410113754E+04  0.15294330000E+03 0.  0.
<mgrwt>
<rscale>  0 0.95459953E+03</rscale>
<asrwt>0</asrwt>
<pdfrwt beam="1">  1        2 0.36323005E+00 0.10168868E+04</pdfrwt>
<pdfrwt beam="2">  1       -2 0.11178946E+00 0.10168868E+04</pdfrwt>
<totfact> 0.26515775E+00</totfact>
</mgrwt>
</event>
<event>
 4    1  0.2502834E-007  0.7837761E+03  0.7818608E-02  0.9747040E-01
         -2   -1    0    0    0  501 -0.00000000000E+00  0.00000000000E+00  0.21706741975E+03  0.21706741977E+03  0.25500000000E-02 0.  1.
          2   -1    0    0  501    0  0.00000000000E+00 -0.00000000000E+00 -0.19030077057E+04  0.19030077057E+04  0.25500000000E-02 0. -1.
    8880023    1    1    2    0    0  0.33234878571E+03 -0.26464896391E+03 -0.13354947044E+04  0.15484996291E+04  0.65864270000E+03 0.  0.
    8880022    1    1    2    0    0 -0.33234878571E+03  0.26464896391E+03 -0.35044558155E+03  0.57157549642E+03  0.15294330000E+03 0.  0.
<mgrwt>
<rscale>  0 0.68283781E+03</rscale>
<asrwt>0</asrwt>
<pdfrwt beam="1">  1        2 0.29277041E+00 0.78377611E+03</pdfrwt>
<pdfrwt beam="2">  1       -2 0.33394989E-01 0.78377611E+03</pdfrwt>
<totfact> 0.64825077E+01</totfact>
</mgrwt>
</event>
<event>
 4    1  0.2502834E-007  0.8116283E+03  0.7818608E-02  0.9686195E-01
          2   -1    0    0  501    0  0.00000000000E+00  0.00000000000E+00  0.12918153158E+04  0.12918153158E+04  0.25500000000E-02 0. -1.
         -2   -1    0    0    0  501 -0.00000000000E+00 -0.00000000000E+00 -0.37771373359E+03  0.37771373360E+03  0.25500000000E-02 0.  1.
    8880023    1    1    2    0    0  0.41863605371E+03 -0.22287712845E+03  0.83591100577E+03  0.11651127738E+04  0.65864270000E+03 0. -1.
    8880022    1    1    2    0    0 -0.41863605371E+03  0.22287712845E+03  0.78190576464E+02  0.50441627563E+03  0.15294330000E+03 0.  0.
<mgrwt>
<rscale>  0 0.71844712E+03</rscale>
<asrwt>0</asrwt>
<pdfrwt beam="1">  1        2 0.19874082E+00 0.81162834E+03</pdfrwt>
<pdfrwt beam="2">  1       -2 0.58109804E-01 0.81162834E+03</pdfrwt>
<totfact> 0.46921489E+01</totfact>
</mgrwt>
</event>
<event>
 4    1  0.2502834E-007  0.7594040E+03  0.7818608E-02  0.9806653E-01
          2   -1    0    0  501    0  0.00000000000E+00  0.00000000000E+00  0.10779671778E+04  0.10779671778E+04  0.25500000000E-02 0. -1.
         -2   -1    0    0    0  501 -0.00000000000E+00 -0.00000000000E+00 -0.45660419442E+03  0.45660419443E+03  0.25500000000E-02 0.  1.
    8880023    1    1    2    0    0  0.33216060899E+03 -0.18042588192E+03 -0.36835530374E+02  0.76029680493E+03  0.65864270000E+03 0.  1.
    8880022    1    1    2    0    0 -0.33216060899E+03  0.18042588192E+03  0.65819851371E+03  0.77427456725E+03  0.15294330000E+03 0.  0.
<mgrwt>
<rscale>  0 0.65006724E+03</rscale>
<asrwt>0</asrwt>
<pdfrwt beam="1">  1        2 0.16584110E+00 0.75940396E+03</pdfrwt>
<pdfrwt beam="2">  1       -2 0.70246799E-01 0.75940396E+03</pdfrwt>
<totfact> 0.42125840E+01</totfact>
</mgrwt>
</event>
<event>
 4    1  0.2502834E-007  0.1155142E+04  0.7818608E-02  0.9202011E-01
          2   -1    0    0  501    0  0.00000000000E+00  0.00000000000E+00  0.24394173009E+04  0.24394173009E+04  0.25500000000E-02 0. -1.
         -2   -1    0    0    0  501 -0.00000000000E+00 -0.00000000000E+00 -0.90139771506E+03  0.90139771506E+03  0.25500000000E-02 0.  1.
    8880023    1    1    2    0    0 -0.73142313276E+03 -0.60461713526E+03 -0.36280446992E+03  0.12107761845E+04  0.65864270000E+03 0.  0.
    8880022    1    1    2    0    0  0.73142313276E+03  0.60461713526E+03  0.19008240557E+04  0.21300388314E+04  0.15294330000E+03 0.  0.
<mgrwt>
<rscale>  0 0.11032691E+04</rscale>
<asrwt>0</asrwt>
<pdfrwt beam="1">  1        2 0.37529496E+00 0.11551415E+04</pdfrwt>
<pdfrwt beam="2">  1       -2 0.13867658E+00 0.11551415E+04</pdfrwt>
<totfact> 0.13663650E+00</totfact>
</mgrwt>
</event>
<event>
 4    1  0.2502834E-007  0.8042640E+03  0.7818608E-02  0.9701651E-01
         -2   -1    0    0    0  501 -0.00000000000E+00  0.00000000000E+00  0.10642702441E+04  0.10642702441E+04  0.25500000000E-02 0.  1.
          2   -1    0    0  501    0  0.00000000000E+00 -0.00000000000E+00 -0.31924382890E+04  0.31924382890E+04  0.25500000000E-02 0. -1.
    8880023    1    1    2    0    0  0.41058729509E+03 -0.21082794638E+03  0.89003840727E+03  0.11995869800E+04  0.65864270000E+03 0.  1.
    8880022    1    1    2    0    0 -0.41058729509E+03  0.21082794638E+03 -0.30182064521E+04  0.30571215531E+04  0.15294330000E+03 0.  0.
<mgrwt>
<rscale>  0 0.70918567E+03</rscale>
<asrwt>0</asrwt>
<pdfrwt beam="1">  1        2 0.49114435E+00 0.80426398E+03</pdfrwt>
<pdfrwt beam="2">  1       -2 0.16373388E+00 0.80426398E+03</pdfrwt>
<totfact> 0.33016417E-01</totfact>
</mgrwt>
</event>
<event>
 4    1  0.2779695E-007  0.6922268E+03  0.7818608E-02  0.1003112E+00
          2   -1    0    0  501    0  0.00000000000E+00  0.00000000000E+00  0.34463013437E+04  0.34463013437E+04  0.25500000000E-02 0. -1.
         -2   -1    0    0    0  501 -0.00000000000E+00 -0.00000000000E+00 -0.14917310815E+04  0.14917310815E+04  0.25500000000E-02 0.  1.
    8880023    1    1    2    0    0  0.14587732793E+03  0.15520141167E+03 -0.14060421888E+04  0.15672053203E+04  0.65864270000E+03 0.  1.
    8880022    1    1    2    0    0 -0.14587732793E+03 -0.15520141167E+03  0.33606124509E+04  0.33708271049E+04  0.15294330000E+03 0.  0.
<mgrwt>
<rscale>  0 0.54306615E+03</rscale>
<asrwt>0</asrwt>
<pdfrwt beam="1">  1        2 0.53020020E+00 0.69222675E+03</pdfrwt>
<pdfrwt beam="2">  1       -2 0.22949709E+00 0.69222675E+03</pdfrwt>
<totfact> 0.85489145E-02</totfact>
</mgrwt>
</event>
<event>
 4    1  0.2502834E-007  0.1019555E+04  0.7818608E-02  0.9356409E-01
          2   -1    0    0  501    0  0.00000000000E+00  0.00000000000E+00  0.68803665335E+03  0.68803665335E+03  0.25500000000E-02 0. -1.
         -2   -1    0    0    0  501 -0.00000000000E+00 -0.00000000000E+00 -0.12414910282E+04  0.12414910282E+04  0.25500000000E-02 0.  1.
    8880023    1    1    2    0    0 -0.75645074681E+03 -0.18293306884E+03 -0.49737764353E+03  0.11344059972E+04  0.65864270000E+03 0.  0.
    8880022    1    1    2    0    0  0.75645074681E+03  0.18293306884E+03 -0.56076731303E+02  0.79512168429E+03  0.15294330000E+03 0.  0.
<mgrwt>
<rscale>  0 0.95751527E+03</rscale>
<asrwt>0</asrwt>
<pdfrwt beam="1">  1        2 0.10585179E+00 0.10195550E+04</pdfrwt>
<pdfrwt beam="2">  1       -2 0.19099862E+00 0.10195550E+04</pdfrwt>
<totfact> 0.63364646E+00</totfact>
</mgrwt>
</event>
<event>
 4    1  0.2502834E-007  0.1133430E+04  0.7818608E-02  0.9224718E-01
          2   -1    0    0  501    0  0.00000000000E+00  0.00000000000E+00  0.17133195095E+04  0.17133195095E+04  0.25500000000E-02 0. -1.
         -2   -1    0    0    0  501 -0.00000000000E+00 -0.00000000000E+00 -0.67207852854E+03  0.67207852854E+03  0.25500000000E-02 0.  1.
    8880023    1    1    2    0    0 -0.76316218932E+03  0.51810878420E+03  0.88368305657E+03  0.14372053403E+04  0.65864270000E+03 0.  0.
    8880022    1    1    2    0    0  0.76316218932E+03 -0.51810878420E+03  0.15755792438E+03  0.94819269773E+03  0.15294330000E+03 0.  0.
<mgrwt>
<rscale>  0 0.10801900E+04</rscale>
<asrwt>0</asrwt>
<pdfrwt beam="1">  1        2 0.26358762E+00 0.11334299E+04</pdfrwt>
<pdfrwt beam="2">  1       -2 0.10339670E+00 0.11334299E+04</pdfrwt>
<totfact> 0.72313278E+00</totfact>
</mgrwt>
</event>
<event>
 4    1  0.2502834E-007  0.6603718E+03  0.7818608E-02  0.1023779E+00
          2   -1    0    0  501    0  0.00000000000E+00  0.00000000000E+00  0.47750409999E+03  0.47750410000E+03  0.25500000000E-02 0. -1.
         -2   -1    0    0    0  501 -0.00000000000E+00 -0.00000000000E+00 -0.48678038816E+03  0.48678038816E+03  0.25500000000E-02 0.  1.
    8880023    1    1    2    0    0 -0.32743347521E+02 -0.34764463680E+02 -0.22314473299E+03  0.69705413912E+03  0.65864270000E+03 0.  1.
    8880022    1    1    2    0    0  0.32743347521E+02  0.34764463680E+02  0.21386844483E+03  0.26723034904E+03  0.15294330000E+03 0.  0.
<mgrwt>
<rscale>  0 0.46347315E+03</rscale>
<asrwt>0</asrwt>
<pdfrwt beam="1">  1        2 0.73462169E-01 0.66037179E+03</pdfrwt>
<pdfrwt beam="2">  1       -2 0.74889291E-01 0.66037179E+03</pdfrwt>
<totfact> 0.10570964E+02</totfact>
</mgrwt>
</event>
<event>
 4    1  0.2502834E-007  0.1031916E+04  0.7818608E-02  0.9340944E-01
         -2   -1    0    0    0  501 -0.00000000000E+00  0.00000000000E+00  0.50942399912E+03  0.50942399912E+03  0.25500000000E-02 0.  1.
          2   -1    0    0  501    0  0.00000000000E+00 -0.00000000000E+00 -0.32179730594E+04  0.32179730594E+04  0.25500000000E-02 0. -1.
    8880023    1    1    2    0    0  0.24043514203E+03  0.75712033853E+03 -0.14846770431E+03  0.10425416682E+04  0.65864270000E+03 0.  0.
    8880022    1    1    2    0    0 -0.24043514203E+03 -0.75712033853E+03 -0.25600813560E+04  0.26848553903E+04  0.15294330000E+03 0.  0.
<mgrwt>
<rscale>  0 0.97099344E+03</rscale>
<asrwt>0</asrwt>
<pdfrwt beam="1">  1        2 0.49507277E+00 0.10319159E+04</pdfrwt>
<pdfrwt beam="2">  1       -2 0.78372925E-01 0.10319159E+04</pdfrwt>
<totfact> 0.18669853E+00</totfact>
</mgrwt>
</event>
<event>
 4    1  0.2502834E-007  0.9482734E+03  0.7818608E-02  0.9452603E-01
         -2   -1    0    0    0  501 -0.00000000000E+00  0.00000000000E+00  0.12282873405E+04  0.12282873405E+04  0.25500000000E-02 0.  1.
          2   -1    0    0  501    0  0.00000000000E+00 -0.00000000000E+00 -0.16735351180E+04  0.16735351180E+04  0.25500000000E-02 0. -1.
    8880023    1    1    2    0    0 -0.65006754458E+03 -0.20694053111E+03  0.94932855023E+03  0.13418073999E+04  0.65864270000E+03 0.  1.
    8880022    1    1    2    0    0  0.65006754458E+03  0.20694053111E+03 -0.13945763278E+04  0.15600150585E+04  0.15294330000E+03 0.  0.
<mgrwt>
<rscale>  0 0.87870277E+03</rscale>
<asrwt>0</asrwt>
<pdfrwt beam="1">  1        2 0.25746694E+00 0.94827338E+03</pdfrwt>
<pdfrwt beam="2">  1       -2 0.18896728E+00 0.94827338E+03</pdfrwt>
<totfact> 0.16005651E+00</totfact>
</mgrwt>
</event>
<event>
 4    1  0.2502834E-007  0.7641691E+03  0.7818608E-02  0.9794431E-01
          2   -1    0    0  501    0  0.00000000000E+00  0.00000000000E+00  0.10740154868E+04  0.10740154868E+04  0.25500000000E-02 0. -1.
         -2   -1    0    0    0  501 -0.00000000000E+00 -0.00000000000E+00 -0.66772359654E+03  0.66772359655E+03  0.25500000000E-02 0.  1.
    8880023    1    1    2    0    0 -0.32056987769E+03 -0.21766743641E+03 -0.37885263381E+03  0.85292654066E+03  0.65864270000E+03 0.  1.
    8880022    1    1    2    0    0  0.32056987769E+03  0.21766743641E+03  0.78514452410E+03  0.88881254272E+03  0.15294330000E+03 0.  0.
<mgrwt>
<rscale>  0 0.65662245E+03</rscale>
<asrwt>0</asrwt>
<pdfrwt beam="1">  1        2 0.16523315E+00 0.76416907E+03</pdfrwt>
<pdfrwt beam="2">  1       -2 0.10272671E+00 0.76416907E+03</pdfrwt>
<totfact> 0.17795827E+01</totfact>
</mgrwt>
</event>
<event>
 4    1  0.2502834E-007  0.7032092E+03  0.7818608E-02  0.9984140E-01
         -2   -1    0    0    0  501 -0.00000000000E+00  0.00000000000E+00  0.16706255836E+03  0.16706255838E+03  0.25500000000E-02 0.  1.
          2   -1    0    0  501    0  0.00000000000E+00 -0.00000000000E+00 -0.35627535167E+04  0.35627535167E+04  0.25500000000E-02 0. -1.
    8880023    1    1    2    0    0  0.18996426038E+03 -0.15686498153E+03 -0.61545409858E+03  0.93449825916E+03  0.65864270000E+03 0.  1.
    8880022    1    1    2    0    0 -0.18996426038E+03  0.15686498153E+03 -0.27802368598E+04  0.27953178159E+04  0.15294330000E+03 0.  0.
<mgrwt>
<rscale>  0 0.56351185E+03</rscale>
<asrwt>0</asrwt>
<pdfrwt beam="1">  1        2 0.54811587E+00 0.70320925E+03</pdfrwt>
<pdfrwt beam="2">  1       -2 0.25701935E-01 0.70320925E+03</pdfrwt>
<totfact> 0.10925423E+01</totfact>
</mgrwt>
</event>
<event>
 4    1  0.2502834E-007  0.8126161E+03  0.7818608E-02  0.9684153E-01
          2   -1    0    0  501    0  0.00000000000E+00  0.00000000000E+00  0.18560242036E+04  0.18560242036E+04  0.25500000000E-02 0. -1.
         -2   -1    0    0    0  501 -0.00000000000E+00 -0.00000000000E+00 -0.27284934448E+03  0.27284934450E+03  0.25500000000E-02 0.  1.
    8880023    1    1    2    0    0 -0.19006949318E+03 -0.43635801504E+03  0.13535192268E+04  0.15787207584E+04  0.65864270000E+03 0. -1.
    8880022    1    1    2    0    0  0.19006949318E+03  0.43635801504E+03  0.22965563233E+03  0.55015278969E+03  0.15294330000E+03 0.  0.
<mgrwt>
<rscale>  0 0.71968190E+03</rscale>
<asrwt>0</asrwt>
<pdfrwt beam="1">  1        2 0.28554218E+00 0.81261611E+03</pdfrwt>
<pdfrwt beam="2">  1       -2 0.41976822E-01 0.81261611E+03</pdfrwt>
<totfact> 0.44096383E+01</totfact>
</mgrwt>
</event>
<event>
 4    1  0.2810078E-007  0.9334923E+03  0.7818608E-02  0.9474274E-01
          2   -1    0    0  501    0  0.00000000000E+00  0.00000000000E+00  0.23100583980E+04  0.23100583980E+04  0.25500000000E-02 0. -1.
         -2   -1    0    0    0  501 -0.00000000000E+00 -0.00000000000E+00 -0.11788761150E+04  0.11788761150E+04  0.25500000000E-02 0.  1.
    8880023    1    1    2    0    0 -0.38054569741E+03 -0.54109397799E+03 -0.93067324100E+03  0.13181656226E+04  0.65864270000E+03 0.  0.
    8880022    1    1    2    0    0  0.38054569741E+03  0.54109397799E+03  0.20618555240E+04  0.21707688904E+04  0.15294330000E+03 0.  0.
<mgrwt>
<rscale>  0 0.86207377E+03</rscale>
<asrwt>0</asrwt>
<pdfrwt beam="1">  1        2 0.35539360E+00 0.93349233E+03</pdfrwt>
<pdfrwt beam="2">  1       -2 0.18136556E+00 0.93349233E+03</pdfrwt>
<totfact> 0.80465773E-01</totfact>
</mgrwt>
</event>
<event>
 4    1  0.2502834E-007  0.6601325E+03  0.7818608E-02  0.1024021E+00
         -2   -1    0    0    0  501 -0.00000000000E+00  0.00000000000E+00  0.22428005045E+03  0.22428005046E+03  0.25500000000E-02 0.  1.
          2   -1    0    0  501    0  0.00000000000E+00 -0.00000000000E+00 -0.16746555891E+04  0.16746555891E+04  0.25500000000E-02 0. -1.
    8880023    1    1    2    0    0  0.28939280077E+02  0.33575034805E+02 -0.27880681684E+03  0.71659487318E+03  0.65864270000E+03 0.  1.
    8880022    1    1    2    0    0 -0.28939280077E+02 -0.33575034805E+02 -0.11715687218E+04  0.11823407663E+04  0.15294330000E+03 0.  0.
<mgrwt>
<rscale>  0 0.46263059E+03</rscale>
<asrwt>0</asrwt>
<pdfrwt beam="1">  1        2 0.25763931E+00 0.66013254E+03</pdfrwt>
<pdfrwt beam="2">  1       -2 0.34504624E-01 0.66013254E+03</pdfrwt>
<totfact> 0.82272641E+01</totfact>
</mgrwt>
</event>
<event>
 4    1  0.2502834E-007  0.2302976E+04  0.7818608E-02  0.8485886E-01
         -2   -1    0    0    0  501 -0.00000000000E+00  0.00000000000E+00  0.25900268066E+04  0.25900268066E+04  0.25500000000E-02 0.  1.
          2   -1    0    0  501    0  0.00000000000E+00 -0.00000000000E+00 -0.20288083892E+04  0.20288083892E+04  0.25500000000E-02 0. -1.
    8880023    1    1    2    0    0 -0.20544580198E+03 -0.21971979329E+04  0.68678082021E+03  0.24031988755E+04  0.65864270000E+03 0.  0.
    8880022    1    1    2    0    0  0.20544580198E+03  0.21971979329E+04 -0.12556240285E+03  0.22156363203E+04  0.15294330000E+03 0.  0.
<mgrwt>
<rscale>  0 0.22799063E+04</rscale>
<asrwt>0</asrwt>
<pdfrwt beam="1">  1        2 0.31212437E+00 0.23029757E+04</pdfrwt>
<pdfrwt beam="2">  1       -2 0.39846566E+00 0.23029757E+04</pdfrwt>
<totfact> 0.42113357E-02</totfact>
</mgrwt>
</event>
<event>
 4    1  0.2502834E-007  0.8449905E+03  0.7818608E-02  0.9620841E-01
         -2   -1    0    0    0  501 -0.00000000000E+00  0.00000000000E+00  0.20029691481E+04  0.20029691481E+04  0.25500000000E-02 0.  1.
          2   -1    0    0  501    0  0.00000000000E+00 -0.00000000000E+00 -0.50866531368E+03  0.50866531369E+03  0.25500000000E-02 0. -1.
    8880023    1    1    2    0    0  0.42583199923E+03  0.31442939094E+03  0.17198887035E+04  0.19162531389E+04  0.65864270000E+03 0.  1.
    8880022    1    1    2    0    0 -0.42583199923E+03 -0.31442939094E+03 -0.22558486913E+03  0.59538132290E+03  0.15294330000E+03 0.  0.
<mgrwt>
<rscale>  0 0.75932005E+03</rscale>
<asrwt>0</asrwt>
<pdfrwt beam="1">  1        2 0.78256200E-01 0.84499050E+03</pdfrwt>
<pdfrwt beam="2">  1       -2 0.30814911E+00 0.84499050E+03</pdfrwt>
<totfact> 0.17589760E+00</totfact>
</mgrwt>
</event>
<event>
 4    1  0.2502834E-007  0.9750185E+03  0.7818608E-02  0.9414997E-01
          2   -1    0    0  501    0  0.00000000000E+00  0.00000000000E+00  0.12913303823E+04  0.12913303823E+04  0.25500000000E-02 0. -1.
         -2   -1    0    0    0  501 -0.00000000000E+00 -0.00000000000E+00 -0.94389807504E+03  0.94389807504E+03  0.25500000000E-02 0.  1.
    8880023    1    1    2    0    0  0.65989318981E+03  0.28529243226E+03  0.89119422213E+03  0.13209421417E+04  0.65864270000E+03 0.  0.
    8880022    1    1    2    0    0 -0.65989318981E+03 -0.28529243226E+03 -0.54376191488E+03  0.91428631564E+03  0.15294330000E+03 0.  0.
<mgrwt>
<rscale>  0 0.90851733E+03</rscale>
<asrwt>0</asrwt>
<pdfrwt beam="1">  1        2 0.19866621E+00 0.97501846E+03</pdfrwt>
<pdfrwt beam="2">  1       -2 0.14521509E+00 0.97501846E+03</pdfrwt>
<totfact> 0.54287869E+00</totfact>
</mgrwt>
</event>
<event>
 4    1  0.2502834E-007  0.1022955E+04  0.7818608E-02  0.9352123E-01
          2   -1    0    0  501    0  0.00000000000E+00  0.00000000000E+00  0.15631367807E+04  0.15631367807E+04  0.25500000000E-02 0. -1.
         -2   -1    0    0    0  501 -0.00000000000E+00 -0.00000000000E+00 -0.10834106035E+04  0.10834106035E+04  0.25500000000E-02 0.  1.
    8880023    1    1    2    0    0  0.10148574782E+03  0.77609699503E+03 -0.68776942176E+03  0.12326649531E+04  0.65864270000E+03 0.  1.
    8880022    1    1    2    0    0 -0.10148574782E+03 -0.77609699503E+03  0.11674955990E+04  0.14138824312E+04  0.15294330000E+03 0.  0.
<mgrwt>
<rscale>  0 0.96122688E+03</rscale>
<asrwt>0</asrwt>
<pdfrwt beam="1">  1        2 0.24048258E+00 0.10229546E+04</pdfrwt>
<pdfrwt beam="2">  1       -2 0.16667855E+00 0.10229546E+04</pdfrwt>
<totfact> 0.26073397E+00</totfact>
</mgrwt>
</event>
<event>
 4    1  0.2502834E-007  0.1307636E+04  0.7818608E-02  0.9058994E-01
         -2   -1    0    0    0  501 -0.00000000000E+00  0.00000000000E+00  0.15985872087E+04  0.15985872087E+04  0.25500000000E-02 0.  1.
          2   -1    0    0  501    0  0.00000000000E+00 -0.00000000000E+00 -0.21692806454E+04  0.21692806454E+04  0.25500000000E-02 0. -1.
    8880023    1    1    2    0    0  0.10267686772E+04  0.47100727582E+03  0.11247595119E+04  0.17248176530E+04  0.65864270000E+03 0.  0.
    8880022    1    1    2    0    0 -0.10267686772E+04 -0.47100727582E+03 -0.16954529486E+04  0.20430502011E+04  0.15294330000E+03 0.  0.
<mgrwt>
<rscale>  0 0.12635340E+04</rscale>
<asrwt>0</asrwt>
<pdfrwt beam="1">  1        2 0.33373548E+00 0.13076360E+04</pdfrwt>
<pdfrwt beam="2">  1       -2 0.24593650E+00 0.13076360E+04</pdfrwt>
<totfact> 0.35101933E-01</totfact>
</mgrwt>
</event>
<event>
 4    1  0.2502834E-007  0.7669064E+03  0.7818608E-02  0.9787545E-01
         -2   -1    0    0    0  501 -0.00000000000E+00  0.00000000000E+00  0.10605863920E+04  0.10605863920E+04  0.25500000000E-02 0.  1.
          2   -1    0    0  501    0  0.00000000000E+00 -0.00000000000E+00 -0.12015083545E+04  0.12015083545E+04  0.25500000000E-02 0. -1.
    8880023    1    1    2    0    0 -0.36660941589E+03 -0.14118360708E+03  0.87419911893E+03  0.11629142619E+04  0.65864270000E+03 0.  1.
    8880022    1    1    2    0    0  0.36660941589E+03  0.14118360708E+03 -0.10151210814E+04  0.10991804846E+04  0.15294330000E+03 0.  0.
<mgrwt>
<rscale>  0 0.66035267E+03</rscale>
<asrwt>0</asrwt>
<pdfrwt beam="1">  1        2 0.18484744E+00 0.76690644E+03</pdfrwt>
<pdfrwt beam="2">  1       -2 0.16316714E+00 0.76690644E+03</pdfrwt>
<totfact> 0.46027164E+00</totfact>
</mgrwt>
</event>
<event>
 4    1  0.2502834E-007  0.6731973E+03  0.7818608E-02  0.1013467E+00
          2   -1    0    0  501    0  0.00000000000E+00  0.00000000000E+00  0.12659825457E+04  0.12659825457E+04  0.25500000000E-02 0. -1.
         -2   -1    0    0    0  501 -0.00000000000E+00 -0.00000000000E+00 -0.44401685057E+03  0.44401685058E+03  0.25500000000E-02 0.  1.
    8880023    1    1    2    0    0 -0.84360993310E+02  0.11075926445E+03 -0.17193569543E+03  0.69480679435E+03  0.65864270000E+03 0.  0.
    8880022    1    1    2    0    0  0.84360993310E+02 -0.11075926445E+03  0.99390139058E+03  0.10151926020E+04  0.15294330000E+03 0. -1.
<mgrwt>
<rscale>  0 0.50119514E+03</rscale>
<asrwt>0</asrwt>
<pdfrwt beam="1">  1        2 0.19476654E+00 0.67319730E+03</pdfrwt>
<pdfrwt beam="2">  1       -2 0.68310287E-01 0.67319730E+03</pdfrwt>
<totfact> 0.34885215E+01</totfact>
</mgrwt>
</event>
<event>
 4    1  0.2502834E-007  0.7562892E+03  0.7818608E-02  0.9814811E-01
          2   -1    0    0  501    0  0.00000000000E+00  0.00000000000E+00  0.20849177169E+04  0.20849177169E+04  0.25500000000E-02 0. -1.
         -2   -1    0    0    0  501 -0.00000000000E+00 -0.00000000000E+00 -0.49028650865E+03  0.49028650866E+03  0.25500000000E-02 0.  1.
    8880023    1    1    2    0    0 -0.15029300280E+03 -0.33996348704E+03 -0.16177218231E+03  0.77339744275E+03  0.65864270000E+03 0.  1.
    8880022    1    1    2    0    0  0.15029300280E+03  0.33996348704E+03  0.17564033906E+04  0.18018067828E+04  0.15294330000E+03 0.  0.
<mgrwt>
<rscale>  0 0.64573736E+03</rscale>
<asrwt>0</asrwt>
<pdfrwt beam="1">  1        2 0.32075657E+00 0.75628921E+03</pdfrwt>
<pdfrwt beam="2">  1       -2 0.75428693E-01 0.75628921E+03</pdfrwt>
<totfact> 0.97911415E+00</totfact>
</mgrwt>
</event>
<event>
 4    1  0.2502834E-007  0.1240186E+04  0.7818608E-02  0.9119015E-01
          2   -1    0    0  501    0  0.00000000000E+00  0.00000000000E+00  0.30079977257E+04  0.30079977257E+04  0.25500000000E-02 0. -1.
         -2   -1    0    0    0  501 -0.00000000000E+00 -0.00000000000E+00 -0.50278244364E+03  0.50278244364E+03  0.25500000000E-02 0.  1.
    8880023    1    1    2    0    0  0.20748023793E+03 -0.10301476783E+04  0.72119761759E+03  0.14346388041E+04  0.65864270000E+03 0.  0.
    8880022    1    1    2    0    0 -0.20748023793E+03  0.10301476783E+04  0.17840176644E+04  0.20761413652E+04  0.15294330000E+03 0.  0.
<mgrwt>
<rscale>  0 0.11929898E+04</rscale>
<asrwt>0</asrwt>
<pdfrwt beam="1">  1        2 0.46276888E+00 0.12401865E+04</pdfrwt>
<pdfrwt beam="2">  1       -2 0.77351145E-01 0.12401865E+04</pdfrwt>
<totfact> 0.25378548E+00</totfact>
</mgrwt>
</event>
<event>
 4    1  0.2502834E-007  0.7343971E+03  0.7818608E-02  0.9876579E-01
         -2   -1    0    0    0  501 -0.00000000000E+00  0.00000000000E+00  0.20116056600E+03  0.20116056602E+03  0.25500000000E-02 0.  1.
          2   -1    0    0  501    0  0.00000000000E+00 -0.00000000000E+00 -0.18024271463E+04  0.18024271463E+04  0.25500000000E-02 0. -1.
    8880023    1    1    2    0    0  0.32338860311E+03 -0.30800586580E+02 -0.62831614035E+03  0.96649896184E+03  0.65864270000E+03 0.  1.
    8880022    1    1    2    0    0 -0.32338860311E+03  0.30800586580E+02 -0.97295043994E+03  0.10370887505E+04  0.15294330000E+03 0.  0.
<mgrwt>
<rscale>  0 0.61409910E+03</rscale>
<asrwt>0</asrwt>
<pdfrwt beam="1">  1        2 0.27729647E+00 0.73439708E+03</pdfrwt>
<pdfrwt beam="2">  1       -2 0.30947781E-01 0.73439708E+03</pdfrwt>
<totfact> 0.85291042E+01</totfact>
</mgrwt>
</event>
<event>
 4    1  0.2502834E-007  0.1111577E+04  0.7818608E-02  0.9248275E-01
         -2   -1    0    0    0  501 -0.00000000000E+00  0.00000000000E+00  0.11820472807E+04  0.11820472807E+04  0.25500000000E-02 0.  1.
          2   -1    0    0  501    0  0.00000000000E+00 -0.00000000000E+00 -0.29170788437E+04  0.29170788437E+04  0.25500000000E-02 0. -1.
    8880023    1    1    2    0    0  0.89440643629E+03  0.42778244324E+02  0.82397647390E+03  0.13836691394E+04  0.65864270000E+03 0.  1.
    8880022    1    1    2    0    0 -0.89440643629E+03 -0.42778244324E+02 -0.25590080369E+04  0.27154569850E+04  0.15294330000E+03 0.  0.
<mgrwt>
<rscale>  0 0.10568747E+04</rscale>
<asrwt>0</asrwt>
<pdfrwt beam="1">  1        2 0.44878136E+00 0.11115768E+04</pdfrwt>
<pdfrwt beam="2">  1       -2 0.18185343E+00 0.11115768E+04</pdfrwt>
<totfact> 0.34370618E-01</totfact>
</mgrwt>
</event>
<event>
 4    1  0.2502834E-007  0.8842849E+03  0.7818608E-02  0.9551745E-01
          2   -1    0    0  501    0  0.00000000000E+00  0.00000000000E+00  0.27836039685E+04  0.27836039685E+04  0.25500000000E-02 0. -1.
         -2   -1    0    0    0  501 -0.00000000000E+00 -0.00000000000E+00 -0.62786688892E+03  0.62786688892E+03  0.25500000000E-02 0.  1.
    8880023    1    1    2    0    0  0.58125146424E+03  0.10147115656E+03 -0.25864457714E+03  0.92133429538E+03  0.65864270000E+03 0.  0.
    8880022    1    1    2    0    0 -0.58125146424E+03 -0.10147115656E+03  0.24143816567E+04  0.24901365620E+04  0.15294330000E+03 0.  0.
<mgrwt>
<rscale>  0 0.80574026E+03</rscale>
<asrwt>0</asrwt>
<pdfrwt beam="1">  1        2 0.42824676E+00 0.88428495E+03</pdfrwt>
<pdfrwt beam="2">  1       -2 0.96594908E-01 0.88428495E+03</pdfrwt>
<totfact> 0.21918578E+00</totfact>
</mgrwt>
</event>
<event>
 4    1  0.2502834E-007  0.1671049E+04  0.7818608E-02  0.8797435E-01
          2   -1    0    0  501    0  0.00000000000E+00  0.00000000000E+00  0.32883774419E+04  0.32883774419E+04  0.25500000000E-02 0. -1.
         -2   -1    0    0    0  501 -0.00000000000E+00 -0.00000000000E+00 -0.88204510403E+03  0.88204510403E+03  0.25500000000E-02 0.  1.
    8880023    1    1    2    0    0  0.88494656717E+02  0.15332203444E+04  0.19350077101E+04  0.25566894557E+04  0.65864270000E+03 0.  0.
    8880022    1    1    2    0    0 -0.88494656717E+02 -0.15332203444E+04  0.47132462775E+03  0.16137330902E+04  0.15294330000E+03 0.  0.
<mgrwt>
<rscale>  0 0.16381716E+04</rscale>
<asrwt>0</asrwt>
<pdfrwt beam="1">  1        2 0.50590422E+00 0.16710494E+04</pdfrwt>
<pdfrwt beam="2">  1       -2 0.13569925E+00 0.16710494E+04</pdfrwt>
<totfact> 0.41268064E-01</totfact>
</mgrwt>
</event>
<event>
 4    1  0.2502834E-007  0.1315416E+04  0.7818608E-02  0.9052360E-01
         -2   -1    0    0    0  501 -0.00000000000E+00  0.00000000000E+00  0.11200249525E+04  0.11200249525E+04  0.25500000000E-02 0.  1.
          2   -1    0    0  501    0  0.00000000000E+00 -0.00000000000E+00 -0.15813607253E+04  0.15813607253E+04  0.25500000000E-02 0. -1.
    8880023    1    1    2    0    0 -0.10166131461E+04 -0.51284237167E+03  0.26544672244E+03  0.13419320981E+04  0.65864270000E+03 0.  1.
    8880022    1    1    2    0    0  0.10166131461E+04  0.51284237167E+03 -0.72678249527E+03  0.13594535798E+04  0.15294330000E+03 0.  0.
<mgrwt>
<rscale>  0 0.12716426E+04</rscale>
<asrwt>0</asrwt>
<pdfrwt beam="1">  1        2 0.24328626E+00 0.13154162E+04</pdfrwt>
<pdfrwt beam="2">  1       -2 0.17231153E+00 0.13154162E+04</pdfrwt>
<totfact> 0.22497536E+00</totfact>
</mgrwt>
</event>
<event>
 4    1  0.2502834E-007  0.1095821E+04  0.7818608E-02  0.9265723E-01
          2   -1    0    0  501    0  0.00000000000E+00  0.00000000000E+00  0.12252358767E+04  0.12252358767E+04  0.25500000000E-02 0. -1.
         -2   -1    0    0    0  501 -0.00000000000E+00 -0.00000000000E+00 -0.16452623602E+04  0.16452623602E+04  0.25500000000E-02 0.  1.
    8880023    1    1    2    0    0 -0.27980474987E+03 -0.82989336705E+03 -0.12443621792E+04  0.16580896049E+04  0.65864270000E+03 0.  1.
    8880022    1    1    2    0    0  0.27980474987E+03  0.82989336705E+03  0.82433569567E+03  0.12124086320E+04  0.15294330000E+03 0.  0.
<mgrwt>
<rscale>  0 0.10400063E+04</rscale>
<asrwt>0</asrwt>
<pdfrwt beam="1">  1        2 0.18849783E+00 0.10958211E+04</pdfrwt>
<pdfrwt beam="2">  1       -2 0.25311728E+00 0.10958211E+04</pdfrwt>
<totfact> 0.11079410E+00</totfact>
</mgrwt>
</event>
<event>
 4    1  0.2502834E-007  0.1565872E+04  0.7818608E-02  0.8864469E-01
          2   -1    0    0  501    0  0.00000000000E+00  0.00000000000E+00  0.24324658577E+04  0.24324658577E+04  0.25500000000E-02 0. -1.
         -2   -1    0    0    0  501 -0.00000000000E+00 -0.00000000000E+00 -0.10189642756E+04  0.10189642756E+04  0.25500000000E-02 0.  1.
    8880023    1    1    2    0    0 -0.14148751954E+04 -0.12756806378E+03  0.12686201721E+04  0.20152798259E+04  0.65864270000E+03 0.  0.
    8880022    1    1    2    0    0  0.14148751954E+04  0.12756806378E+03  0.14488140998E+03  0.14361503074E+04  0.15294330000E+03 0.  0.
<mgrwt>
<rscale>  0 0.15304244E+04</rscale>
<asrwt>0</asrwt>
<pdfrwt beam="1">  1        2 0.37422551E+00 0.15658722E+04</pdfrwt>
<pdfrwt beam="2">  1       -2 0.15676374E+00 0.15658722E+04</pdfrwt>
<totfact> 0.95080021E-01</totfact>
</mgrwt>
</event>
<event>
 4    1  0.2502834E-007  0.6956305E+03  0.7818608E-02  0.1001583E+00
          2   -1    0    0  501    0  0.00000000000E+00  0.00000000000E+00  0.15046862450E+04  0.15046862450E+04  0.25500000000E-02 0. -1.
         -2   -1    0    0    0  501 -0.00000000000E+00 -0.00000000000E+00 -0.28871875572E+03  0.28871875573E+03  0.25500000000E-02 0.  1.
    8880023    1    1    2    0    0  0.95000419413E+02  0.20264862708E+03  0.17442609633E+03  0.71716540288E+03  0.65864270000E+03 0.  1.
    8880022    1    1    2    0    0 -0.95000419413E+02 -0.20264862708E+03  0.10415413929E+04  0.10762395978E+04  0.15294330000E+03 0.  0.
<mgrwt>
<rscale>  0 0.54961358E+03</rscale>
<asrwt>0</asrwt>
<pdfrwt beam="1">  1        2 0.23149019E+00 0.69563047E+03</pdfrwt>
<pdfrwt beam="2">  1       -2 0.44418270E-01 0.69563047E+03</pdfrwt>
<totfact> 0.62261045E+01</totfact>
</mgrwt>
</event>
<event>
 4    1  0.2502834E-007  0.1085442E+04  0.7818608E-02  0.9277440E-01
          2   -1    0    0  501    0  0.00000000000E+00  0.00000000000E+00  0.24814154857E+04  0.24814154857E+04  0.25500000000E-02 0. -1.
         -2   -1    0    0    0  501 -0.00000000000E+00 -0.00000000000E+00 -0.82391570961E+03  0.82391570962E+03  0.25500000000E-02 0.  1.
    8880023    1    1    2    0    0 -0.19739290720E+03  0.83988744030E+03 -0.32896776183E+03  0.11341978958E+04  0.65864270000E+03 0.  1.
    8880022    1    1    2    0    0  0.19739290720E+03 -0.83988744030E+03  0.19864675379E+04  0.21711332995E+04  0.15294330000E+03 0.  0.
<mgrwt>
<rscale>  0 0.10288658E+04</rscale>
<asrwt>0</asrwt>
<pdfrwt beam="1">  1        2 0.38175622E+00 0.10854423E+04</pdfrwt>
<pdfrwt beam="2">  1       -2 0.12675626E+00 0.10854423E+04</pdfrwt>
<totfact> 0.16425445E+00</totfact>
</mgrwt>
</event>
<event>
 4    1  0.2502834E-007  0.1646819E+04  0.7818608E-02  0.8812367E-01
         -2   -1    0    0    0  501 -0.00000000000E+00  0.00000000000E+00  0.15274424103E+04  0.15274424103E+04  0.25500000000E-02 0.  1.
          2   -1    0    0  501    0  0.00000000000E+00 -0.00000000000E+00 -0.20497375594E+04  0.20497375594E+04  0.25500000000E-02 0. -1.
    8880023    1    1    2    0    0  0.29778309459E+03 -0.14797050952E+04  0.53097035255E+03  0.17303010321E+04  0.65864270000E+03 0.  1.
    8880022    1    1    2    0    0 -0.29778309459E+03  0.14797050952E+04 -0.10532655017E+04  0.18468789376E+04  0.15294330000E+03 0.  0.
<mgrwt>
<rscale>  0 0.16133847E+04</rscale>
<asrwt>0</asrwt>
<pdfrwt beam="1">  1        2 0.31534424E+00 0.16468188E+04</pdfrwt>
<pdfrwt beam="2">  1       -2 0.23499114E+00 0.16468188E+04</pdfrwt>
<totfact> 0.46076330E-01</totfact>
</mgrwt>
</event>
<event>
 4    1  0.2502834E-007  0.1091416E+04  0.7818608E-02  0.9270674E-01
         -2   -1    0    0    0  501 -0.00000000000E+00  0.00000000000E+00  0.16051291100E+04  0.16051291100E+04  0.25500000000E-02 0.  1.
          2   -1    0    0  501    0  0.00000000000E+00 -0.00000000000E+00 -0.13024308318E+04  0.13024308318E+04  0.25500000000E-02 0. -1.
    8880023    1    1    2    0    0  0.81734169747E+03  0.29888415604E+03  0.12179201778E+04  0.16353956570E+04  0.65864270000E+03 0.  0.
    8880022    1    1    2    0    0 -0.81734169747E+03 -0.29888415604E+03 -0.91522189951E+03  0.12721642848E+04  0.15294330000E+03 0.  0.
<mgrwt>
<rscale>  0 0.10352810E+04</rscale>
<asrwt>0</asrwt>
<pdfrwt beam="1">  1        2 0.20037397E+00 0.10914162E+04</pdfrwt>
<pdfrwt beam="2">  1       -2 0.24694294E+00 0.10914162E+04</pdfrwt>
<totfact> 0.10890091E+00</totfact>
</mgrwt>
</event>
<event>
 4    1  0.2502834E-007  0.1018660E+04  0.7818608E-02  0.9357541E-01
          2   -1    0    0  501    0  0.00000000000E+00  0.00000000000E+00  0.14752824834E+04  0.14752824834E+04  0.25500000000E-02 0. -1.
         -2   -1    0    0    0  501 -0.00000000000E+00 -0.00000000000E+00 -0.88274441413E+03  0.88274441413E+03  0.25500000000E-02 0.  1.
    8880023    1    1    2    0    0  0.77708095962E+03 -0.19565424409E+01 -0.39462525156E+03  0.10924275451E+04  0.65864270000E+03 0.  0.
    8880022    1    1    2    0    0 -0.77708095962E+03  0.19565424409E+01  0.98716332085E+03  0.12655993524E+04  0.15294330000E+03 0.  0.
<mgrwt>
<rscale>  0 0.95653783E+03</rscale>
<asrwt>0</asrwt>
<pdfrwt beam="1">  1        2 0.22696653E+00 0.10186603E+04</pdfrwt>
<pdfrwt beam="2">  1       -2 0.13580683E+00 0.10186603E+04</pdfrwt>
<totfact> 0.50475979E+00</totfact>
</mgrwt>
</event>
<event>
 4    1  0.2784244E-007  0.1391400E+04  0.7818608E-02  0.8990394E-01
         -2   -1    0    0    0  501 -0.00000000000E+00  0.00000000000E+00  0.20094058966E+04  0.20094058966E+04  0.25500000000E-02 0.  1.
          2   -1    0    0  501    0  0.00000000000E+00 -0.00000000000E+00 -0.29121053193E+04  0.29121053193E+04  0.25500000000E-02 0. -1.
    8880023    1    1    2    0    0  0.74912644405E+02 -0.12233440544E+04  0.16062000441E+04  0.21250579681E+04  0.65864270000E+03 0.  0.
    8880022    1    1    2    0    0 -0.74912644405E+02  0.12233440544E+04 -0.25088994668E+04  0.27964532478E+04  0.15294330000E+03 0.  0.
<mgrwt>
<rscale>  0 0.13505730E+04</rscale>
<asrwt>0</asrwt>
<pdfrwt beam="1">  1        2 0.44801620E+00 0.13913996E+04</pdfrwt>
<pdfrwt beam="2">  1       -2 0.30913937E+00 0.13913996E+04</pdfrwt>
<totfact> 0.52754745E-02</totfact>
</mgrwt>
</event>
<event>
 4    1  0.2502834E-007  0.7267678E+03  0.7818608E-02  0.9900318E-01
          2   -1    0    0  501    0  0.00000000000E+00  0.00000000000E+00  0.20816741865E+04  0.20816741865E+04  0.25500000000E-02 0. -1.
         -2   -1    0    0    0  501 -0.00000000000E+00 -0.00000000000E+00 -0.37195979393E+03  0.37195979394E+03  0.25500000000E-02 0.  1.
    8880023    1    1    2    0    0  0.25916010647E+03 -0.16497672632E+03  0.17507067295E+02  0.72697866865E+03  0.65864270000E+03 0.  1.
    8880022    1    1    2    0    0 -0.25916010647E+03  0.16497672632E+03  0.16922073252E+04  0.17266553117E+04  0.15294330000E+03 0.  0.
<mgrwt>
<rscale>  0 0.60245895E+03</rscale>
<asrwt>0</asrwt>
<pdfrwt beam="1">  1        2 0.32025756E+00 0.72676784E+03</pdfrwt>
<pdfrwt beam="2">  1       -2 0.57224585E-01 0.72676784E+03</pdfrwt>
<totfact> 0.17899420E+01</totfact>
</mgrwt>
</event>
<event>
 4    1  0.2502834E-007  0.1215497E+04  0.7818608E-02  0.9142203E-01
         -2   -1    0    0    0  501 -0.00000000000E+00  0.00000000000E+00  0.15188442537E+04  0.15188442537E+04  0.25500000000E-02 0.  1.
          2   -1    0    0  501    0  0.00000000000E+00 -0.00000000000E+00 -0.10141876654E+04  0.10141876654E+04  0.25500000000E-02 0. -1.
    8880023    1    1    2    0    0 -0.95650714573E+03  0.35877231211E+03  0.80427114076E+03  0.14574929728E+04  0.65864270000E+03 0.  1.
    8880022    1    1    2    0    0  0.95650714573E+03 -0.35877231211E+03 -0.29961455253E+03  0.10755389462E+04  0.15294330000E+03 0.  0.
<mgrwt>
<rscale>  0 0.11670429E+04</rscale>
<asrwt>0</asrwt>
<pdfrwt beam="1">  1        2 0.15602887E+00 0.12154973E+04</pdfrwt>
<pdfrwt beam="2">  1       -2 0.23366835E+00 0.12154973E+04</pdfrwt>
<totfact> 0.19439069E+00</totfact>
</mgrwt>
</event>
<event>
 4    1  0.2502834E-007  0.8277241E+03  0.7818608E-02  0.9653777E-01
          2   -1    0    0  501    0  0.00000000000E+00  0.00000000000E+00  0.99118937375E+03  0.99118937375E+03  0.25500000000E-02 0. -1.
         -2   -1    0    0    0  501 -0.00000000000E+00 -0.00000000000E+00 -0.70516777916E+03  0.70516777917E+03  0.25500000000E-02 0.  1.
    8880023    1    1    2    0    0  0.28582923239E+02  0.50049972374E+03 -0.32686113546E+03  0.88992435920E+03  0.65864270000E+03 0.  1.
    8880022    1    1    2    0    0 -0.28582923239E+02 -0.50049972374E+03  0.61288273005E+03  0.80643279371E+03  0.15294330000E+03 0.  0.
<mgrwt>
<rscale>  0 0.73836862E+03</rscale>
<asrwt>0</asrwt>
<pdfrwt beam="1">  1        2 0.15249067E+00 0.82772409E+03</pdfrwt>
<pdfrwt beam="2">  1       -2 0.10848735E+00 0.82772409E+03</pdfrwt>
<totfact> 0.17487209E+01</totfact>
</mgrwt>
</event>
<event>
 4    1  0.2502834E-007  0.9710213E+03  0.7818608E-02  0.9420493E-01
         -2   -1    0    0    0  501 -0.00000000000E+00  0.00000000000E+00  0.53771309803E+03  0.53771309803E+03  0.25500000000E-02 0.  1.
          2   -1    0    0  501    0  0.00000000000E+00 -0.00000000000E+00 -0.16183424495E+04  0.16183424495E+04  0.25500000000E-02 0. -1.
    8880023    1    1    2    0    0 -0.36150059001E+03 -0.61513368439E+03 -0.16453460562E+03  0.98486241118E+03  0.65864270000E+03 0.  0.
    8880022    1    1    2    0    0  0.36150059001E+03  0.61513368439E+03 -0.91609474589E+03  0.11711931364E+04  0.15294330000E+03 0.  0.
<mgrwt>
<rscale>  0 0.90408200E+03</rscale>
<asrwt>0</asrwt>
<pdfrwt beam="1">  1        2 0.24897576E+00 0.97102128E+03</pdfrwt>
<pdfrwt beam="2">  1       -2 0.82725093E-01 0.97102128E+03</pdfrwt>
<totfact> 0.13967395E+01</totfact>
</mgrwt>
</event>
<event>
 4    1  0.2502834E-007  0.1016503E+04  0.7818608E-02  0.9360279E-01
         -2   -1    0    0    0  501 -0.00000000000E+00  0.00000000000E+00  0.71740874188E+03  0.71740874189E+03  0.25500000000E-02 0.  1.
          2   -1    0    0  501    0  0.00000000000E+00 -0.00000000000E+00 -0.21648546536E+04  0.21648546536E+04  0.25500000000E-02 0. -1.
    8880023    1    1    2    0    0  0.53298782726E+03 -0.56159722136E+03  0.21770259804E+03  0.10395537939E+04  0.65864270000E+03 0.  0.
    8880022    1    1    2    0    0 -0.53298782726E+03  0.56159722136E+03 -0.16651485097E+04  0.18427096015E+04  0.15294330000E+03 0.  0.
<mgrwt>
<rscale>  0 0.95417958E+03</rscale>
<asrwt>0</asrwt>
<pdfrwt beam="1">  1        2 0.33305456E+00 0.10165027E+04</pdfrwt>
<pdfrwt beam="2">  1       -2 0.11037058E+00 0.10165027E+04</pdfrwt>
<totfact> 0.35215272E+00</totfact>
</mgrwt>
</event>
<event>
 4    1  0.2502834E-007  0.1627837E+04  0.7818608E-02  0.8824272E-01
          2   -1    0    0  501    0  0.00000000000E+00  0.00000000000E+00  0.19024837371E+04  0.19024837371E+04  0.25500000000E-02 0. -1.
         -2   -1    0    0    0  501 -0.00000000000E+00 -0.00000000000E+00 -0.16285161584E+04  0.16285161584E+04  0.25500000000E-02 0.  1.
    8880023    1    1    2    0    0 -0.22630346414E+03 -0.14713361347E+04 -0.67147311126E+03  0.17608888735E+04  0.65864270000E+03 0.  0.
    8880022    1    1    2    0    0  0.22630346414E+03  0.14713361347E+04  0.94544068990E+03  0.17701110220E+04  0.15294330000E+03 0.  0.
<mgrwt>
<rscale>  0 0.15939530E+04</rscale>
<asrwt>0</asrwt>
<pdfrwt beam="1">  1        2 0.29268980E+00 0.16278371E+04</pdfrwt>
<pdfrwt beam="2">  1       -2 0.25054095E+00 0.16278371E+04</pdfrwt>
<totfact> 0.44681497E-01</totfact>
</mgrwt>
</event>
<event>
 4    1  0.2502834E-007  0.7992605E+03  0.7818608E-02  0.9712397E-01
          2   -1    0    0  501    0  0.00000000000E+00  0.00000000000E+00  0.16928669786E+04  0.16928669786E+04  0.25500000000E-02 0. -1.
         -2   -1    0    0    0  501 -0.00000000000E+00 -0.00000000000E+00 -0.37003725513E+03  0.37003725513E+03  0.25500000000E-02 0.  1.
    8880023    1    1    2    0    0  0.40702012073E+03 -0.19834763605E+03  0.13664193973E+04  0.15830095827E+04  0.65864270000E+03 0.  0.
    8880022    1    1    2    0    0 -0.40702012073E+03  0.19834763605E+03 -0.43589673819E+02  0.47989465102E+03  0.15294330000E+03 0.  0.
<mgrwt>
<rscale>  0 0.70283438E+03</rscale>
<asrwt>0</asrwt>
<pdfrwt beam="1">  1        2 0.26044108E+00 0.79926051E+03</pdfrwt>
<pdfrwt beam="2">  1       -2 0.56928808E-01 0.79926051E+03</pdfrwt>
<totfact> 0.29227387E+01</totfact>
</mgrwt>
</event>
<event>
 4    1  0.2502834E-007  0.7293418E+03  0.7818608E-02  0.9892158E-01
          2   -1    0    0  501    0  0.00000000000E+00  0.00000000000E+00  0.13439535058E+04  0.13439535058E+04  0.25500000000E-02 0. -1.
         -2   -1    0    0    0  501 -0.00000000000E+00 -0.00000000000E+00 -0.34695448382E+03  0.34695448383E+03  0.25500000000E-02 0.  1.
    8880023    1    1    2    0    0  0.31313878730E+03 -0.85667811161E+01  0.10964684993E+03  0.73753774670E+03  0.65864270000E+03 0.  0.
    8880022    1    1    2    0    0 -0.31313878730E+03  0.85667811161E+01  0.88735217207E+03  0.95337024295E+03  0.15294330000E+03 0.  0.
<mgrwt>
<rscale>  0 0.60642868E+03</rscale>
<asrwt>0</asrwt>
<pdfrwt beam="1">  1        2 0.20676208E+00 0.72934182E+03</pdfrwt>
<pdfrwt beam="2">  1       -2 0.53377613E-01 0.72934182E+03</pdfrwt>
<totfact> 0.52673384E+01</totfact>
</mgrwt>
</event>
<event>
 4    1  0.2502834E-007  0.1070400E+04  0.7818608E-02  0.9294750E-01
          2   -1    0    0  501    0  0.00000000000E+00  0.00000000000E+00  0.35908202907E+04  0.35908202907E+04  0.25500000000E-02 0. -1.
         -2   -1    0    0    0  501 -0.00000000000E+00 -0.00000000000E+00 -0.67490031380E+03  0.67490031380E+03  0.25500000000E-02 0.  1.
    8880023    1    1    2    0    0  0.39682640001E+03  0.74463121294E+03 -0.15115908097E+03  0.10810208643E+04  0.65864270000E+03 0.  0.
    8880022    1    1    2    0    0 -0.39682640001E+03 -0.74463121294E+03  0.30670790579E+04  0.31846997402E+04  0.15294330000E+03 0.  0.
<mgrwt>
<rscale>  0 0.10126762E+04</rscale>
<asrwt>0</asrwt>
<pdfrwt beam="1">  1        2 0.55243389E+00 0.10704004E+04</pdfrwt>
<pdfrwt beam="2">  1       -2 0.10383082E+00 0.10704004E+04</pdfrwt>
<totfact> 0.54156085E-01</totfact>
</mgrwt>
</event>
<event>
 4    1  0.2502834E-007  0.1116789E+04  0.7818608E-02  0.9242590E-01
         -2   -1    0    0    0  501 -0.00000000000E+00  0.00000000000E+00  0.17650627587E+04  0.17650627587E+04  0.25500000000E-02 0.  1.
          2   -1    0    0  501    0  0.00000000000E+00 -0.00000000000E+00 -0.59686571946E+03  0.59686571947E+03  0.25500000000E-02 0. -1.
    8880023    1    1    2    0    0  0.89114282982E+03 -0.13882490764E+03  0.80965409967E+03  0.13794048954E+04  0.65864270000E+03 0.  0.
    8880022    1    1    2    0    0 -0.89114282982E+03  0.13882490764E+03  0.35854293956E+03  0.98252358274E+03  0.15294330000E+03 0.  1.
<mgrwt>
<rscale>  0 0.10624441E+04</rscale>
<asrwt>0</asrwt>
<pdfrwt beam="1">  1        2 0.91825496E-01 0.11167892E+04</pdfrwt>
<pdfrwt beam="2">  1       -2 0.27154812E+00 0.11167892E+04</pdfrwt>
<totfact> 0.23422533E+00</totfact>
</mgrwt>
</event>
<event>
 4    1  0.2502834E-007  0.1116609E+04  0.7818608E-02  0.9242785E-01
         -2   -1    0    0    0  501 -0.00000000000E+00  0.00000000000E+00  0.11333637965E+04  0.11333637965E+04  0.25500000000E-02 0.  1.
          2   -1    0    0  501    0  0.00000000000E+00 -0.00000000000E+00 -0.16245178701E+04  0.16245178701E+04  0.25500000000E-02 0. -1.
    8880023    1    1    2    0    0 -0.89919999345E+03  0.66673821447E+02  0.65269027750E+03  0.12933757502E+04  0.65864270000E+03 0.  0.
    8880022    1    1    2    0    0  0.89919999345E+03 -0.66673821447E+02 -0.11438443511E+04  0.14645059164E+04  0.15294330000E+03 0.  0.
<mgrwt>
<rscale>  0 0.10622519E+04</rscale>
<asrwt>0</asrwt>
<pdfrwt beam="1">  1        2 0.24992583E+00 0.11166093E+04</pdfrwt>
<pdfrwt beam="2">  1       -2 0.17436366E+00 0.11166093E+04</pdfrwt>
<totfact> 0.21012332E+00</totfact>
</mgrwt>
</event>
<event>
 4    1  0.2502834E-007  0.7057508E+03  0.7818608E-02  0.9974132E-01
         -2   -1    0    0    0  501 -0.00000000000E+00  0.00000000000E+00  0.14034958930E+03  0.14034958932E+03  0.25500000000E-02 0.  1.
          2   -1    0    0  501    0  0.00000000000E+00 -0.00000000000E+00 -0.23582915220E+04  0.23582915220E+04  0.25500000000E-02 0. -1.
    8880023    1    1    2    0    0  0.32558447281E+01  0.25350232179E+03 -0.87855028807E+03  0.11269138577E+04  0.65864270000E+03 0.  0.
    8880022    1    1    2    0    0 -0.32558447281E+01 -0.25350232179E+03 -0.13393916447E+04  0.13717272537E+04  0.15294330000E+03 0.  0.
<mgrwt>
<rscale>  0 0.56799204E+03</rscale>
<asrwt>0</asrwt>
<pdfrwt beam="1">  1        2 0.36281405E+00 0.70575083E+03</pdfrwt>
<pdfrwt beam="2">  1       -2 0.21592246E-01 0.70575083E+03</pdfrwt>
<totfact> 0.81486298E+01</totfact>
</mgrwt>
</event>
<event>
 4    1  0.2502834E-007  0.7470623E+03  0.7818608E-02  0.9839833E-01
          2   -1    0    0  501    0  0.00000000000E+00  0.00000000000E+00  0.36978334041E+04  0.36978334041E+04  0.25500000000E-02 0. -1.
         -2   -1    0    0    0  501 -0.00000000000E+00 -0.00000000000E+00 -0.19553617448E+03  0.19553617450E+03  0.25500000000E-02 0.  1.
    8880023    1    1    2    0    0 -0.14241235726E+03 -0.32250676572E+03  0.57965361216E+03  0.94556882869E+03  0.65864270000E+03 0.  0.
    8880022    1    1    2    0    0  0.14241235726E+03  0.32250676572E+03  0.29226436174E+04  0.29478007499E+04  0.15294330000E+03 0.  0.
<mgrwt>
<rscale>  0 0.63268004E+03</rscale>
<asrwt>0</asrwt>
<pdfrwt beam="1">  1        2 0.56889743E+00 0.74706231E+03</pdfrwt>
<pdfrwt beam="2">  1       -2 0.30082489E-01 0.74706231E+03</pdfrwt>
<totfact> 0.65159378E+00</totfact>
</mgrwt>
</event>
<event>
 4    1  0.2502834E-007  0.1129166E+04  0.7818608E-02  0.9229258E-01
         -2   -1    0    0    0  501 -0.00000000000E+00  0.00000000000E+00  0.49545662700E+03  0.49545662701E+03  0.25500000000E-02 0.  1.
          2   -1    0    0  501    0  0.00000000000E+00 -0.00000000000E+00 -0.29137565887E+04  0.29137565887E+04  0.25500000000E-02 0. -1.
    8880023    1    1    2    0    0  0.88569366551E+03 -0.23822650481E+03 -0.41923957132E+03  0.12044821133E+04  0.65864270000E+03 0.  1.
    8880022    1    1    2    0    0 -0.88569366551E+03  0.23822650481E+03 -0.19990603904E+04  0.22047311025E+04  0.15294330000E+03 0.  0.
<mgrwt>
<rscale>  0 0.10756475E+04</rscale>
<asrwt>0</asrwt>
<pdfrwt beam="1">  1        2 0.44827023E+00 0.11291658E+04</pdfrwt>
<pdfrwt beam="2">  1       -2 0.76224098E-01 0.11291658E+04</pdfrwt>
<totfact> 0.30393546E+00</totfact>
</mgrwt>
</event>
<event>
 4    1  0.2502834E-007  0.1167010E+04  0.7818608E-02  0.9189877E-01
         -2   -1    0    0    0  501 -0.00000000000E+00  0.00000000000E+00  0.28554769220E+04  0.28554769220E+04  0.25500000000E-02 0.  1.
          2   -1    0    0  501    0  0.00000000000E+00 -0.00000000000E+00 -0.14241427254E+04  0.14241427254E+04  0.25500000000E-02 0. -1.
    8880023    1    1    2    0    0 -0.76809460296E+03  0.58149206995E+03  0.25446116455E+04  0.27994572651E+04  0.65864270000E+03 0.  0.
    8880022    1    1    2    0    0  0.76809460296E+03 -0.58149206995E+03 -0.11132774490E+04  0.14801623823E+04  0.15294330000E+03 0. -1.
<mgrwt>
<rscale>  0 0.11158523E+04</rscale>
<asrwt>0</asrwt>
<pdfrwt beam="1">  1        2 0.21909889E+00 0.11670101E+04</pdfrwt>
<pdfrwt beam="2">  1       -2 0.43930413E+00 0.11670101E+04</pdfrwt>
<totfact> 0.56625148E-02</totfact>
</mgrwt>
</event>
<event>
 4    1  0.2502834E-007  0.1010141E+04  0.7818608E-02  0.9368409E-01
          2   -1    0    0  501    0  0.00000000000E+00  0.00000000000E+00  0.18688485842E+04  0.18688485842E+04  0.25500000000E-02 0. -1.
         -2   -1    0    0    0  501 -0.00000000000E+00 -0.00000000000E+00 -0.46673195729E+03  0.46673195729E+03  0.25500000000E-02 0.  1.
    8880023    1    1    2    0    0 -0.29607279098E+03 -0.70633952009E+03  0.45472982968E+03  0.11077743631E+04  0.65864270000E+03 0.  0.
    8880022    1    1    2    0    0  0.29607279098E+03  0.70633952009E+03  0.94738679722E+03  0.12278061784E+04  0.15294330000E+03 0.  0.
<mgrwt>
<rscale>  0 0.94721752E+03</rscale>
<asrwt>0</asrwt>
<pdfrwt beam="1">  1        2 0.28751517E+00 0.10101410E+04</pdfrwt>
<pdfrwt beam="2">  1       -2 0.71804916E-01 0.10101410E+04</pdfrwt>
<totfact> 0.13893407E+01</totfact>
</mgrwt>
</event>
<event>
 4    1  0.2502834E-007  0.1096176E+04  0.7818608E-02  0.9265325E-01
         -2   -1    0    0    0  501 -0.00000000000E+00  0.00000000000E+00  0.59375946998E+03  0.59375946998E+03  0.25500000000E-02 0.  1.
          2   -1    0    0  501    0  0.00000000000E+00 -0.00000000000E+00 -0.28213461500E+04  0.28213461500E+04  0.25500000000E-02 0. -1.
    8880023    1    1    2    0    0 -0.19891773159E+03  0.85336056796E+03 -0.90031121202E+02  0.10998674156E+04  0.65864270000E+03 0.  1.
    8880022    1    1    2    0    0  0.19891773159E+03 -0.85336056796E+03 -0.21375555589E+04  0.23152382044E+04  0.15294330000E+03 0.  0.
<mgrwt>
<rscale>  0 0.10403873E+04</rscale>
<asrwt>0</asrwt>
<pdfrwt beam="1">  1        2 0.43405324E+00 0.10961764E+04</pdfrwt>
<pdfrwt beam="2">  1       -2 0.91347613E-01 0.10961764E+04</pdfrwt>
<totfact> 0.22969542E+00</totfact>
</mgrwt>
</event>
<event>
 4    1  0.2502834E-007  0.7740969E+03  0.7818608E-02  0.9769891E-01
          2   -1    0    0  501    0  0.00000000000E+00  0.00000000000E+00  0.25529714796E+03  0.25529714797E+03  0.25500000000E-02 0. -1.
         -2   -1    0    0    0  501 -0.00000000000E+00 -0.00000000000E+00 -0.14801948562E+04  0.14801948562E+04  0.25500000000E-02 0.  1.
    8880023    1    1    2    0    0  0.16046976397E+03  0.37371822110E+03 -0.62584522746E+03  0.99544377487E+03  0.65864270000E+03 0. -1.
    8880022    1    1    2    0    0 -0.16046976397E+03 -0.37371822110E+03 -0.59905248073E+03  0.74004822925E+03  0.15294330000E+03 0.  1.
<mgrwt>
<rscale>  0 0.67003720E+03</rscale>
<asrwt>0</asrwt>
<pdfrwt beam="1">  1        2 0.39276485E-01 0.77409693E+03</pdfrwt>
<pdfrwt beam="2">  1       -2 0.22772228E+00 0.77409693E+03</pdfrwt>
<totfact> 0.11841765E+01</totfact>
</mgrwt>
</event>
<event>
 4    1  0.2502834E-007  0.8607972E+03  0.7818608E-02  0.9592147E-01
         -2   -1    0    0    0  501 -0.00000000000E+00  0.00000000000E+00  0.64204934042E+03  0.64204934042E+03  0.25500000000E-02 0.  1.
          2   -1    0    0  501    0  0.00000000000E+00 -0.00000000000E+00 -0.88562779411E+03  0.88562779411E+03  0.25500000000E-02 0. -1.
    8880023    1    1    2    0    0  0.54791566683E+03 -0.83366700913E+02  0.85818373034E+02  0.86506449713E+03  0.65864270000E+03 0.  1.
    8880022    1    1    2    0    0 -0.54791566683E+03  0.83366700913E+02 -0.32939682673E+03  0.66261263741E+03  0.15294330000E+03 0.  0.
<mgrwt>
<rscale>  0 0.77818133E+03</rscale>
<asrwt>0</asrwt>
<pdfrwt beam="1">  1        2 0.13625043E+00 0.86079718E+03</pdfrwt>
<pdfrwt beam="2">  1       -2 0.98776821E-01 0.86079718E+03</pdfrwt>
<totfact> 0.25633979E+01</totfact>
</mgrwt>
</event>
<event>
 4    1  0.2502834E-007  0.1109972E+04  0.7818608E-02  0.9250034E-01
          2   -1    0    0  501    0  0.00000000000E+00  0.00000000000E+00  0.14845800687E+04  0.14845800687E+04  0.25500000000E-02 0. -1.
         -2   -1    0    0    0  501 -0.00000000000E+00 -0.00000000000E+00 -0.11584519262E+04  0.11584519262E+04  0.25500000000E-02 0.  1.
    8880023    1    1    2    0    0 -0.52005281296E+03 -0.72647960674E+03 -0.66977286055E+03  0.12963924708E+04  0.65864270000E+03 0.  0.
    8880022    1    1    2    0    0  0.52005281296E+03  0.72647960674E+03  0.99590100301E+03  0.13466395242E+04  0.15294330000E+03 0.  0.
<mgrwt>
<rscale>  0 0.10551588E+04</rscale>
<asrwt>0</asrwt>
<pdfrwt beam="1">  1        2 0.22839693E+00 0.11099720E+04</pdfrwt>
<pdfrwt beam="2">  1       -2 0.17822337E+00 0.11099720E+04</pdfrwt>
<totfact> 0.23673937E+00</totfact>
</mgrwt>
</event>
<event>
 4    1  0.2502834E-007  0.8059169E+03  0.7818608E-02  0.9698146E-01
         -2   -1    0    0    0  501 -0.00000000000E+00  0.00000000000E+00  0.41354772957E+03  0.41354772957E+03  0.25500000000E-02 0.  1.
          2   -1    0    0  501    0  0.00000000000E+00 -0.00000000000E+00 -0.17683057057E+04  0.17683057057E+04  0.25500000000E-02 0. -1.
    8880023    1    1    2    0    0 -0.37537863099E+03  0.27346422931E+03 -0.72074439271E+02  0.80913332175E+03  0.65864270000E+03 0.  1.
    8880022    1    1    2    0    0  0.37537863099E+03 -0.27346422931E+03 -0.12826835368E+04  0.13727201135E+04  0.15294330000E+03 0.  0.
<mgrwt>
<rscale>  0 0.71127309E+03</rscale>
<asrwt>0</asrwt>
<pdfrwt beam="1">  1        2 0.27204703E+00 0.80591687E+03</pdfrwt>
<pdfrwt beam="2">  1       -2 0.63622728E-01 0.80591687E+03</pdfrwt>
<totfact> 0.20988792E+01</totfact>
</mgrwt>
</event>
<event>
 4    1  0.2502834E-007  0.1132105E+04  0.7818608E-02  0.9226126E-01
          2   -1    0    0  501    0  0.00000000000E+00  0.00000000000E+00  0.18401056725E+04  0.18401056725E+04  0.25500000000E-02 0. -1.
         -2   -1    0    0    0  501 -0.00000000000E+00 -0.00000000000E+00 -0.96056287361E+03  0.96056287362E+03  0.25500000000E-02 0.  1.
    8880023    1    1    2    0    0 -0.28398281858E+03  0.87590277612E+03 -0.41407980735E+03  0.12054560164E+04  0.65864270000E+03 0.  0.
    8880022    1    1    2    0    0  0.28398281858E+03 -0.87590277612E+03  0.12936226063E+04  0.15952125297E+04  0.15294330000E+03 0.  0.
<mgrwt>
<rscale>  0 0.10787791E+04</rscale>
<asrwt>0</asrwt>
<pdfrwt beam="1">  1        2 0.28309318E+00 0.11321052E+04</pdfrwt>
<pdfrwt beam="2">  1       -2 0.14777890E+00 0.11321052E+04</pdfrwt>
<totfact> 0.25041326E+00</totfact>
</mgrwt>
</event>
<event>
 4    1  0.2590615E-007  0.1093344E+04  0.7818608E-02  0.9268503E-01
          2   -1    0    0  501    0  0.00000000000E+00  0.00000000000E+00  0.20709950701E+04  0.20709950701E+04  0.25500000000E-02 0. -1.
         -2   -1    0    0    0  501 -0.00000000000E+00 -0.00000000000E+00 -0.17672859300E+04  0.17672859300E+04  0.25500000000E-02 0.  1.
    8880023    1    1    2    0    0  0.39806924313E+03  0.77661576982E+03 -0.14838774133E+04  0.18431748588E+04  0.65864270000E+03 0.  0.
    8880022    1    1    2    0    0 -0.39806924313E+03 -0.77661576982E+03  0.17875865534E+04  0.19951061413E+04  0.15294330000E+03 0.  0.
<mgrwt>
<rscale>  0 0.10373497E+04</rscale>
<asrwt>0</asrwt>
<pdfrwt beam="1">  1        2 0.31861463E+00 0.10933441E+04</pdfrwt>
<pdfrwt beam="2">  1       -2 0.27189014E+00 0.10933441E+04</pdfrwt>
<totfact> 0.28533408E-01</totfact>
</mgrwt>
</event>
<event>
 4    1  0.2502834E-007  0.1677223E+04  0.7818608E-02  0.8793677E-01
          2   -1    0    0  501    0  0.00000000000E+00  0.00000000000E+00  0.38373606126E+04  0.38373606126E+04  0.25500000000E-02 0. -1.
         -2   -1    0    0    0  501 -0.00000000000E+00 -0.00000000000E+00 -0.12759771746E+04  0.12759771746E+04  0.25500000000E-02 0.  1.
    8880023    1    1    2    0    0  0.21229931947E+03 -0.15278069872E+04 -0.44118138873E+03  0.17342769142E+04  0.65864270000E+03 0.  0.
    8880022    1    1    2    0    0 -0.21229931947E+03  0.15278069872E+04  0.30025648268E+04  0.33790608730E+04  0.15294330000E+03 0.  0.
<mgrwt>
<rscale>  0 0.16444834E+04</rscale>
<asrwt>0</asrwt>
<pdfrwt beam="1">  1        2 0.59036318E+00 0.16772225E+04</pdfrwt>
<pdfrwt beam="2">  1       -2 0.19630418E+00 0.16772225E+04</pdfrwt>
<totfact> 0.60192622E-02</totfact>
</mgrwt>
</event>
<event>
 4    1  0.2502834E-007  0.1303336E+04  0.7818608E-02  0.9062685E-01
         -2   -1    0    0    0  501 -0.00000000000E+00  0.00000000000E+00  0.54653967139E+03  0.54653967139E+03  0.25500000000E-02 0.  1.
          2   -1    0    0  501    0  0.00000000000E+00 -0.00000000000E+00 -0.33430965801E+04  0.33430965801E+04  0.25500000000E-02 0. -1.
    8880023    1    1    2    0    0 -0.68932144650E+03 -0.88865596492E+03 -0.63856884036E+03  0.14513627564E+04  0.65864270000E+03 0.  0.
    8880022    1    1    2    0    0  0.68932144650E+03  0.88865596492E+03 -0.21579880684E+04  0.24382734951E+04  0.15294330000E+03 0.  0.
<mgrwt>
<rscale>  0 0.12590496E+04</rscale>
<asrwt>0</asrwt>
<pdfrwt beam="1">  1        2 0.51432254E+00 0.13033356E+04</pdfrwt>
<pdfrwt beam="2">  1       -2 0.84083029E-01 0.13033356E+04</pdfrwt>
<totfact> 0.12688413E+00</totfact>
</mgrwt>
</event>
<event>
 4    1  0.2502834E-007  0.7114112E+03  0.7818608E-02  0.9952797E-01
          2   -1    0    0  501    0  0.00000000000E+00  0.00000000000E+00  0.23445246925E+04  0.23445246925E+04  0.25500000000E-02 0. -1.
         -2   -1    0    0    0  501 -0.00000000000E+00 -0.00000000000E+00 -0.22755296338E+03  0.22755296339E+03  0.25500000000E-02 0.  1.
    8880023    1    1    2    0    0 -0.15657672458E+03  0.21858516966E+03  0.37759570274E+03  0.80540950333E+03  0.65864270000E+03 0.  1.
    8880022    1    1    2    0    0  0.15657672458E+03 -0.21858516966E+03  0.17393760264E+04  0.17666681525E+04  0.15294330000E+03 0.  0.
<mgrwt>
<rscale>  0 0.57769337E+03</rscale>
<asrwt>0</asrwt>
<pdfrwt beam="1">  1        2 0.36069611E+00 0.71141124E+03</pdfrwt>
<pdfrwt beam="2">  1       -2 0.35008148E-01 0.71141124E+03</pdfrwt>
<totfact> 0.34213344E+01</totfact>
</mgrwt>
</event>
<event>
 4    1  0.2502834E-007  0.1255329E+04  0.7818608E-02  0.9105130E-01
          2   -1    0    0  501    0  0.00000000000E+00  0.00000000000E+00  0.23902091579E+04  0.23902091579E+04  0.25500000000E-02 0. -1.
         -2   -1    0    0    0  501 -0.00000000000E+00 -0.00000000000E+00 -0.72393672029E+03  0.72393672030E+03  0.25500000000E-02 0.  1.
    8880023    1    1    2    0    0  0.27458962506E+03 -0.10327827401E+04  0.16661801130E+03  0.12663377979E+04  0.65864270000E+03 0.  0.
    8880022    1    1    2    0    0 -0.27458962506E+03  0.10327827401E+04  0.14996544263E+04  0.18478080804E+04  0.15294330000E+03 0.  0.
<mgrwt>
<rscale>  0 0.12088680E+04</rscale>
<asrwt>0</asrwt>
<pdfrwt beam="1">  1        2 0.36772449E+00 0.12553286E+04</pdfrwt>
<pdfrwt beam="2">  1       -2 0.11137488E+00 0.12553286E+04</pdfrwt>
<totfact> 0.25019137E+00</totfact>
</mgrwt>
</event>
<event>
 4    1  0.2502834E-007  0.1313343E+04  0.7818608E-02  0.9054122E-01
          2   -1    0    0  501    0  0.00000000000E+00  0.00000000000E+00  0.16470885865E+04  0.16470885865E+04  0.25500000000E-02 0. -1.
         -2   -1    0    0    0  501 -0.00000000000E+00 -0.00000000000E+00 -0.12870025957E+04  0.12870025957E+04  0.25500000000E-02 0.  1.
    8880023    1    1    2    0    0  0.10222844098E+04  0.49597734046E+03  0.97257324883E+03  0.16342484106E+04  0.65864270000E+03 0.  0.
    8880022    1    1    2    0    0 -0.10222844098E+04 -0.49597734046E+03 -0.61248725806E+03  0.12998427717E+04  0.15294330000E+03 0.  0.
<mgrwt>
<rscale>  0 0.12694821E+04</rscale>
<asrwt>0</asrwt>
<pdfrwt beam="1">  1        2 0.25339824E+00 0.13133427E+04</pdfrwt>
<pdfrwt beam="2">  1       -2 0.19800040E+00 0.13133427E+04</pdfrwt>
<totfact> 0.13789326E+00</totfact>
</mgrwt>
</event>
<event>
 4    1  0.2502834E-007  0.7530601E+03  0.7818608E-02  0.9823417E-01
          2   -1    0    0  501    0  0.00000000000E+00  0.00000000000E+00  0.15747513677E+04  0.15747513677E+04  0.25500000000E-02 0. -1.
         -2   -1    0    0    0  501 -0.00000000000E+00 -0.00000000000E+00 -0.51376397155E+03  0.51376397156E+03  0.25500000000E-02 0.  1.
    8880023    1    1    2    0    0 -0.27124331254E+03 -0.24436928794E+03 -0.18978244642E+03  0.77660599194E+03  0.65864270000E+03 0.  1.
    8880022    1    1    2    0    0  0.27124331254E+03  0.24436928794E+03  0.12507698425E+04  0.13119093473E+04  0.15294330000E+03 0.  0.
<mgrwt>
<rscale>  0 0.64120846E+03</rscale>
<asrwt>0</asrwt>
<pdfrwt beam="1">  1        2 0.24226944E+00 0.75306008E+03</pdfrwt>
<pdfrwt beam="2">  1       -2 0.79040612E-01 0.75306008E+03</pdfrwt>
<totfact> 0.16775580E+01</totfact>
</mgrwt>
</event>
<event>
 4    1  0.2502834E-007  0.8538941E+03  0.7818608E-02  0.9604518E-01
         -2   -1    0    0    0  501 -0.00000000000E+00  0.00000000000E+00  0.72044566292E+03  0.72044566292E+03  0.25500000000E-02 0.  1.
          2   -1    0    0  501    0  0.00000000000E+00 -0.00000000000E+00 -0.13061334708E+04  0.13061334708E+04  0.25500000000E-02 0. -1.
    8880023    1    1    2    0    0 -0.43761666650E+03 -0.32220569720E+03  0.35881077578E+03  0.92621824490E+03  0.65864270000E+03 0.  1.
    8880022    1    1    2    0    0  0.43761666650E+03  0.32220569720E+03 -0.94449858370E+03  0.11003608889E+04  0.15294330000E+03 0.  0.
<mgrwt>
<rscale>  0 0.76997844E+03</rscale>
<asrwt>0</asrwt>
<pdfrwt beam="1">  1        2 0.20094361E+00 0.85389406E+03</pdfrwt>
<pdfrwt beam="2">  1       -2 0.11083779E+00 0.85389406E+03</pdfrwt>
<totfact> 0.10667818E+01</totfact>
</mgrwt>
</event>
<event>
 4    1  0.2502834E-007  0.1221339E+04  0.7818608E-02  0.9136654E-01
          2   -1    0    0  501    0  0.00000000000E+00  0.00000000000E+00  0.23914585113E+04  0.23914585113E+04  0.25500000000E-02 0. -1.
         -2   -1    0    0    0  501 -0.00000000000E+00 -0.00000000000E+00 -0.57341041479E+03  0.57341041479E+03  0.25500000000E-02 0.  1.
    8880023    1    1    2    0    0 -0.68719622952E+03  0.76525747676E+03  0.13620717086E+04  0.18294554406E+04  0.65864270000E+03 0. -1.
    8880022    1    1    2    0    0  0.68719622952E+03 -0.76525747676E+03  0.45597638789E+03  0.11354134854E+04  0.15294330000E+03 0.  0.
<mgrwt>
<rscale>  0 0.11731885E+04</rscale>
<asrwt>0</asrwt>
<pdfrwt beam="1">  1        2 0.36791670E+00 0.12213386E+04</pdfrwt>
<pdfrwt beam="2">  1       -2 0.88216986E-01 0.12213386E+04</pdfrwt>
<totfact> 0.43675642E+00</totfact>
</mgrwt>
</event>
<event>
 4    1  0.2502834E-007  0.9811785E+03  0.7818608E-02  0.9406607E-01
         -2   -1    0    0    0  501 -0.00000000000E+00  0.00000000000E+00  0.33179723181E+03  0.33179723182E+03  0.25500000000E-02 0.  1.
          2   -1    0    0  501    0  0.00000000000E+00 -0.00000000000E+00 -0.32754964563E+04  0.32754964563E+04  0.25500000000E-02 0. -1.
    8880023    1    1    2    0    0  0.71454717188E+03 -0.13536420641E+03 -0.60348745301E+03  0.11519151190E+04  0.65864270000E+03 0.  0.
    8880022    1    1    2    0    0 -0.71454717188E+03  0.13536420641E+03 -0.23402117715E+04  0.24553785691E+04  0.15294330000E+03 0.  0.
<mgrwt>
<rscale>  0 0.91533950E+03</rscale>
<asrwt>0</asrwt>
<pdfrwt beam="1">  1        2 0.50392251E+00 0.98117854E+03</pdfrwt>
<pdfrwt beam="2">  1       -2 0.51045730E-01 0.98117854E+03</pdfrwt>
<totfact> 0.43349298E+00</totfact>
</mgrwt>
</event>
<event>
 4    1  0.2502834E-007  0.1207891E+04  0.7818608E-02  0.9149490E-01
         -2   -1    0    0    0  501 -0.00000000000E+00  0.00000000000E+00  0.12516268352E+04  0.12516268352E+04  0.25500000000E-02 0.  1.
          2   -1    0    0  501    0  0.00000000000E+00 -0.00000000000E+00 -0.18652895208E+04  0.18652895208E+04  0.25500000000E-02 0. -1.
    8880023    1    1    2    0    0  0.98832204135E+03 -0.22002226076E+03  0.74229019491E+03  0.14177429924E+04  0.65864270000E+03 0.  1.
    8880022    1    1    2    0    0 -0.98832204135E+03  0.22002226076E+03 -0.13559528805E+04  0.16991733636E+04  0.15294330000E+03 0.  0.
<mgrwt>
<rscale>  0 0.11590337E+04</rscale>
<asrwt>0</asrwt>
<pdfrwt beam="1">  1        2 0.28696762E+00 0.12078909E+04</pdfrwt>
<pdfrwt beam="2">  1       -2 0.19255797E+00 0.12078909E+04</pdfrwt>
<totfact> 0.11471136E+00</totfact>
</mgrwt>
</event>
<event>
 4    1  0.2502834E-007  0.8216689E+03  0.7818608E-02  0.9665765E-01
         -2   -1    0    0    0  501 -0.00000000000E+00  0.00000000000E+00  0.12504854440E+04  0.12504854440E+04  0.25500000000E-02 0.  1.
          2   -1    0    0  501    0  0.00000000000E+00 -0.00000000000E+00 -0.41148949182E+03  0.41148949183E+03  0.25500000000E-02 0. -1.
    8880023    1    1    2    0    0 -0.48142516178E+03 -0.97772055020E+02  0.79869965502E+03  0.11458886972E+04  0.65864270000E+03 0.  0.
    8880022    1    1    2    0    0  0.48142516178E+03  0.97772055020E+02  0.40296297159E+02  0.51608623864E+03  0.15294330000E+03 0.  0.
<mgrwt>
<rscale>  0 0.73092232E+03</rscale>
<asrwt>0</asrwt>
<pdfrwt beam="1">  1        2 0.63306076E-01 0.82166889E+03</pdfrwt>
<pdfrwt beam="2">  1       -2 0.19238237E+00 0.82166889E+03</pdfrwt>
<totfact> 0.11628559E+01</totfact>
</mgrwt>
</event>
<event>
 4    1  0.2502834E-007  0.1267014E+04  0.7818608E-02  0.9094582E-01
         -2   -1    0    0    0  501 -0.00000000000E+00  0.00000000000E+00  0.61327153107E+03  0.61327153107E+03  0.25500000000E-02 0.  1.
          2   -1    0    0  501    0  0.00000000000E+00 -0.00000000000E+00 -0.38084372819E+04  0.38084372819E+04  0.25500000000E-02 0. -1.
    8880023    1    1    2    0    0 -0.79841223194E+03 -0.73078894907E+03 -0.26519798662E+03  0.12944708411E+04  0.65864270000E+03 0.  0.
    8880022    1    1    2    0    0  0.79841223194E+03  0.73078894907E+03 -0.29299677642E+04  0.31272379719E+04  0.15294330000E+03 0.  0.
<mgrwt>
<rscale>  0 0.12211045E+04</rscale>
<asrwt>0</asrwt>
<pdfrwt beam="1">  1        2 0.58591341E+00 0.12670141E+04</pdfrwt>
<pdfrwt beam="2">  1       -2 0.94349469E-01 0.12670141E+04</pdfrwt>
<totfact> 0.45767728E-01</totfact>
</mgrwt>
</event>
<event>
 4    1  0.2502834E-007  0.6638411E+03  0.7818608E-02  0.1020526E+00
         -2   -1    0    0    0  501 -0.00000000000E+00  0.00000000000E+00  0.33414803745E+03  0.33414803746E+03  0.25500000000E-02 0.  1.
          2   -1    0    0  501    0  0.00000000000E+00 -0.00000000000E+00 -0.94415625018E+03  0.94415625018E+03  0.25500000000E-02 0. -1.
    8880023    1    1    2    0    0 -0.34564531509E+02 -0.75366383630E+02 -0.21035204037E+02  0.66417428789E+03  0.65864270000E+03 0.  1.
    8880022    1    1    2    0    0  0.34564531509E+02  0.75366383630E+02 -0.58897300869E+03  0.61412999976E+03  0.15294330000E+03 0.  0.
<mgrwt>
<rscale>  0 0.47497231E+03</rscale>
<asrwt>0</asrwt>
<pdfrwt beam="1">  1        2 0.14525481E+00 0.66384110E+03</pdfrwt>
<pdfrwt beam="2">  1       -2 0.51407391E-01 0.66384110E+03</pdfrwt>
<totfact> 0.99870143E+01</totfact>
</mgrwt>
</event>
<event>
 4    1  0.2502834E-007  0.7018908E+03  0.7818608E-02  0.9989446E-01
         -2   -1    0    0    0  501 -0.00000000000E+00  0.00000000000E+00  0.51515498290E+03  0.51515498291E+03  0.25500000000E-02 0.  1.
          2   -1    0    0  501    0  0.00000000000E+00 -0.00000000000E+00 -0.11119705661E+04  0.11119705661E+04  0.25500000000E-02 0. -1.
    8880023    1    1    2    0    0 -0.24170229497E+03 -0.20504396186E+02  0.24059116157E+03  0.74198028474E+03  0.65864270000E+03 0.  1.
    8880022    1    1    2    0    0  0.24170229497E+03  0.20504396186E+02 -0.83740674476E+03  0.88514526426E+03  0.15294330000E+03 0.  0.
<mgrwt>
<rscale>  0 0.56115431E+03</rscale>
<asrwt>0</asrwt>
<pdfrwt beam="1">  1        2 0.17107239E+00 0.70189076E+03</pdfrwt>
<pdfrwt beam="2">  1       -2 0.79254613E-01 0.70189076E+03</pdfrwt>
<totfact> 0.30919230E+01</totfact>
</mgrwt>
</event>
<event>
 4    1  0.2502834E-007  0.1020088E+04  0.7818608E-02  0.9355736E-01
         -2   -1    0    0    0  501 -0.00000000000E+00  0.00000000000E+00  0.95592607739E+03  0.95592607740E+03  0.25500000000E-02 0.  1.
          2   -1    0    0  501    0  0.00000000000E+00 -0.00000000000E+00 -0.11678776672E+04  0.11678776672E+04  0.25500000000E-02 0. -1.
    8880023    1    1    2    0    0 -0.76528430486E+03  0.14528823660E+03 -0.65736783262E+03  0.12135532179E+04  0.65864270000E+03 0.  0.
    8880022    1    1    2    0    0  0.76528430486E+03 -0.14528823660E+03  0.44541624285E+03  0.91025052670E+03  0.15294330000E+03 0.  0.
<mgrwt>
<rscale>  0 0.95809710E+03</rscale>
<asrwt>0</asrwt>
<pdfrwt beam="1">  1        2 0.17967349E+00 0.10200877E+04</pdfrwt>
<pdfrwt beam="2">  1       -2 0.14706555E+00 0.10200877E+04</pdfrwt>
<totfact> 0.61853369E+00</totfact>
</mgrwt>
</event>
<event>
 4    1  0.2502834E-007  0.8723671E+03  0.7818608E-02  0.9571932E-01
         -2   -1    0    0    0  501 -0.00000000000E+00  0.00000000000E+00  0.29262369463E+03  0.29262369464E+03  0.25500000000E-02 0.  1.
          2   -1    0    0  501    0  0.00000000000E+00 -0.00000000000E+00 -0.44074142246E+04  0.44074142246E+04  0.25500000000E-02 0. -1.
    8880023    1    1    2    0    0  0.55563515376E+03  0.13595484678E+03 -0.43851158952E+03  0.97637941645E+03  0.65864270000E+03 0.  1.
    8880022    1    1    2    0    0 -0.55563515376E+03 -0.13595484678E+03 -0.36762789405E+04  0.37236585028E+04  0.15294330000E+03 0.  0.
<mgrwt>
<rscale>  0 0.79182069E+03</rscale>
<asrwt>0</asrwt>
<pdfrwt beam="1">  1        2 0.67806368E+00 0.87236710E+03</pdfrwt>
<pdfrwt beam="2">  1       -2 0.45019033E-01 0.87236710E+03</pdfrwt>
<totfact> 0.77815391E-01</totfact>
</mgrwt>
</event>
<event>
 4    1  0.2502834E-007  0.7320814E+03  0.7818608E-02  0.9883644E-01
          2   -1    0    0  501    0  0.00000000000E+00  0.00000000000E+00  0.26802290951E+04  0.26802290951E+04  0.25500000000E-02 0. -1.
         -2   -1    0    0    0  501 -0.00000000000E+00 -0.00000000000E+00 -0.21439939039E+03  0.21439939041E+03  0.25500000000E-02 0.  1.
    8880023    1    1    2    0    0 -0.22019038578E+03 -0.23162294915E+03  0.47536344904E+03  0.87287663018E+03  0.65864270000E+03 0.  1.
    8880022    1    1    2    0    0  0.22019038578E+03  0.23162294915E+03  0.19904662557E+04  0.20217518553E+04  0.15294330000E+03 0.  0.
<mgrwt>
<rscale>  0 0.61060543E+03</rscale>
<asrwt>0</asrwt>
<pdfrwt beam="1">  1        2 0.41234293E+00 0.73208142E+03</pdfrwt>
<pdfrwt beam="2">  1       -2 0.32984522E-01 0.73208142E+03</pdfrwt>
<totfact> 0.24619061E+01</totfact>
</mgrwt>
</event>
<event>
 4    1  0.2502834E-007  0.1111112E+04  0.7818608E-02  0.9248784E-01
         -2   -1    0    0    0  501 -0.00000000000E+00  0.00000000000E+00  0.11054021993E+04  0.11054021993E+04  0.25500000000E-02 0.  1.
          2   -1    0    0  501    0  0.00000000000E+00 -0.00000000000E+00 -0.18225201132E+04  0.18225201132E+04  0.25500000000E-02 0. -1.
    8880023    1    1    2    0    0  0.87755521926E+03 -0.17509070315E+03 -0.14033149294E+04  0.17899337738E+04  0.65864270000E+03 0.  0.
    8880022    1    1    2    0    0 -0.87755521926E+03  0.17509070315E+03  0.68619701545E+03  0.11379885387E+04  0.15294330000E+03 0.  0.
<mgrwt>
<rscale>  0 0.10563779E+04</rscale>
<asrwt>0</asrwt>
<pdfrwt beam="1">  1        2 0.28038771E+00 0.11111121E+04</pdfrwt>
<pdfrwt beam="2">  1       -2 0.17006188E+00 0.11111121E+04</pdfrwt>
<totfact> 0.17518368E+00</totfact>
</mgrwt>
</event>
<event>
 4    1  0.2502834E-007  0.6932634E+03  0.7818608E-02  0.1002639E+00
          2   -1    0    0  501    0  0.00000000000E+00  0.00000000000E+00  0.82212462634E+03  0.82212462634E+03  0.25500000000E-02 0. -1.
         -2   -1    0    0    0  501 -0.00000000000E+00 -0.00000000000E+00 -0.88540092816E+03  0.88540092816E+03  0.25500000000E-02 0.  1.
    8880023    1    1    2    0    0  0.87715452538E+01  0.21616416282E+03 -0.71991807201E+03  0.99944790858E+03  0.65864270000E+03 0.  1.
    8880022    1    1    2    0    0 -0.87715452538E+01 -0.21616416282E+03  0.65664177019E+03  0.70807764593E+03  0.15294330000E+03 0.  0.
<mgrwt>
<rscale>  0 0.54508267E+03</rscale>
<asrwt>0</asrwt>
<pdfrwt beam="1">  1        2 0.12648071E+00 0.69326336E+03</pdfrwt>
<pdfrwt beam="2">  1       -2 0.13621553E+00 0.69326336E+03</pdfrwt>
<totfact> 0.13086022E+01</totfact>
</mgrwt>
</event>
<event>
 4    1  0.2502834E-007  0.1118514E+04  0.7818608E-02  0.9240718E-01
         -2   -1    0    0    0  501 -0.00000000000E+00  0.00000000000E+00  0.10797754396E+04  0.10797754397E+04  0.25500000000E-02 0.  1.
          2   -1    0    0  501    0  0.00000000000E+00 -0.00000000000E+00 -0.19081674596E+04  0.19081674596E+04  0.25500000000E-02 0. -1.
    8880023    1    1    2    0    0  0.43304783224E+03  0.79355644483E+03  0.61614804045E+03  0.12769929014E+04  0.65864270000E+03 0.  1.
    8880022    1    1    2    0    0 -0.43304783224E+03 -0.79355644483E+03 -0.14445400604E+04  0.17109499979E+04  0.15294330000E+03 0.  0.
<mgrwt>
<rscale>  0 0.10642853E+04</rscale>
<asrwt>0</asrwt>
<pdfrwt beam="1">  1        2 0.29356422E+00 0.11185135E+04</pdfrwt>
<pdfrwt beam="2">  1       -2 0.16611930E+00 0.11185135E+04</pdfrwt>
<totfact> 0.16755151E+00</totfact>
</mgrwt>
</event>
<event>
 4    1  0.2502834E-007  0.1051496E+04  0.7818608E-02  0.9317085E-01
          2   -1    0    0  501    0  0.00000000000E+00  0.00000000000E+00  0.15340937615E+04  0.15340937615E+04  0.25500000000E-02 0. -1.
         -2   -1    0    0    0  501 -0.00000000000E+00 -0.00000000000E+00 -0.19944400250E+04  0.19944400250E+04  0.25500000000E-02 0.  1.
    8880023    1    1    2    0    0 -0.81278207419E+02 -0.81561503523E+03 -0.17211692208E+04  0.20169451469E+04  0.65864270000E+03 0.  1.
    8880022    1    1    2    0    0  0.81278207419E+02  0.81561503523E+03  0.12608229573E+04  0.15115886396E+04  0.15294330000E+03 0.  0.
<mgrwt>
<rscale>  0 0.99225091E+03</rscale>
<asrwt>0</asrwt>
<pdfrwt beam="1">  1        2 0.23601442E+00 0.10514962E+04</pdfrwt>
<pdfrwt beam="2">  1       -2 0.30683693E+00 0.10514962E+04</pdfrwt>
<totfact> 0.34975985E-01</totfact>
</mgrwt>
</event>
<event>
 4    1  0.2502834E-007  0.6692168E+03  0.7818608E-02  0.1016231E+00
          2   -1    0    0  501    0  0.00000000000E+00  0.00000000000E+00  0.19837079839E+04  0.19837079839E+04  0.25500000000E-02 0. -1.
         -2   -1    0    0    0  501 -0.00000000000E+00 -0.00000000000E+00 -0.85834062851E+03  0.85834062851E+03  0.25500000000E-02 0.  1.
    8880023    1    1    2    0    0 -0.47290072758E+02 -0.10864871382E+03 -0.72207579279E+03  0.98450218425E+03  0.65864270000E+03 0.  1.
    8880022    1    1    2    0    0  0.47290072758E+02  0.10864871382E+03  0.18474431482E+04  0.18575464281E+04  0.15294330000E+03 0.  0.
<mgrwt>
<rscale>  0 0.49071721E+03</rscale>
<asrwt>0</asrwt>
<pdfrwt beam="1">  1        2 0.30518584E+00 0.66921678E+03</pdfrwt>
<pdfrwt beam="2">  1       -2 0.13205240E+00 0.66921678E+03</pdfrwt>
<totfact> 0.29962282E+00</totfact>
</mgrwt>
</event>
<event>
 4    1  0.2502834E-007  0.8267666E+03  0.7818608E-02  0.9655657E-01
          2   -1    0    0  501    0  0.00000000000E+00  0.00000000000E+00  0.81414931226E+03  0.81414931226E+03  0.25500000000E-02 0. -1.
         -2   -1    0    0    0  501 -0.00000000000E+00 -0.00000000000E+00 -0.25347137278E+04  0.25347137278E+04  0.25500000000E-02 0.  1.
    8880023    1    1    2    0    0 -0.39211618743E+03 -0.30980271039E+03 -0.23730123681E+04  0.25129127977E+04  0.65864270000E+03 0.  1.
    8880022    1    1    2    0    0  0.39211618743E+03  0.30980271039E+03  0.65244795254E+03  0.83595024230E+03  0.15294330000E+03 0.  0.
<mgrwt>
<rscale>  0 0.73719482E+03</rscale>
<asrwt>0</asrwt>
<pdfrwt beam="1">  1        2 0.12525374E+00 0.82676661E+03</pdfrwt>
<pdfrwt beam="2">  1       -2 0.38995595E+00 0.82676661E+03</pdfrwt>
<totfact> 0.30442643E-01</totfact>
</mgrwt>
</event>
<event>
 4    1  0.2502834E-007  0.9868695E+03  0.7818608E-02  0.9398941E-01
          2   -1    0    0  501    0  0.00000000000E+00  0.00000000000E+00  0.18424448800E+04  0.18424448800E+04  0.25500000000E-02 0. -1.
         -2   -1    0    0    0  501 -0.00000000000E+00 -0.00000000000E+00 -0.78267616734E+03  0.78267616735E+03  0.25500000000E-02 0.  1.
    8880023    1    1    2    0    0  0.15906617566E+03 -0.71749510288E+03 -0.33416793471E+03  0.10419115537E+04  0.65864270000E+03 0.  0.
    8880022    1    1    2    0    0 -0.15906617566E+03  0.71749510288E+03  0.13939366474E+04  0.15832094937E+04  0.15294330000E+03 0.  0.
<mgrwt>
<rscale>  0 0.92162843E+03</rscale>
<asrwt>0</asrwt>
<pdfrwt beam="1">  1        2 0.28345306E+00 0.98686953E+03</pdfrwt>
<pdfrwt beam="2">  1       -2 0.12041172E+00 0.98686953E+03</pdfrwt>
<totfact> 0.42974300E+00</totfact>
</mgrwt>
</event>
<event>
 4    1  0.2502834E-007  0.7451363E+03  0.7818608E-02  0.9845230E-01
          2   -1    0    0  501    0  0.00000000000E+00  0.00000000000E+00  0.59651022489E+03  0.59651022490E+03  0.25500000000E-02 0. -1.
         -2   -1    0    0    0  501 -0.00000000000E+00 -0.00000000000E+00 -0.12228056390E+04  0.12228056390E+04  0.25500000000E-02 0.  1.
    8880023    1    1    2    0    0 -0.25732931160E+03 -0.23494567746E+03 -0.10256104393E+04  0.12677163821E+04  0.65864270000E+03 0.  1.
    8880022    1    1    2    0    0  0.25732931160E+03  0.23494567746E+03  0.39931502520E+03  0.55159948181E+03  0.15294330000E+03 0.  1.
<mgrwt>
<rscale>  0 0.62990696E+03</rscale>
<asrwt>0</asrwt>
<pdfrwt beam="1">  1        2 0.91770804E-01 0.74513626E+03</pdfrwt>
<pdfrwt beam="2">  1       -2 0.18812394E+00 0.74513626E+03</pdfrwt>
<totfact> 0.81213478E+00</totfact>
</mgrwt>
</event>
<event>
 4    1  0.2502834E-007  0.7744372E+03  0.7818608E-02  0.9769070E-01
          2   -1    0    0  501    0  0.00000000000E+00  0.00000000000E+00  0.26391759365E+04  0.26391759365E+04  0.25500000000E-02 0. -1.
         -2   -1    0    0    0  501 -0.00000000000E+00 -0.00000000000E+00 -0.73656573768E+03  0.73656573768E+03  0.25500000000E-02 0.  1.
    8880023    1    1    2    0    0 -0.26645373621E+02  0.40648841475E+03 -0.50799417291E+03  0.92618091820E+03  0.65864270000E+03 0.  1.
    8880022    1    1    2    0    0  0.26645373621E+02 -0.40648841475E+03  0.24106043717E+04  0.24495607560E+04  0.15294330000E+03 0.  0.
<mgrwt>
<rscale>  0 0.67049165E+03</rscale>
<asrwt>0</asrwt>
<pdfrwt beam="1">  1        2 0.40602706E+00 0.77443722E+03</pdfrwt>
<pdfrwt beam="2">  1       -2 0.11331781E+00 0.77443722E+03</pdfrwt>
<totfact> 0.18522248E+00</totfact>
</mgrwt>
</event>
<event>
 4    1  0.2502834E-007  0.7262546E+03  0.7818608E-02  0.9901964E-01
         -2   -1    0    0    0  501 -0.00000000000E+00  0.00000000000E+00  0.56862593989E+03  0.56862593990E+03  0.25500000000E-02 0.  1.
          2   -1    0    0  501    0  0.00000000000E+00 -0.00000000000E+00 -0.24557254933E+04  0.24557254933E+04  0.25500000000E-02 0. -1.
    8880023    1    1    2    0    0  0.17124116941E+03 -0.25359817121E+03  0.31803608677E+03  0.79283840049E+03  0.65864270000E+03 0.  1.
    8880022    1    1    2    0    0 -0.17124116941E+03  0.25359817121E+03 -0.22051356401E+04  0.22315130327E+04  0.15294330000E+03 0.  0.
<mgrwt>
<rscale>  0 0.60166195E+03</rscale>
<asrwt>0</asrwt>
<pdfrwt beam="1">  1        2 0.37780392E+00 0.72625462E+03</pdfrwt>
<pdfrwt beam="2">  1       -2 0.87480915E-01 0.72625462E+03</pdfrwt>
<totfact> 0.43875955E+00</totfact>
</mgrwt>
</event>
<event>
 4    1  0.2502834E-007  0.9128030E+03  0.7818608E-02  0.9505784E-01
         -2   -1    0    0    0  501 -0.00000000000E+00  0.00000000000E+00  0.31082791854E+03  0.31082791855E+03  0.25500000000E-02 0.  1.
          2   -1    0    0  501    0  0.00000000000E+00 -0.00000000000E+00 -0.39158744074E+04  0.39158744074E+04  0.25500000000E-02 0. -1.
    8880023    1    1    2    0    0  0.41398040703E+03  0.47751366531E+03 -0.47338842846E+03  0.10282538055E+04  0.65864270000E+03 0.  1.
    8880022    1    1    2    0    0 -0.41398040703E+03 -0.47751366531E+03 -0.31316580604E+04  0.31984485205E+04  0.15294330000E+03 0.  0.
<mgrwt>
<rscale>  0 0.83858766E+03</rscale>
<asrwt>0</asrwt>
<pdfrwt beam="1">  1        2 0.60244218E+00 0.91280298E+03</pdfrwt>
<pdfrwt beam="2">  1       -2 0.47819682E-01 0.91280298E+03</pdfrwt>
<totfact> 0.17684006E+00</totfact>
</mgrwt>
</event>
<event>
 4    1  0.2502834E-007  0.9273305E+03  0.7818608E-02  0.9483509E-01
         -2   -1    0    0    0  501 -0.00000000000E+00  0.00000000000E+00  0.74668632457E+03  0.74668632458E+03  0.25500000000E-02 0.  1.
          2   -1    0    0  501    0  0.00000000000E+00 -0.00000000000E+00 -0.99033320435E+03  0.99033320436E+03  0.25500000000E-02 0. -1.
    8880023    1    1    2    0    0 -0.78050181117E+02 -0.64810483468E+03  0.17901321136E+03  0.94445097470E+03  0.65864270000E+03 0.  1.
    8880022    1    1    2    0    0  0.78050181117E+02  0.64810483468E+03 -0.42266009114E+03  0.79256855424E+03  0.15294330000E+03 0.  0.
<mgrwt>
<rscale>  0 0.85510600E+03</rscale>
<asrwt>0</asrwt>
<pdfrwt beam="1">  1        2 0.15235895E+00 0.92733053E+03</pdfrwt>
<pdfrwt beam="2">  1       -2 0.11487482E+00 0.92733053E+03</pdfrwt>
<totfact> 0.15094022E+01</totfact>
</mgrwt>
</event>
<event>
 4    1  0.2502834E-007  0.1366218E+04  0.7818608E-02  0.9010387E-01
         -2   -1    0    0    0  501 -0.00000000000E+00  0.00000000000E+00  0.26700861267E+04  0.26700861267E+04  0.25500000000E-02 0.  1.
          2   -1    0    0  501    0  0.00000000000E+00 -0.00000000000E+00 -0.10543828274E+04  0.10543828274E+04  0.25500000000E-02 0. -1.
    8880023    1    1    2    0    0  0.23529652111E+03 -0.11736166763E+04  0.20314716724E+04  0.24481478546E+04  0.65864270000E+03 0.  0.
    8880022    1    1    2    0    0 -0.23529652111E+03  0.11736166763E+04 -0.41576837313E+03  0.12763210994E+04  0.15294330000E+03 0.  0.
<mgrwt>
<rscale>  0 0.13244636E+04</rscale>
<asrwt>0</asrwt>
<pdfrwt beam="1">  1        2 0.16221274E+00 0.13662177E+04</pdfrwt>
<pdfrwt beam="2">  1       -2 0.41078248E+00 0.13662177E+04</pdfrwt>
<totfact> 0.14140434E-01</totfact>
</mgrwt>
</event>
<event>
 4    1  0.2502834E-007  0.7554631E+03  0.7818608E-02  0.9816998E-01
         -2   -1    0    0    0  501 -0.00000000000E+00  0.00000000000E+00  0.37362456999E+03  0.37362457000E+03  0.25500000000E-02 0.  1.
          2   -1    0    0  501    0  0.00000000000E+00 -0.00000000000E+00 -0.13786141834E+04  0.13786141834E+04  0.25500000000E-02 0. -1.
    8880023    1    1    2    0    0 -0.28518819483E+03  0.23575817705E+03 -0.99254927849E+02  0.76195536056E+03  0.65864270000E+03 0.  1.
    8880022    1    1    2    0    0  0.28518819483E+03 -0.23575817705E+03 -0.90573468553E+03  0.99028339282E+03  0.15294330000E+03 0.  0.
<mgrwt>
<rscale>  0 0.64458264E+03</rscale>
<asrwt>0</asrwt>
<pdfrwt beam="1">  1        2 0.21209449E+00 0.75546306E+03</pdfrwt>
<pdfrwt beam="2">  1       -2 0.57480704E-01 0.75546306E+03</pdfrwt>
<totfact> 0.43040857E+01</totfact>
</mgrwt>
</event>
<event>
 4    1  0.2502834E-007  0.7503963E+03  0.7818608E-02  0.9830637E-01
          2   -1    0    0  501    0  0.00000000000E+00  0.00000000000E+00  0.14857027376E+04  0.14857027376E+04  0.25500000000E-02 0. -1.
         -2   -1    0    0    0  501 -0.00000000000E+00 -0.00000000000E+00 -0.13851907937E+04  0.13851907937E+04  0.25500000000E-02 0.  1.
    8880023    1    1    2    0    0 -0.32796866545E+03  0.14738041491E+03 -0.12538771111E+04  0.14612674116E+04  0.65864270000E+03 0.  1.
    8880022    1    1    2    0    0  0.32796866545E+03 -0.14738041491E+03  0.13543890550E+04  0.14096261198E+04  0.15294330000E+03 0.  0.
<mgrwt>
<rscale>  0 0.63744013E+03</rscale>
<asrwt>0</asrwt>
<pdfrwt beam="1">  1        2 0.22856965E+00 0.75039632E+03</pdfrwt>
<pdfrwt beam="2">  1       -2 0.21310628E+00 0.75039632E+03</pdfrwt>
<totfact> 0.14627820E+00</totfact>
</mgrwt>
</event>
<event>
 4    1  0.2502834E-007  0.7831639E+03  0.7818608E-02  0.9748457E-01
         -2   -1    0    0    0  501 -0.00000000000E+00  0.00000000000E+00  0.66779177747E+03  0.66779177748E+03  0.25500000000E-02 0.  1.
          2   -1    0    0  501    0  0.00000000000E+00 -0.00000000000E+00 -0.12014842010E+04  0.12014842010E+04  0.25500000000E-02 0. -1.
    8880023    1    1    2    0    0 -0.41981088277E+03  0.57395540219E+02  0.36496894585E+03  0.86403007068E+03  0.65864270000E+03 0.  1.
    8880022    1    1    2    0    0  0.41981088277E+03 -0.57395540219E+02 -0.89866136936E+03  0.10052459078E+04  0.15294330000E+03 0.  0.
<mgrwt>
<rscale>  0 0.68203550E+03</rscale>
<asrwt>0</asrwt>
<pdfrwt beam="1">  1        2 0.18484372E+00 0.78316386E+03</pdfrwt>
<pdfrwt beam="2">  1       -2 0.10273720E+00 0.78316386E+03</pdfrwt>
<totfact> 0.14867005E+01</totfact>
</mgrwt>
</event>
<event>
 4    1  0.2502834E-007  0.8903141E+03  0.7818608E-02  0.9541763E-01
          2   -1    0    0  501    0  0.00000000000E+00  0.00000000000E+00  0.38820060154E+04  0.38820060154E+04  0.25500000000E-02 0. -1.
         -2   -1    0    0    0  501 -0.00000000000E+00 -0.00000000000E+00 -0.42376214324E+03  0.42376214325E+03  0.25500000000E-02 0.  1.
    8880023    1    1    2    0    0  0.21389295047E+03 -0.55955236223E+03  0.10555362426E+03  0.89654939306E+03  0.65864270000E+03 0.  1.
    8880022    1    1    2    0    0 -0.21389295047E+03  0.55955236223E+03  0.33526902479E+04  0.34092187656E+04  0.15294330000E+03 0.  0.
<mgrwt>
<rscale>  0 0.81273612E+03</rscale>
<asrwt>0</asrwt>
<pdfrwt beam="1">  1        2 0.59723168E+00 0.89031413E+03</pdfrwt>
<pdfrwt beam="2">  1       -2 0.65194177E-01 0.89031413E+03</pdfrwt>
<totfact> 0.98737483E-01</totfact>
</mgrwt>
</event>
<event>
 4    1  0.2502834E-007  0.8457836E+03  0.7818608E-02  0.9619370E-01
         -2   -1    0    0    0  501 -0.00000000000E+00  0.00000000000E+00  0.38448909842E+03  0.38448909843E+03  0.25500000000E-02 0.  1.
          2   -1    0    0  501    0  0.00000000000E+00 -0.00000000000E+00 -0.22871196926E+04  0.22871196926E+04  0.25500000000E-02 0. -1.
    8880023    1    1    2    0    0 -0.53048398772E+03 -0.11242158336E+02 -0.18281577521E+03  0.86531581592E+03  0.65864270000E+03 0.  1.
    8880022    1    1    2    0    0  0.53048398772E+03  0.11242158336E+02 -0.17198148189E+04  0.18062929751E+04  0.15294330000E+03 0.  0.
<mgrwt>
<rscale>  0 0.76027321E+03</rscale>
<asrwt>0</asrwt>
<pdfrwt beam="1">  1        2 0.35186456E+00 0.84578357E+03</pdfrwt>
<pdfrwt beam="2">  1       -2 0.59152170E-01 0.84578357E+03</pdfrwt>
<totfact> 0.12646004E+01</totfact>
</mgrwt>
</event>
<event>
 4    1  0.2502834E-007  0.9628059E+03  0.7818608E-02  0.9431924E-01
          2   -1    0    0  501    0  0.00000000000E+00  0.00000000000E+00  0.15535676327E+04  0.15535676327E+04  0.25500000000E-02 0. -1.
         -2   -1    0    0    0  501 -0.00000000000E+00 -0.00000000000E+00 -0.78658404971E+03  0.78658404972E+03  0.25500000000E-02 0.  1.
    8880023    1    1    2    0    0  0.88352008574E+02 -0.69669135205E+03 -0.33934418570E+03  0.10208572868E+04  0.65864270000E+03 0.  1.
    8880022    1    1    2    0    0 -0.88352008574E+02  0.69669135205E+03  0.11063277687E+04  0.13192943956E+04  0.15294330000E+03 0.  0.
<mgrwt>
<rscale>  0 0.89494404E+03</rscale>
<asrwt>0</asrwt>
<pdfrwt beam="1">  1        2 0.23901040E+00 0.96280586E+03</pdfrwt>
<pdfrwt beam="2">  1       -2 0.12101293E+00 0.96280586E+03</pdfrwt>
<totfact> 0.61480187E+00</totfact>
</mgrwt>
</event>
<event>
 4    1  0.2502834E-007  0.1649699E+04  0.7818608E-02  0.8810577E-01
         -2   -1    0    0    0  501 -0.00000000000E+00  0.00000000000E+00  0.22364698928E+04  0.22364698928E+04  0.25500000000E-02 0.  1.
          2   -1    0    0  501    0  0.00000000000E+00 -0.00000000000E+00 -0.18756498142E+04  0.18756498142E+04  0.25500000000E-02 0. -1.
    8880023    1    1    2    0    0  0.14843682939E+04 -0.29042608137E+03  0.14863948821E+04  0.22205576985E+04  0.65864270000E+03 0.  0.
    8880022    1    1    2    0    0 -0.14843682939E+04  0.29042608137E+03 -0.11255748034E+04  0.18915620085E+04  0.15294330000E+03 0.  0.
<mgrwt>
<rscale>  0 0.16163321E+04</rscale>
<asrwt>0</asrwt>
<pdfrwt beam="1">  1        2 0.28856151E+00 0.16496990E+04</pdfrwt>
<pdfrwt beam="2">  1       -2 0.34407229E+00 0.16496990E+04</pdfrwt>
<totfact> 0.12257743E-01</totfact>
</mgrwt>
</event>
<event>
 4    1  0.2502834E-007  0.8813233E+03  0.7818608E-02  0.9556704E-01
          2   -1    0    0  501    0  0.00000000000E+00  0.00000000000E+00  0.26875921592E+04  0.26875921592E+04  0.25500000000E-02 0. -1.
         -2   -1    0    0    0  501 -0.00000000000E+00 -0.00000000000E+00 -0.45181493053E+03  0.45181493053E+03  0.25500000000E-02 0.  1.
    8880023    1    1    2    0    0 -0.41072798524E+03 -0.41740029548E+03  0.62622779204E+02  0.88354530346E+03  0.65864270000E+03 0.  1.
    8880022    1    1    2    0    0  0.41072798524E+03  0.41740029548E+03  0.21731544494E+04  0.22558617863E+04  0.15294330000E+03 0.  0.
<mgrwt>
<rscale>  0 0.80229270E+03</rscale>
<asrwt>0</asrwt>
<pdfrwt beam="1">  1        2 0.41347571E+00 0.88132326E+03</pdfrwt>
<pdfrwt beam="2">  1       -2 0.69509990E-01 0.88132326E+03</pdfrwt>
<totfact> 0.52641289E+00</totfact>
</mgrwt>
</event>
<event>
 4    1  0.2502834E-007  0.6815699E+03  0.7818608E-02  0.1008449E+00
         -2   -1    0    0    0  501 -0.00000000000E+00  0.00000000000E+00  0.87571765330E+03  0.87571765330E+03  0.25500000000E-02 0.  1.
          2   -1    0    0  501    0  0.00000000000E+00 -0.00000000000E+00 -0.13421445255E+04  0.13421445255E+04  0.25500000000E-02 0. -1.
    8880023    1    1    2    0    0  0.17185848596E+03 -0.34525223928E+02  0.73018116536E+03  0.99885037458E+03  0.65864270000E+03 0.  1.
    8880022    1    1    2    0    0 -0.17185848596E+03  0.34525223928E+02 -0.11966080376E+04  0.12190118042E+04  0.15294330000E+03 0.  0.
<mgrwt>
<rscale>  0 0.52095656E+03</rscale>
<asrwt>0</asrwt>
<pdfrwt beam="1">  1        2 0.20648377E+00 0.68156991E+03</pdfrwt>
<pdfrwt beam="2">  1       -2 0.13472579E+00 0.68156991E+03</pdfrwt>
<totfact> 0.64015370E+00</totfact>
</mgrwt>
</event>
<event>
 4    1  0.2502834E-007  0.8530082E+03  0.7818608E-02  0.9606124E-01
         -2   -1    0    0    0  501 -0.00000000000E+00  0.00000000000E+00  0.21106401539E+03  0.21106401540E+03  0.25500000000E-02 0.  1.
          2   -1    0    0  501    0  0.00000000000E+00 -0.00000000000E+00 -0.29911266156E+04  0.29911266156E+04  0.25500000000E-02 0. -1.
    8880023    1    1    2    0    0 -0.36513689080E+02  0.54081371854E+03 -0.90185142513E+03  0.12413536671E+04  0.65864270000E+03 0.  1.
    8880022    1    1    2    0    0  0.36513689080E+02 -0.54081371854E+03 -0.18782111751E+04  0.19608369639E+04  0.15294330000E+03 0.  0.
<mgrwt>
<rscale>  0 0.76892200E+03</rscale>
<asrwt>0</asrwt>
<pdfrwt beam="1">  1        2 0.46017329E+00 0.85300817E+03</pdfrwt>
<pdfrwt beam="2">  1       -2 0.32471389E-01 0.85300817E+03</pdfrwt>
<totfact> 0.16251067E+01</totfact>
</mgrwt>
</event>
<event>
 4    1  0.2502834E-007  0.1343391E+04  0.7818608E-02  0.9028967E-01
         -2   -1    0    0    0  501 -0.00000000000E+00  0.00000000000E+00  0.18741916099E+04  0.18741916099E+04  0.25500000000E-02 0.  1.
          2   -1    0    0  501    0  0.00000000000E+00 -0.00000000000E+00 -0.12454497843E+04  0.12454497843E+04  0.25500000000E-02 0. -1.
    8880023    1    1    2    0    0 -0.51069139875E+03  0.10536045660E+04 -0.54960935996E+03  0.14514713022E+04  0.65864270000E+03 0.  0.
    8880022    1    1    2    0    0  0.51069139875E+03 -0.10536045660E+04  0.11783511855E+04  0.16681700920E+04  0.15294330000E+03 0.  0.
<mgrwt>
<rscale>  0 0.13007550E+04</rscale>
<asrwt>0</asrwt>
<pdfrwt beam="1">  1        2 0.19160766E+00 0.13433907E+04</pdfrwt>
<pdfrwt beam="2">  1       -2 0.28833717E+00 0.13433907E+04</pdfrwt>
<totfact> 0.63939022E-01</totfact>
</mgrwt>
</event>
<event>
 4    1  0.2502834E-007  0.9881592E+03  0.7818608E-02  0.9397216E-01
          2   -1    0    0  501    0  0.00000000000E+00  0.00000000000E+00  0.13135284774E+04  0.13135284774E+04  0.25500000000E-02 0. -1.
         -2   -1    0    0    0  501 -0.00000000000E+00 -0.00000000000E+00 -0.73845095363E+03  0.73845095364E+03  0.25500000000E-02 0.  1.
    8880023    1    1    2    0    0  0.35308031779E+03 -0.64651580595E+03 -0.15895692875E+03  0.10008625828E+04  0.65864270000E+03 0.  1.
    8880022    1    1    2    0    0 -0.35308031779E+03  0.64651580595E+03  0.73403445248E+03  0.10511168482E+04  0.15294330000E+03 0.  0.
<mgrwt>
<rscale>  0 0.92305182E+03</rscale>
<asrwt>0</asrwt>
<pdfrwt beam="1">  1        2 0.20208130E+00 0.98815920E+03</pdfrwt>
<pdfrwt beam="2">  1       -2 0.11360784E+00 0.98815920E+03</pdfrwt>
<totfact> 0.98080443E+00</totfact>
</mgrwt>
</event>
<event>
 4    1  0.2502834E-007  0.1252741E+04  0.7818608E-02  0.9107484E-01
         -2   -1    0    0    0  501 -0.00000000000E+00  0.00000000000E+00  0.18628269035E+04  0.18628269035E+04  0.25500000000E-02 0.  1.
          2   -1    0    0  501    0  0.00000000000E+00 -0.00000000000E+00 -0.19392004197E+04  0.19392004197E+04  0.25500000000E-02 0. -1.
    8880023    1    1    2    0    0 -0.71125403375E+03 -0.79351658998E+03  0.14614171023E+04  0.19248638997E+04  0.65864270000E+03 0.  0.
    8880022    1    1    2    0    0  0.71125403375E+03  0.79351658998E+03 -0.15377906185E+04  0.18771634235E+04  0.15294330000E+03 0.  0.
<mgrwt>
<rscale>  0 0.12061569E+04</rscale>
<asrwt>0</asrwt>
<pdfrwt beam="1">  1        2 0.29833853E+00 0.12527414E+04</pdfrwt>
<pdfrwt beam="2">  1       -2 0.28658875E+00 0.12527414E+04</pdfrwt>
<totfact> 0.26836094E-01</totfact>
</mgrwt>
</event>
<event>
 4    1  0.2502834E-007  0.9014512E+03  0.7818608E-02  0.9523706E-01
         -2   -1    0    0    0  501 -0.00000000000E+00  0.00000000000E+00  0.12925426451E+04  0.12925426451E+04  0.25500000000E-02 0.  1.
          2   -1    0    0  501    0  0.00000000000E+00 -0.00000000000E+00 -0.83044683218E+03  0.83044683218E+03  0.25500000000E-02 0. -1.
    8880023    1    1    2    0    0 -0.56479588313E+03 -0.24456002470E+03  0.95985398216E+03  0.13167892271E+04  0.65864270000E+03 0.  1.
    8880022    1    1    2    0    0  0.56479588313E+03  0.24456002470E+03 -0.49775816926E+03  0.80620025016E+03  0.15294330000E+03 0.  0.
<mgrwt>
<rscale>  0 0.82558411E+03</rscale>
<asrwt>0</asrwt>
<pdfrwt beam="1">  1        2 0.12776105E+00 0.90145116E+03</pdfrwt>
<pdfrwt beam="2">  1       -2 0.19885271E+00 0.90145116E+03</pdfrwt>
<totfact> 0.44472807E+00</totfact>
</mgrwt>
</event>
<event>
 4    1  0.2502834E-007  0.1430846E+04  0.7818608E-02  0.8960078E-01
          2   -1    0    0  501    0  0.00000000000E+00  0.00000000000E+00  0.28834356090E+04  0.28834356090E+04  0.25500000000E-02 0. -1.
         -2   -1    0    0    0  501 -0.00000000000E+00 -0.00000000000E+00 -0.21280967908E+04  0.21280967908E+04  0.25500000000E-02 0.  1.
    8880023    1    1    2    0    0  0.12448784074E+04 -0.25256433641E+03 -0.17126053200E+04  0.22316671305E+04  0.65864270000E+03 0.  0.
    8880022    1    1    2    0    0 -0.12448784074E+04  0.25256433641E+03  0.24679441381E+04  0.27798652693E+04  0.15294330000E+03 0.  0.
<mgrwt>
<rscale>  0 0.13913859E+04</rscale>
<asrwt>0</asrwt>
<pdfrwt beam="1">  1        2 0.44360548E+00 0.14308463E+04</pdfrwt>
<pdfrwt beam="2">  1       -2 0.32739951E+00 0.14308463E+04</pdfrwt>
<totfact> 0.42141102E-02</totfact>
</mgrwt>
</event>
<event>
 4    1  0.2502834E-007  0.7776679E+03  0.7818608E-02  0.9761344E-01
          2   -1    0    0  501    0  0.00000000000E+00  0.00000000000E+00  0.95944699909E+03  0.95944699909E+03  0.25500000000E-02 0. -1.
         -2   -1    0    0    0  501 -0.00000000000E+00 -0.00000000000E+00 -0.10536815626E+04  0.10536815626E+04  0.25500000000E-02 0.  1.
    8880023    1    1    2    0    0 -0.21603860872E+03 -0.35254003891E+03 -0.84131222659E+03  0.11456760573E+04  0.65864270000E+03 0.  1.
    8880022    1    1    2    0    0  0.21603860872E+03  0.35254003891E+03  0.74707766312E+03  0.86745250431E+03  0.15294330000E+03 0.  0.
<mgrwt>
<rscale>  0 0.67478958E+03</rscale>
<asrwt>0</asrwt>
<pdfrwt beam="1">  1        2 0.14760723E+00 0.77766790E+03</pdfrwt>
<pdfrwt beam="2">  1       -2 0.16210486E+00 0.77766790E+03</pdfrwt>
<totfact> 0.66053743E+00</totfact>
</mgrwt>
</event>
<event>
 4    1  0.2502834E-007  0.1369882E+04  0.7818608E-02  0.9007446E-01
          2   -1    0    0  501    0  0.00000000000E+00  0.00000000000E+00  0.26870023442E+04  0.26870023442E+04  0.25500000000E-02 0. -1.
         -2   -1    0    0    0  501 -0.00000000000E+00 -0.00000000000E+00 -0.80421276584E+03  0.80421276584E+03  0.25500000000E-02 0.  1.
    8880023    1    1    2    0    0  0.58411709297E+03 -0.10495585207E+04  0.15111019900E+03  0.13781909756E+04  0.65864270000E+03 0.  0.
    8880022    1    1    2    0    0 -0.58411709297E+03  0.10495585207E+04  0.17316793794E+04  0.21130241344E+04  0.15294330000E+03 0.  0.
<mgrwt>
<rscale>  0 0.13282655E+04</rscale>
<asrwt>0</asrwt>
<pdfrwt beam="1">  1        2 0.41338497E+00 0.13698818E+04</pdfrwt>
<pdfrwt beam="2">  1       -2 0.12372504E+00 0.13698818E+04</pdfrwt>
<totfact> 0.12808194E+00</totfact>
</mgrwt>
</event>
<event>
 4    1  0.2502834E-007  0.8264694E+03  0.7818608E-02  0.9656241E-01
          2   -1    0    0  501    0  0.00000000000E+00  0.00000000000E+00  0.10266347512E+04  0.10266347512E+04  0.25500000000E-02 0. -1.
         -2   -1    0    0    0  501 -0.00000000000E+00 -0.00000000000E+00 -0.13833269283E+04  0.13833269283E+04  0.25500000000E-02 0.  1.
    8880023    1    1    2    0    0 -0.40962514360E+03 -0.28539218420E+03 -0.11766313191E+04  0.14378848787E+04  0.65864270000E+03 0.  1.
    8880022    1    1    2    0    0  0.40962514360E+03  0.28539218420E+03  0.81993914198E+03  0.97207680079E+03  0.15294330000E+03 0.  1.
<mgrwt>
<rscale>  0 0.73683018E+03</rscale>
<asrwt>0</asrwt>
<pdfrwt beam="1">  1        2 0.15794381E+00 0.82646940E+03</pdfrwt>
<pdfrwt beam="2">  1       -2 0.21281953E+00 0.82646940E+03</pdfrwt>
<totfact> 0.27002508E+00</totfact>
</mgrwt>
</event>
<event>
 4    1  0.2502834E-007  0.1115885E+04  0.7818608E-02  0.9243573E-01
         -2   -1    0    0    0  501 -0.00000000000E+00  0.00000000000E+00  0.11102786426E+04  0.11102786426E+04  0.25500000000E-02 0.  1.
          2   -1    0    0  501    0  0.00000000000E+00 -0.00000000000E+00 -0.28760313811E+04  0.28760313811E+04  0.25500000000E-02 0. -1.
    8880023    1    1    2    0    0 -0.83037892345E+03 -0.34908301904E+03  0.72671528123E+03  0.13316581457E+04  0.65864270000E+03 0.  0.
    8880022    1    1    2    0    0  0.83037892345E+03  0.34908301904E+03 -0.24924680198E+04  0.26546518780E+04  0.15294330000E+03 0.  0.
<mgrwt>
<rscale>  0 0.10614778E+04</rscale>
<asrwt>0</asrwt>
<pdfrwt beam="1">  1        2 0.44246636E+00 0.11158845E+04</pdfrwt>
<pdfrwt beam="2">  1       -2 0.17081210E+00 0.11158845E+04</pdfrwt>
<totfact> 0.43459288E-01</totfact>
</mgrwt>
</event>
<event>
 4    1  0.2502834E-007  0.1873492E+04  0.7818608E-02  0.8682937E-01
          2   -1    0    0  501    0  0.00000000000E+00  0.00000000000E+00  0.24125153667E+04  0.24125153667E+04  0.25500000000E-02 0. -1.
         -2   -1    0    0    0  501 -0.00000000000E+00 -0.00000000000E+00 -0.16074756424E+04  0.16074756425E+04  0.25500000000E-02 0.  1.
    8880023    1    1    2    0    0  0.73628235348E+03 -0.15918706457E+04 -0.36147533459E+03  0.19080457229E+04  0.65864270000E+03 0.  0.
    8880022    1    1    2    0    0 -0.73628235348E+03  0.15918706457E+04  0.11665150589E+04  0.21119452863E+04  0.15294330000E+03 0.  0.
<mgrwt>
<rscale>  0 0.18445966E+04</rscale>
<asrwt>0</asrwt>
<pdfrwt beam="1">  1        2 0.37115621E+00 0.18734925E+04</pdfrwt>
<pdfrwt beam="2">  1       -2 0.24730395E+00 0.18734925E+04</pdfrwt>
<totfact> 0.23528336E-01</totfact>
</mgrwt>
</event>
<event>
 4    1  0.2502834E-007  0.9137786E+03  0.7818608E-02  0.9504265E-01
          2   -1    0    0  501    0  0.00000000000E+00  0.00000000000E+00  0.31210982072E+04  0.31210982072E+04  0.25500000000E-02 0. -1.
         -2   -1    0    0    0  501 -0.00000000000E+00 -0.00000000000E+00 -0.37358429176E+03  0.37358429177E+03  0.25500000000E-02 0.  1.
    8880023    1    1    2    0    0  0.30379991450E+03 -0.55577571450E+03  0.29976602159E+03  0.96169169012E+03  0.65864270000E+03 0.  0.
    8880022    1    1    2    0    0 -0.30379991450E+03  0.55577571450E+03  0.24477478938E+04  0.25329908088E+04  0.15294330000E+03 0.  0.
<mgrwt>
<rscale>  0 0.83970111E+03</rscale>
<asrwt>0</asrwt>
<pdfrwt beam="1">  1        2 0.48016895E+00 0.91377855E+03</pdfrwt>
<pdfrwt beam="2">  1       -2 0.57474507E-01 0.91377855E+03</pdfrwt>
<totfact> 0.43005415E+00</totfact>
</mgrwt>
</event>
<event>
 4    1  0.2502834E-007  0.1283456E+04  0.7818608E-02  0.9079980E-01
          2   -1    0    0  501    0  0.00000000000E+00  0.00000000000E+00  0.21483218606E+04  0.21483218606E+04  0.25500000000E-02 0. -1.
         -2   -1    0    0    0  501 -0.00000000000E+00 -0.00000000000E+00 -0.98421313381E+03  0.98421313382E+03  0.25500000000E-02 0.  1.
    8880023    1    1    2    0    0  0.36125986089E+03 -0.10406437081E+04 -0.27619089631E+03  0.13128364832E+04  0.65864270000E+03 0.  0.
    8880022    1    1    2    0    0 -0.36125986089E+03  0.10406437081E+04  0.14402996231E+04  0.18196985112E+04  0.15294330000E+03 0.  0.
<mgrwt>
<rscale>  0 0.12382970E+04</rscale>
<asrwt>0</asrwt>
<pdfrwt beam="1">  1        2 0.33051105E+00 0.12834556E+04</pdfrwt>
<pdfrwt beam="2">  1       -2 0.15141741E+00 0.12834556E+04</pdfrwt>
<totfact> 0.15568772E+00</totfact>
</mgrwt>
</event>
<event>
 4    1  0.2502834E-007  0.1344454E+04  0.7818608E-02  0.9028091E-01
         -2   -1    0    0    0  501 -0.00000000000E+00  0.00000000000E+00  0.13551280256E+04  0.13551280257E+04  0.25500000000E-02 0.  1.
          2   -1    0    0  501    0  0.00000000000E+00 -0.00000000000E+00 -0.24854526966E+04  0.24854526966E+04  0.25500000000E-02 0. -1.
    8880023    1    1    2    0    0  0.16963262192E+03  0.11597292253E+04  0.80925051879E+03  0.15692175474E+04  0.65864270000E+03 0.  0.
    8880022    1    1    2    0    0 -0.16963262192E+03 -0.11597292253E+04 -0.19395751898E+04  0.22713631749E+04  0.15294330000E+03 0.  0.
<mgrwt>
<rscale>  0 0.13018606E+04</rscale>
<asrwt>0</asrwt>
<pdfrwt beam="1">  1        2 0.38237734E+00 0.13444543E+04</pdfrwt>
<pdfrwt beam="2">  1       -2 0.20848123E+00 0.13444543E+04</pdfrwt>
<totfact> 0.39775198E-01</totfact>
</mgrwt>
</event>
<event>
 4    1  0.2502834E-007  0.7027963E+03  0.7818608E-02  0.9985793E-01
          2   -1    0    0  501    0  0.00000000000E+00  0.00000000000E+00  0.16638711016E+04  0.16638711016E+04  0.25500000000E-02 0. -1.
         -2   -1    0    0    0  501 -0.00000000000E+00 -0.00000000000E+00 -0.10447328516E+04  0.10447328516E+04  0.25500000000E-02 0.  1.
    8880023    1    1    2    0    0 -0.10867352123E+03 -0.21977840834E+03 -0.91147012113E+03  0.11509563289E+04  0.65864270000E+03 0.  0.
    8880022    1    1    2    0    0  0.10867352123E+03  0.21977840834E+03  0.15306083711E+04  0.15576476243E+04  0.15294330000E+03 0.  0.
<mgrwt>
<rscale>  0 0.56277606E+03</rscale>
<asrwt>0</asrwt>
<pdfrwt beam="1">  1        2 0.25598016E+00 0.70279634E+03</pdfrwt>
<pdfrwt beam="2">  1       -2 0.16072813E+00 0.70279634E+03</pdfrwt>
<totfact> 0.26565425E+00</totfact>
</mgrwt>
</event>
<event>
 4    1  0.2502834E-007  0.1827135E+04  0.7818608E-02  0.8707673E-01
          2   -1    0    0  501    0  0.00000000000E+00  0.00000000000E+00  0.27520011761E+04  0.27520011761E+04  0.25500000000E-02 0. -1.
         -2   -1    0    0    0  501 -0.00000000000E+00 -0.00000000000E+00 -0.17730511151E+04  0.17730511151E+04  0.25500000000E-02 0.  1.
    8880023    1    1    2    0    0 -0.54398500397E+03 -0.16151444832E+04 -0.85457036855E+03  0.20171048825E+04  0.65864270000E+03 0.  0.
    8880022    1    1    2    0    0  0.54398500397E+03  0.16151444832E+04  0.18335204295E+04  0.25079474087E+04  0.15294330000E+03 0.  0.
<mgrwt>
<rscale>  0 0.17974192E+04</rscale>
<asrwt>0</asrwt>
<pdfrwt beam="1">  1        2 0.42338480E+00 0.18271348E+04</pdfrwt>
<pdfrwt beam="2">  1       -2 0.27277709E+00 0.18271348E+04</pdfrwt>
<totfact> 0.10401936E-01</totfact>
</mgrwt>
</event>
<event>
 4    1  0.2502834E-007  0.8966761E+03  0.7818608E-02  0.9531389E-01
         -2   -1    0    0    0  501 -0.00000000000E+00  0.00000000000E+00  0.61346743928E+03  0.61346743929E+03  0.25500000000E-02 0.  1.
          2   -1    0    0  501    0  0.00000000000E+00 -0.00000000000E+00 -0.26103520409E+04  0.26103520410E+04  0.25500000000E-02 0. -1.
    8880023    1    1    2    0    0  0.60801549454E+03 -0.23128724216E+02  0.21716343152E+03  0.92259847265E+03  0.65864270000E+03 0.  1.
    8880022    1    1    2    0    0 -0.60801549454E+03  0.23128724216E+02 -0.22140480332E+04  0.23012210076E+04  0.15294330000E+03 0.  0.
<mgrwt>
<rscale>  0 0.82008690E+03</rscale>
<asrwt>0</asrwt>
<pdfrwt beam="1">  1        2 0.40159262E+00 0.89667608E+03</pdfrwt>
<pdfrwt beam="2">  1       -2 0.94379607E-01 0.89667608E+03</pdfrwt>
<totfact> 0.29168655E+00</totfact>
</mgrwt>
</event>
<event>
 4    1  0.2502834E-007  0.8343215E+03  0.7818608E-02  0.9640982E-01
          2   -1    0    0  501    0  0.00000000000E+00  0.00000000000E+00  0.20161606145E+04  0.20161606145E+04  0.25500000000E-02 0. -1.
         -2   -1    0    0    0  501 -0.00000000000E+00 -0.00000000000E+00 -0.78167944024E+03  0.78167944024E+03  0.25500000000E-02 0.  1.
    8880023    1    1    2    0    0  0.36210504930E+03  0.36216313976E+03 -0.50692845470E+03  0.97625246273E+03  0.65864270000E+03 0.  1.
    8880022    1    1    2    0    0 -0.36210504930E+03 -0.36216313976E+03  0.17414096290E+04  0.18215875920E+04  0.15294330000E+03 0.  0.
<mgrwt>
<rscale>  0 0.74642109E+03</rscale>
<asrwt>0</asrwt>
<pdfrwt beam="1">  1        2 0.31017855E+00 0.83432153E+03</pdfrwt>
<pdfrwt beam="2">  1       -2 0.12025838E+00 0.83432153E+03</pdfrwt>
<totfact> 0.35348965E+00</totfact>
</mgrwt>
</event>
<event>
 4    1  0.2502834E-007  0.6810522E+03  0.7818608E-02  0.1008735E+00
          2   -1    0    0  501    0  0.00000000000E+00  0.00000000000E+00  0.23349404753E+04  0.23349404753E+04  0.25500000000E-02 0. -1.
         -2   -1    0    0    0  501 -0.00000000000E+00 -0.00000000000E+00 -0.14974263421E+03  0.14974263423E+03  0.25500000000E-02 0.  1.
    8880023    1    1    2    0    0 -0.17284099882E+03 -0.12159763398E+02  0.68200451293E+03  0.96382686860E+03  0.65864270000E+03 0.  1.
    8880022    1    1    2    0    0  0.17284099882E+03  0.12159763398E+02  0.15031933282E+04  0.15208562409E+04  0.15294330000E+03 0.  0.
<mgrwt>
<rscale>  0 0.51980649E+03</rscale>
<asrwt>0</asrwt>
<pdfrwt beam="1">  1        2 0.35922160E+00 0.68105218E+03</pdfrwt>
<pdfrwt beam="2">  1       -2 0.23037329E-01 0.68105218E+03</pdfrwt>
<totfact> 0.75091071E+01</totfact>
</mgrwt>
</event>
<event>
 4    1  0.2502834E-007  0.1090739E+04  0.7818608E-02  0.9271438E-01
          2   -1    0    0  501    0  0.00000000000E+00  0.00000000000E+00  0.77569737003E+03  0.77569737003E+03  0.25500000000E-02 0. -1.
         -2   -1    0    0    0  501 -0.00000000000E+00 -0.00000000000E+00 -0.19052288095E+04  0.19052288095E+04  0.25500000000E-02 0.  1.
    8880023    1    1    2    0    0 -0.73690660892E+03  0.46137872474E+03 -0.13840535600E+04  0.17621907221E+04  0.65864270000E+03 0.  1.
    8880022    1    1    2    0    0  0.73690660892E+03 -0.46137872474E+03  0.25452212050E+03  0.91873545744E+03  0.15294330000E+03 0.  0.
<mgrwt>
<rscale>  0 0.10345543E+04</rscale>
<asrwt>0</asrwt>
<pdfrwt beam="1">  1        2 0.11933806E+00 0.10907391E+04</pdfrwt>
<pdfrwt beam="2">  1       -2 0.29311212E+00 0.10907391E+04</pdfrwt>
<totfact> 0.12472032E+00</totfact>
</mgrwt>
</event>
<event>
 4    1  0.2502834E-007  0.1701895E+04  0.7818608E-02  0.8778838E-01
         -2   -1    0    0    0  501 -0.00000000000E+00  0.00000000000E+00  0.16101462192E+04  0.16101462192E+04  0.25500000000E-02 0.  1.
          2   -1    0    0  501    0  0.00000000000E+00 -0.00000000000E+00 -0.36913894649E+04  0.36913894649E+04  0.25500000000E-02 0. -1.
    8880023    1    1    2    0    0 -0.10811356376E+04  0.11374447390E+04  0.90281824561E+03  0.19265320636E+04  0.65864270000E+03 0.  1.
    8880022    1    1    2    0    0  0.10811356376E+04 -0.11374447390E+04 -0.29840614914E+04  0.33750036205E+04  0.15294330000E+03 0.  0.
<mgrwt>
<rscale>  0 0.16696971E+04</rscale>
<asrwt>0</asrwt>
<pdfrwt beam="1">  1        2 0.56790607E+00 0.17018945E+04</pdfrwt>
<pdfrwt beam="2">  1       -2 0.24771480E+00 0.17018945E+04</pdfrwt>
<totfact> 0.36250207E-02</totfact>
</mgrwt>
</event>
<event>
 4    1  0.2502834E-007  0.1169153E+04  0.7818608E-02  0.9187707E-01
         -2   -1    0    0    0  501 -0.00000000000E+00  0.00000000000E+00  0.14115921267E+04  0.14115921267E+04  0.25500000000E-02 0.  1.
          2   -1    0    0  501    0  0.00000000000E+00 -0.00000000000E+00 -0.18989790702E+04  0.18989790702E+04  0.25500000000E-02 0. -1.
    8880023    1    1    2    0    0 -0.32635592431E+03 -0.90917576901E+03  0.99459169352E+03  0.15349695799E+04  0.65864270000E+03 0.  1.
    8880022    1    1    2    0    0  0.32635592431E+03  0.90917576901E+03 -0.14819786370E+04  0.17756016169E+04  0.15294330000E+03 0.  0.
<mgrwt>
<rscale>  0 0.11181220E+04</rscale>
<asrwt>0</asrwt>
<pdfrwt beam="1">  1        2 0.29215063E+00 0.11691531E+04</pdfrwt>
<pdfrwt beam="2">  1       -2 0.21716802E+00 0.11691531E+04</pdfrwt>
<totfact> 0.76363815E-01</totfact>
</mgrwt>
</event>
<event>
 4    1  0.2502834E-007  0.7868509E+03  0.7818608E-02  0.9739983E-01
          2   -1    0    0  501    0  0.00000000000E+00  0.00000000000E+00  0.13454099800E+04  0.13454099800E+04  0.25500000000E-02 0. -1.
         -2   -1    0    0    0  501 -0.00000000000E+00 -0.00000000000E+00 -0.22705191423E+04  0.22705191423E+04  0.25500000000E-02 0.  1.
    8880023    1    1    2    0    0 -0.19167739709E+03 -0.38546585376E+03 -0.21602048664E+04  0.22990475027E+04  0.65864270000E+03 0.  0.
    8880022    1    1    2    0    0  0.19167739709E+03  0.38546585376E+03  0.12350957040E+04  0.13168816196E+04  0.15294330000E+03 0. -1.
<mgrwt>
<rscale>  0 0.68685293E+03</rscale>
<asrwt>0</asrwt>
<pdfrwt beam="1">  1        2 0.20698615E+00 0.78685091E+03</pdfrwt>
<pdfrwt beam="2">  1       -2 0.34931064E+00 0.78685091E+03</pdfrwt>
<totfact> 0.25800737E-01</totfact>
</mgrwt>
</event>
<event>
 4    1  0.2502834E-007  0.8018180E+03  0.7818608E-02  0.9706879E-01
         -2   -1    0    0    0  501 -0.00000000000E+00  0.00000000000E+00  0.72680833641E+03  0.72680833641E+03  0.25500000000E-02 0.  1.
          2   -1    0    0  501    0  0.00000000000E+00 -0.00000000000E+00 -0.80947308321E+03  0.80947308321E+03  0.25500000000E-02 0. -1.
    8880023    1    1    2    0    0 -0.39417277287E+03  0.23179681496E+03  0.36257051614E+03  0.87998268377E+03  0.65864270000E+03 0.  0.
    8880022    1    1    2    0    0  0.39417277287E+03 -0.23179681496E+03 -0.44523526294E+03  0.65629873585E+03  0.15294330000E+03 0.  0.
<mgrwt>
<rscale>  0 0.70608703E+03</rscale>
<asrwt>0</asrwt>
<pdfrwt beam="1">  1        2 0.12453432E+00 0.80181802E+03</pdfrwt>
<pdfrwt beam="2">  1       -2 0.11181667E+00 0.80181802E+03</pdfrwt>
<totfact> 0.21617917E+01</totfact>
</mgrwt>
</event>
<event>
 4    1  0.2502834E-007  0.8443314E+03  0.7818608E-02  0.9622067E-01
          2   -1    0    0  501    0  0.00000000000E+00  0.00000000000E+00  0.59263820115E+03  0.59263820116E+03  0.25500000000E-02 0. -1.
         -2   -1    0    0    0  501 -0.00000000000E+00 -0.00000000000E+00 -0.18248077516E+04  0.18248077516E+04  0.25500000000E-02 0.  1.
    8880023    1    1    2    0    0 -0.35572048415E+03  0.39057417038E+03 -0.15623951537E+04  0.17759431488E+04  0.65864270000E+03 0.  0.
    8880022    1    1    2    0    0  0.35572048415E+03 -0.39057417038E+03  0.33022560322E+03  0.64150280393E+03  0.15294330000E+03 0.  0.
<mgrwt>
<rscale>  0 0.75852730E+03</rscale>
<asrwt>0</asrwt>
<pdfrwt beam="1">  1        2 0.91175109E-01 0.84433136E+03</pdfrwt>
<pdfrwt beam="2">  1       -2 0.28073965E+00 0.84433136E+03</pdfrwt>
<totfact> 0.21465679E+00</totfact>
</mgrwt>
</event>
<event>
 4    1  0.2715728E-007  0.7712739E+03  0.7818608E-02  0.9776749E-01
         -2   -1    0    0    0  501 -0.00000000000E+00  0.00000000000E+00  0.13210429224E+04  0.13210429224E+04  0.25500000000E-02 0.  1.
          2   -1    0    0  501    0  0.00000000000E+00 -0.00000000000E+00 -0.17501628369E+04  0.17501628369E+04  0.25500000000E-02 0. -1.
    8880023    1    1    2    0    0 -0.56122167404E+02 -0.39737083005E+03  0.11778124811E+04  0.14078727645E+04  0.65864270000E+03 0.  0.
    8880022    1    1    2    0    0  0.56122167404E+02  0.39737083005E+03 -0.16069323957E+04  0.16633329948E+04  0.15294330000E+03 0.  0.
<mgrwt>
<rscale>  0 0.66625400E+03</rscale>
<asrwt>0</asrwt>
<pdfrwt beam="1">  1        2 0.26925582E+00 0.77127393E+03</pdfrwt>
<pdfrwt beam="2">  1       -2 0.20323737E+00 0.77127393E+03</pdfrwt>
<totfact> 0.12045529E+00</totfact>
</mgrwt>
</event>
<event>
 4    1  0.2502834E-007  0.7050728E+03  0.7818608E-02  0.9976774E-01
          2   -1    0    0  501    0  0.00000000000E+00  0.00000000000E+00  0.22956575415E+04  0.22956575415E+04  0.25500000000E-02 0. -1.
         -2   -1    0    0    0  501 -0.00000000000E+00 -0.00000000000E+00 -0.68056702155E+03  0.68056702156E+03  0.25500000000E-02 0.  1.
    8880023    1    1    2    0    0  0.50807118047E+01  0.25157823580E+03 -0.48488076951E+03  0.85570847212E+03  0.65864270000E+03 0.  1.
    8880022    1    1    2    0    0 -0.50807118047E+01 -0.25157823580E+03  0.20999712895E+04  0.21205160910E+04  0.15294330000E+03 0.  0.
<mgrwt>
<rscale>  0 0.56680482E+03</rscale>
<asrwt>0</asrwt>
<pdfrwt beam="1">  1        2 0.35317808E+00 0.70507278E+03</pdfrwt>
<pdfrwt beam="2">  1       -2 0.10470262E+00 0.70507278E+03</pdfrwt>
<totfact> 0.35532802E+00</totfact>
</mgrwt>
</event>
<event>
 4    1  0.2502834E-007  0.8040157E+03  0.7818608E-02  0.9702180E-01
         -2   -1    0    0    0  501 -0.00000000000E+00  0.00000000000E+00  0.10368323100E+04  0.10368323100E+04  0.25500000000E-02 0.  1.
          2   -1    0    0  501    0  0.00000000000E+00 -0.00000000000E+00 -0.90354393946E+03  0.90354393946E+03  0.25500000000E-02 0. -1.
    8880023    1    1    2    0    0 -0.72329635814E+02 -0.45541134035E+03  0.78754831172E+03  0.11254659545E+04  0.65864270000E+03 0.  0.
    8880022    1    1    2    0    0  0.72329635814E+02  0.45541134035E+03 -0.65425994121E+03  0.81491029495E+03  0.15294330000E+03 0.  0.
<mgrwt>
<rscale>  0 0.70887169E+03</rscale>
<asrwt>0</asrwt>
<pdfrwt beam="1">  1        2 0.13900676E+00 0.80401572E+03</pdfrwt>
<pdfrwt beam="2">  1       -2 0.15951266E+00 0.80401572E+03</pdfrwt>
<totfact> 0.74917772E+00</totfact>
</mgrwt>
</event>
<event>
 4    1  0.2502834E-007  0.1197733E+04  0.7818608E-02  0.9159329E-01
          2   -1    0    0  501    0  0.00000000000E+00  0.00000000000E+00  0.21279959871E+04  0.21279959871E+04  0.25500000000E-02 0. -1.
         -2   -1    0    0    0  501 -0.00000000000E+00 -0.00000000000E+00 -0.72844502969E+03  0.72844502970E+03  0.25500000000E-02 0.  1.
    8880023    1    1    2    0    0  0.86179557782E+03  0.50799796494E+03  0.89555708799E+02  0.12010761764E+04  0.65864270000E+03 0.  0.
    8880022    1    1    2    0    0 -0.86179557782E+03 -0.50799796494E+03  0.13099952486E+04  0.16553648404E+04  0.15294330000E+03 0.  0.
<mgrwt>
<rscale>  0 0.11483258E+04</rscale>
<asrwt>0</asrwt>
<pdfrwt beam="1">  1        2 0.32738399E+00 0.11977328E+04</pdfrwt>
<pdfrwt beam="2">  1       -2 0.11206847E+00 0.11977328E+04</pdfrwt>
<totfact> 0.34822247E+00</totfact>
</mgrwt>
</event>
<event>
 4    1  0.2502834E-007  0.9692031E+03  0.7818608E-02  0.9423007E-01
         -2   -1    0    0    0  501 -0.00000000000E+00  0.00000000000E+00  0.43252948758E+03  0.43252948759E+03  0.25500000000E-02 0.  1.
          2   -1    0    0  501    0  0.00000000000E+00 -0.00000000000E+00 -0.31357467311E+04  0.31357467311E+04  0.25500000000E-02 0. -1.
    8880023    1    1    2    0    0 -0.50753759634E+03  0.49794583568E+03 -0.23797263379E+03  0.99799080540E+03  0.65864270000E+03 0.  1.
    8880022    1    1    2    0    0  0.50753759634E+03 -0.49794583568E+03 -0.24652446097E+04  0.25702854133E+04  0.15294330000E+03 0.  0.
<mgrwt>
<rscale>  0 0.90206224E+03</rscale>
<asrwt>0</asrwt>
<pdfrwt beam="1">  1        2 0.48242256E+00 0.96920311E+03</pdfrwt>
<pdfrwt beam="2">  1       -2 0.66543000E-01 0.96920311E+03</pdfrwt>
<totfact> 0.30533376E+00</totfact>
</mgrwt>
</event>
<event>
 4    1  0.2502834E-007  0.1355969E+04  0.7818608E-02  0.9018674E-01
          2   -1    0    0  501    0  0.00000000000E+00  0.00000000000E+00  0.23304748594E+04  0.23304748594E+04  0.25500000000E-02 0. -1.
         -2   -1    0    0    0  501 -0.00000000000E+00 -0.00000000000E+00 -0.16150654173E+04  0.16150654173E+04  0.25500000000E-02 0.  1.
    8880023    1    1    2    0    0 -0.22879056157E+03 -0.11629689300E+04 -0.11177183355E+04  0.17572553420E+04  0.65864270000E+03 0.  1.
    8880022    1    1    2    0    0  0.22879056157E+03  0.11629689300E+04  0.18331277776E+04  0.21882849347E+04  0.15294330000E+03 0.  0.
<mgrwt>
<rscale>  0 0.13138241E+04</rscale>
<asrwt>0</asrwt>
<pdfrwt beam="1">  1        2 0.35853459E+00 0.13559690E+04</pdfrwt>
<pdfrwt beam="2">  1       -2 0.24847160E+00 0.13559690E+04</pdfrwt>
<totfact> 0.27304051E-01</totfact>
</mgrwt>
</event>
<event>
 4    1  0.2502834E-007  0.9592905E+03  0.7818608E-02  0.9436871E-01
          2   -1    0    0  501    0  0.00000000000E+00  0.00000000000E+00  0.32978920159E+04  0.32978920159E+04  0.25500000000E-02 0. -1.
         -2   -1    0    0    0  501 -0.00000000000E+00 -0.00000000000E+00 -0.28495299771E+03  0.28495299772E+03  0.25500000000E-02 0.  1.
    8880023    1    1    2    0    0 -0.13526557120E+03 -0.68420114144E+03  0.25685325149E+04  0.27418237476E+04  0.65864270000E+03 0.  0.
    8880022    1    1    2    0    0  0.13526557120E+03  0.68420114144E+03  0.44440650334E+03  0.84102126604E+03  0.15294330000E+03 0.  0.
<mgrwt>
<rscale>  0 0.89102453E+03</rscale>
<asrwt>0</asrwt>
<pdfrwt beam="1">  1        2 0.50736797E+00 0.95929046E+03</pdfrwt>
<pdfrwt beam="2">  1       -2 0.43838925E-01 0.95929046E+03</pdfrwt>
<totfact> 0.57201894E+00</totfact>
</mgrwt>
</event>
<event>
 4    1  0.2502834E-007  0.1122257E+04  0.7818608E-02  0.9236671E-01
          2   -1    0    0  501    0  0.00000000000E+00  0.00000000000E+00  0.18047321266E+04  0.18047321266E+04  0.25500000000E-02 0. -1.
         -2   -1    0    0    0  501 -0.00000000000E+00 -0.00000000000E+00 -0.72289924946E+03  0.72289924946E+03  0.25500000000E-02 0.  1.
    8880023    1    1    2    0    0  0.30712796993E+03  0.85517391416E+03  0.20943164415E+02  0.11224521530E+04  0.65864270000E+03 0.  0.
    8880022    1    1    2    0    0 -0.30712796993E+03 -0.85517391416E+03  0.10608897127E+04  0.14051792231E+04  0.15294330000E+03 0.  0.
<mgrwt>
<rscale>  0 0.10682805E+04</rscale>
<asrwt>0</asrwt>
<pdfrwt beam="1">  1        2 0.27765110E+00 0.11222568E+04</pdfrwt>
<pdfrwt beam="2">  1       -2 0.11121527E+00 0.11222568E+04</pdfrwt>
<totfact> 0.53995678E+00</totfact>
</mgrwt>
</event>
<event>
 4    1  0.2502834E-007  0.7534798E+03  0.7818608E-02  0.9822290E-01
         -2   -1    0    0    0  501 -0.00000000000E+00  0.00000000000E+00  0.14937872660E+04  0.14937872660E+04  0.25500000000E-02 0.  1.
          2   -1    0    0  501    0  0.00000000000E+00 -0.00000000000E+00 -0.91077846761E+03  0.91077846761E+03  0.25500000000E-02 0. -1.
    8880023    1    1    2    0    0 -0.16652762847E+03 -0.32586821797E+03  0.13471909345E+04  0.15435851667E+04  0.65864270000E+03 0.  1.
    8880022    1    1    2    0    0  0.16652762847E+03  0.32586821797E+03 -0.76418213609E+03  0.86098056695E+03  0.15294330000E+03 0.  0.
<mgrwt>
<rscale>  0 0.64179945E+03</rscale>
<asrwt>0</asrwt>
<pdfrwt beam="1">  1        2 0.14011977E+00 0.75347976E+03</pdfrwt>
<pdfrwt beam="2">  1       -2 0.22981342E+00 0.75347976E+03</pdfrwt>
<totfact> 0.25410833E+00</totfact>
</mgrwt>
</event>
<event>
 4    1  0.2502834E-007  0.1148989E+04  0.7818608E-02  0.9208377E-01
          2   -1    0    0  501    0  0.00000000000E+00  0.00000000000E+00  0.31469327187E+04  0.31469327187E+04  0.25500000000E-02 0. -1.
         -2   -1    0    0    0  501 -0.00000000000E+00 -0.00000000000E+00 -0.61830732566E+03  0.61830732566E+03  0.25500000000E-02 0.  1.
    8880023    1    1    2    0    0 -0.69390615350E+02  0.93890966224E+03  0.96810638604E+02  0.11530606738E+04  0.65864270000E+03 0.  0.
    8880022    1    1    2    0    0  0.69390615350E+02 -0.93890966224E+03  0.24318147545E+04  0.26121793706E+04  0.15294330000E+03 0.  0.
<mgrwt>
<rscale>  0 0.10967377E+04</rscale>
<asrwt>0</asrwt>
<pdfrwt beam="1">  1        2 0.48414351E+00 0.11489894E+04</pdfrwt>
<pdfrwt beam="2">  1       -2 0.95124201E-01 0.11489894E+04</pdfrwt>
<totfact> 0.13056012E+00</totfact>
</mgrwt>
</event>
<event>
 4    1  0.2502834E-007  0.7908746E+03  0.7818608E-02  0.9730886E-01
         -2   -1    0    0    0  501 -0.00000000000E+00  0.00000000000E+00  0.86698986993E+03  0.86698986994E+03  0.25500000000E-02 0.  1.
          2   -1    0    0  501    0  0.00000000000E+00 -0.00000000000E+00 -0.59485487377E+03  0.59485487377E+03  0.25500000000E-02 0. -1.
    8880023    1    1    2    0    0 -0.35923466673E+03 -0.25024560689E+03 -0.18331927405E+03  0.81184270154E+03  0.65864270000E+03 0. -1.
    8880022    1    1    2    0    0  0.35923466673E+03  0.25024560689E+03  0.45545427021E+03  0.65000204216E+03  0.15294330000E+03 0.  1.
<mgrwt>
<rscale>  0 0.69207267E+03</rscale>
<asrwt>0</asrwt>
<pdfrwt beam="1">  1        2 0.91516135E-01 0.79087459E+03</pdfrwt>
<pdfrwt beam="2">  1       -2 0.13338306E+00 0.79087459E+03</pdfrwt>
<totfact> 0.20589591E+01</totfact>
</mgrwt>
</event>
<event>
 4    1  0.2502834E-007  0.8081082E+03  0.7818608E-02  0.9693531E-01
          2   -1    0    0  501    0  0.00000000000E+00  0.00000000000E+00  0.32062087212E+04  0.32062087212E+04  0.25500000000E-02 0. -1.
         -2   -1    0    0    0  501 -0.00000000000E+00 -0.00000000000E+00 -0.20058703745E+03  0.20058703747E+03  0.25500000000E-02 0.  1.
    8880023    1    1    2    0    0  0.37939701496E+03 -0.27438404304E+03  0.76535112979E+03  0.11130144905E+04  0.65864270000E+03 0.  1.
    8880022    1    1    2    0    0 -0.37939701496E+03  0.27438404304E+03  0.22402705540E+04  0.22937812682E+04  0.15294330000E+03 0.  0.
<mgrwt>
<rscale>  0 0.71403261E+03</rscale>
<asrwt>0</asrwt>
<pdfrwt beam="1">  1        2 0.49326287E+00 0.80810823E+03</pdfrwt>
<pdfrwt beam="2">  1       -2 0.30859545E-01 0.80810823E+03</pdfrwt>
<totfact> 0.13209808E+01</totfact>
</mgrwt>
</event>
<event>
 4    1  0.2502834E-007  0.1059726E+04  0.7818608E-02  0.9307280E-01
         -2   -1    0    0    0  501 -0.00000000000E+00  0.00000000000E+00  0.29683791688E+04  0.29683791688E+04  0.25500000000E-02 0.  1.
          2   -1    0    0  501    0  0.00000000000E+00 -0.00000000000E+00 -0.80119836598E+03  0.80119836599E+03  0.25500000000E-02 0. -1.
    8880023    1    1    2    0    0  0.82942644556E+03 -0.35501243672E+02  0.26095624460E+04  0.28165288801E+04  0.65864270000E+03 0.  0.
    8880022    1    1    2    0    0 -0.82942644556E+03  0.35501243672E+02 -0.44238164316E+03  0.95304865465E+03  0.15294330000E+03 0.  0.
<mgrwt>
<rscale>  0 0.10011540E+04</rscale>
<asrwt>0</asrwt>
<pdfrwt beam="1">  1        2 0.12326129E+00 0.10597258E+04</pdfrwt>
<pdfrwt beam="2">  1       -2 0.45667371E+00 0.10597258E+04</pdfrwt>
<totfact> 0.10864013E-01</totfact>
</mgrwt>
</event>
<event>
 4    1  0.2502834E-007  0.7618558E+03  0.7818608E-02  0.9800327E-01
          2   -1    0    0  501    0  0.00000000000E+00  0.00000000000E+00  0.12891126771E+04  0.12891126771E+04  0.25500000000E-02 0. -1.
         -2   -1    0    0    0  501 -0.00000000000E+00 -0.00000000000E+00 -0.63227977949E+03  0.63227977950E+03  0.25500000000E-02 0.  1.
    8880023    1    1    2    0    0 -0.35445010553E+03 -0.14484181936E+03 -0.34626975086E+03  0.83685540959E+03  0.65864270000E+03 0.  1.
    8880022    1    1    2    0    0  0.35445010553E+03  0.14484181936E+03  0.10031026484E+04  0.10845370470E+04  0.15294330000E+03 0.  0.
<mgrwt>
<rscale>  0 0.65345022E+03</rscale>
<asrwt>0</asrwt>
<pdfrwt beam="1">  1        2 0.19832503E+00 0.76185578E+03</pdfrwt>
<pdfrwt beam="2">  1       -2 0.97273813E-01 0.76185578E+03</pdfrwt>
<totfact> 0.15075899E+01</totfact>
</mgrwt>
</event>
<event>
 4    1  0.2502834E-007  0.6693380E+03  0.7818608E-02  0.1016142E+00
          2   -1    0    0  501    0  0.00000000000E+00  0.00000000000E+00  0.10066403856E+04  0.10066403856E+04  0.25500000000E-02 0. -1.
         -2   -1    0    0    0  501 -0.00000000000E+00 -0.00000000000E+00 -0.22422371759E+03  0.22422371760E+03  0.25500000000E-02 0.  1.
    8880023    1    1    2    0    0  0.11701331251E+03  0.22607552341E+02  0.34636202260E+03  0.75364452741E+03  0.65864270000E+03 0.  1.
    8880022    1    1    2    0    0 -0.11701331251E+03 -0.22607552341E+02  0.43605464541E+03  0.47721957580E+03  0.15294330000E+03 0.  0.
<mgrwt>
<rscale>  0 0.49104943E+03</rscale>
<asrwt>0</asrwt>
<pdfrwt beam="1">  1        2 0.15486775E+00 0.66933805E+03</pdfrwt>
<pdfrwt beam="2">  1       -2 0.34495956E-01 0.66933805E+03</pdfrwt>
<totfact> 0.19944521E+02</totfact>
</mgrwt>
</event>
<event>
 4    1  0.2502834E-007  0.1020275E+04  0.7818608E-02  0.9355500E-01
         -2   -1    0    0    0  501 -0.00000000000E+00  0.00000000000E+00  0.58284918504E+03  0.58284918504E+03  0.25500000000E-02 0.  1.
          2   -1    0    0  501    0  0.00000000000E+00 -0.00000000000E+00 -0.18447856185E+04  0.18447856185E+04  0.25500000000E-02 0. -1.
    8880023    1    1    2    0    0  0.74953285477E+03  0.21295747446E+03 -0.12756170792E+04  0.16334501906E+04  0.65864270000E+03 0.  0.
    8880022    1    1    2    0    0 -0.74953285477E+03 -0.21295747446E+03  0.13680645713E+02  0.79418461291E+03  0.15294330000E+03 0.  0.
<mgrwt>
<rscale>  0 0.95830138E+03</rscale>
<asrwt>0</asrwt>
<pdfrwt beam="1">  1        2 0.28381317E+00 0.10202748E+04</pdfrwt>
<pdfrwt beam="2">  1       -2 0.89669106E-01 0.10202748E+04</pdfrwt>
<totfact> 0.86610416E+00</totfact>
</mgrwt>
</event>
<event>
 4    1  0.2502834E-007  0.1030430E+04  0.7818608E-02  0.9342786E-01
          2   -1    0    0  501    0  0.00000000000E+00  0.00000000000E+00  0.91537136672E+03  0.91537136673E+03  0.25500000000E-02 0. -1.
         -2   -1    0    0    0  501 -0.00000000000E+00 -0.00000000000E+00 -0.10996974761E+04  0.10996974761E+04  0.25500000000E-02 0.  1.
    8880023    1    1    2    0    0 -0.57735517035E+03 -0.54280488586E+03  0.30077022845E+03  0.10734286532E+04  0.65864270000E+03 0. -1.
    8880022    1    1    2    0    0  0.57735517035E+03  0.54280488586E+03 -0.48509633784E+03  0.94164018969E+03  0.15294330000E+03 0.  0.
<mgrwt>
<rscale>  0 0.96937588E+03</rscale>
<asrwt>0</asrwt>
<pdfrwt beam="1">  1        2 0.14082636E+00 0.10304302E+04</pdfrwt>
<pdfrwt beam="2">  1       -2 0.16918423E+00 0.10304302E+04</pdfrwt>
<totfact> 0.61131367E+00</totfact>
</mgrwt>
</event>
<event>
 4    1  0.2502834E-007  0.6932537E+03  0.7818608E-02  0.1002643E+00
          2   -1    0    0  501    0  0.00000000000E+00  0.00000000000E+00  0.58014785597E+03  0.58014785598E+03  0.25500000000E-02 0. -1.
         -2   -1    0    0    0  501 -0.00000000000E+00 -0.00000000000E+00 -0.82453498136E+03  0.82453498136E+03  0.25500000000E-02 0.  1.
    8880023    1    1    2    0    0  0.15299441221E+03  0.15291559255E+03 -0.63005830989E+03  0.93678927659E+03  0.65864270000E+03 0.  1.
    8880022    1    1    2    0    0 -0.15299441221E+03 -0.15291559255E+03  0.38567118451E+03  0.46789356075E+03  0.15294330000E+03 0.  0.
<mgrwt>
<rscale>  0 0.54506394E+03</rscale>
<asrwt>0</asrwt>
<pdfrwt beam="1">  1        2 0.89253516E-01 0.69325369E+03</pdfrwt>
<pdfrwt beam="2">  1       -2 0.12685154E+00 0.69325369E+03</pdfrwt>
<totfact> 0.24299218E+01</totfact>
</mgrwt>
</event>
<event>
 4    1  0.2502834E-007  0.1016010E+04  0.7818608E-02  0.9360905E-01
          2   -1    0    0  501    0  0.00000000000E+00  0.00000000000E+00  0.24644227181E+04  0.24644227181E+04  0.25500000000E-02 0. -1.
         -2   -1    0    0    0  501 -0.00000000000E+00 -0.00000000000E+00 -0.33393129925E+03  0.33393129926E+03  0.25500000000E-02 0.  1.
    8880023    1    1    2    0    0 -0.58973010113E+03 -0.50068460162E+03  0.10544215265E+04  0.14642682898E+04  0.65864270000E+03 0.  1.
    8880022    1    1    2    0    0  0.58973010113E+03  0.50068460162E+03  0.10760698923E+04  0.13340857276E+04  0.15294330000E+03 0. -1.
<mgrwt>
<rscale>  0 0.95364120E+03</rscale>
<asrwt>0</asrwt>
<pdfrwt beam="1">  1        2 0.37914195E+00 0.10160103E+04</pdfrwt>
<pdfrwt beam="2">  1       -2 0.51374046E-01 0.10160103E+04</pdfrwt>
<totfact> 0.13191763E+01</totfact>
</mgrwt>
</event>
<event>
 4    1  0.2502834E-007  0.9944794E+03  0.7818608E-02  0.9388816E-01
         -2   -1    0    0    0  501 -0.00000000000E+00  0.00000000000E+00  0.98436406099E+03  0.98436406099E+03  0.25500000000E-02 0.  1.
          2   -1    0    0  501    0  0.00000000000E+00 -0.00000000000E+00 -0.21916939663E+04  0.21916939663E+04  0.25500000000E-02 0. -1.
    8880023    1    1    2    0    0  0.73575473749E+03 -0.11766098424E+03  0.63702352732E+03  0.11810115671E+04  0.65864270000E+03 0.  0.
    8880022    1    1    2    0    0 -0.73575473749E+03  0.11766098424E+03 -0.18443534327E+04  0.19950464602E+04  0.15294330000E+03 0.  0.
<mgrwt>
<rscale>  0 0.93001814E+03</rscale>
<asrwt>0</asrwt>
<pdfrwt beam="1">  1        2 0.33718369E+00 0.99447944E+03</pdfrwt>
<pdfrwt beam="2">  1       -2 0.15144063E+00 0.99447944E+03</pdfrwt>
<totfact> 0.15265895E+00</totfact>
</mgrwt>
</event>
<event>
 4    1  0.2502834E-007  0.1044426E+04  0.7818608E-02  0.9325612E-01
          2   -1    0    0  501    0  0.00000000000E+00  0.00000000000E+00  0.21311543487E+04  0.21311543487E+04  0.25500000000E-02 0. -1.
         -2   -1    0    0    0  501 -0.00000000000E+00 -0.00000000000E+00 -0.54543482151E+03  0.54543482152E+03  0.25500000000E-02 0.  1.
    8880023    1    1    2    0    0  0.88980527523E+01 -0.81051591651E+03  0.19919463283E+03  0.10632515856E+04  0.65864270000E+03 0.  1.
    8880022    1    1    2    0    0 -0.88980527523E+01  0.81051591651E+03  0.13865248944E+04  0.16133375847E+04  0.15294330000E+03 0.  0.
<mgrwt>
<rscale>  0 0.98458748E+03</rscale>
<asrwt>0</asrwt>
<pdfrwt beam="1">  1        2 0.32786990E+00 0.10444259E+04</pdfrwt>
<pdfrwt beam="2">  1       -2 0.83913050E-01 0.10444259E+04</pdfrwt>
<totfact> 0.69924014E+00</totfact>
</mgrwt>
</event>
<event>
 4    1  0.2502834E-007  0.1334858E+04  0.7818608E-02  0.9036028E-01
          2   -1    0    0  501    0  0.00000000000E+00  0.00000000000E+00  0.24202226901E+04  0.24202226901E+04  0.25500000000E-02 0. -1.
         -2   -1    0    0    0  501 -0.00000000000E+00 -0.00000000000E+00 -0.10811094403E+04  0.10811094403E+04  0.25500000000E-02 0.  1.
    8880023    1    1    2    0    0 -0.83674396737E+03 -0.80491928547E+03 -0.40997796651E+03  0.13963981031E+04  0.65864270000E+03 0.  0.
    8880022    1    1    2    0    0  0.83674396737E+03  0.80491928547E+03  0.17490912163E+04  0.21049340273E+04  0.15294330000E+03 0.  0.
<mgrwt>
<rscale>  0 0.12918821E+04</rscale>
<asrwt>0</asrwt>
<pdfrwt beam="1">  1        2 0.37234195E+00 0.13348579E+04</pdfrwt>
<pdfrwt beam="2">  1       -2 0.16632453E+00 0.13348579E+04</pdfrwt>
<totfact> 0.84127672E-01</totfact>
</mgrwt>
</event>
<event>
 4    1  0.2502834E-007  0.7900218E+03  0.7818608E-02  0.9732801E-01
         -2   -1    0    0    0  501 -0.00000000000E+00  0.00000000000E+00  0.91293048938E+03  0.91293048938E+03  0.25500000000E-02 0.  1.
          2   -1    0    0  501    0  0.00000000000E+00 -0.00000000000E+00 -0.14585649760E+04  0.14585649760E+04  0.25500000000E-02 0. -1.
    8880023    1    1    2    0    0 -0.54078855196E+02 -0.43289695966E+03  0.69206353909E+03  0.10502792241E+04  0.65864270000E+03 0.  1.
    8880022    1    1    2    0    0  0.54078855196E+02  0.43289695966E+03 -0.12376980258E+04  0.13212162413E+04  0.15294330000E+03 0.  0.
<mgrwt>
<rscale>  0 0.69096960E+03</rscale>
<asrwt>0</asrwt>
<pdfrwt beam="1">  1        2 0.22439461E+00 0.79002184E+03</pdfrwt>
<pdfrwt beam="2">  1       -2 0.14045084E+00 0.79002184E+03</pdfrwt>
<totfact> 0.48640206E+00</totfact>
</mgrwt>
</event>
<event>
 4    1  0.2502834E-007  0.8849283E+03  0.7818608E-02  0.9550673E-01
          2   -1    0    0  501    0  0.00000000000E+00  0.00000000000E+00  0.98785738602E+03  0.98785738603E+03  0.25500000000E-02 0. -1.
         -2   -1    0    0    0  501 -0.00000000000E+00 -0.00000000000E+00 -0.12777538745E+04  0.12777538745E+04  0.25500000000E-02 0.  1.
    8880023    1    1    2    0    0  0.57693313114E+03 -0.12820303787E+03 -0.99590904487E+03  0.13322660728E+04  0.65864270000E+03 0.  0.
    8880022    1    1    2    0    0 -0.57693313114E+03  0.12820303787E+03  0.70601255639E+03  0.93334518777E+03  0.15294330000E+03 0.  0.
<mgrwt>
<rscale>  0 0.80648816E+03</rscale>
<asrwt>0</asrwt>
<pdfrwt beam="1">  1        2 0.15197806E+00 0.88492828E+03</pdfrwt>
<pdfrwt beam="2">  1       -2 0.19657752E+00 0.88492828E+03</pdfrwt>
<totfact> 0.36118764E+00</totfact>
</mgrwt>
</event>
<event>
 4    1  0.2502834E-007  0.1133772E+04  0.7818608E-02  0.9224355E-01
         -2   -1    0    0    0  501 -0.00000000000E+00  0.00000000000E+00  0.23271665257E+04  0.23271665257E+04  0.25500000000E-02 0.  1.
          2   -1    0    0  501    0  0.00000000000E+00 -0.00000000000E+00 -0.78905792793E+03  0.78905792794E+03  0.25500000000E-02 0. -1.
    8880023    1    1    2    0    0 -0.60034211220E+03 -0.70086951406E+03  0.18155863521E+04  0.21405122601E+04  0.65864270000E+03 0.  0.
    8880022    1    1    2    0    0  0.60034211220E+03  0.70086951406E+03 -0.27747775436E+03  0.97571219352E+03  0.15294330000E+03 0.  0.
<mgrwt>
<rscale>  0 0.10805542E+04</rscale>
<asrwt>0</asrwt>
<pdfrwt beam="1">  1        2 0.12139353E+00 0.11337720E+04</pdfrwt>
<pdfrwt beam="2">  1       -2 0.35802562E+00 0.11337720E+04</pdfrwt>
<totfact> 0.48288230E-01</totfact>
</mgrwt>
</event>
<event>
 4    1  0.2502834E-007  0.1043404E+04  0.7818608E-02  0.9326852E-01
         -2   -1    0    0    0  501 -0.00000000000E+00  0.00000000000E+00  0.55028770972E+03  0.55028770973E+03  0.25500000000E-02 0.  1.
          2   -1    0    0  501    0  0.00000000000E+00 -0.00000000000E+00 -0.29108329546E+04  0.29108329546E+04  0.25500000000E-02 0. -1.
    8880023    1    1    2    0    0  0.71471469278E+02  0.80608586112E+03 -0.91702941788E+02  0.10474264758E+04  0.65864270000E+03 0.  0.
    8880022    1    1    2    0    0 -0.71471469278E+02 -0.80608586112E+03 -0.22688423031E+04  0.24136941886E+04  0.15294330000E+03 0.  0.
<mgrwt>
<rscale>  0 0.98347918E+03</rscale>
<asrwt>0</asrwt>
<pdfrwt beam="1">  1        2 0.44782045E+00 0.10434044E+04</pdfrwt>
<pdfrwt beam="2">  1       -2 0.84659649E-01 0.10434044E+04</pdfrwt>
<totfact> 0.24348608E+00</totfact>
</mgrwt>
</event>
<event>
 4    1  0.2502834E-007  0.9914244E+03  0.7818608E-02  0.9392864E-01
          2   -1    0    0  501    0  0.00000000000E+00  0.00000000000E+00  0.14867781184E+04  0.14867781184E+04  0.25500000000E-02 0. -1.
         -2   -1    0    0    0  501 -0.00000000000E+00 -0.00000000000E+00 -0.10885309172E+04  0.10885309172E+04  0.25500000000E-02 0.  1.
    8880023    1    1    2    0    0 -0.69975000582E+03  0.24384839387E+03 -0.71989156247E+03  0.12252208690E+04  0.65864270000E+03 0.  0.
    8880022    1    1    2    0    0  0.69975000582E+03 -0.24384839387E+03  0.11181387637E+04  0.13500881666E+04  0.15294330000E+03 0.  0.
<mgrwt>
<rscale>  0 0.92665269E+03</rscale>
<asrwt>0</asrwt>
<pdfrwt beam="1">  1        2 0.22873509E+00 0.99142439E+03</pdfrwt>
<pdfrwt beam="2">  1       -2 0.16746630E+00 0.99142439E+03</pdfrwt>
<totfact> 0.28511997E+00</totfact>
</mgrwt>
</event>
<event>
 4    1  0.2502834E-007  0.8645995E+03  0.7818608E-02  0.9585434E-01
         -2   -1    0    0    0  501 -0.00000000000E+00  0.00000000000E+00  0.30906903428E+03  0.30906903429E+03  0.25500000000E-02 0.  1.
          2   -1    0    0  501    0  0.00000000000E+00 -0.00000000000E+00 -0.21665726559E+04  0.21665726559E+04  0.25500000000E-02 0. -1.
    8880023    1    1    2    0    0 -0.13059900003E+03 -0.54467049484E+03 -0.49900343894E+03  0.99826684063E+03  0.65864270000E+03 0.  0.
    8880022    1    1    2    0    0  0.13059900003E+03  0.54467049484E+03 -0.13585001827E+04  0.14773748496E+04  0.15294330000E+03 0.  0.
<mgrwt>
<rscale>  0 0.78267827E+03</rscale>
<asrwt>0</asrwt>
<pdfrwt beam="1">  1        2 0.33331886E+00 0.86459948E+03</pdfrwt>
<pdfrwt beam="2">  1       -2 0.47549083E-01 0.86459948E+03</pdfrwt>
<totfact> 0.23092973E+01</totfact>
</mgrwt>
</event>
<event>
 4    1  0.2502834E-007  0.6619111E+03  0.7818608E-02  0.1022279E+00
          2   -1    0    0  501    0  0.00000000000E+00  0.00000000000E+00  0.54779051211E+03  0.54779051212E+03  0.25500000000E-02 0. -1.
         -2   -1    0    0    0  501 -0.00000000000E+00 -0.00000000000E+00 -0.24694930709E+04  0.24694930709E+04  0.25500000000E-02 0.  1.
    8880023    1    1    2    0    0  0.57420811680E+02  0.31920441768E+02 -0.24111244832E+04  0.25003294871E+04  0.65864270000E+03 0.  1.
    8880022    1    1    2    0    0 -0.57420811680E+02 -0.31920441768E+02  0.48942192440E+03  0.51695409595E+03  0.15294330000E+03 0.  0.
<mgrwt>
<rscale>  0 0.46873224E+03</rscale>
<asrwt>0</asrwt>
<pdfrwt beam="1">  1        2 0.84275465E-01 0.66191107E+03</pdfrwt>
<pdfrwt beam="2">  1       -2 0.37992201E+00 0.66191107E+03</pdfrwt>
<totfact> 0.59902652E-01</totfact>
</mgrwt>
</event>
<event>
 4    1  0.2502834E-007  0.8910557E+03  0.7818608E-02  0.9540545E-01
          2   -1    0    0  501    0  0.00000000000E+00  0.00000000000E+00  0.28131098465E+04  0.28131098465E+04  0.25500000000E-02 0. -1.
         -2   -1    0    0    0  501 -0.00000000000E+00 -0.00000000000E+00 -0.34234931604E+03  0.34234931605E+03  0.25500000000E-02 0.  1.
    8880023    1    1    2    0    0 -0.55869304985E+03  0.21916244316E+03  0.36915310712E+03  0.96449692752E+03  0.65864270000E+03 0.  1.
    8880022    1    1    2    0    0  0.55869304985E+03 -0.21916244316E+03  0.21016074233E+04  0.21909622350E+04  0.15294330000E+03 0.  0.
<mgrwt>
<rscale>  0 0.81359461E+03</rscale>
<asrwt>0</asrwt>
<pdfrwt beam="1">  1        2 0.43278615E+00 0.89105573E+03</pdfrwt>
<pdfrwt beam="2">  1       -2 0.52669124E-01 0.89105573E+03</pdfrwt>
<totfact> 0.79865077E+00</totfact>
</mgrwt>
</event>
<event>
 4    1  0.2502834E-007  0.1134947E+04  0.7818608E-02  0.9223109E-01
         -2   -1    0    0    0  501 -0.00000000000E+00  0.00000000000E+00  0.68560545004E+03  0.68560545005E+03  0.25500000000E-02 0.  1.
          2   -1    0    0  501    0  0.00000000000E+00 -0.00000000000E+00 -0.18818010485E+04  0.18818010485E+04  0.25500000000E-02 0. -1.
    8880023    1    1    2    0    0 -0.16203777841E+03  0.90996594175E+03 -0.12109544196E+03  0.11413888772E+04  0.65864270000E+03 0.  0.
    8880022    1    1    2    0    0  0.16203777841E+03 -0.90996594175E+03 -0.10751001565E+04  0.14260176213E+04  0.15294330000E+03 0.  0.
<mgrwt>
<rscale>  0 0.10818052E+04</rscale>
<asrwt>0</asrwt>
<pdfrwt beam="1">  1        2 0.28950785E+00 0.11349469E+04</pdfrwt>
<pdfrwt beam="2">  1       -2 0.10547776E+00 0.11349469E+04</pdfrwt>
<totfact> 0.55604941E+00</totfact>
</mgrwt>
</event>
<event>
 4    1  0.2502834E-007  0.8681183E+03  0.7818608E-02  0.9579283E-01
          2   -1    0    0  501    0  0.00000000000E+00  0.00000000000E+00  0.13282596680E+04  0.13282596680E+04  0.25500000000E-02 0. -1.
         -2   -1    0    0    0  501 -0.00000000000E+00 -0.00000000000E+00 -0.97554750613E+03  0.97554750613E+03  0.25500000000E-02 0.  1.
    8880023    1    1    2    0    0 -0.41234692421E+03 -0.38702598988E+03 -0.68923509390E+03  0.11084558285E+04  0.65864270000E+03 0.  1.
    8880022    1    1    2    0    0  0.41234692421E+03  0.38702598988E+03  0.10419472558E+04  0.11953513457E+04  0.15294330000E+03 0.  0.
<mgrwt>
<rscale>  0 0.78682704E+03</rscale>
<asrwt>0</asrwt>
<pdfrwt beam="1">  1        2 0.20434764E+00 0.86811826E+03</pdfrwt>
<pdfrwt beam="2">  1       -2 0.15008423E+00 0.86811826E+03</pdfrwt>
<totfact> 0.47958636E+00</totfact>
</mgrwt>
</event>
<event>
 4    1  0.2502834E-007  0.1348178E+04  0.7818608E-02  0.9025033E-01
         -2   -1    0    0    0  501 -0.00000000000E+00  0.00000000000E+00  0.11108686571E+04  0.11108686571E+04  0.25500000000E-02 0.  1.
          2   -1    0    0  501    0  0.00000000000E+00 -0.00000000000E+00 -0.17906511470E+04  0.17906511470E+04  0.25500000000E-02 0. -1.
    8880023    1    1    2    0    0 -0.10007605910E+04  0.61826553359E+03  0.27841223463E+03  0.13766254426E+04  0.65864270000E+03 0.  1.
    8880022    1    1    2    0    0  0.10007605910E+04 -0.61826553359E+03 -0.95819472454E+03  0.15248943615E+04  0.15294330000E+03 0.  0.
<mgrwt>
<rscale>  0 0.13057307E+04</rscale>
<asrwt>0</asrwt>
<pdfrwt beam="1">  1        2 0.27548479E+00 0.13481781E+04</pdfrwt>
<pdfrwt beam="2">  1       -2 0.17090287E+00 0.13481781E+04</pdfrwt>
<totfact> 0.17535729E+00</totfact>
</mgrwt>
</event>
<event>
 4    1  0.2502834E-007  0.7828912E+03  0.7818608E-02  0.9749089E-01
         -2   -1    0    0    0  501 -0.00000000000E+00  0.00000000000E+00  0.80191779921E+03  0.80191779921E+03  0.25500000000E-02 0.  1.
          2   -1    0    0  501    0  0.00000000000E+00 -0.00000000000E+00 -0.24493539459E+04  0.24493539459E+04  0.25500000000E-02 0. -1.
    8880023    1    1    2    0    0  0.30405878704E+03 -0.29437499892E+03  0.58285737913E+03  0.97603346082E+03  0.65864270000E+03 0.  1.
    8880022    1    1    2    0    0 -0.30405878704E+03  0.29437499892E+03 -0.22302935258E+04  0.22752382843E+04  0.15294330000E+03 0.  0.
<mgrwt>
<rscale>  0 0.68167786E+03</rscale>
<asrwt>0</asrwt>
<pdfrwt beam="1">  1        2 0.37682368E+00 0.78289118E+03</pdfrwt>
<pdfrwt beam="2">  1       -2 0.12337197E+00 0.78289118E+03</pdfrwt>
<totfact> 0.19241788E+00</totfact>
</mgrwt>
</event>
<event>
 4    1  0.2502834E-007  0.8541018E+03  0.7818608E-02  0.9604143E-01
         -2   -1    0    0    0  501 -0.00000000000E+00  0.00000000000E+00  0.42515626150E+03  0.42515626151E+03  0.25500000000E-02 0.  1.
          2   -1    0    0  501    0  0.00000000000E+00 -0.00000000000E+00 -0.18649375361E+04  0.18649375361E+04  0.25500000000E-02 0. -1.
    8880023    1    1    2    0    0  0.48349011126E+02  0.54161063724E+03 -0.13031043667E+03  0.86398537338E+03  0.65864270000E+03 0.  1.
    8880022    1    1    2    0    0 -0.48349011126E+02 -0.54161063724E+03 -0.13094708379E+04  0.14261084242E+04  0.15294330000E+03 0.  0.
<mgrwt>
<rscale>  0 0.77022607E+03</rscale>
<asrwt>0</asrwt>
<pdfrwt beam="1">  1        2 0.28691346E+00 0.85410182E+03</pdfrwt>
<pdfrwt beam="2">  1       -2 0.65408657E-01 0.85410182E+03</pdfrwt>
<totfact> 0.17408993E+01</totfact>
</mgrwt>
</event>
<event>
 4    1  0.2502834E-007  0.6704937E+03  0.7818608E-02  0.1015311E+00
          2   -1    0    0  501    0  0.00000000000E+00  0.00000000000E+00  0.19060050791E+04  0.19060050791E+04  0.25500000000E-02 0. -1.
         -2   -1    0    0    0  501 -0.00000000000E+00 -0.00000000000E+00 -0.32120299672E+03  0.32120299673E+03  0.25500000000E-02 0.  1.
    8880023    1    1    2    0    0  0.12548062364E+03 -0.24870505276E+01  0.42038605373E+02  0.67181025813E+03  0.65864270000E+03 0.  1.
    8880022    1    1    2    0    0 -0.12548062364E+03  0.24870505276E+01  0.15427634770E+04  0.15553978177E+04  0.15294330000E+03 0.  0.
<mgrwt>
<rscale>  0 0.49417195E+03</rscale>
<asrwt>0</asrwt>
<pdfrwt beam="1">  1        2 0.29323155E+00 0.67049368E+03</pdfrwt>
<pdfrwt beam="2">  1       -2 0.49415846E-01 0.67049368E+03</pdfrwt>
<totfact> 0.30428483E+01</totfact>
</mgrwt>
</event>
<event>
 4    1  0.2502834E-007  0.1022400E+04  0.7818608E-02  0.9352821E-01
         -2   -1    0    0    0  501 -0.00000000000E+00  0.00000000000E+00  0.74004734729E+03  0.74004734730E+03  0.25500000000E-02 0.  1.
          2   -1    0    0  501    0  0.00000000000E+00 -0.00000000000E+00 -0.13679444841E+04  0.13679444841E+04  0.25500000000E-02 0. -1.
    8880023    1    1    2    0    0 -0.16577410903E+03 -0.76420564067E+03  0.10193020038E+03  0.10274683881E+04  0.65864270000E+03 0. -1.
    8880022    1    1    2    0    0  0.16577410903E+03  0.76420564067E+03 -0.72982733717E+03  0.10805234433E+04  0.15294330000E+03 0.  0.
<mgrwt>
<rscale>  0 0.96062150E+03</rscale>
<asrwt>0</asrwt>
<pdfrwt beam="1">  1        2 0.21045300E+00 0.10223999E+04</pdfrwt>
<pdfrwt beam="2">  1       -2 0.11385344E+00 0.10223999E+04</pdfrwt>
<totfact> 0.90452631E+00</totfact>
</mgrwt>
</event>
<event>
 4    1  0.2502834E-007  0.1419526E+04  0.7818608E-02  0.8968657E-01
         -2   -1    0    0    0  501 -0.00000000000E+00  0.00000000000E+00  0.20641357279E+04  0.20641357280E+04  0.25500000000E-02 0.  1.
          2   -1    0    0  501    0  0.00000000000E+00 -0.00000000000E+00 -0.14424962646E+04  0.14424962646E+04  0.25500000000E-02 0. -1.
    8880023    1    1    2    0    0  0.52926646895E+03  0.11406665032E+04  0.14211672362E+04  0.20086735888E+04  0.65864270000E+03 0.  0.
    8880022    1    1    2    0    0 -0.52926646895E+03 -0.11406665032E+04 -0.79952777285E+03  0.14979584037E+04  0.15294330000E+03 0.  0.
<mgrwt>
<rscale>  0 0.13796835E+04</rscale>
<asrwt>0</asrwt>
<pdfrwt beam="1">  1        2 0.22192250E+00 0.14195257E+04</pdfrwt>
<pdfrwt beam="2">  1       -2 0.31755934E+00 0.14195257E+04</pdfrwt>
<totfact> 0.32244673E-01</totfact>
</mgrwt>
</event>
<event>
 4    1  0.2502834E-007  0.1128401E+04  0.7818608E-02  0.9230075E-01
          2   -1    0    0  501    0  0.00000000000E+00  0.00000000000E+00  0.21428581675E+04  0.21428581675E+04  0.25500000000E-02 0. -1.
         -2   -1    0    0    0  501 -0.00000000000E+00 -0.00000000000E+00 -0.51821744341E+03  0.51821744342E+03  0.25500000000E-02 0.  1.
    8880023    1    1    2    0    0  0.89285311335E+03  0.20564809203E+03  0.59981928427E+03  0.12779167421E+04  0.65864270000E+03 0. -1.
    8880022    1    1    2    0    0 -0.89285311335E+03 -0.20564809203E+03  0.10248214398E+04  0.13831588688E+04  0.15294330000E+03 0.  0.
<mgrwt>
<rscale>  0 0.10748321E+04</rscale>
<asrwt>0</asrwt>
<pdfrwt beam="1">  1        2 0.32967048E+00 0.11284006E+04</pdfrwt>
<pdfrwt beam="2">  1       -2 0.79725761E-01 0.11284006E+04</pdfrwt>
<totfact> 0.76676595E+00</totfact>
</mgrwt>
</event>
<event>
 4    1  0.2502834E-007  0.8723850E+03  0.7818608E-02  0.9571902E-01
         -2   -1    0    0    0  501 -0.00000000000E+00  0.00000000000E+00  0.35978713894E+03  0.35978713895E+03  0.25500000000E-02 0.  1.
          2   -1    0    0  501    0  0.00000000000E+00 -0.00000000000E+00 -0.43310884696E+04  0.43310884696E+04  0.25500000000E-02 0. -1.
    8880023    1    1    2    0    0 -0.47815003733E+03 -0.31403496366E+03 -0.22889694189E+03  0.90191431570E+03  0.65864270000E+03 0.  1.
    8880022    1    1    2    0    0  0.47815003733E+03  0.31403496366E+03 -0.37424043888E+04  0.37889612928E+04  0.15294330000E+03 0.  0.
<mgrwt>
<rscale>  0 0.79184172E+03</rscale>
<asrwt>0</asrwt>
<pdfrwt beam="1">  1        2 0.66632127E+00 0.87238502E+03</pdfrwt>
<pdfrwt beam="2">  1       -2 0.55351870E-01 0.87238502E+03</pdfrwt>
<totfact> 0.59859770E-01</totfact>
</mgrwt>
</event>
<event>
 4    1  0.2502834E-007  0.7137394E+03  0.7818608E-02  0.9944368E-01
         -2   -1    0    0    0  501 -0.00000000000E+00  0.00000000000E+00  0.22797164670E+04  0.22797164670E+04  0.25500000000E-02 0.  1.
          2   -1    0    0  501    0  0.00000000000E+00 -0.00000000000E+00 -0.37190855388E+03  0.37190855389E+03  0.25500000000E-02 0. -1.
    8880023    1    1    2    0    0  0.27344986811E+03 -0.28964245869E+02  0.21430359605E+04  0.22587667193E+04  0.65864270000E+03 0.  1.
    8880022    1    1    2    0    0 -0.27344986811E+03  0.28964245869E+02 -0.23522804733E+03  0.39285830165E+03  0.15294330000E+03 0.  0.
<mgrwt>
<rscale>  0 0.58158357E+03</rscale>
<asrwt>0</asrwt>
<pdfrwt beam="1">  1        2 0.57216702E-01 0.71373942E+03</pdfrwt>
<pdfrwt beam="2">  1       -2 0.35072560E+00 0.71373942E+03</pdfrwt>
<totfact> 0.14080818E+00</totfact>
</mgrwt>
</event>
<event>
 4    1  0.2502834E-007  0.7260672E+03  0.7818608E-02  0.9902567E-01
          2   -1    0    0  501    0  0.00000000000E+00  0.00000000000E+00  0.39546457926E+04  0.39546457926E+04  0.25500000000E-02 0. -1.
         -2   -1    0    0    0  501 -0.00000000000E+00 -0.00000000000E+00 -0.13675507214E+03  0.13675507216E+03  0.25500000000E-02 0.  1.
    8880023    1    1    2    0    0  0.25779720707E+03  0.16402446580E+03  0.91312282502E+03  0.11666048711E+04  0.65864270000E+03 0.  1.
    8880022    1    1    2    0    0 -0.25779720707E+03 -0.16402446580E+03  0.29047678954E+04  0.29247959937E+04  0.15294330000E+03 0.  0.
<mgrwt>
<rscale>  0 0.60137048E+03</rscale>
<asrwt>0</asrwt>
<pdfrwt beam="1">  1        2 0.60840709E+00 0.72606724E+03</pdfrwt>
<pdfrwt beam="2">  1       -2 0.21039240E-01 0.72606724E+03</pdfrwt>
<totfact> 0.80293307E+00</totfact>
</mgrwt>
</event>
<event>
 4    1  0.2502834E-007  0.8411523E+03  0.7818608E-02  0.9628011E-01
         -2   -1    0    0    0  501 -0.00000000000E+00  0.00000000000E+00  0.65618459378E+03  0.65618459378E+03  0.25500000000E-02 0.  1.
          2   -1    0    0  501    0  0.00000000000E+00 -0.00000000000E+00 -0.12764431936E+04  0.12764431936E+04  0.25500000000E-02 0. -1.
    8880023    1    1    2    0    0 -0.21911269364E+03 -0.47509636855E+03  0.27458696293E+03  0.88483622123E+03  0.65864270000E+03 0.  1.
    8880022    1    1    2    0    0  0.21911269364E+03  0.47509636855E+03 -0.89484556274E+03  0.10477915661E+04  0.15294330000E+03 0.  0.
<mgrwt>
<rscale>  0 0.75469625E+03</rscale>
<asrwt>0</asrwt>
<pdfrwt beam="1">  1        2 0.19637587E+00 0.84115227E+03</pdfrwt>
<pdfrwt beam="2">  1       -2 0.10095148E+00 0.84115227E+03</pdfrwt>
<totfact> 0.13919105E+01</totfact>
</mgrwt>
</event>
<event>
 4    1  0.2502834E-007  0.7591673E+03  0.7818608E-02  0.9807268E-01
          2   -1    0    0  501    0  0.00000000000E+00  0.00000000000E+00  0.98890004548E+03  0.98890004548E+03  0.25500000000E-02 0. -1.
         -2   -1    0    0    0  501 -0.00000000000E+00 -0.00000000000E+00 -0.34678349148E+03  0.34678349149E+03  0.25500000000E-02 0.  1.
    8880023    1    1    2    0    0  0.12984726494E+02  0.37730112786E+03  0.47422419482E+03  0.89511090789E+03  0.65864270000E+03 0. -1.
    8880022    1    1    2    0    0 -0.12984726494E+02 -0.37730112786E+03  0.16789235918E+03  0.44057262908E+03  0.15294330000E+03 0.  1.
<mgrwt>
<rscale>  0 0.64973950E+03</rscale>
<asrwt>0</asrwt>
<pdfrwt beam="1">  1        2 0.15213847E+00 0.75916727E+03</pdfrwt>
<pdfrwt beam="2">  1       -2 0.53351307E-01 0.75916727E+03</pdfrwt>
<totfact> 0.85931397E+01</totfact>
</mgrwt>
</event>
<event>
 4    1  0.2502834E-007  0.9144209E+03  0.7818608E-02  0.9503267E-01
         -2   -1    0    0    0  501 -0.00000000000E+00  0.00000000000E+00  0.64179112391E+03  0.64179112392E+03  0.25500000000E-02 0.  1.
          2   -1    0    0  501    0  0.00000000000E+00 -0.00000000000E+00 -0.29470913663E+04  0.29470913663E+04  0.25500000000E-02 0. -1.
    8880023    1    1    2    0    0  0.81196988312E+02 -0.62909647526E+03  0.25292627186E+03  0.94875562257E+03  0.65864270000E+03 0.  0.
    8880022    1    1    2    0    0 -0.81196988312E+02  0.62909647526E+03 -0.25582265143E+04  0.26401268677E+04  0.15294330000E+03 0.  0.
<mgrwt>
<rscale>  0 0.84043387E+03</rscale>
<asrwt>0</asrwt>
<pdfrwt beam="1">  1        2 0.45339866E+00 0.91442087E+03</pdfrwt>
<pdfrwt beam="2">  1       -2 0.98737097E-01 0.91442087E+03</pdfrwt>
<totfact> 0.16516412E+00</totfact>
</mgrwt>
</event>
<event>
 4    1  0.2502834E-007  0.7929751E+03  0.7818608E-02  0.9726196E-01
         -2   -1    0    0    0  501 -0.00000000000E+00  0.00000000000E+00  0.82276009589E+03  0.82276009590E+03  0.25500000000E-02 0.  1.
          2   -1    0    0  501    0  0.00000000000E+00 -0.00000000000E+00 -0.91422430896E+03  0.91422430896E+03  0.25500000000E-02 0. -1.
    8880023    1    1    2    0    0 -0.19187498674E+03 -0.39772258029E+03  0.53414888736E+03  0.95609858359E+03  0.65864270000E+03 0.  0.
    8880022    1    1    2    0    0  0.19187498674E+03  0.39772258029E+03 -0.62561310043E+03  0.78088582127E+03  0.15294330000E+03 0.  0.
<mgrwt>
<rscale>  0 0.69478266E+03</rscale>
<asrwt>0</asrwt>
<pdfrwt beam="1">  1        2 0.14064989E+00 0.79297507E+03</pdfrwt>
<pdfrwt beam="2">  1       -2 0.12657848E+00 0.79297507E+03</pdfrwt>
<totfact> 0.13477542E+01</totfact>
</mgrwt>
</event>
<event>
 4    1  0.2502834E-007  0.8262690E+03  0.7818608E-02  0.9656636E-01
          2   -1    0    0  501    0  0.00000000000E+00  0.00000000000E+00  0.21468619808E+04  0.21468619808E+04  0.25500000000E-02 0. -1.
         -2   -1    0    0    0  501 -0.00000000000E+00 -0.00000000000E+00 -0.54341816657E+03  0.54341816658E+03  0.25500000000E-02 0.  1.
    8880023    1    1    2    0    0 -0.24016060901E+02  0.49833077793E+03 -0.16834608353E+03  0.84324429765E+03  0.65864270000E+03 0.  1.
    8880022    1    1    2    0    0  0.24016060901E+02 -0.49833077793E+03  0.17717898977E+04  0.18470358497E+04  0.15294330000E+03 0.  0.
<mgrwt>
<rscale>  0 0.73658431E+03</rscale>
<asrwt>0</asrwt>
<pdfrwt beam="1">  1        2 0.33028646E+00 0.82626905E+03</pdfrwt>
<pdfrwt beam="2">  1       -2 0.83602796E-01 0.82626905E+03</pdfrwt>
<totfact> 0.71098686E+00</totfact>
</mgrwt>
</event>
<event>
 4    1  0.2502834E-007  0.7129406E+03  0.7818608E-02  0.9947239E-01
          2   -1    0    0  501    0  0.00000000000E+00  0.00000000000E+00  0.14732433975E+04  0.14732433975E+04  0.25500000000E-02 0. -1.
         -2   -1    0    0    0  501 -0.00000000000E+00 -0.00000000000E+00 -0.40119148195E+03  0.40119148196E+03  0.25500000000E-02 0.  1.
    8880023    1    1    2    0    0 -0.26663650135E+03 -0.58129573992E+02 -0.45043914708E+02  0.71436211527E+03  0.65864270000E+03 0.  0.
    8880022    1    1    2    0    0  0.26663650135E+03  0.58129573992E+02  0.11170958302E+04  0.11600727642E+04  0.15294330000E+03 0.  0.
<mgrwt>
<rscale>  0 0.58025492E+03</rscale>
<asrwt>0</asrwt>
<pdfrwt beam="1">  1        2 0.22665283E+00 0.71294058E+03</pdfrwt>
<pdfrwt beam="2">  1       -2 0.61721765E-01 0.71294058E+03</pdfrwt>
<totfact> 0.32922972E+01</totfact>
</mgrwt>
</event>
<event>
 4    1  0.2502834E-007  0.7365742E+03  0.7818608E-02  0.9870041E-01
         -2   -1    0    0    0  501 -0.00000000000E+00  0.00000000000E+00  0.13604394133E+04  0.13604394133E+04  0.25500000000E-02 0.  1.
          2   -1    0    0  501    0  0.00000000000E+00 -0.00000000000E+00 -0.41338647826E+03  0.41338647827E+03  0.25500000000E-02 0. -1.
    8880023    1    1    2    0    0 -0.23318737518E+03  0.23314141868E+03 -0.24006809111E+02  0.73696526797E+03  0.65864270000E+03 0.  0.
    8880022    1    1    2    0    0  0.23318737518E+03 -0.23314141868E+03  0.97105974413E+03  0.10368606236E+04  0.15294330000E+03 0.  0.
<mgrwt>
<rscale>  0 0.61735451E+03</rscale>
<asrwt>0</asrwt>
<pdfrwt beam="1">  1        2 0.63597920E-01 0.73657415E+03</pdfrwt>
<pdfrwt beam="2">  1       -2 0.20929837E+00 0.73657415E+03</pdfrwt>
<totfact> 0.90566540E+00</totfact>
</mgrwt>
</event>
<event>
 4    1  0.2502834E-007  0.1224363E+04  0.7818608E-02  0.9133796E-01
          2   -1    0    0  501    0  0.00000000000E+00  0.00000000000E+00  0.98307090529E+03  0.98307090529E+03  0.25500000000E-02 0. -1.
         -2   -1    0    0    0  501 -0.00000000000E+00 -0.00000000000E+00 -0.14449765544E+04  0.14449765544E+04  0.25500000000E-02 0.  1.
    8880023    1    1    2    0    0  0.85835693189E+03 -0.57313096609E+03 -0.62060001622E+03  0.13726654047E+04  0.65864270000E+03 0.  0.
    8880022    1    1    2    0    0 -0.85835693189E+03  0.57313096609E+03  0.15869436713E+03  0.10553820550E+04  0.15294330000E+03 0.  0.
<mgrwt>
<rscale>  0 0.11763693E+04</rscale>
<asrwt>0</asrwt>
<pdfrwt beam="1">  1        2 0.15124168E+00 0.12243635E+04</pdfrwt>
<pdfrwt beam="2">  1       -2 0.22230409E+00 0.12243635E+04</pdfrwt>
<totfact> 0.23967758E+00</totfact>
</mgrwt>
</event>
<event>
 4    1  0.2544934E-007  0.1033571E+04  0.7818608E-02  0.9338897E-01
          2   -1    0    0  501    0  0.00000000000E+00  0.00000000000E+00  0.20252580019E+04  0.20252580019E+04  0.25500000000E-02 0. -1.
         -2   -1    0    0    0  501 -0.00000000000E+00 -0.00000000000E+00 -0.97610978661E+03  0.97610978661E+03  0.25500000000E-02 0.  1.
    8880023    1    1    2    0    0  0.71264460662E+02  0.79333537068E+03 -0.57732344145E+03  0.11838801443E+04  0.65864270000E+03 0.  0.
    8880022    1    1    2    0    0 -0.71264460662E+02 -0.79333537068E+03  0.16264716567E+04  0.18174876442E+04  0.15294330000E+03 0.  0.
<mgrwt>
<rscale>  0 0.97279500E+03</rscale>
<asrwt>0</asrwt>
<pdfrwt beam="1">  1        2 0.31157815E+00 0.10335714E+04</pdfrwt>
<pdfrwt beam="2">  1       -2 0.15017074E+00 0.10335714E+04</pdfrwt>
<totfact> 0.19196304E+00</totfact>
</mgrwt>
</event>
<event>
 4    1  0.2502834E-007  0.1093647E+04  0.7818608E-02  0.9268163E-01
         -2   -1    0    0    0  501 -0.00000000000E+00  0.00000000000E+00  0.10986876781E+04  0.10986876781E+04  0.25500000000E-02 0.  1.
          2   -1    0    0  501    0  0.00000000000E+00 -0.00000000000E+00 -0.97006380248E+03  0.97006380249E+03  0.25500000000E-02 0. -1.
    8880023    1    1    2    0    0 -0.33791251205E+03  0.80502701855E+03  0.36230764704E+03  0.11520982613E+04  0.65864270000E+03 0.  0.
    8880022    1    1    2    0    0  0.33791251205E+03 -0.80502701855E+03 -0.23368377140E+03  0.91665321928E+03  0.15294330000E+03 0.  0.
<mgrwt>
<rscale>  0 0.10376745E+04</rscale>
<asrwt>0</asrwt>
<pdfrwt beam="1">  1        2 0.14924059E+00 0.10936469E+04</pdfrwt>
<pdfrwt beam="2">  1       -2 0.16902887E+00 0.10936469E+04</pdfrwt>
<totfact> 0.56045612E+00</totfact>
</mgrwt>
</event>
<event>
 4    1  0.2502834E-007  0.7557099E+03  0.7818608E-02  0.9816343E-01
         -2   -1    0    0    0  501 -0.00000000000E+00  0.00000000000E+00  0.80150013895E+03  0.80150013896E+03  0.25500000000E-02 0.  1.
          2   -1    0    0  501    0  0.00000000000E+00 -0.00000000000E+00 -0.57182341527E+03  0.57182341527E+03  0.25500000000E-02 0. -1.
    8880023    1    1    2    0    0  0.32166473444E+03 -0.18389969058E+03  0.48510416738E+03  0.89801088916E+03  0.65864270000E+03 0.  1.
    8880022    1    1    2    0    0 -0.32166473444E+03  0.18389969058E+03 -0.25542744369E+03  0.47531266508E+03  0.15294330000E+03 0.  0.
<mgrwt>
<rscale>  0 0.64492798E+03</rscale>
<asrwt>0</asrwt>
<pdfrwt beam="1">  1        2 0.87972834E-01 0.75570993E+03</pdfrwt>
<pdfrwt beam="2">  1       -2 0.12330771E+00 0.75570993E+03</pdfrwt>
<totfact> 0.26397753E+01</totfact>
</mgrwt>
</event>
<event>
 4    1  0.2502834E-007  0.8336122E+03  0.7818608E-02  0.9642345E-01
          2   -1    0    0  501    0  0.00000000000E+00  0.00000000000E+00  0.51410080660E+03  0.51410080661E+03  0.25500000000E-02 0. -1.
         -2   -1    0    0    0  501 -0.00000000000E+00 -0.00000000000E+00 -0.14231410755E+04  0.14231410755E+04  0.25500000000E-02 0.  1.
    8880023    1    1    2    0    0 -0.30464714974E+03 -0.41023075636E+03 -0.10915896891E+04  0.13734909592E+04  0.65864270000E+03 0.  1.
    8880022    1    1    2    0    0  0.30464714974E+03  0.41023075636E+03  0.18254942018E+03  0.56375092296E+03  0.15294330000E+03 0.  0.
<mgrwt>
<rscale>  0 0.74555827E+03</rscale>
<asrwt>0</asrwt>
<pdfrwt beam="1">  1        2 0.79092432E-01 0.83361224E+03</pdfrwt>
<pdfrwt beam="2">  1       -2 0.21894478E+00 0.83361224E+03</pdfrwt>
<totfact> 0.60613663E+00</totfact>
</mgrwt>
</event>
<event>
 4    1  0.2502834E-007  0.1081013E+04  0.7818608E-02  0.9282496E-01
          2   -1    0    0  501    0  0.00000000000E+00  0.00000000000E+00  0.12767931451E+04  0.12767931451E+04  0.25500000000E-02 0. -1.
         -2   -1    0    0    0  501 -0.00000000000E+00 -0.00000000000E+00 -0.83141622649E+03  0.83141622650E+03  0.25500000000E-02 0.  1.
    8880023    1    1    2    0    0 -0.62875963154E+03  0.58261458793E+03 -0.92140911153E+02  0.10849325261E+04  0.65864270000E+03 0.  0.
    8880022    1    1    2    0    0  0.62875963154E+03 -0.58261458793E+03  0.53751782979E+03  0.10232768456E+04  0.15294330000E+03 0.  0.
<mgrwt>
<rscale>  0 0.10241037E+04</rscale>
<asrwt>0</asrwt>
<pdfrwt beam="1">  1        2 0.19642971E+00 0.10810128E+04</pdfrwt>
<pdfrwt beam="2">  1       -2 0.12791019E+00 0.10810128E+04</pdfrwt>
<totfact> 0.76005144E+00</totfact>
</mgrwt>
</event>
<event>
 4    1  0.2502834E-007  0.6862677E+03  0.7818608E-02  0.1005979E+00
         -2   -1    0    0    0  501 -0.00000000000E+00  0.00000000000E+00  0.36577856953E+03  0.36577856954E+03  0.25500000000E-02 0.  1.
          2   -1    0    0  501    0  0.00000000000E+00 -0.00000000000E+00 -0.20033150007E+04  0.20033150007E+04  0.25500000000E-02 0. -1.
    8880023    1    1    2    0    0  0.19079316503E+03 -0.27407079411E+02  0.26679164982E+02  0.68678611222E+03  0.65864270000E+03 0.  1.
    8880022    1    1    2    0    0 -0.19079316503E+03  0.27407079411E+02 -0.16642155962E+04  0.16823074581E+04  0.15294330000E+03 0.  0.
<mgrwt>
<rscale>  0 0.53104315E+03</rscale>
<asrwt>0</asrwt>
<pdfrwt beam="1">  1        2 0.30820230E+00 0.68626772E+03</pdfrwt>
<pdfrwt beam="2">  1       -2 0.56273627E-01 0.68626772E+03</pdfrwt>
<totfact> 0.20578951E+01</totfact>
</mgrwt>
</event>
<event>
 4    1  0.2502834E-007  0.9295702E+03  0.7818608E-02  0.9480138E-01
          2   -1    0    0  501    0  0.00000000000E+00  0.00000000000E+00  0.10245900834E+04  0.10245900834E+04  0.25500000000E-02 0. -1.
         -2   -1    0    0    0  501 -0.00000000000E+00 -0.00000000000E+00 -0.64534330535E+03  0.64534330536E+03  0.25500000000E-02 0.  1.
    8880023    1    1    2    0    0  0.56402558074E+03 -0.33491160329E+03  0.35773755524E+03  0.99603062324E+03  0.65864270000E+03 0.  1.
    8880022    1    1    2    0    0 -0.56402558074E+03  0.33491160329E+03  0.21509222853E+02  0.67390276556E+03  0.15294330000E+03 0. -1.
<mgrwt>
<rscale>  0 0.85764121E+03</rscale>
<asrwt>0</asrwt>
<pdfrwt beam="1">  1        2 0.15762924E+00 0.92957025E+03</pdfrwt>
<pdfrwt beam="2">  1       -2 0.99283586E-01 0.92957025E+03</pdfrwt>
<totfact> 0.20405510E+01</totfact>
</mgrwt>
</event>
<event>
 4    1  0.2502834E-007  0.6857893E+03  0.7818608E-02  0.1006222E+00
          2   -1    0    0  501    0  0.00000000000E+00  0.00000000000E+00  0.23997539483E+04  0.23997539483E+04  0.25500000000E-02 0. -1.
         -2   -1    0    0    0  501 -0.00000000000E+00 -0.00000000000E+00 -0.46809521923E+03  0.46809521923E+03  0.25500000000E-02 0.  1.
    8880023    1    1    2    0    0  0.11612527928E+03  0.15169578595E+03 -0.20613067146E+03  0.71609828372E+03  0.65864270000E+03 0.  1.
    8880022    1    1    2    0    0 -0.11612527928E+03 -0.15169578595E+03  0.21377894005E+04  0.21517508838E+04  0.15294330000E+03 0.  0.
<mgrwt>
<rscale>  0 0.53004262E+03</rscale>
<asrwt>0</asrwt>
<pdfrwt beam="1">  1        2 0.36919292E+00 0.68578925E+03</pdfrwt>
<pdfrwt beam="2">  1       -2 0.72014648E-01 0.68578925E+03</pdfrwt>
<totfact> 0.73522469E+00</totfact>
</mgrwt>
</event>
<event>
 4    1  0.2502834E-007  0.1352559E+04  0.7818608E-02  0.9021451E-01
         -2   -1    0    0    0  501 -0.00000000000E+00  0.00000000000E+00  0.17503316107E+04  0.17503316108E+04  0.25500000000E-02 0.  1.
          2   -1    0    0  501    0  0.00000000000E+00 -0.00000000000E+00 -0.18122871119E+04  0.18122871119E+04  0.25500000000E-02 0. -1.
    8880023    1    1    2    0    0 -0.17436901858E+03 -0.11684178455E+04  0.12136870500E+04  0.18172647793E+04  0.65864270000E+03 0.  0.
    8880022    1    1    2    0    0  0.17436901858E+03  0.11684178455E+04 -0.12756425511E+04  0.17453539433E+04  0.15294330000E+03 0.  0.
<mgrwt>
<rscale>  0 0.13102819E+04</rscale>
<asrwt>0</asrwt>
<pdfrwt beam="1">  1        2 0.27881340E+00 0.13525587E+04</pdfrwt>
<pdfrwt beam="2">  1       -2 0.26928179E+00 0.13525587E+04</pdfrwt>
<totfact> 0.39689158E-01</totfact>
</mgrwt>
</event>
<event>
 4    1  0.2502834E-007  0.6856318E+03  0.7818608E-02  0.1006302E+00
         -2   -1    0    0    0  501 -0.00000000000E+00  0.00000000000E+00  0.18497940894E+03  0.18497940896E+03  0.25500000000E-02 0.  1.
          2   -1    0    0  501    0  0.00000000000E+00 -0.00000000000E+00 -0.12751612518E+04  0.12751612518E+04  0.25500000000E-02 0. -1.
    8880023    1    1    2    0    0 -0.13653920278E+03 -0.13280726454E+03 -0.59427495446E+03  0.90733326356E+03  0.65864270000E+03 0.  1.
    8880022    1    1    2    0    0  0.13653920278E+03  0.13280726454E+03 -0.49590688836E+03  0.55280739716E+03  0.15294330000E+03 0.  0.
<mgrwt>
<rscale>  0 0.52971207E+03</rscale>
<asrwt>0</asrwt>
<pdfrwt beam="1">  1        2 0.19617865E+00 0.68563177E+03</pdfrwt>
<pdfrwt beam="2">  1       -2 0.28458371E-01 0.68563177E+03</pdfrwt>
<totfact> 0.19654956E+02</totfact>
</mgrwt>
</event>
<event>
 4    1  0.2502834E-007  0.1026827E+04  0.7818608E-02  0.9347272E-01
         -2   -1    0    0    0  501 -0.00000000000E+00  0.00000000000E+00  0.23360695776E+03  0.23360695778E+03  0.25500000000E-02 0.  1.
          2   -1    0    0  501    0  0.00000000000E+00 -0.00000000000E+00 -0.36254995661E+04  0.36254995661E+04  0.25500000000E-02 0. -1.
    8880023    1    1    2    0    0  0.43286202197E+03  0.65817442222E+03 -0.21132433381E+04  0.23495043546E+04  0.65864270000E+03 0. -1.
    8880022    1    1    2    0    0 -0.43286202197E+03 -0.65817442222E+03 -0.12786492703E+04  0.15096021693E+04  0.15294330000E+03 0.  0.
<mgrwt>
<rscale>  0 0.96545007E+03</rscale>
<asrwt>0</asrwt>
<pdfrwt beam="1">  1        2 0.55776913E+00 0.10268268E+04</pdfrwt>
<pdfrwt beam="2">  1       -2 0.35939534E-01 0.10268268E+04</pdfrwt>
<totfact> 0.49945079E+00</totfact>
</mgrwt>
</event>
<event>
 4    1  0.2502834E-007  0.8933830E+03  0.7818608E-02  0.9536739E-01
         -2   -1    0    0    0  501 -0.00000000000E+00  0.00000000000E+00  0.57558651246E+03  0.57558651247E+03  0.25500000000E-02 0.  1.
          2   -1    0    0  501    0  0.00000000000E+00 -0.00000000000E+00 -0.17630243072E+04  0.17630243072E+04  0.25500000000E-02 0. -1.
    8880023    1    1    2    0    0  0.32481862746E+03  0.50873949431E+03  0.10937818615E+03  0.90005378044E+03  0.65864270000E+03 0.  1.
    8880022    1    1    2    0    0 -0.32481862746E+03 -0.50873949431E+03 -0.12968159809E+04  0.14385570392E+04  0.15294330000E+03 0.  0.
<mgrwt>
<rscale>  0 0.81628591E+03</rscale>
<asrwt>0</asrwt>
<pdfrwt beam="1">  1        2 0.27123451E+00 0.89338302E+03</pdfrwt>
<pdfrwt beam="2">  1       -2 0.88551772E-01 0.89338302E+03</pdfrwt>
<totfact> 0.10031419E+01</totfact>
</mgrwt>
</event>
<event>
 4    1  0.2502834E-007  0.7532100E+03  0.7818608E-02  0.9823014E-01
         -2   -1    0    0    0  501 -0.00000000000E+00  0.00000000000E+00  0.29948154776E+03  0.29948154777E+03  0.25500000000E-02 0.  1.
          2   -1    0    0  501    0  0.00000000000E+00 -0.00000000000E+00 -0.21422073882E+04  0.21422073882E+04  0.25500000000E-02 0. -1.
    8880023    1    1    2    0    0 -0.38563488366E+02  0.36335649105E+03 -0.23967562107E+03  0.79042374194E+03  0.65864270000E+03 0.  0.
    8880022    1    1    2    0    0  0.38563488366E+02 -0.36335649105E+03 -0.16030502194E+04  0.16512651941E+04  0.15294330000E+03 0.  0.
<mgrwt>
<rscale>  0 0.64141964E+03</rscale>
<asrwt>0</asrwt>
<pdfrwt beam="1">  1        2 0.32957036E+00 0.75320999E+03</pdfrwt>
<pdfrwt beam="2">  1       -2 0.46074086E-01 0.75320999E+03</pdfrwt>
<totfact> 0.25743286E+01</totfact>
</mgrwt>
</event>
<event>
 4    1  0.2502834E-007  0.7832426E+03  0.7818608E-02  0.9748275E-01
         -2   -1    0    0    0  501 -0.00000000000E+00  0.00000000000E+00  0.17762997751E+03  0.17762997753E+03  0.25500000000E-02 0.  1.
          2   -1    0    0  501    0  0.00000000000E+00 -0.00000000000E+00 -0.26841707428E+04  0.26841707428E+04  0.25500000000E-02 0. -1.
    8880023    1    1    2    0    0 -0.41984323734E+03 -0.58226649673E+02 -0.89918907162E+03  0.11924805573E+04  0.65864270000E+03 0.  1.
    8880022    1    1    2    0    0  0.41984323734E+03  0.58226649673E+02 -0.16073516936E+04  0.16693201630E+04  0.15294330000E+03 0.  0.
<mgrwt>
<rscale>  0 0.68213867E+03</rscale>
<asrwt>0</asrwt>
<pdfrwt beam="1">  1        2 0.41294932E+00 0.78324255E+03</pdfrwt>
<pdfrwt beam="2">  1       -2 0.27327691E-01 0.78324255E+03</pdfrwt>
<totfact> 0.34471112E+01</totfact>
</mgrwt>
</event>
<event>
 4    1  0.2502834E-007  0.9179695E+03  0.7818608E-02  0.9497779E-01
         -2   -1    0    0    0  501 -0.00000000000E+00  0.00000000000E+00  0.90388839589E+03  0.90388839589E+03  0.25500000000E-02 0.  1.
          2   -1    0    0  501    0  0.00000000000E+00 -0.00000000000E+00 -0.31217182023E+04  0.31217182023E+04  0.25500000000E-02 0. -1.
    8880023    1    1    2    0    0  0.27493616147E+03 -0.57729357596E+03  0.62318111477E+03  0.11095146118E+04  0.65864270000E+03 0.  0.
    8880022    1    1    2    0    0 -0.27493616147E+03  0.57729357596E+03 -0.28410109212E+04  0.29160919864E+04  0.15294330000E+03 0.  0.
<mgrwt>
<rscale>  0 0.84447731E+03</rscale>
<asrwt>0</asrwt>
<pdfrwt beam="1">  1        2 0.48026433E+00 0.91796948E+03</pdfrwt>
<pdfrwt beam="2">  1       -2 0.13905975E+00 0.91796948E+03</pdfrwt>
<totfact> 0.55172341E-01</totfact>
</mgrwt>
</event>
<event>
 4    1  0.2502834E-007  0.1026446E+04  0.7818608E-02  0.9347748E-01
          2   -1    0    0  501    0  0.00000000000E+00  0.00000000000E+00  0.21279890228E+04  0.21279890228E+04  0.25500000000E-02 0. -1.
         -2   -1    0    0    0  501 -0.00000000000E+00 -0.00000000000E+00 -0.11155128004E+04  0.11155128004E+04  0.25500000000E-02 0.  1.
    8880023    1    1    2    0    0 -0.66283758950E+03 -0.42476731168E+03 -0.77380815254E+03  0.12854455268E+04  0.65864270000E+03 0.  0.
    8880022    1    1    2    0    0  0.66283758950E+03  0.42476731168E+03  0.17862843749E+04  0.19580562965E+04  0.15294330000E+03 0.  0.
<mgrwt>
<rscale>  0 0.96503482E+03</rscale>
<asrwt>0</asrwt>
<pdfrwt beam="1">  1        2 0.32738292E+00 0.10264459E+04</pdfrwt>
<pdfrwt beam="2">  1       -2 0.17161736E+00 0.10264459E+04</pdfrwt>
<totfact> 0.11711739E+00</totfact>
</mgrwt>
</event>
<event>
 4    1  0.2502834E-007  0.8162775E+03  0.7818608E-02  0.9676647E-01
          2   -1    0    0  501    0  0.00000000000E+00  0.00000000000E+00  0.19681675860E+04  0.19681675860E+04  0.25500000000E-02 0. -1.
         -2   -1    0    0    0  501 -0.00000000000E+00 -0.00000000000E+00 -0.11260438606E+04  0.11260438606E+04  0.25500000000E-02 0.  1.
    8880023    1    1    2    0    0  0.20724482715E+03  0.43537141696E+03 -0.93809593658E+03  0.12435163375E+04  0.65864270000E+03 0.  1.
    8880022    1    1    2    0    0 -0.20724482715E+03 -0.43537141696E+03  0.17802196620E+04  0.18506951091E+04  0.15294330000E+03 0.  0.
<mgrwt>
<rscale>  0 0.72424431E+03</rscale>
<asrwt>0</asrwt>
<pdfrwt beam="1">  1        2 0.30279501E+00 0.81627746E+03</pdfrwt>
<pdfrwt beam="2">  1       -2 0.17323752E+00 0.81627746E+03</pdfrwt>
<totfact> 0.14445588E+00</totfact>
</mgrwt>
</event>
<event>
 4    1  0.2502834E-007  0.8177031E+03  0.7818608E-02  0.9673749E-01
          2   -1    0    0  501    0  0.00000000000E+00  0.00000000000E+00  0.13902131795E+04  0.13902131795E+04  0.25500000000E-02 0. -1.
         -2   -1    0    0    0  501 -0.00000000000E+00 -0.00000000000E+00 -0.48220917154E+03  0.48220917155E+03  0.25500000000E-02 0.  1.
    8880023    1    1    2    0    0 -0.47723973085E+03  0.84085925701E+02 -0.16052516184E+02  0.81786068077E+03  0.65864270000E+03 0.  0.
    8880022    1    1    2    0    0  0.47723973085E+03 -0.84085925701E+02  0.92405652419E+03  0.10545616703E+04  0.15294330000E+03 0.  0.
<mgrwt>
<rscale>  0 0.72601476E+03</rscale>
<asrwt>0</asrwt>
<pdfrwt beam="1">  1        2 0.21387895E+00 0.81770313E+03</pdfrwt>
<pdfrwt beam="2">  1       -2 0.74186027E-01 0.81770313E+03</pdfrwt>
<totfact> 0.24322620E+01</totfact>
</mgrwt>
</event>
<event>
 4    1  0.2502834E-007  0.1151573E+04  0.7818608E-02  0.9205698E-01
         -2   -1    0    0    0  501 -0.00000000000E+00  0.00000000000E+00  0.22081667327E+04  0.22081667327E+04  0.25500000000E-02 0.  1.
          2   -1    0    0  501    0  0.00000000000E+00 -0.00000000000E+00 -0.77748504829E+03  0.77748504829E+03  0.25500000000E-02 0. -1.
    8880023    1    1    2    0    0 -0.68526041187E+03  0.65017501436E+03 -0.12592152592E+03  0.11584367994E+04  0.65864270000E+03 0.  0.
    8880022    1    1    2    0    0  0.68526041187E+03 -0.65017501436E+03  0.15566032103E+04  0.18272149816E+04  0.15294330000E+03 0.  1.
<mgrwt>
<rscale>  0 0.10994810E+04</rscale>
<asrwt>0</asrwt>
<pdfrwt beam="1">  1        2 0.11961308E+00 0.11515727E+04</pdfrwt>
<pdfrwt beam="2">  1       -2 0.33971796E+00 0.11515727E+04</pdfrwt>
<totfact> 0.63972224E-01</totfact>
</mgrwt>
</event>
<event>
 4    1  0.2502834E-007  0.6745938E+03  0.7818608E-02  0.1012564E+00
          2   -1    0    0  501    0  0.00000000000E+00  0.00000000000E+00  0.75592053802E+03  0.75592053802E+03  0.25500000000E-02 0. -1.
         -2   -1    0    0    0  501 -0.00000000000E+00 -0.00000000000E+00 -0.44665627166E+03  0.44665627166E+03  0.25500000000E-02 0.  1.
    8880023    1    1    2    0    0 -0.14191458447E+03  0.33568326106E+02 -0.15527103308E+03  0.69223253447E+03  0.65864270000E+03 0.  1.
    8880022    1    1    2    0    0  0.14191458447E+03 -0.33568326106E+02  0.46453529944E+03  0.51034427521E+03  0.15294330000E+03 0.  0.
<mgrwt>
<rscale>  0 0.50468390E+03</rscale>
<asrwt>0</asrwt>
<pdfrwt beam="1">  1        2 0.11629547E+00 0.67459379E+03</pdfrwt>
<pdfrwt beam="2">  1       -2 0.68716350E-01 0.67459379E+03</pdfrwt>
<totfact> 0.73169608E+01</totfact>
</mgrwt>
</event>
<event>
 4    1  0.2502834E-007  0.1001001E+04  0.7818608E-02  0.9380249E-01
          2   -1    0    0  501    0  0.00000000000E+00  0.00000000000E+00  0.11065007295E+04  0.11065007295E+04  0.25500000000E-02 0. -1.
         -2   -1    0    0    0  501 -0.00000000000E+00 -0.00000000000E+00 -0.10441816904E+04  0.10441816904E+04  0.25500000000E-02 0.  1.
    8880023    1    1    2    0    0  0.33350129447E+03 -0.67599522275E+03 -0.57271579419E+03  0.11532589656E+04  0.65864270000E+03 0.  0.
    8880022    1    1    2    0    0 -0.33350129447E+03  0.67599522275E+03  0.63503483337E+03  0.99742345430E+03  0.15294330000E+03 0.  0.
<mgrwt>
<rscale>  0 0.93719064E+03</rscale>
<asrwt>0</asrwt>
<pdfrwt beam="1">  1        2 0.17023088E+00 0.10010009E+04</pdfrwt>
<pdfrwt beam="2">  1       -2 0.16064334E+00 0.10010009E+04</pdfrwt>
<totfact> 0.53297514E+00</totfact>
</mgrwt>
</event>
<event>
 4    1  0.2502834E-007  0.6611547E+03  0.7818608E-02  0.1023003E+00
         -2   -1    0    0    0  501 -0.00000000000E+00  0.00000000000E+00  0.19799153116E+03  0.19799153117E+03  0.25500000000E-02 0.  1.
          2   -1    0    0  501    0  0.00000000000E+00 -0.00000000000E+00 -0.22020458200E+04  0.22020458200E+04  0.25500000000E-02 0. -1.
    8880023    1    1    2    0    0 -0.17680068456E+02  0.54796729299E+02 -0.36963160550E+03  0.75746484830E+03  0.65864270000E+03 0.  1.
    8880022    1    1    2    0    0  0.17680068456E+02 -0.54796729299E+02 -0.16344226833E+04  0.16425725029E+04  0.15294330000E+03 0.  0.
<mgrwt>
<rscale>  0 0.46618175E+03</rscale>
<asrwt>0</asrwt>
<pdfrwt beam="1">  1        2 0.33877626E+00 0.66115465E+03</pdfrwt>
<pdfrwt beam="2">  1       -2 0.30460237E-01 0.66115465E+03</pdfrwt>
<totfact> 0.53666051E+01</totfact>
</mgrwt>
</event>
<event>
 4    1  0.2502834E-007  0.7195479E+03  0.7818608E-02  0.9924119E-01
         -2   -1    0    0    0  501 -0.00000000000E+00  0.00000000000E+00  0.12732663723E+03  0.12732663725E+03  0.25500000000E-02 0.  1.
          2   -1    0    0  501    0  0.00000000000E+00 -0.00000000000E+00 -0.36982116876E+04  0.36982116876E+04  0.25500000000E-02 0. -1.
    8880023    1    1    2    0    0 -0.32414731334E+01 -0.28970413856E+03 -0.98958243676E+03  0.12235287493E+04  0.65864270000E+03 0.  1.
    8880022    1    1    2    0    0  0.32414731334E+01  0.28970413856E+03 -0.25813026136E+04  0.26020095755E+04  0.15294330000E+03 0.  0.
<mgrwt>
<rscale>  0 0.59106502E+03</rscale>
<asrwt>0</asrwt>
<pdfrwt beam="1">  1        2 0.56895556E+00 0.71954791E+03</pdfrwt>
<pdfrwt beam="2">  1       -2 0.19588716E-01 0.71954791E+03</pdfrwt>
<totfact> 0.14157496E+01</totfact>
</mgrwt>
</event>
<event>
 4    1  0.2502834E-007  0.6992733E+03  0.7818608E-02  0.1000023E+00
          2   -1    0    0  501    0  0.00000000000E+00  0.00000000000E+00  0.86361982852E+03  0.86361982852E+03  0.25500000000E-02 0. -1.
         -2   -1    0    0    0  501 -0.00000000000E+00 -0.00000000000E+00 -0.30062323031E+03  0.30062323032E+03  0.25500000000E-02 0.  1.
    8880023    1    1    2    0    0 -0.18976229234E+03 -0.13843143038E+03  0.53905432301E+03  0.88292851236E+03  0.65864270000E+03 0.  0.
    8880022    1    1    2    0    0  0.18976229234E+03  0.13843143038E+03  0.23942275194E+02  0.28131454649E+03  0.15294330000E+03 0.  0.
<mgrwt>
<rscale>  0 0.55640192E+03</rscale>
<asrwt>0</asrwt>
<pdfrwt beam="1">  1        2 0.13286459E+00 0.69927333E+03</pdfrwt>
<pdfrwt beam="2">  1       -2 0.46249729E-01 0.69927333E+03</pdfrwt>
<totfact> 0.13966913E+02</totfact>
</mgrwt>
</event>
<event>
 4    1  0.2502834E-007  0.1120579E+04  0.7818608E-02  0.9238483E-01
         -2   -1    0    0    0  501 -0.00000000000E+00  0.00000000000E+00  0.67626816145E+03  0.67626816146E+03  0.25500000000E-02 0.  1.
          2   -1    0    0  501    0  0.00000000000E+00 -0.00000000000E+00 -0.20527711799E+04  0.20527711799E+04  0.25500000000E-02 0. -1.
    8880023    1    1    2    0    0 -0.10383891147E+03  0.90061340507E+03 -0.58569863333E+02  0.11221085777E+04  0.65864270000E+03 0. -1.
    8880022    1    1    2    0    0  0.10383891147E+03 -0.90061340507E+03 -0.13179331551E+04  0.16069307637E+04  0.15294330000E+03 0.  0.
<mgrwt>
<rscale>  0 0.10664901E+04</rscale>
<asrwt>0</asrwt>
<pdfrwt beam="1">  1        2 0.31581095E+00 0.11205790E+04</pdfrwt>
<pdfrwt beam="2">  1       -2 0.10404126E+00 0.11205790E+04</pdfrwt>
<totfact> 0.46307868E+00</totfact>
</mgrwt>
</event>
<event>
 4    1  0.2502834E-007  0.1234840E+04  0.7818608E-02  0.9123978E-01
          2   -1    0    0  501    0  0.00000000000E+00  0.00000000000E+00  0.44729689149E+04  0.44729689149E+04  0.25500000000E-02 0. -1.
         -2   -1    0    0    0  501 -0.00000000000E+00 -0.00000000000E+00 -0.58050653303E+03  0.58050653303E+03  0.25500000000E-02 0.  1.
    8880023    1    1    2    0    0 -0.31743988676E+03  0.99511351195E+03  0.24838763915E+03  0.12595735822E+04  0.65864270000E+03 0.  0.
    8880022    1    1    2    0    0  0.31743988676E+03 -0.99511351195E+03  0.36440747427E+04  0.37939018657E+04  0.15294330000E+03 0.  0.
<mgrwt>
<rscale>  0 0.11873769E+04</rscale>
<asrwt>0</asrwt>
<pdfrwt beam="1">  1        2 0.68814908E+00 0.12348397E+04</pdfrwt>
<pdfrwt beam="2">  1       -2 0.89308695E-01 0.12348397E+04</pdfrwt>
<totfact> 0.14405525E-01</totfact>
</mgrwt>
</event>
<event>
 4    1  0.2502834E-007  0.1022149E+04  0.7818608E-02  0.9353137E-01
         -2   -1    0    0    0  501 -0.00000000000E+00  0.00000000000E+00  0.59120779485E+03  0.59120779485E+03  0.25500000000E-02 0.  1.
          2   -1    0    0  501    0  0.00000000000E+00 -0.00000000000E+00 -0.17557869946E+04  0.17557869946E+04  0.25500000000E-02 0. -1.
    8880023    1    1    2    0    0  0.21463092822E+03  0.75160656131E+03 -0.11379208123E+03  0.10284637584E+04  0.65864270000E+03 0.  0.
    8880022    1    1    2    0    0 -0.21463092822E+03 -0.75160656131E+03 -0.10507871185E+04  0.13185310310E+04  0.15294330000E+03 0.  0.
<mgrwt>
<rscale>  0 0.96034793E+03</rscale>
<asrwt>0</asrwt>
<pdfrwt beam="1">  1        2 0.27012107E+00 0.10221492E+04</pdfrwt>
<pdfrwt beam="2">  1       -2 0.90955046E-01 0.10221492E+04</pdfrwt>
<totfact> 0.93793650E+00</totfact>
</mgrwt>
</event>
<event>
 4    1  0.3347402E-007  0.1355375E+04  0.7818608E-02  0.9019157E-01
          2   -1    0    0  501    0  0.00000000000E+00  0.00000000000E+00  0.26022034197E+04  0.26022034197E+04  0.25500000000E-02 0. -1.
         -2   -1    0    0    0  501 -0.00000000000E+00 -0.00000000000E+00 -0.16455245557E+04  0.16455245557E+04  0.25500000000E-02 0.  1.
    8880023    1    1    2    0    0  0.97738933839E+03 -0.66928408602E+03 -0.11818322889E+04  0.17982682981E+04  0.65864270000E+03 0.  1.
    8880022    1    1    2    0    0 -0.97738933839E+03  0.66928408602E+03  0.21385111529E+04  0.24494596773E+04  0.15294330000E+03 0.  0.
<mgrwt>
<rscale>  0 0.13132072E+04</rscale>
<asrwt>0</asrwt>
<pdfrwt beam="1">  1        2 0.40033898E+00 0.13553750E+04</pdfrwt>
<pdfrwt beam="2">  1       -2 0.25315763E+00 0.13553750E+04</pdfrwt>
<totfact> 0.17832896E-01</totfact>
</mgrwt>
</event>
<event>
 4    1  0.2502834E-007  0.1328424E+04  0.7818608E-02  0.9041394E-01
          2   -1    0    0  501    0  0.00000000000E+00  0.00000000000E+00  0.25344775185E+04  0.25344775185E+04  0.25500000000E-02 0. -1.
         -2   -1    0    0    0  501 -0.00000000000E+00 -0.00000000000E+00 -0.13451714149E+04  0.13451714149E+04  0.25500000000E-02 0.  1.
    8880023    1    1    2    0    0  0.43437076742E+03 -0.10687485532E+04  0.20426101399E+04  0.24365893834E+04  0.65864270000E+03 0.  0.
    8880022    1    1    2    0    0 -0.43437076742E+03  0.10687485532E+04 -0.85330403625E+03  0.14430595500E+04  0.15294330000E+03 0.  0.
<mgrwt>
<rscale>  0 0.12851882E+04</rscale>
<asrwt>0</asrwt>
<pdfrwt beam="1">  1        2 0.38991961E+00 0.13284245E+04</pdfrwt>
<pdfrwt beam="2">  1       -2 0.20694945E+00 0.13284245E+04</pdfrwt>
<totfact> 0.38204272E-01</totfact>
</mgrwt>
</event>
<event>
 4    1  0.2586194E-007  0.9014188E+03  0.7818608E-02  0.9523758E-01
         -2   -1    0    0    0  501 -0.00000000000E+00  0.00000000000E+00  0.87847994550E+03  0.87847994550E+03  0.25500000000E-02 0.  1.
          2   -1    0    0  501    0  0.00000000000E+00 -0.00000000000E+00 -0.27748390647E+04  0.27748390647E+04  0.25500000000E-02 0. -1.
    8880023    1    1    2    0    0 -0.60437619911E+03 -0.11608201627E+03  0.59660227531E+03  0.10809672084E+04  0.65864270000E+03 0.  1.
    8880022    1    1    2    0    0  0.60437619911E+03  0.11608201627E+03 -0.24929613945E+04  0.25723518018E+04  0.15294330000E+03 0.  0.
<mgrwt>
<rscale>  0 0.82554689E+03</rscale>
<asrwt>0</asrwt>
<pdfrwt beam="1">  1        2 0.42689831E+00 0.90141879E+03</pdfrwt>
<pdfrwt beam="2">  1       -2 0.13515076E+00 0.90141879E+03</pdfrwt>
<totfact> 0.96955343E-01</totfact>
</mgrwt>
</event>
<event>
 4    1  0.2502834E-007  0.1176579E+04  0.7818608E-02  0.9180233E-01
          2   -1    0    0  501    0  0.00000000000E+00  0.00000000000E+00  0.16883394970E+04  0.16883394970E+04  0.25500000000E-02 0. -1.
         -2   -1    0    0    0  501 -0.00000000000E+00 -0.00000000000E+00 -0.19382347503E+04  0.19382347503E+04  0.25500000000E-02 0.  1.
    8880023    1    1    2    0    0  0.72674961189E+03  0.64989374986E+03 -0.15802403383E+04  0.19701514200E+04  0.65864270000E+03 0.  1.
    8880022    1    1    2    0    0 -0.72674961189E+03 -0.64989374986E+03  0.13303450851E+04  0.16564228273E+04  0.15294330000E+03 0.  0.
<mgrwt>
<rscale>  0 0.11259809E+04</rscale>
<asrwt>0</asrwt>
<pdfrwt beam="1">  1        2 0.25974454E+00 0.11765786E+04</pdfrwt>
<pdfrwt beam="2">  1       -2 0.29818996E+00 0.11765786E+04</pdfrwt>
<totfact> 0.31770828E-01</totfact>
</mgrwt>
</event>
<event>
 4    1  0.2502834E-007  0.1270155E+04  0.7818608E-02  0.9091771E-01
         -2   -1    0    0    0  501 -0.00000000000E+00  0.00000000000E+00  0.14313348682E+04  0.14313348682E+04  0.25500000000E-02 0.  1.
          2   -1    0    0  501    0  0.00000000000E+00 -0.00000000000E+00 -0.20190274353E+04  0.20190274353E+04  0.25500000000E-02 0. -1.
    8880023    1    1    2    0    0 -0.10729760798E+04 -0.16794383411E+03  0.93259060687E+03  0.15757595773E+04  0.65864270000E+03 0.  0.
    8880022    1    1    2    0    0  0.10729760798E+04  0.16794383411E+03 -0.15202831740E+04  0.18746027262E+04  0.15294330000E+03 0.  0.
<mgrwt>
<rscale>  0 0.12243907E+04</rscale>
<asrwt>0</asrwt>
<pdfrwt beam="1">  1        2 0.31061960E+00 0.12701547E+04</pdfrwt>
<pdfrwt beam="2">  1       -2 0.22020537E+00 0.12701547E+04</pdfrwt>
<totfact> 0.61873716E-01</totfact>
</mgrwt>
</event>
<event>
 4    1  0.2502834E-007  0.8295079E+03  0.7818608E-02  0.9650291E-01
          2   -1    0    0  501    0  0.00000000000E+00  0.00000000000E+00  0.11910488251E+04  0.11910488251E+04  0.25500000000E-02 0. -1.
         -2   -1    0    0    0  501 -0.00000000000E+00 -0.00000000000E+00 -0.12158485420E+04  0.12158485420E+04  0.25500000000E-02 0.  1.
    8880023    1    1    2    0    0  0.33844012999E+03  0.37380661613E+03 -0.99950053005E+03  0.12988782174E+04  0.65864270000E+03 0.  0.
    8880022    1    1    2    0    0 -0.33844012999E+03 -0.37380661613E+03  0.97470081314E+03  0.11080191497E+04  0.15294330000E+03 0.  0.
<mgrwt>
<rscale>  0 0.74055187E+03</rscale>
<asrwt>0</asrwt>
<pdfrwt beam="1">  1        2 0.18323828E+00 0.82950787E+03</pdfrwt>
<pdfrwt beam="2">  1       -2 0.18705362E+00 0.82950787E+03</pdfrwt>
<totfact> 0.31523999E+00</totfact>
</mgrwt>
</event>
<event>
 4    1  0.2502834E-007  0.1196229E+04  0.7818608E-02  0.9160796E-01
          2   -1    0    0  501    0  0.00000000000E+00  0.00000000000E+00  0.10166041712E+04  0.10166041712E+04  0.25500000000E-02 0. -1.
         -2   -1    0    0    0  501 -0.00000000000E+00 -0.00000000000E+00 -0.18650454634E+04  0.18650454634E+04  0.25500000000E-02 0.  1.
    8880023    1    1    2    0    0  0.98755050821E+03 -0.14798131548E+03 -0.13073845845E+04  0.17720663459E+04  0.65864270000E+03 0.  0.
    8880022    1    1    2    0    0 -0.98755050821E+03  0.14798131548E+03  0.45894329229E+03  0.11095832887E+04  0.15294330000E+03 0.  0.
<mgrwt>
<rscale>  0 0.11467399E+04</rscale>
<asrwt>0</asrwt>
<pdfrwt beam="1">  1        2 0.15640064E+00 0.11962294E+04</pdfrwt>
<pdfrwt beam="2">  1       -2 0.28693007E+00 0.11962294E+04</pdfrwt>
<totfact> 0.91767468E-01</totfact>
</mgrwt>
</event>
<event>
 4    1  0.2502834E-007  0.9925584E+03  0.7818608E-02  0.9391359E-01
         -2   -1    0    0    0  501 -0.00000000000E+00  0.00000000000E+00  0.20607133867E+04  0.20607133867E+04  0.25500000000E-02 0.  1.
          2   -1    0    0  501    0  0.00000000000E+00 -0.00000000000E+00 -0.87700872105E+03  0.87700872106E+03  0.25500000000E-02 0. -1.
    8880023    1    1    2    0    0  0.36270428588E+03 -0.64792552354E+03  0.17360255763E+04  0.19997392057E+04  0.65864270000E+03 0.  0.
    8880022    1    1    2    0    0 -0.36270428588E+03  0.64792552354E+03 -0.55232091069E+03  0.93798290200E+03  0.15294330000E+03 0.  0.
<mgrwt>
<rscale>  0 0.92790228E+03</rscale>
<asrwt>0</asrwt>
<pdfrwt beam="1">  1        2 0.13492442E+00 0.99255836E+03</pdfrwt>
<pdfrwt beam="2">  1       -2 0.31703283E+00 0.99255836E+03</pdfrwt>
<totfact> 0.76525733E-01</totfact>
</mgrwt>
</event>
<event>
 4    1  0.2502834E-007  0.1319027E+04  0.7818608E-02  0.9049301E-01
         -2   -1    0    0    0  501 -0.00000000000E+00  0.00000000000E+00  0.32696313018E+04  0.32696313018E+04  0.25500000000E-02 0.  1.
          2   -1    0    0  501    0  0.00000000000E+00 -0.00000000000E+00 -0.68497274629E+03  0.68497274629E+03  0.25500000000E-02 0. -1.
    8880023    1    1    2    0    0  0.10786162014E+04 -0.37763646917E+03  0.24645993982E+04  0.27953680639E+04  0.65864270000E+03 0.  1.
    8880022    1    1    2    0    0 -0.10786162014E+04  0.37763646917E+03  0.12005915730E+03  0.11592359842E+04  0.15294330000E+03 0.  0.
<mgrwt>
<rscale>  0 0.12754041E+04</rscale>
<asrwt>0</asrwt>
<pdfrwt beam="1">  1        2 0.10538042E+00 0.13190271E+04</pdfrwt>
<pdfrwt beam="2">  1       -2 0.50302020E+00 0.13190271E+04</pdfrwt>
<totfact> 0.64324436E-02</totfact>
</mgrwt>
</event>
<event>
 4    1  0.2502834E-007  0.1044801E+04  0.7818608E-02  0.9325158E-01
         -2   -1    0    0    0  501 -0.00000000000E+00  0.00000000000E+00  0.32346034382E+03  0.32346034383E+03  0.25500000000E-02 0.  1.
          2   -1    0    0  501    0  0.00000000000E+00 -0.00000000000E+00 -0.38972365405E+04  0.38972365405E+04  0.25500000000E-02 0. -1.
    8880023    1    1    2    0    0  0.74269882368E+03 -0.32587918301E+03 -0.76978037510E+03  0.12977560698E+04  0.65864270000E+03 0.  1.
    8880022    1    1    2    0    0 -0.74269882368E+03  0.32587918301E+03 -0.28039958216E+04  0.29229408145E+04  0.15294330000E+03 0.  0.
<mgrwt>
<rscale>  0 0.98499433E+03</rscale>
<asrwt>0</asrwt>
<pdfrwt beam="1">  1        2 0.59957482E+00 0.10448009E+04</pdfrwt>
<pdfrwt beam="2">  1       -2 0.49763132E-01 0.10448009E+04</pdfrwt>
<totfact> 0.16460914E+00</totfact>
</mgrwt>
</event>
<event>
 4    1  0.2502834E-007  0.7870410E+03  0.7818608E-02  0.9739550E-01
          2   -1    0    0  501    0  0.00000000000E+00  0.00000000000E+00  0.14428275495E+04  0.14428275495E+04  0.25500000000E-02 0. -1.
         -2   -1    0    0    0  501 -0.00000000000E+00 -0.00000000000E+00 -0.48732499234E+03  0.48732499235E+03  0.25500000000E-02 0.  1.
    8880023    1    1    2    0    0  0.22195103975E+03  0.36927098599E+03 -0.86974502603E+02  0.79183211321E+03  0.65864270000E+03 0.  1.
    8880022    1    1    2    0    0 -0.22195103975E+03 -0.36927098599E+03  0.10424770598E+04  0.11383204287E+04  0.15294330000E+03 0.  0.
<mgrwt>
<rscale>  0 0.68710039E+03</rscale>
<asrwt>0</asrwt>
<pdfrwt beam="1">  1        2 0.22197347E+00 0.78704100E+03</pdfrwt>
<pdfrwt beam="2">  1       -2 0.74973075E-01 0.78704100E+03</pdfrwt>
<totfact> 0.22262423E+01</totfact>
</mgrwt>
</event>
<event>
 4    1  0.2502834E-007  0.6822422E+03  0.7818608E-02  0.1008083E+00
         -2   -1    0    0    0  501 -0.00000000000E+00  0.00000000000E+00  0.35772366321E+03  0.35772366322E+03  0.25500000000E-02 0.  1.
          2   -1    0    0  501    0  0.00000000000E+00 -0.00000000000E+00 -0.59448352423E+03  0.59448352423E+03  0.25500000000E-02 0. -1.
    8880023    1    1    2    0    0 -0.16603449751E+03 -0.63849575625E+02 -0.22073887986E+03  0.71706351324E+03  0.65864270000E+03 0.  0.
    8880022    1    1    2    0    0  0.16603449751E+03  0.63849575625E+02 -0.16020981157E+02  0.23514367422E+03  0.15294330000E+03 0. -1.
<mgrwt>
<rscale>  0 0.52243790E+03</rscale>
<asrwt>0</asrwt>
<pdfrwt beam="1">  1        2 0.91459004E-01 0.68224221E+03</pdfrwt>
<pdfrwt beam="2">  1       -2 0.55034410E-01 0.68224221E+03</pdfrwt>
<totfact> 0.15787133E+02</totfact>
</mgrwt>
</event>
<event>
 4    1  0.2502834E-007  0.1199953E+04  0.7818608E-02  0.9157168E-01
          2   -1    0    0  501    0  0.00000000000E+00  0.00000000000E+00  0.23174431437E+04  0.23174431437E+04  0.25500000000E-02 0. -1.
         -2   -1    0    0    0  501 -0.00000000000E+00 -0.00000000000E+00 -0.68295963627E+03  0.68295963628E+03  0.25500000000E-02 0.  1.
    8880023    1    1    2    0    0  0.67796307941E+03  0.73921779295E+03  0.16003217434E+03  0.12105772943E+04  0.65864270000E+03 0.  1.
    8880022    1    1    2    0    0 -0.67796307941E+03 -0.73921779295E+03  0.14744513331E+04  0.17898254857E+04  0.15294330000E+03 0.  0.
<mgrwt>
<rscale>  0 0.11506674E+04</rscale>
<asrwt>0</asrwt>
<pdfrwt beam="1">  1        2 0.35652972E+00 0.11999530E+04</pdfrwt>
<pdfrwt beam="2">  1       -2 0.10507071E+00 0.11999530E+04</pdfrwt>
<totfact> 0.31894388E+00</totfact>
</mgrwt>
</event>
<event>
 4    1  0.2502834E-007  0.1241950E+04  0.7818608E-02  0.9117385E-01
         -2   -1    0    0    0  501 -0.00000000000E+00  0.00000000000E+00  0.76276760691E+03  0.76276760692E+03  0.25500000000E-02 0.  1.
          2   -1    0    0  501    0  0.00000000000E+00 -0.00000000000E+00 -0.19879243249E+04  0.19879243249E+04  0.25500000000E-02 0. -1.
    8880023    1    1    2    0    0  0.99714882392E+03  0.33811825744E+03 -0.17228692839E+03  0.12538431820E+04  0.65864270000E+03 0.  0.
    8880022    1    1    2    0    0 -0.99714882392E+03 -0.33811825744E+03 -0.10528697896E+04  0.14968487499E+04  0.15294330000E+03 0.  0.
<mgrwt>
<rscale>  0 0.11948405E+04</rscale>
<asrwt>0</asrwt>
<pdfrwt beam="1">  1        2 0.30583451E+00 0.12419501E+04</pdfrwt>
<pdfrwt beam="2">  1       -2 0.11734886E+00 0.12419501E+04</pdfrwt>
<totfact> 0.37025673E+00</totfact>
</mgrwt>
</event>
<event>
 4    1  0.2502834E-007  0.7905298E+03  0.7818608E-02  0.9731659E-01
         -2   -1    0    0    0  501 -0.00000000000E+00  0.00000000000E+00  0.13412751484E+04  0.13412751484E+04  0.25500000000E-02 0.  1.
          2   -1    0    0  501    0  0.00000000000E+00 -0.00000000000E+00 -0.16089709391E+04  0.16089709391E+04  0.25500000000E-02 0. -1.
    8880023    1    1    2    0    0 -0.10340283657E+02  0.43705859909E+03  0.11855690166E+04  0.14249600836E+04  0.65864270000E+03 0.  1.
    8880022    1    1    2    0    0  0.10340283657E+02 -0.43705859909E+03 -0.14532648073E+04  0.15252860039E+04  0.15294330000E+03 0.  0.
<mgrwt>
<rscale>  0 0.69162685E+03</rscale>
<asrwt>0</asrwt>
<pdfrwt beam="1">  1        2 0.24753399E+00 0.79052979E+03</pdfrwt>
<pdfrwt beam="2">  1       -2 0.20635002E+00 0.79052979E+03</pdfrwt>
<totfact> 0.13700952E+00</totfact>
</mgrwt>
</event>
<event>
 4    1  0.2502834E-007  0.1485568E+04  0.7818608E-02  0.8919895E-01
         -2   -1    0    0    0  501 -0.00000000000E+00  0.00000000000E+00  0.15289745497E+04  0.15289745497E+04  0.25500000000E-02 0.  1.
          2   -1    0    0  501    0  0.00000000000E+00 -0.00000000000E+00 -0.19903732305E+04  0.19903732305E+04  0.25500000000E-02 0. -1.
    8880023    1    1    2    0    0 -0.12729270113E+04 -0.39084283004E+03  0.79266875464E+03  0.16838156831E+04  0.65864270000E+03 0.  1.
    8880022    1    1    2    0    0  0.12729270113E+04  0.39084283004E+03 -0.12540674354E+04  0.18355320971E+04  0.15294330000E+03 0.  0.
<mgrwt>
<rscale>  0 0.14478465E+04</rscale>
<asrwt>0</asrwt>
<pdfrwt beam="1">  1        2 0.30621127E+00 0.14855677E+04</pdfrwt>
<pdfrwt beam="2">  1       -2 0.23522685E+00 0.14855677E+04</pdfrwt>
<totfact> 0.50388755E-01</totfact>
</mgrwt>
</event>
<event>
 4    1  0.2502834E-007  0.7662387E+03  0.7818608E-02  0.9789216E-01
          2   -1    0    0  501    0  0.00000000000E+00  0.00000000000E+00  0.22104584993E+04  0.22104584993E+04  0.25500000000E-02 0. -1.
         -2   -1    0    0    0  501 -0.00000000000E+00 -0.00000000000E+00 -0.40860564450E+03  0.40860564451E+03  0.25500000000E-02 0.  1.
    8880023    1    1    2    0    0  0.30914207148E+03 -0.24029709094E+03 -0.26531727024E+01  0.76624327590E+03  0.65864270000E+03 0.  1.
    8880022    1    1    2    0    0 -0.30914207148E+03  0.24029709094E+03  0.18045060275E+04  0.18528208679E+04  0.15294330000E+03 0.  0.
<mgrwt>
<rscale>  0 0.65944502E+03</rscale>
<asrwt>0</asrwt>
<pdfrwt beam="1">  1        2 0.34007054E+00 0.76623868E+03</pdfrwt>
<pdfrwt beam="2">  1       -2 0.62862407E-01 0.76623868E+03</pdfrwt>
<totfact> 0.12398940E+01</totfact>
</mgrwt>
</event>
<event>
 4    1  0.2502834E-007  0.1109742E+04  0.7818608E-02  0.9250286E-01
         -2   -1    0    0    0  501 -0.00000000000E+00  0.00000000000E+00  0.14591733461E+04  0.14591733461E+04  0.25500000000E-02 0.  1.
          2   -1    0    0  501    0  0.00000000000E+00 -0.00000000000E+00 -0.37135178827E+04  0.37135178827E+04  0.25500000000E-02 0. -1.
    8880023    1    1    2    0    0 -0.43496876968E+03 -0.78007662449E+03  0.11805661460E+04  0.16202666454E+04  0.65864270000E+03 0.  0.
    8880022    1    1    2    0    0  0.43496876968E+03  0.78007662449E+03 -0.34349106826E+04  0.35524245835E+04  0.15294330000E+03 0.  0.
<mgrwt>
<rscale>  0 0.10549130E+04</rscale>
<asrwt>0</asrwt>
<pdfrwt beam="1">  1        2 0.57131044E+00 0.11097421E+04</pdfrwt>
<pdfrwt beam="2">  1       -2 0.22448821E+00 0.11097421E+04</pdfrwt>
<totfact> 0.53665289E-02</totfact>
</mgrwt>
</event>
<event>
 4    1  0.2502834E-007  0.6888919E+03  0.7818608E-02  0.1004684E+00
          2   -1    0    0  501    0  0.00000000000E+00  0.00000000000E+00  0.12909770593E+04  0.12909770593E+04  0.25500000000E-02 0. -1.
         -2   -1    0    0    0  501 -0.00000000000E+00 -0.00000000000E+00 -0.50961052162E+03  0.50961052163E+03  0.25500000000E-02 0.  1.
    8880023    1    1    2    0    0 -0.87060403609E+02 -0.18216015294E+03 -0.25435216792E+03  0.73434805562E+03  0.65864270000E+03 0.  1.
    8880022    1    1    2    0    0  0.87060403609E+02  0.18216015294E+03  0.10357187056E+04  0.10662395254E+04  0.15294330000E+03 0.  0.
<mgrwt>
<rscale>  0 0.53643344E+03</rscale>
<asrwt>0</asrwt>
<pdfrwt beam="1">  1        2 0.19861185E+00 0.68889189E+03</pdfrwt>
<pdfrwt beam="2">  1       -2 0.78401620E-01 0.68889189E+03</pdfrwt>
<totfact> 0.24868583E+01</totfact>
</mgrwt>
</event>
<event>
 4    1  0.2502834E-007  0.9179683E+03  0.7818608E-02  0.9497781E-01
          2   -1    0    0  501    0  0.00000000000E+00  0.00000000000E+00  0.28515272464E+04  0.28515272464E+04  0.25500000000E-02 0. -1.
         -2   -1    0    0    0  501 -0.00000000000E+00 -0.00000000000E+00 -0.54472747275E+03  0.54472747276E+03  0.25500000000E-02 0.  1.
    8880023    1    1    2    0    0  0.27739146241E+03 -0.57611587891E+03 -0.79155766150E+02  0.92137471798E+03  0.65864270000E+03 0.  1.
    8880022    1    1    2    0    0 -0.27739146241E+03  0.57611587891E+03  0.23859555398E+04  0.24748800012E+04  0.15294330000E+03 0.  0.
<mgrwt>
<rscale>  0 0.84447592E+03</rscale>
<asrwt>0</asrwt>
<pdfrwt beam="1">  1        2 0.43869650E+00 0.91796827E+03</pdfrwt>
<pdfrwt beam="2">  1       -2 0.83804226E-01 0.91796827E+03</pdfrwt>
<totfact> 0.27584261E+00</totfact>
</mgrwt>
</event>
<event>
 4    1  0.2502834E-007  0.1054591E+04  0.7818608E-02  0.9313383E-01
         -2   -1    0    0    0  501 -0.00000000000E+00  0.00000000000E+00  0.91880304510E+03  0.91880304510E+03  0.25500000000E-02 0.  1.
          2   -1    0    0  501    0  0.00000000000E+00 -0.00000000000E+00 -0.22658019397E+04  0.22658019397E+04  0.25500000000E-02 0. -1.
    8880023    1    1    2    0    0  0.82264212229E+03  0.40136006482E+02  0.49206491497E+03  0.11637392522E+04  0.65864270000E+03 0.  0.
    8880022    1    1    2    0    0 -0.82264212229E+03 -0.40136006482E+02 -0.18390638096E+04  0.20208657326E+04  0.15294330000E+03 0.  0.
<mgrwt>
<rscale>  0 0.99560055E+03</rscale>
<asrwt>0</asrwt>
<pdfrwt beam="1">  1        2 0.34858491E+00 0.10545905E+04</pdfrwt>
<pdfrwt beam="2">  1       -2 0.14135432E+00 0.10545905E+04</pdfrwt>
<totfact> 0.16508438E+00</totfact>
</mgrwt>
</event>
<event>
 4    1  0.2502834E-007  0.8264235E+03  0.7818608E-02  0.9656332E-01
          2   -1    0    0  501    0  0.00000000000E+00  0.00000000000E+00  0.13161320144E+04  0.13161320144E+04  0.25500000000E-02 0. -1.
         -2   -1    0    0    0  501 -0.00000000000E+00 -0.00000000000E+00 -0.10690036864E+04  0.10690036864E+04  0.25500000000E-02 0.  1.
    8880023    1    1    2    0    0 -0.13147181267E+03  0.48154003318E+03 -0.84047691867E+03  0.11787184983E+04  0.65864270000E+03 0.  0.
    8880022    1    1    2    0    0  0.13147181267E+03 -0.48154003318E+03  0.10876052466E+04  0.12064172025E+04  0.15294330000E+03 0.  0.
<mgrwt>
<rscale>  0 0.73677390E+03</rscale>
<asrwt>0</asrwt>
<pdfrwt beam="1">  1        2 0.20248185E+00 0.82642353E+03</pdfrwt>
<pdfrwt beam="2">  1       -2 0.16446211E+00 0.82642353E+03</pdfrwt>
<totfact> 0.38290504E+00</totfact>
</mgrwt>
</event>
<event>
 4    1  0.2502834E-007  0.8700762E+03  0.7818608E-02  0.9575885E-01
         -2   -1    0    0    0  501 -0.00000000000E+00  0.00000000000E+00  0.70741679753E+03  0.70741679753E+03  0.25500000000E-02 0.  1.
          2   -1    0    0  501    0  0.00000000000E+00 -0.00000000000E+00 -0.17474609889E+04  0.17474609889E+04  0.25500000000E-02 0. -1.
    8880023    1    1    2    0    0 -0.51637864357E+03  0.23785618064E+03  0.35575357908E+03  0.93999642632E+03  0.65864270000E+03 0.  1.
    8880022    1    1    2    0    0  0.51637864357E+03 -0.23785618064E+03 -0.13957977704E+04  0.15148813601E+04  0.15294330000E+03 0.  0.
<mgrwt>
<rscale>  0 0.78913038E+03</rscale>
<asrwt>0</asrwt>
<pdfrwt beam="1">  1        2 0.26884015E+00 0.87007625E+03</pdfrwt>
<pdfrwt beam="2">  1       -2 0.10883335E+00 0.87007625E+03</pdfrwt>
<totfact> 0.63009918E+00</totfact>
</mgrwt>
</event>
<event>
 4    1  0.2502834E-007  0.7095965E+03  0.7818608E-02  0.9959502E-01
         -2   -1    0    0    0  501 -0.00000000000E+00  0.00000000000E+00  0.20872884360E+03  0.20872884362E+03  0.25500000000E-02 0.  1.
          2   -1    0    0  501    0  0.00000000000E+00 -0.00000000000E+00 -0.14746054457E+04  0.14746054457E+04  0.25500000000E-02 0. -1.
    8880023    1    1    2    0    0  0.19894495394E+03 -0.17360271266E+03 -0.52686902677E+03  0.88380890139E+03  0.65864270000E+03 0.  1.
    8880022    1    1    2    0    0 -0.19894495394E+03  0.17360271266E+03 -0.73900757534E+03  0.79952538795E+03  0.15294330000E+03 0.  0.
<mgrwt>
<rscale>  0 0.57462214E+03</rscale>
<asrwt>0</asrwt>
<pdfrwt beam="1">  1        2 0.22686237E+00 0.70959651E+03</pdfrwt>
<pdfrwt beam="2">  1       -2 0.32112131E-01 0.70959651E+03</pdfrwt>
<totfact> 0.12081999E+02</totfact>
</mgrwt>
</event>
<event>
 4    1  0.2502834E-007  0.1249917E+04  0.7818608E-02  0.9110063E-01
          2   -1    0    0  501    0  0.00000000000E+00  0.00000000000E+00  0.50255501316E+04  0.50255501316E+04  0.25500000000E-02 0. -1.
         -2   -1    0    0    0  501 -0.00000000000E+00 -0.00000000000E+00 -0.88125982086E+03  0.88125982086E+03  0.25500000000E-02 0.  1.
    8880023    1    1    2    0    0 -0.15615556863E+03  0.10507608185E+04 -0.34043595244E+03  0.12954496143E+04  0.65864270000E+03 0.  0.
    8880022    1    1    2    0    0  0.15615556863E+03 -0.10507608185E+04  0.44847262632E+04  0.46113603381E+04  0.15294330000E+03 0. -1.
<mgrwt>
<rscale>  0 0.12031966E+04</rscale>
<asrwt>0</asrwt>
<pdfrwt beam="1">  1        2 0.77316156E+00 0.12499172E+04</pdfrwt>
<pdfrwt beam="2">  1       -2 0.13557843E+00 0.12499172E+04</pdfrwt>
<totfact> 0.12889659E-02</totfact>
</mgrwt>
</event>
<event>
 4    1  0.2502834E-007  0.6774516E+03  0.7818608E-02  0.1010803E+00
         -2   -1    0    0    0  501 -0.00000000000E+00  0.00000000000E+00  0.53191670713E+03  0.53191670713E+03  0.25500000000E-02 0.  1.
          2   -1    0    0  501    0  0.00000000000E+00 -0.00000000000E+00 -0.74681284297E+03  0.74681284297E+03  0.25500000000E-02 0. -1.
    8880023    1    1    2    0    0  0.13582022489E+03 -0.81751748095E+02  0.28307383757E+03  0.73421487699E+03  0.65864270000E+03 0.  1.
    8880022    1    1    2    0    0 -0.13582022489E+03  0.81751748095E+02 -0.49796997342E+03  0.54451467312E+03  0.15294330000E+03 0.  0.
<mgrwt>
<rscale>  0 0.51156544E+03</rscale>
<asrwt>0</asrwt>
<pdfrwt beam="1">  1        2 0.11489428E+00 0.67745161E+03</pdfrwt>
<pdfrwt beam="2">  1       -2 0.81833340E-01 0.67745161E+03</pdfrwt>
<totfact> 0.50476425E+01</totfact>
</mgrwt>
</event>
<event>
 4    1  0.2502834E-007  0.1460829E+04  0.7818608E-02  0.8937802E-01
          2   -1    0    0  501    0  0.00000000000E+00  0.00000000000E+00  0.17024834276E+04  0.17024834276E+04  0.25500000000E-02 0. -1.
         -2   -1    0    0    0  501 -0.00000000000E+00 -0.00000000000E+00 -0.18181057902E+04  0.18181057902E+04  0.25500000000E-02 0.  1.
    8880023    1    1    2    0    0 -0.12628463855E+04 -0.32470226327E+03 -0.11419224712E+04  0.18541870697E+04  0.65864270000E+03 0.  0.
    8880022    1    1    2    0    0  0.12628463855E+04  0.32470226327E+03  0.10263001086E+04  0.16664021481E+04  0.15294330000E+03 0.  0.
<mgrwt>
<rscale>  0 0.14223430E+04</rscale>
<asrwt>0</asrwt>
<pdfrwt beam="1">  1        2 0.26192053E+00 0.14608295E+04</pdfrwt>
<pdfrwt beam="2">  1       -2 0.27970858E+00 0.14608295E+04</pdfrwt>
<totfact> 0.38981671E-01</totfact>
</mgrwt>
</event>
<event>
 4    1  0.2502834E-007  0.1606550E+04  0.7818608E-02  0.8837845E-01
         -2   -1    0    0    0  501 -0.00000000000E+00  0.00000000000E+00  0.12803115233E+04  0.12803115233E+04  0.25500000000E-02 0.  1.
          2   -1    0    0  501    0  0.00000000000E+00 -0.00000000000E+00 -0.34990460553E+04  0.34990460553E+04  0.25500000000E-02 0. -1.
    8880023    1    1    2    0    0  0.85218567906E+03 -0.11920454195E+04  0.50385060256E+03  0.16837067291E+04  0.65864270000E+03 0.  0.
    8880022    1    1    2    0    0 -0.85218567906E+03  0.11920454195E+04 -0.27225851346E+04  0.30956508495E+04  0.15294330000E+03 0.  0.
<mgrwt>
<rscale>  0 0.15721456E+04</rscale>
<asrwt>0</asrwt>
<pdfrwt beam="1">  1        2 0.53831477E+00 0.16065500E+04</pdfrwt>
<pdfrwt beam="2">  1       -2 0.19697101E+00 0.16065500E+04</pdfrwt>
<totfact> 0.10601506E-01</totfact>
</mgrwt>
</event>
<event>
 4    1  0.2502834E-007  0.8772170E+03  0.7818608E-02  0.9563642E-01
         -2   -1    0    0    0  501 -0.00000000000E+00  0.00000000000E+00  0.71863938514E+03  0.71863938515E+03  0.25500000000E-02 0.  1.
          2   -1    0    0  501    0  0.00000000000E+00 -0.00000000000E+00 -0.90083182478E+03  0.90083182479E+03  0.25500000000E-02 0. -1.
    8880023    1    1    2    0    0 -0.57859171186E+03  0.30514057549E+02 -0.42272263361E+03  0.97375772550E+03  0.65864270000E+03 0.  0.
    8880022    1    1    2    0    0  0.57859171186E+03 -0.30514057549E+02  0.24053019397E+03  0.64571348443E+03  0.15294330000E+03 0.  0.
<mgrwt>
<rscale>  0 0.79750032E+03</rscale>
<asrwt>0</asrwt>
<pdfrwt beam="1">  1        2 0.13858951E+00 0.87721701E+03</pdfrwt>
<pdfrwt beam="2">  1       -2 0.11055991E+00 0.87721701E+03</pdfrwt>
<totfact> 0.19069916E+01</totfact>
</mgrwt>
</event>
<event>
 4    1  0.2502834E-007  0.1187080E+04  0.7818608E-02  0.9169785E-01
         -2   -1    0    0    0  501 -0.00000000000E+00  0.00000000000E+00  0.96052094875E+03  0.96052094875E+03  0.25500000000E-02 0.  1.
          2   -1    0    0  501    0  0.00000000000E+00 -0.00000000000E+00 -0.31799237469E+04  0.31799237469E+04  0.25500000000E-02 0. -1.
    8880023    1    1    2    0    0  0.86592947906E+03  0.47488310038E+03  0.46587907293E+03  0.12752259951E+04  0.65864270000E+03 0.  0.
    8880022    1    1    2    0    0 -0.86592947906E+03 -0.47488310038E+03 -0.26852818711E+04  0.28652187006E+04  0.15294330000E+03 0.  0.
<mgrwt>
<rscale>  0 0.11370810E+04</rscale>
<asrwt>0</asrwt>
<pdfrwt beam="1">  1        2 0.48921903E+00 0.11870796E+04</pdfrwt>
<pdfrwt beam="2">  1       -2 0.14777245E+00 0.11870796E+04</pdfrwt>
<totfact> 0.41253958E-01</totfact>
</mgrwt>
</event>
<event>
 4    1  0.2502834E-007  0.7863172E+03  0.7818608E-02  0.9741202E-01
         -2   -1    0    0    0  501 -0.00000000000E+00  0.00000000000E+00  0.44380353001E+03  0.44380353002E+03  0.25500000000E-02 0.  1.
          2   -1    0    0  501    0  0.00000000000E+00 -0.00000000000E+00 -0.18747990630E+04  0.18747990630E+04  0.25500000000E-02 0. -1.
    8880023    1    1    2    0    0  0.23136640539E+03 -0.36187578611E+03  0.31236397546E+02  0.78693736530E+03  0.65864270000E+03 0.  1.
    8880022    1    1    2    0    0 -0.23136640539E+03  0.36187578611E+03 -0.14622319305E+04  0.15316652277E+04  0.15294330000E+03 0.  0.
<mgrwt>
<rscale>  0 0.68615764E+03</rscale>
<asrwt>0</asrwt>
<pdfrwt beam="1">  1        2 0.28843062E+00 0.78631718E+03</pdfrwt>
<pdfrwt beam="2">  1       -2 0.68277467E-01 0.78631718E+03</pdfrwt>
<totfact> 0.15803699E+01</totfact>
</mgrwt>
</event>
<event>
 4    1  0.2502834E-007  0.1519269E+04  0.7818608E-02  0.8896148E-01
         -2   -1    0    0    0  501 -0.00000000000E+00  0.00000000000E+00  0.14846619790E+04  0.14846619790E+04  0.25500000000E-02 0.  1.
          2   -1    0    0  501    0  0.00000000000E+00 -0.00000000000E+00 -0.15693680073E+04  0.15693680073E+04  0.25500000000E-02 0. -1.
    8880023    1    1    2    0    0 -0.13449093605E+04  0.25609919673E+03  0.43714321029E+03  0.15809087194E+04  0.65864270000E+03 0.  1.
    8880022    1    1    2    0    0  0.13449093605E+04 -0.25609919673E+03 -0.52184923859E+03  0.14731212670E+04  0.15294330000E+03 0.  0.
<mgrwt>
<rscale>  0 0.14825391E+04</rscale>
<asrwt>0</asrwt>
<pdfrwt beam="1">  1        2 0.24144123E+00 0.15192690E+04</pdfrwt>
<pdfrwt beam="2">  1       -2 0.22840953E+00 0.15192690E+04</pdfrwt>
<totfact> 0.95262048E-01</totfact>
</mgrwt>
</event>
<event>
 4    1  0.2502834E-007  0.1026321E+04  0.7818608E-02  0.9347904E-01
          2   -1    0    0  501    0  0.00000000000E+00  0.00000000000E+00  0.90680844175E+03  0.90680844176E+03  0.25500000000E-02 0. -1.
         -2   -1    0    0    0  501 -0.00000000000E+00 -0.00000000000E+00 -0.11003594868E+04  0.11003594868E+04  0.25500000000E-02 0.  1.
    8880023    1    1    2    0    0 -0.67374098753E+03  0.40693656203E+03 -0.50890201954E+03  0.11455635101E+04  0.65864270000E+03 0.  1.
    8880022    1    1    2    0    0  0.67374098753E+03 -0.40693656203E+03  0.31535097452E+03  0.86160441848E+03  0.15294330000E+03 0.  0.
<mgrwt>
<rscale>  0 0.96489852E+03</rscale>
<asrwt>0</asrwt>
<pdfrwt beam="1">  1        2 0.13950899E+00 0.10263209E+04</pdfrwt>
<pdfrwt beam="2">  1       -2 0.16928607E+00 0.10263209E+04</pdfrwt>
<totfact> 0.61870947E+00</totfact>
</mgrwt>
</event>
<event>
 4    1  0.2502834E-007  0.1252602E+04  0.7818608E-02  0.9107611E-01
          2   -1    0    0  501    0  0.00000000000E+00  0.00000000000E+00  0.51930208370E+04  0.51930208370E+04  0.25500000000E-02 0. -1.
         -2   -1    0    0    0  501 -0.00000000000E+00 -0.00000000000E+00 -0.57520799246E+03  0.57520799247E+03  0.25500000000E-02 0.  1.
    8880023    1    1    2    0    0  0.10253719187E+04 -0.28950787780E+03  0.25980544709E+03  0.12792620762E+04  0.65864270000E+03 0.  1.
    8880022    1    1    2    0    0 -0.10253719187E+04  0.28950787780E+03  0.43580073974E+04  0.44889667533E+04  0.15294330000E+03 0.  0.
<mgrwt>
<rscale>  0 0.12060111E+04</rscale>
<asrwt>0</asrwt>
<pdfrwt beam="1">  1        2 0.79892625E+00 0.12526023E+04</pdfrwt>
<pdfrwt beam="2">  1       -2 0.88493541E-01 0.12526023E+04</pdfrwt>
<totfact> 0.21822887E-02</totfact>
</mgrwt>
</event>
<event>
 4    1  0.2502834E-007  0.9118425E+03  0.7818608E-02  0.9507282E-01
         -2   -1    0    0    0  501 -0.00000000000E+00  0.00000000000E+00  0.46723008569E+03  0.46723008570E+03  0.25500000000E-02 0.  1.
          2   -1    0    0  501    0  0.00000000000E+00 -0.00000000000E+00 -0.16561958419E+04  0.16561958419E+04  0.25500000000E-02 0. -1.
    8880023    1    1    2    0    0 -0.56759578810E+03  0.27473896302E+03 -0.18875181889E+03  0.93117341665E+03  0.65864270000E+03 0.  0.
    8880022    1    1    2    0    0  0.56759578810E+03 -0.27473896302E+03 -0.10002139374E+04  0.11922525110E+04  0.15294330000E+03 0.  0.
<mgrwt>
<rscale>  0 0.83749079E+03</rscale>
<asrwt>0</asrwt>
<pdfrwt beam="1">  1        2 0.25479936E+00 0.91184247E+03</pdfrwt>
<pdfrwt beam="2">  1       -2 0.71881552E-01 0.91184247E+03</pdfrwt>
<totfact> 0.18337737E+01</totfact>
</mgrwt>
</event>
<event>
 4    1  0.2502834E-007  0.8285932E+03  0.7818608E-02  0.9652076E-01
         -2   -1    0    0    0  501 -0.00000000000E+00  0.00000000000E+00  0.47682843447E+03  0.47682843448E+03  0.25500000000E-02 0.  1.
          2   -1    0    0  501    0  0.00000000000E+00 -0.00000000000E+00 -0.17151649026E+04  0.17151649026E+04  0.25500000000E-02 0. -1.
    8880023    1    1    2    0    0  0.46156728145E+03 -0.19927890087E+03  0.19474341024E+02  0.82882199045E+03  0.65864270000E+03 0.  1.
    8880022    1    1    2    0    0 -0.46156728145E+03  0.19927890087E+03 -0.12578108092E+04  0.13631713467E+04  0.15294330000E+03 0.  0.
<mgrwt>
<rscale>  0 0.73943290E+03</rscale>
<asrwt>0</asrwt>
<pdfrwt beam="1">  1        2 0.26387152E+00 0.82859317E+03</pdfrwt>
<pdfrwt beam="2">  1       -2 0.73358222E-01 0.82859317E+03</pdfrwt>
<totfact> 0.16423462E+01</totfact>
</mgrwt>
</event>
<event>
 4    1  0.2502834E-007  0.8846776E+03  0.7818608E-02  0.9551091E-01
          2   -1    0    0  501    0  0.00000000000E+00  0.00000000000E+00  0.21156706237E+03  0.21156706239E+03  0.25500000000E-02 0. -1.
         -2   -1    0    0    0  501 -0.00000000000E+00 -0.00000000000E+00 -0.31683164281E+04  0.31683164281E+04  0.25500000000E-02 0.  1.
    8880023    1    1    2    0    0 -0.52628950556E+02  0.58828099295E+03 -0.23847998093E+04  0.25436046607E+04  0.65864270000E+03 0.  0.
    8880022    1    1    2    0    0  0.52628950556E+02 -0.58828099295E+03 -0.57194955647E+03  0.83627882986E+03  0.15294330000E+03 0.  0.
<mgrwt>
<rscale>  0 0.80619683E+03</rscale>
<asrwt>0</asrwt>
<pdfrwt beam="1">  1        2 0.32548781E-01 0.88467765E+03</pdfrwt>
<pdfrwt beam="2">  1       -2 0.48743326E+00 0.88467765E+03</pdfrwt>
<totfact> 0.33276970E-01</totfact>
</mgrwt>
</event>
<event>
 4    1  0.2502834E-007  0.1170015E+04  0.7818608E-02  0.9186835E-01
          2   -1    0    0  501    0  0.00000000000E+00  0.00000000000E+00  0.26678282852E+04  0.26678282852E+04  0.25500000000E-02 0. -1.
         -2   -1    0    0    0  501 -0.00000000000E+00 -0.00000000000E+00 -0.79582009142E+03  0.79582009143E+03  0.25500000000E-02 0.  1.
    8880023    1    1    2    0    0 -0.47820377541E+03 -0.84050392636E+03 -0.18592887152E+03  0.11846963546E+04  0.65864270000E+03 0.  1.
    8880022    1    1    2    0    0  0.47820377541E+03  0.84050392636E+03  0.20579370653E+04  0.22789520221E+04  0.15294330000E+03 0.  0.
<mgrwt>
<rscale>  0 0.11190350E+04</rscale>
<asrwt>0</asrwt>
<pdfrwt beam="1">  1        2 0.41043512E+00 0.11700153E+04</pdfrwt>
<pdfrwt beam="2">  1       -2 0.12243386E+00 0.11700153E+04</pdfrwt>
<totfact> 0.13825312E+00</totfact>
</mgrwt>
</event>
<event>
 4    1  0.3505599E-007  0.1352886E+04  0.7818608E-02  0.9021184E-01
         -2   -1    0    0    0  501 -0.00000000000E+00  0.00000000000E+00  0.21352937315E+04  0.21352937315E+04  0.25500000000E-02 0.  1.
          2   -1    0    0  501    0  0.00000000000E+00 -0.00000000000E+00 -0.30834214109E+04  0.30834214109E+04  0.25500000000E-02 0. -1.
    8880023    1    1    2    0    0 -0.91487724133E+03 -0.74799126793E+03  0.17834629323E+04  0.22385355795E+04  0.65864270000E+03 0.  1.
    8880022    1    1    2    0    0  0.91487724133E+03  0.74799126793E+03 -0.27315906117E+04  0.29801795628E+04  0.15294330000E+03 0.  0.
<mgrwt>
<rscale>  0 0.13106223E+04</rscale>
<asrwt>0</asrwt>
<pdfrwt beam="1">  1        2 0.47437253E+00 0.13528864E+04</pdfrwt>
<pdfrwt beam="2">  1       -2 0.32850673E+00 0.13528864E+04</pdfrwt>
<totfact> 0.31569495E-02</totfact>
</mgrwt>
</event>
<event>
 4    1  0.2502834E-007  0.1223438E+04  0.7818608E-02  0.9134669E-01
          2   -1    0    0  501    0  0.00000000000E+00  0.00000000000E+00  0.20678832003E+04  0.20678832003E+04  0.25500000000E-02 0. -1.
         -2   -1    0    0    0  501 -0.00000000000E+00 -0.00000000000E+00 -0.67236729838E+03  0.67236729838E+03  0.25500000000E-02 0.  1.
    8880023    1    1    2    0    0 -0.68664658127E+03  0.76909521585E+03  0.37030420652E+03  0.12782513017E+04  0.65864270000E+03 0.  0.
    8880022    1    1    2    0    0  0.68664658127E+03 -0.76909521585E+03  0.10252116954E+04  0.14619991970E+04  0.15294330000E+03 0.  0.
<mgrwt>
<rscale>  0 0.11753965E+04</rscale>
<asrwt>0</asrwt>
<pdfrwt beam="1">  1        2 0.31813588E+00 0.12234383E+04</pdfrwt>
<pdfrwt beam="2">  1       -2 0.10344112E+00 0.12234383E+04</pdfrwt>
<totfact> 0.45565133E+00</totfact>
</mgrwt>
</event>
<event>
 4    1  0.2502834E-007  0.6604288E+03  0.7818608E-02  0.1023721E+00
         -2   -1    0    0    0  501 -0.00000000000E+00  0.00000000000E+00  0.17259881313E+03  0.17259881315E+03  0.25500000000E-02 0.  1.
          2   -1    0    0  501    0  0.00000000000E+00 -0.00000000000E+00 -0.15423909575E+04  0.15423909575E+04  0.25500000000E-02 0. -1.
    8880023    1    1    2    0    0 -0.32466167497E+02  0.36082506240E+02 -0.49432351209E+03  0.82493753713E+03  0.65864270000E+03 0.  1.
    8880022    1    1    2    0    0  0.32466167497E+02 -0.36082506240E+02 -0.87546863225E+03  0.89005223350E+03  0.15294330000E+03 0.  0.
<mgrwt>
<rscale>  0 0.46367290E+03</rscale>
<asrwt>0</asrwt>
<pdfrwt beam="1">  1        2 0.23729091E+00 0.66042880E+03</pdfrwt>
<pdfrwt beam="2">  1       -2 0.26553665E-01 0.66042880E+03</pdfrwt>
<totfact> 0.15807101E+02</totfact>
</mgrwt>
</event>
<event>
 4    1  0.2502834E-007  0.8051014E+03  0.7818608E-02  0.9699872E-01
         -2   -1    0    0    0  501 -0.00000000000E+00  0.00000000000E+00  0.62210181273E+03  0.62210181274E+03  0.25500000000E-02 0.  1.
          2   -1    0    0  501    0  0.00000000000E+00 -0.00000000000E+00 -0.12493152111E+04  0.12493152111E+04  0.25500000000E-02 0. -1.
    8880023    1    1    2    0    0 -0.46233852525E+03 -0.24921555432E+02  0.27091127053E+03  0.84945930957E+03  0.65864270000E+03 0.  1.
    8880022    1    1    2    0    0  0.46233852525E+03  0.24921555432E+02 -0.89812466885E+03  0.10219577142E+04  0.15294330000E+03 0.  0.
<mgrwt>
<rscale>  0 0.71024384E+03</rscale>
<asrwt>0</asrwt>
<pdfrwt beam="1">  1        2 0.19220234E+00 0.80510136E+03</pdfrwt>
<pdfrwt beam="2">  1       -2 0.95707971E-01 0.80510136E+03</pdfrwt>
<totfact> 0.16437914E+01</totfact>
</mgrwt>
</event>
<event>
 4    1  0.2502834E-007  0.7329826E+03  0.7818608E-02  0.9880881E-01
         -2   -1    0    0    0  501 -0.00000000000E+00  0.00000000000E+00  0.50452033107E+03  0.50452033108E+03  0.25500000000E-02 0.  1.
          2   -1    0    0  501    0  0.00000000000E+00 -0.00000000000E+00 -0.16431153578E+04  0.16431153578E+04  0.25500000000E-02 0. -1.
    8880023    1    1    2    0    0  0.31737327672E+03  0.52225138144E+02  0.20218708339E+03  0.76035720867E+03  0.65864270000E+03 0.  1.
    8880022    1    1    2    0    0 -0.31737327672E+03 -0.52225138144E+02 -0.13407821101E+04  0.13872784802E+04  0.15294330000E+03 0.  0.
<mgrwt>
<rscale>  0 0.61196893E+03</rscale>
<asrwt>0</asrwt>
<pdfrwt beam="1">  1        2 0.25278697E+00 0.73298258E+03</pdfrwt>
<pdfrwt beam="2">  1       -2 0.77618514E-01 0.73298258E+03</pdfrwt>
<totfact> 0.16062685E+01</totfact>
</mgrwt>
</event>
<event>
 4    1  0.2502834E-007  0.1141039E+04  0.7818608E-02  0.9216684E-01
         -2   -1    0    0    0  501 -0.00000000000E+00  0.00000000000E+00  0.70593890763E+03  0.70593890763E+03  0.25500000000E-02 0.  1.
          2   -1    0    0  501    0  0.00000000000E+00 -0.00000000000E+00 -0.30033474894E+04  0.30033474894E+04  0.25500000000E-02 0. -1.
    8880023    1    1    2    0    0 -0.73744498469E+03 -0.56950338655E+03  0.87376008607E+02  0.11443793016E+04  0.65864270000E+03 0.  0.
    8880022    1    1    2    0    0  0.73744498469E+03  0.56950338655E+03 -0.23847845904E+04  0.25649070954E+04  0.15294330000E+03 0.  0.
<mgrwt>
<rscale>  0 0.10882873E+04</rscale>
<asrwt>0</asrwt>
<pdfrwt beam="1">  1        2 0.46205345E+00 0.11410387E+04</pdfrwt>
<pdfrwt beam="2">  1       -2 0.10860599E+00 0.11410387E+04</pdfrwt>
<totfact> 0.11712210E+00</totfact>
</mgrwt>
</event>
<event>
 4    1  0.2502834E-007  0.6828818E+03  0.7818608E-02  0.1007738E+00
          2   -1    0    0  501    0  0.00000000000E+00  0.00000000000E+00  0.95176985680E+03  0.95176985680E+03  0.25500000000E-02 0. -1.
         -2   -1    0    0    0  501 -0.00000000000E+00 -0.00000000000E+00 -0.52164672949E+03  0.52164672950E+03  0.25500000000E-02 0.  1.
    8880023    1    1    2    0    0 -0.17890207925E+03  0.22615418061E+02 -0.27009287429E+03  0.73435534865E+03  0.65864270000E+03 0.  1.
    8880022    1    1    2    0    0  0.17890207925E+03 -0.22615418061E+02  0.70021600159E+03  0.73906123765E+03  0.15294330000E+03 0.  0.
<mgrwt>
<rscale>  0 0.52383493E+03</rscale>
<asrwt>0</asrwt>
<pdfrwt beam="1">  1        2 0.14642613E+00 0.68288185E+03</pdfrwt>
<pdfrwt beam="2">  1       -2 0.80253344E-01 0.68288185E+03</pdfrwt>
<totfact> 0.37975046E+01</totfact>
</mgrwt>
</event>
<event>
 4    1  0.2502834E-007  0.1173031E+04  0.7818608E-02  0.9183794E-01
          2   -1    0    0  501    0  0.00000000000E+00  0.00000000000E+00  0.39882217428E+03  0.39882217429E+03  0.25500000000E-02 0. -1.
         -2   -1    0    0    0  501 -0.00000000000E+00 -0.00000000000E+00 -0.35240071852E+04  0.35240071852E+04  0.25500000000E-02 0.  1.
    8880023    1    1    2    0    0  0.54784513902E+03  0.80128535222E+03 -0.24908165797E+04  0.27532108441E+04  0.65864270000E+03 0.  1.
    8880022    1    1    2    0    0 -0.54784513902E+03 -0.80128535222E+03 -0.63436843124E+03  0.11696185154E+04  0.15294330000E+03 0.  0.
<mgrwt>
<rscale>  0 0.11222277E+04</rscale>
<asrwt>0</asrwt>
<pdfrwt beam="1">  1        2 0.61357260E-01 0.11730314E+04</pdfrwt>
<pdfrwt beam="2">  1       -2 0.54215493E+00 0.11730314E+04</pdfrwt>
<totfact> 0.73269401E-02</totfact>
</mgrwt>
</event>
<event>
 4    1  0.2502834E-007  0.1064283E+04  0.7818608E-02  0.9301905E-01
          2   -1    0    0  501    0  0.00000000000E+00  0.00000000000E+00  0.19509088260E+04  0.19509088260E+04  0.25500000000E-02 0. -1.
         -2   -1    0    0    0  501 -0.00000000000E+00 -0.00000000000E+00 -0.88967225667E+03  0.88967225667E+03  0.25500000000E-02 0.  1.
    8880023    1    1    2    0    0 -0.81876642516E+03  0.16885053478E+03 -0.41080887963E+03  0.11408168582E+04  0.65864270000E+03 0.  1.
    8880022    1    1    2    0    0  0.81876642516E+03 -0.16885053478E+03  0.14720454490E+04  0.16997642245E+04  0.15294330000E+03 0.  0.
<mgrwt>
<rscale>  0 0.10060770E+04</rscale>
<asrwt>0</asrwt>
<pdfrwt beam="1">  1        2 0.30013982E+00 0.10642834E+04</pdfrwt>
<pdfrwt beam="2">  1       -2 0.13687265E+00 0.10642834E+04</pdfrwt>
<totfact> 0.26808048E+00</totfact>
</mgrwt>
</event>
<event>
 4    1  0.2502834E-007  0.6640997E+03  0.7818608E-02  0.1020301E+00
         -2   -1    0    0    0  501 -0.00000000000E+00  0.00000000000E+00  0.14078561473E+03  0.14078561475E+03  0.25500000000E-02 0.  1.
          2   -1    0    0  501    0  0.00000000000E+00 -0.00000000000E+00 -0.17150028279E+04  0.17150028279E+04  0.25500000000E-02 0. -1.
    8880023    1    1    2    0    0  0.60966689945E+02  0.59171654700E+02 -0.70260247238E+03  0.96678780633E+03  0.65864270000E+03 0.  1.
    8880022    1    1    2    0    0 -0.60966689945E+02 -0.59171654700E+02 -0.87161474084E+03  0.88900063637E+03  0.15294330000E+03 0.  0.
<mgrwt>
<rscale>  0 0.47578162E+03</rscale>
<asrwt>0</asrwt>
<pdfrwt beam="1">  1        2 0.26384657E+00 0.66409971E+03</pdfrwt>
<pdfrwt beam="2">  1       -2 0.21659327E-01 0.66409971E+03</pdfrwt>
<totfact> 0.18303874E+02</totfact>
</mgrwt>
</event>
<event>
 4    1  0.2502834E-007  0.7311360E+03  0.7818608E-02  0.9886563E-01
         -2   -1    0    0    0  501 -0.00000000000E+00  0.00000000000E+00  0.10454316192E+04  0.10454316192E+04  0.25500000000E-02 0.  1.
          2   -1    0    0  501    0  0.00000000000E+00 -0.00000000000E+00 -0.16454851239E+04  0.16454851239E+04  0.25500000000E-02 0. -1.
    8880023    1    1    2    0    0  0.31662945777E+02 -0.31582764241E+03  0.89456046349E+03  0.11553347008E+04  0.65864270000E+03 0.  1.
    8880022    1    1    2    0    0 -0.31662945777E+02  0.31582764241E+03 -0.14946139681E+04  0.15355820423E+04  0.15294330000E+03 0.  0.
<mgrwt>
<rscale>  0 0.60916951E+03</rscale>
<asrwt>0</asrwt>
<pdfrwt beam="1">  1        2 0.25315156E+00 0.73113600E+03</pdfrwt>
<pdfrwt beam="2">  1       -2 0.16083563E+00 0.73113600E+03</pdfrwt>
<totfact> 0.27002418E+00</totfact>
</mgrwt>
</event>
<event>
 4    1  0.2502834E-007  0.8750939E+03  0.7818608E-02  0.9567259E-01
         -2   -1    0    0    0  501 -0.00000000000E+00  0.00000000000E+00  0.30425514463E+03  0.30425514464E+03  0.25500000000E-02 0.  1.
          2   -1    0    0  501    0  0.00000000000E+00 -0.00000000000E+00 -0.36434576134E+04  0.36434576134E+04  0.25500000000E-02 0. -1.
    8880023    1    1    2    0    0  0.54182375050E+03 -0.19597477542E+03 -0.42440223267E+03  0.97257727229E+03  0.65864270000E+03 0.  1.
    8880022    1    1    2    0    0 -0.54182375050E+03  0.19597477542E+03 -0.29148002361E+04  0.29751354858E+04  0.15294330000E+03 0.  0.
<mgrwt>
<rscale>  0 0.79501659E+03</rscale>
<asrwt>0</asrwt>
<pdfrwt beam="1">  1        2 0.56053191E+00 0.87509388E+03</pdfrwt>
<pdfrwt beam="2">  1       -2 0.46808486E-01 0.87509388E+03</pdfrwt>
<totfact> 0.29579049E+00</totfact>
</mgrwt>
</event>
<event>
 4    1  0.2502834E-007  0.7225513E+03  0.7818608E-02  0.9914046E-01
         -2   -1    0    0    0  501 -0.00000000000E+00  0.00000000000E+00  0.28500807535E+03  0.28500807536E+03  0.25500000000E-02 0.  1.
          2   -1    0    0  501    0  0.00000000000E+00 -0.00000000000E+00 -0.17960587208E+04  0.17960587208E+04  0.25500000000E-02 0. -1.
    8880023    1    1    2    0    0  0.13939943333E+03 -0.26236979672E+03 -0.23169374401E+03  0.75879002993E+03  0.65864270000E+03 0.  1.
    8880022    1    1    2    0    0 -0.13939943333E+03  0.26236979672E+03 -0.12793569014E+04  0.13222767662E+04  0.15294330000E+03 0.  0.
<mgrwt>
<rscale>  0 0.59585359E+03</rscale>
<asrwt>0</asrwt>
<pdfrwt beam="1">  1        2 0.27631672E+00 0.72255126E+03</pdfrwt>
<pdfrwt beam="2">  1       -2 0.43847397E-01 0.72255126E+03</pdfrwt>
<totfact> 0.44071889E+01</totfact>
</mgrwt>
</event>
<event>
 4    1  0.2502834E-007  0.9287081E+03  0.7818608E-02  0.9481434E-01
          2   -1    0    0  501    0  0.00000000000E+00  0.00000000000E+00  0.17709729743E+04  0.17709729743E+04  0.25500000000E-02 0. -1.
         -2   -1    0    0    0  501 -0.00000000000E+00 -0.00000000000E+00 -0.51855172279E+03  0.51855172279E+03  0.25500000000E-02 0.  1.
    8880023    1    1    2    0    0 -0.64160823462E+03 -0.13048934280E+03  0.72572097134E+02  0.93153932330E+03  0.65864270000E+03 0.  1.
    8880022    1    1    2    0    0  0.64160823462E+03  0.13048934280E+03  0.11798491543E+04  0.13579853737E+04  0.15294330000E+03 0. -1.
<mgrwt>
<rscale>  0 0.85666570E+03</rscale>
<asrwt>0</asrwt>
<pdfrwt beam="1">  1        2 0.27245738E+00 0.92870814E+03</pdfrwt>
<pdfrwt beam="2">  1       -2 0.79777189E-01 0.92870814E+03</pdfrwt>
<totfact> 0.12545806E+01</totfact>
</mgrwt>
</event>
<event>
 4    1  0.2502834E-007  0.1149764E+04  0.7818608E-02  0.9207573E-01
          2   -1    0    0  501    0  0.00000000000E+00  0.00000000000E+00  0.87896331235E+03  0.87896331235E+03  0.25500000000E-02 0. -1.
         -2   -1    0    0    0  501 -0.00000000000E+00 -0.00000000000E+00 -0.21792016477E+04  0.21792016477E+04  0.25500000000E-02 0.  1.
    8880023    1    1    2    0    0  0.94020228986E+02 -0.93771378532E+03 -0.16757197297E+04  0.20322386093E+04  0.65864270000E+03 0.  1.
    8880022    1    1    2    0    0 -0.94020228986E+02  0.93771378532E+03  0.37548139430E+03  0.10259263507E+04  0.15294330000E+03 0.  0.
<mgrwt>
<rscale>  0 0.10975603E+04</rscale>
<asrwt>0</asrwt>
<pdfrwt beam="1">  1        2 0.13522513E+00 0.11497640E+04</pdfrwt>
<pdfrwt beam="2">  1       -2 0.33526179E+00 0.11497640E+04</pdfrwt>
<totfact> 0.57698584E-01</totfact>
</mgrwt>
</event>
<event>
 4    1  0.2502834E-007  0.1044538E+04  0.7818608E-02  0.9325477E-01
         -2   -1    0    0    0  501 -0.00000000000E+00  0.00000000000E+00  0.62015674948E+03  0.62015674949E+03  0.25500000000E-02 0.  1.
          2   -1    0    0  501    0  0.00000000000E+00 -0.00000000000E+00 -0.23631410534E+04  0.23631410534E+04  0.25500000000E-02 0. -1.
    8880023    1    1    2    0    0 -0.14771077267E+03  0.79713881904E+03  0.11412638166E+02  0.10446000305E+04  0.65864270000E+03 0.  0.
    8880022    1    1    2    0    0  0.14771077267E+03 -0.79713881904E+03 -0.17543969421E+04  0.19386977723E+04  0.15294330000E+03 0.  0.
<mgrwt>
<rscale>  0 0.98470876E+03</rscale>
<asrwt>0</asrwt>
<pdfrwt beam="1">  1        2 0.36356016E+00 0.10445377E+04</pdfrwt>
<pdfrwt beam="2">  1       -2 0.95408731E-01 0.10445377E+04</pdfrwt>
<totfact> 0.38530959E+00</totfact>
</mgrwt>
</event>
<event>
 4    1  0.2502834E-007  0.1172275E+04  0.7818608E-02  0.9184556E-01
          2   -1    0    0  501    0  0.00000000000E+00  0.00000000000E+00  0.13381657249E+04  0.13381657249E+04  0.25500000000E-02 0. -1.
         -2   -1    0    0    0  501 -0.00000000000E+00 -0.00000000000E+00 -0.11332416616E+04  0.11332416616E+04  0.25500000000E-02 0.  1.
    8880023    1    1    2    0    0  0.61667078482E+03  0.74842148342E+03 -0.48796817318E+03  0.12697797911E+04  0.65864270000E+03 0.  0.
    8880022    1    1    2    0    0 -0.61667078482E+03 -0.74842148342E+03  0.69289223642E+03  0.12016275954E+04  0.15294330000E+03 0.  0.
<mgrwt>
<rscale>  0 0.11214267E+04</rscale>
<asrwt>0</asrwt>
<pdfrwt beam="1">  1        2 0.20587165E+00 0.11722746E+04</pdfrwt>
<pdfrwt beam="2">  1       -2 0.17434487E+00 0.11722746E+04</pdfrwt>
<totfact> 0.30368080E+00</totfact>
</mgrwt>
</event>
<event>
 4    1  0.2502834E-007  0.1379330E+04  0.7818608E-02  0.8999913E-01
         -2   -1    0    0    0  501 -0.00000000000E+00  0.00000000000E+00  0.11224191952E+04  0.11224191953E+04  0.25500000000E-02 0.  1.
          2   -1    0    0  501    0  0.00000000000E+00 -0.00000000000E+00 -0.19852611674E+04  0.19852611675E+04  0.25500000000E-02 0. -1.
    8880023    1    1    2    0    0 -0.12014610328E+04 -0.15884690373E+03 -0.12131404828E+04  0.18369161628E+04  0.65864270000E+03 0.  0.
    8880022    1    1    2    0    0  0.12014610328E+04  0.15884690373E+03  0.35029851058E+03  0.12707641999E+04  0.15294330000E+03 0.  0.
<mgrwt>
<rscale>  0 0.13380645E+04</rscale>
<asrwt>0</asrwt>
<pdfrwt beam="1">  1        2 0.30542479E+00 0.13793300E+04</pdfrwt>
<pdfrwt beam="2">  1       -2 0.17267988E+00 0.13793300E+04</pdfrwt>
<totfact> 0.13237753E+00</totfact>
</mgrwt>
</event>
<event>
 4    1  0.2502834E-007  0.1289442E+04  0.7818608E-02  0.9074731E-01
          2   -1    0    0  501    0  0.00000000000E+00  0.00000000000E+00  0.36202135386E+04  0.36202135386E+04  0.25500000000E-02 0. -1.
         -2   -1    0    0    0  501 -0.00000000000E+00 -0.00000000000E+00 -0.15971388208E+04  0.15971388208E+04  0.25500000000E-02 0.  1.
    8880023    1    1    2    0    0 -0.47889998346E+03  0.99975287496E+03 -0.12270505407E+04  0.17799759102E+04  0.65864270000E+03 0.  0.
    8880022    1    1    2    0    0  0.47889998346E+03 -0.99975287496E+03  0.32501252585E+04  0.34373764493E+04  0.15294330000E+03 0.  0.
<mgrwt>
<rscale>  0 0.12445504E+04</rscale>
<asrwt>0</asrwt>
<pdfrwt beam="1">  1        2 0.55695593E+00 0.12894422E+04</pdfrwt>
<pdfrwt beam="2">  1       -2 0.24571366E+00 0.12894422E+04</pdfrwt>
<totfact> 0.44711173E-02</totfact>
</mgrwt>
</event>
<event>
 4    1  0.2502834E-007  0.8834168E+03  0.7818608E-02  0.9553195E-01
          2   -1    0    0  501    0  0.00000000000E+00  0.00000000000E+00  0.24817512522E+04  0.24817512522E+04  0.25500000000E-02 0. -1.
         -2   -1    0    0    0  501 -0.00000000000E+00 -0.00000000000E+00 -0.50120468103E+03  0.50120468104E+03  0.25500000000E-02 0.  1.
    8880023    1    1    2    0    0 -0.57499139149E+02 -0.58592561462E+03 -0.28466356786E+02  0.88387528340E+03  0.65864270000E+03 0.  0.
    8880022    1    1    2    0    0  0.57499139149E+02  0.58592561462E+03  0.20090129280E+04  0.20990806499E+04  0.15294330000E+03 0.  0.
<mgrwt>
<rscale>  0 0.80473042E+03</rscale>
<asrwt>0</asrwt>
<pdfrwt beam="1">  1        2 0.38180789E+00 0.88341677E+03</pdfrwt>
<pdfrwt beam="2">  1       -2 0.77108412E-01 0.88341677E+03</pdfrwt>
<totfact> 0.54975922E+00</totfact>
</mgrwt>
</event>
<event>
 4    1  0.2502834E-007  0.7751838E+03  0.7818608E-02  0.9767274E-01
         -2   -1    0    0    0  501 -0.00000000000E+00  0.00000000000E+00  0.41219821721E+03  0.41219821722E+03  0.25500000000E-02 0.  1.
          2   -1    0    0  501    0  0.00000000000E+00 -0.00000000000E+00 -0.89078462743E+03  0.89078462743E+03  0.25500000000E-02 0. -1.
    8880023    1    1    2    0    0 -0.21556075429E+03  0.34732306023E+03 -0.29295077397E+03  0.82869180592E+03  0.65864270000E+03 0. -1.
    8880022    1    1    2    0    0  0.21556075429E+03 -0.34732306023E+03 -0.18563563624E+03  0.47429103873E+03  0.15294330000E+03 0.  1.
<mgrwt>
<rscale>  0 0.67148752E+03</rscale>
<asrwt>0</asrwt>
<pdfrwt beam="1">  1        2 0.13704379E+00 0.77518382E+03</pdfrwt>
<pdfrwt beam="2">  1       -2 0.63415111E-01 0.77518382E+03</pdfrwt>
<totfact> 0.69294165E+01</totfact>
</mgrwt>
</event>
<event>
 4    1  0.2502834E-007  0.8131440E+03  0.7818608E-02  0.9683065E-01
         -2   -1    0    0    0  501 -0.00000000000E+00  0.00000000000E+00  0.85172872966E+03  0.85172872967E+03  0.25500000000E-02 0.  1.
          2   -1    0    0  501    0  0.00000000000E+00 -0.00000000000E+00 -0.10882915104E+04  0.10882915104E+04  0.25500000000E-02 0. -1.
    8880023    1    1    2    0    0  0.37548018880E+03  0.29395169455E+03  0.56832010792E+03  0.99206397084E+03  0.65864270000E+03 0.  0.
    8880022    1    1    2    0    0 -0.37548018880E+03 -0.29395169455E+03 -0.80488288867E+03  0.94795626924E+03  0.15294330000E+03 0.  0.
<mgrwt>
<rscale>  0 0.72034113E+03</rscale>
<asrwt>0</asrwt>
<pdfrwt beam="1">  1        2 0.16742946E+00 0.81314401E+03</pdfrwt>
<pdfrwt beam="2">  1       -2 0.13103519E+00 0.81314401E+03</pdfrwt>
<totfact> 0.95329984E+00</totfact>
</mgrwt>
</event>
<event>
 4    1  0.2502834E-007  0.6649721E+03  0.7818608E-02  0.1019557E+00
          2   -1    0    0  501    0  0.00000000000E+00  0.00000000000E+00  0.33120550850E+04  0.33120550850E+04  0.25500000000E-02 0. -1.
         -2   -1    0    0    0  501 -0.00000000000E+00 -0.00000000000E+00 -0.10277925879E+03  0.10277925882E+03  0.25500000000E-02 0.  1.
    8880023    1    1    2    0    0 -0.91512428970E+02 -0.17728368485E+01  0.10156176363E+04  0.12139468922E+04  0.65864270000E+03 0.  1.
    8880022    1    1    2    0    0  0.91512428970E+02  0.17728368485E+01  0.21936581899E+04  0.22008874516E+04  0.15294330000E+03 0.  0.
<mgrwt>
<rscale>  0 0.47846872E+03</rscale>
<asrwt>0</asrwt>
<pdfrwt beam="1">  1        2 0.50954695E+00 0.66497209E+03</pdfrwt>
<pdfrwt beam="2">  1       -2 0.15812193E-01 0.66497209E+03</pdfrwt>
<totfact> 0.37937349E+01</totfact>
</mgrwt>
</event>
<event>
 4    1  0.2502834E-007  0.1213042E+04  0.7818608E-02  0.9144548E-01
          2   -1    0    0  501    0  0.00000000000E+00  0.00000000000E+00  0.50904935116E+04  0.50904935116E+04  0.25500000000E-02 0. -1.
         -2   -1    0    0    0  501 -0.00000000000E+00 -0.00000000000E+00 -0.59763077978E+03  0.59763077979E+03  0.25500000000E-02 0.  1.
    8880023    1    1    2    0    0 -0.72630297581E+03  0.71424374980E+03  0.14707359110E+03  0.12219251181E+04  0.65864270000E+03 0.  0.
    8880022    1    1    2    0    0  0.72630297581E+03 -0.71424374980E+03  0.43457891407E+04  0.44661991733E+04  0.15294330000E+03 0.  0.
<mgrwt>
<rscale>  0 0.11644582E+04</rscale>
<asrwt>0</asrwt>
<pdfrwt beam="1">  1        2 0.78315283E+00 0.12130418E+04</pdfrwt>
<pdfrwt beam="2">  1       -2 0.91943199E-01 0.12130418E+04</pdfrwt>
<totfact> 0.27777130E-02</totfact>
</mgrwt>
</event>
<event>
 4    1  0.2502834E-007  0.1943876E+04  0.7818608E-02  0.8646865E-01
          2   -1    0    0  501    0  0.00000000000E+00  0.00000000000E+00  0.18641875537E+04  0.18641875537E+04  0.25500000000E-02 0. -1.
         -2   -1    0    0    0  501 -0.00000000000E+00 -0.00000000000E+00 -0.23073090119E+04  0.23073090119E+04  0.25500000000E-02 0.  1.
    8880023    1    1    2    0    0  0.13356288265E+04 -0.12493751604E+04 -0.10862614823E+04  0.22267952011E+04  0.65864270000E+03 0.  1.
    8880022    1    1    2    0    0 -0.13356288265E+04  0.12493751604E+04  0.64314002409E+03  0.19447013645E+04  0.15294330000E+03 0.  0.
<mgrwt>
<rscale>  0 0.19161375E+04</rscale>
<asrwt>0</asrwt>
<pdfrwt beam="1">  1        2 0.28679809E+00 0.19438757E+04</pdfrwt>
<pdfrwt beam="2">  1       -2 0.35497062E+00 0.19438757E+04</pdfrwt>
<totfact> 0.10295292E-01</totfact>
</mgrwt>
</event>
<event>
 4    1  0.2502834E-007  0.7787710E+03  0.7818608E-02  0.9758732E-01
         -2   -1    0    0    0  501 -0.00000000000E+00  0.00000000000E+00  0.73727986566E+03  0.73727986567E+03  0.25500000000E-02 0.  1.
          2   -1    0    0  501    0  0.00000000000E+00 -0.00000000000E+00 -0.17473943197E+04  0.17473943197E+04  0.25500000000E-02 0. -1.
    8880023    1    1    2    0    0  0.21449365948E+03  0.35590242331E+03  0.49031771105E+03  0.92026937845E+03  0.65864270000E+03 0.  1.
    8880022    1    1    2    0    0 -0.21449365948E+03 -0.35590242331E+03 -0.15004321651E+04  0.15644048070E+04  0.15294330000E+03 0.  0.
<mgrwt>
<rscale>  0 0.67625040E+03</rscale>
<asrwt>0</asrwt>
<pdfrwt beam="1">  1        2 0.26882989E+00 0.77877100E+03</pdfrwt>
<pdfrwt beam="2">  1       -2 0.11342767E+00 0.77877100E+03</pdfrwt>
<totfact> 0.57726020E+00</totfact>
</mgrwt>
</event>
<event>
 4    1  0.2502834E-007  0.8206389E+03  0.7818608E-02  0.9667828E-01
          2   -1    0    0  501    0  0.00000000000E+00  0.00000000000E+00  0.13290958387E+04  0.13290958387E+04  0.25500000000E-02 0. -1.
         -2   -1    0    0    0  501 -0.00000000000E+00 -0.00000000000E+00 -0.95723223621E+03  0.95723223622E+03  0.25500000000E-02 0.  1.
    8880023    1    1    2    0    0  0.19771413661E+03  0.44782496572E+03 -0.71250701115E+03  0.10867909307E+04  0.65864270000E+03 0.  0.
    8880022    1    1    2    0    0 -0.19771413661E+03 -0.44782496572E+03  0.10843706137E+04  0.11995371443E+04  0.15294330000E+03 0.  0.
<mgrwt>
<rscale>  0 0.72965019E+03</rscale>
<asrwt>0</asrwt>
<pdfrwt beam="1">  1        2 0.20447628E+00 0.82063895E+03</pdfrwt>
<pdfrwt beam="2">  1       -2 0.14726650E+00 0.82063895E+03</pdfrwt>
<totfact> 0.50677155E+00</totfact>
</mgrwt>
</event>
<event>
 4    1  0.2502834E-007  0.7649601E+03  0.7818608E-02  0.9792432E-01
          2   -1    0    0  501    0  0.00000000000E+00  0.00000000000E+00  0.18944969919E+04  0.18944969919E+04  0.25500000000E-02 0. -1.
         -2   -1    0    0    0  501 -0.00000000000E+00 -0.00000000000E+00 -0.49422989368E+03  0.49422989369E+03  0.25500000000E-02 0.  1.
    8880023    1    1    2    0    0 -0.27061727328E+03  0.27949952904E+03 -0.15306998883E+03  0.78012455613E+03  0.65864270000E+03 0.  1.
    8880022    1    1    2    0    0  0.27061727328E+03 -0.27949952904E+03  0.15533370871E+04  0.16086023295E+04  0.15294330000E+03 0.  0.
<mgrwt>
<rscale>  0 0.65770293E+03</rscale>
<asrwt>0</asrwt>
<pdfrwt beam="1">  1        2 0.29146108E+00 0.76496007E+03</pdfrwt>
<pdfrwt beam="2">  1       -2 0.76035368E-01 0.76496007E+03</pdfrwt>
<totfact> 0.12205203E+01</totfact>
</mgrwt>
</event>
<event>
 4    1  0.2502834E-007  0.7095146E+03  0.7818608E-02  0.9959808E-01
          2   -1    0    0  501    0  0.00000000000E+00  0.00000000000E+00  0.79878015058E+03  0.79878015058E+03  0.25500000000E-02 0. -1.
         -2   -1    0    0    0  501 -0.00000000000E+00 -0.00000000000E+00 -0.41545133413E+03  0.41545133414E+03  0.25500000000E-02 0.  1.
    8880023    1    1    2    0    0 -0.10797595571E+03 -0.24071135256E+03 -0.18544526303E+02  0.70975690767E+03  0.65864270000E+03 0.  1.
    8880022    1    1    2    0    0  0.10797595571E+03  0.24071135256E+03  0.40187334275E+03  0.50447457705E+03  0.15294330000E+03 0.  0.
<mgrwt>
<rscale>  0 0.57448269E+03</rscale>
<asrwt>0</asrwt>
<pdfrwt beam="1">  1        2 0.12288925E+00 0.70951460E+03</pdfrwt>
<pdfrwt beam="2">  1       -2 0.63915590E-01 0.70951460E+03</pdfrwt>
<totfact> 0.79368153E+01</totfact>
</mgrwt>
</event>
<event>
 4    1  0.2502834E-007  0.7469481E+03  0.7818608E-02  0.9840151E-01
          2   -1    0    0  501    0  0.00000000000E+00  0.00000000000E+00  0.19469037766E+04  0.19469037766E+04  0.25500000000E-02 0. -1.
         -2   -1    0    0    0  501 -0.00000000000E+00 -0.00000000000E+00 -0.42585342730E+03  0.42585342730E+03  0.25500000000E-02 0.  1.
    8880023    1    1    2    0    0 -0.23586684752E+03 -0.26170238452E+03 -0.56542136988E+02  0.74908512690E+03  0.65864270000E+03 0.  1.
    8880022    1    1    2    0    0  0.23586684752E+03  0.26170238452E+03  0.15775924863E+04  0.16236720770E+04  0.15294330000E+03 0.  0.
<mgrwt>
<rscale>  0 0.63251613E+03</rscale>
<asrwt>0</asrwt>
<pdfrwt beam="1">  1        2 0.29952366E+00 0.74694813E+03</pdfrwt>
<pdfrwt beam="2">  1       -2 0.65515912E-01 0.74694813E+03</pdfrwt>
<totfact> 0.15868463E+01</totfact>
</mgrwt>
</event>
<event>
 4    1  0.2502834E-007  0.8376489E+03  0.7818608E-02  0.9634629E-01
          2   -1    0    0  501    0  0.00000000000E+00  0.00000000000E+00  0.22397874871E+04  0.22397874871E+04  0.25500000000E-02 0. -1.
         -2   -1    0    0    0  501 -0.00000000000E+00 -0.00000000000E+00 -0.57970979631E+03  0.57970979632E+03  0.25500000000E-02 0.  1.
    8880023    1    1    2    0    0 -0.50744957306E+03  0.10168780156E+03 -0.21789252007E+03  0.86552460089E+03  0.65864270000E+03 0.  0.
    8880022    1    1    2    0    0  0.50744957306E+03 -0.10168780156E+03  0.18779702109E+04  0.19539726825E+04  0.15294330000E+03 0. -1.
<mgrwt>
<rscale>  0 0.75045968E+03</rscale>
<asrwt>0</asrwt>
<pdfrwt beam="1">  1        2 0.34458269E+00 0.83764890E+03</pdfrwt>
<pdfrwt beam="2">  1       -2 0.89186123E-01 0.83764890E+03</pdfrwt>
<totfact> 0.54385477E+00</totfact>
</mgrwt>
</event>
<event>
 4    1  0.2502834E-007  0.9112204E+03  0.7818608E-02  0.9508254E-01
          2   -1    0    0  501    0  0.00000000000E+00  0.00000000000E+00  0.19145658257E+04  0.19145658257E+04  0.25500000000E-02 0. -1.
         -2   -1    0    0    0  501 -0.00000000000E+00 -0.00000000000E+00 -0.79898824050E+03  0.79898824051E+03  0.25500000000E-02 0.  1.
    8880023    1    1    2    0    0 -0.31448561085E+03  0.54553756882E+03 -0.45211392049E+03  0.10172166150E+04  0.65864270000E+03 0.  0.
    8880022    1    1    2    0    0  0.31448561085E+03 -0.54553756882E+03  0.15676915057E+04  0.16963374512E+04  0.15294330000E+03 0.  0.
<mgrwt>
<rscale>  0 0.83678010E+03</rscale>
<asrwt>0</asrwt>
<pdfrwt beam="1">  1        2 0.29454859E+00 0.91122041E+03</pdfrwt>
<pdfrwt beam="2">  1       -2 0.12292127E+00 0.91122041E+03</pdfrwt>
<totfact> 0.37622691E+00</totfact>
</mgrwt>
</event>
<event>
 4    1  0.2502834E-007  0.6818709E+03  0.7818608E-02  0.1008285E+00
          2   -1    0    0  501    0  0.00000000000E+00  0.00000000000E+00  0.19985815113E+04  0.19985815113E+04  0.25500000000E-02 0. -1.
         -2   -1    0    0    0  501 -0.00000000000E+00 -0.00000000000E+00 -0.15003399303E+03  0.15003399305E+03  0.25500000000E-02 0.  1.
    8880023    1    1    2    0    0  0.40690778435E+02  0.17170306211E+03  0.70245031883E+03  0.97897106070E+03  0.65864270000E+03 0.  1.
    8880022    1    1    2    0    0 -0.40690778435E+02 -0.17170306211E+03  0.11460971994E+04  0.11696444436E+04  0.15294330000E+03 0.  0.
<mgrwt>
<rscale>  0 0.52162137E+03</rscale>
<asrwt>0</asrwt>
<pdfrwt beam="1">  1        2 0.30747407E+00 0.68187087E+03</pdfrwt>
<pdfrwt beam="2">  1       -2 0.23082153E-01 0.68187087E+03</pdfrwt>
<totfact> 0.11445718E+02</totfact>
</mgrwt>
</event>
<event>
 4    1  0.2502834E-007  0.1108358E+04  0.7818608E-02  0.9251807E-01
          2   -1    0    0  501    0  0.00000000000E+00  0.00000000000E+00  0.12703899251E+04  0.12703899251E+04  0.25500000000E-02 0. -1.
         -2   -1    0    0    0  501 -0.00000000000E+00 -0.00000000000E+00 -0.23081962531E+04  0.23081962531E+04  0.25500000000E-02 0.  1.
    8880023    1    1    2    0    0  0.89128421586E+03 -0.16114394085E+02 -0.19821488387E+04  0.22709846878E+04  0.65864270000E+03 0.  0.
    8880022    1    1    2    0    0 -0.89128421586E+03  0.16114394085E+02  0.94434251065E+03  0.13076014904E+04  0.15294330000E+03 0.  0.
<mgrwt>
<rscale>  0 0.10534327E+04</rscale>
<asrwt>0</asrwt>
<pdfrwt beam="1">  1        2 0.19544460E+00 0.11083580E+04</pdfrwt>
<pdfrwt beam="2">  1       -2 0.35510711E+00 0.11083580E+04</pdfrwt>
<totfact> 0.24717987E-01</totfact>
</mgrwt>
</event>
<event>
 4    1  0.2502834E-007  0.1052944E+04  0.7818608E-02  0.9315351E-01
          2   -1    0    0  501    0  0.00000000000E+00  0.00000000000E+00  0.28282440230E+04  0.28282440230E+04  0.25500000000E-02 0. -1.
         -2   -1    0    0    0  501 -0.00000000000E+00 -0.00000000000E+00 -0.34180025434E+03  0.34180025435E+03  0.25500000000E-02 0.  1.
    8880023    1    1    2    0    0 -0.17630479838E+03  0.80236968038E+03  0.18140210411E+04  0.20974658590E+04  0.65864270000E+03 0.  1.
    8880022    1    1    2    0    0  0.17630479838E+03 -0.80236968038E+03  0.67242272756E+03  0.10725784183E+04  0.15294330000E+03 0.  0.
<mgrwt>
<rscale>  0 0.99381830E+03</rscale>
<asrwt>0</asrwt>
<pdfrwt beam="1">  1        2 0.43511448E+00 0.10529438E+04</pdfrwt>
<pdfrwt beam="2">  1       -2 0.52584652E-01 0.10529438E+04</pdfrwt>
<totfact> 0.76759667E+00</totfact>
</mgrwt>
</event>
<event>
 4    1  0.2817742E-007  0.1330143E+04  0.7818608E-02  0.9039957E-01
          2   -1    0    0  501    0  0.00000000000E+00  0.00000000000E+00  0.23857182767E+04  0.23857182767E+04  0.25500000000E-02 0. -1.
         -2   -1    0    0    0  501 -0.00000000000E+00 -0.00000000000E+00 -0.18021717597E+04  0.18021717597E+04  0.25500000000E-02 0.  1.
    8880023    1    1    2    0    0 -0.98832025076E+03 -0.59891084723E+03 -0.13722099900E+04  0.19110838767E+04  0.65864270000E+03 0.  0.
    8880022    1    1    2    0    0  0.98832025076E+03  0.59891084723E+03  0.19557565070E+04  0.22768061597E+04  0.15294330000E+03 0.  0.
<mgrwt>
<rscale>  0 0.12869770E+04</rscale>
<asrwt>0</asrwt>
<pdfrwt beam="1">  1        2 0.36703358E+00 0.13301433E+04</pdfrwt>
<pdfrwt beam="2">  1       -2 0.27725720E+00 0.13301433E+04</pdfrwt>
<totfact> 0.17005739E-01</totfact>
</mgrwt>
</event>
<event>
 4    1  0.2626672E-007  0.1074338E+04  0.7818608E-02  0.9290180E-01
          2   -1    0    0  501    0  0.00000000000E+00  0.00000000000E+00  0.22606318461E+04  0.22606318461E+04  0.25500000000E-02 0. -1.
         -2   -1    0    0    0  501 -0.00000000000E+00 -0.00000000000E+00 -0.10842538766E+04  0.10842538766E+04  0.25500000000E-02 0.  1.
    8880023    1    1    2    0    0 -0.80799403193E+03 -0.25988140613E+03 -0.69830490303E+03  0.12813401753E+04  0.65864270000E+03 0.  1.
    8880022    1    1    2    0    0  0.80799403193E+03  0.25988140613E+03  0.18746828726E+04  0.20635455475E+04  0.15294330000E+03 0.  0.
<mgrwt>
<rscale>  0 0.10169198E+04</rscale>
<asrwt>0</asrwt>
<pdfrwt beam="1">  1        2 0.34778951E+00 0.10743384E+04</pdfrwt>
<pdfrwt beam="2">  1       -2 0.16680829E+00 0.10743384E+04</pdfrwt>
<totfact> 0.10620578E+00</totfact>
</mgrwt>
</event>
<event>
 4    1  0.2502834E-007  0.1323715E+04  0.7818608E-02  0.9045347E-01
          2   -1    0    0  501    0  0.00000000000E+00  0.00000000000E+00  0.14288723705E+04  0.14288723705E+04  0.25500000000E-02 0. -1.
         -2   -1    0    0    0  501 -0.00000000000E+00 -0.00000000000E+00 -0.14998989155E+04  0.14998989155E+04  0.25500000000E-02 0.  1.
    8880023    1    1    2    0    0  0.10815962602E+04  0.38543510366E+03 -0.81272520813E+03  0.15533007305E+04  0.65864270000E+03 0.  0.
    8880022    1    1    2    0    0 -0.10815962602E+04 -0.38543510366E+03  0.74169866318E+03  0.13754705555E+04  0.15294330000E+03 0.  0.
<mgrwt>
<rscale>  0 0.12802857E+04</rscale>
<asrwt>0</asrwt>
<pdfrwt beam="1">  1        2 0.21982652E+00 0.13237148E+04</pdfrwt>
<pdfrwt beam="2">  1       -2 0.23075368E+00 0.13237148E+04</pdfrwt>
<totfact> 0.11284811E+00</totfact>
</mgrwt>
</event>
<event>
 4    1  0.2502834E-007  0.1033359E+04  0.7818608E-02  0.9339159E-01
         -2   -1    0    0    0  501 -0.00000000000E+00  0.00000000000E+00  0.81194000495E+03  0.81194000496E+03  0.25500000000E-02 0.  1.
          2   -1    0    0  501    0  0.00000000000E+00 -0.00000000000E+00 -0.17240007420E+04  0.17240007420E+04  0.25500000000E-02 0. -1.
    8880023    1    1    2    0    0  0.64826770790E+03  0.46235177428E+03  0.30149628908E+03  0.10764434044E+04  0.65864270000E+03 0.  0.
    8880022    1    1    2    0    0 -0.64826770790E+03 -0.46235177428E+03 -0.12135570261E+04  0.14594973426E+04  0.15294330000E+03 0.  0.
<mgrwt>
<rscale>  0 0.97256367E+03</rscale>
<asrwt>0</asrwt>
<pdfrwt beam="1">  1        2 0.26523088E+00 0.10333588E+04</pdfrwt>
<pdfrwt beam="2">  1       -2 0.12491385E+00 0.10333588E+04</pdfrwt>
<totfact> 0.45299389E+00</totfact>
</mgrwt>
</event>
<event>
 4    1  0.2502834E-007  0.7213931E+03  0.7818608E-02  0.9917900E-01
         -2   -1    0    0    0  501 -0.00000000000E+00  0.00000000000E+00  0.34917120674E+03  0.34917120675E+03  0.25500000000E-02 0.  1.
          2   -1    0    0  501    0  0.00000000000E+00 -0.00000000000E+00 -0.26929577048E+04  0.26929577048E+04  0.25500000000E-02 0. -1.
    8880023    1    1    2    0    0 -0.28634015799E+03 -0.67875182069E+02 -0.48516497801E+02  0.72302267132E+03  0.65864270000E+03 0.  1.
    8880022    1    1    2    0    0  0.28634015799E+03  0.67875182069E+02 -0.22952700002E+04  0.23191062402E+04  0.15294330000E+03 0.  0.
<mgrwt>
<rscale>  0 0.59401554E+03</rscale>
<asrwt>0</asrwt>
<pdfrwt beam="1">  1        2 0.41430117E+00 0.72139305E+03</pdfrwt>
<pdfrwt beam="2">  1       -2 0.53718649E-01 0.72139305E+03</pdfrwt>
<totfact> 0.92763331E+00</totfact>
</mgrwt>
</event>
<event>
 4    1  0.2502834E-007  0.6987443E+03  0.7818608E-02  0.1000245E+00
         -2   -1    0    0    0  501 -0.00000000000E+00  0.00000000000E+00  0.10275788012E+04  0.10275788012E+04  0.25500000000E-02 0.  1.
          2   -1    0    0  501    0  0.00000000000E+00 -0.00000000000E+00 -0.26151035521E+03  0.26151035522E+03  0.25500000000E-02 0. -1.
    8880023    1    1    2    0    0 -0.16172652333E+03 -0.16816048501E+03  0.72534874709E+03  0.10071615701E+04  0.65864270000E+03 0.  1.
    8880022    1    1    2    0    0  0.16172652333E+03  0.16816048501E+03  0.40719698921E+02  0.28192758638E+03  0.15294330000E+03 0.  0.
<mgrwt>
<rscale>  0 0.55542914E+03</rscale>
<asrwt>0</asrwt>
<pdfrwt beam="1">  1        2 0.40232362E-01 0.69874432E+03</pdfrwt>
<pdfrwt beam="2">  1       -2 0.15808905E+00 0.69874432E+03</pdfrwt>
<totfact> 0.33821847E+01</totfact>
</mgrwt>
</event>
<event>
 4    1  0.2502834E-007  0.1207304E+04  0.7818608E-02  0.9150055E-01
          2   -1    0    0  501    0  0.00000000000E+00  0.00000000000E+00  0.38437551740E+04  0.38437551740E+04  0.25500000000E-02 0. -1.
         -2   -1    0    0    0  501 -0.00000000000E+00 -0.00000000000E+00 -0.37523346398E+03  0.37523346399E+03  0.25500000000E-02 0.  1.
    8880023    1    1    2    0    0  0.56764340926E+03 -0.83758808210E+03  0.10775582350E+04  0.16182443547E+04  0.65864270000E+03 0.  0.
    8880022    1    1    2    0    0 -0.56764340926E+03  0.83758808210E+03  0.23909634750E+04  0.26007442833E+04  0.15294330000E+03 0.  0.
<mgrwt>
<rscale>  0 0.11584155E+04</rscale>
<asrwt>0</asrwt>
<pdfrwt beam="1">  1        2 0.59134698E+00 0.12073040E+04</pdfrwt>
<pdfrwt beam="2">  1       -2 0.57728222E-01 0.12073040E+04</pdfrwt>
<totfact> 0.12958511E+00</totfact>
</mgrwt>
</event>
<event>
 4    1  0.2502834E-007  0.9275023E+03  0.7818608E-02  0.9483250E-01
         -2   -1    0    0    0  501 -0.00000000000E+00  0.00000000000E+00  0.44052369440E+03  0.44052369441E+03  0.25500000000E-02 0.  1.
          2   -1    0    0  501    0  0.00000000000E+00 -0.00000000000E+00 -0.14653173505E+04  0.14653173505E+04  0.25500000000E-02 0. -1.
    8880023    1    1    2    0    0 -0.10558462611E+03 -0.64443939249E+03 -0.69139659672E+03  0.11568447191E+04  0.65864270000E+03 0.  1.
    8880022    1    1    2    0    0  0.10558462611E+03  0.64443939249E+03 -0.33339705935E+03  0.74899632580E+03  0.15294330000E+03 0.  0.
<mgrwt>
<rscale>  0 0.85530049E+03</rscale>
<asrwt>0</asrwt>
<pdfrwt beam="1">  1        2 0.22543344E+00 0.92750226E+03</pdfrwt>
<pdfrwt beam="2">  1       -2 0.67772876E-01 0.92750226E+03</pdfrwt>
<totfact> 0.26605856E+01</totfact>
</mgrwt>
</event>
<event>
 4    1  0.2502834E-007  0.7365931E+03  0.7818608E-02  0.9869985E-01
         -2   -1    0    0    0  501 -0.00000000000E+00  0.00000000000E+00  0.31184524148E+03  0.31184524149E+03  0.25500000000E-02 0.  1.
          2   -1    0    0  501    0  0.00000000000E+00 -0.00000000000E+00 -0.18338092418E+04  0.18338092418E+04  0.25500000000E-02 0. -1.
    8880023    1    1    2    0    0  0.23983779892E+03  0.22635582449E+03 -0.18405825529E+03  0.75924092136E+03  0.65864270000E+03 0.  0.
    8880022    1    1    2    0    0 -0.23983779892E+03 -0.22635582449E+03 -0.13379057450E+04  0.13864135619E+04  0.15294330000E+03 0.  0.
<mgrwt>
<rscale>  0 0.61738267E+03</rscale>
<asrwt>0</asrwt>
<pdfrwt beam="1">  1        2 0.28212449E+00 0.73659306E+03</pdfrwt>
<pdfrwt beam="2">  1       -2 0.47976192E-01 0.73659306E+03</pdfrwt>
<totfact> 0.35048524E+01</totfact>
</mgrwt>
</event>
<event>
 4    1  0.2502834E-007  0.9963511E+03  0.7818608E-02  0.9386347E-01
         -2   -1    0    0    0  501 -0.00000000000E+00  0.00000000000E+00  0.93888595482E+03  0.93888595483E+03  0.25500000000E-02 0.  1.
          2   -1    0    0  501    0  0.00000000000E+00 -0.00000000000E+00 -0.11189382641E+04  0.11189382641E+04  0.25500000000E-02 0. -1.
    8880023    1    1    2    0    0  0.23060117405E+03 -0.71114579463E+03 -0.62339189516E+03  0.11753011971E+04  0.65864270000E+03 0. -1.
    8880022    1    1    2    0    0 -0.23060117405E+03  0.71114579463E+03  0.44333958586E+03  0.88252302185E+03  0.15294330000E+03 0.  0.
<mgrwt>
<rscale>  0 0.93207820E+03</rscale>
<asrwt>0</asrwt>
<pdfrwt beam="1">  1        2 0.17214435E+00 0.99635107E+03</pdfrwt>
<pdfrwt beam="2">  1       -2 0.14444399E+00 0.99635107E+03</pdfrwt>
<totfact> 0.69623004E+00</totfact>
</mgrwt>
</event>
<event>
 4    1  0.2502834E-007  0.1007548E+04  0.7818608E-02  0.9371749E-01
         -2   -1    0    0    0  501 -0.00000000000E+00  0.00000000000E+00  0.17269062424E+04  0.17269062424E+04  0.25500000000E-02 0.  1.
          2   -1    0    0  501    0  0.00000000000E+00 -0.00000000000E+00 -0.47049222701E+03  0.47049222702E+03  0.25500000000E-02 0. -1.
    8880023    1    1    2    0    0 -0.26045379252E+03  0.71659306999E+03  0.85934218592E+03  0.13242435595E+04  0.65864270000E+03 0.  0.
    8880022    1    1    2    0    0  0.26045379252E+03 -0.71659306999E+03  0.39707182945E+03  0.87315490995E+03  0.15294330000E+03 0.  0.
<mgrwt>
<rscale>  0 0.94437538E+03</rscale>
<asrwt>0</asrwt>
<pdfrwt beam="1">  1        2 0.72383419E-01 0.10075475E+04</pdfrwt>
<pdfrwt beam="2">  1       -2 0.26567789E+00 0.10075475E+04</pdfrwt>
<totfact> 0.34090479E+00</totfact>
</mgrwt>
</event>
<event>
 4    1  0.2502834E-007  0.1515464E+04  0.7818608E-02  0.8898793E-01
         -2   -1    0    0    0  501 -0.00000000000E+00  0.00000000000E+00  0.12468001275E+04  0.12468001275E+04  0.25500000000E-02 0.  1.
          2   -1    0    0  501    0  0.00000000000E+00 -0.00000000000E+00 -0.19149946028E+04  0.19149946028E+04  0.25500000000E-02 0. -1.
    8880023    1    1    2    0    0  0.11326372605E+04 -0.76154707879E+03  0.21248738333E+03  0.15302882772E+04  0.65864270000E+03 0.  1.
    8880022    1    1    2    0    0 -0.11326372605E+04  0.76154707879E+03 -0.88068185870E+03  0.16315064531E+04  0.15294330000E+03 0.  0.
<mgrwt>
<rscale>  0 0.14786251E+04</rscale>
<asrwt>0</asrwt>
<pdfrwt beam="1">  1        2 0.29461456E+00 0.15154641E+04</pdfrwt>
<pdfrwt beam="2">  1       -2 0.19181540E+00 0.15154641E+04</pdfrwt>
<totfact> 0.10541099E+00</totfact>
</mgrwt>
</event>
<event>
 4    1  0.2502834E-007  0.8977649E+03  0.7818608E-02  0.9529629E-01
         -2   -1    0    0    0  501 -0.00000000000E+00  0.00000000000E+00  0.46813851013E+03  0.46813851014E+03  0.25500000000E-02 0.  1.
          2   -1    0    0  501    0  0.00000000000E+00 -0.00000000000E+00 -0.20133769170E+04  0.20133769170E+04  0.25500000000E-02 0. -1.
    8880023    1    1    2    0    0  0.24333310970E+03  0.55942879780E+03 -0.97475314511E+02  0.90304109834E+03  0.65864270000E+03 0.  0.
    8880022    1    1    2    0    0 -0.24333310970E+03 -0.55942879780E+03 -0.14477630923E+04  0.15784743288E+04  0.15294330000E+03 0.  0.
<mgrwt>
<rscale>  0 0.82134185E+03</rscale>
<asrwt>0</asrwt>
<pdfrwt beam="1">  1        2 0.30975029E+00 0.89776488E+03</pdfrwt>
<pdfrwt beam="2">  1       -2 0.72021310E-01 0.89776488E+03</pdfrwt>
<totfact> 0.11641603E+01</totfact>
</mgrwt>
</event>
<event>
 4    1  0.2502834E-007  0.1068838E+04  0.7818608E-02  0.9296571E-01
         -2   -1    0    0    0  501 -0.00000000000E+00  0.00000000000E+00  0.17238182320E+04  0.17238182320E+04  0.25500000000E-02 0.  1.
          2   -1    0    0  501    0  0.00000000000E+00 -0.00000000000E+00 -0.94531339895E+03  0.94531339895E+03  0.25500000000E-02 0. -1.
    8880023    1    1    2    0    0 -0.42654430773E+03 -0.72571589094E+03  0.12877068915E+04  0.16735001780E+04  0.65864270000E+03 0.  0.
    8880022    1    1    2    0    0  0.42654430773E+03  0.72571589094E+03 -0.50920205849E+03  0.99563145300E+03  0.15294330000E+03 0.  0.
<mgrwt>
<rscale>  0 0.10109911E+04</rscale>
<asrwt>0</asrwt>
<pdfrwt beam="1">  1        2 0.14543283E+00 0.10688376E+04</pdfrwt>
<pdfrwt beam="2">  1       -2 0.26520280E+00 0.10688376E+04</pdfrwt>
<totfact> 0.14041809E+00</totfact>
</mgrwt>
</event>
<event>
 4    1  0.2502834E-007  0.6905705E+03  0.7818608E-02  0.1003883E+00
         -2   -1    0    0    0  501 -0.00000000000E+00  0.00000000000E+00  0.81909043439E+03  0.81909043439E+03  0.25500000000E-02 0.  1.
          2   -1    0    0  501    0  0.00000000000E+00 -0.00000000000E+00 -0.16955285134E+04  0.16955285134E+04  0.25500000000E-02 0. -1.
    8880023    1    1    2    0    0 -0.89305790830E+02 -0.18735491417E+03  0.66086919684E+03  0.95584292106E+03  0.65864270000E+03 0.  1.
    8880022    1    1    2    0    0  0.89305790830E+02  0.18735491417E+03 -0.15373072759E+04  0.15587760268E+04  0.15294330000E+03 0.  0.
<mgrwt>
<rscale>  0 0.53980069E+03</rscale>
<asrwt>0</asrwt>
<pdfrwt beam="1">  1        2 0.26085054E+00 0.69057048E+03</pdfrwt>
<pdfrwt beam="2">  1       -2 0.12601391E+00 0.69057048E+03</pdfrwt>
<totfact> 0.48171407E+00</totfact>
</mgrwt>
</event>
<event>
 4    1  0.2502834E-007  0.9798661E+03  0.7818608E-02  0.9408386E-01
          2   -1    0    0  501    0  0.00000000000E+00  0.00000000000E+00  0.11803434546E+04  0.11803434546E+04  0.25500000000E-02 0. -1.
         -2   -1    0    0    0  501 -0.00000000000E+00 -0.00000000000E+00 -0.94449072531E+03  0.94449072531E+03  0.25500000000E-02 0.  1.
    8880023    1    1    2    0    0  0.18534402148E+03  0.70140930195E+03 -0.48273110273E+03  0.10923218111E+04  0.65864270000E+03 0.  1.
    8880022    1    1    2    0    0 -0.18534402148E+03 -0.70140930195E+03  0.71858383205E+03  0.10325123689E+04  0.15294330000E+03 0.  0.
<mgrwt>
<rscale>  0 0.91388733E+03</rscale>
<asrwt>0</asrwt>
<pdfrwt beam="1">  1        2 0.18159130E+00 0.97986612E+03</pdfrwt>
<pdfrwt beam="2">  1       -2 0.14530626E+00 0.97986612E+03</pdfrwt>
<totfact> 0.63009108E+00</totfact>
</mgrwt>
</event>
<event>
 4    1  0.2502834E-007  0.1913724E+04  0.7818608E-02  0.8662107E-01
          2   -1    0    0  501    0  0.00000000000E+00  0.00000000000E+00  0.36379090922E+04  0.36379090922E+04  0.25500000000E-02 0. -1.
         -2   -1    0    0    0  501 -0.00000000000E+00 -0.00000000000E+00 -0.13156378895E+04  0.13156378895E+04  0.25500000000E-02 0.  1.
    8880023    1    1    2    0    0 -0.59635966066E+03 -0.16949590091E+04 -0.12020384758E+03  0.19174957780E+04  0.65864270000E+03 0.  0.
    8880022    1    1    2    0    0  0.59635966066E+03  0.16949590091E+04  0.24424750502E+04  0.30360512037E+04  0.15294330000E+03 0.  0.
<mgrwt>
<rscale>  0 0.18855023E+04</rscale>
<asrwt>0</asrwt>
<pdfrwt beam="1">  1        2 0.55967832E+00 0.19137244E+04</pdfrwt>
<pdfrwt beam="2">  1       -2 0.20240583E+00 0.19137244E+04</pdfrwt>
<totfact> 0.75014654E-02</totfact>
</mgrwt>
</event>
<event>
 4    1  0.2502834E-007  0.8166265E+03  0.7818608E-02  0.9675936E-01
         -2   -1    0    0    0  501 -0.00000000000E+00  0.00000000000E+00  0.40359420204E+03  0.40359420205E+03  0.25500000000E-02 0.  1.
          2   -1    0    0  501    0  0.00000000000E+00 -0.00000000000E+00 -0.12876260118E+04  0.12876260118E+04  0.25500000000E-02 0. -1.
    8880023    1    1    2    0    0 -0.30705070438E+03 -0.37254324866E+03 -0.20112205417E+03  0.84102847403E+03  0.65864270000E+03 0.  0.
    8880022    1    1    2    0    0  0.30705070438E+03  0.37254324866E+03 -0.68290975558E+03  0.85019173983E+03  0.15294330000E+03 0.  0.
<mgrwt>
<rscale>  0 0.72467805E+03</rscale>
<asrwt>0</asrwt>
<pdfrwt beam="1">  1        2 0.19809631E+00 0.81662648E+03</pdfrwt>
<pdfrwt beam="2">  1       -2 0.62091416E-01 0.81662648E+03</pdfrwt>
<totfact> 0.40994861E+01</totfact>
</mgrwt>
</event>
<event>
 4    1  0.2502834E-007  0.1656468E+04  0.7818608E-02  0.8806386E-01
         -2   -1    0    0    0  501 -0.00000000000E+00  0.00000000000E+00  0.21312463716E+04  0.21312463716E+04  0.25500000000E-02 0.  1.
          2   -1    0    0  501    0  0.00000000000E+00 -0.00000000000E+00 -0.19765690053E+04  0.19765690053E+04  0.25500000000E-02 0. -1.
    8880023    1    1    2    0    0 -0.58250740418E+03  0.14038379709E+04  0.13748913611E+04  0.21527220874E+04  0.65864270000E+03 0.  0.
    8880022    1    1    2    0    0  0.58250740418E+03 -0.14038379709E+04 -0.12202139948E+04  0.19550932895E+04  0.15294330000E+03 0.  0.
<mgrwt>
<rscale>  0 0.16232578E+04</rscale>
<asrwt>0</asrwt>
<pdfrwt beam="1">  1        2 0.30408754E+00 0.16564680E+04</pdfrwt>
<pdfrwt beam="2">  1       -2 0.32788406E+00 0.16564680E+04</pdfrwt>
<totfact> 0.13575780E-01</totfact>
</mgrwt>
</event>
<event>
 4    1  0.2708041E-007  0.6942389E+03  0.7818608E-02  0.1002200E+00
          2   -1    0    0  501    0  0.00000000000E+00  0.00000000000E+00  0.23730475169E+04  0.23730475169E+04  0.25500000000E-02 0. -1.
         -2   -1    0    0    0  501 -0.00000000000E+00 -0.00000000000E+00 -0.10318544121E+04  0.10318544121E+04  0.25500000000E-02 0.  1.
    8880023    1    1    2    0    0  0.19899134919E+03 -0.92519885738E+02 -0.90624674727E+03  0.11416001312E+04  0.65864270000E+03 0.  1.
    8880022    1    1    2    0    0 -0.19899134919E+03  0.92519885738E+02  0.22474398521E+04  0.22633017979E+04  0.15294330000E+03 0.  0.
<mgrwt>
<rscale>  0 0.54696215E+03</rscale>
<asrwt>0</asrwt>
<pdfrwt beam="1">  1        2 0.36508422E+00 0.69423893E+03</pdfrwt>
<pdfrwt beam="2">  1       -2 0.15874684E+00 0.69423893E+03</pdfrwt>
<totfact> 0.11257503E+00</totfact>
</mgrwt>
</event>
<event>
 4    1  0.2502834E-007  0.1061763E+04  0.7818608E-02  0.9304872E-01
          2   -1    0    0  501    0  0.00000000000E+00  0.00000000000E+00  0.16185949907E+04  0.16185949907E+04  0.25500000000E-02 0. -1.
         -2   -1    0    0    0  501 -0.00000000000E+00 -0.00000000000E+00 -0.11402531131E+04  0.11402531131E+04  0.25500000000E-02 0.  1.
    8880023    1    1    2    0    0 -0.30669778577E+03  0.77425290225E+03 -0.72629669598E+03  0.12864090272E+04  0.65864270000E+03 0.  0.
    8880022    1    1    2    0    0  0.30669778577E+03 -0.77425290225E+03  0.12046385736E+04  0.14724390766E+04  0.15294330000E+03 0.  0.
<mgrwt>
<rscale>  0 0.10033555E+04</rscale>
<asrwt>0</asrwt>
<pdfrwt beam="1">  1        2 0.24901461E+00 0.10617633E+04</pdfrwt>
<pdfrwt beam="2">  1       -2 0.17542356E+00 0.10617633E+04</pdfrwt>
<totfact> 0.20946437E+00</totfact>
</mgrwt>
</event>
<event>
 4    1  0.2502834E-007  0.9201481E+03  0.7818608E-02  0.9494432E-01
          2   -1    0    0  501    0  0.00000000000E+00  0.00000000000E+00  0.11635644456E+04  0.11635644456E+04  0.25500000000E-02 0. -1.
         -2   -1    0    0    0  501 -0.00000000000E+00 -0.00000000000E+00 -0.91360559586E+03  0.91360559586E+03  0.25500000000E-02 0.  1.
    8880023    1    1    2    0    0  0.29582552327E+02 -0.64186234906E+03 -0.52463650501E+03  0.10592053961E+04  0.65864270000E+03 0.  0.
    8880022    1    1    2    0    0 -0.29582552327E+02  0.64186234906E+03  0.77459535478E+03  0.10179646454E+04  0.15294330000E+03 0. -1.
<mgrwt>
<rscale>  0 0.84695581E+03</rscale>
<asrwt>0</asrwt>
<pdfrwt beam="1">  1        2 0.17900992E+00 0.92014815E+03</pdfrwt>
<pdfrwt beam="2">  1       -2 0.14055471E+00 0.92014815E+03</pdfrwt>
<totfact> 0.70799036E+00</totfact>
</mgrwt>
</event>
<event>
 4    1  0.2717842E-007  0.1190664E+04  0.7818608E-02  0.9166252E-01
          2   -1    0    0  501    0  0.00000000000E+00  0.00000000000E+00  0.24444366216E+04  0.24444366216E+04  0.25500000000E-02 0. -1.
         -2   -1    0    0    0  501 -0.00000000000E+00 -0.00000000000E+00 -0.15580286939E+04  0.15580286939E+04  0.25500000000E-02 0.  1.
    8880023    1    1    2    0    0  0.57272892786E+03  0.80984636928E+03 -0.11979840532E+04  0.16890368749E+04  0.65864270000E+03 0.  0.
    8880022    1    1    2    0    0 -0.57272892786E+03 -0.80984636928E+03  0.20843919810E+04  0.23134284406E+04  0.15294330000E+03 0.  0.
<mgrwt>
<rscale>  0 0.11408658E+04</rscale>
<asrwt>0</asrwt>
<pdfrwt beam="1">  1        2 0.37606717E+00 0.11906636E+04</pdfrwt>
<pdfrwt beam="2">  1       -2 0.23969672E+00 0.11906636E+04</pdfrwt>
<totfact> 0.27261919E-01</totfact>
</mgrwt>
</event>
<event>
 4    1  0.2502834E-007  0.8515487E+03  0.7818608E-02  0.9608777E-01
         -2   -1    0    0    0  501 -0.00000000000E+00  0.00000000000E+00  0.18644364646E+04  0.18644364646E+04  0.25500000000E-02 0.  1.
          2   -1    0    0  501    0  0.00000000000E+00 -0.00000000000E+00 -0.14648811439E+04  0.14648811439E+04  0.25500000000E-02 0. -1.
    8880023    1    1    2    0    0 -0.41375834832E+03 -0.34659632277E+03  0.17064413990E+04  0.19071123292E+04  0.65864270000E+03 0.  1.
    8880022    1    1    2    0    0  0.41375834832E+03  0.34659632277E+03 -0.13068860783E+04  0.14222052793E+04  0.15294330000E+03 0.  0.
<mgrwt>
<rscale>  0 0.76717966E+03</rscale>
<asrwt>0</asrwt>
<pdfrwt beam="1">  1        2 0.22536633E+00 0.85154870E+03</pdfrwt>
<pdfrwt beam="2">  1       -2 0.28683638E+00 0.85154870E+03</pdfrwt>
<totfact> 0.52323541E-01</totfact>
</mgrwt>
</event>
<event>
 4    1  0.2502834E-007  0.1423485E+04  0.7818608E-02  0.8965646E-01
          2   -1    0    0  501    0  0.00000000000E+00  0.00000000000E+00  0.16492879893E+04  0.16492879893E+04  0.25500000000E-02 0. -1.
         -2   -1    0    0    0  501 -0.00000000000E+00 -0.00000000000E+00 -0.15527446175E+04  0.15527446175E+04  0.25500000000E-02 0.  1.
    8880023    1    1    2    0    0  0.12194078850E+04 -0.32487498807E+03 -0.81270249181E+03  0.16391445618E+04  0.65864270000E+03 0.  0.
    8880022    1    1    2    0    0 -0.12194078850E+04  0.32487498807E+03  0.90924586354E+03  0.15628880450E+04  0.15294330000E+03 0.  0.
<mgrwt>
<rscale>  0 0.13837772E+04</rscale>
<asrwt>0</asrwt>
<pdfrwt beam="1">  1        2 0.25373661E+00 0.14234850E+04</pdfrwt>
<pdfrwt beam="2">  1       -2 0.23888379E+00 0.14234850E+04</pdfrwt>
<totfact> 0.74579685E-01</totfact>
</mgrwt>
</event>
<event>
 4    1  0.2502834E-007  0.7169311E+03  0.7818608E-02  0.9933110E-01
          2   -1    0    0  501    0  0.00000000000E+00  0.00000000000E+00  0.29201290989E+04  0.29201290989E+04  0.25500000000E-02 0. -1.
         -2   -1    0    0    0  501 -0.00000000000E+00 -0.00000000000E+00 -0.24746262737E+03  0.24746262738E+03  0.25500000000E-02 0.  1.
    8880023    1    1    2    0    0 -0.65600346304E+01  0.28308467656E+03  0.30660142133E+03  0.77974008874E+03  0.65864270000E+03 0.  0.
    8880022    1    1    2    0    0  0.65600346304E+01 -0.28308467656E+03  0.23660650502E+04  0.23878516375E+04  0.15294330000E+03 0. -1.
<mgrwt>
<rscale>  0 0.58683114E+03</rscale>
<asrwt>0</asrwt>
<pdfrwt beam="1">  1        2 0.44925062E+00 0.71693108E+03</pdfrwt>
<pdfrwt beam="2">  1       -2 0.38071174E-01 0.71693108E+03</pdfrwt>
<totfact> 0.13546749E+01</totfact>
</mgrwt>
</event>
<event>
 4    1  0.2502834E-007  0.1752037E+04  0.7818608E-02  0.8749542E-01
         -2   -1    0    0    0  501 -0.00000000000E+00  0.00000000000E+00  0.11582677920E+04  0.11582677920E+04  0.25500000000E-02 0.  1.
          2   -1    0    0  501    0  0.00000000000E+00 -0.00000000000E+00 -0.40354518573E+04  0.40354518573E+04  0.25500000000E-02 0. -1.
    8880023    1    1    2    0    0 -0.15425006678E+04  0.50647415312E+03 -0.30870311477E+04  0.35495627746E+04  0.65864270000E+03 0. -1.
    8880022    1    1    2    0    0  0.15425006678E+04 -0.50647415312E+03  0.20984708240E+03  0.16441568748E+04  0.15294330000E+03 0.  0.
<mgrwt>
<rscale>  0 0.17208844E+04</rscale>
<asrwt>0</asrwt>
<pdfrwt beam="1">  1        2 0.62083874E+00 0.17520373E+04</pdfrwt>
<pdfrwt beam="2">  1       -2 0.17819505E+00 0.17520373E+04</pdfrwt>
<totfact> 0.55335168E-02</totfact>
</mgrwt>
</event>
<event>
 4    1  0.2502834E-007  0.6634380E+03  0.7818608E-02  0.1020881E+00
         -2   -1    0    0    0  501 -0.00000000000E+00  0.00000000000E+00  0.18603367419E+03  0.18603367421E+03  0.25500000000E-02 0.  1.
          2   -1    0    0  501    0  0.00000000000E+00 -0.00000000000E+00 -0.25700277555E+04  0.25700277555E+04  0.25500000000E-02 0. -1.
    8880023    1    1    2    0    0  0.78731081390E+02 -0.11882586329E+02 -0.42150723302E+03  0.78601420648E+03  0.65864270000E+03 0.  1.
    8880022    1    1    2    0    0 -0.78731081390E+02  0.11882586329E+02 -0.19624868483E+04  0.19700472232E+04  0.15294330000E+03 0.  0.
<mgrwt>
<rscale>  0 0.47369875E+03</rscale>
<asrwt>0</asrwt>
<pdfrwt beam="1">  1        2 0.39538886E+00 0.66343800E+03</pdfrwt>
<pdfrwt beam="2">  1       -2 0.28620567E-01 0.66343800E+03</pdfrwt>
<totfact> 0.37505007E+01</totfact>
</mgrwt>
</event>
<event>
 4    1  0.2502834E-007  0.9048596E+03  0.7818608E-02  0.9518275E-01
         -2   -1    0    0    0  501 -0.00000000000E+00  0.00000000000E+00  0.60976812012E+03  0.60976812012E+03  0.25500000000E-02 0.  1.
          2   -1    0    0  501    0  0.00000000000E+00 -0.00000000000E+00 -0.20617826901E+04  0.20617826901E+04  0.25500000000E-02 0. -1.
    8880023    1    1    2    0    0  0.11373418444E+03 -0.60993864786E+03  0.17670915025E+03  0.92195279104E+03  0.65864270000E+03 0.  0.
    8880022    1    1    2    0    0 -0.11373418444E+03  0.60993864786E+03 -0.16287237202E+04  0.17495980192E+04  0.15294330000E+03 0. -1.
<mgrwt>
<rscale>  0 0.82949783E+03</rscale>
<asrwt>0</asrwt>
<pdfrwt beam="1">  1        2 0.31719733E+00 0.90485956E+03</pdfrwt>
<pdfrwt beam="2">  1       -2 0.93810481E-01 0.90485956E+03</pdfrwt>
<totfact> 0.60071198E+00</totfact>
</mgrwt>
</event>
<event>
 4    1  0.2502834E-007  0.9907007E+03  0.7818608E-02  0.9393826E-01
         -2   -1    0    0    0  501 -0.00000000000E+00  0.00000000000E+00  0.79049983862E+03  0.79049983862E+03  0.25500000000E-02 0.  1.
          2   -1    0    0  501    0  0.00000000000E+00 -0.00000000000E+00 -0.14055691719E+04  0.14055691719E+04  0.25500000000E-02 0. -1.
    8880023    1    1    2    0    0  0.62938514206E+02  0.73737126655E+03  0.27529885879E+03  0.10282399084E+04  0.65864270000E+03 0.  0.
    8880022    1    1    2    0    0 -0.62938514206E+02 -0.73737126655E+03 -0.89036819203E+03  0.11678291021E+04  0.15294330000E+03 0.  0.
<mgrwt>
<rscale>  0 0.92585494E+03</rscale>
<asrwt>0</asrwt>
<pdfrwt beam="1">  1        2 0.21624141E+00 0.99070069E+03</pdfrwt>
<pdfrwt beam="2">  1       -2 0.12161536E+00 0.99070069E+03</pdfrwt>
<totfact> 0.73357536E+00</totfact>
</mgrwt>
</event>
<event>
 4    1  0.2502834E-007  0.1772165E+04  0.7818608E-02  0.8738092E-01
          2   -1    0    0  501    0  0.00000000000E+00  0.00000000000E+00  0.13657238086E+04  0.13657238086E+04  0.25500000000E-02 0. -1.
         -2   -1    0    0    0  501 -0.00000000000E+00 -0.00000000000E+00 -0.35808464257E+04  0.35808464257E+04  0.25500000000E-02 0.  1.
    8880023    1    1    2    0    0  0.14027413646E+04 -0.85969580794E+03 -0.26954652015E+04  0.32258492024E+04  0.65864270000E+03 0.  1.
    8880022    1    1    2    0    0 -0.14027413646E+04  0.85969580794E+03  0.48034258439E+03  0.17207210319E+04  0.15294330000E+03 0.  0.
<mgrwt>
<rscale>  0 0.17414121E+04</rscale>
<asrwt>0</asrwt>
<pdfrwt beam="1">  1        2 0.21011136E+00 0.17721655E+04</pdfrwt>
<pdfrwt beam="2">  1       -2 0.55089945E+00 0.17721655E+04</pdfrwt>
<totfact> 0.11447192E-02</totfact>
</mgrwt>
</event>
<event>
 4    1  0.2502834E-007  0.8361746E+03  0.7818608E-02  0.9637436E-01
          2   -1    0    0  501    0  0.00000000000E+00  0.00000000000E+00  0.27534982076E+04  0.27534982076E+04  0.25500000000E-02 0. -1.
         -2   -1    0    0    0  501 -0.00000000000E+00 -0.00000000000E+00 -0.51085557997E+03  0.51085557997E+03  0.25500000000E-02 0.  1.
    8880023    1    1    2    0    0 -0.51473055376E+03  0.20741779081E+02 -0.11697750525E+03  0.84431730254E+03  0.65864270000E+03 0.  0.
    8880022    1    1    2    0    0  0.51473055376E+03 -0.20741779081E+02  0.23596201329E+04  0.24200364851E+04  0.15294330000E+03 0.  0.
<mgrwt>
<rscale>  0 0.74867207E+03</rscale>
<asrwt>0</asrwt>
<pdfrwt beam="1">  1        2 0.42361510E+00 0.83617461E+03</pdfrwt>
<pdfrwt beam="2">  1       -2 0.78593168E-01 0.83617461E+03</pdfrwt>
<totfact> 0.36967769E+00</totfact>
</mgrwt>
</event>
<event>
 4    1  0.2502834E-007  0.9883786E+03  0.7818608E-02  0.9396922E-01
          2   -1    0    0  501    0  0.00000000000E+00  0.00000000000E+00  0.92887618313E+03  0.92887618313E+03  0.25500000000E-02 0. -1.
         -2   -1    0    0    0  501 -0.00000000000E+00 -0.00000000000E+00 -0.11389660569E+04  0.11389660569E+04  0.25500000000E-02 0.  1.
    8880023    1    1    2    0    0 -0.65255111470E+03 -0.34243119920E+03  0.43186524262E+03  0.10786101601E+04  0.65864270000E+03 0. -1.
    8880022    1    1    2    0    0  0.65255111470E+03  0.34243119920E+03 -0.64195511643E+03  0.98923207995E+03  0.15294330000E+03 0.  0.
<mgrwt>
<rscale>  0 0.92329393E+03</rscale>
<asrwt>0</asrwt>
<pdfrwt beam="1">  1        2 0.14290403E+00 0.98837862E+03</pdfrwt>
<pdfrwt beam="2">  1       -2 0.17522555E+00 0.98837862E+03</pdfrwt>
<totfact> 0.54482083E+00</totfact>
</mgrwt>
</event>
<event>
 4    1  0.2502834E-007  0.8563639E+03  0.7818608E-02  0.9600064E-01
          2   -1    0    0  501    0  0.00000000000E+00  0.00000000000E+00  0.29107493179E+04  0.29107493179E+04  0.25500000000E-02 0. -1.
         -2   -1    0    0    0  501 -0.00000000000E+00 -0.00000000000E+00 -0.34958776565E+03  0.34958776566E+03  0.25500000000E-02 0.  1.
    8880023    1    1    2    0    0  0.38186510224E+03 -0.39208148761E+03  0.26726990948E+03  0.89710214581E+03  0.65864270000E+03 0.  1.
    8880022    1    1    2    0    0 -0.38186510224E+03  0.39208148761E+03  0.22938916427E+04  0.23632349377E+04  0.15294330000E+03 0.  0.
<mgrwt>
<rscale>  0 0.77291914E+03</rscale>
<asrwt>0</asrwt>
<pdfrwt beam="1">  1        2 0.44780759E+00 0.85636386E+03</pdfrwt>
<pdfrwt beam="2">  1       -2 0.53782733E-01 0.85636386E+03</pdfrwt>
<totfact> 0.67196550E+00</totfact>
</mgrwt>
</event>
<event>
 4    1  0.2502834E-007  0.9985025E+03  0.7818608E-02  0.9383520E-01
         -2   -1    0    0    0  501 -0.00000000000E+00  0.00000000000E+00  0.55918450535E+03  0.55918450535E+03  0.25500000000E-02 0.  1.
          2   -1    0    0  501    0  0.00000000000E+00 -0.00000000000E+00 -0.25750593955E+04  0.25750593955E+04  0.25500000000E-02 0. -1.
    8880023    1    1    2    0    0  0.27804119516E+03 -0.69705817484E+03 -0.21370645242E+04  0.23588242818E+04  0.65864270000E+03 0. -1.
    8880022    1    1    2    0    0 -0.27804119516E+03  0.69705817484E+03  0.12118963402E+03  0.77541961913E+03  0.15294330000E+03 0.  0.
<mgrwt>
<rscale>  0 0.93444462E+03</rscale>
<asrwt>0</asrwt>
<pdfrwt beam="1">  1        2 0.39616298E+00 0.99850248E+03</pdfrwt>
<pdfrwt beam="2">  1       -2 0.86028387E-01 0.99850248E+03</pdfrwt>
<totfact> 0.37319913E+00</totfact>
</mgrwt>
</event>
<event>
 4    1  0.2502834E-007  0.6978889E+03  0.7818608E-02  0.1000607E+00
         -2   -1    0    0    0  501 -0.00000000000E+00  0.00000000000E+00  0.41398888022E+03  0.41398888022E+03  0.25500000000E-02 0.  1.
          2   -1    0    0  501    0  0.00000000000E+00 -0.00000000000E+00 -0.18734653799E+04  0.18734653799E+04  0.25500000000E-02 0. -1.
    8880023    1    1    2    0    0  0.10716182097E+03 -0.20434054804E+03  0.98740259952E+02  0.70483938642E+03  0.65864270000E+03 0.  1.
    8880022    1    1    2    0    0 -0.10716182097E+03  0.20434054804E+03 -0.15582167596E+04  0.15826148737E+04  0.15294330000E+03 0.  0.
<mgrwt>
<rscale>  0 0.55384703E+03</rscale>
<asrwt>0</asrwt>
<pdfrwt beam="1">  1        2 0.28822544E+00 0.69788890E+03</pdfrwt>
<pdfrwt beam="2">  1       -2 0.63690598E-01 0.69788890E+03</pdfrwt>
<totfact> 0.18616120E+01</totfact>
</mgrwt>
</event>
<event>
 4    1  0.2502834E-007  0.1220664E+04  0.7818608E-02  0.9137293E-01
          2   -1    0    0  501    0  0.00000000000E+00  0.00000000000E+00  0.17015543112E+04  0.17015543112E+04  0.25500000000E-02 0. -1.
         -2   -1    0    0    0  501 -0.00000000000E+00 -0.00000000000E+00 -0.10863072482E+04  0.10863072482E+04  0.25500000000E-02 0.  1.
    8880023    1    1    2    0    0 -0.76748818746E+03 -0.68349967474E+03 -0.44889035919E+03  0.13005855159E+04  0.65864270000E+03 0.  0.
    8880022    1    1    2    0    0  0.76748818746E+03  0.68349967474E+03  0.10641374222E+04  0.14872760435E+04  0.15294330000E+03 0.  0.
<mgrwt>
<rscale>  0 0.11724788E+04</rscale>
<asrwt>0</asrwt>
<pdfrwt beam="1">  1        2 0.26177759E+00 0.12206638E+04</pdfrwt>
<pdfrwt beam="2">  1       -2 0.16712419E+00 0.12206638E+04</pdfrwt>
<totfact> 0.21192950E+00</totfact>
</mgrwt>
</event>
<event>
 4    1  0.2502834E-007  0.1527226E+04  0.7818608E-02  0.8890646E-01
         -2   -1    0    0    0  501 -0.00000000000E+00  0.00000000000E+00  0.22023074297E+04  0.22023074297E+04  0.25500000000E-02 0.  1.
          2   -1    0    0  501    0  0.00000000000E+00 -0.00000000000E+00 -0.11325926911E+04  0.11325926911E+04  0.25500000000E-02 0. -1.
    8880023    1    1    2    0    0  0.13308184263E+04  0.35711475536E+03  0.12002219159E+04  0.19424086815E+04  0.65864270000E+03 0.  0.
    8880022    1    1    2    0    0 -0.13308184263E+04 -0.35711475536E+03 -0.13050717726E+03  0.13924914394E+04  0.15294330000E+03 0.  0.
<mgrwt>
<rscale>  0 0.14907219E+04</rscale>
<asrwt>0</asrwt>
<pdfrwt beam="1">  1        2 0.17424503E+00 0.15272259E+04</pdfrwt>
<pdfrwt beam="2">  1       -2 0.33881653E+00 0.15272259E+04</pdfrwt>
<totfact> 0.35917478E-01</totfact>
</mgrwt>
</event>
<event>
 4    1  0.2502834E-007  0.7700557E+03  0.7818608E-02  0.9779737E-01
          2   -1    0    0  501    0  0.00000000000E+00  0.00000000000E+00  0.21936390056E+04  0.21936390056E+04  0.25500000000E-02 0. -1.
         -2   -1    0    0    0  501 -0.00000000000E+00 -0.00000000000E+00 -0.19289114724E+03  0.19289114725E+03  0.25500000000E-02 0.  1.
    8880023    1    1    2    0    0  0.32209342601E+03 -0.23543857681E+03  0.79272517915E+03  0.11051691791E+04  0.65864270000E+03 0.  1.
    8880022    1    1    2    0    0 -0.32209342601E+03  0.23543857681E+03  0.12080226793E+04  0.12813609738E+04  0.15294330000E+03 0.  0.
<mgrwt>
<rscale>  0 0.66461389E+03</rscale>
<asrwt>0</asrwt>
<pdfrwt beam="1">  1        2 0.33748290E+00 0.77005565E+03</pdfrwt>
<pdfrwt beam="2">  1       -2 0.29675563E-01 0.77005565E+03</pdfrwt>
<totfact> 0.56132729E+01</totfact>
</mgrwt>
</event>
<event>
 4    1  0.2502834E-007  0.7724454E+03  0.7818608E-02  0.9773892E-01
         -2   -1    0    0    0  501 -0.00000000000E+00  0.00000000000E+00  0.52420585386E+03  0.52420585386E+03  0.25500000000E-02 0.  1.
          2   -1    0    0  501    0  0.00000000000E+00 -0.00000000000E+00 -0.23333304871E+04  0.23333304871E+04  0.25500000000E-02 0. -1.
    8880023    1    1    2    0    0 -0.39091873708E+03 -0.10022086873E+03  0.20379104803E+03  0.79887588463E+03  0.65864270000E+03 0.  0.
    8880022    1    1    2    0    0  0.39091873708E+03  0.10022086873E+03 -0.20129156813E+04  0.20586604563E+04  0.15294330000E+03 0.  0.
<mgrwt>
<rscale>  0 0.66782681E+03</rscale>
<asrwt>0</asrwt>
<pdfrwt beam="1">  1        2 0.35897392E+00 0.77244539E+03</pdfrwt>
<pdfrwt beam="2">  1       -2 0.80647056E-01 0.77244539E+03</pdfrwt>
<totfact> 0.61316372E+00</totfact>
</mgrwt>
</event>
<event>
 4    1  0.2502834E-007  0.1198742E+04  0.7818608E-02  0.9158346E-01
          2   -1    0    0  501    0  0.00000000000E+00  0.00000000000E+00  0.19497689911E+04  0.19497689911E+04  0.25500000000E-02 0. -1.
         -2   -1    0    0    0  501 -0.00000000000E+00 -0.00000000000E+00 -0.73704140470E+03  0.73704140471E+03  0.25500000000E-02 0.  1.
    8880023    1    1    2    0    0 -0.73740017542E+03  0.67780005092E+03  0.13292608281E+03  0.12060893323E+04  0.65864270000E+03 0.  1.
    8880022    1    1    2    0    0  0.73740017542E+03 -0.67780005092E+03  0.10798015035E+04  0.14807210635E+04  0.15294330000E+03 0.  0.
<mgrwt>
<rscale>  0 0.11493902E+04</rscale>
<asrwt>0</asrwt>
<pdfrwt beam="1">  1        2 0.29996446E+00 0.11987419E+04</pdfrwt>
<pdfrwt beam="2">  1       -2 0.11339099E+00 0.11987419E+04</pdfrwt>
<totfact> 0.42482633E+00</totfact>
</mgrwt>
</event>
<event>
 4    1  0.2502834E-007  0.8268162E+03  0.7818608E-02  0.9655559E-01
          2   -1    0    0  501    0  0.00000000000E+00  0.00000000000E+00  0.19060501070E+04  0.19060501070E+04  0.25500000000E-02 0. -1.
         -2   -1    0    0    0  501 -0.00000000000E+00 -0.00000000000E+00 -0.49067223776E+03  0.49067223777E+03  0.25500000000E-02 0.  1.
    8880023    1    1    2    0    0  0.60151949522E+02  0.49618194545E+03 -0.62460883984E+02  0.82917208607E+03  0.65864270000E+03 0.  0.
    8880022    1    1    2    0    0 -0.60151949522E+02 -0.49618194545E+03  0.14778387532E+04  0.15675502587E+04  0.15294330000E+03 0.  0.
<mgrwt>
<rscale>  0 0.73725561E+03</rscale>
<asrwt>0</asrwt>
<pdfrwt beam="1">  1        2 0.29323847E+00 0.82681617E+03</pdfrwt>
<pdfrwt beam="2">  1       -2 0.75488038E-01 0.82681617E+03</pdfrwt>
<totfact> 0.12121461E+01</totfact>
</mgrwt>
</event>
<event>
 4    1  0.2981197E-007  0.8355795E+03  0.7818608E-02  0.9638572E-01
         -2   -1    0    0    0  501 -0.00000000000E+00  0.00000000000E+00  0.13313968968E+04  0.13313968968E+04  0.25500000000E-02 0.  1.
          2   -1    0    0  501    0  0.00000000000E+00 -0.00000000000E+00 -0.26445786757E+04  0.26445786757E+04  0.25500000000E-02 0. -1.
    8880023    1    1    2    0    0  0.47944335838E+03 -0.18578759754E+03  0.11687554302E+04  0.14367262882E+04  0.65864270000E+03 0.  0.
    8880022    1    1    2    0    0 -0.47944335838E+03  0.18578759754E+03 -0.24819372091E+04  0.25392492844E+04  0.15294330000E+03 0.  0.
<mgrwt>
<rscale>  0 0.74794973E+03</rscale>
<asrwt>0</asrwt>
<pdfrwt beam="1">  1        2 0.40685826E+00 0.83557954E+03</pdfrwt>
<pdfrwt beam="2">  1       -2 0.20483029E+00 0.83557954E+03</pdfrwt>
<totfact> 0.36955501E-01</totfact>
</mgrwt>
</event>
<event>
 4    1  0.2502834E-007  0.6720193E+03  0.7818608E-02  0.1014255E+00
          2   -1    0    0  501    0  0.00000000000E+00  0.00000000000E+00  0.34780336154E+04  0.34780336154E+04  0.25500000000E-02 0. -1.
         -2   -1    0    0    0  501 -0.00000000000E+00 -0.00000000000E+00 -0.46469456318E+03  0.46469456319E+03  0.25500000000E-02 0.  1.
    8880023    1    1    2    0    0 -0.12404251975E+03 -0.49124548896E+02 -0.21687241857E+03  0.70614702450E+03  0.65864270000E+03 0.  1.
    8880022    1    1    2    0    0  0.12404251975E+03  0.49124548896E+02  0.32302114708E+04  0.32365811541E+04  0.15294330000E+03 0.  0.
<mgrwt>
<rscale>  0 0.49818101E+03</rscale>
<asrwt>0</asrwt>
<pdfrwt beam="1">  1        2 0.53508209E+00 0.67201933E+03</pdfrwt>
<pdfrwt beam="2">  1       -2 0.71491472E-01 0.67201933E+03</pdfrwt>
<totfact> 0.16557671E+00</totfact>
</mgrwt>
</event>
<event>
 4    1  0.2502834E-007  0.1157268E+04  0.7818608E-02  0.9199823E-01
         -2   -1    0    0    0  501 -0.00000000000E+00  0.00000000000E+00  0.17381788975E+04  0.17381788975E+04  0.25500000000E-02 0.  1.
          2   -1    0    0  501    0  0.00000000000E+00 -0.00000000000E+00 -0.11986935883E+04  0.11986935883E+04  0.25500000000E-02 0. -1.
    8880023    1    1    2    0    0 -0.55680509113E+03  0.77163983565E+03  0.12769426555E+04  0.17233260565E+04  0.65864270000E+03 0.  0.
    8880022    1    1    2    0    0  0.55680509113E+03 -0.77163983565E+03 -0.73745734627E+03  0.12135464293E+04  0.15294330000E+03 0.  0.
<mgrwt>
<rscale>  0 0.11055258E+04</rscale>
<asrwt>0</asrwt>
<pdfrwt beam="1">  1        2 0.18441440E+00 0.11572684E+04</pdfrwt>
<pdfrwt beam="2">  1       -2 0.26741214E+00 0.11572684E+04</pdfrwt>
<totfact> 0.93359455E-01</totfact>
</mgrwt>
</event>
<event>
 4    1  0.2502834E-007  0.1262983E+04  0.7818608E-02  0.9098205E-01
          2   -1    0    0  501    0  0.00000000000E+00  0.00000000000E+00  0.14041514805E+04  0.14041514805E+04  0.25500000000E-02 0. -1.
         -2   -1    0    0    0  501 -0.00000000000E+00 -0.00000000000E+00 -0.18917620449E+04  0.18917620449E+04  0.25500000000E-02 0.  1.
    8880023    1    1    2    0    0  0.52990504219E+03 -0.93835790248E+03 -0.13928696088E+04  0.18802156419E+04  0.65864270000E+03 0.  0.
    8880022    1    1    2    0    0 -0.52990504219E+03  0.93835790248E+03  0.90525904432E+03  0.14156978835E+04  0.15294330000E+03 0.  0.
<mgrwt>
<rscale>  0 0.12168846E+04</rscale>
<asrwt>0</asrwt>
<pdfrwt beam="1">  1        2 0.21602330E+00 0.12629826E+04</pdfrwt>
<pdfrwt beam="2">  1       -2 0.29104032E+00 0.12629826E+04</pdfrwt>
<totfact> 0.50188362E-01</totfact>
</mgrwt>
</event>
<event>
 4    1  0.2502834E-007  0.7926703E+03  0.7818608E-02  0.9726874E-01
         -2   -1    0    0    0  501 -0.00000000000E+00  0.00000000000E+00  0.11684881723E+04  0.11684881723E+04  0.25500000000E-02 0.  1.
          2   -1    0    0  501    0  0.00000000000E+00 -0.00000000000E+00 -0.41306297708E+03  0.41306297709E+03  0.25500000000E-02 0. -1.
    8880023    1    1    2    0    0  0.17177940202E+03  0.40621164525E+03  0.78266292203E+03  0.11139513093E+04  0.65864270000E+03 0.  1.
    8880022    1    1    2    0    0 -0.17177940202E+03 -0.40621164525E+03 -0.27237726799E+02  0.46759984011E+03  0.15294330000E+03 0.  0.
<mgrwt>
<rscale>  0 0.69439012E+03</rscale>
<asrwt>0</asrwt>
<pdfrwt beam="1">  1        2 0.63548152E-01 0.79267034E+03</pdfrwt>
<pdfrwt beam="2">  1       -2 0.17976741E+00 0.79267034E+03</pdfrwt>
<totfact> 0.14122000E+01</totfact>
</mgrwt>
</event>
<event>
 4    1  0.2502834E-007  0.1510263E+04  0.7818608E-02  0.8902423E-01
          2   -1    0    0  501    0  0.00000000000E+00  0.00000000000E+00  0.41167926068E+04  0.41167926068E+04  0.25500000000E-02 0. -1.
         -2   -1    0    0    0  501 -0.00000000000E+00 -0.00000000000E+00 -0.72164589179E+03  0.72164589180E+03  0.25500000000E-02 0.  1.
    8880023    1    1    2    0    0  0.95184970018E+02  0.13557370500E+04  0.42560292090E+03  0.15690860970E+04  0.65864270000E+03 0.  0.
    8880022    1    1    2    0    0 -0.95184970018E+02 -0.13557370500E+04  0.29695437941E+04  0.32693524015E+04  0.15294330000E+03 0.  0.
<mgrwt>
<rscale>  0 0.14732734E+04</rscale>
<asrwt>0</asrwt>
<pdfrwt beam="1">  1        2 0.63335270E+00 0.15102627E+04</pdfrwt>
<pdfrwt beam="2">  1       -2 0.11102245E+00 0.15102627E+04</pdfrwt>
<totfact> 0.17047022E-01</totfact>
</mgrwt>
</event>
<event>
 4    1  0.2502834E-007  0.1050487E+04  0.7818608E-02  0.9318297E-01
          2   -1    0    0  501    0  0.00000000000E+00  0.00000000000E+00  0.93702798328E+03  0.93702798328E+03  0.25500000000E-02 0. -1.
         -2   -1    0    0    0  501 -0.00000000000E+00 -0.00000000000E+00 -0.12687440261E+04  0.12687440261E+04  0.25500000000E-02 0.  1.
    8880023    1    1    2    0    0  0.59778209007E+03  0.55889916058E+03 -0.73363352715E+03  0.12813040456E+04  0.65864270000E+03 0.  1.
    8880022    1    1    2    0    0 -0.59778209007E+03 -0.55889916058E+03  0.40191748428E+03  0.92446796380E+03  0.15294330000E+03 0.  0.
<mgrwt>
<rscale>  0 0.99115736E+03</rscale>
<asrwt>0</asrwt>
<pdfrwt beam="1">  1        2 0.14415815E+00 0.10504865E+04</pdfrwt>
<pdfrwt beam="2">  1       -2 0.19519139E+00 0.10504865E+04</pdfrwt>
<totfact> 0.39107889E+00</totfact>
</mgrwt>
</event>
<event>
 4    1  0.2502834E-007  0.1692894E+04  0.7818608E-02  0.8784218E-01
          2   -1    0    0  501    0  0.00000000000E+00  0.00000000000E+00  0.16875137056E+04  0.16875137056E+04  0.25500000000E-02 0. -1.
         -2   -1    0    0    0  501 -0.00000000000E+00 -0.00000000000E+00 -0.20194656356E+04  0.20194656356E+04  0.25500000000E-02 0.  1.
    8880023    1    1    2    0    0 -0.69475439482E+02  0.15579646026E+04  0.69870992868E+03  0.18314164765E+04  0.65864270000E+03 0.  0.
    8880022    1    1    2    0    0  0.69475439482E+02 -0.15579646026E+04 -0.10306618586E+04  0.18755628647E+04  0.15294330000E+03 0.  0.
<mgrwt>
<rscale>  0 0.16605014E+04</rscale>
<asrwt>0</asrwt>
<pdfrwt beam="1">  1        2 0.25961749E+00 0.16928942E+04</pdfrwt>
<pdfrwt beam="2">  1       -2 0.31068702E+00 0.16928942E+04</pdfrwt>
<totfact> 0.25067369E-01</totfact>
</mgrwt>
</event>
<event>
 4    1  0.2502834E-007  0.1072578E+04  0.7818608E-02  0.9292220E-01
         -2   -1    0    0    0  501 -0.00000000000E+00  0.00000000000E+00  0.94263383900E+03  0.94263383900E+03  0.25500000000E-02 0.  1.
          2   -1    0    0  501    0  0.00000000000E+00 -0.00000000000E+00 -0.10030483416E+04  0.10030483416E+04  0.25500000000E-02 0. -1.
    8880023    1    1    2    0    0 -0.73095824252E+03 -0.42698083757E+03  0.73469279818E+02  0.10750909400E+04  0.65864270000E+03 0.  0.
    8880022    1    1    2    0    0  0.73095824252E+03  0.42698083757E+03 -0.13388378239E+03  0.87059124057E+03  0.15294330000E+03 0.  0.
<mgrwt>
<rscale>  0 0.10150229E+04</rscale>
<asrwt>0</asrwt>
<pdfrwt beam="1">  1        2 0.15431513E+00 0.10725776E+04</pdfrwt>
<pdfrwt beam="2">  1       -2 0.14502059E+00 0.10725776E+04</pdfrwt>
<totfact> 0.80905970E+00</totfact>
</mgrwt>
</event>
<event>
 4    1  0.2502834E-007  0.9988731E+03  0.7818608E-02  0.9383033E-01
         -2   -1    0    0    0  501 -0.00000000000E+00  0.00000000000E+00  0.13812273159E+04  0.13812273160E+04  0.25500000000E-02 0.  1.
          2   -1    0    0  501    0  0.00000000000E+00 -0.00000000000E+00 -0.24296289493E+04  0.24296289493E+04  0.25500000000E-02 0. -1.
    8880023    1    1    2    0    0  0.50109517171E+03 -0.55932181023E+03  0.11260903910E+04  0.15052664328E+04  0.65864270000E+03 0.  1.
    8880022    1    1    2    0    0 -0.50109517171E+03  0.55932181023E+03 -0.21744920244E+04  0.23055898325E+04  0.15294330000E+03 0.  0.
<mgrwt>
<rscale>  0 0.93485210E+03</rscale>
<asrwt>0</asrwt>
<pdfrwt beam="1">  1        2 0.37378907E+00 0.99887310E+03</pdfrwt>
<pdfrwt beam="2">  1       -2 0.21249651E+00 0.99887310E+03</pdfrwt>
<totfact> 0.42456416E-01</totfact>
</mgrwt>
</event>
<event>
 4    1  0.2502834E-007  0.9154617E+03  0.7818608E-02  0.9501653E-01
          2   -1    0    0  501    0  0.00000000000E+00  0.00000000000E+00  0.70145334259E+03  0.70145334259E+03  0.25500000000E-02 0. -1.
         -2   -1    0    0    0  501 -0.00000000000E+00 -0.00000000000E+00 -0.14267290208E+04  0.14267290208E+04  0.25500000000E-02 0.  1.
    8880023    1    1    2    0    0  0.33160057713E+03  0.54249522028E+03 -0.10541647190E+04  0.13961853272E+04  0.65864270000E+03 0.  1.
    8880022    1    1    2    0    0 -0.33160057713E+03 -0.54249522028E+03  0.32888904083E+03  0.73199703618E+03  0.15294330000E+03 0.  0.
<mgrwt>
<rscale>  0 0.84162073E+03</rscale>
<asrwt>0</asrwt>
<pdfrwt beam="1">  1        2 0.10791590E+00 0.91546175E+03</pdfrwt>
<pdfrwt beam="2">  1       -2 0.21949677E+00 0.91546175E+03</pdfrwt>
<totfact> 0.40843545E+00</totfact>
</mgrwt>
</event>
<event>
 4    1  0.2502834E-007  0.8539193E+03  0.7818608E-02  0.9604473E-01
         -2   -1    0    0    0  501 -0.00000000000E+00  0.00000000000E+00  0.61157332267E+03  0.61157332267E+03  0.25500000000E-02 0.  1.
          2   -1    0    0  501    0  0.00000000000E+00 -0.00000000000E+00 -0.85677368323E+03  0.85677368323E+03  0.25500000000E-02 0. -1.
    8880023    1    1    2    0    0 -0.38776452223E+03  0.38079731602E+03 -0.28035611226E+01  0.85392387647E+03  0.65864270000E+03 0.  0.
    8880022    1    1    2    0    0  0.38776452223E+03 -0.38079731602E+03 -0.24239679943E+03  0.61442312943E+03  0.15294330000E+03 0.  0.
<mgrwt>
<rscale>  0 0.77000850E+03</rscale>
<asrwt>0</asrwt>
<pdfrwt beam="1">  1        2 0.13181134E+00 0.85391927E+03</pdfrwt>
<pdfrwt beam="2">  1       -2 0.94088204E-01 0.85391927E+03</pdfrwt>
<totfact> 0.30098280E+01</totfact>
</mgrwt>
</event>
<event>
 4    1  0.2502834E-007  0.7681513E+03  0.7818608E-02  0.9784444E-01
          2   -1    0    0  501    0  0.00000000000E+00  0.00000000000E+00  0.23551189301E+04  0.23551189301E+04  0.25500000000E-02 0. -1.
         -2   -1    0    0    0  501 -0.00000000000E+00 -0.00000000000E+00 -0.16653533804E+03  0.16653533806E+03  0.25500000000E-02 0.  1.
    8880023    1    1    2    0    0  0.28696380901E+03 -0.27184193120E+03  0.10082224711E+04  0.12675050377E+04  0.65864270000E+03 0. -1.
    8880022    1    1    2    0    0 -0.28696380901E+03  0.27184193120E+03  0.11803611210E+04  0.12541492304E+04  0.15294330000E+03 0.  0.
<mgrwt>
<rscale>  0 0.66204093E+03</rscale>
<asrwt>0</asrwt>
<pdfrwt beam="1">  1        2 0.36232599E+00 0.76815133E+03</pdfrwt>
<pdfrwt beam="2">  1       -2 0.25620821E-01 0.76815133E+03</pdfrwt>
<totfact> 0.59790461E+01</totfact>
</mgrwt>
</event>
<event>
 4    1  0.2502834E-007  0.8336660E+03  0.7818608E-02  0.9642241E-01
          2   -1    0    0  501    0  0.00000000000E+00  0.00000000000E+00  0.13235245237E+04  0.13235245237E+04  0.25500000000E-02 0. -1.
         -2   -1    0    0    0  501 -0.00000000000E+00 -0.00000000000E+00 -0.67058249919E+03  0.67058249919E+03  0.25500000000E-02 0.  1.
    8880023    1    1    2    0    0 -0.57845127117E+02  0.50778212810E+03 -0.31312987459E+03  0.89053313974E+03  0.65864270000E+03 0.  1.
    8880022    1    1    2    0    0  0.57845127117E+02 -0.50778212810E+03  0.96607189906E+03  0.11035738831E+04  0.15294330000E+03 0.  0.
<mgrwt>
<rscale>  0 0.74562366E+03</rscale>
<asrwt>0</asrwt>
<pdfrwt beam="1">  1        2 0.20361915E+00 0.83366597E+03</pdfrwt>
<pdfrwt beam="2">  1       -2 0.10316654E+00 0.83366597E+03</pdfrwt>
<totfact> 0.12421881E+01</totfact>
</mgrwt>
</event>
<event>
 4    1  0.2502834E-007  0.7829189E+03  0.7818608E-02  0.9749025E-01
         -2   -1    0    0    0  501 -0.00000000000E+00  0.00000000000E+00  0.60490089757E+03  0.60490089757E+03  0.25500000000E-02 0.  1.
          2   -1    0    0  501    0  0.00000000000E+00 -0.00000000000E+00 -0.19442619848E+04  0.19442619848E+04  0.25500000000E-02 0. -1.
    8880023    1    1    2    0    0  0.98615572980E+02 -0.41161473455E+03  0.30808184537E+03  0.84135387955E+03  0.65864270000E+03 0.  1.
    8880022    1    1    2    0    0 -0.98615572980E+02  0.41161473455E+03 -0.16474429326E+04  0.17078090029E+04  0.15294330000E+03 0.  0.
<mgrwt>
<rscale>  0 0.68171416E+03</rscale>
<asrwt>0</asrwt>
<pdfrwt beam="1">  1        2 0.29911722E+00 0.78291885E+03</pdfrwt>
<pdfrwt beam="2">  1       -2 0.93061678E-01 0.78291885E+03</pdfrwt>
<totfact> 0.72222577E+00</totfact>
</mgrwt>
</event>
<event>
 4    1  0.2502834E-007  0.6936167E+03  0.7818608E-02  0.1002479E+00
         -2   -1    0    0    0  501 -0.00000000000E+00  0.00000000000E+00  0.12603745913E+04  0.12603745913E+04  0.25500000000E-02 0.  1.
          2   -1    0    0  501    0  0.00000000000E+00 -0.00000000000E+00 -0.17082238089E+04  0.17082238089E+04  0.25500000000E-02 0. -1.
    8880023    1    1    2    0    0 -0.20174629151E+02 -0.21653369027E+03  0.11531458085E+04  0.13456780137E+04  0.65864270000E+03 0.  1.
    8880022    1    1    2    0    0  0.20174629151E+02  0.21653369027E+03 -0.16009950261E+04  0.16229203866E+04  0.15294330000E+03 0.  0.
<mgrwt>
<rscale>  0 0.54576531E+03</rscale>
<asrwt>0</asrwt>
<pdfrwt beam="1">  1        2 0.26280366E+00 0.69361665E+03</pdfrwt>
<pdfrwt beam="2">  1       -2 0.19390378E+00 0.69361665E+03</pdfrwt>
<totfact> 0.14833546E+00</totfact>
</mgrwt>
</event>
<event>
 4    1  0.2502834E-007  0.7498804E+03  0.7818608E-02  0.9832048E-01
          2   -1    0    0  501    0  0.00000000000E+00  0.00000000000E+00  0.12252659400E+04  0.12252659400E+04  0.25500000000E-02 0. -1.
         -2   -1    0    0    0  501 -0.00000000000E+00 -0.00000000000E+00 -0.27354598791E+03  0.27354598793E+03  0.25500000000E-02 0.  1.
    8880023    1    1    2    0    0  0.35848258815E+03 -0.81484443779E+00  0.49559588359E+03  0.89885255525E+03  0.65864270000E+03 0.  1.
    8880022    1    1    2    0    0 -0.35848258815E+03  0.81484443779E+00  0.45612406846E+03  0.59995937264E+03  0.15294330000E+03 0.  1.
<mgrwt>
<rscale>  0 0.63670678E+03</rscale>
<asrwt>0</asrwt>
<pdfrwt beam="1">  1        2 0.18850245E+00 0.74988041E+03</pdfrwt>
<pdfrwt beam="2">  1       -2 0.42083998E-01 0.74988041E+03</pdfrwt>
<totfact> 0.99408039E+01</totfact>
</mgrwt>
</event>
<event>
 4    1  0.2502834E-007  0.6858382E+03  0.7818608E-02  0.1006197E+00
         -2   -1    0    0    0  501 -0.00000000000E+00  0.00000000000E+00  0.10541642410E+03  0.10541642413E+03  0.25500000000E-02 0.  1.
          2   -1    0    0  501    0  0.00000000000E+00 -0.00000000000E+00 -0.22709228627E+04  0.22709228627E+04  0.25500000000E-02 0. -1.
    8880023    1    1    2    0    0 -0.98738783400E+02  0.16375145202E+03 -0.12191737435E+04  0.13988419169E+04  0.65864270000E+03 0.  1.
    8880022    1    1    2    0    0  0.98738783400E+02 -0.16375145202E+03 -0.94633269514E+03  0.97749736997E+03  0.15294330000E+03 0. -1.
<mgrwt>
<rscale>  0 0.53014532E+03</rscale>
<asrwt>0</asrwt>
<pdfrwt beam="1">  1        2 0.34937271E+00 0.68583824E+03</pdfrwt>
<pdfrwt beam="2">  1       -2 0.16217913E-01 0.68583824E+03</pdfrwt>
<totfact> 0.15000579E+02</totfact>
</mgrwt>
</event>
<event>
 4    1  0.2502834E-007  0.8351158E+03  0.7818608E-02  0.9639459E-01
         -2   -1    0    0    0  501 -0.00000000000E+00  0.00000000000E+00  0.38953781836E+03  0.38953781837E+03  0.25500000000E-02 0.  1.
          2   -1    0    0  501    0  0.00000000000E+00 -0.00000000000E+00 -0.12605530127E+04  0.12605530127E+04  0.25500000000E-02 0. -1.
    8880023    1    1    2    0    0  0.32638110824E+03  0.39633769028E+03 -0.69411355745E+03  0.10859152957E+04  0.65864270000E+03 0.  1.
    8880022    1    1    2    0    0 -0.32638110824E+03 -0.39633769028E+03 -0.17690163690E+03  0.56417553536E+03  0.15294330000E+03 0.  0.
<mgrwt>
<rscale>  0 0.74738647E+03</rscale>
<asrwt>0</asrwt>
<pdfrwt beam="1">  1        2 0.19393123E+00 0.83511580E+03</pdfrwt>
<pdfrwt beam="2">  1       -2 0.59928896E-01 0.83511580E+03</pdfrwt>
<totfact> 0.45754586E+01</totfact>
</mgrwt>
</event>
<event>
 4    1  0.2502834E-007  0.1043551E+04  0.7818608E-02  0.9326674E-01
          2   -1    0    0  501    0  0.00000000000E+00  0.00000000000E+00  0.16144055667E+04  0.16144055667E+04  0.25500000000E-02 0. -1.
         -2   -1    0    0    0  501 -0.00000000000E+00 -0.00000000000E+00 -0.19180035530E+04  0.19180035530E+04  0.25500000000E-02 0.  1.
    8880023    1    1    2    0    0  0.79641620654E+03 -0.14460221028E+03 -0.16509968362E+04  0.19531485690E+04  0.65864270000E+03 0.  0.
    8880022    1    1    2    0    0 -0.79641620654E+03  0.14460221028E+03  0.13473988499E+04  0.15792605507E+04  0.15294330000E+03 0.  0.
<mgrwt>
<rscale>  0 0.98363828E+03</rscale>
<asrwt>0</asrwt>
<pdfrwt beam="1">  1        2 0.24837009E+00 0.10435510E+04</pdfrwt>
<pdfrwt beam="2">  1       -2 0.29507747E+00 0.10435510E+04</pdfrwt>
<totfact> 0.37222979E-01</totfact>
</mgrwt>
</event>
<event>
 4    1  0.2502834E-007  0.7032173E+03  0.7818608E-02  0.9984107E-01
          2   -1    0    0  501    0  0.00000000000E+00  0.00000000000E+00  0.16100334411E+04  0.16100334411E+04  0.25500000000E-02 0. -1.
         -2   -1    0    0    0  501 -0.00000000000E+00 -0.00000000000E+00 -0.10778062394E+04  0.10778062394E+04  0.25500000000E-02 0.  1.
    8880023    1    1    2    0    0 -0.27458797048E+02  0.24484777273E+03 -0.94751056437E+03  0.11799537674E+04  0.65864270000E+03 0.  1.
    8880022    1    1    2    0    0  0.27458797048E+02 -0.24484777273E+03  0.14797377661E+04  0.15078859131E+04  0.15294330000E+03 0.  0.
<mgrwt>
<rscale>  0 0.56352624E+03</rscale>
<asrwt>0</asrwt>
<pdfrwt beam="1">  1        2 0.24769745E+00 0.70321734E+03</pdfrwt>
<pdfrwt beam="2">  1       -2 0.16581634E+00 0.70321734E+03</pdfrwt>
<totfact> 0.26115191E+00</totfact>
</mgrwt>
</event>
<event>
 4    1  0.2502834E-007  0.7146080E+03  0.7818608E-02  0.9941272E-01
          2   -1    0    0  501    0  0.00000000000E+00  0.00000000000E+00  0.10195243115E+04  0.10195243115E+04  0.25500000000E-02 0. -1.
         -2   -1    0    0    0  501 -0.00000000000E+00 -0.00000000000E+00 -0.66202598269E+03  0.66202598270E+03  0.25500000000E-02 0.  1.
    8880023    1    1    2    0    0 -0.12212858812E+03 -0.24887532922E+03 -0.42915563567E+03  0.83357008549E+03  0.65864270000E+03 0.  1.
    8880022    1    1    2    0    0  0.12212858812E+03  0.24887532922E+03  0.78665396448E+03  0.84798020872E+03  0.15294330000E+03 0.  0.
<mgrwt>
<rscale>  0 0.58302107E+03</rscale>
<asrwt>0</asrwt>
<pdfrwt beam="1">  1        2 0.15684989E+00 0.71460795E+03</pdfrwt>
<pdfrwt beam="2">  1       -2 0.10185015E+00 0.71460795E+03</pdfrwt>
<totfact> 0.19751020E+01</totfact>
</mgrwt>
</event>
<event>
 4    1  0.2502834E-007  0.1164984E+04  0.7818608E-02  0.9191935E-01
         -2   -1    0    0    0  501 -0.00000000000E+00  0.00000000000E+00  0.12906889074E+04  0.12906889074E+04  0.25500000000E-02 0.  1.
          2   -1    0    0  501    0  0.00000000000E+00 -0.00000000000E+00 -0.20418407921E+04  0.20418407921E+04  0.25500000000E-02 0. -1.
    8880023    1    1    2    0    0  0.14596334425E+03  0.94977481615E+03  0.86160415034E+03  0.14489822005E+04  0.65864270000E+03 0.  1.
    8880022    1    1    2    0    0 -0.14596334425E+03 -0.94977481615E+03 -0.16127560350E+04  0.18835474989E+04  0.15294330000E+03 0.  0.
<mgrwt>
<rscale>  0 0.11137058E+04</rscale>
<asrwt>0</asrwt>
<pdfrwt beam="1">  1        2 0.31412935E+00 0.11649840E+04</pdfrwt>
<pdfrwt beam="2">  1       -2 0.19856752E+00 0.11649840E+04</pdfrwt>
<totfact> 0.84004197E-01</totfact>
</mgrwt>
</event>
<event>
 4    1  0.2502834E-007  0.9526082E+03  0.7818608E-02  0.9446371E-01
          2   -1    0    0  501    0  0.00000000000E+00  0.00000000000E+00  0.27985108811E+04  0.27985108811E+04  0.25500000000E-02 0. -1.
         -2   -1    0    0    0  501 -0.00000000000E+00 -0.00000000000E+00 -0.11057701658E+04  0.11057701658E+04  0.25500000000E-02 0.  1.
    8880023    1    1    2    0    0  0.58388508735E+03  0.36432175268E+03 -0.84318868204E+03  0.12721751037E+04  0.65864270000E+03 0.  0.
    8880022    1    1    2    0    0 -0.58388508735E+03 -0.36432175268E+03  0.25359293974E+04  0.26321059432E+04  0.15294330000E+03 0.  0.
<mgrwt>
<rscale>  0 0.88355799E+03</rscale>
<asrwt>0</asrwt>
<pdfrwt beam="1">  1        2 0.43054012E+00 0.95260818E+03</pdfrwt>
<pdfrwt beam="2">  1       -2 0.17011849E+00 0.95260818E+03</pdfrwt>
<totfact> 0.50301865E-01</totfact>
</mgrwt>
</event>
<event>
 4    1  0.2502834E-007  0.1015800E+04  0.7818608E-02  0.9361172E-01
         -2   -1    0    0    0  501 -0.00000000000E+00  0.00000000000E+00  0.56832166488E+03  0.56832166489E+03  0.25500000000E-02 0.  1.
          2   -1    0    0  501    0  0.00000000000E+00 -0.00000000000E+00 -0.21727390235E+04  0.21727390235E+04  0.25500000000E-02 0. -1.
    8880023    1    1    2    0    0  0.18952388079E+02 -0.77309781045E+03 -0.72708206746E+02  0.10183987957E+04  0.65864270000E+03 0.  0.
    8880022    1    1    2    0    0 -0.18952388079E+02  0.77309781045E+03 -0.15317091519E+04  0.17226618927E+04  0.15294330000E+03 0.  0.
<mgrwt>
<rscale>  0 0.95341125E+03</rscale>
<asrwt>0</asrwt>
<pdfrwt beam="1">  1        2 0.33426754E+00 0.10158000E+04</pdfrwt>
<pdfrwt beam="2">  1       -2 0.87434103E-01 0.10158000E+04</pdfrwt>
<totfact> 0.60549389E+00</totfact>
</mgrwt>
</event>
<event>
 4    1  0.2502834E-007  0.7413400E+03  0.7818608E-02  0.9856061E-01
          2   -1    0    0  501    0  0.00000000000E+00  0.00000000000E+00  0.97338074611E+03  0.97338074612E+03  0.25500000000E-02 0. -1.
         -2   -1    0    0    0  501 -0.00000000000E+00 -0.00000000000E+00 -0.11790162158E+04  0.11790162158E+04  0.25500000000E-02 0.  1.
    8880023    1    1    2    0    0 -0.18130541411E+03 -0.28792895296E+03 -0.10175007912E+04  0.12589252565E+04  0.65864270000E+03 0.  1.
    8880022    1    1    2    0    0  0.18130541411E+03  0.28792895296E+03  0.81186532149E+03  0.89347170543E+03  0.15294330000E+03 0.  0.
<mgrwt>
<rscale>  0 0.62438844E+03</rscale>
<asrwt>0</asrwt>
<pdfrwt beam="1">  1        2 0.14975088E+00 0.74133996E+03</pdfrwt>
<pdfrwt beam="2">  1       -2 0.18138711E+00 0.74133996E+03</pdfrwt>
<totfact> 0.47529864E+00</totfact>
</mgrwt>
</event>
<event>
 4    1  0.2502834E-007  0.9114394E+03  0.7818608E-02  0.9507912E-01
          2   -1    0    0  501    0  0.00000000000E+00  0.00000000000E+00  0.15850698452E+04  0.15850698452E+04  0.25500000000E-02 0. -1.
         -2   -1    0    0    0  501 -0.00000000000E+00 -0.00000000000E+00 -0.81527039489E+03  0.81527039489E+03  0.25500000000E-02 0.  1.
    8880023    1    1    2    0    0 -0.33142086296E+03 -0.53579077573E+03 -0.45187236549E+03  0.10173054530E+04  0.65864270000E+03 0.  1.
    8880022    1    1    2    0    0  0.33142086296E+03  0.53579077573E+03  0.12216718158E+04  0.13830347871E+04  0.15294330000E+03 0.  0.
<mgrwt>
<rscale>  0 0.83703030E+03</rscale>
<asrwt>0</asrwt>
<pdfrwt beam="1">  1        2 0.24385689E+00 0.91143938E+03</pdfrwt>
<pdfrwt beam="2">  1       -2 0.12542622E+00 0.91143938E+03</pdfrwt>
<totfact> 0.54300571E+00</totfact>
</mgrwt>
</event>
<event>
 4    1  0.2502834E-007  0.6808914E+03  0.7818608E-02  0.1008824E+00
          2   -1    0    0  501    0  0.00000000000E+00  0.00000000000E+00  0.44474629083E+03  0.44474629083E+03  0.25500000000E-02 0. -1.
         -2   -1    0    0    0  501 -0.00000000000E+00 -0.00000000000E+00 -0.64798012331E+03  0.64798012331E+03  0.25500000000E-02 0.  1.
    8880023    1    1    2    0    0  0.74767872952E+02 -0.15560436893E+03 -0.39988354827E+03  0.78963283423E+03  0.65864270000E+03 0.  1.
    8880022    1    1    2    0    0 -0.74767872952E+02  0.15560436893E+03  0.19664971578E+03  0.30309357992E+03  0.15294330000E+03 0.  0.
<mgrwt>
<rscale>  0 0.51944774E+03</rscale>
<asrwt>0</asrwt>
<pdfrwt beam="1">  1        2 0.68422507E-01 0.68089145E+03</pdfrwt>
<pdfrwt beam="2">  1       -2 0.99689249E-01 0.68089145E+03</pdfrwt>
<totfact> 0.59579020E+01</totfact>
</mgrwt>
</event>
<event>
 4    1  0.2502834E-007  0.7013616E+03  0.7818608E-02  0.9991599E-01
          2   -1    0    0  501    0  0.00000000000E+00  0.00000000000E+00  0.92817489088E+03  0.92817489088E+03  0.25500000000E-02 0. -1.
         -2   -1    0    0    0  501 -0.00000000000E+00 -0.00000000000E+00 -0.83026260737E+03  0.83026260737E+03  0.25500000000E-02 0.  1.
    8880023    1    1    2    0    0  0.27058226437E+02  0.23951157589E+03 -0.65102317560E+03  0.95694269632E+03  0.65864270000E+03 0.  1.
    8880022    1    1    2    0    0 -0.27058226437E+02 -0.23951157589E+03  0.74893545911E+03  0.80149480194E+03  0.15294330000E+03 0.  0.
<mgrwt>
<rscale>  0 0.56020151E+03</rscale>
<asrwt>0</asrwt>
<pdfrwt beam="1">  1        2 0.14279614E+00 0.70136164E+03</pdfrwt>
<pdfrwt beam="2">  1       -2 0.12773271E+00 0.70136164E+03</pdfrwt>
<totfact> 0.13026709E+01</totfact>
</mgrwt>
</event>
<event>
 4    1  0.2502834E-007  0.1267163E+04  0.7818608E-02  0.9094448E-01
          2   -1    0    0  501    0  0.00000000000E+00  0.00000000000E+00  0.10888150734E+04  0.10888150734E+04  0.25500000000E-02 0. -1.
         -2   -1    0    0    0  501 -0.00000000000E+00 -0.00000000000E+00 -0.16261253990E+04  0.16261253990E+04  0.25500000000E-02 0.  1.
    8880023    1    1    2    0    0  0.82771355495E+01  0.10825077333E+04 -0.90978848433E+03  0.15599412797E+04  0.65864270000E+03 0.  0.
    8880022    1    1    2    0    0 -0.82771355495E+01 -0.10825077333E+04  0.37247815866E+03  0.11549991927E+04  0.15294330000E+03 0.  0.
<mgrwt>
<rscale>  0 0.12212601E+04</rscale>
<asrwt>0</asrwt>
<pdfrwt beam="1">  1        2 0.16751001E+00 0.12671629E+04</pdfrwt>
<pdfrwt beam="2">  1       -2 0.25017314E+00 0.12671629E+04</pdfrwt>
<totfact> 0.13716142E+00</totfact>
</mgrwt>
</event>
<event>
 4    1  0.2502834E-007  0.8226158E+03  0.7818608E-02  0.9663874E-01
         -2   -1    0    0    0  501 -0.00000000000E+00  0.00000000000E+00  0.59133367928E+03  0.59133367928E+03  0.25500000000E-02 0.  1.
          2   -1    0    0  501    0  0.00000000000E+00 -0.00000000000E+00 -0.11040053503E+04  0.11040053503E+04  0.25500000000E-02 0. -1.
    8880023    1    1    2    0    0 -0.38392291892E+03  0.30901426622E+03  0.16958450656E+03  0.83991412390E+03  0.65864270000E+03 0.  1.
    8880022    1    1    2    0    0  0.38392291892E+03 -0.30901426622E+03 -0.68225617757E+03  0.85542490567E+03  0.15294330000E+03 0.  0.
<mgrwt>
<rscale>  0 0.73209050E+03</rscale>
<asrwt>0</asrwt>
<pdfrwt beam="1">  1        2 0.16984698E+00 0.82261585E+03</pdfrwt>
<pdfrwt beam="2">  1       -2 0.90974412E-01 0.82261585E+03</pdfrwt>
<totfact> 0.22558725E+01</totfact>
</mgrwt>
</event>
<event>
 4    1  0.2502834E-007  0.7845995E+03  0.7818608E-02  0.9745142E-01
         -2   -1    0    0    0  501 -0.00000000000E+00  0.00000000000E+00  0.90757020089E+03  0.90757020089E+03  0.25500000000E-02 0.  1.
          2   -1    0    0  501    0  0.00000000000E+00 -0.00000000000E+00 -0.62473623624E+03  0.62473623625E+03  0.25500000000E-02 0. -1.
    8880023    1    1    2    0    0 -0.30950520597E+03 -0.29324509914E+03  0.59286172158E+03  0.98340296312E+03  0.65864270000E+03 0.  1.
    8880022    1    1    2    0    0  0.30950520597E+03  0.29324509914E+03 -0.31002775694E+03  0.54890347401E+03  0.15294330000E+03 0.  0.
<mgrwt>
<rscale>  0 0.68391530E+03</rscale>
<asrwt>0</asrwt>
<pdfrwt beam="1">  1        2 0.96113267E-01 0.78459949E+03</pdfrwt>
<pdfrwt beam="2">  1       -2 0.13962619E+00 0.78459949E+03</pdfrwt>
<totfact> 0.17258765E+01</totfact>
</mgrwt>
</event>
<event>
 4    1  0.2502834E-007  0.9030141E+03  0.7818608E-02  0.9521210E-01
          2   -1    0    0  501    0  0.00000000000E+00  0.00000000000E+00  0.16329663499E+04  0.16329663499E+04  0.25500000000E-02 0. -1.
         -2   -1    0    0    0  501 -0.00000000000E+00 -0.00000000000E+00 -0.12071991506E+04  0.12071991506E+04  0.25500000000E-02 0.  1.
    8880023    1    1    2    0    0 -0.13517653999E+02  0.61760955051E+03 -0.95834071607E+03  0.13167579194E+04  0.65864270000E+03 0.  0.
    8880022    1    1    2    0    0  0.13517653999E+02 -0.61760955051E+03  0.13841079153E+04  0.15234075811E+04  0.15294330000E+03 0.  0.
<mgrwt>
<rscale>  0 0.82737981E+03</rscale>
<asrwt>0</asrwt>
<pdfrwt beam="1">  1        2 0.25122559E+00 0.90301411E+03</pdfrwt>
<pdfrwt beam="2">  1       -2 0.18572295E+00 0.90301411E+03</pdfrwt>
<totfact> 0.17840834E+00</totfact>
</mgrwt>
</event>
<event>
 4    1  0.2502834E-007  0.1140783E+04  0.7818608E-02  0.9216952E-01
         -2   -1    0    0    0  501 -0.00000000000E+00  0.00000000000E+00  0.14260790887E+04  0.14260790887E+04  0.25500000000E-02 0.  1.
          2   -1    0    0  501    0  0.00000000000E+00 -0.00000000000E+00 -0.88128276315E+03  0.88128276316E+03  0.25500000000E-02 0. -1.
    8880023    1    1    2    0    0 -0.45975005141E+03  0.81006510841E+03  0.71766861896E+03  0.13477514765E+04  0.65864270000E+03 0.  0.
    8880022    1    1    2    0    0  0.45975005141E+03 -0.81006510841E+03 -0.17287229337E+03  0.95961037535E+03  0.15294330000E+03 0.  0.
<mgrwt>
<rscale>  0 0.10880153E+04</rscale>
<asrwt>0</asrwt>
<pdfrwt beam="1">  1        2 0.13558196E+00 0.11407830E+04</pdfrwt>
<pdfrwt beam="2">  1       -2 0.21939678E+00 0.11407830E+04</pdfrwt>
<totfact> 0.29494210E+00</totfact>
</mgrwt>
</event>
<event>
 4    1  0.2502834E-007  0.7265021E+03  0.7818608E-02  0.9901169E-01
          2   -1    0    0  501    0  0.00000000000E+00  0.00000000000E+00  0.61700480664E+03  0.61700480664E+03  0.25500000000E-02 0. -1.
         -2   -1    0    0    0  501 -0.00000000000E+00 -0.00000000000E+00 -0.62175297745E+03  0.62175297745E+03  0.25500000000E-02 0.  1.
    8880023    1    1    2    0    0 -0.17448300789E+03 -0.25209269267E+03 -0.30045257837E+03  0.78617873531E+03  0.65864270000E+03 0.  1.
    8880022    1    1    2    0    0  0.17448300789E+03  0.25209269267E+03  0.29570440756E+03  0.45257904879E+03  0.15294330000E+03 0.  0.
<mgrwt>
<rscale>  0 0.60204645E+03</rscale>
<asrwt>0</asrwt>
<pdfrwt beam="1">  1        2 0.94923816E-01 0.72650207E+03</pdfrwt>
<pdfrwt beam="2">  1       -2 0.95654304E-01 0.72650207E+03</pdfrwt>
<totfact> 0.44594562E+01</totfact>
</mgrwt>
</event>
<event>
 4    1  0.2502834E-007  0.9625562E+03  0.7818608E-02  0.9432274E-01
          2   -1    0    0  501    0  0.00000000000E+00  0.00000000000E+00  0.14263430321E+04  0.14263430321E+04  0.25500000000E-02 0. -1.
         -2   -1    0    0    0  501 -0.00000000000E+00 -0.00000000000E+00 -0.64699400255E+03  0.64699400255E+03  0.25500000000E-02 0.  1.
    8880023    1    1    2    0    0  0.52714302433E+02 -0.69994677500E+03 -0.64971447369E+02  0.96474648522E+03  0.65864270000E+03 0.  0.
    8880022    1    1    2    0    0 -0.52714302433E+02  0.69994677500E+03  0.84432047689E+03  0.11085905494E+04  0.15294330000E+03 0.  0.
<mgrwt>
<rscale>  0 0.89466590E+03</rscale>
<asrwt>0</asrwt>
<pdfrwt beam="1">  1        2 0.21943739E+00 0.96255623E+03</pdfrwt>
<pdfrwt beam="2">  1       -2 0.99537540E-01 0.96255623E+03</pdfrwt>
<totfact> 0.11658120E+01</totfact>
</mgrwt>
</event>
<event>
 4    1  0.2502834E-007  0.9227581E+03  0.7818608E-02  0.9490443E-01
          2   -1    0    0  501    0  0.00000000000E+00  0.00000000000E+00  0.16217844126E+04  0.16217844126E+04  0.25500000000E-02 0. -1.
         -2   -1    0    0    0  501 -0.00000000000E+00 -0.00000000000E+00 -0.58325128979E+03  0.58325128980E+03  0.25500000000E-02 0.  1.
    8880023    1    1    2    0    0  0.55284165902E+03  0.33472132942E+03 -0.56348940472E+02  0.92447697520E+03  0.65864270000E+03 0.  0.
    8880022    1    1    2    0    0 -0.55284165902E+03 -0.33472132942E+03  0.10948820633E+04  0.12805587272E+04  0.15294330000E+03 0.  0.
<mgrwt>
<rscale>  0 0.84992105E+03</rscale>
<asrwt>0</asrwt>
<pdfrwt beam="1">  1        2 0.24950529E+00 0.92275808E+03</pdfrwt>
<pdfrwt beam="2">  1       -2 0.89730970E-01 0.92275808E+03</pdfrwt>
<totfact> 0.11601024E+01</totfact>
</mgrwt>
</event>
<event>
 4    1  0.2502834E-007  0.9406284E+03  0.7818608E-02  0.9463728E-01
         -2   -1    0    0    0  501 -0.00000000000E+00  0.00000000000E+00  0.16429818150E+04  0.16429818150E+04  0.25500000000E-02 0.  1.
          2   -1    0    0  501    0  0.00000000000E+00 -0.00000000000E+00 -0.48403486826E+03  0.48403486826E+03  0.25500000000E-02 0. -1.
    8880023    1    1    2    0    0  0.62974166811E+03  0.23323157339E+03  0.10824470356E+04  0.14340409082E+04  0.65864270000E+03 0.  1.
    8880022    1    1    2    0    0 -0.62974166811E+03 -0.23323157339E+03  0.76499911179E+02  0.69297577505E+03  0.15294330000E+03 0.  0.
<mgrwt>
<rscale>  0 0.87011655E+03</rscale>
<asrwt>0</asrwt>
<pdfrwt beam="1">  1        2 0.74466902E-01 0.94062838E+03</pdfrwt>
<pdfrwt beam="2">  1       -2 0.25276644E+00 0.94062838E+03</pdfrwt>
<totfact> 0.39778059E+00</totfact>
</mgrwt>
</event>
<event>
 4    1  0.2502834E-007  0.6823181E+03  0.7818608E-02  0.1008042E+00
          2   -1    0    0  501    0  0.00000000000E+00  0.00000000000E+00  0.20192677628E+04  0.20192677628E+04  0.25500000000E-02 0. -1.
         -2   -1    0    0    0  501 -0.00000000000E+00 -0.00000000000E+00 -0.17744266409E+03  0.17744266411E+03  0.25500000000E-02 0.  1.
    8880023    1    1    2    0    0 -0.10630268876E+03 -0.14299496012E+03  0.52984719237E+03  0.86388429421E+03  0.65864270000E+03 0.  1.
    8880022    1    1    2    0    0  0.10630268876E+03  0.14299496012E+03  0.13119779063E+04  0.13328261327E+04  0.15294330000E+03 0.  0.
<mgrwt>
<rscale>  0 0.52260434E+03</rscale>
<asrwt>0</asrwt>
<pdfrwt beam="1">  1        2 0.31065659E+00 0.68231813E+03</pdfrwt>
<pdfrwt beam="2">  1       -2 0.27298871E-01 0.68231813E+03</pdfrwt>
<totfact> 0.82413711E+01</totfact>
</mgrwt>
</event>
<event>
 4    1  0.2502834E-007  0.7684824E+03  0.7818608E-02  0.9783623E-01
         -2   -1    0    0    0  501 -0.00000000000E+00  0.00000000000E+00  0.89839826529E+03  0.89839826530E+03  0.25500000000E-02 0.  1.
          2   -1    0    0  501    0  0.00000000000E+00 -0.00000000000E+00 -0.12628356542E+04  0.12628356542E+04  0.25500000000E-02 0. -1.
    8880023    1    1    2    0    0 -0.36118023518E+03 -0.16218451699E+03  0.68484582334E+03  0.10293585322E+04  0.65864270000E+03 0.  1.
    8880022    1    1    2    0    0  0.36118023518E+03  0.16218451699E+03 -0.10492832122E+04  0.11318753873E+04  0.15294330000E+03 0.  0.
<mgrwt>
<rscale>  0 0.66248906E+03</rscale>
<asrwt>0</asrwt>
<pdfrwt beam="1">  1        2 0.19428241E+00 0.76848239E+03</pdfrwt>
<pdfrwt beam="2">  1       -2 0.13821512E+00 0.76848239E+03</pdfrwt>
<totfact> 0.65771478E+00</totfact>
</mgrwt>
</event>
<event>
 4    1  0.2502834E-007  0.1225211E+04  0.7818608E-02  0.9132996E-01
         -2   -1    0    0    0  501 -0.00000000000E+00  0.00000000000E+00  0.15845081703E+04  0.15845081703E+04  0.25500000000E-02 0.  1.
          2   -1    0    0  501    0  0.00000000000E+00 -0.00000000000E+00 -0.90864183459E+03  0.90864183460E+03  0.25500000000E-02 0. -1.
    8880023    1    1    2    0    0  0.17739668545E+03 -0.10177734399E+04  0.76589318973E+03  0.14448996309E+04  0.65864270000E+03 0.  0.
    8880022    1    1    2    0    0 -0.17739668545E+03  0.10177734399E+04 -0.90026854039E+02  0.10482503740E+04  0.15294330000E+03 0. -1.
<mgrwt>
<rscale>  0 0.11772605E+04</rscale>
<asrwt>0</asrwt>
<pdfrwt beam="1">  1        2 0.13979105E+00 0.12252112E+04</pdfrwt>
<pdfrwt beam="2">  1       -2 0.24377049E+00 0.12252112E+04</pdfrwt>
<totfact> 0.19749786E+00</totfact>
</mgrwt>
</event>
<event>
 4    1  0.2502834E-007  0.8145935E+03  0.7818608E-02  0.9680087E-01
          2   -1    0    0  501    0  0.00000000000E+00  0.00000000000E+00  0.14113451000E+04  0.14113451000E+04  0.25500000000E-02 0. -1.
         -2   -1    0    0    0  501 -0.00000000000E+00 -0.00000000000E+00 -0.38642093882E+03  0.38642093883E+03  0.25500000000E-02 0.  1.
    8880023    1    1    2    0    0  0.82902197112E+02  0.47210130310E+03  0.21198401080E+03  0.84172432647E+03  0.65864270000E+03 0.  0.
    8880022    1    1    2    0    0 -0.82902197112E+02 -0.47210130310E+03  0.81294015037E+03  0.95604171236E+03  0.15294330000E+03 0.  0.
<mgrwt>
<rscale>  0 0.72214879E+03</rscale>
<asrwt>0</asrwt>
<pdfrwt beam="1">  1        2 0.21713001E+00 0.81459353E+03</pdfrwt>
<pdfrwt beam="2">  1       -2 0.59449377E-01 0.81459353E+03</pdfrwt>
<totfact> 0.38196173E+01</totfact>
</mgrwt>
</event>
<event>
 4    1  0.2502834E-007  0.7184925E+03  0.7818608E-02  0.9927720E-01
         -2   -1    0    0    0  501 -0.00000000000E+00  0.00000000000E+00  0.22924230415E+04  0.22924230415E+04  0.25500000000E-02 0.  1.
          2   -1    0    0  501    0  0.00000000000E+00 -0.00000000000E+00 -0.37231065781E+03  0.37231065782E+03  0.25500000000E-02 0. -1.
    8880023    1    1    2    0    0  0.24922152758E+03 -0.14251292146E+03  0.21496942183E+04  0.22665870248E+04  0.65864270000E+03 0.  0.
    8880022    1    1    2    0    0 -0.24922152758E+03  0.14251292146E+03 -0.22958183464E+03  0.39814667448E+03  0.15294330000E+03 0.  0.
<mgrwt>
<rscale>  0 0.58936460E+03</rscale>
<asrwt>0</asrwt>
<pdfrwt beam="1">  1        2 0.57278564E-01 0.71849253E+03</pdfrwt>
<pdfrwt beam="2">  1       -2 0.35268046E+00 0.71849253E+03</pdfrwt>
<totfact> 0.13664352E+00</totfact>
</mgrwt>
</event>
<event>
 4    1  0.2958048E-007  0.1538889E+04  0.7818608E-02  0.8882652E-01
         -2   -1    0    0    0  501 -0.00000000000E+00  0.00000000000E+00  0.20937649156E+04  0.20937649156E+04  0.25500000000E-02 0.  1.
          2   -1    0    0  501    0  0.00000000000E+00 -0.00000000000E+00 -0.21560190374E+04  0.21560190374E+04  0.25500000000E-02 0. -1.
    8880023    1    1    2    0    0  0.70857644897E+03  0.11967825017E+04  0.15024615127E+04  0.21507137754E+04  0.65864270000E+03 0.  0.
    8880022    1    1    2    0    0 -0.70857644897E+03 -0.11967825017E+04 -0.15647156346E+04  0.20990701776E+04  0.15294330000E+03 0.  0.
<mgrwt>
<rscale>  0 0.15027108E+04</rscale>
<asrwt>0</asrwt>
<pdfrwt beam="1">  1        2 0.33169524E+00 0.15388889E+04</pdfrwt>
<pdfrwt beam="2">  1       -2 0.32211768E+00 0.15388889E+04</pdfrwt>
<totfact> 0.11857309E-01</totfact>
</mgrwt>
</event>
<event>
 4    1  0.2502834E-007  0.9650122E+03  0.7818608E-02  0.9428836E-01
         -2   -1    0    0    0  501 -0.00000000000E+00  0.00000000000E+00  0.17246941820E+04  0.17246941820E+04  0.25500000000E-02 0.  1.
          2   -1    0    0  501    0  0.00000000000E+00 -0.00000000000E+00 -0.47994526254E+03  0.47994526255E+03  0.25500000000E-02 0. -1.
    8880023    1    1    2    0    0 -0.33338196810E+03 -0.62152619659E+03  0.11093854449E+04  0.14703688725E+04  0.65864270000E+03 0.  1.
    8880022    1    1    2    0    0  0.33338196810E+03  0.62152619659E+03  0.13536347459E+03  0.73427057204E+03  0.15294330000E+03 0.  0.
<mgrwt>
<rscale>  0 0.89740111E+03</rscale>
<asrwt>0</asrwt>
<pdfrwt beam="1">  1        2 0.73837733E-01 0.96501221E+03</pdfrwt>
<pdfrwt beam="2">  1       -2 0.26533757E+00 0.96501221E+03</pdfrwt>
<totfact> 0.33620683E+00</totfact>
</mgrwt>
</event>
<event>
 4    1  0.2502834E-007  0.9313425E+03  0.7818608E-02  0.9477482E-01
          2   -1    0    0  501    0  0.00000000000E+00  0.00000000000E+00  0.98186601850E+03  0.98186601851E+03  0.25500000000E-02 0. -1.
         -2   -1    0    0    0  501 -0.00000000000E+00 -0.00000000000E+00 -0.68529813788E+03  0.68529813789E+03  0.25500000000E-02 0.  1.
    8880023    1    1    2    0    0 -0.60521745228E+03  0.25942351721E+03  0.33578201251E+03  0.99002449061E+03  0.65864270000E+03 0. -1.
    8880022    1    1    2    0    0  0.60521745228E+03 -0.25942351721E+03 -0.39214131890E+02  0.67713966578E+03  0.15294330000E+03 0.  0.
<mgrwt>
<rscale>  0 0.85964526E+03</rscale>
<asrwt>0</asrwt>
<pdfrwt beam="1">  1        2 0.15105631E+00 0.93134254E+03</pdfrwt>
<pdfrwt beam="2">  1       -2 0.10543048E+00 0.93134254E+03</pdfrwt>
<totfact> 0.18821512E+01</totfact>
</mgrwt>
</event>
<event>
 4    1  0.2502834E-007  0.9511673E+03  0.7818608E-02  0.9448437E-01
         -2   -1    0    0    0  501 -0.00000000000E+00  0.00000000000E+00  0.23533950923E+03  0.23533950925E+03  0.25500000000E-02 0.  1.
          2   -1    0    0  501    0  0.00000000000E+00 -0.00000000000E+00 -0.29369693856E+04  0.29369693856E+04  0.25500000000E-02 0. -1.
    8880023    1    1    2    0    0  0.22038743356E+03 -0.64987561280E+03 -0.13927862825E+04  0.16865861282E+04  0.65864270000E+03 0.  1.
    8880022    1    1    2    0    0 -0.22038743356E+03  0.64987561280E+03 -0.13088435938E+04  0.14857227666E+04  0.15294330000E+03 0. -1.
<mgrwt>
<rscale>  0 0.88194511E+03</rscale>
<asrwt>0</asrwt>
<pdfrwt beam="1">  1        2 0.45184142E+00 0.95116725E+03</pdfrwt>
<pdfrwt beam="2">  1       -2 0.36206081E-01 0.95116725E+03</pdfrwt>
<totfact> 0.14062090E+01</totfact>
</mgrwt>
</event>
<event>
 4    1  0.2502834E-007  0.1419349E+04  0.7818608E-02  0.8968792E-01
         -2   -1    0    0    0  501 -0.00000000000E+00  0.00000000000E+00  0.76688047173E+03  0.76688047173E+03  0.25500000000E-02 0.  1.
          2   -1    0    0  501    0  0.00000000000E+00 -0.00000000000E+00 -0.30022212327E+04  0.30022212327E+04  0.25500000000E-02 0. -1.
    8880023    1    1    2    0    0 -0.11070543794E+04 -0.59596238670E+03 -0.29138232872E+03  0.14489494239E+04  0.65864270000E+03 0.  0.
    8880022    1    1    2    0    0  0.11070543794E+04  0.59596238670E+03 -0.19439584322E+04  0.23201522805E+04  0.15294330000E+03 0.  0.
<mgrwt>
<rscale>  0 0.13795005E+04</rscale>
<asrwt>0</asrwt>
<pdfrwt beam="1">  1        2 0.46188018E+00 0.14193487E+04</pdfrwt>
<pdfrwt beam="2">  1       -2 0.11798161E+00 0.14193487E+04</pdfrwt>
<totfact> 0.92429051E-01</totfact>
</mgrwt>
</event>
<event>
 4    1  0.2502834E-007  0.7878857E+03  0.7818608E-02  0.9737629E-01
         -2   -1    0    0    0  501 -0.00000000000E+00  0.00000000000E+00  0.25539099776E+04  0.25539099776E+04  0.25500000000E-02 0.  1.
          2   -1    0    0  501    0  0.00000000000E+00 -0.00000000000E+00 -0.86362460652E+03  0.86362460652E+03  0.25500000000E-02 0. -1.
    8880023    1    1    2    0    0  0.24862353747E+03  0.35375140394E+03  0.24259112984E+04  0.25506488494E+04  0.65864270000E+03 0.  1.
    8880022    1    1    2    0    0 -0.24862353747E+03 -0.35375140394E+03 -0.73562592728E+03  0.86688573472E+03  0.15294330000E+03 0.  0.
<mgrwt>
<rscale>  0 0.68819902E+03</rscale>
<asrwt>0</asrwt>
<pdfrwt beam="1">  1        2 0.13286532E+00 0.78788573E+03</pdfrwt>
<pdfrwt beam="2">  1       -2 0.39290923E+00 0.78788573E+03</pdfrwt>
<totfact> 0.27113115E-01</totfact>
</mgrwt>
</event>
<event>
 4    1  0.2502834E-007  0.1449839E+04  0.7818608E-02  0.8945894E-01
         -2   -1    0    0    0  501 -0.00000000000E+00  0.00000000000E+00  0.25536701563E+04  0.25536701563E+04  0.25500000000E-02 0.  1.
          2   -1    0    0  501    0  0.00000000000E+00 -0.00000000000E+00 -0.15155332470E+04  0.15155332470E+04  0.25500000000E-02 0. -1.
    8880023    1    1    2    0    0  0.11329669193E+03 -0.12866180324E+04  0.19866655664E+04  0.24594455433E+04  0.65864270000E+03 0.  0.
    8880022    1    1    2    0    0 -0.11329669193E+03  0.12866180324E+04 -0.94852865699E+03  0.16097578600E+04  0.15294330000E+03 0.  0.
<mgrwt>
<rscale>  0 0.14110013E+04</rscale>
<asrwt>0</asrwt>
<pdfrwt beam="1">  1        2 0.23315896E+00 0.14498387E+04</pdfrwt>
<pdfrwt beam="2">  1       -2 0.39287233E+00 0.14498387E+04</pdfrwt>
<totfact> 0.97501377E-02</totfact>
</mgrwt>
</event>
<event>
 4    1  0.2502834E-007  0.7309586E+03  0.7818608E-02  0.9887113E-01
          2   -1    0    0  501    0  0.00000000000E+00  0.00000000000E+00  0.17272726651E+04  0.17272726651E+04  0.25500000000E-02 0. -1.
         -2   -1    0    0    0  501 -0.00000000000E+00 -0.00000000000E+00 -0.58429359182E+03  0.58429359183E+03  0.25500000000E-02 0.  1.
    8880023    1    1    2    0    0 -0.40839470596E+02 -0.31436033668E+03 -0.32647053629E+03  0.80055199766E+03  0.65864270000E+03 0.  1.
    8880022    1    1    2    0    0  0.40839470596E+02  0.31436033668E+03  0.14694496096E+04  0.15110142593E+04  0.15294330000E+03 0.  0.
<mgrwt>
<rscale>  0 0.60889946E+03</rscale>
<asrwt>0</asrwt>
<pdfrwt beam="1">  1        2 0.26573425E+00 0.73095861E+03</pdfrwt>
<pdfrwt beam="2">  1       -2 0.89891322E-01 0.73095861E+03</pdfrwt>
<totfact> 0.10356971E+01</totfact>
</mgrwt>
</event>
<event>
 4    1  0.2502834E-007  0.8283265E+03  0.7818608E-02  0.9652597E-01
          2   -1    0    0  501    0  0.00000000000E+00  0.00000000000E+00  0.15303802335E+04  0.15303802335E+04  0.25500000000E-02 0. -1.
         -2   -1    0    0    0  501 -0.00000000000E+00 -0.00000000000E+00 -0.37547080729E+03  0.37547080730E+03  0.25500000000E-02 0.  1.
    8880023    1    1    2    0    0 -0.45934541008E+03 -0.20326414079E+03  0.25982353135E+03  0.86812037783E+03  0.65864270000E+03 0.  1.
    8880022    1    1    2    0    0  0.45934541008E+03  0.20326414079E+03  0.89508589484E+03  0.10377306630E+04  0.15294330000E+03 0.  0.
<mgrwt>
<rscale>  0 0.73910640E+03</rscale>
<asrwt>0</asrwt>
<pdfrwt beam="1">  1        2 0.23544312E+00 0.82832646E+03</pdfrwt>
<pdfrwt beam="2">  1       -2 0.57764739E-01 0.82832646E+03</pdfrwt>
<totfact> 0.34746648E+01</totfact>
</mgrwt>
</event>
<event>
 4    1  0.2502834E-007  0.7919097E+03  0.7818608E-02  0.9728570E-01
          2   -1    0    0  501    0  0.00000000000E+00  0.00000000000E+00  0.14874713510E+04  0.14874713510E+04  0.25500000000E-02 0. -1.
         -2   -1    0    0    0  501 -0.00000000000E+00 -0.00000000000E+00 -0.77176305944E+03  0.77176305944E+03  0.25500000000E-02 0.  1.
    8880023    1    1    2    0    0  0.34210672219E+03  0.27617707129E+03 -0.51418102213E+03  0.94419442588E+03  0.65864270000E+03 0.  1.
    8880022    1    1    2    0    0 -0.34210672219E+03 -0.27617707129E+03  0.12298893137E+04  0.13150399846E+04  0.15294330000E+03 0.  0.
<mgrwt>
<rscale>  0 0.69340940E+03</rscale>
<asrwt>0</asrwt>
<pdfrwt beam="1">  1        2 0.22884175E+00 0.79190971E+03</pdfrwt>
<pdfrwt beam="2">  1       -2 0.11873278E+00 0.79190971E+03</pdfrwt>
<totfact> 0.71673321E+00</totfact>
</mgrwt>
</event>
<event>
 4    1  0.2502834E-007  0.7069382E+03  0.7818608E-02  0.9969551E-01
          2   -1    0    0  501    0  0.00000000000E+00  0.00000000000E+00  0.22249474859E+04  0.22249474859E+04  0.25500000000E-02 0. -1.
         -2   -1    0    0    0  501 -0.00000000000E+00 -0.00000000000E+00 -0.18638641382E+03  0.18638641383E+03  0.25500000000E-02 0.  1.
    8880023    1    1    2    0    0 -0.10672599751E+03 -0.23358296048E+03  0.55723260512E+03  0.90014988776E+03  0.65864270000E+03 0.  1.
    8880022    1    1    2    0    0  0.10672599751E+03  0.23358296048E+03  0.14813284669E+04  0.15111840120E+04  0.15294330000E+03 0.  0.
<mgrwt>
<rscale>  0 0.57005757E+03</rscale>
<asrwt>0</asrwt>
<pdfrwt beam="1">  1        2 0.34229962E+00 0.70693822E+03</pdfrwt>
<pdfrwt beam="2">  1       -2 0.28674833E-01 0.70693822E+03</pdfrwt>
<totfact> 0.57927974E+01</totfact>
</mgrwt>
</event>
<event>
 4    1  0.2502834E-007  0.1249903E+04  0.7818608E-02  0.9110076E-01
         -2   -1    0    0    0  501 -0.00000000000E+00  0.00000000000E+00  0.18003362669E+04  0.18003362669E+04  0.25500000000E-02 0.  1.
          2   -1    0    0  501    0  0.00000000000E+00 -0.00000000000E+00 -0.98115376503E+03  0.98115376503E+03  0.25500000000E-02 0. -1.
    8880023    1    1    2    0    0  0.32073263622E+03  0.10127087137E+04  0.11077436644E+04  0.16701361008E+04  0.65864270000E+03 0.  0.
    8880022    1    1    2    0    0 -0.32073263622E+03 -0.10127087137E+04 -0.28856116256E+03  0.11113539312E+04  0.15294330000E+03 0.  0.
<mgrwt>
<rscale>  0 0.12031821E+04</rscale>
<asrwt>0</asrwt>
<pdfrwt beam="1">  1        2 0.15094673E+00 0.12499034E+04</pdfrwt>
<pdfrwt beam="2">  1       -2 0.27697481E+00 0.12499034E+04</pdfrwt>
<totfact> 0.11053264E+00</totfact>
</mgrwt>
</event>
<event>
 4    1  0.2502834E-007  0.1584568E+04  0.7818608E-02  0.8852118E-01
         -2   -1    0    0    0  501 -0.00000000000E+00  0.00000000000E+00  0.64874029587E+03  0.64874029587E+03  0.25500000000E-02 0.  1.
          2   -1    0    0  501    0  0.00000000000E+00 -0.00000000000E+00 -0.46874799467E+04  0.46874799467E+04  0.25500000000E-02 0. -1.
    8880023    1    1    2    0    0 -0.96783317421E+03 -0.10678685129E+04 -0.77241847154E+03  0.17628059211E+04  0.65864270000E+03 0.  1.
    8880022    1    1    2    0    0  0.96783317421E+03  0.10678685129E+04 -0.32663211793E+04  0.35734143215E+04  0.15294330000E+03 0.  0.
<mgrwt>
<rscale>  0 0.15496077E+04</rscale>
<asrwt>0</asrwt>
<pdfrwt beam="1">  1        2 0.72115074E+00 0.15845676E+04</pdfrwt>
<pdfrwt beam="2">  1       -2 0.99806202E-01 0.15845676E+04</pdfrwt>
<totfact> 0.63918465E-02</totfact>
</mgrwt>
</event>
<event>
 4    1  0.2502834E-007  0.8651712E+03  0.7818608E-02  0.9584430E-01
         -2   -1    0    0    0  501 -0.00000000000E+00  0.00000000000E+00  0.66947328468E+03  0.66947328469E+03  0.25500000000E-02 0.  1.
          2   -1    0    0  501    0  0.00000000000E+00 -0.00000000000E+00 -0.12274558782E+04  0.12274558782E+04  0.25500000000E-02 0. -1.
    8880023    1    1    2    0    0  0.51355898144E+03  0.22576146337E+03  0.25082854877E+03  0.90079755378E+03  0.65864270000E+03 0.  0.
    8880022    1    1    2    0    0 -0.51355898144E+03 -0.22576146337E+03 -0.80881114227E+03  0.99613160909E+03  0.15294330000E+03 0.  0.
<mgrwt>
<rscale>  0 0.78335323E+03</rscale>
<asrwt>0</asrwt>
<pdfrwt beam="1">  1        2 0.18883937E+00 0.86517124E+03</pdfrwt>
<pdfrwt beam="2">  1       -2 0.10299589E+00 0.86517124E+03</pdfrwt>
<totfact> 0.14138483E+01</totfact>
</mgrwt>
</event>
<event>
 4    1  0.2502834E-007  0.6860125E+03  0.7818608E-02  0.1006108E+00
         -2   -1    0    0    0  501 -0.00000000000E+00  0.00000000000E+00  0.26484504594E+03  0.26484504595E+03  0.25500000000E-02 0.  1.
          2   -1    0    0  501    0  0.00000000000E+00 -0.00000000000E+00 -0.24358104368E+04  0.24358104368E+04  0.25500000000E-02 0. -1.
    8880023    1    1    2    0    0 -0.19175361612E+03 -0.57861002070E+01 -0.20013129557E+03  0.71460875308E+03  0.65864270000E+03 0.  1.
    8880022    1    1    2    0    0  0.19175361612E+03  0.57861002070E+01 -0.19708340953E+04  0.19860467297E+04  0.15294330000E+03 0.  0.
<mgrwt>
<rscale>  0 0.53051014E+03</rscale>
<asrwt>0</asrwt>
<pdfrwt beam="1">  1        2 0.37474005E+00 0.68601249E+03</pdfrwt>
<pdfrwt beam="2">  1       -2 0.40745393E-01 0.68601249E+03</pdfrwt>
<totfact> 0.22792884E+01</totfact>
</mgrwt>
</event>
<event>
 4    1  0.2502834E-007  0.8791830E+03  0.7818608E-02  0.9560311E-01
          2   -1    0    0  501    0  0.00000000000E+00  0.00000000000E+00  0.18185584303E+04  0.18185584303E+04  0.25500000000E-02 0. -1.
         -2   -1    0    0    0  501 -0.00000000000E+00 -0.00000000000E+00 -0.14983514802E+04  0.14983514802E+04  0.25500000000E-02 0.  1.
    8880023    1    1    2    0    0 -0.16638510971E+03  0.55809368365E+03 -0.13107829197E+04  0.15783265294E+04  0.65864270000E+03 0.  0.
    8880022    1    1    2    0    0  0.16638510971E+03 -0.55809368365E+03  0.16309898698E+04  0.17385833811E+04  0.15294330000E+03 0. -1.
<mgrwt>
<rscale>  0 0.79979667E+03</rscale>
<asrwt>0</asrwt>
<pdfrwt beam="1">  1        2 0.27977822E+00 0.87918301E+03</pdfrwt>
<pdfrwt beam="2">  1       -2 0.23051561E+00 0.87918301E+03</pdfrwt>
<totfact> 0.72879416E-01</totfact>
</mgrwt>
</event>
<event>
 4    1  0.2502834E-007  0.1149352E+04  0.7818608E-02  0.9208001E-01
          2   -1    0    0  501    0  0.00000000000E+00  0.00000000000E+00  0.43951161920E+03  0.43951161921E+03  0.25500000000E-02 0. -1.
         -2   -1    0    0    0  501 -0.00000000000E+00 -0.00000000000E+00 -0.31625604722E+04  0.31625604722E+04  0.25500000000E-02 0.  1.
    8880023    1    1    2    0    0  0.42631610333E+01  0.94190287193E+03 -0.22729042122E+04  0.25469791830E+04  0.65864270000E+03 0.  0.
    8880022    1    1    2    0    0 -0.42631610333E+01 -0.94190287193E+03 -0.45014464080E+03  0.10550929084E+04  0.15294330000E+03 0.  0.
<mgrwt>
<rscale>  0 0.10971225E+04</rscale>
<asrwt>0</asrwt>
<pdfrwt beam="1">  1        2 0.67617174E-01 0.11493517E+04</pdfrwt>
<pdfrwt beam="2">  1       -2 0.48654775E+00 0.11493517E+04</pdfrwt>
<totfact> 0.14269207E-01</totfact>
</mgrwt>
</event>
<event>
 4    1  0.2502834E-007  0.1031745E+04  0.7818608E-02  0.9341155E-01
         -2   -1    0    0    0  501 -0.00000000000E+00  0.00000000000E+00  0.82919175095E+03  0.82919175095E+03  0.25500000000E-02 0.  1.
          2   -1    0    0  501    0  0.00000000000E+00 -0.00000000000E+00 -0.15490011391E+04  0.15490011391E+04  0.25500000000E-02 0. -1.
    8880023    1    1    2    0    0 -0.26618559276E+03  0.74821962155E+03  0.30201636538E+03  0.10750402146E+04  0.65864270000E+03 0.  0.
    8880022    1    1    2    0    0  0.26618559276E+03 -0.74821962155E+03 -0.10218257535E+04  0.13031526754E+04  0.15294330000E+03 0.  0.
<mgrwt>
<rscale>  0 0.97080730E+03</rscale>
<asrwt>0</asrwt>
<pdfrwt beam="1">  1        2 0.23830787E+00 0.10317449E+04</pdfrwt>
<pdfrwt beam="2">  1       -2 0.12756796E+00 0.10317449E+04</pdfrwt>
<totfact> 0.53745545E+00</totfact>
</mgrwt>
</event>
<event>
 4    1  0.2502834E-007  0.1000239E+04  0.7818608E-02  0.9381246E-01
         -2   -1    0    0    0  501 -0.00000000000E+00  0.00000000000E+00  0.80368309031E+03  0.80368309032E+03  0.25500000000E-02 0.  1.
          2   -1    0    0  501    0  0.00000000000E+00 -0.00000000000E+00 -0.20407517205E+04  0.20407517205E+04  0.25500000000E-02 0. -1.
    8880023    1    1    2    0    0 -0.57353729078E+03  0.48756737502E+03  0.36738817916E+03  0.10655755485E+04  0.65864270000E+03 0.  0.
    8880022    1    1    2    0    0  0.57353729078E+03 -0.48756737502E+03 -0.16044568094E+04  0.17788592623E+04  0.15294330000E+03 0.  0.
<mgrwt>
<rscale>  0 0.93635296E+03</rscale>
<asrwt>0</asrwt>
<pdfrwt beam="1">  1        2 0.31396180E+00 0.10002386E+04</pdfrwt>
<pdfrwt beam="2">  1       -2 0.12364355E+00 0.10002386E+04</pdfrwt>
<totfact> 0.31226721E+00</totfact>
</mgrwt>
</event>
<event>
 4    1  0.2502834E-007  0.1560377E+04  0.7818608E-02  0.8868138E-01
         -2   -1    0    0    0  501 -0.00000000000E+00  0.00000000000E+00  0.11829354457E+04  0.11829354457E+04  0.25500000000E-02 0.  1.
          2   -1    0    0  501    0  0.00000000000E+00 -0.00000000000E+00 -0.28209377022E+04  0.28209377022E+04  0.25500000000E-02 0. -1.
    8880023    1    1    2    0    0  0.13161065165E+04 -0.51848761434E+03  0.31072360290E+03  0.15910138694E+04  0.65864270000E+03 0.  0.
    8880022    1    1    2    0    0 -0.13161065165E+04  0.51848761434E+03 -0.19487258594E+04  0.24128592784E+04  0.15294330000E+03 0.  0.
<mgrwt>
<rscale>  0 0.15247830E+04</rscale>
<asrwt>0</asrwt>
<pdfrwt beam="1">  1        2 0.43399042E+00 0.15603769E+04</pdfrwt>
<pdfrwt beam="2">  1       -2 0.18199007E+00 0.15603769E+04</pdfrwt>
<totfact> 0.36940814E-01</totfact>
</mgrwt>
</event>
<event>
 4    1  0.2502834E-007  0.9222986E+03  0.7818608E-02  0.9491144E-01
          2   -1    0    0  501    0  0.00000000000E+00  0.00000000000E+00  0.15553323774E+04  0.15553323774E+04  0.25500000000E-02 0. -1.
         -2   -1    0    0    0  501 -0.00000000000E+00 -0.00000000000E+00 -0.10252921670E+04  0.10252921670E+04  0.25500000000E-02 0.  1.
    8880023    1    1    2    0    0 -0.50648119509E+03 -0.40037645299E+03 -0.71690027432E+03  0.11681526932E+04  0.65864270000E+03 0.  0.
    8880022    1    1    2    0    0  0.50648119509E+03  0.40037645299E+03  0.12469404847E+04  0.14124718512E+04  0.15294330000E+03 0.  0.
<mgrwt>
<rscale>  0 0.84939932E+03</rscale>
<asrwt>0</asrwt>
<pdfrwt beam="1">  1        2 0.23928190E+00 0.92229860E+03</pdfrwt>
<pdfrwt beam="2">  1       -2 0.15773726E+00 0.92229860E+03</pdfrwt>
<totfact> 0.31019245E+00</totfact>
</mgrwt>
</event>
<event>
 4    1  0.2502834E-007  0.6618081E+03  0.7818608E-02  0.1022376E+00
          2   -1    0    0  501    0  0.00000000000E+00  0.00000000000E+00  0.48279337608E+03  0.48279337608E+03  0.25500000000E-02 0. -1.
         -2   -1    0    0    0  501 -0.00000000000E+00 -0.00000000000E+00 -0.15839002790E+04  0.15839002790E+04  0.25500000000E-02 0.  1.
    8880023    1    1    2    0    0 -0.63626827218E+02 -0.11461868490E+02 -0.14973396654E+04  0.16370754495E+04  0.65864270000E+03 0.  1.
    8880022    1    1    2    0    0  0.63626827218E+02  0.11461868490E+02  0.39623276242E+03  0.42961820562E+03  0.15294330000E+03 0.  0.
<mgrwt>
<rscale>  0 0.46838870E+03</rscale>
<asrwt>0</asrwt>
<pdfrwt beam="1">  1        2 0.74275905E-01 0.66180809E+03</pdfrwt>
<pdfrwt beam="2">  1       -2 0.24367696E+00 0.66180809E+03</pdfrwt>
<totfact> 0.46897754E+00</totfact>
</mgrwt>
</event>
<event>
 4    1  0.2502834E-007  0.8746550E+03  0.7818608E-02  0.9568009E-01
          2   -1    0    0  501    0  0.00000000000E+00  0.00000000000E+00  0.22504614753E+04  0.22504614753E+04  0.25500000000E-02 0. -1.
         -2   -1    0    0    0  501 -0.00000000000E+00 -0.00000000000E+00 -0.30042453851E+03  0.30042453852E+03  0.25500000000E-02 0.  1.
    8880023    1    1    2    0    0 -0.17051382781E+03  0.54966916372E+03  0.55973610592E+03  0.10384247058E+04  0.65864270000E+03 0.  1.
    8880022    1    1    2    0    0  0.17051382781E+03 -0.54966916372E+03  0.13903008309E+04  0.15124613081E+04  0.15294330000E+03 0.  0.
<mgrwt>
<rscale>  0 0.79450266E+03</rscale>
<asrwt>0</asrwt>
<pdfrwt beam="1">  1        2 0.34622484E+00 0.87465500E+03</pdfrwt>
<pdfrwt beam="2">  1       -2 0.46219161E-01 0.87465500E+03</pdfrwt>
<totfact> 0.21942062E+01</totfact>
</mgrwt>
</event>
<event>
 4    1  0.2502834E-007  0.9330402E+03  0.7818608E-02  0.9474947E-01
          2   -1    0    0  501    0  0.00000000000E+00  0.00000000000E+00  0.12349458443E+04  0.12349458443E+04  0.25500000000E-02 0. -1.
         -2   -1    0    0    0  501 -0.00000000000E+00 -0.00000000000E+00 -0.15014005773E+04  0.15014005773E+04  0.25500000000E-02 0.  1.
    8880023    1    1    2    0    0 -0.21827393335E+03  0.62378712230E+03 -0.12387374185E+04  0.15508173594E+04  0.65864270000E+03 0.  0.
    8880022    1    1    2    0    0  0.21827393335E+03 -0.62378712230E+03  0.97228268546E+03  0.11855290622E+04  0.15294330000E+03 0.  0.
<mgrwt>
<rscale>  0 0.86156328E+03</rscale>
<asrwt>0</asrwt>
<pdfrwt beam="1">  1        2 0.18999167E+00 0.93304024E+03</pdfrwt>
<pdfrwt beam="2">  1       -2 0.23098470E+00 0.93304024E+03</pdfrwt>
<totfact> 0.15278868E+00</totfact>
</mgrwt>
</event>
<event>
 4    1  0.2502834E-007  0.1384436E+04  0.7818608E-02  0.8995871E-01
          2   -1    0    0  501    0  0.00000000000E+00  0.00000000000E+00  0.16819456228E+04  0.16819456228E+04  0.25500000000E-02 0. -1.
         -2   -1    0    0    0  501 -0.00000000000E+00 -0.00000000000E+00 -0.11468054747E+04  0.11468054747E+04  0.25500000000E-02 0.  1.
    8880023    1    1    2    0    0  0.65955802228E+03 -0.10236392342E+04 -0.19896653372E+03  0.13986607717E+04  0.65864270000E+03 0.  0.
    8880022    1    1    2    0    0 -0.65955802228E+03  0.10236392342E+04  0.73410668177E+03  0.14300903258E+04  0.15294330000E+03 0.  0.
<mgrwt>
<rscale>  0 0.13433579E+04</rscale>
<asrwt>0</asrwt>
<pdfrwt beam="1">  1        2 0.25876087E+00 0.13844364E+04</pdfrwt>
<pdfrwt beam="2">  1       -2 0.17643161E+00 0.13844364E+04</pdfrwt>
<totfact> 0.18358332E+00</totfact>
</mgrwt>
</event>
<event>
 4    1  0.2502834E-007  0.7564271E+03  0.7818608E-02  0.9814447E-01
         -2   -1    0    0    0  501 -0.00000000000E+00  0.00000000000E+00  0.31571945708E+03  0.31571945709E+03  0.25500000000E-02 0.  1.
          2   -1    0    0  501    0  0.00000000000E+00 -0.00000000000E+00 -0.11671548622E+04  0.11671548622E+04  0.25500000000E-02 0. -1.
    8880023    1    1    2    0    0 -0.35284721059E+03  0.11777371182E+03 -0.75612786527E+03  0.10695379171E+04  0.65864270000E+03 0.  0.
    8880022    1    1    2    0    0  0.35284721059E+03 -0.11777371182E+03 -0.95307539857E+02  0.41333640220E+03  0.15294330000E+03 0.  0.
<mgrwt>
<rscale>  0 0.64592988E+03</rscale>
<asrwt>0</asrwt>
<pdfrwt beam="1">  1        2 0.17956228E+00 0.75642713E+03</pdfrwt>
<pdfrwt beam="2">  1       -2 0.48572225E-01 0.75642713E+03</pdfrwt>
<totfact> 0.80785644E+01</totfact>
</mgrwt>
</event>
<event>
 4    1  0.2502834E-007  0.9037034E+03  0.7818608E-02  0.9520112E-01
         -2   -1    0    0    0  501 -0.00000000000E+00  0.00000000000E+00  0.45358563063E+03  0.45358563064E+03  0.25500000000E-02 0.  1.
          2   -1    0    0  501    0  0.00000000000E+00 -0.00000000000E+00 -0.15636058559E+04  0.15636058559E+04  0.25500000000E-02 0. -1.
    8880023    1    1    2    0    0  0.12026571663E+03  0.60696437423E+03 -0.23342242087E+03  0.93336264496E+03  0.65864270000E+03 0.  1.
    8880022    1    1    2    0    0 -0.12026571663E+03 -0.60696437423E+03 -0.87659780442E+03  0.10838288416E+04  0.15294330000E+03 0.  0.
<mgrwt>
<rscale>  0 0.82817116E+03</rscale>
<asrwt>0</asrwt>
<pdfrwt beam="1">  1        2 0.24055475E+00 0.90370338E+03</pdfrwt>
<pdfrwt beam="2">  1       -2 0.69782405E-01 0.90370338E+03</pdfrwt>
<totfact> 0.22043257E+01</totfact>
</mgrwt>
</event>
<event>
 4    1  0.2502834E-007  0.1436732E+04  0.7818608E-02  0.8955654E-01
          2   -1    0    0  501    0  0.00000000000E+00  0.00000000000E+00  0.37018341583E+04  0.37018341583E+04  0.25500000000E-02 0. -1.
         -2   -1    0    0    0  501 -0.00000000000E+00 -0.00000000000E+00 -0.56975898351E+03  0.56975898352E+03  0.25500000000E-02 0.  1.
    8880023    1    1    2    0    0  0.82376768808E+03  0.97560048156E+03  0.89936065494E+03  0.16950071674E+04  0.65864270000E+03 0.  0.
    8880022    1    1    2    0    0 -0.82376768808E+03 -0.97560048156E+03  0.22327145199E+04  0.25765859745E+04  0.15294330000E+03 0.  0.
<mgrwt>
<rscale>  0 0.13974673E+04</rscale>
<asrwt>0</asrwt>
<pdfrwt beam="1">  1        2 0.56951291E+00 0.14367323E+04</pdfrwt>
<pdfrwt beam="2">  1       -2 0.87655234E-01 0.14367323E+04</pdfrwt>
<totfact> 0.63720937E-01</totfact>
</mgrwt>
</event>
<event>
 4    1  0.2502834E-007  0.1025317E+04  0.7818608E-02  0.9349160E-01
          2   -1    0    0  501    0  0.00000000000E+00  0.00000000000E+00  0.39939833275E+04  0.39939833275E+04  0.25500000000E-02 0. -1.
         -2   -1    0    0    0  501 -0.00000000000E+00 -0.00000000000E+00 -0.47290697665E+03  0.47290697666E+03  0.25500000000E-02 0.  1.
    8880023    1    1    2    0    0 -0.40466370728E+03 -0.67358157155E+03  0.19228409044E+03  0.10431913665E+04  0.65864270000E+03 0.  1.
    8880022    1    1    2    0    0  0.40466370728E+03  0.67358157155E+03  0.33287922604E+04  0.34236989376E+04  0.15294330000E+03 0. -1.
<mgrwt>
<rscale>  0 0.96380402E+03</rscale>
<asrwt>0</asrwt>
<pdfrwt beam="1">  1        2 0.61445898E+00 0.10253171E+04</pdfrwt>
<pdfrwt beam="2">  1       -2 0.72754918E-01 0.10253171E+04</pdfrwt>
<totfact> 0.61935701E-01</totfact>
</mgrwt>
</event>
<event>
 4    1  0.2502834E-007  0.1416397E+04  0.7818608E-02  0.8971046E-01
         -2   -1    0    0    0  501 -0.00000000000E+00  0.00000000000E+00  0.13985654395E+04  0.13985654395E+04  0.25500000000E-02 0.  1.
          2   -1    0    0  501    0  0.00000000000E+00 -0.00000000000E+00 -0.24265331670E+04  0.24265331670E+04  0.25500000000E-02 0. -1.
    8880023    1    1    2    0    0  0.12005833481E+04  0.36189652384E+03  0.78197228014E+03  0.16179185155E+04  0.65864270000E+03 0.  0.
    8880022    1    1    2    0    0 -0.12005833481E+04 -0.36189652384E+03 -0.18099400076E+04  0.22071800910E+04  0.15294330000E+03 0.  0.
<mgrwt>
<rscale>  0 0.13764476E+04</rscale>
<asrwt>0</asrwt>
<pdfrwt beam="1">  1        2 0.37331279E+00 0.14163967E+04</pdfrwt>
<pdfrwt beam="2">  1       -2 0.21516391E+00 0.14163967E+04</pdfrwt>
<totfact> 0.38599183E-01</totfact>
</mgrwt>
</event>
<event>
 4    1  0.2502834E-007  0.1150830E+04  0.7818608E-02  0.9206468E-01
         -2   -1    0    0    0  501 -0.00000000000E+00  0.00000000000E+00  0.21542968824E+04  0.21542968824E+04  0.25500000000E-02 0.  1.
          2   -1    0    0  501    0  0.00000000000E+00 -0.00000000000E+00 -0.94306200566E+03  0.94306200566E+03  0.25500000000E-02 0. -1.
    8880023    1    1    2    0    0  0.94022868229E+03  0.81045703253E+02  0.16770088259E+04  0.20339044200E+04  0.65864270000E+03 0.  0.
    8880022    1    1    2    0    0 -0.94022868229E+03 -0.81045703253E+02 -0.46577394918E+03  0.10634544681E+04  0.15294330000E+03 0.  0.
<mgrwt>
<rscale>  0 0.10986919E+04</rscale>
<asrwt>0</asrwt>
<pdfrwt beam="1">  1        2 0.14508646E+00 0.11508295E+04</pdfrwt>
<pdfrwt beam="2">  1       -2 0.33143029E+00 0.11508295E+04</pdfrwt>
<totfact> 0.55124549E-01</totfact>
</mgrwt>
</event>
<event>
 4    1  0.2502834E-007  0.8950502E+03  0.7818608E-02  0.9534025E-01
          2   -1    0    0  501    0  0.00000000000E+00  0.00000000000E+00  0.31075262173E+04  0.31075262173E+04  0.25500000000E-02 0. -1.
         -2   -1    0    0    0  501 -0.00000000000E+00 -0.00000000000E+00 -0.24776930946E+03  0.24776930948E+03  0.25500000000E-02 0.  1.
    8880023    1    1    2    0    0  0.58266293591E+03 -0.16675893938E+03  0.79206112333E+03  0.11951885500E+04  0.65864270000E+03 0.  0.
    8880022    1    1    2    0    0 -0.58266293591E+03  0.16675893938E+03  0.20676957845E+04  0.21601069767E+04  0.15294330000E+03 0.  0.
<mgrwt>
<rscale>  0 0.81821126E+03</rscale>
<asrwt>0</asrwt>
<pdfrwt beam="1">  1        2 0.47808096E+00 0.89505019E+03</pdfrwt>
<pdfrwt beam="2">  1       -2 0.38118355E-01 0.89505019E+03</pdfrwt>
<totfact> 0.10067150E+01</totfact>
</mgrwt>
</event>
<event>
 4    1  0.2502834E-007  0.1171042E+04  0.7818608E-02  0.9185798E-01
          2   -1    0    0  501    0  0.00000000000E+00  0.00000000000E+00  0.12889021044E+04  0.12889021044E+04  0.25500000000E-02 0. -1.
         -2   -1    0    0    0  501 -0.00000000000E+00 -0.00000000000E+00 -0.12016768360E+04  0.12016768360E+04  0.25500000000E-02 0.  1.
    8880023    1    1    2    0    0 -0.66219444154E+03 -0.70641911310E+03 -0.57798912841E+03  0.13059138871E+04  0.65864270000E+03 0.  0.
    8880022    1    1    2    0    0  0.66219444154E+03  0.70641911310E+03  0.66521439675E+03  0.11846650533E+04  0.15294330000E+03 0.  0.
<mgrwt>
<rscale>  0 0.11201221E+04</rscale>
<asrwt>0</asrwt>
<pdfrwt beam="1">  1        2 0.19829263E+00 0.11710421E+04</pdfrwt>
<pdfrwt beam="2">  1       -2 0.18487336E+00 0.11710421E+04</pdfrwt>
<totfact> 0.27428068E+00</totfact>
</mgrwt>
</event>
<event>
 4    1  0.2502834E-007  0.6742559E+03  0.7818608E-02  0.1012779E+00
          2   -1    0    0  501    0  0.00000000000E+00  0.00000000000E+00  0.17974030116E+04  0.17974030116E+04  0.25500000000E-02 0. -1.
         -2   -1    0    0    0  501 -0.00000000000E+00 -0.00000000000E+00 -0.35486248108E+03  0.35486248109E+03  0.25500000000E-02 0.  1.
    8880023    1    1    2    0    0 -0.14252922906E+03 -0.22275228468E+02 -0.20135635576E+02  0.67455645948E+03  0.65864270000E+03 0.  0.
    8880022    1    1    2    0    0  0.14252922906E+03  0.22275228468E+02  0.14626761661E+04  0.14777090332E+04  0.15294330000E+03 0.  0.
<mgrwt>
<rscale>  0 0.50384773E+03</rscale>
<asrwt>0</asrwt>
<pdfrwt beam="1">  1        2 0.27652354E+00 0.67425587E+03</pdfrwt>
<pdfrwt beam="2">  1       -2 0.54594228E-01 0.67425587E+03</pdfrwt>
<totfact> 0.28404658E+01</totfact>
</mgrwt>
</event>
<event>
 4    1  0.2502834E-007  0.9585773E+03  0.7818608E-02  0.9437879E-01
         -2   -1    0    0    0  501 -0.00000000000E+00  0.00000000000E+00  0.78168616350E+03  0.78168616350E+03  0.25500000000E-02 0.  1.
          2   -1    0    0  501    0  0.00000000000E+00 -0.00000000000E+00 -0.18345442340E+04  0.18345442340E+04  0.25500000000E-02 0. -1.
    8880023    1    1    2    0    0  0.50580059588E+03  0.47877560792E+03  0.36775783186E+03  0.10267016873E+04  0.65864270000E+03 0.  0.
    8880022    1    1    2    0    0 -0.50580059588E+03 -0.47877560792E+03 -0.14206159024E+04  0.15895287102E+04  0.15294330000E+03 0.  0.
<mgrwt>
<rscale>  0 0.89022875E+03</rscale>
<asrwt>0</asrwt>
<pdfrwt beam="1">  1        2 0.28223757E+00 0.95857735E+03</pdfrwt>
<pdfrwt beam="2">  1       -2 0.12025941E+00 0.95857735E+03</pdfrwt>
<totfact> 0.43696914E+00</totfact>
</mgrwt>
</event>
<event>
 4    1  0.2502834E-007  0.1781625E+04  0.7818608E-02  0.8732769E-01
          2   -1    0    0  501    0  0.00000000000E+00  0.00000000000E+00  0.34065195693E+04  0.34065195693E+04  0.25500000000E-02 0. -1.
         -2   -1    0    0    0  501 -0.00000000000E+00 -0.00000000000E+00 -0.18743412210E+04  0.18743412210E+04  0.25500000000E-02 0.  1.
    8880023    1    1    2    0    0  0.12167998534E+04  0.11223980120E+04 -0.11533844578E+04  0.21223772271E+04  0.65864270000E+03 0.  0.
    8880022    1    1    2    0    0 -0.12167998534E+04 -0.11223980120E+04  0.26855628061E+04  0.31584835632E+04  0.15294330000E+03 0.  0.
<mgrwt>
<rscale>  0 0.17510561E+04</rscale>
<asrwt>0</asrwt>
<pdfrwt beam="1">  1        2 0.52407993E+00 0.17816255E+04</pdfrwt>
<pdfrwt beam="2">  1       -2 0.28836019E+00 0.17816255E+04</pdfrwt>
<totfact> 0.32106352E-02</totfact>
</mgrwt>
</event>
<event>
 4    1  0.2502834E-007  0.6970308E+03  0.7818608E-02  0.1000975E+00
          2   -1    0    0  501    0  0.00000000000E+00  0.00000000000E+00  0.16047963351E+04  0.16047963351E+04  0.25500000000E-02 0. -1.
         -2   -1    0    0    0  501 -0.00000000000E+00 -0.00000000000E+00 -0.23334496258E+03  0.23334496259E+03  0.25500000000E-02 0.  1.
    8880023    1    1    2    0    0 -0.19324693812E+03  0.12123256071E+03  0.34914875836E+03  0.77958756698E+03  0.65864270000E+03 0.  1.
    8880022    1    1    2    0    0  0.19324693812E+03 -0.12123256071E+03  0.10223026142E+04  0.10585537307E+04  0.15294330000E+03 0.  0.
<mgrwt>
<rscale>  0 0.55224832E+03</rscale>
<asrwt>0</asrwt>
<pdfrwt beam="1">  1        2 0.24689174E+00 0.69703079E+03</pdfrwt>
<pdfrwt beam="2">  1       -2 0.35899226E-01 0.69703079E+03</pdfrwt>
<totfact> 0.82984977E+01</totfact>
</mgrwt>
</event>
<event>
 4    1  0.2502834E-007  0.6893157E+03  0.7818608E-02  0.1004479E+00
          2   -1    0    0  501    0  0.00000000000E+00  0.00000000000E+00  0.21280101466E+04  0.21280101466E+04  0.25500000000E-02 0. -1.
         -2   -1    0    0    0  501 -0.00000000000E+00 -0.00000000000E+00 -0.10471463457E+03  0.10471463461E+03  0.25500000000E-02 0.  1.
    8880023    1    1    2    0    0 -0.59006529248E+02 -0.19458728404E+03  0.15045914908E+04  0.16549778675E+04  0.65864270000E+03 0.  0.
    8880022    1    1    2    0    0  0.59006529248E+02  0.19458728404E+03  0.51870402131E+03  0.57774691374E+03  0.15294330000E+03 0.  1.
<mgrwt>
<rscale>  0 0.53728937E+03</rscale>
<asrwt>0</asrwt>
<pdfrwt beam="1">  1        2 0.32738612E+00 0.68931574E+03</pdfrwt>
<pdfrwt beam="2">  1       -2 0.16109947E-01 0.68931574E+03</pdfrwt>
<totfact> 0.18174021E+02</totfact>
</mgrwt>
</event>
<event>
 4    1  0.2502834E-007  0.1556823E+04  0.7818608E-02  0.8870520E-01
         -2   -1    0    0    0  501 -0.00000000000E+00  0.00000000000E+00  0.12097419613E+04  0.12097419613E+04  0.25500000000E-02 0.  1.
          2   -1    0    0  501    0  0.00000000000E+00 -0.00000000000E+00 -0.18475002396E+04  0.18475002396E+04  0.25500000000E-02 0. -1.
    8880023    1    1    2    0    0  0.12380861883E+04 -0.67603976160E+03 -0.18456755446E+03  0.15677252812E+04  0.65864270000E+03 0. -1.
    8880022    1    1    2    0    0 -0.12380861883E+04  0.67603976160E+03 -0.45319072387E+03  0.14895169197E+04  0.15294330000E+03 0.  0.
<mgrwt>
<rscale>  0 0.15211337E+04</rscale>
<asrwt>0</asrwt>
<pdfrwt beam="1">  1        2 0.28423081E+00 0.15568228E+04</pdfrwt>
<pdfrwt beam="2">  1       -2 0.18611415E+00 0.15568228E+04</pdfrwt>
<totfact> 0.12517351E+00</totfact>
</mgrwt>
</event>
<event>
 4    1  0.2502834E-007  0.1040983E+04  0.7818608E-02  0.9329800E-01
         -2   -1    0    0    0  501 -0.00000000000E+00  0.00000000000E+00  0.44568782443E+03  0.44568782444E+03  0.25500000000E-02 0.  1.
          2   -1    0    0  501    0  0.00000000000E+00 -0.00000000000E+00 -0.23331090749E+04  0.23331090749E+04  0.25500000000E-02 0. -1.
    8880023    1    1    2    0    0 -0.11933343018E+03 -0.79724212422E+03 -0.47253105030E+03  0.11432109481E+04  0.65864270000E+03 0.  0.
    8880022    1    1    2    0    0  0.11933343018E+03  0.79724212422E+03 -0.14148902001E+04  0.16355859512E+04  0.15294330000E+03 0.  0.
<mgrwt>
<rscale>  0 0.98085077E+03</rscale>
<asrwt>0</asrwt>
<pdfrwt beam="1">  1        2 0.35893985E+00 0.10409830E+04</pdfrwt>
<pdfrwt beam="2">  1       -2 0.68567359E-01 0.10409830E+04</pdfrwt>
<totfact> 0.84696528E+00</totfact>
</mgrwt>
</event>
<event>
 4    1  0.2502834E-007  0.9458248E+03  0.7818608E-02  0.9456147E-01
         -2   -1    0    0    0  501 -0.00000000000E+00  0.00000000000E+00  0.49987272411E+03  0.49987272412E+03  0.25500000000E-02 0.  1.
          2   -1    0    0  501    0  0.00000000000E+00 -0.00000000000E+00 -0.32649411296E+04  0.32649411296E+04  0.25500000000E-02 0. -1.
    8880023    1    1    2    0    0 -0.49277860826E+03  0.46684438371E+03 -0.33932627391E+02  0.94643333882E+03  0.65864270000E+03 0.  0.
    8880022    1    1    2    0    0  0.49277860826E+03 -0.46684438371E+03 -0.27311357781E+04  0.28183805149E+04  0.15294330000E+03 0.  0.
<mgrwt>
<rscale>  0 0.87595609E+03</rscale>
<asrwt>0</asrwt>
<pdfrwt beam="1">  1        2 0.50229862E+00 0.94582485E+03</pdfrwt>
<pdfrwt beam="2">  1       -2 0.76903498E-01 0.94582485E+03</pdfrwt>
<totfact> 0.18420301E+00</totfact>
</mgrwt>
</event>
<event>
 4    1  0.2502834E-007  0.8957886E+03  0.7818608E-02  0.9532826E-01
          2   -1    0    0  501    0  0.00000000000E+00  0.00000000000E+00  0.69738839791E+03  0.69738839792E+03  0.25500000000E-02 0. -1.
         -2   -1    0    0    0  501 -0.00000000000E+00 -0.00000000000E+00 -0.12321103078E+04  0.12321103078E+04  0.25500000000E-02 0.  1.
    8880023    1    1    2    0    0 -0.22269439960E+03 -0.56483110004E+03 -0.84435666311E+03  0.12310058278E+04  0.65864270000E+03 0.  1.
    8880022    1    1    2    0    0  0.22269439960E+03  0.56483110004E+03  0.30963475320E+03  0.69849287798E+03  0.15294330000E+03 0.  0.
<mgrwt>
<rscale>  0 0.81906332E+03</rscale>
<asrwt>0</asrwt>
<pdfrwt beam="1">  1        2 0.10729052E+00 0.89578858E+03</pdfrwt>
<pdfrwt beam="2">  1       -2 0.18955543E+00 0.89578858E+03</pdfrwt>
<totfact> 0.64442775E+00</totfact>
</mgrwt>
</event>
<event>
 4    1  0.2502834E-007  0.1514244E+04  0.7818608E-02  0.8899643E-01
          2   -1    0    0  501    0  0.00000000000E+00  0.00000000000E+00  0.26565316032E+04  0.26565316032E+04  0.25500000000E-02 0. -1.
         -2   -1    0    0    0  501 -0.00000000000E+00 -0.00000000000E+00 -0.96464801630E+03  0.96464801631E+03  0.25500000000E-02 0.  1.
    8880023    1    1    2    0    0  0.11805986806E+04 -0.68213772966E+03  0.16626036404E+04  0.22488188451E+04  0.65864270000E+03 0.  0.
    8880022    1    1    2    0    0 -0.11805986806E+04  0.68213772966E+03  0.29279946514E+02  0.13723607744E+04  0.15294330000E+03 0.  0.
<mgrwt>
<rscale>  0 0.14773700E+04</rscale>
<asrwt>0</asrwt>
<pdfrwt beam="1">  1        2 0.40869717E+00 0.15142441E+04</pdfrwt>
<pdfrwt beam="2">  1       -2 0.14840739E+00 0.15142441E+04</pdfrwt>
<totfact> 0.82025290E-01</totfact>
</mgrwt>
</event>
<event>
 4    1  0.2502834E-007  0.9573674E+03  0.7818608E-02  0.9439592E-01
         -2   -1    0    0    0  501 -0.00000000000E+00  0.00000000000E+00  0.69110995998E+03  0.69110995999E+03  0.25500000000E-02 0.  1.
          2   -1    0    0  501    0  0.00000000000E+00 -0.00000000000E+00 -0.28925916711E+04  0.28925916711E+04  0.25500000000E-02 0. -1.
    8880023    1    1    2    0    0 -0.13473414463E+03 -0.68160748546E+03  0.28384180463E+03  0.99855817571E+03  0.65864270000E+03 0.  1.
    8880022    1    1    2    0    0  0.13473414463E+03  0.68160748546E+03 -0.24853235157E+04  0.25851434554E+04  0.15294330000E+03 0.  0.
<mgrwt>
<rscale>  0 0.88887792E+03</rscale>
<asrwt>0</asrwt>
<pdfrwt beam="1">  1        2 0.44501410E+00 0.95736736E+03</pdfrwt>
<pdfrwt beam="2">  1       -2 0.10632461E+00 0.95736736E+03</pdfrwt>
<totfact> 0.14821107E+00</totfact>
</mgrwt>
</event>
<event>
 4    1  0.2502834E-007  0.8680890E+03  0.7818608E-02  0.9579334E-01
          2   -1    0    0  501    0  0.00000000000E+00  0.00000000000E+00  0.15445832272E+04  0.15445832272E+04  0.25500000000E-02 0. -1.
         -2   -1    0    0    0  501 -0.00000000000E+00 -0.00000000000E+00 -0.90360456648E+03  0.90360456649E+03  0.25500000000E-02 0.  1.
    8880023    1    1    2    0    0  0.35151895973E+02  0.56438691695E+03 -0.61395744027E+03  0.10632601716E+04  0.65864270000E+03 0.  1.
    8880022    1    1    2    0    0 -0.35151895973E+02 -0.56438691695E+03  0.12549361010E+04  0.13849276221E+04  0.15294330000E+03 0.  0.
<mgrwt>
<rscale>  0 0.78679256E+03</rscale>
<asrwt>0</asrwt>
<pdfrwt beam="1">  1        2 0.23762819E+00 0.86808897E+03</pdfrwt>
<pdfrwt beam="2">  1       -2 0.13901609E+00 0.86808897E+03</pdfrwt>
<totfact> 0.44241508E+00</totfact>
</mgrwt>
</event>
<event>
 4    1  0.2502834E-007  0.1173442E+04  0.7818608E-02  0.9183381E-01
          2   -1    0    0  501    0  0.00000000000E+00  0.00000000000E+00  0.17628989187E+04  0.17628989187E+04  0.25500000000E-02 0. -1.
         -2   -1    0    0    0  501 -0.00000000000E+00 -0.00000000000E+00 -0.77683019398E+03  0.77683019399E+03  0.25500000000E-02 0.  1.
    8880023    1    1    2    0    0  0.93278587366E+03  0.27030761050E+03  0.38177828141E+02  0.11740627936E+04  0.65864270000E+03 0.  1.
    8880022    1    1    2    0    0 -0.93278587366E+03 -0.27030761050E+03  0.94789089659E+03  0.13656663191E+04  0.15294330000E+03 0. -1.
<mgrwt>
<rscale>  0 0.11226622E+04</rscale>
<asrwt>0</asrwt>
<pdfrwt beam="1">  1        2 0.27121522E+00 0.11734419E+04</pdfrwt>
<pdfrwt beam="2">  1       -2 0.11951234E+00 0.11734419E+04</pdfrwt>
<totfact> 0.47460684E+00</totfact>
</mgrwt>
</event>
<event>
 4    1  0.2502834E-007  0.7603246E+03  0.7818608E-02  0.9804268E-01
          2   -1    0    0  501    0  0.00000000000E+00  0.00000000000E+00  0.35957044892E+04  0.35957044892E+04  0.25500000000E-02 0. -1.
         -2   -1    0    0    0  501 -0.00000000000E+00 -0.00000000000E+00 -0.28107349489E+03  0.28107349490E+03  0.25500000000E-02 0.  1.
    8880023    1    1    2    0    0 -0.19951625672E+03 -0.32322844586E+03  0.27321924269E+03  0.80792470302E+03  0.65864270000E+03 0.  1.
    8880022    1    1    2    0    0  0.19951625672E+03  0.32322844586E+03  0.30414117516E+04  0.30688532811E+04  0.15294330000E+03 0.  0.
<mgrwt>
<rscale>  0 0.65134015E+03</rscale>
<asrwt>0</asrwt>
<pdfrwt beam="1">  1        2 0.55318530E+00 0.76032465E+03</pdfrwt>
<pdfrwt beam="2">  1       -2 0.43242077E-01 0.76032465E+03</pdfrwt>
<totfact> 0.38309844E+00</totfact>
</mgrwt>
</event>
<event>
 4    1  0.2502834E-007  0.1073596E+04  0.7818608E-02  0.9291040E-01
          2   -1    0    0  501    0  0.00000000000E+00  0.00000000000E+00  0.23619928241E+04  0.23619928241E+04  0.25500000000E-02 0. -1.
         -2   -1    0    0    0  501 -0.00000000000E+00 -0.00000000000E+00 -0.51759054390E+03  0.51759054391E+03  0.25500000000E-02 0.  1.
    8880023    1    1    2    0    0  0.84429609876E+03  0.77209269134E+02  0.30594695536E+03  0.11163381743E+04  0.65864270000E+03 0. -1.
    8880022    1    1    2    0    0 -0.84429609876E+03 -0.77209269134E+02  0.15384553248E+04  0.17632451937E+04  0.15294330000E+03 0.  0.
<mgrwt>
<rscale>  0 0.10161196E+04</rscale>
<asrwt>0</asrwt>
<pdfrwt beam="1">  1        2 0.36338351E+00 0.10735955E+04</pdfrwt>
<pdfrwt beam="2">  1       -2 0.79629314E-01 0.10735955E+04</pdfrwt>
<totfact> 0.58307820E+00</totfact>
</mgrwt>
</event>
<event>
 4    1  0.2502834E-007  0.6678521E+03  0.7818608E-02  0.1017252E+00
         -2   -1    0    0    0  501 -0.00000000000E+00  0.00000000000E+00  0.29065255525E+03  0.29065255526E+03  0.25500000000E-02 0.  1.
          2   -1    0    0  501    0  0.00000000000E+00 -0.00000000000E+00 -0.87303789323E+03  0.87303789323E+03  0.25500000000E-02 0. -1.
    8880023    1    1    2    0    0 -0.10801385361E+03 -0.23436369830E+02 -0.13947924803E+03  0.68226162350E+03  0.65864270000E+03 0.  1.
    8880022    1    1    2    0    0  0.10801385361E+03  0.23436369830E+02 -0.44290608995E+03  0.48142882499E+03  0.15294330000E+03 0.  0.
<mgrwt>
<rscale>  0 0.48691544E+03</rscale>
<asrwt>0</asrwt>
<pdfrwt beam="1">  1        2 0.13431352E+00 0.66785213E+03</pdfrwt>
<pdfrwt beam="2">  1       -2 0.44715778E-01 0.66785213E+03</pdfrwt>
<totfact> 0.14750191E+02</totfact>
</mgrwt>
</event>
<event>
 4    1  0.2502834E-007  0.9450084E+03  0.7818608E-02  0.9457333E-01
         -2   -1    0    0    0  501 -0.00000000000E+00  0.00000000000E+00  0.31884679840E+03  0.31884679841E+03  0.25500000000E-02 0.  1.
          2   -1    0    0  501    0  0.00000000000E+00 -0.00000000000E+00 -0.23480418184E+04  0.23480418184E+04  0.25500000000E-02 0. -1.
    8880023    1    1    2    0    0  0.55234995209E+02 -0.67541075633E+03 -0.73189294112E+03  0.11952857725E+04  0.65864270000E+03 0.  0.
    8880022    1    1    2    0    0 -0.55234995209E+02  0.67541075633E+03 -0.12973020789E+04  0.14716028443E+04  0.15294330000E+03 0.  0.
<mgrwt>
<rscale>  0 0.87503949E+03</rscale>
<asrwt>0</asrwt>
<pdfrwt beam="1">  1        2 0.36123719E+00 0.94500836E+03</pdfrwt>
<pdfrwt beam="2">  1       -2 0.49053355E-01 0.94500836E+03</pdfrwt>
<totfact> 0.17015070E+01</totfact>
</mgrwt>
</event>
<event>
 4    1  0.2502834E-007  0.1137638E+04  0.7818608E-02  0.9220264E-01
         -2   -1    0    0    0  501 -0.00000000000E+00  0.00000000000E+00  0.12544063196E+04  0.12544063196E+04  0.25500000000E-02 0.  1.
          2   -1    0    0  501    0  0.00000000000E+00 -0.00000000000E+00 -0.12481621806E+04  0.12481621806E+04  0.25500000000E-02 0. -1.
    8880023    1    1    2    0    0 -0.38088212399E+02 -0.92680087858E+03  0.69860932938E+03  0.13350190193E+04  0.65864270000E+03 0.  0.
    8880022    1    1    2    0    0  0.38088212399E+02  0.92680087858E+03 -0.69236519045E+03  0.11675494809E+04  0.15294330000E+03 0.  0.
<mgrwt>
<rscale>  0 0.10846697E+04</rscale>
<asrwt>0</asrwt>
<pdfrwt beam="1">  1        2 0.19202495E+00 0.11376382E+04</pdfrwt>
<pdfrwt beam="2">  1       -2 0.19298559E+00 0.11376382E+04</pdfrwt>
<totfact> 0.25644223E+00</totfact>
</mgrwt>
</event>
<event>
 4    1  0.2502834E-007  0.9882805E+03  0.7818608E-02  0.9397053E-01
          2   -1    0    0  501    0  0.00000000000E+00  0.00000000000E+00  0.12450399853E+04  0.12450399853E+04  0.25500000000E-02 0. -1.
         -2   -1    0    0    0  501 -0.00000000000E+00 -0.00000000000E+00 -0.13607756632E+04  0.13607756632E+04  0.25500000000E-02 0.  1.
    8880023    1    1    2    0    0  0.11795059692E+03  0.72730724999E+03 -0.10261423242E+04  0.14246636287E+04  0.65864270000E+03 0.  1.
    8880022    1    1    2    0    0 -0.11795059692E+03 -0.72730724999E+03  0.91040664631E+03  0.11811520198E+04  0.15294330000E+03 0. -1.
<mgrwt>
<rscale>  0 0.92318569E+03</rscale>
<asrwt>0</asrwt>
<pdfrwt beam="1">  1        2 0.19154461E+00 0.98828052E+03</pdfrwt>
<pdfrwt beam="2">  1       -2 0.20935010E+00 0.98828052E+03</pdfrwt>
<totfact> 0.20474515E+00</totfact>
</mgrwt>
</event>
<event>
 4    1  0.2502834E-007  0.6933430E+03  0.7818608E-02  0.1002602E+00
         -2   -1    0    0    0  501 -0.00000000000E+00  0.00000000000E+00  0.26976416728E+03  0.26976416730E+03  0.25500000000E-02 0.  1.
          2   -1    0    0  501    0  0.00000000000E+00 -0.00000000000E+00 -0.23329747617E+04  0.23329747617E+04  0.25500000000E-02 0. -1.
    8880023    1    1    2    0    0 -0.11746449886E+03  0.18197921814E+03 -0.20120273375E+03  0.72194673672E+03  0.65864270000E+03 0.  1.
    8880022    1    1    2    0    0  0.11746449886E+03 -0.18197921814E+03 -0.18620078606E+04  0.18807921922E+04  0.15294330000E+03 0.  0.
<mgrwt>
<rscale>  0 0.54523680E+03</rscale>
<asrwt>0</asrwt>
<pdfrwt beam="1">  1        2 0.35891918E+00 0.69334303E+03</pdfrwt>
<pdfrwt beam="2">  1       -2 0.41502181E-01 0.69334303E+03</pdfrwt>
<totfact> 0.25065166E+01</totfact>
</mgrwt>
</event>
<event>
 4    1  0.2502834E-007  0.7155193E+03  0.7818608E-02  0.9938049E-01
         -2   -1    0    0    0  501 -0.00000000000E+00  0.00000000000E+00  0.99669095543E+03  0.99669095544E+03  0.25500000000E-02 0.  1.
          2   -1    0    0  501    0  0.00000000000E+00 -0.00000000000E+00 -0.12279569282E+04  0.12279569282E+04  0.25500000000E-02 0. -1.
    8880023    1    1    2    0    0 -0.19868549750E+03  0.19667657770E+03  0.84206662489E+03  0.11050086018E+04  0.65864270000E+03 0.  1.
    8880022    1    1    2    0    0  0.19868549750E+03 -0.19667657770E+03 -0.10733325977E+04  0.11196392818E+04  0.15294330000E+03 0.  0.
<mgrwt>
<rscale>  0 0.58452163E+03</rscale>
<asrwt>0</asrwt>
<pdfrwt beam="1">  1        2 0.18891645E+00 0.71551926E+03</pdfrwt>
<pdfrwt beam="2">  1       -2 0.15333707E+00 0.71551926E+03</pdfrwt>
<totfact> 0.52900996E+00</totfact>
</mgrwt>
</event>
<event>
 4    1  0.2502834E-007  0.8144728E+03  0.7818608E-02  0.9680334E-01
         -2   -1    0    0    0  501 -0.00000000000E+00  0.00000000000E+00  0.53884192363E+03  0.53884192364E+03  0.25500000000E-02 0.  1.
          2   -1    0    0  501    0  0.00000000000E+00 -0.00000000000E+00 -0.20599741081E+04  0.20599741081E+04  0.25500000000E-02 0. -1.
    8880023    1    1    2    0    0 -0.30456908360E+03  0.36985596065E+03  0.17211024721E+03  0.83245894900E+03  0.65864270000E+03 0.  1.
    8880022    1    1    2    0    0  0.30456908360E+03 -0.36985596065E+03 -0.16932424316E+04  0.17663570827E+04  0.15294330000E+03 0.  0.
<mgrwt>
<rscale>  0 0.72199838E+03</rscale>
<asrwt>0</asrwt>
<pdfrwt beam="1">  1        2 0.31691909E+00 0.81447281E+03</pdfrwt>
<pdfrwt beam="2">  1       -2 0.82898759E-01 0.81447281E+03</pdfrwt>
<totfact> 0.81041414E+00</totfact>
</mgrwt>
</event>
<event>
 4    1  0.2502834E-007  0.1049200E+04  0.7818608E-02  0.9319844E-01
         -2   -1    0    0    0  501 -0.00000000000E+00  0.00000000000E+00  0.54919783493E+04  0.54919783493E+04  0.25500000000E-02 0.  1.
          2   -1    0    0  501    0  0.00000000000E+00 -0.00000000000E+00 -0.33359674885E+03  0.33359674886E+03  0.25500000000E-02 0. -1.
    8880023    1    1    2    0    0 -0.67282181197E+03 -0.46294836698E+03  0.48125197896E+04  0.49255626392E+04  0.65864270000E+03 0.  1.
    8880022    1    1    2    0    0  0.67282181197E+03  0.46294836698E+03  0.34586181092E+03  0.90001245904E+03  0.15294330000E+03 0.  0.
<mgrwt>
<rscale>  0 0.98976356E+03</rscale>
<asrwt>0</asrwt>
<pdfrwt beam="1">  1        2 0.51322578E-01 0.10492000E+04</pdfrwt>
<pdfrwt beam="2">  1       -2 0.84491973E+00 0.10492000E+04</pdfrwt>
<totfact> 0.39278230E-03</totfact>
</mgrwt>
</event>
<event>
 4    1  0.2502834E-007  0.1612175E+04  0.7818608E-02  0.8834235E-01
         -2   -1    0    0    0  501 -0.00000000000E+00  0.00000000000E+00  0.20038080653E+04  0.20038080653E+04  0.25500000000E-02 0.  1.
          2   -1    0    0  501    0  0.00000000000E+00 -0.00000000000E+00 -0.15803788812E+04  0.15803788812E+04  0.25500000000E-02 0. -1.
    8880023    1    1    2    0    0 -0.10015228728E+04  0.10780776975E+04  0.11058094286E+04  0.19549742416E+04  0.65864270000E+03 0.  1.
    8880022    1    1    2    0    0  0.10015228728E+04 -0.10780776975E+04 -0.68238024449E+03  0.16292127049E+04  0.15294330000E+03 0.  0.
<mgrwt>
<rscale>  0 0.15779102E+04</rscale>
<asrwt>0</asrwt>
<pdfrwt beam="1">  1        2 0.24313521E+00 0.16121755E+04</pdfrwt>
<pdfrwt beam="2">  1       -2 0.30827816E+00 0.16121755E+04</pdfrwt>
<totfact> 0.30052708E-01</totfact>
</mgrwt>
</event>
<event>
 4    1  0.2502834E-007  0.6751594E+03  0.7818608E-02  0.1012206E+00
         -2   -1    0    0    0  501 -0.00000000000E+00  0.00000000000E+00  0.43387472065E+03  0.43387472066E+03  0.25500000000E-02 0.  1.
          2   -1    0    0  501    0  0.00000000000E+00 -0.00000000000E+00 -0.19690555668E+04  0.19690555668E+04  0.25500000000E-02 0. -1.
    8880023    1    1    2    0    0  0.11289558775E+03  0.96356610739E+02  0.16044620177E+03  0.69396195868E+03  0.65864270000E+03 0.  1.
    8880022    1    1    2    0    0 -0.11289558775E+03 -0.96356610739E+02 -0.16956270479E+04  0.17089683288E+04  0.15294330000E+03 0.  0.
<mgrwt>
<rscale>  0 0.50607236E+03</rscale>
<asrwt>0</asrwt>
<pdfrwt beam="1">  1        2 0.30293162E+00 0.67515940E+03</pdfrwt>
<pdfrwt beam="2">  1       -2 0.66749958E-01 0.67515940E+03</pdfrwt>
<totfact> 0.14987026E+01</totfact>
</mgrwt>
</event>
<event>
 4    1  0.2502834E-007  0.8715462E+03  0.7818608E-02  0.9573346E-01
         -2   -1    0    0    0  501 -0.00000000000E+00  0.00000000000E+00  0.85717685893E+03  0.85717685894E+03  0.25500000000E-02 0.  1.
          2   -1    0    0  501    0  0.00000000000E+00 -0.00000000000E+00 -0.75892651174E+03  0.75892651174E+03  0.25500000000E-02 0. -1.
    8880023    1    1    2    0    0  0.50357918062E+03  0.26868290976E+03  0.39265711534E+03  0.95591438615E+03  0.65864270000E+03 0.  0.
    8880022    1    1    2    0    0 -0.50357918062E+03 -0.26868290976E+03 -0.29440676814E+03  0.66018898453E+03  0.15294330000E+03 0.  0.
<mgrwt>
<rscale>  0 0.79085717E+03</rscale>
<asrwt>0</asrwt>
<pdfrwt beam="1">  1        2 0.11675792E+00 0.87154616E+03</pdfrwt>
<pdfrwt beam="2">  1       -2 0.13187336E+00 0.87154616E+03</pdfrwt>
<totfact> 0.15515081E+01</totfact>
</mgrwt>
</event>
<event>
 4    1  0.2502834E-007  0.8037574E+03  0.7818608E-02  0.9702730E-01
          2   -1    0    0  501    0  0.00000000000E+00  0.00000000000E+00  0.12468207625E+04  0.12468207625E+04  0.25500000000E-02 0. -1.
         -2   -1    0    0    0  501 -0.00000000000E+00 -0.00000000000E+00 -0.18233488167E+04  0.18233488167E+04  0.25500000000E-02 0.  1.
    8880023    1    1    2    0    0 -0.27751620291E+03 -0.36769613461E+03 -0.16812583558E+04  0.18635062531E+04  0.65864270000E+03 0.  0.
    8880022    1    1    2    0    0  0.27751620291E+03  0.36769613461E+03  0.11047303016E+04  0.12066633261E+04  0.15294330000E+03 0.  0.
<mgrwt>
<rscale>  0 0.70854482E+03</rscale>
<asrwt>0</asrwt>
<pdfrwt beam="1">  1        2 0.19181858E+00 0.80375736E+03</pdfrwt>
<pdfrwt beam="2">  1       -2 0.28051520E+00 0.80375736E+03</pdfrwt>
<totfact> 0.76819613E-01</totfact>
</mgrwt>
</event>
<event>
 4    1  0.2502834E-007  0.6692527E+03  0.7818608E-02  0.1016204E+00
          2   -1    0    0  501    0  0.00000000000E+00  0.00000000000E+00  0.55839918721E+04  0.55839918721E+04  0.25500000000E-02 0. -1.
         -2   -1    0    0    0  501 -0.00000000000E+00 -0.00000000000E+00 -0.26802252160E+03  0.26802252161E+03  0.25500000000E-02 0.  1.
    8880023    1    1    2    0    0 -0.57142017832E+02 -0.10403703142E+03  0.15442146110E+03  0.68683703163E+03  0.65864270000E+03 0.  1.
    8880022    1    1    2    0    0  0.57142017832E+02  0.10403703142E+03  0.51615478895E+04  0.51651773621E+04  0.15294330000E+03 0.  0.
<mgrwt>
<rscale>  0 0.49081559E+03</rscale>
<asrwt>0</asrwt>
<pdfrwt beam="1">  1        2 0.85907576E+00 0.66925266E+03</pdfrwt>
<pdfrwt beam="2">  1       -2 0.41234230E-01 0.66925266E+03</pdfrwt>
<totfact> 0.29733120E-02</totfact>
</mgrwt>
</event>
<event>
 4    1  0.2502834E-007  0.7182136E+03  0.7818608E-02  0.9928677E-01
          2   -1    0    0  501    0  0.00000000000E+00  0.00000000000E+00  0.27979940483E+04  0.27979940483E+04  0.25500000000E-02 0. -1.
         -2   -1    0    0    0  501 -0.00000000000E+00 -0.00000000000E+00 -0.12949003964E+03  0.12949003967E+03  0.25500000000E-02 0.  1.
    8880023    1    1    2    0    0  0.28054508042E+03 -0.57576707577E+02  0.10210875748E+04  0.12483792137E+04  0.65864270000E+03 0.  0.
    8880022    1    1    2    0    0 -0.28054508042E+03  0.57576707577E+02  0.16474164338E+04  0.16791048742E+04  0.15294330000E+03 0.  0.
<mgrwt>
<rscale>  0 0.58891366E+03</rscale>
<asrwt>0</asrwt>
<pdfrwt beam="1">  1        2 0.43046058E+00 0.71821364E+03</pdfrwt>
<pdfrwt beam="2">  1       -2 0.19921547E-01 0.71821364E+03</pdfrwt>
<totfact> 0.52498459E+01</totfact>
</mgrwt>
</event>
<event>
 4    1  0.2502834E-007  0.8852094E+03  0.7818608E-02  0.9550205E-01
          2   -1    0    0  501    0  0.00000000000E+00  0.00000000000E+00  0.10552467038E+04  0.10552467038E+04  0.25500000000E-02 0. -1.
         -2   -1    0    0    0  501 -0.00000000000E+00 -0.00000000000E+00 -0.80291421821E+03  0.80291421822E+03  0.25500000000E-02 0.  1.
    8880023    1    1    2    0    0  0.17302163550E+03 -0.56555195252E+03 -0.39390224905E+03  0.96889353668E+03  0.65864270000E+03 0.  0.
    8880022    1    1    2    0    0 -0.17302163550E+03  0.56555195252E+03  0.64623473460E+03  0.88926738530E+03  0.15294330000E+03 0.  0.
<mgrwt>
<rscale>  0 0.80681488E+03</rscale>
<asrwt>0</asrwt>
<pdfrwt beam="1">  1        2 0.16234565E+00 0.88520941E+03</pdfrwt>
<pdfrwt beam="2">  1       -2 0.12352526E+00 0.88520941E+03</pdfrwt>
<totfact> 0.11510139E+01</totfact>
</mgrwt>
</event>
<event>
 4    1  0.2502834E-007  0.1167714E+04  0.7818608E-02  0.9189164E-01
          2   -1    0    0  501    0  0.00000000000E+00  0.00000000000E+00  0.27053032178E+04  0.27053032178E+04  0.25500000000E-02 0. -1.
         -2   -1    0    0    0  501 -0.00000000000E+00 -0.00000000000E+00 -0.48057700562E+03  0.48057700563E+03  0.25500000000E-02 0.  1.
    8880023    1    1    2    0    0  0.23473777677E+03 -0.93522430532E+03  0.17409654264E+04  0.20963103652E+04  0.65864270000E+03 0.  0.
    8880022    1    1    2    0    0 -0.23473777677E+03  0.93522430532E+03  0.48376078581E+03  0.10895698583E+04  0.15294330000E+03 0.  0.
<mgrwt>
<rscale>  0 0.11165981E+04</rscale>
<asrwt>0</asrwt>
<pdfrwt beam="1">  1        2 0.41620050E+00 0.11677142E+04</pdfrwt>
<pdfrwt beam="2">  1       -2 0.73934923E-01 0.11677142E+04</pdfrwt>
<totfact> 0.43172260E+00</totfact>
</mgrwt>
</event>
<event>
 4    1  0.2502834E-007  0.7422672E+03  0.7818608E-02  0.9853391E-01
         -2   -1    0    0    0  501 -0.00000000000E+00  0.00000000000E+00  0.73493268386E+03  0.73493268386E+03  0.25500000000E-02 0.  1.
          2   -1    0    0  501    0  0.00000000000E+00 -0.00000000000E+00 -0.10624591359E+04  0.10624591359E+04  0.25500000000E-02 0. -1.
    8880023    1    1    2    0    0  0.24122450975E+03  0.24281926259E+03  0.49587373766E+03  0.89266535071E+03  0.65864270000E+03 0.  0.
    8880022    1    1    2    0    0 -0.24122450975E+03 -0.24281926259E+03 -0.82340018971E+03  0.90472646906E+03  0.15294330000E+03 0.  0.
<mgrwt>
<rscale>  0 0.62574305E+03</rscale>
<asrwt>0</asrwt>
<pdfrwt beam="1">  1        2 0.16345525E+00 0.74226725E+03</pdfrwt>
<pdfrwt beam="2">  1       -2 0.11306657E+00 0.74226725E+03</pdfrwt>
<totfact> 0.14390090E+01</totfact>
</mgrwt>
</event>
<event>
 4    1  0.2502834E-007  0.9386915E+03  0.7818608E-02  0.9466575E-01
         -2   -1    0    0    0  501 -0.00000000000E+00  0.00000000000E+00  0.11453662836E+04  0.11453662836E+04  0.25500000000E-02 0.  1.
          2   -1    0    0  501    0  0.00000000000E+00 -0.00000000000E+00 -0.29190607526E+04  0.29190607526E+04  0.25500000000E-02 0. -1.
    8880023    1    1    2    0    0 -0.66794168466E+03 -0.34431227011E+02  0.90220819307E+03  0.13019682920E+04  0.65864270000E+03 0.  1.
    8880022    1    1    2    0    0  0.66794168466E+03  0.34431227011E+02 -0.26759026621E+04  0.27624587442E+04  0.15294330000E+03 0.  0.
<mgrwt>
<rscale>  0 0.86793637E+03</rscale>
<asrwt>0</asrwt>
<pdfrwt beam="1">  1        2 0.44908627E+00 0.93869154E+03</pdfrwt>
<pdfrwt beam="2">  1       -2 0.17621020E+00 0.93869154E+03</pdfrwt>
<totfact> 0.38672275E-01</totfact>
</mgrwt>
</event>
<event>
 4    1  0.2502834E-007  0.9447267E+03  0.7818608E-02  0.9457742E-01
         -2   -1    0    0    0  501 -0.00000000000E+00  0.00000000000E+00  0.20243637201E+04  0.20243637201E+04  0.25500000000E-02 0.  1.
          2   -1    0    0  501    0  0.00000000000E+00 -0.00000000000E+00 -0.98259688797E+03  0.98259688798E+03  0.25500000000E-02 0. -1.
    8880023    1    1    2    0    0  0.41978564787E+02  0.67597045372E+03  0.17665300710E+04  0.20032815460E+04  0.65864270000E+03 0.  1.
    8880022    1    1    2    0    0 -0.41978564787E+02 -0.67597045372E+03 -0.72476323893E+03  0.10036790621E+04  0.15294330000E+03 0.  0.
<mgrwt>
<rscale>  0 0.87472318E+03</rscale>
<asrwt>0</asrwt>
<pdfrwt beam="1">  1        2 0.15116875E+00 0.94472666E+03</pdfrwt>
<pdfrwt beam="2">  1       -2 0.31144057E+00 0.94472666E+03</pdfrwt>
<totfact> 0.70874328E-01</totfact>
</mgrwt>
</event>
<event>
 4    1  0.2502834E-007  0.8184089E+03  0.7818608E-02  0.9672320E-01
         -2   -1    0    0    0  501 -0.00000000000E+00  0.00000000000E+00  0.21186880054E+04  0.21186880054E+04  0.25500000000E-02 0.  1.
          2   -1    0    0  501    0  0.00000000000E+00 -0.00000000000E+00 -0.58462802562E+03  0.58462802562E+03  0.25500000000E-02 0. -1.
    8880023    1    1    2    0    0  0.18735376208E+03  0.44819808864E+03  0.19049339614E+04  0.20732984740E+04  0.65864270000E+03 0.  0.
    8880022    1    1    2    0    0 -0.18735376208E+03 -0.44819808864E+03 -0.37087398164E+03  0.63001755698E+03  0.15294330000E+03 0.  0.
<mgrwt>
<rscale>  0 0.72689001E+03</rscale>
<asrwt>0</asrwt>
<pdfrwt beam="1">  1        2 0.89942771E-01 0.81840892E+03</pdfrwt>
<pdfrwt beam="2">  1       -2 0.32595201E+00 0.81840892E+03</pdfrwt>
<totfact> 0.11671986E+00</totfact>
</mgrwt>
</event>
<event>
 4    1  0.2502834E-007  0.1799219E+04  0.7818608E-02  0.8722969E-01
          2   -1    0    0  501    0  0.00000000000E+00  0.00000000000E+00  0.20179465140E+04  0.20179465140E+04  0.25500000000E-02 0. -1.
         -2   -1    0    0    0  501 -0.00000000000E+00 -0.00000000000E+00 -0.23258098534E+04  0.23258098534E+04  0.25500000000E-02 0.  1.
    8880023    1    1    2    0    0  0.16477572969E+04 -0.29711057862E+03  0.11357701218E+04  0.21277130401E+04  0.65864270000E+03 0.  0.
    8880022    1    1    2    0    0 -0.16477572969E+04  0.29711057862E+03 -0.14436334612E+04  0.22160433273E+04  0.15294330000E+03 0.  0.
<mgrwt>
<rscale>  0 0.17689858E+04</rscale>
<asrwt>0</asrwt>
<pdfrwt beam="1">  1        2 0.31045331E+00 0.17992190E+04</pdfrwt>
<pdfrwt beam="2">  1       -2 0.35781690E+00 0.17992190E+04</pdfrwt>
<totfact> 0.82170921E-02</totfact>
</mgrwt>
</event>
<event>
 4    1  0.2502834E-007  0.8031297E+03  0.7818608E-02  0.9704069E-01
         -2   -1    0    0    0  501 -0.00000000000E+00  0.00000000000E+00  0.15104034768E+04  0.15104034768E+04  0.25500000000E-02 0.  1.
          2   -1    0    0  501    0  0.00000000000E+00 -0.00000000000E+00 -0.11745878003E+04  0.11745878003E+04  0.25500000000E-02 0. -1.
    8880023    1    1    2    0    0  0.41179576342E+03 -0.20403776296E+03  0.13444630615E+04  0.15660773574E+04  0.65864270000E+03 0.  1.
    8880022    1    1    2    0    0 -0.41179576342E+03  0.20403776296E+03 -0.10086473849E+04  0.11189139197E+04  0.15294330000E+03 0.  0.
<mgrwt>
<rscale>  0 0.70775021E+03</rscale>
<asrwt>0</asrwt>
<pdfrwt beam="1">  1        2 0.18070582E+00 0.80312973E+03</pdfrwt>
<pdfrwt beam="2">  1       -2 0.23236976E+00 0.80312973E+03</pdfrwt>
<totfact> 0.16591767E+00</totfact>
</mgrwt>
</event>
<event>
 4    1  0.2502834E-007  0.7380003E+03  0.7818608E-02  0.9865811E-01
          2   -1    0    0  501    0  0.00000000000E+00  0.00000000000E+00  0.13562647121E+04  0.13562647121E+04  0.25500000000E-02 0. -1.
         -2   -1    0    0    0  501 -0.00000000000E+00 -0.00000000000E+00 -0.65526831885E+03  0.65526831886E+03  0.25500000000E-02 0.  1.
    8880023    1    1    2    0    0 -0.11597742242E+02 -0.33271574091E+03 -0.40821911452E+03  0.84337851740E+03  0.65864270000E+03 0.  0.
    8880022    1    1    2    0    0  0.11597742242E+02  0.33271574091E+03  0.11092155078E+04  0.11681545136E+04  0.15294330000E+03 0.  0.
<mgrwt>
<rscale>  0 0.61947240E+03</rscale>
<asrwt>0</asrwt>
<pdfrwt beam="1">  1        2 0.20865611E+00 0.73800032E+03</pdfrwt>
<pdfrwt beam="2">  1       -2 0.10081051E+00 0.73800032E+03</pdfrwt>
<totfact> 0.12716709E+01</totfact>
</mgrwt>
</event>
<event>
 4    1  0.2502834E-007  0.7936191E+03  0.7818608E-02  0.9724766E-01
         -2   -1    0    0    0  501 -0.00000000000E+00  0.00000000000E+00  0.11126889547E+04  0.11126889547E+04  0.25500000000E-02 0.  1.
          2   -1    0    0  501    0  0.00000000000E+00 -0.00000000000E+00 -0.65330739550E+03  0.65330739551E+03  0.25500000000E-02 0. -1.
    8880023    1    1    2    0    0  0.42036514288E+03  0.13897573879E+03  0.84501752152E+03  0.11592609401E+04  0.65864270000E+03 0.  0.
    8880022    1    1    2    0    0 -0.42036514288E+03 -0.13897573879E+03 -0.38563596237E+03  0.60673541005E+03  0.15294330000E+03 0.  0.
<mgrwt>
<rscale>  0 0.69561162E+03</rscale>
<asrwt>0</asrwt>
<pdfrwt beam="1">  1        2 0.10050883E+00 0.79361913E+03</pdfrwt>
<pdfrwt beam="2">  1       -2 0.17118291E+00 0.79361913E+03</pdfrwt>
<totfact> 0.94525104E+00</totfact>
</mgrwt>
</event>
<event>
 4    1  0.2502834E-007  0.7073285E+03  0.7818608E-02  0.9968058E-01
         -2   -1    0    0    0  501 -0.00000000000E+00  0.00000000000E+00  0.61431563341E+03  0.61431563342E+03  0.25500000000E-02 0.  1.
          2   -1    0    0  501    0  0.00000000000E+00 -0.00000000000E+00 -0.12222571709E+04  0.12222571709E+04  0.25500000000E-02 0. -1.
    8880023    1    1    2    0    0  0.23480829360E+03  0.10662320986E+03  0.38083631050E+03  0.80333675709E+03  0.65864270000E+03 0.  1.
    8880022    1    1    2    0    0 -0.23480829360E+03 -0.10662320986E+03 -0.98877784802E+03  0.10332360473E+04  0.15294330000E+03 0.  0.
<mgrwt>
<rscale>  0 0.57073287E+03</rscale>
<asrwt>0</asrwt>
<pdfrwt beam="1">  1        2 0.18803956E+00 0.70732853E+03</pdfrwt>
<pdfrwt beam="2">  1       -2 0.94510098E-01 0.70732853E+03</pdfrwt>
<totfact> 0.17757714E+01</totfact>
</mgrwt>
</event>
<event>
 4    1  0.2502834E-007  0.9414018E+03  0.7818608E-02  0.9462595E-01
          2   -1    0    0  501    0  0.00000000000E+00  0.00000000000E+00  0.11286328109E+04  0.11286328109E+04  0.25500000000E-02 0. -1.
         -2   -1    0    0    0  501 -0.00000000000E+00 -0.00000000000E+00 -0.10828264950E+04  0.10828264950E+04  0.25500000000E-02 0.  1.
    8880023    1    1    2    0    0  0.50769256617E+03  0.44122026007E+03 -0.71675053988E+03  0.11832026886E+04  0.65864270000E+03 0.  0.
    8880022    1    1    2    0    0 -0.50769256617E+03 -0.44122026007E+03  0.76255685574E+03  0.10282566172E+04  0.15294330000E+03 0.  0.
<mgrwt>
<rscale>  0 0.87098654E+03</rscale>
<asrwt>0</asrwt>
<pdfrwt beam="1">  1        2 0.17363582E+00 0.94140176E+03</pdfrwt>
<pdfrwt beam="2">  1       -2 0.16658869E+00 0.94140176E+03</pdfrwt>
<totfact> 0.47049684E+00</totfact>
</mgrwt>
</event>
<event>
 4    1  0.2502834E-007  0.1522645E+04  0.7818608E-02  0.8893809E-01
         -2   -1    0    0    0  501 -0.00000000000E+00  0.00000000000E+00  0.12300318076E+04  0.12300318076E+04  0.25500000000E-02 0.  1.
          2   -1    0    0  501    0  0.00000000000E+00 -0.00000000000E+00 -0.17470828650E+04  0.17470828651E+04  0.25500000000E-02 0. -1.
    8880023    1    1    2    0    0  0.12847606094E+04 -0.48376286662E+03 -0.47554642302E+03  0.15951774012E+04  0.65864270000E+03 0.  0.
    8880022    1    1    2    0    0 -0.12847606094E+04  0.48376286662E+03 -0.41504634402E+02  0.13819372715E+04  0.15294330000E+03 0.  0.
<mgrwt>
<rscale>  0 0.14860109E+04</rscale>
<asrwt>0</asrwt>
<pdfrwt beam="1">  1        2 0.26878198E+00 0.15226446E+04</pdfrwt>
<pdfrwt beam="2">  1       -2 0.18923566E+00 0.15226446E+04</pdfrwt>
<totfact> 0.13602823E+00</totfact>
</mgrwt>
</event>
<event>
 4    1  0.2502834E-007  0.7050206E+03  0.7818608E-02  0.9976978E-01
         -2   -1    0    0    0  501 -0.00000000000E+00  0.00000000000E+00  0.47357567259E+03  0.47357567259E+03  0.25500000000E-02 0.  1.
          2   -1    0    0  501    0  0.00000000000E+00 -0.00000000000E+00 -0.14557365911E+04  0.14557365911E+04  0.25500000000E-02 0. -1.
    8880023    1    1    2    0    0 -0.15167623199E+03 -0.20059465125E+03  0.18231564769E+03  0.72821225966E+03  0.65864270000E+03 0.  1.
    8880022    1    1    2    0    0  0.15167623199E+03  0.20059465125E+03 -0.11644765662E+04  0.12011000040E+04  0.15294330000E+03 0.  0.
<mgrwt>
<rscale>  0 0.56671328E+03</rscale>
<asrwt>0</asrwt>
<pdfrwt beam="1">  1        2 0.22395947E+00 0.70502064E+03</pdfrwt>
<pdfrwt beam="2">  1       -2 0.72857797E-01 0.70502064E+03</pdfrwt>
<totfact> 0.23551228E+01</totfact>
</mgrwt>
</event>
<event>
 4    1  0.2502834E-007  0.1013965E+04  0.7818608E-02  0.9363511E-01
         -2   -1    0    0    0  501 -0.00000000000E+00  0.00000000000E+00  0.13492354577E+04  0.13492354577E+04  0.25500000000E-02 0.  1.
          2   -1    0    0  501    0  0.00000000000E+00 -0.00000000000E+00 -0.10098805428E+04  0.10098805428E+04  0.25500000000E-02 0. -1.
    8880023    1    1    2    0    0 -0.35376303079E+03 -0.68495674792E+03  0.93008011192E+03  0.13759263241E+04  0.65864270000E+03 0.  0.
    8880022    1    1    2    0    0  0.35376303079E+03  0.68495674792E+03 -0.59072519698E+03  0.98318967643E+03  0.15294330000E+03 0.  0.
<mgrwt>
<rscale>  0 0.95140362E+03</rscale>
<asrwt>0</asrwt>
<pdfrwt beam="1">  1        2 0.15536624E+00 0.10139646E+04</pdfrwt>
<pdfrwt beam="2">  1       -2 0.20757469E+00 0.10139646E+04</pdfrwt>
<totfact> 0.29205110E+00</totfact>
</mgrwt>
</event>
<event>
 4    1  0.2502834E-007  0.1388683E+04  0.7818608E-02  0.8992527E-01
          2   -1    0    0  501    0  0.00000000000E+00  0.00000000000E+00  0.27216755766E+04  0.27216755766E+04  0.25500000000E-02 0. -1.
         -2   -1    0    0    0  501 -0.00000000000E+00 -0.00000000000E+00 -0.12030972299E+04  0.12030972299E+04  0.25500000000E-02 0.  1.
    8880023    1    1    2    0    0 -0.84897485827E+03  0.87969972242E+03 -0.56899359954E+03  0.15007310999E+04  0.65864270000E+03 0.  0.
    8880022    1    1    2    0    0  0.84897485827E+03 -0.87969972242E+03  0.20875719462E+04  0.24240417066E+04  0.15294330000E+03 0.  0.
<mgrwt>
<rscale>  0 0.13477584E+04</rscale>
<asrwt>0</asrwt>
<pdfrwt beam="1">  1        2 0.41871931E+00 0.13886829E+04</pdfrwt>
<pdfrwt beam="2">  1       -2 0.18509188E+00 0.13886829E+04</pdfrwt>
<totfact> 0.41160124E-01</totfact>
</mgrwt>
</event>
<event>
 4    1  0.2502834E-007  0.1745108E+04  0.7818608E-02  0.8753524E-01
          2   -1    0    0  501    0  0.00000000000E+00  0.00000000000E+00  0.27983211154E+04  0.27983211154E+04  0.25500000000E-02 0. -1.
         -2   -1    0    0    0  501 -0.00000000000E+00 -0.00000000000E+00 -0.12173570312E+04  0.12173570312E+04  0.25500000000E-02 0.  1.
    8880023    1    1    2    0    0  0.15939450816E+04  0.26633059213E+03 -0.66270315874E+01  0.17451209217E+04  0.65864270000E+03 0.  0.
    8880022    1    1    2    0    0 -0.15939450816E+04 -0.26633059213E+03  0.15875911158E+04  0.22705572249E+04  0.15294330000E+03 0.  0.
<mgrwt>
<rscale>  0 0.17138155E+04</rscale>
<asrwt>0</asrwt>
<pdfrwt beam="1">  1        2 0.43051094E+00 0.17451083E+04</pdfrwt>
<pdfrwt beam="2">  1       -2 0.18728570E+00 0.17451083E+04</pdfrwt>
<totfact> 0.34387359E-01</totfact>
</mgrwt>
</event>
<event>
 4    1  0.2502834E-007  0.7012033E+03  0.7818608E-02  0.9992246E-01
          2   -1    0    0  501    0  0.00000000000E+00  0.00000000000E+00  0.26996551841E+04  0.26996551841E+04  0.25500000000E-02 0. -1.
         -2   -1    0    0    0  501 -0.00000000000E+00 -0.00000000000E+00 -0.35479667391E+03  0.35479667392E+03  0.25500000000E-02 0.  1.
    8880023    1    1    2    0    0 -0.24007038499E+03  0.15557983616E+02  0.89990131640E+01  0.70126102779E+03  0.65864270000E+03 0.  1.
    8880022    1    1    2    0    0  0.24007038499E+03 -0.15557983616E+02  0.23358594971E+04  0.23531908303E+04  0.15294330000E+03 0.  0.
<mgrwt>
<rscale>  0 0.55991560E+03</rscale>
<asrwt>0</asrwt>
<pdfrwt beam="1">  1        2 0.41533157E+00 0.70120328E+03</pdfrwt>
<pdfrwt beam="2">  1       -2 0.54584103E-01 0.70120328E+03</pdfrwt>
<totfact> 0.89282852E+00</totfact>
</mgrwt>
</event>
<event>
 4    1  0.2502834E-007  0.7322326E+03  0.7818608E-02  0.9883179E-01
          2   -1    0    0  501    0  0.00000000000E+00  0.00000000000E+00  0.55986265693E+03  0.55986265693E+03  0.25500000000E-02 0. -1.
         -2   -1    0    0    0  501 -0.00000000000E+00 -0.00000000000E+00 -0.26985270646E+04  0.26985270646E+04  0.25500000000E-02 0.  1.
    8880023    1    1    2    0    0  0.31513059461E+03  0.55201032423E+02 -0.25859336459E+04  0.26876044115E+04  0.65864270000E+03 0.  0.
    8880022    1    1    2    0    0 -0.31513059461E+03 -0.55201032423E+02  0.44726923822E+03  0.57078531000E+03  0.15294330000E+03 0.  0.
<mgrwt>
<rscale>  0 0.61083460E+03</rscale>
<asrwt>0</asrwt>
<pdfrwt beam="1">  1        2 0.86132718E-01 0.73223265E+03</pdfrwt>
<pdfrwt beam="2">  1       -2 0.41515800E+00 0.73223265E+03</pdfrwt>
<totfact> 0.34036071E-01</totfact>
</mgrwt>
</event>
<event>
 4    1  0.2502834E-007  0.6629050E+03  0.7818608E-02  0.1021360E+00
          2   -1    0    0  501    0  0.00000000000E+00  0.00000000000E+00  0.17912435296E+04  0.17912435296E+04  0.25500000000E-02 0. -1.
         -2   -1    0    0    0  501 -0.00000000000E+00 -0.00000000000E+00 -0.23762721653E+03  0.23762721654E+03  0.25500000000E-02 0.  1.
    8880023    1    1    2    0    0 -0.64162576934E+02 -0.38936629484E+02  0.24116813374E+03  0.70541134977E+03  0.65864270000E+03 0.  1.
    8880022    1    1    2    0    0  0.64162576934E+02  0.38936629484E+02  0.13124481793E+04  0.13234593964E+04  0.15294330000E+03 0.  0.
<mgrwt>
<rscale>  0 0.47199151E+03</rscale>
<asrwt>0</asrwt>
<pdfrwt beam="1">  1        2 0.27557592E+00 0.66290505E+03</pdfrwt>
<pdfrwt beam="2">  1       -2 0.36558034E-01 0.66290505E+03</pdfrwt>
<totfact> 0.63652780E+01</totfact>
</mgrwt>
</event>
<event>
 4    1  0.2502834E-007  0.1026776E+04  0.7818608E-02  0.9347335E-01
         -2   -1    0    0    0  501 -0.00000000000E+00  0.00000000000E+00  0.44107899491E+03  0.44107899491E+03  0.25500000000E-02 0.  1.
          2   -1    0    0  501    0  0.00000000000E+00 -0.00000000000E+00 -0.26699101537E+04  0.26699101537E+04  0.25500000000E-02 0. -1.
    8880023    1    1    2    0    0 -0.57630435264E+03  0.53696543843E+03 -0.37876532822E+03  0.10944094157E+04  0.65864270000E+03 0. -1.
    8880022    1    1    2    0    0  0.57630435264E+03 -0.53696543843E+03 -0.18500658306E+04  0.20165797330E+04  0.15294330000E+03 0.  1.
<mgrwt>
<rscale>  0 0.96539460E+03</rscale>
<asrwt>0</asrwt>
<pdfrwt beam="1">  1        2 0.41075540E+00 0.10267759E+04</pdfrwt>
<pdfrwt beam="2">  1       -2 0.67858308E-01 0.10267759E+04</pdfrwt>
<totfact> 0.55652788E+00</totfact>
</mgrwt>
</event>
<event>
 4    1  0.2502834E-007  0.7464163E+03  0.7818608E-02  0.9841636E-01
         -2   -1    0    0    0  501 -0.00000000000E+00  0.00000000000E+00  0.21066516553E+04  0.21066516553E+04  0.25500000000E-02 0.  1.
          2   -1    0    0  501    0  0.00000000000E+00 -0.00000000000E+00 -0.39210411489E+03  0.39210411489E+03  0.25500000000E-02 0. -1.
    8880023    1    1    2    0    0  0.26741911971E+03  0.22762722899E+03  0.19229207887E+04  0.20627073731E+04  0.65864270000E+03 0.  1.
    8880022    1    1    2    0    0 -0.26741911971E+03 -0.22762722899E+03 -0.20837324834E+03  0.43604839709E+03  0.15294330000E+03 0.  0.
<mgrwt>
<rscale>  0 0.63175192E+03</rscale>
<asrwt>0</asrwt>
<pdfrwt beam="1">  1        2 0.60323708E-01 0.74641634E+03</pdfrwt>
<pdfrwt beam="2">  1       -2 0.32410026E+00 0.74641634E+03</pdfrwt>
<totfact> 0.19238608E+00</totfact>
</mgrwt>
</event>
<event>
 4    1  0.2502834E-007  0.1017720E+04  0.7818608E-02  0.9358734E-01
         -2   -1    0    0    0  501 -0.00000000000E+00  0.00000000000E+00  0.85683377401E+03  0.85683377401E+03  0.25500000000E-02 0.  1.
          2   -1    0    0  501    0  0.00000000000E+00 -0.00000000000E+00 -0.14535318607E+04  0.14535318607E+04  0.25500000000E-02 0. -1.
    8880023    1    1    2    0    0 -0.74029721296E+03 -0.23216992948E+03  0.35057081543E+03  0.10764074241E+04  0.65864270000E+03 0.  0.
    8880022    1    1    2    0    0  0.74029721296E+03  0.23216992948E+03 -0.94726890210E+03  0.12339582106E+04  0.15294330000E+03 0.  0.
<mgrwt>
<rscale>  0 0.95550977E+03</rscale>
<asrwt>0</asrwt>
<pdfrwt beam="1">  1        2 0.22362029E+00 0.10177195E+04</pdfrwt>
<pdfrwt beam="2">  1       -2 0.13182058E+00 0.10177195E+04</pdfrwt>
<totfact> 0.56045540E+00</totfact>
</mgrwt>
</event>
<event>
 4    1  0.2750681E-007  0.9707415E+03  0.7818608E-02  0.9420879E-01
          2   -1    0    0  501    0  0.00000000000E+00  0.00000000000E+00  0.26648144005E+04  0.26648144005E+04  0.25500000000E-02 0. -1.
         -2   -1    0    0    0  501 -0.00000000000E+00 -0.00000000000E+00 -0.88694035577E+03  0.88694035577E+03  0.25500000000E-02 0.  1.
    8880023    1    1    2    0    0 -0.74241931006E+02  0.70923684000E+03 -0.54763607777E+03  0.11145601103E+04  0.65864270000E+03 0.  0.
    8880022    1    1    2    0    0  0.74241931006E+02 -0.70923684000E+03  0.23255101225E+04  0.24371946459E+04  0.15294330000E+03 0.  0.
<mgrwt>
<rscale>  0 0.90377123E+03</rscale>
<asrwt>0</asrwt>
<pdfrwt beam="1">  1        2 0.40997144E+00 0.97074145E+03</pdfrwt>
<pdfrwt beam="2">  1       -2 0.13645236E+00 0.97074145E+03</pdfrwt>
<totfact> 0.10849215E+00</totfact>
</mgrwt>
</event>
<event>
 4    1  0.2502834E-007  0.8591399E+03  0.7818608E-02  0.9595095E-01
          2   -1    0    0  501    0  0.00000000000E+00  0.00000000000E+00  0.25980852814E+04  0.25980852814E+04  0.25500000000E-02 0. -1.
         -2   -1    0    0    0  501 -0.00000000000E+00 -0.00000000000E+00 -0.10182671993E+04  0.10182671993E+04  0.25500000000E-02 0.  1.
    8880023    1    1    2    0    0  0.29526579407E+03  0.46597123987E+03 -0.79680457307E+03  0.11717588572E+04  0.65864270000E+03 0.  1.
    8880022    1    1    2    0    0 -0.29526579407E+03 -0.46597123987E+03  0.23766226552E+04  0.24445936234E+04  0.15294330000E+03 0.  0.
<mgrwt>
<rscale>  0 0.77621657E+03</rscale>
<asrwt>0</asrwt>
<pdfrwt beam="1">  1        2 0.39970543E+00 0.85913986E+03</pdfrwt>
<pdfrwt beam="2">  1       -2 0.15665649E+00 0.85913986E+03</pdfrwt>
<totfact> 0.84057223E-01</totfact>
</mgrwt>
</event>
<event>
 4    1  0.2502834E-007  0.1217223E+04  0.7818608E-02  0.9140559E-01
          2   -1    0    0  501    0  0.00000000000E+00  0.00000000000E+00  0.87299180311E+03  0.87299180312E+03  0.25500000000E-02 0. -1.
         -2   -1    0    0    0  501 -0.00000000000E+00 -0.00000000000E+00 -0.19937042673E+04  0.19937042674E+04  0.25500000000E-02 0.  1.
    8880023    1    1    2    0    0  0.53686081765E+03  0.87155209967E+03 -0.13383231090E+04  0.18090720136E+04  0.65864270000E+03 0.  0.
    8880022    1    1    2    0    0 -0.53686081765E+03 -0.87155209967E+03  0.21761064477E+03  0.10576240569E+04  0.15294330000E+03 0.  0.
<mgrwt>
<rscale>  0 0.11688594E+04</rscale>
<asrwt>0</asrwt>
<pdfrwt beam="1">  1        2 0.13430643E+00 0.12172234E+04</pdfrwt>
<pdfrwt beam="2">  1       -2 0.30672373E+00 0.12172234E+04</pdfrwt>
<totfact> 0.86512972E-01</totfact>
</mgrwt>
</event>
<event>
 4    1  0.2502834E-007  0.9316079E+03  0.7818608E-02  0.9477085E-01
         -2   -1    0    0    0  501 -0.00000000000E+00  0.00000000000E+00  0.71693206095E+03  0.71693206096E+03  0.25500000000E-02 0.  1.
          2   -1    0    0  501    0  0.00000000000E+00 -0.00000000000E+00 -0.42242890879E+04  0.42242890879E+04  0.25500000000E-02 0. -1.
    8880023    1    1    2    0    0 -0.24133175368E+03 -0.61305954606E+03  0.37215422096E+03  0.10031909055E+04  0.65864270000E+03 0.  1.
    8880022    1    1    2    0    0  0.24133175368E+03  0.61305954606E+03 -0.38795112479E+04  0.39380302434E+04  0.15294330000E+03 0.  0.
<mgrwt>
<rscale>  0 0.85994514E+03</rscale>
<asrwt>0</asrwt>
<pdfrwt beam="1">  1        2 0.64989062E+00 0.93160787E+03</pdfrwt>
<pdfrwt beam="2">  1       -2 0.11029724E+00 0.93160787E+03</pdfrwt>
<totfact> 0.15550101E-01</totfact>
</mgrwt>
</event>
<event>
 4    1  0.2502834E-007  0.6660346E+03  0.7818608E-02  0.1018681E+00
         -2   -1    0    0    0  501 -0.00000000000E+00  0.00000000000E+00  0.35909518356E+03  0.35909518357E+03  0.25500000000E-02 0.  1.
          2   -1    0    0  501    0  0.00000000000E+00 -0.00000000000E+00 -0.20041464999E+04  0.20041464999E+04  0.25500000000E-02 0. -1.
    8880023    1    1    2    0    0 -0.98952676834E+02 -0.43625852899E+00  0.41078639070E+02  0.66730014493E+03  0.65864270000E+03 0.  1.
    8880022    1    1    2    0    0  0.98952676834E+02  0.43625852899E+00 -0.16861299554E+04  0.16959415385E+04  0.15294330000E+03 0.  0.
<mgrwt>
<rscale>  0 0.48165692E+03</rscale>
<asrwt>0</asrwt>
<pdfrwt beam="1">  1        2 0.30833022E+00 0.66603456E+03</pdfrwt>
<pdfrwt beam="2">  1       -2 0.55245414E-01 0.66603456E+03</pdfrwt>
<totfact> 0.21427197E+01</totfact>
</mgrwt>
</event>
<event>
 4    1  0.2502834E-007  0.7043354E+03  0.7818608E-02  0.9979670E-01
          2   -1    0    0  501    0  0.00000000000E+00  0.00000000000E+00  0.17063910938E+04  0.17063910938E+04  0.25500000000E-02 0. -1.
         -2   -1    0    0    0  501 -0.00000000000E+00 -0.00000000000E+00 -0.11845838250E+04  0.11845838251E+04  0.25500000000E-02 0.  1.
    8880023    1    1    2    0    0 -0.11063906883E+03  0.22368974315E+03 -0.10653091130E+04  0.12770950698E+04  0.65864270000E+03 0.  0.
    8880022    1    1    2    0    0  0.11063906883E+03 -0.22368974315E+03  0.15871163818E+04  0.16138798490E+04  0.15294330000E+03 0.  0.
<mgrwt>
<rscale>  0 0.56550710E+03</rscale>
<asrwt>0</asrwt>
<pdfrwt beam="1">  1        2 0.26252171E+00 0.70433537E+03</pdfrwt>
<pdfrwt beam="2">  1       -2 0.18224367E+00 0.70433537E+03</pdfrwt>
<totfact> 0.17754342E+00</totfact>
</mgrwt>
</event>
<event>
 4    1  0.2502834E-007  0.7157333E+03  0.7818608E-02  0.9937297E-01
         -2   -1    0    0    0  501 -0.00000000000E+00  0.00000000000E+00  0.12984896153E+03  0.12984896155E+03  0.25500000000E-02 0.  1.
          2   -1    0    0  501    0  0.00000000000E+00 -0.00000000000E+00 -0.45197691001E+04  0.45197691001E+04  0.25500000000E-02 0. -1.
    8880023    1    1    2    0    0 -0.26914815939E+03  0.77608988739E+02 -0.92276538008E+03  0.11678056515E+04  0.65864270000E+03 0.  1.
    8880022    1    1    2    0    0  0.26914815939E+03 -0.77608988739E+02 -0.34671547585E+04  0.34818124101E+04  0.15294330000E+03 0.  0.
<mgrwt>
<rscale>  0 0.58487287E+03</rscale>
<asrwt>0</asrwt>
<pdfrwt beam="1">  1        2 0.69534897E+00 0.71573326E+03</pdfrwt>
<pdfrwt beam="2">  1       -2 0.19976767E-01 0.71573326E+03</pdfrwt>
<totfact> 0.28783588E+00</totfact>
</mgrwt>
</event>
<event>
 4    1  0.2502834E-007  0.1081111E+04  0.7818608E-02  0.9282384E-01
          2   -1    0    0  501    0  0.00000000000E+00  0.00000000000E+00  0.20988204356E+04  0.20988204356E+04  0.25500000000E-02 0. -1.
         -2   -1    0    0    0  501 -0.00000000000E+00 -0.00000000000E+00 -0.53544860125E+03  0.53544860125E+03  0.25500000000E-02 0.  1.
    8880023    1    1    2    0    0 -0.63961819184E+03 -0.57085814532E+03  0.34139630237E+03  0.11337336967E+04  0.65864270000E+03 0. -1.
    8880022    1    1    2    0    0  0.63961819184E+03  0.57085814532E+03  0.12219755320E+04  0.15005353402E+04  0.15294330000E+03 0.  0.
<mgrwt>
<rscale>  0 0.10242092E+04</rscale>
<asrwt>0</asrwt>
<pdfrwt beam="1">  1        2 0.32289545E+00 0.10811108E+04</pdfrwt>
<pdfrwt beam="2">  1       -2 0.82376708E-01 0.10811108E+04</pdfrwt>
<totfact> 0.75696478E+00</totfact>
</mgrwt>
</event>
<event>
 4    1  0.2502834E-007  0.6924671E+03  0.7818608E-02  0.1003001E+00
         -2   -1    0    0    0  501 -0.00000000000E+00  0.00000000000E+00  0.63998262181E+03  0.63998262181E+03  0.25500000000E-02 0.  1.
          2   -1    0    0  501    0  0.00000000000E+00 -0.00000000000E+00 -0.42762388325E+03  0.42762388326E+03  0.25500000000E-02 0. -1.
    8880023    1    1    2    0    0  0.12738136916E+03 -0.17168117923E+03  0.34447639584E+03  0.77341750308E+03  0.65864270000E+03 0.  1.
    8880022    1    1    2    0    0 -0.12738136916E+03  0.17168117923E+03 -0.13211765728E+03  0.29418900199E+03  0.15294330000E+03 0.  0.
<mgrwt>
<rscale>  0 0.54353547E+03</rscale>
<asrwt>0</asrwt>
<pdfrwt beam="1">  1        2 0.65788290E-01 0.69246707E+03</pdfrwt>
<pdfrwt beam="2">  1       -2 0.98458865E-01 0.69246707E+03</pdfrwt>
<totfact> 0.64096031E+01</totfact>
</mgrwt>
</event>
<event>
 4    1  0.2502834E-007  0.1430982E+04  0.7818608E-02  0.8959975E-01
          2   -1    0    0  501    0  0.00000000000E+00  0.00000000000E+00  0.39610540535E+04  0.39610540535E+04  0.25500000000E-02 0. -1.
         -2   -1    0    0    0  501 -0.00000000000E+00 -0.00000000000E+00 -0.11637194330E+04  0.11637194330E+04  0.25500000000E-02 0.  1.
    8880023    1    1    2    0    0  0.61635034115E+03 -0.11108604716E+04  0.34159103048E+04  0.37035323878E+04  0.65864270000E+03 0.  0.
    8880022    1    1    2    0    0 -0.61635034115E+03  0.11108604716E+04 -0.61857568437E+03  0.14212410987E+04  0.15294330000E+03 0.  0.
<mgrwt>
<rscale>  0 0.13915259E+04</rscale>
<asrwt>0</asrwt>
<pdfrwt beam="1">  1        2 0.60939294E+00 0.14309818E+04</pdfrwt>
<pdfrwt beam="2">  1       -2 0.17903376E+00 0.14309818E+04</pdfrwt>
<totfact> 0.65472182E-02</totfact>
</mgrwt>
</event>
<event>
 4    1  0.2502834E-007  0.1904468E+04  0.7818608E-02  0.8666848E-01
          2   -1    0    0  501    0  0.00000000000E+00  0.00000000000E+00  0.21442570835E+04  0.21442570835E+04  0.25500000000E-02 0. -1.
         -2   -1    0    0    0  501 -0.00000000000E+00 -0.00000000000E+00 -0.21658783940E+04  0.21658783940E+04  0.25500000000E-02 0.  1.
    8880023    1    1    2    0    0  0.16843824134E+04 -0.59669553008E+03 -0.11177143768E+04  0.22082312615E+04  0.65864270000E+03 0.  0.
    8880022    1    1    2    0    0 -0.16843824134E+04  0.59669553008E+03  0.10960930663E+04  0.21019042160E+04  0.15294330000E+03 0.  0.
<mgrwt>
<rscale>  0 0.18760942E+04</rscale>
<asrwt>0</asrwt>
<pdfrwt beam="1">  1        2 0.32988571E+00 0.19044684E+04</pdfrwt>
<pdfrwt beam="2">  1       -2 0.33321206E+00 0.19044684E+04</pdfrwt>
<totfact> 0.98598324E-02</totfact>
</mgrwt>
</event>
<event>
 4    1  0.2502834E-007  0.7807322E+03  0.7818608E-02  0.9754120E-01
          2   -1    0    0  501    0  0.00000000000E+00  0.00000000000E+00  0.22319199279E+04  0.22319199279E+04  0.25500000000E-02 0. -1.
         -2   -1    0    0    0  501 -0.00000000000E+00 -0.00000000000E+00 -0.36831297580E+03  0.36831297581E+03  0.25500000000E-02 0.  1.
    8880023    1    1    2    0    0 -0.41397916440E+03 -0.65983855876E+02  0.10723644503E+03  0.78806248432E+03  0.65864270000E+03 0.  1.
    8880022    1    1    2    0    0  0.41397916440E+03  0.65983855876E+02  0.17563705071E+04  0.18121704194E+04  0.15294330000E+03 0.  0.
<mgrwt>
<rscale>  0 0.67883951E+03</rscale>
<asrwt>0</asrwt>
<pdfrwt beam="1">  1        2 0.34337229E+00 0.78073224E+03</pdfrwt>
<pdfrwt beam="2">  1       -2 0.56663535E-01 0.78073224E+03</pdfrwt>
<totfact> 0.14988696E+01</totfact>
</mgrwt>
</event>
<event>
 4    1  0.2502834E-007  0.1139122E+04  0.7818608E-02  0.9218699E-01
         -2   -1    0    0    0  501 -0.00000000000E+00  0.00000000000E+00  0.11560269132E+04  0.11560269132E+04  0.25500000000E-02 0.  1.
          2   -1    0    0  501    0  0.00000000000E+00 -0.00000000000E+00 -0.27111419398E+04  0.27111419398E+04  0.25500000000E-02 0. -1.
    8880023    1    1    2    0    0 -0.16270490231E+03 -0.91504988525E+03  0.75892100665E+03  0.13687806538E+04  0.65864270000E+03 0.  1.
    8880022    1    1    2    0    0  0.16270490231E+03  0.91504988525E+03 -0.23140360332E+04  0.24983881992E+04  0.15294330000E+03 0.  0.
<mgrwt>
<rscale>  0 0.10862487E+04</rscale>
<asrwt>0</asrwt>
<pdfrwt beam="1">  1        2 0.41709876E+00 0.11391222E+04</pdfrwt>
<pdfrwt beam="2">  1       -2 0.17785030E+00 0.11391222E+04</pdfrwt>
<totfact> 0.48472601E-01</totfact>
</mgrwt>
</event>
<event>
 4    1  0.2502834E-007  0.7942974E+03  0.7818608E-02  0.9723265E-01
         -2   -1    0    0    0  501 -0.00000000000E+00  0.00000000000E+00  0.83841343574E+03  0.83841343574E+03  0.25500000000E-02 0.  1.
          2   -1    0    0  501    0  0.00000000000E+00 -0.00000000000E+00 -0.62046135067E+03  0.62046135068E+03  0.25500000000E-02 0. -1.
    8880023    1    1    2    0    0 -0.38711713146E+03  0.21734418735E+03  0.47305061004E+03  0.92449189026E+03  0.65864270000E+03 0.  0.
    8880022    1    1    2    0    0  0.38711713146E+03 -0.21734418735E+03 -0.25509852497E+03  0.53438289615E+03  0.15294330000E+03 0.  0.
<mgrwt>
<rscale>  0 0.69648365E+03</rscale>
<asrwt>0</asrwt>
<pdfrwt beam="1">  1        2 0.95455593E-01 0.79429741E+03</pdfrwt>
<pdfrwt beam="2">  1       -2 0.12898668E+00 0.79429741E+03</pdfrwt>
<totfact> 0.21292978E+01</totfact>
</mgrwt>
</event>
<event>
 4    1  0.2502834E-007  0.8378561E+03  0.7818608E-02  0.9634236E-01
         -2   -1    0    0    0  501 -0.00000000000E+00  0.00000000000E+00  0.68050061783E+03  0.68050061784E+03  0.25500000000E-02 0.  1.
          2   -1    0    0  501    0  0.00000000000E+00 -0.00000000000E+00 -0.70602380274E+03  0.70602380274E+03  0.25500000000E-02 0. -1.
    8880023    1    1    2    0    0  0.51495523081E+03 -0.54897602910E+02 -0.90120472533E+02  0.84268887638E+03  0.65864270000E+03 0.  0.
    8880022    1    1    2    0    0 -0.51495523081E+03  0.54897602910E+02  0.64597287627E+02  0.54383554420E+03  0.15294330000E+03 0. -1.
<mgrwt>
<rscale>  0 0.75071068E+03</rscale>
<asrwt>0</asrwt>
<pdfrwt beam="1">  1        2 0.10861905E+00 0.83785610E+03</pdfrwt>
<pdfrwt beam="2">  1       -2 0.10469240E+00 0.83785610E+03</pdfrwt>
<totfact> 0.30192010E+01</totfact>
</mgrwt>
</event>
<event>
 4    1  0.2502834E-007  0.7532396E+03  0.7818608E-02  0.9822935E-01
          2   -1    0    0  501    0  0.00000000000E+00  0.00000000000E+00  0.30373547388E+04  0.30373547388E+04  0.25500000000E-02 0. -1.
         -2   -1    0    0    0  501 -0.00000000000E+00 -0.00000000000E+00 -0.52999154714E+03  0.52999154715E+03  0.25500000000E-02 0.  1.
    8880023    1    1    2    0    0  0.16852683624E+03 -0.32428131595E+03 -0.24078505518E+03  0.79078904612E+03  0.65864270000E+03 0.  1.
    8880022    1    1    2    0    0 -0.16852683624E+03  0.32428131595E+03  0.27481482468E+04  0.27765572398E+04  0.15294330000E+03 0.  0.
<mgrwt>
<rscale>  0 0.64146132E+03</rscale>
<asrwt>0</asrwt>
<pdfrwt beam="1">  1        2 0.46728534E+00 0.75323959E+03</pdfrwt>
<pdfrwt beam="2">  1       -2 0.81537161E-01 0.75323959E+03</pdfrwt>
<totfact> 0.23327110E+00</totfact>
</mgrwt>
</event>
<event>
 4    1  0.2502834E-007  0.9036929E+03  0.7818608E-02  0.9520129E-01
          2   -1    0    0  501    0  0.00000000000E+00  0.00000000000E+00  0.26083336405E+04  0.26083336405E+04  0.25500000000E-02 0. -1.
         -2   -1    0    0    0  501 -0.00000000000E+00 -0.00000000000E+00 -0.36565214332E+03  0.36565214333E+03  0.25500000000E-02 0.  1.
    8880023    1    1    2    0    0  0.42697585398E+03 -0.44781951821E+03  0.21470478757E+04  0.23294796602E+04  0.65864270000E+03 0. -1.
    8880022    1    1    2    0    0 -0.42697585398E+03  0.44781951821E+03  0.95633621505E+02  0.64450612359E+03  0.15294330000E+03 0.  0.
<mgrwt>
<rscale>  0 0.82815917E+03</rscale>
<asrwt>0</asrwt>
<pdfrwt beam="1">  1        2 0.40128210E+00 0.90369293E+03</pdfrwt>
<pdfrwt beam="2">  1       -2 0.56254175E-01 0.90369293E+03</pdfrwt>
<totfact> 0.91675513E+00</totfact>
</mgrwt>
</event>
<event>
 4    1  0.2502834E-007  0.8078498E+03  0.7818608E-02  0.9694073E-01
          2   -1    0    0  501    0  0.00000000000E+00  0.00000000000E+00  0.67005097844E+03  0.67005097845E+03  0.25500000000E-02 0. -1.
         -2   -1    0    0    0  501 -0.00000000000E+00 -0.00000000000E+00 -0.11367259017E+04  0.11367259017E+04  0.25500000000E-02 0.  1.
    8880023    1    1    2    0    0 -0.33400430101E+03  0.32749373770E+03 -0.85766706823E+03  0.11782249478E+04  0.65864270000E+03 0.  1.
    8880022    1    1    2    0    0  0.33400430101E+03 -0.32749373770E+03  0.39099214495E+03  0.62855193242E+03  0.15294330000E+03 0.  0.
<mgrwt>
<rscale>  0 0.71370759E+03</rscale>
<asrwt>0</asrwt>
<pdfrwt beam="1">  1        2 0.10308477E+00 0.80784976E+03</pdfrwt>
<pdfrwt beam="2">  1       -2 0.17488091E+00 0.80784976E+03</pdfrwt>
<totfact> 0.86155248E+00</totfact>
</mgrwt>
</event>
<event>
 4    1  0.2502834E-007  0.8380235E+03  0.7818608E-02  0.9633918E-01
          2   -1    0    0  501    0  0.00000000000E+00  0.00000000000E+00  0.24465791144E+04  0.24465791144E+04  0.25500000000E-02 0. -1.
         -2   -1    0    0    0  501 -0.00000000000E+00 -0.00000000000E+00 -0.24710073498E+03  0.24710073499E+03  0.25500000000E-02 0.  1.
    8880023    1    1    2    0    0  0.50728080969E+03 -0.10554332752E+03  0.18985482266E+04  0.20752755935E+04  0.65864270000E+03 0.  0.
    8880022    1    1    2    0    0 -0.50728080969E+03  0.10554332752E+03  0.30093015284E+03  0.61840425595E+03  0.15294330000E+03 0.  0.
<mgrwt>
<rscale>  0 0.75091345E+03</rscale>
<asrwt>0</asrwt>
<pdfrwt beam="1">  1        2 0.37639678E+00 0.83802352E+03</pdfrwt>
<pdfrwt beam="2">  1       -2 0.38015499E-01 0.83802352E+03</pdfrwt>
<totfact> 0.25159699E+01</totfact>
</mgrwt>
</event>
<event>
 4    1  0.2502834E-007  0.7320614E+03  0.7818608E-02  0.9883706E-01
         -2   -1    0    0    0  501 -0.00000000000E+00  0.00000000000E+00  0.13968084800E+04  0.13968084800E+04  0.25500000000E-02 0.  1.
          2   -1    0    0  501    0  0.00000000000E+00 -0.00000000000E+00 -0.18104675641E+04  0.18104675641E+04  0.25500000000E-02 0. -1.
    8880023    1    1    2    0    0 -0.13570432844E+03  0.28928874903E+03  0.12813045477E+04  0.14756880414E+04  0.65864270000E+03 0.  1.
    8880022    1    1    2    0    0  0.13570432844E+03 -0.28928874903E+03 -0.16949636318E+04  0.17315880027E+04  0.15294330000E+03 0.  0.
<mgrwt>
<rscale>  0 0.61057504E+03</rscale>
<asrwt>0</asrwt>
<pdfrwt beam="1">  1        2 0.27853347E+00 0.73206137E+03</pdfrwt>
<pdfrwt beam="2">  1       -2 0.21489361E+00 0.73206137E+03</pdfrwt>
<totfact> 0.94819505E-01</totfact>
</mgrwt>
</event>
<event>
 4    1  0.2502834E-007  0.8621638E+03  0.7818608E-02  0.9589726E-01
         -2   -1    0    0    0  501 -0.00000000000E+00  0.00000000000E+00  0.28055225288E+03  0.28055225290E+03  0.25500000000E-02 0.  1.
          2   -1    0    0  501    0  0.00000000000E+00 -0.00000000000E+00 -0.29166052094E+04  0.29166052094E+04  0.25500000000E-02 0. -1.
    8880023    1    1    2    0    0 -0.54840494889E+03 -0.93638725232E+02 -0.52670209441E+03  0.10103175250E+04  0.65864270000E+03 0.  1.
    8880022    1    1    2    0    0  0.54840494889E+03  0.93638725232E+02 -0.21093508621E+04  0.21868399373E+04  0.15294330000E+03 0.  0.
<mgrwt>
<rscale>  0 0.77979930E+03</rscale>
<asrwt>0</asrwt>
<pdfrwt beam="1">  1        2 0.44870847E+00 0.86216379E+03</pdfrwt>
<pdfrwt beam="2">  1       -2 0.43161887E-01 0.86216379E+03</pdfrwt>
<totfact> 0.10396697E+01</totfact>
</mgrwt>
</event>
<event>
 4    1  0.2502834E-007  0.8106537E+03  0.7818608E-02  0.9688217E-01
          2   -1    0    0  501    0  0.00000000000E+00  0.00000000000E+00  0.19722332477E+04  0.19722332477E+04  0.25500000000E-02 0. -1.
         -2   -1    0    0    0  501 -0.00000000000E+00 -0.00000000000E+00 -0.26752964600E+03  0.26752964601E+03  0.25500000000E-02 0.  1.
    8880023    1    1    2    0    0  0.36029899538E+03  0.30583311062E+03  0.54132933006E+03  0.97478044065E+03  0.65864270000E+03 0.  0.
    8880022    1    1    2    0    0 -0.36029899538E+03 -0.30583311062E+03  0.11633742716E+04  0.12649824530E+04  0.15294330000E+03 0.  0.
<mgrwt>
<rscale>  0 0.71722709E+03</rscale>
<asrwt>0</asrwt>
<pdfrwt beam="1">  1        2 0.30342050E+00 0.81065373E+03</pdfrwt>
<pdfrwt beam="2">  1       -2 0.41158407E-01 0.81065373E+03</pdfrwt>
<totfact> 0.39610523E+01</totfact>
</mgrwt>
</event>
<event>
 4    1  0.2502834E-007  0.7164566E+03  0.7818608E-02  0.9934763E-01
          2   -1    0    0  501    0  0.00000000000E+00  0.00000000000E+00  0.64857734335E+03  0.64857734336E+03  0.25500000000E-02 0. -1.
         -2   -1    0    0    0  501 -0.00000000000E+00 -0.00000000000E+00 -0.96090470308E+03  0.96090470308E+03  0.25500000000E-02 0.  1.
    8880023    1    1    2    0    0 -0.22476927600E+03  0.17023095603E+03 -0.76924477562E+03  0.10512124128E+04  0.65864270000E+03 0.  0.
    8880022    1    1    2    0    0  0.22476927600E+03 -0.17023095603E+03  0.45691741590E+03  0.55826963359E+03  0.15294330000E+03 0.  0.
<mgrwt>
<rscale>  0 0.58605694E+03</rscale>
<asrwt>0</asrwt>
<pdfrwt beam="1">  1        2 0.99781130E-01 0.71645657E+03</pdfrwt>
<pdfrwt beam="2">  1       -2 0.14783149E+00 0.71645657E+03</pdfrwt>
<totfact> 0.14294000E+01</totfact>
</mgrwt>
</event>
<event>
 4    1  0.2502834E-007  0.1118523E+04  0.7818608E-02  0.9240708E-01
         -2   -1    0    0    0  501 -0.00000000000E+00  0.00000000000E+00  0.63226084787E+03  0.63226084787E+03  0.25500000000E-02 0.  1.
          2   -1    0    0  501    0  0.00000000000E+00 -0.00000000000E+00 -0.34728114014E+04  0.34728114014E+04  0.25500000000E-02 0. -1.
    8880023    1    1    2    0    0 -0.75467236394E+01 -0.90400622486E+03  0.17707308450E+01  0.11185247201E+04  0.65864270000E+03 0.  0.
    8880022    1    1    2    0    0  0.75467236394E+01  0.90400622486E+03 -0.28423212843E+04  0.29865475292E+04  0.15294330000E+03 0.  0.
<mgrwt>
<rscale>  0 0.10642958E+04</rscale>
<asrwt>0</asrwt>
<pdfrwt beam="1">  1        2 0.53427867E+00 0.11185233E+04</pdfrwt>
<pdfrwt beam="2">  1       -2 0.97270901E-01 0.11185233E+04</pdfrwt>
<totfact> 0.75839360E-01</totfact>
</mgrwt>
</event>
<event>
 4    1  0.2502834E-007  0.9004289E+03  0.7818608E-02  0.9525343E-01
         -2   -1    0    0    0  501 -0.00000000000E+00  0.00000000000E+00  0.22722020987E+04  0.22722020987E+04  0.25500000000E-02 0.  1.
          2   -1    0    0  501    0  0.00000000000E+00 -0.00000000000E+00 -0.38695119892E+03  0.38695119893E+03  0.25500000000E-02 0. -1.
    8880023    1    1    2    0    0  0.60160899083E+03  0.12259124006E+03  0.18104601118E+04  0.20220133562E+04  0.65864270000E+03 0.  1.
    8880022    1    1    2    0    0 -0.60160899083E+03 -0.12259124006E+03  0.74790787983E+02  0.63713994143E+03  0.15294330000E+03 0.  0.
<mgrwt>
<rscale>  0 0.82440865E+03</rscale>
<asrwt>0</asrwt>
<pdfrwt beam="1">  1        2 0.59530953E-01 0.90042890E+03</pdfrwt>
<pdfrwt beam="2">  1       -2 0.34956956E+00 0.90042890E+03</pdfrwt>
<totfact> 0.13301862E+00</totfact>
</mgrwt>
</event>
<event>
 4    1  0.2502834E-007  0.6623812E+03  0.7818608E-02  0.1021839E+00
         -2   -1    0    0    0  501 -0.00000000000E+00  0.00000000000E+00  0.55596878015E+03  0.55596878016E+03  0.25500000000E-02 0.  1.
          2   -1    0    0  501    0  0.00000000000E+00 -0.00000000000E+00 -0.20842427016E+04  0.20842427016E+04  0.25500000000E-02 0. -1.
    8880023    1    1    2    0    0 -0.44539199086E+02  0.54358528892E+02  0.35358050355E+03  0.75084483661E+03  0.65864270000E+03 0.  1.
    8880022    1    1    2    0    0  0.44539199086E+02 -0.54358528892E+02 -0.18818544250E+04  0.18893666451E+04  0.15294330000E+03 0.  0.
<mgrwt>
<rscale>  0 0.47028623E+03</rscale>
<asrwt>0</asrwt>
<pdfrwt beam="1">  1        2 0.32065272E+00 0.66238116E+03</pdfrwt>
<pdfrwt beam="2">  1       -2 0.85533659E-01 0.66238116E+03</pdfrwt>
<totfact> 0.75034937E+00</totfact>
</mgrwt>
</event>
<event>
 4    1  0.2502834E-007  0.1148250E+04  0.7818608E-02  0.9209146E-01
          2   -1    0    0  501    0  0.00000000000E+00  0.00000000000E+00  0.18734053649E+04  0.18734053649E+04  0.25500000000E-02 0. -1.
         -2   -1    0    0    0  501 -0.00000000000E+00 -0.00000000000E+00 -0.78442706834E+03  0.78442706835E+03  0.25500000000E-02 0.  1.
    8880023    1    1    2    0    0 -0.91827415952E+03  0.20357194965E+03 -0.78376665347E+02  0.11509222731E+04  0.65864270000E+03 0.  0.
    8880022    1    1    2    0    0  0.91827415952E+03 -0.20357194965E+03  0.11673549619E+04  0.15069101601E+04  0.15294330000E+03 0.  0.
<mgrwt>
<rscale>  0 0.10959528E+04</rscale>
<asrwt>0</asrwt>
<pdfrwt beam="1">  1        2 0.28821621E+00 0.11482505E+04</pdfrwt>
<pdfrwt beam="2">  1       -2 0.12068109E+00 0.11482505E+04</pdfrwt>
<totfact> 0.40343070E+00</totfact>
</mgrwt>
</event>
<event>
 4    1  0.2502834E-007  0.1245249E+04  0.7818608E-02  0.9114345E-01
         -2   -1    0    0    0  501 -0.00000000000E+00  0.00000000000E+00  0.10212100796E+04  0.10212100796E+04  0.25500000000E-02 0.  1.
          2   -1    0    0  501    0  0.00000000000E+00 -0.00000000000E+00 -0.17473825858E+04  0.17473825858E+04  0.25500000000E-02 0. -1.
    8880023    1    1    2    0    0 -0.12184386262E+03 -0.10497561970E+04 -0.10751788450E+04  0.16451910998E+04  0.65864270000E+03 0.  0.
    8880022    1    1    2    0    0  0.12184386262E+03  0.10497561970E+04  0.34900633879E+03  0.11234015656E+04  0.15294330000E+03 0.  0.
<mgrwt>
<rscale>  0 0.11983010E+04</rscale>
<asrwt>0</asrwt>
<pdfrwt beam="1">  1        2 0.26882809E+00 0.12452487E+04</pdfrwt>
<pdfrwt beam="2">  1       -2 0.15710924E+00 0.12452487E+04</pdfrwt>
<totfact> 0.23626597E+00</totfact>
</mgrwt>
</event>
<event>
 4    1  0.2502834E-007  0.7634884E+03  0.7818608E-02  0.9796159E-01
         -2   -1    0    0    0  501 -0.00000000000E+00  0.00000000000E+00  0.54194148918E+03  0.54194148919E+03  0.25500000000E-02 0.  1.
          2   -1    0    0  501    0  0.00000000000E+00 -0.00000000000E+00 -0.14247537670E+04  0.14247537670E+04  0.25500000000E-02 0. -1.
    8880023    1    1    2    0    0  0.32358024470E+03  0.21071360536E+03  0.21480315938E+03  0.79312987700E+03  0.65864270000E+03 0.  0.
    8880022    1    1    2    0    0 -0.32358024470E+03 -0.21071360536E+03 -0.10976154372E+04  0.11735653792E+04  0.15294330000E+03 0.  0.
<mgrwt>
<rscale>  0 0.65569104E+03</rscale>
<asrwt>0</asrwt>
<pdfrwt beam="1">  1        2 0.21919289E+00 0.76348844E+03</pdfrwt>
<pdfrwt beam="2">  1       -2 0.83375614E-01 0.76348844E+03</pdfrwt>
<totfact> 0.18005902E+01</totfact>
</mgrwt>
</event>
<event>
 4    1  0.2502834E-007  0.9758618E+03  0.7818608E-02  0.9413842E-01
          2   -1    0    0  501    0  0.00000000000E+00  0.00000000000E+00  0.78270993199E+03  0.78270993200E+03  0.25500000000E-02 0. -1.
         -2   -1    0    0    0  501 -0.00000000000E+00 -0.00000000000E+00 -0.18915874321E+04  0.18915874321E+04  0.25500000000E-02 0.  1.
    8880023    1    1    2    0    0  0.23669795301E+03 -0.68005161587E+03 -0.15385576444E+04  0.18219401617E+04  0.65864270000E+03 0.  0.
    8880022    1    1    2    0    0 -0.23669795301E+03  0.68005161587E+03  0.42968014428E+03  0.85235720247E+03  0.15294330000E+03 0.  0.
<mgrwt>
<rscale>  0 0.90945229E+03</rscale>
<asrwt>0</asrwt>
<pdfrwt beam="1">  1        2 0.12041691E+00 0.97586184E+03</pdfrwt>
<pdfrwt beam="2">  1       -2 0.29101345E+00 0.97586184E+03</pdfrwt>
<totfact> 0.12873903E+00</totfact>
</mgrwt>
</event>
<event>
 4    1  0.2502834E-007  0.9817497E+03  0.7818608E-02  0.9405834E-01
          2   -1    0    0  501    0  0.00000000000E+00  0.00000000000E+00  0.40903652091E+04  0.40903652091E+04  0.25500000000E-02 0. -1.
         -2   -1    0    0    0  501 -0.00000000000E+00 -0.00000000000E+00 -0.33082759888E+03  0.33082759889E+03  0.25500000000E-02 0.  1.
    8880023    1    1    2    0    0 -0.39169110606E+02  0.72697181032E+03  0.54741998782E+03  0.11240556399E+04  0.65864270000E+03 0.  0.
    8880022    1    1    2    0    0  0.39169110606E+02 -0.72697181032E+03  0.32121176224E+04  0.32971371681E+04  0.15294330000E+03 0.  0.
<mgrwt>
<rscale>  0 0.91597123E+03</rscale>
<asrwt>0</asrwt>
<pdfrwt beam="1">  1        2 0.62928693E+00 0.98174968E+03</pdfrwt>
<pdfrwt beam="2">  1       -2 0.50896555E-01 0.98174968E+03</pdfrwt>
<totfact> 0.11172802E+00</totfact>
</mgrwt>
</event>
<event>
 4    1  0.2502834E-007  0.8403762E+03  0.7818608E-02  0.9629471E-01
          2   -1    0    0  501    0  0.00000000000E+00  0.00000000000E+00  0.27967172038E+04  0.27967172038E+04  0.25500000000E-02 0. -1.
         -2   -1    0    0    0  501 -0.00000000000E+00 -0.00000000000E+00 -0.23090705004E+03  0.23090705006E+03  0.25500000000E-02 0.  1.
    8880023    1    1    2    0    0  0.55577886763E+02 -0.51897305462E+03  0.73073399990E+03  0.11136446102E+04  0.65864270000E+03 0.  0.
    8880022    1    1    2    0    0 -0.55577886763E+02  0.51897305462E+03  0.18350761538E+04  0.19139796437E+04  0.15294330000E+03 0.  0.
<mgrwt>
<rscale>  0 0.75375910E+03</rscale>
<asrwt>0</asrwt>
<pdfrwt beam="1">  1        2 0.43026417E+00 0.84037619E+03</pdfrwt>
<pdfrwt beam="2">  1       -2 0.35524163E-01 0.84037619E+03</pdfrwt>
<totfact> 0.17978868E+01</totfact>
</mgrwt>
</event>
<event>
 4    1  0.2502834E-007  0.1141837E+04  0.7818608E-02  0.9215846E-01
          2   -1    0    0  501    0  0.00000000000E+00  0.00000000000E+00  0.32456974680E+04  0.32456974680E+04  0.25500000000E-02 0. -1.
         -2   -1    0    0    0  501 -0.00000000000E+00 -0.00000000000E+00 -0.10491906776E+04  0.10491906776E+04  0.25500000000E-02 0.  1.
    8880023    1    1    2    0    0 -0.47061707242E+03 -0.80529545901E+03 -0.63727333729E+03  0.13076347800E+04  0.65864270000E+03 0.  1.
    8880022    1    1    2    0    0  0.47061707242E+03  0.80529545901E+03  0.28337801277E+04  0.29872533656E+04  0.15294330000E+03 0.  0.
<mgrwt>
<rscale>  0 0.10891361E+04</rscale>
<asrwt>0</asrwt>
<pdfrwt beam="1">  1        2 0.49933807E+00 0.11418369E+04</pdfrwt>
<pdfrwt beam="2">  1       -2 0.16141395E+00 0.11418369E+04</pdfrwt>
<totfact> 0.29697175E-01</totfact>
</mgrwt>
</event>
<event>
 4    1  0.2502834E-007  0.9423753E+03  0.7818608E-02  0.9461170E-01
         -2   -1    0    0    0  501 -0.00000000000E+00  0.00000000000E+00  0.73139252546E+03  0.73139252546E+03  0.25500000000E-02 0.  1.
          2   -1    0    0  501    0  0.00000000000E+00 -0.00000000000E+00 -0.18655477092E+04  0.18655477092E+04  0.25500000000E-02 0. -1.
    8880023    1    1    2    0    0 -0.34113473168E+03 -0.58128150313E+03  0.31318624731E+03  0.99305434031E+03  0.65864270000E+03 0.  0.
    8880022    1    1    2    0    0  0.34113473168E+03  0.58128150313E+03 -0.14473414310E+04  0.16038858943E+04  0.15294330000E+03 0. -1.
<mgrwt>
<rscale>  0 0.87208130E+03</rscale>
<asrwt>0</asrwt>
<pdfrwt beam="1">  1        2 0.28700734E+00 0.94237535E+03</pdfrwt>
<pdfrwt beam="2">  1       -2 0.11252193E+00 0.94237535E+03</pdfrwt>
<totfact> 0.49590285E+00</totfact>
</mgrwt>
</event>
<event>
 4    1  0.2502834E-007  0.9615247E+03  0.7818608E-02  0.9433723E-01
          2   -1    0    0  501    0  0.00000000000E+00  0.00000000000E+00  0.29534287812E+04  0.29534287812E+04  0.25500000000E-02 0. -1.
         -2   -1    0    0    0  501 -0.00000000000E+00 -0.00000000000E+00 -0.60312040860E+03  0.60312040861E+03  0.25500000000E-02 0.  1.
    8880023    1    1    2    0    0 -0.56597200633E+03  0.41278947664E+03 -0.13401965504E+03  0.97081972486E+03  0.65864270000E+03 0.  0.
    8880022    1    1    2    0    0  0.56597200633E+03 -0.41278947664E+03  0.24843280276E+04  0.25857294649E+04  0.15294330000E+03 0.  0.
<mgrwt>
<rscale>  0 0.89351623E+03</rscale>
<asrwt>0</asrwt>
<pdfrwt beam="1">  1        2 0.45437367E+00 0.96152466E+03</pdfrwt>
<pdfrwt beam="2">  1       -2 0.92787753E-01 0.96152466E+03</pdfrwt>
<totfact> 0.18795218E+00</totfact>
</mgrwt>
</event>
<event>
 4    1  0.2502834E-007  0.1069225E+04  0.7818608E-02  0.9296120E-01
         -2   -1    0    0    0  501 -0.00000000000E+00  0.00000000000E+00  0.21797099043E+04  0.21797099043E+04  0.25500000000E-02 0.  1.
          2   -1    0    0  501    0  0.00000000000E+00 -0.00000000000E+00 -0.15992671520E+04  0.15992671520E+04  0.25500000000E-02 0. -1.
    8880023    1    1    2    0    0  0.80937234633E+03  0.23312514036E+03  0.19151061936E+04  0.21933702070E+04  0.65864270000E+03 0.  0.
    8880022    1    1    2    0    0 -0.80937234633E+03 -0.23312514036E+03 -0.13346634413E+04  0.15856068493E+04  0.15294330000E+03 0.  0.
<mgrwt>
<rscale>  0 0.10114084E+04</rscale>
<asrwt>0</asrwt>
<pdfrwt beam="1">  1        2 0.24604110E+00 0.10692245E+04</pdfrwt>
<pdfrwt beam="2">  1       -2 0.33533998E+00 0.10692245E+04</pdfrwt>
<totfact> 0.21447635E-01</totfact>
</mgrwt>
</event>
<event>
 4    1  0.2502834E-007  0.9539861E+03  0.7818608E-02  0.9444402E-01
          2   -1    0    0  501    0  0.00000000000E+00  0.00000000000E+00  0.83729217839E+03  0.83729217840E+03  0.25500000000E-02 0. -1.
         -2   -1    0    0    0  501 -0.00000000000E+00 -0.00000000000E+00 -0.15113265404E+04  0.15113265404E+04  0.25500000000E-02 0.  1.
    8880023    1    1    2    0    0 -0.50367937088E+03  0.47179058358E+03 -0.11516939965E+04  0.14954893952E+04  0.65864270000E+03 0.  1.
    8880022    1    1    2    0    0  0.50367937088E+03 -0.47179058358E+03  0.47765963444E+03  0.85312932361E+03  0.15294330000E+03 0.  0.
<mgrwt>
<rscale>  0 0.88509939E+03</rscale>
<asrwt>0</asrwt>
<pdfrwt beam="1">  1        2 0.12881418E+00 0.95398610E+03</pdfrwt>
<pdfrwt beam="2">  1       -2 0.23251178E+00 0.95398610E+03</pdfrwt>
<totfact> 0.26732461E+00</totfact>
</mgrwt>
</event>
<event>
 4    1  0.2502834E-007  0.7993284E+03  0.7818608E-02  0.9712250E-01
          2   -1    0    0  501    0  0.00000000000E+00  0.00000000000E+00  0.25019359181E+04  0.25019359181E+04  0.25500000000E-02 0. -1.
         -2   -1    0    0    0  501 -0.00000000000E+00 -0.00000000000E+00 -0.62313321519E+03  0.62313321519E+03  0.25500000000E-02 0.  1.
    8880023    1    1    2    0    0 -0.44883313036E+03 -0.60535144348E+02 -0.33026674646E+03  0.86487109600E+03  0.65864270000E+03 0.  0.
    8880022    1    1    2    0    0  0.44883313036E+03  0.60535144348E+02  0.22090694494E+04  0.22601980373E+04  0.15294330000E+03 0.  0.
<mgrwt>
<rscale>  0 0.70292089E+03</rscale>
<asrwt>0</asrwt>
<pdfrwt beam="1">  1        2 0.38491322E+00 0.79932840E+03</pdfrwt>
<pdfrwt beam="2">  1       -2 0.95866647E-01 0.79932840E+03</pdfrwt>
<totfact> 0.32978042E+00</totfact>
</mgrwt>
</event>
<event>
 4    1  0.2502834E-007  0.6605971E+03  0.7818608E-02  0.1023553E+00
         -2   -1    0    0    0  501 -0.00000000000E+00  0.00000000000E+00  0.39590142799E+03  0.39590142799E+03  0.25500000000E-02 0.  1.
          2   -1    0    0  501    0  0.00000000000E+00 -0.00000000000E+00 -0.46219765745E+03  0.46219765746E+03  0.25500000000E-02 0. -1.
    8880023    1    1    2    0    0 -0.46360465449E+02  0.20713007272E+02  0.45191719178E+02  0.66214108706E+03  0.65864270000E+03 0.  1.
    8880022    1    1    2    0    0  0.46360465449E+02 -0.20713007272E+02 -0.11148794865E+03  0.19595799839E+03  0.15294330000E+03 0.  0.
<mgrwt>
<rscale>  0 0.46426018E+03</rscale>
<asrwt>0</asrwt>
<pdfrwt beam="1">  1        2 0.71107332E-01 0.66059710E+03</pdfrwt>
<pdfrwt beam="2">  1       -2 0.60907912E-01 0.66059710E+03</pdfrwt>
<totfact> 0.17154666E+02</totfact>
</mgrwt>
</event>
<event>
 4    1  0.3295111E-007  0.1200867E+04  0.7818608E-02  0.9156280E-01
          2   -1    0    0  501    0  0.00000000000E+00  0.00000000000E+00  0.20702313004E+04  0.20702313004E+04  0.25500000000E-02 0. -1.
         -2   -1    0    0    0  501 -0.00000000000E+00 -0.00000000000E+00 -0.21016775344E+04  0.21016775344E+04  0.25500000000E-02 0.  1.
    8880023    1    1    2    0    0  0.20763066242E+03 -0.98242657340E+03 -0.17815065800E+04  0.21484525512E+04  0.65864270000E+03 0.  0.
    8880022    1    1    2    0    0 -0.20763066242E+03  0.98242657340E+03  0.17500603459E+04  0.20234562836E+04  0.15294330000E+03 0.  0.
<mgrwt>
<rscale>  0 0.11516317E+04</rscale>
<asrwt>0</asrwt>
<pdfrwt beam="1">  1        2 0.31849712E+00 0.12008675E+04</pdfrwt>
<pdfrwt beam="2">  1       -2 0.32333501E+00 0.12008675E+04</pdfrwt>
<totfact> 0.13653285E-01</totfact>
</mgrwt>
</event>
<event>
 4    1  0.2502834E-007  0.7185596E+03  0.7818608E-02  0.9927490E-01
         -2   -1    0    0    0  501 -0.00000000000E+00  0.00000000000E+00  0.22988927417E+03  0.22988927419E+03  0.25500000000E-02 0.  1.
          2   -1    0    0  501    0  0.00000000000E+00 -0.00000000000E+00 -0.14730202329E+04  0.14730202329E+04  0.25500000000E-02 0. -1.
    8880023    1    1    2    0    0  0.15568056650E+02  0.28683665447E+03 -0.45569405256E+03  0.85087302610E+03  0.65864270000E+03 0.  0.
    8880022    1    1    2    0    0 -0.15568056650E+02 -0.28683665447E+03 -0.78743690612E+03  0.85203648095E+03  0.15294330000E+03 0.  0.
<mgrwt>
<rscale>  0 0.58947288E+03</rscale>
<asrwt>0</asrwt>
<pdfrwt beam="1">  1        2 0.22661849E+00 0.71855956E+03</pdfrwt>
<pdfrwt beam="2">  1       -2 0.35367582E-01 0.71855956E+03</pdfrwt>
<totfact> 0.10077968E+02</totfact>
</mgrwt>
</event>
<event>
 4    1  0.2502834E-007  0.9874026E+03  0.7818608E-02  0.9398228E-01
          2   -1    0    0  501    0  0.00000000000E+00  0.00000000000E+00  0.39435368901E+04  0.39435368901E+04  0.25500000000E-02 0. -1.
         -2   -1    0    0    0  501 -0.00000000000E+00 -0.00000000000E+00 -0.50893802724E+03  0.50893802725E+03  0.25500000000E-02 0.  1.
    8880023    1    1    2    0    0 -0.46744707005E+03  0.56802014385E+03  0.53450449628E+02  0.98884822088E+03  0.65864270000E+03 0.  0.
    8880022    1    1    2    0    0  0.46744707005E+03 -0.56802014385E+03  0.33811484132E+04  0.34636266964E+04  0.15294330000E+03 0.  0.
<mgrwt>
<rscale>  0 0.92221683E+03</rscale>
<asrwt>0</asrwt>
<pdfrwt beam="1">  1        2 0.60669801E+00 0.98740258E+03</pdfrwt>
<pdfrwt beam="2">  1       -2 0.78298154E-01 0.98740258E+03</pdfrwt>
<totfact> 0.58032782E-01</totfact>
</mgrwt>
</event>
<event>
 4    1  0.2502834E-007  0.7905536E+03  0.7818608E-02  0.9731606E-01
         -2   -1    0    0    0  501 -0.00000000000E+00  0.00000000000E+00  0.97592327728E+03  0.97592327728E+03  0.25500000000E-02 0.  1.
          2   -1    0    0  501    0  0.00000000000E+00 -0.00000000000E+00 -0.14060601317E+04  0.14060601317E+04  0.25500000000E-02 0. -1.
    8880023    1    1    2    0    0 -0.78565307249E+02  0.43010728184E+03  0.76508144086E+03  0.11001475350E+04  0.65864270000E+03 0.  1.
    8880022    1    1    2    0    0  0.78565307249E+02 -0.43010728184E+03 -0.11952182952E+04  0.12818358739E+04  0.15294330000E+03 0.  0.
<mgrwt>
<rscale>  0 0.69165765E+03</rscale>
<asrwt>0</asrwt>
<pdfrwt beam="1">  1        2 0.21631694E+00 0.79055360E+03</pdfrwt>
<pdfrwt beam="2">  1       -2 0.15014204E+00 0.79055360E+03</pdfrwt>
<totfact> 0.43708067E+00</totfact>
</mgrwt>
</event>
<event>
 4    1  0.2502834E-007  0.9106517E+03  0.7818608E-02  0.9509144E-01
         -2   -1    0    0    0  501 -0.00000000000E+00  0.00000000000E+00  0.15539763614E+04  0.15539763614E+04  0.25500000000E-02 0.  1.
          2   -1    0    0  501    0  0.00000000000E+00 -0.00000000000E+00 -0.49543533099E+03  0.49543533100E+03  0.25500000000E-02 0. -1.
    8880023    1    1    2    0    0 -0.59081063766E+03  0.21545099218E+03  0.10662005675E+04  0.14021662512E+04  0.65864270000E+03 0.  1.
    8880022    1    1    2    0    0  0.59081063766E+03 -0.21545099218E+03 -0.76595370953E+01  0.64724544118E+03  0.15294330000E+03 0.  0.
<mgrwt>
<rscale>  0 0.83613014E+03</rscale>
<asrwt>0</asrwt>
<pdfrwt beam="1">  1        2 0.76220819E-01 0.91065171E+03</pdfrwt>
<pdfrwt beam="2">  1       -2 0.23907329E+00 0.91065171E+03</pdfrwt>
<totfact> 0.47082579E+00</totfact>
</mgrwt>
</event>
<event>
 4    1  0.2502834E-007  0.1235863E+04  0.7818608E-02  0.9123026E-01
         -2   -1    0    0    0  501 -0.00000000000E+00  0.00000000000E+00  0.25690452562E+04  0.25690452562E+04  0.25500000000E-02 0.  1.
          2   -1    0    0  501    0  0.00000000000E+00 -0.00000000000E+00 -0.58212489076E+03  0.58212489077E+03  0.25500000000E-02 0. -1.
    8880023    1    1    2    0    0  0.42140948512E+03 -0.95705819737E+03  0.51439870310E+03  0.13386420654E+04  0.65864270000E+03 0.  1.
    8880022    1    1    2    0    0 -0.42140948512E+03  0.95705819737E+03  0.14725216623E+04  0.18125280815E+04  0.15294330000E+03 0.  0.
<mgrwt>
<rscale>  0 0.11884510E+04</rscale>
<asrwt>0</asrwt>
<pdfrwt beam="1">  1        2 0.89557677E-01 0.12358627E+04</pdfrwt>
<pdfrwt beam="2">  1       -2 0.39523773E+00 0.12358627E+04</pdfrwt>
<totfact> 0.40513757E-01</totfact>
</mgrwt>
</event>
<event>
 4    1  0.2502834E-007  0.8568652E+03  0.7818608E-02  0.9599164E-01
         -2   -1    0    0    0  501 -0.00000000000E+00  0.00000000000E+00  0.38065620203E+03  0.38065620204E+03  0.25500000000E-02 0.  1.
          2   -1    0    0  501    0  0.00000000000E+00 -0.00000000000E+00 -0.22717300570E+04  0.22717300570E+04  0.25500000000E-02 0. -1.
    8880023    1    1    2    0    0 -0.51641778881E+03 -0.18363121920E+03 -0.21653028460E+03  0.88380050219E+03  0.65864270000E+03 0.  1.
    8880022    1    1    2    0    0  0.51641778881E+03  0.18363121920E+03 -0.16745435704E+04  0.17685857568E+04  0.15294330000E+03 0.  0.
<mgrwt>
<rscale>  0 0.77351526E+03</rscale>
<asrwt>0</asrwt>
<pdfrwt beam="1">  1        2 0.34949692E+00 0.85686520E+03</pdfrwt>
<pdfrwt beam="2">  1       -2 0.58562494E-01 0.85686520E+03</pdfrwt>
<totfact> 0.13153195E+01</totfact>
</mgrwt>
</event>
<event>
 4    1  0.2502834E-007  0.1662572E+04  0.7818608E-02  0.8802626E-01
         -2   -1    0    0    0  501 -0.00000000000E+00  0.00000000000E+00  0.11246494465E+04  0.11246494465E+04  0.25500000000E-02 0.  1.
          2   -1    0    0  501    0  0.00000000000E+00 -0.00000000000E+00 -0.30876605042E+04  0.30876605042E+04  0.25500000000E-02 0. -1.
    8880023    1    1    2    0    0  0.12444468283E+04 -0.88413122573E+03  0.71585310703E+02  0.16641125550E+04  0.65864270000E+03 0.  0.
    8880022    1    1    2    0    0 -0.12444468283E+04  0.88413122573E+03 -0.20345963684E+04  0.25481973958E+04  0.15294330000E+03 0.  0.
<mgrwt>
<rscale>  0 0.16295020E+04</rscale>
<asrwt>0</asrwt>
<pdfrwt beam="1">  1        2 0.47502469E+00 0.16625721E+04</pdfrwt>
<pdfrwt beam="2">  1       -2 0.17302299E+00 0.16625721E+04</pdfrwt>
<totfact> 0.28861975E-01</totfact>
</mgrwt>
</event>
<event>
 4    1  0.2502834E-007  0.1837614E+04  0.7818608E-02  0.8702010E-01
         -2   -1    0    0    0  501 -0.00000000000E+00  0.00000000000E+00  0.27258307610E+04  0.27258307610E+04  0.25500000000E-02 0.  1.
          2   -1    0    0  501    0  0.00000000000E+00 -0.00000000000E+00 -0.13136023939E+04  0.13136023939E+04  0.25500000000E-02 0. -1.
    8880023    1    1    2    0    0 -0.22883539496E+03  0.17001909749E+04  0.14114389159E+04  0.23171070343E+04  0.65864270000E+03 0.  1.
    8880022    1    1    2    0    0  0.22883539496E+03 -0.17001909749E+04  0.78945120201E+00  0.17223261205E+04  0.15294330000E+03 0.  0.
<mgrwt>
<rscale>  0 0.18080880E+04</rscale>
<asrwt>0</asrwt>
<pdfrwt beam="1">  1        2 0.20209268E+00 0.18376140E+04</pdfrwt>
<pdfrwt beam="2">  1       -2 0.41935857E+00 0.18376140E+04</pdfrwt>
<totfact> 0.81806085E-02</totfact>
</mgrwt>
</event>
<event>
 4    1  0.2502834E-007  0.1176458E+04  0.7818608E-02  0.9180354E-01
         -2   -1    0    0    0  501 -0.00000000000E+00  0.00000000000E+00  0.80637303735E+03  0.80637303735E+03  0.25500000000E-02 0.  1.
          2   -1    0    0  501    0  0.00000000000E+00 -0.00000000000E+00 -0.47415825373E+04  0.47415825373E+04  0.25500000000E-02 0. -1.
    8880023    1    1    2    0    0 -0.95668823207E+03 -0.18705604512E+03  0.28784281684E+03  0.12111589619E+04  0.65864270000E+03 0.  0.
    8880022    1    1    2    0    0  0.95668823207E+03  0.18705604512E+03 -0.42230523168E+04  0.43367966128E+04  0.15294330000E+03 0.  0.
<mgrwt>
<rscale>  0 0.11258530E+04</rscale>
<asrwt>0</asrwt>
<pdfrwt beam="1">  1        2 0.72947422E+00 0.11764576E+04</pdfrwt>
<pdfrwt beam="2">  1       -2 0.12405739E+00 0.11764576E+04</pdfrwt>
<totfact> 0.35191809E-02</totfact>
</mgrwt>
</event>
<event>
 4    1  0.2502834E-007  0.1839349E+04  0.7818608E-02  0.8701076E-01
          2   -1    0    0  501    0  0.00000000000E+00  0.00000000000E+00  0.24251510502E+04  0.24251510502E+04  0.25500000000E-02 0. -1.
         -2   -1    0    0    0  501 -0.00000000000E+00 -0.00000000000E+00 -0.33787856027E+04  0.33787856027E+04  0.25500000000E-02 0.  1.
    8880023    1    1    2    0    0  0.63620635189E+03  0.15951919695E+04  0.17880194909E+04  0.25651939202E+04  0.65864270000E+03 0.  0.
    8880022    1    1    2    0    0 -0.63620635189E+03 -0.15951919695E+04 -0.27416540434E+04  0.32387427327E+04  0.15294330000E+03 0.  0.
<mgrwt>
<rscale>  0 0.18098545E+04</rscale>
<asrwt>0</asrwt>
<pdfrwt beam="1">  1        2 0.37310016E+00 0.18393494E+04</pdfrwt>
<pdfrwt beam="2">  1       -2 0.51981317E+00 0.18393494E+04</pdfrwt>
<totfact> 0.42615764E-03</totfact>
</mgrwt>
</event>
<event>
 4    1  0.2502834E-007  0.1591303E+04  0.7818608E-02  0.8847717E-01
          2   -1    0    0  501    0  0.00000000000E+00  0.00000000000E+00  0.16342736789E+04  0.16342736789E+04  0.25500000000E-02 0. -1.
         -2   -1    0    0    0  501 -0.00000000000E+00 -0.00000000000E+00 -0.21000707133E+04  0.21000707133E+04  0.25500000000E-02 0.  1.
    8880023    1    1    2    0    0 -0.14061808462E+04  0.34798111805E+03 -0.13008203754E+04  0.20553294835E+04  0.65864270000E+03 0.  1.
    8880022    1    1    2    0    0  0.14061808462E+04 -0.34798111805E+03  0.83502334091E+03  0.16790149087E+04  0.15294330000E+03 0.  0.
<mgrwt>
<rscale>  0 0.15565154E+04</rscale>
<asrwt>0</asrwt>
<pdfrwt beam="1">  1        2 0.25142672E+00 0.15913031E+04</pdfrwt>
<pdfrwt beam="2">  1       -2 0.32308780E+00 0.15913031E+04</pdfrwt>
<totfact> 0.22758615E-01</totfact>
</mgrwt>
</event>
<event>
 4    1  0.2502834E-007  0.6682270E+03  0.7818608E-02  0.1016967E+00
          2   -1    0    0  501    0  0.00000000000E+00  0.00000000000E+00  0.19317903136E+04  0.19317903136E+04  0.25500000000E-02 0. -1.
         -2   -1    0    0    0  501 -0.00000000000E+00 -0.00000000000E+00 -0.13703199016E+03  0.13703199018E+03  0.25500000000E-02 0.  1.
    8880023    1    1    2    0    0  0.11171724590E+03  0.15376239643E+02  0.73990004187E+03  0.99698518043E+03  0.65864270000E+03 0.  1.
    8880022    1    1    2    0    0 -0.11171724590E+03 -0.15376239643E+02  0.10548582816E+04  0.10718371234E+04  0.15294330000E+03 0.  0.
<mgrwt>
<rscale>  0 0.48797178E+03</rscale>
<asrwt>0</asrwt>
<pdfrwt beam="1">  1        2 0.29719851E+00 0.66822704E+03</pdfrwt>
<pdfrwt beam="2">  1       -2 0.21081845E-01 0.66822704E+03</pdfrwt>
<totfact> 0.14630861E+02</totfact>
</mgrwt>
</event>
<event>
 4    1  0.2502834E-007  0.1031603E+04  0.7818608E-02  0.9341331E-01
          2   -1    0    0  501    0  0.00000000000E+00  0.00000000000E+00  0.31955648568E+04  0.31955648568E+04  0.25500000000E-02 0. -1.
         -2   -1    0    0    0  501 -0.00000000000E+00 -0.00000000000E+00 -0.31475059510E+03  0.31475059511E+03  0.25500000000E-02 0.  1.
    8880023    1    1    2    0    0  0.78353092696E+03 -0.12835372438E+03  0.89329599227E+03  0.13646183819E+04  0.65864270000E+03 0.  0.
    8880022    1    1    2    0    0 -0.78353092696E+03  0.12835372438E+03  0.19875182694E+04  0.21456970701E+04  0.15294330000E+03 0.  0.
<mgrwt>
<rscale>  0 0.97065326E+03</rscale>
<asrwt>0</asrwt>
<pdfrwt beam="1">  1        2 0.49162534E+00 0.10316034E+04</pdfrwt>
<pdfrwt beam="2">  1       -2 0.48423170E-01 0.10316034E+04</pdfrwt>
<totfact> 0.53977525E+00</totfact>
</mgrwt>
</event>
<event>
 4    1  0.2502834E-007  0.1071993E+04  0.7818608E-02  0.9292898E-01
         -2   -1    0    0    0  501 -0.00000000000E+00  0.00000000000E+00  0.91081169188E+03  0.91081169188E+03  0.25500000000E-02 0.  1.
          2   -1    0    0  501    0  0.00000000000E+00 -0.00000000000E+00 -0.23682775096E+04  0.23682775096E+04  0.25500000000E-02 0. -1.
    8880023    1    1    2    0    0  0.74191824012E+03  0.40609978015E+03  0.46860652981E+03  0.11699410210E+04  0.65864270000E+03 0.  1.
    8880022    1    1    2    0    0 -0.74191824012E+03 -0.40609978015E+03 -0.19260723476E+04  0.21091481806E+04  0.15294330000E+03 0.  0.
<mgrwt>
<rscale>  0 0.10143933E+04</rscale>
<asrwt>0</asrwt>
<pdfrwt beam="1">  1        2 0.36435038E+00 0.10719934E+04</pdfrwt>
<pdfrwt beam="2">  1       -2 0.14012488E+00 0.10719934E+04</pdfrwt>
<totfact> 0.14755905E+00</totfact>
</mgrwt>
</event>
<event>
 4    1  0.2502834E-007  0.7433136E+03  0.7818608E-02  0.9850398E-01
         -2   -1    0    0    0  501 -0.00000000000E+00  0.00000000000E+00  0.81118798126E+03  0.81118798127E+03  0.25500000000E-02 0.  1.
          2   -1    0    0  501    0  0.00000000000E+00 -0.00000000000E+00 -0.60886582633E+03  0.60886582634E+03  0.25500000000E-02 0. -1.
    8880023    1    1    2    0    0  0.11869994042E+03 -0.32344278625E+03  0.53617308352E+03  0.91651333519E+03  0.65864270000E+03 0.  0.
    8880022    1    1    2    0    0 -0.11869994042E+03  0.32344278625E+03 -0.33385092859E+03  0.50354047242E+03  0.15294330000E+03 0. -1.
<mgrwt>
<rscale>  0 0.62726638E+03</rscale>
<asrwt>0</asrwt>
<pdfrwt beam="1">  1        2 0.93671666E-01 0.74331361E+03</pdfrwt>
<pdfrwt beam="2">  1       -2 0.12479815E+00 0.74331361E+03</pdfrwt>
<totfact> 0.23778317E+01</totfact>
</mgrwt>
</event>
<event>
 4    1  0.2502834E-007  0.1748360E+04  0.7818608E-02  0.8751653E-01
          2   -1    0    0  501    0  0.00000000000E+00  0.00000000000E+00  0.32216996172E+04  0.32216996172E+04  0.25500000000E-02 0. -1.
         -2   -1    0    0    0  501 -0.00000000000E+00 -0.00000000000E+00 -0.14027519979E+04  0.14027519979E+04  0.25500000000E-02 0.  1.
    8880023    1    1    2    0    0 -0.51248602124E+03  0.15363303243E+04 -0.47546636617E+03  0.18118585096E+04  0.65864270000E+03 0.  0.
    8880022    1    1    2    0    0  0.51248602124E+03 -0.15363303243E+04  0.22944139855E+04  0.28125931055E+04  0.15294330000E+03 0.  0.
<mgrwt>
<rscale>  0 0.17171331E+04</rscale>
<asrwt>0</asrwt>
<pdfrwt beam="1">  1        2 0.49564609E+00 0.17483601E+04</pdfrwt>
<pdfrwt beam="2">  1       -2 0.21580800E+00 0.17483601E+04</pdfrwt>
<totfact> 0.12074758E-01</totfact>
</mgrwt>
</event>
<event>
 4    1  0.2502834E-007  0.7658785E+03  0.7818608E-02  0.9790120E-01
          2   -1    0    0  501    0  0.00000000000E+00  0.00000000000E+00  0.12866399048E+04  0.12866399048E+04  0.25500000000E-02 0. -1.
         -2   -1    0    0    0  501 -0.00000000000E+00 -0.00000000000E+00 -0.73860708406E+03  0.73860708407E+03  0.25500000000E-02 0.  1.
    8880023    1    1    2    0    0 -0.27326845295E+03  0.27943513515E+03 -0.48751653272E+03  0.90787786517E+03  0.65864270000E+03 0.  1.
    8880022    1    1    2    0    0  0.27326845295E+03 -0.27943513515E+03  0.10355493534E+04  0.11173691237E+04  0.15294330000E+03 0.  0.
<mgrwt>
<rscale>  0 0.65895481E+03</rscale>
<asrwt>0</asrwt>
<pdfrwt beam="1">  1        2 0.19794460E+00 0.76587848E+03</pdfrwt>
<pdfrwt beam="2">  1       -2 0.11363186E+00 0.76587848E+03</pdfrwt>
<totfact> 0.10413051E+01</totfact>
</mgrwt>
</event>
<event>
 4    1  0.2502834E-007  0.1196715E+04  0.7818608E-02  0.9160322E-01
         -2   -1    0    0    0  501 -0.00000000000E+00  0.00000000000E+00  0.10166321545E+04  0.10166321545E+04  0.25500000000E-02 0.  1.
          2   -1    0    0  501    0  0.00000000000E+00 -0.00000000000E+00 -0.14436081621E+04  0.14436081621E+04  0.25500000000E-02 0. -1.
    8880023    1    1    2    0    0  0.61158391071E+03 -0.79011482771E+03  0.27712818111E+03  0.12283837169E+04  0.65864270000E+03 0.  1.
    8880022    1    1    2    0    0 -0.61158391071E+03  0.79011482771E+03 -0.70410418873E+03  0.12318565998E+04  0.15294330000E+03 0.  0.
<mgrwt>
<rscale>  0 0.11472521E+04</rscale>
<asrwt>0</asrwt>
<pdfrwt beam="1">  1        2 0.22209356E+00 0.11967149E+04</pdfrwt>
<pdfrwt beam="2">  1       -2 0.15640495E+00 0.11967149E+04</pdfrwt>
<totfact> 0.35582306E+00</totfact>
</mgrwt>
</event>
<event>
 4    1  0.2502834E-007  0.1211083E+04  0.7818608E-02  0.9146424E-01
         -2   -1    0    0    0  501 -0.00000000000E+00  0.00000000000E+00  0.88604103526E+03  0.88604103526E+03  0.25500000000E-02 0.  1.
          2   -1    0    0  501    0  0.00000000000E+00 -0.00000000000E+00 -0.23576431230E+04  0.23576431230E+04  0.25500000000E-02 0. -1.
    8880023    1    1    2    0    0 -0.99545039737E+03  0.20491275441E+03  0.25190245830E+03  0.12370027426E+04  0.65864270000E+03 0.  0.
    8880022    1    1    2    0    0  0.99545039737E+03 -0.20491275441E+03 -0.17235045461E+04  0.20066814157E+04  0.15294330000E+03 0.  0.
<mgrwt>
<rscale>  0 0.11623953E+04</rscale>
<asrwt>0</asrwt>
<pdfrwt beam="1">  1        2 0.36271432E+00 0.12110825E+04</pdfrwt>
<pdfrwt beam="2">  1       -2 0.13631401E+00 0.12110825E+04</pdfrwt>
<totfact> 0.15791094E+00</totfact>
</mgrwt>
</event>
<event>
 4    1  0.2502834E-007  0.9596224E+03  0.7818608E-02  0.9436403E-01
         -2   -1    0    0    0  501 -0.00000000000E+00  0.00000000000E+00  0.95339622487E+03  0.95339622487E+03  0.25500000000E-02 0.  1.
          2   -1    0    0  501    0  0.00000000000E+00 -0.00000000000E+00 -0.12235643542E+04  0.12235643542E+04  0.25500000000E-02 0. -1.
    8880023    1    1    2    0    0  0.68987777541E+03  0.10551594775E+03  0.53647756020E+03  0.10994013549E+04  0.65864270000E+03 0.  1.
    8880022    1    1    2    0    0 -0.68987777541E+03 -0.10551594775E+03 -0.80664568957E+03  0.10775592242E+04  0.15294330000E+03 0.  0.
<mgrwt>
<rscale>  0 0.89139489E+03</rscale>
<asrwt>0</asrwt>
<pdfrwt beam="1">  1        2 0.18824067E+00 0.95962241E+03</pdfrwt>
<pdfrwt beam="2">  1       -2 0.14667634E+00 0.95962241E+03</pdfrwt>
<totfact> 0.58049038E+00</totfact>
</mgrwt>
</event>
<event>
 4    1  0.2502834E-007  0.9454415E+03  0.7818608E-02  0.9456703E-01
         -2   -1    0    0    0  501 -0.00000000000E+00  0.00000000000E+00  0.69323856405E+03  0.69323856406E+03  0.25500000000E-02 0.  1.
          2   -1    0    0  501    0  0.00000000000E+00 -0.00000000000E+00 -0.33113635693E+04  0.33113635693E+04  0.25500000000E-02 0. -1.
    8880023    1    1    2    0    0  0.58669574070E+03 -0.34034926628E+03  0.31007051814E+03  0.99498916964E+03  0.65864270000E+03 0.  1.
    8880022    1    1    2    0    0 -0.58669574070E+03  0.34034926628E+03 -0.29281955234E+04  0.30096129638E+04  0.15294330000E+03 0.  0.
<mgrwt>
<rscale>  0 0.87552584E+03</rscale>
<asrwt>0</asrwt>
<pdfrwt beam="1">  1        2 0.50944054E+00 0.94544155E+03</pdfrwt>
<pdfrwt beam="2">  1       -2 0.10665209E+00 0.94544155E+03</pdfrwt>
<totfact> 0.80394663E-01</totfact>
</mgrwt>
</event>
<event>
 4    1  0.2502834E-007  0.8202675E+03  0.7818608E-02  0.9668574E-01
          2   -1    0    0  501    0  0.00000000000E+00  0.00000000000E+00  0.19075885595E+04  0.19075885595E+04  0.25500000000E-02 0. -1.
         -2   -1    0    0    0  501 -0.00000000000E+00 -0.00000000000E+00 -0.10123549798E+04  0.10123549799E+04  0.25500000000E-02 0.  1.
    8880023    1    1    2    0    0 -0.36789839526E+03  0.32199280183E+03 -0.80193806967E+03  0.11471457917E+04  0.65864270000E+03 0.  1.
    8880022    1    1    2    0    0  0.36789839526E+03 -0.32199280183E+03  0.16971716493E+04  0.17727977476E+04  0.15294330000E+03 0.  0.
<mgrwt>
<rscale>  0 0.72919101E+03</rscale>
<asrwt>0</asrwt>
<pdfrwt beam="1">  1        2 0.29347516E+00 0.82026752E+03</pdfrwt>
<pdfrwt beam="2">  1       -2 0.15574692E+00 0.82026752E+03</pdfrwt>
<totfact> 0.20858300E+00</totfact>
</mgrwt>
</event>
<event>
 4    1  0.2502834E-007  0.6594789E+03  0.7818608E-02  0.1024697E+00
          2   -1    0    0  501    0  0.00000000000E+00  0.00000000000E+00  0.24764414673E+03  0.24764414674E+03  0.25500000000E-02 0. -1.
         -2   -1    0    0    0  501 -0.00000000000E+00 -0.00000000000E+00 -0.88755142823E+03  0.88755142823E+03  0.25500000000E-02 0.  1.
    8880023    1    1    2    0    0 -0.15758524640E+02 -0.29221727972E+02 -0.70529093052E+03  0.96558155710E+03  0.65864270000E+03 0.  1.
    8880022    1    1    2    0    0  0.15758524640E+02  0.29221727972E+02  0.65383649019E+02  0.16961401787E+03  0.15294330000E+03 0.  0.
<mgrwt>
<rscale>  0 0.46029146E+03</rscale>
<asrwt>0</asrwt>
<pdfrwt beam="1">  1        2 0.38099100E-01 0.65947892E+03</pdfrwt>
<pdfrwt beam="2">  1       -2 0.13654637E+00 0.65947892E+03</pdfrwt>
<totfact> 0.52931419E+01</totfact>
</mgrwt>
</event>
<event>
 4    1  0.2502834E-007  0.1032817E+04  0.7818608E-02  0.9339829E-01
         -2   -1    0    0    0  501 -0.00000000000E+00  0.00000000000E+00  0.96702688023E+03  0.96702688023E+03  0.25500000000E-02 0.  1.
          2   -1    0    0  501    0  0.00000000000E+00 -0.00000000000E+00 -0.96607609825E+03  0.96607609826E+03  0.25500000000E-02 0. -1.
    8880023    1    1    2    0    0 -0.72035123676E+03  0.33762981216E+03  0.29033757251E+03  0.10728494334E+04  0.65864270000E+03 0.  1.
    8880022    1    1    2    0    0  0.72035123676E+03 -0.33762981216E+03 -0.28938679054E+03  0.86025354514E+03  0.15294330000E+03 0.  0.
<mgrwt>
<rscale>  0 0.97197363E+03</rscale>
<asrwt>0</asrwt>
<pdfrwt beam="1">  1        2 0.14862709E+00 0.10328165E+04</pdfrwt>
<pdfrwt beam="2">  1       -2 0.14877337E+00 0.10328165E+04</pdfrwt>
<totfact> 0.80201917E+00</totfact>
</mgrwt>
</event>
<event>
 4    1  0.2502834E-007  0.1608031E+04  0.7818608E-02  0.8836893E-01
          2   -1    0    0  501    0  0.00000000000E+00  0.00000000000E+00  0.23452363536E+04  0.23452363536E+04  0.25500000000E-02 0. -1.
         -2   -1    0    0    0  501 -0.00000000000E+00 -0.00000000000E+00 -0.22091968861E+04  0.22091968861E+04  0.25500000000E-02 0.  1.
    8880023    1    1    2    0    0 -0.96151536917E+03 -0.11078999695E+04  0.17442006169E+04  0.23723406470E+04  0.65864270000E+03 0. -1.
    8880022    1    1    2    0    0  0.96151536917E+03  0.11078999695E+04 -0.16081611494E+04  0.21820925926E+04  0.15294330000E+03 0.  0.
<mgrwt>
<rscale>  0 0.15736636E+04</rscale>
<asrwt>0</asrwt>
<pdfrwt beam="1">  1        2 0.36080559E+00 0.16080312E+04</pdfrwt>
<pdfrwt beam="2">  1       -2 0.33987644E+00 0.16080312E+04</pdfrwt>
<totfact> 0.71245791E-02</totfact>
</mgrwt>
</event>
<event>
 4    1  0.2502834E-007  0.1037463E+04  0.7818608E-02  0.9334106E-01
          2   -1    0    0  501    0  0.00000000000E+00  0.00000000000E+00  0.10830355522E+04  0.10830355522E+04  0.25500000000E-02 0. -1.
         -2   -1    0    0    0  501 -0.00000000000E+00 -0.00000000000E+00 -0.10767635273E+04  0.10767635273E+04  0.25500000000E-02 0.  1.
    8880023    1    1    2    0    0  0.25920223462E+03  0.75850752850E+03 -0.54802520768E+03  0.11733121084E+04  0.65864270000E+03 0.  1.
    8880022    1    1    2    0    0 -0.25920223462E+03 -0.75850752850E+03  0.55429723259E+03  0.98648697117E+03  0.15294330000E+03 0.  0.
<mgrwt>
<rscale>  0 0.97702691E+03</rscale>
<asrwt>0</asrwt>
<pdfrwt beam="1">  1        2 0.16662085E+00 0.10374631E+04</pdfrwt>
<pdfrwt beam="2">  1       -2 0.16565593E+00 0.10374631E+04</pdfrwt>
<totfact> 0.50466411E+00</totfact>
</mgrwt>
</event>
<event>
 4    1  0.2502834E-007  0.7800686E+03  0.7818608E-02  0.9755676E-01
         -2   -1    0    0    0  501 -0.00000000000E+00  0.00000000000E+00  0.29287750709E+03  0.29287750710E+03  0.25500000000E-02 0.  1.
          2   -1    0    0  501    0  0.00000000000E+00 -0.00000000000E+00 -0.15240882188E+04  0.15240882188E+04  0.25500000000E-02 0. -1.
    8880023    1    1    2    0    0 -0.34853866662E+03 -0.23068942336E+03 -0.40603856912E+03  0.87941704444E+03  0.65864270000E+03 0.  1.
    8880022    1    1    2    0    0  0.34853866662E+03  0.23068942336E+03 -0.82517214259E+03  0.93754868145E+03  0.15294330000E+03 0.  0.
<mgrwt>
<rscale>  0 0.67796456E+03</rscale>
<asrwt>0</asrwt>
<pdfrwt beam="1">  1        2 0.23447511E+00 0.78006860E+03</pdfrwt>
<pdfrwt beam="2">  1       -2 0.45058079E-01 0.78006860E+03</pdfrwt>
<totfact> 0.58518694E+01</totfact>
</mgrwt>
</event>
<event>
 4    1  0.2502834E-007  0.1856376E+04  0.7818608E-02  0.8691976E-01
         -2   -1    0    0    0  501 -0.00000000000E+00  0.00000000000E+00  0.11850188507E+04  0.11850188507E+04  0.25500000000E-02 0.  1.
          2   -1    0    0  501    0  0.00000000000E+00 -0.00000000000E+00 -0.46802775062E+04  0.46802775062E+04  0.25500000000E-02 0. -1.
    8880023    1    1    2    0    0 -0.12182263358E+04  0.12362221309E+04  0.11152754884E+03  0.18597228725E+04  0.65864270000E+03 0.  0.
    8880022    1    1    2    0    0  0.12182263358E+04 -0.12362221309E+04 -0.36067862043E+04  0.40055734844E+04  0.15294330000E+03 0.  0.
<mgrwt>
<rscale>  0 0.18271827E+04</rscale>
<asrwt>0</asrwt>
<pdfrwt beam="1">  1        2 0.72004269E+00 0.18563757E+04</pdfrwt>
<pdfrwt beam="2">  1       -2 0.18231059E+00 0.18563757E+04</pdfrwt>
<totfact> 0.12975688E-02</totfact>
</mgrwt>
</event>
<event>
 4    1  0.2502834E-007  0.7244978E+03  0.7818608E-02  0.9907651E-01
          2   -1    0    0  501    0  0.00000000000E+00  0.00000000000E+00  0.27071318487E+03  0.27071318488E+03  0.25500000000E-02 0. -1.
         -2   -1    0    0    0  501 -0.00000000000E+00 -0.00000000000E+00 -0.18238545192E+04  0.18238545192E+04  0.25500000000E-02 0.  1.
    8880023    1    1    2    0    0  0.20997716983E+03 -0.21678648104E+03 -0.15967451523E+04  0.17534229603E+04  0.65864270000E+03 0.  1.
    8880022    1    1    2    0    0 -0.20997716983E+03  0.21678648104E+03  0.43603817982E+02  0.34114474372E+03  0.15294330000E+03 0.  0.
<mgrwt>
<rscale>  0 0.59891922E+03</rscale>
<asrwt>0</asrwt>
<pdfrwt beam="1">  1        2 0.41648183E-01 0.72449775E+03</pdfrwt>
<pdfrwt beam="2">  1       -2 0.28059299E+00 0.72449775E+03</pdfrwt>
<totfact> 0.53350874E+00</totfact>
</mgrwt>
</event>
<event>
 4    1  0.2502834E-007  0.8349642E+03  0.7818608E-02  0.9639750E-01
         -2   -1    0    0    0  501 -0.00000000000E+00  0.00000000000E+00  0.70837147035E+03  0.70837147035E+03  0.25500000000E-02 0.  1.
          2   -1    0    0  501    0  0.00000000000E+00 -0.00000000000E+00 -0.11463598146E+04  0.11463598146E+04  0.25500000000E-02 0. -1.
    8880023    1    1    2    0    0  0.11563889426E+03  0.49998266628E+03  0.34724345480E+03  0.90429157002E+03  0.65864270000E+03 0.  0.
    8880022    1    1    2    0    0 -0.11563889426E+03 -0.49998266628E+03 -0.78523179905E+03  0.95043971492E+03  0.15294330000E+03 0.  0.
<mgrwt>
<rscale>  0 0.74720229E+03</rscale>
<asrwt>0</asrwt>
<pdfrwt beam="1">  1        2 0.17636305E+00 0.83496421E+03</pdfrwt>
<pdfrwt beam="2">  1       -2 0.10898023E+00 0.83496421E+03</pdfrwt>
<totfact> 0.13838732E+01</totfact>
</mgrwt>
</event>
<event>
 4    1  0.2502834E-007  0.1398523E+04  0.7818608E-02  0.8984832E-01
         -2   -1    0    0    0  501 -0.00000000000E+00  0.00000000000E+00  0.10918703756E+04  0.10918703756E+04  0.25500000000E-02 0.  1.
          2   -1    0    0  501    0  0.00000000000E+00 -0.00000000000E+00 -0.17317875169E+04  0.17317875169E+04  0.25500000000E-02 0. -1.
    8880023    1    1    2    0    0  0.75843427312E+03  0.97305336211E+03 -0.72935657783E+03  0.15772845704E+04  0.65864270000E+03 0.  0.
    8880022    1    1    2    0    0 -0.75843427312E+03 -0.97305336211E+03  0.89439436509E+02  0.12463733221E+04  0.15294330000E+03 0.  0.
<mgrwt>
<rscale>  0 0.13579504E+04</rscale>
<asrwt>0</asrwt>
<pdfrwt beam="1">  1        2 0.26642885E+00 0.13985226E+04</pdfrwt>
<pdfrwt beam="2">  1       -2 0.16798006E+00 0.13985226E+04</pdfrwt>
<totfact> 0.19750803E+00</totfact>
</mgrwt>
</event>
<event>
 4    1  0.2502834E-007  0.7276270E+03  0.7818608E-02  0.9897576E-01
         -2   -1    0    0    0  501 -0.00000000000E+00  0.00000000000E+00  0.30845556922E+03  0.30845556923E+03  0.25500000000E-02 0.  1.
          2   -1    0    0  501    0  0.00000000000E+00 -0.00000000000E+00 -0.14263058035E+04  0.14263058035E+04  0.25500000000E-02 0. -1.
    8880023    1    1    2    0    0  0.22059474595E+03 -0.21672276545E+03 -0.20059394332E+03  0.75477078333E+03  0.65864270000E+03 0.  0.
    8880022    1    1    2    0    0 -0.22059474595E+03  0.21672276545E+03 -0.91725629096E+03  0.97999058941E+03  0.15294330000E+03 0.  0.
<mgrwt>
<rscale>  0 0.60378901E+03</rscale>
<asrwt>0</asrwt>
<pdfrwt beam="1">  1        2 0.21943166E+00 0.72762697E+03</pdfrwt>
<pdfrwt beam="2">  1       -2 0.47454704E-01 0.72762697E+03</pdfrwt>
<totfact> 0.60131295E+01</totfact>
</mgrwt>
</event>
<event>
 4    1  0.2502834E-007  0.7770944E+03  0.7818608E-02  0.9762707E-01
          2   -1    0    0  501    0  0.00000000000E+00  0.00000000000E+00  0.65330409392E+03  0.65330409392E+03  0.25500000000E-02 0. -1.
         -2   -1    0    0    0  501 -0.00000000000E+00 -0.00000000000E+00 -0.90239386037E+03  0.90239386038E+03  0.25500000000E-02 0.  1.
    8880023    1    1    2    0    0  0.29524804999E+03  0.28791334543E+03 -0.60906075263E+03  0.98733515696E+03  0.65864270000E+03 0.  1.
    8880022    1    1    2    0    0 -0.29524804999E+03 -0.28791334543E+03  0.35997098618E+03  0.56836279734E+03  0.15294330000E+03 0.  0.
<mgrwt>
<rscale>  0 0.67402877E+03</rscale>
<asrwt>0</asrwt>
<pdfrwt beam="1">  1        2 0.10050832E+00 0.77709440E+03</pdfrwt>
<pdfrwt beam="2">  1       -2 0.13882982E+00 0.77709440E+03</pdfrwt>
<totfact> 0.16590736E+01</totfact>
</mgrwt>
</event>
<event>
 4    1  0.2502834E-007  0.7275551E+03  0.7818608E-02  0.9897805E-01
         -2   -1    0    0    0  501 -0.00000000000E+00  0.00000000000E+00  0.34258063124E+03  0.34258063125E+03  0.25500000000E-02 0.  1.
          2   -1    0    0  501    0  0.00000000000E+00 -0.00000000000E+00 -0.14243070272E+04  0.14243070272E+04  0.25500000000E-02 0. -1.
    8880023    1    1    2    0    0 -0.15688444218E+03  0.26629574301E+03 -0.11004702035E+03  0.73583062174E+03  0.65864270000E+03 0.  1.
    8880022    1    1    2    0    0  0.15688444218E+03 -0.26629574301E+03 -0.97167937556E+03  0.10310570367E+04  0.15294330000E+03 0.  0.
<mgrwt>
<rscale>  0 0.60367787E+03</rscale>
<asrwt>0</asrwt>
<pdfrwt beam="1">  1        2 0.21912415E+00 0.72755505E+03</pdfrwt>
<pdfrwt beam="2">  1       -2 0.52704713E-01 0.72755505E+03</pdfrwt>
<totfact> 0.48696897E+01</totfact>
</mgrwt>
</event>
<event>
 4    1  0.2502834E-007  0.9410892E+03  0.7818608E-02  0.9463052E-01
         -2   -1    0    0    0  501 -0.00000000000E+00  0.00000000000E+00  0.37366426891E+03  0.37366426891E+03  0.25500000000E-02 0.  1.
          2   -1    0    0  501    0  0.00000000000E+00 -0.00000000000E+00 -0.42953619760E+04  0.42953619760E+04  0.25500000000E-02 0. -1.
    8880023    1    1    2    0    0  0.66765405260E+03  0.77953293183E+02 -0.30806912091E+03  0.99022999318E+03  0.65864270000E+03 0.  1.
    8880022    1    1    2    0    0 -0.66765405260E+03 -0.77953293183E+02 -0.36136285862E+04  0.36787962517E+04  0.15294330000E+03 0.  0.
<mgrwt>
<rscale>  0 0.87063496E+03</rscale>
<asrwt>0</asrwt>
<pdfrwt beam="1">  1        2 0.66082488E+00 0.94108919E+03</pdfrwt>
<pdfrwt beam="2">  1       -2 0.57486814E-01 0.94108919E+03</pdfrwt>
<totfact> 0.58606618E-01</totfact>
</mgrwt>
</event>
<event>
 4    1  0.2502834E-007  0.8531403E+03  0.7818608E-02  0.9605884E-01
          2   -1    0    0  501    0  0.00000000000E+00  0.00000000000E+00  0.19657735174E+04  0.19657735174E+04  0.25500000000E-02 0. -1.
         -2   -1    0    0    0  501 -0.00000000000E+00 -0.00000000000E+00 -0.38395654498E+03  0.38395654499E+03  0.25500000000E-02 0.  1.
    8880023    1    1    2    0    0  0.21050576681E+03 -0.49972540695E+03  0.22758554157E+03  0.88297426078E+03  0.65864270000E+03 0.  0.
    8880022    1    1    2    0    0 -0.21050576681E+03  0.49972540695E+03  0.13542314308E+04  0.14667558016E+04  0.15294330000E+03 0.  0.
<mgrwt>
<rscale>  0 0.76907963E+03</rscale>
<asrwt>0</asrwt>
<pdfrwt beam="1">  1        2 0.30242669E+00 0.85314030E+03</pdfrwt>
<pdfrwt beam="2">  1       -2 0.59070238E-01 0.85314030E+03</pdfrwt>
<totfact> 0.19054389E+01</totfact>
</mgrwt>
</event>
<event>
 4    1  0.2502834E-007  0.1634211E+04  0.7818608E-02  0.8820254E-01
         -2   -1    0    0    0  501 -0.00000000000E+00  0.00000000000E+00  0.22538706013E+04  0.22538706013E+04  0.25500000000E-02 0.  1.
          2   -1    0    0  501    0  0.00000000000E+00 -0.00000000000E+00 -0.28284122794E+04  0.28284122794E+04  0.25500000000E-02 0. -1.
    8880023    1    1    2    0    0 -0.92124968425E+03  0.11781911802E+04  0.16985126121E+04  0.23570300672E+04  0.65864270000E+03 0.  0.
    8880022    1    1    2    0    0  0.92124968425E+03 -0.11781911802E+04 -0.22730542902E+04  0.27252528134E+04  0.15294330000E+03 0.  0.
<mgrwt>
<rscale>  0 0.16004795E+04</rscale>
<asrwt>0</asrwt>
<pdfrwt beam="1">  1        2 0.43514035E+00 0.16342110E+04</pdfrwt>
<pdfrwt beam="2">  1       -2 0.34674932E+00 0.16342110E+04</pdfrwt>
<totfact> 0.33464216E-02</totfact>
</mgrwt>
</event>
<event>
 4    1  0.2502834E-007  0.8814989E+03  0.7818608E-02  0.9556409E-01
         -2   -1    0    0    0  501 -0.00000000000E+00  0.00000000000E+00  0.33797001496E+03  0.33797001497E+03  0.25500000000E-02 0.  1.
          2   -1    0    0  501    0  0.00000000000E+00 -0.00000000000E+00 -0.32410533549E+04  0.32410533549E+04  0.25500000000E-02 0. -1.
    8880023    1    1    2    0    0  0.58582071480E+03 -0.66532334784E+01 -0.33903096893E+03  0.94444818787E+03  0.65864270000E+03 0.  0.
    8880022    1    1    2    0    0 -0.58582071480E+03  0.66532334784E+01 -0.25640523710E+04  0.26345751820E+04  0.15294330000E+03 0.  0.
<mgrwt>
<rscale>  0 0.80249740E+03</rscale>
<asrwt>0</asrwt>
<pdfrwt beam="1">  1        2 0.49862357E+00 0.88149894E+03</pdfrwt>
<pdfrwt beam="2">  1       -2 0.51995389E-01 0.88149894E+03</pdfrwt>
<totfact> 0.44647127E+00</totfact>
</mgrwt>
</event>
<event>
 4    1  0.2502834E-007  0.7314242E+03  0.7818608E-02  0.9885671E-01
          2   -1    0    0  501    0  0.00000000000E+00  0.00000000000E+00  0.26151733217E+04  0.26151733217E+04  0.25500000000E-02 0. -1.
         -2   -1    0    0    0  501 -0.00000000000E+00 -0.00000000000E+00 -0.28797567384E+03  0.28797567385E+03  0.25500000000E-02 0.  1.
    8880023    1    1    2    0    0  0.22275868165E+03 -0.22704574111E+03  0.21599637774E+03  0.76265053613E+03  0.65864270000E+03 0.  0.
    8880022    1    1    2    0    0 -0.22275868165E+03  0.22704574111E+03  0.21112012701E+04  0.21404984594E+04  0.15294330000E+03 0. -1.
<mgrwt>
<rscale>  0 0.60960788E+03</rscale>
<asrwt>0</asrwt>
<pdfrwt beam="1">  1        2 0.40233436E+00 0.73142423E+03</pdfrwt>
<pdfrwt beam="2">  1       -2 0.44303949E-01 0.73142423E+03</pdfrwt>
<totfact> 0.15171662E+01</totfact>
</mgrwt>
</event>
<event>
 4    1  0.2502834E-007  0.8550596E+03  0.7818608E-02  0.9602413E-01
         -2   -1    0    0    0  501 -0.00000000000E+00  0.00000000000E+00  0.23794503605E+04  0.23794503605E+04  0.25500000000E-02 0.  1.
          2   -1    0    0  501    0  0.00000000000E+00 -0.00000000000E+00 -0.35010992721E+03  0.35010992722E+03  0.25500000000E-02 0. -1.
    8880023    1    1    2    0    0  0.45698854729E+03  0.29745287644E+03  0.19852198524E+04  0.21615329779E+04  0.65864270000E+03 0.  0.
    8880022    1    1    2    0    0 -0.45698854729E+03 -0.29745287644E+03  0.44120580944E+02  0.56802730985E+03  0.15294330000E+03 0.  0.
<mgrwt>
<rscale>  0 0.77136706E+03</rscale>
<asrwt>0</asrwt>
<pdfrwt beam="1">  1        2 0.53863068E-01 0.85505962E+03</pdfrwt>
<pdfrwt beam="2">  1       -2 0.36606927E+00 0.85505962E+03</pdfrwt>
<totfact> 0.11805515E+00</totfact>
</mgrwt>
</event>
<event>
 4    1  0.2502834E-007  0.9077213E+03  0.7818608E-02  0.9513748E-01
          2   -1    0    0  501    0  0.00000000000E+00  0.00000000000E+00  0.38457427662E+04  0.38457427662E+04  0.25500000000E-02 0. -1.
         -2   -1    0    0    0  501 -0.00000000000E+00 -0.00000000000E+00 -0.17574661596E+03  0.17574661598E+03  0.25500000000E-02 0.  1.
    8880023    1    1    2    0    0 -0.59991178197E+03  0.17393538138E+03  0.14540871273E+04  0.17141549647E+04  0.65864270000E+03 0.  0.
    8880022    1    1    2    0    0  0.59991178197E+03 -0.17393538138E+03  0.22159090230E+04  0.23073344175E+04  0.15294330000E+03 0.  0.
<mgrwt>
<rscale>  0 0.83277749E+03</rscale>
<asrwt>0</asrwt>
<pdfrwt beam="1">  1        2 0.59165270E+00 0.90772125E+03</pdfrwt>
<pdfrwt beam="2">  1       -2 0.27037943E-01 0.90772125E+03</pdfrwt>
<totfact> 0.59900063E+00</totfact>
</mgrwt>
</event>
<event>
 4    1  0.2502834E-007  0.7960386E+03  0.7818608E-02  0.9719428E-01
          2   -1    0    0  501    0  0.00000000000E+00  0.00000000000E+00  0.10998595196E+04  0.10998595196E+04  0.25500000000E-02 0. -1.
         -2   -1    0    0    0  501 -0.00000000000E+00 -0.00000000000E+00 -0.77632887267E+03  0.77632887267E+03  0.25500000000E-02 0.  1.
    8880023    1    1    2    0    0 -0.40858613393E+03 -0.18145161387E+03 -0.49045705135E+03  0.93500034358E+03  0.65864270000E+03 0.  1.
    8880022    1    1    2    0    0  0.40858613393E+03  0.18145161387E+03  0.81398769824E+03  0.94118804865E+03  0.15294330000E+03 0.  0.
<mgrwt>
<rscale>  0 0.69871767E+03</rscale>
<asrwt>0</asrwt>
<pdfrwt beam="1">  1        2 0.16920916E+00 0.79603864E+03</pdfrwt>
<pdfrwt beam="2">  1       -2 0.11943521E+00 0.79603864E+03</pdfrwt>
<totfact> 0.11858256E+01</totfact>
</mgrwt>
</event>
<event>
 4    1  0.2502834E-007  0.1204644E+04  0.7818608E-02  0.9152621E-01
          2   -1    0    0  501    0  0.00000000000E+00  0.00000000000E+00  0.32845257443E+04  0.32845257443E+04  0.25500000000E-02 0. -1.
         -2   -1    0    0    0  501 -0.00000000000E+00 -0.00000000000E+00 -0.84863810110E+03  0.84863810110E+03  0.25500000000E-02 0.  1.
    8880023    1    1    2    0    0  0.95773841332E+03 -0.31637550012E+03 -0.27589644596E+03  0.12358338807E+04  0.65864270000E+03 0.  1.
    8880022    1    1    2    0    0 -0.95773841332E+03  0.31637550012E+03  0.27117840892E+04  0.28973299648E+04  0.15294330000E+03 0.  0.
<mgrwt>
<rscale>  0 0.11556123E+04</rscale>
<asrwt>0</asrwt>
<pdfrwt beam="1">  1        2 0.50531165E+00 0.12046437E+04</pdfrwt>
<pdfrwt beam="2">  1       -2 0.13055971E+00 0.12046437E+04</pdfrwt>
<totfact> 0.48574833E-01</totfact>
</mgrwt>
</event>
<event>
 4    1  0.2502834E-007  0.8198152E+03  0.7818608E-02  0.9669484E-01
          2   -1    0    0  501    0  0.00000000000E+00  0.00000000000E+00  0.20156911058E+04  0.20156911058E+04  0.25500000000E-02 0. -1.
         -2   -1    0    0    0  501 -0.00000000000E+00 -0.00000000000E+00 -0.38806855375E+03  0.38806855376E+03  0.25500000000E-02 0.  1.
    8880023    1    1    2    0    0  0.45653086839E+03 -0.17281882047E+03  0.14134098337E+03  0.83191000616E+03  0.65864270000E+03 0.  1.
    8880022    1    1    2    0    0 -0.45653086839E+03  0.17281882047E+03  0.14862815687E+04  0.15718496534E+04  0.15294330000E+03 0.  0.
<mgrwt>
<rscale>  0 0.72863155E+03</rscale>
<asrwt>0</asrwt>
<pdfrwt beam="1">  1        2 0.31010633E+00 0.81981521E+03</pdfrwt>
<pdfrwt beam="2">  1       -2 0.59702854E-01 0.81981521E+03</pdfrwt>
<totfact> 0.17567469E+01</totfact>
</mgrwt>
</event>
<event>
 4    1  0.3704020E-007  0.6711491E+03  0.7818608E-02  0.1014852E+00
         -2   -1    0    0    0  501 -0.00000000000E+00  0.00000000000E+00  0.18997550118E+04  0.18997550118E+04  0.25500000000E-02 0.  1.
          2   -1    0    0  501    0  0.00000000000E+00 -0.00000000000E+00 -0.23858894730E+04  0.23858894730E+04  0.25500000000E-02 0. -1.
    8880023    1    1    2    0    0 -0.44781698523E+02 -0.12093587043E+03  0.18360435436E+04  0.19548649533E+04  0.65864270000E+03 0.  1.
    8880022    1    1    2    0    0  0.44781698523E+02  0.12093587043E+03 -0.23221780048E+04  0.23307795315E+04  0.15294330000E+03 0.  0.
<mgrwt>
<rscale>  0 0.49590939E+03</rscale>
<asrwt>0</asrwt>
<pdfrwt beam="1">  1        2 0.36705992E+00 0.67114908E+03</pdfrwt>
<pdfrwt beam="2">  1       -2 0.29227000E+00 0.67114908E+03</pdfrwt>
<totfact> 0.15792802E-01</totfact>
</mgrwt>
</event>
<event>
 4    1  0.2502834E-007  0.1020554E+04  0.7818608E-02  0.9355148E-01
          2   -1    0    0  501    0  0.00000000000E+00  0.00000000000E+00  0.22708681356E+04  0.22708681356E+04  0.25500000000E-02 0. -1.
         -2   -1    0    0    0  501 -0.00000000000E+00 -0.00000000000E+00 -0.53746641232E+03  0.53746641232E+03  0.25500000000E-02 0.  1.
    8880023    1    1    2    0    0 -0.63051518556E+03  0.45844317446E+03  0.14295416948E+03  0.10305171732E+04  0.65864270000E+03 0.  0.
    8880022    1    1    2    0    0  0.63051518556E+03 -0.45844317446E+03  0.15904475538E+04  0.17778173747E+04  0.15294330000E+03 0.  0.
<mgrwt>
<rscale>  0 0.95860594E+03</rscale>
<asrwt>0</asrwt>
<pdfrwt beam="1">  1        2 0.34936432E+00 0.10205536E+04</pdfrwt>
<pdfrwt beam="2">  1       -2 0.82687142E-01 0.10205536E+04</pdfrwt>
<totfact> 0.60620127E+00</totfact>
</mgrwt>
</event>
<event>
 4    1  0.2502834E-007  0.9155830E+03  0.7818608E-02  0.9501465E-01
          2   -1    0    0  501    0  0.00000000000E+00  0.00000000000E+00  0.22341187000E+04  0.22341187000E+04  0.25500000000E-02 0. -1.
         -2   -1    0    0    0  501 -0.00000000000E+00 -0.00000000000E+00 -0.85183121015E+03  0.85183121015E+03  0.25500000000E-02 0.  1.
    8880023    1    1    2    0    0  0.63314336689E+02 -0.63282959315E+03 -0.53480530298E+03  0.10603343423E+04  0.65864270000E+03 0.  1.
    8880022    1    1    2    0    0 -0.63314336689E+02  0.63282959315E+03  0.19170927928E+04  0.20256155678E+04  0.15294330000E+03 0.  0.
<mgrwt>
<rscale>  0 0.84175892E+03</rscale>
<asrwt>0</asrwt>
<pdfrwt beam="1">  1        2 0.34371057E+00 0.91558299E+03</pdfrwt>
<pdfrwt beam="2">  1       -2 0.13105096E+00 0.91558299E+03</pdfrwt>
<totfact> 0.21321440E+00</totfact>
</mgrwt>
</event>
<event>
 4    1  0.2502834E-007  0.6961057E+03  0.7818608E-02  0.1001376E+00
          2   -1    0    0  501    0  0.00000000000E+00  0.00000000000E+00  0.28578887944E+04  0.28578887944E+04  0.25500000000E-02 0. -1.
         -2   -1    0    0    0  501 -0.00000000000E+00 -0.00000000000E+00 -0.22256541778E+03  0.22256541779E+03  0.25500000000E-02 0.  1.
    8880023    1    1    2    0    0 -0.75776930151E+02 -0.21215758298E+03  0.35032470334E+03  0.77928851345E+03  0.65864270000E+03 0.  1.
    8880022    1    1    2    0    0  0.75776930151E+02  0.21215758298E+03  0.22849986733E+04  0.23011656988E+04  0.15294330000E+03 0.  0.
<mgrwt>
<rscale>  0 0.55051147E+03</rscale>
<asrwt>0</asrwt>
<pdfrwt beam="1">  1        2 0.43967520E+00 0.69610573E+03</pdfrwt>
<pdfrwt beam="2">  1       -2 0.34240834E-01 0.69610573E+03</pdfrwt>
<totfact> 0.18148478E+01</totfact>
</mgrwt>
</event>
<event>
 4    1  0.2502834E-007  0.1163802E+04  0.7818608E-02  0.9193138E-01
         -2   -1    0    0    0  501 -0.00000000000E+00  0.00000000000E+00  0.88081377591E+03  0.88081377592E+03  0.25500000000E-02 0.  1.
          2   -1    0    0  501    0  0.00000000000E+00 -0.00000000000E+00 -0.15147770356E+04  0.15147770356E+04  0.25500000000E-02 0. -1.
    8880023    1    1    2    0    0  0.94500063229E+03 -0.16612937739E+03  0.11408425441E+03  0.11693804293E+04  0.65864270000E+03 0.  1.
    8880022    1    1    2    0    0 -0.94500063229E+03  0.16612937739E+03 -0.74804751407E+03  0.12262103822E+04  0.15294330000E+03 0.  0.
<mgrwt>
<rscale>  0 0.11124534E+04</rscale>
<asrwt>0</asrwt>
<pdfrwt beam="1">  1        2 0.23304262E+00 0.11638021E+04</pdfrwt>
<pdfrwt beam="2">  1       -2 0.13550981E+00 0.11638021E+04</pdfrwt>
<totfact> 0.47516986E+00</totfact>
</mgrwt>
</event>
<event>
 4    1  0.2502834E-007  0.1154660E+04  0.7818608E-02  0.9202507E-01
         -2   -1    0    0    0  501 -0.00000000000E+00  0.00000000000E+00  0.74363661671E+03  0.74363661671E+03  0.25500000000E-02 0.  1.
          2   -1    0    0  501    0  0.00000000000E+00 -0.00000000000E+00 -0.26006465635E+04  0.26006465635E+04  0.25500000000E-02 0. -1.
    8880023    1    1    2    0    0  0.92560275906E+03 -0.20661471595E+03  0.10530143622E+03  0.11594518995E+04  0.65864270000E+03 0.  0.
    8880022    1    1    2    0    0 -0.92560275906E+03  0.20661471595E+03 -0.19623113830E+04  0.21848312807E+04  0.15294330000E+03 0.  0.
<mgrwt>
<rscale>  0 0.11027584E+04</rscale>
<asrwt>0</asrwt>
<pdfrwt beam="1">  1        2 0.40009947E+00 0.11546603E+04</pdfrwt>
<pdfrwt beam="2">  1       -2 0.11440563E+00 0.11546603E+04</pdfrwt>
<totfact> 0.17944287E+00</totfact>
</mgrwt>
</event>
<event>
 4    1  0.2502834E-007  0.6986170E+03  0.7818608E-02  0.1000299E+00
          2   -1    0    0  501    0  0.00000000000E+00  0.00000000000E+00  0.24255079404E+04  0.24255079404E+04  0.25500000000E-02 0. -1.
         -2   -1    0    0    0  501 -0.00000000000E+00 -0.00000000000E+00 -0.19956687827E+03  0.19956687829E+03  0.25500000000E-02 0.  1.
    8880023    1    1    2    0    0 -0.20258725899E+03  0.11495157030E+03  0.45812124263E+03  0.83542847703E+03  0.65864270000E+03 0.  0.
    8880022    1    1    2    0    0  0.20258725899E+03 -0.11495157030E+03  0.17678198195E+04  0.17896463417E+04  0.15294330000E+03 0.  0.
<mgrwt>
<rscale>  0 0.55519432E+03</rscale>
<asrwt>0</asrwt>
<pdfrwt beam="1">  1        2 0.37315506E+00 0.69861697E+03</pdfrwt>
<pdfrwt beam="2">  1       -2 0.30702598E-01 0.69861697E+03</pdfrwt>
<totfact> 0.39536667E+01</totfact>
</mgrwt>
</event>
<event>
 4    1  0.2502834E-007  0.7285576E+03  0.7818608E-02  0.9894627E-01
          2   -1    0    0  501    0  0.00000000000E+00  0.00000000000E+00  0.17806540246E+04  0.17806540246E+04  0.25500000000E-02 0. -1.
         -2   -1    0    0    0  501 -0.00000000000E+00 -0.00000000000E+00 -0.75858251043E+03  0.75858251043E+03  0.25500000000E-02 0.  1.
    8880023    1    1    2    0    0 -0.16719765310E+03  0.26273726961E+03 -0.56041427124E+03  0.91916282002E+03  0.65864270000E+03 0.  1.
    8880022    1    1    2    0    0  0.16719765310E+03 -0.26273726961E+03  0.15824857854E+04  0.16200737150E+04  0.15294330000E+03 0.  0.
<mgrwt>
<rscale>  0 0.60522395E+03</rscale>
<asrwt>0</asrwt>
<pdfrwt beam="1">  1        2 0.27394677E+00 0.72855757E+03</pdfrwt>
<pdfrwt beam="2">  1       -2 0.11670500E+00 0.72855757E+03</pdfrwt>
<totfact> 0.52045164E+00</totfact>
</mgrwt>
</event>
<event>
 4    1  0.2502834E-007  0.1113771E+04  0.7818608E-02  0.9245877E-01
          2   -1    0    0  501    0  0.00000000000E+00  0.00000000000E+00  0.59279693010E+03  0.59279693011E+03  0.25500000000E-02 0. -1.
         -2   -1    0    0    0  501 -0.00000000000E+00 -0.00000000000E+00 -0.18428905633E+04  0.18428905633E+04  0.25500000000E-02 0.  1.
    8880023    1    1    2    0    0  0.87997252990E+03  0.17978610621E+03 -0.98494485344E+03  0.14868090893E+04  0.65864270000E+03 0.  0.
    8880022    1    1    2    0    0 -0.87997252990E+03 -0.17978610621E+03 -0.26514877973E+03  0.94887840410E+03  0.15294330000E+03 0.  0.
<mgrwt>
<rscale>  0 0.10592194E+04</rscale>
<asrwt>0</asrwt>
<pdfrwt beam="1">  1        2 0.91199529E-01 0.11137706E+04</pdfrwt>
<pdfrwt beam="2">  1       -2 0.28352162E+00 0.11137706E+04</pdfrwt>
<totfact> 0.19993418E+00</totfact>
</mgrwt>
</event>
<event>
 4    1  0.2502834E-007  0.1991006E+04  0.7818608E-02  0.8623644E-01
         -2   -1    0    0    0  501 -0.00000000000E+00  0.00000000000E+00  0.17237209359E+04  0.17237209359E+04  0.25500000000E-02 0.  1.
          2   -1    0    0  501    0  0.00000000000E+00 -0.00000000000E+00 -0.22644232634E+04  0.22644232634E+04  0.25500000000E-02 0. -1.
    8880023    1    1    2    0    0 -0.16692192531E+04  0.86255517594E+03 -0.66448373996E+03  0.20989624088E+04  0.65864270000E+03 0. -1.
    8880022    1    1    2    0    0  0.16692192531E+04 -0.86255517594E+03  0.12378141251E+03  0.18891817905E+04  0.15294330000E+03 0.  1.
<mgrwt>
<rscale>  0 0.19639901E+04</rscale>
<asrwt>0</asrwt>
<pdfrwt beam="1">  1        2 0.34837281E+00 0.19910059E+04</pdfrwt>
<pdfrwt beam="2">  1       -2 0.26518784E+00 0.19910059E+04</pdfrwt>
<totfact> 0.21953069E-01</totfact>
</mgrwt>
</event>
<event>
 4    1  0.2502834E-007  0.6768929E+03  0.7818608E-02  0.1011139E+00
          2   -1    0    0  501    0  0.00000000000E+00  0.00000000000E+00  0.14021392704E+04  0.14021392704E+04  0.25500000000E-02 0. -1.
         -2   -1    0    0    0  501 -0.00000000000E+00 -0.00000000000E+00 -0.44719755600E+03  0.44719755600E+03  0.25500000000E-02 0.  1.
    8880023    1    1    2    0    0  0.13446513061E+03 -0.79328001550E+02 -0.17443506562E+03  0.69900758334E+03  0.65864270000E+03 0.  1.
    8880022    1    1    2    0    0 -0.13446513061E+03  0.79328001550E+02  0.11293767800E+04  0.11503292430E+04  0.15294330000E+03 0.  0.
<mgrwt>
<rscale>  0 0.51024554E+03</rscale>
<asrwt>0</asrwt>
<pdfrwt beam="1">  1        2 0.21571373E+00 0.67689291E+03</pdfrwt>
<pdfrwt beam="2">  1       -2 0.68799625E-01 0.67689291E+03</pdfrwt>
<totfact> 0.28709587E+01</totfact>
</mgrwt>
</event>
<event>
 4    1  0.2502834E-007  0.7646359E+03  0.7818608E-02  0.9793250E-01
         -2   -1    0    0    0  501 -0.00000000000E+00  0.00000000000E+00  0.41113149063E+03  0.41113149064E+03  0.25500000000E-02 0.  1.
          2   -1    0    0  501    0  0.00000000000E+00 -0.00000000000E+00 -0.96610144943E+03  0.96610144944E+03  0.25500000000E-02 0. -1.
    8880023    1    1    2    0    0 -0.37521609236E+03  0.10035342447E+03 -0.11934553801E+03  0.77389371975E+03  0.65864270000E+03 0.  1.
    8880022    1    1    2    0    0  0.37521609236E+03 -0.10035342447E+03 -0.43562442080E+03  0.60333922032E+03  0.15294330000E+03 0. -1.
<mgrwt>
<rscale>  0 0.65726045E+03</rscale>
<asrwt>0</asrwt>
<pdfrwt beam="1">  1        2 0.14863099E+00 0.76463595E+03</pdfrwt>
<pdfrwt beam="2">  1       -2 0.63250999E-01 0.76463595E+03</pdfrwt>
<totfact> 0.62163185E+01</totfact>
</mgrwt>
</event>
<event>
 4    1  0.2502834E-007  0.7109703E+03  0.7818608E-02  0.9954415E-01
         -2   -1    0    0    0  501 -0.00000000000E+00  0.00000000000E+00  0.11380864377E+04  0.11380864377E+04  0.25500000000E-02 0.  1.
          2   -1    0    0  501    0  0.00000000000E+00 -0.00000000000E+00 -0.24651702693E+04  0.24651702693E+04  0.25500000000E-02 0. -1.
    8880023    1    1    2    0    0  0.97477941578E+02  0.24933235872E+03  0.10159559892E+04  0.12400182872E+04  0.65864270000E+03 0.  0.
    8880022    1    1    2    0    0 -0.97477941578E+02 -0.24933235872E+03 -0.23430398208E+04  0.23632384198E+04  0.15294330000E+03 0.  0.
<mgrwt>
<rscale>  0 0.57695037E+03</rscale>
<asrwt>0</asrwt>
<pdfrwt beam="1">  1        2 0.37925696E+00 0.71097031E+03</pdfrwt>
<pdfrwt beam="2">  1       -2 0.17509022E+00 0.71097031E+03</pdfrwt>
<totfact> 0.76052504E-01</totfact>
</mgrwt>
</event>
<event>
 4    1  0.2502834E-007  0.1807242E+04  0.7818608E-02  0.8718541E-01
         -2   -1    0    0    0  501 -0.00000000000E+00  0.00000000000E+00  0.25911322729E+04  0.25911322729E+04  0.25500000000E-02 0.  1.
          2   -1    0    0  501    0  0.00000000000E+00 -0.00000000000E+00 -0.18391227127E+04  0.18391227127E+04  0.25500000000E-02 0. -1.
    8880023    1    1    2    0    0  0.15039836443E+04 -0.75521402822E+03  0.17097467346E+04  0.24878422646E+04  0.65864270000E+03 0.  0.
    8880022    1    1    2    0    0 -0.15039836443E+04  0.75521402822E+03 -0.95773717442E+03  0.19424127211E+04  0.15294330000E+03 0.  0.
<mgrwt>
<rscale>  0 0.17771599E+04</rscale>
<asrwt>0</asrwt>
<pdfrwt beam="1">  1        2 0.28294196E+00 0.18072424E+04</pdfrwt>
<pdfrwt beam="2">  1       -2 0.39863574E+00 0.18072424E+04</pdfrwt>
<totfact> 0.56351032E-02</totfact>
</mgrwt>
</event>
<event>
 4    1  0.2502834E-007  0.6784675E+03  0.7818608E-02  0.1010204E+00
          2   -1    0    0  501    0  0.00000000000E+00  0.00000000000E+00  0.35798218060E+04  0.35798218060E+04  0.25500000000E-02 0. -1.
         -2   -1    0    0    0  501 -0.00000000000E+00 -0.00000000000E+00 -0.13800644960E+03  0.13800644963E+03  0.25500000000E-02 0.  1.
    8880023    1    1    2    0    0  0.13111825298E+03  0.96519466391E+02  0.72914993641E+03  0.99598084303E+03  0.65864270000E+03 0.  1.
    8880022    1    1    2    0    0 -0.13111825298E+03 -0.96519466391E+02  0.27126654200E+04  0.27218474126E+04  0.15294330000E+03 0.  0.
<mgrwt>
<rscale>  0 0.51393596E+03</rscale>
<asrwt>0</asrwt>
<pdfrwt beam="1">  1        2 0.55074178E+00 0.67846755E+03</pdfrwt>
<pdfrwt beam="2">  1       -2 0.21231763E-01 0.67846755E+03</pdfrwt>
<totfact> 0.15029103E+01</totfact>
</mgrwt>
</event>
<event>
 4    1  0.2502834E-007  0.1259017E+04  0.7818608E-02  0.9101785E-01
         -2   -1    0    0    0  501 -0.00000000000E+00  0.00000000000E+00  0.12613834629E+04  0.12613834629E+04  0.25500000000E-02 0.  1.
          2   -1    0    0  501    0  0.00000000000E+00 -0.00000000000E+00 -0.22790394956E+04  0.22790394956E+04  0.25500000000E-02 0. -1.
    8880023    1    1    2    0    0  0.95272418696E+03 -0.49358910779E+03 -0.18050530884E+04  0.22007590604E+04  0.65864270000E+03 0.  0.
    8880022    1    1    2    0    0 -0.95272418696E+03  0.49358910779E+03  0.78739705564E+03  0.13396638981E+04  0.15294330000E+03 0.  0.
<mgrwt>
<rscale>  0 0.12127319E+04</rscale>
<asrwt>0</asrwt>
<pdfrwt beam="1">  1        2 0.35062146E+00 0.12590170E+04</pdfrwt>
<pdfrwt beam="2">  1       -2 0.19405899E+00 0.12590170E+04</pdfrwt>
<totfact> 0.65537959E-01</totfact>
</mgrwt>
</event>
<event>
 4    1  0.2502834E-007  0.9398220E+03  0.7818608E-02  0.9464912E-01
         -2   -1    0    0    0  501 -0.00000000000E+00  0.00000000000E+00  0.67851411808E+03  0.67851411808E+03  0.25500000000E-02 0.  1.
          2   -1    0    0  501    0  0.00000000000E+00 -0.00000000000E+00 -0.11643663317E+04  0.11643663317E+04  0.25500000000E-02 0. -1.
    8880023    1    1    2    0    0 -0.91559398352E+02 -0.66413259275E+03  0.92496437851E+02  0.94436275946E+03  0.65864270000E+03 0.  0.
    8880022    1    1    2    0    0  0.91559398352E+02  0.66413259275E+03 -0.57834865149E+03  0.89851769035E+03  0.15294330000E+03 0.  0.
<mgrwt>
<rscale>  0 0.86920913E+03</rscale>
<asrwt>0</asrwt>
<pdfrwt beam="1">  1        2 0.17913328E+00 0.93982202E+03</pdfrwt>
<pdfrwt beam="2">  1       -2 0.10438679E+00 0.93982202E+03</pdfrwt>
<totfact> 0.14821580E+01</totfact>
</mgrwt>
</event>
<event>
 4    1  0.2502834E-007  0.6720858E+03  0.7818608E-02  0.1014210E+00
         -2   -1    0    0    0  501 -0.00000000000E+00  0.00000000000E+00  0.22893152254E+03  0.22893152256E+03  0.25500000000E-02 0.  1.
          2   -1    0    0  501    0  0.00000000000E+00 -0.00000000000E+00 -0.13677517417E+04  0.13677517417E+04  0.25500000000E-02 0. -1.
    8880023    1    1    2    0    0 -0.13261739155E+03 -0.17370052312E+02 -0.30426340209E+03  0.73775030693E+03  0.65864270000E+03 0.  1.
    8880022    1    1    2    0    0  0.13261739155E+03  0.17370052312E+02 -0.83455681708E+03  0.85893295734E+03  0.15294330000E+03 0.  0.
<mgrwt>
<rscale>  0 0.49835288E+03</rscale>
<asrwt>0</asrwt>
<pdfrwt beam="1">  1        2 0.21042334E+00 0.67208578E+03</pdfrwt>
<pdfrwt beam="2">  1       -2 0.35220235E-01 0.67208578E+03</pdfrwt>
<totfact> 0.11691616E+02</totfact>
</mgrwt>
</event>
<event>
 4    1  0.2502834E-007  0.6672983E+03  0.7818608E-02  0.1017678E+00
         -2   -1    0    0    0  501 -0.00000000000E+00  0.00000000000E+00  0.36815637942E+03  0.36815637942E+03  0.25500000000E-02 0.  1.
          2   -1    0    0  501    0  0.00000000000E+00 -0.00000000000E+00 -0.77970091594E+03  0.77970091594E+03  0.25500000000E-02 0. -1.
    8880023    1    1    2    0    0 -0.64108912508E+02  0.85830182424E+02  0.30495785805E+02  0.66799473957E+03  0.65864270000E+03 0.  1.
    8880022    1    1    2    0    0  0.64108912508E+02 -0.85830182424E+02 -0.44204032233E+03  0.47986255580E+03  0.15294330000E+03 0.  0.
<mgrwt>
<rscale>  0 0.48533772E+03</rscale>
<asrwt>0</asrwt>
<pdfrwt beam="1">  1        2 0.11995399E+00 0.66729827E+03</pdfrwt>
<pdfrwt beam="2">  1       -2 0.56639443E-01 0.66729827E+03</pdfrwt>
<totfact> 0.10606433E+02</totfact>
</mgrwt>
</event>
<event>
 4    1  0.2502834E-007  0.8408255E+03  0.7818608E-02  0.9628626E-01
         -2   -1    0    0    0  501 -0.00000000000E+00  0.00000000000E+00  0.91264467293E+03  0.91264467293E+03  0.25500000000E-02 0.  1.
          2   -1    0    0  501    0  0.00000000000E+00 -0.00000000000E+00 -0.21956124805E+04  0.21956124805E+04  0.25500000000E-02 0. -1.
    8880023    1    1    2    0    0  0.27894092387E+03 -0.44200606338E+03  0.67356573741E+03  0.10773478584E+04  0.65864270000E+03 0.  0.
    8880022    1    1    2    0    0 -0.27894092387E+03  0.44200606338E+03 -0.19565335450E+04  0.20309092950E+04  0.15294330000E+03 0. -1.
<mgrwt>
<rscale>  0 0.75430182E+03</rscale>
<asrwt>0</asrwt>
<pdfrwt beam="1">  1        2 0.33778653E+00 0.84082555E+03</pdfrwt>
<pdfrwt beam="2">  1       -2 0.14040687E+00 0.84082555E+03</pdfrwt>
<totfact> 0.18987655E+00</totfact>
</mgrwt>
</event>
<event>
 4    1  0.2502834E-007  0.6617096E+03  0.7818608E-02  0.1022469E+00
          2   -1    0    0  501    0  0.00000000000E+00  0.00000000000E+00  0.69313005595E+03  0.69313005595E+03  0.25500000000E-02 0. -1.
         -2   -1    0    0    0  501 -0.00000000000E+00 -0.00000000000E+00 -0.54506703405E+03  0.54506703405E+03  0.25500000000E-02 0.  1.
    8880023    1    1    2    0    0 -0.44199799843E+02 -0.45779852668E+02 -0.32482290834E+03  0.73713604258E+03  0.65864270000E+03 0.  1.
    8880022    1    1    2    0    0  0.44199799843E+02  0.45779852668E+02  0.47288593024E+03  0.50106104743E+03  0.15294330000E+03 0.  0.
<mgrwt>
<rscale>  0 0.46805913E+03</rscale>
<asrwt>0</asrwt>
<pdfrwt beam="1">  1        2 0.10663539E+00 0.66170962E+03</pdfrwt>
<pdfrwt beam="2">  1       -2 0.83856467E-01 0.66170962E+03</pdfrwt>
<totfact> 0.52579431E+01</totfact>
</mgrwt>
</event>
<event>
 4    1  0.2502834E-007  0.8654056E+03  0.7818608E-02  0.9584019E-01
         -2   -1    0    0    0  501 -0.00000000000E+00  0.00000000000E+00  0.79561680054E+03  0.79561680054E+03  0.25500000000E-02 0.  1.
          2   -1    0    0  501    0  0.00000000000E+00 -0.00000000000E+00 -0.80607909624E+03  0.80607909625E+03  0.25500000000E-02 0. -1.
    8880023    1    1    2    0    0 -0.53521982997E+03  0.16928217696E+03  0.33161924623E+03  0.92676763677E+03  0.65864270000E+03 0.  0.
    8880022    1    1    2    0    0  0.53521982997E+03 -0.16928217696E+03 -0.34208154193E+03  0.67492826002E+03  0.15294330000E+03 0.  0.
<mgrwt>
<rscale>  0 0.78362985E+03</rscale>
<asrwt>0</asrwt>
<pdfrwt beam="1">  1        2 0.12401217E+00 0.86540564E+03</pdfrwt>
<pdfrwt beam="2">  1       -2 0.12240258E+00 0.86540564E+03</pdfrwt>
<totfact> 0.17301335E+01</totfact>
</mgrwt>
</event>
<event>
 4    1  0.3461179E-007  0.1222740E+04  0.7818608E-02  0.9135328E-01
         -2   -1    0    0    0  501 -0.00000000000E+00  0.00000000000E+00  0.12736459150E+04  0.12736459151E+04  0.25500000000E-02 0.  1.
          2   -1    0    0  501    0  0.00000000000E+00 -0.00000000000E+00 -0.31854422041E+04  0.31854422041E+04  0.25500000000E-02 0. -1.
    8880023    1    1    2    0    0 -0.36201673740E+03 -0.96448265986E+03  0.86211502222E+03  0.14961067599E+04  0.65864270000E+03 0.  1.
    8880022    1    1    2    0    0  0.36201673740E+03  0.96448265986E+03 -0.27739113113E+04  0.29629813592E+04  0.15294330000E+03 0.  0.
<mgrwt>
<rscale>  0 0.11746623E+04</rscale>
<asrwt>0</asrwt>
<pdfrwt beam="1">  1        2 0.49006803E+00 0.12227400E+04</pdfrwt>
<pdfrwt beam="2">  1       -2 0.19594553E+00 0.12227400E+04</pdfrwt>
<totfact> 0.18423460E-01</totfact>
</mgrwt>
</event>
<event>
 4    1  0.2502834E-007  0.7791789E+03  0.7818608E-02  0.9757769E-01
          2   -1    0    0  501    0  0.00000000000E+00  0.00000000000E+00  0.13641155535E+04  0.13641155535E+04  0.25500000000E-02 0. -1.
         -2   -1    0    0    0  501 -0.00000000000E+00 -0.00000000000E+00 -0.96398580173E+03  0.96398580173E+03  0.25500000000E-02 0.  1.
    8880023    1    1    2    0    0  0.36907760961E+03 -0.19259107332E+03 -0.75855235190E+03  0.10874380351E+04  0.65864270000E+03 0.  1.
    8880022    1    1    2    0    0 -0.36907760961E+03  0.19259107332E+03  0.11586821037E+04  0.12406633201E+04  0.15294330000E+03 0.  0.
<mgrwt>
<rscale>  0 0.67678978E+03</rscale>
<asrwt>0</asrwt>
<pdfrwt beam="1">  1        2 0.20986393E+00 0.77917893E+03</pdfrwt>
<pdfrwt beam="2">  1       -2 0.14830551E+00 0.77917893E+03</pdfrwt>
<totfact> 0.47774560E+00</totfact>
</mgrwt>
</event>
<event>
 4    1  0.2502834E-007  0.7138963E+03  0.7818608E-02  0.9943807E-01
          2   -1    0    0  501    0  0.00000000000E+00  0.00000000000E+00  0.16567655115E+04  0.16567655115E+04  0.25500000000E-02 0. -1.
         -2   -1    0    0    0  501 -0.00000000000E+00 -0.00000000000E+00 -0.55356377688E+03  0.55356377689E+03  0.25500000000E-02 0.  1.
    8880023    1    1    2    0    0 -0.26087904674E+03 -0.88203321750E+02 -0.29841039597E+03  0.77375491836E+03  0.65864270000E+03 0.  1.
    8880022    1    1    2    0    0  0.26087904674E+03  0.88203321750E+02  0.14016121306E+04  0.14365743700E+04  0.15294330000E+03 0.  0.
<mgrwt>
<rscale>  0 0.58184374E+03</rscale>
<asrwt>0</asrwt>
<pdfrwt beam="1">  1        2 0.25488700E+00 0.71389629E+03</pdfrwt>
<pdfrwt beam="2">  1       -2 0.85163659E-01 0.71389629E+03</pdfrwt>
<totfact> 0.12841824E+01</totfact>
</mgrwt>
</event>
<event>
 4    1  0.4026922E-007  0.1269414E+04  0.7818608E-02  0.9092433E-01
          2   -1    0    0  501    0  0.00000000000E+00  0.00000000000E+00  0.27256472881E+04  0.27256472881E+04  0.25500000000E-02 0. -1.
         -2   -1    0    0    0  501 -0.00000000000E+00 -0.00000000000E+00 -0.16106547696E+04  0.16106547696E+04  0.25500000000E-02 0.  1.
    8880023    1    1    2    0    0  0.30061089305E+03  0.10427057698E+04 -0.12176823744E+04  0.17590232524E+04  0.65864270000E+03 0.  0.
    8880022    1    1    2    0    0 -0.30061089305E+03 -0.10427057698E+04  0.23326748928E+04  0.25772788053E+04  0.15294330000E+03 0.  0.
<mgrwt>
<rscale>  0 0.12236159E+04</rscale>
<asrwt>0</asrwt>
<pdfrwt beam="1">  1        2 0.41933035E+00 0.12694142E+04</pdfrwt>
<pdfrwt beam="2">  1       -2 0.24779304E+00 0.12694142E+04</pdfrwt>
<totfact> 0.16477645E-01</totfact>
</mgrwt>
</event>
<event>
 4    1  0.2502834E-007  0.7120344E+03  0.7818608E-02  0.9950523E-01
          2   -1    0    0  501    0  0.00000000000E+00  0.00000000000E+00  0.23459590378E+04  0.23459590378E+04  0.25500000000E-02 0. -1.
         -2   -1    0    0    0  501 -0.00000000000E+00 -0.00000000000E+00 -0.17531363860E+03  0.17531363862E+03  0.25500000000E-02 0.  1.
    8880023    1    1    2    0    0 -0.25304404547E+03 -0.95663244548E+02  0.63358687200E+03  0.95311346436E+03  0.65864270000E+03 0.  1.
    8880022    1    1    2    0    0  0.25304404547E+03  0.95663244548E+02  0.15370585272E+04  0.15681592120E+04  0.15294330000E+03 0.  0.
<mgrwt>
<rscale>  0 0.57873996E+03</rscale>
<asrwt>0</asrwt>
<pdfrwt beam="1">  1        2 0.36091675E+00 0.71203438E+03</pdfrwt>
<pdfrwt beam="2">  1       -2 0.26971331E-01 0.71203438E+03</pdfrwt>
<totfact> 0.55501118E+01</totfact>
</mgrwt>
</event>
<event>
 4    1  0.2502834E-007  0.7651063E+03  0.7818608E-02  0.9792063E-01
          2   -1    0    0  501    0  0.00000000000E+00  0.00000000000E+00  0.23304959395E+04  0.23304959395E+04  0.25500000000E-02 0. -1.
         -2   -1    0    0    0  501 -0.00000000000E+00 -0.00000000000E+00 -0.29832665508E+03  0.29832665509E+03  0.25500000000E-02 0.  1.
    8880023    1    1    2    0    0 -0.37761843169E+03 -0.94772330399E+02  0.26018416837E+03  0.80813580684E+03  0.65864270000E+03 0.  0.
    8880022    1    1    2    0    0  0.37761843169E+03  0.94772330399E+02  0.17719851160E+04  0.18206867877E+04  0.15294330000E+03 0.  0.
<mgrwt>
<rscale>  0 0.65790248E+03</rscale>
<asrwt>0</asrwt>
<pdfrwt beam="1">  1        2 0.35853782E+00 0.76510632E+03</pdfrwt>
<pdfrwt beam="2">  1       -2 0.45896410E-01 0.76510632E+03</pdfrwt>
<totfact> 0.20378501E+01</totfact>
</mgrwt>
</event>
<event>
 4    1  0.2502834E-007  0.9885076E+03  0.7818608E-02  0.9396750E-01
         -2   -1    0    0    0  501 -0.00000000000E+00  0.00000000000E+00  0.18997243411E+04  0.18997243411E+04  0.25500000000E-02 0.  1.
          2   -1    0    0  501    0  0.00000000000E+00 -0.00000000000E+00 -0.65866772302E+03  0.65866772302E+03  0.25500000000E-02 0. -1.
    8880023    1    1    2    0    0 -0.70501816359E+03  0.21514272381E+03  0.14700729642E+04  0.17715139652E+04  0.65864270000E+03 0.  0.
    8880022    1    1    2    0    0  0.70501816359E+03 -0.21514272381E+03 -0.22901634619E+03  0.78687809884E+03  0.15294330000E+03 0.  0.
<mgrwt>
<rscale>  0 0.92343620E+03</rscale>
<asrwt>0</asrwt>
<pdfrwt beam="1">  1        2 0.10133350E+00 0.98850757E+03</pdfrwt>
<pdfrwt beam="2">  1       -2 0.29226528E+00 0.98850757E+03</pdfrwt>
<totfact> 0.15766401E+00</totfact>
</mgrwt>
</event>
<event>
 4    1  0.2502834E-007  0.6993633E+03  0.7818608E-02  0.9999853E-01
         -2   -1    0    0    0  501 -0.00000000000E+00  0.00000000000E+00  0.55093855816E+03  0.55093855816E+03  0.25500000000E-02 0.  1.
          2   -1    0    0  501    0  0.00000000000E+00 -0.00000000000E+00 -0.16741098996E+04  0.16741098996E+04  0.25500000000E-02 0. -1.
    8880023    1    1    2    0    0 -0.13391016744E+03 -0.19330507523E+03  0.30977810592E+03  0.76489964454E+03  0.65864270000E+03 0.  0.
    8880022    1    1    2    0    0  0.13391016744E+03  0.19330507523E+03 -0.14329494473E+04  0.14601488132E+04  0.15294330000E+03 0.  0.
<mgrwt>
<rscale>  0 0.55656689E+03</rscale>
<asrwt>0</asrwt>
<pdfrwt beam="1">  1        2 0.25755537E+00 0.69936328E+03</pdfrwt>
<pdfrwt beam="2">  1       -2 0.84759778E-01 0.69936328E+03</pdfrwt>
<totfact> 0.12727809E+01</totfact>
</mgrwt>
</event>
<event>
 4    1  0.2502834E-007  0.7463805E+03  0.7818608E-02  0.9841736E-01
          2   -1    0    0  501    0  0.00000000000E+00  0.00000000000E+00  0.94367061121E+03  0.94367061122E+03  0.25500000000E-02 0. -1.
         -2   -1    0    0    0  501 -0.00000000000E+00 -0.00000000000E+00 -0.43630666100E+03  0.43630666100E+03  0.25500000000E-02 0.  1.
    8880023    1    1    2    0    0  0.34142944613E+03  0.81851261491E+02  0.26128409374E+01  0.74638510763E+03  0.65864270000E+03 0. -1.
    8880022    1    1    2    0    0 -0.34142944613E+03 -0.81851261491E+02  0.50475110928E+03  0.63359216459E+03  0.15294330000E+03 0.  0.
<mgrwt>
<rscale>  0 0.63170042E+03</rscale>
<asrwt>0</asrwt>
<pdfrwt beam="1">  1        2 0.14518009E+00 0.74638053E+03</pdfrwt>
<pdfrwt beam="2">  1       -2 0.67124103E-01 0.74638053E+03</pdfrwt>
<totfact> 0.56668033E+01</totfact>
</mgrwt>
</event>
<event>
 4    1  0.2502834E-007  0.8459424E+03  0.7818608E-02  0.9619076E-01
         -2   -1    0    0    0  501 -0.00000000000E+00  0.00000000000E+00  0.91460932895E+03  0.91460932895E+03  0.25500000000E-02 0.  1.
          2   -1    0    0  501    0  0.00000000000E+00 -0.00000000000E+00 -0.12933689545E+04  0.12933689545E+04  0.25500000000E-02 0. -1.
    8880023    1    1    2    0    0 -0.34767211193E+03  0.40116383006E+03  0.63209438043E+03  0.10560122291E+04  0.65864270000E+03 0.  1.
    8880022    1    1    2    0    0  0.34767211193E+03 -0.40116383006E+03 -0.10108540060E+04  0.11519660544E+04  0.15294330000E+03 0.  0.
<mgrwt>
<rscale>  0 0.76046398E+03</rscale>
<asrwt>0</asrwt>
<pdfrwt beam="1">  1        2 0.19897984E+00 0.84594239E+03</pdfrwt>
<pdfrwt beam="2">  1       -2 0.14070913E+00 0.84594239E+03</pdfrwt>
<totfact> 0.59678047E+00</totfact>
</mgrwt>
</event>
<event>
 4    1  0.2502834E-007  0.1471149E+04  0.7818608E-02  0.8930282E-01
          2   -1    0    0  501    0  0.00000000000E+00  0.00000000000E+00  0.13004871785E+04  0.13004871785E+04  0.25500000000E-02 0. -1.
         -2   -1    0    0    0  501 -0.00000000000E+00 -0.00000000000E+00 -0.25887385326E+04  0.25887385326E+04  0.25500000000E-02 0.  1.
    8880023    1    1    2    0    0 -0.92472705881E+03  0.93560054650E+03  0.59502407477E+03  0.15869254462E+04  0.65864270000E+03 0.  0.
    8880022    1    1    2    0    0  0.92472705881E+03 -0.93560054650E+03 -0.18832754288E+04  0.23023002649E+04  0.15294330000E+03 0.  0.
<mgrwt>
<rscale>  0 0.14329856E+04</rscale>
<asrwt>0</asrwt>
<pdfrwt beam="1">  1        2 0.20007495E+00 0.14711488E+04</pdfrwt>
<pdfrwt beam="2">  1       -2 0.39826747E+00 0.14711488E+04</pdfrwt>
<totfact> 0.11935596E-01</totfact>
</mgrwt>
</event>
<event>
 4    1  0.2812903E-007  0.1242781E+04  0.7818608E-02  0.9116618E-01
         -2   -1    0    0    0  501 -0.00000000000E+00  0.00000000000E+00  0.17493675587E+04  0.17493675587E+04  0.25500000000E-02 0.  1.
          2   -1    0    0  501    0  0.00000000000E+00 -0.00000000000E+00 -0.25038355684E+04  0.25038355684E+04  0.25500000000E-02 0. -1.
    8880023    1    1    2    0    0 -0.74134254518E+03  0.74906965530E+03  0.13865286589E+04  0.18619790670E+04  0.65864270000E+03 0.  0.
    8880022    1    1    2    0    0  0.74134254518E+03 -0.74906965530E+03 -0.21409966686E+04  0.23912240601E+04  0.15294330000E+03 0.  0.
<mgrwt>
<rscale>  0 0.11957122E+04</rscale>
<asrwt>0</asrwt>
<pdfrwt beam="1">  1        2 0.38520547E+00 0.12427809E+04</pdfrwt>
<pdfrwt beam="2">  1       -2 0.26913347E+00 0.12427809E+04</pdfrwt>
<totfact> 0.16517988E-01</totfact>
</mgrwt>
</event>
<event>
 4    1  0.2502834E-007  0.1304543E+04  0.7818608E-02  0.9061647E-01
         -2   -1    0    0    0  501 -0.00000000000E+00  0.00000000000E+00  0.22082958664E+04  0.22082958664E+04  0.25500000000E-02 0.  1.
          2   -1    0    0  501    0  0.00000000000E+00 -0.00000000000E+00 -0.11531582538E+04  0.11531582539E+04  0.25500000000E-02 0. -1.
    8880023    1    1    2    0    0  0.13444529894E+02 -0.11259841814E+04  0.16301349476E+04  0.20878628513E+04  0.65864270000E+03 0. -1.
    8880022    1    1    2    0    0 -0.13444529894E+02  0.11259841814E+04 -0.57499733503E+03  0.12735912690E+04  0.15294330000E+03 0.  0.
<mgrwt>
<rscale>  0 0.12603084E+04</rscale>
<asrwt>0</asrwt>
<pdfrwt beam="1">  1        2 0.17740896E+00 0.13045426E+04</pdfrwt>
<pdfrwt beam="2">  1       -2 0.33973782E+00 0.13045426E+04</pdfrwt>
<totfact> 0.35298488E-01</totfact>
</mgrwt>
</event>
<event>
 4    1  0.2502834E-007  0.8977080E+03  0.7818608E-02  0.9529721E-01
          2   -1    0    0  501    0  0.00000000000E+00  0.00000000000E+00  0.16909125429E+04  0.16909125429E+04  0.25500000000E-02 0. -1.
         -2   -1    0    0    0  501 -0.00000000000E+00 -0.00000000000E+00 -0.38130046626E+03  0.38130046627E+03  0.25500000000E-02 0.  1.
    8880023    1    1    2    0    0 -0.34834136695E+03 -0.50072728134E+03  0.44187814120E+03  0.10005678469E+04  0.65864270000E+03 0.  0.
    8880022    1    1    2    0    0  0.34834136695E+03  0.50072728134E+03  0.86773393548E+03  0.10716451624E+04  0.15294330000E+03 0.  0.
<mgrwt>
<rscale>  0 0.82127635E+03</rscale>
<asrwt>0</asrwt>
<pdfrwt beam="1">  1        2 0.26014039E+00 0.89770804E+03</pdfrwt>
<pdfrwt beam="2">  1       -2 0.58661610E-01 0.89770804E+03</pdfrwt>
<totfact> 0.27222643E+01</totfact>
</mgrwt>
</event>
<event>
 4    1  0.2502834E-007  0.1082677E+04  0.7818608E-02  0.9280593E-01
         -2   -1    0    0    0  501 -0.00000000000E+00  0.00000000000E+00  0.68194420675E+03  0.68194420675E+03  0.25500000000E-02 0.  1.
          2   -1    0    0  501    0  0.00000000000E+00 -0.00000000000E+00 -0.21953913819E+04  0.21953913819E+04  0.25500000000E-02 0. -1.
    8880023    1    1    2    0    0  0.32659673296E+02 -0.85866885224E+03  0.53187724225E+02  0.10839824687E+04  0.65864270000E+03 0.  1.
    8880022    1    1    2    0    0 -0.32659673296E+02  0.85866885224E+03 -0.15666348994E+04  0.17933531200E+04  0.15294330000E+03 0.  0.
<mgrwt>
<rscale>  0 0.10258932E+04</rscale>
<asrwt>0</asrwt>
<pdfrwt beam="1">  1        2 0.33775252E+00 0.10826768E+04</pdfrwt>
<pdfrwt beam="2">  1       -2 0.10491449E+00 0.10826768E+04</pdfrwt>
<totfact> 0.37980478E+00</totfact>
</mgrwt>
</event>
<event>
 4    1  0.2502834E-007  0.1202806E+04  0.7818608E-02  0.9154399E-01
         -2   -1    0    0    0  501 -0.00000000000E+00  0.00000000000E+00  0.16725361095E+04  0.16725361095E+04  0.25500000000E-02 0.  1.
          2   -1    0    0  501    0  0.00000000000E+00 -0.00000000000E+00 -0.87340065187E+03  0.87340065187E+03  0.25500000000E-02 0. -1.
    8880023    1    1    2    0    0  0.53612767547E+03 -0.85176288390E+03 -0.73583962330E+02  0.12050550612E+04  0.65864270000E+03 0.  0.
    8880022    1    1    2    0    0 -0.53612767547E+03  0.85176288390E+03  0.87271941995E+03  0.13408817001E+04  0.15294330000E+03 0.  0.
<mgrwt>
<rscale>  0 0.11536757E+04</rscale>
<asrwt>0</asrwt>
<pdfrwt beam="1">  1        2 0.13436933E+00 0.12028063E+04</pdfrwt>
<pdfrwt beam="2">  1       -2 0.25731324E+00 0.12028063E+04</pdfrwt>
<totfact> 0.17289101E+00</totfact>
</mgrwt>
</event>
<event>
 4    1  0.2502834E-007  0.1098885E+04  0.7818608E-02  0.9262298E-01
          2   -1    0    0  501    0  0.00000000000E+00  0.00000000000E+00  0.34654235215E+04  0.34654235215E+04  0.25500000000E-02 0. -1.
         -2   -1    0    0    0  501 -0.00000000000E+00 -0.00000000000E+00 -0.30923244744E+03  0.30923244745E+03  0.25500000000E-02 0.  1.
    8880023    1    1    2    0    0  0.53130483098E+03 -0.70103749914E+03  0.12164126848E+04  0.16392706990E+04  0.65864270000E+03 0.  1.
    8880022    1    1    2    0    0 -0.53130483098E+03  0.70103749914E+03  0.19397783893E+04  0.21353852700E+04  0.15294330000E+03 0.  0.
<mgrwt>
<rscale>  0 0.10432908E+04</rscale>
<asrwt>0</asrwt>
<pdfrwt beam="1">  1        2 0.53314207E+00 0.10988852E+04</pdfrwt>
<pdfrwt beam="2">  1       -2 0.47574223E-01 0.10988852E+04</pdfrwt>
<totfact> 0.36743261E+00</totfact>
</mgrwt>
</event>
<event>
 4    1  0.2502834E-007  0.7751964E+03  0.7818608E-02  0.9767244E-01
          2   -1    0    0  501    0  0.00000000000E+00  0.00000000000E+00  0.14104816664E+04  0.14104816664E+04  0.25500000000E-02 0. -1.
         -2   -1    0    0    0  501 -0.00000000000E+00 -0.00000000000E+00 -0.27708711547E+03  0.27708711549E+03  0.25500000000E-02 0.  1.
    8880023    1    1    2    0    0 -0.74545931622E+02 -0.40194792695E+03  0.51508339219E+03  0.93072033344E+03  0.65864270000E+03 0.  1.
    8880022    1    1    2    0    0  0.74545931622E+02  0.40194792695E+03  0.61831115878E+03  0.75684844850E+03  0.15294330000E+03 0.  0.
<mgrwt>
<rscale>  0 0.67150427E+03</rscale>
<asrwt>0</asrwt>
<pdfrwt beam="1">  1        2 0.21699718E+00 0.77519639E+03</pdfrwt>
<pdfrwt beam="2">  1       -2 0.42628787E-01 0.77519639E+03</pdfrwt>
<totfact> 0.75669081E+01</totfact>
</mgrwt>
</event>
<event>
 4    1  0.2502834E-007  0.1164997E+04  0.7818608E-02  0.9191922E-01
         -2   -1    0    0    0  501 -0.00000000000E+00  0.00000000000E+00  0.15445010892E+04  0.15445010892E+04  0.25500000000E-02 0.  1.
          2   -1    0    0  501    0  0.00000000000E+00 -0.00000000000E+00 -0.18352863291E+04  0.18352863291E+04  0.25500000000E-02 0. -1.
    8880023    1    1    2    0    0  0.65373307439E+03 -0.70430104406E+03  0.11527568411E+04  0.16389220342E+04  0.65864270000E+03 0.  0.
    8880022    1    1    2    0    0 -0.65373307439E+03  0.70430104406E+03 -0.14435420810E+04  0.17408653842E+04  0.15294330000E+03 0.  0.
<mgrwt>
<rscale>  0 0.11137192E+04</rscale>
<asrwt>0</asrwt>
<pdfrwt beam="1">  1        2 0.28235174E+00 0.11649966E+04</pdfrwt>
<pdfrwt beam="2">  1       -2 0.23761555E+00 0.11649966E+04</pdfrwt>
<totfact> 0.61702494E-01</totfact>
</mgrwt>
</event>
<event>
 4    1  0.2502834E-007  0.9458832E+03  0.7818608E-02  0.9456062E-01
          2   -1    0    0  501    0  0.00000000000E+00  0.00000000000E+00  0.38839246771E+04  0.38839246771E+04  0.25500000000E-02 0. -1.
         -2   -1    0    0    0  501 -0.00000000000E+00 -0.00000000000E+00 -0.42411165567E+03  0.42411165568E+03  0.25500000000E-02 0.  1.
    8880023    1    1    2    0    0  0.44517855367E+03 -0.51254349466E+03  0.34855970069E+04  0.36116591034E+04  0.65864270000E+03 0. -1.
    8880022    1    1    2    0    0 -0.44517855367E+03  0.51254349466E+03 -0.25783985521E+02  0.69637722930E+03  0.15294330000E+03 0.  1.
<mgrwt>
<rscale>  0 0.87602156E+03</rscale>
<asrwt>0</asrwt>
<pdfrwt beam="1">  1        2 0.59752688E+00 0.94588318E+03</pdfrwt>
<pdfrwt beam="2">  1       -2 0.65247946E-01 0.94588318E+03</pdfrwt>
<totfact> 0.97156650E-01</totfact>
</mgrwt>
</event>
<event>
 4    1  0.2502834E-007  0.1558755E+04  0.7818608E-02  0.8869224E-01
         -2   -1    0    0    0  501 -0.00000000000E+00  0.00000000000E+00  0.20315606601E+04  0.20315606601E+04  0.25500000000E-02 0.  1.
          2   -1    0    0  501    0  0.00000000000E+00 -0.00000000000E+00 -0.21126525683E+04  0.21126525683E+04  0.25500000000E-02 0. -1.
    8880023    1    1    2    0    0 -0.12531535932E+04  0.65231337739E+03 -0.14805148953E+04  0.21498002772E+04  0.65864270000E+03 0.  0.
    8880022    1    1    2    0    0  0.12531535932E+04 -0.65231337739E+03  0.13994229870E+04  0.19944129512E+04  0.15294330000E+03 0.  0.
<mgrwt>
<rscale>  0 0.15231176E+04</rscale>
<asrwt>0</asrwt>
<pdfrwt beam="1">  1        2 0.32502347E+00 0.15587549E+04</pdfrwt>
<pdfrwt beam="2">  1       -2 0.31254779E+00 0.15587549E+04</pdfrwt>
<totfact> 0.14330445E-01</totfact>
</mgrwt>
</event>
<event>
 4    1  0.2837779E-007  0.9970820E+03  0.7818608E-02  0.9385385E-01
          2   -1    0    0  501    0  0.00000000000E+00  0.00000000000E+00  0.22055549640E+04  0.22055549640E+04  0.25500000000E-02 0. -1.
         -2   -1    0    0    0  501 -0.00000000000E+00 -0.00000000000E+00 -0.11388721160E+04  0.11388721160E+04  0.25500000000E-02 0.  1.
    8880023    1    1    2    0    0  0.46400748401E+03  0.58741748246E+03 -0.83147080883E+03  0.12982742993E+04  0.65864270000E+03 0.  1.
    8880022    1    1    2    0    0 -0.46400748401E+03 -0.58741748246E+03  0.18981536568E+04  0.20461527807E+04  0.15294330000E+03 0.  0.
<mgrwt>
<rscale>  0 0.93288234E+03</rscale>
<asrwt>0</asrwt>
<pdfrwt beam="1">  1        2 0.33931615E+00 0.99708197E+03</pdfrwt>
<pdfrwt beam="2">  1       -2 0.17521110E+00 0.99708197E+03</pdfrwt>
<totfact> 0.10049560E+00</totfact>
</mgrwt>
</event>
<event>
 4    1  0.2502834E-007  0.7807805E+03  0.7818608E-02  0.9754007E-01
          2   -1    0    0  501    0  0.00000000000E+00  0.00000000000E+00  0.17386896796E+04  0.17386896796E+04  0.25500000000E-02 0. -1.
         -2   -1    0    0    0  501 -0.00000000000E+00 -0.00000000000E+00 -0.11853089166E+04  0.11853089167E+04  0.25500000000E-02 0.  1.
    8880023    1    1    2    0    0 -0.37992925388E+03  0.17737461323E+03 -0.10222824505E+04  0.12863435024E+04  0.65864270000E+03 0.  0.
    8880022    1    1    2    0    0  0.37992925388E+03 -0.17737461323E+03  0.15756632134E+04  0.16376550938E+04  0.15294330000E+03 0.  0.
<mgrwt>
<rscale>  0 0.67890310E+03</rscale>
<asrwt>0</asrwt>
<pdfrwt beam="1">  1        2 0.26749072E+00 0.78078051E+03</pdfrwt>
<pdfrwt beam="2">  1       -2 0.18235522E+00 0.78078051E+03</pdfrwt>
<totfact> 0.16778109E+00</totfact>
</mgrwt>
</event>
<event>
 4    1  0.2502834E-007  0.9067919E+03  0.7818608E-02  0.9515215E-01
         -2   -1    0    0    0  501 -0.00000000000E+00  0.00000000000E+00  0.10835619689E+04  0.10835619689E+04  0.25500000000E-02 0.  1.
          2   -1    0    0  501    0  0.00000000000E+00 -0.00000000000E+00 -0.17279942632E+04  0.17279942632E+04  0.25500000000E-02 0. -1.
    8880023    1    1    2    0    0 -0.18072747992E+03  0.59648876662E+03  0.81375950904E+03  0.12183907483E+04  0.65864270000E+03 0.  1.
    8880022    1    1    2    0    0  0.18072747992E+03 -0.59648876662E+03 -0.14581918033E+04  0.15931654838E+04  0.15294330000E+03 0.  0.
<mgrwt>
<rscale>  0 0.83171298E+03</rscale>
<asrwt>0</asrwt>
<pdfrwt beam="1">  1        2 0.26584527E+00 0.90679186E+03</pdfrwt>
<pdfrwt beam="2">  1       -2 0.16670184E+00 0.90679186E+03</pdfrwt>
<totfact> 0.21448051E+00</totfact>
</mgrwt>
</event>
<event>
 4    1  0.2502834E-007  0.1559801E+04  0.7818608E-02  0.8868523E-01
         -2   -1    0    0    0  501 -0.00000000000E+00  0.00000000000E+00  0.25837153446E+04  0.25837153446E+04  0.25500000000E-02 0.  1.
          2   -1    0    0  501    0  0.00000000000E+00 -0.00000000000E+00 -0.14742522141E+04  0.14742522141E+04  0.25500000000E-02 0. -1.
    8880023    1    1    2    0    0 -0.13861325266E+04 -0.27893811935E+03  0.18781137099E+04  0.24413707562E+04  0.65864270000E+03 0.  0.
    8880022    1    1    2    0    0  0.13861325266E+04  0.27893811935E+03 -0.76865057937E+03  0.16165968025E+04  0.15294330000E+03 0.  0.
<mgrwt>
<rscale>  0 0.15241920E+04</rscale>
<asrwt>0</asrwt>
<pdfrwt beam="1">  1        2 0.22680803E+00 0.15598013E+04</pdfrwt>
<pdfrwt beam="2">  1       -2 0.39749467E+00 0.15598013E+04</pdfrwt>
<totfact> 0.94722292E-02</totfact>
</mgrwt>
</event>
<event>
 4    1  0.2502834E-007  0.7938916E+03  0.7818608E-02  0.9724163E-01
         -2   -1    0    0    0  501 -0.00000000000E+00  0.00000000000E+00  0.71547066194E+03  0.71547066195E+03  0.25500000000E-02 0.  1.
          2   -1    0    0  501    0  0.00000000000E+00 -0.00000000000E+00 -0.85800984811E+03  0.85800984812E+03  0.25500000000E-02 0. -1.
    8880023    1    1    2    0    0 -0.37554383674E+03  0.23541542810E+03  0.37253762040E+03  0.87695386536E+03  0.65864270000E+03 0.  0.
    8880022    1    1    2    0    0  0.37554383674E+03 -0.23541542810E+03 -0.51507680657E+03  0.69652664470E+03  0.15294330000E+03 0.  0.
<mgrwt>
<rscale>  0 0.69596199E+03</rscale>
<asrwt>0</asrwt>
<pdfrwt beam="1">  1        2 0.13200151E+00 0.79389156E+03</pdfrwt>
<pdfrwt beam="2">  1       -2 0.11007241E+00 0.79389156E+03</pdfrwt>
<totfact> 0.20775366E+01</totfact>
</mgrwt>
</event>
<event>
 4    1  0.2701565E-007  0.1440058E+04  0.7818608E-02  0.8953165E-01
         -2   -1    0    0    0  501 -0.00000000000E+00  0.00000000000E+00  0.22516142484E+04  0.22516142484E+04  0.25500000000E-02 0.  1.
          2   -1    0    0  501    0  0.00000000000E+00 -0.00000000000E+00 -0.26103807455E+04  0.26103807455E+04  0.25500000000E-02 0. -1.
    8880023    1    1    2    0    0 -0.11674854930E+04 -0.52624657307E+03  0.18256588374E+04  0.23252522936E+04  0.65864270000E+03 0.  1.
    8880022    1    1    2    0    0  0.11674854930E+04  0.52624657307E+03 -0.21844253346E+04  0.25367427003E+04  0.15294330000E+03 0.  0.
<mgrwt>
<rscale>  0 0.14009028E+04</rscale>
<asrwt>0</asrwt>
<pdfrwt beam="1">  1        2 0.40159704E+00 0.14400583E+04</pdfrwt>
<pdfrwt beam="2">  1       -2 0.34640219E+00 0.14400583E+04</pdfrwt>
<totfact> 0.46646377E-02</totfact>
</mgrwt>
</event>
<event>
 4    1  0.2502834E-007  0.1150110E+04  0.7818608E-02  0.9207214E-01
         -2   -1    0    0    0  501 -0.00000000000E+00  0.00000000000E+00  0.10274114487E+04  0.10274114487E+04  0.25500000000E-02 0.  1.
          2   -1    0    0  501    0  0.00000000000E+00 -0.00000000000E+00 -0.23051193531E+04  0.23051193531E+04  0.25500000000E-02 0. -1.
    8880023    1    1    2    0    0 -0.65238797761E+03  0.68068471509E+03  0.54653091009E+03  0.12733609059E+04  0.65864270000E+03 0.  1.
    8880022    1    1    2    0    0  0.65238797761E+03 -0.68068471509E+03 -0.18242388145E+04  0.20591698959E+04  0.15294330000E+03 0.  0.
<mgrwt>
<rscale>  0 0.10979273E+04</rscale>
<asrwt>0</asrwt>
<pdfrwt beam="1">  1        2 0.35463374E+00 0.11501095E+04</pdfrwt>
<pdfrwt beam="2">  1       -2 0.15806330E+00 0.11501095E+04</pdfrwt>
<totfact> 0.11506909E+00</totfact>
</mgrwt>
</event>
<event>
 4    1  0.2502834E-007  0.9203679E+03  0.7818608E-02  0.9494095E-01
         -2   -1    0    0    0  501 -0.00000000000E+00  0.00000000000E+00  0.41186433358E+03  0.41186433359E+03  0.25500000000E-02 0.  1.
          2   -1    0    0  501    0  0.00000000000E+00 -0.00000000000E+00 -0.31008643599E+04  0.31008643599E+04  0.25500000000E-02 0. -1.
    8880023    1    1    2    0    0 -0.49679819512E+03  0.40799324232E+03 -0.20578198195E+03  0.94309244659E+03  0.65864270000E+03 0.  0.
    8880022    1    1    2    0    0  0.49679819512E+03 -0.40799324232E+03 -0.24832180443E+04  0.25696362469E+04  0.15294330000E+03 0. -1.
<mgrwt>
<rscale>  0 0.84720568E+03</rscale>
<asrwt>0</asrwt>
<pdfrwt beam="1">  1        2 0.47705604E+00 0.92036794E+03</pdfrwt>
<pdfrwt beam="2">  1       -2 0.63363745E-01 0.92036794E+03</pdfrwt>
<totfact> 0.35969952E+00</totfact>
</mgrwt>
</event>
<event>
 4    1  0.3680683E-007  0.9202897E+03  0.7818608E-02  0.9494215E-01
         -2   -1    0    0    0  501 -0.00000000000E+00  0.00000000000E+00  0.20821945685E+04  0.20821945685E+04  0.25500000000E-02 0.  1.
          2   -1    0    0  501    0  0.00000000000E+00 -0.00000000000E+00 -0.23543520888E+04  0.23543520888E+04  0.25500000000E-02 0. -1.
    8880023    1    1    2    0    0 -0.44117085627E+03 -0.46743047087E+03  0.19295856583E+04  0.21378105596E+04  0.65864270000E+03 0.  0.
    8880022    1    1    2    0    0  0.44117085627E+03  0.46743047087E+03 -0.22017431786E+04  0.22987360977E+04  0.15294330000E+03 0.  0.
<mgrwt>
<rscale>  0 0.84711677E+03</rscale>
<asrwt>0</asrwt>
<pdfrwt beam="1">  1        2 0.36220801E+00 0.92028972E+03</pdfrwt>
<pdfrwt beam="2">  1       -2 0.32033763E+00 0.92028972E+03</pdfrwt>
<totfact> 0.10429987E-01</totfact>
</mgrwt>
</event>
<event>
 4    1  0.2502834E-007  0.8957065E+03  0.7818608E-02  0.9532960E-01
          2   -1    0    0  501    0  0.00000000000E+00  0.00000000000E+00  0.14648930101E+04  0.14648930101E+04  0.25500000000E-02 0. -1.
         -2   -1    0    0    0  501 -0.00000000000E+00 -0.00000000000E+00 -0.61517266885E+03  0.61517266885E+03  0.25500000000E-02 0.  1.
    8880023    1    1    2    0    0 -0.51071744890E+03  0.32809689808E+03  0.10888737485E+04  0.14099418902E+04  0.65864270000E+03 0.  0.
    8880022    1    1    2    0    0  0.51071744890E+03 -0.32809689808E+03 -0.23915340724E+03  0.67012378883E+03  0.15294330000E+03 0.  0.
<mgrwt>
<rscale>  0 0.81896860E+03</rscale>
<asrwt>0</asrwt>
<pdfrwt beam="1">  1        2 0.22536815E+00 0.89570648E+03</pdfrwt>
<pdfrwt beam="2">  1       -2 0.94641949E-01 0.89570648E+03</pdfrwt>
<totfact> 0.12573839E+01</totfact>
</mgrwt>
</event>
<event>
 4    1  0.2502834E-007  0.7448043E+03  0.7818608E-02  0.9846167E-01
         -2   -1    0    0    0  501 -0.00000000000E+00  0.00000000000E+00  0.27244700541E+03  0.27244700542E+03  0.25500000000E-02 0.  1.
          2   -1    0    0  501    0  0.00000000000E+00 -0.00000000000E+00 -0.14612440214E+04  0.14612440214E+04  0.25500000000E-02 0. -1.
    8880023    1    1    2    0    0 -0.88569122691E+01  0.34762731639E+03 -0.37126840018E+03  0.83221008600E+03  0.65864270000E+03 0. -1.
    8880022    1    1    2    0    0  0.88569122691E+01 -0.34762731639E+03 -0.81752861582E+03  0.90148094084E+03  0.15294330000E+03 0.  0.
<mgrwt>
<rscale>  0 0.62942719E+03</rscale>
<asrwt>0</asrwt>
<pdfrwt beam="1">  1        2 0.22480677E+00 0.74480427E+03</pdfrwt>
<pdfrwt beam="2">  1       -2 0.41914925E-01 0.74480427E+03</pdfrwt>
<totfact> 0.73460768E+01</totfact>
</mgrwt>
</event>
<event>
 4    1  0.2502834E-007  0.7278567E+03  0.7818608E-02  0.9896846E-01
         -2   -1    0    0    0  501 -0.00000000000E+00  0.00000000000E+00  0.11652750547E+04  0.11652750547E+04  0.25500000000E-02 0.  1.
          2   -1    0    0  501    0  0.00000000000E+00 -0.00000000000E+00 -0.10595515401E+04  0.10595515401E+04  0.25500000000E-02 0. -1.
    8880023    1    1    2    0    0 -0.20437281947E+03  0.23280228617E+03  0.10167904116E+04  0.12504551576E+04  0.65864270000E+03 0.  1.
    8880022    1    1    2    0    0  0.20437281947E+03 -0.23280228617E+03 -0.91106689699E+03  0.97437143718E+03  0.15294330000E+03 0.  0.
<mgrwt>
<rscale>  0 0.60414378E+03</rscale>
<asrwt>0</asrwt>
<pdfrwt beam="1">  1        2 0.16300793E+00 0.72785669E+03</pdfrwt>
<pdfrwt beam="2">  1       -2 0.17927308E+00 0.72785669E+03</pdfrwt>
<totfact> 0.43424015E+00</totfact>
</mgrwt>
</event>
<event>
 4    1  0.2502834E-007  0.1248863E+04  0.7818608E-02  0.9111028E-01
          2   -1    0    0  501    0  0.00000000000E+00  0.00000000000E+00  0.10163884228E+04  0.10163884228E+04  0.25500000000E-02 0. -1.
         -2   -1    0    0    0  501 -0.00000000000E+00 -0.00000000000E+00 -0.15701367150E+04  0.15701367150E+04  0.25500000000E-02 0.  1.
    8880023    1    1    2    0    0  0.99614375498E+03 -0.36544142379E+03 -0.80450735350E+03  0.14855612081E+04  0.65864270000E+03 0. -1.
    8880022    1    1    2    0    0 -0.99614375498E+03  0.36544142379E+03  0.25075906127E+03  0.11009639298E+04  0.15294330000E+03 0.  0.
<mgrwt>
<rscale>  0 0.12020918E+04</rscale>
<asrwt>0</asrwt>
<pdfrwt beam="1">  1        2 0.15636745E+00 0.12488635E+04</pdfrwt>
<pdfrwt beam="2">  1       -2 0.24155950E+00 0.12488635E+04</pdfrwt>
<totfact> 0.17256097E+00</totfact>
</mgrwt>
</event>
<event>
 4    1  0.2502834E-007  0.8697698E+03  0.7818608E-02  0.9576416E-01
          2   -1    0    0  501    0  0.00000000000E+00  0.00000000000E+00  0.18322944457E+04  0.18322944457E+04  0.25500000000E-02 0. -1.
         -2   -1    0    0    0  501 -0.00000000000E+00 -0.00000000000E+00 -0.46405280842E+03  0.46405280842E+03  0.25500000000E-02 0.  1.
    8880023    1    1    2    0    0  0.39656074473E+03 -0.40672952292E+03  0.71864075727E+02  0.87273362529E+03  0.65864270000E+03 0.  0.
    8880022    1    1    2    0    0 -0.39656074473E+03  0.40672952292E+03  0.12963775616E+04  0.14236136288E+04  0.15294330000E+03 0.  0.
<mgrwt>
<rscale>  0 0.78877015E+03</rscale>
<asrwt>0</asrwt>
<pdfrwt beam="1">  1        2 0.28189145E+00 0.86976982E+03</pdfrwt>
<pdfrwt beam="2">  1       -2 0.71392741E-01 0.86976982E+03</pdfrwt>
<totfact> 0.14965886E+01</totfact>
</mgrwt>
</event>
<event>
 4    1  0.2502834E-007  0.8635318E+03  0.7818608E-02  0.9587312E-01
         -2   -1    0    0    0  501 -0.00000000000E+00  0.00000000000E+00  0.47666835839E+03  0.47666835839E+03  0.25500000000E-02 0.  1.
          2   -1    0    0  501    0  0.00000000000E+00 -0.00000000000E+00 -0.14574191551E+04  0.14574191551E+04  0.25500000000E-02 0. -1.
    8880023    1    1    2    0    0  0.23747834944E+03  0.50545126771E+03 -0.85294995757E+02  0.86773405664E+03  0.65864270000E+03 0.  0.
    8880022    1    1    2    0    0 -0.23747834944E+03 -0.50545126771E+03 -0.89545580100E+03  0.10663534569E+04  0.15294330000E+03 0.  0.
<mgrwt>
<rscale>  0 0.78141701E+03</rscale>
<asrwt>0</asrwt>
<pdfrwt beam="1">  1        2 0.22421833E+00 0.86353179E+03</pdfrwt>
<pdfrwt beam="2">  1       -2 0.73333594E-01 0.86353179E+03</pdfrwt>
<totfact> 0.22753546E+01</totfact>
</mgrwt>
</event>
<event>
 4    1  0.2502834E-007  0.6902115E+03  0.7818608E-02  0.1004052E+00
          2   -1    0    0  501    0  0.00000000000E+00  0.00000000000E+00  0.21038903872E+04  0.21038903872E+04  0.25500000000E-02 0. -1.
         -2   -1    0    0    0  501 -0.00000000000E+00 -0.00000000000E+00 -0.46815363882E+03  0.46815363883E+03  0.25500000000E-02 0.  1.
    8880023    1    1    2    0    0 -0.20562467947E+03 -0.17326181358E+02 -0.19985894035E+03  0.71856489454E+03  0.65864270000E+03 0.  1.
    8880022    1    1    2    0    0  0.20562467947E+03  0.17326181358E+02  0.18355956888E+04  0.18534791315E+04  0.15294330000E+03 0.  0.
<mgrwt>
<rscale>  0 0.53908558E+03</rscale>
<asrwt>0</asrwt>
<pdfrwt beam="1">  1        2 0.32367545E+00 0.69021150E+03</pdfrwt>
<pdfrwt beam="2">  1       -2 0.72023636E-01 0.69021150E+03</pdfrwt>
<totfact> 0.10698519E+01</totfact>
</mgrwt>
</event>
<event>
 4    1  0.2502834E-007  0.7809918E+03  0.7818608E-02  0.9753512E-01
          2   -1    0    0  501    0  0.00000000000E+00  0.00000000000E+00  0.21314437513E+04  0.21314437513E+04  0.25500000000E-02 0. -1.
         -2   -1    0    0    0  501 -0.00000000000E+00 -0.00000000000E+00 -0.31425866900E+03  0.31425866901E+03  0.25500000000E-02 0.  1.
    8880023    1    1    2    0    0 -0.23833138037E+03  0.34545055859E+03  0.25601140541E+03  0.82188197527E+03  0.65864270000E+03 0.  1.
    8880022    1    1    2    0    0  0.23833138037E+03 -0.34545055859E+03  0.15611736769E+04  0.16238204450E+04  0.15294330000E+03 0.  0.
<mgrwt>
<rscale>  0 0.67918136E+03</rscale>
<asrwt>0</asrwt>
<pdfrwt beam="1">  1        2 0.32791441E+00 0.78099177E+03</pdfrwt>
<pdfrwt beam="2">  1       -2 0.48347489E-01 0.78099177E+03</pdfrwt>
<totfact> 0.23596391E+01</totfact>
</mgrwt>
</event>
<event>
 4    1  0.2502834E-007  0.8550299E+03  0.7818608E-02  0.9602466E-01
         -2   -1    0    0    0  501 -0.00000000000E+00  0.00000000000E+00  0.37538153505E+03  0.37538153506E+03  0.25500000000E-02 0.  1.
          2   -1    0    0  501    0  0.00000000000E+00 -0.00000000000E+00 -0.18823207222E+04  0.18823207222E+04  0.25500000000E-02 0. -1.
    8880023    1    1    2    0    0 -0.35084086428E+03 -0.41734471773E+03 -0.26891659786E+03  0.89632152062E+03  0.65864270000E+03 0.  0.
    8880022    1    1    2    0    0  0.35084086428E+03  0.41734471773E+03 -0.12380225893E+04  0.13613807366E+04  0.15294330000E+03 0.  0.
<mgrwt>
<rscale>  0 0.77133167E+03</rscale>
<asrwt>0</asrwt>
<pdfrwt beam="1">  1        2 0.28958780E+00 0.85502990E+03</pdfrwt>
<pdfrwt beam="2">  1       -2 0.57751006E-01 0.85502990E+03</pdfrwt>
<totfact> 0.22193088E+01</totfact>
</mgrwt>
</event>
<event>
 4    1  0.2502834E-007  0.8357960E+03  0.7818608E-02  0.9638159E-01
          2   -1    0    0  501    0  0.00000000000E+00  0.00000000000E+00  0.16610592929E+04  0.16610592929E+04  0.25500000000E-02 0. -1.
         -2   -1    0    0    0  501 -0.00000000000E+00 -0.00000000000E+00 -0.67389354439E+03  0.67389354439E+03  0.25500000000E-02 0.  1.
    8880023    1    1    2    0    0 -0.94810037860E+02 -0.50572307295E+03 -0.34079593239E+03  0.90260558584E+03  0.65864270000E+03 0.  1.
    8880022    1    1    2    0    0  0.94810037860E+02  0.50572307295E+03  0.13279616809E+04  0.14323472515E+04  0.15294330000E+03 0.  0.
<mgrwt>
<rscale>  0 0.74821256E+03</rscale>
<asrwt>0</asrwt>
<pdfrwt beam="1">  1        2 0.25554758E+00 0.83579601E+03</pdfrwt>
<pdfrwt beam="2">  1       -2 0.10367593E+00 0.83579601E+03</pdfrwt>
<totfact> 0.79373038E+00</totfact>
</mgrwt>
</event>
<event>
 4    1  0.2502834E-007  0.9433193E+03  0.7818608E-02  0.9459792E-01
          2   -1    0    0  501    0  0.00000000000E+00  0.00000000000E+00  0.36531654577E+04  0.36531654577E+04  0.25500000000E-02 0. -1.
         -2   -1    0    0    0  501 -0.00000000000E+00 -0.00000000000E+00 -0.50729353486E+03  0.50729353487E+03  0.25500000000E-02 0.  1.
    8880023    1    1    2    0    0 -0.67255965398E+03 -0.60866119460E+02  0.41373167512E+01  0.94332841381E+03  0.65864270000E+03 0.  1.
    8880022    1    1    2    0    0  0.67255965398E+03  0.60866119460E+02  0.31417346061E+04  0.32171305787E+04  0.15294330000E+03 0.  0.
<mgrwt>
<rscale>  0 0.87314229E+03</rscale>
<asrwt>0</asrwt>
<pdfrwt beam="1">  1        2 0.56202545E+00 0.94331934E+03</pdfrwt>
<pdfrwt beam="2">  1       -2 0.78045160E-01 0.94331934E+03</pdfrwt>
<totfact> 0.97054937E-01</totfact>
</mgrwt>
</event>
<event>
 4    1  0.2502834E-007  0.6994628E+03  0.7818608E-02  0.9999437E-01
          2   -1    0    0  501    0  0.00000000000E+00  0.00000000000E+00  0.11698524314E+04  0.11698524314E+04  0.25500000000E-02 0. -1.
         -2   -1    0    0    0  501 -0.00000000000E+00 -0.00000000000E+00 -0.66945485594E+03  0.66945485595E+03  0.25500000000E-02 0.  1.
    8880023    1    1    2    0    0  0.11002872395E+03  0.20816254574E+03 -0.46102277700E+03  0.83772917624E+03  0.65864270000E+03 0.  1.
    8880022    1    1    2    0    0 -0.11002872395E+03 -0.20816254574E+03  0.96142035247E+03  0.10015781111E+04  0.15294330000E+03 0.  0.
<mgrwt>
<rscale>  0 0.55674924E+03</rscale>
<asrwt>0</asrwt>
<pdfrwt beam="1">  1        2 0.17997730E+00 0.69946277E+03</pdfrwt>
<pdfrwt beam="2">  1       -2 0.10299305E+00 0.69946277E+03</pdfrwt>
<totfact> 0.15585963E+01</totfact>
</mgrwt>
</event>
<event>
 4    1  0.2502834E-007  0.2146500E+04  0.7818608E-02  0.8551782E-01
          2   -1    0    0  501    0  0.00000000000E+00  0.00000000000E+00  0.22585113250E+04  0.22585113250E+04  0.25500000000E-02 0. -1.
         -2   -1    0    0    0  501 -0.00000000000E+00 -0.00000000000E+00 -0.22253782599E+04  0.22253782599E+04  0.25500000000E-02 0.  1.
    8880023    1    1    2    0    0 -0.11205304883E+04 -0.17082342311E+04  0.80805397079E+03  0.22935592841E+04  0.65864270000E+03 0.  0.
    8880022    1    1    2    0    0  0.11205304883E+04  0.17082342311E+04 -0.77492090574E+03  0.21903303009E+04  0.15294330000E+03 0.  0.
<mgrwt>
<rscale>  0 0.21216129E+04</rscale>
<asrwt>0</asrwt>
<pdfrwt beam="1">  1        2 0.34746328E+00 0.21465002E+04</pdfrwt>
<pdfrwt beam="2">  1       -2 0.34236589E+00 0.21465002E+04</pdfrwt>
<totfact> 0.72681710E-02</totfact>
</mgrwt>
</event>
<event>
 4    1  0.2502834E-007  0.9294104E+03  0.7818608E-02  0.9480378E-01
          2   -1    0    0  501    0  0.00000000000E+00  0.00000000000E+00  0.12309050148E+04  0.12309050148E+04  0.25500000000E-02 0. -1.
         -2   -1    0    0    0  501 -0.00000000000E+00 -0.00000000000E+00 -0.74695421319E+03  0.74695421319E+03  0.25500000000E-02 0.  1.
    8880023    1    1    2    0    0 -0.29133955651E+03 -0.58746462632E+03 -0.26918984610E+03  0.96760880725E+03  0.65864270000E+03 0.  0.
    8880022    1    1    2    0    0  0.29133955651E+03  0.58746462632E+03  0.75314064772E+03  0.10102504207E+04  0.15294330000E+03 0.  0.
<mgrwt>
<rscale>  0 0.85746033E+03</rscale>
<asrwt>0</asrwt>
<pdfrwt beam="1">  1        2 0.18937000E+00 0.92941037E+03</pdfrwt>
<pdfrwt beam="2">  1       -2 0.11491603E+00 0.92941037E+03</pdfrwt>
<totfact> 0.10722712E+01</totfact>
</mgrwt>
</event>
<event>
 4    1  0.2502834E-007  0.6792669E+03  0.7818608E-02  0.1009741E+00
         -2   -1    0    0    0  501 -0.00000000000E+00  0.00000000000E+00  0.56652183897E+03  0.56652183897E+03  0.25500000000E-02 0.  1.
          2   -1    0    0  501    0  0.00000000000E+00 -0.00000000000E+00 -0.92180338518E+03  0.92180338518E+03  0.25500000000E-02 0. -1.
    8880023    1    1    2    0    0  0.56946518005E+02 -0.15604629014E+03  0.33834735954E+03  0.75886921966E+03  0.65864270000E+03 0.  1.
    8880022    1    1    2    0    0 -0.56946518005E+02  0.15604629014E+03 -0.69362890576E+03  0.72945600449E+03  0.15294330000E+03 0.  0.
<mgrwt>
<rscale>  0 0.51577544E+03</rscale>
<asrwt>0</asrwt>
<pdfrwt beam="1">  1        2 0.14181591E+00 0.67926693E+03</pdfrwt>
<pdfrwt beam="2">  1       -2 0.87157206E-01 0.67926693E+03</pdfrwt>
<totfact> 0.32968685E+01</totfact>
</mgrwt>
</event>
<event>
 4    1  0.2502834E-007  0.1082701E+04  0.7818608E-02  0.9280565E-01
          2   -1    0    0  501    0  0.00000000000E+00  0.00000000000E+00  0.17534604905E+04  0.17534604905E+04  0.25500000000E-02 0. -1.
         -2   -1    0    0    0  501 -0.00000000000E+00 -0.00000000000E+00 -0.59141902212E+03  0.59141902213E+03  0.25500000000E-02 0.  1.
    8880023    1    1    2    0    0 -0.36795236646E+03  0.77655832545E+03  0.31256276022E+03  0.11269150199E+04  0.65864270000E+03 0.  0.
    8880022    1    1    2    0    0  0.36795236646E+03 -0.77655832545E+03  0.84947870814E+03  0.12179644927E+04  0.15294330000E+03 0.  0.
<mgrwt>
<rscale>  0 0.10259195E+04</rscale>
<asrwt>0</asrwt>
<pdfrwt beam="1">  1        2 0.26976315E+00 0.10827012E+04</pdfrwt>
<pdfrwt beam="2">  1       -2 0.90987544E-01 0.10827012E+04</pdfrwt>
<totfact> 0.93417720E+00</totfact>
</mgrwt>
</event>
<event>
 4    1  0.2502834E-007  0.8335668E+03  0.7818608E-02  0.9642432E-01
         -2   -1    0    0    0  501 -0.00000000000E+00  0.00000000000E+00  0.33642988523E+03  0.33642988524E+03  0.25500000000E-02 0.  1.
          2   -1    0    0  501    0  0.00000000000E+00 -0.00000000000E+00 -0.15114342718E+04  0.15114342718E+04  0.25500000000E-02 0. -1.
    8880023    1    1    2    0    0  0.19252710420E+03 -0.47324073483E+03 -0.44830672617E+03  0.94647377457E+03  0.65864270000E+03 0.  0.
    8880022    1    1    2    0    0 -0.19252710420E+03  0.47324073483E+03 -0.72669766043E+03  0.90139038249E+03  0.15294330000E+03 0.  0.
<mgrwt>
<rscale>  0 0.74550303E+03</rscale>
<asrwt>0</asrwt>
<pdfrwt beam="1">  1        2 0.23252834E+00 0.83356685E+03</pdfrwt>
<pdfrwt beam="2">  1       -2 0.51758445E-01 0.83356685E+03</pdfrwt>
<totfact> 0.44691905E+01</totfact>
</mgrwt>
</event>
<event>
 4    1  0.2502834E-007  0.1254041E+04  0.7818608E-02  0.9106301E-01
         -2   -1    0    0    0  501 -0.00000000000E+00  0.00000000000E+00  0.26745779887E+04  0.26745779887E+04  0.25500000000E-02 0.  1.
          2   -1    0    0  501    0  0.00000000000E+00 -0.00000000000E+00 -0.22260290210E+04  0.22260290210E+04  0.25500000000E-02 0. -1.
    8880023    1    1    2    0    0 -0.10242624035E+04 -0.29948960261E+03  0.23791415967E+04  0.26894111691E+04  0.65864270000E+03 0.  1.
    8880022    1    1    2    0    0  0.10242624035E+04  0.29948960261E+03 -0.19305926290E+04  0.22111958406E+04  0.15294330000E+03 0.  0.
<mgrwt>
<rscale>  0 0.12075184E+04</rscale>
<asrwt>0</asrwt>
<pdfrwt beam="1">  1        2 0.34246600E+00 0.12540405E+04</pdfrwt>
<pdfrwt beam="2">  1       -2 0.41147354E+00 0.12540405E+04</pdfrwt>
<totfact> 0.30438481E-02</totfact>
</mgrwt>
</event>
<event>
 4    1  0.2502834E-007  0.8736487E+03  0.7818608E-02  0.9569732E-01
         -2   -1    0    0    0  501 -0.00000000000E+00  0.00000000000E+00  0.51704015272E+03  0.51704015273E+03  0.25500000000E-02 0.  1.
          2   -1    0    0  501    0  0.00000000000E+00 -0.00000000000E+00 -0.16152574521E+04  0.16152574521E+04  0.25500000000E-02 0. -1.
    8880023    1    1    2    0    0  0.47252008652E+03  0.32584745892E+03  0.11362660476E+02  0.87372256178E+03  0.65864270000E+03 0.  1.
    8880022    1    1    2    0    0 -0.47252008652E+03 -0.32584745892E+03 -0.11095799598E+04  0.12585750430E+04  0.15294330000E+03 0.  0.
<mgrwt>
<rscale>  0 0.79332360E+03</rscale>
<asrwt>0</asrwt>
<pdfrwt beam="1">  1        2 0.24850114E+00 0.87364867E+03</pdfrwt>
<pdfrwt beam="2">  1       -2 0.79544639E-01 0.87364867E+03</pdfrwt>
<totfact> 0.15481920E+01</totfact>
</mgrwt>
</event>
<event>
 4    1  0.2502834E-007  0.7730754E+03  0.7818608E-02  0.9772362E-01
          2   -1    0    0  501    0  0.00000000000E+00  0.00000000000E+00  0.19446633089E+04  0.19446633089E+04  0.25500000000E-02 0. -1.
         -2   -1    0    0    0  501 -0.00000000000E+00 -0.00000000000E+00 -0.38656819754E+03  0.38656819754E+03  0.25500000000E-02 0.  1.
    8880023    1    1    2    0    0 -0.39983520521E+03 -0.62985668939E+02  0.63974865110E+02  0.77571797417E+03  0.65864270000E+03 0.  0.
    8880022    1    1    2    0    0  0.39983520521E+03  0.62985668939E+02  0.14941202463E+04  0.15555135323E+04  0.15294330000E+03 0.  0.
<mgrwt>
<rscale>  0 0.66867097E+03</rscale>
<asrwt>0</asrwt>
<pdfrwt beam="1">  1        2 0.29917898E+00 0.77307541E+03</pdfrwt>
<pdfrwt beam="2">  1       -2 0.59472029E-01 0.77307541E+03</pdfrwt>
<totfact> 0.19486876E+01</totfact>
</mgrwt>
</event>
<event>
 4    1  0.2502834E-007  0.7626952E+03  0.7818608E-02  0.9798179E-01
         -2   -1    0    0    0  501 -0.00000000000E+00  0.00000000000E+00  0.23377477479E+04  0.23377477479E+04  0.25500000000E-02 0.  1.
          2   -1    0    0  501    0  0.00000000000E+00 -0.00000000000E+00 -0.20349712590E+03  0.20349712591E+03  0.25500000000E-02 0. -1.
    8880023    1    1    2    0    0 -0.10450257838E+02  0.38442760333E+03  0.19390491419E+04  0.20836543790E+04  0.65864270000E+03 0.  0.
    8880022    1    1    2    0    0  0.10450257838E+02 -0.38442760333E+03  0.19520148005E+03  0.45759049478E+03  0.15294330000E+03 0.  0.
<mgrwt>
<rscale>  0 0.65460350E+03</rscale>
<asrwt>0</asrwt>
<pdfrwt beam="1">  1        2 0.31307249E-01 0.76269522E+03</pdfrwt>
<pdfrwt beam="2">  1       -2 0.35965351E+00 0.76269522E+03</pdfrwt>
<totfact> 0.24097738E+00</totfact>
</mgrwt>
</event>
<event>
 4    1  0.2502834E-007  0.1820504E+04  0.7818608E-02  0.8711278E-01
         -2   -1    0    0    0  501 -0.00000000000E+00  0.00000000000E+00  0.11911346383E+04  0.11911346383E+04  0.25500000000E-02 0.  1.
          2   -1    0    0  501    0  0.00000000000E+00 -0.00000000000E+00 -0.30199347262E+04  0.30199347262E+04  0.25500000000E-02 0. -1.
    8880023    1    1    2    0    0  0.57516632725E+03 -0.15967498270E+04 -0.16254372001E+03  0.18277464215E+04  0.65864270000E+03 0.  0.
    8880022    1    1    2    0    0 -0.57516632725E+03  0.15967498270E+04 -0.16662563679E+04  0.23833229430E+04  0.15294330000E+03 0.  0.
<mgrwt>
<rscale>  0 0.17906676E+04</rscale>
<asrwt>0</asrwt>
<pdfrwt beam="1">  1        2 0.46460534E+00 0.18205045E+04</pdfrwt>
<pdfrwt beam="2">  1       -2 0.18325148E+00 0.18205045E+04</pdfrwt>
<totfact> 0.26558581E-01</totfact>
</mgrwt>
</event>
<event>
 4    1  0.2502834E-007  0.7250388E+03  0.7818608E-02  0.9905891E-01
          2   -1    0    0  501    0  0.00000000000E+00  0.00000000000E+00  0.27917627524E+04  0.27917627524E+04  0.25500000000E-02 0. -1.
         -2   -1    0    0    0  501 -0.00000000000E+00 -0.00000000000E+00 -0.30781226890E+03  0.30781226891E+03  0.25500000000E-02 0.  1.
    8880023    1    1    2    0    0  0.29190951071E+03 -0.81608396211E+02  0.14915115728E+03  0.74022116070E+03  0.65864270000E+03 0.  1.
    8880022    1    1    2    0    0 -0.29190951071E+03  0.81608396211E+02  0.23347993262E+04  0.23593538606E+04  0.15294330000E+03 0.  0.
<mgrwt>
<rscale>  0 0.59976631E+03</rscale>
<asrwt>0</asrwt>
<pdfrwt beam="1">  1        2 0.42950195E+00 0.72503883E+03</pdfrwt>
<pdfrwt beam="2">  1       -2 0.47355735E-01 0.72503883E+03</pdfrwt>
<totfact> 0.10492145E+01</totfact>
</mgrwt>
</event>
<event>
 4    1  0.2502834E-007  0.1164965E+04  0.7818608E-02  0.9191954E-01
         -2   -1    0    0    0  501 -0.00000000000E+00  0.00000000000E+00  0.15557142251E+04  0.15557142251E+04  0.25500000000E-02 0.  1.
          2   -1    0    0  501    0  0.00000000000E+00 -0.00000000000E+00 -0.11974991774E+04  0.11974991774E+04  0.25500000000E-02 0. -1.
    8880023    1    1    2    0    0 -0.95311837597E+03  0.12206250131E+03  0.10428008908E+04  0.15635145657E+04  0.65864270000E+03 0.  0.
    8880022    1    1    2    0    0  0.95311837597E+03 -0.12206250131E+03 -0.68458584307E+03  0.11896988368E+04  0.15294330000E+03 0.  0.
<mgrwt>
<rscale>  0 0.11136860E+04</rscale>
<asrwt>0</asrwt>
<pdfrwt beam="1">  1        2 0.18423064E+00 0.11649653E+04</pdfrwt>
<pdfrwt beam="2">  1       -2 0.23934065E+00 0.11649653E+04</pdfrwt>
<totfact> 0.13869503E+00</totfact>
</mgrwt>
</event>
<event>
 4    1  0.2502834E-007  0.1382882E+04  0.7818608E-02  0.8997099E-01
          2   -1    0    0  501    0  0.00000000000E+00  0.00000000000E+00  0.29641867532E+04  0.29641867532E+04  0.25500000000E-02 0. -1.
         -2   -1    0    0    0  501 -0.00000000000E+00 -0.00000000000E+00 -0.78195219027E+03  0.78195219028E+03  0.25500000000E-02 0.  1.
    8880023    1    1    2    0    0 -0.71567674788E+03 -0.98303622525E+03  0.17440464273E+03  0.13938366523E+04  0.65864270000E+03 0.  0.
    8880022    1    1    2    0    0  0.71567674788E+03  0.98303622525E+03  0.20078299202E+04  0.23523022911E+04  0.15294330000E+03 0.  0.
<mgrwt>
<rscale>  0 0.13417472E+04</rscale>
<asrwt>0</asrwt>
<pdfrwt beam="1">  1        2 0.45602872E+00 0.13828824E+04</pdfrwt>
<pdfrwt beam="2">  1       -2 0.12030034E+00 0.13828824E+04</pdfrwt>
<totfact> 0.93347127E-01</totfact>
</mgrwt>
</event>
<event>
 4    1  0.2502834E-007  0.7651392E+03  0.7818608E-02  0.9791980E-01
          2   -1    0    0  501    0  0.00000000000E+00  0.00000000000E+00  0.95117503089E+03  0.95117503090E+03  0.25500000000E-02 0. -1.
         -2   -1    0    0    0  501 -0.00000000000E+00 -0.00000000000E+00 -0.11717801707E+04  0.11717801707E+04  0.25500000000E-02 0.  1.
    8880023    1    1    2    0    0  0.38396822381E+03  0.64778180948E+02 -0.98758077735E+03  0.12493013278E+04  0.65864270000E+03 0.  0.
    8880022    1    1    2    0    0 -0.38396822381E+03 -0.64778180948E+02  0.76697563753E+03  0.87365387380E+03  0.15294330000E+03 0. -1.
<mgrwt>
<rscale>  0 0.65794734E+03</rscale>
<asrwt>0</asrwt>
<pdfrwt beam="1">  1        2 0.14633462E+00 0.76513921E+03</pdfrwt>
<pdfrwt beam="2">  1       -2 0.18027387E+00 0.76513921E+03</pdfrwt>
<totfact> 0.49845153E+00</totfact>
</mgrwt>
</event>
<event>
 4    1  0.2502834E-007  0.9937461E+03  0.7818608E-02  0.9389786E-01
          2   -1    0    0  501    0  0.00000000000E+00  0.00000000000E+00  0.22285902937E+04  0.22285902937E+04  0.25500000000E-02 0. -1.
         -2   -1    0    0    0  501 -0.00000000000E+00 -0.00000000000E+00 -0.93355851735E+03  0.93355851736E+03  0.25500000000E-02 0.  1.
    8880023    1    1    2    0    0  0.68237172443E+03 -0.29679934271E+03 -0.57190862751E+03  0.11465647407E+04  0.65864270000E+03 0.  0.
    8880022    1    1    2    0    0 -0.68237172443E+03  0.29679934271E+03  0.18669404038E+04  0.20155840703E+04  0.15294330000E+03 0.  0.
<mgrwt>
<rscale>  0 0.92921057E+03</rscale>
<asrwt>0</asrwt>
<pdfrwt beam="1">  1        2 0.34286004E+00 0.99374606E+03</pdfrwt>
<pdfrwt beam="2">  1       -2 0.14362439E+00 0.99374606E+03</pdfrwt>
<totfact> 0.16752967E+00</totfact>
</mgrwt>
</event>
<event>
 4    1  0.2502834E-007  0.1329558E+04  0.7818608E-02  0.9040446E-01
          2   -1    0    0  501    0  0.00000000000E+00  0.00000000000E+00  0.18193689606E+04  0.18193689606E+04  0.25500000000E-02 0. -1.
         -2   -1    0    0    0  501 -0.00000000000E+00 -0.00000000000E+00 -0.16513389734E+04  0.16513389734E+04  0.25500000000E-02 0.  1.
    8880023    1    1    2    0    0  0.21629528636E+03 -0.11345181898E+04 -0.11167679807E+04  0.17363456174E+04  0.65864270000E+03 0.  0.
    8880022    1    1    2    0    0 -0.21629528636E+03  0.11345181898E+04  0.12847979680E+04  0.17343623166E+04  0.15294330000E+03 0.  0.
<mgrwt>
<rscale>  0 0.12863682E+04</rscale>
<asrwt>0</asrwt>
<pdfrwt beam="1">  1        2 0.27990292E+00 0.13295583E+04</pdfrwt>
<pdfrwt beam="2">  1       -2 0.25405215E+00 0.13295583E+04</pdfrwt>
<totfact> 0.48855082E-01</totfact>
</mgrwt>
</event>
<event>
 4    1  0.2502834E-007  0.7269730E+03  0.7818608E-02  0.9899661E-01
          2   -1    0    0  501    0  0.00000000000E+00  0.00000000000E+00  0.73745806161E+03  0.73745806162E+03  0.25500000000E-02 0. -1.
         -2   -1    0    0    0  501 -0.00000000000E+00 -0.00000000000E+00 -0.49091053889E+03  0.49091053890E+03  0.25500000000E-02 0.  1.
    8880023    1    1    2    0    0 -0.17227315353E+02 -0.30721781272E+03 -0.10763120169E+03  0.73489743957E+03  0.65864270000E+03 0.  1.
    8880022    1    1    2    0    0  0.17227315353E+02  0.30721781272E+03  0.35417872441E+03  0.49347116095E+03  0.15294330000E+03 0.  0.
<mgrwt>
<rscale>  0 0.60277707E+03</rscale>
<asrwt>0</asrwt>
<pdfrwt beam="1">  1        2 0.11345509E+00 0.72697302E+03</pdfrwt>
<pdfrwt beam="2">  1       -2 0.75524699E-01 0.72697302E+03</pdfrwt>
<totfact> 0.61146946E+01</totfact>
</mgrwt>
</event>
<event>
 4    1  0.2502834E-007  0.7642046E+03  0.7818608E-02  0.9794341E-01
         -2   -1    0    0    0  501 -0.00000000000E+00  0.00000000000E+00  0.79318676786E+03  0.79318676786E+03  0.25500000000E-02 0.  1.
          2   -1    0    0  501    0  0.00000000000E+00 -0.00000000000E+00 -0.66944342479E+03  0.66944342480E+03  0.25500000000E-02 0. -1.
    8880023    1    1    2    0    0  0.82134732477E+02  0.37875103892E+03  0.49007337452E+03  0.90784391965E+03  0.65864270000E+03 0.  0.
    8880022    1    1    2    0    0 -0.82134732477E+02 -0.37875103892E+03 -0.36633003145E+03  0.55478627301E+03  0.15294330000E+03 0.  0.
<mgrwt>
<rscale>  0 0.65667103E+03</rscale>
<asrwt>0</asrwt>
<pdfrwt beam="1">  1        2 0.10299130E+00 0.76420460E+03</pdfrwt>
<pdfrwt beam="2">  1       -2 0.12202873E+00 0.76420460E+03</pdfrwt>
<totfact> 0.22343738E+01</totfact>
</mgrwt>
</event>
<event>
 4    1  0.2502834E-007  0.8271864E+03  0.7818608E-02  0.9654832E-01
         -2   -1    0    0    0  501 -0.00000000000E+00  0.00000000000E+00  0.43333487788E+03  0.43333487788E+03  0.25500000000E-02 0.  1.
          2   -1    0    0  501    0  0.00000000000E+00 -0.00000000000E+00 -0.37645615483E+04  0.37645615483E+04  0.25500000000E-02 0. -1.
    8880023    1    1    2    0    0  0.49515085794E+03  0.72476080835E+02 -0.13829207562E+01  0.82718756830E+03  0.65864270000E+03 0.  0.
    8880022    1    1    2    0    0 -0.49515085794E+03 -0.72476080835E+02 -0.33298437496E+04  0.33707088578E+04  0.15294330000E+03 0.  0.
<mgrwt>
<rscale>  0 0.73770963E+03</rscale>
<asrwt>0</asrwt>
<pdfrwt beam="1">  1        2 0.57916329E+00 0.82718641E+03</pdfrwt>
<pdfrwt beam="2">  1       -2 0.66666907E-01 0.82718641E+03</pdfrwt>
<totfact> 0.11675263E+00</totfact>
</mgrwt>
</event>
<event>
 4    1  0.2502834E-007  0.1049537E+04  0.7818608E-02  0.9319438E-01
          2   -1    0    0  501    0  0.00000000000E+00  0.00000000000E+00  0.61502736565E+03  0.61502736566E+03  0.25500000000E-02 0. -1.
         -2   -1    0    0    0  501 -0.00000000000E+00 -0.00000000000E+00 -0.16202855616E+04  0.16202855616E+04  0.25500000000E-02 0.  1.
    8880023    1    1    2    0    0  0.76649672319E+03 -0.28319735965E+03 -0.92700256049E+03  0.14003077964E+04  0.65864270000E+03 0.  0.
    8880022    1    1    2    0    0 -0.76649672319E+03  0.28319735965E+03 -0.78255635501E+02  0.83500513093E+03  0.15294330000E+03 0.  0.
<mgrwt>
<rscale>  0 0.99012887E+03</rscale>
<asrwt>0</asrwt>
<pdfrwt beam="1">  1        2 0.94619595E-01 0.10495371E+04</pdfrwt>
<pdfrwt beam="2">  1       -2 0.24927470E+00 0.10495371E+04</pdfrwt>
<totfact> 0.31047638E+00</totfact>
</mgrwt>
</event>
<event>
 4    1  0.2502834E-007  0.9600158E+03  0.7818608E-02  0.9435848E-01
          2   -1    0    0  501    0  0.00000000000E+00  0.00000000000E+00  0.12008441351E+04  0.12008441351E+04  0.25500000000E-02 0. -1.
         -2   -1    0    0    0  501 -0.00000000000E+00 -0.00000000000E+00 -0.20601235995E+04  0.20601235995E+04  0.25500000000E-02 0.  1.
    8880023    1    1    2    0    0 -0.40714038562E+03  0.56750059876E+03 -0.18233854618E+04  0.20606710003E+04  0.65864270000E+03 0.  0.
    8880022    1    1    2    0    0  0.40714038562E+03 -0.56750059876E+03  0.96410599733E+03  0.12002967343E+04  0.15294330000E+03 0.  0.
<mgrwt>
<rscale>  0 0.89183378E+03</rscale>
<asrwt>0</asrwt>
<pdfrwt beam="1">  1        2 0.18474525E+00 0.96001585E+03</pdfrwt>
<pdfrwt beam="2">  1       -2 0.31694209E+00 0.96001585E+03</pdfrwt>
<totfact> 0.47931916E-01</totfact>
</mgrwt>
</event>
<event>
 4    1  0.2502834E-007  0.1416385E+04  0.7818608E-02  0.8971054E-01
         -2   -1    0    0    0  501 -0.00000000000E+00  0.00000000000E+00  0.34954540744E+04  0.34954540744E+04  0.25500000000E-02 0.  1.
          2   -1    0    0  501    0  0.00000000000E+00 -0.00000000000E+00 -0.13059136712E+04  0.13059136712E+04  0.25500000000E-02 0. -1.
    8880023    1    1    2    0    0 -0.11877915339E+04  0.40185667954E+03  0.29881751068E+04  0.33068622883E+04  0.65864270000E+03 0.  0.
    8880022    1    1    2    0    0  0.11877915339E+04 -0.40185667954E+03 -0.79863470361E+03  0.14945054573E+04  0.15294330000E+03 0.  0.
<mgrwt>
<rscale>  0 0.13764359E+04</rscale>
<asrwt>0</asrwt>
<pdfrwt beam="1">  1        2 0.20090980E+00 0.14163854E+04</pdfrwt>
<pdfrwt beam="2">  1       -2 0.53776216E+00 0.14163854E+04</pdfrwt>
<totfact> 0.15217008E-02</totfact>
</mgrwt>
</event>
<event>
 4    1  0.2502834E-007  0.1045999E+04  0.7818608E-02  0.9323706E-01
         -2   -1    0    0    0  501 -0.00000000000E+00  0.00000000000E+00  0.65806760595E+03  0.65806760596E+03  0.25500000000E-02 0.  1.
          2   -1    0    0  501    0  0.00000000000E+00 -0.00000000000E+00 -0.16222977259E+04  0.16222977259E+04  0.25500000000E-02 0. -1.
    8880023    1    1    2    0    0  0.77678111895E+03 -0.23856992779E+03 -0.49299565780E+02  0.10471605276E+04  0.65864270000E+03 0.  0.
    8880022    1    1    2    0    0 -0.77678111895E+03  0.23856992779E+03 -0.91493055418E+03  0.12332048042E+04  0.15294330000E+03 0.  0.
<mgrwt>
<rscale>  0 0.98629417E+03</rscale>
<asrwt>0</asrwt>
<pdfrwt beam="1">  1        2 0.24958426E+00 0.10459994E+04</pdfrwt>
<pdfrwt beam="2">  1       -2 0.10124117E+00 0.10459994E+04</pdfrwt>
<totfact> 0.86185092E+00</totfact>
</mgrwt>
</event>
<event>
 4    1  0.2502834E-007  0.1391370E+04  0.7818608E-02  0.8990417E-01
          2   -1    0    0  501    0  0.00000000000E+00  0.00000000000E+00  0.36711687426E+04  0.36711687426E+04  0.25500000000E-02 0. -1.
         -2   -1    0    0    0  501 -0.00000000000E+00 -0.00000000000E+00 -0.93518696542E+03  0.93518696543E+03  0.25500000000E-02 0.  1.
    8880023    1    1    2    0    0  0.81568731935E+02  0.12228848748E+04 -0.21448208373E+03  0.14078045481E+04  0.65864270000E+03 0.  1.
    8880022    1    1    2    0    0 -0.81568731935E+02 -0.12228848748E+04  0.29504638609E+04  0.31985511599E+04  0.15294330000E+03 0.  0.
<mgrwt>
<rscale>  0 0.13505426E+04</rscale>
<asrwt>0</asrwt>
<pdfrwt beam="1">  1        2 0.56479519E+00 0.13913702E+04</pdfrwt>
<pdfrwt beam="2">  1       -2 0.14387492E+00 0.13913702E+04</pdfrwt>
<totfact> 0.19898746E-01</totfact>
</mgrwt>
</event>
<event>
 4    1  0.2502834E-007  0.1206262E+04  0.7818608E-02  0.9151059E-01
         -2   -1    0    0    0  501 -0.00000000000E+00  0.00000000000E+00  0.16835837834E+04  0.16835837834E+04  0.25500000000E-02 0.  1.
          2   -1    0    0  501    0  0.00000000000E+00 -0.00000000000E+00 -0.17457997331E+04  0.17457997331E+04  0.25500000000E-02 0. -1.
    8880023    1    1    2    0    0 -0.76639271779E+03 -0.65871166539E+03  0.12691436733E+04  0.17509410972E+04  0.65864270000E+03 0.  0.
    8880022    1    1    2    0    0  0.76639271779E+03  0.65871166539E+03 -0.13313596231E+04  0.16784424193E+04  0.15294330000E+03 0.  0.
<mgrwt>
<rscale>  0 0.11573181E+04</rscale>
<asrwt>0</asrwt>
<pdfrwt beam="1">  1        2 0.26858457E+00 0.12062624E+04</pdfrwt>
<pdfrwt beam="2">  1       -2 0.25901289E+00 0.12062624E+04</pdfrwt>
<totfact> 0.50839356E-01</totfact>
</mgrwt>
</event>
<event>
 4    1  0.2502834E-007  0.1431449E+04  0.7818608E-02  0.8959624E-01
         -2   -1    0    0    0  501 -0.00000000000E+00  0.00000000000E+00  0.30176483967E+04  0.30176483967E+04  0.25500000000E-02 0.  1.
          2   -1    0    0  501    0  0.00000000000E+00 -0.00000000000E+00 -0.10493177944E+04  0.10493177944E+04  0.25500000000E-02 0. -1.
    8880023    1    1    2    0    0 -0.12558416133E+04  0.19518345846E+03  0.23319412839E+04  0.27362373980E+04  0.65864270000E+03 0.  0.
    8880022    1    1    2    0    0  0.12558416133E+04 -0.19518345846E+03 -0.36361068161E+03  0.13307287932E+04  0.15294330000E+03 0.  0.
<mgrwt>
<rscale>  0 0.13920082E+04</rscale>
<asrwt>0</asrwt>
<pdfrwt beam="1">  1        2 0.16143351E+00 0.14314485E+04</pdfrwt>
<pdfrwt beam="2">  1       -2 0.46425360E+00 0.14314485E+04</pdfrwt>
<totfact> 0.62445687E-02</totfact>
</mgrwt>
</event>
<event>
 4    1  0.2502834E-007  0.9490168E+03  0.7818608E-02  0.9451530E-01
         -2   -1    0    0    0  501 -0.00000000000E+00  0.00000000000E+00  0.21562330437E+04  0.21562330437E+04  0.25500000000E-02 0.  1.
          2   -1    0    0  501    0  0.00000000000E+00 -0.00000000000E+00 -0.15612990552E+04  0.15612990552E+04  0.25500000000E-02 0. -1.
    8880023    1    1    2    0    0 -0.23693198753E+03 -0.64084778470E+03  0.19631919497E+04  0.21805401825E+04  0.65864270000E+03 0.  1.
    8880022    1    1    2    0    0  0.23693198753E+03  0.64084778470E+03 -0.13682579612E+04  0.15369919165E+04  0.15294330000E+03 0.  0.
<mgrwt>
<rscale>  0 0.87953610E+03</rscale>
<asrwt>0</asrwt>
<pdfrwt beam="1">  1        2 0.24019986E+00 0.94901678E+03</pdfrwt>
<pdfrwt beam="2">  1       -2 0.33172816E+00 0.94901678E+03</pdfrwt>
<totfact> 0.24218761E-01</totfact>
</mgrwt>
</event>
<event>
 4    1  0.2502834E-007  0.1199239E+04  0.7818608E-02  0.9157862E-01
         -2   -1    0    0    0  501 -0.00000000000E+00  0.00000000000E+00  0.15249498814E+04  0.15249498814E+04  0.25500000000E-02 0.  1.
          2   -1    0    0  501    0  0.00000000000E+00 -0.00000000000E+00 -0.22604849911E+04  0.22604849911E+04  0.25500000000E-02 0. -1.
    8880023    1    1    2    0    0 -0.97677443708E+03  0.22422367006E+03  0.11392483647E+04  0.16541044701E+04  0.65864270000E+03 0.  1.
    8880022    1    1    2    0    0  0.97677443708E+03 -0.22422367006E+03 -0.18747834745E+04  0.21313304024E+04  0.15294330000E+03 0.  0.
<mgrwt>
<rscale>  0 0.11499147E+04</rscale>
<asrwt>0</asrwt>
<pdfrwt beam="1">  1        2 0.34776692E+00 0.11992392E+04</pdfrwt>
<pdfrwt beam="2">  1       -2 0.23460767E+00 0.11992392E+04</pdfrwt>
<totfact> 0.37210961E-01</totfact>
</mgrwt>
</event>
<event>
 4    1  0.2502834E-007  0.8590120E+03  0.7818608E-02  0.9595323E-01
         -2   -1    0    0    0  501 -0.00000000000E+00  0.00000000000E+00  0.50194905369E+03  0.50194905370E+03  0.25500000000E-02 0.  1.
          2   -1    0    0  501    0  0.00000000000E+00 -0.00000000000E+00 -0.26905637964E+04  0.26905637964E+04  0.25500000000E-02 0. -1.
    8880023    1    1    2    0    0 -0.51322347844E+03  0.20172506945E+03  0.70637414255E+02  0.86191136030E+03  0.65864270000E+03 0.  0.
    8880022    1    1    2    0    0  0.51322347844E+03 -0.20172506945E+03 -0.22592521570E+04  0.23306014898E+04  0.15294330000E+03 0.  0.
<mgrwt>
<rscale>  0 0.77606483E+03</rscale>
<asrwt>0</asrwt>
<pdfrwt beam="1">  1        2 0.41393288E+00 0.85901196E+03</pdfrwt>
<pdfrwt beam="2">  1       -2 0.77222933E-01 0.85901196E+03</pdfrwt>
<totfact> 0.41700458E+00</totfact>
</mgrwt>
</event>
<event>
 4    1  0.2502834E-007  0.7516469E+03  0.7818608E-02  0.9827233E-01
         -2   -1    0    0    0  501 -0.00000000000E+00  0.00000000000E+00  0.18558894899E+03  0.18558894900E+03  0.25500000000E-02 0.  1.
          2   -1    0    0  501    0  0.00000000000E+00 -0.00000000000E+00 -0.21846423088E+04  0.21846423088E+04  0.25500000000E-02 0. -1.
    8880023    1    1    2    0    0  0.28184788871E+03  0.22743051879E+03 -0.75428346418E+03  0.10648552126E+04  0.65864270000E+03 0.  0.
    8880022    1    1    2    0    0 -0.28184788871E+03 -0.22743051879E+03 -0.12447698956E+04  0.13053760452E+04  0.15294330000E+03 0.  0.
<mgrwt>
<rscale>  0 0.63921304E+03</rscale>
<asrwt>0</asrwt>
<pdfrwt beam="1">  1        2 0.33609880E+00 0.75164691E+03</pdfrwt>
<pdfrwt beam="2">  1       -2 0.28552148E-01 0.75164691E+03</pdfrwt>
<totfact> 0.61107752E+01</totfact>
</mgrwt>
</event>
<event>
 4    1  0.2502834E-007  0.1208958E+04  0.7818608E-02  0.9148463E-01
         -2   -1    0    0    0  501 -0.00000000000E+00  0.00000000000E+00  0.10144062395E+04  0.10144062395E+04  0.25500000000E-02 0.  1.
          2   -1    0    0  501    0  0.00000000000E+00 -0.00000000000E+00 -0.16464448281E+04  0.16464448281E+04  0.25500000000E-02 0. -1.
    8880023    1    1    2    0    0  0.92863609340E+03  0.40669941632E+03  0.33181213827E+03  0.12536661879E+04  0.65864270000E+03 0.  0.
    8880022    1    1    2    0    0 -0.92863609340E+03 -0.40669941632E+03 -0.96385072681E+03  0.14071848797E+04  0.15294330000E+03 0.  0.
<mgrwt>
<rscale>  0 0.11601579E+04</rscale>
<asrwt>0</asrwt>
<pdfrwt beam="1">  1        2 0.25329920E+00 0.12089581E+04</pdfrwt>
<pdfrwt beam="2">  1       -2 0.15606250E+00 0.12089581E+04</pdfrwt>
<totfact> 0.27482971E+00</totfact>
</mgrwt>
</event>
<event>
 4    1  0.2502834E-007  0.7940681E+03  0.7818608E-02  0.9723772E-01
         -2   -1    0    0    0  501 -0.00000000000E+00  0.00000000000E+00  0.91126841065E+03  0.91126841065E+03  0.25500000000E-02 0.  1.
          2   -1    0    0  501    0  0.00000000000E+00 -0.00000000000E+00 -0.74594680406E+03  0.74594680407E+03  0.25500000000E-02 0. -1.
    8880023    1    1    2    0    0 -0.17673390344E+03 -0.40681570109E+03  0.61727145374E+03  0.10057674389E+04  0.65864270000E+03 0.  1.
    8880022    1    1    2    0    0  0.17673390344E+03  0.40681570109E+03 -0.45194984715E+03  0.65144777583E+03  0.15294330000E+03 0.  0.
<mgrwt>
<rscale>  0 0.69618891E+03</rscale>
<asrwt>0</asrwt>
<pdfrwt beam="1">  1        2 0.11476105E+00 0.79406807E+03</pdfrwt>
<pdfrwt beam="2">  1       -2 0.14019514E+00 0.79406807E+03</pdfrwt>
<totfact> 0.13656836E+01</totfact>
</mgrwt>
</event>
<event>
 4    1  0.2502834E-007  0.1092874E+04  0.7818608E-02  0.9269032E-01
          2   -1    0    0  501    0  0.00000000000E+00  0.00000000000E+00  0.37799380095E+04  0.37799380095E+04  0.25500000000E-02 0. -1.
         -2   -1    0    0    0  501 -0.00000000000E+00 -0.00000000000E+00 -0.49499512493E+03  0.49499512493E+03  0.25500000000E-02 0.  1.
    8880023    1    1    2    0    0 -0.12179948872E+02  0.87201807203E+03  0.26041917701E+03  0.11234732855E+04  0.65864270000E+03 0.  0.
    8880022    1    1    2    0    0  0.12179948872E+02 -0.87201807203E+03  0.30245237075E+04  0.31514598490E+04  0.15294330000E+03 0.  0.
<mgrwt>
<rscale>  0 0.10368455E+04</rscale>
<asrwt>0</asrwt>
<pdfrwt beam="1">  1        2 0.58152896E+00 0.10928742E+04</pdfrwt>
<pdfrwt beam="2">  1       -2 0.76153092E-01 0.10928742E+04</pdfrwt>
<totfact> 0.80724795E-01</totfact>
</mgrwt>
</event>
<event>
 4    1  0.2502834E-007  0.1047406E+04  0.7818608E-02  0.9322006E-01
         -2   -1    0    0    0  501 -0.00000000000E+00  0.00000000000E+00  0.91514740968E+03  0.91514740968E+03  0.25500000000E-02 0.  1.
          2   -1    0    0  501    0  0.00000000000E+00 -0.00000000000E+00 -0.18656385416E+04  0.18656385416E+04  0.25500000000E-02 0. -1.
    8880023    1    1    2    0    0  0.36784486139E+03 -0.72659425217E+03  0.46073743252E+03  0.11442631853E+04  0.65864270000E+03 0.  1.
    8880022    1    1    2    0    0 -0.36784486139E+03  0.72659425217E+03 -0.14112285645E+04  0.16365227660E+04  0.15294330000E+03 0.  0.
<mgrwt>
<rscale>  0 0.98781923E+03</rscale>
<asrwt>0</asrwt>
<pdfrwt beam="1">  1        2 0.28702131E+00 0.10474060E+04</pdfrwt>
<pdfrwt beam="2">  1       -2 0.14079191E+00 0.10474060E+04</pdfrwt>
<totfact> 0.27812082E+00</totfact>
</mgrwt>
</event>
<event>
 4    1  0.2502834E-007  0.7212535E+03  0.7818608E-02  0.9918367E-01
          2   -1    0    0  501    0  0.00000000000E+00  0.00000000000E+00  0.12870143530E+04  0.12870143530E+04  0.25500000000E-02 0. -1.
         -2   -1    0    0    0  501 -0.00000000000E+00 -0.00000000000E+00 -0.23235175231E+03  0.23235175232E+03  0.25500000000E-02 0.  1.
    8880023    1    1    2    0    0  0.29331717481E+03  0.19012146360E+02  0.51553219410E+03  0.88655517378E+03  0.65864270000E+03 0.  0.
    8880022    1    1    2    0    0 -0.29331717481E+03 -0.19012146360E+02  0.53913040657E+03  0.63281093152E+03  0.15294330000E+03 0.  0.
<mgrwt>
<rscale>  0 0.59379339E+03</rscale>
<asrwt>0</asrwt>
<pdfrwt beam="1">  1        2 0.19800220E+00 0.72125352E+03</pdfrwt>
<pdfrwt beam="2">  1       -2 0.35746424E-01 0.72125352E+03</pdfrwt>
<totfact> 0.12586528E+02</totfact>
</mgrwt>
</event>
<event>
 4    1  0.2502834E-007  0.1531659E+04  0.7818608E-02  0.8887598E-01
         -2   -1    0    0    0  501 -0.00000000000E+00  0.00000000000E+00  0.13507529534E+04  0.13507529534E+04  0.25500000000E-02 0.  1.
          2   -1    0    0  501    0  0.00000000000E+00 -0.00000000000E+00 -0.20106844061E+04  0.20106844061E+04  0.25500000000E-02 0. -1.
    8880023    1    1    2    0    0  0.66360261710E+03 -0.12131780519E+04  0.43362059853E+03  0.15918562902E+04  0.65864270000E+03 0.  1.
    8880022    1    1    2    0    0 -0.66360261710E+03  0.12131780519E+04 -0.10935520512E+04  0.17695810692E+04  0.15294330000E+03 0.  0.
<mgrwt>
<rscale>  0 0.14952797E+04</rscale>
<asrwt>0</asrwt>
<pdfrwt beam="1">  1        2 0.30933606E+00 0.15316591E+04</pdfrwt>
<pdfrwt beam="2">  1       -2 0.20780815E+00 0.15316591E+04</pdfrwt>
<totfact> 0.72963976E-01</totfact>
</mgrwt>
</event>
<event>
 4    1  0.2502834E-007  0.7587664E+03  0.7818608E-02  0.9808312E-01
          2   -1    0    0  501    0  0.00000000000E+00  0.00000000000E+00  0.15409437320E+04  0.15409437320E+04  0.25500000000E-02 0. -1.
         -2   -1    0    0    0  501 -0.00000000000E+00 -0.00000000000E+00 -0.34002506158E+04  0.34002506158E+04  0.25500000000E-02 0.  1.
    8880023    1    1    2    0    0  0.16868922129E+03  0.33683848524E+03 -0.33299915553E+04  0.34153433477E+04  0.65864270000E+03 0.  1.
    8880022    1    1    2    0    0 -0.16868922129E+03 -0.33683848524E+03  0.14706846714E+04  0.15258510000E+04  0.15294330000E+03 0.  0.
<mgrwt>
<rscale>  0 0.64918392E+03</rscale>
<asrwt>0</asrwt>
<pdfrwt beam="1">  1        2 0.23706827E+00 0.75876638E+03</pdfrwt>
<pdfrwt beam="2">  1       -2 0.52311548E+00 0.75876638E+03</pdfrwt>
<totfact> 0.15307974E-02</totfact>
</mgrwt>
</event>
<event>
 4    1  0.2650502E-007  0.8986759E+03  0.7818608E-02  0.9528161E-01
          2   -1    0    0  501    0  0.00000000000E+00  0.00000000000E+00  0.14812429221E+04  0.14812429221E+04  0.25500000000E-02 0. -1.
         -2   -1    0    0    0  501 -0.00000000000E+00 -0.00000000000E+00 -0.16950272708E+04  0.16950272708E+04  0.25500000000E-02 0.  1.
    8880023    1    1    2    0    0 -0.44923257295E+03  0.41472678006E+03 -0.14973465354E+04  0.17463290240E+04  0.65864270000E+03 0.  0.
    8880022    1    1    2    0    0  0.44923257295E+03 -0.41472678006E+03  0.12835621866E+04  0.14299411689E+04  0.15294330000E+03 0.  0.
<mgrwt>
<rscale>  0 0.82239122E+03</rscale>
<asrwt>0</asrwt>
<pdfrwt beam="1">  1        2 0.22788353E+00 0.89867592E+03</pdfrwt>
<pdfrwt beam="2">  1       -2 0.26077343E+00 0.89867592E+03</pdfrwt>
<totfact> 0.72927746E-01</totfact>
</mgrwt>
</event>
<event>
 4    1  0.2502834E-007  0.7408351E+03  0.7818608E-02  0.9857521E-01
          2   -1    0    0  501    0  0.00000000000E+00  0.00000000000E+00  0.14359587604E+04  0.14359587604E+04  0.25500000000E-02 0. -1.
         -2   -1    0    0    0  501 -0.00000000000E+00 -0.00000000000E+00 -0.36728193611E+03  0.36728193612E+03  0.25500000000E-02 0.  1.
    8880023    1    1    2    0    0  0.21589483624E+03  0.26156434203E+03  0.77907474141E+02  0.74492030858E+03  0.65864270000E+03 0.  1.
    8880022    1    1    2    0    0 -0.21589483624E+03 -0.26156434203E+03  0.99076935019E+03  0.10583203880E+04  0.15294330000E+03 0.  0.
<mgrwt>
<rscale>  0 0.62364910E+03</rscale>
<asrwt>0</asrwt>
<pdfrwt beam="1">  1        2 0.22091673E+00 0.74083513E+03</pdfrwt>
<pdfrwt beam="2">  1       -2 0.56504913E-01 0.74083513E+03</pdfrwt>
<totfact> 0.41467784E+01</totfact>
</mgrwt>
</event>
<event>
 4    1  0.2502834E-007  0.8715653E+03  0.7818608E-02  0.9573313E-01
          2   -1    0    0  501    0  0.00000000000E+00  0.00000000000E+00  0.23840569482E+04  0.23840569482E+04  0.25500000000E-02 0. -1.
         -2   -1    0    0    0  501 -0.00000000000E+00 -0.00000000000E+00 -0.30574112995E+03  0.30574112996E+03  0.25500000000E-02 0.  1.
    8880023    1    1    2    0    0  0.10710134139E+03  0.56066498766E+03  0.50072726695E+03  0.10051636324E+04  0.65864270000E+03 0.  1.
    8880022    1    1    2    0    0 -0.10710134139E+03 -0.56066498766E+03  0.15775885513E+04  0.16846344458E+04  0.15294330000E+03 0.  0.
<mgrwt>
<rscale>  0 0.79087968E+03</rscale>
<asrwt>0</asrwt>
<pdfrwt beam="1">  1        2 0.36677800E+00 0.87156533E+03</pdfrwt>
<pdfrwt beam="2">  1       -2 0.47037096E-01 0.87156533E+03</pdfrwt>
<totfact> 0.17841196E+01</totfact>
</mgrwt>
</event>
<event>
 4    1  0.2502834E-007  0.7946250E+03  0.7818608E-02  0.9722541E-01
          2   -1    0    0  501    0  0.00000000000E+00  0.00000000000E+00  0.18526416653E+04  0.18526416653E+04  0.25500000000E-02 0. -1.
         -2   -1    0    0    0  501 -0.00000000000E+00 -0.00000000000E+00 -0.29916797851E+03  0.29916797852E+03  0.25500000000E-02 0.  1.
    8880023    1    1    2    0    0  0.42134169529E+03 -0.14173850852E+03  0.36639110325E+03  0.87502644291E+03  0.65864270000E+03 0.  0.
    8880022    1    1    2    0    0 -0.42134169529E+03  0.14173850852E+03  0.11870825836E+04  0.12767832009E+04  0.15294330000E+03 0.  0.
<mgrwt>
<rscale>  0 0.69690441E+03</rscale>
<asrwt>0</asrwt>
<pdfrwt beam="1">  1        2 0.28502179E+00 0.79462497E+03</pdfrwt>
<pdfrwt beam="2">  1       -2 0.46025843E-01 0.79462497E+03</pdfrwt>
<totfact> 0.36953269E+01</totfact>
</mgrwt>
</event>
<event>
 4    1  0.2502834E-007  0.8723204E+03  0.7818608E-02  0.9572013E-01
          2   -1    0    0  501    0  0.00000000000E+00  0.00000000000E+00  0.29648608759E+04  0.29648608759E+04  0.25500000000E-02 0. -1.
         -2   -1    0    0    0  501 -0.00000000000E+00 -0.00000000000E+00 -0.24634736811E+03  0.24634736812E+03  0.25500000000E-02 0.  1.
    8880023    1    1    2    0    0 -0.46121039287E+03 -0.33825671052E+03  0.73330487611E+03  0.11395959268E+04  0.65864270000E+03 0.  1.
    8880022    1    1    2    0    0  0.46121039287E+03  0.33825671052E+03  0.19852086317E+04  0.20716123173E+04  0.15294330000E+03 0.  0.
<mgrwt>
<rscale>  0 0.79176587E+03</rscale>
<asrwt>0</asrwt>
<pdfrwt beam="1">  1        2 0.45613243E+00 0.87232037E+03</pdfrwt>
<pdfrwt beam="2">  1       -2 0.37899596E-01 0.87232037E+03</pdfrwt>
<totfact> 0.12517106E+01</totfact>
</mgrwt>
</event>
<event>
 4    1  0.2502834E-007  0.8956992E+03  0.7818608E-02  0.9532971E-01
         -2   -1    0    0    0  501 -0.00000000000E+00  0.00000000000E+00  0.52985440653E+03  0.52985440654E+03  0.25500000000E-02 0.  1.
          2   -1    0    0  501    0  0.00000000000E+00 -0.00000000000E+00 -0.20021188959E+04  0.20021188959E+04  0.25500000000E-02 0. -1.
    8880023    1    1    2    0    0  0.47487969038E+02  0.60515429253E+03  0.38632592514E+02  0.89653193387E+03  0.65864270000E+03 0.  0.
    8880022    1    1    2    0    0 -0.47487969038E+02 -0.60515429253E+03 -0.15108970818E+04  0.16354413685E+04  0.15294330000E+03 0.  0.
<mgrwt>
<rscale>  0 0.81896019E+03</rscale>
<asrwt>0</asrwt>
<pdfrwt beam="1">  1        2 0.30801829E+00 0.89569919E+03</pdfrwt>
<pdfrwt beam="2">  1       -2 0.81516063E-01 0.89569919E+03</pdfrwt>
<totfact> 0.89581234E+00</totfact>
</mgrwt>
</event>
<event>
 4    1  0.2518455E-007  0.7653226E+03  0.7818608E-02  0.9791518E-01
         -2   -1    0    0    0  501 -0.00000000000E+00  0.00000000000E+00  0.88598731011E+03  0.88598731012E+03  0.25500000000E-02 0.  1.
          2   -1    0    0  501    0  0.00000000000E+00 -0.00000000000E+00 -0.27443911460E+04  0.27443911460E+04  0.25500000000E-02 0. -1.
    8880023    1    1    2    0    0  0.25810957499E+03 -0.29204107693E+03  0.70046493661E+03  0.10374824707E+04  0.65864270000E+03 0.  0.
    8880022    1    1    2    0    0 -0.25810957499E+03  0.29204107693E+03 -0.25588687725E+04  0.25928959854E+04  0.15294330000E+03 0.  0.
<mgrwt>
<rscale>  0 0.65819749E+03</rscale>
<asrwt>0</asrwt>
<pdfrwt beam="1">  1        2 0.42221402E+00 0.76532264E+03</pdfrwt>
<pdfrwt beam="2">  1       -2 0.13630574E+00 0.76532264E+03</pdfrwt>
<totfact> 0.10155081E+00</totfact>
</mgrwt>
</event>
<event>
 4    1  0.2502834E-007  0.8063906E+03  0.7818608E-02  0.9697145E-01
          2   -1    0    0  501    0  0.00000000000E+00  0.00000000000E+00  0.24724875189E+04  0.24724875189E+04  0.25500000000E-02 0. -1.
         -2   -1    0    0    0  501 -0.00000000000E+00 -0.00000000000E+00 -0.17935073950E+03  0.17935073952E+03  0.25500000000E-02 0.  1.
    8880023    1    1    2    0    0 -0.12304563695E+03  0.44868181370E+03  0.11156823464E+04  0.13765946764E+04  0.65864270000E+03 0.  0.
    8880022    1    1    2    0    0  0.12304563695E+03 -0.44868181370E+03  0.11774544330E+04  0.12752435820E+04  0.15294330000E+03 0.  0.
<mgrwt>
<rscale>  0 0.71187040E+03</rscale>
<asrwt>0</asrwt>
<pdfrwt beam="1">  1        2 0.38038269E+00 0.80639060E+03</pdfrwt>
<pdfrwt beam="2">  1       -2 0.27592422E-01 0.80639060E+03</pdfrwt>
<totfact> 0.44656776E+01</totfact>
</mgrwt>
</event>
<event>
 4    1  0.2502834E-007  0.1121201E+04  0.7818608E-02  0.9237810E-01
         -2   -1    0    0    0  501 -0.00000000000E+00  0.00000000000E+00  0.92929008349E+03  0.92929008349E+03  0.25500000000E-02 0.  1.
          2   -1    0    0  501    0  0.00000000000E+00 -0.00000000000E+00 -0.11464000215E+04  0.11464000215E+04  0.25500000000E-02 0. -1.
    8880023    1    1    2    0    0 -0.90381234764E+03  0.80035613111E+02  0.34596414862E+02  0.11217350745E+04  0.65864270000E+03 0.  1.
    8880022    1    1    2    0    0  0.90381234764E+03 -0.80035613111E+02 -0.25170635284E+03  0.95395503048E+03  0.15294330000E+03 0.  0.
<mgrwt>
<rscale>  0 0.10671544E+04</rscale>
<asrwt>0</asrwt>
<pdfrwt beam="1">  1        2 0.17636923E+00 0.11212014E+04</pdfrwt>
<pdfrwt beam="2">  1       -2 0.14296770E+00 0.11212014E+04</pdfrwt>
<totfact> 0.68026643E+00</totfact>
</mgrwt>
</event>
<event>
 4    1  0.2502834E-007  0.1167557E+04  0.7818608E-02  0.9189323E-01
          2   -1    0    0  501    0  0.00000000000E+00  0.00000000000E+00  0.25373774883E+04  0.25373774883E+04  0.25500000000E-02 0. -1.
         -2   -1    0    0    0  501 -0.00000000000E+00 -0.00000000000E+00 -0.63504435384E+03  0.63504435385E+03  0.25500000000E-02 0.  1.
    8880023    1    1    2    0    0 -0.76419992690E+03  0.58768872251E+03  0.18591523112E+04  0.21953671869E+04  0.65864270000E+03 0.  0.
    8880022    1    1    2    0    0  0.76419992690E+03 -0.58768872251E+03  0.43180823279E+02  0.97705465526E+03  0.15294330000E+03 0.  0.
<mgrwt>
<rscale>  0 0.11164318E+04</rscale>
<asrwt>0</asrwt>
<pdfrwt beam="1">  1        2 0.39036576E+00 0.11675572E+04</pdfrwt>
<pdfrwt beam="2">  1       -2 0.97699132E-01 0.11675572E+04</pdfrwt>
<totfact> 0.28547408E+00</totfact>
</mgrwt>
</event>
<event>
 4    1  0.2502834E-007  0.9308396E+03  0.7818608E-02  0.9478235E-01
          2   -1    0    0  501    0  0.00000000000E+00  0.00000000000E+00  0.19363617858E+04  0.19363617858E+04  0.25500000000E-02 0. -1.
         -2   -1    0    0    0  501 -0.00000000000E+00 -0.00000000000E+00 -0.68757193125E+03  0.68757193125E+03  0.25500000000E-02 0.  1.
    8880023    1    1    2    0    0 -0.40327945087E+03  0.51963239459E+03 -0.26375080005E+03  0.96748479667E+03  0.65864270000E+03 0.  1.
    8880022    1    1    2    0    0  0.40327945087E+03 -0.51963239459E+03  0.15125406546E+04  0.16564489204E+04  0.15294330000E+03 0.  0.
<mgrwt>
<rscale>  0 0.85907673E+03</rscale>
<asrwt>0</asrwt>
<pdfrwt beam="1">  1        2 0.29790181E+00 0.93083959E+03</pdfrwt>
<pdfrwt beam="2">  1       -2 0.10578030E+00 0.93083959E+03</pdfrwt>
<totfact> 0.52754299E+00</totfact>
</mgrwt>
</event>
<event>
 4    1  0.2502834E-007  0.7422331E+03  0.7818608E-02  0.9853489E-01
          2   -1    0    0  501    0  0.00000000000E+00  0.00000000000E+00  0.16159791671E+04  0.16159791671E+04  0.25500000000E-02 0. -1.
         -2   -1    0    0    0  501 -0.00000000000E+00 -0.00000000000E+00 -0.21534062187E+03  0.21534062188E+03  0.25500000000E-02 0.  1.
    8880023    1    1    2    0    0 -0.67676860768E+02  0.33543938355E+03  0.62681395705E+03  0.97149661890E+03  0.65864270000E+03 0.  1.
    8880022    1    1    2    0    0  0.67676860768E+02 -0.33543938355E+03  0.77382458819E+03  0.85982317009E+03  0.15294330000E+03 0.  0.
<mgrwt>
<rscale>  0 0.62569321E+03</rscale>
<asrwt>0</asrwt>
<pdfrwt beam="1">  1        2 0.24861218E+00 0.74223308E+03</pdfrwt>
<pdfrwt beam="2">  1       -2 0.33129326E-01 0.74223308E+03</pdfrwt>
<totfact> 0.94859166E+01</totfact>
</mgrwt>
</event>
<event>
 4    1  0.2502834E-007  0.6973909E+03  0.7818608E-02  0.1000820E+00
          2   -1    0    0  501    0  0.00000000000E+00  0.00000000000E+00  0.16049353857E+04  0.16049353857E+04  0.25500000000E-02 0. -1.
         -2   -1    0    0    0  501 -0.00000000000E+00 -0.00000000000E+00 -0.18848815847E+03  0.18848815849E+03  0.25500000000E-02 0.  1.
    8880023    1    1    2    0    0 -0.69159001695E+02 -0.21854278141E+03  0.56204726274E+03  0.89568479201E+03  0.65864270000E+03 0.  0.
    8880022    1    1    2    0    0  0.69159001695E+02  0.21854278141E+03  0.85439996448E+03  0.89773875216E+03  0.15294330000E+03 0.  0.
<mgrwt>
<rscale>  0 0.55292074E+03</rscale>
<asrwt>0</asrwt>
<pdfrwt beam="1">  1        2 0.24691314E+00 0.69739094E+03</pdfrwt>
<pdfrwt beam="2">  1       -2 0.28998178E-01 0.69739094E+03</pdfrwt>
<totfact> 0.12384857E+02</totfact>
</mgrwt>
</event>
<event>
 4    1  0.2502834E-007  0.1491006E+04  0.7818608E-02  0.8916013E-01
          2   -1    0    0  501    0  0.00000000000E+00  0.00000000000E+00  0.15401184421E+04  0.15401184421E+04  0.25500000000E-02 0. -1.
         -2   -1    0    0    0  501 -0.00000000000E+00 -0.00000000000E+00 -0.22940724055E+04  0.22940724055E+04  0.25500000000E-02 0.  1.
    8880023    1    1    2    0    0 -0.78831259715E+03 -0.10806722757E+04 -0.16446265361E+04  0.22198864764E+04  0.65864270000E+03 0.  0.
    8880022    1    1    2    0    0  0.78831259715E+03  0.10806722757E+04  0.89067257273E+03  0.16143043713E+04  0.15294330000E+03 0.  0.
<mgrwt>
<rscale>  0 0.14534489E+04</rscale>
<asrwt>0</asrwt>
<pdfrwt beam="1">  1        2 0.23694130E+00 0.14910062E+04</pdfrwt>
<pdfrwt beam="2">  1       -2 0.35293421E+00 0.14910062E+04</pdfrwt>
<totfact> 0.16938266E-01</totfact>
</mgrwt>
</event>
<event>
 4    1  0.2502834E-007  0.1318048E+04  0.7818608E-02  0.9050129E-01
         -2   -1    0    0    0  501 -0.00000000000E+00  0.00000000000E+00  0.14964510484E+04  0.14964510484E+04  0.25500000000E-02 0.  1.
          2   -1    0    0  501    0  0.00000000000E+00 -0.00000000000E+00 -0.16206444485E+04  0.16206444485E+04  0.25500000000E-02 0. -1.
    8880023    1    1    2    0    0 -0.89171407244E+03 -0.71294129222E+03  0.88340210812E+03  0.15867100441E+04  0.65864270000E+03 0.  0.
    8880022    1    1    2    0    0  0.89171407244E+03  0.71294129222E+03 -0.10075955082E+04  0.15303854528E+04  0.15294330000E+03 0.  0.
<mgrwt>
<rscale>  0 0.12743839E+04</rscale>
<asrwt>0</asrwt>
<pdfrwt beam="1">  1        2 0.24932992E+00 0.13180476E+04</pdfrwt>
<pdfrwt beam="2">  1       -2 0.23022324E+00 0.13180476E+04</pdfrwt>
<totfact> 0.88616763E-01</totfact>
</mgrwt>
</event>
<event>
 4    1  0.2502834E-007  0.7488472E+03  0.7818608E-02  0.9834887E-01
         -2   -1    0    0    0  501 -0.00000000000E+00  0.00000000000E+00  0.19164312207E+03  0.19164312209E+03  0.25500000000E-02 0.  1.
          2   -1    0    0  501    0  0.00000000000E+00 -0.00000000000E+00 -0.18276645456E+04  0.18276645456E+04  0.25500000000E-02 0. -1.
    8880023    1    1    2    0    0  0.31477701749E+03 -0.16696502425E+03 -0.13260458888E+04  0.15228820689E+04  0.65864270000E+03 0. -1.
    8880022    1    1    2    0    0 -0.31477701749E+03  0.16696502425E+03 -0.30997553469E+03  0.49642559884E+03  0.15294330000E+03 0.  0.
<mgrwt>
<rscale>  0 0.63523454E+03</rscale>
<asrwt>0</asrwt>
<pdfrwt beam="1">  1        2 0.28117915E+00 0.74884718E+03</pdfrwt>
<pdfrwt beam="2">  1       -2 0.29483559E-01 0.74884718E+03</pdfrwt>
<totfact> 0.90283950E+01</totfact>
</mgrwt>
</event>
<event>
 4    1  0.2502834E-007  0.1150676E+04  0.7818608E-02  0.9206627E-01
         -2   -1    0    0    0  501 -0.00000000000E+00  0.00000000000E+00  0.89941241764E+03  0.89941241765E+03  0.25500000000E-02 0.  1.
          2   -1    0    0  501    0  0.00000000000E+00 -0.00000000000E+00 -0.15156572385E+04  0.15156572385E+04  0.25500000000E-02 0. -1.
    8880023    1    1    2    0    0 -0.47419472318E+03 -0.81571045622E+03  0.18794942626E+03  0.11659242587E+04  0.65864270000E+03 0.  0.
    8880022    1    1    2    0    0  0.47419472318E+03  0.81571045622E+03 -0.80419424708E+03  0.12491453974E+04  0.15294330000E+03 0.  0.
<mgrwt>
<rscale>  0 0.10985285E+04</rscale>
<asrwt>0</asrwt>
<pdfrwt beam="1">  1        2 0.23317804E+00 0.11506756E+04</pdfrwt>
<pdfrwt beam="2">  1       -2 0.13837114E+00 0.11506756E+04</pdfrwt>
<totfact> 0.45020083E+00</totfact>
</mgrwt>
</event>
<event>
 4    1  0.2502834E-007  0.8541008E+03  0.7818608E-02  0.9604144E-01
          2   -1    0    0  501    0  0.00000000000E+00  0.00000000000E+00  0.20340139089E+04  0.20340139089E+04  0.25500000000E-02 0. -1.
         -2   -1    0    0    0  501 -0.00000000000E+00 -0.00000000000E+00 -0.13060788364E+04  0.13060788364E+04  0.25500000000E-02 0.  1.
    8880023    1    1    2    0    0 -0.51512914577E+03  0.17412617859E+03 -0.11195707424E+04  0.14081643428E+04  0.65864270000E+03 0.  0.
    8880022    1    1    2    0    0  0.51512914577E+03 -0.17412617859E+03  0.18475058150E+04  0.19319284025E+04  0.15294330000E+03 0.  0.
<mgrwt>
<rscale>  0 0.77022485E+03</rscale>
<asrwt>0</asrwt>
<pdfrwt beam="1">  1        2 0.31292521E+00 0.85410080E+03</pdfrwt>
<pdfrwt beam="2">  1       -2 0.20093521E+00 0.85410080E+03</pdfrwt>
<totfact> 0.85870475E-01</totfact>
</mgrwt>
</event>
<event>
 4    1  0.2502834E-007  0.1393565E+04  0.7818608E-02  0.8988699E-01
          2   -1    0    0  501    0  0.00000000000E+00  0.00000000000E+00  0.14638925077E+04  0.14638925077E+04  0.25500000000E-02 0. -1.
         -2   -1    0    0    0  501 -0.00000000000E+00 -0.00000000000E+00 -0.22849368439E+04  0.22849368439E+04  0.25500000000E-02 0.  1.
    8880023    1    1    2    0    0 -0.32305240151E+03 -0.11848415154E+04 -0.17240438498E+04  0.22168332533E+04  0.65864270000E+03 0.  0.
    8880022    1    1    2    0    0  0.32305240151E+03  0.11848415154E+04  0.90299951359E+03  0.15319960983E+04  0.15294330000E+03 0.  0.
<mgrwt>
<rscale>  0 0.13528158E+04</rscale>
<asrwt>0</asrwt>
<pdfrwt beam="1">  1        2 0.22521423E+00 0.13935647E+04</pdfrwt>
<pdfrwt beam="2">  1       -2 0.35152875E+00 0.13935647E+04</pdfrwt>
<totfact> 0.19333390E-01</totfact>
</mgrwt>
</event>
<event>
 4    1  0.2502834E-007  0.1247000E+04  0.7818608E-02  0.9112736E-01
          2   -1    0    0  501    0  0.00000000000E+00  0.00000000000E+00  0.17796903417E+04  0.17796903417E+04  0.25500000000E-02 0. -1.
         -2   -1    0    0    0  501 -0.00000000000E+00 -0.00000000000E+00 -0.11925100412E+04  0.11925100412E+04  0.25500000000E-02 0.  1.
    8880023    1    1    2    0    0  0.79692860515E+03  0.69721086287E+03 -0.59168012654E+03  0.13802513421E+04  0.65864270000E+03 0.  1.
    8880022    1    1    2    0    0 -0.79692860515E+03 -0.69721086287E+03  0.11788604270E+04  0.15919490408E+04  0.15294330000E+03 0.  0.
<mgrwt>
<rscale>  0 0.12001375E+04</rscale>
<asrwt>0</asrwt>
<pdfrwt beam="1">  1        2 0.27379851E+00 0.12469998E+04</pdfrwt>
<pdfrwt beam="2">  1       -2 0.18346308E+00 0.12469998E+04</pdfrwt>
<totfact> 0.14676551E+00</totfact>
</mgrwt>
</event>
<event>
 4    1  0.2502834E-007  0.8484669E+03  0.7818608E-02  0.9614417E-01
         -2   -1    0    0    0  501 -0.00000000000E+00  0.00000000000E+00  0.48988514644E+03  0.48988514645E+03  0.25500000000E-02 0.  1.
          2   -1    0    0  501    0  0.00000000000E+00 -0.00000000000E+00 -0.27827770400E+04  0.27827770400E+04  0.25500000000E-02 0. -1.
    8880023    1    1    2    0    0 -0.52400184276E+03  0.10727520242E+03  0.64123123830E+02  0.85088652683E+03  0.65864270000E+03 0.  1.
    8880022    1    1    2    0    0  0.52400184276E+03 -0.10727520242E+03 -0.23570150174E+04  0.24217756596E+04  0.15294330000E+03 0.  0.
<mgrwt>
<rscale>  0 0.76349259E+03</rscale>
<asrwt>0</asrwt>
<pdfrwt beam="1">  1        2 0.42811954E+00 0.84846692E+03</pdfrwt>
<pdfrwt beam="2">  1       -2 0.75366947E-01 0.84846692E+03</pdfrwt>
<totfact> 0.38929377E+00</totfact>
</mgrwt>
</event>
<event>
 4    1  0.2502834E-007  0.7080006E+03  0.7818608E-02  0.9965502E-01
          2   -1    0    0  501    0  0.00000000000E+00  0.00000000000E+00  0.76043067015E+03  0.76043067016E+03  0.25500000000E-02 0. -1.
         -2   -1    0    0    0  501 -0.00000000000E+00 -0.00000000000E+00 -0.20131689390E+04  0.20131689390E+04  0.25500000000E-02 0.  1.
    8880023    1    1    2    0    0  0.10755242932E+03 -0.23640461136E+03 -0.19173194725E+04  0.20438637017E+04  0.65864270000E+03 0.  1.
    8880022    1    1    2    0    0 -0.10755242932E+03  0.23640461136E+03  0.66458120366E+03  0.72973590743E+03  0.15294330000E+03 0.  0.
<mgrwt>
<rscale>  0 0.57189150E+03</rscale>
<asrwt>0</asrwt>
<pdfrwt beam="1">  1        2 0.11698933E+00 0.70800062E+03</pdfrwt>
<pdfrwt beam="2">  1       -2 0.30971830E+00 0.70800062E+03</pdfrwt>
<totfact> 0.10759773E+00</totfact>
</mgrwt>
</event>
<event>
 4    1  0.2502834E-007  0.1012943E+04  0.7818608E-02  0.9364817E-01
          2   -1    0    0  501    0  0.00000000000E+00  0.00000000000E+00  0.14379511087E+04  0.14379511087E+04  0.25500000000E-02 0. -1.
         -2   -1    0    0    0  501 -0.00000000000E+00 -0.00000000000E+00 -0.10788684607E+04  0.10788684607E+04  0.25500000000E-02 0.  1.
    8880023    1    1    2    0    0  0.35019288121E+03  0.68527968833E+03 -0.67612202434E+03  0.12178647311E+04  0.65864270000E+03 0.  0.
    8880022    1    1    2    0    0 -0.35019288121E+03 -0.68527968833E+03  0.10352046723E+04  0.12989548383E+04  0.15294330000E+03 0.  0.
<mgrwt>
<rscale>  0 0.95028563E+03</rscale>
<asrwt>0</asrwt>
<pdfrwt beam="1">  1        2 0.22122325E+00 0.10129430E+04</pdfrwt>
<pdfrwt beam="2">  1       -2 0.16597976E+00 0.10129430E+04</pdfrwt>
<totfact> 0.31061257E+00</totfact>
</mgrwt>
</event>
<event>
 4    1  0.2502834E-007  0.1437935E+04  0.7818608E-02  0.8954753E-01
         -2   -1    0    0    0  501 -0.00000000000E+00  0.00000000000E+00  0.21992506178E+04  0.21992506178E+04  0.25500000000E-02 0.  1.
          2   -1    0    0  501    0  0.00000000000E+00 -0.00000000000E+00 -0.28185179578E+04  0.28185179578E+04  0.25500000000E-02 0. -1.
    8880023    1    1    2    0    0 -0.12671179464E+04 -0.16810770170E+03  0.17840430324E+04  0.22913899357E+04  0.65864270000E+03 0.  0.
    8880022    1    1    2    0    0  0.12671179464E+04  0.16810770170E+03 -0.24033103724E+04  0.27263786400E+04  0.15294330000E+03 0.  0.
<mgrwt>
<rscale>  0 0.13987101E+04</rscale>
<asrwt>0</asrwt>
<pdfrwt beam="1">  1        2 0.43361815E+00 0.14379354E+04</pdfrwt>
<pdfrwt beam="2">  1       -2 0.33834625E+00 0.14379354E+04</pdfrwt>
<totfact> 0.39411890E-02</totfact>
</mgrwt>
</event>
<event>
 4    1  0.2502834E-007  0.9693087E+03  0.7818608E-02  0.9422861E-01
          2   -1    0    0  501    0  0.00000000000E+00  0.00000000000E+00  0.73378132091E+03  0.73378132092E+03  0.25500000000E-02 0. -1.
         -2   -1    0    0    0  501 -0.00000000000E+00 -0.00000000000E+00 -0.12739751341E+04  0.12739751341E+04  0.25500000000E-02 0.  1.
    8880023    1    1    2    0    0  0.33129165886E+03 -0.62928125488E+03 -0.77750198055E+03  0.12426055677E+04  0.65864270000E+03 0.  0.
    8880022    1    1    2    0    0 -0.33129165886E+03  0.62928125488E+03  0.23730816737E+03  0.76515088727E+03  0.15294330000E+03 0.  0.
<mgrwt>
<rscale>  0 0.90217952E+03</rscale>
<asrwt>0</asrwt>
<pdfrwt beam="1">  1        2 0.11288943E+00 0.96930865E+03</pdfrwt>
<pdfrwt beam="2">  1       -2 0.19599617E+00 0.96930865E+03</pdfrwt>
<totfact> 0.54308728E+00</totfact>
</mgrwt>
</event>
<event>
 4    1  0.2600887E-007  0.8902234E+03  0.7818608E-02  0.9541912E-01
         -2   -1    0    0    0  501 -0.00000000000E+00  0.00000000000E+00  0.14143708665E+04  0.14143708665E+04  0.25500000000E-02 0.  1.
          2   -1    0    0  501    0  0.00000000000E+00 -0.00000000000E+00 -0.17380346379E+04  0.17380346379E+04  0.25500000000E-02 0. -1.
    8880023    1    1    2    0    0  0.11066400763E+03  0.58859232322E+03  0.12080753164E+04  0.15006477341E+04  0.65864270000E+03 0.  1.
    8880022    1    1    2    0    0 -0.11066400763E+03 -0.58859232322E+03 -0.15317390878E+04  0.16517577703E+04  0.15294330000E+03 0.  0.
<mgrwt>
<rscale>  0 0.81263103E+03</rscale>
<asrwt>0</asrwt>
<pdfrwt beam="1">  1        2 0.26738995E+00 0.89022337E+03</pdfrwt>
<pdfrwt beam="2">  1       -2 0.21759552E+00 0.89022337E+03</pdfrwt>
<totfact> 0.96976922E-01</totfact>
</mgrwt>
</event>
<event>
 4    1  0.2502834E-007  0.1148942E+04  0.7818608E-02  0.9208427E-01
          2   -1    0    0  501    0  0.00000000000E+00  0.00000000000E+00  0.31995141149E+04  0.31995141149E+04  0.25500000000E-02 0. -1.
         -2   -1    0    0    0  501 -0.00000000000E+00 -0.00000000000E+00 -0.49234977180E+03  0.49234977180E+03  0.25500000000E-02 0.  1.
    8880023    1    1    2    0    0  0.90370715200E+03  0.26376251943E+03  0.43656628808E+03  0.12290881227E+04  0.65864270000E+03 0.  0.
    8880022    1    1    2    0    0 -0.90370715200E+03 -0.26376251943E+03  0.22705980550E+04  0.24627757640E+04  0.15294330000E+03 0.  0.
<mgrwt>
<rscale>  0 0.10966872E+04</rscale>
<asrwt>0</asrwt>
<pdfrwt beam="1">  1        2 0.49223294E+00 0.11489419E+04</pdfrwt>
<pdfrwt beam="2">  1       -2 0.75746119E-01 0.11489419E+04</pdfrwt>
<totfact> 0.20364981E+00</totfact>
</mgrwt>
</event>
<event>
 4    1  0.2502834E-007  0.8953611E+03  0.7818608E-02  0.9533520E-01
         -2   -1    0    0    0  501 -0.00000000000E+00  0.00000000000E+00  0.88965003951E+03  0.88965003952E+03  0.25500000000E-02 0.  1.
          2   -1    0    0  501    0  0.00000000000E+00 -0.00000000000E+00 -0.13211434493E+04  0.13211434493E+04  0.25500000000E-02 0. -1.
    8880023    1    1    2    0    0 -0.45621770059E+03  0.39965822871E+03  0.54716755298E+03  0.10493158854E+04  0.65864270000E+03 0.  1.
    8880022    1    1    2    0    0  0.45621770059E+03 -0.39965822871E+03 -0.97866096274E+03  0.11614776034E+04  0.15294330000E+03 0.  0.
<mgrwt>
<rscale>  0 0.81857008E+03</rscale>
<asrwt>0</asrwt>
<pdfrwt beam="1">  1        2 0.20325284E+00 0.89536110E+03</pdfrwt>
<pdfrwt beam="2">  1       -2 0.13686924E+00 0.89536110E+03</pdfrwt>
<totfact> 0.61422300E+00</totfact>
</mgrwt>
</event>
<event>
 4    1  0.2502834E-007  0.9273324E+03  0.7818608E-02  0.9483507E-01
         -2   -1    0    0    0  501 -0.00000000000E+00  0.00000000000E+00  0.89026233042E+03  0.89026233042E+03  0.25500000000E-02 0.  1.
          2   -1    0    0  501    0  0.00000000000E+00 -0.00000000000E+00 -0.13208869295E+04  0.13208869295E+04  0.25500000000E-02 0. -1.
    8880023    1    1    2    0    0 -0.53616717498E+03 -0.37237073056E+03  0.50823021878E+03  0.10574702653E+04  0.65864270000E+03 0.  1.
    8880022    1    1    2    0    0  0.53616717498E+03  0.37237073056E+03 -0.93885481785E+03  0.11536789946E+04  0.15294330000E+03 0.  0.
<mgrwt>
<rscale>  0 0.85510813E+03</rscale>
<asrwt>0</asrwt>
<pdfrwt beam="1">  1        2 0.20321337E+00 0.92733241E+03</pdfrwt>
<pdfrwt beam="2">  1       -2 0.13696344E+00 0.92733241E+03</pdfrwt>
<totfact> 0.61110764E+00</totfact>
</mgrwt>
</event>
<event>
 4    1  0.2502834E-007  0.6934390E+03  0.7818608E-02  0.1002559E+00
          2   -1    0    0  501    0  0.00000000000E+00  0.00000000000E+00  0.10374990754E+04  0.10374990754E+04  0.25500000000E-02 0. -1.
         -2   -1    0    0    0  501 -0.00000000000E+00 -0.00000000000E+00 -0.30098040564E+03  0.30098040565E+03  0.25500000000E-02 0.  1.
    8880023    1    1    2    0    0 -0.21100800440E+03  0.50229847698E+02  0.17165034222E+03  0.71436787566E+03  0.65864270000E+03 0.  1.
    8880022    1    1    2    0    0  0.21100800440E+03 -0.50229847698E+02  0.56486832754E+03  0.62411160540E+03  0.15294330000E+03 0.  0.
<mgrwt>
<rscale>  0 0.54542230E+03</rscale>
<asrwt>0</asrwt>
<pdfrwt beam="1">  1        2 0.15961524E+00 0.69343898E+03</pdfrwt>
<pdfrwt beam="2">  1       -2 0.46304677E-01 0.69343898E+03</pdfrwt>
<totfact> 0.10729666E+02</totfact>
</mgrwt>
</event>
<event>
 4    1  0.2502834E-007  0.1083003E+04  0.7818608E-02  0.9280221E-01
         -2   -1    0    0    0  501 -0.00000000000E+00  0.00000000000E+00  0.88150754219E+03  0.88150754219E+03  0.25500000000E-02 0.  1.
          2   -1    0    0  501    0  0.00000000000E+00 -0.00000000000E+00 -0.13100273291E+04  0.13100273291E+04  0.25500000000E-02 0. -1.
    8880023    1    1    2    0    0  0.85212912803E+03 -0.11384446752E+03  0.21840059901E+03  0.11048047979E+04  0.65864270000E+03 0.  1.
    8880022    1    1    2    0    0 -0.85212912803E+03  0.11384446752E+03 -0.64692038593E+03  0.10867300734E+04  0.15294330000E+03 0.  0.
<mgrwt>
<rscale>  0 0.10262436E+04</rscale>
<asrwt>0</asrwt>
<pdfrwt beam="1">  1        2 0.20154267E+00 0.10830027E+04</pdfrwt>
<pdfrwt beam="2">  1       -2 0.13561655E+00 0.10830027E+04</pdfrwt>
<totfact> 0.62586114E+00</totfact>
</mgrwt>
</event>
<event>
 4    1  0.2502834E-007  0.7748162E+03  0.7818608E-02  0.9768158E-01
          2   -1    0    0  501    0  0.00000000000E+00  0.00000000000E+00  0.28716088053E+04  0.28716088053E+04  0.25500000000E-02 0. -1.
         -2   -1    0    0    0  501 -0.00000000000E+00 -0.00000000000E+00 -0.21112936718E+03  0.21112936720E+03  0.25500000000E-02 0.  1.
    8880023    1    1    2    0    0  0.37148402427E+03 -0.16890691198E+03  0.60906927849E+03  0.98554833340E+03  0.65864270000E+03 0.  1.
    8880022    1    1    2    0    0 -0.37148402427E+03  0.16890691198E+03  0.20514101596E+04  0.20971898391E+04  0.15294330000E+03 0.  0.
<mgrwt>
<rscale>  0 0.67099735E+03</rscale>
<asrwt>0</asrwt>
<pdfrwt beam="1">  1        2 0.44178596E+00 0.77481619E+03</pdfrwt>
<pdfrwt beam="2">  1       -2 0.32481442E-01 0.77481619E+03</pdfrwt>
<totfact> 0.19418615E+01</totfact>
</mgrwt>
</event>
<event>
 4    1  0.2502834E-007  0.7268572E+03  0.7818608E-02  0.9900032E-01
         -2   -1    0    0    0  501 -0.00000000000E+00  0.00000000000E+00  0.25490325754E+03  0.25490325755E+03  0.25500000000E-02 0.  1.
          2   -1    0    0  501    0  0.00000000000E+00 -0.00000000000E+00 -0.16523706416E+04  0.16523706416E+04  0.25500000000E-02 0. -1.
    8880023    1    1    2    0    0 -0.60293496453E+02 -0.30145617081E+03 -0.35344519996E+03  0.80823563660E+03  0.65864270000E+03 0.  0.
    8880022    1    1    2    0    0  0.60293496453E+02  0.30145617081E+03 -0.10440221841E+04  0.10990382625E+04  0.15294330000E+03 0.  0.
<mgrwt>
<rscale>  0 0.60259748E+03</rscale>
<asrwt>0</asrwt>
<pdfrwt beam="1">  1        2 0.25421086E+00 0.72685716E+03</pdfrwt>
<pdfrwt beam="2">  1       -2 0.39215887E-01 0.72685716E+03</pdfrwt>
<totfact> 0.65702786E+01</totfact>
</mgrwt>
</event>
<event>
 4    1  0.2502834E-007  0.7104590E+03  0.7818608E-02  0.9956300E-01
         -2   -1    0    0    0  501 -0.00000000000E+00  0.00000000000E+00  0.70923834675E+03  0.70923834675E+03  0.25500000000E-02 0.  1.
          2   -1    0    0  501    0  0.00000000000E+00 -0.00000000000E+00 -0.84404363539E+03  0.84404363539E+03  0.25500000000E-02 0. -1.
    8880023    1    1    2    0    0 -0.29325351375E+01 -0.26633281384E+03  0.48591189913E+03  0.86073361005E+03  0.65864270000E+03 0.  1.
    8880022    1    1    2    0    0  0.29325351375E+01  0.26633281384E+03 -0.62071718777E+03  0.69254837210E+03  0.15294330000E+03 0.  0.
<mgrwt>
<rscale>  0 0.57608618E+03</rscale>
<asrwt>0</asrwt>
<pdfrwt beam="1">  1        2 0.12985287E+00 0.71045899E+03</pdfrwt>
<pdfrwt beam="2">  1       -2 0.10911359E+00 0.71045899E+03</pdfrwt>
<totfact> 0.21876220E+01</totfact>
</mgrwt>
</event>
<event>
 4    1  0.2502834E-007  0.1118822E+04  0.7818608E-02  0.9240384E-01
          2   -1    0    0  501    0  0.00000000000E+00  0.00000000000E+00  0.19260699851E+04  0.19260699851E+04  0.25500000000E-02 0. -1.
         -2   -1    0    0    0  501 -0.00000000000E+00 -0.00000000000E+00 -0.11140882636E+04  0.11140882636E+04  0.25500000000E-02 0.  1.
    8880023    1    1    2    0    0 -0.80960917667E+03 -0.40309549685E+03 -0.66499958257E+03  0.13015328077E+04  0.65864270000E+03 0.  0.
    8880022    1    1    2    0    0  0.80960917667E+03  0.40309549685E+03  0.14769813041E+04  0.17386254410E+04  0.15294330000E+03 0.  0.
<mgrwt>
<rscale>  0 0.10646149E+04</rscale>
<asrwt>0</asrwt>
<pdfrwt beam="1">  1        2 0.29631846E+00 0.11188222E+04</pdfrwt>
<pdfrwt beam="2">  1       -2 0.17139819E+00 0.11188222E+04</pdfrwt>
<totfact> 0.15011403E+00</totfact>
</mgrwt>
</event>
<event>
 4    1  0.2502834E-007  0.7430663E+03  0.7818608E-02  0.9851103E-01
          2   -1    0    0  501    0  0.00000000000E+00  0.00000000000E+00  0.13819755488E+04  0.13819755488E+04  0.25500000000E-02 0. -1.
         -2   -1    0    0    0  501 -0.00000000000E+00 -0.00000000000E+00 -0.25937377565E+03  0.25937377566E+03  0.25500000000E-02 0.  1.
    8880023    1    1    2    0    0 -0.28590005309E+02  0.34281189168E+03  0.44482197419E+03  0.86603358853E+03  0.65864270000E+03 0.  1.
    8880022    1    1    2    0    0  0.28590005309E+02 -0.34281189168E+03  0.67777979892E+03  0.77531573589E+03  0.15294330000E+03 0.  0.
<mgrwt>
<rscale>  0 0.62690689E+03</rscale>
<asrwt>0</asrwt>
<pdfrwt beam="1">  1        2 0.21261162E+00 0.74306634E+03</pdfrwt>
<pdfrwt beam="2">  1       -2 0.39903658E-01 0.74306634E+03</pdfrwt>
<totfact> 0.89657467E+01</totfact>
</mgrwt>
</event>
<event>
 4    1  0.2502834E-007  0.1084139E+04  0.7818608E-02  0.9278924E-01
         -2   -1    0    0    0  501 -0.00000000000E+00  0.00000000000E+00  0.67830105157E+03  0.67830105158E+03  0.25500000000E-02 0.  1.
          2   -1    0    0  501    0  0.00000000000E+00 -0.00000000000E+00 -0.15070920134E+04  0.15070920134E+04  0.25500000000E-02 0. -1.
    8880023    1    1    2    0    0  0.76654730162E+03 -0.39236821746E+03 -0.18599537788E+03  0.10999782137E+04  0.65864270000E+03 0.  0.
    8880022    1    1    2    0    0 -0.76654730162E+03  0.39236821746E+03 -0.64279558397E+03  0.10854148513E+04  0.15294330000E+03 0.  0.
<mgrwt>
<rscale>  0 0.10274653E+04</rscale>
<asrwt>0</asrwt>
<pdfrwt beam="1">  1        2 0.23186031E+00 0.10841392E+04</pdfrwt>
<pdfrwt beam="2">  1       -2 0.10435401E+00 0.10841392E+04</pdfrwt>
<totfact> 0.92620637E+00</totfact>
</mgrwt>
</event>
<event>
 4    1  0.2502834E-007  0.8751669E+03  0.7818608E-02  0.9567134E-01
          2   -1    0    0  501    0  0.00000000000E+00  0.00000000000E+00  0.22412118423E+04  0.22412118423E+04  0.25500000000E-02 0. -1.
         -2   -1    0    0    0  501 -0.00000000000E+00 -0.00000000000E+00 -0.28499765036E+03  0.28499765037E+03  0.25500000000E-02 0.  1.
    8880023    1    1    2    0    0 -0.18788424418E+03 -0.54479946134E+03  0.64934979624E+03  0.10897579118E+04  0.65864270000E+03 0.  0.
    8880022    1    1    2    0    0  0.18788424418E+03  0.54479946134E+03  0.13068643957E+04  0.14364515808E+04  0.15294330000E+03 0.  0.
<mgrwt>
<rscale>  0 0.79510211E+03</rscale>
<asrwt>0</asrwt>
<pdfrwt beam="1">  1        2 0.34480184E+00 0.87516693E+03</pdfrwt>
<pdfrwt beam="2">  1       -2 0.43845790E-01 0.87516693E+03</pdfrwt>
<totfact> 0.24668971E+01</totfact>
</mgrwt>
</event>
<event>
 4    1  0.2515643E-007  0.6855594E+03  0.7818608E-02  0.1006339E+00
         -2   -1    0    0    0  501 -0.00000000000E+00  0.00000000000E+00  0.10333968531E+04  0.10333968531E+04  0.25500000000E-02 0.  1.
          2   -1    0    0  501    0  0.00000000000E+00 -0.00000000000E+00 -0.22785946968E+04  0.22785946968E+04  0.25500000000E-02 0. -1.
    8880023    1    1    2    0    0 -0.14285878748E+03  0.12559005008E+03  0.91205203424E+03  0.11409779197E+04  0.65864270000E+03 0.  1.
    8880022    1    1    2    0    0  0.14285878748E+03 -0.12559005008E+03 -0.21572498779E+04  0.21710136302E+04  0.15294330000E+03 0.  0.
<mgrwt>
<rscale>  0 0.52955996E+03</rscale>
<asrwt>0</asrwt>
<pdfrwt beam="1">  1        2 0.35055303E+00 0.68555941E+03</pdfrwt>
<pdfrwt beam="2">  1       -2 0.15898413E+00 0.68555941E+03</pdfrwt>
<totfact> 0.12676539E+00</totfact>
</mgrwt>
</event>
<event>
 4    1  0.2502834E-007  0.1437098E+04  0.7818608E-02  0.8955380E-01
          2   -1    0    0  501    0  0.00000000000E+00  0.00000000000E+00  0.17595220887E+04  0.17595220887E+04  0.25500000000E-02 0. -1.
         -2   -1    0    0    0  501 -0.00000000000E+00 -0.00000000000E+00 -0.13020964959E+04  0.13020964959E+04  0.25500000000E-02 0.  1.
    8880023    1    1    2    0    0  0.12840375732E+03  0.12708084399E+04  0.90646304746E+03  0.16990959592E+04  0.65864270000E+03 0.  0.
    8880022    1    1    2    0    0 -0.12840375732E+03 -0.12708084399E+04 -0.44903745468E+03  0.13625226254E+04  0.15294330000E+03 0.  0.
<mgrwt>
<rscale>  0 0.13978455E+04</rscale>
<asrwt>0</asrwt>
<pdfrwt beam="1">  1        2 0.27069570E+00 0.14370984E+04</pdfrwt>
<pdfrwt beam="2">  1       -2 0.20032254E+00 0.14370984E+04</pdfrwt>
<totfact> 0.11378076E+00</totfact>
</mgrwt>
</event>
<event>
 4    1  0.2502834E-007  0.1154302E+04  0.7818608E-02  0.9202877E-01
         -2   -1    0    0    0  501 -0.00000000000E+00  0.00000000000E+00  0.25819373625E+04  0.25819373625E+04  0.25500000000E-02 0.  1.
          2   -1    0    0  501    0  0.00000000000E+00 -0.00000000000E+00 -0.27179581251E+04  0.27179581251E+04  0.25500000000E-02 0. -1.
    8880023    1    1    2    0    0  0.61787015632E+03 -0.71891574917E+03  0.23591173389E+04  0.26263754890E+04  0.65864270000E+03 0.  0.
    8880022    1    1    2    0    0 -0.61787015632E+03  0.71891574917E+03 -0.24951381015E+04  0.26735199986E+04  0.15294330000E+03 0.  0.
<mgrwt>
<rscale>  0 0.11023785E+04</rscale>
<asrwt>0</asrwt>
<pdfrwt beam="1">  1        2 0.41814740E+00 0.11543022E+04</pdfrwt>
<pdfrwt beam="2">  1       -2 0.39722113E+00 0.11543022E+04</pdfrwt>
<totfact> 0.20073727E-02</totfact>
</mgrwt>
</event>
<event>
 4    1  0.2502834E-007  0.1501483E+04  0.7818608E-02  0.8908589E-01
         -2   -1    0    0    0  501 -0.00000000000E+00  0.00000000000E+00  0.94892839130E+03  0.94892839130E+03  0.25500000000E-02 0.  1.
          2   -1    0    0  501    0  0.00000000000E+00 -0.00000000000E+00 -0.24229411140E+04  0.24229411140E+04  0.25500000000E-02 0. -1.
    8880023    1    1    2    0    0 -0.13461457102E+04  0.92375662215E+02 -0.20894444278E+03  0.15159516887E+04  0.65864270000E+03 0.  0.
    8880022    1    1    2    0    0  0.13461457102E+04 -0.92375662215E+02 -0.12650682799E+04  0.18559178166E+04  0.15294330000E+03 0.  0.
<mgrwt>
<rscale>  0 0.14642372E+04</rscale>
<asrwt>0</asrwt>
<pdfrwt beam="1">  1        2 0.37276017E+00 0.15014832E+04</pdfrwt>
<pdfrwt beam="2">  1       -2 0.14598898E+00 0.15014832E+04</pdfrwt>
<totfact> 0.11731907E+00</totfact>
</mgrwt>
</event>
<event>
 4    1  0.2502834E-007  0.1628148E+04  0.7818608E-02  0.8824075E-01
          2   -1    0    0  501    0  0.00000000000E+00  0.00000000000E+00  0.16847722454E+04  0.16847722454E+04  0.25500000000E-02 0. -1.
         -2   -1    0    0    0  501 -0.00000000000E+00 -0.00000000000E+00 -0.18852012430E+04  0.18852012430E+04  0.25500000000E-02 0.  1.
    8880023    1    1    2    0    0  0.60285805718E+03 -0.13614762278E+04 -0.96142238808E+03  0.18908195499E+04  0.65864270000E+03 0.  0.
    8880022    1    1    2    0    0 -0.60285805718E+03  0.13614762278E+04  0.76099339049E+03  0.16791539385E+04  0.15294330000E+03 0.  0.
<mgrwt>
<rscale>  0 0.15942713E+04</rscale>
<asrwt>0</asrwt>
<pdfrwt beam="1">  1        2 0.25919573E+00 0.16281479E+04</pdfrwt>
<pdfrwt beam="2">  1       -2 0.29003096E+00 0.16281479E+04</pdfrwt>
<totfact> 0.33892477E-01</totfact>
</mgrwt>
</event>
<event>
 4    1  0.2502834E-007  0.8662257E+03  0.7818608E-02  0.9582584E-01
         -2   -1    0    0    0  501 -0.00000000000E+00  0.00000000000E+00  0.67694322310E+03  0.67694322310E+03  0.25500000000E-02 0.  1.
          2   -1    0    0  501    0  0.00000000000E+00 -0.00000000000E+00 -0.20242006514E+04  0.20242006514E+04  0.25500000000E-02 0. -1.
    8880023    1    1    2    0    0  0.80918645650E+02 -0.55676655965E+03  0.32883470148E+03  0.92654157830E+03  0.65864270000E+03 0.  1.
    8880022    1    1    2    0    0 -0.80918645650E+02  0.55676655965E+03 -0.16760921298E+04  0.17746022962E+04  0.15294330000E+03 0.  0.
<mgrwt>
<rscale>  0 0.78459721E+03</rscale>
<asrwt>0</asrwt>
<pdfrwt beam="1">  1        2 0.31141548E+00 0.86622574E+03</pdfrwt>
<pdfrwt beam="2">  1       -2 0.10414511E+00 0.86622574E+03</pdfrwt>
<totfact> 0.49444057E+00</totfact>
</mgrwt>
</event>
<event>
 4    1  0.2502834E-007  0.7473863E+03  0.7818608E-02  0.9838931E-01
          2   -1    0    0  501    0  0.00000000000E+00  0.00000000000E+00  0.64706479730E+03  0.64706479730E+03  0.25500000000E-02 0. -1.
         -2   -1    0    0    0  501 -0.00000000000E+00 -0.00000000000E+00 -0.97794085379E+03  0.97794085380E+03  0.25500000000E-02 0.  1.
    8880023    1    1    2    0    0  0.16036729698E+02  0.35287228655E+03 -0.74801132370E+03  0.10574058700E+04  0.65864270000E+03 0.  1.
    8880022    1    1    2    0    0 -0.16036729698E+02 -0.35287228655E+03  0.41713526721E+03  0.56759978108E+03  0.15294330000E+03 0.  0.
<mgrwt>
<rscale>  0 0.63314477E+03</rscale>
<asrwt>0</asrwt>
<pdfrwt beam="1">  1        2 0.99548430E-01 0.74738627E+03</pdfrwt>
<pdfrwt beam="2">  1       -2 0.15045244E+00 0.74738627E+03</pdfrwt>
<totfact> 0.13642443E+01</totfact>
</mgrwt>
</event>
